/*--------------------------------*- C++ -*----------------------------------*\
| =========                 |                                                 |
| \\      /  F ield         | OpenFOAM: The Open Source CFD Toolbox           |
|  \\    /   O peration     | Version:  2406                                  |
|   \\  /    A nd           | Website:  www.openfoam.com                      |
|    \\/     M anipulation  |                                                 |
\*---------------------------------------------------------------------------*/
FoamFile
{
    version     2.0;
    format      ascii;
    arch        "LSB;label=32;scalar=64";
    class       surfaceScalarField;
    location    "135";
    object      phi;
}
// * * * * * * * * * * * * * * * * * * * * * * * * * * * * * * * * * * * * * //

dimensions      [1 0 -1 0 0 0 0];

oriented        oriented;

internalField   nonuniform List<scalar> 
40800
(
0.00077679146
0.00096918447
-0.0012323595
0.00087298589
0.0010432651
-0.001199607
0.00095013077
0.00098839323
-0.0010219689
0.0010048534
0.00093546493
-0.0011278039
0.0010682726
0.00088338972
-0.00090303888
0.0011258859
0.00083790974
-0.00090595271
0.0011763305
0.00081679212
-0.00089807363
0.0012363298
0.00078054201
-0.00076661482
0.0012866168
0.00079405707
-0.00086573588
0.0013295665
0.00076116096
-0.0008415964
0.0013799376
0.00070181902
-0.00073026567
0.0014371053
0.0007613491
-0.0008288694
0.0014828287
0.00082539573
-0.00088392018
0.0015172784
0.00074186766
-0.0008117411
0.0015765187
0.0007645899
-0.00081680356
0.0016470625
0.00093680238
-0.0009901185
0.0016338354
0.00084894178
-0.0009531261
0.0017278223
0.00078693872
-0.00079470701
0.0018418796
0.0011600938
-0.0011867999
0.0017947565
0.0010957145
-0.001208832
0.0018514651
0.00090366717
-0.00096256792
0.0019922087
0.0011835014
-0.0011865744
0.0020752206
0.0013431042
-0.0014166528
0.0020003896
0.0012029331
-0.0012937262
0.0021235651
0.0011946257
-0.001172705
0.0024090882
0.0014528088
-0.0014293142
0.0024303728
0.0018083076
-0.0018507198
0.0024789179
0.0019541139
-0.0020521896
0.0027432517
0.0017377949
-0.0019133638
0.0027562931
0.0015404644
-0.001833884
0.0018323204
0.0024766913
-0.0019951881
0.00077445623
0.00069812372
0.00086624342
0.00086809836
0.00094297217
0.00098333929
0.0010003045
0.00074692758
0.0010653924
0.00086453458
0.001123
0.00078342959
0.0011747434
0.00074048591
0.0012350602
0.00079760209
0.0012819933
0.00072148384
0.0013244572
0.00069181499
0.0013778403
0.00068472841
0.0014339304
0.00069968568
0.0014723799
0.00074597076
0.0015121869
0.0006866748
0.0015808993
0.00072156646
0.0016317639
0.00085094409
0.0016230074
0.00076790528
0.0017606287
0.00081498724
0.0018250146
0.0010847061
0.0017620019
0.00095818145
0.0018861861
0.0009016712
0.0020097437
0.0011895265
0.0020418971
0.0012694292
0.00199426
0.0011739556
0.0021537372
0.0012939624
0.002491855
0.0015051047
0.0024990063
0.0016631335
0.0023816661
0.0017451302
0.00258075
0.0015982235
0.0028321952
0.0013717798
0.001611636
0.0027439326
0.00077431456
0.00048760822
0.00086147163
0.00070415193
0.00093159048
0.00096656397
0.0009923662
0.00062744209
0.0010575614
0.00080692269
0.0011146231
0.00073355713
0.0011697067
0.0006736117
0.0012274322
0.00077682647
0.0012732535
0.00065776661
0.0013173181
0.00062375186
0.0013705458
0.00067564915
0.0014254675
0.00066191026
0.0014588678
0.00065485065
0.0015040256
0.00064344314
0.0015761986
0.00070239918
0.0016114392
0.0007492251
0.0016166232
0.00069110876
0.0017747099
0.00086168223
0.0017949903
0.00098008538
0.0017425583
0.00081317739
0.0019214911
0.00092420398
0.00201204
0.0011953192
0.0020208945
0.0011577319
0.0020241259
0.0011126963
0.002173434
0.0013795235
0.0024875647
0.001541418
0.0024975339
0.001466154
0.0023077513
0.0014468817
0.0024467261
0.0014706362
0.0028535144
0.0013411727
0.0014187778
0.0030250953
0.00077379176
0.00039340425
0.00085687923
0.00057831897
0.00091770804
0.0009110352
0.00098103263
0.00060345914
0.0010439667
0.00070965021
0.0011005089
0.00068250597
0.0011600519
0.00064223599
0.0012134341
0.00070799208
0.0012603631
0.00059954433
0.0013081437
0.00056011376
0.0013596148
0.0006399865
0.0014123389
0.00064357225
0.0014440101
0.00056922951
0.0014943762
0.00060491674
0.0015629778
0.00069190635
0.0015889469
0.00065646621
0.0016168782
0.00062530645
0.0017673849
0.0008967892
0.0017565536
0.00086624493
0.001737039
0.00068924968
0.0019460956
0.00093658498
0.0019881366
0.0011689016
0.0019897985
0.0010367515
0.0020708535
0.00099438944
0.0021792829
0.0013656629
0.0024000132
0.0015293556
0.0024481885
0.0012616203
0.0022806597
0.0011491018
0.0023309307
0.001356711
0.0027749826
0.0014670772
0.0013626658
0.0031602327
0.0007743557
0.00042988779
0.00085322736
0.00051638611
0.00090511339
0.00080300179
0.00096881252
0.00065773263
0.0010255914
0.00061628003
0.0010811333
0.00063771855
0.0011424
0.00063290335
0.0011917386
0.00061828638
0.001241427
0.00054607522
0.0012932801
0.00052637393
0.0013433112
0.00057358868
0.0013916599
0.00061483051
0.001426512
0.00050945407
0.001481401
0.00057214617
0.0015407015
0.00067452502
0.0015648162
0.00059194053
0.0016202743
0.0005821554
0.0017407712
0.00089654065
0.0017151957
0.00075082566
0.0017417132
0.00060782571
0.0019549066
0.00093194872
0.0019441432
0.0010831151
0.0019478381
0.00091507237
0.0021161278
0.00087256671
0.0021883049
0.0012191807
0.002272167
0.0014284196
0.0023670238
0.0010991895
0.0023165294
0.00090605647
0.002312816
0.0012276137
0.0026321459
0.0016200065
0.0015071973
0.0030800635
0.00077549064
0.00054830889
0.00084992312
0.00052765387
0.00089520563
0.00067121308
0.00095578328
0.00073395541
0.0010065993
0.00055003712
0.0010601475
0.00058737091
0.0011183607
0.00060760933
0.0011634972
0.00052681421
0.001215295
0.00050615104
0.001267862
0.0005160345
0.0013184107
0.00051145961
0.0013622604
0.00056512615
0.0014047173
0.00048001679
0.0014630318
0.00054409794
0.0015106982
0.00064130406
0.0015373397
0.00054377126
0.0016207267
0.00056034736
0.0016965545
0.00083828961
0.0016732037
0.00064628939
0.0017501801
0.00058121964
0.0019428065
0.00091400033
0.0018904452
0.00095150518
0.0019025559
0.00079980535
0.0021483983
0.00080010058
0.0022058625
0.0010254248
0.0021490504
0.001231046
0.0022535815
0.0010168435
0.0023761802
0.00078358335
0.0024267195
0.0010840913
0.0025287626
0.0016132715
0.0017187226
0.0028227079
0.0007823008
0.00066526828
0.00084374526
0.00058723013
0.00088468078
0.00057989567
0.00093944307
0.00076802564
0.00098717937
0.00051168528
0.0010375427
0.00052324784
0.0010889833
0.00056580653
0.0011322078
0.00044461986
0.0011840717
0.00046981273
0.0012331871
0.00048651024
0.001284845
0.00046881575
0.0013243588
0.00049472474
0.0013752856
0.00045743728
0.0014360769
0.0005181704
0.0014729194
0.00057082104
0.0015067092
0.00051465818
0.0016119604
0.00055153073
0.0016412645
0.00072939837
0.0016335167
0.00055271969
0.0017540053
0.00060363697
0.0019049946
0.00087209381
0.0018321217
0.00078343228
0.00185364
0.00071874871
0.0021360714
0.00081557329
0.0022047686
0.00088444007
0.0020649618
0.0009715875
0.0021597217
0.0009764929
0.002430456
0.00083465202
0.0025907106
0.00096880362
0.002574753
0.0013740767
0.001688898
0.0025983905
0.00079786512
0.00071337182
0.00084004048
0.00063280151
0.00087980583
0.00056822907
0.00092305052
0.00072169774
0.00096805672
0.00049676521
0.0010137067
0.00046221339
0.0010572842
0.00049636676
0.0011006191
0.00039103205
0.0011497091
0.00043025705
0.0011950316
0.0004283898
0.0012454485
0.00043793997
0.0012807966
0.00041101588
0.001338046
0.00043665954
0.0013974939
0.00049181715
0.0014281731
0.0004674063
0.0014709116
0.0004790522
0.0015874926
0.00055578429
0.0015816869
0.0005986005
0.0016022083
0.00046843856
0.0017462891
0.000642261
0.0018429108
0.00081923114
0.0017841779
0.00060056998
0.0018215139
0.00065411751
0.0020884802
0.00089952968
0.0021759126
0.00082455765
0.0020243746
0.0007420736
0.0020689475
0.00091427032
0.0024080494
0.0010051736
0.0026685626
0.00095322678
0.0026669832
0.001036686
0.0013102853
0.002515679
0.00084711427
0.00067088619
0.0008497082
0.00064087888
0.00088912839
0.0006172258
0.00092212441
0.00059583679
0.00096341024
0.00047981744
0.0010031359
0.00041682125
0.0010369114
0.00039941477
0.0010774084
0.0003718602
0.0011192816
0.00040496382
0.0011611929
0.00037461717
0.0012057195
0.00040597291
0.0012396447
0.00033532543
0.0012985021
0.00041406967
0.0013495898
0.00045322732
0.0013817423
0.00036491475
0.0014301465
0.0004337267
0.0015434498
0.00055726973
0.0015210788
0.0004719322
0.0015775714
0.00040117825
0.0017246352
0.00065965106
0.0017630971
0.00076093454
0.0017510294
0.00045970422
0.0018164151
0.00058464783
0.0020143771
0.00097239006
0.0021186866
0.00083965134
0.0020385879
0.00058747721
0.0020466851
0.00080021176
0.0023283024
0.001153184
0.0026090328
0.0010597678
0.0026598406
0.00080667954
0.00079408826
0.0025011169
0.00094722498
0.0005435019
0.00089848651
0.00061939153
0.0009220659
0.00068912525
0.00094205661
0.00044233666
0.00097471007
0.00044397209
0.0010084861
0.0003871679
0.0010377888
0.00031550411
0.0010769195
0.00035539082
0.0011113997
0.00038156659
0.0011500418
0.00034850928
0.0011843203
0.00035826776
0.0012193293
0.00029367006
0.0012710461
0.00040612599
0.0013062637
0.00039979957
0.0013434692
0.00029897873
0.0013937305
0.00038421499
0.0014856087
0.00053516149
0.0014624348
0.00035917783
0.001553466
0.00036025451
0.0016880687
0.00063645971
0.0016687913
0.00067082312
0.0017148358
0.00037498563
0.0018378356
0.00050998042
0.0019364254
0.00095980919
0.0020133523
0.00087719203
0.0020477284
0.00050839524
0.0021016162
0.00065798066
0.0022449989
0.0011298876
0.0024490654
0.0011825553
0.0025321544
0.00074231125
0.00046130331
0.0024993788
0.0010073259
0.0003320894
0.00097769413
0.00053053692
0.00099162016
0.00072076468
0.001005491
0.00033704165
0.0010222774
0.00040348855
0.0010393793
0.00038204813
0.0010602148
0.00027800425
0.0010919861
0.00032849021
0.0011193237
0.00033771161
0.001154891
0.00033847623
0.0011819971
0.00030558562
0.0012221068
0.00027102643
0.0012636368
0.00037514776
0.0012870092
0.00033170552
0.0013302704
0.00026170379
0.0013801513
0.00033800061
0.0014379561
0.00048226565
0.001424924
0.00028458312
0.0015375924
0.00035209788
0.0016448504
0.00057714942
0.0015782766
0.00054559034
0.0016793923
0.00033751185
0.0018658261
0.00045792239
0.0018810517
0.00082638623
0.0018859518
0.00083494368
0.0020171758
0.00050141227
0.0021643898
0.00053185225
0.0022135801
0.00090902514
0.0022584171
0.0011469134
0.0023236593
0.00082043605
0.00039722572
0.0024298274
0.0010112637
0.00011933386
0.0010450849
0.00035941956
0.0010699994
0.00064724787
0.0010982764
0.00029542068
0.0011160319
0.00037021981
0.001121789
0.00039288413
0.0011299871
0.00029544756
0.0011452801
0.00031949674
0.0011616985
0.00028973096
0.0011870891
0.00033232946
0.0012049322
0.00026760331
0.0012432539
0.00026377842
0.0012702473
0.00031291687
0.0012864029
0.00027037264
0.0013326639
0.00024979601
0.0013835315
0.00029255114
0.0014095924
0.00040244346
0.0014171357
0.00025110463
0.0015352409
0.00037676272
0.0016081642
0.00049007587
0.0015127805
0.00040631192
0.001651625
0.00035537045
0.001876495
0.00045412658
0.001836122
0.00062586706
0.001773155
0.00066096722
0.0019651974
0.00052443955
0.0021882405
0.0004738065
0.0022231934
0.00062788999
0.0021317909
0.00086533954
0.0021534924
0.00083218212
0.0005822684
0.0023309482
0.00096205939
5.9992885e-06
0.0010415342
0.00021274633
0.0010794406
0.00048355623
0.0011293352
0.000304153
0.0011678871
0.00033085871
0.0011950687
0.00037187049
0.0012211295
0.00032800413
0.0012373249
0.00031508134
0.0012522858
0.00025576755
0.0012673695
0.00031386669
0.0012775551
0.00024558273
0.0013053395
0.00027820743
0.0013153683
0.00026718159
0.0013238608
0.0002387616
0.001362908
0.00027221083
0.0014085546
0.00026860548
0.0014073154
0.0003160075
0.0014378902
0.00023317271
0.0015412184
0.00041458726
0.001586603
0.00039685059
0.001494675
0.00025321469
0.0016372989
0.00039786773
0.001862663
0.00050328746
0.0017948868
0.00043376386
0.0016918614
0.00040768668
0.0018885519
0.0005294546
0.0021450572
0.00050362305
0.0022004942
0.00044580281
0.0020605756
0.00045961967
0.0020323941
0.00065981774
0.00074016457
0.0022301686
0.00090667558
1.2773285e-05
0.00099828902
0.00018560836
0.0010510204
0.00032511529
0.0011133501
0.00034437913
0.0011591656
0.00030207851
0.0011945525
0.00033022344
0.0012335567
0.00035164617
0.0012627144
0.00029981539
0.0012958116
0.00023546024
0.0013202051
0.00025935847
0.0013455244
0.00022582341
0.001376799
0.00029147886
0.0013862131
0.00023462109
0.0013984949
0.0002140302
0.0014299633
0.0003001469
0.0014704265
0.00027199725
0.0014507232
0.00024318965
0.0015026187
0.00022199105
0.0015725863
0.00043935899
0.0015933994
0.00033218943
0.0015362101
0.00012792648
0.001652743
0.00041372906
0.0018387652
0.00058202281
0.001773809
0.00029474333
0.001688287
0.00017799769
0.001836513
0.0004772896
0.0020697579
0.00060740705
0.002129439
0.00038992186
0.0020542401
0.00019412721
0.0020016246
0.00034764271
0.00071346467
0.0021613173
0.00090986897
0.00013268158
0.00097504344
0.00027275901
0.0010106454
0.00027607378
0.001068176
0.00038512015
0.0011163632
0.00028969152
0.0011604352
0.00027060655
0.0012069796
0.00033467666
0.0012421828
0.00027910708
0.0012821202
0.00024266924
0.0013086675
0.00020218815
0.0013455444
0.00021166937
0.0013800088
0.00029277503
0.0013999848
0.00020361013
0.0014313192
0.00017305735
0.0014658712
0.00029207781
0.0015140241
0.00026886003
0.0014993911
0.00017924219
0.0015807902
0.00021574028
0.0016192036
0.00042451618
0.0016237379
0.00028625833
0.0016328674
6.5693576e-05
0.0017231922
0.00038800724
0.0018267385
0.0006337191
0.0017846449
0.00023825936
0.0017670254
4.5928211e-05
0.0018686378
0.00037332821
0.0020131675
0.00070593047
0.0020484099
0.00045820932
0.0020591628
0.0001297363
0.0020847742
0.00012919085
0.00052625895
0.0021727923
0.0010100338
0.00030595496
0.0010110275
0.00042259189
0.0010307864
0.00035491178
0.0010744656
0.00036911208
0.0011114092
0.0002675877
0.0011463587
0.0002200359
0.0011826087
0.00027880622
0.0012148151
0.00024085681
0.0012512765
0.00025527457
0.001277831
0.00015317282
0.0013212978
0.00019172413
0.00135225
0.00025402162
0.0013767482
0.00016410144
0.0014199854
0.00014646205
0.0014511582
0.00025623969
0.0014979556
0.00025649174
0.0014949176
0.00013598942
0.0015994699
0.00021052131
0.0016107071
0.00035654087
0.0016057862
0.00023543485
0.0016869142
5.8534808e-05
0.0017847435
0.00031873756
0.0017943857
0.00057573246
0.0017716386
0.00025722757
0.0018506399
2.4155928e-05
0.0019752138
0.00027458434
0.0019979011
0.00066937967
0.0019866399
0.00057030575
0.002048851
0.00021577915
0.0021970438
0.00011296293
0.00030984106
0.0022873024
0.0010075522
0.00032977038
0.0010484882
0.00046908953
0.0010709973
0.00047679298
0.001108077
0.00029885407
0.0011379384
0.00021798898
0.0011672782
0.00018065325
0.0011943722
0.00019905054
0.0012227444
0.00018538771
0.0012496318
0.00024310651
0.0012738898
0.00011440302
0.0013127101
0.00017490207
0.0013322891
0.00018661658
0.0013564865
0.00013481842
0.0014035791
0.0001406834
0.0014277603
0.00020459792
0.0014672435
0.00022685855
0.0014773926
0.00011510887
0.0015868442
0.00020173136
0.001573903
0.00024666888
0.0015639773
0.00018109979
0.0016983895
0.00010287643
0.0018036465
0.00025327781
0.001738539
0.00040040225
0.0017281231
0.00026434213
0.0018953363
8.533891e-05
0.0020646994
0.00024945748
0.002008694
0.00046982474
0.0019406777
0.0005405193
0.0020398908
0.00036346034
0.0022572798
0.00021750879
0.00024857342
0.0023923355
0.00095140755
0.00018927639
0.0010216556
0.00034436847
0.0010614702
0.00050321326
0.0011012364
0.00019283716
0.0011361242
0.00016169462
0.0011677637
0.00015607784
0.0011954088
0.00012336965
0.0012258733
0.00012927878
0.0012463662
0.00017996371
0.0012755929
9.7110804e-05
0.0013091872
0.00016184771
0.0013233487
0.00011790702
0.0013488581
0.00012536299
0.0013948065
0.00014286173
0.0014122064
0.00013865497
0.0014396802
0.0001729526
0.0014591166
0.00010740552
0.0015556428
0.0002036172
0.0015318509
0.00012649002
0.001517731
0.000119734
0.0016717639
0.00019627541
0.0017712147
0.00021367426
0.0016737475
0.00017611305
0.0016594543
0.00020230604
0.0018798498
0.0002170233
0.0020564417
0.00028142445
0.0019901453
0.00024097888
0.0018817509
0.00031245198
0.0019805418
0.00038563621
0.0022285449
0.00038629285
0.00029118987
0.0023931896
0.0009504692
-4.5507622e-05
0.00099599717
0.00012606264
0.0010271593
0.0004190084
0.0010677059
8.4690832e-05
0.0011063885
0.00010895309
0.001141964
0.00015154147
0.0011741141
7.6959413e-05
0.0012079872
9.7665626e-05
0.0012287602
9.5317469e-05
0.0012661214
0.00010491377
0.0012954293
0.00013745342
0.0013125563
5.9764172e-05
0.0013405274
0.00010505962
0.0013824748
0.00015322361
0.0013994924
6.8220927e-05
0.0014195872
0.00010007433
0.0014531017
9.5817184e-05
0.0015268709
0.00021741447
0.001510527
2.8030958e-05
0.0015047031
3.3867254e-05
0.0016425331
0.00027931721
0.0017237127
0.00020233187
0.001638504
3.4079494e-06
0.0016209106
5.0483896e-05
0.0018436166
0.00032826175
0.0019851502
0.00031897822
0.0019399256
0.00010064075
0.0018450198
1.1766095e-06
0.0019192374
0.0002302568
0.0021364684
0.00045226139
0.00039114037
0.0022984128
0.0010269086
-0.00026092655
0.0010318779
-5.058286e-05
0.0010429195
0.00027927179
0.0010804747
-1.4289716e-07
0.0011139811
6.3154675e-05
0.0011431254
0.00014477251
0.0011731824
6.9678087e-05
0.0012028976
7.6726525e-05
0.0012239878
2.5236205e-05
0.0012629345
0.00012690271
0.0012863658
9.3925185e-05
0.0013091038
2.6476911e-05
0.0013395187
7.9022484e-05
0.001372283
0.00015921169
0.0013928725
1.9131935e-05
0.0014105669
3.6390557e-05
0.0014575764
7.9830941e-05
0.0014987263
0.00021409273
0.001500146
-2.1801479e-05
0.0015241881
-3.0994505e-05
0.0016165513
0.00030178475
0.001673417
0.00020165221
0.0016270675
-9.3117521e-05
0.0016432761
-8.0140192e-05
0.0018051491
0.00031985328
0.001899675
0.0003709122
0.0018579958
3.5128821e-05
0.001845604
-0.00019954769
0.0019196355
-4.0175775e-06
0.0020541741
0.00036501699
0.00041669471
0.0021561469
0.001059822
-0.00040175448
0.0010850606
-0.0001265648
0.0010928834
0.00016311189
0.0011356124
-3.0726013e-05
0.0011632528
4.0308033e-05
0.001184331
0.00013129598
0.0012113638
7.780271e-05
0.0012334344
5.8767439e-05
0.0012572345
-1.1180489e-05
0.0012893089
0.00014244771
0.001308331
5.3885739e-05
0.0013344446
2.2462063e-05
0.001366214
6.0678003e-05
0.0013840455
0.00013753175
0.0014117037
-1.1972473e-06
0.0014302999
3.7133749e-10
0.001488495
4.9017399e-05
0.0014936433
0.00017674678
0.0015103421
-3.8290238e-05
0.0015772589
-6.8611608e-05
0.001616273
0.00022864078
0.0016351332
0.00019944229
0.0016315189
-0.00011680621
0.0017099716
-0.00013743722
0.0018157085
0.00020159371
0.0018308675
0.00035718301
0.0017813948
1.9466864e-05
0.0018542387
-0.00023154286
0.0019860054
-0.00015293329
0.0020403358
0.0001768787
0.0003243224
0.0020576855
0.0010802795
-0.00034223271
0.0010808497
-7.0711933e-05
0.0010938074
0.00016476304
0.001148861
-4.1677662e-05
0.0011846606
2.7532128e-05
0.0012119489
8.7753118e-05
0.0012460811
6.1032691e-05
0.0012718518
3.4307193e-05
0.0013068207
-1.1858999e-05
0.0013347453
0.00010122919
0.0013597282
2.7657635e-05
0.0013899364
2.24983e-05
0.0014263463
3.1201052e-05
0.001435151
8.5620678e-05
0.0014711133
6.9566172e-08
0.0014923017
-1.038718e-05
0.0015596658
1.7959724e-05
0.0015365989
9.7545658e-05
0.0015711974
-2.5025502e-05
0.0016730583
-5.5560624e-05
0.0016769375
0.00011230865
0.0016545244
0.00013730924
0.0016898618
-7.2534151e-05
0.0018152486
-0.00010320417
0.0018930929
7.5828909e-05
0.0018221098
0.00021526513
0.0017747394
5.1254846e-05
0.0019081458
-0.00013722752
0.0021007978
-0.00012972531
0.0021151986
4.145761e-05
0.00015691554
0.0020451137
0.00085356822
0.00094538512
0.0012342755
0.0012320426
0.0012678182
0.0013335757
0.0013787927
0.0014254167
0.0014731057
0.0014992042
0.001531751
0.0015729527
0.0016120008
0.0016357168
0.0016816849
0.0017055229
0.0017754861
0.0017352701
0.0017683945
0.0018892383
0.001879191
0.0018271797
0.0018810278
0.0020269845
0.0021035835
0.0019889327
0.0019180974
0.0020815257
0.0023155914
0.0023586762
0.0022401503
-1.0872123e-05
0.0020608226
4.5919026e-05
0.0019200216
0.00020594066
0.0019420769
0.00039274829
0.0020252041
0.00047278665
0.0020895085
0.00035195633
0.0021216267
0.00011048753
0.0021615749
-1.6399844e-05
0.0021997283
5.7048739e-05
0.0022769342
0.00043542179
0.0024228274
0.0009686893
0.0025252936
0.0012771154
0.0024995527
0.0011911409
0.0023676078
0.00082750628
0.0022385754
0.00056784797
0.0021888618
0.00067178256
0.0022767745
0.0011297203
0.0024893445
0.0015480427
0.0027664775
0.0015947053
0.0029387947
0.0013018719
0.0029431154
0.00092919575
0.0028458686
0.00078080258
0.0027657153
0.0028468192
0.0010603349
0.00024286832
0.002295565
0.0004692738
0.0021064352
0.00060125344
0.0019925403
0.00059069551
0.0018997747
0.00047492295
0.0018319482
0.00031200654
0.0018096061
0.00017381276
0.0018616888
0.00021426103
0.0019797174
0.00038006906
0.0021636151
0.00059388512
0.0023382506
0.00067649126
0.0024062161
0.00058361533
0.0023934818
0.00040091046
0.0023484212
0.00039718368
0.0023397118
0.00068189078
0.0024317546
0.0011976406
0.0025499065
0.0016775951
0.0025998202
0.0017974741
0.0025972955
0.0014639091
0.0025377872
0.00092822821
0.0024236049
0.00061738066
0.0024037575
0.00079373366
0.0026140831
0.0029909286
0.0013719458
4.7405506e-05
0.0023291462
-4.3810203e-05
0.0021450495
-0.00010720437
0.0020365241
-4.158256e-05
0.0019605818
0.00013389845
0.0019447607
0.00045607224
0.0019542636
0.00080397045
0.0019926051
0.0010511645
0.0020041951
0.0010163326
0.0020117159
0.00071904358
0.0020020415
0.0003216684
0.0019739587
7.1406432e-05
0.0020041421
7.8379768e-05
0.0021123423
0.00040276139
0.0023478263
0.00091457155
0.0026331731
0.0013301569
0.0027964624
0.0014356579
0.0027823092
0.0012537426
0.0026364111
0.00095440806
0.0024478627
0.00080381754
0.0023112879
0.0010417614
0.0022954836
0.0015525421
0.0024604563
0.0027549753
0.0019488342
-0.00042459778
0.0019607392
-0.00072567751
0.0018719414
-0.00076664365
0.00188529
-0.00052040639
0.0019830066
-2.7388371e-05
0.0021291822
0.00053614635
0.0022251338
0.00090539894
0.0022503074
0.00093095766
0.0021817673
0.0007134783
0.0020528243
0.00042583496
0.0019397933
0.00028085199
0.0018570639
0.00038330285
0.0018480339
0.00080666296
0.0019409435
0.0012349896
0.0021409891
0.0013478602
0.0023829366
0.0010964858
0.0025013152
0.00062503128
0.0025016414
0.0001981687
0.0024818876
0.00021975812
0.0025191026
0.00075131807
0.0026385146
0.0015946245
0.002735921
0.0022299154
0.0027490535
0.0027065305
0.0023742004
-0.00017684034
0.0017470331
-0.00015109552
0.0016945902
6.767806e-05
0.001705123
0.00026130951
0.0018186751
0.00043900246
0.0019518462
0.00040022853
0.0020064131
0.00014104482
0.0020493827
-0.00017579563
0.0020606089
-0.00036178372
0.0020665099
-0.00025503264
0.0021066335
0.00021129615
0.0021693891
0.00097432161
0.0021923395
0.0016330852
0.0021691191
0.0019242951
0.0021323095
0.0016540146
0.0021146225
0.00095973682
0.0020736463
0.00026509976
0.0019978918
-1.832463e-05
0.0020419902
0.00025474177
0.0022860785
0.0010100383
0.002674112
0.0016698473
0.0029599529
0.0019420688
0.0030194128
0.0028990597
0.0018456571
0.00048676977
0.0020102939
0.00093590066
0.0018746441
0.0012116065
0.0017549708
0.0012254759
0.0016987082
0.00086194755
0.001670719
0.00026993893
0.0016239683
-0.00030041573
0.0016439245
-0.00061644551
0.0017151666
-0.00058136105
0.0018672681
-0.0002059792
0.0020774008
0.00036288741
0.0022836463
0.00089908733
0.0023640378
0.0011886438
0.0023658702
0.0011095109
0.0022846557
0.00085171153
0.0021702518
0.00056222634
0.0020791887
0.00052809135
0.0019535181
0.00084338296
0.0019051816
0.001437495
0.0020366981
0.0018705964
0.002335116
0.0018113597
0.0026358405
0.0013903381
0.0027373154
0.0026859656
0.00079442069
0.00035815404
0.0021727052
0.00054370497
0.0020417363
0.00052749066
0.0018983617
0.00038303169
0.001767703
0.00021065472
0.0016882187
0.00013006323
0.0016052896
0.00024591819
0.0015766792
0.00054683722
0.0016019374
0.00084546782
0.0016909999
0.0010779637
0.0018522214
0.0010428237
0.0020127118
0.0006600385
0.002069882
9.1590996e-05
0.0021003226
-0.00038428386
0.0021369072
-0.00054449051
0.0021989776
-0.00020221176
0.0023086265
0.0006058651
0.0023700845
0.0016737529
0.002309729
0.0024659669
0.0022259065
0.0027202806
0.0021961418
0.0022900385
0.0022631009
0.001317878
0.002274789
0.0021774163
0.00026352682
-0.00038955264
0.0019561438
-0.0009085983
0.0018880778
-0.0012585309
0.0018210655
-0.0013019089
0.0018114012
-0.00092832731
0.0018758442
-0.00010984295
0.0019238244
0.00083941934
0.0019064229
0.0016392483
0.0018569694
0.002108989
0.0017921635
0.0021180743
0.0017475909
0.0015905801
0.0017431427
0.00068607869
0.0017006531
-0.00025521822
0.0016707456
-0.00083380692
0.0017307822
-0.00084711541
0.0019350109
-0.00028344777
0.0022402508
0.00057461766
0.0025044042
0.001371324
0.0025710056
0.0018875576
0.0025162049
0.002025019
0.0023840709
0.0018249091
0.0022825771
0.0012245741
0.002181308
0.0019784038
0.00066920217
-0.00089882811
0.0015802263
-0.001412247
0.0016028091
-0.0014118683
0.0016303947
-0.0010332769
0.0017418616
-0.00052568138
0.0018893612
-2.7878898e-05
0.0019717406
0.00049780389
0.0019988855
0.00091900957
0.0020190426
0.0011306321
0.0019975108
0.0010880647
0.0018910426
0.0008276004
0.0017853791
0.00047794258
0.0016507108
0.00029704714
0.0015071991
0.00045484279
0.0015108258
0.00080055739
0.0016681558
0.0010899457
0.0019433917
0.0012477204
0.0022385133
0.00099052053
0.0023724263
0.00065110037
0.0023858263
0.00021970739
0.0023702534
-7.7109535e-05
0.0023559691
6.9796314e-05
0.0023803706
0.0023205439
0.0007788462
0.00031235483
0.0015737466
0.00058721894
0.0015126772
0.00075067486
0.0014575553
0.00073767012
0.0015360343
0.00066648659
0.0016853958
0.00059169466
0.0017882881
0.00023477052
0.0018176675
-0.00036166921
0.0018586027
-0.00098031621
0.0019053541
-0.0013482498
0.0019137042
-0.0011637823
0.0019398476
-0.00036249759
0.0019479928
0.00086756821
0.0018409442
0.0019857618
0.0017133472
0.0026594184
0.0016675565
0.0028284703
0.001732731
0.0023841668
0.0019070414
0.0013934271
0.0020437809
0.0001373102
0.0020443815
-0.0009184851
0.0020447596
-0.0013919968
0.0021543053
-0.0010134837
0.00236241
0.0025749616
0.00022231751
0.0011480589
0.0018371504
0.0020892326
0.0017078446
0.0026760397
0.0015419418
0.0027361173
0.0014688611
0.0022095652
0.0014810795
0.0011863587
0.0015116554
-7.0374364e-05
0.0015198055
-0.0013099105
0.0015738731
-0.0020805878
0.0016832338
-0.0022538067
0.0017878422
-0.0017765509
0.0019208656
-0.00087592431
0.0020523853
0.00031514476
0.00205799
0.0015737732
0.0019918263
0.0026231898
0.001918775
0.0031288073
0.0018573964
0.0029244757
0.0018278724
0.0018660098
0.0018312013
0.00039463284
0.0017455522
-0.00066480261
0.0016987223
-0.00097402381
0.0018459474
-0.00059787094
0.002134323
0.0024578502
0.0002098334
0.00065497031
0.0019601712
0.0012854809
0.0018778356
0.0018296557
0.0017206904
0.0021142019
0.0015994048
0.0019380964
0.0015111971
0.0012112382
0.001420324
9.6559083e-05
0.0013089032
-0.00079327971
0.0013077604
-0.0010852139
0.0014409248
-0.00087761829
0.0016210365
-0.00044750404
0.0018034859
-5.2175977e-05
0.0019683127
0.00026422015
0.0020150615
0.00055561706
0.0019822871
0.00084952835
0.0019803428
0.00098625088
0.0019869061
0.0010304768
0.001962546
0.0009800331
0.0019266178
0.00084895904
0.0017875977
0.00075831094
0.0015891643
0.00080786835
0.0016012402
0.00096814317
0.0018682893
0.002198079
0.0011296571
-5.7384413e-05
0.0019384818
-0.00025758554
0.0018996681
-0.00056336728
0.0017685653
-0.00085304966
0.0016689108
-0.00087609742
0.0015988139
-0.00049738357
0.0015222098
0.00026231894
0.0013867925
0.0011399894
0.0013117369
0.001637662
0.0013506839
0.0016687765
0.0014735209
0.0013923367
0.0016267777
0.0010890305
0.0017991041
0.00067462702
0.0018870236
0.00011812119
0.0018710429
-0.00063319676
0.0018782115
-0.0013235638
0.0019314567
-0.0016218184
0.0019824897
-0.0012059539
0.0020303037
-2.3883661e-05
0.0020003275
0.0015291623
0.0017967548
0.0027834855
0.0016610696
0.0031892321
0.0017499484
0.0019608853
0.0028786668
-0.00093635356
0.0018665497
-0.0020030602
0.0018533017
-0.0029743488
0.0017180753
-0.0034873007
0.0016455536
-0.0032022696
0.0016294849
-0.0019767495
0.0016184627
-7.7346699e-05
0.0015320225
0.0018885018
0.0014553488
0.0033693762
0.0014436209
0.0038604054
0.0014630406
0.0035113707
0.0015272835
0.002601884
0.0016491888
0.0013483854
0.0017457404
-0.00013702302
0.0017380195
-0.0015595174
0.0017416372
-0.0026814942
0.0018054543
-0.0031606043
0.0019042194
-0.002671065
0.0019985041
-0.001150242
0.0020848898
0.00092820779
0.0019851896
0.0028983853
0.0018232035
0.004170335
0.0018055948
0.0018996307
0.00430591
-0.0018663484
0.0017781781
-0.003398943
0.0017845676
-0.0041746492
0.0016510262
-0.0041531452
0.0016002252
-0.0033583225
0.0016083585
-0.0020124807
0.0016234346
-0.00037716375
0.0015721634
0.0013905234
0.0015220539
0.0029537097
0.0015327022
0.0040814885
0.0015450876
0.004405157
0.0015628315
0.0037486684
0.0016107101
0.0021078303
0.0016711374
-7.5181267e-05
0.0016411431
-0.0020375065
0.0016210618
-0.0031087071
0.0017096891
-0.0033280839
0.0018370113
-0.0027205659
0.0019310872
-0.00148615
0.0020536775
0.00012777576
0.0020192054
0.0018742293
0.0018717188
0.0033110517
0.0018558056
0.0019474708
0.0041419739
-0.0020628442
0.0017355817
-0.0033563036
0.0017294363
-0.0036331182
0.0015957853
-0.003137982
0.0015496577
-0.0022892028
0.0015616756
-0.0013188275
0.0015770873
-0.00029381216
0.0015345326
0.00069774434
0.0014929315
0.0017283983
0.0015278008
0.0027185093
0.0015678773
0.0034381637
0.0016076715
0.0034303429
0.0016416092
0.0022819066
0.0016805411
0.00021008845
0.0016150636
-0.0016559997
0.0015605823
-0.0025621861
0.0016569951
-0.002508066
0.0017919767
-0.0019038103
0.0018774994
-0.001146159
0.001994772
-0.00023274506
0.001972222
0.00089039251
0.0018529027
0.0019758446
0.0018519538
0.0019772197
0.0027948173
-0.0013891498
0.0017675487
-0.0020512577
0.0017457969
-0.0020444508
0.0015868596
-0.0015425797
0.001524262
-0.0010297185