/*--------------------------------*- C++ -*----------------------------------*\
| =========                 |                                                 |
| \\      /  F ield         | OpenFOAM: The Open Source CFD Toolbox           |
|  \\    /   O peration     | Version:  2406                                  |
|   \\  /    A nd           | Website:  www.openfoam.com                      |
|    \\/     M anipulation  |                                                 |
\*---------------------------------------------------------------------------*/
FoamFile
{
    version     2.0;
    format      ascii;
    arch        "LSB;label=32;scalar=64";
    class       volScalarField;
    location    "185";
    object      k_0;
}
// * * * * * * * * * * * * * * * * * * * * * * * * * * * * * * * * * * * * * //

dimensions      [0 2 -2 0 0 0 0];

internalField   nonuniform List<scalar> 
20580
(
3.15265e-06
2.4141647e-06
1.9133062e-06
1.5753595e-06
1.3409533e-06
1.1766979e-06
1.0517373e-06
9.5521208e-07
8.7817007e-07
8.106895e-07
7.5877085e-07
7.1324798e-07
6.7678247e-07
6.4976676e-07
6.2361505e-07
6.0184299e-07
5.8316209e-07
5.7175667e-07
5.598901e-07
5.5432567e-07
5.5057592e-07
5.4144697e-07
5.3197564e-07
5.3328439e-07
5.3754136e-07
5.4229144e-07
5.5372578e-07
5.7342662e-07
6.0132503e-07
6.6089318e-07
7.8547971e-07
3.1592208e-06
2.4226989e-06
1.9503576e-06
1.6298268e-06
1.3796743e-06
1.1994932e-06
1.064209e-06
9.6486536e-07
8.8607626e-07
8.1712437e-07
7.6448586e-07
7.1818055e-07
6.7986025e-07
6.5467947e-07
6.2750112e-07
6.0784629e-07
5.87993e-07
5.7512086e-07
5.6219422e-07
5.5682767e-07
5.5393146e-07
5.4830943e-07
5.3764585e-07
5.3999737e-07
5.4609174e-07
5.5687007e-07
5.7137238e-07
5.8974884e-07
6.1113383e-07
6.4179341e-07
7.3199777e-07
3.1568876e-06
2.4180074e-06
1.9483541e-06
1.6477517e-06
1.4138251e-06
1.237565e-06
1.0917753e-06
9.8070557e-07
8.9659779e-07
8.2465342e-07
7.6977188e-07
7.2419694e-07
6.8285067e-07
6.5968924e-07
6.3088153e-07
6.1325077e-07
5.9709419e-07
5.8386069e-07
5.6933876e-07
5.6198962e-07
5.5756621e-07
5.5231467e-07
5.4274949e-07
5.4179828e-07
5.4668199e-07
5.5538918e-07
5.7118044e-07
5.924382e-07
6.1597984e-07
6.3572376e-07
7.1134677e-07
3.1566408e-06
2.4051736e-06
1.9310915e-06
1.6389598e-06
1.4174521e-06
1.2567803e-06
1.1293112e-06
1.0146631e-06
9.1904094e-07
8.4007585e-07
7.7999928e-07
7.3140586e-07
6.8812163e-07
6.6187593e-07
6.3408763e-07
6.1478063e-07
6.0273574e-07
5.9237564e-07
5.8475214e-07
5.7808742e-07
5.6956914e-07
5.6300251e-07
5.5485897e-07
5.4805923e-07
5.5173272e-07
5.5881481e-07
5.764435e-07
5.9595394e-07
6.1632713e-07
6.2951072e-07
6.676825e-07
3.1614779e-06
2.407614e-06
1.9111666e-06
1.6080986e-06
1.4077858e-06
1.2565389e-06
1.1423161e-06
1.0508217e-06
9.6372651e-07
8.7579444e-07
8.0352413e-07
7.4534767e-07
6.9655192e-07
6.6520123e-07
6.3649256e-07
6.1533515e-07
6.0308565e-07
5.9413843e-07
5.9067796e-07
5.9075191e-07
5.8886651e-07
5.8708413e-07
5.8521703e-07
5.741102e-07
5.7098374e-07
5.7548388e-07
5.9135997e-07
6.1230526e-07
6.3188164e-07
6.4650762e-07
6.6523482e-07
3.1685154e-06
2.418474e-06
1.9142442e-06
1.6003076e-06
1.3872985e-06
1.2475186e-06
1.1397057e-06
1.0535009e-06
9.8137386e-07
9.103742e-07
8.3861493e-07
7.697862e-07
7.1231542e-07
6.7264765e-07
6.4059019e-07
6.1720035e-07
6.014346e-07
5.9206035e-07
5.9088859e-07
5.9211544e-07
5.9387802e-07
5.9896014e-07
6.0785387e-07
6.0640884e-07
6.1044171e-07
6.1903612e-07
6.3081115e-07
6.565593e-07
6.8131353e-07
7.1757232e-07
7.0438374e-07
3.1905732e-06
2.4502068e-06
1.9292109e-06
1.6046468e-06
1.3850077e-06
1.229424e-06
1.1263294e-06
1.0439002e-06
9.7752278e-07
9.1574878e-07
8.6218327e-07
8.0521175e-07
7.4144034e-07
6.900545e-07
6.5042972e-07
6.2107972e-07
6.0274717e-07
5.8588804e-07
5.845998e-07
5.8590608e-07
5.8925404e-07
5.9726288e-07
6.0861618e-07
6.1174609e-07
6.1798681e-07
6.3525104e-07
6.5151205e-07
6.7994601e-07
7.0896159e-07
7.8007004e-07
7.9060622e-07
3.2981944e-06
2.6519391e-06
1.9979655e-06
1.6210341e-06
1.3821319e-06
1.2203241e-06
1.1087525e-06
1.0258094e-06
9.6604369e-07
9.1243625e-07
8.7048805e-07
8.3266317e-07
7.8994779e-07
7.347719e-07
6.7922239e-07
6.3665097e-07
6.0908403e-07
5.8774498e-07
5.8013586e-07
5.72299e-07
5.7266812e-07
5.7981211e-07
5.9291364e-07
6.0474109e-07
6.1167061e-07
6.2947073e-07
6.4766958e-07
6.7271048e-07
6.9749388e-07
7.6355359e-07
8.1800865e-07
3.3721024e-06
2.8316281e-06
2.0838235e-06
1.6492656e-06
1.3858788e-06
1.2196764e-06
1.101211e-06
1.0201347e-06
9.4899507e-07
9.0048286e-07
8.6146453e-07
8.3280014e-07
8.0588219e-07
7.7416248e-07
7.3682781e-07
6.8243927e-07
6.3533585e-07
6.0274977e-07
5.8579697e-07
5.7326938e-07
5.6538919e-07
5.673796e-07
5.7263651e-07
5.8178336e-07
5.8979981e-07
6.0692169e-07
6.2909992e-07
6.5348848e-07
6.8087897e-07
7.1533081e-07
7.8420555e-07
3.2341369e-06
2.7885122e-06
2.1492526e-06
1.713674e-06
1.426786e-06
1.249945e-06
1.1238648e-06
1.036129e-06
9.5904141e-07
9.0246946e-07
8.4907196e-07
8.1498303e-07
7.9104109e-07
7.7241036e-07
7.5459768e-07
7.3461156e-07
6.9231144e-07
6.497378e-07
6.1872316e-07
5.9430441e-07
5.7869719e-07
5.7322185e-07
5.7428434e-07
5.804655e-07
5.8737313e-07
5.9745225e-07
6.2003289e-07
6.4712941e-07
6.8663012e-07
7.2138676e-07
7.7708926e-07
3.0496181e-06
2.5510315e-06
2.1556343e-06
1.8668823e-06
1.6131125e-06
1.4506788e-06
1.3238333e-06
1.2197516e-06
1.1214725e-06
1.0156631e-06
9.1620263e-07
8.3934169e-07
7.90268e-07
7.6960381e-07
7.6443584e-07
7.6669229e-07
7.6398034e-07
7.5619237e-07
7.3439303e-07
6.9500193e-07
6.6165211e-07
6.3400425e-07
6.1469245e-07
6.0720812e-07
6.0705888e-07
6.0843135e-07
6.2020402e-07
6.4622566e-07
6.9135344e-07
7.2765869e-07
7.8688449e-07
3.1908644e-06
2.5113489e-06
2.1110356e-06
1.9355897e-06
1.9303476e-06
1.9617679e-06
1.9793415e-06
1.9861398e-06
1.9373863e-06
1.7273606e-06
1.3824076e-06
1.0818112e-06
8.8459389e-07
8.0525405e-07
7.9410999e-07
7.9836224e-07
8.2076082e-07
8.6150389e-07
8.8742705e-07
8.890985e-07
8.8568895e-07
8.6536956e-07
8.2596315e-07
7.8481777e-07
7.4591784e-07
7.0362108e-07
6.7335491e-07
6.7861786e-07
7.0299271e-07
7.3602918e-07
7.8666744e-07
3.4081352e-06
2.8127736e-06
2.1014419e-06
1.8751508e-06
1.8925787e-06
1.960304e-06
2.1076888e-06
2.243516e-06
2.2782872e-06
2.1967706e-06
1.8340034e-06
1.3875807e-06
1.0449654e-06
8.5895945e-07
8.0221924e-07
7.9968729e-07
8.1580163e-07
8.6103978e-07
8.9902131e-07
9.2545159e-07
9.5470726e-07
9.7146513e-07
9.7642894e-07
9.7981118e-07
9.8076354e-07
9.5531836e-07
8.9882525e-07
8.6458698e-07
8.3513688e-07
8.2566834e-07
8.1646811e-07
3.2688011e-06
2.7493241e-06
2.0802102e-06
1.710665e-06
1.5946253e-06
1.598548e-06
1.6530116e-06
1.6998997e-06
1.7112261e-06
1.6921508e-06
1.542223e-06
1.2368986e-06
1.0041283e-06
8.6018893e-07
7.9590051e-07
7.7926064e-07
7.810772e-07
7.9927947e-07
8.3989723e-07
8.7879717e-07
9.1969728e-07
9.522144e-07
9.7545941e-07
1.0072567e-06
1.0352618e-06
1.0357926e-06
1.0170732e-06
1.0066426e-06
1.0030238e-06
1.0075447e-06
9.6976424e-07
3.1672253e-06
2.4870333e-06
2.017081e-06
1.6864342e-06
1.4606869e-06
1.3177904e-06
1.2561526e-06
1.2166148e-06
1.191354e-06
1.1717608e-06
1.1223579e-06
9.9860179e-07
9.0108336e-07
8.4180224e-07
8.0938619e-07
8.0122342e-07
8.0569145e-07
8.3638251e-07
8.9756624e-07
9.5697684e-07
1.0165239e-06
1.0705691e-06
1.1019114e-06
1.1401534e-06
1.179731e-06
1.2031687e-06
1.2072726e-06
1.2144631e-06
1.2290941e-06
1.2524972e-06
1.2033607e-06
3.2051135e-06
2.6474252e-06
2.1588426e-06
1.7394724e-06
1.4647392e-06
1.3228269e-06
1.2812715e-06
1.265234e-06
1.2577482e-06
1.2418406e-06
1.1824377e-06
1.0266598e-06
9.1537864e-07
8.7300311e-07
8.7240444e-07
8.9278716e-07
9.642761e-07
1.1374014e-06
1.3304626e-06
1.5330314e-06
1.7416118e-06
1.9604464e-06
2.1076817e-06
2.2076874e-06
2.2900964e-06
2.3170657e-06
2.2934124e-06
2.2513722e-06
2.199911e-06
2.171614e-06
2.001557e-06
3.308853e-06
2.8433462e-06
2.167467e-06
1.7229626e-06
1.5410394e-06
1.5352971e-06
1.5787616e-06
1.6434059e-06
1.6378644e-06
1.4964257e-06
1.2616482e-06
1.0429956e-06
9.2444104e-07
8.9580065e-07
9.0571414e-07
9.6447946e-07
1.1491754e-06
1.461883e-06
1.788837e-06
2.1443267e-06
2.470859e-06
2.8105494e-06
3.1325979e-06
3.3941624e-06
3.5989994e-06
3.7775746e-06
3.9411043e-06
4.0573775e-06
4.1096368e-06
4.1681902e-06
4.0775649e-06
3.204246e-06
2.525077e-06
2.066985e-06
1.7961522e-06
1.7082972e-06
1.6668648e-06
1.648082e-06
1.5878417e-06
1.4198398e-06
1.2879174e-06
1.1009623e-06
9.7081905e-07
9.2535276e-07
9.2431522e-07
9.601711e-07
1.1002931e-06
1.3544032e-06
1.6181608e-06
1.8898877e-06
2.1573953e-06
2.3893165e-06
2.5776838e-06
2.8030322e-06
2.9722992e-06
3.1523685e-06
3.2763625e-06
3.5004941e-06
3.6750825e-06
3.8688251e-06
3.9556136e-06
4.1112112e-06
3.0943387e-06
2.6700943e-06
2.28159e-06
1.9876005e-06
1.7368477e-06
1.5143845e-06
1.3516573e-06
1.2110447e-06
1.1319968e-06
1.0808476e-06
1.0313291e-06
1.0155404e-06
1.0286929e-06
1.1066595e-06
1.2606239e-06
1.3878076e-06
1.490676e-06
1.5645628e-06
1.5982935e-06
1.5911634e-06
1.5098721e-06
1.4194328e-06
1.4059752e-06
1.4190137e-06
1.4437161e-06
1.4820722e-06
1.5961229e-06
1.7040815e-06
1.9245467e-06
2.045996e-06
2.4009644e-06
3.5673946e-06
3.1147216e-06
2.3839141e-06
1.9294503e-06
1.6020178e-06
1.3802001e-06
1.2600159e-06
1.2097396e-06
1.2098861e-06
1.1735648e-06
1.1641532e-06
1.1921747e-06
1.2425168e-06
1.2839376e-06
1.3006295e-06
1.2912903e-06
1.229562e-06
1.090553e-06
9.8467149e-07
9.2101888e-07
8.8993709e-07
8.7957054e-07
8.8334589e-07
8.9852502e-07
9.3855317e-07
9.7309725e-07
1.0665413e-06
1.1277015e-06
1.2573875e-06
1.3240294e-06
1.4564858e-06
3.3894681e-06
2.8517676e-06
2.356277e-06
2.112653e-06
1.9753265e-06
1.8741783e-06
1.8361512e-06
1.8398952e-06
1.9294478e-06
1.7399368e-06
1.7083527e-06
1.6712765e-06
1.6151078e-06
1.5523986e-06
1.4874238e-06
1.4254644e-06
1.362794e-06
1.2791962e-06
1.2270827e-06
1.2153723e-06
1.2146562e-06
1.2130324e-06
1.2396906e-06
1.2758793e-06
1.3216306e-06
1.3763994e-06
1.4431196e-06
1.5492674e-06
1.6094762e-06
1.7085218e-06
1.6800165e-06
3.6318399e-06
4.712888e-06
6.4143768e-06
7.6366022e-06
8.2755353e-06
7.9745101e-06
9.7858256e-06
9.6642045e-06
1.2850025e-05
9.2872704e-06
8.5123176e-06
7.6063535e-06
6.9240414e-06
6.2235202e-06
5.8063314e-06
5.4990222e-06
5.2968771e-06
5.0844049e-06
4.9953538e-06
4.9929012e-06
4.9561461e-06
4.9022675e-06
4.8843572e-06
4.9303448e-06
4.9310298e-06
4.9099647e-06
4.9067088e-06
4.9384745e-06
4.9411637e-06
4.8995203e-06
4.7116917e-06
1.5231937e-05
3.5493155e-05
5.7154696e-05
4.3268962e-05
6.5326458e-05
4.3923101e-05
7.0639396e-05
4.2545308e-05
7.7020456e-05
4.6735049e-05
3.5803487e-05
3.5417306e-05
2.9350901e-05
2.7211357e-05
2.4332933e-05
2.3006566e-05
2.1654876e-05
2.111752e-05
2.0432718e-05
1.9978619e-05
1.9334674e-05
1.8994895e-05
1.8231116e-05
1.7690689e-05
1.6748589e-05
1.6393149e-05
1.5558322e-05
1.5043983e-05
1.3939872e-05
1.3376487e-05
1.2542734e-05
1.1922428e-05
5.0014003e-06
1.8868079e-06
1.5487111e-06
2.263837e-06
4.1491371e-06
4.307616e-06
2.4308442e-06
1.3895493e-06
1.0443245e-06
8.7512194e-07
8.3417804e-07
8.4637587e-07
8.6242842e-07
8.5806034e-07
8.8335282e-07
8.7122233e-07
7.8327473e-07
7.390426e-07
7.377362e-07
7.6959369e-07
8.0261996e-07
8.2973114e-07
1.0781329e-05
5.2470224e-06
2.0757527e-06
1.6516165e-06
2.1451715e-06
4.0065743e-06
4.7213992e-06
3.3467124e-06
1.6896424e-06
1.1819833e-06
9.4779168e-07
9.4241259e-07
9.5492612e-07
9.5813165e-07
9.3116308e-07
9.6029803e-07
9.8446276e-07
9.3533468e-07
8.4822651e-07
8.2801848e-07
8.4432509e-07
8.6293307e-07
8.5376426e-07
9.3289366e-06
5.503871e-06
2.3697975e-06
1.8480455e-06
2.1852939e-06
3.84533e-06
4.8795736e-06
4.1897965e-06
2.3226243e-06
1.4585975e-06
1.0845122e-06
1.0374047e-06
1.0450163e-06
1.0433939e-06
1.0112326e-06
1.0142489e-06
1.0683646e-06
1.063489e-06
9.7698153e-07
9.1464439e-07
9.2586853e-07
9.5402161e-07
9.5323762e-07
8.5414569e-06
5.8238308e-06
2.6814407e-06
2.0804967e-06
2.2813426e-06
3.6774316e-06
5.0604729e-06
4.862718e-06
3.1031807e-06
1.8661759e-06
1.273892e-06
1.1646608e-06
1.1749684e-06
1.181402e-06
1.1887543e-06
1.1517415e-06
1.2214725e-06
1.2357591e-06
1.1784592e-06
1.0396452e-06
9.9571939e-07
1.019338e-06
1.0218153e-06
7.8677699e-06
6.0512776e-06
2.9600871e-06
2.3135632e-06
2.4580625e-06
3.5619723e-06
5.5072342e-06
5.5843529e-06
4.1495868e-06
2.3502008e-06
1.5427294e-06
1.3198802e-06
1.3480682e-06
1.3469526e-06
1.3946807e-06
1.400325e-06
1.4166799e-06
1.4488003e-06
1.3959935e-06
1.273835e-06
1.1457778e-06
1.1540346e-06
1.1637788e-06
7.3956123e-06
6.10043e-06
3.3748861e-06
2.7148688e-06
2.8228831e-06
3.682737e-06
5.8912023e-06
6.5239044e-06
5.4904006e-06
3.1076736e-06
1.9566664e-06
1.4950574e-06
1.5400529e-06
1.5316188e-06
1.5471736e-06
1.5839197e-06
1.5536566e-06
1.6405648e-06
1.5915277e-06
1.460765e-06
1.3276406e-06
1.291652e-06
1.3090199e-06
7.6676523e-06
6.1749756e-06
3.7707098e-06
3.165511e-06
3.3015924e-06
3.88919e-06
6.0561648e-06
7.5273136e-06
7.0189783e-06
4.3139784e-06
2.564604e-06
1.8017661e-06
1.7744522e-06
1.7548271e-06
1.6918435e-06
1.7290595e-06
1.6971032e-06
1.7400578e-06
1.7854266e-06
1.702224e-06
1.5589626e-06
1.4846519e-06
1.5010718e-06
8.6006994e-06
6.3039455e-06
4.0408076e-06
3.4934797e-06
3.6245636e-06
4.1671544e-06
6.1650225e-06
8.1495117e-06
8.0148608e-06
5.939151e-06
3.5749178e-06
2.3364943e-06
2.1556175e-06
2.161948e-06
2.0196419e-06
2.0156576e-06
1.9839614e-06
1.9335623e-06
2.0498737e-06
2.0325793e-06
1.8833485e-06
1.7307714e-06
1.6744509e-06
9.9744298e-06
6.4123809e-06
4.4945276e-06
4.1366226e-06
4.2679763e-06
4.6501373e-06
6.3677205e-06
9.2757732e-06
1.0012052e-05
8.7031514e-06
5.3581982e-06
3.3012004e-06
2.6305079e-06
2.7054004e-06
2.5960559e-06
2.4917646e-06
2.4963695e-06
2.4148005e-06
2.546684e-06
2.5567013e-06
2.3429218e-06
2.1078227e-06
1.9095635e-06
1.1316988e-05
6.6741403e-06
5.192537e-06
5.1658781e-06
5.3882141e-06
5.8815707e-06
7.3295946e-06
1.1630456e-05
1.3156652e-05
1.1650361e-05
7.4076682e-06
4.4161394e-06
3.1300556e-06
3.1765202e-06
3.1178014e-06
2.9003836e-06
2.9860905e-06
2.9987497e-06
3.0227938e-06
3.0904232e-06
2.9181861e-06
2.531475e-06
2.242985e-06
1.3119025e-05
7.275078e-06
5.8146389e-06
6.0019084e-06
6.5644554e-06
7.5355615e-06
9.1533936e-06
1.4311418e-05
1.60697e-05
1.3949086e-05
9.0581328e-06
5.3846867e-06
3.7395526e-06
3.5626047e-06
3.474057e-06
3.2575153e-06
3.3363067e-06
3.4169578e-06
3.4554471e-06
3.5807478e-06
3.4401305e-06
2.9441461e-06
2.6014996e-06
1.5943973e-05
8.1748e-06
6.5146069e-06
6.9135102e-06
7.8525176e-06
9.195259e-06
1.0732196e-05
1.6855871e-05
2.0175517e-05
1.7875794e-05
1.1839533e-05
6.9901119e-06
4.7174004e-06
4.1539279e-06
4.0971797e-06
3.8579952e-06
3.7243212e-06
3.790484e-06
3.8215022e-06
3.9781403e-06
3.9480245e-06
3.5653961e-06
3.0149333e-06
1.9718265e-05
9.8801657e-06
8.2916153e-06
9.0123524e-06
1.0757821e-05
1.2642031e-05
1.3789525e-05
2.2153901e-05
2.9062431e-05
2.6971392e-05
1.8605591e-05
1.062205e-05
6.8113127e-06
5.5073447e-06
5.5353202e-06
5.2678191e-06
4.6472889e-06
4.5823786e-06
4.4260559e-06
4.5448964e-06
4.6696786e-06
4.4857103e-06
3.7452011e-06
2.3852452e-05
1.1839934e-05
1.0335571e-05
1.1134291e-05
1.3717434e-05
1.7735535e-05
2.005569e-05
3.0718636e-05
4.0572587e-05
3.968195e-05
3.1792948e-05
1.9238858e-05
1.1498414e-05
8.2815314e-06
8.0614118e-06
7.5626278e-06
6.550256e-06
6.2128236e-06
5.9356478e-06
5.8871868e-06
6.3499656e-06
6.2893684e-06
5.4201509e-06
2.815971e-05
1.3975244e-05
1.2046469e-05
1.2742751e-05
1.5734635e-05
2.1452509e-05
2.5292488e-05
3.8112492e-05
4.9423627e-05
4.9167745e-05
4.1860889e-05
2.8016567e-05
1.6562476e-05
1.1231334e-05
1.0344723e-05
9.2865072e-06
8.175275e-06
7.6797734e-06
7.5331962e-06
7.3401221e-06
7.6307151e-06
7.6980172e-06
7.3386763e-06
3.1580113e-05
1.7053575e-05
1.5337889e-05
1.6055435e-05
2.0183377e-05
2.9440077e-05
3.6955134e-05
5.2819486e-05
6.2864701e-05
6.0859459e-05
5.0046554e-05
3.5874965e-05
2.1750006e-05
1.420478e-05
1.2273818e-05
1.0911207e-05
9.4701459e-06
8.744606e-06
8.7181083e-06
8.4118128e-06
8.7520508e-06
8.8349736e-06
8.5568043e-06
3.5031666e-05
2.0768733e-05
1.8622628e-05
1.9109874e-05
2.4325746e-05
3.887496e-05
5.6979243e-05
8.6874269e-05
9.4815192e-05
8.7637414e-05
6.6132988e-05
4.6617441e-05
2.8785317e-05
1.8789573e-05
1.5448714e-05
1.3645541e-05
1.1165823e-05
1.0041344e-05
9.9711259e-06
9.6273982e-06
1.0044786e-05
1.009448e-05
9.6834859e-06
3.6684607e-05
2.4010197e-05
2.1050996e-05
2.125765e-05
2.7387621e-05
4.8061018e-05
8.8431083e-05
0.00012611894
0.00012798104
0.00011481794
7.9363319e-05
6.3829499e-05
4.2751878e-05
2.9022256e-05
2.3777624e-05
2.0736481e-05
1.506965e-05
1.2540098e-05
1.2188726e-05
1.1773878e-05
1.2647222e-05
1.2982407e-05
1.2308426e-05
3.6444711e-05
2.7195857e-05
2.3270494e-05
2.3118998e-05
3.0204634e-05
5.842389e-05
0.00012609078
0.00018095573
0.00017309596
0.00013265303
8.6567385e-05
7.5135124e-05
7.1311969e-05
5.1730012e-05
4.0217019e-05
3.4942217e-05
2.2371829e-05
1.7967512e-05
1.8019729e-05
1.822292e-05
1.8680632e-05
1.7975184e-05
1.5553668e-05
3.4103866e-05
2.9371014e-05
2.6442356e-05
2.7051991e-05
3.7965258e-05
8.0986075e-05
0.00018677124
0.00025396942
0.00023255844
0.00015275552
9.650674e-05
8.9720964e-05
9.5228816e-05
7.6738388e-05
5.3742753e-05
4.3193934e-05
2.6323993e-05
2.3215459e-05
2.4973202e-05
2.4664904e-05
2.4329119e-05
2.316566e-05
1.8758592e-05
3.130329e-05
3.1035797e-05
2.8732615e-05
2.9619957e-05
4.3145698e-05
9.7274925e-05
0.00023394196
0.00032691575
0.00029328018
0.00017366861
0.00011151008
0.00010858581
0.00011914027
0.00010603827
7.2250715e-05
4.7397752e-05
2.8896934e-05
2.7114832e-05
3.136946e-05
3.5023539e-05
3.5225816e-05
3.1070112e-05
2.0346625e-05
2.8949144e-05
3.2432165e-05
3.184196e-05
3.4849018e-05
5.6621353e-05
0.00013084637
0.00029983974
0.00039416357
0.00034953603
0.00019986084
0.00013507282
0.0001371178
0.00016423781
0.00016309345
0.00010707895
5.3050166e-05
3.317104e-05
3.3431597e-05
4.2385079e-05
5.1298644e-05
5.1309393e-05
3.9566652e-05
2.2870767e-05
3.0985982e-05
3.575156e-05
3.6086367e-05
3.9707054e-05
6.5903214e-05
0.0001532203
0.00034859011
0.00046127556
0.00041179956
0.00024459545
0.00017899964
0.00020151155
0.00030266585
0.00033595689
0.00019468926
6.9206623e-05
4.3314498e-05
4.4931957e-05
5.5703034e-05
6.4418338e-05
6.0693846e-05
4.2866287e-05
2.6907893e-05
3.9712769e-05
4.3545096e-05
4.641577e-05
5.0693132e-05
8.3739922e-05
0.00018561342
0.00040659111
0.00052555084
0.000485703
0.00032679161
0.00027821597
0.0003469387
0.00055584404
0.00059515678
0.00030766864
9.9498181e-05
6.3307152e-05
6.281055e-05
7.2429106e-05
7.9097307e-05
7.5292869e-05
4.6593532e-05
3.5058743e-05
5.5068304e-05
5.6585595e-05
6.102208e-05
6.2206953e-05
9.0452673e-05
0.00019459424
0.00044057791
0.00057625761
0.00054765296
0.00039491565
0.00035552479
0.00045809851
0.00070143244
0.00068677952
0.00034814159
0.00013220817
9.8674972e-05
9.9410897e-05
0.00010862228
0.00011389568
8.4001314e-05
5.5313093e-05
5.419378e-05
0.00010950439
9.3010756e-05
9.7957454e-05
9.0597903e-05
0.00010059284
0.00018488225
0.00044340709
0.00063500718
0.00061452297
0.00050683334
0.00050862851
0.00064673764
0.0008516535
0.00073756309
0.00035902138
0.00019507501
0.00017916907
0.00021375416
0.00022575523
0.00017356417
9.5675472e-05
7.697075e-05
7.4586109e-05
0.00023039111
0.00019120432
0.00018543331
0.00014593919
0.00012536427
0.00016862455
0.00041505157
0.00068072596
0.00071783055
0.00070848424
0.00074876384
0.00091797625
0.0010700865
0.00083004721
0.00043143394
0.00033133876
0.00034009456
0.00037745128
0.00034401947
0.00018824756
0.0001177583
0.00011034527
0.00010639815
0.00039083471
0.0003279994
0.0003071973
0.00028555623
0.0001955379
0.00018727199
0.00035522087
0.00068660538
0.00077888919
0.0007937226
0.00085228463
0.0010329524
0.0011595507
0.0009573006
0.00056899455
0.00046931969
0.00047622822
0.00049104256
0.00035209476
0.00020592017
0.00016776875
0.0001618969
9.451667e-05
0.0005769674
0.00053488896
0.00049020351
0.00044641555
0.00033423569
0.00023186329
0.00030242996
0.00058354202
0.00076309331
0.00085493893
0.000918727
0.0010719385
0.0011474012
0.0010089458
0.00068125197
0.00056608071
0.00055102603
0.00050453218
0.00033213089
0.00023825692
0.00020209022
0.00014635271
9.3302077e-05
0.0010193289
0.0008890664
0.00088914769
0.00083159152
0.00070191344
0.0003770914
0.00031022675
0.00042906988
0.00071925291
0.00088169129
0.0009828896
0.0011111436
0.0011542766
0.0010281448
0.00070821068
0.00058269323
0.00054839913
0.00046440516
0.00031482832
0.00023953916
0.00018796563
0.00012851367
0.00010864847
0.0010379275
0.0010617986
0.0011448605
0.0011218576
0.0010167827
0.00075225051
0.00041880013
0.00043150051
0.00065672181
0.00090935492
0.0010571295
0.0011571194
0.001153696
0.00097935328
0.00065131288
0.00053707847
0.00049680125
0.00042762812
0.00030966671
0.0002345186
0.00016522628
0.0001368984
0.00013853476
0.00099071682
0.0011422163
0.001347991
0.0014197002
0.0012517213
0.00079585355
0.00046351599
0.00045452003
0.00066167687
0.00089779817
0.001064818
0.0011303528
0.0010856879
0.00087287586
0.00058917945
0.00049426774
0.00046243375
0.00040727195
0.00030097653
0.00020880804
0.0001600588
0.00015222013
0.00015721992
0.00079112636
0.0011456328
0.0013264127
0.0013826348
0.0011618839
0.00068254593
0.00046851138
0.00047320079
0.00066524045
0.00086491816
0.001043258
0.0011071207
0.0010362786
0.00076954928
0.00055079113
0.00048212123
0.00045296866
0.00036214643
0.00024089612
0.00018387924
0.00016621064
0.0001670937
0.0001853375
0.00070656814
0.00096675259
0.001049511
0.0010460999
0.00078319352
0.00054882713
0.00047822907
0.00050733178
0.00070559326
0.00090308261
0.0010388107
0.001093272
0.00099776394
0.0007093335
0.00054254518
0.00048219009
0.00042135473
0.00026849396
0.00019567839
0.00017457553
0.00016955442
0.00017930245
0.00021982814
0.00056562662
0.00079841127
0.00079037857
0.00071495123
0.00058735573
0.0005332988
0.00052688128
0.00064140625
0.00082491327
0.0009721164
0.0010394758
0.0010088694
0.00079057583
0.00057218977
0.00048155868
0.00042176125
0.00030404592
0.00020191138
0.00017585884
0.00017301427
0.00018715278
0.00022234193
0.0002781412
0.00046783407
0.00068759432
0.00069682309
0.00061593887
0.00054954225
0.00052777684
0.00055211579
0.00066691884
0.00083235124
0.00097259888
0.0010140994
0.00094800112
0.00075762652
0.00055958591
0.00047933865
0.00043600227
0.00033308252
0.00021485551
0.00017625977
0.0001699712
0.00017935661
0.00020735338
0.0002584219
0.00038485851
0.00060443828
0.00064197148
0.00059634713
0.00056003768
0.00054768556
0.00058463246
0.00066775253
0.00079430436
0.00092002744
0.00096534205
0.00092111526
0.00075779877
0.00056204093
0.00047046535
0.00043410917
0.00035928178
0.00024328069
0.00018605764
0.00016978315
0.00017216465
0.00018756439
0.00022585949
0.00032516897
0.00052326948
0.00058270309
0.00057932181
0.00057129099
0.00058512453
0.00062824855
0.00067757505
0.00075339316
0.00085202172
0.00090851949
0.00089322726
0.00077463462
0.00058451826
0.00047508769
0.00043145884
0.0003688259
0.00026412113
0.0001934257
0.00016795404
0.00016292026
0.00016987299
0.00019578792
0.00028133635
0.00045828564
0.00053198033
0.00054832587
0.00055647775
0.00058963762
0.00064245122
0.00068801303
0.00073664836
0.00080647216
0.00086039843
0.00086096663
0.00078164653
0.00061077951
0.00049013985
0.00043613758
0.00037846561
0.00028575873
0.00020606201
0.00016910261
0.00015738841
0.00015826905
0.00017096159
0.00024911381
0.00038994778
0.00048743359
0.00052008682
0.00053092898
0.00056708847
0.00062923394
0.00068467078
0.00072693459
0.00077581558
0.00082436955
0.00083057536
0.00077471909
0.00062908572
0.00050162205
0.00043869046
0.00038900138
0.00031189257
0.00023599786
0.00018182286
0.00015996338
0.00015527377
0.00015949627
0.00022465972
0.00031946977
0.00043580467
0.00048973847
0.0005113282
0.00054574326
0.00060414903
0.00066056531
0.00069720175
0.0007338558
0.00077768497
0.00079481071
0.00076246348
0.00066084318
0.00052830851
0.00044815203
0.00040389962
0.00034090389
0.00027038808
0.00020970814
0.00017138332
0.000158392
0.00015659203
0.00021354546
0.00026842427
0.00038166932
0.00044883926
0.0004812069
0.00051998172
0.00057652412
0.00062749585
0.00065951693
0.00068572814
0.00071964126
0.0007433938
0.00073600389
0.00068132157
0.00057063089
0.00047732737
0.00042415551
0.00036982487
0.0003039165
0.0002419198
0.00019116509
0.0001651925
0.00015541644
0.00021220312
0.00024310598
0.0003393546
0.00040484047
0.00043846677
0.0004773684
0.00053289656
0.00058614695
0.00062185631
0.00064572546
0.00067128628
0.00069422987
0.00069753041
0.00067719645
0.00061311069
0.00052007578
0.00045091961
0.00039710123
0.0003382009
0.00027556522
0.00022066654
0.00018077652
0.00015841941
0.0002112568
0.00022953565
0.0003127924
0.0003715596
0.00040023338
0.00043332214
0.0004834615
0.00053739299
0.00058048627
0.00061140383
0.00063733591
0.0006590941
0.00066812829
0.00066264294
0.00062960939
0.00055901339
0.00048480066
0.00042479795
0.00036989224
0.0003115805
0.00025492044
0.00021161902
0.0001759123
0.00020748299
0.00021572444
0.00029017569
0.00034744693
0.00037436524
0.00040206603
0.00044461419
0.00049413745
0.00053907613
0.00057477284
0.00060335794
0.0006260016
0.00063951119
0.0006398298
0.00062613115
0.00058741428
0.00052249158
0.0004602351
0.00040600906
0.00035264158
0.00029648984
0.00025104387
0.00020339689
0.00020164842
0.00020230235
0.00026909457
0.00032554145
0.0003540635
0.00037906936
0.00041506431
0.00045913613
0.00050261765
0.00053960467
0.0005694814
0.00059306104
0.0006100422
0.00061777014
0.00061528977
0.00059818578
0.00055837619
0.00050374628
0.00045002393
0.00039793758
0.00034269946
0.00029722789
0.00023744084
0.00019094694
0.00018559328
0.00024925749
0.00030573603
0.00033752082
0.00036149585
0.00039163089
0.00043008305
0.00047172414
0.00051049731
0.0005433993
0.00057003787
0.00059064884
0.00060388389
0.00060706355
0.00060175168
0.000582712
0.00054390123
0.00049554894
0.00044470169
0.00038914776
0.00034575846
0.00027816567
0.00018147823
0.0001648963
0.00022455848
0.0002832556
0.0003221559
0.00034976138
0.00037769366
0.00041118453
0.00044906947
0.00048734868
0.00052243334
0.00055247166
0.0005766317
0.00059370354
0.00060210309
0.00060185244
0.00059439778
0.00057446036
0.00053848529
0.0004949021
0.0004418491
0.00040308433
0.00033007437
0.0001719383
0.00014421467
0.00019742109
0.00025556651
0.00030061003
0.00033511175
0.00036609559
0.00039832142
0.00043278163
0.00046831347
0.00050296351
0.00053478375
0.00056216741
0.00058347003
0.00059705215
0.0006035532
0.00060369244
0.00059746478
0.00057987881
0.00054959895
0.0005060101
0.00047085481
0.00039772266
0.00016231163
0.00012502859
0.00017124799
0.00022518986
0.00027174588
0.00031137065
0.000347111
0.00038151854
0.00041572159
0.00045028902
0.00048468932
0.00051783306
0.00054837817
0.00057463958
0.00059449903
0.00060705402
0.00061507982
0.0006158833
0.00061035749
0.00059569056
0.00056728291
0.0005381536
0.00047481119
0.00015177586
0.00011023812
0.00014869877
0.00019619701
0.0002413664
0.0002828979
0.0003217973
0.00035878364
0.00039437219
0.00042932922
0.00046361909
0.00049716017
0.00052945441
0.0005595933
0.00058601819
0.00060489413
0.0006177163
0.0006267494
0.00062996776
0.00062652546
0.00061587596
0.00059744039
0.00055493343
0.00014190613
9.8867733e-05
0.00013070837
0.00017091643
0.00021191277
0.00025193913
0.00029098229
0.0003287129
0.00036516242
0.00040075265
0.00043553387
0.00046954906
0.00050295976
0.00053549827
0.00056677779
0.00059489476
0.00061473663
0.00062850556
0.00063917001
0.00064572836
0.0006457874
0.00064033209
0.00062192709
0.00013109791
9.6451141e-05
0.00012193704
0.00015371588
0.00018834909
0.00022430298
0.00026082229
0.00029712952
0.00033291413
0.00036848618
0.00040350264
0.00043773182
0.00047128153
0.00050416897
0.00053638628
0.00056837044
0.00059816249
0.00062068681
0.00063714768
0.00064932988
0.00065850543
0.00066393589
0.00066127247
0.00012264591
9.3244526e-05
0.00011036265
0.00013517361
0.00016378657
0.00019456991
0.00022707481
0.0002603539
0.00029394209
0.00032780355
0.00036163203
0.00039517219
0.00042830402
0.00046105818
0.00049353234
0.00052604328
0.00055904997
0.00059209229
0.00061956819
0.00064054818
0.00065582339
0.0006673624
0.00067826542
0.00010794773
9.7706876e-05
0.00010351647
0.00012002242
0.00014218004
0.00016719887
0.0001939455
0.00022215711
0.00025133064
0.00028133514
0.00031188568
0.00034276198
0.00037399824
0.0004055608
0.00043744665
0.00046954593
0.00050196499
0.0005348138
0.00056888776
0.00060179755
0.0006296736
0.00065204183
0.00067774202
0.00011482744
8.7816324e-05
9.2359041e-05
0.00010622374
0.00012500682
0.00014579702
0.00016764888
0.00019044181
0.0002140995
0.00023870856
0.00026419939
0.00029050668
0.00031760969
0.00034554073
0.00037427205
0.00040364739
0.00043357857
0.00046412978
0.00049533906
0.00052721146
0.00056056756
0.00059486495
0.00062898793
0.0001010786
9.0379523e-05
8.8515341e-05
0.00010117765
0.00011848028
0.00013725753
0.00015611151
0.00017517876
0.0001944685
0.00021414862
0.00023442089
0.00025541359
0.00027718796
0.00029986386
0.00032348486
0.00034798288
0.00037332379
0.00039963157
0.00042691777
0.00045509373
0.00048433414
0.00051567665
0.00055459312
0.00012389505
8.2888709e-05
8.2650734e-05
9.4581661e-05
0.00011252228
0.00013098724
0.00014912995
0.00016698429
0.00018466958
0.00020231786
0.00022008064
0.00023810695
0.00025654338
0.00027549059
0.00029508913
0.00031538498
0.00033641911
0.00035828472
0.00038105316
0.00040468891
0.000429368
0.00045610969
0.00049051248
0.00011240935
7.9537383e-05
7.8340872e-05
9.152823e-05
0.00011010168
0.00012847201
0.00014655859
0.00016421833
0.00018159317
0.00019876964
0.00021586641
0.00023298652
0.00025023141
0.00026771043
0.000285513
0.00030370364
0.0003223214
0.0003414111
0.00036104758
0.0003813048
0.00040235372
0.00042496127
0.00045278501
0.00016074326
8.0118037e-05
7.4139685e-05
8.6627798e-05
0.0001070852
0.00012662311
0.00014544869
0.00016363639
0.00018135345
0.0001987296
0.00021593582
0.0002330567
0.00025022217
0.00026748853
0.00028491939
0.00030250513
0.0003202605
0.00033817781
0.00035626675
0.00037473397
0.00039379893
0.00041366964
0.00043641733
0.00016206358
7.0784486e-05
7.4328667e-05
8.9371132e-05
0.00010999785