/*--------------------------------*- C++ -*----------------------------------*\
| =========                 |                                                 |
| \\      /  F ield         | OpenFOAM: The Open Source CFD Toolbox           |
|  \\    /   O peration     | Version:  2406                                  |
|   \\  /    A nd           | Website:  www.openfoam.com                      |
|    \\/     M anipulation  |                                                 |
\*---------------------------------------------------------------------------*/
FoamFile
{
    version     2.0;
    format      ascii;
    arch        "LSB;label=32;scalar=64";
    class       volScalarField;
    location    "185";
    object      pMean;
}
// * * * * * * * * * * * * * * * * * * * * * * * * * * * * * * * * * * * * * //

dimensions      [1 -1 -2 0 0 0 0];

internalField   nonuniform List<scalar> 
20580
(
1.0039309
1.0050221
1.0039908
1.0041184
1.0042328
1.0042586
1.0042788
1.0043119
1.004352
1.004395
1.0044356
1.0044728
1.0045055
1.0045357
1.0045618
1.0045804
1.0045891
1.004598
1.0045936
1.0045757
1.0045463
1.0045029
1.0044306
1.0043198
1.0041858
1.0040307
1.0038332
1.0035786
1.0032808
1.0029526
1.002631
1.0039126
1.0050231
1.003997
1.0041194
1.0042336
1.0042588
1.0042788
1.0043114
1.0043506
1.004392
1.0044317
1.0044673
1.004498
1.0045254
1.0045485
1.0045655
1.0045737
1.0045786
1.0045683
1.0045458
1.0045163
1.0044594
1.0043844
1.0042926
1.004177
1.0040375
1.0038489
1.0036004
1.0033166
1.0029534
1.0025687
1.0038983
1.0050261
1.0039987
1.0041192
1.0042333
1.0042581
1.0042777
1.0043098
1.0043482
1.0043881
1.0044268
1.0044605
1.0044883
1.0045131
1.0045331
1.0045468
1.0045514
1.0045522
1.0045366
1.0045092
1.0044748
1.0044112
1.0043318
1.0042377
1.0041138
1.0039696
1.0037883
1.0035629
1.0033171
1.0029816
1.0026018
1.0038822
1.0050272
1.003998
1.0041184
1.0042322
1.0042575
1.0042765
1.0043082
1.0043458
1.0043845
1.0044221
1.004454
1.0044796
1.0045018
1.0045185
1.0045282
1.0045301
1.0045264
1.0045052
1.0044716
1.0044329
1.0043678
1.0042824
1.0041748
1.0040368
1.0038737
1.0036942
1.0034936
1.0032788
1.0030109
1.002667
1.0038729
1.0050317
1.0039991
1.0041209
1.0042328
1.0042575
1.0042761
1.0043073
1.0043439
1.0043814
1.0044177
1.0044481
1.0044721
1.0044922
1.0045052
1.0045107
1.0045092
1.0045013
1.0044754
1.0044368
1.0043927
1.0043251
1.0042372
1.00413
1.0039879
1.0038105
1.0036175
1.0034095
1.003195
1.002967
1.0026969
1.0038657
1.0050365
1.0039981
1.0041225
1.0042337
1.004257
1.0042752
1.0043057
1.0043416
1.0043784
1.0044137
1.0044426
1.0044652
1.004483
1.0044932
1.0044958
1.0044919
1.0044782
1.0044496
1.0044078
1.0043584
1.0042858
1.0041922
1.0040886
1.0039657
1.0038057
1.0035988
1.0033553
1.0030995
1.0028338
1.0025907
1.0038583
1.0050383
1.003993
1.004122
1.0042338
1.0042561
1.0042741
1.0043038
1.0043391
1.0043754
1.0044101
1.004438
1.0044592
1.0044751
1.0044824
1.0044835
1.004479
1.0044608
1.0044303
1.0043853
1.0043297
1.0042526
1.0041594
1.004059
1.0039334
1.0037855
1.0036092
1.0033826
1.0031138
1.0028011
1.0024801
1.0038471
1.005039
1.003986
1.0041196
1.0042337
1.0042555
1.0042733
1.0043027
1.0043369
1.0043724
1.0044068
1.0044338
1.0044534
1.0044671
1.004473
1.0044733
1.0044675
1.0044466
1.0044135
1.0043659
1.0043056
1.0042278
1.0041364
1.0040326
1.0038917
1.0037327
1.0035694
1.003395
1.0031856
1.0029305
1.0026034
1.0038434
1.005039
1.0039772
1.0041192
1.004234
1.0042551
1.0042728
1.0043015
1.0043349
1.0043695
1.004404
1.0044302
1.0044481
1.0044599
1.0044645
1.0044631
1.0044557
1.0044333
1.0043983
1.0043483
1.0042824
1.0042038
1.0041083
1.0039983
1.0038569
1.0036869
1.0035088
1.0033389
1.0031579
1.0029435
1.0027045
1.0038422
1.0050424
1.0039697
1.0041199
1.0042354
1.004254
1.0042717
1.0042998
1.0043326
1.0043666
1.0044013
1.0044273
1.0044435
1.0044541
1.0044573
1.0044529
1.0044436
1.0044198
1.0043845
1.0043322
1.0042648
1.0041823
1.0040772
1.0039558
1.0038235
1.0036701
1.0034792
1.0032673
1.0030567
1.0028237
1.0026136
1.0038381
1.0050385
1.0039655
1.0041214
1.0042362
1.0042532
1.0042705
1.0042983
1.0043306
1.0043636
1.0043993
1.004425
1.0044395
1.0044491
1.004452
1.0044461
1.004435
1.0044106
1.0043739
1.0043209
1.0042527
1.0041736
1.0040702
1.0039408
1.0038043
1.003661
1.003487
1.0032688
1.0030271
1.0027598
1.0024972
1.0038274
1.0050354
1.0039647
1.0041202
1.0042351
1.0042533
1.0042707
1.0042973
1.0043278
1.00436
1.0043974
1.0044233
1.004436
1.0044443
1.0044468
1.0044401
1.0044281
1.0044045
1.0043667
1.0043121
1.0042437
1.004171
1.0040786
1.0039561
1.0038114
1.003659
1.003502
1.0033211
1.0031097
1.0028695
1.0026088
1.0038116
1.0050316
1.0039639
1.0041214
1.0042332
1.0042525
1.0042705
1.0042968
1.0043262
1.0043576
1.0043963
1.004422
1.0044333
1.0044411
1.0044444
1.0044378
1.0044227
1.0043992
1.0043622
1.0043076
1.0042382
1.0041657
1.0040776
1.0039625
1.0038217
1.0036608
1.0034926
1.0033218
1.0031507
1.0029509
1.0027638
1.0038122
1.0050259
1.0039602
1.0041251
1.0042323
1.004251
1.0042688
1.004294
1.0043225
1.0043537
1.0043946
1.0044195
1.0044297
1.0044369
1.0044406
1.004436
1.0044174
1.0043941
1.0043548
1.004299
1.0042303
1.0041567
1.0040643
1.0039469
1.0038128
1.0036682
1.0035026
1.0033066
1.0031069
1.0028807
1.0027017
1.0038034
1.0050246
1.0039595
1.0041298
1.0042326
1.0042508
1.004269
1.0042941
1.0043204
1.0043492
1.0043939
1.0044179
1.0044268
1.0044339
1.0044363
1.0044316
1.0044153
1.0043916
1.0043505
1.0042931
1.0042204
1.0041409
1.0040457
1.0039287
1.0037947
1.0036492
1.0034879
1.0032964
1.0030828
1.0028514
1.0026286
1.0037977
1.0050265
1.0039529
1.004129
1.0042316
1.0042498
1.0042678
1.0042905
1.0043179
1.0043449
1.0043937
1.0044158
1.0044229
1.0044303
1.0044312
1.0044245
1.0044103
1.0043878
1.0043472
1.0042918
1.0042204
1.0041391
1.0040427
1.0039309
1.0037981
1.0036471
1.0034844
1.0033076
1.0031089
1.0028834
1.0026344
1.0037845
1.0050209
1.0039455
1.0041342
1.0042308
1.0042492
1.0042681
1.0042921
1.0043135
1.0043381
1.0043961
1.0044171
1.0044225
1.00443
1.0044299
1.0044234
1.0044101
1.0043876
1.0043467
1.0042943
1.0042298
1.0041481
1.0040543
1.0039552
1.0038331
1.0036746
1.0035025
1.0033461
1.0031881
1.0030094
1.0027591
1.0037785
1.0050219
1.0039365
1.0041346
1.0042268
1.0042454
1.0042659
1.004287
1.0043172
1.0043317
1.0043958
1.0044129
1.004417
1.0044263
1.004426
1.0044195
1.004406
1.0043839
1.0043456
1.0042964
1.0042399
1.0041663
1.0040728
1.0039711
1.0038602
1.0037258
1.003556
1.0033697
1.0031849
1.0030026
1.0028067
1.0037844
1.0050075
1.0039343
1.0041496
1.0042287
1.004247
1.0042677
1.0042902
1.0043008
1.0043245
1.0044064
1.0044173
1.0044189
1.004425
1.0044261
1.0044238
1.0044097
1.0043862
1.0043469
1.004295
1.0042374
1.0041649
1.0040735
1.0039696
1.0038547
1.0037263
1.0035841
1.003423
1.0032334
1.0030208
1.0028096
1.003767
1.0050265
1.0039204
1.0041471
1.0042245
1.0042435
1.004267
1.0042845
1.0043243
1.0043036
1.0044002
1.0044103
1.0044123
1.0044233
1.00442
1.0044181
1.0044046
1.0043802
1.0043439
1.0042926
1.0042331
1.0041598
1.0040666
1.0039609
1.0038437
1.00371
1.0035561
1.003386
1.0032028
1.0030104
1.0028045
1.0037572
1.005001
1.0039211
1.0041646
1.0042239
1.0042456
1.0042682
1.0042905
1.0042816
1.0043141
1.0044242
1.0044167
1.0044166
1.0044196
1.0044241
1.0044259
1.0044114
1.0043874
1.0043501
1.0042988
1.0042355
1.0041623
1.004075
1.0039756
1.0038619
1.0037303
1.0035796
1.0034187
1.0032481
1.0030673
1.0028646
1.0037485
1.0050239
1.0038832
1.0041649
1.004215
1.004239
1.0042658
1.0042812
1.0043479
1.0042367
1.0044236
1.0044073
1.0044111
1.0044257
1.004411
1.0044206
1.0044055
1.0043851
1.0043554
1.0043065
1.0042434
1.0041738
1.0040887
1.0039962
1.0038853
1.0037579
1.003606
1.0034457
1.0032724
1.0031061
1.0029031
1.0037302
1.0049881
1.0039078
1.0041795
1.004202
1.0042388
1.0042539
1.0042815
1.0042422
1.0043168
1.0044288
1.0044058
1.0044102
1.0044078
1.0044211
1.0044279
1.0044118
1.0043902
1.0043602
1.0043183
1.0042605
1.004198
1.0041238
1.0040373
1.0039304
1.0038131
1.0036909
1.003562
1.0033973
1.0032086
1.0029997
1.0027959
1.0027317
1.0026402
1.0026006
1.0025959
1.00257
1.0025286
1.0024248
1.0024147
1.0024516
1.0024524
1.0023172
1.0022166
1.0023253
1.002346
1.0022796
1.0021704
1.0022435
1.0022824
1.0022586
1.0021383
1.0021601
1.0022856
1.0024918
1.0024071
1.0023543
1.0022527
1.0022924
1.0023331
1.0022725
1.0021542
1.0020368
1.0021301
1.0021867
1.0020692
1.0018785
1.0018747
1.0019989
1.001988
1.0018239
1.0016502
1.0017657
1.0018966
1.0017556
1.0014605
1.0015179
1.0022909
1.0020885
1.0019834
1.0018824
1.0020254
1.0020372
1.0019709
1.0017318
1.0016471
1.0017666
1.0018465
1.0017072
1.0014979
1.0014278
1.001557
1.0016189
1.001441
1.0011526
1.0011809
1.0014164
1.00131
1.0009328
1.0008646
1.0019978
1.0016924
1.0015535
1.0014564
1.0016726
1.0017959
1.0017046
1.0013881
1.0012042
1.001288
1.001551
1.0014777
1.0012115
1.0008684
1.0010049
1.0013293
1.001189
1.0007558
1.0005351
1.0009183
1.0010462
1.0006652
1.0002362
1.0017118
1.0013818
1.0011935
1.0010575
1.0012334
1.0014578
1.0014254
1.0010833
1.000769
1.0007875
1.0011558
1.0012942
1.0009639
1.0004039
1.0004001
1.0009192
1.0010384
1.0005487
0.99989686
1.0001189
1.0007294
1.0005611
0.99982193
1.0014508
1.001053
1.0008054
1.000611
1.0008106
1.001193
1.0012457
1.0008494
1.000369
1.000247
1.0006912
1.001135
1.0008849
1.0001385
0.9997483
1.00019
1.0008243
1.0005378
0.99962714
0.99924672
0.99989331
1.0003982
0.99977058
1.0012367
1.0007346
1.0003815
1.0001587
1.0004091
1.0009411
1.0010984
1.0006844
1.0000281
0.9997528
1.0001478
1.000904
1.0008358
1.0000203
0.99923899
0.99949597
1.0004921
1.0006686
0.99972454
0.99858852
0.9988335
1.0000977
1.000044
1.0012113
1.0005446
1.000063
0.99979236
1.0000727
1.0007868
1.0011412
1.0007121
0.99979475
0.99933124
0.9996784
1.0007407
1.0010062
1.0001852
0.99895429
0.99879079
0.99976053
1.0008207
1.0001689
0.99856768
0.99791563
0.99896065
1.0001867
1.0012958
1.0004226
0.9997196
0.99941476
0.99974178
1.0007433
1.0013494
1.000964
0.99970584
0.99898993
0.9992195
1.0004576
1.0012652
1.0006572
0.9989489
0.99821219
0.99896393
1.0007225
1.0007077
0.99903121
0.99740457
0.99787234
0.99983222
1.0016734
1.0005255
0.99954353
0.99916194
0.99949877
1.0007487
1.0016492
1.0013572
0.99980536
0.9988137
0.99885282
1.000143
1.0015999
1.0013016
0.99927328
0.99796991
0.9983138
1.0002099
1.0013323
1.0000079
0.99754301
0.99693246
0.99859083
1.0021901
1.0007676
0.99946521
0.9989821
0.99934908
1.0008717
1.0021906
1.0019938
1.0001475
0.99874142
0.99850566
0.99990783
1.0020275
1.00216
1.0000778
0.99797923
0.99763926
0.99947263
1.0019074
1.0013326
0.99833877
0.99641609
0.99730818
1.0031488
1.0012815
0.99950542
0.99884094
0.99928238
1.0011672
1.0030563
1.0030074
1.0008413
0.99884039
0.99823644
0.99963826
1.0023485
1.0032845
1.0013007
0.99834491
0.99721834
0.99879261
1.0019587
1.0026911
0.99985911
0.99664888
0.99615169
1.0043326
1.0020217
0.99970805
0.99883715
0.9993623
1.0015694
1.0040584
1.00415
1.0017685
0.99910811
0.99816088
0.9994822
1.0025256
1.0043992
1.0027061
0.99906558
0.99717561
0.99820633
1.0015478
1.0038855
1.0018015
0.99756098
0.99563975
1.005567
1.002866
1.0000882
0.99901875
0.9995817
1.0020258
1.0049695
1.0053716
1.0027701
0.99958124
0.99829485
0.99944686
1.0026647
1.0052917
1.0040408
1.0000251
0.99747771
0.99791822
1.0010489
1.0044636
1.0034452
0.99875719
0.9958171
1.0067816
1.0038034
1.0005876
0.99930664
0.99989112
1.0025637
1.0058782
1.006572
1.0037718
1.0001452
0.99852731
0.99954812
1.0029073
1.0060782
1.0052404
1.0010161
0.99789801
0.9977588
1.0007389
1.0048362
1.0047158
1.0000653
0.99625037
1.0079715
1.0046312
1.0010972
0.99961552
1.0002036
1.0030532
1.006722
1.0076233
1.0046108
1.0006468
0.99877718
0.9997164
1.0032361
1.0068609
1.0063026
1.0018807
0.99828058
0.99773641
1.0006265
1.0051903
1.0058615
1.0012974
0.99682414
1.0089621
1.0053966
1.0015332
0.99988197
1.0004994
1.0035566
1.0075721
1.0086198
1.0053769
1.0010525
0.99894513
0.99987469
1.003619
1.0076076
1.0071868
1.0025528
0.99855689
0.99777769
1.0007008
1.005565
1.0067367
1.0021555
0.99725361
1.0101829
1.0060848
1.0020448
1.0001353
1.000743
1.0039887
1.0083356
1.0095063
1.0060059
1.0013548
0.99906711
1.0000524
1.0040615
1.0082874
1.0078435
1.0029155
0.99870384
0.99788624
1.0009879
1.006058
1.0073123
1.0024885
0.99739526
1.01096
1.0065741
1.0024303
1.0003325
1.0009776
1.0044168
1.0090258
1.0102043
1.0063643
1.0014612
0.99913049
1.00029
1.0046323
1.0089513
1.0081799
1.0028617
0.99864887
0.99805775
1.0015431
1.0067634
1.0076013
1.0022389
0.99725436
1.0114571
1.0068546
1.0025633
1.0004295
1.0011522
1.0047832
1.0095651
1.010559
1.0063129
1.0012526
0.99905184
1.0005771
1.0053538
1.0095377
1.0080235
1.0022859
0.99831334
0.99832188
1.0024377
1.0075864
1.0073477
1.0013047
0.99678778
1.0117439
1.0070156
1.0025568
1.0004842
1.0012777
1.0050201
1.0098184
1.010456
1.005819
1.0007744
0.99888907
1.0009218
1.0060903
1.009755
1.0071546
1.0011775
0.99780463
0.99877659
1.0036514
1.0082217
1.0062094
0.99977104
0.99614107
1.0115318
1.0069037
1.0023041
1.0004012
1.0012667
1.0050949
1.0097753
1.0098751
1.0048704
1.0000494
0.99866671
1.0013232
1.0067342
1.0094364
1.0055501
0.99970038
0.99728492
0.99952809
1.0050422
1.0082092
1.004043
0.99792116
0.99577239
1.0106232
1.0061902
1.0015993
0.9999915
1.0009972
1.0048973
1.009269
1.0086877
1.003429
0.99906499
0.9983584
1.0016698
1.0070572
1.0082879
1.003293
0.99812367
0.99701266
1.0005564
1.0061584
1.0069503
1.0010556
0.99626132
0.99637274
1.0089145
1.0045501
1.0003204
0.99923967
1.0005446
1.0044537
1.0081224
1.006678
1.0013958
0.99785215
0.99810455
1.0020498
1.0068688
1.0061137
1.00057
0.9966549
0.99723238
1.0018833
1.0063877
1.00411
0.99796408
0.99533873
0.99805713
1.0062322
1.0019276
0.99833716
0.99791981
0.99971095
1.0034775
1.0061423
1.0038865
0.99902088
0.99658259
0.99795049
1.0023569
1.0057724
1.0030543
0.99780556
0.99562163
0.99798663
1.0029982
1.0049921
1.0001748
0.9956089
0.99569571
1.0002719
1.0021555
0.99824632
0.99549938
0.99591102
0.99817928
1.0014023
1.0029102
1.0002573
0.99657514
0.99553044
0.99784309
1.0020751
1.0033889
0.99944237
0.99557922
0.99537274
0.99897725
1.0029857
1.0017689
0.99655276
0.99458205
0.99716735
1.0018073
0.99890962
0.99584593
0.99398149
0.9946754
0.99694096
0.99925447
0.99957932
0.99704961
0.99480179
0.9949278
0.99762924
1.000773
1.0000033
0.99627835
0.99435349
0.99578659
0.99957115
1.0012812
0.99767998
0.99447345
0.99488417
0.99867756
1.0011749
0.99640679
0.99390342
0.99231568
0.9932513
0.99541265
0.99697523
0.99671788
0.99473114
0.99368493
0.99459998
0.99716808
0.99875384
0.99681386
0.99437134
0.99407154
0.99636753
0.99909405
0.99832925
0.99489478
0.99389841
0.99596605
0.99901147
0.99878544
0.99338373
0.991061
0.9900472
0.99083976
0.99269731
0.99385008
0.99351801
0.99247346
0.99246297
0.99393307
0.99615155
0.99633543
0.99446557
0.99340618
0.99422572
0.99663485
0.99751143
0.99532703
0.99371678
0.99425681
0.99674993
0.9976838
0.99553734
0.99228753
0.99060597
0.98980379
0.99054228
0.99174134
0.99227306
0.99190106
0.99161683
0.99213674
0.99363313
0.99500147
0.99443798
0.9932992
0.99326227
0.99468151
0.99614943
0.99548775
0.99388967
0.99367962
0.99504917
0.99650462
0.99558395
0.99395821
0.9927369
0.9912449
0.99055649
0.99108706
0.9918646
0.99187954
0.99159873
0.99169705
0.99234014
0.99345439
0.99408701
0.9934813
0.99300749
0.99343609
0.99465108
0.99500697
0.99396975
0.9934784
0.99400847
0.99512846
0.99505868
0.99404699
0.9936602
0.9936112
0.9924574
0.99200642
0.99220179
0.99260721
0.99230742
0.99203746
0.99229329
0.99289891
0.99364068
0.99369169
0.99333137
0.99328463
0.99391577
0.99464432
0.99432925
0.99367643
0.99373692
0.99451593
0.99491747
0.99422558
0.9937584
0.99384202
0.99475657
0.99381496
0.99349881
0.99348636
0.99360528
0.9933128
0.99301964
0.99313792
0.9934646
0.99381353
0.99362899
0.99348056
0.99363797
0.99400079
0.99407769
0.99368519
0.99352916
0.99374962
0.99412767
0.99390229
0.99350161
0.99347414
0.99389674
0.99549882
0.9947412
0.99450694
0.99445382
0.99435022
0.9940625
0.99389215
0.99397348
0.99417317
0.9943155
0.9940588
0.99397579
0.99421077
0.99444856
0.9942932
0.99397906
0.99394479
0.99416345
0.99425947
0.99395751
0.99371364
0.99368769
0.99384921
0.99637681
0.99591434
0.99565821
0.99556723
0.99538681
0.99505563
0.99481621
0.99479472
0.99477944
0.99468583
0.99441955
0.99436806
0.99444324
0.99438894
0.9940388
0.99382796
0.99384379
0.99385199
0.99353235
0.99323779
0.99322775
0.99339397
0.99342323
0.99659661
0.99629713
0.99609279
0.99598234
0.99581225
0.99554973
0.99535492
0.99526851
0.99525751
0.99513883
0.99498905
0.99487937
0.9948368
0.99480722
0.99473416
0.99465163
0.99457806
0.99456928
0.9945295
0.99438327
0.99419424
0.99394699
0.99374697
0.99706238
0.99680857
0.99665672
0.99657327
0.99643427
0.99620613
0.99595413
0.99579242
0.99575178
0.99564397
0.99542488
0.99522095
0.99516213
0.99507016
0.99486297
0.99459659
0.99443983
0.99436999
0.99422366
0.99398855
0.99381319
0.99369114
0.99353863
0.99728962
0.99708391
0.99695218
0.99688476
0.99678443
0.99661983
0.99642553
0.99624928
0.99616284
0.99605819
0.99589036
0.99568535
0.9955766
0.9954708
0.99530603
0.99507753
0.9948802
0.99474362
0.99458895
0.99438764
0.99417596
0.99397231
0.99374212
0.99760269
0.99741767
0.99729741
0.997225
0.99711956
0.99697307
0.99681604
0.99666305
0.99655807
0.99644395
0.99629063
0.99609565
0.99593571
0.99581559
0.99565163
0.99543603
0.99520489
0.99501122
0.99481693
0.99460674
0.99439307
0.99415104
0.99386468
0.99778906
0.99764791
0.99754809
0.99749131
0.99740156
0.9972724
0.9971397
0.99701636
0.99691002
0.99679701
0.99665466
0.99648312
0.99629718
0.99614176
0.99598342
0.99579343
0.99557114
0.99534509
0.99511646
0.9948879
0.9946629
0.99441238
0.99406518
0.99801524
0.99788851
0.99780775
0.99776138
0.99767873
0.99756571
0.99744035
0.99732694
0.99721936
0.99711193
0.99698498
0.99683637
0.99666463
0.99648709
0.99631759
0.99614324
0.99594418
0.9957074
0.99544777
0.99519669
0.99495143
0.99469161
0.99433731
0.99821399
0.99811284
0.99803002
0.99798503
0.997912
0.99782143
0.99771262
0.99760787
0.99750107
0.99739838
0.99728795
0.99715733
0.99700743
0.99683529
0.99665712
0.99648028
0.9962954
0.99607028
0.99579884
0.99552748
0.99526091
0.99498823
0.99463681
0.99840975
0.99832067
0.99824984
0.99820478
0.99813188
0.99805547
0.99796329
0.99786772
0.99776833
0.9976709
0.99757202
0.99745445
0.99732002
0.99715878
0.99698363
0.99680237
0.99661761
0.99640585
0.99614991
0.99587461
0.99559203
0.99530754
0.99496201
0.99858848
0.99851085
0.99844464
0.99840265
0.99833477
0.99826606
0.99818762
0.99810153
0.99801089
0.99791956
0.99783032
0.99772614
0.99760374
0.99745483
0.99728764
0.99710849
0.99692121
0.99671618
0.99647983
0.99621818
0.99593325
0.9956414
0.99530658
0.99874427
0.99867525
0.99862666
0.99859047
0.99853092
0.99846942
0.99839937
0.99831944
0.99823304
0.99814589
0.99806044
0.99796526
0.99785253
0.99771914
0.99756813
0.99740098
0.99721576
0.99701388
0.99678831
0.99654201
0.99626445
0.99597394
0.99564728
0.99890915
0.99884313
0.99878971
0.99875328
0.99869834
0.99864419
0.99858203
0.9985112
0.99843222
0.99835434
0.99827456
0.99818349
0.9980784
0.99795884
0.99782349
0.9976681
0.99749063
0.99729463
0.99707629
0.99683961
0.99657248
0.99629129
0.99598023
0.99902992
0.99897406
0.99893422
0.99890183
0.99885304
0.99880274
0.99874433
0.99868086
0.99861089
0.99854081
0.99846797
0.99838397
0.99828776
0.99817844
0.99805208
0.99790541
0.99773861
0.99755273
0.99734353
0.99711406
0.9968583
0.99658849
0.9963015
0.9991625
0.99910538
0.99906104
0.999032
0.99898724
0.99894205
0.99888912
0.99883229
0.99876972
0.99870364
0.99863543
0.99856049
0.99847368
0.99837309
0.99825401
0.99811673
0.99796224
0.99778933
0.9975918
0.99737199
0.9971287
0.99687016
0.99660801
0.99925492
0.99920174
0.99917237
0.99914313
0.99910507
0.99906264
0.99901567
0.99896479
0.99890738
0.99884543
0.99878189
0.99871434
0.9986363
0.99854437
0.99843481
0.99830797
0.99816454
0.99800326
0.99781829
0.99761083
0.99738051
0.99713412
0.99689329
0.99936436
0.99931172
0.99927268
0.99924509
0.99920678
0.99916707
0.99912367
0.99907648
0.99902402
0.99896723
0.99890808
0.99884561
0.99877421
0.99869079
0.99859177
0.99847599
0.99834248
0.99819151
0.99801952
0.99782611
0.99760974
0.99737706
0.99715551
0.99943341
0.99938398
0.99935975
0.99933332
0.99929952
0.99926093
0.99921841
0.99917216
0.99912224
0.99906892
0.99901251
0.99895274
0.99888614
0.99881019
0.99872061
0.99861515
0.99849249
0.99835292
0.99819486
0.99801681
0.99781589
0.99759807
0.99739374
0.99951864
0.99947079
0.99943581
0.99941215
0.99937678
0.99934112
0.99929985
0.99925499
0.99920654
0.99915557
0.99910147
0.99904345
0.99897998
0.99890903
0.99882641
0.99872906
0.99861654
0.99848809
0.99834243
0.99817815
0.99799237
0.99779042
0.99760311
0.99955516
0.99951015
0.99948978
0.99946852
0.99943938
0.99940554
0.99936711
0.9993241
0.99927713
0.99922724
0.99917414
0.99911728
0.99905574
0.9989883
0.99891148
0.99882182
0.99871825
0.99860088
0.99846592
0.99831465
0.99814331
0.99795682
0.99778516
0.99961234
0.99956929
0.99953711
0.99951671
0.99948681
0.99945562
0.99941881
0.99937787
0.99933251
0.99928358
0.99923076
0.99917467
0.99911473
0.99905055
0.99897939
0.99889772
0.99880312
0.99869487
0.99857087
0.99843023
0.99827215
0.99809923
0.997941
0.99961842
0.99957909
0.99956167
0.99954433
0.99951951
0.99948994
0.99945537
0.99941547
0.99937125
0.99932321
0.99927152
0.99921635
0.9991579
0.99909603
0.9990289
0.99895381
0.9988675
0.99876807
0.99865374
0.99852425
0.99837877
0.99821858
0.99807139
0.99965395
0.99961116
0.99958448
0.99956603
0.99954015
0.99951226
0.99947866
0.99944027
0.99939691
0.9993496
0.99929855
0.99924464
0.99918703
0.9991268
0.99906223
0.9989918
0.99891215
0.99882082
0.9987159
0.99859716
0.99846405
0.99831566
0.99817735
0.99963319
0.99960207
0.99958497
0.99957143
0.99954843
0.99952247
0.99949015
0.99945303
0.99941028
0.99936334
0.99931278
0.99925922
0.99920252
0.99914332
0.99908078
0.99901378
0.99893957
0.99885556
0.99875944
0.99865055
0.99852834
0.99839008
0.99825917
0.99965734
0.99961414
0.99959212
0.99957456
0.99954983
0.99952407
0.99949247
0.999456
0.9994141
0.99936749
0.99931714
0.99926376
0.99920748
0.99914891
0.99908775
0.99902301
0.99895286
0.99887472
0.9987863
0.9986859
0.99857354
0.9984442
0.99831923
0.99961641
0.99959333
0.99957502
0.99956431
0.99954249
0.99951857
0.99948819
0.99945247
0.99941092
0.99936449
0.99931397
0.99926044
0.99920441
0.99914622
0.99908567
0.99902197
0.99895425
0.99888032
0.99879812
0.99870478
0.99860142
0.99847977
0.99835913
0.99962878
0.9995888
0.99957103
0.99955447
0.99953188
0.99950712
0.99947688
0.99944191
0.99940131
0.99935569
0.99930543
0.99925179
0.99919587
0.99913774
0.9990774
0.99901399
0.9989472
0.99887551
0.99879786
0.9987098
0.99861438
0.99849825
0.99838118
0.99959114
0.99956526
0.99954956
0.99953826
0.99951817
0.99949482
0.99946527
0.99943059
0.99939055
0.99934517
0.99929509
0.99924109
0.9991851
0.99912651
0.99906577
0.99900187
0.99893514
0.99886432
0.99878943
0.99870463
0.99861446
0.99850256
0.99838967
0.99958356
0.9995506
0.99953431
0.99951991
0.99949921
0.99947605
0.99944715
0.99941355
0.99937466
0.99933075
0.99928174
0.99922866
0.99917266
0.9991137
0.99905203
0.99898733
0.99892024
0.99884931
0.99877544
0.99869164
0.99860362
0.99849599
0.99838797
0.99956708
0.99953512
0.99951942
0.99950604
0.99948658
0.99946371
0.99943506
0.99940171
0.99936294
0.99931896
0.9992705
0.99921758
0.99916123
0.99910149
0.99903883
0.99897306
0.99890524
0.99883302
0.99875838
0.9986734
0.99858613
0.9984824
0.99837898
0.99955416
0.99951837
0.99950353
0.99948797
0.99946806
0.99944536
0.99941767
0.99938563
0.9993482
0.99930571
0.99925856
0.99920645
0.99915026
0.99909033
0.99902691
0.99895991
0.99889071
0.99881655
0.9987394
0.99865321
0.99856583
0.99846548
0.99836446
0.99953988
0.99950739
0.9994907
0.99947669
0.99945747
0.99943505
0.99940778
0.99937599
0.99933879
0.99929704
0.99925034
0.99919834
0.99914223
0.99908174
0.99901761
0.9989492
0.99887796
0.99880073
0.99872045
0.99863282
0.99854522
0.9984469
0.99834727
0.9995278
0.99949024
0.99947624
0.99946
0.99944077
0.999419
0.9993928
0.99936238
0.9993271
0.99928713
0.99924174
0.99919069
0.99913512
0.99907464
0.99901017
0.99894049
0.99886649
0.99878624
0.9987034
0.99861425
0.99852555
0.99842793
0.99832913
0.99951609
0.99948269
0.99946569
0.99945114
0.99943197
0.99941065
0.99938493
0.99935526
0.99932079
0.99928155
0.99923679
0.99918648
0.99913143
0.9990706
0.99900521
0.9989337
0.99885754
0.99877506
0.99868996
0.99859937
0.99850911
0.99841124
0.99831216
0.99950317
0.99946554
0.99945179
0.9994359
0.999417
0.99939664
0.99937234
0.99934444
0.99931191
0.9992745
0.99923158
0.99918279
0.9991286
0.99906823
0.99900201
0.99892876
0.99885086
0.99876716
0.99868052
0.99858874
0.99849717
0.99839868
0.9982982
0.99949187
0.99945805
0.99944101
0.99942653
0.99940809
0.99938843
0.99936489
0.99933814
0.99930663
0.99927016
0.99922846
0.99918089
0.99912744
0.99906726
0.99900027
0.99892602
0.99884696
0.99876255
0.99867486
0.998582
0.99848934
0.9983904
0.99828782
0.99947521
0.99944041
0.99942586
0.99941094
0.99939258
0.99937426
0.99935225
0.99932756
0.99929833
0.99926414
0.99922454
0.99917872
0.99912633
0.99906649
0.99899956
0.99892532
0.99884603
0.99876119
0.99867306
0.99857981
0.99848619
0.99838667
0.99828222
0.99946888
0.9994331
0.9994164
0.99940126
0.99938367
0.99936554
0.99934431
0.99932017
0.99929151
0.9992583
0.99921982
0.99917503
0.99912351
0.99906417
0.99899745
0.998924
0.99884565
0.99876127
0.9986729
0.99857958
0.99848565
0.99838592
0.99827963
0.9994494
0.99941362
0.99939964
0.99938489
0.99936758
0.99935128
0.999332
0.99930958
0.99928244
0.99925066
0.99921358
0.99916996
0.99911903
0.99906076
0.99899574
0.99892379
0.99884632
0.99876289
0.99867517
0.99858231
0.99848792
0.99838862
0.99828096
0.99943047
0.99939633
0.99938135
0.99936771
0.9993521
0.99933655
0.99931819
0.99929647
0.99927024
0.99923931
0.99920303
0.99916035
0.99911036
0.99905322
0.99898979
0.99892002
0.99884471
0.99876273
0.99867606
0.99858441
0.99849072
0.99839168
0.99828286
0.99940822
0.99937261
0.99935936
0.99934602
0.99933095
0.99931666
0.99929956
0.99927892
0.99925364
0.99922381
0.99918868
0.99914663
0.99909763
0.99904227
0.99898089
0.99891321
0.99884003
0.99876036
0.99867535
0.99858495
0.99849245
0.99839463
0.99828542
0.99937543
0.99934309
0.99932999
0.99931872
0.99930541
0.99929214
0.99927576
0.99925609
0.99923203
0.99920314
0.99916882
0.99912736
0.99907917
0.99902547
0.99896647
0.99890136
0.9988304
0.99875297
0.99867061
0.99858261
0.99849161
0.99839484
0.99828611
0.99933986
0.99930523
0.99929376
0.99928286
0.9992707
0.99925796
0.99924245
0.99922381
0.99920118
0.99917343
0.99913954
0.99909917
0.99905281
0.99900068
0.99894328
0.99888053
0.99881261
0.99873823
0.99865874
0.99857354
0.99848493
0.99839007
0.9982828
0.99929243
0.99926052
0.99925055
0.99924104
0.99923067
0.99921936
0.99920467
0.99918661
0.99916447
0.99913753
0.9991043
0.99906451
0.9990192
0.99896876
0.99891326
0.99885251
0.99878689
0.99871524
0.99863872
0.9985563
0.99847059
0.99837898
0.99827375
0.99922924
0.99919686
0.99919027
0.99918139
0.99917276
0.99916256
0.99914899
0.99913205
0.99911125
0.99908513
0.9990527
0.99901438
0.99897089
0.99892261
0.99886913
0.99881039
0.99874722
0.99867869
0.9986056
0.9985267
0.99844401
0.99835595
0.99825418
0.99915976
0.99913021
0.99912346
0.99911636
0.99910841
0.9990993
0.99908612
0.99906972
0.99904884
0.99902254
0.99899043
0.99895286
0.99891033
0.99886347
0.99881181
0.99875508
0.99869395
0.99862767
0.99855686
0.99848082
0.99840175
0.99831768
0.99821964
0.99905939
0.99903477
0.99903103
0.99902615
0.9990196
0.99901208
0.99900086
0.99898621
0.99896597
0.99893993
0.99890877
0.99887262
0.99883137
0.99878557
0.99873537
0.99868052
0.99862127
0.99855717
0.998489
0.99841568
0.99833957
0.99825922
0.99816539
0.9989679
0.99894216
0.99893887
0.9989346
0.99892867
0.9989211
0.99890934
0.99889448
0.9988737
0.99884725
0.99881599
0.99877997
0.99873918
0.99869375
0.99864396
0.99858991
0.99853174
0.99846881
0.99840222
0.99833111
0.99825714
0.99817926
0.99808857
0.99884535
0.99882388
0.99882217
0.99881948
0.99881435
0.99880754
0.99879622
0.99878119
0.99876007
0.99873342
0.99870228
0.99866651
0.99862597
0.99858037
0.99853051
0.99847681
0.99841932
0.99835708
0.99829126
0.99822166
0.99814971
0.99807347
0.99798486
0.99873832
0.99871473
0.99871206
0.9987087
0.99870289
0.9986954
0.99868285
0.99866625
0.99864346
0.99861568
0.99858317
0.9985459
0.99850409
0.9984575
0.99840667
0.99835148
0.99829276
0.99822994
0.99816369
0.99809349
0.99802119
0.9979453
0.99785795
0.99862013
0.99859722
0.99859593
0.998592
0.99858563
0.99857714
0.99856313
0.99854457
0.99851982
0.99849004
0.99845554
0.99841614
0.9983722
0.9983235
0.99827083
0.99821371
0.9981529
0.99808816
0.99802011
0.99794825
0.99787415
0.99779684
0.99770892
0.99852515
0.99849829
0.99849591
0.99848951
0.99848162
0.99847102
0.99845457
0.99843337
0.99840615
0.99837366
0.99833617
0.99829352
0.99824636
0.99819414
0.99813795
0.99807716
0.99801281
0.99794457
0.99787283
0.99779741
0.99772001
0.99763967
0.99754807
0.99842567
0.99840106
0.99839875
0.99839201
0.99838293
0.9983711
0.99835232
0.99832894
0.99829938
0.99826473
0.99822463
0.99817902
0.99812856
0.99807254
0.99801263
0.99794776
0.99787899
0.99780604
0.99772935
0.997649
0.99756677
0.99748222
0.99738608
0.99836392
0.99833306
0.9983313
0.99832117
0.99831082
0.99829594
0.99827437
0.99824784
0.99821525
0.99817757
0.99813427
0.99808526
0.99803123
0.99797125
0.99790713
0.99783769
0.99776389
0.99768574
0.99760342
0.99751735
0.99742893
0.99733882
0.99723687
0.99830232
0.99827694
0.99827244
0.99826286
0.99825092
0.99823466
0.99821095
0.99818254
0.9981477
0.9981076
0.99806152
0.99800956
0.99795228
0.99788868
0.9978205
0.99774664
0.99766805
0.99758501
0.99749757
0.99740607
0.99731177
0.99721607
0.99710908
0.99826761
0.9982392
0.99823564
0.99822455
0.99821168
0.99819397
0.99816888
0.99813922
0.99810278
0.99806095
0.99801284
0.99795864
0.99789889
0.99783233
0.99776085
0.99768329
0.99760063
0.99751319
0.99742101
0.99732442
0.99722441
0.99712318
0.99701181
0.99821954
0.99819504
0.99819048
0.998181
0.99816782
0.99815032
0.99812511
0.99809562
0.99805898
0.99801674
0.99796797
0.99791289
0.99785188
0.9977839
0.99771056
0.99763106