/*--------------------------------*- C++ -*----------------------------------*\
| =========                 |                                                 |
| \\      /  F ield         | OpenFOAM: The Open Source CFD Toolbox           |
|  \\    /   O peration     | Version:  2406                                  |
|   \\  /    A nd           | Website:  www.openfoam.com                      |
|    \\/     M anipulation  |                                                 |
\*---------------------------------------------------------------------------*/
FoamFile
{
    version     2.0;
    format      ascii;
    arch        "LSB;label=32;scalar=64";
    class       volScalarField;
    location    "34";
    object      alphat;
}
// * * * * * * * * * * * * * * * * * * * * * * * * * * * * * * * * * * * * * //

dimensions      [1 -1 -1 0 0 0 0];

internalField   nonuniform List<scalar> 
62344
(
1.0406985e-06
1.0703497e-06
1.1156992e-06
1.1469766e-06
1.1423863e-06
1.1074308e-06
1.0681315e-06
1.0341153e-06
1.0166136e-06
1.0186812e-06
1.0324838e-06
1.0520471e-06
1.059981e-06
1.0562867e-06
1.0495196e-06
1.0406831e-06
1.0301651e-06
1.0222676e-06
1.0200156e-06
1.0246535e-06
1.0312476e-06
1.0312097e-06
1.0290264e-06
1.0218903e-06
1.0094838e-06
1.0074685e-06
1.009727e-06
1.0220686e-06
1.0324614e-06
1.047211e-06
1.0568413e-06
1.075607e-06
1.0983285e-06
1.1282641e-06
1.1502312e-06
1.1787817e-06
1.2373326e-06
1.3012691e-06
1.3761455e-06
1.4215485e-06
1.453506e-06
1.527633e-06
1.7418744e-06
1.9772838e-06
2.0830528e-06
2.1464485e-06
2.2381409e-06
2.4702638e-06
2.8390712e-06
3.0489418e-06
3.3956914e-06
3.5023891e-06
3.8190967e-06
4.0186015e-06
4.5284065e-06
1.0393737e-06
1.0658287e-06
1.1105648e-06
1.143443e-06
1.1416584e-06
1.1078131e-06
1.0681636e-06
1.033458e-06
1.0154042e-06
1.017077e-06
1.0306176e-06
1.0511664e-06
1.0605179e-06
1.0571658e-06
1.049591e-06
1.0418863e-06
1.0313353e-06
1.0213001e-06
1.0191985e-06
1.0241343e-06
1.0303489e-06
1.0326693e-06
1.0305104e-06
1.0238364e-06
1.01294e-06
1.0069959e-06
1.0052109e-06
1.0141949e-06
1.0250647e-06
1.0410729e-06
1.0491429e-06
1.0655295e-06
1.079369e-06
1.1033139e-06
1.125275e-06
1.1428773e-06
1.1986103e-06
1.245215e-06
1.3034357e-06
1.3748192e-06
1.4419926e-06
1.4988629e-06
1.6210205e-06
1.8417969e-06
2.0611328e-06
2.0904259e-06
2.2349927e-06
2.365573e-06
2.7797679e-06
2.9798009e-06
3.3356335e-06
3.4692739e-06
3.6913971e-06
3.844332e-06
4.3023297e-06
1.0389803e-06
1.0665904e-06
1.112525e-06
1.1458731e-06
1.1449209e-06
1.1110911e-06
1.0712269e-06
1.035829e-06
1.0169769e-06
1.0173118e-06
1.0301279e-06
1.0513534e-06
1.0629066e-06
1.0614772e-06
1.0545962e-06
1.046844e-06
1.0357737e-06
1.0248521e-06
1.0229284e-06
1.0276234e-06
1.0333448e-06
1.0359287e-06
1.0349056e-06
1.0272095e-06
1.0194158e-06
1.0120536e-06
1.0067033e-06
1.012023e-06
1.0234226e-06
1.0405008e-06
1.0495731e-06
1.0649238e-06
1.0775441e-06
1.0976001e-06
1.1201181e-06
1.1398622e-06
1.179799e-06
1.2137074e-06
1.2529969e-06
1.2923495e-06
1.3904655e-06
1.4461424e-06
1.5104958e-06
1.5964489e-06
1.8561528e-06
2.0029491e-06
2.2070948e-06
2.2638811e-06
2.5732624e-06
2.7426125e-06
3.1131118e-06
3.3879647e-06
3.6002193e-06
3.7659768e-06
4.2175737e-06
1.0385366e-06
1.0668213e-06
1.1132746e-06
1.1475976e-06
1.1472882e-06
1.1142529e-06
1.075173e-06
1.0372576e-06
1.0169379e-06
1.016748e-06
1.030844e-06
1.0521295e-06
1.0645793e-06
1.0659354e-06
1.0581659e-06
1.0480382e-06
1.0388105e-06
1.0286017e-06
1.0236374e-06
1.0279142e-06
1.0347348e-06
1.0396685e-06
1.0405338e-06
1.0304281e-06
1.0227211e-06
1.0160478e-06
1.0118319e-06
1.013429e-06
1.023237e-06
1.0394147e-06
1.0510148e-06
1.0642915e-06
1.0753248e-06
1.0958948e-06
1.109281e-06
1.1377461e-06
1.169407e-06
1.2016996e-06
1.2195903e-06
1.2680675e-06
1.3211061e-06
1.4088723e-06
1.4498284e-06
1.5323054e-06
1.6181408e-06
1.7943544e-06
1.9488921e-06
2.0886181e-06
2.3055502e-06
2.3697411e-06
2.6831604e-06
3.1140104e-06
3.4240113e-06
3.7445139e-06
4.1175321e-06
1.037963e-06
1.0659719e-06
1.1127374e-06
1.1484102e-06
1.1496471e-06
1.1173305e-06
1.077641e-06
1.0385575e-06
1.0175918e-06
1.0176656e-06
1.0326283e-06
1.0520996e-06
1.0659811e-06
1.0681978e-06
1.0602517e-06
1.0502849e-06
1.0400959e-06
1.0295969e-06
1.0234201e-06
1.0286006e-06
1.0365542e-06
1.0417749e-06
1.0440252e-06
1.0357693e-06
1.0285208e-06
1.0204928e-06
1.0163944e-06
1.0151633e-06
1.023719e-06
1.0370442e-06
1.0511469e-06
1.06452e-06
1.0739223e-06
1.0934796e-06
1.1052515e-06
1.1291892e-06
1.1674936e-06
1.1906943e-06
1.2139208e-06
1.236457e-06
1.3137556e-06
1.3652716e-06
1.4350582e-06
1.4533218e-06
1.5522952e-06
1.6321913e-06
1.7937436e-06
1.9289477e-06
2.0407384e-06
2.1277624e-06
2.3786353e-06
2.563084e-06
2.922435e-06
3.2106457e-06
3.7326662e-06
1.0374742e-06
1.0651081e-06
1.1119582e-06
1.1486267e-06
1.1503418e-06
1.1194916e-06
1.0792228e-06
1.0415122e-06
1.0190325e-06
1.0195868e-06
1.0324015e-06
1.0510114e-06
1.0671831e-06
1.0714997e-06
1.0646211e-06
1.0543845e-06
1.0423474e-06
1.0318754e-06
1.0259251e-06
1.030297e-06
1.0367758e-06
1.0417398e-06
1.0441238e-06
1.0388929e-06
1.0327502e-06
1.0231981e-06
1.0179019e-06
1.0154869e-06
1.0235998e-06
1.0343191e-06
1.0498422e-06
1.0638143e-06
1.0746708e-06
1.0902094e-06
1.1030603e-06
1.1230838e-06
1.160081e-06
1.1817716e-06
1.2055859e-06
1.2253772e-06
1.2952271e-06
1.3497964e-06
1.4171145e-06
1.4384783e-06
1.5206711e-06
1.6014843e-06
1.7441358e-06
1.8208863e-06
1.9422676e-06
2.0108725e-06
2.1964742e-06
2.3389545e-06
2.6048749e-06
2.8026115e-06
3.1998012e-06
1.0372136e-06
1.0665403e-06
1.1142348e-06
1.1511881e-06
1.1525447e-06
1.1229058e-06
1.082714e-06
1.0446139e-06
1.0208201e-06
1.0193754e-06
1.0322933e-06
1.0520098e-06
1.0698979e-06
1.0758348e-06
1.0687507e-06
1.0564874e-06
1.0447334e-06
1.0360374e-06
1.0291968e-06
1.030507e-06
1.0358925e-06
1.0434279e-06
1.0468665e-06
1.0434899e-06
1.0377549e-06
1.0268299e-06
1.0195015e-06
1.0161537e-06
1.0235311e-06
1.0321751e-06
1.0478068e-06
1.0616214e-06
1.0758691e-06
1.0886816e-06
1.1018605e-06
1.1231359e-06
1.1559784e-06
1.1769677e-06
1.2017579e-06
1.2215473e-06
1.2794868e-06
1.3253213e-06
1.391368e-06
1.4181455e-06
1.4970183e-06
1.5675945e-06
1.7001303e-06
1.7734814e-06
1.8816282e-06
1.9351275e-06
2.0789246e-06
2.19116e-06
2.4172213e-06
2.5745132e-06
2.8706202e-06
1.0368064e-06
1.0659737e-06
1.1136836e-06
1.1511903e-06
1.1537361e-06
1.1252762e-06
1.0853654e-06
1.0456874e-06
1.020766e-06
1.0181088e-06
1.0327772e-06
1.052337e-06
1.0687809e-06
1.0766625e-06
1.07075e-06
1.0576001e-06
1.0466155e-06
1.0377251e-06
1.0294142e-06
1.0297814e-06
1.0354904e-06
1.0448931e-06
1.0501421e-06
1.0479874e-06
1.0432432e-06
1.0327643e-06
1.0239514e-06
1.0188537e-06
1.0233489e-06
1.030528e-06
1.0444373e-06
1.0564831e-06
1.0738851e-06
1.0849614e-06
1.1004333e-06
1.125386e-06
1.157905e-06
1.1766228e-06
1.2008969e-06
1.2239586e-06
1.2714977e-06
1.303747e-06
1.3608285e-06
1.3943583e-06
1.4692951e-06
1.5279465e-06
1.6347688e-06
1.7052638e-06
1.8141977e-06
1.8719902e-06
2.0082212e-06
2.1054638e-06
2.300087e-06
2.427672e-06
2.639852e-06
1.0363463e-06
1.0646041e-06
1.1121077e-06
1.1503831e-06
1.154142e-06
1.1267631e-06
1.0865955e-06
1.0466256e-06
1.0212103e-06
1.0169428e-06
1.0320492e-06
1.0511498e-06
1.0666973e-06
1.0758697e-06
1.0713046e-06
1.0582717e-06
1.0469077e-06
1.0371163e-06
1.028659e-06
1.0289507e-06
1.0349704e-06
1.0435208e-06
1.0490925e-06
1.0484965e-06
1.0453274e-06
1.0354833e-06
1.0258792e-06
1.0204556e-06
1.023145e-06
1.029766e-06
1.0419735e-06
1.0529593e-06
1.0720116e-06
1.0815625e-06
1.0973771e-06
1.1267077e-06
1.1617387e-06
1.1747294e-06
1.1978908e-06
1.2252719e-06
1.2711442e-06
1.2939461e-06
1.3381499e-06
1.3742209e-06
1.4455057e-06
1.4949234e-06
1.5797907e-06
1.6308357e-06
1.7368651e-06
1.8029583e-06
1.92872e-06
2.0058839e-06
2.1519149e-06
2.2354447e-06
2.4075517e-06
1.0359807e-06
1.0641403e-06
1.1116442e-06
1.1506038e-06
1.1545814e-06
1.1278432e-06
1.0873424e-06
1.0484759e-06
1.0224884e-06
1.0172939e-06
1.0311043e-06
1.0494322e-06
1.0650756e-06
1.0759059e-06
1.0735391e-06
1.0610426e-06
1.0475823e-06
1.0360439e-06
1.0282433e-06
1.0288969e-06
1.0349412e-06
1.0418911e-06
1.0471387e-06
1.0479212e-06
1.0470669e-06
1.0386288e-06
1.0281157e-06
1.02208e-06
1.0235779e-06
1.0303993e-06
1.0420318e-06
1.0529992e-06
1.0715909e-06
1.0795391e-06
1.0940332e-06
1.1242929e-06
1.1627677e-06
1.1757253e-06
1.1957113e-06
1.2240023e-06
1.2707462e-06
1.2885145e-06
1.3205253e-06
1.3516394e-06
1.4259006e-06
1.4755573e-06
1.5463371e-06
1.57876e-06
1.6635095e-06
1.7317504e-06
1.8529982e-06
1.9295975e-06
2.0519597e-06
2.1114543e-06
2.2476541e-06
1.0356439e-06
1.0643227e-06
1.1121283e-06
1.1515513e-06
1.1553074e-06
1.1297405e-06
1.089412e-06
1.051221e-06
1.0238962e-06
1.0173583e-06
1.0297311e-06
1.0495105e-06
1.0674627e-06
1.0789973e-06
1.0782081e-06
1.0666425e-06
1.0511863e-06
1.0377523e-06
1.0312999e-06
1.0320922e-06
1.0365944e-06
1.0416148e-06
1.0472644e-06
1.0493972e-06
1.0506883e-06
1.045027e-06
1.0345072e-06
1.0270995e-06
1.0266463e-06
1.0331763e-06
1.0445052e-06
1.0563861e-06
1.0737664e-06
1.0805991e-06
1.0931051e-06
1.1218138e-06
1.1600632e-06
1.1758798e-06
1.1969221e-06
1.2240094e-06
1.2720138e-06
1.2895299e-06
1.3161952e-06
1.3408444e-06
1.4144616e-06
1.4686286e-06
1.5372196e-06
1.5624908e-06
1.6301862e-06
1.6843437e-06
1.7877234e-06
1.8621971e-06
1.9872419e-06
2.0373247e-06
2.1382595e-06
1.0352762e-06
1.0636731e-06
1.111074e-06
1.1513002e-06
1.1551363e-06
1.1316596e-06
1.0922798e-06
1.0534084e-06
1.02477e-06
1.0159014e-06
1.0288407e-06
1.0509786e-06
1.0704728e-06
1.0806942e-06
1.0822046e-06
1.0710488e-06
1.0551449e-06
1.0415896e-06
1.0352212e-06
1.0353541e-06
1.0393961e-06
1.0448107e-06
1.0520002e-06
1.0562381e-06
1.0576426e-06
1.0518743e-06
1.0406763e-06
1.0314771e-06
1.0283266e-06
1.0332849e-06
1.0433132e-06
1.0561291e-06
1.0710705e-06
1.0787592e-06
1.0937401e-06
1.1192136e-06
1.1564878e-06
1.1744932e-06
1.2013788e-06
1.2271049e-06
1.2759433e-06
1.2969494e-06
1.326488e-06
1.3468115e-06
1.4083594e-06
1.4842361e-06
1.5353955e-06
1.5672471e-06
1.6419946e-06
1.6981873e-06
1.7428183e-06
1.8613796e-06
1.9885863e-06
2.0233951e-06
2.1255087e-06
1.0348055e-06
1.0617813e-06
1.1083952e-06
1.1495744e-06
1.154711e-06
1.1326586e-06
1.0939022e-06
1.0545988e-06
1.0254227e-06
1.0143371e-06
1.0273127e-06
1.0497078e-06
1.0689159e-06
1.079383e-06
1.0827201e-06
1.0716879e-06
1.0552119e-06
1.0415871e-06
1.0350375e-06
1.0341238e-06
1.0376814e-06
1.0440078e-06
1.0519863e-06
1.0572781e-06
1.0587689e-06
1.0529526e-06
1.041648e-06
1.0319724e-06
1.0276189e-06
1.0309167e-06
1.039911e-06
1.0538917e-06
1.0646556e-06
1.0721621e-06
1.0909545e-06
1.1163643e-06
1.1516144e-06
1.1730388e-06
1.1992834e-06
1.233436e-06
1.2743466e-06
1.3068835e-06
1.3429832e-06
1.3613912e-06
1.4246214e-06
1.5025105e-06
1.5372597e-06
1.576213e-06
1.67974e-06
1.7389367e-06
1.7733003e-06
1.8848509e-06
1.9938874e-06
2.026451e-06
2.1511341e-06
1.034397e-06
1.0598609e-06
1.1054218e-06
1.1473605e-06
1.1540936e-06
1.1323154e-06
1.0943936e-06
1.0551007e-06
1.0261337e-06
1.0134091e-06
1.0254037e-06
1.0470388e-06
1.0655054e-06
1.0764195e-06
1.0802928e-06
1.0716606e-06
1.0550825e-06
1.0395698e-06
1.0317217e-06
1.0301202e-06
1.0327899e-06
1.0389322e-06
1.0469856e-06
1.0531961e-06
1.0559146e-06
1.0511177e-06
1.0405732e-06
1.0302425e-06
1.0248272e-06
1.0250816e-06
1.0324951e-06
1.0467062e-06
1.0550585e-06
1.0609901e-06
1.0803363e-06
1.1069674e-06
1.1403047e-06
1.1620632e-06
1.1955439e-06
1.2337902e-06
1.2702819e-06
1.2961323e-06
1.3425103e-06
1.3800122e-06
1.4384887e-06
1.482359e-06
1.5119327e-06
1.5746309e-06
1.6851305e-06
1.7450172e-06
1.7786204e-06
1.879747e-06
1.9419198e-06
1.9958702e-06
2.1296048e-06
1.0339803e-06
1.0580518e-06
1.1027352e-06
1.1452762e-06
1.1534756e-06
1.1317446e-06
1.0945236e-06
1.0556287e-06
1.0266554e-06
1.0133119e-06
1.0235105e-06
1.043901e-06
1.0620787e-06
1.0742438e-06
1.078483e-06
1.071161e-06
1.0550742e-06
1.0382079e-06
1.0286546e-06
1.0264281e-06
1.0282723e-06
1.033401e-06
1.0398613e-06
1.0457545e-06
1.0495202e-06
1.0467045e-06
1.0381603e-06
1.0278728e-06
1.0227296e-06
1.0213549e-06
1.027424e-06
1.0411226e-06
1.049063e-06
1.0534437e-06
1.0693892e-06
1.0972103e-06
1.1241524e-06
1.1414442e-06
1.1827642e-06
1.2252453e-06
1.2588104e-06
1.2812162e-06
1.325211e-06
1.375149e-06
1.4299939e-06
1.4654554e-06
1.4788893e-06
1.5496769e-06
1.6594706e-06
1.7108456e-06
1.7721478e-06
1.8454196e-06
1.8750629e-06
1.9273179e-06
2.063001e-06
1.033697e-06
1.0569828e-06
1.1010966e-06
1.1437887e-06
1.1528202e-06
1.1316452e-06
1.0954724e-06
1.0567836e-06
1.0270799e-06
1.0137343e-06
1.0218453e-06
1.0410667e-06
1.0602746e-06
1.074163e-06
1.079066e-06
1.0728385e-06
1.0570222e-06
1.038936e-06
1.028003e-06
1.0255279e-06
1.0268619e-06
1.0312435e-06
1.0360155e-06
1.0413965e-06
1.0456255e-06
1.0444227e-06
1.0381288e-06
1.0278894e-06
1.0226706e-06
1.01914e-06
1.0232213e-06
1.0357779e-06
1.0443123e-06
1.0482424e-06
1.0623619e-06
1.0878154e-06
1.1112759e-06
1.1231042e-06
1.162824e-06
1.2015234e-06
1.2382737e-06
1.2510388e-06
1.2861003e-06
1.3318209e-06
1.3896496e-06
1.4213789e-06
1.4317081e-06
1.4839503e-06
1.5736993e-06
1.6085115e-06
1.699522e-06
1.7354545e-06
1.8040551e-06
1.8309024e-06
1.9436714e-06
1.0333267e-06
1.0555968e-06
1.0992318e-06
1.1420778e-06
1.1517271e-06
1.131943e-06
1.097368e-06
1.0587029e-06
1.0273069e-06
1.0139767e-06
1.0204167e-06
1.0393211e-06
1.0609557e-06
1.0764758e-06
1.082357e-06
1.0773053e-06
1.061637e-06
1.0428981e-06
1.0300062e-06
1.0274781e-06
1.0288181e-06
1.0324231e-06
1.035834e-06
1.0405072e-06
1.0451017e-06
1.0452069e-06
1.0406084e-06
1.0310458e-06
1.0257822e-06
1.0191427e-06
1.0191458e-06
1.02899e-06
1.0376531e-06
1.0417669e-06
1.0544257e-06
1.0747658e-06
1.0967534e-06
1.104491e-06
1.1336063e-06
1.1673245e-06
1.2038724e-06
1.2136269e-06
1.2362005e-06
1.2616495e-06
1.3067818e-06
1.3313464e-06
1.0140514e-06
1.3583225e-06
1.413464e-06
1.4189098e-06
1.5017061e-06
1.4133181e-06
1.1529372e-06
1.59134e-06
1.6764236e-06
1.0330622e-06
1.0544805e-06
1.0975089e-06
1.1403095e-06
1.1506242e-06
1.1318862e-06
1.0990281e-06
1.0604684e-06
1.0273128e-06
1.0118716e-06
1.0179611e-06
1.0381924e-06
1.0601011e-06
1.075729e-06
1.0823984e-06
1.0772793e-06
1.0611268e-06
1.0420965e-06
1.0282068e-06
1.0246616e-06
1.0248468e-06
1.0273436e-06
1.0314627e-06
1.0367145e-06
1.0414762e-06
1.0417105e-06
1.0374656e-06
1.0278505e-06
1.0218741e-06
1.0134511e-06
1.0107423e-06
1.0180885e-06
9.5705118e-07
1.0292758e-06
1.0404595e-06
1.0576334e-06
1.0741846e-06
8.2643019e-07
1.0999512e-06
9.0847495e-07
1.1576547e-06
8.2569549e-07
1.1782782e-06
8.7019508e-07
1.0901401e-06
1.2407367e-06
6.5699782e-07
1.0787843e-06
1.2858859e-06
8.1190197e-07
1.329512e-06
1.1305742e-06
6.7944923e-07
9.3766443e-07
1.418462e-06
1.032654e-06
1.0526913e-06
1.0947989e-06
1.1376681e-06
1.1491296e-06
1.1307749e-06
1.0986731e-06
1.0601217e-06
1.0255809e-06
1.0072188e-06
1.0119687e-06
1.0310163e-06
1.0512771e-06
1.0660273e-06
1.072378e-06
1.065706e-06
1.0493707e-06
1.0303641e-06
1.0157786e-06
1.0102408e-06
1.0094607e-06
1.0109885e-06
1.0163178e-06
1.0227563e-06
1.0276253e-06
1.0275689e-06
1.0246527e-06
1.018012e-06
1.0145766e-06
1.0089794e-06
1.0088968e-06
1.0158281e-06
7.4487402e-07
1.0272265e-06
1.0380636e-06
1.0524691e-06
9.7760911e-07
7.324354e-07
1.081991e-06
7.7201936e-07
1.1326728e-06
6.9043477e-07
1.1507697e-06
8.4429151e-07
7.3241074e-07
1.1515469e-06
6.0328847e-07
7.2928291e-07
1.2210805e-06
8.0850687e-07
9.1747306e-07
9.7069329e-07
6.0515788e-07
6.3552862e-07
1.0160772e-06
1.0322762e-06
1.0511251e-06
1.0918098e-06
1.1342258e-06
1.1457746e-06
1.126643e-06
1.0931352e-06
1.053427e-06
1.0174632e-06
9.9585052e-07
9.9667353e-07
1.0119113e-06
1.0285429e-06
1.0419348e-06
1.0477923e-06
1.0406126e-06
1.0270888e-06
1.0105137e-06
9.982167e-07
9.9376181e-07
9.9643422e-07
1.0007329e-06
1.0104384e-06
1.0229412e-06
1.0354181e-06
1.0421341e-06
1.0448482e-06
1.0484256e-06
1.0579624e-06
1.0642568e-06
1.0720499e-06
1.0864778e-06
7.266326e-07
1.1197152e-06
1.1362181e-06
1.155132e-06
8.7792294e-07
8.6909128e-07
1.193363e-06
9.4929045e-07
1.049329e-06
8.2488415e-07
1.2908552e-06
1.0525156e-06
9.1398721e-07
7.2277092e-07
7.2564781e-07
8.5626842e-07
9.6746437e-07
1.3418624e-06
9.254484e-07
7.3406451e-07
7.6584199e-07
7.2437091e-07
7.1979939e-07
1.031542e-06
1.0486148e-06
1.086677e-06
1.1260529e-06
1.1348432e-06
1.1119718e-06
1.074288e-06
1.0324667e-06
9.9521483e-07
9.7173202e-07
9.6792424e-07
9.79617e-07
9.9494022e-07
1.0101893e-06
1.0226597e-06
1.0263591e-06
1.0278263e-06
1.0231462e-06
1.027167e-06
1.0388883e-06
1.0592297e-06
1.0815824e-06
1.1071911e-06
1.1375734e-06
1.1826419e-06
1.2142609e-06
1.2360716e-06
1.2705402e-06
1.2966931e-06
1.3328807e-06
1.3732513e-06
1.4246283e-06
9.4281394e-07
1.4870764e-06
1.5269969e-06
1.5732883e-06
1.0955133e-06
1.264041e-06
1.6431366e-06
1.6719433e-06
1.1795207e-06
1.1666239e-06
1.7920458e-06
1.8064426e-06
1.8263801e-06
9.2825474e-07
9.5885894e-07
1.863557e-06
1.8757214e-06
1.8827859e-06
1.8526533e-06
9.4368308e-07
1.0164919e-06
1.5412332e-06
1.4065336e-06
1.0295276e-06
1.0430148e-06
1.0733387e-06
1.1012755e-06
1.1030082e-06
1.0759989e-06
1.0399445e-06
1.0034032e-06
9.7194662e-07
9.5617432e-07
9.5725608e-07
9.7159032e-07
9.9570654e-07
1.0259495e-06
1.0672461e-06
1.1144496e-06
1.1691836e-06
1.1974367e-06
1.2551573e-06
1.2990646e-06
1.3682412e-06
1.4096185e-06
1.4734672e-06
1.5422274e-06
1.6431485e-06
1.7130674e-06
1.7659218e-06
1.848593e-06
1.9131634e-06
1.9832829e-06
2.0731952e-06
2.1712413e-06
1.5648647e-06
1.9870021e-06
2.3666654e-06
2.4548955e-06
1.7950293e-06
2.0011212e-06
2.600261e-06
2.6356821e-06
1.911332e-06
1.7972419e-06
2.7878229e-06
2.8135576e-06
2.8480359e-06
1.7471554e-06
1.5545709e-06
2.9127631e-06
2.9364772e-06
2.9557525e-06
2.9773191e-06
1.8274303e-06
1.6606157e-06
2.4047691e-06
2.94687e-06
1.0203841e-06
1.0233225e-06
1.0339477e-06
1.05309e-06
1.0658237e-06
1.056803e-06
1.0464013e-06
1.0392164e-06
1.033565e-06
1.0558754e-06
1.0879377e-06
1.1168979e-06
1.1737596e-06
1.2355565e-06
1.3692366e-06
1.4599367e-06
1.6027041e-06
1.6767264e-06
1.8123481e-06
1.9013537e-06
2.0187547e-06
2.0957017e-06
2.1878061e-06
2.306518e-06
2.44888e-06
2.4855407e-06
2.6473929e-06
2.7720254e-06
2.9053505e-06
3.0045547e-06
3.1360018e-06
3.2636732e-06
2.8906724e-06
3.1688912e-06
3.5758825e-06
3.7002232e-06
3.1193683e-06
3.2924923e-06
3.9601636e-06
4.0043754e-06
3.3470691e-06
2.9954029e-06
4.1777241e-06
4.2023318e-06
4.2482305e-06
3.2799438e-06
2.7620566e-06
3.6220613e-06
4.3712301e-06
4.3987362e-06
4.4272799e-06
3.4713269e-06
2.9786809e-06
3.5316765e-06
4.4800364e-06
9.989168e-07
9.9363837e-07
9.9101562e-07
1.0406599e-06
1.1324602e-06
1.2092345e-06
1.2830145e-06
1.3290844e-06
1.3809194e-06
1.4424304e-06
1.5235735e-06
1.5857304e-06
1.7061619e-06
1.7808598e-06
1.9113924e-06
1.9993711e-06
2.1600309e-06
2.2225504e-06
2.3564525e-06
2.4585207e-06
2.5651265e-06
2.685014e-06
2.7725105e-06
2.958602e-06
3.0997009e-06
3.2234948e-06
3.4168706e-06
3.6872667e-06
3.8068224e-06
3.9929029e-06
4.1897181e-06
4.3200643e-06
4.2990971e-06
4.5784883e-06
4.7588392e-06
4.9255722e-06
4.8027903e-06
4.8131707e-06
5.3201365e-06
5.406124e-06
5.0016693e-06
4.4445766e-06
5.2936543e-06
5.7101502e-06
5.7690885e-06
4.8706878e-06
4.2089469e-06
4.5994197e-06
5.9348745e-06
5.978144e-06
6.0013935e-06
4.9986153e-06
4.2614474e-06
4.63021e-06
5.6885231e-06
9.6077577e-07
9.8526297e-07
1.018902e-06
1.1231042e-06
1.3671764e-06
1.6233602e-06
1.787489e-06
1.8186085e-06
1.8599041e-06
1.8954311e-06
1.9349102e-06
1.9636007e-06
2.0219157e-06
2.0710507e-06
2.1674815e-06
2.2628317e-06
2.3874605e-06
2.4642228e-06
2.5499097e-06
2.632927e-06
2.7076563e-06
2.7944174e-06
2.857573e-06
2.9572681e-06
3.0331021e-06
3.1013898e-06
3.2142532e-06
3.3613425e-06
3.4254896e-06
3.5035676e-06
3.7320496e-06
3.7667494e-06
3.6662971e-06
3.729987e-06
4.0430367e-06
4.1387029e-06
4.0806425e-06
4.063443e-06
4.3203733e-06
4.394223e-06
4.4335744e-06
4.1984782e-06
4.4899177e-06
4.5973623e-06
4.6200374e-06
4.3741012e-06
3.9287829e-06
3.8558434e-06
4.3148934e-06
4.6401178e-06
4.6233345e-06
4.2598258e-06
3.7732005e-06
3.8038325e-06
4.1571368e-06
7.1335306e-07
8.494247e-07
9.7443572e-07
1.1322458e-06
1.3768602e-06
1.5303794e-06
1.6115336e-06
1.6382716e-06
1.6404139e-06
1.634016e-06
1.6332503e-06
1.6351895e-06
1.6387861e-06
1.642463e-06
1.6487689e-06
1.6672307e-06
1.6951198e-06
1.7116186e-06
1.7240621e-06
1.7298492e-06
1.7309564e-06
1.7341772e-06
1.7366103e-06
1.7437739e-06
1.7512498e-06
1.7489585e-06
1.7549805e-06
1.776375e-06
1.7797613e-06
1.7786275e-06
1.8150807e-06
1.8234415e-06
1.8017439e-06
1.7984974e-06
1.8235395e-06
1.8379005e-06
1.8272598e-06
1.8129878e-06
1.8233858e-06
1.8360655e-06
1.8283506e-06
1.8141783e-06
1.823641e-06
1.8457505e-06
1.8504916e-06
1.827029e-06
1.7996039e-06
1.7931254e-06
1.8120126e-06
1.827876e-06
1.8168831e-06
1.795451e-06
1.7665337e-06
1.7558965e-06
1.8328125e-06
7.4016747e-07
1.0566337e-06
8.3011597e-07
6.7195437e-07
5.7336196e-07
4.9519109e-07
4.6439617e-07
4.6839268e-07
4.81839e-07
4.9802912e-07
5.0499238e-07
5.0704611e-07
5.0729642e-07
5.0755456e-07
5.1297547e-07
5.2592777e-07
5.4458122e-07
5.5779402e-07
5.6162764e-07
5.589477e-07
5.5460469e-07
5.5125632e-07
5.5008944e-07
5.47517e-07
5.4789189e-07
5.4873434e-07
5.5060443e-07
5.5817713e-07
5.670073e-07
5.7437059e-07
5.8783874e-07
5.980283e-07
5.959314e-07
5.8323342e-07
5.7655839e-07
5.7296071e-07
5.636102e-07
5.4935804e-07
5.3886629e-07
5.3236504e-07
5.2100761e-07
5.049285e-07
4.9272691e-07
4.8847606e-07
4.8073875e-07
4.6513641e-07
4.4543447e-07
4.2849368e-07
4.1941881e-07
4.123512e-07
4.0126394e-07
3.8459574e-07
3.6497783e-07
3.4589482e-07
3.3373085e-07
3.1431285e-07
1.7190419e-06
4.6325625e-06
6.1923956e-06
4.6877863e-06
3.0871959e-06
1.6142829e-06
1.0127796e-06
8.4690629e-07
8.5401069e-07
1.2612875e-06
2.0517732e-06
2.2470458e-06
2.2918382e-06
2.2848075e-06
2.257293e-06
2.2684188e-06
2.3934223e-06
2.587125e-06
2.8266192e-06
2.9855466e-06
3.3730439e-06
4.0163314e-06
4.5589394e-06
4.4926427e-06
4.6638928e-06
5.0020539e-06
2.7808097e-07
1.5782793e-06
4.4574194e-06
6.1761788e-06
4.8957864e-06
3.3686762e-06
2.01016e-06
8.402934e-07
6.5393995e-07
8.6970047e-07
1.7659216e-06
2.1690989e-06
2.3797163e-06
2.4703572e-06
2.4438848e-06
2.3996348e-06
2.3976271e-06
2.4984061e-06
2.6471454e-06
3.039682e-06
3.2161149e-06
3.5501225e-06
4.2027353e-06
4.8028046e-06
5.0500443e-06
5.1470934e-06
5.3013686e-06
2.3247455e-07
1.3863652e-06
4.0654602e-06
4.5869781e-06
3.2332882e-06
1.7443162e-06
8.6231951e-07
5.7996209e-07
7.5638301e-07
1.5005561e-06
1.7882733e-06
2.19842e-06
2.4297842e-06
2.5805914e-06
2.6818918e-06
2.6431666e-06
2.6283115e-06
2.7152908e-06
2.7975761e-06
3.1881507e-06
3.4700155e-06
3.7755844e-06
4.3990143e-06
5.0101048e-06
5.5202955e-06
5.9034516e-06
5.9839307e-06
1.863964e-07
1.1911152e-06
3.4105372e-06
3.8868259e-06
2.9003099e-06
1.7653637e-06
1.0936989e-06
9.12256e-07
8.7485842e-07
8.4586469e-07
1.1599023e-06
2.1874934e-06
2.4424214e-06
2.59881e-06
2.7729244e-06
2.8498708e-06
2.8641701e-06
2.9929449e-06
3.2396477e-06
3.4425962e-06
3.6242551e-06
3.9125928e-06
4.5153554e-06
5.5531582e-06
5.7521567e-06
6.0743845e-06
6.4081943e-06
1.5028302e-07
1.0610721e-06
3.3832227e-06
4.6773149e-06
4.5646244e-06
4.0378893e-06
2.6996588e-06
1.4902723e-06
8.4743157e-07
1.0140144e-06
1.8569051e-06
2.2670203e-06
2.5493354e-06
2.7185682e-06
2.8560389e-06
2.9576531e-06
3.0044069e-06
3.1781995e-06
3.5562382e-06
3.8342778e-06
3.8281772e-06
4.0906357e-06
4.7029851e-06
5.9890233e-06
6.4551231e-06
6.4366908e-06
6.6727031e-06
1.2860525e-07
9.683543e-07
3.6902359e-06
5.7888972e-06
5.7922524e-06
4.2916333e-06
1.8508895e-06
8.41882e-07
7.3303234e-07
1.0007329e-06
1.3654306e-06
2.2350764e-06
2.6483479e-06
2.9456252e-06
2.969991e-06
3.0017004e-06
3.0385923e-06
3.2140431e-06
3.6234226e-06
4.2650823e-06
4.4914413e-06
4.7747415e-06
5.3292489e-06
6.8903949e-06
7.2012576e-06
7.0088109e-06
7.1896528e-06
1.1242642e-07
8.6000481e-07
3.5100156e-06
5.6087789e-06
5.9294867e-06
4.4709398e-06
3.0706412e-06
2.0273463e-06
1.0967327e-06
9.5626774e-07
1.1823682e-06
2.0344611e-06
2.7484945e-06
3.4216496e-06
3.4636513e-06
3.2192457e-06
3.1036809e-06
3.2159697e-06
3.5855028e-06
4.5027804e-06
5.0343801e-06
5.3187491e-06
5.8571298e-06
7.5375694e-06
7.8058021e-06
7.9613969e-06
8.3319144e-06
9.3284531e-08
7.14681e-07
3.1944794e-06
4.6126321e-06
4.48144e-06
3.1296264e-06
1.9547696e-06
1.3314012e-06
1.2625488e-06
1.7550373e-06
2.0795735e-06
2.6135366e-06
3.2933361e-06
3.6522399e-06
3.8491032e-06
3.6753396e-06
3.4619262e-06
3.4636269e-06
3.7138577e-06
4.5722894e-06
5.3070722e-06
5.7290321e-06
6.2931819e-06
7.4048539e-06
8.8790127e-06
9.5232753e-06
9.2909382e-06
7.3793451e-08
5.8797818e-07
2.7040492e-06
3.7560073e-06
3.7103942e-06
2.6656676e-06
1.7169478e-06
1.1752953e-06
1.0809587e-06
1.1630652e-06
1.5224112e-06
2.2246736e-06
2.514714e-06
2.8531955e-06
3.4338018e-06
4.5927102e-06
4.4470643e-06
4.3009112e-06
4.3525802e-06
4.9398658e-06
6.1067434e-06
6.1106762e-06
6.3937076e-06
7.284741e-06
9.6083558e-06
1.1068551e-05
1.1500167e-05
5.7071704e-08
4.9091363e-07
2.5491888e-06
4.1403403e-06
4.7286307e-06
4.0837351e-06
3.2791119e-06
2.7734831e-06
2.1639368e-06
2.1431933e-06
1.7565037e-06
1.8001915e-06
1.9093042e-06
2.3983423e-06
3.4653243e-06
5.1162013e-06
5.227085e-06
5.3837348e-06
5.6631625e-06
5.9265213e-06
6.9862709e-06
6.9596261e-06
7.0799559e-06
8.0210144e-06
1.0160976e-05
1.2214775e-05
1.2812235e-05
4.6222496e-08
4.250472e-07
2.4482305e-06
4.602577e-06
5.9755974e-06
5.3352593e-06
3.9891697e-06
2.8571167e-06
1.6325248e-06
1.2659866e-06
1.2572644e-06
1.619543e-06
2.317133e-06
4.2600637e-06
4.8333175e-06
5.3928292e-06
4.7872576e-06
4.7745245e-06
6.4664305e-06
7.0834752e-06
7.4764173e-06
7.7038072e-06
8.3279739e-06
1.0075973e-05
1.2185069e-05
1.304883e-05
1.1366224e-05
4.1839107e-08
3.7179529e-07
2.288693e-06
4.4503538e-06
5.8801381e-06
5.5573459e-06
4.2280352e-06
2.0662487e-06
1.2190455e-06
1.1188351e-06
1.2957639e-06
1.8031958e-06
2.9102717e-06
4.3210909e-06
4.323962e-06
4.2549797e-06
5.2895392e-06
6.3605207e-06
6.6960716e-06
7.1069966e-06
8.184421e-06
8.3723265e-06
9.0527074e-06
1.1338706e-05
1.5463338e-05
1.5447444e-05
1.0027939e-05
4.1108456e-08
3.1893159e-07
2.0790835e-06
4.225761e-06
5.7181127e-06
5.7216384e-06
3.5331019e-06
1.8602721e-06
1.4733877e-06
1.7242022e-06
2.7038908e-06
3.2218473e-06
3.5992704e-06
3.1952463e-06
3.7006277e-06
4.7806963e-06
7.2517053e-06
7.0151395e-06
5.5980211e-06
6.9107749e-06
9.183274e-06
8.9994379e-06
9.5780902e-06
1.1697855e-05
1.7447132e-05
1.8433425e-05
1.5180813e-05
4.0840353e-08
2.6589465e-07
1.8380371e-06
3.9045126e-06
5.358979e-06
5.0814554e-06
3.5141902e-06
2.7563759e-06
3.0565293e-06
3.0346565e-06
3.2264145e-06
2.4172414e-06
2.2574069e-06
3.1531281e-06
6.8489134e-06
8.3653655e-06
8.3658179e-06
5.3094124e-06
5.5672684e-06
8.2475007e-06
1.071353e-05
1.122942e-05
1.1463167e-05
1.2861674e-05
1.7888745e-05
1.7977099e-05
1.9398609e-05
3.7608437e-08
2.1144945e-07
1.5395237e-06
3.0728175e-06
3.7632391e-06
4.1447924e-06
4.2360612e-06
3.9852491e-06
3.3650056e-06
2.4046294e-06
1.8157573e-06
1.8038295e-06
2.9077598e-06
5.7676582e-06
7.5560177e-06
7.3448085e-06
5.8202334e-06
6.3836148e-06
9.0344121e-06
9.7711434e-06
1.0403482e-05
1.1432686e-05
1.4080093e-05
1.4617786e-05
1.7579281e-05
2.1038443e-05
2.2640516e-05
3.3129646e-08
1.6334241e-07
1.2192598e-06
2.2234248e-06
2.7780465e-06
2.7828356e-06
2.1823164e-06
1.7355845e-06
1.60613e-06
1.6319863e-06
1.8891756e-06
3.2393147e-06
4.4617523e-06
5.1416871e-06
4.6409256e-06
5.227965e-06
7.3117252e-06
9.2845147e-06
9.6261381e-06
1.059872e-05
1.2072252e-05
1.6227167e-05
1.6063441e-05
1.4312984e-05
1.7744613e-05
2.2173618e-05
2.379433e-05
3.7061158e-08
1.3233166e-07
9.7838099e-07
1.7050284e-06
2.0387515e-06
1.987592e-06
1.6986565e-06
1.5671375e-06
1.7424322e-06
2.1238982e-06
2.349664e-06
2.2008777e-06
2.1468442e-06
2.7148135e-06
4.4377868e-06
8.166173e-06
9.8020314e-06
9.8885107e-06
8.996817e-06
9.2620238e-06
1.3637138e-05
1.7817277e-05
1.8669907e-05
1.7923038e-05
1.9589795e-05
1.9561792e-05
1.8890487e-05
4.8093002e-08
1.1705953e-07
6.8925775e-07
1.372585e-06
1.8368959e-06
2.2837375e-06
2.6855498e-06
3.4061974e-06
3.8031919e-06
2.7354999e-06
1.8684861e-06
1.5932602e-06
1.8337477e-06
2.7390619e-06
5.5364923e-06
9.5178179e-06
1.0078839e-05
8.086326e-06
8.3849486e-06
1.2242062e-05
1.4094381e-05
1.7612916e-05
1.7762613e-05
2.0749373e-05
2.3637318e-05
2.0564954e-05
2.2281912e-05
6.1686243e-08
1.1765555e-07
6.2780606e-07
1.8915858e-06
3.6948994e-06
5.0847568e-06
5.4814931e-06
4.8912358e-06
3.1535158e-06
2.4422364e-06
2.0193023e-06
2.1840201e-06
3.7425611e-06
5.7435094e-06
7.3318615e-06
6.8507058e-06
6.8817325e-06
8.2044112e-06
1.3353948e-05
1.4020014e-05
1.3599956e-05
1.4903247e-05
2.046122e-05
2.2518673e-05
2.7452532e-05
3.3076036e-05
3.852014e-05
6.6028318e-08
1.2370206e-07
8.3058177e-07
2.5913475e-06
3.3213823e-06
3.0731643e-06
2.5813824e-06
2.2498312e-06
2.1852295e-06
2.3297911e-06
2.8267189e-06
4.4560492e-06
4.8371051e-06
5.0985514e-06
5.4768899e-06
6.704011e-06
9.7902944e-06
1.5130564e-05
1.3962911e-05
1.0131536e-05
1.126266e-05
2.0480118e-05
2.2647112e-05
2.5579298e-05
3.1694166e-05
4.4593066e-05
4.4092178e-05
6.9929925e-08
1.1274336e-07
7.0120137e-07
2.415972e-06
3.9952632e-06
3.8456143e-06
3.0388122e-06
2.5405242e-06
2.3454191e-06
2.1698507e-06
1.9736558e-06
1.99883e-06
2.1773448e-06
2.8431089e-06
5.0777497e-06
1.126693e-05
1.5722989e-05
1.6255293e-05
1.1275037e-05
1.0515912e-05
1.6232093e-05
2.224133e-05
2.5573797e-05
2.7566125e-05
3.7020659e-05
4.8950155e-05
3.2561773e-05
6.3183024e-08
9.3679813e-08
4.4123244e-07
1.3091225e-06
2.1339873e-06
3.3527295e-06
5.2608988e-06
5.8224577e-06
5.6868126e-06
3.5679913e-06
2.1781289e-06
1.7447785e-06
1.9388054e-06
2.9776067e-06
6.7434873e-06
1.269425e-05
1.2605539e-05
1.1631119e-05
1.2127902e-05
1.8550427e-05
2.0623197e-05
2.546947e-05
2.430854e-05
3.5467328e-05
4.0656749e-05
4.4266217e-05
3.7461694e-05
5.6685245e-08
7.7164261e-08
3.4586742e-07
9.709536e-07
1.6864398e-06
2.4963828e-06
2.6420668e-06
2.627068e-06
2.670077e-06
2.7473142e-06
2.8790026e-06
3.721909e-06
5.7864354e-06
7.2836666e-06
7.3057111e-06
8.2873559e-06
9.3284741e-06