/*--------------------------------*- C++ -*----------------------------------*\
| =========                 |                                                 |
| \\      /  F ield         | OpenFOAM: The Open Source CFD Toolbox           |
|  \\    /   O peration     | Version:  2406                                  |
|   \\  /    A nd           | Website:  www.openfoam.com                      |
|    \\/     M anipulation  |                                                 |
\*---------------------------------------------------------------------------*/
FoamFile
{
    version     2.0;
    format      ascii;
    arch        "LSB;label=32;scalar=64";
    class       volScalarField;
    location    "34";
    object      omega_0;
}
// * * * * * * * * * * * * * * * * * * * * * * * * * * * * * * * * * * * * * //

dimensions      [0 0 -1 0 0 0 0];

internalField   nonuniform List<scalar> 
62344
(
4.3628149
3.3824521
2.7310086
2.2724297
1.9432872
1.704056
1.5296703
1.3946388
1.2874643
1.2003628
1.1253501
1.0590895
1.0035104
0.95426958
0.90907828
0.87072212
0.83836929
0.80876079
0.78123702
0.7579033
0.73849356
0.72113614
0.70498631
0.69001612
0.67563912
0.66260501
0.64977955
0.63876903
0.6298483
0.62414532
0.61910528
0.61664381
0.61215031
0.60484777
0.60447569
0.60602971
0.61312001
0.62934258
0.64201355
0.66465306
0.68216914
0.70601519
0.7367964
0.77806255
0.81882629
0.85656308
0.89562866
0.92359491
0.96214313
1.0003188
1.050611
1.0761142
1.1123272
1.1450869
1.2042694
4.3666444
3.3956114
2.7447034
2.2840061
1.9527666
1.7109736
1.5352577
1.3996481
1.2929659
1.2062708
1.1317344
1.0655352
1.0092754
0.95974724
0.91457031
0.87537874
0.84321463
0.81366346
0.78612184
0.76255024
0.74278578
0.72531229
0.70905374
0.69352413
0.67897806
0.66585858
0.65313576
0.64193608
0.63128576
0.6241793
0.6181286
0.61440929
0.61084374
0.6049333
0.59824774
0.59779785
0.60253335
0.61248687
0.62511322
0.64754573
0.66928577
0.69927045
0.72826238
0.76389329
0.80016004
0.84728652
0.88599796
0.93272856
0.97602645
1.021472
1.0651516
1.108859
1.1451749
1.1862307
1.2161965
4.3716252
3.4020324
2.7514126
2.2900534
1.9582229
1.7158535
1.5399921
1.4045047
1.2973089
1.2110417
1.1364091
1.0696317
1.0132331
0.96377488
0.91903075
0.87929158
0.84691994
0.81718986
0.78907082
0.76533979
0.7455979
0.72764935
0.71146018
0.69572723
0.6812777
0.66815524
0.65602294
0.64520682
0.63433197
0.62604006
0.61941332
0.61568121
0.61254173
0.60871893
0.60077845
0.59717304
0.59952206
0.60360295
0.61123057
0.62744701
0.64234249
0.67435636
0.69539664
0.7304924
0.75495834
0.80577855
0.84938913
0.91488828
0.9631804
1.012707
1.0535272
1.1015885
1.1402932
1.1862349
1.234213
4.3767526
3.4096951
2.7594068
2.2974484
1.9644178
1.7215262
1.5452286
1.4099333
1.3012977
1.2157164
1.1414125
1.0747463
1.0176209
0.96803219
0.9232453
0.88386426
0.85028729
0.82102011
0.79367076
0.76950558
0.7486772
0.73009487
0.7140772
0.69904336
0.68501319
0.6716581
0.65908248
0.64811684
0.63771825
0.62849118
0.62056883
0.61616813
0.61279297
0.61111933
0.60731384
0.60018099
0.60013333
0.60162364
0.60534015
0.61560763
0.62741919
0.65233956
0.66751943
0.69697888
0.71613513
0.75565575
0.78492811
0.84915818
0.90012505
0.96818519
1.020572
1.0810139
1.1323103
1.1832921
1.2353957
4.380734
3.4180443
2.7685558
2.3063167
1.9724672
1.7283986
1.5508323
1.414021
1.3051985
1.2194788
1.1452798
1.0794708
1.0209354
0.9706065
0.92641171
0.88706045
0.85240851
0.82287495
0.79612197
0.77202431
0.75164633
0.73369208
0.71750819
0.70237562
0.68822082
0.67447289
0.66180738
0.65089823
0.64118148
0.6320187
0.62334807
0.61754214
0.61370951
0.61200126
0.60980783
0.60624508
0.60250595
0.60287188
0.60456577
0.61047592
0.62083637
0.64015082
0.65619672
0.67717321
0.69774577
0.72257239
0.7514708
0.77911421
0.82593349
0.86356125
0.93010166
0.98068736
1.0592381
1.1033871
1.1857575
4.3845787
3.4254817
2.7776454
2.3154311
1.9804254
1.7349865
1.5561708
1.4187146
1.3097621
1.223497
1.1494636
1.082967
1.0248371
0.97525338
0.93065354
0.89083465
0.85631913
0.82611885
0.79949018
0.77531656
0.7550154
0.73697393
0.72002584
0.70403131
0.68978511
0.67658791
0.6647707
0.65395907
0.64456338
0.63529173
0.62642055
0.61925118
0.61418039
0.61180877
0.6096305
0.60825812
0.60537956
0.60431634
0.60525107
0.60852577
0.61903868
0.63185538
0.65312675
0.66666653
0.69208359
0.70973601
0.74242005
0.761075
0.79667722
0.82027921
0.87173609
0.90423967
0.97040857
1.007475
1.0789948
4.3891741
3.4304455
2.7828968
2.3205023
1.9850387
1.7393735
1.55974
1.4230183
1.3137453
1.2263048
1.1524639
1.0867573
1.0289288
0.97943986
0.93404993
0.89387852
0.86039639
0.82964641
0.8021516
0.77824578
0.75769954
0.73943063
0.72264474
0.70654107
0.6920919
0.67892376
0.66746309
0.65669607
0.64752289
0.63839276
0.62969353
0.62178936
0.61587247
0.61297907
0.61097826
0.61072218
0.60985823
0.60735503
0.60781915
0.60973259
0.61699417
0.62689417
0.646262
0.6585401
0.68364791
0.70013596
0.73267898
0.7513066
0.78415888
0.80277113
0.84215258
0.86688002
0.91965181
0.95118623
1.0090463
4.3926375
3.4376151
2.7912728
2.3292447
1.9925041
1.7466664
1.5654092
1.4277917
1.3179126
1.2297505
1.1563648
1.0917449
1.0334695
0.98165932
0.93695529
0.89832755
0.86375456
0.83256971
0.80580599
0.78200226
0.76070316
0.74250836
0.72669354
0.71119135
0.69668141
0.68273633
0.67027635
0.65876439
0.64928916
0.64033023
0.63235751
0.62474462
0.61882682
0.61552971
0.61368406
0.61396643
0.61422461
0.61153341
0.61114143
0.61249789
0.61707733
0.6235025
0.63781543
0.64904281
0.67139991
0.68673506
0.71585443
0.7336197
0.76641921
0.78437118
0.82185896
0.84500518
0.89268196
0.91972302
0.97068979
4.3953413
3.4446872
2.8000073
2.3388526
2.001128
1.754135
1.5715209
1.4326337
1.3221769
1.2342401
1.1608756
1.0957774
1.0373348
0.98470668
0.94011193
0.90200676
0.8663854
0.83419041
0.80782337
0.78428361
0.76255978
0.74415103
0.72853123
0.71313006
0.69852321
0.68464394
0.67234362
0.66085055
0.65078466
0.64185078
0.6344175
0.62690839
0.62106369
0.61692135
0.61464035
0.61514487
0.61636479
0.61506079
0.6141785
0.61549366
0.61868168
0.62271958
0.63268464
0.64273288
0.66170628
0.6753717
0.70025918
0.7149156
0.74509555
0.7622294
0.79514779
0.81468846
0.85332448
0.8738993
0.9190036
4.3984606
3.4502351
2.8069078
2.3463315
2.0082888
1.7599262
1.5764557
1.4374641
1.3266706
1.2389424
1.1651664
1.099212
1.0408418
0.98896113
0.94410215
0.90507028
0.86922658
0.83680327
0.80976623
0.78648709
0.76477344
0.74590389
0.72999797
0.71444427
0.69940397
0.68598651
0.67492679
0.66457763
0.65411059
0.64492678
0.63717431
0.6296968
0.62351039
0.61839123
0.61550219
0.61581837
0.61728304
0.61668725
0.61614739
0.61757147
0.62082722
0.62372657
0.63070744
0.63861052
0.65537701
0.66792714
0.68903982
0.70099553
0.72648046
0.74285021
0.77327999
0.79159833
0.82528586
0.84190246
0.87792954
4.4017745
3.4555294
2.8131426
2.3525372
2.0140279
1.7651864
1.5807799
1.4419727
1.3312808
1.2426683
1.1685121
1.1031567
1.0448426
0.99409063
0.94850611
0.90823817
0.87275624
0.84140503
0.81358337
0.78928125
0.7674183
0.7484997
0.73211796
0.71679103
0.70165043
0.68802598
0.67760941
0.66883732
0.6588676
0.64958739
0.64130664
0.63376408
0.62687201
0.62098697
0.61762805
0.61764428
0.61901834
0.6190255
0.61876789
0.62025783
0.62395343
0.62689178
0.63218779
0.63841712
0.65354005
0.66561097
0.68500832
0.69616419
0.71847172
0.73212205
0.75981349
0.77852333
0.80395595
0.82023341
0.84451611
4.4043068
3.4621191
2.8212395
2.3609559
2.0209521
1.7724953
1.586627
1.446543
1.3362796
1.2460591
1.1716226
1.1083232
1.0500151
0.99856977
0.95259648
0.912299
0.87677432
0.84574907
0.81853788
0.79367294
0.77151212
0.75253746
0.73618144
0.72117265
0.70656169
0.69275768
0.6811018
0.67170777
0.66183404
0.65235112
0.64407477
0.63687385
0.62990164
0.62353688
0.6197276
0.61978587
0.62136757
0.62240789
0.62340066
0.62562816
0.6302017
0.6338792
0.63839013
0.64359512
0.65591481
0.66766139
0.68739887
0.69915101
0.71879659
0.73593274
0.75934575
0.77970831
0.80099178
0.82353884
0.83989387
4.4059513
3.4696429
2.8307243
2.3713
2.0300096
1.7807026
1.5935539
1.4519793
1.3409631
1.250422
1.1756373
1.1126905
1.0547237
1.002177
0.95570242
0.91614629
0.88033766
0.84845393
0.8210391
0.79658153
0.77467639
0.75551073
0.73899208
0.72382323
0.70929693
0.6955158
0.68334428
0.67311729
0.66329197
0.65358874
0.64508974
0.63800322
0.63203017
0.62585986
0.62145444
0.62148013
0.62286456
0.62441073
0.62668502
0.63110319
0.63607196
0.64230805
0.6471242
0.65508999
0.66311823
0.67688847
0.69198252
0.70689581
0.72249127
0.74745052
0.76615988
0.78575444
0.80845286
0.83761971
0.85202758
4.4072758
3.4758372
2.8390826
2.3805967
2.0390516
1.7880346
1.5999837
1.4575108
1.3458313
1.2553769
1.1800382
1.1166707
1.0588405
1.0058164
0.9587947
0.91938801
0.88346183
0.85077995
0.82254564
0.79811197
0.77634377
0.75707088
0.74031461
0.72504332
0.71074229
0.69704279
0.68487509
0.67429602
0.66433735
0.6545462
0.64565427
0.63864961
0.63288503
0.62691791
0.62236866
0.62228249
0.62332775
0.62476846
0.62750512
0.63324428
0.63859902
0.64640404
0.65237111
0.66197121
0.66969338
0.6827375
0.69507157
0.70981558
0.72636025
0.74825271
0.76459232
0.78177219
0.80588346
0.83516947
0.85290603
4.4087859
3.4817261
2.8469328
2.3889088
2.0475397
1.7944841
1.6057196
1.4628415
1.3504895
1.2605376
1.1848954
1.120638
1.0628832
1.0097854
0.96241629
0.92248149
0.88669789
0.85369083
0.8245728
0.7996413
0.77760485
0.75835854
0.74149462
0.72588264
0.71167486
0.69804459
0.68628096
0.67596763
0.66630044
0.65648982
0.64729173
0.64041973
0.63429218
0.62825583
0.62356135
0.62329613
0.62407665
0.62497533
0.62792517
0.63299689
0.63998768
0.6454584
0.65331166
0.66131385
0.67105937
0.68020276
0.69268594
0.70321576
0.72315305
0.74000613
0.7583913
0.77227704
0.79731129
0.82291255
0.8435159
4.4104414
3.4866376
2.8536801
2.3961445
2.0547217
1.8006183
1.6112895
1.4681247
1.3553099
1.2657948
1.1901735
1.1250947
1.0678682
1.0149757
0.96777655
0.92683363
0.89093853
0.85819255
0.82841858
0.80272445
0.78046318
0.76147019
0.7445592
0.72829349
0.71393866
0.70056893
0.68933257
0.67948683
0.67048066
0.66092711
0.65162517
0.64463367
0.63785849
0.63120514
0.62628292
0.62598981
0.62665559
0.62710529
0.6297441
0.6345987
0.64143264
0.64555026
0.65278951
0.65925086
0.67013899
0.67729179
0.68889819
0.69867232
0.71481513
0.73311997
0.74877584
0.76426952
0.78358791
0.80599335
0.82140997
4.4119167
3.4925629
2.8612771
2.4044591
2.061893
1.8076795
1.6176156
1.4735928
1.3609135
1.2711643
1.1957174
1.1307078
1.0743935
1.021552
0.97460076
0.93325026
0.89688291
0.86464162
0.83504598
0.80902288
0.78677973
0.7680872
0.75136927
0.7348746
0.72035062
0.70769308
0.69686613
0.687175
0.67886024
0.66981699
0.66090922
0.65343776
0.64623307
0.63877691
0.63351184
0.63316887
0.63388817
0.63415393
0.63631582
0.64124403
0.64740884
0.65098182
0.6564665
0.66281973
0.67243252
0.68024116
0.68951497
0.7004085
0.71222131
0.73334919
0.74750897
0.76651439
0.78306512
0.80542079
0.8167416
4.4130924
3.4978395
2.8681405
2.412839
2.0687911
1.8152251
1.6245892
1.4795579
1.3674874
1.2771232
1.2017594
1.1379178
1.082626
1.0296723
0.98261733
0.94163521
0.90481024
0.87253258
0.84394917
0.81892961
0.7970823
0.7784188
0.76205298
0.74656835
0.73274357
0.72112
0.71060006
0.70079464
0.69282495
0.68417605
0.67605582
0.66839085
0.66166933
0.65445327
0.6490406
0.64870066
0.64969151
0.65016608
0.65228171
0.65819553
0.6646526
0.67009141
0.67449194
0.68250348
0.69069602
0.70091939
0.70736206
0.71961719
0.72847677
0.74843526
0.76263457
0.7858772
0.79798763
0.82274653
0.83147179
4.4142307
3.5043693
2.8765298
2.4226432
2.0775196
1.8239918
1.632926
1.4873438
1.375747
1.2852273
1.210016
1.1477903
1.093776
1.0414869
0.99470124
0.95415953
0.91759091
0.88513856
0.85751367
0.83431485
0.81343228
0.79500568
0.77920816
0.76490664
0.75221568
0.74151151
0.73144561
0.7222063
0.71517077
0.70768795
0.70048615
0.69387721
0.68802661
0.68151201
0.67699653
0.67729024
0.67873941
0.67987894
0.68247993
0.6900333
0.69821975
0.70836031
0.7149656
0.72697149
0.73705724
0.75201965
0.75954472
0.7724649
0.78073898
0.79934005
0.81343942
0.83796006
0.84942235
0.87420412
0.88131855
4.4150835
3.5097525
2.8843308
2.4321554
2.0881159
1.8350402
1.6448463
1.5003124
1.3899497
1.3004987
1.2263383
1.1655532
1.1131968
1.0627983
1.0176083
0.97774252
0.94178177
0.90981322
0.88375449
0.86281745
0.843383
0.82585623
0.81143989
0.7989363
0.78797589
0.779158
0.77050673
0.76339607
0.75869009
0.75433576
0.75049341
0.74712449
0.74391151
0.73946478
0.73679919
0.73764211
0.73969593
0.74178348
0.74482886
0.75334352
0.76291829
0.77736578
0.78680133
0.80194483
0.81343128
0.83150451
0.84154132
0.85606427
0.86465888
0.88369606
0.89600256
0.91836526
0.93017513
0.955166
0.9565293
4.417277
3.5176117
2.8961403
2.4477567
2.1081717
1.8579943
1.6709207
1.5288482
1.4202339
1.3317974
1.2591628
1.1988815
1.1479079
1.1005163
1.0592962
1.0213973
0.98878176
0.96106848
0.94100356
0.92775646
0.91387081
0.90052163
0.89175616
0.88750485
0.88506312
0.88426175
0.88418009
0.88458759
0.88743605
0.8911782
0.8982602
0.90917639
0.91898652
0.92477773
0.92741884
0.93421494
0.94252862
0.9507451
0.95572994
0.96604377
0.97938331
0.9978198
1.0086754
1.0241071
1.0375327
1.0581425
1.0721043
1.087627
1.0969069
1.1146611
1.1255858
1.1432343
1.1534518
1.1714329
1.154489
4.4230005
3.5316787
2.9210066
2.4846157
2.1560143
1.9111306
1.7262586
1.5838537
1.4760928
1.3898114
1.32273
1.2682493
1.2271712
1.194644
1.1682106
1.1446898
1.1332213
1.1326457
1.136088
1.147396
1.1632739
1.1756185
1.189711
1.216053
1.2419453
1.2674272
1.2852799
1.3042341
1.3290843
1.3504374
1.37676
1.4106639
1.445187
1.4671546
1.4787229
1.4983627
1.5225928
1.5429096
1.5521868
1.5643821
1.5844999
1.6044195
1.6140339
1.62249
1.6346568
1.6538727
1.6713457
1.6829224
1.6906587
1.7041986
1.7152343
1.7287424
1.7397036
1.7453969
1.6976385
4.4570169
3.5875381
2.9983214
2.573365
2.2592783
2.0337189
1.8740337
1.74776
1.6627877
1.6070407
1.5702786
1.5635022
1.5695651
1.5864778
1.6270524
1.669594
1.7262706
1.7778706
1.8400376
1.9053416
1.9652928
2.0228117
2.0695628
2.1339688
2.1918418
2.2553372
2.2994794
2.3352902
2.387756
2.4296338
2.4690164
2.5156208
2.5727868
2.6097726
2.6328727
2.6632048
2.7027376
2.7336497
2.7495421
2.765187
2.7907338
2.813819
2.8232525
2.8251666
2.8325198
2.8422879
2.855351
2.8623738
2.8647023
2.8687924
2.8805723
2.890445
2.902897
2.9084165
2.8400399
4.5266251
3.6945232
3.1840645
2.8453437
2.6574474
2.6073755
2.6084123
2.6216506
2.6450031
2.67917
2.7361443
2.8113897
2.9055521
3.0092432
3.127921
3.2445086
3.3645828
3.4701443
3.5678054
3.6684733
3.7621454
3.8573953
3.9282986
4.0058281
4.0702732
4.1491508
4.2092041
4.2526545
4.3078859
4.3559658
4.3893794
4.4248139
4.4679814
4.4977241
4.5102933
4.5341602
4.5634453
4.582336
4.5843709
4.5884617
4.6047484
4.6222934
4.6253833
4.6139566
4.607477
4.6050335
4.6094784
4.6097176
4.6048735
4.593094
4.5947516
4.5910829
4.6027973
4.606074
4.5207532
4.6268182
4.3404121
4.3915339
4.5294178
4.7929137
5.1626468
5.4757775
5.6882169
5.8147117
5.9080722
6.0051981
6.1192898
6.2404448
6.3673376
6.497968
6.6332651
6.7770289
6.9069047
7.042124
7.1872649
7.3403546
7.4912887
7.6042185
7.6985154
7.7668886
7.8419434
7.9087595
7.9565779
8.0057348
8.0470904
8.0763025
8.0974283
8.1191413
8.1284832
8.1240727
8.138647
8.1494309
8.15111
8.1361104
8.1221422
8.1185755
8.1155857
8.1075599
8.0863443
8.0674893
8.0548314
8.0466528
8.0363352
8.0269005
7.9988538
7.9742415
7.9293521
7.9190056
7.9041198
7.7597877
8.1321822
10.596412
11.747129
12.143878
12.656134
13.514021
14.043272
14.40623
14.588585
14.665205
14.72268
14.800009
14.885948
14.973342
15.057481
15.14615
15.228502
15.299023
15.361317
15.418462
15.495716
15.536567
15.587903
15.62737
15.674673
15.699182
15.746386
15.769072
15.808714
15.850062
15.87774
15.905465
15.959642
15.977124
15.969105
15.986482
16.033771
16.070578
16.05938
16.056643
16.078327
16.105776
16.096069
16.082268
16.063635
16.050016
16.059459
16.023359
15.976827
15.906058
15.866391
15.765717
15.709747
15.639092
15.222187
55.06113
55.301585
55.065927
54.864595
54.65812
54.461511
54.337208
54.310282
54.389595
54.54648
54.633678
54.671784
54.709867
54.737243
54.729671
54.695305
54.689091
54.813339
54.969027
55.061258
55.126128
55.133791
55.144428
55.198587
55.18553
55.201642
55.23126
55.160654
55.145609
55.194032
55.122171
55.145043
55.380281
55.638402
55.604988
55.495229
55.545858
55.733351
55.744997
55.626337
55.640533
55.816885
55.839658
55.630061
55.498169
55.634632
55.87737
55.9958
55.822446
55.540665
55.468142
55.608088
55.866455
56.030236
55.951025
57.403319
16.129395
8.0087331
4.6859836
2.9756285
1.804378
1.2174641
1.0046577
0.92244927
0.86723199
0.84584286
0.8467451
0.86367812
0.87194147
0.8738379
0.86469019
0.8685219
0.90233592
0.94152964
1.0082977
1.0412541
1.1102299
1.2207588
1.3037886
1.2942294
1.2802219
1.2792813
60.748569
17.057222
8.3368371
4.8996911
3.1451641
1.9423756
1.3061308
1.0595325
0.96820585
0.90413513
0.87671885
0.87358384
0.88804607
0.90421589
0.90850823
0.89902957
0.90198964
0.93731875
0.98287276
1.0489086
1.0868298
1.1488885
1.2630272
1.3450988
1.3758316
1.369828
1.3478053
64.951599
18.042471
8.715391
5.1618988
3.347564
2.1132378
1.418125
1.1301748
1.02478
0.94811011
0.90989217
0.90103171
0.91451012
0.93964751
0.94529565
0.93522254
0.9342845
0.97049064
1.020439
1.0989553
1.1310135
1.1866934
1.2969859
1.428562
1.444726
1.4417481
1.4388997
69.752041
19.016231
9.1159595
5.44941
3.5580965
2.2766789
1.5251047
1.2007823
1.0824491
0.99058213
0.94507613
0.9322197
0.945191
0.97115496
0.98672196
0.98572366
0.98314994
1.013175
1.0580716
1.1514967
1.1818729
1.2232917
1.3205984
1.4993617
1.5260797
1.5152432
1.5200597
74.168847
19.922034
9.5055379
5.705581
3.7418885
2.443102
1.6503092
1.2833383
1.1437268
1.0365034
0.97876077
0.9625653
0.97726748
1.015235
1.0458017
1.0457749
1.0350277
1.0590752
1.1074354
1.2132244
1.2560481
1.2953792
1.3814315
1.5783023
1.6036715
1.5992455
1.6097249
78.040609
20.752448
9.8595115
5.9358578
3.9021938
2.5834235
1.7622814
1.3647796
1.2119256
1.0889924
1.0193803
1.003404
1.0215199
1.0669499
1.1030646
1.1038995
1.0884449
1.1071502
1.1509822
1.2636003
1.3186796
1.3634765
1.4575507
1.6809666
1.7090835
1.701742
1.7088226
82.273761
21.563276
10.191696
6.1522575
4.0736915
2.7634427
1.9121007
1.4773678
1.3024481
1.1626408
1.078503
1.0590264
1.0776363
1.1283109
1.1693005
1.1716441
1.1526469
1.1675075
1.2092187
1.3211722
1.3795657
1.4179261
1.5131681
1.7506467
1.8154651
1.8232357
1.8502371
88.246698
22.609433
10.586581
6.4188972
4.2858496
2.960688
2.0745239
1.6022861
1.4084514
1.2538709
1.153934
1.1263966
1.1454827
1.1890189
1.2352928
1.2476543
1.2247338
1.2366648
1.2800365
1.3992602
1.4931985
1.510841
1.5830762
1.806092
1.9267906
1.9624146
2.0095794
95.231377
23.799326
11.019734
6.7100961
4.5278903
3.1834812
2.270543
1.7520247
1.5224809
1.3398163
1.2173358
1.1876926
1.2133675
1.2702419
1.3100775
1.3257442
1.2985908
1.3031309
1.342326
1.47103
1.5945692
1.5972178
1.6583867
1.8589557
2.0324948
2.0849097
2.1752937
101.92433
25.1473
11.520517
7.0329812
4.7740277
3.3930684
2.4618468
1.9124287
1.6519177
1.4384846
1.2871775
1.2493261
1.2782306
1.3461207
1.4046393
1.426397
1.4013885
1.3995346
1.441444
1.5720168
1.7111328
1.7092434
1.7585424
1.936938
2.1709205
2.2405663
2.3445952
107.95655
26.351179
11.974921
7.3053086
5.0089529
3.5902925
2.6399165
2.0544316
1.7739032
1.5506337
1.3818767
1.3248196
1.3531996
1.4304358
1.4855022
1.4967169
1.4734834
1.4712583
1.5081193
1.6221988
1.8036814
1.8099889
1.8551729
2.0222413
2.3700872
2.4083579
2.5127343
114.35096
27.406575
12.413507
7.6047027
5.2628584
3.8019297
2.844567
2.2378047
1.9435023
1.6895109
1.4926896
1.4217027
1.4546727
1.5541953
1.6421455
1.6463602
1.6095853
1.5651409
1.589305
1.6860539
1.8966745
1.9227281
1.9668025
2.1234761
2.503716
2.5950263
2.7098148
121.48972
28.691133
12.915328
7.892945
5.4945971
4.0125991
3.0758759
2.4716566
2.1364576
1.8429166
1.6162421
1.5313516
1.5660808
1.6889063
1.808679
1.823666
1.7858269
1.6954396
1.6964727
1.7612459
1.9547171
2.0334125
2.0825858
2.2372052
2.630849
2.790558
2.9496381
129.88938
30.17273
13.437238
8.2176896
5.8025667
4.3169568
3.3558916
2.7028677
2.3579061
2.0318249
1.7729916
1.6539282
1.6809751
1.8060091
1.9918512
2.0567414
2.0261988
1.9062375
1.8905764
1.9314455
2.0881189
2.2140043
2.2696524
2.4035133
2.7780174
2.9754363
3.2464613
139.91623
32.373136
14.068226
8.608065
6.1304032
4.644368
3.6408135
2.9774878
2.596751
2.2486957
1.9544122
1.8034321
1.8263315
1.9476634
2.1300564
2.2147884
2.2050548
2.0900463
2.0631066
2.0913186
2.2501071
2.4062807
2.4349781
2.5238344
2.8936124
3.2090069
3.5895535
152.04029
35.56176
14.944753
9.0903366
6.5088906
5.0055901
3.9651982
3.3019562
2.8834423
2.4992111
2.1472847
1.9647448
1.9799488
2.1274843
2.32077
2.4011347
2.390905
2.2506261
2.210767
2.2379845
2.3953508
2.6380611
2.6307225
2.6717599
2.9749023
3.363937
3.9020657
165.22927
39.04539
15.951542
9.6466114
6.9211484
5.4119162
4.3985978
3.7326899
3.2476974
2.7989052
2.3843364
2.149677
2.1466179
2.293316
2.5472678
2.648445
2.6295016
2.466532
2.3983788
2.4311077
2.5659391
2.8746162
2.9107437
2.927962
3.1327924
3.5612548
4.1983247
177.54155
41.86248
16.93963
10.198638
7.3615694
5.8811346
4.8703063
4.1506931
3.5909062
3.096766
2.6394697
2.3632594
2.3392188
2.461607
2.7717795
2.9253243
2.9313915
2.7878766
2.6776914
2.6847961
2.7556165
3.0324925
3.1342134
3.1834309
3.3956061
3.9400872
4.6129691
186.27685
43.760491
17.748568
10.63448
7.7057124
6.2226443
5.2238533
4.4908211
3.915205
3.393244
2.8817444
2.5872855
2.5543134
2.6732696
3.0425191
3.2723523
3.3294225
3.2473877
3.0871753
3.0503226
3.0795253
3.2994759
3.4205795
3.4792731
3.6941849
4.4049316
5.1829457
190.0299
45.10523
18.222907
10.889088
7.9739436
6.5101458
5.5518574
4.8537369
4.2512174
3.697103
3.1506042
2.8315153
2.7823729
2.9014509
3.3446479
3.6781555
3.7832527
3.7346115
3.5056533
3.4395919
3.4828511
3.6736064
3.7888678
3.864724
4.1072024
4.8796817
5.8116357
198.96068
47.163061
18.895955
11.319125
8.3990122
6.9740119
6.0781253
5.3710887
4.7654815
4.1612939
3.5096308
3.1374004
3.0727159
3.2070232
3.7153623
4.148207
4.2725981
4.1997693
3.9179789
3.8246379
3.8769243
4.0599327
4.2084946
4.3705928
4.6317704
5.3170325
6.2584434
215.30846
51.826935
20.537998
12.220127
9.0593833
7.5504048
6.6689005
6.004328
5.4006753
4.7898311
4.0843703
3.6142883
3.5110565
3.6439569
4.176587
4.64097
4.7598519
4.7110418
4.4438571
4.3212991
4.3546935
4.5308684
4.7516622
4.9734828
5.1531589
5.6837867
6.6581772
236.36357
59.309418
22.802159
13.304096
9.7693194
8.1462736
7.2556811
6.6271851
6.0482677
5.4409266
4.6882538
4.2051173
4.0853333
4.1807659
4.6976158
5.1971983
5.336285
5.2994069
5.0419984
4.8770291
4.9015354
5.1418038
5.4591088
5.6860406
5.7477068
6.1393236
7.067707
256.53946
66.287997
25.000414
14.351857
10.488567
8.7506266
7.8368215
7.2534178
6.7434432
6.2033672
5.4206948
4.8281468
4.6081537
4.6966824
5.2728555
5.8767307
6.0586919
6.009725
5.7383141
5.5384021
5.5792577
5.9027224
6.2409402
6.4279186
6.4665534
6.8039696
7.5832907
273.35038
71.032753
26.866296
15.359679
11.254235
9.4631956
8.5507493
7.9888155
7.4803442
6.9131148
6.0662814
5.4264658
5.1665364
5.2294117
5.7441515
6.4417276
6.7397058
6.7571284
6.5717973
6.3760269
6.4218234
6.7080536
6.9708079
7.1980972
7.3722489
7.6152551
8.2523388
282.28028
71.797993
27.85552
16.109282
11.986273
10.131904
9.1501308
8.5459732
8.0170894
7.4638402
6.6125893
6.0155828
5.7986299
5.8481957
6.274228
6.9590017
7.3088046
7.4365136
7.4266577
7.3638578
7.4057882
7.5263663
7.7107663
8.0104764
8.3150026
8.5165165
9.0744753
281.33402
70.121655
28.002353
16.432213
12.399902
10.53985
9.5349465
8.9550672
8.4945982
7.9675613
7.2080428
6.6883881
6.4912156
6.5280747
6.9111397
7.566581
7.9693337
8.1882981
8.2992906
8.3069203
8.2998224
8.3807079
8.5646069
8.8055725
9.1053056
9.3769971
9.93809
280.49194
68.320266
27.956861
16.744982
12.805913
10.980344
10.032036
9.4731286
9.0320639
8.5982464
7.9213645
7.4697061
7.2967088
7.3296592
7.6847359
8.2939968
8.7329258
9.0168795
9.1440898
9.1031569
9.0669343
9.2049501
9.4182531
9.5871049
9.8079043
10.182844
10.862204
291.68527
71.157848
29.288046
17.68698
13.584564
11.693701
10.71147
10.145676
9.7336095
9.3598911
8.7485231
8.2937129
8.1426338
8.1999188
8.5230155
9.1378406
9.5288591
9.7359392
9.8113707
9.8118864
9.8237904
9.9501238
10.175554
10.317849
10.553237
11.0088
11.872064
311.5949
81.573341
32.467561
19.313954
14.597392
12.482332
11.423572
10.892667
10.573495
10.314217
9.8863001
9.3891691
9.2023353
9.2373033
9.4659073
9.9684639
10.265151
10.34683
10.418878
10.493639
10.585306
10.655533
10.800381
11.024226
11.345284
11.928333
12.82203
334.60836
95.643958
36.875049
21.345931
15.718376
13.21664
11.999301
11.450936
11.259103
11.229645
11.142599
10.807397
10.604456
10.564251
10.605571
10.784149
10.914297
10.945958
11.028155
11.162202
11.255914
11.280147
11.431441
11.721071
12.1076
12.829782
13.637335
355.35177
106.02252
40.774857
23.25861
16.884857
13.985375
12.561627
11.963524
11.817194
11.921558
12.149658
12.20618
12.112243
11.979845
11.765832
11.601178
11.55905
11.561692
11.654523
11.776991
11.886366
11.952057
12.159138
12.427676
12.826521
13.524822
14.252226
370.92551
112.13602
43.802825
24.919706
17.908571
14.731652
13.172771
12.54368
12.469503
12.676727
13.069141
13.331085
13.35732
13.226581
12.927066
12.539561
12.308357
12.215886
12.253631
12.384872
12.563562
12.737942
12.985026
13.179571
13.492523
14.070757
14.839048
378.48384
113.2112
45.486626
25.98694
18.61725
15.243388
13.669539
13.114532
13.126235
13.391008
13.925135
14.298096
14.39227
14.240184
13.862977
13.384893
13.01747
12.847114
12.836139
13.012867
13.343178
13.683986
13.917487
13.972116
14.096304
14.619806
15.574834
375.20035
110.02893
45.697676
26.347453
18.891802
15.488358
13.922806
13.400837
13.410063
13.705639
14.413513
15.012991
15.268796
15.154766
14.620093
13.985094
13.492294
13.313454
13.334498
13.67592
14.294749
14.790391
14.88654
14.73552
14.662798
15.238729
16.398894
364.40058
105.06729
44.783469
26.154926
18.814577
15.384628
13.794551
13.291298
13.292624
13.74426
14.791364
15.623021
15.970395
15.90232
15.310325
14.46757
13.791264
13.589577
13.732937
14.319431
15.243718
15.8713
15.828443
15.408841
15.183567
15.853234
17.139733
352.64394
100.47475
43.538539
25.692974
18.440419
14.983885
13.476439
13.066481
13.14281
13.835432
15.181641
16.096239
16.501661
16.469631
15.895647
14.893122
14.077647
13.867175
14.11968
14.946184
16.134326
16.829726
16.61079
15.917264
15.619996
16.356043
17.650901
344.06442
97.260961
42.075638
24.949563
17.866872
14.552687
13.224785
12.918369
13.148373
14.122419
15.601026
16.501219
16.894404
16.850379
16.268138
15.17636
14.300609
14.103917
14.466758
15.488112
16.818776
17.472878
17.074162
16.2332
15.918528
16.655112
17.91583
336.12574
93.690334
40.619696
24.233448
17.46536
14.377848
13.201852
12.962024
13.334388
14.567226
16.13574
17.005044
17.391712
17.318929
16.718299
15.552068
14.606211
14.411311
14.83669
15.988084
17.354292
17.85594
17.308257
16.398942
16.06824
16.765033
17.991476
326.22422
91.01054
39.90356
24.04452
17.402847
14.459158
13.430471
13.272371
13.78362
15.180526
16.938992
17.803497
18.172404
18.052879
17.411576
16.155588
15.109268
14.89508
15.345977
16.500609
17.764628
18.10917
17.45849
16.490732
16.138158
16.758403
17.951136
314.11475
88.865558
39.935025
24.4787
17.899322
14.982457
13.971248
13.796719
14.267997
15.712882
17.78009
18.810446
19.225485
19.160491
18.503396
17.046794
15.790259
15.477136
15.911148
17.027613
18.169881
18.347823
17.636087
16.621755
16.229758
16.747295
17.880494
301.43826
86.542239
40.067799
25.162066
18.556045
15.536302
14.46851
14.274817
14.703891
16.132884
18.433842
19.717989
20.232223
20.222627
19.543964
17.872565
16.477556
16.131329
16.558385
17.632383
18.626382
18.688818
17.927974
16.856922
16.413464
16.784128
17.772455
290.87453
84.123514
39.86777
25.334907
18.812379
15.881379
14.855181
14.66836
15.11262
16.620941
19.061683
20.290085
20.774156
20.655272
19.820683
18.245446
17.04129
16.790085
17.209754
18.164109
18.954764
18.975909
18.281562
17.242422
16.733061
16.907883
17.698248
283.12389
81.378321
39.262192
25.293733
18.90708
16.109467
15.212427
15.084667
15.599082
17.18166
19.326563
20.369665
20.777041
20.606652
19.734812
18.325475
17.471095
17.359511
17.732927
18.454421
18.96313
18.953902
18.446521
17.579989
17.023325
17.023945
17.648612
278.32446
78.207833
37.719179
24.585223
18.663289
16.179426
15.528521
15.527456
16.217535
17.860252
19.443869
20.293542
20.626987
20.338252
19.390616
18.303987
17.778965
17.757362
18.01933
18.416491
18.738617
18.771336
18.45392
17.817011
17.244807
17.136609
17.636142
273.89674
74.87111
34.90676
22.767655
17.86569
16.107812
15.743113
15.942271
16.818061
18.358102
19.509741
20.112471
20.210682
19.625197
18.784485
18.213479
17.936621
17.904745
18.00379
18.194985
18.38663
18.465941
18.365536
17.95386
17.457782
17.302934
17.699404
267.46461
73.356644
32.664707
21.322581
17.322791
16.078539
15.875697
16.216311
17.246621
18.524665
19.370639
19.622613
19.336579
18.7637
18.338041
18.094958
17.943957
17.850334
17.818505
17.848602
17.972715
18.104592
18.162588
17.991526
17.654146
17.517334
17.874457
258.11818
73.297304
31.177448
20.430858
17.092702
16.099445
15.985267
16.33097
17.325509
18.343665
18.821758
18.845077
18.509562
18.114079
17.906394
17.837417
17.782838
17.63711
17.475552
17.380637
17.409332
17.604497
17.810484
17.868883
17.763324
17.740684
18.103813
245.083
73.964573
30.49373
19.885436
16.968103
16.183686
16.095843
16.35625
17.162871
17.78759
18.121377
18.203553
17.932615
17.611454
17.405891
17.347079
17.310801
17.170997
16.962387
16.839209
16.859096
17.084243
17.394052
17.60707
17.722938
17.83592
18.242095
228.38174
72.842964
30.14382
19.622314
16.825153
16.147518
16.080086
16.268787
16.822108
17.192484
17.46928
17.575558
17.365199
17.065391
16.847078
16.768048
16.771245
16.70579
16.577486
16.449644
16.433851
16.614774
16.917207
17.183746
17.425506
17.661421
18.178029
209.63007
68.204864
29.174438
19.21071
16.495389
15.934506
15.904195
16.045841
16.394396
16.606647
16.69325
16.657662
16.438557
16.212727
16.136424
16.180596
16.281077
16.315662
16.272397
16.156342
16.084508
16.182024