/*--------------------------------*- C++ -*----------------------------------*\
| =========                 |                                                 |
| \\      /  F ield         | OpenFOAM: The Open Source CFD Toolbox           |
|  \\    /   O peration     | Version:  2406                                  |
|   \\  /    A nd           | Website:  www.openfoam.com                      |
|    \\/     M anipulation  |                                                 |
\*---------------------------------------------------------------------------*/
FoamFile
{
    version     2.0;
    format      ascii;
    arch        "LSB;label=32;scalar=64";
    class       volScalarField;
    location    "34";
    object      p_0;
}
// * * * * * * * * * * * * * * * * * * * * * * * * * * * * * * * * * * * * * //

dimensions      [1 -1 -2 0 0 0 0];

internalField   nonuniform List<scalar> 
62344
(
1.0099235
1.0174091
1.0167565
1.0174691
1.0212463
1.0262058
1.0305406
1.0323391
1.0301833
1.0269912
1.0255903
1.0256082
1.0265082
1.0286036
1.0311753
1.0323095
1.0322931
1.0312291
1.0279002
1.0273738
1.028163
1.0277558
1.0291957
1.0318068
1.0291
1.0315503
1.0290462
1.0284936
1.0251001
1.0284749
1.026328
1.0294211
1.028061
1.0264713
1.0179097
1.0064212
1.0170512
1.030966
1.0283808
1.0094228
0.99368006
0.99856374
1.0236217
1.041017
1.0306705
1.0064361
0.99237374
0.99364708
1.0076479
1.0179705
1.0214014
1.0061208
0.99441729
0.9944603
0.99815037
1.0099036
1.0173423
1.0167285
1.0174128
1.0213385
1.0263653
1.0307833
1.0326765
1.0306893
1.0273391
1.0261932
1.0264674
1.0269249
1.0290687
1.0315574
1.0327213
1.033028
1.0308263
1.0281573
1.0279496
1.0284465
1.0285214
1.0295021
1.0311991
1.0307934
1.0324537
1.0295662
1.0296557
1.025851
1.0295539
1.0263993
1.0303354
1.0282179
1.0259655
1.0182562
1.0097721
1.0196941
1.0284268
1.022443
1.0099324
0.99833168
1.0040536
1.0245412
1.0362314
1.0240083
1.0015153
0.99584618
1.0046802
1.0212826
1.0316859
1.0292445
1.011805
0.98361802
0.97150514
0.97768682
1.0098988
1.0173432
1.0167225
1.0174343
1.0214817
1.0265995
1.0311165
1.0330815
1.0311375
1.0278537
1.0265271
1.0269697
1.0273261
1.029482
1.0321366
1.0333501
1.0336422
1.0310374
1.0282966
1.0277702
1.0287772
1.0285607
1.0301791
1.0298828
1.0316666
1.0335282
1.0305901
1.0300252
1.0269047
1.0302005
1.0268745
1.0303117
1.0276933
1.0261822
1.0177834
1.0124876
1.0207363
1.0256151
1.0179602
1.0074537
1.0058439
1.0125225
1.0230144
1.0260528
1.01713
1.0023128
1.0014347
1.0141752
1.0292992
1.0364542
1.0251782
1.0078535
0.98807403
0.97457632
0.97411432
1.0098825
1.0173313
1.0167193
1.0174772
1.0216292
1.0267877
1.03148
1.0335509
1.0316068
1.028303
1.0270003
1.0274404
1.0277308
1.0299383
1.0325425
1.0341966
1.0340048
1.0316699
1.0283589
1.027892
1.0288972
1.0284085
1.0307347
1.0296583
1.0317952
1.0335089
1.0320517
1.0305023
1.0283584
1.0304544
1.0278537
1.0300258
1.0267002
1.0266847
1.017483
1.0135906
1.0223227
1.0248233
1.0141208
1.0048593
1.0117077
1.0215831
1.0220117
1.0150108
1.0105146
1.0082822
1.0090182
1.0196993
1.0267426
1.0280733
1.0185046
1.0069975
0.99868192
0.9931882
0.99083951
1.0098833
1.0173184
1.0167306
1.0175777
1.0217648
1.0270093
1.0318844
1.0340234
1.0319741
1.0287755
1.0274782
1.0278261
1.0282048
1.0303326
1.0330561
1.0348852
1.0343699
1.0321549
1.0287093
1.0280757
1.0291256
1.0287119
1.030485
1.0301027
1.032284
1.0330803
1.0331255
1.0311472
1.0301437
1.0304019
1.0287321
1.0300245
1.0261871
1.0271066
1.0169366
1.0143139
1.0227886
1.0252367
1.013413
1.0036512
1.0136306
1.0277748
1.02273
1.007703
1.0027655
1.0125742
1.0213096
1.0242446
1.0216047
1.013118
1.0068862
1.0067502
1.0106233
1.0142927
1.0134887
1.0098842
1.0173054
1.0167441
1.0177199
1.0219319
1.0272514
1.0322062
1.0344275
1.0323565
1.0292388
1.027954
1.0282124
1.0286753
1.0305929
1.0335195
1.0353524
1.0347803
1.0324589
1.0290062
1.0283331
1.0289863
1.0292887
1.0300676
1.0301546
1.0328637
1.0328951
1.0336961
1.0316591
1.0319316
1.0303089
1.029508
1.0299085
1.0265737
1.0268818
1.016209
1.0152066
1.0229229
1.0244977
1.0150864
1.0054411
1.0136884
1.028095
1.0243396
1.0056454
0.99746206
1.0096689
1.0285904
1.0317462
1.0209037
1.0047848
0.99747838
1.0037109
1.0164288
1.0265012
1.03037
1.0098986
1.0172839
1.0167508
1.0178319
1.0220663
1.0274855
1.0325091
1.0348099
1.0328547
1.0296384
1.0284386
1.0286063
1.0291534
1.0308413
1.0339271
1.035778
1.0353371
1.0328934
1.0292127
1.028752
1.0287643
1.0297016
1.03017
1.0298865
1.0331453
1.0331385
1.0341928
1.0322181
1.0333163
1.0304932
1.0301673
1.0294855
1.0278885
1.026472
1.0151321
1.0164922
1.0232565
1.0230468
1.0159878
1.009967
1.0148821
1.0246663
1.0224741
1.0078094
0.99839781
1.0069423
1.0242465
1.0337416
1.0239553
1.0071518
0.99807345
1.0012974
1.0142599
1.0282276
1.0345178
1.0099156
1.0172714
1.0167581
1.0179194
1.0222178
1.0276773
1.0327685
1.0352162
1.0332732
1.0300287
1.02896
1.0290386
1.0295193
1.0311543
1.0342937
1.0361746
1.0359762
1.0333179
1.029419
1.0291054
1.0288181
1.0297369
1.0305257
1.0297468
1.0329809
1.0334852
1.0346641
1.0331531
1.0340169
1.0309049
1.0307957
1.0288397
1.0296061
1.0259432
1.0139293
1.0176095
1.024468
1.0219703
1.0149244
1.0142543
1.0181807
1.0211778
1.0170349
1.010012
1.0048057
1.0084847
1.0172332
1.0249556
1.0228441
1.0136677
1.0075623
1.0069282
1.0131788
1.0211227
1.0270097
1.0099312
1.017259
1.0167745
1.0179954
1.022339
1.0278579
1.0330052
1.0354878
1.0336233
1.0303316
1.0293579
1.0294527
1.0298053
1.0314943
1.0345532
1.0365792
1.0364804
1.0334658
1.0296775
1.0291907
1.0291222
1.0295157
1.0306587
1.0299403
1.0326598
1.0336776
1.0349553
1.0343077
1.0344323
1.0314717
1.0313548
1.0285277
1.0311645
1.0253059
1.0131211
1.0181785
1.0263887
1.0221162
1.013065
1.0155886
1.0223147
1.0204031
1.0118471
1.0089376
1.011558
1.0137826
1.0153045
1.0136458
1.0131191
1.0151002
1.018
1.0185811
1.0182405
1.0170792
1.0147707
1.0099349
1.017252
1.0167972
1.0180344
1.0224326
1.0280017
1.0331797
1.0357581
1.0339134
1.0306556
1.0296679
1.0298783
1.0300835
1.0318056
1.0348224
1.036968
1.0368895
1.0335623
1.0299684
1.0291408
1.0295042
1.0294329
1.0306268
1.0301569
1.0323643
1.0336482
1.0349855
1.0354452
1.0347322
1.0321238
1.0317965
1.0289971
1.0320124
1.02443
1.0132312
1.0183014
1.027741
1.0232249
1.012035
1.0142696
1.024658
1.0223184
1.0101563
1.0057829
1.0134359
1.0203857
1.0181471
1.008331
1.0024721
1.0089859
1.0207084
1.0285394
1.0280468
1.019983
1.0098329
1.0099305
1.017245
1.0168089
1.018063
1.0225204
1.0281304
1.0333474
1.0360313
1.0341998
1.0309738
1.0298895
1.0302306
1.0303827
1.0320397
1.0349652
1.0373081
1.0373809
1.0338473
1.0303376
1.0289614
1.0297578
1.0295959
1.0305246
1.0302613
1.0322379
1.0336055
1.0348549
1.0362907
1.0352099
1.0327946
1.0321027
1.030123
1.0322123
1.023448
1.0139402
1.0187588
1.0278601
1.0245199
1.0124081
1.0126677
1.0242093
1.0245353
1.0118218
1.0045888
1.011357
1.0230904
1.0220089
1.0090556
0.99888689
1.0014934
1.0154773
1.0297965
1.0340013
1.0275285
1.0137552
1.0099188
1.017241
1.0168044
1.0180859
1.0225868
1.0281898
1.0335028
1.0362778
1.0344877
1.0312516
1.030112
1.0304629
1.0306692
1.0322258
1.0350332
1.0376375
1.0377646
1.0340913
1.0307293
1.0289246
1.0298363
1.029883
1.03052
1.0302293
1.0321259
1.0335756
1.0346885
1.0366819
1.0358867
1.0335384
1.0321966
1.0316405
1.0320271
1.0225784
1.0149325
1.0197216
1.027257
1.0247522
1.0139062
1.0122524
1.0223587
1.0247617
1.0151136
1.0063076
1.0099726
1.0206074
1.0228849
1.0126816
1.0014916
0.9999322
1.0083182
1.0232879
1.0321897
1.0308987
1.0213339
1.0099008
1.0172326
1.0167919
1.0180934
1.0226509
1.0282519
1.0336046
1.036516
1.0347837
1.0314955
1.030356
1.0306382
1.0308977
1.0323331
1.0350713
1.0379328
1.0380876
1.0343308
1.0309848
1.0291735
1.0295634
1.030116
1.0306719
1.0302237
1.0319837
1.0334971
1.0345571
1.0366751
1.0367628
1.0343463
1.0321677
1.0331417
1.0318175
1.0218204
1.0159648
1.0212498
1.0266661
1.0236746
1.0153403
1.0136264
1.0209747
1.0225154
1.0175406
1.0099071
1.011201
1.0169227
1.0193459
1.0148707
1.006895
1.0036113
1.0062292
1.0149188
1.023772
1.0270152
1.024152
1.0098832
1.0172319
1.0167948
1.0181119
1.0227137
1.028298
1.0336751
1.0367244
1.0350491
1.0317772
1.0306196
1.0308138
1.0311304
1.0324039
1.0350863
1.0381726
1.0383632
1.0346489
1.0310908
1.0296149
1.029287
1.0302543
1.0308792
1.0302011
1.0318412
1.0333462
1.0345677
1.036383
1.037626
1.0352097
1.032217
1.0342609
1.0318586
1.0213181
1.0166297
1.0229668
1.026402
1.0219595
1.0158689
1.0161925
1.0207601
1.0195906
1.0172175
1.0138738
1.0143605
1.0158766
1.0141885
1.0131616
1.0112053
1.009835
1.0091303
1.0109523
1.0137034
1.0174189
1.0202814
1.009866
1.0172244
1.0167787
1.0181269
1.0227657
1.0283391
1.0337219
1.0368953
1.0352554
1.0319957
1.0308541
1.0309282
1.0313455
1.0324376
1.0351031
1.03835
1.0385852
1.0350431
1.0310646
1.029928
1.0291323
1.0302505
1.0309307
1.0302578
1.0316069
1.0331828
1.0346846
1.0359207
1.0383671
1.0361093
1.0324607
1.034847
1.0320979
1.0211833
1.0170871
1.0242629
1.0269282
1.0202578
1.0151549
1.0189929
1.0218139
1.017912
1.0143786
1.0159989
1.0186402
1.0174444
1.0114939
1.0088438
1.0115552
1.0148184
1.0149083
1.0118684
1.0079498
1.0069747
1.011802
1.0098526
1.0172221
1.0167942
1.0181627
1.0227987
1.0283505
1.0337571
1.0369781
1.0354216
1.0322111
1.031059
1.0310284
1.0315008
1.0324652
1.0350893
1.0384643
1.0387791
1.0353886
1.0311341
1.0301832
1.0292245
1.0301063
1.0307807
1.0303341
1.0313796
1.0329553
1.0348227
1.035566
1.038864
1.0370017
1.0329981
1.0349404
1.0323677
1.0214917
1.0175328
1.0249921
1.0278219
1.0192408
1.0136996
1.0205993
1.0236922
1.0180162
1.0113893
1.0153408
1.0219981
1.0207608
1.0122184
1.0055458
1.008465
1.0161271
1.0199892
1.0158752
1.0076633
1.0007775
1.0027705
1.0098366
1.0172203
1.0168015
1.0181814
1.0228204
1.0283792
1.0338285
1.0369861
1.0355551
1.0323584
1.0312254
1.0311667
1.0316403
1.0324689
1.0350963
1.0384932
1.0389681
1.0356993
1.0312396
1.0302381
1.0294446
1.0299604
1.0305671
1.0304204
1.0312099
1.0326554
1.0349123
1.0353386
1.0391292
1.0377324
1.0338622
1.0347769
1.032443
1.0220726
1.0179701
1.0252664
1.0287253
1.0189935
1.0124021
1.0207164
1.0256325
1.0192394
1.0101763
1.0127672
1.0230332
1.0239731
1.0150428
1.0053101
1.0049062
1.014016
1.021808
1.0202553
1.0106147
1.0001655
0.99716124
1.0098259
1.017219
1.0168307
1.0182171
1.022825
1.0283962
1.0338616
1.0370342
1.0356937
1.0324823
1.0313265
1.0312672
1.0317448
1.032449
1.0350546
1.0385312
1.0391138
1.0359966
1.0313894
1.0301412
1.0297607
1.0298259
1.0303613
1.0304556
1.0310614
1.0323523
1.0349014
1.0352682
1.0392157
1.0383015
1.034917
1.0346257
1.0322855
1.0227488
1.0187341
1.0252414
1.0291963
1.019499
1.0120065
1.0196777
1.0267455
1.021026
1.0107643
1.0105365
1.0216546
1.0256099
1.0185625
1.0074236
1.0037565
1.0104589
1.0203702
1.0222079
1.0144368
1.0030654
0.99650644
1.0098163
1.0172125
1.0168474
1.0182403
1.022819
1.0283861
1.0338557
1.0371175
1.0358373
1.0325967
1.0314027
1.0313408
1.0317796
1.0324538
1.034985
1.0385521
1.0392588
1.036265
1.0316249
1.0300017
1.0300416
1.0297018
1.0302272
1.0304376
1.0309691
1.0321026
1.0347485
1.0353236
1.0391213
1.0387016
1.0361033
1.0346471
1.0318462
1.0233958
1.0197848
1.0252135
1.0288406
1.0201521
1.0126667
1.0184436
1.0265348
1.0225195
1.0123584
1.0103626
1.0187846
1.0251675
1.0210366
1.0107186
1.0050752
1.0082745
1.0165867
1.0210957
1.0167765
1.0075653
0.99950237
1.0098135
1.0172068
1.0168569
1.0182571
1.022805
1.0283627
1.0338329
1.0371849
1.0359632
1.0326798
1.0314883
1.0314278
1.0318144
1.0324562
1.0349064
1.0385192
1.0394382
1.0364662
1.0318778
1.0299048
1.0302253
1.0296191
1.030178
1.0303694
1.0309407
1.0318829
1.0344957
1.0354604
1.0388243
1.0389137
1.0373412
1.035004
1.0313502
1.0237672
1.0208944
1.0254883
1.0279912
1.0206436
1.0140095
1.0178938
1.0249644
1.0232301
1.0144578
1.0121515
1.0167898
1.0225659
1.0216102
1.0141233
1.0080713
1.008501
1.0129371
1.0172785
1.0170381
1.0113102
1.0044015
1.0098084
1.0171974
1.0168738
1.0182638
1.022782
1.0283466
1.0338195
1.0372273
1.0360901
1.0327955
1.0315454
1.031515
1.0318416
1.0324444
1.0348316
1.0384332
1.039599
1.0366308
1.0321482
1.0299045
1.0302742
1.0296089
1.0302276
1.0302603
1.0309555
1.0317047
1.0341099
1.0356275
1.0384939
1.0388746
1.038428
1.0356599
1.0308591
1.0238912
1.0219637
1.0260308
1.0269202
1.0210207
1.0154572
1.0181508
1.0229392
1.0228017
1.0162851
1.0148558
1.0165101
1.0195909
1.0197752
1.0162306
1.0118148
1.0105087
1.0112968
1.0128944
1.0150367
1.0128261
1.0088036
1.0098115
1.0171893
1.0168808
1.0182636
1.0227472
1.0283171
1.033791
1.037269
1.0362226
1.0329137
1.0316054
1.0315935
1.0318371
1.0324233
1.0347437
1.0383231
1.0397695
1.0367713
1.0323937
1.0300183
1.0301852
1.0296834
1.0303247
1.0301642
1.0310138
1.0315745
1.0336197
1.035781
1.0381785
1.0386556
1.0393762
1.0365951
1.0304359
1.0238559
1.0228571
1.026895
1.0259982
1.0209112
1.0169596
1.0192844
1.0213413
1.0210308
1.0179258
1.0172097
1.0178495
1.0173678
1.0166031
1.0165178
1.015074
1.0136961
1.0119933
1.0103628
1.0113078
1.0119382
1.0112041
1.0098066
1.0171787
1.0168715
1.0182565
1.0227049
1.0282752
1.0337518
1.0372827
1.036327
1.033001
1.0316472
1.0316618
1.0318184
1.0323909
1.0346636
1.0381899
1.039908
1.0368801
1.0325831
1.0301928
1.0300034
1.0298186
1.0304601
1.0300542
1.0310978
1.0314994
1.0331326
1.0358622
1.0378984
1.0382969
1.0402159
1.037684
1.0302043
1.023733
1.0234426
1.0277693
1.0255218
1.0204331
1.0180706
1.0206865
1.0207666
1.0185873
1.0186737
1.0191747
1.0202931
1.0166454
1.0134649
1.0146955
1.0168858
1.017497
1.0144957
1.0097721
1.0082038
1.0092556
1.0114771
1.0098127
1.0171694
1.0168709
1.0182534
1.0226596
1.0282274
1.0337204
1.0373251
1.0364071
1.033068
1.0316771
1.0317128
1.0318067
1.0323632
1.0345913
1.0381306
1.0400609
1.0370194
1.0327606
1.0304185
1.0297819
1.0299358
1.0305696
1.0299057
1.0311754
1.0314945
1.0326355
1.0359009
1.0377172
1.0378696
1.0408102
1.0387637
1.0302166
1.0235634
1.0237613
1.028379
1.0253669
1.0195358
1.0188651
1.021912
1.0211003
1.0162327
1.0180499
1.0209764
1.0225659
1.0173611
1.0110821
1.0117233
1.0170003
1.0204974
1.0178851
1.0110224
1.0061173
1.006243
1.0101938
1.0098
1.0171522
1.0168731
1.0182405
1.0226054
1.0281695
1.033659
1.0372433
1.0364748
1.0331219
1.0317197
1.0317609
1.0317931
1.0323214
1.0344477
1.037939
1.0401232
1.0371758
1.0329524
1.0306317
1.0296315
1.0301253
1.0306446
1.0297828
1.0312777
1.031542
1.032205
1.0358246
1.0375942
1.0373208
1.0411174
1.03987
1.0306543
1.0233336
1.0242296
1.02931
1.0256384
1.0189426
1.0192068
1.0230671
1.0217983
1.0153718
1.0161658
1.0221262
1.0250457
1.0186749
1.0103671
1.0086351
1.0155629
1.0221007
1.0214832
1.0138867
1.0057686
1.0037039
1.0082297
1.0098081
1.0171483
1.0168746
1.0182277
1.0225707
1.0281423
1.0336696
1.0372247
1.0365465
1.0331465
1.0317243
1.0317806
1.0317803
1.0323021
1.0344495
1.0378753
1.0402602
1.037337
1.0329566
1.0307502
1.0294333
1.0301612
1.0306823
1.029669
1.0312919
1.0316008
1.0318589
1.0357123
1.0375481
1.0370262
1.0412045
1.0408578
1.031435
1.0224758
1.0242444
1.0294458
1.0263626
1.0184553
1.0188251
1.0236332
1.0226328
1.0152682
1.0141276
1.0216831
1.0269859
1.0206325
1.0111952
1.0060664
1.0128736
1.0216769
1.0239715
1.0177544
1.0074299
1.0020777
1.0055358
1.0097781
1.0171337
1.0168647
1.0181988
1.0225056
1.0280592
1.0335966
1.0371669
1.0366066
1.0332189
1.031763
1.0318035
1.0317715
1.0322411
1.0342777
1.0376649
1.0402577
1.0375698
1.0332329
1.0309614
1.0294294
1.0301808
1.0307313
1.0296072
1.0312204
1.0316243
1.0315533
1.0353065
1.0375068
1.0366572
1.0407775
1.0415852
1.0331469
1.0230891
1.0240781
1.0289554
1.0274274
1.0195908
1.0181368
1.0234748
1.0235902
1.0163884
1.0134656
1.0202477
1.026703
1.0227994
1.0136664
1.0068519
1.0103548
1.0196512
1.0235262
1.0202278
1.011472
1.0039449
1.0043379
1.0120145
1.0144072
1.0163817
1.0157878
1.0137144
1.0095959
1.0042964
0.99982956
0.998032
0.9997858
1.0050791
1.0124296
1.0180788
1.0197259
1.0153094
1.0065477
1.0001003
1.0022178
1.0130499
1.0251834
1.0303844
1.0241728
1.0083997
0.99323953
0.98821373
0.99793572
1.0049639
1.0204925
1.0204962
1.0179618
1.0144636
1.010461
1.0074034
1.0065163
1.0081067
1.0120063
1.017696
1.0235181
1.0272995
1.0270332
1.0207038
1.010829
1.0031452
1.0015458
1.0057707
1.0111345
1.0138091
1.0111336
1.0004118
0.98969673
0.99267207
1.0124306
1.0292103
1.016297
1.0118231
1.0086272
1.0051557
1.0032952
1.0040035
1.0068974
1.0121472
1.0191403
1.0265384
1.0317617
1.0332275
1.0302756
1.0233815
1.016443
1.0134705
1.0149838
1.0181838
1.0195722
1.0173779
1.0098605
0.99465271
0.97632892
0.96885203
0.98503988
1.0237674
1.0459735
1.0182406
0.99311771
0.99073809
0.99271762
0.9969144
1.002702
1.0096652
1.0163629
1.0215005
1.0239331
1.0233658
1.0189122
1.0127501
1.0084083
1.0096477
1.0164165
1.0246301
1.0304899
1.0307707
1.0242905
1.0101678
0.98997981
0.97234737
0.9703184
0.98932295
1.0165863
1.0238946
0.99894761
0.99331678
0.99561732
1.0012265
1.0065104
1.0121151
1.0160277
1.0171668
1.0152674
1.0101002
1.0035536
0.99671471
0.99383667
0.99645068
1.0041496
1.0132479
1.021666
1.0259623
1.0248474
1.0158729
1.0010947
0.9886774
0.98577195
0.99546043
1.0122068
1.0105923
0.98375828
0.96920759
1.015599
1.0222368
1.025918
1.0273895
1.0261946
1.0224208
1.0168268
1.0104618
1.0039985
0.99862903
0.99627533
0.99794514
1.0018763
1.0067036
1.0108165
1.0125395
1.0100816
1.00139
0.98845609
0.97922823
0.98150831
0.99925711
1.0254866
1.0363981
1.011429
0.96381195
0.95774131
1.0393434
1.0410494
1.0379651
1.034421
1.0302097
1.0257023
1.0217375
1.0181953
1.0160824
1.0162154
1.0181638
1.0202301
1.0218825
1.0221198
1.019427
1.011633
0.99788697
0.98042361
0.96559505
0.96079556
0.97286923
1.0027381
1.0332755
1.0360014
1.0047163
0.97184002
0.97577376
1.0312035
1.0281155
1.0250524
1.0224421
1.0208986
1.0206982
1.0224232
1.0264582
1.0315799
1.0359145
1.039784
1.0419148
1.041527
1.0379047
1.0299853
1.0159695
0.99799089
0.97986674
0.96807903
0.96869672
0.98274014
1.0018263
1.0122648
0.99940639
0.98093588
0.9859538
1.0113084
1.0080864
1.0045088
1.0036994
1.0047161
1.0079425
1.0127839
1.0185776
1.023916
1.0287116
1.0335516
1.0371394
1.0387819
1.0370326
1.0316414
1.0221717
1.0106297
1.0000206
0.9937826
0.99508922
1.0037194
1.0135057
1.010997
0.98852569
0.95749461
0.95282718
0.98768837
1.0404443
0.9990949
0.99961388
1.0023965
1.0060844
1.0092225
1.0119155
1.0148542
1.0173728
1.0192406
1.0189666
1.0166467
1.0127389
1.0063168
0.99803673
0.99026814
0.98647021
0.99000251
1.0029777
1.0237821
1.0432101
1.0451055
1.0241458
0.98317918
0.95063223
0.95349757
0.98915023
1.0319006
1.0117331
1.0142913
1.016635
1.0188225
1.0210167
1.0225038
1.0231791
1.0221891
1.0186194
1.0122451
1.0028728
0.99049551
0.97702169
0.96587965
0.96025302
0.96334123
0.97693946
1.0012233
1.0292691
1.0469935
1.043772
1.018741
0.99233054
0.98170366
0.99153272
1.0056899
1.0020932
1.0279176
1.031657
1.0337012
1.0352504
1.0355779
1.0348301
1.0325401
1.0281501
1.0208147
1.0104266
0.99778783
0.98416111
0.97233548
0.96464735
0.96435357
0.9721
0.98748306
1.0037579
1.0139917
1.0117567
0.99602818
0.98500316
0.99220514
1.0198845
1.0473934
1.0375052
0.98274145
1.0421889
1.0435335
1.0425634
1.042257
1.0405786
1.0371868
1.0312799
1.0232113
1.0132205
1.0023754
0.9922883
0.98609936
0.98417812
0.98789837
0.9974719
1.0107387
1.0196443
1.0187989
1.0014333
0.97220956
0.95078462
0.94965367
0.97835734
1.0309475
1.0721332
1.0496282
0.98373964
1.0445587
1.0430517
1.0399457
1.0352533
1.0286337
1.0205419
1.0120271
1.0040043
0.99733046
0.99297172
0.9921872
0.99559844
1.0050978
1.0201013
1.0361836
1.046011
1.0438521
1.0270683
0.9971077
0.96450517
0.94567527
0.94998255
0.97705195
1.0132186
1.0356329
1.0120751
0.98994335
1.0257842
1.0210658
1.0153894
1.0089159
1.0022647
0.99599815
0.99090384
0.98734169
0.98720506
0.99181915
1.001424
1.016496
1.0347572
1.0492675
1.0550163
1.0506629
1.0341426
1.0103478
0.98879134
0.97948305
0.98021155
0.99108463
1.0041382
1.0034453
0.97621506
0.9510014
0.97072773
0.98463477
0.97812235
0.97376365
0.97058123
0.96875631
0.96951727
0.97372698
0.98164006
0.99385936
1.0098625
1.0281529
1.0437098
1.0512167
1.0506842
1.04162
1.0238795
1.0032269
0.98727449
0.98376965
0.99503799
1.0202784
1.0461784
1.0464577
1.0090755
0.94665128
0.92054668
0.94105809
0.94286442
0.93838692
0.93841866
0.94085253
0.9462727
0.95576221
0.96949359
0.98736878
1.0069076
1.0246613
1.0363315
1.0416741
1.0376636
1.0248546
1.0057985
0.98809937
0.97772862
0.97984072
0.99446596
1.0207022
1.0533939
1.0718726
1.0585325
1.0119472
0.96120886
0.94228558
0.95255222
0.92527652
0.9254531
0.93383981
0.94320297
0.95579758
0.97118667
0.98618734
0.99857494
1.00576
1.0072143
1.0039536
0.9945591
0.98274189
0.97194572
0.96534631
0.96515491
0.97311988
0.9899691
1.0183955
1.050893
1.0676229
1.0607253
1.0273695
0.99599327
0.98915127
1.0007614
1.0190643
0.95605022
0.96499097
0.97498443
0.98598815
0.99443091
0.99821378
0.99674891
0.99122725
0.98209871
0.96885179
0.95398325
0.94013706
0.92778845
0.92304139
0.92812584
0.94491727
0.97233603
1.0091979
1.0443182
1.0611549
1.0536361
1.020734
0.98794367
0.9791688
1.0047608
1.0566918
1.1019756
1.0409079
1.0460346
1.0436088
1.0362774
1.024854
1.0105477
0.99364991
0.97441981
0.95474994
0.937394
0.92283505
0.91036094
0.90686823
0.91088097
0.92374728
0.94640507
0.97843405
1.0114174
1.0319875
1.0322554
1.0065513
0.97428179
0.96112144
0.97704724
1.023019
1.0896119
1.1277479
1.0819355
1.0828654
1.0735559
1.0605353
1.043008
1.0216382
0.99888941
0.97703237
0.9568414
0.93814071
0.92562463
0.92161294
0.92505582
0.93736355
0.95699945
0.9798501
0.99766469
1.00032
0.98613673
0.96198805
0.93950279
0.93550509
0.95209201
0.99046005
1.0476719
1.0899678
1.0745332
1.0393445
1.0324348
1.0250029
1.0181973
1.0122335
1.0069947
1.0009624
0.99327531
0.98562661
0.98033138
0.97832152
0.98074775
0.98961382
1.0025133
1.0140353
1.0144287
1.0006761
0.97528258
0.94214728
0.90896637
0.89730545
0.91139107
0.95258679
1.0119841
1.0571359
1.0588036
0.99328412
0.95982302
0.95399356
0.95135912
0.94993292
0.94948834
0.95238925
0.96142642
0.97663894
0.99614051
1.0186215
1.04348
1.0672614
1.0818706
1.0835136
1.0644909
1.031461
0.99187299
0.95162401
0.91601906
0.89721692
0.90093255
0.9239381
0.96863304
1.022431
1.0424203
0.99983515
0.9357812
0.90283507
0.89851267
0.89868493
0.90185834
0.90928645
0.92060901
0.93633379
0.95809665
0.98714718
1.0224333
1.0592251
1.0897646
1.1057159
1.1002859
1.0760902
1.0370696
0.99237515
0.95234087
0.92673139
0.92331187
0.93716558
0.97044182
1.0058131
1.0184955
0.99302238
0.93756169
0.91206314
0.87895602
0.88041071
0.88822889
0.89951442
0.91358447
0.93232308
0.95422455
0.97938587
1.0016937
1.0172713
1.0247378
1.0255462
1.0234204
1.0187508
1.012096
1.0034265
0.99225728
0.98202707
0.97924593
0.98561323
1.0055894
1.0303006
1.0331353
0.99495595
0.93585023
0.89097509
0.90822863
0.90938201
0.91683354
0.92809548
0.94285038
0.95955168
0.97584313
0.98797989
0.99342813
0.99216959
0.98442142
0.97159912
0.95408652
0.93651401
0.92400537
0.92189581
0.93246259
0.95822414
0.99573156
1.0343518
1.0692852
1.0923353
1.0828309
1.032502
0.96166959
0.89796126
0.87810991
0.90681109
1.0020001
1.0078682
1.0126471
1.0146476
1.0120508
1.0041674
0.99142111
0.97518127
0.95609757
0.93515131
0.91514517
0.8986336
0.88612499
0.87796834
0.87888956
0.8934558
0.92598027
0.97930879
1.0497738
1.1149967
1.1375191
1.1029445
1.0249936
0.94213086
0.89039435
0.8918432
0.91470303
1.1028926
1.1005636
1.0877895
1.0676472
1.0424653
1.0140723
0.9848471
0.95557136
0.92812871
0.90476979
0.88620525
0.87151472
0.86218861
0.86459462
0.87724497
0.90053196
0.93449779
0.97959471
1.0338764
1.0823101
1.0989007
1.0692753
1.0119474
0.95201258
0.92391425
0.92588354
0.94667406
1.1162759
1.1130208
1.0998849
1.0803621
1.0553204
1.0260296
0.99447766
0.96290261
0.93282425
0.90718612
0.88733657
0.87624056
0.87596985
0.88474446
0.90327185
0.92975562
0.96382776
0.99457806
1.0104661
1.0119451
1.0038214
0.99209297
0.98208192
0.97452303
0.97889688
0.98304313
1.0105549
1.050163
1.0451755
1.0396931
1.034644
1.0282589
1.0192945
1.0066594
0.98980854
0.96925883
0.94815141
0.93121871
0.92257117
0.92382939
0.93492675
0.95218907
0.97314141
0.99080059
0.99385055
0.97770568
0.94540189
0.91789006
0.91438358
0.93626037
0.97856859
1.0240475
1.0539037
1.0898022
0.95712501
0.95655193
0.95762928
0.96030497
0.96579422
0.97405998
0.98365995
0.99233843
0.99923439
1.0039052
1.0061166
1.0064005
1.0074413
1.012064
1.0184799
1.0182571
1.0050735
0.97691566
0.93709555
0.89817798
0.87003936
0.86522093
0.89670699
0.96037731
1.0371332
1.1137423
1.1525871
0.88642741
0.88572097
0.8886211
0.89532997
0.90475984
0.91783085
0.93679227
0.96277208
0.99493733
1.0309919
1.0660742
1.0944149
1.1099421
1.1095856
1.0897134
1.0526929
1.0047783
0.95232499
0.90318209
0.86977603
0.84879134
0.85283358
0.88199623
0.94122903
1.0282975
1.1308006
1.1704824
0.84555491
0.84584477
0.849747
0.85721469
0.86945178
0.88682184
0.91014912
0.94105608
0.98158198
1.0313632
1.0868214
1.1385055
1.1715834
1.1712111
1.1339803
1.0720977
1.0011141
0.93676352
0.88921285
0.85954754
0.84577635
0.85721277
0.88982144
0.94228243
1.0223656
1.1127514
1.139215
0.83356147
0.83515348
0.84122412
0.85154918
0.86705868
0.88882808
0.91744002
0.95248629
0.99333823
1.0381085
1.083678
1.1236567
1.1488005
1.1491588
1.1202734
1.0657907
1.0002413
0.93765702
0.89272452
0.86443739
0.86046774
0.87675831
0.91129531
0.95986812
1.0276378
1.0837659
1.0854981
0.85149698
0.85527296
0.86382388
0.87696821
0.89564814
0.92015375
0.94915587
0.98100969
1.0128668
1.0407588
1.0623421
1.075661
1.0794422
1.0742994
1.0580917
1.0298975
0.99105932
0.94775515
0.90877824
0.88782453
0.88961381
0.90785918
0.9422664
0.98996358
1.0343701
1.0497782
1.0265753
0.89142323
0.8967664
0.90680745
0.92144878
0.94024651
0.96143395
0.98203911
1.0006918
1.0155044
1.0234548
1.0226786
1.0172276
1.0103117
1.0031911
0.99697195
0.98904649
0.97447737
0.95304708
0.93137708
0.92008985
0.92615904
0.94712413
0.97872228
1.0161742
1.0324706
1.01199
0.97307172
0.93925704
0.94324167
0.95096217
0.9615114
0.97345388
0.98483967
0.99399884
0.99969113
1.0003411
0.99519778
0.98503526
0.97359481
0.96375708
0.95755439
0.95708984
0.96099893
0.96474233
0.9612795
0.95399239
0.95348037
0.96350765
0.98512951
1.0110016
1.0288181
1.0144753
0.97181884
0.92914932
0.97671856
0.97880688
0.98252646
0.98672995
0.99026161
0.99173031
0.99048559
0.98639347
0.97833936
0.96765652
0.95614354
0.94481884
0.9366883
0.93406564
0.9385043
0.94913636
0.96231946
0.97246964
0.97908278
0.98742711
1.0001746
1.0164749
1.0273711
1.0226351
0.9880313
0.9339945
0.89496486
1.0029276
1.0030211
1.0029243
1.0019167
0.99901003
0.99328951
0.98508448
0.9747533
0.96203286
0.94886391
0.93643543
0.92593391
0.91950379
0.91949717
0.92852374
0.94603016
0.96781315
0.98701863
1.0025411
1.0155525
1.0255701
1.0321317
1.0272412
1.0055239
0.96074068
0.90634387
0.87361338
1.021295
1.0201357
1.0175426
1.0128929
1.0056979
0.99562588
0.98334353
0.96904575
0.95398901
0.93913519
0.92566189
0.91452743
0.90784399
0.90877916
0.9204508
0.94248868
0.9707969
0.99835467
1.0203579
1.0343059
1.0380306
1.0331985
1.017074
0.9891235
0.9431722
0.89261382
0.86742287
1.0304429
1.0291816
1.0263868
1.0212929
1.0131783
1.0016292
0.98728316
0.97018361
0.95196318
0.93398394
0.91823032
0.90571402
0.89852534
0.90095122
0.91436498
0.93856734
0.96978287
1.0010531
1.0264147
1.0407175
1.0401967
1.0291304
1.0096702
0.98117519
0.93791227
0.89176087
0.8710899
1.0303648
1.0292578
1.0267047
1.0219053
1.0140764
1.0027871
0.98853287
0.9712944
0.9525068
0.93363453
0.91699792
0.9038172
0.89553191
0.89665567
0.90942844
0.93430094
0.96730669
1.0010616
1.0267279
1.0400688
1.0383191
1.0262823
1.0058526
0.97866636
0.94024502
0.89907574
0.88223231
1.0159906
1.0157149
1.0147032
1.0121565
1.0070783
0.99864609
0.98691555
0.97188433
0.95510272
0.93822289
0.92273177
0.90939968
0.90129496
0.90259108
0.91480131
0.93868879
0.97037261
1.0016698
1.0233879
1.0318114
1.0285337
1.0190955
1.0026356
0.98006385
0.94697553
0.9113827
0.89719494
0.989385
0.99033266
0.99149794
0.99228917
0.99160059
0.98811884
0.98152456
0.97188854
0.96045545
0.94827706
0.93638845
0.92622916
0.92040115
0.92299953
0.93472029
0.95492943
0.97963889
1.0016065
1.0147802
1.0162782
1.0104319
1.0032914
0.9950604
0.98149115
0.95547079
0.92501936
0.91090071
0.95477267
0.95678036
0.96036406
0.96490063
0.96918345
0.97218078
0.97329683
0.97186944
0.96839867
0.96349607
0.95828891
0.95418056
0.95291113
0.95659843
0.96451748
0.97625408
0.98945072
0.99941822
0.99949223
0.99211628
0.98214243
0.9776305
0.97885253
0.97798774
0.96437075
0.94161756
0.92832687
0.92080653
0.92351524
0.92827452
0.93468658
0.94269841
0.95188829
0.96147854
0.97071849
0.97917616
0.98602923
0.99014263
0.99314515
0.99523129
0.9967925
0.99822025
0.99903641
0.99670255
0.98854778
0.97509638
0.95973339
0.94750759
0.94467337
0.95444288
0.96806805
0.97420147
0.96954788
0.95770729
0.89673709
0.89908379
0.90311466
0.90944908
0.91837641
0.93022967
0.94546212
0.96381025
0.98396287
1.0036739
1.0209445
1.0343051
1.0419811
1.0421899
1.0346728
1.019514
0.99565047
0.96871123
0.94458041
0.92509015
0.9141384
0.91377989
0.92634798
0.95226234
0.98608316
1.0107376
1.0089809
0.88207989
0.88316473
0.88737116
0.89364584
0.90268226
0.91523181
0.93155504
0.95233251
0.97800603
1.0083633
1.0406722
1.0690476
1.0860406
1.0857875
1.0663249
1.0309665
0.98826075
0.9482278
0.91776905
0.89781873
0.88760915
0.88821944
0.90317541
0.93572556
0.99351773
1.053201
1.0781129
0.87904133
0.87944944
0.88300859
0.88896925
0.89780143
0.90990624
0.92625373
0.94846889
0.97762063
1.013131
1.0511488
1.0848712
1.1046313
1.1025531
1.077193
1.0345812
0.98574361
0.93962007
0.90455466
0.88288252
0.87281373
0.87230397
0.88757695
0.92520507
0.99418441
1.0782139
1.1342478
0.89217197
0.89189351
0.89600208
0.90328674
0.91292844
0.92588526
0.94271455
0.96380422
0.98816491
1.0138935
1.0384442
1.0584911
1.0713567
1.073298
1.0605533
1.0329847
0.99436962
0.95263753
0.91525239
0.88848443
0.87382521
0.86917159
0.88014355
0.91689732
0.9848816
1.0734864
1.1470802
0.93956027
0.93928471
0.9419707
0.94713065
0.95548231
0.9659149
0.97670125
0.98646263
0.99319352
0.99593732
0.99450211
0.99132697
0.99368762
1.003589
1.0162795
1.0209747
1.0097539
0.98383978
0.94806179
0.9138245
0.89137868
0.88323036
0.88936297