/*--------------------------------*- C++ -*----------------------------------*\
| =========                 |                                                 |
| \\      /  F ield         | OpenFOAM: The Open Source CFD Toolbox           |
|  \\    /   O peration     | Version:  2406                                  |
|   \\  /    A nd           | Website:  www.openfoam.com                      |
|    \\/     M anipulation  |                                                 |
\*---------------------------------------------------------------------------*/
FoamFile
{
    version     2.0;
    format      ascii;
    arch        "LSB;label=32;scalar=64";
    class       surfaceScalarField;
    location    "34";
    object      phi_0;
}
// * * * * * * * * * * * * * * * * * * * * * * * * * * * * * * * * * * * * * //

dimensions      [1 0 -1 0 0 0 0];

oriented        oriented;

internalField   nonuniform List<scalar> 
123996
(
0.0017565891
-7.6335419e-05
7.7142672e-05
0.0017541543
-8.1354156e-05
8.8943052e-05
0.001772814
-5.8595994e-05
6.8390425e-05
0.0017660338
-4.9811936e-05
5.644777e-05
0.0017294263
-6.4622969e-05
7.0387288e-05
0.0016773791
-0.00011970391
0.00012081044
0.0016321989
-0.00019668502
0.00020328893
0.0016133517
-0.00026175775
0.0002722334
0.0016181012
-0.00029281036
0.00030934398
0.0016052282
-0.00027268321
0.00030053228
0.0015644247
-0.00026604472
0.00028451767
0.0015164363
-0.00027374411
0.00030067771
0.0014650298
-0.00028343138
0.00029071488
0.0013990502
-0.00029480888
0.00032307687
0.0013544645
-0.00032269591
0.0003358563
0.0013329859
-0.00034093865
0.00038189662
0.0013230533
-0.00036469138
0.00038592403
0.0013528411
-0.00033100735
0.0003747914
0.0013684316
-0.00027187478
0.000272434
0.0013461423
-0.00022310032
0.00027220813
0.0013207271
-0.0002171857
0.00023125124
0.0013093347
-0.00018811838
0.00024939274
0.0012400706
-0.00020611125
0.00019543465
0.0012468635
-0.00014421215
0.00019370731
0.0012126716
-0.00014602249
0.00018732618
0.0012063359
-0.00016673241
0.00014784378
0.0012314297
-0.00011780865
0.00013140271
0.0012438935
-0.00012598542
0.00013478328
0.0012294866
-9.9738778e-05
9.4658724e-05
0.0011967547
-0.00011201681
0.00011786532
0.0011961266
-9.1842172e-05
9.5092172e-05
0.001134665
-8.8377551e-05
9.1831965e-05
0.0011802972
-7.2383288e-05
7.4161964e-05
0.0012122783
-9.4878625e-06
1.7053391e-05
0.0014546522
9.5175392e-05
-8.1308219e-05
0.0014425061
0.00018434958
-0.00023769272
0.0012030824
0.00012440959
-0.0002059918
0.001116946
6.7674468e-05
-8.5386298e-05
0.0013275358
0.0001491935
-9.0532784e-05
0.0016613243
0.0002979395
-0.00024957333
0.0017829826
0.00037951459
-0.00042794697
0.0015439455
0.00035260264
-0.00048535567
0.0011884389
0.00024524139
-0.00039040525
0.0011879006
0.00021676914
-0.00024228383
0.0015485754
0.00031428137
-0.00024599271
0.0018911375
0.00046998321
-0.00038798468
0.0020251871
0.00054804037
-0.00056139215
0.0019273258
0.00050324252
-0.00062772803
0.0017697664
0.00040912124
-0.00057921971
0.0017017017
0.00031579856
-0.00047799627
0.0018429585
0.00029730448
-0.00038636807
0.0021691057
0.00033537232
-0.00036040785
0.0022797791
0.00042601668
-0.00042887627
0.0023108764
0.00053347272
-0.00049112341
0.00060489599
0.0022095833
-0.00056994729
0.0016893717
-7.0584659e-05
0.0016832151
-7.2431689e-05
0.001698683
-4.6471978e-05
0.0016891658
-4.0350341e-05
0.0016510178
-5.9288287e-05
0.0015994891
-0.00011392942
0.001556451
-0.00018708821
0.0015399881
-0.00025304443
0.0015472807
-0.00027193663
0.0015345613
-0.00026259649
0.0014963016
-0.00025269328
0.0014514641
-0.00025820361
0.0014055044
-0.0002601554
0.001344156
-0.00027784061
0.0013028778
-0.0002934812
0.0012785058
-0.00032927154
0.0012737372
-0.00034633318
0.001303083
-0.00030597266
0.0013189719
-0.00025150008
0.0012942184
-0.00020178416
0.0012766067
-0.00019346262
0.0012598886
-0.00016522132
0.0012147058
-0.00017973197
0.0012088809
-0.00014207298
0.0011655359
-0.00010675702
0.0011698436
-0.00013409463
0.0011674973
-0.00011919789
0.00118939
-0.00011333702
0.0011634682
-9.3930317e-05
0.0011467779
-0.0001136584
0.0011465061
-9.306807e-05
0.0010932973
-9.4132697e-05
0.0011494206
-4.7051937e-05
0.0011723877
-3.0281868e-06
0.0013615672
9.9161154e-05
0.0013119936
0.00015088416
0.0011367277
7.1651884e-05
0.0011503615
5.5874768e-05
0.0013312642
0.0001674985
0.0015323767
0.000323116
0.0015972416
0.00035765998
0.0013835835
0.00023152575
0.001154295
0.00013864121
0.0012231202
0.00019571985
0.0015877034
0.00035254659
0.0018338154
0.00046693768
0.0018079181
0.00048119458
0.0016386995
0.0004016123
0.0014407701
0.00030295635
0.0014362629
0.00024945704
0.0016025964
0.00028361763
0.0020220469
0.00038546808
0.0023863805
0.00045790789
0.0024769224
0.0004663015
0.00047042315
0.0023715178
0.0016066344
-6.6382534e-05
0.0016009617
-6.4184438e-05
0.001615628
-3.6333969e-05
0.0016055454
-3.2717202e-05
0.001568594
-5.654818e-05
0.0015192313
-0.00010809236
0.0014780148
-0.00017647095
0.0014639534
-0.00024171281
0.00147301
-0.00026017938
0.0014622935
-0.00024626894
0.0014262051
-0.00023998906
0.0013843159
-0.00024455396
0.0013392547
-0.00024419866
0.0012796161
-0.00025591903
0.0012346436
-0.00027103065
0.0012106464
-0.00030040752
0.0012109964
-0.00031919357
0.0012392925
-0.00027989092
0.0012571825
-0.000235996
0.0012312562
-0.00019422651
0.0012203737
-0.00017513907
0.0011996283
-0.00015828358
0.0011649067
-0.00014819947
0.0011604426
-0.00013716701
0.0011030416
-0.00010842064
0.0011130436
-0.00010501984
0.001104843
-0.00010599109
0.0011365272
-0.00010319054
0.0011040858
-9.2545531e-05
0.0011028091
-0.00011194544
0.0010958442
-9.0672628e-05
0.001062059
-0.00010016198
0.0011050616
-3.453698e-05
0.001139506
-2.1554024e-06
0.0013002478
8.9115819e-05
0.001234884
0.00013714027
0.0011026136
6.8986641e-05
0.0011491731
5.2841346e-05
0.0013332674
0.0001610223
0.001443519
0.00030136413
0.0014060781
0.00030386509
0.0012736056
0.00016308844
0.0011883712
9.4667675e-05
0.0012742834
0.00020417769
0.0015191445
0.00036242815
0.0016960341
0.00041642801
0.0016153637
0.00035851974
0.0014567545
0.00028219866
0.0013038115
0.00023032222
0.0013844666
0.00027045494
0.0016245418
0.00035128054
0.0019155389
0.00042777866
0.0021840322
0.00045326674
0.0023113443
0.00040215819
0.00033034919
0.0022937758
0.0015307431
-6.0986492e-05
0.0015246169
-5.7818678e-05
0.00153854
-2.8694834e-05
0.0015278321
-2.8135364e-05
0.0014919889
-5.4715802e-05
0.001444691
-0.00010179069
0.0014057807
-0.00016810929
0.0013948608
-0.00023422445
0.0014060758
-0.00024465333
0.0013969917
-0.00023439465
0.0013628911
-0.00022174839
0.0013238941
-0.0002306378
0.0012813954
-0.0002332302
0.001225726
-0.00023419442
0.0011810033
-0.00025472128
0.0011582893
-0.00028052444
0.0011636311
-0.00029017544
0.0011905781
-0.00025945345
0.0012109757
-0.00021199516
0.001186703
-0.00018564459
0.0011759572
-0.00015243234
0.0011574322
-0.00014938704
0.0011236614
-0.00012868863
0.0011227809
-0.00010509223
0.0010638587
-0.00011529661
0.0010682606
-9.552191e-05
0.001057132
-8.9854867e-05
0.001089956
-8.2653129e-05
0.0010494941
-9.3202195e-05
0.0010599311
-0.00010678471
0.0010442209
-8.1471506e-05
0.0010404871
-9.3415291e-05
0.0010623259
-3.7334467e-05
0.0011071544
-1.0609853e-05
0.0012484919
8.9985058e-05
0.0011701819
0.00012492844
0.0010597919
7.1459309e-05
0.001133244
6.667056e-05
0.0013277885
0.00015158662
0.001357929
0.00024643098
0.0012232274
0.00023625737
0.0011503595
0.00013016147
0.0012295651
9.2863601e-05
0.0013555428
0.00020229054
0.0014380117
0.00034904325
0.0014793719
0.00037925001
0.001418765
0.00027101107
0.0013123359
0.000182872
0.0013017709
0.00018150602
0.0014075833
0.0002809403
0.0016074565
0.00039894583
0.0017555936
0.00045007825
0.0018559599
0.00043030465
0.0019096912
0.00034812514
0.00024654652
0.0019404726
0.0014614834
-5.5663366e-05
0.0014553967
-5.2740652e-05
0.0014678224
-2.3436922e-05
0.0014561677
-2.5880907e-05
0.001421255
-5.4244288e-05
0.0013753395
-9.9076645e-05
0.0013373263
-0.00016264545
0.0013278559
-0.00021891135
0.0013390883
-0.00022933383
0.0013317002
-0.00022159287
0.0012990746
-0.00020818498
0.0012627688
-0.00021222228
0.0012232728
-0.00021443261
0.0011680703
-0.00021687837
0.0011230465
-0.0002371572
0.0011006845
-0.00026173164
0.0011074233
-0.00026829522
0.0011341748
-0.0002474926
0.0011527712
-0.00018626691
0.0011328024
-0.00017444104
0.0011176285
-0.00013799676
0.0011039925
-0.00012980231
0.0010742572
-0.00012882636
0.0010682147
-7.8500858e-05
0.0010172899
-0.00010401439
0.0010147844
-8.6787361e-05
0.0010031881
-8.1725264e-05
0.0010312526
-6.5299732e-05
0.00099429204
-9.5829116e-05
0.0010182996
-0.00010030905
0.00099118602
-7.7461157e-05
0.0010114714
-7.9618077e-05
0.0010112766
-4.1728592e-05
0.0010731475
-1.8127382e-05
0.0011943553
9.4219288e-05
0.0011154686
0.00011429693
0.0010228894
6.0878189e-05
0.00109756
7.9687237e-05
0.0012844599
0.00015781298
0.0012868893
0.00019573288
0.001102609
0.00015821529
0.0010560639
0.00010745082
0.0012311445
0.00011657203
0.0014088674
0.00020153751
0.0013993288
0.00029868147
0.0012819639
0.00032332051
0.001221724
0.00025215584
0.0012108533
0.00015465079
0.0013367727
0.00017115389
0.0014894438
0.00026084366
0.0015944702
0.00036552318
0.0016032711
0.00040497597
0.0015721563
0.00037807984
0.001549473
0.00030497363
0.00023173415
0.0015862486
0.0013951119
-5.0394522e-05
0.0013890268
-4.8151978e-05
0.001400346
-2.0790469e-05
0.0013881996
-2.5523246e-05
0.0013542298
-5.1727483e-05
0.0013095608
-9.6184779e-05
0.0012727522
-0.00015610731
0.0012646741
-0.00020476872
0.0012761324
-0.00021785132
0.001270753
-0.00020454636
0.0012401224
-0.0001932047
0.0012068968
-0.00019485418
0.0011709647
-0.00019368808
0.0011184985
-0.00020068594
0.0010736535
-0.00021731271
0.0010509856
-0.0002409505
0.0010570733
-0.00024903879
0.001087045
-0.00023297354
0.001102883
-0.00017468665
0.0010904848
-0.00015724128
0.001073055
-0.00013619534
0.001059862
-0.00011001338
0.0010403488
-0.00012424038
0.0010234938
-7.3381363e-05
0.00098266474
-8.671985e-05
0.00097257618
-7.3366554e-05
0.00096242783
-7.3042286e-05
0.00097792455
-5.8890364e-05
0.00094865885
-9.5645651e-05
0.0009801731
-8.9653134e-05
0.00094619368
-7.8856891e-05
0.00097768739
-6.299561e-05
0.00096281634
-4.4556181e-05
0.0010470578
-2.3529506e-05
0.0011398181
9.7490089e-05
0.0010599557
0.00010815313
0.00099170593
4.6533869e-05
0.0010553407
7.5495508e-05
0.0012054729
0.00016385626
0.0012115303
0.00016903963
0.0010452513
9.657332e-05
0.00099602419
7.4892179e-05
0.001180422
0.00014362817
0.0013887907
0.00022015872
0.0013710961
0.00024895851
0.0011891928
0.00022622251
0.001068441
0.00020865468
0.001132837
0.00018841681
0.0013240551
0.00020959105
0.001507563
0.00025939853
0.0015571262
0.00029833518
0.0014834825
0.0003006854
0.00138905
0.00028947025
0.0013231758
0.00024759302
0.00022569797
0.0013487821
0.0013264754
-4.5258496e-05
0.0013207125
-4.2944915e-05
0.0013314957
-1.8342199e-05
0.0013195428
-2.3160178e-05
0.0012873622
-4.8324598e-05
0.0012449294
-9.2837991e-05
0.0012102583
-0.00014812997
0.0012035429
-0.00019282341
0.0012159768
-0.00020740396
0.0012120159
-0.00018619171
0.0011827845
-0.00017924702
0.0011512074
-0.00018040551
0.0011171976
-0.00017746416
0.0010669504
-0.0001847247
0.0010231265
-0.0001991731
0.0010008608
-0.00022338428
0.0010066972
-0.00023438774
0.0010387869
-0.00021166713
0.001050771
-0.00016477865
0.0010406409
-0.0001347061
0.0010253498
-0.00013420669
0.0010070269
-0.00010033415
0.00099885253
-0.00010737924
0.00097324783
-7.692339e-05
0.00093939416
-7.4675791e-05
0.00092503765
-6.5210883e-05
0.00091831618
-6.0772959e-05
0.00092217432
-5.8627472e-05
0.00090434316
-9.2840252e-05
0.00093646391
-7.463223e-05
0.00090622283
-8.1142003e-05
0.00093586932
-5.0272552e-05
0.00091272878
-5.0220546e-05
0.001021885
-2.441184e-05
0.0010867926
9.9386539e-05
0.00099998704
0.00010316071
0.0009583114
3.4384447e-05
0.0010240443
5.6426211e-05
0.0011234355
0.00015271566
0.0011242866
0.00016202301
0.0010117653
6.4403667e-05
0.00098250671
4.8431216e-05
0.001120008
0.0001513152
0.0013005597
0.00024076973
0.0012982489
0.00020994898
0.0011639421
0.00014913635
0.0010270116
0.00012790865
0.0010759645
0.00019233314
0.0012619697
0.00025722435
0.0014253784
0.0002870707
0.0014703235
0.00026334616
0.0014010117
0.00021755828
0.0012849387
0.00018723629
0.0012093755
0.0001757347
0.00020729646
0.0012323325
0.0012660318
-4.0199801e-05
0.0012603111
-3.6315835e-05
0.0012700686
-1.5486068e-05
0.0012581539
-2.1090728e-05
0.0012268492
-4.7010976e-05
0.0011858777
-8.6807728e-05
0.0011526088
-0.00013863825
0.001146609
-0.00017770797
0.0011601905
-0.00019289996
0.00115668
-0.00016755704
0.001129227
-0.00016518729
0.0010996835
-0.00016477264
0.0010673594
-0.00016293426
0.0010201344
-0.00016921725
0.00097720002
-0.00017870934
0.00095482149
-0.00020493534
0.00096130485
-0.00021904019
0.00099405389
-0.000187711
0.0010070101
-0.00015260664
0.00099599453
-0.00011418504
0.00098602502
-0.00012159794
0.00096403596
-9.658575e-05
0.00096226937
-8.7590295e-05
0.00093509004
-7.4999703e-05
0.00090422613
-6.6759017e-05
0.00088706993
-5.9110603e-05
0.00087800781
-4.9013876e-05
0.00087181896
-5.7392765e-05
0.00086523525
-8.6161883e-05
0.00089009179
-6.5647814e-05
0.0008727437
-7.7066358e-05
0.00089267405
-4.6709659e-05
0.0008676277
-5.9382263e-05
0.00099791579
-1.3616285e-05
0.0010393064
0.00010025294
0.00093856748
9.5048857e-05
0.00091536553
3.1535528e-05
0.00099783476
3.70923e-05
0.0010615852
0.00012432266
0.0010293216
0.00015558179
0.00096608373
6.7190078e-05
0.00098752646
3.8809225e-05
0.0010876698
0.00013299449
0.0011748626
0.00023146932
0.0011849407
0.00019965775
0.001108688
0.00010703024
0.0010539055
7.3886251e-05
0.0010659149
0.00014401546
0.0011798062
0.00026286702
0.0012717825
0.00030830607
0.0013050398
0.00026698164
0.0012742255
0.00018188564
0.001215783
0.00012898834
0.0011813901
0.00011859496
0.00017246191
0.0011984868
0.0012096803
-3.5267211e-05
0.00120425
-2.8721296e-05
0.0012131532
-1.1915664e-05
0.0012011799
-1.7416723e-05
0.0011709205
-4.3860066e-05
0.0011311329
-8.2587538e-05
0.0010990271
-0.00012758958
0.0010932036
-0.00016239576
0.0011076423
-0.0001733223
0.0011042729
-0.00015104318
0.0010789083
-0.00014978572
0.001051211
-0.00014868671
0.0010207286
-0.00014817152
0.0009759725
-0.00015477515
0.00093317858
-0.00016001729
0.00091021807
-0.00018192618
0.00091696857
-0.0001996745
0.00094789892
-0.00016900804
0.00096323981
-0.00014035574
0.00094976951
-0.00010379513
0.00094382783
-0.00010221657
0.00092070092
-9.1772743e-05
0.00092007437
-7.3006177e-05
0.0008955482
-6.7436964e-05
0.00086546112
-5.959262e-05
0.00084844632
-5.2581869e-05
0.00083585403
-4.0092462e-05
0.00082417368
-5.5522147e-05
0.00082743069
-7.7497796e-05
0.00084491971
-6.1577265e-05
0.00083976241
-7.0558394e-05
0.00084704108
-4.9163622e-05
0.00083070966
-7.1456932e-05
0.0009703107
3.3459019e-06
0.00099594903
9.8178124e-05
0.0008892126
7.6672119e-05
0.00086819447
2.7232399e-05
0.00097021407
3.1435418e-05
0.0010212744
9.8885044e-05
0.00095046836
0.00013543959
0.00090606675
8.4951307e-05
0.00097423241
4.5627673e-05
0.0010752727
0.00010921035
0.0010870175
0.0001856174
0.0010614033
0.00019292613
0.0010241137
0.00010585116
0.0010469675
5.4579848e-05
0.0011075711
0.00010338514
0.001153765
0.0002092263
0.0011548923
0.00028092432
0.0011347286
0.00026323268
0.0011248553
0.00019301963
0.0011257647
0.00012128678
0.0011693732
0.00010230455
0.0001395048
0.0012251564
0.0011536838
-2.9976406e-05
0.0011484435
-2.0804452e-05
0.0011568946
-7.7130153e-06
0.0011451446
-1.3090519e-05
0.0011161033
-3.9807787e-05
0.001078077
-7.6079484e-05
0.0010474774
-0.00011638486
0.001042112
-0.00014715446
0.001057155
-0.00015566249
0.0010540798
-0.00013871749
0.0010307493
-0.00013411446
0.001004718
-0.00013311862
0.00097618273
-0.00013273807
0.00093466047
-0.00014097783
0.0008927552
-0.00014292293
0.00086889146
-0.00015755088
0.00087560243
-0.00018034776
0.00090338874
-0.00015934028
0.00092111025
-0.00012819652
0.00090738574
-0.00010335621
0.00090361302
-8.717687e-05
0.00088241503
-8.6255187e-05
0.00088073666
-6.8509071e-05
0.00086086589
-6.5125646e-05
0.00083258189
-5.5084527e-05
0.00081619804
-4.4346422e-05
0.00079869977
-3.251238e-05
0.0007831939
-4.9533557e-05
0.0007908444
-6.6222608e-05
0.00080249597
-6.1289758e-05
0.00080547075
-6.0513521e-05
0.00080095827
-5.5025508e-05
0.00079998083
-8.0828768e-05
0.00093372996
1.9764102e-05
0.00094914652
9.6684792e-05
0.00084618579
5.5609329e-05
0.00081971819
1.7532172e-05
0.00092786643
3.7439264e-05
0.00098424993
8.7764156e-05
0.00089906417
0.00010594967
0.00084648049
8.5947471e-05
0.0009379296
6.6744328e-05
0.001046986
0.00010114142
0.0010415713
0.00014012632
0.0009629972
0.00015351515
0.00093055542
0.00010747125
0.0010004569
7.2362781e-05
0.0011128542
9.6469471e-05
0.0011539294
0.00015381526
0.0011004342
0.00020267859
0.0010253434
0.000220346
0.00098811149
0.00018883407
0.0010243339
0.00014912291
0.0011180878
0.00012192298
0.00013381943
0.001221932
0.0010995946
-2.4257825e-05
0.0010942328
-1.3147419e-05
0.0011022599
-3.1282761e-06
0.0010907118
-8.8717269e-06
0.0010630167
-3.4744615e-05
0.0010268687
-6.9621895e-05
0.00099784463
-0.00010575908
0.00099298825
-0.00013353645
0.0010082557
-0.00014025027
0.0010058178
-0.0001263986
0.00098431388
-0.00012004866
0.00095971846
-0.00011745971
0.00093261825
-0.00011934909
0.00089426867
-0.00012678878
0.00085379739
-0.00012698371
0.000829208
-0.00014052932
0.00083616211
-0.00016540909
0.0008626435
-0.00014937389
0.00087975314
-0.00011277897
0.00086680246
-0.000107633
0.00086298427
-7.6344546e-05
0.00084417404
-7.7762966e-05
0.00084083076
-6.5478178e-05
0.00082514644
-6.3865684e-05
0.000798817
-5.1056246e-05
0.00078359296
-3.6517162e-05
0.00076313539
-3.0308477e-05
0.00074725357
-4.2325095e-05
0.00075585985
-5.3993687e-05
0.00076594877
-6.2873219e-05
0.00077114574
-5.0515489e-05
0.00075754494
-6.0106178e-05
0.0007751505
-8.1743312e-05
0.00089377832
2.9319879e-05
0.00090053929
9.4411073e-05
0.00081021525
3.6429384e-05
0.0007800886
-2.1863372e-06
0.00088004335
4.4767384e-05
0.00094340025
8.9654305e-05
0.00086719953
8.3740831e-05
0.00080003006
6.1873989e-05
0.00088512554
8.2826909e-05
0.00099411414
0.00010892616
0.0010036331
0.00011496837
0.00090721014
9.6988076e-05
0.00086406591
8.6967521e-05
0.00094337396
9.502049e-05
0.0010703644
0.00011449582
0.0011264952
0.00013128596
0.0010774255
0.00013519058
0.00097543535
0.00014147476
0.00091139412
0.00015190656
0.00093195342
0.00015302864
0.001030697
0.00015386292
0.00015891303
0.0011557969
0.0010500422
-1.8253317e-05
0.0010446655
-5.8498588e-06
0.0010521824
1.6153868e-06
0.0010407163
-3.9791643e-06
0.0010139855
-3.0136187e-05
0.00097934313
-6.3877745e-05
0.00095151732
-9.3554113e-05
0.00094669969
-0.0001210654
0.00096167696
-0.00012675332
0.00095986407
-0.00011656244
0.00094009391
-0.00010619745
0.00091687162
-0.00010309804
0.00089129964
-0.00010490789
0.00085572441
-0.00011224176
0.00081631135
-0.00011178853
0.00079089184
-0.00012901946
0.00079788351
-0.00014783723
0.00082409912
-0.00014097331
0.00083935333
-9.6079689e-05
0.00082996493
-0.00010363752
0.00082434441
-6.9385741e-05
0.00080735032
-7.1160381e-05
0.00080248627
-6.1260397e-05
0.00079033262
-6.1231885e-05
0.00076654888
-4.75489e-05
0.00075183264
-3.0514977e-05
0.00073020682
-3.0413843e-05
0.00071397941
-3.4578539e-05
0.00071925633
-4.1021835e-05
0.00073235356
-6.5361641e-05
0.00073544161
-4.5701818e-05
0.00071619914
-6.3179958e-05
0.00075123039
-7.381202e-05
0.00085271489
3.5496953e-05
0.00084811296
9.0592887e-05
0.00077110119
2.4378848e-05
0.00074722278
-1.9710623e-05
0.00083062954
4.5129409e-05
0.00089345995
9.9192672e-05
0.00083263506
6.9635564e-05
0.00077105244
3.2960592e-05
0.00082887305
7.8665664e-05
0.00092481378
0.00012334702
0.00094547505
0.00010765032
0.00087116917
6.0252881e-05
0.00082627012
4.7040947e-05
0.0008833362
9.7022288e-05
0.00099483503
0.00013458565
0.001055976
0.00013338617
0.0010363492
0.00010038404
0.00095764905
7.8048954e-05
0.00088060337
8.6539631e-05
0.00087792586
0.00012684379
0.00094578987
0.00016031542
0.00018809488
0.0010505043
0.0010049714
-1.2396509e-05
0.00099961086
1.3174499e-06
0.001006429
6.9511606e-06
0.0009949163
6.2093242e-07
0.00096893281
-2.444238e-05
0.00093551985
-5.730066e-05
0.00090843568
-8.1385716e-05
0.00090349082
-0.00011082727
0.00091780717
-0.00011394613
0.00091671512
-0.00010442114
0.00089845778
-9.5022526e-05
0.00087654597
-9.220194e-05
0.0008524233
-9.3386577e-05
0.00081949342
-9.7449441e-05
0.00078087473
-9.8282805e-05
0.0007550508
-0.00011769942
0.00076091919
-0.00013225393
0.00078811007
-0.00012805324
0.00080081919
-8.6381111e-05
0.00079575786
-9.0403534e-05
0.00078775498
-6.7299287e-05
0.00077229019
-6.7087453e-05
0.00076616633
-5.5578567e-05
0.00075659354
-5.4615197e-05
0.00073450001
-4.3271782e-05
0.00071895166
-2.7244734e-05
0.00069851573
-2.9879131e-05
0.00068219951
-2.7876904e-05
0.00068113958
-2.954083e-05
0.0006991519
-6.5436595e-05
0.00069851998
-4.6328473e-05
0.00067872754
-6.5796567e-05
0.00072734017
-6.1309359e-05
0.00081533705
3.5917633e-05
0.0007996157
8.4098072e-05
0.00073064538
1.6580156e-05
0.00072406671
-3.1767272e-05
0.00079126481
3.6195688e-05
0.00083980935
0.00011138007
0.00079153704
6.6908958e-05
0.00075075918
1.2786644e-05
0.00078891247
5.4816497e-05
0.00085530629
0.00012722607
0.00087789525
0.00011492447
0.00083024156
4.6120973e-05
0.00081326787
1.8404967e-05
0.00084322539
7.1721008e-05
0.00091823904
0.0001357757
0.00096486139
0.00014288976
0.00096516817
9.2450815e-05
0.00092568476
4.5001921e-05
0.00087938423
3.6061823e-05
0.00086247873
8.0116721e-05
0.00089687768
0.00014361411
0.00019472471
0.00095892201
0.00096109818
-7.0986687e-06
0.00095611339
8.2666794e-06
0.00096246037
1.1941984e-05
0.00095117468
5.8823811e-06
0.00092605616
-1.8547333e-05
0.00089403352
-4.8627297e-05
0.0008676091
-7.2405824e-05
0.00086282922
-9.8232848e-05
0.0008765698
-0.00010074483
0.00087602245
-9.4231104e-05
0.00085897797
-8.4117199e-05
0.00083824823
-8.2142808e-05
0.00081572165
-8.2535271e-05
0.00078508729
-8.3885788e-05
0.00074738195
-8.4679517e-05
0.00072134376
-0.00010337558
0.00072554552
-0.00011748187
0.00075284754
-0.00011273761
0.00076362392
-8.0198278e-05
0.00076169815
-7.3955261e-05
0.0007525935
-6.4658534e-05
0.00073865836
-6.1217167e-05
0.00073192483
-5.0582151e-05
0.00072475789
-4.5121522e-05
0.00070449209
-3.7160289e-05
0.00068771987
-2.4431333e-05
0.00066870861
-2.6923617e-05
0.00065230653
-2.1067616e-05
0.00064329327
-2.1516003e-05
0.00066639454
-6.006505e-05
0.0006618736
-4.8702863e-05
0.0006437832
-6.789879e-05
0.00069978007
-4.7330047e-05
0.00077842072
3.4703485e-05
0.00075345833
7.4235121e-05
0.00068977076
1.4647905e-05
0.00069986026
-3.3452245e-05
0.00076295849
2.5364746e-05
0.000788515
0.00011082069
0.00074456773
7.2446231e-05
0.00072577015
4.0207261e-06
0.00076705597
3.0946211e-05
0.00080125735
0.00011039893
0.00080791975
0.00012388457
0.00077601242
5.2285549e-05
0.00078938991
9.7910282e-06
0.00082255669
3.851257e-05
0.00086207939
0.00011041341
0.00087618393
0.0001391549
0.00087764452
0.00010183433
0.00086575667
3.6798368e-05
0.00086510317
1.473238e-05
0.00087262228
4.1216537e-05
0.00088313715
0.00010813993
0.00017414809
0.00090699998
0.00091912633
-2.1502555e-06
0.00091420908
1.5175624e-05
0.00092008301
1.7561293e-05
0.00090901626
1.0381181e-05
0.00088481158
-1.2427247e-05
0.00085409555
-3.8586259e-05
0.0008284428
-6.2673213e-05
0.00082388653
-8.4498104e-05
0.00083714749
-8.7366394e-05
0.00083736892
-8.2789611e-05
0.00082152939
-7.4142715e-05
0.00080197965
-7.3534805e-05
0.00078083253
-7.2648007e-05
0.000752158
-7.2589312e-05
0.00071557155
-7.1812408e-05
0.00068975284
-8.919616e-05
0.00069262188
-0.00010295699
0.00071914149
-9.6513867e-05
0.00072881833
-7.4344303e-05
0.0007279087
-5.6709245e-05
0.00071891988
-6.1036096e-05
0.00070632077
-5.6592558e-05
0.00070010247
-4.6808713e-05
0.00069466633
-3.4265554e-05
0.00067618553
-2.9915695e-05
0.00065858027
-2.2491519e-05
0.00064108755
-2.1364428e-05
0.00062496918
-1.662031e-05
0.00060810424
-1.6501198e-05
0.00063469067
-4.99159e-05
0.00062833925
-5.1162977e-05
0.00061383755
-7.0231925e-05
0.00067026461
-3.5094566e-05
0.0007429182
3.292946e-05
0.00071336099
6.2836166e-05
0.0006528143
1.2212302e-05
0.00067383642
-3.0281658e-05
0.00074163645
1.6658083e-05
0.00074426732
9.8642998e-05
0.0006939606
7.83861e-05
0.0006924414
7.1456154e-06
0.00074597335
1.7780949e-05
0.00076551314
7.8267467e-05
0.00074704758
0.00011843826
0.000719624
6.5750491e-05
0.00075003045
1.3788083e-05
0.00080232092
2.2968094e-05
0.00082784741
7.0998219e-05
0.00081378933
0.00011638878
0.00079385274
0.00010189754
0.00079691465
4.9872738e-05
0.00082574809
1.3526377e-05
0.00087159297
2.5511278e-05
0.00088933853
7.0577864e-05
0.00013225785
0.00088767922
0.00087761095
2.3665082e-06
0.00087296428
2.165807e-05
0.00087861212
2.2179009e-05
0.00086798815
1.4479713e-05
0.00084494092
-6.3235038e-06
0.00081562632
-3.0527084e-05
0.00079089329
-5.2448656e-05
0.00078652109
-6.9082934e-05
0.00079948751
-7.3191259e-05
0.00080047128
-6.9574858e-05
0.00078571172
-6.4092834e-05
0.00076727143
-6.426779e-05
0.00074734744
-6.3299916e-05
0.00072048941
-6.2891183e-05
0.00068512308
-6.0628372e-05
0.00065961388
-7.5501252e-05
0.00066140282
-8.9342872e-05
0.00068645479
-8.1263151e-05
0.00069597535
-6.9946586e-05
0.00069454255
-4.3441041e-05
0.00068677321
-5.383117e-05
0.00067526383
-5.3235497e-05
0.00066979388
-4.1947248e-05
0.00066509177
-2.5991118e-05
0.00064809696
-2.3507664e-05
0.00063135951
-2.0996535e-05
0.0006153981
-1.5491376e-05
0.00059995013
-1.2841001e-05
0.00057689924
-1.3698723e-05
0.00060413465
-3.6421603e-05
0.00059784543
-5.1899751e-05
0.0005878859
-7.186012e-05
0.00063969788
-2.650435e-05
0.00070808078
3.6750445e-05
0.00067687467
5.3331439e-05
0.00061829917
5.4654407e-06
0.00064384219
-2.3034825e-05
0.0007177704
1.5831733e-05
0.00070784034
8.1243806e-05
0.00064834157
7.1941254e-05
0.00065601925
1.9105995e-05
0.00071754487
1.5645976e-05
0.00074075838
5.2491395e-05
0.00070043503
9.355912e-05
0.00066764283
6.966366e-05
0.00070319409
2.8593631e-05
0.00076878847
2.2688128e-05
0.00080316911
4.7244934e-05
0.00077494793
7.7600723e-05
0.00073309852
8.4952134e-05
0.00073103851
5.6879922e-05
0.00077268805
2.9324944e-05
0.00084183238
2.7702877e-05
0.00088261471
5.1797672e-05
8.7846616e-05
0.00087273835
0.00083905616
6.6629567e-06
0.00083435165
2.8208736e-05
0.00083958292
2.5682722e-05
0.0008292908
1.8165589e-05
0.00080719788
-5.5875747e-08
0.00077907375
-2.181084e-05
0.00075523348
-4.3719562e-05
0.00075093688
-5.4820441e-05
0.00076357243
-6.0547016e-05
0.00076521632
-5.7814666e-05
0.0007515429
-5.4259909e-05
0.00073411313
-5.4742264e-05
0.00071527735
-5.4626189e-05
0.00069015649
-5.2971015e-05
0.0006561831
-5.1310252e-05
0.00063106343
-6.2648589e-05
0.00063201361
-7.6427913e-05
0.00065512388
-6.9754486e-05
0.00066534846
-6.2556173e-05
0.00066289572
-3.4201482e-05
0.00065646772
-4.5543882e-05
0.00064577051
-4.7404914e-05
0.0006407288
-3.7279569e-05
0.00063601845
-1.9535828e-05
0.00062047908
-1.9263925e-05
0.00060512088
-1.9875573e-05
0.00058975304
-8.1839117e-06
0.000575357
-9.5192189e-06
0.00054861518
-1.4180492e-05
0.00057318741
-2.0851504e-05
0.0005680248
-4.9406709e-05
0.00056347396
-7.4945127e-05
0.00060967276
-2.0286989e-05
0.00067265941
4.2391405e-05
0.00064317516
4.398511e-05
0.00058877943
-2.7703723e-06
0.00061262249
-1.8330153e-05
0.00069042569
2.3268535e-05
0.00067762557
6.5706987e-05
0.00061219895
5.476236e-05
0.00061844348
2.671953e-05
0.00068236128
2.1977664e-05
0.00071616385
4.3765977e-05
0.00066734821
6.0987409e-05
0.00062432719
5.6254299e-05
0.00065476594
4.1458212e-05
0.00072370707
3.266308e-05
0.00077004887
4.2475537e-05
0.00074756269
4.6171151e-05
0.00069133488
5.1753812e-05
0.00067833842
4.8449509e-05
0.00071711506
4.1367249e-05
0.00079332568
4.1655956e-05
0.00085183408
4.9559757e-05
6.0801502e-05
0.0008521743
0.00080143478
1.0556497e-05
0.00079701117
3.4413781e-05
0.00080207547
3.0739906e-05
0.00079225591
2.1518762e-05
0.00077121435
5.6218686e-06
0.00074431391
-1.2926443e-05
0.00072145956
-3.5587407e-05
0.00071712358
-4.2833892e-05
0.00072940466
-4.9350935e-05
0.00073154751
-4.6981553e-05
0.00071889207
-4.3347444e-05
0.00070235948
-4.502427e-05
0.0006844773
-4.4327663e-05
0.00066086458
-4.4445561e-05
0.00062838632
-4.2301513e-05
0.00060367488
-5.0548983e-05
0.00060388348
-6.3208805e-05
0.00062524204
-5.8838767e-05
0.00063643966
-5.2882527e-05
0.00063314051
-3.0728716e-05
0.00062796261
-3.5293107e-05
0.00061802492
-3.9817657e-05
0.00061328843
-3.2164838e-05
0.00060836414
-1.53072e-05
0.00059403914
-1.6468485e-05
0.00058090731
-1.8151964e-05
0.00056545997
-1.3229849e-06
0.00055219281
-5.9173796e-06
0.00052480636
-1.6331833e-05
0.00054403792
-7.9065186e-06
0.00054030208
-4.3264343e-05
0.00054181889
-7.5709504e-05
0.00058223485
-1.7793763e-05
0.00063805622
4.7236406e-05
0.00061170871
3.8605275e-05
0.00056236442
-1.252842e-05
0.00058367181
-1.5190263e-05
0.00066009487
3.5085552e-05
0.00064947038
5.3318329e-05
0.0005854234
3.0948334e-05
0.00058465383
2.6420736e-05
0.00064536542
3.6164627e-05
0.00068581996
4.5944875e-05
0.00064288139
3.6776799e-05
0.0005940683
2.7946208e-05
0.00061171052
4.1737975e-05
0.00067782315
4.802726e-05
0.00072686153
4.9430934e-05
0.00071927806
3.3282619e-05
0.00066496605
1.9119147e-05
0.00064071872
2.7519598e-05
0.00066767449
4.1653885e-05
0.00073573169
5.6011741e-05
0.00080090832
5.6640034e-05
4.8013831e-05
0.0008171082
0.00076700158
1.4254161e-05
0.00076258087
4.0344574e-05
0.00076726644
3.3702333e-05
0.00075770898
2.3854498e-05
0.00073743213
1.1239817e-05
0.00071146788
-4.4690952e-06
0.00068958466
-2.5274776e-05
0.00068518096
-3.1413177e-05
0.00069696576
-3.9822719e-05
0.00069945201
-3.6899204e-05
0.00068774059
-3.3905338e-05
0.00067226204
-3.5300457e-05
0.00065544772
-3.4806956e-05
0.00063328731
-3.5804071e-05
0.00060205334
-3.4577427e-05
0.00057744358
-3.9990348e-05
0.00057672356
-5.1807551e-05
0.00059652883
-4.8909421e-05
0.00060839611
-4.3421018e-05
0.00060486049
-2.8634835e-05
0.00060026404
-2.4511369e-05
0.00059114521
-3.1427641e-05
0.00058668553