/*--------------------------------*- C++ -*----------------------------------*\
| =========                 |                                                 |
| \\      /  F ield         | OpenFOAM: The Open Source CFD Toolbox           |
|  \\    /   O peration     | Version:  2406                                  |
|   \\  /    A nd           | Website:  www.openfoam.com                      |
|    \\/     M anipulation  |                                                 |
\*---------------------------------------------------------------------------*/
FoamFile
{
    version     2.0;
    format      ascii;
    arch        "LSB;label=32;scalar=64";
    class       volScalarField;
    location    "34";
    object      rho_0;
}
// * * * * * * * * * * * * * * * * * * * * * * * * * * * * * * * * * * * * * //

dimensions      [1 -3 0 0 0 0 0];

internalField   nonuniform List<scalar> 
62344
(
1.0056529
1.0120103
1.0108553
1.0112082
1.0139171
1.017491
1.0207365
1.0221832
1.0207654
1.0185145
1.0174895
1.0174235
1.0180197
1.0194833
1.0213406
1.0221607
1.0221985
1.0214337
1.0190813
1.0186295
1.0192165
1.018885
1.0200962
1.0219823
1.0201986
1.0221606
1.0204725
1.0201793
1.0178964
1.020332
1.0188939
1.0211948
1.0201271
1.0192975
1.0129487
1.0050519
1.01335
1.0232267
1.0208914
1.0074614
0.99700271
1.0013138
1.0196761
1.0315874
1.0237719
1.0070137
0.99812832
1.0000402
1.0106919
1.0182846
1.02037
1.0090356
1.0005552
1.0006746
1.0036767
1.0056463
1.0119894
1.0108619
1.0111843
1.0139982
1.0176252
1.020938
1.0224692
1.0211606
1.0187502
1.017822
1.0178771
1.018122
1.0196513
1.0214566
1.0223582
1.0226219
1.0210945
1.0192451
1.019138
1.019591
1.0196845
1.0204294
1.0217764
1.0215234
1.0227011
1.020799
1.0208963
1.0183048
1.0209162
1.0187558
1.0216879
1.0199897
1.0187191
1.0130629
1.0073628
1.0149346
1.0209548
1.0164983
1.0078467
1.0000893
1.00492
1.0200238
1.0279795
1.018946
1.0036102
1.0009892
1.0083113
1.0206343
1.0277371
1.0255336
1.012889
0.99301333
0.98523919
0.99021168
1.005643
1.011991
1.0108596
1.0112044
1.0140969
1.0177682
1.0211255
1.0226876
1.0213996
1.0190295
1.0179905
1.0182041
1.0184133
1.0199464
1.021887
1.022786
1.0230408
1.0212869
1.0194678
1.0192834
1.0201482
1.0201447
1.0212888
1.0211463
1.0224767
1.0236332
1.0216004
1.0211904
1.0191446
1.0214199
1.0191651
1.0216949
1.0196713
1.0188181
1.012707
1.0092935
1.0154154
1.0185907
1.0130687
1.0060434
1.0053629
1.0103527
1.0180606
1.0202478
1.0140313
1.0040628
1.0046799
1.0147493
1.0257857
1.0301244
1.0215245
1.0092334
0.9958771
0.98751777
0.98820896
1.0056288
1.0119901
1.0108655
1.0112451
1.014199
1.0178711
1.0213203
1.0229293
1.021636
1.0192726
1.0183165
1.0186332
1.0188708
1.0204692
1.0223529
1.0235152
1.0233877
1.0218335
1.0196137
1.019507
1.0203274
1.0201551
1.0218699
1.0210902
1.0226802
1.0237783
1.0227692
1.0216181
1.0202872
1.021721
1.0200334
1.0215674
1.0191627
1.0192974
1.0125066
1.0101158
1.0164893
1.0178669
1.0101758
1.0041949
1.0095951
1.01655
1.0165975
1.0119215
1.0093121
1.0082437
1.0093462
1.0175832
1.0228083
1.0235157
1.016477
1.0086104
1.0034586
1.0006092
0.99996295
1.0056325
1.0119891
1.0108848
1.0113264
1.0142887
1.018012
1.0215839
1.0232341
1.0218773
1.0196211
1.0187199
1.0190185
1.0193511
1.0209086
1.0228451
1.0241126
1.0237663
1.0222576
1.0199036
1.0195844
1.0203665
1.0201354
1.0214884
1.0211883
1.0227644
1.0233379
1.0234775
1.0220772
1.021559
1.0216725
1.0207272
1.0215192
1.0189068
1.0196708
1.0121608
1.0106446
1.0168109
1.0181914
1.0096274
1.0032165
1.010924
1.0208616
1.0167869
1.0063645
1.0038441
1.0114658
1.0177533
1.0196719
1.017765
1.0120217
1.008156
1.0087859
1.0122677
1.0154555
1.0152316
1.0056346
1.0119889
1.0109042
1.0114316
1.0144091
1.0181991
1.0218406
1.0235615
1.0222067
1.0200281
1.0191516
1.0193763
1.0197324
1.0211124
1.0231834
1.0244756
1.0241137
1.0224949
1.0200883
1.0195781
1.0200309
1.0201753
1.0207422
1.0208425
1.0227815
1.0229042
1.0236224
1.0222834
1.0226343
1.0214227
1.0211657
1.021239
1.0190862
1.0193792
1.0115972
1.0112006
1.0167843
1.0176811
1.0108806
1.0043131
1.0106617
1.0209725
1.0178464
1.0046168
0.99971666
1.0094007
1.0229612
1.0245195
1.0164412
1.0054027
1.0013832
1.0070508
1.0169212
1.0244243
1.0268771
1.0056435
1.0119716
1.0109026
1.011496
1.0145083
1.0183933
1.0221016
1.0238869
1.0226311
1.0203895
1.0195645
1.019675
1.0200277
1.0211851
1.0233738
1.0247108
1.0244582
1.0227408
1.0201424
1.0196974
1.0196891
1.0202674
1.0205323
1.0204299
1.0227856
1.0229027
1.0237514
1.0225227
1.0234142
1.0213859
1.0214609
1.0207278
1.0198679
1.0188383
1.0107009
1.0120237
1.01683
1.0165721
1.0116223
1.0074933
1.0112501
1.0183384
1.016613
1.0061784
1.0001302
1.0069817
1.0197114
1.0259053
1.0185411
1.0068249
1.0013704
1.0049369
1.015168
1.0253938
1.0294633
1.0056611
1.011969
1.0109097
1.0115561
1.0146309
1.0185525
1.0223171
1.0242066
1.0229569
1.0206871
1.0199277
1.0199165
1.0201686
1.0212485
1.0234594
1.0248242
1.0247479
1.0228991
1.0201521
1.019862
1.0196518
1.0202962
1.0207955
1.0203409
1.0227073
1.0231869
1.0240696
1.0231794
1.023846
1.0216764
1.021821
1.0202169
1.0210685
1.0182743
1.0097646
1.0128025
1.0175608
1.0156883
1.0109285
1.0106688
1.0134737
1.0155937
1.0128107
1.0080314
1.0046375
1.0076126
1.0141201
1.0196726
1.0179747
1.0116903
1.0078982
1.0083578
1.0135648
1.0194634
1.023629
1.005679
1.0119675
1.0109294
1.0116177
1.0147263
1.0186879
1.0224831
1.0243917
1.0231804
1.0208595
1.0201306
1.0200994
1.0202457
1.0213659
1.0235059
1.024962
1.0249591
1.0228969
1.0202618
1.0199845
1.0199623
1.0203478
1.0211798
1.0207668
1.022767
1.023577
1.0245126
1.0242165
1.0242928
1.0222922
1.0223047
1.0201429
1.0223284
1.0178577
1.0093026
1.0133534
1.0190425
1.0157774
1.0096588
1.0118295
1.0165153
1.0149324
1.0090725
1.0076065
1.0096866
1.0112341
1.0122107
1.0111957
1.0112594
1.0131136
1.0156302
1.0162852
1.0162734
1.0154282
1.0139651
1.0056812
1.0119681
1.0109556
1.0116592
1.0147935
1.0187719
1.0225751
1.0245517
1.0233538
1.021047
1.020288
1.0203404
1.0204023
1.0215767
1.0236942
1.0252257
1.0252354
1.0229676
1.0204927
1.0200999
1.0204351
1.0205657
1.0215487
1.0213386
1.0229591
1.0238962
1.0248778
1.0253203
1.0247479
1.023044
1.022803
1.0207573
1.0231932
1.01748
1.0096695
1.0137172
1.0202832
1.0167529
1.0090095
1.0111154
1.0184306
1.0163745
1.0078247
1.0054078
1.0112948
1.0161275
1.0140448
1.0070809
1.0035963
1.0091635
1.0180579
1.0236945
1.0229153
1.0169407
1.0098206
1.0056747
1.0119696
1.0109774
1.0116952
1.0148505
1.0188367
1.0226511
1.0247024
1.0235302
1.0212499
1.0204219
1.0205935
1.0206752
1.0218599
1.0239517
1.0256232
1.0257046
1.0232655
1.0208488
1.0201074
1.0207987
1.0209016
1.0217685
1.0217386
1.0232101
1.0241681
1.0250915
1.0261364
1.0252535
1.0237035
1.0231618
1.0218006
1.0235269
1.0170476
1.0104742
1.014279
1.0206424
1.017925
1.0094091
1.0100348
1.0183571
1.0181345
1.0090284
1.0044118
1.009887
1.0182264
1.0168666
1.0074282
1.0007478
1.0036685
1.0144525
1.024715
1.0272464
1.0221687
1.0122395
1.0056674
1.0119787
1.0109906
1.0117266
1.0148932
1.0188523
1.0227218
1.0248392
1.0237064
1.0214264
1.0205768
1.0207974
1.0209787
1.0221347
1.0241791
1.0260452
1.0261269
1.02356
1.0212485
1.0201518
1.0209737
1.021224
1.0218879
1.0218421
1.0232749
1.0242731
1.0250814
1.0264564
1.0257621
1.0242533
1.023254
1.0229719
1.0234156
1.0165244
1.0113387
1.0150439
1.0202984
1.0182597
1.0105473
1.0097075
1.0170623
1.0184599
1.0114611
1.0054888
1.0086675
1.016396
1.0175776
1.0100445
1.0023363
1.0020899
1.0088751
1.0198927
1.0259071
1.0244977
1.0174358
1.0056621
1.0119875
1.0109991
1.0117443
1.0149393
1.0188847
1.022775
1.0249875
1.0238981
1.021591
1.0207738
1.0209892
1.0212301
1.0223058
1.0243039
1.026341
1.0264261
1.0237848
1.0215053
1.0203245
1.0207955
1.0213499
1.0219032
1.0217066
1.0230499
1.0241109
1.0248796
1.0263285
1.026304
1.0247393
1.0231819
1.0240119
1.0231277
1.0159034
1.0120489
1.0160402
1.0197545
1.0174731
1.0115565
1.0105472
1.0158886
1.0168915
1.0132792
1.0079323
1.0092196
1.0134216
1.0150549
1.0116992
1.0061918
1.0043028
1.0067321
1.0133109
1.0196653
1.0215622
1.0193436
1.0056582
1.0120001
1.0110133
1.0117634
1.0149903
1.0189241
1.0228338
1.0251355
1.0240803
1.0217955
1.0209905
1.0211624
1.0214391
1.0223776
1.0243116
1.0264965
1.0266166
1.0240009
1.0215885
1.0205779
1.0205033
1.0212698
1.0217708
1.0213324
1.0225656
1.0236526
1.0245686
1.0258454
1.0267385
1.0251546
1.0230845
1.0246957
1.0229671
1.0153902
1.0123856
1.0170511
1.0192977
1.0160769
1.0118698
1.0122343
1.0154883
1.0146756
1.0131336
1.0107921
1.0112392
1.0122854
1.0112421
1.0106831
1.0095183
1.0087068
1.0084591
1.0099244
1.0120512
1.0147237
1.0166389
1.0056535
1.0120059
1.0110138
1.0117767
1.0150335
1.0189704
1.0228875
1.0252716
1.0242353
1.0219712
1.0211999
1.0212972
1.0216101
1.0223857
1.0242626
1.0265412
1.0267114
1.0242301
1.0215126
1.020711
1.020248
1.0210457
1.0214893
1.0209798
1.0219733
1.0231353
1.0242742
1.0251847
1.0270322
1.0255496
1.0230961
1.0249871
1.0229755
1.0151373
1.0125602
1.017776
1.0194148
1.0146615
1.0112842
1.0141319
1.0160275
1.0133059
1.0111741
1.0124724
1.0143138
1.013229
1.0090839
1.0077236
1.0100771
1.0126357
1.0126558
1.0104618
1.0076539
1.0073004
1.0109725
1.0056502
1.0120123
1.0110328
1.0118045
1.0150742
1.0190161
1.0229537
1.0253635
1.0243831
1.0221567
1.0213811
1.021392
1.0217201
1.022379
1.0241958
1.026554
1.0267978
1.0244427
1.0215108
1.0208242
1.0201589
1.0207453
1.0211347
1.0207738
1.0215059
1.0226759
1.0240828
1.0246568
1.0271994
1.0259823
1.0233312
1.0249204
1.0230419
1.0152317
1.0127454
1.0181583
1.0198956
1.0137426
1.0101671
1.0152707
1.0172238
1.0132271
1.008957
1.012221
1.0168694
1.0155611
1.0094754
1.0052923
1.008136
1.0140138
1.0166975
1.0134477
1.0074758
1.0028884
1.0049152
1.0056431
1.0120217
1.0110523
1.0118242
1.015101
1.0190608
1.0230409
1.0254054
1.0245188
1.0223053
1.0215428
1.0215211
1.0218264
1.0223697
1.0241753
1.0265436
1.0269031
1.0246489
1.021533
1.0208156
1.0202109
1.020523
1.0208597
1.0207229
1.0212622
1.0223378
1.0240019
1.0243575
1.0272916
1.0263636
1.0238418
1.0246939
1.0230077
1.0155774
1.0129796
1.0182473
1.020474
1.0134531
1.0091746
1.0153624
1.0186162
1.0140085
1.0079206
1.0104467
1.0177972
1.017993
1.0114589
1.0049514
1.0055904
1.0127702
1.0183193
1.0168371
1.0096243
1.0023861
1.0009031
1.0056398
1.0120317
1.0110855
1.01186
1.0151144
1.0190843
1.0230816
1.0254593
1.0246487
1.0224336
1.0216518
1.021615
1.0219009
1.0223451
1.0241306
1.0265618
1.0269898
1.024842
1.0215861
1.0207266
1.0203828
1.0203793
1.0206848
1.0207527
1.0211683
1.022126
1.0239807
1.0242802
1.0273334
1.0267249
1.0245289
1.0244911
1.0228414
1.0160153
1.0134333
1.0181553
1.0207581
1.0137806
1.0088543
1.0146153
1.019461
1.0152079
1.0082149
1.0087754
1.016937
1.0193271
1.0139633
1.0062891
1.0044766
1.0100614
1.0173408
1.0182895
1.0123442
1.0042152
1.0001089
1.0056378
1.012039
1.0111173
1.0118931
1.0151197
1.0190799
1.0230755
1.0255217
1.0247671
1.0225385
1.0217293
1.0216749
1.0219285
1.022336
1.02407
1.0265678
1.027071
1.0250052
1.0217035
1.0206029
1.020567
1.0202856
1.0206144
1.0208027
1.0211858
1.0220232
1.023933
1.0243617
1.0273005
1.0270515
1.0253831
1.0244741
1.0225141
1.0164608
1.014135
1.0180714
1.0204571
1.0142191
1.0092475
1.013634
1.0193345
1.0162573
1.0092313
1.0084613
1.0147496
1.0190291
1.0156918
1.0083754
1.0049478
1.0079646
1.0142802
1.0172792
1.0138202
1.0070841
1.0016846
1.005641
1.0120467
1.0111401
1.011921
1.0151174
1.0190587
1.0230481
1.0255652
1.0248598
1.0226053
1.0217987
1.021741
1.0219582
1.022333
1.0240067
1.0265347
1.0271664
1.0251129
1.0218373
1.0205194
1.0207114
1.0202583
1.0206442
1.0208486
1.0212813
1.0219893
1.0238706
1.0245699
1.0271728
1.027286
1.0263161
1.0247428
1.0221878
1.0167658
1.014918
1.0182113
1.0198684
1.0145802
1.0101402
1.0131269
1.0181958
1.0167227
1.0106271
1.0094617
1.0130354
1.0170981
1.0159984
1.0106346
1.0066105
1.0074471
1.0109683
1.0141382
1.0136786
1.0093956
1.0045447
1.0056414
1.0120526
1.0111693
1.0119408
1.0151055
1.0190371
1.0230226
1.0255811
1.0249439
1.0226837
1.0218348
1.0217983
1.0219767
1.0223337
1.0239707
1.0264899
1.0272777
1.0252179
1.0220286
1.0205293
1.0207957
1.0203236
1.0207868
1.020908
1.0214553
1.0220374
1.0237759
1.0248675
1.0270609
1.0273925
1.0272012
1.0252778
1.021912
1.0169554
1.015746
1.0186495
1.0191474
1.0149572
1.0111628
1.01327
1.0167082
1.0165001
1.0118785
1.011154
1.012507
1.0147688
1.0147212
1.0120835
1.0090809
1.0083748
1.0091719
1.0104562
1.01194
1.0101736
1.007294
1.005649
1.0120571
1.0111925
1.0119572
1.015088
1.0190095
1.0229854
1.0255944
1.0250257
1.0227601
1.0218715
1.0218563
1.0219923
1.0223564
1.0239618
1.0264728
1.0274587
1.0253696
1.0222721
1.02068
1.0208433
1.0205147
1.021034
1.0210396
1.0217261
1.022187
1.0236906
1.0252579
1.0270543
1.0274451
1.0280687
1.0260884
1.0217966
1.0171625
1.0165781
1.019463
1.0186738
1.015088
1.0123993
1.014191
1.0156242
1.0154249
1.0132196
1.0128176
1.0133279
1.0130578
1.012628
1.0125622
1.0116148
1.0105965
1.0094026
1.0083789
1.0091256
1.0095915
1.0090712
1.0056474
1.0120585
1.0112034
1.0119743
1.0150776
1.0189949
1.0229659
1.0256114
1.0251114
1.0228435
1.0219297
1.0219553
1.0220584
1.0224412
1.0240355
1.026526
1.0277221
1.0256036
1.0225837
1.0209731
1.0209218
1.0208386
1.0213902
1.021221
1.022059
1.0224404
1.0236717
1.0256641
1.0271543
1.0274911
1.0289385
1.0270979
1.0218727
1.0173901
1.0172859
1.0203521
1.0186343
1.0151071
1.0135047
1.0154115
1.0154417
1.0139861
1.0141785
1.0145001
1.0151924
1.0126145
1.0106142
1.0117394
1.0133547
1.013716
1.0113852
1.0080269
1.0070193
1.0080172
1.0097161
1.005661
1.0120685
1.0112356
1.0120264
1.0151147
1.0190397
1.023025
1.0257301
1.0252676
1.0230038
1.0220841
1.0221523
1.0222486
1.0226559
1.0242452
1.0267709
1.0281413
1.0260092
1.0230251
1.0214251
1.0210633
1.021232
1.0217907
1.0214173
1.0224194
1.0227475
1.0236586
1.0260794
1.0273874
1.0275592
1.0297307
1.0282035
1.0221905
1.0176258
1.0178775
1.0210897
1.0188558
1.0148569
1.0144972
1.0166042
1.0159879
1.0126654
1.0142132
1.016294
1.0171257
1.0133028
1.0091425
1.0100807
1.0140573
1.0164501
1.0142827
1.0092721
1.0059076
1.0063982
1.0094648
1.0056865
1.0121126
1.0113409
1.012176
1.0152803
1.019221
1.0232028
1.0258956
1.0255523
1.0232911
1.0223856
1.0224858
1.0225667
1.0229768
1.0245162
1.0270279
1.028601
1.0265374
1.0235882
1.0219621
1.0213224
1.0217159
1.0221822
1.0216349
1.0227661
1.0230427
1.0236093
1.0263126
1.0275736
1.027472
1.0302572
1.0293066
1.0228179
1.0177948
1.0185631
1.0220573
1.0193933
1.0147884
1.0151074
1.0177614
1.0166884
1.01238
1.0133245
1.0175638
1.019338
1.0144668
1.0088086
1.0082095
1.0135428
1.0181223
1.0173276
1.0116394
1.0060287
1.0050667
1.0086628
1.0058608
1.0122901
1.0116171
1.0125295
1.0156721
1.0196061
1.0235576
1.0261736
1.0258829
1.0235971
1.0227011
1.0228345
1.0229054
1.0233197
1.0248826
1.0273576
1.0290985
1.0270642
1.0239979
1.0224412
1.0215425
1.0220802
1.022516
1.0218254
1.0229992
1.0232749
1.0235168
1.0263728
1.0276562
1.0273992
1.030459
1.0301564
1.0235508
1.0173367
1.0187448
1.0223675
1.0201536
1.0146456
1.0151319
1.0184474
1.0174767
1.012453
1.0121494
1.0175889
1.0210105
1.0160621
1.0094544
1.0064538
1.011891
1.0181804
1.0193003
1.0144184
1.0070588
1.0038188
1.0068968
1.0062517
1.012704
1.012164
1.0130255
1.0161423
1.0200066
1.0238434
1.0263405
1.0260641
1.0237632
1.022858
1.0230127
1.0230867
1.0234695
1.0249592
1.0274172
1.0293211
1.027483
1.0244371
1.0228321
1.0217791
1.0223182
1.0227561
1.021982
1.023128
1.0234457
1.0234051
1.0261512
1.0276669
1.027155
1.0301346
1.0306703
1.0247919
1.0177857
1.0186337
1.0220207
1.0209082
1.0155369
1.0147674
1.0183628
1.0182762
1.0132464
1.0116703
1.0168046
1.0210021
1.0178181
1.0111981
1.0068613
1.0100768
1.0170003
1.0193869
1.016382
1.0097424
1.0045781
1.0054229
1.0118137
1.0136981
1.0146608
1.0135341
1.0114037
1.0080205
1.0043158
1.001773
1.0013939
1.0034531
1.0075773
1.0126109
1.0159319
1.0164631
1.0131608
1.0072781
1.0031888
1.0049821
1.0127486
1.0217152
1.0259667
1.0219166
1.0113825
1.0022772
0.99965132
1.0062571
1.0095935
1.0178986
1.0175752
1.0152898
1.0122935
1.0090402
1.0066681
1.006301
1.0081907
1.0120252
1.0170266
1.0214852
1.0237699
1.0227153
1.0175631
1.010714
1.0060647
1.0055958
1.008623
1.011779
1.013437
1.012021
1.0047337
0.99769867
1.0015653
1.0175063
1.0295154
1.0182834
1.0108909
1.0082884
1.0057974
1.0043552
1.0046261
1.0065074
1.0104463
1.0161535
1.0223622
1.0268463
1.0281383
1.0256583
1.0201114
1.0150083
1.0134959
1.0156486
1.0187181
1.0194351
1.0170241
1.0112743
1.0007985
0.98815852
0.98315332
0.99574816
1.0249755
1.0407466
1.0200572
0.99728278
0.99562039
0.99738623
1.0002882
1.0039966
1.0085929
1.0133515
1.0174415
1.0198741
1.0200949
1.0172855
1.0129425
1.009591
1.0104567
1.0158061
1.0226495
1.0275511
1.0276838
1.0224222
1.0122866
0.99870709
0.9868964
0.98543467
0.99940092
1.0196148
1.0243165
1.0065793
0.99799291
1.0001154
1.0045321
1.0079863
1.01126
1.0132989
1.0137522
1.0126975
1.0097581
1.0059641
1.0017271
0.99997692
1.0016822
1.006757
1.0132026
1.0198204
1.0237204
1.0231385
1.0163183
1.0059586
0.99847958
0.99791178
1.0051093
1.0168586
1.0158817
0.99613625
0.9857461
1.0148679
1.0200608
1.0227131
1.0230269
1.021342
1.0179542
1.0138224
1.0098295
1.0061396
1.00343
1.0027334
1.0041755
1.0063739
1.0089356
1.0113829
1.0129967
1.0122026
1.0063195
0.99664906
0.99009698
0.99324101
1.0080463
1.0277094
1.0349754
1.0172267
0.9836812
0.97881428
1.0317341
1.0329886
1.0304368
1.0274631
1.0239202
1.0203967
1.0177724
1.0159512
1.0157492
1.0172116
1.0195545
1.0211632
1.0215751
1.0205465
1.0179074
1.012828
1.0040762
0.99204463
0.98106486
0.97735514
0.98687868
1.0103219
1.0327243
1.034136
1.012742
0.99137723
0.99384612
1.0249874
1.0227741
1.0205674
1.0185863
1.0173182
1.0171453
1.018608
1.0221605
1.0269738
1.0313405
1.0351658
1.0368534
1.0358038
1.0321099
1.0259684
1.0165697
1.0052093
0.99317429
0.98442489
0.98415864
0.99458754
1.0094981
1.017227
1.0071871
0.99546069
1.0023038
1.0221294
1.0084267
1.0059248
1.0057989
1.0066362
1.0088475
1.0120711
1.0159964
1.0201703
1.0244924
1.0291534
1.0326633
1.0341001
1.0323604
1.0277144
1.0204238
1.0129031
1.0072168
1.0042918
1.0054076
1.0110643
1.0176912
1.0167607
1.0004285
0.97764926
0.97537471
1.0035976
1.0437863
1.0029439
1.0038544
1.0063423
1.0089425
1.0107167
1.0120691
1.0138249
1.015731
1.017865
1.0190069
1.0184957
1.0160958
1.0109754
1.0039803
0.99766542
0.99538739
0.99981882
1.0110549
1.0266752
1.0399835
1.040918
1.0266226
0.99792882
0.97449884
0.97702602
1.0052014
1.0370979
1.013095
1.0153274
1.0172866
1.0187444
1.0198232
1.0201137
1.0201331
1.0196421
1.018182
1.0151622
1.0098794
1.0016279
0.99138211
0.98228926
0.97721667
0.97937482
0.99072118
1.0100955
1.0305869
1.0421575
1.0389789
1.0224835
1.0057459
0.9991845
1.0066695
1.0179194
1.0159097
1.0250043
1.027751
1.0294546
1.0303976
1.0301236
1.0289711
1.0270421
1.0243465
1.0203341
1.0146921
1.0073457
0.99846936
0.9897819
0.98306562
0.98170759
0.9870697
0.99963878
1.0130991
1.0204714
1.0171379
1.0045799
0.99782732
1.0056342
1.0280598
1.0487701
1.0419538
1.0028876
1.0344667
1.0353635
1.0349799
1.0347417
1.0332044
1.0303844
1.0260543
1.0208208
1.0149966
1.0092063
1.0038486
1.0005928
0.99923498
1.0010673
1.00704
1.0163151
1.0240199
1.0253161
1.0128873
0.99002315
0.97327503
0.97313214
0.99595661
1.0356888
1.0655052
1.0499728
1.005432
1.0350997
1.0343173
1.0329587
1.030065
1.02519
1.0190375
1.0125598
1.0070006
1.0033447
1.0021969
1.0037846
1.0078798
1.015122
1.0252871
1.0355137
1.041898
1.0413911
1.0315523
1.0108541
0.98697374
0.97216275
0.97565156
0.99675026
1.023139
1.0385854
1.0220885
1.0098973
1.0220829
1.0194394
1.0163613
1.0119153
1.0068004
1.0017995
0.99784944
0.9956652
0.99673923
1.0020059
1.0112547
1.024052
1.0374874
1.0466021
1.0486384
1.0443537
1.0335704
1.0191826
1.0056595
0.99935052
0.99977884
1.0080286
1.0184776
1.017615
0.99653571
0.97860252
0.99607666
0.99404596
0.99017244
0.98778335
0.98553002
0.98382662
0.9837516
0.98626061
0.99209081
1.0022078
1.0161508
1.0321218
1.0451591
1.0504345
1.0483819
1.0394595
1.0252166
1.0111015
1.0024834
1.002577
1.0115986
1.030358
1.0492442
1.0504538
1.0234416
0.9779606
0.95910509
0.97610588
0.96557542
0.96291721
0.96344714
0.9651609
0.96865066
0.97492797
0.98456076
0.99783617
1.0130491
1.0276897
1.0384202
1.0442732
1.0418114
1.0310753
1.0151293
1.0008673
0.99362335
0.99802986
1.0112038
1.0313075
1.0544228
1.0668143
1.058356
1.0266011
0.99193731
0.97978424
0.98821492
0.95398612
0.95425348
0.96090239
0.96768461
0.97658037
0.98728621
0.99754838
1.0062443
1.0123338
1.015568
1.0160881
1.0114226
1.003191
0.99420431
0.9875156
0.98600029
0.99223305
1.0073131
1.0309056
1.054604
1.0646616
1.0582979
1.0355565
1.0153473
1.0147525
1.0277809
1.0410746
0.97691764
0.98363427
0.99175125
0.99978928
1.0054131
1.0069445
1.0049084
1.0010179
0.99548516
0.98802859
0.98013463
0.97257625
0.96496296
0.96084451
0.96283703
0.97354422
0.99367863
1.0233397
1.051567
1.063414
1.0559084
1.0304876
1.007698
1.0035007
1.026849
1.0712851
1.1030795
1.0393531
1.0432614
1.0421278
1.0368665
1.0280749
1.016807
1.0037651
0.98951154
0.9762593
0.96608486
0.95838339
0.95215652
0.95134195
0.95413937
0.96218803
0.97762128
1.0008169
1.0262502
1.0433336
1.0436525
1.0234844
0.99955439
0.99063199
1.0038782
1.0411349
1.094161
1.1203793
1.0670259
1.0685162
1.0635807
1.0552048
1.0422655
1.0259827
1.008944
0.99325844
0.97967813
0.96858711
0.9629542
0.96299561
0.96763061
0.97659393
0.98929957
1.0037192
1.0154307
1.0188486
1.0109776
0.99410014
0.97740159
0.97461908
0.98773263
1.0175879
1.0602884
1.0925275
1.083539
1.0379994
1.0340131
1.0299373
1.0251276
1.0202309
1.0155878
1.0107005
1.0057085
1.0023755
1.0022017
1.0051103
1.0111838
1.0200776
1.0289365
1.0338248
1.0300711
1.0179471
1.000735
0.97972762
0.957609
0.95030502
0.96126704
0.99294428
1.0370023
1.0684434
1.0708273
1.0278832
0.98344584
0.97982344
0.97907718
0.97796317
0.97653307
0.97722711
0.9828647
0.99394711
1.0099506
1.0306768
1.0547767
1.0779852
1.0915497
1.0912227
1.0727452
1.0440943
1.013084
0.98492195
0.96190662
0.95161795
0.95654326
0.97585728
1.0097219
1.0472484
1.058912
1.0303555
0.98983779
0.94464129
0.94252195
0.94304049
0.94492917
0.9495644
0.95674993
0.96732252
0.98296648
1.0054735
1.0342866
1.0660657
1.0934244
1.1077672
1.10316
1.0824075
1.0507564
1.0165793
0.98843494
0.97373003
0.97484944
0.98779149
1.0142854
1.0396089
1.0457817
1.0245092
0.98805415
0.9766212
0.93006791
0.93261033
0.93848924
0.94639911
0.95567199
0.96792859
0.98253261
1.0004143
1.0175489
1.0320709
1.0425983
1.0479918
1.0489966
1.0450709
1.0369992
1.0275815
1.0190127
1.0147302
1.017711
1.0269898
1.0442316
1.0611777
1.0601446
1.0294786
0.98528151
0.95657745
0.97786945
0.95638054
0.96333562
0.97132588
0.98178307
0.9927526
1.0024931
1.0091646
1.0118036
1.0113116
1.0087339
1.0053117
0.99849067
0.9891096
0.97932074
0.97451358
0.97868224
0.99657132
1.0274462
1.0624118
1.0944996
1.1122366
1.1015844
1.0612586
1.0074547
0.96014394
0.9498089
0.98099599
1.0299968
1.034442
1.0376692
1.0375025
1.0330485
1.024351
1.0124044
0.99967492
0.98697066
0.97560292
0.9668264
0.96048243
0.95480901
0.94996876
0.94831012
0.95613909
0.97829682
1.0189803
1.0761914
1.1287094
1.145747
1.1182704
1.0602313
0.99720416
0.95900465
0.96339194
0.99233316
1.1065361
1.1033259
1.0940323
1.0777231
1.0569646
1.0334411
1.0101219
0.98797117
0.96965254
0.95686641
0.94985982
0.94561528
0.94313423
0.94617807
0.95392691
0.96854933
0.99111747
1.0242487
1.0665854
1.1046861
1.1179121
1.0966223
1.0551368
1.010519
0.99007077
0.99478339
1.0226717
1.1171353
1.1123237
1.1039862
1.0891034
1.0689629
1.0451581
1.0204077
0.9974682
0.97809194
0.96456677
0.95753874
0.95724684
0.96253857
0.97084608
0.98186348
0.99680114
1.0175703
1.0384813
1.051414
1.0553213
1.050682
1.0428252
1.0362697
1.032562
1.0385719
1.0460766
1.0769261
1.073764
1.0679576
1.0636284
1.05806
1.0506165
1.0418288
1.0316974
1.0207523
1.0103607
1.0027082
1.0003171
1.0034654
1.0102691
1.0190069
1.0271448
1.0349795
1.0405353
1.0397739
1.0291746
1.0093767
0.99173258
0.98918919
1.0057852
1.0401449
1.0788277
1.1073457
1.1403084
1.0126623
1.0103797
1.0095428
1.0085218
1.0080498
1.010311
1.0158461
1.0241056
1.0349535
1.049335
1.0650765
1.0782364
1.0862219
1.0885947
1.0849698
1.0731578
1.05424
1.0299032
1.0023373
0.97795409
0.960412
0.95704908
0.98148848
1.032053
1.0942769
1.1569949
1.1886399
0.9659556
0.96531353
0.96466746
0.96603931
0.96864371
0.97421347
0.98554539
1.0050151
1.0334463
1.0701839
1.1115541
1.1497171
1.1722369
1.1710384
1.144966
1.103806
1.059059
1.0165273
0.98203256
0.96150156
0.94900115
0.95455356
0.9777188
1.0244325
1.0929166
1.1716576
1.2029675
0.9407568
0.94276967
0.94266898
0.94405755
0.94884174
0.95800275
0.97283421
0.99524904
1.0281384
1.072569
1.1274119
1.1826186
1.2199732
1.2204564
1.1834995
1.124947
1.0628973
1.0119189
0.97834645
0.96006033
0.95449257
0.96666394
0.99291057
1.0331916
1.0936295
1.1605655
1.1823945
0.93956563
0.94396174
0.94520272
0.94831186
0.95516035
0.96702256
0.98492851
1.0099099
1.0425948
1.0822977
1.1284765
1.1739258
1.2043963
1.2061847
1.177239
1.1264504
1.0703165
1.0209186
0.98893196
0.97284625
0.97656875
0.99330723
1.0200517
1.055245
1.1030928
1.1425865
1.1468314
0.96650816
0.9724005
0.97448349
0.97818365
0.98576377
0.99777199
1.0140852
1.0352284
1.0604127
1.0887055
1.118576
1.1451345
1.1589008
1.1554355
1.1356298
1.1047896
1.0699254
1.0365787
1.010888
1.0023767
1.0116971
1.0306728
1.0556948
1.0871281
1.1139584
1.122235
1.1086271
1.0140623
1.0192371
1.0205572
1.0230654
1.0277491
1.0343654
1.0420089
1.0523396
1.0656982
1.0812348
1.0971459
1.1103196
1.1151496
1.1090214
1.0955467
1.0795546
1.0633841
1.0480534
1.0379912
1.0393574
1.0532632
1.0737428
1.0946598
1.1150571
1.1188116
1.1001926
1.0749383
1.0663894
1.0679686
1.0652985
1.0619248
1.0582306
1.0547332
1.0529098
1.0546611
1.0586455
1.0676846
1.0781463
1.0866556
1.0878977
1.0818682
1.0723982
1.0650687
1.0625242
1.0624691
1.0654717
1.0767309
1.0941989
1.1136394
1.1279705
1.1313428
1.1113851
1.0764416
1.0479729
1.1070916
1.1047844
1.0970086
1.08637
1.0741038
1.0623637
1.0534656
1.0488912
1.049277
1.0556607
1.0657352
1.0735307
1.0752296
1.0719743
1.0665924
1.0638569
1.0690402
1.0795128
1.0944888
1.1133253
1.1324761
1.1458901
1.1468242
1.1322198
1.0967368
1.0537034
1.027879
1.1392235
1.1330483
1.1203536
1.103597
1.0847608
1.0670888
1.0541306
1.0460149
1.0447084
1.0499779
1.0595285
1.0680969
1.0717471
1.071172
1.0698293
1.0720739
1.08258
1.0997745
1.1212228
1.1436972
1.1599893
1.1644471
1.1518268
1.1239416
1.0808638
1.0375303
1.0170016
1.1691793
1.1593942
1.1423559
1.1203761
1.096551
1.0750458
1.0588456
1.0483228
1.0456133
1.0504808
1.0601953
1.0694848
1.0742462
1.075753
1.0771739
1.0822536
1.0958146
1.1176198
1.143081
1.1659122
1.1768777
1.1712278
1.1493244
1.1162937
1.0724922
1.0316677
1.0175788
1.1970356
1.1846064
1.1647406
1.1396572
1.1127745
1.0885537
1.0698251
1.0565896
1.0512512
1.0542139
1.0634037
1.0734944
1.0800255
1.0843497
1.0875986
1.0935197
1.1075592
1.1300461
1.1566984
1.1793851
1.1865577
1.1756944
1.1503457
1.1162618
1.0739296
1.0366889
1.0259652
1.219695
1.2052371
1.1828748
1.1556164
1.1271106
1.1015849
1.0817015
1.0673023
1.0606891
1.0629083
1.0724508
1.0838655
1.0914484
1.0957941
1.0986677
1.1045715
1.1189778
1.1425853
1.1686498
1.1897451
1.1952411
1.1829164
1.1559949
1.1223327
1.0830269
1.0489289
1.0407681
1.2279829
1.2135549
1.1908288
1.1637248
1.1361361
1.1121644
1.0940668
1.0812915
1.0765566
1.0805029
1.0912363
1.1025312
1.1095915
1.1132155
1.1150332
1.1205168
1.1352496
1.157977
1.1808815
1.1966708
1.1991638
1.1880486
1.1636448
1.1328555
1.0970407
1.0665782
1.0596019
1.2203936
1.2074171
1.1848245
1.1593947
1.1359799
1.1175464
1.1054388
1.0986835
1.0997329
1.1078019
1.1200042
1.1307193
1.1358518
1.1375924
1.1389882
1.1444976
1.1572067
1.1749776
1.1907374
1.1987609
1.1966663
1.1864951
1.1686802
1.1447517
1.1140512
1.0866738
1.0787464
1.1983953
1.1869885
1.1654532
1.1434377
1.1266929
1.1177419
1.1158173
1.1193161
1.1287859
1.1421916
1.1560499
1.1659814
1.1703727
1.1709858
1.1700647
1.1723754
1.1802854
1.190084
1.1942974
1.1918236
1.1835263
1.1746915
1.1656856
1.153227
1.1326399
1.110604
1.1027328
1.1731759
1.1618112
1.1395688
1.1203365
1.1119719
1.1145984
1.1251191
1.141647
1.1620468
1.1826136
1.1988496
1.2087688
1.2120496
1.2091977
1.2047355
1.201898
1.1996533
1.1948456
1.1854721
1.1729356
1.1607249
1.1535519
1.153944
1.1563218
1.1530274
1.1453981
1.1378648
1.1562712
1.1427574
1.1175603
1.100771
1.0992277
1.1103887
1.1308795
1.1584532
1.1887251
1.2168531
1.2390828
1.2529863
1.2576976
1.2537621
1.2437891
1.2293491
1.2090152
1.1864581
1.1655393
1.147548
1.135705
1.131656
1.1372098
1.1535354
1.1759959
1.193046
1.1922882
1.150151
1.1320766
1.1049142
1.0904242
1.0937632
1.1102114
1.1357933
1.1672681
1.2015087
1.2365305
1.2690658
1.2937078
1.3051828
1.3007025
1.2803724
1.2476692
1.2090278
1.1727172
1.1445078
1.1251247
1.1141618
1.1127352
1.123256
1.1487496
1.195111
1.2430294
1.2638163
1.1590353
1.1358016
1.104727
1.0906204
1.0956946
1.1128616
1.1400433
1.1741804
1.2124553
1.2529403
1.2916999
1.3221704
1.3361214
1.328805
1.3006217
1.2583412
1.2114575
1.1671358
1.1335763
1.1123229
1.1018917
1.1007863
1.1142842
1.147325
1.2065465
1.277166
1.325765
1.1876694
1.1606536
1.1261379
1.1091688
1.1124024
1.1290284
1.1560299
1.1905576
1.2282624
1.2642262
1.2947273
1.3156923
1.3246226
1.3190582
1.2987076
1.2659356
1.2250682
1.1824638
1.1448393
1.1180724
1.1036409
1.0993338
1.1109185
1.1448605
1.2054507
1.2824555
1.3493333
1.2458641
1.2188281
1.181271
1.1565221
1.1523956
1.1635813
1.1837439
1.2090225
1.2338573
1.2532437
1.2635837
1.2654044
1.2663371
1.2692352
1.2719614
1.2667409
1.2479655
1.2168962
1.1783009
1.1432342
1.1210272
1.113282
1.1209841
1.1494627
1.1934693
1.2530178
1.317414
1.3368631
1.3088545
1.26534
1.2285699
1.2075434
1.1992079
1.1991867
1.2031417
1.2067898
1.206969
1.2031076
1.198152
1.1969119
1.20344
1.2181987
1.2387561
1.2515287
1.2459918
1.2211945
1.1877072
1.1611985
1.1520114
1.1514062
1.1632933
1.1780366
1.2063896
1.2506218
1.4095891
1.3882671
1.3383746
1.282512
1.2364419
1.2028
1.1791283
1.1636429
1.1550661
1.1512093
1.150278
1.15024
1.1494527
1.1514153
1.1611502
1.180821
1.2098887
1.2361893
1.2502417
1.2481969
1.2352637
1.2190633
1.197692