/*--------------------------------*- C++ -*----------------------------------*\
| =========                 |                                                 |
| \\      /  F ield         | OpenFOAM: The Open Source CFD Toolbox           |
|  \\    /   O peration     | Version:  2406                                  |
|   \\  /    A nd           | Website:  www.openfoam.com                      |
|    \\/     M anipulation  |                                                 |
\*---------------------------------------------------------------------------*/
FoamFile
{
    version     2.0;
    format      ascii;
    arch        "LSB;label=32;scalar=64";
    class       volVectorField;
    location    "34";
    object      U;
}
// * * * * * * * * * * * * * * * * * * * * * * * * * * * * * * * * * * * * * //

dimensions      [0 1 -1 0 0 0 0];

internalField   nonuniform List<vector> 
62344
(
(0.097605609 0.0007686595 -8.4628538e-22)
(0.090464367 0.00088594675 -4.4075662e-22)
(0.097032712 0.00061461849 -9.1722609e-22)
(0.096274555 0.00056410167 4.7732171e-22)
(0.094655623 0.00082947817 0)
(0.092462099 0.0016709037 2.080062e-21)
(0.089810961 0.0029265223 -2.1573999e-21)
(0.088101111 0.0039631504 1.1247687e-21)
(0.088054424 0.0044346644 0)
(0.08816818 0.0042645989 0)
(0.086975354 0.0042812954 5.0529858e-21)
(0.084769749 0.0048401177 -1.0859333e-20)
(0.082287807 0.0052399176 3.340386e-22)
(0.079324151 0.0061278634 1.1759947e-20)
(0.076610303 0.0068973107 -5.9275988e-21)
(0.075169684 0.0078528205 5.7893736e-21)
(0.074675519 0.0082961238 -6.4156756e-21)
(0.075271935 0.0077968905 0)
(0.076259339 0.00603457 0)
(0.07592259 0.005616585 -4.5185338e-22)
(0.074728201 0.0054475136 -2.3482227e-22)
(0.073756748 0.005504287 2.4444769e-22)
(0.071552375 0.0055106502 5.0892913e-22)
(0.069829401 0.0049803431 -1.6917898e-20)
(0.068974323 0.0050074769 1.7627734e-20)
(0.067870754 0.0049545713 0)
(0.068196342 0.0039782793 0)
(0.069067148 0.003918427 -1.5466185e-22)
(0.068950938 0.0030157485 -2.0557309e-20)
(0.067908894 0.0039673955 2.1523476e-20)
(0.066905809 0.0033507292 2.2494582e-20)
(0.065257107 0.0037158078 -2.3156989e-20)
(0.064612649 0.0028752627 -1.8840491e-22)
(0.065594749 7.3113493e-05 2.4927754e-20)
(0.070471358 -0.0061272433 -2.591577e-20)
(0.073903912 -0.011554902 -2.1045408e-22)
(0.067763959 -0.0070386686 -2.8453601e-20)
(0.061323336 -0.0016188051 5.833657e-20)
(0.064071768 -0.0059026935 -6.0611486e-20)
(0.073877839 -0.017385752 5.0674684e-22)
(0.080909148 -0.02618738 -8.2788194e-23)
(0.075691577 -0.024643528 6.7716814e-20)
(0.062852688 -0.015170573 -3.5193746e-20)
(0.056903141 -0.0097209281 0)
(0.065538137 -0.016748612 -3.804261e-20)
(0.078275787 -0.031277368 7.9794531e-20)
(0.084437989 -0.041698653 -9.0053372e-23)
(0.082189278 -0.042024437 -8.5385932e-20)
(0.076753766 -0.035713064 4.4196797e-20)
(0.074612309 -0.028797738 0)
(0.080014018 -0.027720177 0)
(0.091314645 -0.033180457 4.9735563e-20)
(0.098004473 -0.04218586 -5.2357541e-20)
(0.097801374 -0.049338601 -1.0469644e-22)
(0.091715696 -0.056326719 -5.6314429e-20)
(0.098655523 0.00053076216 -4.4669759e-22)
(0.091224456 0.00067499445 4.6531597e-22)
(0.097657686 0.00043441933 1.452212e-21)
(0.096784611 0.00037980884 -1.5124132e-21)
(0.094919262 0.00064468413 0)
(0.092545982 0.0014000643 2.1962151e-21)
(0.089800144 0.0024469524 -2.8486012e-21)
(0.088121006 0.0034348529 -2.9667797e-21)
(0.088207469 0.0039206315 3.0858521e-21)
(0.088397785 0.0038839082 0)
(0.087196009 0.0039669331 0)
(0.085006166 0.0042830166 3.4722368e-22)
(0.082541046 0.0045422922 -3.6167123e-22)
(0.07959987 0.0049153959 5.2751073e-21)
(0.076871672 0.0054156866 -6.2599404e-21)
(0.075252353 0.0060738826 0)
(0.074727613 0.0067034689 0)
(0.075531074 0.006079471 0)
(0.076650153 0.0051878783 7.3320151e-21)
(0.076311304 0.0044483768 2.3989298e-22)
(0.075134312 0.0045272818 1.9979721e-24)
(0.074105272 0.0040384675 -2.5034058e-20)
(0.072297757 0.0046208447 1.6910834e-20)
(0.070645298 0.003238385 0)
(0.069137887 0.0030601178 1.8610034e-20)
(0.068123384 0.0037980289 -1.2209382e-23)
(0.068220869 0.0031109394 -4.0114209e-20)
(0.068803007 0.0033568274 2.1009039e-20)
(0.068747826 0.0030196535 -1.6932321e-22)
(0.067776258 0.0037088939 -2.2733803e-20)
(0.067113495 0.0030964923 2.3565875e-20)
(0.065547425 0.0031360622 1.9138623e-22)
(0.065264177 0.0017102677 -2.5245008e-20)
(0.066664566 -0.00048501743 5.2846188e-20)
(0.071004991 -0.0047349226 -2.7576751e-20)
(0.07346417 -0.006572911 2.2178469e-22)
(0.067926817 -0.0029392723 0)
(0.063920391 -0.0028290289 0)
(0.06721041 -0.009553788 1.250173e-22)
(0.074437432 -0.017549385 3.3164827e-20)
(0.079541552 -0.019611763 -6.9126223e-20)
(0.075367673 -0.014277193 3.5987182e-20)
(0.065025907 -0.0091850208 3.7680163e-20)
(0.060855443 -0.012571485 -7.7581721e-20)
(0.069104376 -0.022975972 4.083762e-20)
(0.080431396 -0.032470756 0)
(0.08338511 -0.03452715 0)
(0.078022105 -0.029206607 0)
(0.070878875 -0.02244552 9.3212473e-23)
(0.069077973 -0.018391629 -9.6334649e-23)
(0.075718811 -0.021601057 0)
(0.090770667 -0.030092954 -2.1782182e-26)
(0.10701263 -0.039940925 -1.0724027e-22)
(0.11466396 -0.046168787 1.6602865e-22)
(0.10762706 -0.049892441 -5.6679832e-23)
(0.098509752 0.00061090272 4.7146216e-22)
(0.091076894 0.00058004336 -4.9110066e-22)
(0.097521171 0.00028239701 -5.1078456e-22)
(0.096608331 0.00026890566 5.3221773e-22)
(0.09469319 0.00057831704 -5.5505224e-22)
(0.092273246 0.001327003 5.7838084e-22)
(0.08952522 0.002423074 1.2048504e-21)
(0.087891541 0.0035138487 0)
(0.088095655 0.0039770128 1.9515028e-21)
(0.088389232 0.0040121219 -3.0501276e-21)
(0.087261219 0.0040632004 0)
(0.085093393 0.0043324648 -3.6686058e-22)
(0.082609525 0.0045049814 -1.5786145e-25)
(0.079582237 0.0049876322 -1.6354112e-25)
(0.07666515 0.0055183476 6.6194755e-21)
(0.074925545 0.0064515562 -6.4499594e-21)
(0.074560954 0.0070500903 0)
(0.075548172 0.0064917438 0)
(0.076780423 0.0056930358 0)
(0.076427281 0.0049202955 0)
(0.075275042 0.0047668541 0)
(0.074250082 0.0043464508 8.9898046e-21)
(0.072655009 0.004597252 -9.0606391e-21)
(0.071273673 0.0039285703 -2.9464247e-22)
(0.069281176 0.003457594 3.0676613e-22)
(0.068008568 0.0038581826 0)
(0.068176394 0.0038470755 0)
(0.068878033 0.0037266102 1.7249962e-22)
(0.06891132 0.0035552202 1.7890298e-22)
(0.068197677 0.0041284448 0)
(0.067816964 0.0035426054 0)
(0.066514335 0.0037536601 -2.5955786e-20)
(0.066343693 0.001565908 5.3460016e-20)
(0.067801882 -2.1362271e-05 -2.7960566e-20)
(0.071999166 -0.0042417432 -1.132206e-22)
(0.073530316 -0.0057450262 3.017961e-20)
(0.068640269 -0.0025265908 -3.1184488e-20)
(0.066553832 -0.0028831122 0)
(0.070888398 -0.0090191236 -5.3752561e-25)
(0.075969295 -0.01631953 0)
(0.076782102 -0.016163705 3.6601135e-20)
(0.073422224 -0.0090832997 -3.7999026e-20)
(0.068763907 -0.0061891982 -3.9628182e-20)
(0.067679762 -0.013106474 4.1015525e-20)
(0.073220595 -0.023706155 3.8371907e-25)
(0.080824809 -0.029204341 0)
(0.081522875 -0.027347772 0)
(0.07558782 -0.021748842 -9.3834016e-23)
(0.06900423 -0.017537527 -5.045317e-20)
(0.068828576 -0.019709046 5.1943718e-20)
(0.07679784 -0.027281577 0)
(0.089273519 -0.036256474 5.558799e-20)
(0.10246173 -0.041391608 -5.8320937e-20)
(0.11281785 -0.040890459 6.0136664e-20)
(0.11163539 -0.038470052 -6.2407608e-20)
(0.098587901 0.00048690624 -2.4782301e-22)
(0.091045432 0.00055839745 -7.7623268e-22)
(0.097513102 0.00028698057 1.6175818e-21)
(0.096569928 0.00028949297 -1.1227806e-21)
(0.094589454 0.00065606821 -1.7630886e-21)
(0.09212301 0.0013671175 1.8248278e-21)
(0.089365411 0.0023612945 -3.1813305e-21)
(0.087795038 0.0033602127 5.2835071e-21)
(0.088130875 0.0036572729 -3.0958281e-21)
(0.088517107 0.0036211362 7.1453262e-22)
(0.087401462 0.0036244191 3.7167745e-22)
(0.085258077 0.003879758 6.19493e-21)
(0.082784812 0.0040761782 -5.6382379e-21)
(0.079775648 0.0043639715 7.1368981e-21)
(0.076780742 0.0048385622 1.3874847e-23)
(0.074932074 0.0055555166 -1.4977832e-20)
(0.074658854 0.0059590369 7.3162184e-21)
(0.075754931 0.0054087652 -2.4523838e-22)
(0.077121218 0.0045523824 8.1645454e-21)
(0.076838408 0.0039569289 -8.2284615e-21)
(0.07569995 0.003484019 0)
(0.074656155 0.0033791284 0)
(0.073039761 0.0031588265 -9.2614161e-21)
(0.071765663 0.0027759734 1.0268154e-20)
(0.069786541 0.0027499077 1.0039772e-20)
(0.068158375 0.0024307591 -1.0771688e-20)
(0.068002309 0.0025935911 -1.1177376e-20)
(0.068665336 0.0024177404 1.1459547e-20)
(0.068570193 0.0027955551 0)
(0.067973748 0.0032815023 0)
(0.067769917 0.0028165906 0)
(0.067141217 0.0031181029 0)
(0.067187299 0.00085135723 0)
(0.068528183 -0.00039231732 0)
(0.072839765 -0.0046228503 1.1950197e-22)
(0.073530141 -0.0058339656 -3.1853416e-20)
(0.068648416 -0.0031128486 3.2912406e-20)
(0.067919484 -0.0035931418 1.3436303e-22)
(0.07365053 -0.0090926939 -2.7872203e-22)
(0.077396792 -0.014633091 3.7149356e-20)
(0.07380858 -0.013172585 -3.8388341e-20)
(0.070129659 -0.0068089583 4.0143338e-20)
(0.07152104 -0.0061175925 -4.1871709e-20)
(0.074917583 -0.014002162 4.3249999e-20)
(0.076810744 -0.0230793 -9.0335828e-20)
(0.078360238 -0.025013734 -4.2370769e-23)
(0.077844702 -0.019800797 -2.528296e-22)
(0.074738786 -0.014757684 -2.9900296e-22)
(0.072157886 -0.014612528 -7.8322943e-23)
(0.073733236 -0.021697671 4.6558087e-22)
(0.079560483 -0.031046536 5.7582158e-20)
(0.086518989 -0.03711487 0)
(0.09293628 -0.037561823 6.1322617e-20)
(0.099318855 -0.032185658 -1.726305e-22)
(0.10166548 -0.025178496 -6.6137634e-20)
(0.098817644 0.0005042181 5.2485453e-22)
(0.091269731 0.00045536213 5.4671379e-22)
(0.097690633 0.00012101778 5.6862414e-22)
(0.096679342 0.00017835136 0)
(0.094605897 0.00056493424 0)
(0.092064389 0.0012277036 0)
(0.089244841 0.0022017034 -3.3547863e-22)
(0.087661714 0.0031814746 2.787243e-21)
(0.088036336 0.0034791856 -2.5413439e-21)
(0.088483443 0.0035341193 -3.7687328e-22)
(0.087417292 0.0035197026 -3.1367875e-21)
(0.085306516 0.003767286 3.266688e-21)
(0.082886412 0.0040007809 -7.2314817e-21)
(0.079825919 0.0042121642 7.0705185e-21)
(0.076676739 0.0048420921 0)
(0.074750658 0.0055414176 0)
(0.07452705 0.0058746921 4.9797734e-22)
(0.075731127 0.0055506236 2.5869467e-22)
(0.077169116 0.0046060727 -8.6136804e-21)
(0.077016341 0.0044116168 8.6799596e-21)
(0.075859085 0.0037697724 0)
(0.074843028 0.0038331031 0)
(0.073376269 0.0036163728 -3.1549001e-22)
(0.072039215 0.0028175431 0)
(0.070110731 0.0034436661 -1.0762396e-20)
(0.068405939 0.002895874 1.1369079e-20)
(0.067969286 0.0029947596 0)
(0.068449598 0.0026518818 0)
(0.068449595 0.0036190647 0)
(0.068295448 0.0037304947 0)
(0.068120565 0.0031945128 0)
(0.067915062 0.0033032051 0)
(0.068138296 0.0016169743 -1.1660346e-22)
(0.069525926 0.00049971982 -1.2147777e-22)
(0.073978179 -0.0042124793 0)
(0.074119442 -0.004920556 -1.3078088e-22)
(0.069329233 -0.0026511641 1.7443481e-20)
(0.069028231 -0.0038902371 -1.8280416e-20)
(0.075344195 -0.0085165942 1.469446e-22)
(0.079035919 -0.011605511 1.5253177e-22)
(0.073285317 -0.0094429511 0)
(0.068044395 -0.005625221 1.654928e-22)
(0.072596659 -0.0070301195 -1.3376198e-26)
(0.080521544 -0.014176598 4.5861689e-20)
(0.081525751 -0.021022265 2.3614444e-22)
(0.076109146 -0.02123431 -4.9253535e-20)
(0.072592854 -0.015563253 -1.0051649e-22)
(0.073154917 -0.011233652 0)
(0.077153952 -0.013968048 -1.0838577e-22)
(0.082456805 -0.022770441 -1.1271697e-22)
(0.085428127 -0.031507455 6.0146814e-20)
(0.085505246 -0.034577793 -6.1926654e-20)
(0.084867404 -0.032273877 6.2587476e-23)
(0.085865113 -0.026416404 1.1521575e-24)
(0.089328522 -0.019682371 -6.7638876e-23)
(0.099056172 0.00041209474 0)
(0.091461932 0.00045493538 0)
(0.097872172 0.00016557663 -5.9973844e-22)
(0.096820802 0.0002447801 0)
(0.094664527 0.00063968607 1.3070272e-21)
(0.092052323 0.0012942854 -1.0152201e-21)
(0.089170949 0.0022114771 3.5376856e-22)
(0.08757843 0.0030568853 0)
(0.087986384 0.0033341125 3.8260197e-22)
(0.088501336 0.0033096647 0)
(0.087496816 0.0032688899 -4.1345505e-22)
(0.085431374 0.0034322431 -3.0165458e-21)
(0.083094657 0.0035785877 7.1750728e-21)
(0.080090585 0.0037808867 -3.729524e-21)
(0.076850137 0.0042679417 0)
(0.074733757 0.0048800971 0)
(0.0744362 0.0051814393 1.2686042e-25)
(0.075763329 0.0049327997 -2.730803e-22)
(0.077285503 0.0037944893 0)
(0.077330781 0.0036122467 0)
(0.076250551 0.0029855672 3.0694485e-22)
(0.075117697 0.0027427147 9.9211252e-21)
(0.073928516 0.0028954209 -2.1464812e-20)
(0.072407597 0.001692858 1.1254418e-20)
(0.070398485 0.0024197806 1.1354641e-20)
(0.068679272 0.0019956948 -1.1999305e-20)
(0.06793721 0.0020447697 -1.2446845e-20)
(0.068084391 0.0016696508 1.2941514e-20)
(0.068025781 0.0030211553 -1.3456232e-20)
(0.068329766 0.0029039599 2.8018524e-20)
(0.068193651 0.0026336747 -1.479025e-20)
(0.068145298 0.0022697188 1.1845658e-22)
(0.06843483 0.0014891687 2.4631524e-22)
(0.070296549 0.00027325749 2.5630227e-22)
(0.074758554 -0.0047240773 0)
(0.074194175 -0.0046772311 -1.7588695e-20)
(0.069933696 -0.0023304023 3.6735327e-20)
(0.069830713 -0.0042608005 -1.9135703e-20)
(0.075366643 -0.0086243303 -1.5506728e-22)
(0.079129938 -0.0093556608 -1.6074595e-22)
(0.074030681 -0.0060680878 0)
(0.068240045 -0.0047517911 -2.2325612e-20)
(0.072510895 -0.0085994751 3.9384645e-22)
(0.082584914 -0.014551909 2.4269078e-20)
(0.085460358 -0.018219148 0)
(0.077432169 -0.0169771 0)
(0.06909702 -0.013776818 -2.7319036e-20)
(0.069711293 -0.012027113 2.8403483e-20)
(0.078040435 -0.016003737 -5.7319897e-27)
(0.08730362 -0.022616876 6.0977977e-20)
(0.090594309 -0.027655797 -1.2656538e-19)
(0.087049091 -0.027957955 1.3158193e-19)
(0.081383381 -0.02596081 -6.8487435e-20)
(0.078691121 -0.021355718 -6.966187e-23)
(0.07996334 -0.018991647 7.2516758e-23)
(0.098908823 0.00040516132 2.9297175e-22)
(0.091274119 0.00037811933 -3.0297484e-22)
(0.097708736 8.6676306e-05 -1.2653297e-21)
(0.09663698 0.00017639495 1.3178968e-21)
(0.094460654 0.00054331297 1.7222357e-21)
(0.091843198 0.0011922856 -3.5812693e-21)
(0.088972805 0.0020540001 1.1158551e-21)
(0.087397356 0.0028103747 -3.8807337e-22)
(0.087886246 0.0031401946 -4.0331502e-22)
(0.088498517 0.0030139782 -3.3528708e-21)
(0.087540171 0.0030429188 3.490948e-21)
(0.085474221 0.0031975887 0)
(0.083144568 0.0033209767 0)
(0.080145187 0.0035943297 -2.4613512e-22)
(0.076845845 0.0040886899 -2.5629169e-22)
(0.074676243 0.0047130169 4.2660671e-21)
(0.074370832 0.0050989073 -1.3564595e-20)
(0.07586092 0.0048322179 9.8027305e-21)
(0.077397293 0.0038646306 -9.586828e-21)
(0.077464891 0.0035445107 1.9928227e-20)
(0.076548889 0.0033851386 -3.1837638e-22)
(0.075297921 0.0028603291 -2.1428137e-20)
(0.074277459 0.003222575 1.1586742e-20)
(0.072805712 0.0022472181 1.1709052e-20)
(0.070578988 0.0025247402 -1.2152256e-20)
(0.068816656 0.002254798 0)
(0.068062436 0.0022511634 -1.3156379e-20)
(0.067991299 0.0021378554 1.3676734e-20)
(0.0678971 0.0034029092 2.2177704e-22)
(0.068544389 0.0029286324 2.308803e-22)
(0.068571594 0.0030453534 3.6007419e-22)
(0.068489231 0.00204657 -1.2486185e-22)
(0.068628707 0.0020057262 -2.5996139e-22)
(0.07123427 0.00051052968 -1.3507353e-22)
(0.075713174 -0.0045043366 0)
(0.074266501 -0.0041743138 0)
(0.070638703 -0.001636112 -1.9351888e-20)
(0.071275135 -0.0036536144 4.0446659e-20)
(0.075437194 -0.0082889237 -2.0736896e-20)
(0.078050772 -0.0080496494 -8.5127058e-23)
(0.074833261 -0.0036780478 0)
(0.070760767 -0.0036042928 0)
(0.073636575 -0.0096001549 -2.4419242e-20)
(0.082132043 -0.014963072 2.5644752e-20)
(0.086352992 -0.014772259 -2.6483292e-20)
(0.080829348 -0.011805038 2.7313655e-20)
(0.071920375 -0.010804509 1.1207946e-22)
(0.069342184 -0.013764101 -2.9861404e-20)
(0.076529832 -0.018989236 3.1259897e-20)
(0.086361407 -0.023069604 0)
(0.091483092 -0.023718845 2.9211158e-25)
(0.089343228 -0.021402156 -3.4717976e-20)
(0.082992653 -0.01910141 7.2586821e-20)
(0.077439863 -0.017348714 -7.56151e-20)
(0.077189787 -0.019272119 3.9048664e-20)
(0.099125259 0.00032924872 0)
(0.091455912 0.00034563853 6.4099086e-22)
(0.097874423 0.00010839514 -1.7864928e-25)
(0.096772956 0.00021637274 -6.9494871e-22)
(0.094534241 0.00058653832 4.8853871e-26)
(0.091855589 0.0011995661 3.7762507e-22)
(0.088939032 0.0020098159 -7.8869484e-22)
(0.087359241 0.0026896446 2.0437451e-21)
(0.087923662 0.003023885 0)
(0.088602077 0.0027948071 0)
(0.087662642 0.0028716408 -3.2195489e-21)
(0.085631094 0.0029818693 3.8331522e-21)
(0.08331124 0.0030338142 0)
(0.080310968 0.0032997493 2.5950577e-22)
(0.07696447 0.0036301032 2.7020934e-22)
(0.0746772 0.0042551493 0)
(0.074331664 0.0046700288 -4.6685966e-21)
(0.075938877 0.0041919129 -2.8815261e-22)
(0.077612042 0.0034574339 5.3823043e-21)
(0.077669153 0.0028138642 0)
(0.076881144 0.0029606557 1.0934513e-20)
(0.075587724 0.0023096694 -2.2776337e-20)
(0.074594624 0.0023695857 1.1663433e-20)
(0.073281709 0.0018722082 -1.2539576e-20)
(0.070977939 0.0017866548 1.3014795e-20)
(0.069113366 0.0016739849 0)
(0.06811303 0.0015153426 0)
(0.067637468 0.0018213433 0)
(0.067545634 0.0028503979 -2.3424547e-22)
(0.068327722 0.0023099963 -2.4326598e-22)
(0.068667805 0.0027726272 -1.6304746e-20)
(0.068696957 0.0016167593 1.6829532e-20)
(0.068594556 0.0021856779 1.3649939e-22)
(0.071985387 9.7246637e-05 0)
(0.07660273 -0.0046556001 0)
(0.074118405 -0.0039592662 1.5358135e-22)
(0.070644789 -0.0012935051 0)
(0.072526161 -0.0027349342 -1.6626743e-22)
(0.075936093 -0.0073121805 -2.2321244e-20)
(0.076372018 -0.007513196 2.3040793e-20)
(0.07419234 -0.0028559003 2.3830008e-20)
(0.073411107 -0.002908516 -2.4843635e-20)
(0.076195992 -0.0093194216 2.5825216e-20)
(0.080824273 -0.014475711 -2.6935352e-20)
(0.083759809 -0.012152068 -2.7945441e-20)
(0.082040708 -0.0077481502 -3.1901484e-22)
(0.077338879 -0.0069073063 6.0536327e-20)
(0.07439841 -0.012680784 -3.1351912e-20)
(0.076698224 -0.020109445 0)
(0.082107126 -0.023189553 -3.3907828e-20)
(0.086380508 -0.02087397 7.0706795e-20)
(0.08731337 -0.015859451 -3.6814337e-20)
(0.085201104 -0.012891538 0)
(0.081799266 -0.012726862 -7.7200012e-23)
(0.080876767 -0.018050906 4.1010306e-20)
(0.099425805 0.00030810795 0)
(0.091770485 0.00025636448 0)
(0.098163142 5.3515748e-05 0)
(0.097031599 0.00014554386 1.1021777e-21)
(0.094729304 0.00052541017 -1.9069502e-21)
(0.091987853 0.0010996674 1.5965696e-21)
(0.08900666 0.0018281135 -2.0698972e-21)
(0.08738977 0.0024286965 -4.3137937e-22)
(0.087995801 0.0027153444 -4.4853021e-22)
(0.088728959 0.0024773237 -4.1941384e-21)
(0.087817104 0.0025772097 3.396222e-21)
(0.085842556 0.0026887589 0)
(0.083560276 0.0027813516 4.2098726e-21)
(0.080566579 0.0030440199 1.0235528e-23)
(0.077131795 0.0033164659 -9.4014991e-21)
(0.074706866 0.0039362702 4.7414342e-21)
(0.074297672 0.0043882926 -3.0817677e-22)
(0.075902675 0.0037992124 -3.2024516e-22)
(0.077708417 0.0032796037 8.0849512e-26)
(0.077780429 0.0025595148 1.7305628e-22)
(0.077053229 0.0028117018 1.8004257e-22)
(0.075830038 0.0024187863 1.8760274e-22)
(0.074798413 0.0021708105 0)
(0.073645023 0.0020655693 0)
(0.071383045 0.0018642945 -1.3742122e-20)
(0.069411857 0.0017713091 1.428482e-20)
(0.06821293 0.0014665807 0)
(0.06743872 0.0020323389 0)
(0.067455214 0.0027494357 0)
(0.068266939 0.0022735563 1.2836042e-22)
(0.068866413 0.0026551887 0)
(0.068901661 0.0017825193 1.7745383e-20)
(0.068740149 0.0026391282 -1.8412692e-20)
(0.072843095 -0.00047607415 1.4974633e-22)
(0.077536483 -0.0045476677 -2.0108252e-20)
(0.074306338 -0.0033927121 2.0488312e-20)
(0.070510559 -0.0010860482 0)
(0.07337687 -0.0021201195 2.2238887e-20)
(0.077291672 -0.0060958029 -2.3424577e-20)
(0.075719147 -0.0070831138 9.455047e-23)
(0.072886559 -0.0035293204 2.5370485e-20)
(0.074765304 -0.003058902 -2.6233866e-20)
(0.079143448 -0.0082517422 0)
(0.080916865 -0.012834538 2.8242488e-20)
(0.080332196 -0.0112014 -2.9249919e-20)
(0.079807544 -0.0061399329 2.394101e-22)
(0.080432697 -0.0047721215 0)
(0.081587213 -0.010312496 3.2979038e-20)
(0.081605993 -0.018492543 -3.4469378e-20)
(0.080506025 -0.022069573 3.5698203e-20)
(0.080155999 -0.019556379 -3.7096492e-20)
(0.08135596 -0.014297676 -3.8863409e-20)
(0.083486671 -0.010492525 8.0709535e-20)
(0.085762495 -0.010907802 -1.8019241e-24)
(0.087871326 -0.016142904 -7.0250918e-23)
(0.099564871 0.00024049787 -3.4194177e-22)
(0.091885849 0.0001850542 -3.5609317e-22)
(0.098285098 2.8699912e-05 -7.4131887e-22)
(0.097145171 0.00012247288 -2.229376e-24)
(0.094807261 0.00050198408 8.036285e-22)
(0.092036671 0.0010611031 1.6828911e-21)
(0.089044431 0.0017075291 -1.7446268e-21)
(0.087411305 0.0022571916 4.5459964e-22)
(0.088071629 0.0024825775 2.3606626e-21)
(0.088860779 0.0022957987 -5.4069086e-21)
(0.087984234 0.0023680963 2.5693105e-22)
(0.086050393 0.002467986 4.2604742e-21)
(0.083795399 0.0025458996 2.7715721e-22)
(0.080861982 0.0028053067 0)
(0.077392046 0.0029706209 3.00337e-22)
(0.07480221 0.0034442196 -3.1272093e-22)
(0.074324353 0.0039717494 -1.424543e-25)
(0.075869292 0.0034978644 6.7508595e-22)
(0.077724675 0.0030157863 -3.5122532e-22)
(0.077911579 0.0023656243 5.6542134e-21)
(0.077191431 0.0023061431 -1.2331111e-20)
(0.076081229 0.0021920841 6.324649e-21)
(0.07505646 0.0017627808 0)
(0.074009572 0.0017706054 -6.8522826e-21)
(0.071910822 0.0015432745 6.8940651e-21)
(0.0699033 0.001339389 -2.3166319e-22)
(0.06839614 0.001020511 -2.4105897e-22)
(0.067292756 0.0017292606 0)
(0.067343511 0.0023049131 0)
(0.068119158 0.0021608028 -1.3518694e-22)
(0.068876108 0.0023366945 0)
(0.068916807 0.0021086428 0)
(0.068943197 0.0029383512 -1.9339969e-20)
(0.073481765 -0.001158534 2.8480615e-23)
(0.077941078 -0.0043428134 4.2239608e-20)
(0.074393682 -0.0025781384 -2.1932135e-20)
(0.070213288 -0.00083730076 0)
(0.073370686 -0.0020792946 9.2253191e-23)
(0.078298153 -0.005151006 -9.5684456e-23)
(0.076217503 -0.0060497615 -9.9484775e-23)
(0.071892673 -0.0041296519 -2.647197e-20)
(0.074372692 -0.0037001363 2.7622882e-20)
(0.080809624 -0.0071843786 0)
(0.082576655 -0.010293056 0)
(0.078795358 -0.010040601 -1.209901e-22)
(0.076541405 -0.0059740994 -1.2627492e-22)
(0.080037726 -0.0047603482 -3.3502141e-20)
(0.086018535 -0.008687545 3.5158115e-20)
(0.08799367 -0.014809822 3.6405226e-20)
(0.083876591 -0.018283618 -3.7671581e-20)
(0.077898859 -0.017651459 -7.6927126e-23)
(0.075690776 -0.013985781 4.1014316e-20)
(0.078587593 -0.011187569 -4.2660034e-20)
(0.085433101 -0.011162136 0)
(0.091700564 -0.014892379 -4.5772524e-20)
(0.099659382 0.00020507819 5.4117046e-22)
(0.091921885 0.00010074657 -1.8701312e-22)
(0.098317844 -2.3980433e-05 3.9038155e-22)
(0.097165465 6.5402038e-05 4.0685298e-22)
(0.094799334 0.00044509007 1.7022258e-21)
(0.092015729 0.00096515832 -3.0956159e-21)
(0.089028592 0.0015468249 1.8386411e-21)
(0.087387556 0.0020367287 0)
(0.088093031 0.0022339769 2.2389804e-21)
(0.088940783 0.0020904534 -1.8157721e-21)
(0.088108076 0.0020942404 -5.3874595e-22)
(0.086199353 0.0021650228 0)
(0.083944 0.0022726631 -5.8407515e-22)
(0.081057981 0.0025191087 3.0401044e-22)
(0.077595345 0.0026256599 -3.1652303e-22)
(0.074878206 0.0030466458 -1.2140748e-25)
(0.074360852 0.003629397 -5.1245509e-21)
(0.075938002 0.0032978492 1.102653e-20)
(0.077836984 0.0027011171 -5.9326552e-21)
(0.0780393 0.0024267215 0)
(0.077304452 0.0020238464 -1.9991538e-22)
(0.076290887 0.0021096916 0)
(0.075302319 0.0017376846 -2.1665149e-22)
(0.074324152 0.0017771397 0)
(0.072366472 0.0015218395 2.8314481e-26)
(0.070365974 0.0012272537 2.4405425e-22)
(0.068681084 0.00098792654 2.5397549e-22)
(0.067348249 0.0015933414 8.4508272e-21)
(0.067393214 0.002019233 -1.5595248e-23)
(0.068191464 0.0022079412 -9.1322596e-21)
(0.068930116 0.0019536589 1.8958693e-20)
(0.068844063 0.0023848837 -3.9467493e-20)
(0.069297345 0.0029180289 2.0652672e-20)
(0.074071923 -0.0017736802 -1.6619396e-22)
(0.077988742 -0.0042111923 -1.7255934e-22)
(0.074602557 -0.0016856043 1.7969645e-22)
(0.070462721 -0.00039980165 0)
(0.073252901 -0.0025223299 9.7299879e-23)
(0.078694336 -0.0049268981 1.0114159e-22)
(0.077256146 -0.0049151388 0)
(0.072024445 -0.0038314678 -2.1804552e-22)
(0.073495427 -0.0047017201 0)
(0.080549382 -0.0069612537 1.1802515e-22)
(0.083875853 -0.0082269828 -3.1470953e-20)
(0.07964803 -0.0075369626 3.2634613e-20)
(0.075209353 -0.0058350786 0)
(0.078270889 -0.0063551782 -6.9080421e-23)
(0.086291138 -0.0090441957 0)
(0.091479213 -0.011880976 3.8307211e-20)
(0.088653364 -0.013417529 -3.9554219e-20)
(0.080742261 -0.013734449 8.1172958e-23)
(0.074393142 -0.013045535 0)
(0.074437554 -0.012757283 -4.3691262e-23)
(0.08100099 -0.013321328 0)
(0.089870096 -0.01550721 4.7136345e-23)
(0.099926657 0.00012878876 -1.9052756e-22)
(0.092158979 1.8905215e-05 5.9250147e-22)
(0.098536713 -7.6357268e-05 -4.1130691e-22)
(0.097369844 1.1291765e-05 8.5931208e-22)
(0.094949767 0.00038811634 -1.339465e-21)
(0.092126055 0.00088992234 2.7701788e-26)
(0.089117345 0.0014089796 -1.9447321e-21)
(0.08744184 0.0018662265 2.017207e-21)
(0.088147252 0.002037423 1.8343246e-21)
(0.089038756 0.0019409164 -4.6410347e-21)
(0.08825337 0.0018993713 2.8454731e-22)
(0.086380353 0.0019283946 2.3654653e-21)
(0.084136147 0.0020624456 -4.6194876e-21)
(0.081292723 0.0022791608 4.8000507e-21)
(0.077816678 0.0023476998 3.3343209e-22)
(0.074952925 0.0027922516 -5.2066771e-21)
(0.074370794 0.0032986117 5.770451e-21)
(0.07600017 0.0031304529 0)
(0.077935138 0.0023734778 6.4309332e-21)
(0.078246969 0.0024905699 -1.2964581e-20)
(0.077522596 0.0017663615 -3.2154256e-24)
(0.076497968 0.0019503887 6.8017329e-21)
(0.075514916 0.0016823087 7.7598507e-21)
(0.074569961 0.0017191362 -1.4964483e-20)
(0.072761131 0.0014018006 8.1461326e-21)
(0.070801525 0.00096441648 -1.2856535e-22)
(0.068980489 0.00088427286 1.3377502e-22)
(0.067451341 0.0012463605 8.7670787e-21)
(0.067307148 0.0016510721 -9.3988646e-21)
(0.068212954 0.0022845676 1.5026409e-22)
(0.068998976 0.0017252979 0)
(0.068588262 0.0026320206 1.0393127e-20)
(0.069641779 0.0026957396 -5.760185e-23)
(0.074609598 -0.0020138175 -1.1175575e-20)
(0.07772503 -0.0038518789 2.7258385e-22)
(0.074532436 -0.00081476971 -1.2161779e-20)
(0.070952575 0.00052798015 1.2591873e-20)
(0.073259087 -0.0027273532 -1.024701e-22)
(0.078380949 -0.0050491373 1.0667703e-22)
(0.0778837 -0.0038102955 0)
(0.073123852 -0.0025154843 -2.9511953e-20)
(0.073269691 -0.0050358097 3.0679266e-20)
(0.079264273 -0.0072172976 -6.1855182e-23)
(0.083540854 -0.0068781532 -3.3054118e-20)
(0.080941086 -0.0046384839 3.4221986e-20)
(0.076343021 -0.00431496 7.0051242e-23)
(0.077397878 -0.0072167173 7.2706568e-23)
(0.084256103 -0.0098025856 3.853533e-20)
(0.090706341 -0.010501595 -4.0442819e-20)
(0.091246411 -0.0091819776 -1.6287904e-22)
(0.085544296 -0.0085852751 0)
(0.07808257 -0.009629495 0)
(0.074638259 -0.012255424 1.7225576e-25)
(0.077701384 -0.014879181 0)
(0.085478145 -0.017057704 -4.9998233e-23)
(0.10040235 8.6918433e-05 -3.999488e-22)
(0.092631949 -4.5085523e-05 -4.165012e-22)
(0.098963489 -0.00012656167 1.733857e-21)
(0.097770054 -3.7865888e-05 -9.0257879e-22)
(0.095275296 0.00033112701 9.4472835e-22)
(0.092389761 0.00081079532 -1.4701829e-21)
(0.089321035 0.0012315593 -2.0489794e-21)
(0.087593646 0.0017027829 2.1251241e-21)
(0.088268417 0.0018280857 2.2090675e-21)
(0.089186855 0.0017646412 -4.3146759e-21)
(0.088456851 0.0016930781 2.0943846e-21)
(0.086617576 0.0016897143 0)
(0.084379908 0.0018012249 3.241906e-22)
(0.081581333 0.001970097 0)
(0.078100694 0.0020548018 0)
(0.075085357 0.0025365693 5.6680617e-21)
(0.074373497 0.0029277783 -6.0791749e-21)
(0.076068263 0.0028898008 -1.9742669e-22)
(0.078043032 0.0020171096 4.533091e-26)
(0.078501014 0.0023144098 0)
(0.077840278 0.0015924771 7.3236888e-21)
(0.07672659 0.0017793494 -6.9336621e-21)
(0.075698078 0.0015389677 4.2550872e-26)
(0.07481338 0.0015612016 7.6363977e-21)
(0.073095262 0.0012760335 -1.665885e-20)
(0.07114996 0.00084741018 8.3921187e-21)
(0.069281252 0.00096164838 -9.1707335e-21)
(0.06759751 0.0010009786 1.3853499e-22)
(0.067105772 0.0012972307 9.900838e-21)
(0.068097728 0.0023333112 9.8042382e-21)
(0.068921975 0.0016392667 -1.0375337e-20)
(0.068344555 0.0026745972 0)
(0.070019436 0.0022287437 -1.778223e-22)
(0.075158367 -0.00211475 4.2428706e-26)
(0.077515091 -0.0036246368 -9.575435e-23)
(0.07432591 -0.00034562204 1.2903451e-20)
(0.071750235 0.0011275818 1.5574477e-25)
(0.073961834 -0.0027378172 -1.3847887e-20)
(0.077967141 -0.0055370855 1.4112558e-20)
(0.077747685 -0.0032086657 -2.9962017e-20)
(0.074418329 -0.0012733091 6.550925e-23)
(0.074159637 -0.004442739 3.2265444e-20)
(0.078111899 -0.0076955402 -1.6944893e-20)
(0.08184601 -0.006600615 -6.82091e-23)
(0.081222543 -0.0029634264 -1.8183763e-20)
(0.07871591 -0.002365758 1.8750467e-20)
(0.078795822 -0.0065883355 0)
(0.082630811 -0.010247991 -2.0461016e-20)
(0.087772076 -0.010245583 2.1329395e-20)
(0.090057181 -0.007160234 1.7275213e-22)
(0.08836152 -0.0046734252 0)
(0.083604797 -0.0053753423 -4.8100912e-20)
(0.079254217 -0.0097969772 -1.0923011e-22)
(0.078440842 -0.014663708 5.1894607e-20)
(0.08245806 -0.018738435 5.2447629e-23)
(0.10079439 1.2888387e-05 7.0270965e-27)
(0.093049859 -0.00013880237 -8.7760041e-22)
(0.099362161 -0.00019953496 0)
(0.098161475 -0.00010477644 4.7566885e-22)
(0.095610901 0.00024294548 7.4425621e-22)
(0.092680511 0.00070361896 7.7842203e-22)
(0.089562551 0.0010776387 -3.2333069e-21)
(0.087794197 0.0015452312 -2.8132915e-22)
(0.088459272 0.0016365262 -2.8575577e-22)
(0.089399989 0.0015987125 4.5450832e-21)
(0.088713266 0.0015222861 -2.2062563e-21)
(0.086900102 0.0015229718 -2.625755e-21)
(0.084690083 0.0016323927 2.0482614e-21)
(0.081946693 0.0017336479 0)
(0.07844542 0.0018213892 0)
(0.075294526 0.0022980353 -6.1636672e-21)
(0.074416841 0.0026457705 1.2427603e-23)
(0.076116392 0.0026358759 6.874392e-21)
(0.078102127 0.0018519114 -2.1640845e-22)
(0.078676838 0.0020037267 7.1896871e-21)
(0.078134188 0.0015811423 -7.4789749e-21)
(0.076966434 0.0016835806 -2.4356009e-22)
(0.075910659 0.0014346858 -1.2667415e-22)
(0.075116246 0.0013952201 -8.4412486e-21)
(0.073533462 0.0011462854 8.769833e-21)
(0.071542556 0.00074340199 1.4273305e-22)
(0.06960082 0.00089500033 0)
(0.06776517 0.00073604634 0)
(0.066806576 0.00096675125 0)
(0.067829397 0.0022088532 3.3359689e-22)
(0.06879684 0.0017533344 -1.7336217e-22)
(0.068156189 0.0027439116 0)