# Force and moment coefficients
# dragDir       : (1.00000000e+00 0.00000000e+00 0.00000000e+00)
# sideDir       : (0.00000000e+00 0.00000000e+00 -1.00000000e+00)
# liftDir       : (0.00000000e+00 1.00000000e+00 0.00000000e+00)
# rollAxis      : (1.00000000e+00 0.00000000e+00 0.00000000e+00)
# pitchAxis     : (0.00000000e+00 0.00000000e+00 -1.00000000e+00)
# yawAxis       : (0.00000000e+00 1.00000000e+00 0.00000000e+00)
# magUInf       : 1.77482393e-01
# lRef          : 1.00000000e+00
# Aref          : 1.00000000e-02
# CofR          : (0.00000000e+00 0.00000000e+00 0.00000000e+00)
#
# Time          	Cd              	Cd(f)           	Cd(r)           	Cl              	Cl(f)           	Cl(r)           	CmPitch         	CmRoll          	CmYaw           	Cs              	Cs(f)           	Cs(r)           
1501            	1.76012418e+00	8.83762196e-01	8.76361983e-01	-7.40021270e-01	-3.69985217e-01	-3.70036052e-01	2.54175038e-05	3.70010635e-03	8.80062089e-03	5.66284897e-17	8.80062089e-03	-8.80062089e-03
1502            	1.76075350e+00	8.84065207e-01	8.76688293e-01	-7.37691471e-01	-3.68816925e-01	-3.68874546e-01	2.88105504e-05	3.68845736e-03	8.80376750e-03	5.66305398e-17	8.80376750e-03	-8.80376750e-03
1503            	1.75900871e+00	8.83187732e-01	8.75820980e-01	-7.36675232e-01	-3.68305396e-01	-3.68369837e-01	3.22205439e-05	3.68337616e-03	8.79504356e-03	5.66343571e-17	8.79504356e-03	-8.79504356e-03
1504            	1.76092855e+00	8.84147812e-01	8.76780738e-01	-7.36707438e-01	-3.68318069e-01	-3.68389369e-01	3.56499137e-05	3.68353719e-03	8.80464275e-03	5.66336765e-17	8.80464275e-03	-8.80464275e-03
1505            	1.76092773e+00	8.84145830e-01	8.76781901e-01	-7.36392864e-01	-3.68157334e-01	-3.68235530e-01	3.90982076e-05	3.68196432e-03	8.80463866e-03	5.66345757e-17	8.80463866e-03	-8.80463866e-03
1506            	1.76125979e+00	8.84307063e-01	8.76952732e-01	-7.35433092e-01	-3.67673981e-01	-3.67759111e-01	4.25646271e-05	3.67716546e-03	8.80629897e-03	5.66353885e-17	8.80629897e-03	-8.80629897e-03
1507            	1.76266464e+00	8.85006256e-01	8.77658382e-01	-7.34787429e-01	-3.67347666e-01	-3.67439764e-01	4.60489514e-05	3.67393715e-03	8.81332319e-03	5.66350437e-17	8.81332319e-03	-8.81332319e-03
1508            	1.76349118e+00	8.85415398e-01	8.78075777e-01	-7.33962046e-01	-3.66931472e-01	-3.67030574e-01	4.95512436e-05	3.66981023e-03	8.81745588e-03	5.66353895e-17	8.81745588e-03	-8.81745588e-03
1509            	1.76349731e+00	8.85415145e-01	8.78082164e-01	-7.33298150e-01	-3.66596004e-01	-3.66702146e-01	5.30709376e-05	3.66649075e-03	8.81748655e-03	5.66365635e-17	8.81748655e-03	-8.81748655e-03
1510            	1.76397943e+00	8.85653233e-01	8.78326200e-01	-7.32703306e-01	-3.66295045e-01	-3.66408261e-01	5.66081269e-05	3.66351653e-03	8.81989717e-03	5.66373261e-17	8.81989717e-03	-8.81989717e-03
1511            	1.76556889e+00	8.86445264e-01	8.79123621e-01	-7.32164293e-01	-3.66021983e-01	-3.66142309e-01	6.01629899e-05	3.66082146e-03	8.82784443e-03	5.66367758e-17	8.82784443e-03	-8.82784443e-03
1512            	1.76654072e+00	8.86926951e-01	8.79613769e-01	-7.31318180e-01	-3.65595355e-01	-3.65722825e-01	6.37352172e-05	3.65659090e-03	8.83270360e-03	5.66368647e-17	8.83270360e-03	-8.83270360e-03
1513            	1.76654008e+00	8.86922907e-01	8.79617176e-01	-7.30573091e-01	-3.65219222e-01	-3.65353870e-01	6.73241054e-05	3.65286546e-03	8.83270041e-03	5.66379750e-17	8.83270041e-03	-8.83270041e-03
1514            	1.76702440e+00	8.87161967e-01	8.79862433e-01	-7.29953343e-01	-3.64905742e-01	-3.65047601e-01	7.09296343e-05	3.64976671e-03	8.83512200e-03	5.66386008e-17	8.83512200e-03	-8.83512200e-03
1515            	1.76780733e+00	8.87549813e-01	8.80257513e-01	-7.29229988e-01	-3.64540442e-01	-3.64689546e-01	7.45518659e-05	3.64614994e-03	8.83903663e-03	5.66388420e-17	8.83903663e-03	-8.83903663e-03
1516            	1.76851690e+00	8.87900382e-01	8.80616517e-01	-7.28386479e-01	-3.64115049e-01	-3.64271430e-01	7.81905673e-05	3.64193239e-03	8.84258450e-03	5.66390891e-17	8.84258450e-03	-8.84258450e-03
1517            	1.76845252e+00	8.87864359e-01	8.80588164e-01	-7.27619495e-01	-3.63727902e-01	-3.63891593e-01	8.18453389e-05	3.63809748e-03	8.84226261e-03	5.66401585e-17	8.84226261e-03	-8.84226261e-03
1518            	1.76940970e+00	8.88339764e-01	8.81069934e-01	-7.26982965e-01	-3.63405966e-01	-3.63576999e-01	8.55163249e-05	3.63491483e-03	8.84704849e-03	5.66401168e-17	8.84704849e-03	-8.84704849e-03
1519            	1.77031118e+00	8.88786781e-01	8.81524400e-01	-7.26238127e-01	-3.63029860e-01	-3.63208267e-01	8.92035276e-05	3.63119063e-03	8.85155590e-03	5.66400102e-17	8.85155590e-03	-8.85155590e-03
1520            	1.77068687e+00	8.88970330e-01	8.81716536e-01	-7.25379358e-01	-3.62596772e-01	-3.62782585e-01	9.29066367e-05	3.62689679e-03	8.85343433e-03	5.66404089e-17	8.85343433e-03	-8.85343433e-03
1521            	1.77110107e+00	8.89173445e-01	8.81927628e-01	-7.24581752e-01	-3.62194251e-01	-3.62387502e-01	9.66254394e-05	3.62290876e-03	8.85550537e-03	5.66406877e-17	8.85550537e-03	-8.85550537e-03
1522            	1.77203942e+00	8.89639225e-01	8.82400191e-01	-7.23903382e-01	-3.61851331e-01	-3.62052051e-01	1.00360011e-04	3.61951691e-03	8.86019708e-03	5.66403978e-17	8.86019708e-03	-8.86019708e-03
1523            	1.77252854e+00	8.89879591e-01	8.82648948e-01	-7.23064263e-01	-3.61428021e-01	-3.61636241e-01	1.04110047e-04	3.61532131e-03	8.86264270e-03	5.66405384e-17	8.86264270e-03	-8.86264270e-03
1524            	1.77293802e+00	8.90080467e-01	8.82857557e-01	-7.22291047e-01	-3.61037648e-01	-3.61253399e-01	1.07875323e-04	3.61145524e-03	8.86469012e-03	5.66407250e-17	8.86469012e-03	-8.86469012e-03
1525            	1.77376204e+00	8.90488736e-01	8.83273307e-01	-7.21542927e-01	-3.60659808e-01	-3.60883120e-01	1.11655954e-04	3.60771464e-03	8.86881021e-03	5.66402931e-17	8.86881021e-03	-8.86881021e-03
1526            	1.77462110e+00	8.90914460e-01	8.83706639e-01	-7.20782100e-01	-3.60275598e-01	-3.60506502e-01	1.15451792e-04	3.60391050e-03	8.87310549e-03	5.66398716e-17	8.87310549e-03	-8.87310549e-03
1527            	1.77502767e+00	8.91113673e-01	8.83913999e-01	-7.19967413e-01	-3.59864444e-01	-3.60102969e-01	1.19262456e-04	3.59983706e-03	8.87513836e-03	5.66401720e-17	8.87513836e-03	-8.87513836e-03
1528            	1.77544557e+00	8.91318190e-01	8.84127380e-01	-7.19081007e-01	-3.59417416e-01	-3.59663591e-01	1.23087611e-04	3.59540503e-03	8.87722785e-03	5.66403895e-17	8.87722785e-03	-8.87722785e-03
1529            	1.77660717e+00	8.91895345e-01	8.84711828e-01	-7.18351722e-01	-3.59048934e-01	-3.59302788e-01	1.26927355e-04	3.59175861e-03	8.88303587e-03	5.66397800e-17	8.88303587e-03	-8.88303587e-03
1530            	1.77714130e+00	8.92158143e-01	8.84983157e-01	-7.17498553e-01	-3.58618495e-01	-3.58880058e-01	1.30781526e-04	3.58749277e-03	8.88570650e-03	5.66397901e-17	8.88570650e-03	-8.88570650e-03
1531            	1.77758350e+00	8.92374763e-01	8.85208738e-01	-7.16602480e-01	-3.58166590e-01	-3.58435889e-01	1.34649645e-04	3.58301240e-03	8.88791750e-03	5.66398900e-17	8.88791750e-03	-8.88791750e-03
1532            	1.77795597e+00	8.92556934e-01	8.85399039e-01	-7.15789534e-01	-3.57756235e-01	-3.58033299e-01	1.38531562e-04	3.57894767e-03	8.88977986e-03	5.66400322e-17	8.88977986e-03	-8.88977986e-03
1533            	1.77877131e+00	8.92960614e-01	8.85810691e-01	-7.14992312e-01	-3.57353729e-01	-3.57638583e-01	1.42427387e-04	3.57496156e-03	8.89385653e-03	5.66396234e-17	8.89385653e-03	-8.89385653e-03
1534            	1.77925085e+00	8.93195894e-01	8.86054957e-01	-7.14093625e-01	-3.56900475e-01	-3.57193149e-01	1.46336914e-04	3.57046812e-03	8.89625426e-03	5.66395075e-17	8.89625426e-03	-8.89625426e-03
1535            	1.77969197e+00	8.93412108e-01	8.86279864e-01	-7.13224355e-01	-3.56461918e-01	-3.56762438e-01	1.50259871e-04	3.56612178e-03	8.89845986e-03	5.66394136e-17	8.89845986e-03	-8.89845986e-03
1536            	1.78039321e+00	8.93758971e-01	8.86634241e-01	-7.12472997e-01	-3.56082302e-01	-3.56390695e-01	1.54196298e-04	3.56236498e-03	8.90196606e-03	5.66390150e-17	8.90196606e-03	-8.90196606e-03
1537            	1.78087011e+00	8.93992930e-01	8.86877178e-01	-7.11575218e-01	-3.55629463e-01	-3.55945755e-01	1.58146039e-04	3.55787609e-03	8.90435054e-03	5.66388046e-17	8.90435054e-03	-8.90435054e-03
1538            	1.78149614e+00	8.94301707e-01	8.87194432e-01	-7.10727523e-01	-3.55201652e-01	-3.55525870e-01	1.62108972e-04	3.55363761e-03	8.90748069e-03	5.66383722e-17	8.90748069e-03	-8.90748069e-03
1539            	1.78212175e+00	8.94610142e-01	8.87511612e-01	-7.09852944e-01	-3.54760387e-01	-3.55092557e-01	1.66085075e-04	3.54926472e-03	8.91060877e-03	5.66378523e-17	8.91060877e-03	-8.91060877e-03
1540            	1.78252882e+00	8.94809277e-01	8.87719545e-01	-7.08973221e-01	-3.54316536e-01	-3.54656685e-01	1.70074197e-04	3.54486610e-03	8.91264411e-03	5.66375285e-17	8.91264411e-03	-8.91264411e-03
1541            	1.78297682e+00	8.95029085e-01	8.87947733e-01	-7.08135134e-01	-3.53893491e-01	-3.54241643e-01	1.74076341e-04	3.54067567e-03	8.91488409e-03	5.66371421e-17	8.91488409e-03	-8.91488409e-03
1542            	1.78325393e+00	8.95163029e-01	8.88090898e-01	-7.07213074e-01	-3.53428445e-01	-3.53784628e-01	1.78091385e-04	3.53606537e-03	8.91626963e-03	5.66368975e-17	8.91626963e-03	-8.91626963e-03
1543            	1.78387316e+00	8.95468266e-01	8.88404894e-01	-7.06337256e-01	-3.52986509e-01	-3.53350747e-01	1.82119312e-04	3.53168628e-03	8.91936580e-03	5.66361873e-17	8.91936580e-03	-8.91936580e-03
1544            	1.78419718e+00	8.95625527e-01	8.88571649e-01	-7.05387878e-01	-3.52507779e-01	-3.52880099e-01	1.86160041e-04	3.52693939e-03	8.92098588e-03	5.66358980e-17	8.92098588e-03	-8.92098588e-03
1545            	1.78493967e+00	8.95992567e-01	8.88947107e-01	-7.04546004e-01	-3.52082789e-01	-3.52463215e-01	1.90213464e-04	3.52273002e-03	8.92469837e-03	5.66352116e-17	8.92469837e-03	-8.92469837e-03
1546            	1.78549080e+00	8.96263871e-01	8.89226926e-01	-7.03694502e-01	-3.51652972e-01	-3.52041531e-01	1.94279489e-04	3.51847251e-03	8.92745399e-03	5.66346839e-17	8.92745399e-03	-8.92745399e-03
1547            	1.78602429e+00	8.96526329e-01	8.89497963e-01	-7.02836641e-01	-3.51219963e-01	-3.51616678e-01	1.98357885e-04	3.51418321e-03	8.93012146e-03	5.66342006e-17	8.93012146e-03	-8.93012146e-03
1548            	1.78664020e+00	8.96829697e-01	8.89810506e-01	-7.01919026e-01	-3.50757064e-01	-3.51161961e-01	2.02448445e-04	3.50959513e-03	8.93320102e-03	5.66335900e-17	8.93320102e-03	-8.93320102e-03
1549            	1.78734349e+00	8.97177174e-01	8.90166315e-01	-7.01085898e-01	-3.50336398e-01	-3.50749500e-01	2.06551041e-04	3.50542949e-03	8.93671745e-03	5.66328674e-17	8.93671745e-03	-8.93671745e-03
1550            	1.78787148e+00	8.97436734e-01	8.90434745e-01	-7.00198964e-01	-3.49888816e-01	-3.50310147e-01	2.10665465e-04	3.50099482e-03	8.93935740e-03	5.66322899e-17	8.93935740e-03	-8.93935740e-03
1551            	1.78852615e+00	8.97759557e-01	8.90766596e-01	-6.99296106e-01	-3.49433262e-01	-3.49862845e-01	2.14791482e-04	3.49648053e-03	8.94263077e-03	5.66315688e-17	8.94263077e-03	-8.94263077e-03
1552            	1.78883627e+00	8.97909757e-01	8.90926510e-01	-6.98324717e-01	-3.48943430e-01	-3.49381287e-01	2.18928881e-04	3.49162358e-03	8.94418133e-03	5.66312077e-17	8.94418133e-03	-8.94418133e-03
1553            	1.78914184e+00	8.98057798e-01	8.91084045e-01	-6.97375385e-01	-3.48464615e-01	-3.48910770e-01	2.23077448e-04	3.48687693e-03	8.94570921e-03	5.66308577e-17	8.94570921e-03	-8.94570921e-03
1554            	1.78964874e+00	8.98306726e-01	8.91342012e-01	-6.96471397e-01	-3.48008461e-01	-3.48462936e-01	2.27237149e-04	3.48235698e-03	8.94824369e-03	5.66303047e-17	8.94824369e-03	-8.94824369e-03
1555            	1.79021965e+00	8.98587518e-01	8.91632132e-01	-6.95538646e-01	-3.47537915e-01	-3.48000731e-01	2.31407914e-04	3.47769323e-03	8.95109825e-03	5.66296749e-17	8.95109825e-03	-8.95109825e-03
1556            	1.79052240e+00	8.98733843e-01	8.91788559e-01	-6.94528407e-01	-3.47028614e-01	-3.47499793e-01	2.35589530e-04	3.47264204e-03	8.95261201e-03	5.66293356e-17	8.95261201e-03	-8.95261201e-03
1557            	1.79098586e+00	8.98961155e-01	8.92024706e-01	-6.93644871e-01	-3.46582653e-01	-3.47062217e-01	2.39781932e-04	3.46822435e-03	8.95492930e-03	5.66288300e-17	8.95492930e-03	-8.95492930e-03
1558            	1.79130885e+00	8.99117904e-01	8.92190946e-01	-6.92695851e-01	-3.46103940e-01	-3.46591911e-01	2.43985066e-04	3.46347926e-03	8.95654425e-03	5.66285327e-17	8.95654425e-03	-8.95654425e-03
1559            	1.79200471e+00	8.99461033e-01	8.92543672e-01	-6.91736056e-01	-3.45619829e-01	-3.46116227e-01	2.48198895e-04	3.45868028e-03	8.96002353e-03	5.66278402e-17	8.96002353e-03	-8.96002353e-03
1560            	1.79271594e+00	8.99812106e-01	8.92903835e-01	-6.90827157e-01	-3.45161155e-01	-3.45666002e-01	2.52423372e-04	3.45413578e-03	8.96357970e-03	5.66269711e-17	8.96357970e-03	-8.96357970e-03
1561            	1.79307775e+00	8.99988553e-01	8.93089200e-01	-6.89935343e-01	-3.44711013e-01	-3.45224330e-01	2.56658277e-04	3.44967672e-03	8.96538877e-03	5.66264762e-17	8.96538877e-03	-8.96538877e-03
1562            	1.79339731e+00	9.00143588e-01	8.93253725e-01	-6.88986286e-01	-3.44232240e-01	-3.44754047e-01	2.60903392e-04	3.44493143e-03	8.96698657e-03	5.66260870e-17	8.96698657e-03	-8.96698657e-03
1563            	1.79395768e+00	9.00419158e-01	8.93538522e-01	-6.88063546e-01	-3.43766614e-01	-3.44296932e-01	2.65158669e-04	3.44031773e-03	8.96978840e-03	5.66254878e-17	8.96978840e-03	-8.96978840e-03
1564            	1.79440448e+00	9.00637675e-01	8.93766802e-01	-6.87087275e-01	-3.43274214e-01	-3.43813061e-01	2.69423927e-04	3.43543637e-03	8.97202238e-03	5.66250495e-17	8.97202238e-03	-8.97202238e-03
1565            	1.79469898e+00	9.00779915e-01	8.93919067e-01	-6.86084779e-01	-3.42768691e-01	-3.43316088e-01	2.73698856e-04	3.43042390e-03	8.97349491e-03	5.66248535e-17	8.97349491e-03	-8.97349491e-03
1566            	1.79493571e+00	9.00893274e-01	8.94042438e-01	-6.85083635e-01	-3.42263834e-01	-3.42819801e-01	2.77983266e-04	3.42541818e-03	8.97467856e-03	5.66248097e-17	8.97467856e-03	-8.97467856e-03
1567            	1.79549691e+00	9.01168795e-01	8.94328116e-01	-6.84067833e-01	-3.41751639e-01	-3.42316193e-01	2.82277057e-04	3.42033916e-03	8.97748456e-03	5.66244691e-17	8.97748456e-03	-8.97748456e-03
1568            	1.79623527e+00	9.01533492e-01	8.94701780e-01	-6.83171162e-01	-3.41299001e-01	-3.41872161e-01	2.86580148e-04	3.41585581e-03	8.98117636e-03	5.66240999e-17	8.98117636e-03	-8.98117636e-03
1569            	1.79676317e+00	9.01792755e-01	8.94970418e-01	-6.82233743e-01	-3.40825979e-01	-3.41407764e-01	2.90892351e-04	3.41116871e-03	8.98381587e-03	5.66240290e-17	8.98381587e-03	-8.98381587e-03
1570            	1.79729034e+00	9.02051537e-01	8.95238806e-01	-6.81273101e-01	-3.40341337e-01	-3.40931764e-01	2.95213387e-04	3.40636551e-03	8.98645172e-03	5.66240479e-17	8.98645172e-03	-8.98645172e-03
1571            	1.79774271e+00	9.02272945e-01	8.95469769e-01	-6.80317609e-01	-3.39859261e-01	-3.40458348e-01	2.99543091e-04	3.40158804e-03	8.98871357e-03	5.66242399e-17	8.98871357e-03	-8.98871357e-03
1572            	1.79817772e+00	9.02485415e-01	8.95692307e-01	-6.79310747e-01	-3.39351492e-01	-3.39959255e-01	3.03881313e-04	3.39655373e-03	8.99088861e-03	5.66245341e-17	8.99088861e-03	-8.99088861e-03
1573            	1.79872166e+00	9.02752656e-01	8.95969003e-01	-6.78365262e-01	-3.38874403e-01	-3.39490859e-01	3.08227959e-04	3.39182631e-03	8.99360830e-03	5.66247832e-17	8.99360830e-03	-8.99360830e-03
1574            	1.79927277e+00	9.03023593e-01	8.96249178e-01	-6.77441545e-01	-3.38408190e-01	-3.39033355e-01	3.12582954e-04	3.38720772e-03	8.99636386e-03	5.66250840e-17	8.99636386e-03	-8.99636386e-03
1575            	1.79972862e+00	9.03246838e-01	8.96481778e-01	-6.76506002e-01	-3.37936055e-01	-3.38569947e-01	3.16946042e-04	3.38253001e-03	8.99864308e-03	5.66255800e-17	8.99864308e-03	-8.99864308e-03
1576            	1.79999154e+00	9.03373131e-01	8.96618413e-01	-6.75471820e-01	-3.37414593e-01	-3.38057227e-01	3.21316934e-04	3.37735910e-03	8.99995772e-03	5.66263652e-17	8.99995772e-03	-8.99995772e-03
1577            	1.80026609e+00	9.03505150e-01	8.96760938e-01	-6.74421238e-01	-3.36884923e-01	-3.37536314e-01	3.25695342e-04	3.37210619e-03	9.00133044e-03	5.66272086e-17	9.00133044e-03	-9.00133044e-03
1578            	1.80071502e+00	9.03724640e-01	8.96990383e-01	-6.73425706e-01	-3.36382772e-01	-3.37042934e-01	3.30081165e-04	3.36712853e-03	9.00357512e-03	5.66279309e-17	9.00357512e-03	-9.00357512e-03
1579            	1.80069267e+00	9.03708208e-01	8.96984465e-01	-6.72374253e-01	-3.35852652e-01	-3.36521601e-01	3.34474126e-04	3.36187126e-03	9.00346337e-03	5.66292896e-17	9.00346337e-03	-9.00346337e-03
1580            	1.80084168e+00	9.03777955e-01	8.97063725e-01	-6.71423030e-01	-3.35372641e-01	-3.36050389e-01	3.38874050e-04	3.35711515e-03	9.00420840e-03	5.66304410e-17	9.00420840e-03	-9.00420840e-03
1581            	1.80122028e+00	9.03962188e-01	8.97258088e-01	-6.70410008e-01	-3.34861723e-01	-3.35548285e-01	3.43280967e-04	3.35205004e-03	9.00610138e-03	5.66314036e-17	9.00610138e-03	-9.00610138e-03
1582            	1.80165140e+00	9.04172483e-01	8.97478916e-01	-6.69356716e-01	-3.34330663e-01	-3.35026053e-01	3.47694742e-04	3.34678358e-03	9.00825700e-03	5.66323760e-17	9.00825700e-03	-9.00825700e-03
1583            	1.80306221e+00	9.04873619e-01	8.98188590e-01	-6.68502830e-01	-3.33899299e-01	-3.34603530e-01	3.52115519e-04	3.34251415e-03	9.01531105e-03	5.66322576e-17	9.01531105e-03	-9.01531105e-03
1584            	1.80378227e+00	9.05228250e-01	8.98554022e-01	-6.67422790e-01	-3.33354852e-01	-3.34067938e-01	3.56543093e-04	3.33711395e-03	9.01891136e-03	5.66329805e-17	9.01891136e-03	-9.01891136e-03
1585            	1.80389198e+00	9.05277614e-01	8.98614363e-01	-6.66325150e-01	-3.32801598e-01	-3.33523552e-01	3.60976944e-04	3.33162575e-03	9.01945988e-03	5.66343926e-17	9.01945988e-03	-9.01945988e-03
1586            	1.80410733e+00	9.05380229e-01	8.98727096e-01	-6.65313271e-01	-3.32291218e-01	-3.33022052e-01	3.65416834e-04	3.32656635e-03	9.02053663e-03	5.66356785e-17	9.02053663e-03	-9.02053663e-03
1587            	1.80449646e+00	9.05569848e-01	8.98926611e-01	-6.64323682e-01	-3.31791978e-01	-3.32531703e-01	3.69862671e-04	3.32161841e-03	9.02248230e-03	5.66367309e-17	9.02248230e-03	-9.02248230e-03
1588            	1.80369320e+00	9.05162075e-01	8.98531129e-01	-6.63094610e-01	-3.31172991e-01	-3.31921619e-01	3.74313943e-04	3.31547305e-03	9.01846602e-03	5.66392175e-17	9.01846602e-03	-9.01846602e-03
1589            	1.80374284e+00	9.05182090e-01	8.98560750e-01	-6.62133987e-01	-3.30688223e-01	-3.31445764e-01	3.78770401e-04	3.31066993e-03	9.01871420e-03	5.66407074e-17	9.01871420e-03	-9.01871420e-03
1590            	1.80433424e+00	9.05472693e-01	8.98861547e-01	-6.61114584e-01	-3.30174060e-01	-3.30940524e-01	3.83232101e-04	3.30557292e-03	9.02167120e-03	5.66416249e-17	9.02167120e-03	-9.02167120e-03
1591            	1.80483591e+00	9.05718429e-01	8.99117485e-01	-6.60094441e-01	-3.29659522e-01	-3.30434919e-01	3.87698868e-04	3.30047220e-03	9.02417957e-03	5.66425951e-17	9.02417957e-03	-9.02417957e-03
1592            	1.80516351e+00	9.05877029e-01	8.99286483e-01	-6.59054643e-01	-3.29135151e-01	-3.29919492e-01	3.92170468e-04	3.29527321e-03	9.02581756e-03	5.66437254e-17	9.02581756e-03	-9.02581756e-03
1593            	1.80550949e+00	9.06044908e-01	8.99464584e-01	-6.58032460e-01	-3.28619584e-01	-3.29412877e-01	3.96646653e-04	3.29016230e-03	9.02754746e-03	5.66448463e-17	9.02754746e-03	-9.02754746e-03
1594            	1.80595556e+00	9.06262911e-01	8.99692648e-01	-6.57026278e-01	-3.28112012e-01	-3.28914266e-01	4.01127291e-04	3.28513139e-03	9.02977780e-03	5.66458409e-17	9.02977780e-03	-9.02977780e-03
1595            	1.80629714e+00	9.06428609e-01	8.99868532e-01	-6.56007674e-01	-3.27598225e-01	-3.28409449e-01	4.05612234e-04	3.28003837e-03	9.03148571e-03	5.66468963e-17	9.03148571e-03	-9.03148571e-03
1596            	1.80502537e+00	9.05786557e-01	8.99238814e-01	-6.54774259e-01	-3.26977029e-01	-3.27797230e-01	4.10100861e-04	3.27387130e-03	9.02512686e-03	5.66497883e-17	9.02512686e-03	-9.02512686e-03
1597            	1.80462894e+00	9.05583124e-01	8.99045811e-01	-6.53731300e-01	-3.26451057e-01	-3.27280243e-01	4.14593020e-04	3.26865650e-03	9.02314468e-03	5.66515613e-17	9.02314468e-03	-9.02314468e-03
1598            	1.80678098e+00	9.06654825e-01	9.00126151e-01	-6.52867436e-01	-3.26014628e-01	-3.26852807e-01	4.19089548e-04	3.26433718e-03	9.03390488e-03	5.66504577e-17	9.03390488e-03	-9.03390488e-03
1599            	1.80776406e+00	9.07140740e-01	9.00623320e-01	-6.51742011e-01	-3.25447415e-01	-3.26294596e-01	4.23590182e-04	3.25871005e-03	9.03882030e-03	5.66506761e-17	9.03882030e-03	-9.03882030e-03
1600            	1.80761152e+00	9.07058896e-01	9.00552627e-01	-6.50626836e-01	-3.24885324e-01	-3.25741512e-01	4.28094031e-04	3.25313418e-03	9.03805762e-03	5.66521201e-17	9.03805762e-03	-9.03805762e-03
1601            	1.80748180e+00	9.06988861e-01	9.00492935e-01	-6.49592661e-01	-3.24363730e-01	-3.25228931e-01	4.32600718e-04	3.24796331e-03	9.03740898e-03	5.66535235e-17	9.03740898e-03	-9.03740898e-03
1602            	1.80774855e+00	9.07117263e-01	9.00631290e-01	-6.48597311e-01	-3.23861545e-01	-3.24735766e-01	4.37110182e-04	3.24298656e-03	9.03874277e-03	5.66544977e-17	9.03874277e-03	-9.03874277e-03
1603            	1.80820549e+00	9.07340079e-01	9.00865407e-01	-6.47467202e-01	-3.23291979e-01	-3.24175223e-01	4.41622269e-04	3.23733601e-03	9.04102743e-03	5.66552483e-17	9.04102743e-03	-9.04102743e-03
1604            	1.81045230e+00	9.08459129e-01	9.01993167e-01	-6.46596146e-01	-3.22851936e-01	-3.23744210e-01	4.46137109e-04	3.23298073e-03	9.05226148e-03	5.66539486e-17	9.05226148e-03	-9.05226148e-03
1605            	1.81128089e+00	9.08868137e-01	9.02412756e-01	-6.45538052e-01	-3.22318372e-01	-3.23219681e-01	4.50654363e-04	3.22769026e-03	9.05640447e-03	5.66542003e-17	9.05640447e-03	-9.05640447e-03
1606            	1.81120614e+00	9.08825534e-01	9.02380607e-01	-6.44492708e-01	-3.21791181e-01	-3.22701527e-01	4.55173312e-04	3.22246354e-03	9.05603071e-03	5.66555018e-17	9.05603071e-03	-9.05603071e-03
1607            	1.81121765e+00	9.08825987e-01	9.02391662e-01	-6.43432520e-01	-3.21256566e-01	-3.22175954e-01	4.59693676e-04	3.21716260e-03	9.05608825e-03	5.66566405e-17	9.05608825e-03	-9.05608825e-03
1608            	1.81176301e+00	9.09093503e-01	9.02669512e-01	-6.42399099e-01	-3.20735334e-01	-3.21663765e-01	4.64215360e-04	3.21199550e-03	9.05881507e-03	5.66571542e-17	9.05881507e-03	-9.05881507e-03
1609            	1.81228531e+00	9.09349399e-01	9.02935911e-01	-6.41348723e-01	-3.20205623e-01	-3.21143099e-01	4.68738124e-04	3.20674361e-03	9.06142655e-03	5.66576510e-17	9.06142655e-03	-9.06142655e-03
1610            	1.81234652e+00	9.09374286e-01	9.02972237e-01	-6.40204863e-01	-3.19629170e-01	-3.20575693e-01	4.73261517e-04	3.20102431e-03	9.06173262e-03	5.66586123e-17	9.06173262e-03	-9.06173262e-03
1611            	1.81243330e+00	9.09412083e-01	9.03021215e-01	-6.39086793e-01	-3.19065611e-01	-3.20021181e-01	4.77785161e-04	3.19543396e-03	9.06216649e-03	5.66595599e-17	9.06216649e-03	-9.06216649e-03
1612            	1.81265054e+00	9.09514992e-01	9.03135544e-01	-6.37944758e-01	-3.18490070e-01	-3.19454688e-01	4.82308780e-04	3.18972379e-03	9.06325268e-03	5.66603387e-17	9.06325268e-03	-9.06325268e-03
1613            	1.81294512e+00	9.09656720e-01	9.03288398e-01	-6.36832138e-01	-3.17929237e-01	-3.18902901e-01	4.86832180e-04	3.18416069e-03	9.06472559e-03	5.66610075e-17	9.06472559e-03	-9.06472559e-03
1614            	1.81123947e+00	9.08797585e-01	9.02441888e-01	-6.35569700e-01	-3.17293495e-01	-3.18276205e-01	4.91354726e-04	3.17784850e-03	9.05619737e-03	5.66639573e-17	9.05619737e-03	-9.05619737e-03
1615            	1.81108354e+00	9.08714292e-01	9.02369251e-01	-6.34504096e-01	-3.16756172e-01	-3.17747924e-01	4.95876262e-04	3.17252048e-03	9.05541772e-03	5.66651339e-17	9.05541772e-03	-9.05541772e-03
1616            	1.81175554e+00	9.09045646e-01	9.02709895e-01	-6.33575103e-01	-3.16287154e-01	-3.17287949e-01	5.00397192e-04	3.16787552e-03	9.05877771e-03	5.66653287e-17	9.05877771e-03	-9.05877771e-03
1617            	1.81233797e+00	9.09331233e-01	9.03006739e-01	-6.32449377e-01	-3.15719771e-01	-3.16729606e-01	5.04917438e-04	3.16224688e-03	9.06168986e-03	5.66656458e-17	9.06168986e-03	-9.06168986e-03
1618            	1.81244802e+00	9.09380381e-01	9.03067635e-01	-6.31274626e-01	-3.15127876e-01	-3.16146749e-01	5.09436404e-04	3.15637313e-03	9.06224008e-03	5.66664742e-17	9.06224008e-03	-9.06224008e-03
1619            	1.81470765e+00	9.10505800e-01	9.04201845e-01	-6.30395455e-01	-3.14683773e-01	-3.15711682e-01	5.13954334e-04	3.15197728e-03	9.07353823e-03	5.66648485e-17	9.07353823e-03	-9.07353823e-03
1620            	1.81542854e+00	9.10860449e-01	9.04568088e-01	-6.29236063e-01	-3.14099561e-01	-3.15136502e-01	5.18470829e-04	3.14618031e-03	9.07714269e-03	5.66649628e-17	9.07714269e-03	-9.07714269e-03
1621            	1.81511218e+00	9.10696250e-01	9.04415935e-01	-6.28031418e-01	-3.13492724e-01	-3.14538694e-01	5.22984980e-04	3.14015709e-03	9.07556092e-03	5.66662257e-17	9.07556092e-03	-9.07556092e-03
1622            	1.81481240e+00	9.10540735e-01	9.04271664e-01	-6.26907106e-01	-3.12926057e-01	-3.13981049e-01	5.27496349e-04	3.13453553e-03	9.07406199e-03	5.66674459e-17	9.07406199e-03	-9.07406199e-03
1623            	1.81504317e+00	9.10650444e-01	9.04392727e-01	-6.25771733e-01	-3.12353862e-01	-3.13417871e-01	5.32004766e-04	3.12885866e-03	9.07521585e-03	5.66680660e-17	9.07521585e-03	-9.07521585e-03
1624            	1.81541326e+00	9.10829676e-01	9.04583586e-01	-6.24609010e-01	-3.11767995e-01	-3.12841015e-01	5.36509944e-04	3.12304505e-03	9.07706631e-03	5.66685116e-17	9.07706631e-03	-9.07706631e-03
1625            	1.81558019e+00	9.10907351e-01	9.04672836e-01	-6.23451505e-01	-3.11184741e-01	-3.12266764e-01	5.41011595e-04	3.11725752e-03	9.07790094e-03	5.66691462e-17	9.07790094e-03	-9.07790094e-03
1626            	1.81575499e+00	9.10989266e-01	9.04765726e-01	-6.22354002e-01	-3.10631492e-01	-3.11722511e-01	5.45509491e-04	3.11177001e-03	9.07877496e-03	5.66697694e-17	9.07877496e-03	-9.07877496e-03
1627            	1.81611791e+00	9.11165292e-01	9.04952617e-01	-6.21267522e-01	-3.10083758e-01	-3.11183764e-01	5.50003358e-04	3.10633761e-03	9.08058954e-03	5.66701494e-17	9.08058954e-03	-9.08058954e-03
1628            	1.81613369e+00	9.11167059e-01	9.04966630e-01	-6.20042867e-01	-3.09466941e-01	-3.10575926e-01	5.54492766e-04	3.10021433e-03	9.08066844e-03	5.66708095e-17	9.08066844e-03	-9.08066844e-03
1629            	1.81620097e+00	9.11194660e-01	9.05006308e-01	-6.18835206e-01	-3.08858626e-01	-3.09976580e-01	5.58977352e-04	3.09417603e-03	9.08100484e-03	5.66714307e-17	9.08100484e-03	-9.08100484e-03
1630            	1.81632792e+00	9.11252225e-01	9.05075691e-01	-6.17653426e-01	-3.08263256e-01	-3.09390170e-01	5.63456837e-04	3.08826713e-03	9.08163958e-03	5.66719430e-17	9.08163958e-03	-9.08163958e-03
1631            	1.81637699e+00	9.11270904e-01	9.05106087e-01	-6.16481667e-01	-3.07672902e-01	-3.08808764e-01	5.67930951e-04	3.08240833e-03	9.08188496e-03	5.66724910e-17	9.08188496e-03	-9.08188496e-03
1632            	1.81640784e+00	9.11280273e-01	9.05127571e-01	-6.15270224e-01	-3.07062713e-01	-3.08207511e-01	5.72399376e-04	3.07635112e-03	9.08203922e-03	5.66729990e-17	9.08203922e-03	-9.08203922e-03
1633            	1.81633093e+00	9.11235616e-01	9.05095317e-01	-6.14029840e-01	-3.06438058e-01	-3.07591782e-01	5.76861755e-04	3.07014920e-03	9.08165466e-03	5.66736276e-17	9.08165466e-03	-9.08165466e-03
1634            	1.81627367e+00	9.11200935e-01	9.05072735e-01	-6.12820005e-01	-3.05828684e-01	-3.06991320e-01	5.81317837e-04	3.06410002e-03	9.08136835e-03	5.66743053e-17	9.08136835e-03	-9.08136835e-03
1635            	1.81631968e+00	9.11217699e-01	9.05101979e-01	-6.11571979e-01	-3.05200222e-01	-3.06371757e-01	5.85767410e-04	3.05785990e-03	9.08159839e-03	5.66749241e-17	9.08159839e-03	-9.08159839e-03
1636            	1.81634701e+00	9.11225219e-01	9.05121793e-01	-6.10342612e-01	-3.04581096e-01	-3.05761516e-01	5.90210128e-04	3.05171306e-03	9.08173506e-03	5.66755869e-17	9.08173506e-03	-9.08173506e-03
1637            	1.81657579e+00	9.11333997e-01	9.05241792e-01	-6.09220422e-01	-3.04015565e-01	-3.05204857e-01	5.94645771e-04	3.04610211e-03	9.08287894e-03	5.66760407e-17	9.08287894e-03	-9.08287894e-03
1638            	1.81664527e+00	9.11362567e-01	9.05282702e-01	-6.07986473e-01	-3.03394163e-01	-3.04592311e-01	5.99073997e-04	3.03993237e-03	9.08322635e-03	5.66765647e-17	9.08322635e-03	-9.08322635e-03
1639            	1.81837019e+00	9.12218955e-01	9.06151237e-01	-6.06771788e-01	-3.02782399e-01	-3.03989389e-01	6.03494744e-04	3.03385894e-03	9.09185096e-03	5.66750936e-17	9.09185096e-03	-9.09185096e-03
1640            	1.81884235e+00	9.12448445e-01	9.06393908e-01	-6.05453666e-01	-3.02118926e-01	-3.03334741e-01	6.07907562e-04	3.02726833e-03	9.09421177e-03	5.66751568e-17	9.09421177e-03	-9.09421177e-03
1641            	1.81826917e+00	9.12155288e-01	9.06113881e-01	-6.04140688e-01	-3.01458032e-01	-3.02682656e-01	6.12311650e-04	3.02070344e-03	9.09134585e-03	5.66763447e-17	9.09134585e-03	-9.09134585e-03
1642            	1.81804894e+00	9.12039066e-01	9.06009876e-01	-6.02918975e-01	-3.00842781e-01	-3.02076194e-01	6.16706558e-04	3.01459487e-03	9.09024471e-03	5.66770833e-17	9.09024471e-03	-9.09024471e-03
1643            	1.81794662e+00	9.11981511e-01	9.05965104e-01	-6.01640702e-01	-3.00199259e-01	-3.01441443e-01	6.21092037e-04	3.00820351e-03	9.08973308e-03	5.66776240e-17	9.08973308e-03	-9.08973308e-03
1644            	1.81762363e+00	9.11812825e-01	9.05810807e-01	-6.00201803e-01	-2.99475434e-01	-3.00726369e-01	6.25467781e-04	3.00100901e-03	9.08811816e-03	5.66783378e-17	9.08811816e-03	-9.08811816e-03
1645            	1.81768286e+00	9.11836341e-01	9.05846517e-01	-5.98982457e-01	-2.98861395e-01	-3.00121062e-01	6.29833347e-04	2.99491228e-03	9.08841429e-03	5.66787105e-17	9.08841429e-03	-9.08841429e-03