/*--------------------------------*- C++ -*----------------------------------*\
| =========                 |                                                 |
| \\      /  F ield         | OpenFOAM: The Open Source CFD Toolbox           |
|  \\    /   O peration     | Version:  2406                                  |
|   \\  /    A nd           | Website:  www.openfoam.com                      |
|    \\/     M anipulation  |                                                 |
\*---------------------------------------------------------------------------*/
FoamFile
{
    version     2.0;
    format      ascii;
    arch        "LSB;label=32;scalar=64";
    class       volScalarField;
    location    "62140";
    object      nut;
}
// * * * * * * * * * * * * * * * * * * * * * * * * * * * * * * * * * * * * * //

dimensions      [0 2 -1 0 0 0 0];

internalField   nonuniform List<scalar> 
94692
(
8.1018313e-07
8.3649582e-07
9.9694092e-07
1.1499265e-06
1.2365128e-06
1.2743123e-06
1.285095e-06
1.2875587e-06
1.2843234e-06
1.2812428e-06
1.2765902e-06
1.2723821e-06
1.2684358e-06
1.2635412e-06
1.2608441e-06
1.2552229e-06
1.2539197e-06
1.2476284e-06
1.2475879e-06
1.2408481e-06
1.2417213e-06
1.2348967e-06
1.2362279e-06
1.2297347e-06
1.2310908e-06
1.2252536e-06
1.2263519e-06
1.2213076e-06
1.2220697e-06
1.2177658e-06
1.2182785e-06
1.2145488e-06
1.214971e-06
1.2116319e-06
1.2120924e-06
1.2090365e-06
1.2095834e-06
1.2067914e-06
1.207386e-06
1.2049306e-06
1.2054759e-06
1.2034579e-06
1.2038881e-06
1.2023655e-06
1.2027373e-06
1.2016039e-06
1.2020785e-06
1.2010704e-06
1.2018436e-06
1.2008745e-06
1.2018402e-06
1.2011306e-06
1.2020474e-06
1.2017857e-06
1.2026045e-06
1.2030679e-06
1.2038914e-06
1.205036e-06
1.2059096e-06
1.2077842e-06
1.2087046e-06
1.2114219e-06
1.2129051e-06
1.2161539e-06
1.2187888e-06
1.2222965e-06
1.2254107e-06
1.2286695e-06
1.2331657e-06
1.2370835e-06
1.2433683e-06
1.2471276e-06
1.2537561e-06
1.2586766e-06
1.2661256e-06
1.2722335e-06
1.275284e-06
1.2820207e-06
1.2843367e-06
1.2904049e-06
1.2883955e-06
1.2938144e-06
1.2912949e-06
1.2973439e-06
1.2946083e-06
1.2981008e-06
1.2951252e-06
1.2982399e-06
1.2961547e-06
1.2975144e-06
1.3005415e-06
1.3026336e-06
1.3050025e-06
1.3087576e-06
1.3145383e-06
1.3234645e-06
1.328843e-06
1.342207e-06
1.3717704e-06
8.1028694e-07
8.3656721e-07
9.9657871e-07
1.1493532e-06
1.2354206e-06
1.2732576e-06
1.2835392e-06
1.2860943e-06
1.282292e-06
1.2792724e-06
1.2739778e-06
1.2697876e-06
1.2651252e-06
1.2601853e-06
1.2567659e-06
1.2513716e-06
1.249722e-06
1.2438446e-06
1.2436422e-06
1.2372767e-06
1.2380887e-06
1.2316041e-06
1.2329053e-06
1.2267819e-06
1.2280451e-06
1.2226942e-06
1.2235351e-06
1.2191765e-06
1.2194346e-06
1.2160707e-06
1.2157932e-06
1.2132673e-06
1.2126214e-06
1.2107189e-06
1.2099144e-06
1.2084237e-06
1.2076239e-06
1.2064241e-06
1.2057132e-06
1.2047485e-06
1.2041704e-06
1.2033894e-06
1.2030273e-06
1.20227e-06
1.2023019e-06
1.2013386e-06
1.2019243e-06
1.2006961e-06
1.2018316e-06
1.2005339e-06
1.2019456e-06
1.2009674e-06
1.20231e-06
1.2019619e-06
1.2030943e-06
1.2034736e-06
1.2044827e-06
1.2055362e-06
1.2065323e-06
1.208295e-06
1.2094384e-06
1.2120994e-06
1.213325e-06
1.2164328e-06
1.2185369e-06
1.2216404e-06
1.2249411e-06
1.2283099e-06
1.2329821e-06
1.2376938e-06
1.2415102e-06
1.2449298e-06
1.2501246e-06
1.2550083e-06
1.2593385e-06
1.2642912e-06
1.2680342e-06
1.2718594e-06
1.2751675e-06
1.2741732e-06
1.277942e-06
1.2754081e-06
1.2794121e-06
1.2774056e-06
1.2810956e-06
1.27932e-06
1.2826254e-06
1.2808085e-06
1.2838516e-06
1.2827276e-06
1.2850807e-06
1.2881142e-06
1.2904379e-06
1.2927246e-06
1.2973374e-06
1.3001706e-06
1.3112116e-06
1.3146727e-06
1.3522018e-06
8.1039999e-07
8.3653489e-07
9.9640047e-07
1.1487845e-06
1.2349626e-06
1.272584e-06
1.283192e-06
1.2856709e-06
1.282227e-06
1.2793357e-06
1.2743192e-06
1.270551e-06
1.2660061e-06
1.2618709e-06
1.258302e-06
1.25376e-06
1.2513337e-06
1.2463632e-06
1.2450169e-06
1.2397523e-06
1.2392216e-06
1.2339843e-06
1.2338299e-06
1.2290377e-06
1.2287821e-06
1.2248166e-06
1.2240934e-06
1.2211789e-06
1.2198063e-06
1.217982e-06
1.2159873e-06
1.215087e-06
1.2126636e-06
1.2124473e-06
1.2098223e-06
1.2100634e-06
1.2074194e-06
1.2079351e-06
1.2054177e-06
1.206014e-06
1.2038081e-06
1.204288e-06
1.2025797e-06
1.2027821e-06
1.201691e-06
1.2015589e-06
1.2010741e-06
1.2007076e-06
1.2006047e-06
1.2003553e-06
1.2002591e-06
1.2005891e-06
1.2000981e-06
1.2014353e-06
1.2006202e-06
1.2029848e-06
1.2019076e-06
1.205229e-06
1.2040845e-06
1.2080858e-06
1.207173e-06
1.2115952e-06
1.2113699e-06
1.2163868e-06
1.2172051e-06
1.2227496e-06
1.2245436e-06
1.2301175e-06
1.2328801e-06
1.236141e-06
1.2392726e-06
1.2415725e-06
1.2456721e-06
1.2476521e-06
1.251834e-06
1.2544027e-06
1.2585364e-06
1.2625223e-06
1.2646816e-06
1.2682229e-06
1.2670175e-06
1.2711696e-06
1.270257e-06
1.273693e-06
1.273578e-06
1.2744745e-06
1.2764676e-06
1.2744822e-06
1.2774919e-06
1.2738841e-06
1.2767167e-06
1.2730812e-06
1.2760616e-06
1.2786866e-06
1.280952e-06
1.2830682e-06
1.2891345e-06
1.2927939e-06
1.3186232e-06
8.105549e-07
8.3640381e-07
9.9638946e-07
1.1480175e-06
1.2347206e-06
1.2715402e-06
1.2828965e-06
1.2845779e-06
1.2818033e-06
1.2782215e-06
1.2736254e-06
1.2694185e-06
1.2648918e-06
1.2607028e-06
1.2566351e-06
1.252495e-06
1.249008e-06
1.244879e-06
1.2420258e-06
1.238413e-06
1.2361634e-06
1.2329105e-06
1.2308065e-06
1.2281332e-06
1.2258792e-06
1.2239814e-06
1.2214038e-06
1.2203149e-06
1.2173899e-06
1.2170499e-06
1.2137966e-06
1.2141362e-06
1.2106269e-06
1.2114888e-06
1.2078908e-06
1.2090589e-06
1.2056102e-06
1.2068014e-06
1.2038214e-06
1.2047393e-06
1.2025403e-06
1.2028913e-06
1.2017266e-06
1.2013667e-06
1.2012287e-06
1.2003764e-06
1.2008871e-06
1.2000777e-06
1.2006616e-06
1.2004907e-06
1.2007153e-06
1.2014441e-06
1.2012793e-06
1.2027268e-06
1.2025701e-06
1.2044058e-06
1.2046943e-06
1.2063707e-06
1.2070046e-06
1.2085295e-06
1.2094103e-06
1.2111832e-06
1.2109976e-06
1.2130722e-06
1.2131231e-06
1.2152047e-06
1.2144242e-06
1.215812e-06
1.2167141e-06
1.2204892e-06
1.2217793e-06
1.2252442e-06
1.2280265e-06
1.231681e-06
1.2354249e-06
1.2387e-06
1.2436278e-06
1.2467336e-06
1.2523717e-06
1.2570324e-06
1.2594464e-06
1.2640098e-06
1.265477e-06
1.2694274e-06
1.2688826e-06
1.2720436e-06
1.2690913e-06
1.2718835e-06
1.2660169e-06
1.2665625e-06
1.257978e-06
1.252253e-06
1.2478357e-06
1.2391551e-06
1.242338e-06
1.2459479e-06
1.2503261e-06
1.2557791e-06
1.2792424e-06
8.1068749e-07
8.3624857e-07
9.9640442e-07
1.1472686e-06
1.2345814e-06
1.2705822e-06
1.2827174e-06
1.2837282e-06
1.2815763e-06
1.2776312e-06
1.2733936e-06
1.2691719e-06
1.2647624e-06
1.2608452e-06
1.2567375e-06
1.2530779e-06
1.2494679e-06
1.2459643e-06
1.2428786e-06
1.2395352e-06
1.2368814e-06
1.2338088e-06
1.2313742e-06
1.2287629e-06
1.2263107e-06
1.2242618e-06
1.2217876e-06
1.2200968e-06
1.2178345e-06
1.2162464e-06
1.2143124e-06
1.2127471e-06
1.2111785e-06
1.2095385e-06
1.2084164e-06
1.2066026e-06
1.20599e-06
1.2039267e-06
1.2038798e-06
1.2015181e-06
1.2020167e-06
1.1994479e-06
1.2003263e-06
1.1977012e-06
1.1990151e-06
1.1963417e-06
1.19804e-06
1.1954123e-06
1.1973537e-06
1.1950383e-06
1.1969668e-06
1.1952323e-06
1.1969871e-06
1.1959102e-06
1.1976035e-06
1.1972416e-06
1.1988003e-06
1.1983656e-06
1.1999436e-06
1.2003239e-06
1.2004827e-06
1.2009269e-06
1.2047018e-06
1.2052937e-06
1.2055906e-06
1.2084199e-06
1.2109749e-06
1.2146054e-06
1.2176972e-06
1.2216114e-06
1.2260132e-06
1.2278779e-06
1.2333128e-06
1.2387081e-06
1.2440231e-06
1.248081e-06
1.2545196e-06
1.2592965e-06
1.2649702e-06
1.2726783e-06
1.2789557e-06
1.283541e-06
1.2875124e-06
1.2904294e-06
1.2918568e-06
1.2921176e-06
1.2930175e-06
1.2901408e-06
1.2898929e-06
1.2825061e-06
1.2750324e-06
1.2639909e-06
1.2592196e-06
1.2412097e-06
1.233269e-06
1.224104e-06
1.2176826e-06
1.2253119e-06
1.232121e-06
8.1078594e-07
8.3615532e-07
9.9644954e-07
1.1465715e-06
1.2345867e-06
1.2695778e-06
1.2827221e-06
1.2827675e-06
1.2814193e-06
1.2768552e-06
1.2730386e-06
1.2685109e-06
1.2643243e-06
1.2601545e-06
1.2562871e-06
1.2522596e-06
1.2489974e-06
1.2449494e-06
1.2423824e-06
1.2382746e-06
1.2363027e-06
1.2322822e-06
1.230629e-06
1.2270045e-06
1.2252837e-06
1.2222975e-06
1.2204858e-06
1.2178218e-06
1.216363e-06
1.2136409e-06
1.212651e-06
1.209929e-06
1.2093162e-06
1.2065226e-06
1.2064052e-06
1.203433e-06
1.2036951e-06
1.2006965e-06
1.2013416e-06
1.198202e-06
1.1993834e-06
1.1963005e-06
1.1974329e-06
1.1948108e-06
1.1961222e-06
1.1933596e-06
1.1948646e-06
1.1922032e-06
1.1940896e-06
1.191621e-06
1.1935014e-06
1.1916397e-06
1.1934306e-06
1.1920495e-06
1.1940763e-06
1.193496e-06
1.1965366e-06
1.195713e-06
1.1980902e-06
1.1996055e-06
1.2024338e-06
1.1971832e-06
1.2070684e-06
1.2077696e-06
1.2089813e-06
1.2113218e-06
1.2153669e-06
1.220786e-06
1.232347e-06
1.2428046e-06
1.2444593e-06
1.2503081e-06
1.2646681e-06
1.2733095e-06
1.2862326e-06
1.2906145e-06
1.3028549e-06
1.3201738e-06
1.3453812e-06
1.3532629e-06
1.37048e-06
1.3763152e-06
1.3909456e-06
1.3976737e-06
1.3989107e-06
1.3859239e-06
1.3747398e-06
1.3703636e-06
1.3672141e-06
1.3620714e-06
1.3552074e-06
1.3377962e-06
1.313703e-06
1.2901753e-06
1.264084e-06
1.2481271e-06
1.2299363e-06
1.2221847e-06
1.2265204e-06
8.1079536e-07
8.3618477e-07
9.9642887e-07
1.1459716e-06
1.234772e-06
1.2684002e-06
1.2832415e-06
1.281402e-06
1.2819431e-06
1.2756702e-06
1.2733773e-06
1.2675006e-06
1.2646697e-06
1.2591078e-06
1.2567831e-06
1.2512341e-06
1.2496018e-06
1.2440118e-06
1.2431715e-06
1.2374676e-06
1.2372429e-06
1.2317626e-06
1.2316261e-06
1.2269497e-06
1.2262173e-06
1.2228433e-06
1.2214373e-06
1.2187824e-06
1.217598e-06
1.2148451e-06
1.214189e-06
1.2114014e-06
1.211247e-06
1.2080355e-06
1.2090993e-06
1.205055e-06
1.2067569e-06
1.2032303e-06
1.2047138e-06
1.2019361e-06
1.2027285e-06
1.2018466e-06
1.2025187e-06
1.1983754e-06
1.2017417e-06
1.2000722e-06
1.2008682e-06
1.1985714e-06
1.2018158e-06
1.2006546e-06
1.2041573e-06
1.2025703e-06
1.2069351e-06
1.2068792e-06
1.2113537e-06
1.2113664e-06
1.2149557e-06
1.2162072e-06
1.2235614e-06
1.2257089e-06
1.2362903e-06
1.2463864e-06
1.2456101e-06
1.2491137e-06
1.2597457e-06
1.2688636e-06
1.2788077e-06
1.3150904e-06
1.3171497e-06
1.3164877e-06
1.3325963e-06
1.3533382e-06
1.3751437e-06
1.393433e-06
1.4332894e-06
1.4936473e-06
1.520492e-06
1.5501246e-06
1.5324856e-06
1.5088459e-06
1.5239174e-06
1.5379046e-06
1.5624438e-06
1.5670198e-06
1.5995153e-06
1.6397843e-06
1.6597994e-06
1.6544444e-06
1.6223832e-06
1.5903174e-06
1.5341237e-06
1.5035895e-06
1.4469468e-06
1.4145464e-06
1.3569765e-06
1.3287205e-06
1.2842947e-06
1.2682689e-06
1.2440936e-06
8.1072231e-07
8.364266e-07
9.9623878e-07
1.145674e-06
1.234938e-06
1.2671735e-06
1.2842398e-06
1.2794196e-06
1.2833883e-06
1.2735791e-06
1.2746852e-06
1.2655524e-06
1.2659911e-06
1.2569426e-06
1.2582998e-06
1.2490483e-06
1.2509332e-06
1.2420016e-06
1.2444506e-06
1.235555e-06
1.2384194e-06
1.230103e-06
1.2327607e-06
1.22561e-06
1.2273384e-06
1.2219694e-06
1.2226038e-06
1.2183265e-06
1.2188569e-06
1.214913e-06
1.2156953e-06
1.2121161e-06
1.2130739e-06
1.2096467e-06
1.2107395e-06
1.2081988e-06
1.2097024e-06
1.2083711e-06
1.2079503e-06
1.210632e-06
1.2035853e-06
1.2096309e-06
1.2174836e-06
1.1949048e-06
1.193297e-06
1.2138017e-06
1.2042028e-06
1.2071084e-06
1.2072878e-06
1.2318087e-06
1.2256993e-06
1.2213666e-06
1.2516114e-06
1.2546788e-06
1.2586047e-06
1.2491167e-06
1.2466837e-06
1.2887772e-06
1.2989046e-06
1.3124876e-06
1.3027305e-06
1.293376e-06
1.3284075e-06
1.3796539e-06
1.4027848e-06
1.4180033e-06
1.4451524e-06
1.3918871e-06
1.3993716e-06
1.4976395e-06
1.5911406e-06
1.6162529e-06
1.6670911e-06
1.6905174e-06
1.6409246e-06
1.5931557e-06
1.6234482e-06
1.6266904e-06
1.6515786e-06
1.7051328e-06
1.7993794e-06
1.8635669e-06
1.9298648e-06
1.8904319e-06
1.8407954e-06
1.8101575e-06
1.8022527e-06
1.8010096e-06
1.7838841e-06
1.7863313e-06
1.746244e-06
1.7347437e-06
1.6571502e-06
1.6275371e-06
1.538801e-06
1.5054398e-06
1.4103881e-06
1.3927865e-06
1.2997979e-06
8.106312e-07
8.3673e-07
9.958833e-07
1.1456236e-06
1.2348808e-06
1.2660621e-06
1.2854525e-06
1.2769321e-06
1.285731e-06
1.2704987e-06
1.2771055e-06
1.2627013e-06
1.2684327e-06
1.2538153e-06
1.2613808e-06
1.2458654e-06
1.2541657e-06
1.2392866e-06
1.2481303e-06
1.2332233e-06
1.2425991e-06
1.2281738e-06
1.2382019e-06
1.2242662e-06
1.2344787e-06
1.2217777e-06
1.2299884e-06
1.2200379e-06
1.2288277e-06
1.2177303e-06
1.2285327e-06
1.216452e-06
1.2323967e-06
1.2102534e-06
1.2255612e-06
1.2404166e-06
1.2168425e-06
1.2431825e-06
1.2262261e-06
1.2261985e-06
1.2339762e-06
1.2301061e-06
1.2850138e-06
1.2825296e-06
1.2883705e-06
1.2977997e-06
1.3012898e-06
1.300388e-06
1.3046148e-06
1.2524428e-06
1.3293684e-06
1.3080824e-06
1.2846562e-06
1.3026331e-06
1.2970298e-06
1.4074981e-06
1.4261698e-06
1.4034026e-06
1.350623e-06
1.3459383e-06
1.4210818e-06
1.5533067e-06
1.5346534e-06
1.4415389e-06
1.4408687e-06
1.4629962e-06
1.4509634e-06
1.6127151e-06
1.7296693e-06
1.6332927e-06
1.6455284e-06
1.6557375e-06
1.697298e-06
1.7123598e-06
1.7586558e-06
1.7793508e-06
1.8187235e-06
1.8494945e-06
1.877511e-06
1.9229003e-06
1.9413618e-06
1.9870945e-06
2.000414e-06
2.0328279e-06
2.0343425e-06
2.0503325e-06
2.0427332e-06
2.038225e-06
2.0166575e-06
2.015291e-06
1.9645481e-06
1.9664076e-06
1.8764205e-06
1.8806129e-06
1.7602968e-06
1.760525e-06
1.6217403e-06
1.6144512e-06
1.4445584e-06
8.1067288e-07
8.3678101e-07
9.9571696e-07
1.1453792e-06
1.2348017e-06
1.2650597e-06
1.2864385e-06
1.2745428e-06
1.2881709e-06
1.267177e-06
1.2801042e-06
1.2597486e-06
1.2716065e-06
1.2512409e-06
1.265862e-06
1.243837e-06
1.2599286e-06
1.2380618e-06
1.2557951e-06
1.2336766e-06
1.2517602e-06
1.2330843e-06
1.2509843e-06
1.2305171e-06
1.2539219e-06
1.2197622e-06
1.2421621e-06
1.2626361e-06
1.2336979e-06
1.2652688e-06
1.2366298e-06
1.3003229e-06
1.3040531e-06
1.2978637e-06
1.304563e-06
1.2543554e-06
1.2575977e-06
1.2480586e-06
1.3369639e-06
1.3435736e-06
1.34848e-06
1.3560031e-06
1.2846321e-06
1.2753581e-06
1.2789252e-06
1.2878888e-06
1.296557e-06
1.3075746e-06
1.3134719e-06
1.3422357e-06
1.3309389e-06
1.3203292e-06
1.5452575e-06
1.5896846e-06
1.4791256e-06
1.4062075e-06
1.4008789e-06
1.3729654e-06
1.6107382e-06
1.7064893e-06
1.5050017e-06
1.4997559e-06
1.513272e-06
1.5519049e-06
1.5614609e-06
1.6108387e-06
1.6623477e-06
1.7220322e-06
1.7540421e-06
1.7910447e-06
1.8264738e-06
1.8615276e-06
1.9106428e-06
1.9435621e-06
1.9990869e-06
2.0377661e-06
2.0926984e-06
2.1376956e-06
2.1844633e-06
2.2376757e-06
2.2700923e-06
2.3263271e-06
2.342008e-06
2.3898294e-06
2.3938464e-06
2.4067611e-06
2.4141801e-06
2.4079591e-06
2.3892954e-06
2.3805463e-06
2.3312014e-06
2.3394434e-06
2.2613198e-06
2.2315828e-06
2.1043617e-06
2.0745713e-06
1.9235067e-06
1.9145246e-06
1.5733456e-06
8.1084039e-07
8.3651234e-07
9.9586721e-07
1.1447919e-06
1.2348589e-06
1.2642931e-06
1.2868142e-06
1.2733463e-06
1.2898437e-06
1.2654924e-06
1.2838691e-06
1.2585524e-06
1.2781712e-06
1.2529977e-06
1.2756636e-06
1.2489205e-06
1.2711166e-06
1.245222e-06
1.2797342e-06
1.2309407e-06
1.3185181e-06
1.2419219e-06
1.293054e-06
1.2572782e-06
1.3367176e-06
1.2600023e-06
1.3486065e-06
1.260997e-06
1.3641261e-06
1.26223e-06
1.3761289e-06
1.2894194e-06
1.2830296e-06
1.2819228e-06
1.302027e-06
1.2745027e-06
1.4571824e-06
1.4646567e-06
1.3411096e-06
1.3254948e-06
1.3289591e-06
1.3453407e-06
1.3519991e-06
1.3708974e-06
1.3751335e-06
1.3971148e-06
1.3998642e-06
1.4258796e-06
1.4273061e-06
1.4573024e-06
1.4575919e-06
1.4914525e-06
1.4929875e-06
1.5354786e-06
1.5357884e-06
1.5818939e-06
1.5798745e-06
1.6310043e-06
1.6309087e-06
1.6845267e-06
1.7072634e-06
1.7275562e-06
1.7916507e-06
1.7973127e-06
1.8631023e-06
1.8854567e-06
1.9509562e-06
1.9782287e-06
2.0579195e-06
2.0806514e-06
2.1787121e-06
2.1917354e-06
2.3124082e-06
2.3116128e-06
2.4458579e-06
2.4454578e-06
2.5819669e-06
2.5817487e-06
2.7187415e-06
2.7160594e-06
2.8436151e-06
2.8429676e-06
2.9466374e-06
2.9407333e-06
3.0150534e-06
2.9991461e-06
3.0299081e-06
3.0333067e-06
3.0156104e-06
3.019503e-06
2.963288e-06
2.9722144e-06
2.85893e-06
2.9303632e-06
2.7268327e-06
2.8232635e-06
2.5173759e-06
2.6293334e-06
2.0741838e-06
8.1099e-07
8.3632733e-07
9.9581866e-07
1.1445343e-06
1.2339918e-06
1.2650379e-06
1.2854446e-06
1.2765219e-06
1.2899386e-06
1.2719305e-06
1.2882979e-06
1.2702425e-06
1.2991301e-06
1.2669936e-06
1.3049621e-06
1.2390677e-06
1.3222113e-06
1.2860093e-06
1.3707667e-06
1.3767731e-06
1.2923902e-06
1.2834203e-06
1.2807602e-06
1.30494e-06
1.2827552e-06
1.4645821e-06
1.3525861e-06
1.3318919e-06
1.3424989e-06
1.3511962e-06
1.3665074e-06
1.3749487e-06
1.3906606e-06
1.3952144e-06
1.4143821e-06
1.416206e-06
1.4411287e-06
1.4473301e-06
1.4728328e-06
1.4775756e-06
1.493249e-06
1.518533e-06
1.516905e-06
1.5547325e-06
1.5542166e-06
1.5943927e-06
1.592435e-06
1.6383568e-06
1.6365768e-06
1.6875346e-06
1.6852426e-06
1.7423272e-06
1.7402907e-06
1.8045181e-06
1.8023397e-06
1.8738384e-06
1.8718048e-06
1.9504274e-06
1.9535275e-06
2.0183116e-06
2.0774759e-06
2.0756466e-06
2.1931648e-06
2.1915839e-06
2.3007409e-06
2.297957e-06
2.4286552e-06
2.4301667e-06
2.571915e-06
2.5704128e-06
2.726175e-06
2.7260451e-06
2.8930305e-06
2.8903641e-06
3.0649781e-06
3.061626e-06
3.2449949e-06
3.2403609e-06
3.4257296e-06
3.4177526e-06
3.5978955e-06
3.5843156e-06
3.742958e-06
3.7283942e-06
3.8538925e-06
3.8350667e-06
3.9258291e-06
3.8956244e-06
3.9705213e-06
3.9720792e-06
3.9997513e-06
4.0113946e-06
3.9621345e-06
3.9214476e-06
3.833207e-06
3.6984684e-06
3.6035978e-06
3.3246717e-06
3.1146374e-06
8.1110005e-07
8.3630279e-07
9.9552312e-07
1.1448714e-06
1.2330414e-06
1.2688332e-06
1.2858546e-06
1.2888234e-06
1.2939961e-06
1.2982581e-06
1.2881734e-06
1.3754227e-06
1.3168605e-06
1.2981945e-06
1.3134332e-06
1.3150021e-06
1.3282474e-06
1.3372037e-06
1.3538556e-06
1.3682387e-06
1.3790733e-06
1.3887822e-06
1.3980246e-06
1.4074708e-06
1.4218559e-06
1.4353018e-06
1.4585956e-06
1.4637932e-06
1.4891746e-06
1.4928312e-06
1.522938e-06
1.5260138e-06
1.5603104e-06
1.5625274e-06
1.6005594e-06
1.601998e-06
1.6438345e-06
1.6449552e-06
1.6911702e-06
1.6926333e-06
1.7381183e-06
1.7571768e-06
1.7740376e-06
1.8326475e-06
1.8298876e-06
1.8915152e-06
1.891926e-06
1.9633089e-06
1.960883e-06
2.034436e-06
2.0330117e-06
2.1173299e-06
2.1153164e-06
2.2058171e-06
2.2032197e-06
2.3034423e-06
2.3007212e-06
2.409745e-06
2.4093593e-06
2.5098268e-06
2.5697845e-06
2.5802445e-06
2.7363218e-06
2.7282428e-06
2.8687713e-06
2.8636574e-06
3.0400042e-06
3.0372652e-06
3.2213334e-06
3.2140379e-06
3.4186284e-06
3.411348e-06
3.6269998e-06
3.6149493e-06
3.8419223e-06
3.8303761e-06
4.0722339e-06
4.0581928e-06
4.3067661e-06
4.2894531e-06
4.539978e-06
4.5182995e-06
4.7568735e-06
4.7318627e-06
4.9421858e-06
4.9245235e-06
5.1027733e-06
5.0733052e-06
5.2064667e-06
5.1823193e-06
5.2709887e-06
5.2550768e-06
5.2371406e-06
5.2291645e-06
5.1251413e-06
5.2598242e-06
4.9914719e-06
5.2622468e-06
3.8035739e-06
8.1131785e-07
8.3601503e-07
9.9528186e-07
1.1457494e-06
1.2364232e-06
1.2776995e-06
1.298879e-06
1.309867e-06
1.3194489e-06
1.3290214e-06
1.3364742e-06
1.3520007e-06
1.3645922e-06
1.3748811e-06
1.3869223e-06
1.3966966e-06
1.4131297e-06
1.4267111e-06
1.4446133e-06
1.4571006e-06
1.4825915e-06
1.493409e-06
1.5248446e-06
1.5340588e-06
1.5705563e-06
1.5783988e-06
1.6188825e-06
1.6253206e-06
1.6693114e-06
1.674736e-06
1.722923e-06
1.7274219e-06
1.7793911e-06
1.7829322e-06
1.8385142e-06
1.8413157e-06
1.9007881e-06
1.9030199e-06
1.9677054e-06
1.9696595e-06
2.0380094e-06
2.0476623e-06
2.0953682e-06
2.1551704e-06
2.1522049e-06
2.2439864e-06
2.2443936e-06
2.3330062e-06
2.3286626e-06
2.4283588e-06
2.4266352e-06
2.5369531e-06
2.5320626e-06
2.650373e-06
2.6453903e-06
2.776114e-06
2.7694739e-06
2.9113176e-06
2.9050699e-06
3.0505842e-06
3.0870658e-06
3.1398071e-06
3.319061e-06
3.2974764e-06
3.4773867e-06
3.4705278e-06
3.6997018e-06
3.6837873e-06
3.914058e-06
3.8979348e-06
4.1614405e-06
4.1409878e-06
4.4101661e-06
4.3862574e-06
4.678423e-06
4.6557887e-06
4.9667288e-06
4.9440401e-06
5.2631877e-06
5.2452581e-06
5.5766661e-06
5.5558515e-06
5.8771118e-06
5.8865752e-06
6.1460104e-06
6.1942282e-06
6.4393563e-06
6.4453993e-06
6.6704276e-06
6.6876703e-06
6.8464514e-06
6.8755672e-06
6.9186926e-06
6.9740512e-06
6.9626974e-06
6.9600276e-06
6.8485635e-06
6.8203347e-06
5.9985889e-06
8.10935e-07
8.3549056e-07
9.9834173e-07
1.1532759e-06
1.2490175e-06
1.2949589e-06
1.3209965e-06
1.3367023e-06
1.3509862e-06
1.3650423e-06
1.3805449e-06
1.3966609e-06
1.4146857e-06
1.4346616e-06
1.4535462e-06
1.4703267e-06
1.4973505e-06
1.5122694e-06
1.5433498e-06
1.5566993e-06
1.5943687e-06
1.6075856e-06
1.6505484e-06
1.6620692e-06
1.7088963e-06
1.7181995e-06
1.7678413e-06
1.7755317e-06
1.8291342e-06
1.8358316e-06
1.8944118e-06
1.8996694e-06
1.9634412e-06
1.9665838e-06
2.0354441e-06
2.0373798e-06
2.1083316e-06
2.1106593e-06
2.1891321e-06
2.1900048e-06
2.2744116e-06
2.2773801e-06
2.3526659e-06
2.4026886e-06
2.4096983e-06
2.5273815e-06
2.5210585e-06
2.6256263e-06
2.6196665e-06
2.7480919e-06
2.7428963e-06
2.878164e-06
2.8690594e-06
3.0187096e-06
3.0090813e-06
3.1721243e-06
3.160128e-06
3.339865e-06
3.3275387e-06
3.5178652e-06
3.5310497e-06
3.6380753e-06
3.8250635e-06
3.7885911e-06
4.0305617e-06
4.0186631e-06
4.2936336e-06
4.2613972e-06
4.5508266e-06
4.5243677e-06
4.846382e-06
4.8113723e-06
5.1408078e-06
5.1084609e-06
5.4743914e-06
5.4427851e-06
5.818243e-06
5.8358146e-06
6.1242849e-06
6.2658756e-06
6.504342e-06
6.6341196e-06
6.9025474e-06
7.0507939e-06
7.2609183e-06
7.4547695e-06
7.6647369e-06
7.7753531e-06
7.9970563e-06
8.1021406e-06
8.2869645e-06
8.3535861e-06
8.5018698e-06
8.5327371e-06
8.6674277e-06
8.6784221e-06
8.6596206e-06
8.6506127e-06
8.0916971e-06
8.0905432e-07
8.3944823e-07
1.0120697e-06
1.164629e-06
1.2564413e-06
1.298854e-06
1.3219113e-06
1.337155e-06
1.3514585e-06
1.3694205e-06
1.3855184e-06
1.4054456e-06
1.4215092e-06
1.4427316e-06
1.4615006e-06
1.4777933e-06
1.5064801e-06
1.5238417e-06
1.5551199e-06
1.5706205e-06
1.6094029e-06
1.6258121e-06
1.66684e-06
1.6785713e-06
1.721418e-06
1.7306706e-06
1.778078e-06
1.7860726e-06
1.8404245e-06
1.8462035e-06
1.9091389e-06
1.9106549e-06
1.9849942e-06
1.9782892e-06
2.0705243e-06
2.0491935e-06
2.1416606e-06
2.1405344e-06
2.2247437e-06
2.2244326e-06
2.3221446e-06
2.3246813e-06
2.4199641e-06
2.4600968e-06
2.486183e-06
2.6109671e-06
2.5993768e-06
2.7218706e-06
2.718893e-06
2.871061e-06
2.8627488e-06
3.0228283e-06
3.0097678e-06
3.189047e-06
3.1762426e-06
3.3728689e-06
3.3580973e-06
3.5765383e-06
3.5582315e-06
3.784577e-06
3.7885127e-06
3.9365272e-06
4.1219263e-06
4.0804808e-06
4.3932475e-06
4.3622444e-06
4.6688312e-06
4.6262649e-06
4.9706448e-06
4.9316819e-06
5.2938244e-06
5.2502343e-06
5.6298939e-06
5.5918782e-06
6.0015109e-06
5.9715452e-06
6.355427e-06
6.4591643e-06
6.6663155e-06
6.9379587e-06
7.0694054e-06
7.3481715e-06
7.5110899e-06
7.7880895e-06
7.910453e-06
8.2150712e-06
8.3374269e-06
8.5147136e-06
8.6877954e-06
8.8308321e-06
8.9497815e-06
9.0842113e-06
9.1615963e-06
9.3079004e-06
9.3352009e-06
9.45693e-06
9.4542801e-06
9.4727193e-06
9.1431087e-06
8.0814158e-07
8.5294035e-07
1.0140228e-06
1.1329783e-06
1.2005471e-06
1.2172185e-06
1.2210214e-06
1.2262934e-06
1.235084e-06
1.2482423e-06
1.2556778e-06
1.2675279e-06
1.2748368e-06
1.2882781e-06
1.2977854e-06
1.311274e-06
1.344477e-06
1.3667428e-06
1.3781073e-06
1.4022798e-06
1.4272786e-06
1.4425785e-06
1.4609658e-06
1.4784639e-06
1.5008574e-06
1.5229629e-06
1.5495954e-06
1.5760345e-06
1.6062616e-06
1.6363137e-06
1.6696865e-06
1.7030491e-06
1.7396639e-06
1.7766762e-06
1.815919e-06
1.8024428e-06
1.9085809e-06
1.8859138e-06
1.9644494e-06
1.9814162e-06
2.0807968e-06
2.1022658e-06
2.1752548e-06
2.2202527e-06
2.251862e-06
2.3735537e-06
2.358201e-06
2.4846471e-06
2.516378e-06
2.6466483e-06
2.6555654e-06
2.8076535e-06
2.8005383e-06
2.9944785e-06
2.991096e-06
3.2018358e-06
3.1905758e-06
3.4164453e-06
3.4073321e-06
3.6271645e-06
3.6641136e-06
3.8155278e-06
3.9779618e-06
4.0021167e-06
4.3033494e-06
4.2734304e-06
4.6084499e-06
4.5798282e-06
4.9385055e-06
4.9082382e-06
5.2721063e-06
5.2524222e-06
5.6145057e-06
5.6159885e-06
5.9622978e-06
6.0128778e-06
6.2948982e-06
6.4501973e-06
6.6181414e-06
6.8778015e-06
7.0070801e-06
7.3080253e-06
7.4296539e-06
7.727986e-06
7.7804656e-06
8.0842909e-06
8.0920868e-06
8.2641592e-06
8.3978728e-06
8.4649978e-06
8.587774e-06
8.6439414e-06
8.7710796e-06
8.809675e-06
8.9280924e-06
8.9666991e-06
9.0002944e-06
9.0484008e-06
9.005333e-06
7.9279884e-07
8.0219401e-07
8.8710083e-07
9.231829e-07
9.3872819e-07
8.9084062e-07
8.7927077e-07
8.8288794e-07
8.9003934e-07
8.8593675e-07
8.7770436e-07
8.7553636e-07
8.7423665e-07
8.7595611e-07
8.8120936e-07
8.836952e-07
9.8507475e-07
8.9061031e-07
9.8451824e-07
9.0373663e-07
1.0152464e-06
9.3117808e-07
9.4894687e-07
9.6592692e-07
9.8359119e-07
1.0051811e-06
1.0216213e-06
1.049561e-06
1.0638174e-06
1.0988561e-06
1.1101538e-06
1.1533878e-06
1.1613687e-06
1.2140217e-06
1.209209e-06
1.2824316e-06
1.2581499e-06
1.3287207e-06
1.3530848e-06
1.3757965e-06
1.4111831e-06
1.4429606e-06
1.4858839e-06
1.5308376e-06
1.5915219e-06
1.6876076e-06
1.8576389e-06
1.7589079e-06
1.9472977e-06
1.8577434e-06
2.0698596e-06
1.9541042e-06
2.1607782e-06
2.2701516e-06
2.3440975e-06
2.4313981e-06
2.5094927e-06
2.6071552e-06
2.6952706e-06
2.8021323e-06
2.9025317e-06
3.0152392e-06
3.1321072e-06
3.2467801e-06
3.3820099e-06
3.5022675e-06
3.6473034e-06
3.7754577e-06
3.9270415e-06
4.0597821e-06
4.2152954e-06
4.3513272e-06
4.5087958e-06
4.646963e-06
4.8036544e-06
4.9436946e-06
5.0944335e-06
5.2391123e-06
5.3692704e-06
5.5897656e-06
5.802934e-06
5.9722013e-06
6.0927775e-06
6.2188096e-06
6.2024939e-06
6.3368874e-06
6.2824063e-06
6.3424628e-06
6.4230508e-06
6.5023242e-06
6.592987e-06
6.6632959e-06
6.7253276e-06
6.7798349e-06
6.8283125e-06
6.9091151e-06
6.9736319e-06
6.9536712e-06
6.7358311e-06
6.5794144e-07
4.6851221e-07
3.7835131e-07
3.3179114e-07
3.0665901e-07
2.8962751e-07
2.7752711e-07
2.6856406e-07
2.6185134e-07
2.56743e-07
2.5239321e-07
2.4906293e-07
2.4634922e-07
2.4421814e-07
2.4286603e-07
2.4159637e-07
2.4172944e-07
2.4143011e-07
2.4234288e-07
2.4280132e-07
2.4463135e-07
2.4566479e-07
2.4717835e-07
2.4891049e-07
2.510938e-07
2.536658e-07
2.5633827e-07
2.598938e-07
2.6286611e-07
2.6755372e-07
2.7070394e-07
2.7664618e-07
2.8010559e-07
2.8712599e-07
2.9110814e-07
2.9975488e-07
3.0424349e-07
3.1231912e-07
3.2044124e-07
3.2796945e-07
3.3659046e-07
3.4482295e-07
3.5463405e-07
3.6383041e-07
3.7581663e-07
3.8509781e-07
4.0105061e-07
4.1204945e-07
4.2892551e-07
4.4148894e-07
4.5933971e-07
4.7484259e-07
4.9260479e-07
5.1261581e-07
5.3295296e-07
5.5571869e-07
5.784471e-07
6.0445087e-07
6.301374e-07
6.5987778e-07
6.8928757e-07
7.2300958e-07
7.5730867e-07
7.9483619e-07
8.3503839e-07
8.7641022e-07
9.2263077e-07
9.6860778e-07
1.0203495e-06
1.071967e-06
1.1279478e-06
1.186665e-06
1.24544e-06
1.3109239e-06
1.3728992e-06
1.4425906e-06
1.5080485e-06
1.5789502e-06
1.6485823e-06
1.7147133e-06
1.7902619e-06
1.8489087e-06
1.9237806e-06
1.9738164e-06
2.0437387e-06
2.0771814e-06
2.1478719e-06
2.1723521e-06
2.1963589e-06
2.209663e-06
2.215588e-06
2.2182221e-06
2.2147965e-06
2.2043537e-06
2.1894735e-06
2.1571494e-06
2.1321388e-06
2.0762412e-06
2.0515876e-06
1.8279349e-06
6.392038e-06
8.5488506e-06
9.5635429e-06
8.7285663e-06
6.6620723e-06
7.2387961e-06
3.1114956e-06
2.0998537e-06
2.2519831e-06
1.5028791e-06
1.3108303e-06
1.2572461e-06
1.2322573e-06
1.2328334e-06
1.2648239e-06
1.3129676e-06
1.353808e-06
1.3733767e-06
1.5545346e-06
5.999579e-06
8.0740026e-06
9.4889093e-06
9.0296758e-06
7.3255099e-06
5.8472778e-06
7.7308545e-06
2.950322e-06
1.9943829e-06
1.8606091e-06
1.4284012e-06
1.2973092e-06
1.2444272e-06
1.2371208e-06
1.2513872e-06
1.3029461e-06
1.3567031e-06
1.3685944e-06
1.2875454e-06
5.5810957e-06
7.7457661e-06
9.2559019e-06
9.1104684e-06
7.6604946e-06
5.9543625e-06
1.1723502e-05
4.107787e-06
2.5365966e-06
1.9086369e-06
1.5054825e-06
1.3301108e-06
1.2578717e-06
1.2434418e-06
1.2540954e-06
1.3029475e-06
1.3685349e-06
1.3798068e-06
1.055626e-06
5.1100861e-06
7.4014767e-06
8.839881e-06
9.0316881e-06
7.9672501e-06
6.1636251e-06
1.4556794e-05
5.7272329e-06
2.0775991e-06
2.532117e-06
1.7025818e-06
1.4191348e-06
1.2766766e-06
1.2501334e-06
1.257082e-06
1.2963384e-06
1.3703836e-06
1.3855454e-06
9.05927e-07
4.5687618e-06
6.9231962e-06
8.2902301e-06
8.9924222e-06
8.0667332e-06
6.352295e-06
5.6805266e-06
2.3928816e-05
4.3569662e-06
1.8674503e-06
1.8669168e-06
1.4716298e-06
1.3222767e-06
1.2756969e-06
1.2778932e-06
1.3039983e-06
1.3934031e-06
1.3953576e-06
7.993787e-07
3.9572224e-06
6.5398961e-06
7.8793573e-06
8.7617616e-06
8.1927203e-06
6.8215831e-06
5.4517549e-06
1.7322208e-05
7.6297297e-06
2.5723025e-06
2.0073272e-06
1.6324145e-06
1.347611e-06
1.2878976e-06
1.2842588e-06
1.294603e-06
1.3891844e-06
1.4128722e-06
6.9490047e-07
2.9383857e-06
5.8747245e-06
7.4044221e-06
8.3994461e-06
8.0891026e-06
6.8775428e-06
5.2200784e-06
1.3834817e-05
9.7115111e-06
3.2739186e-06
1.9856368e-06
1.7720943e-06
1.4220786e-06
1.3310416e-06
1.3156887e-06
1.3117743e-06
1.4164595e-06
1.4242298e-06
6.0874135e-07
2.2195283e-06
5.2071585e-06
6.9690669e-06
7.8808222e-06
8.1514175e-06
7.1442911e-06
5.5955919e-06
5.9112799e-06
2.378815e-05
6.3258659e-06
2.3134993e-06
1.992668e-06
1.4658185e-06
1.345123e-06
1.3284041e-06
1.319473e-06
1.4043682e-06
1.4461991e-06
5.0908573e-07
1.64645e-06
4.3118637e-06
6.3981964e-06
7.3897665e-06
7.8696138e-06
7.1343225e-06
5.7774858e-06
4.8940167e-06
1.6774759e-05
9.544694e-06
3.024067e-06
2.1087418e-06
1.5934066e-06
1.4064997e-06
1.3639619e-06
1.343074e-06
1.4302782e-06
1.4597564e-06
4.5723362e-07
1.6611697e-06
3.4668352e-06
5.7039575e-06
6.9291754e-06
7.5923892e-06
7.1470227e-06
5.9670986e-06
4.8645872e-06
9.2060008e-06
1.3261725e-05
4.5434942e-06
2.3516468e-06
1.6621503e-06
1.4257107e-06
1.3837595e-06
1.359436e-06
1.4233403e-06
1.4803559e-06
4.3651825e-07
1.7488936e-06
2.9207087e-06
4.9776287e-06
6.4081344e-06
7.0627298e-06
7.058935e-06
6.0594088e-06
4.9238779e-06
6.198241e-06
1.3789992e-05
6.5222534e-06
2.6934599e-06
1.8607065e-06
1.4954168e-06
1.4173954e-06
1.3852334e-06
1.4452125e-06
1.4933052e-06
4.3093099e-07
1.6895812e-06
2.6791973e-06
4.3543539e-06
5.9863107e-06
6.7353666e-06