/*--------------------------------*- C++ -*----------------------------------*\
| =========                 |                                                 |
| \\      /  F ield         | OpenFOAM: The Open Source CFD Toolbox           |
|  \\    /   O peration     | Version:  2406                                  |
|   \\  /    A nd           | Website:  www.openfoam.com                      |
|    \\/     M anipulation  |                                                 |
\*---------------------------------------------------------------------------*/
FoamFile
{
    version     2.0;
    format      ascii;
    arch        "LSB;label=32;scalar=64";
    class       volScalarField;
    location    "62140";
    object      p;
}
// * * * * * * * * * * * * * * * * * * * * * * * * * * * * * * * * * * * * * //

dimensions      [1 -1 -2 0 0 0 0];

internalField   nonuniform List<scalar> 
94692
(
1.0019165
1.001924
1.0019301
1.0019368
1.0019458
1.001957
1.0019702
1.0019854
1.0020026
1.0020219
1.0020432
1.0020665
1.0020918
1.0021191
1.0021486
1.0021801
1.0022137
1.0022495
1.0022875
1.0023277
1.0023703
1.0024152
1.0024624
1.0025122
1.0025645
1.0026193
1.0026769
1.0027371
1.0028002
1.0028661
1.002935
1.003007
1.003082
1.0031602
1.0032417
1.0033265
1.0034148
1.0035066
1.0036019
1.003701
1.0038037
1.0039103
1.0040207
1.004135
1.0042534
1.0043757
1.0045022
1.0046327
1.0047674
1.0049062
1.0050492
1.0051963
1.0053475
1.0055027
1.0056619
1.005825
1.0059919
1.0061625
1.0063365
1.006514
1.0066945
1.0068779
1.007064
1.0072524
1.0074429
1.007635
1.0078284
1.0080226
1.0082172
1.0084118
1.0086057
1.0087985
1.0089894
1.009178
1.0093635
1.0095451
1.0097222
1.0098939
1.0100593
1.0102175
1.0103674
1.0105078
1.0106377
1.0107554
1.0108596
1.0109483
1.0110198
1.0110715
1.0111
1.0111021
1.011074
1.0110118
1.0109108
1.0107664
1.0105735
1.0103281
1.0100235
1.0096728
1.0092112
1.0019162
1.0019243
1.0019304
1.001937
1.0019461
1.0019572
1.0019704
1.0019855
1.0020028
1.002022
1.0020432
1.0020665
1.0020917
1.002119
1.0021484
1.0021798
1.0022134
1.0022491
1.002287
1.0023271
1.0023696
1.0024143
1.0024615
1.0025111
1.0025632
1.0026179
1.0026753
1.0027354
1.0027982
1.0028639
1.0029326
1.0030043
1.0030791
1.003157
1.0032382
1.0033228
1.0034107
1.0035021
1.0035971
1.0036958
1.0037982
1.0039043
1.0040143
1.0041282
1.0042461
1.004368
1.0044939
1.004624
1.0047581
1.0048964
1.0050388
1.0051852
1.0053358
1.0054904
1.0056489
1.0058113
1.0059775
1.0061473
1.0063205
1.0064971
1.0066767
1.0068591
1.0070441
1.0072314
1.0074205
1.0076112
1.007803
1.0079955
1.0081882
1.0083806
1.0085721
1.0087621
1.00895
1.009135
1.0093166
1.0094938
1.009666
1.0098321
1.0099914
1.0101428
1.0102853
1.0104177
1.0105389
1.0106474
1.0107418
1.0108205
1.0108818
1.0109238
1.0109438
1.0109394
1.0109074
1.0108443
1.0107463
1.0106095
1.0104291
1.0102012
1.0099145
1.0095846
1.00911
1.0019157
1.0019245
1.0019306
1.0019372
1.0019463
1.0019574
1.0019706
1.0019858
1.002003
1.0020222
1.0020435
1.0020667
1.002092
1.0021193
1.0021487
1.0021801
1.0022137
1.0022494
1.0022874
1.0023276
1.00237
1.0024148
1.002462
1.0025117
1.0025639
1.0026186
1.0026761
1.0027362
1.0027992
1.002865
1.0029338
1.0030055
1.0030804
1.0031585
1.0032399
1.0033245
1.0034127
1.0035043
1.0035995
1.0036983
1.0038009
1.0039073
1.0040175
1.0041317
1.0042499
1.0043721
1.0044984
1.0046287
1.0047632
1.0049019
1.0050447
1.0051916
1.0053425
1.0054975
1.0056565
1.0058194
1.005986
1.0061562
1.0063299
1.0065068
1.0066868
1.0068696
1.0070549
1.0072423
1.0074315
1.0076222
1.0078139
1.008006
1.0081981
1.0083897
1.0085801
1.0087686
1.0089547
1.0091375
1.0093163
1.0094902
1.0096584
1.00982
1.0099739
1.0101191
1.0102545
1.0103789
1.0104911
1.0105895
1.0106729
1.0107394
1.0107873
1.0108145
1.0108186
1.0107974
1.0107482
1.0106679
1.0105536
1.0104017
1.0102083
1.0099712
1.0096804
1.0093554
1.0089069
1.0019153
1.0019248
1.0019308
1.0019374
1.0019464
1.0019575
1.0019707
1.0019859
1.0020031
1.0020223
1.0020435
1.0020667
1.002092
1.0021193
1.0021486
1.00218
1.0022136
1.0022493
1.0022871
1.0023273
1.0023697
1.0024144
1.0024615
1.0025111
1.0025632
1.0026179
1.0026752
1.0027353
1.0027981
1.0028638
1.0029325
1.0030041
1.0030789
1.0031568
1.003238
1.0033225
1.0034104
1.0035019
1.0035969
1.0036955
1.0037979
1.0039041
1.0040141
1.0041281
1.004246
1.0043679
1.0044939
1.004624
1.0047583
1.0048966
1.0050391
1.0051857
1.0053364
1.0054911
1.0056497
1.0058122
1.0059785
1.0061483
1.0063216
1.0064981
1.0066776
1.0068599
1.0070446
1.0072315
1.00742
1.00761
1.0078008
1.007992
1.008183
1.0083733
1.0085623
1.0087492
1.0089334
1.0091141
1.0092905
1.0094616
1.0096267
1.0097848
1.0099348
1.0100756
1.0102062
1.0103253
1.0104316
1.0105239
1.0106006
1.0106602
1.0107012
1.0107216
1.0107194
1.0106922
1.0106374
1.0105524
1.0104341
1.0102796
1.0100851
1.0098489
1.0095612
1.009241
1.0088033
1.0019149
1.001925
1.001931
1.0019375
1.0019465
1.0019577
1.0019708
1.001986
1.0020032
1.0020224
1.0020436
1.0020668
1.0020921
1.0021193
1.0021487
1.0021801
1.0022136
1.0022493
1.0022872
1.0023273
1.0023697
1.0024144
1.0024615
1.0025111
1.0025632
1.0026179
1.0026752
1.0027353
1.0027981
1.0028638
1.0029325
1.0030041
1.0030789
1.0031568
1.003238
1.0033225
1.0034105
1.0035019
1.003597
1.0036956
1.003798
1.0039042
1.0040143
1.0041282
1.0042462
1.0043682
1.0044942
1.0046243
1.0047586
1.004897
1.0050395
1.0051862
1.0053369
1.0054916
1.0056503
1.0058128
1.005979
1.0061489
1.0063222
1.0064986
1.0066781
1.0068603
1.0070449
1.0072315
1.0074199
1.0076095
1.0077999
1.0079907
1.0081812
1.0083708
1.0085589
1.0087449
1.0089279
1.0091072
1.0092819
1.0094513
1.0096142
1.0097698
1.009917
1.0100547
1.0101817
1.0102969
1.010399
1.0104865
1.010558
1.010612
1.0106468
1.0106605
1.0106511
1.0106166
1.0105548
1.0104631
1.010339
1.0101798
1.0099823
1.0097451
1.0094593
1.0091435
1.0087178
1.0019145
1.0019252
1.0019311
1.0019376
1.0019466
1.0019577
1.0019709
1.001986
1.0020032
1.0020224
1.0020436
1.0020668
1.002092
1.0021193
1.0021486
1.00218
1.0022135
1.0022492
1.002287
1.0023271
1.0023694
1.0024141
1.0024612
1.0025107
1.0025628
1.0026174
1.0026747
1.0027346
1.0027974
1.002863
1.0029316
1.0030032
1.0030778
1.0031557
1.0032367
1.0033212
1.003409
1.0035003
1.0035952
1.0036937
1.003796
1.003902
1.0040119
1.0041257
1.0042435
1.0043653
1.0044912
1.0046211
1.0047552
1.0048934
1.0050357
1.0051821
1.0053326
1.0054871
1.0056455
1.0058077
1.0059737
1.0061433
1.0063163
1.0064925
1.0066716
1.0068534
1.0070377
1.0072239
1.0074118
1.0076009
1.0077908
1.007981
1.0081708
1.0083596
1.0085469
1.0087319
1.0089138
1.0090919
1.0092653
1.009433
1.0095942
1.0097479
1.0098929
1.0100281
1.0101525
1.0102648
1.0103636
1.0104477
1.0105156
1.0105657
1.0105967
1.0106067
1.0105938
1.0105561
1.0104913
1.0103971
1.010271
1.0101106
1.0099127
1.0096764
1.0093932
1.0090814
1.0086648
1.0019141
1.0019254
1.0019312
1.0019377
1.0019467
1.0019578
1.0019709
1.0019861
1.0020032
1.0020224
1.0020436
1.0020668
1.002092
1.0021193
1.0021486
1.00218
1.0022134
1.0022491
1.0022869
1.002327
1.0023693
1.002414
1.002461
1.0025105
1.0025625
1.0026171
1.0026744
1.0027343
1.0027971
1.0028626
1.0029312
1.0030027
1.0030773
1.0031551
1.0032362
1.0033205
1.0034083
1.0034996
1.0035944
1.0036929
1.0037951
1.0039011
1.0040109
1.0041246
1.0042424
1.0043641
1.0044899
1.0046197
1.0047537
1.0048918
1.005034
1.0051803
1.0053307
1.0054851
1.0056434
1.0058055
1.0059714
1.0061408
1.0063136
1.0064896
1.0066686
1.0068502
1.0070342
1.0072202
1.0074078
1.0075966
1.0077861
1.0079758
1.0081652
1.0083535
1.0085402
1.0087246
1.0089058
1.009083
1.0092555
1.0094222
1.0095822
1.0097346
1.0098782
1.0100119
1.0101346
1.010245
1.0103418
1.0104237
1.0104893
1.010537
1.0105653
1.0105725
1.0105567
1.010516
1.0104484
1.0103517
1.0102237
1.0100619
1.0098637
1.009628
1.0093469
1.0090386
1.0086289
1.0019137
1.0019256
1.0019313
1.0019377
1.0019467
1.0019578
1.001971
1.0019861
1.0020033
1.0020224
1.0020436
1.0020668
1.002092
1.0021192
1.0021485
1.0021799
1.0022133
1.0022489
1.0022867
1.0023268
1.0023691
1.0024137
1.0024607
1.0025102
1.0025622
1.0026167
1.0026739
1.0027338
1.0027965
1.002862
1.0029305
1.0030019
1.0030765
1.0031542
1.0032352
1.0033194
1.0034071
1.0034983
1.003593
1.0036914
1.0037935
1.0038993
1.004009
1.0041226
1.0042402
1.0043618
1.0044874
1.0046171
1.0047509
1.0048889
1.0050309
1.005177
1.0053272
1.0054813
1.0056394
1.0058014
1.005967
1.0061362
1.0063087
1.0064845
1.0066631
1.0068445
1.0070281
1.0072138
1.0074011
1.0075895
1.0077787
1.007968
1.0081569
1.0083447
1.0085309
1.0087146
1.0088952
1.0090718
1.0092434
1.0094093
1.0095684
1.0097198
1.0098623
1.0099948
1.0101162
1.0102251
1.0103204
1.0104007
1.0104646
1.0105105
1.0105371
1.0105428
1.0105254
1.0104834
1.0104148
1.0103175
1.0101891
1.0100275
1.0098299
1.0095956
1.0093168
1.0090116
1.0086069
1.0019133
1.0019258
1.0019313
1.0019378
1.0019468
1.0019579
1.001971
1.0019861
1.0020033
1.0020224
1.0020436
1.0020668
1.002092
1.0021192
1.0021484
1.0021798
1.0022132
1.0022488
1.0022866
1.0023266
1.0023689
1.0024135
1.0024605
1.0025099
1.0025619
1.0026164
1.0026735
1.0027334
1.002796
1.0028615
1.0029299
1.0030014
1.0030759
1.0031535
1.0032344
1.0033186
1.0034063
1.0034974
1.003592
1.0036903
1.0037923
1.0038981
1.0040077
1.0041212
1.0042387
1.0043601
1.0044856
1.0046152
1.0047489
1.0048867
1.0050286
1.0051746
1.0053246
1.0054786
1.0056366
1.0057983
1.0059637
1.0061327
1.0063051
1.0064806
1.0066591
1.0068402
1.0070236
1.007209
1.0073961
1.0075842
1.007773
1.007962
1.0081506
1.0083381
1.0085238
1.0087071
1.0088873
1.0090633
1.0092345
1.0093998
1.0095584
1.0097091
1.0098509
1.0099827
1.0101033
1.0102115
1.010306
1.0103855
1.0104485
1.0104935
1.0105194
1.0105242
1.010506
1.0104631
1.0103939
1.0102961
1.0101676
1.0100063
1.0098095
1.0095765
1.0092996
1.0089972
1.0085952
1.001913
1.0019259
1.0019314
1.0019378
1.0019468
1.0019579
1.001971
1.0019861
1.0020033
1.0020224
1.0020436
1.0020667
1.0020919
1.0021191
1.0021484
1.0021797
1.0022131
1.0022487
1.0022865
1.0023264
1.0023687
1.0024133
1.0024602
1.0025097
1.0025616
1.002616
1.0026731
1.002733
1.0027956
1.002861
1.0029293
1.0030007
1.0030751
1.0031527
1.0032336
1.0033177
1.0034053
1.0034963
1.0035908
1.003689
1.0037909
1.0038966
1.0040061
1.0041195
1.0042368
1.0043582
1.0044835
1.004613
1.0047465
1.0048842
1.0050259
1.0051717
1.0053215
1.0054754
1.0056331
1.0057946
1.0059599
1.0061287
1.0063008
1.0064761
1.0066543
1.0068352
1.0070183
1.0072035
1.0073902
1.0075781
1.0077666
1.0079553
1.0081435
1.0083307
1.0085161
1.0086991
1.0088788
1.0090545
1.0092252
1.0093901
1.0095482
1.0096984
1.0098397
1.009971
1.010091
1.0101987
1.0102926
1.0103714
1.0104338
1.0104783
1.0105036
1.0105081
1.0104895
1.0104465
1.0103773
1.0102799
1.0101519
1.0099916
1.009796
1.0095646
1.0092896
1.0089898
1.0085886
1.0019127
1.0019261
1.0019314
1.0019379
1.0019468
1.0019579
1.001971
1.0019861
1.0020033
1.0020224
1.0020436
1.0020667
1.0020919
1.0021191
1.0021483
1.0021796
1.002213
1.0022486
1.0022863
1.0023263
1.0023685
1.0024131
1.00246
1.0025094
1.0025613
1.0026157
1.0026728
1.0027326
1.0027951
1.0028605
1.0029288
1.0030001
1.0030745
1.0031521
1.0032328
1.0033169
1.0034044
1.0034953
1.0035898
1.0036879
1.0037897
1.0038953
1.0040047
1.004118
1.0042352
1.0043565
1.0044817
1.0046111
1.0047445
1.004882
1.0050236
1.0051692
1.0053189
1.0054726
1.0056301
1.0057915
1.0059566
1.0061252
1.0062971
1.0064722
1.0066502
1.0068308
1.0070138
1.0071987
1.0073852
1.0075728
1.0077611
1.0079495
1.0081375
1.0083244
1.0085096
1.0086922
1.0088717
1.0090471
1.0092176
1.0093822
1.00954
1.0096899
1.009831
1.009962
1.0100818
1.0101892
1.010283
1.0103617
1.010424
1.0104684
1.0104938
1.0104986
1.01048
1.0104372
1.0103685
1.0102716
1.0101445
1.0099852
1.0097911
1.0095614
1.0092881
1.0089909
1.0085889
1.0019124
1.0019262
1.0019315
1.0019379
1.0019469
1.0019579
1.001971
1.0019861
1.0020033
1.0020224
1.0020435
1.0020667
1.0020918
1.002119
1.0021482
1.0021795
1.0022129
1.0022485
1.0022862
1.0023261
1.0023683
1.0024129
1.0024598
1.0025091
1.002561
1.0026154
1.0026724
1.0027322
1.0027947
1.00286
1.0029283
1.0029995
1.0030739
1.0031514
1.0032321
1.0033161
1.0034035
1.0034944
1.0035888
1.0036868
1.0037885
1.003894
1.0040033
1.0041165
1.0042336
1.0043547
1.0044799
1.0046091
1.0047423
1.0048797
1.0050211
1.0051666
1.0053162
1.0054697
1.0056271
1.0057883
1.0059531
1.0061215
1.0062933
1.0064681
1.0066459
1.0068264
1.0070091
1.0071938
1.0073801
1.0075675
1.0077555
1.0079437
1.0081314
1.008318
1.0085029
1.0086854
1.0088646
1.0090397
1.00921
1.0093743
1.0095319
1.0096816
1.0098224
1.0099533
1.0100729
1.0101801
1.0102737
1.0103523
1.0104145
1.0104588
1.0104843
1.0104894
1.010471
1.0104286
1.0103604
1.0102642
1.0101381
1.0099799
1.0097872
1.0095593
1.0092876
1.0089929
1.0085892
1.0019121
1.0019263
1.0019315
1.0019379
1.0019469
1.0019579
1.001971
1.0019861
1.0020032
1.0020224
1.0020435
1.0020666
1.0020918
1.0021189
1.0021482
1.0021794
1.0022128
1.0022483
1.002286
1.002326
1.0023681
1.0024127
1.0024595
1.0025089
1.0025607
1.0026151
1.0026721
1.0027318
1.0027942
1.0028595
1.0029278
1.002999
1.0030733
1.0031507
1.0032313
1.0033153
1.0034026
1.0034935
1.0035878
1.0036857
1.0037874
1.0038928
1.004002
1.0041151
1.0042321
1.0043531
1.0044781
1.0046072
1.0047404
1.0048776
1.0050189
1.0051643
1.0053137
1.005467
1.0056242
1.0057853
1.00595
1.0061182
1.0062897
1.0064644
1.0066421
1.0068223
1.0070048
1.0071893
1.0073754
1.0075626
1.0077504
1.0079384
1.0081259
1.0083124
1.0084971
1.0086793
1.0088584
1.0090333
1.0092034
1.0093677
1.0095251
1.0096748
1.0098155
1.0099464
1.010066
1.0101733
1.010267
1.0103458
1.0104082
1.0104528
1.0104788
1.0104847
1.0104667
1.0104249
1.0103576
1.0102626
1.0101377
1.009981
1.00979
1.009564
1.009294
1.0090019
1.0085957
1.0019119
1.0019265
1.0019315
1.0019379
1.0019469
1.0019579
1.001971
1.0019861
1.0020032
1.0020224
1.0020435
1.0020666
1.0020917
1.0021189
1.0021481
1.0021793
1.0022127
1.0022482
1.0022859
1.0023258
1.0023679
1.0024124
1.0024593
1.0025086
1.0025604
1.0026147
1.0026717
1.0027314
1.0027938
1.0028591
1.0029272
1.0029984
1.0030726
1.00315
1.0032306
1.0033145
1.0034018
1.0034925
1.0035868
1.0036847
1.0037862
1.0038916
1.0040007
1.0041137
1.0042306
1.0043515
1.0044764
1.0046054
1.0047384
1.0048755
1.0050167
1.0051619
1.0053112
1.0054643
1.0056214
1.0057823
1.0059468
1.0061149
1.0062862
1.0064607
1.0066382
1.0068182
1.0070005
1.0071848
1.0073707
1.0075576
1.0077453
1.007933
1.0081203
1.0083065
1.008491
1.0086731
1.0088519
1.0090267
1.0091965
1.0093606
1.0095178
1.0096673
1.0098079
1.0099386
1.0100581
1.0101654
1.0102589
1.0103377
1.0104002
1.0104449
1.010471
1.0104774
1.0104597
1.0104183
1.0103515
1.0102571
1.0101331
1.0099775
1.0097877
1.0095634
1.0092948
1.0090052
1.0085961
1.0019116
1.0019266
1.0019315
1.0019379
1.0019469
1.001958
1.001971
1.0019861
1.0020032
1.0020223
1.0020434
1.0020665
1.0020916
1.0021188
1.002148
1.0021792
1.0022126
1.002248
1.0022857
1.0023256
1.0023677
1.0024122
1.002459
1.0025083
1.0025601
1.0026144
1.0026713
1.002731
1.0027934
1.0028586
1.0029267
1.0029979
1.003072
1.0031494
1.0032299
1.0033138
1.003401
1.0034917
1.0035859
1.0036837
1.0037852
1.0038904
1.0039994
1.0041124
1.0042292
1.00435
1.0044748
1.0046037
1.0047366
1.0048736
1.0050146
1.0051597
1.0053088
1.0054619
1.0056188
1.0057795
1.0059439
1.0061117
1.006283
1.0064573
1.0066346
1.0068144
1.0069965
1.0071807
1.0073663
1.0075531
1.0077406
1.0079281
1.0081152
1.0083013
1.0084857
1.0086676
1.0088462
1.0090209
1.0091907
1.0093547
1.0095118
1.0096613
1.009802
1.0099327
1.0100524
1.0101599
1.0102537
1.0103328
1.0103957
1.0104409
1.0104676
1.0104745
1.0104574
1.0104172
1.0103517
1.0102586
1.010136
1.0099819
1.0097938
1.0095714
1.0093046
1.0090177
1.0086068
1.0019114
1.0019266
1.0019315
1.0019379
1.0019469
1.0019579
1.001971
1.0019861
1.0020032
1.0020223
1.0020434
1.0020664
1.0020915
1.0021187
1.0021478
1.0021791
1.0022124
1.0022479
1.0022855
1.0023254
1.0023675
1.002412
1.0024588
1.002508
1.0025598
1.0026141
1.002671
1.0027306
1.002793
1.0028582
1.0029263
1.0029973
1.0030715
1.0031488
1.0032293
1.0033131
1.0034002
1.0034909
1.003585
1.0036828
1.0037842
1.0038893
1.0039983
1.0041111
1.0042279
1.0043486
1.0044733
1.004602
1.0047348
1.0048717
1.0050126
1.0051576
1.0053066
1.0054595
1.0056162
1.0057768
1.005941
1.0061087
1.0062797
1.0064539
1.0066309
1.0068105
1.0069925
1.0071764
1.0073617
1.0075483
1.0077355
1.0079228
1.0081097
1.0082955
1.0084795
1.0086612
1.0088395
1.0090139
1.0091833
1.009347
1.0095039
1.0096531
1.0097934
1.0099238
1.0100433
1.0101504
1.0102442
1.010323
1.010386
1.010431
1.010458
1.0104657
1.0104485
1.0104078
1.0103426
1.0102501
1.0101283
1.0099752
1.0097882
1.0095671
1.0093014
1.0090169
1.0086051
1.0019113
1.0019268
1.0019316
1.001938
1.001947
1.001958
1.001971
1.0019861
1.0020032
1.0020223
1.0020434
1.0020664
1.0020915
1.0021187
1.0021478
1.002179
1.0022124
1.0022478
1.0022855
1.0023253
1.0023674
1.0024119
1.0024587
1.0025079
1.0025596
1.0026139
1.0026708
1.0027304
1.0027927
1.0028579
1.0029259
1.002997
1.0030711
1.0031483
1.0032288
1.0033126
1.0033997
1.0034902
1.0035843
1.003682
1.0037834
1.0038885
1.0039974
1.0041101
1.0042268
1.0043474
1.004472
1.0046007
1.0047334
1.0048701
1.005011
1.0051558
1.0053046
1.0054574
1.0056141
1.0057745
1.0059385
1.0061061
1.0062769
1.0064509
1.0066278
1.0068073
1.006989
1.0071727
1.007358
1.0075444
1.0077314
1.0079186
1.0081053
1.008291
1.0084749
1.0086565
1.0088348
1.0090092
1.0091787
1.0093425
1.0094995
1.0096488
1.0097894
1.0099201
1.0100399
1.0101474
1.0102417
1.010321
1.0103847
1.0104303
1.0104584
1.0104642
1.0104505
1.0104124
1.0103484
1.0102571
1.0101366
1.0099852
1.0098
1.0095811
1.0093173
1.009036
1.0086252
1.001911
1.0019268
1.0019316
1.0019381
1.001947
1.001958
1.0019711
1.0019861
1.0020032
1.0020223
1.0020434
1.0020665
1.0020915
1.0021187
1.0021478
1.002179
1.0022123
1.0022478
1.0022854
1.0023253
1.0023674
1.0024118
1.0024586
1.0025078
1.0025595
1.0026137
1.0026706
1.0027302
1.0027925
1.0028576
1.0029257
1.0029967
1.0030708
1.003148
1.0032284
1.0033121
1.0033992
1.0034898
1.0035838
1.0036814
1.0037827
1.0038878
1.0039966
1.0041093
1.0042259
1.0043464
1.004471
1.0045996
1.0047322
1.0048688
1.0050096
1.0051543
1.005303
1.0054557
1.0056122
1.0057724
1.0059363
1.0061037
1.0062744
1.0064482
1.0066249
1.0068042
1.0069857
1.0071692
1.0073542
1.0075403
1.007727
1.0079139
1.0081002
1.0082856
1.0084691
1.0086502
1.0088282
1.009002
1.0091711
1.0093343
1.0094909
1.0096397
1.0097798
1.0099099
1.0100292
1.0101362
1.0102299
1.0103089
1.0103721
1.0104175
1.0104451
1.0104453
1.0104322
1.0103966
1.0103342
1.0102439
1.0101243
1.0099739
1.0097897
1.009572
1.0093093
1.0090303
1.0086203
1.0019125
1.001928
1.0019325
1.0019388
1.0019476
1.0019586
1.0019716
1.0019866
1.0020036
1.0020227
1.0020438
1.0020668
1.0020919
1.002119
1.0021481
1.0021793
1.0022126
1.0022481
1.0022857
1.0023255
1.0023676
1.002412
1.0024588
1.002508
1.0025597
1.0026139
1.0026708
1.0027303
1.0027926
1.0028578
1.0029258
1.0029968
1.0030709
1.0031481
1.0032285
1.0033121
1.0033992
1.0034897
1.0035837
1.0036813
1.0037826
1.0038876
1.0039964
1.0041091
1.0042256
1.0043461
1.0044706
1.0045992
1.0047318
1.0048684
1.0050091
1.0051538
1.0053025
1.0054552
1.0056116
1.0057719
1.0059358
1.0061033
1.006274
1.0064478
1.0066246
1.0068039
1.0069856
1.0071692
1.0073544
1.0075407
1.0077277
1.0079149
1.0081016
1.0082873
1.0084714
1.008653
1.0088315
1.009006
1.0091757
1.0093397
1.0094972
1.0096469
1.009788
1.0099193
1.0100397
1.010148
1.010243
1.0103234
1.010388
1.010435
1.010464
1.0104744
1.0104604
1.0104226
1.0103606
1.0102716
1.0101537
1.0100051
1.0098229
1.0096075
1.0093468
1.0090712
1.0086629
1.0084224
1.0083868
1.0083887
1.0083719
1.0083666
1.0083514
1.0083394
1.0083219
1.0083074
1.0082939
1.0082869
1.0082871
1.0082989
1.0083268
1.0083734
1.0084535
1.0085548
1.0087397
1.0089212
1.0076369
1.0075945
1.0075894
1.0075676
1.0075575
1.0075411
1.0075284
1.0075117
1.007497
1.0074818
1.0074697
1.007461
1.0074584
1.0074656
1.0074832
1.0075236
1.007577
1.0076748
1.0078365
1.0066846
1.0066431
1.0066362
1.0066134
1.0066011
1.0065833
1.0065678
1.0065479
1.0065282
1.0065068
1.0064864
1.006467
1.0064501
1.0064382
1.0064307
1.0064357
1.0064516
1.0064781
1.0065837
1.0055841
1.005544
1.0055349
1.0055112
1.0054967
1.0054772
1.0054593
1.0054364
1.0054121
1.0053851
1.0053568
1.0053273
1.0052971
1.0052675
1.0052382
1.0052113
1.0051934
1.0051594
1.0052063
1.0042793
1.0042398
1.0042286
1.0042044
1.0041883
1.0041675
1.0041478
1.0041231
1.0040955
1.0040639
1.004029
1.0039905
1.0039481
1.0039018
1.0038515
1.0037932
1.0037405
1.0036489
1.0036355
1.0027602
1.002722
1.0027093
1.0026851
1.0026678
1.0026463
1.0026254
1.0025993
1.0025693
1.0025338
1.0024934
1.0024469
1.0023936
1.0023318
1.0022619
1.0021744
1.0020882
1.0019432
1.00187
1.0010315
1.0009962
1.0009826
1.0009594
1.0009417
1.00092
1.0008984
1.0008717
1.0008399
1.0008016
1.0007568
1.0007037
1.0006412
1.0005658
1.0004786
1.0003651
1.0002479
1.0000553
0.99992466
0.99911323
0.99908191
0.99906839
0.99904675
0.99902923
0.99900791
0.99898629
0.99895974
0.9989275
0.99888753
0.99883965
0.99878142
0.9987115
0.99862473
0.99852283
0.99838689
0.99824217
0.99800858
0.99782454
0.99704633
0.99702029
0.99700756
0.99698799
0.9969714
0.99695119
0.99693019
0.99690443
0.99687266
0.9968322
0.99678255
0.99672099
0.99664577
0.99655025
0.99643663
0.9962825
0.99611448
0.99584751
0.99561511
0.99490034
0.99487976
0.99486835
0.99485078
0.99483568
0.99481716
0.99479749
0.99477318
0.99474272
0.99470298
0.99465305
0.99458986
0.99451151
0.99441001
0.99428795
0.99412018
0.99393368
0.99364161
0.99336698
0.99276983
0.99275308
0.99274406
0.99272953
0.99271641
0.99270005
0.99268213
0.99265974
0.9926313
0.99259328
0.99254438
0.99248115
0.99240179
0.99229708
0.99216999
0.99199335
0.99179364
0.99148525
0.9911758
0.99077021
0.99075697
0.9907505
0.99073881
0.99072771
0.99071377
0.99069797
0.99067786
0.99065187
0.99061634
0.99056959
0.99050777
0.99042938
0.99032415
0.99019551
0.99001487
0.98980769
0.98949205
0.98915692
0.98902576
0.98901522
0.98901138
0.98900256
0.98899361
0.98898194
0.98896826
0.98895046
0.98892704
0.98889431
0.98885041
0.98879113
0.98871538
0.98861202
0.98848522
0.98830539
0.98809688
0.98778322
0.98743374
0.98764158
0.98763222
0.98763134
0.98762534
0.98761827
0.98760866
0.98759702
0.9875815
0.9875607
0.98753105
0.98749076
0.98743524
0.98736406
0.98726531
0.98714431
0.98697072
0.98676827
0.9864665
0.98611754
0.98671994
0.98671098
0.98671252
0.98670839
0.9867027
0.98669438
0.9866839
0.98666967
0.98665046
0.98662286
0.98658513
0.98653243
0.98646452
0.98637007
0.98625524
0.98609178
0.98590094
0.98562118
0.98528963
0.98619492
0.98618358
0.98618834
0.98618703
0.98618333
0.98617694
0.986169
0.98615801
0.98614309
0.98612124
0.9860911
0.98604833
0.98599308
0.98591484
0.98581876
0.98567991
0.9855149
0.98527476
0.98498461
0.98611674
0.98609942
0.98610278
0.98610348
0.98610102
0.98609581
0.9860893
0.98608052
0.98606884
0.98605185
0.98602856
0.98599574
0.98595404
0.9858945
0.9858206
0.9857125
0.98558212
0.98539293
0.98516609
0.98645428
0.98643457
0.98644255
0.98644436
0.98644239
0.98643703
0.98643052
0.98642209
0.98641122
0.98639598
0.98637557
0.98634765
0.98631273
0.98626486
0.98620665
0.98612566
0.98602994
0.98589388
0.98574254
0.98696528
0.98694231
0.98695319
0.98695578
0.9869555
0.98695108
0.98694625
0.98694026
0.98693294
0.98692278
0.98690927
0.98689102
0.98686847
0.98683826
0.98680241
0.98675418
0.98669951
0.98662181
0.98655432
0.98756662
0.98753941
0.98755224
0.98755538
0.98755637
0.98755261
0.98754936
0.98754548
0.98754136
0.98753586
0.98752895
0.98752014
0.98751013
0.98749759
0.98748447
0.98746806
0.98745368
0.9874316
0.98744278
0.98818381
0.98815368
0.98816769
0.98817093
0.98817316
0.98816982
0.9881677
0.98816541
0.9881638
0.98816189
0.98816009
0.98815861
0.98815849
0.98815987
0.98816491
0.98817385
0.98819191
0.98821434
0.98828668
0.9887542
0.9887218
0.98873729
0.98874013
0.98874318
0.98874027
0.98873926
0.98873826
0.98873853
0.9887392
0.98874111
0.98874493
0.988752
0.98876337
0.98878144
0.98880829
0.98884911
0.98890226
0.9890161
0.98924915
0.98921537
0.98923257
0.98923488
0.98923861
0.98923587
0.98923562
0.98923548
0.98923709
0.98923952
0.98924399
0.98925146
0.98926346
0.98928159
0.98930839
0.98934711
0.98940292
0.98947493
0.98962219
0.98966262
0.98962782
0.98964671
0.98964803
0.98965245
0.98964989
0.98965045
0.98965103
0.98965352
0.98965702
0.98966315
0.98967297
0.98968819
0.98971071
0.98974296
0.98978846
0.98985341
0.98993606
0.99012359
0.98999563
0.98996043
0.9899816
0.98998166
0.98998633
0.98998359
0.98998446
0.98998509
0.98998765
0.98999131
0.98999794
0.99000868
0.99002553
0.99005092
0.99008716
0.99013708
0.99021224
0.99030134
0.99053266
0.9902664
0.99023072
0.99025403
0.99025249
0.99025769
0.99025477
0.990256
0.99025664
0.99025914
0.99026276
0.9902697
0.99028107
0.99029895
0.99032605
0.99036531
0.99041835
0.99049641
0.99058517
0.990843
0.99047292
0.99043676
0.99046221
0.99045779
0.99046166
0.99045634
0.99045492
0.99045142
0.99044856
0.99044522
0.99044434
0.99044867
0.99045826
0.99047761
0.99051624
0.99057921
0.99067725
0.99081048
0.99100744
0.99067673
0.9906391
0.99066656
0.99065958
0.99066347
0.99065718
0.99065542
0.99065059
0.99064648
0.99064321
0.99064622
0.99065679
0.99067589
0.99070425
0.99074461
0.99078931
0.99082635
0.99086581
0.99087791
0.99085556
0.99081526
0.99084057
0.99082235
0.9908158
0.99079558
0.99077866
0.99075447
0.99072564
0.99068724
0.99063822
0.9905702
0.99047662
0.99034414
0.9901737
0.98996638
0.98974254
0.98951385
0.98939778
0.9910373
0.99098011
0.99102627
0.99100381
0.99102286
0.99101845
0.99102786
0.99102749
0.9910302
0.99103043
0.99103261
0.99103297
0.9910397
0.99105996
0.99110921
0.99117147
0.99127231
0.99135374
0.99133538
0.99119664
0.99114505
0.99119092
0.99116649
0.99118564
0.9911754
0.99118606
0.99118691
0.99119643
0.99120421
0.99121538
0.99122671
0.99124461
0.99127351
0.99133148
0.99141409
0.99152726
0.99160388
0.99152616
0.99132477
0.99127554
0.99132082
0.99129597
0.99131538
0.99130058
0.99131
0.99130559
0.99131215
0.99131551
0.991325
0.99133493
0.99135071
0.99137162
0.99140783
0.99145238
0.99151064
0.99152185
0.99140317
0.9914347
0.9913864
0.99143183
0.99140757
0.99142853
0.9914122
0.99142301
0.99141644
0.99142318
0.99142467
0.9914343
0.99144411
0.99146081
0.99147992
0.9915083
0.99153111
0.99155461
0.99150855
0.99134546
0.99153652
0.99148873
0.9915343
0.99151072
0.99153315
0.99151609
0.99152886
0.9915215
0.99152991
0.99153094
0.99154166
0.99155122
0.99156823
0.99158523
0.99161016
0.99162272
0.99162958
0.9915536
0.99135206
0.99162847
0.99158102
0.99162697
0.99160409
0.99162788
0.99161031
0.99162484
0.99161685
0.99162692
0.99162757
0.99163945
0.99164847
0.99166563
0.99168039
0.99170275
0.99170852
0.99170519
0.99161836
0.99138978
0.99170986
0.99166266
0.99170923
0.99168711
0.99171215
0.99169447
0.99171068
0.99170241
0.99171426
0.99171486
0.99172831
0.99173723
0.99175542
0.99176917
0.99179082
0.99179319
0.9917837
0.99169469
0.99144785
0.99178115
0.991734
0.99178107
0.9917599
0.9917863
0.99176879
0.99178672
0.9917786
0.99179245
0.99179349
0.99180905
0.99181856
0.99183874
0.99185296
0.99187595
0.99187825
0.99186635
0.9917799
0.99152006
0.99184177
0.99179488
0.99184251
0.99182235
0.99185015
0.99183309
0.99185273
0.99184518
0.99186116
0.99186312
0.99188121
0.99189201
0.99191508
0.99193116
0.99195724
0.99196211
0.99195115
0.99186979
0.99160111
0.99189068
0.99184426
0.99189336
0.99187369
0.99190305
0.99188698
0.99190807
0.99190166
0.99191973
0.99192312
0.99194402
0.9919568
0.99198353
0.99200272
0.99203352
0.99204302
0.99203617
0.99196116
0.99168792
0.99192582
0.99187813
0.99193309
0.99191312
0.99194318
0.99192965
0.99195162
0.99194719
0.99196717
0.99197257
0.99199644
0.99201183
0.99204294
0.99206631
0.99210338
0.99211905
0.99211998
0.99205129
0.99178021
0.99194681
0.9918799
0.99195839
0.99194948
0.99197463
0.99196366
0.99198463
0.99198244
0.99200327
0.99201097
0.9920376
0.99205595
0.99209189
0.99212017
0.99216492
0.99218777
0.99220089
0.9921367
0.99187815
0.99196518
0.99186765
0.99196649
0.99196775
0.99199144
0.99198515
0.99200634
0.99200783
0.99202795
0.99203741
0.9920664
0.99208771
0.9921287
0.9921622
0.9922156
0.99224591
0.99227481
0.99221393
0.99198118
0.99195767
0.99186504
0.99196714
0.99196919
0.99199457
0.99198824
0.99201126
0.99201484
0.99203667
0.99204836
0.99208037
0.99210492
0.99215132
0.99219006
0.99225278
0.99229013
0.99233604
0.99227613
0.99208695
0.9919424
0.99187186
0.9919555
0.99194498
0.99197722
0.99197027
0.99199651
0.99200104
0.99202712
0.99204165
0.99207756
0.99210563
0.99215776
0.99220147
0.99227392
0.99231675
0.99238191
0.99231747
0.99218897
0.99191095
0.99185419
0.99192362
0.99190645
0.9919442
0.99193618
0.99196553
0.99197036
0.99200049
0.99201742
0.9920573
0.99208872
0.99214653
0.99219458
0.99227632
0.99232179
0.99240707
0.99233853
0.99226466
0.99185931
0.99180878
0.99187281
0.99185524
0.99189598
0.99188699
0.99191897
0.99192384
0.99195711
0.99197573
0.99201917
0.99205344
0.99211648
0.99216814
0.9922583
0.99230642
0.9924042
0.99232776
0.99229644
0.99178853
0.99174087
0.99180359
0.99178707
0.99182974
0.99182051
0.9918548
0.99185988
0.99189583
0.99191579
0.99196239
0.99199899
0.99206668
0.992121
0.99221807
0.99226623
0.99237214
0.99227432
0.99228797
0.99169817
0.99165188
0.99171526
0.99169976
0.99174407
0.99173514
0.99177151
0.99177708
0.99181546
0.99183662
0.9918861
0.99192467
0.99199649
0.99205268
0.99215572
0.99220144
0.99231538
0.99218376
0.9922547
0.99158786
0.99154214
0.9916072
0.99159237
0.99163836
0.99162993
0.99166821
0.99167444
0.99171505
0.99173734
0.99178948
0.99182974
0.99190534
0.99196288
0.99207161
0.99211382
0.99223732
0.9920719
0.99220383
0.99145719
0.99141171
0.99147895
0.9914644
0.99151215
0.99150422
0.99154428
0.99155121
0.99159383
0.99161717
0.99167175
0.99171345
0.99179247
0.99185095
0.99196516
0.99200395
0.99213753
0.99194846
0.99213535
0.9913053
0.99125984
0.99132993
0.99131529
0.99136499
0.99135744
0.99139918
0.99140675
0.99145117
0.99147535
0.99153211
0.99157497
0.99165696
0.99171592
0.9918349
0.99187022
0.99201185
0.99180886
0.99204486
0.99113186
0.99108589
0.99115976
0.99114466
0.99119653
0.99118919
0.99123255
0.99124063