/*--------------------------------*- C++ -*----------------------------------*\
| =========                 |                                                 |
| \\      /  F ield         | OpenFOAM: The Open Source CFD Toolbox           |
|  \\    /   O peration     | Version:  2406                                  |
|   \\  /    A nd           | Website:  www.openfoam.com                      |
|    \\/     M anipulation  |                                                 |
\*---------------------------------------------------------------------------*/
FoamFile
{
    version     2.0;
    format      ascii;
    arch        "LSB;label=32;scalar=64";
    class       volScalarField;
    location    "62140";
    object      T;
}
// * * * * * * * * * * * * * * * * * * * * * * * * * * * * * * * * * * * * * //

dimensions      [0 0 0 1 0 0 0];

internalField   nonuniform List<scalar> 
94692
(
1.0005302
1.0005345
1.0005376
1.0005411
1.0005448
1.0005494
1.0005543
1.0005596
1.0005656
1.0005722
1.0005793
1.0005871
1.0005954
1.0006044
1.0006139
1.000624
1.0006348
1.0006461
1.0006581
1.0006707
1.000684
1.000698
1.0007127
1.0007281
1.0007443
1.0007611
1.0007787
1.0007971
1.0008163
1.0008363
1.000857
1.0008786
1.0009011
1.0009244
1.0009487
1.0009738
1.0009999
1.0010269
1.0010548
1.0010838
1.0011137
1.0011447
1.0011767
1.0012097
1.0012438
1.0012789
1.0013151
1.0013524
1.0013906
1.00143
1.0014704
1.0015118
1.0015542
1.0015976
1.0016419
1.0016871
1.0017332
1.0017801
1.0018278
1.0018761
1.0019251
1.0019746
1.0020246
1.0020749
1.0021254
1.0021761
1.0022268
1.0022773
1.0023276
1.0023775
1.0024268
1.0024754
1.0025231
1.0025696
1.0026149
1.0026587
1.0027007
1.0027407
1.0027785
1.0028137
1.002846
1.0028751
1.0029004
1.0029215
1.002938
1.0029488
1.002953
1.0029495
1.0029377
1.0029168
1.0028858
1.0028441
1.0027904
1.0027239
1.002643
1.0025475
1.0024339
1.0023066
1.0021866
1.0005299
1.0005329
1.0005357
1.000539
1.0005429
1.0005474
1.0005524
1.000558
1.0005642
1.000571
1.0005783
1.0005862
1.0005947
1.0006038
1.0006134
1.0006236
1.0006345
1.0006459
1.000658
1.0006707
1.000684
1.000698
1.0007127
1.0007282
1.0007443
1.0007612
1.0007788
1.0007972
1.0008163
1.0008363
1.000857
1.0008786
1.0009011
1.0009244
1.0009487
1.0009738
1.0009999
1.0010269
1.0010549
1.0010839
1.0011139
1.0011449
1.0011769
1.00121
1.0012441
1.0012793
1.0013155
1.0013528
1.0013912
1.0014307
1.0014712
1.0015127
1.0015552
1.0015987
1.0016432
1.0016886
1.0017349
1.001782
1.0018298
1.0018783
1.0019275
1.0019771
1.0020272
1.0020777
1.0021283
1.0021791
1.0022298
1.0022803
1.0023304
1.0023801
1.0024291
1.0024772
1.0025242
1.00257
1.0026143
1.0026568
1.0026973
1.0027356
1.0027713
1.0028042
1.0028338
1.0028599
1.002882
1.0028996
1.0029124
1.0029197
1.0029208
1.0029148
1.0029008
1.0028777
1.0028444
1.0027996
1.0027422
1.0026712
1.0025848
1.0024839
1.0023612
1.0022273
1.0020861
1.00053
1.0005338
1.000537
1.0005404
1.0005443
1.0005488
1.0005538
1.0005592
1.0005653
1.0005719
1.0005791
1.0005869
1.0005952
1.0006042
1.0006138
1.0006239
1.0006346
1.000646
1.000658
1.0006707
1.000684
1.0006981
1.0007128
1.0007282
1.0007443
1.0007612
1.0007788
1.0007972
1.0008164
1.0008363
1.0008571
1.0008787
1.0009012
1.0009245
1.0009488
1.0009739
1.001
1.001027
1.001055
1.001084
1.001114
1.001145
1.001177
1.0012101
1.0012442
1.0012794
1.0013157
1.001353
1.0013913
1.0014308
1.0014712
1.0015127
1.0015552
1.0015987
1.0016432
1.0016885
1.0017347
1.0017817
1.0018295
1.0018779
1.0019269
1.0019764
1.0020264
1.0020766
1.002127
1.0021775
1.0022279
1.002278
1.0023277
1.0023768
1.0024252
1.0024726
1.0025188
1.0025635
1.0026067
1.0026479
1.0026869
1.0027235
1.0027574
1.0027881
1.0028154
1.0028388
1.002858
1.0028725
1.0028817
1.0028851
1.0028819
1.0028718
1.0028539
1.0028273
1.0027911
1.0027442
1.0026853
1.0026131
1.0025258
1.0024243
1.002301
1.002167
1.0020252
1.0005297
1.0005328
1.0005356
1.0005389
1.0005428
1.0005473
1.0005523
1.000558
1.0005642
1.0005709
1.0005783
1.0005862
1.0005947
1.0006038
1.0006134
1.0006237
1.0006345
1.000646
1.000658
1.0006707
1.0006841
1.0006981
1.0007128
1.0007283
1.0007444
1.0007613
1.0007789
1.0007972
1.0008164
1.0008363
1.0008571
1.0008787
1.0009012
1.0009245
1.0009487
1.0009738
1.0009999
1.0010269
1.0010549
1.0010839
1.0011138
1.0011448
1.0011768
1.0012099
1.001244
1.0012791
1.0013154
1.0013527
1.001391
1.0014304
1.0014709
1.0015123
1.0015548
1.0015983
1.0016427
1.001688
1.0017341
1.0017811
1.0018288
1.0018771
1.001926
1.0019755
1.0020252
1.0020753
1.0021255
1.0021757
1.0022258
1.0022756
1.0023249
1.0023736
1.0024214
1.0024681
1.0025136
1.0025575
1.0025997
1.0026399
1.0026777
1.0027129
1.0027452
1.0027743
1.0027998
1.0028212
1.0028383
1.0028505
1.0028575
1.0028586
1.0028532
1.0028407
1.0028203
1.0027913
1.0027526
1.0027035
1.0026427
1.0025693
1.0024814
1.0023799
1.0022576
1.0021245
1.0019837
1.0005299
1.0005337
1.0005369
1.0005403
1.0005441
1.0005486
1.0005535
1.0005589
1.000565
1.0005716
1.0005789
1.0005866
1.000595
1.0006041
1.0006137
1.0006238
1.0006346
1.000646
1.0006581
1.0006708
1.0006841
1.0006982
1.0007129
1.0007283
1.0007445
1.0007613
1.000779
1.0007973
1.0008165
1.0008364
1.0008572
1.0008788
1.0009012
1.0009246
1.0009488
1.0009739
1.0009999
1.0010269
1.0010549
1.0010838
1.0011138
1.0011447
1.0011767
1.0012097
1.0012438
1.0012789
1.0013151
1.0013523
1.0013906
1.0014299
1.0014703
1.0015117
1.0015541
1.0015974
1.0016417
1.0016869
1.0017329
1.0017797
1.0018272
1.0018754
1.0019241
1.0019733
1.0020228
1.0020726
1.0021225
1.0021724
1.0022221
1.0022715
1.0023203
1.0023684
1.0024157
1.0024618
1.0025065
1.0025497
1.002591
1.0026302
1.002667
1.0027011
1.0027322
1.00276
1.002784
1.002804
1.0028195
1.00283
1.0028352
1.0028344
1.002827
1.0028124
1.0027899
1.0027589
1.0027184
1.0026676
1.0026055
1.0025313
1.0024432
1.0023421
1.0022214
1.0020903
1.0019523
1.0005295
1.0005328
1.0005356
1.0005389
1.0005428
1.0005473
1.0005524
1.000558
1.0005642
1.000571
1.0005784
1.0005863
1.0005948
1.0006039
1.0006136
1.0006238
1.0006347
1.0006461
1.0006582
1.0006709
1.0006843
1.0006984
1.0007131
1.0007285
1.0007446
1.0007615
1.0007791
1.0007975
1.0008166
1.0008365
1.0008573
1.0008788
1.0009013
1.0009245
1.0009487
1.0009738
1.0009998
1.0010267
1.0010546
1.0010835
1.0011134
1.0011443
1.0011762
1.0012091
1.0012431
1.0012781
1.0013142
1.0013513
1.0013895
1.0014287
1.0014689
1.0015102
1.0015524
1.0015956
1.0016397
1.0016846
1.0017304
1.001777
1.0018242
1.0018721
1.0019205
1.0019694
1.0020185
1.0020679
1.0021174
1.0021668
1.002216
1.0022648
1.0023131
1.0023606
1.0024072
1.0024526
1.0024966
1.0025389
1.0025794
1.0026176
1.0026534
1.0026865
1.0027165
1.0027431
1.0027659
1.0027846
1.0027988
1.002808
1.0028119
1.0028099
1.0028013
1.0027856
1.002762
1.00273
1.0026885
1.0026369
1.0025741
1.0024995
1.0024113
1.0023106
1.0021911
1.002062
1.0019268
1.0005297
1.0005337
1.0005367
1.00054
1.0005438
1.0005482
1.0005532
1.0005586
1.0005647
1.0005714
1.0005787
1.0005866
1.000595
1.0006041
1.0006138
1.000624
1.0006348
1.0006463
1.0006584
1.0006711
1.0006845
1.0006985
1.0007132
1.0007287
1.0007448
1.0007616
1.0007792
1.0007975
1.0008166
1.0008365
1.0008572
1.0008787
1.0009011
1.0009243
1.0009484
1.0009734
1.0009993
1.0010261
1.0010539
1.0010826
1.0011124
1.0011431
1.0011749
1.0012076
1.0012414
1.0012762
1.0013121
1.001349
1.0013869
1.0014259
1.0014658
1.0015068
1.0015487
1.0015915
1.0016352
1.0016798
1.0017252
1.0017713
1.0018181
1.0018655
1.0019134
1.0019617
1.0020103
1.0020591
1.002108
1.0021568
1.0022053
1.0022534
1.002301
1.0023477
1.0023935
1.002438
1.0024812
1.0025226
1.0025622
1.0025995
1.0026344
1.0026665
1.0026955
1.0027211
1.0027429
1.0027606
1.0027738
1.0027821
1.002785
1.0027821
1.0027727
1.0027561
1.0027317
1.002699
1.002657
1.0026051
1.0025423
1.0024678
1.0023802
1.0022804
1.0021624
1.0020353
1.0019031
1.0005294
1.0005328
1.0005357
1.000539
1.0005429
1.0005474
1.0005525
1.0005581
1.0005643
1.0005711
1.0005785
1.0005865
1.000595
1.0006041
1.0006138
1.0006241
1.000635
1.0006464
1.0006585
1.0006712
1.0006845
1.0006985
1.0007131
1.0007285
1.0007445
1.0007613
1.0007787
1.0007969
1.0008159
1.0008356
1.0008562
1.0008775
1.0008996
1.0009227
1.0009465
1.0009713
1.000997
1.0010236
1.0010511
1.0010795
1.001109
1.0011394
1.0011708
1.0012033
1.0012367
1.0012711
1.0013066
1.0013431
1.0013806
1.001419
1.0014585
1.0014989
1.0015403
1.0015826
1.0016258
1.0016698
1.0017145
1.00176
1.0018061
1.0018529
1.0019001
1.0019476
1.0019955
1.0020436
1.0020916
1.0021396
1.0021873
1.0022346
1.0022812
1.0023271
1.002372
1.0024156
1.0024578
1.0024984
1.002537
1.0025734
1.0026073
1.0026385
1.0026666
1.0026912
1.0027122
1.002729
1.0027414
1.0027488
1.0027511
1.0027476
1.0027376
1.0027205
1.0026959
1.002663
1.0026211
1.0025694
1.0025069
1.0024331
1.0023463
1.0022477
1.0021313
1.0020064
1.0018772
1.0005296
1.0005335
1.0005365
1.0005397
1.0005435
1.000548
1.000553
1.0005585
1.0005646
1.0005713
1.0005787
1.0005865
1.000595
1.0006041
1.0006137
1.0006238
1.0006345
1.0006458
1.0006578
1.0006703
1.0006834
1.0006972
1.0007116
1.0007267
1.0007425
1.000759
1.0007761
1.000794
1.0008126
1.000832
1.0008521
1.0008731
1.0008948
1.0009174
1.0009409
1.0009652
1.0009904
1.0010165
1.0010435
1.0010714
1.0011004
1.0011302
1.0011611
1.0011929
1.0012258
1.0012596
1.0012944
1.0013303
1.0013671
1.0014049
1.0014437
1.0014834
1.001524
1.0015656
1.001608
1.0016512
1.0016951
1.0017398
1.0017851
1.001831
1.0018773
1.001924
1.001971
1.0020182
1.0020654
1.0021124
1.0021592
1.0022055
1.0022513
1.0022962
1.0023402
1.0023829
1.0024242
1.0024638
1.0025015
1.002537
1.0025701
1.0026004
1.0026276
1.0026515
1.0026716
1.0026878
1.0026995
1.0027063
1.002708
1.002704
1.0026936
1.0026762
1.0026514
1.0026185
1.0025767
1.0025254
1.0024635
1.0023906
1.002305
1.0022078
1.0020931
1.0019706
1.0018444
1.0005294
1.0005329
1.0005358
1.0005391
1.000543
1.0005475
1.0005525
1.000558
1.0005641
1.0005708
1.000578
1.0005857
1.0005939
1.0006027
1.0006119
1.0006217
1.000632
1.0006429
1.0006544
1.0006664
1.000679
1.0006922
1.000706
1.0007205
1.0007357
1.0007515
1.000768
1.0007852
1.0008032
1.0008219
1.0008414
1.0008616
1.0008827
1.0009046
1.0009273
1.0009509
1.0009753
1.0010007
1.001027
1.0010542
1.0010824
1.0011115
1.0011416
1.0011726
1.0012047
1.0012377
1.0012718
1.0013068
1.0013428
1.0013798
1.0014177
1.0014566
1.0014964
1.0015371
1.0015786
1.0016209
1.001664
1.0017078
1.0017522
1.0017972
1.0018427
1.0018885
1.0019346
1.0019808
1.0020271
1.0020732
1.0021191
1.0021645
1.0022094
1.0022534
1.0022964
1.0023383
1.0023787
1.0024174
1.0024542
1.0024889
1.0025211
1.0025505
1.002577
1.0026
1.0026194
1.0026348
1.0026458
1.0026521
1.0026532
1.0026487
1.0026379
1.0026202
1.0025953
1.0025625
1.002521
1.00247
1.0024089
1.0023369
1.0022525
1.0021568
1.0020438
1.0019236
1.0018
1.0005295
1.0005334
1.0005362
1.0005393
1.0005429
1.0005472
1.0005518
1.0005569
1.0005625
1.0005685
1.000575
1.000582
1.0005894
1.0005973
1.0006057
1.0006145
1.0006239
1.0006338
1.0006442
1.0006552
1.0006669
1.0006791
1.000692
1.0007055
1.0007196
1.0007345
1.00075
1.0007663
1.0007833
1.0008011
1.0008196
1.0008389
1.0008591
1.0008801
1.0009019
1.0009247
1.0009482
1.0009727
1.0009982
1.0010245
1.0010519
1.0010801
1.0011094
1.0011396
1.0011708
1.001203
1.0012362
1.0012704
1.0013055
1.0013417
1.0013788
1.0014168
1.0014558
1.0014956
1.0015363
1.0015778
1.0016201
1.001663
1.0017066
1.0017507
1.0017953
1.0018403
1.0018855
1.0019308
1.0019762
1.0020215
1.0020665
1.0021111
1.002155
1.0021982
1.0022403
1.0022813
1.0023208
1.0023587
1.0023946
1.0024284
1.0024597
1.0024883
1.0025138
1.002536
1.0025546
1.0025691
1.0025793
1.0025849
1.0025853
1.0025801
1.0025686
1.0025503
1.002525
1.0024919
1.0024503
1.0023995
1.0023388
1.0022675
1.0021841
1.0020898
1.0019781
1.00186
1.0017385
1.0005294
1.0005329
1.0005354
1.0005381
1.0005411
1.0005444
1.000548
1.0005518
1.000556
1.0005606
1.0005656
1.0005709
1.0005767
1.0005831
1.0005899
1.0005972
1.0006051
1.0006135
1.0006226
1.0006322
1.0006425
1.0006535
1.0006651
1.0006775
1.0006905
1.0007043
1.0007188
1.0007341
1.0007501
1.0007669
1.0007845
1.000803
1.0008222
1.0008424
1.0008634
1.0008853
1.0009081
1.0009318
1.0009564
1.000982
1.0010085
1.001036
1.0010645
1.0010939
1.0011244
1.0011558
1.0011883
1.0012217
1.0012561
1.0012915
1.0013278
1.0013651
1.0014033
1.0014424
1.0014823
1.001523
1.0015644
1.0016066
1.0016493
1.0016926
1.0017364
1.0017805
1.0018249
1.0018694
1.0019139
1.0019582
1.0020023
1.0020459
1.0020889
1.0021311
1.0021723
1.0022122
1.0022507
1.0022875
1.0023224
1.0023551
1.0023853
1.0024128
1.0024372
1.0024583
1.0024757
1.0024891
1.0024981
1.0025024
1.0025017
1.0024953
1.0024826
1.0024632
1.0024369
1.002403
1.0023609
1.0023098
1.002249
1.0021779
1.002095
1.0020015
1.0018906
1.0017741
1.0016549
1.0005292
1.0005323
1.0005335
1.0005343
1.000535
1.0005358
1.0005367
1.0005378
1.0005393
1.0005413
1.0005439
1.000547
1.0005507
1.000555
1.00056
1.0005656
1.000572
1.000579
1.0005868
1.0005953
1.0006045
1.0006144
1.000625
1.0006365
1.0006487
1.0006617
1.0006754
1.0006899
1.0007052
1.0007214
1.0007383
1.0007561
1.0007747
1.0007942
1.0008146
1.0008359
1.000858
1.0008811
1.0009051
1.0009301
1.000956
1.0009828
1.0010107
1.0010395
1.0010692
1.0011
1.0011318
1.0011645
1.0011982
1.0012328
1.0012684
1.0013049
1.0013423
1.0013805
1.0014196
1.0014595
1.0015001
1.0015413
1.0015831
1.0016254
1.0016682
1.0017114
1.0017547
1.0017982
1.0018415
1.0018848
1.0019277
1.0019701
1.0020119
1.0020528
1.0020927
1.0021313
1.0021685
1.0022039
1.0022374
1.0022687
1.0022974
1.0023233
1.0023462
1.0023657
1.0023815
1.0023932
1.0024005
1.0024032
1.0024007
1.0023919
1.0023769
1.0023561
1.0023285
1.0022934
1.0022502
1.0021982
1.0021366
1.0020648
1.0019814
1.0018878
1.0017765
1.0016604
1.0015404
1.0005278
1.000528
1.0005253
1.0005216
1.0005176
1.0005139
1.0005107
1.0005082
1.0005067
1.000506
1.0005063
1.0005075
1.0005096
1.0005126
1.0005164
1.0005211
1.0005266
1.000533
1.0005401
1.0005481
1.0005568
1.0005664
1.0005766
1.0005877
1.0005996
1.0006122
1.0006256
1.0006398
1.0006548
1.0006705
1.0006871
1.0007045
1.0007227
1.0007418
1.0007617
1.0007825
1.0008041
1.0008266
1.0008501
1.0008744
1.0008997
1.0009259
1.000953
1.0009811
1.0010101
1.0010401
1.001071
1.0011029
1.0011357
1.0011694
1.001204
1.0012395
1.0012759
1.0013131
1.0013511
1.0013898
1.0014292
1.0014692
1.0015098
1.0015508
1.0015923
1.0016341
1.001676
1.001718
1.0017599
1.0018017
1.001843
1.0018838
1.0019239
1.0019632
1.0020014
1.0020383
1.0020737
1.0021074
1.002139
1.0021684
1.0021952
1.0022193
1.0022402
1.0022577
1.0022715
1.0022812
1.0022865
1.002287
1.0022823
1.0022718
1.0022549
1.0022315
1.0022015
1.0021643
1.0021191
1.0020654
1.0020023
1.0019294
1.0018448
1.0017505
1.0016381
1.0015219
1.0013985
1.0005219
1.0005139
1.0005027
1.0004916
1.0004815
1.0004732
1.0004666
1.0004617
1.0004585
1.0004568
1.0004564
1.0004572
1.0004592
1.0004623
1.0004663
1.0004712
1.000477
1.0004836
1.000491
1.0004991
1.0005081
1.0005177
1.0005281
1.0005392
1.0005511
1.0005637
1.000577
1.000591
1.0006057
1.0006212
1.0006374
1.0006544
1.0006722
1.0006907
1.0007101
1.0007302
1.0007512
1.000773
1.0007957
1.0008192
1.0008436
1.0008688
1.000895
1.0009221
1.00095
1.0009789
1.0010087
1.0010393
1.0010709
1.0011033
1.0011366
1.0011707
1.0012056
1.0012413
1.0012778
1.0013149
1.0013527
1.001391
1.00143
1.0014693
1.001509
1.0015489
1.001589
1.0016292
1.0016691
1.001709
1.0017483
1.0017872
1.0018253
1.0018626
1.0018988
1.0019337
1.0019671
1.0019987
1.0020283
1.0020558
1.0020806
1.0021027
1.0021217
1.0021372
1.0021491
1.0021568
1.0021602
1.0021587
1.002152
1.0021392
1.0021203
1.0020955
1.0020642
1.0020256
1.0019792
1.0019242
1.0018599
1.0017857
1.0017002
1.0016047
1.001491
1.001374
1.0012457
1.0005009
1.000478
1.0004566
1.0004394
1.0004262
1.0004169
1.0004104
1.0004063
1.0004043
1.000404
1.0004051
1.0004074
1.0004107
1.000415
1.0004201
1.000426
1.0004326
1.0004399
1.0004479
1.0004565
1.0004657
1.0004756
1.0004861
1.0004973
1.0005091
1.0005214
1.0005345
1.0005481
1.0005624
1.0005773
1.000593
1.0006093
1.0006263
1.000644
1.0006624
1.0006816
1.0007015
1.0007223
1.0007438
1.0007661
1.0007892
1.0008131
1.0008379
1.0008635
1.00089
1.0009173
1.0009455
1.0009745
1.0010043
1.001035
1.0010664
1.0010987
1.0011318
1.0011655
1.0012
1.0012351
1.0012709
1.0013072
1.001344
1.0013812
1.0014187
1.0014565
1.0014945
1.0015324
1.0015703
1.0016079
1.0016452
1.001682
1.001718
1.0017533
1.0017874
1.0018204
1.0018518
1.0018816
1.0019094
1.0019351
1.0019584
1.0019789
1.0019964
1.0020106
1.0020211
1.0020276
1.0020298
1.0020271
1.0020194
1.0020062
1.0019867
1.0019609
1.0019289
1.0018899
1.0018433
1.0017881
1.0017237
1.0016497
1.0015642
1.0014691
1.0013556
1.0012389
1.0011079
1.0004464
1.000413
1.0003891
1.0003739
1.0003645
1.0003594
1.0003571
1.0003568
1.0003581
1.0003606
1.0003641
1.0003684
1.0003735
1.0003791
1.0003853
1.000392
1.0003993
1.0004071
1.0004153
1.0004241
1.0004333
1.0004431
1.0004534
1.0004641
1.0004754
1.0004873
1.0004996
1.0005125
1.000526
1.00054
1.0005546
1.0005698
1.0005857
1.0006022
1.0006194
1.0006371
1.0006557
1.0006749
1.0006948
1.0007155
1.000737
1.0007592
1.0007822
1.000806
1.0008305
1.0008558
1.0008818
1.0009088
1.0009365
1.0009651
1.0009943
1.0010245
1.0010552
1.0010867
1.0011188
1.0011516
1.001185
1.0012191
1.0012535
1.0012884
1.0013236
1.0013592
1.0013949
1.0014306
1.0014664
1.0015019
1.0015373
1.0015721
1.0016064
1.0016398
1.0016724
1.0017037
1.0017339
1.0017623
1.0017891
1.0018136
1.0018361
1.0018559
1.0018729
1.0018867
1.0018969
1.0019032
1.0019054
1.001903
1.0018958
1.0018824
1.0018636
1.0018402
1.0018099
1.0017724
1.0017272
1.0016738
1.0016112
1.0015392
1.0014558
1.0013629
1.001252
1.0011373
1.0010073
1.0003532
1.0003294
1.0003191
1.0003158
1.0003159
1.0003179
1.000321
1.0003247
1.0003291
1.000334
1.0003392
1.0003448
1.0003507
1.000357
1.0003636
1.0003706
1.0003779
1.0003856
1.0003936
1.000402
1.0004109
1.0004201
1.0004297
1.0004397
1.0004502
1.0004612
1.0004726
1.0004844
1.0004968
1.0005096
1.000523
1.0005369
1.0005513
1.0005663
1.0005819
1.0005981
1.000615
1.0006324
1.0006506
1.0006693
1.0006889
1.000709
1.00073
1.0007516
1.0007739
1.000797
1.0008209
1.0008455
1.0008708
1.0008969
1.0009238
1.0009514
1.0009796
1.0010087
1.0010383
1.0010687
1.0010996
1.0011312
1.0011632
1.0011957
1.0012286
1.0012619
1.0012954
1.0013291
1.001363
1.0013967
1.0014304
1.0014636
1.0014966
1.0015288
1.0015603
1.0015907
1.0016202
1.0016481
1.0016746
1.0016992
1.0017218
1.0017419
1.0017595
1.0017742
1.0017856
1.0017935
1.0017973
1.0017967
1.0017916
1.0017806
1.0017652
1.0017457
1.0017191
1.0016853
1.0016439
1.0015946
1.0015365
1.0014693
1.0013914
1.0013043
1.0012002
1.0010912
1.0009728
1.0002474
1.0002653
1.0002775
1.0002868
1.0002942
1.0003007
1.0003065
1.0003121
1.0003176
1.0003232
1.0003289
1.0003347
1.0003407
1.000347
1.0003534
1.0003601
1.0003671
1.0003744
1.000382
1.0003899
1.0003981
1.0004067
1.0004156
1.0004249
1.0004346
1.0004447
1.0004552
1.0004661
1.0004774
1.0004892
1.0005014
1.0005141
1.0005273
1.000541
1.0005552
1.00057
1.0005853
1.0006012
1.0006177
1.0006347
1.0006524
1.0006707
1.0006896
1.0007092
1.0007295
1.0007505
1.0007722
1.0007945
1.0008176
1.0008413
1.0008658
1.0008907
1.0009165
1.000943
1.0009702
1.0009979
1.0010263
1.0010552
1.0010847
1.0011147
1.0011451
1.0011759
1.0012071
1.0012386
1.0012704
1.0013022
1.0013341
1.0013658
1.0013974
1.0014285
1.0014592
1.0014891
1.0015183
1.0015463
1.0015732
1.0015985
1.0016222
1.001644
1.0016635
1.0016806
1.001695
1.0017061
1.0017138
1.0017176
1.0017171
1.0017119
1.0017047
1.0016914
1.0016691
1.0016411
1.0016066
1.0015651
1.0015158
1.0014585
1.0013914
1.0013165
1.0012265
1.0011298
1.0010394
1.0008834
1.0007833
1.000789
1.0008679
1.0009888
1.0011335
1.0012725
1.0013892
1.0014769
1.0015415
1.0015881
1.0016216
1.0016466
1.0016677
1.0016891
1.0017137
1.0017479
1.0017945
1.001899
1.0006585
1.0005258
1.000502
1.0005562
1.0006593
1.0007933
1.0009319
1.0010517
1.0011462
1.0012165
1.0012658
1.0013
1.0013238
1.0013414
1.0013568
1.0013725
1.0013948
1.001426
1.0015004
1.0003972
1.0002269
1.0001699
1.0001973
1.0002813
1.0004029
1.0005399
1.0006607
1.0007605
1.0008375
1.0008905
1.0009258
1.0009487
1.0009631
1.0009733
1.000981
1.000992
1.0010101
1.0010527
1.0001016
0.99988464
0.99978844
0.99978593
0.99984875
0.99995604
1.0000898
1.0002098
1.0003114
1.0003975
1.0004555
1.0004926
1.000515
1.0005267
1.000532
1.0005321
1.0005319
1.0005374
1.0005496
0.9997694
0.99949585
0.99935307
0.99931619
0.99935491
0.99944574
0.99957091
0.99969747
0.999797
0.99988425
0.99995232
0.99999295
1.0000155
1.000025
1.0000256
1.0000187
1.0000073
1.0000004
0.99998391
0.99940191
0.99906451
0.9988667
0.99878929
0.99879992
0.99887203
0.99898623
0.99911437
0.99921713
0.99930512
0.99938028
0.99942616
0.99944991
0.99945792
0.99945435
0.99944113
0.9994193
0.99940041
0.99935745
0.99900583
0.99859971
0.99833623
0.99821148
0.99818918
0.99823961
0.9983406
0.99846736
0.99857363
0.99866215
0.99874371
0.99879627
0.99882244
0.99882984
0.99882299
0.99880433
0.99877322
0.99874326
0.99867639
0.99858429
0.99811185
0.99777267
0.99759351
0.99753314
0.99755864
0.99764404
0.99776465
0.99787942
0.99796687
0.99804849
0.99811179
0.99814277
0.99815085
0.99814178
0.99811877
0.99807982
0.99804009
0.99795233
0.99814957
0.9976206
0.99719729
0.99695607
0.99685165
0.99684796
0.99691532
0.99702751
0.99714706
0.99723886
0.99732003
0.99739084
0.99742849
0.99743871
0.99742863
0.99740251
0.99735741
0.99730952
0.99720427
0.99770411
0.9971449
0.99663746
0.99632381
0.99617
0.99613338
0.99618034
0.99628218
0.99640304
0.99650242
0.99658457
0.99665937
0.99670522
0.99671924
0.99670954
0.99668171
0.99663233
0.9965783
0.9964593
0.99726596
0.99670285
0.99612445
0.9957327
0.99552282
0.99544915
0.9954734
0.99556324
0.99568308
0.99579023
0.99587524
0.99595243
0.9960066
0.99602597
0.99601804
0.99598994
0.99593828
0.99588049
0.99575175
0.99685858
0.99631597
0.99568397
0.99521383
0.99494472
0.99483128
0.994831
0.99490793
0.9950253
0.99513941
0.99522961
0.99530917
0.99537039
0.99539628
0.99539154
0.99536479
0.99531302
0.99525438
0.99512015
0.9964965
0.99598951
0.99534375
0.99481083
0.9944746
0.99431814
0.99429219
0.99435602
0.99447041
0.99459035
0.99468724
0.99476986
0.99483652
0.99486899
0.99486815
0.99484415
0.99479425
0.99473841
0.99460304
0.99619587
0.99575362
0.99510647
0.99452085
0.9941291
0.99392914
0.99387738
0.99392848
0.99404001
0.99416509
0.99426936
0.99435683
0.99442983
0.99447038
0.99447539
0.99445595
0.99441053
0.99436153
0.99422933
0.99599574
0.99562855
0.99500557
0.99438341
0.99394146
0.99370132
0.99362582
0.99366594
0.99377506
0.99390446
0.99401602
0.99410628
0.99417494
0.9942141
0.99422019
0.99420757
0.99417122
0.994129
0.99400486
0.99586187
0.99557048
0.99499808
0.99435461
0.99386928
0.99359643
0.99350078
0.99353213
0.99364047
0.99377448
0.99389293
0.99398513
0.99405253
0.99409194
0.99410486
0.99409968
0.99407509
0.99403893
0.99393009
0.99578042
0.99556044
0.99505115
0.99440576
0.99388603
0.99358594
0.99347464
0.99349976
0.99360756
0.99374388
0.99386557
0.99396041
0.99403549
0.99408421
0.9941101
0.99411356
0.99410061
0.99407034
0.99398398
0.99576338
0.99560834
0.99516921
0.99453899
0.99399286
0.993672
0.99355
0.99357124
0.99367814
0.99381411
0.99393584
0.99403266
0.99411071
0.9941651
0.99419726
0.99420986
0.99420747
0.99418496
0.99412577
0.99577793
0.99567301
0.99529562
0.99468838
0.99412611
0.99379127
0.99366476
0.99368594
0.99379312
0.99392832
0.99404995
0.99414895
0.99422917
0.9942873
0.99432441
0.99434511
0.99435136
0.99433873
0.99430631
0.9958029
0.99573428
0.99540762
0.99482476
0.99425558
0.99391496
0.9937902
0.99381481
0.99392368
0.994058
0.9941792
0.99427901
0.99435922
0.99441818
0.99445792
0.99448365
0.99449557
0.99449219
0.9944795
0.99583013
0.9957851
0.99549301
0.99493084
0.99436121
0.99402206
0.99390495
0.9939364
0.99404809
0.99418152
0.99430116
0.9943993
0.9944767
0.99453352
0.99457298
0.99459979
0.99461361
0.99461541
0.99461285
0.99584611
0.99581445
0.9955433
0.99499437
0.99443113
0.99410101
0.99399621
0.99403701
0.99415239
0.9942844
0.99440061
0.99449417
0.99456604
0.99461806
0.99465433
0.99467889
0.99469259
0.99470063
0.9947197
0.99584711
0.99582091
0.99555877
0.99501628
0.99446156
0.99414666
0.99405857
0.99411068
0.99422966
0.99435889
0.99446921
0.99455556
0.99461995
0.99466582
0.9946982
0.99472233
0.99474541
0.99478829
0.99490008
0.9958309
0.99580328
0.99553851
0.99499698
0.99445598
0.99416171
0.99409254
0.99415652
0.99427823
0.99440265
0.99450488
0.99458232
0.99463866
0.99467953
0.99471346
0.9947542
0.99482857
0.99498344
0.99524049
0.99579616
0.99576304
0.99548795
0.99494135
0.99441665
0.99414655
0.99409769
0.99417254
0.99429398
0.99441017
0.99450164
0.9945695
0.99462095
0.99466783
0.99472944
0.99483614
0.995021
0.99528243
0.99568876
0.99574594
0.99570339
0.9954106
0.99485814
0.994353
0.99410942
0.99408098
0.99416521
0.99428477
0.99439256
0.99447603
0.99454163
0.99460331
0.99468221
0.9948109
0.99502465
0.99531365
0.99567111
0.99623412
0.99568818
0.9956353
0.99531941
0.99475572
0.99426978
0.99405301
0.99404284
0.99413178
0.99424222
0.99433391
0.99440733
0.99447834
0.99456337
0.99470192
0.99493249
0.99525148
0.99565616
0.99617784
0.99690694
0.99562241
0.9955573
0.99521953
0.99465194
0.99419054
0.99399907
0.99400153
0.99408608
0.99418455
0.99427245
0.99436452
0.99448303
0.99465343
0.99490825
0.99525566
0.99569298
0.9962325
0.99685671
0.99757781
0.99559464
0.99551701
0.99512685
0.99452418
0.9940826
0.993925
0.99395594
0.99405384
0.99415939
0.99426651
0.99440412
0.99459174
0.99484759
0.99517083
0.99557761
0.99607849
0.99665516
0.99727495
0.99797519
0.99556223
0.99548101
0.99509576
0.994488
0.99403833
0.99386978
0.99389836
0.99399852
0.9941083
0.99422098
0.99436674
0.99456821
0.99484121
0.99517341
0.99559025
0.99611358
0.99671639
0.9973691
0.99814265
0.99553002
0.99544814
0.99506553
0.99445182
0.99399008
0.99380933
0.99383333
0.99393316
0.99404374
0.99415726
0.99430572
0.99451353
0.99478615
0.99511239
0.99552747
0.99605592
0.9966674
0.9973332
0.99817763
0.99548699
0.99540442
0.99502478
0.99440563
0.99393145
0.99373976
0.99375915
0.99385847
0.99396912
0.99408247
0.9942324
0.99444451
0.99471277
0.99503422
0.99545015
0.99598204
0.99660158
0.99728296
0.99818871
0.99543573
0.99535326
0.99497587
0.99435084
0.99386429
0.9936626
0.99367782
0.99377717
0.99388849
0.99400248
0.99415472
0.99437069
0.99463414
0.99495335
0.99537459
0.99591589
0.99655077
0.99725634
0.99821925
0.99537649
0.99529548
0.99491955
0.99428809
0.99378908
0.99357778
0.99358886
0.99368836
0.99380052
0.99391556
0.99407054
0.99428921
0.99454813
0.99486664
0.99529491
0.99584866
0.99650317
0.99724022
0.9982564
0.99530901
0.99522992
0.99485535
0.99421707
0.9937058
0.99348508
0.99349201
0.99359163
0.99370462
0.99382094
0.99397895
0.99419907
0.99445449
0.99477381
0.99520982
0.9957774
0.99645373
0.99722489
0.99829096
0.99523267
0.99515466
0.99478249
0.99413818
0.9936148
0.99338475
0.99338742
0.99348712
0.99360093
0.99371881
0.99388008
0.9941007
0.99435408
0.99467569
0.99512007
0.99570225
0.99640235
0.99720912
0.99832024
0.99514684
0.99506795
0.99470011
0.99405212
0.99351611
0.99327709
0.99327528
0.993375
0.99348955
0.9936092
0.99377386
0.99399437
0.9942472
0.99457246
0.99502574
0.99562274
0.99634825
0.99719197
0.99834385
0.99505091
0.99496905
0.99460795
0.99395919
0.99341002
0.99316244
0.99315583
0.99325547
0.99337053
0.9934921
0.99366006
0.99388018
0.99413388
0.99446392
0.99492662
0.99553826
0.99629039
0.99717188
0.99836248
0.99494239
0.9948622
0.99450772
0.99385907
0.99329683
0.99304068
0.9930292
0.9931286
0.99324398
0.99336743
0.99353854
0.99375823
0.99401406
0.99434988
0.9948225
0.99544856
0.99622786
0.99714768
0.99837731
0.99482092
0.99475738
0.9944031
0.99374878
0.993175
0.99290972
0.99289417
0.99299293
0.99310926
0.99323468
0.99340895
0.99362848
0.99388764
0.99423017
0.99471319
0.99535347
0.99615995
0.99711918
0.99838988
0.9946954
0.99465649
0.99429768
0.99362862
0.99304444
0.9927683
0.99274996
0.99284682
0.99296546
0.99309328
0.99327097
0.99349097
0.99375457
0.99410479
0.99459875
0.99525323
0.99608707
0.9970871
0.9984008
0.99458514
0.99454765
0.99418624
0.99350173
0.99290718
0.99261869
0.99259844
0.99269204
0.99281332
0.99294382
0.99312497
0.99334613
0.99361514
0.99397405
0.99447952
0.99514867
0.99601025
0.99705411
0.9984075
0.99448648
0.99442163
0.99405756
0.99336961
0.99276211
0.99246327
0.99243954
0.9925313
0.99265439
0.99278754
0.99297177
0.99319475
0.9934699
0.9938385
0.99435613
0.99504154
0.99593014
0.99702156
0.998405
0.99438036
0.99428243
0.99391367
0.99323123
0.99260898
0.99230208
0.99227318
0.99236487
0.99248923
0.99262515
0.99281202
0.99303749
0.99331945
0.9936987
0.99422931
0.99493342
0.99584924
0.99698751
0.99839239
0.99426315
0.99413642
0.99376211
0.99308478
0.99244916
0.99213434
0.99210055
0.99219228
0.99231777
0.99245686
0.9926462
0.99287491
0.99316437
0.99355512
0.99409979
0.99482449
0.99576989
0.99695218
0.99837434
0.99413758
0.99398631
0.99360518
0.99293009
0.99228231
0.99195986
0.99192152
0.99201344
0.99214018
0.99228289
0.99247471
0.99270756
0.99300525
0.99340829
0.99396836
0.99471512
0.99569277
0.9969199
0.99835426
0.99400569
0.99383318
0.99344331
0.99276815
0.9921091
0.99177901
0.99173644
0.99182863
0.99195677
0.99210361
0.99229817
0.99253594
0.99284271
0.99325875
0.99383575
0.99460627
0.99561934
0.99689353
0.99833082
0.9938692
0.99367791
0.99327715
0.99259979
0.99193006
0.99159233
0.99154586
0.99163835
0.99176812
0.99191946
0.99211714
0.99236064
0.99267729
0.99310702
0.99370228
0.99449848
0.99555016
0.99687019
0.9982991
0.99372987
0.99352108
0.99310728
0.99242592
0.99174587
0.99140048
0.99135044
0.99144326
0.9915749
0.9917311
0.99193235
0.99218223
0.99250958
0.99295375
0.9935682
0.99439221
0.99548476
0.99684463
0.99825486
0.99358927
0.99336382
0.99293476
0.99224753
0.99155727
0.99120428
0.991151
0.9912442
0.99137797
0.99153932
0.9917446
0.99200145
0.99234027
0.99279976
0.99343415
0.99428834
0.99542328
0.99681374
0.99819839
0.9934479
0.99320738
0.99276083
0.99206589
0.99136524
0.99100473
0.9909485
0.99104217
0.99117834
0.99134494
0.99155477
0.9918192
0.9921703
0.99264621
0.99330144
0.99418838
0.99536616
0.99677735
0.99813363
0.99330667
0.99305199
0.99258654
0.99188225
0.99117082
0.99080291