/*--------------------------------*- C++ -*----------------------------------*\
| =========                 |                                                 |
| \\      /  F ield         | OpenFOAM: The Open Source CFD Toolbox           |
|  \\    /   O peration     | Version:  2406                                  |
|   \\  /    A nd           | Website:  www.openfoam.com                      |
|    \\/     M anipulation  |                                                 |
\*---------------------------------------------------------------------------*/
FoamFile
{
    version     2.0;
    format      ascii;
    arch        "LSB;label=32;scalar=64";
    class       volScalarField;
    location    "145";
    object      p_0;
}
// * * * * * * * * * * * * * * * * * * * * * * * * * * * * * * * * * * * * * //

dimensions      [1 -1 -2 0 0 0 0];

internalField   nonuniform List<scalar> 
20580
(
1.0025711
1.0016079
1.0023584
1.0026835
1.0064994
1.0036284
1.0041855
1.0052321
1.0035538
1.0049482
1.003892
1.0039888
1.0039057
1.0052863
1.0043247
1.0035248
1.0063564
1.0038862
1.001711
1.0088264
1.0054122
1.0011399
1.0049805
1.0093983
0.99989682
0.99564478
1.0060751
1.0046587
1.0010928
1.0138095
1.0114195
1.002787
1.0011087
1.0022682
1.0021026
1.0069527
1.0034474
1.004531
1.0052081
1.0033977
1.0049684
1.0038619
1.0038848
1.0041544
1.0054021
1.0036195
1.0042212
1.0069557
1.0013939
1.0034017
1.0099338
1.0023558
1.0009565
1.0057889
1.0071871
0.99609208
0.99308466
1.0101235
1.0126188
0.99889876
1.0020701
1.0141464
1.0033289
1.0020211
1.0029786
1.0023523
1.0059476
1.0038442
1.0048569
1.0046736
1.0037542
1.0045355
1.004174
1.0034773
1.0046384
1.0052838
1.003176
1.0047543
1.0072847
1.0000213
1.0050432
1.0098944
0.99996374
1.0013731
1.0069558
1.0062924
0.99657021
0.99351286
1.0113797
1.0180848
0.9987604
0.99042957
1.0088039
1.0039663
1.003972
1.0040978
1.0033254
1.00403
1.0045105
1.0051931
1.0038759
1.0045347
1.0039786
1.0046176
1.0032829
1.0048219
1.004626
1.0030344
1.004835
1.0069118
0.99999448
1.006473
1.0085349
0.99880842
1.0034382
1.0074577
1.0053666
1.0010529
0.99742075
1.0100891
1.018577
1.0004969
0.98309189
0.99730947
1.0045023
1.0062972
1.0048525
1.00453
1.0022443
1.0051146
1.0052358
1.0033146
1.0052015
1.0038755
1.0046738
1.0033775
1.0046521
1.0038487
1.0031133
1.0045735
1.0057531
1.0010539
1.0076216
1.0061299
0.9986422
1.0067014
1.0073544
1.0031495
1.0064361
1.0039131
1.0068917
1.0136702
1.0041594
0.98398332
0.98634062
1.0047078
1.0079514
1.0047773
1.0055795
1.0014295
1.005341
1.0046453
1.0034638
1.0052141
1.0043107
1.0041657
1.0038796
1.0042892
1.0031033
1.0034611
1.0045023
1.0039704
1.0029357
1.0082949
1.0035186
0.99929723
1.0093698
1.0069797
0.9993781
1.0092926
1.0110168
1.0025355
1.0046667
1.0075767
0.99515977
0.98533029
1.0045391
1.0079806
1.0039619
1.0059432
1.0020337
1.0049761
1.0037805
1.0043871
1.0046591
1.004702
1.0035598
1.0043707
1.0038337
1.0027949
1.0041781
1.0047687
1.0023263
1.004979
1.0081859
1.0012019
1.0008704
1.0113354
1.0064973
0.99547233
1.0080403
1.0157667
0.99980808
0.99405952
1.0057476
1.0113195
0.99811824
1.0040622
1.0064414
1.0028303
1.0051013
1.0037899
1.0042536
1.0031867
1.0054229
1.004046
1.0047511
1.0032797
1.0047026
1.0037426
1.0028328
1.0046542
1.0049925
1.0011838
1.0063726
1.0074274
0.99978721
1.0027105
1.0116202
1.0059328
0.99371261
1.0044241
1.0163312
1.0006657
0.98650988
0.99891357
1.0204872
1.0178018
1.0034199
1.0042817
1.0020122
1.003469
1.0056285
1.003646
1.0033296
1.0058568
1.0039097
1.0044223
1.0033742
1.0049823
1.0037441
1.0029492
1.0049677
1.0050824
1.0010033
1.0071421
1.0059375
0.99995701
1.0047839
1.009406
1.0050386
0.99570726
1.001219
1.0126157
1.0040735
0.98657125
0.99241938
1.0165551
1.0285064
1.0028678
1.0022901
1.0021053
1.0020612
1.0065481
1.0033908
1.0042708
1.0053472
1.0043077
1.0039559
1.003779
1.0046472
1.0038793
1.0034301
1.0051197
1.0051603
1.001926
1.0073293
1.0039474
1.0008426
1.0075808
1.0059075
1.0035371
1.0012282
1.0006409
1.0062049
1.0066078
0.99539611
0.99243826
1.0049143
1.0221524
1.0027027
1.0012127
1.0031606
1.0015334
1.0062045
1.0035908
1.0054575
1.0041232
1.0047797
1.0037295
1.0043849
1.0039406
1.0039107
1.0045282
1.0046794
1.0046872
1.0032292
1.0068574
1.0018884
1.0022382
1.0099581
1.0023851
1.0008372
1.0077526
1.0040881
0.99981011
1.0052229
1.0077195
1.0003913
0.99696184
1.0034441
1.0029391
1.0017571
1.0045065
1.0020196
1.004807
1.004297
1.006186
1.0030897
1.0048762
1.0038015
1.0049064
1.0034861
1.0037119
1.0054291
1.0037476
1.0035312
1.0045885
1.0061622
1.000401
1.003887
1.0115511
0.99980625
0.99771057
1.0122265
1.0097956
0.99575559
1.0002734
1.0152267
1.012864
0.99738364
0.98728991
1.0033658
1.003978
1.0052811
1.0035319
1.0031923
1.0050528
1.0059901
1.0030468
1.0045668
1.0041104
1.0050635
1.003574
1.0034226
1.0056442
1.0030196
1.0026748
1.0057682
1.0056802
1.0002336
1.0047188
1.0120111
0.99929387
0.99582708
1.0134628
1.0138672
0.99532623
0.99484652
1.0139014
1.0219557
1.0041715
0.98347917
1.0038772
1.0065193
1.0050121
1.0053843
1.0023322
1.0054513
1.0048072
1.0041147
1.0041405
1.0044665
1.0047523
1.0038259
1.0032463
1.0052727
1.003095
1.0022953
1.006289
1.0048
1.0013062
1.0050037
1.0102652
1.0005495
0.99626885
1.0113743
1.0141245
0.99796801
0.99247437
1.006117
1.0205717
1.0116442
0.99089504
1.0043957
1.0080919
1.0038397
1.0063217
1.0023711
1.0053706
1.0034349
1.0055946
1.0038603
1.0045569
1.0042633
1.0037426
1.0036787
1.0043019
1.003447
1.0022013
1.0060205
1.0031847
1.0031813
1.0059151
1.0066899
1.0023798
0.99977247
1.0076323
1.0099294
1.001465
0.994973
0.99969117
1.00853
1.0119174
1.0026746
1.0045952
1.0080101
1.0024936
1.0056976
1.0031539
1.0046798
1.0026781
1.0064034
1.0039285
1.0045304
1.0040039
1.0036632
1.004362
1.0031362
1.0039401
1.0027761
1.0053765
1.0018915
1.0051768
1.00681
1.0023814
1.0037461
1.0058652
1.0047619
1.0024925
1.0034418
1.0025583
0.99923747
0.99575596
1.0025834
1.0088583
1.0041572
1.006103
1.0017763
1.0042703
1.0044118
1.0038474
1.0029343
1.0059065
1.0042991
1.0045252
1.0039
1.0038863
1.0048581
1.0024099
1.004494
1.0040838
1.0049093
1.0010783
1.0067907
1.0074096
0.99871685
1.0037069
1.0117311
1.0042363
0.99502912
1.0023888
1.0119413
1.0041566
0.99121934
0.99059587
1.0066167
1.0034195
1.0032883
1.002313
1.0025172
1.0054339
1.0034845
1.0042918
1.004322
1.004657
1.0045156
1.0038077
1.0042108
1.0050181
1.0024022
1.0047388
1.0051755
1.0046
1.0005825
1.0074452
1.0080298
0.99700604
1.0025432
1.0148627
1.0056288
0.99136289
0.99951414
1.0167867
1.0124523
0.99412514
0.98594282
0.99947489
1.0026942
1.0010638
1.0035827
1.0014538
1.005541
1.0035785
1.0059345
1.002833
1.0048339
1.0044381
1.0036155
1.0045426
1.0047239
1.0029279
1.0044522
1.0053469
1.0044573
1.0012332
1.0068317
1.0078891
0.99792518
1.0015979
1.0142654
1.0074638
0.9925338
0.99758476
1.014927
1.0177678
1.0010219
0.98986114
0.99531978
1.0025291
1.0009154
1.0046642
1.0014591
1.0051284
1.0039797
1.0065192
1.0022794
1.004912
1.0041661
1.0035723
1.0046513
1.0042617
1.0035947
1.0038619
1.0050988
1.0043772
1.0030696
1.0055487
1.0063014
1.0009274
1.0022379
1.0098128
1.0076073
0.99722185
0.99978329
1.0091076
1.0138585
1.0070845
0.99879131
0.99754259
1.0029928
1.0028644
1.0047028
1.0027054
1.0044688
1.0044567
1.005772
1.0032676
1.0047399
1.0038874
1.0040258
1.0045362
1.0037425
1.00411
1.0035388
1.0047494
1.0038482
1.0049929
1.0044189
1.003495
1.0049622
1.0046173
1.0046144
1.004171
1.0035771
1.0050506
1.0046001
1.0026599
1.0062612
1.0078513
1.0047063
1.0038079
1.006119
1.0037561
1.0047854
1.0034809
1.0047481
1.0039637
1.0051584
1.0045305
1.0038283
1.004868
1.0041694
1.0032223
1.0045237
1.0034912
1.0038475
1.0026047
1.0065007
1.0038542
1.0005484
1.0080647
1.0078707
1.0008375
0.99912368
1.0074952
1.0114821
1.0034559
0.99259291
0.9987731
1.0113925
1.0121357
1.0045591
1.0085431
1.0025259
1.0060989
1.0026698
1.0048956
1.0024781
1.0067217
1.0036585
1.0043273
1.0053675
1.0037692
1.0027813
1.004879
1.0036594
1.0031359
1.0011158
1.0075572
1.0040798
0.99847771
1.0085521
1.0113117
0.99992696
0.99539107
1.0065384
1.0167927
1.0058947
0.98895246
0.99082913
1.0085286
1.0157866
1.0033025
0.9994226
0.99898028
1.0044017
1.0131301
1.0194723
1.018932
1.0090264
0.99223663
0.98014235
0.98097751
0.99410053
1.0102964
1.0176471
1.0109369
0.99654244
0.98911703
0.99739662
1.0146836
1.0252196
1.0190918
0.99771284
0.97422874
0.98464478
0.98998593
0.99771179
1.0052786
1.0106652
1.0113525
1.0073682
1.0026043
1.0017955
1.0063604
1.0129689
1.0155586
1.0087759
0.99324418
0.97763667
0.97316825
0.98426593
1.0069504
1.0278002
1.0316418
1.017029
0.99702226
0.9824972
1.0102305
1.0106529
1.0048031
0.99457186
0.98280649
0.97650807
0.97932352
0.99192906
1.0099796
1.0249694
1.0290294
1.0205945
1.0039378
0.98932309
0.98457365
0.99108569
1.0030593
1.0096615
1.0055416
0.99181488
0.9821603
0.98620179
1.0018241
1.0323079
1.0222455
1.0069967
0.99116344
0.98095943
0.9820491
0.9903185
1.0010922
1.0075246
1.0054284
0.99547513
0.98393778
0.98250584
0.99457017
1.0162278
1.0348696
1.0372066
1.020417
0.99026222
0.96336605
0.9563603
0.97093377
0.99950884
0.99786477
0.99344819
0.9941596
1.0013504
1.013722
1.0252141
1.0311239
1.0260721
1.0084586
0.98455712
0.96311523
0.95815504
0.96979783
0.99387985
1.0196932
1.0349676
1.0320874
1.0146909
0.99329185
0.98145126
0.98440411
0.99811209
1.010706
0.96523306
0.97269757
0.9879143
1.0063374
1.0217784
1.0311373
1.0284266
1.0172247
1.0034739
0.99225526
0.9888775
0.99387231
1.0014127
1.0064271
1.0028319
0.99004931
0.97467084
0.9683435
0.97846717
1.0025091
1.0316061
1.0504165
1.0439318
0.9973052
1.0037852
1.0047512
0.99961588
0.98962305
0.97782575
0.97050596
0.97196498
0.98346879
1.0053302
1.0299065
1.0480558
1.0501204
1.0341611
1.0026251
0.96689468
0.94279139
0.9416044
0.96130619
0.99449324
1.0290787
1.0503895
1.0464693
1.0517894
1.0393514
1.0174995
0.99202241
0.96949455
0.95239664
0.94716058
0.95480598
0.97528919
1.0011341
1.0254256
1.0408902
1.0391155
1.0247517
1.0059474
0.98936265
0.98168782
0.98302411
0.9906982
0.99885051
1.0013613
0.99437691
0.98112182
1.0238136
1.0172732
1.0102239
1.0009707
0.99258612
0.98987232
0.99569837
1.0041126
1.0065883
1.001262
0.98737377
0.97239355
0.96447411
0.9668459
0.98041403
1.0046398
1.032347
1.0534185
1.0571626
1.0392067
1.0007434
0.95874255
0.92867072
0.95676325
0.95988339
0.97195923
0.99579982
1.027011
1.0562155
1.0696397
1.0639755
1.0389465
1.0047199
0.97082523
0.94216144
0.92361851
0.92479319
0.9476631
0.98687132
1.0326025
1.0685729
1.0801707
1.0614575
1.022733
0.97875446
0.94471899
0.93198544
0.94314435
0.96572799
0.99467632
1.0256852
1.0519117
1.0642993
1.0585816
1.0414476
1.016365
0.98807089
0.96374311
0.95293327
0.95662108
0.96937166
0.98517188
0.99943589
1.0086735
1.0155223
1.0152752
1.0121409
1.0046164
0.99820042
0.97928887
0.99057724
1.0006577
1.0043447
0.99958575
0.98840079
0.97936376
0.97982568
0.98844775
1.0003405
1.0116424
1.0216268
1.0287559
1.0316883
1.0284122
1.012512
0.98738402
0.96106108
0.93833371
0.93527443
0.94848617
0.98021496
1.0227203
1.0711768
1.0573669
1.0294839
0.9957602
0.96325528
0.9380151
0.92238514
0.91837139
0.93047211
0.95800123
1.0006379
1.0507858
1.0907578
1.1043327
1.0862409
1.0438552
0.99332979
0.94669977
0.91328591
0.89719764
0.90618933
0.93973722
0.99361081
1.1103502
1.0828898
1.0396203
0.99400327
0.95450079
0.92663597
0.9125128
0.91005417
0.92077077
0.94708075
0.98672022
1.035135
1.0819824
1.1058399
1.097309
1.0612396
1.0122167
0.96495326
0.92978058
0.91110922
0.91257668
0.93462258
0.97326565
1.0665697
1.0511571
1.0310017
1.0071163
0.97974301
0.95625385
0.94288615
0.94166356
0.95219367
0.97025651
0.99254484
1.0124706
1.0275842
1.0405053
1.0443186
1.0381654
1.0223027
0.99894726
0.97323812
0.95671742
0.95479621
0.96418612
0.97834314
0.99170836
0.995122
1.003654
1.0104526
1.0112192
1.0058761
0.99936815
0.99837949
1.0020204
1.0057884
1.0019588
0.99112899
0.97869107
0.97174353
0.97676921
0.99042336
1.0073337
1.0176547
1.0194507
1.0158515
1.0115675
1.0080447
0.99984785
0.93305235
0.94684546
0.97176223
1.0012106
1.0274452
1.0472125
1.0588698
1.0604745
1.0521972
1.0335196
1.0061448
0.97411127
0.94453275
0.92670117
0.92816862
0.94783726
0.98093678
1.0187266
1.0501493
1.0663584
1.0653675
1.0473635
1.018225
0.90236175
0.91792615
0.94876998
0.98942405
1.0332
1.0732706
1.1014039
1.1070578
1.0878433
1.0504083
1.0063016
0.96077277
0.92395971
0.90287437
0.90082478
0.92064656
0.9604618
1.0151138
1.0666546
1.1021485
1.1074245
1.0791454
1.0311853
0.89264582
0.90707257
0.93825771
0.98295896
1.0353232
1.0874268
1.1258901
1.1327985
1.1046876
1.0552044
0.99988421
0.9488879
0.91177458
0.88923908
0.88615642
0.90788752
0.95152056
1.0135125
1.0792109
1.1261068
1.1306346
1.0939592
1.0365472
0.88670179
0.90152167
0.93408883
0.981345
1.0387054
1.0968564
1.1404253
1.1465513
1.1116669
1.0548225
0.99527859
0.94164803
0.90203911
0.88170922
0.8809487
0.9042252
0.95181025
1.0201451
1.091189
1.1410893
1.1428842
1.0956701
1.0278841
0.88331287
0.89982873
0.93463739
0.98418746
1.0429526
1.1016719
1.14372
1.1473348
1.1104529
1.0517875
0.990537
0.93595195
0.89708226
0.87735287
0.88005221
0.90897839
0.96259815
1.0348853
1.1073852
1.1527012
1.1429923
1.0843214
1.0098704
0.88946334
0.90818559
0.94363067
0.99173498
1.0464616
1.09834
1.1332215
1.1347516
1.1001017
1.0435843
0.98402371
0.93147484
0.89466075
0.87826758
0.8874125
0.92301901
0.98317358
1.0562323
1.1204174
1.1504689
1.1258625
1.0610523
0.98913672
0.91867209
0.93602344
0.96867407
1.0080174
1.0458504
1.0764194
1.0934958
1.0931058
1.0733772
1.0353327
0.98555087
0.93559416
0.90080461
0.8890784
0.90704505
0.95104467
1.0111361
1.0699789
1.1145756
1.1254697
1.0915436
1.0334447
0.96779412
0.99205097
0.99379945
1.0054689
1.0179165
1.0223225
1.0211473
1.0210866
1.0255699
1.0295122
1.0197003
0.99263507
0.95660845
0.93047192
0.92733067
0.95226988
0.99293017
1.032514
1.0614955
1.075455
1.0729874
1.0470083
1.0057494
0.9547897
1.1088378
1.0745201
1.038707
1.0037615
0.96981311
0.94567688
0.93725287
0.9477323
0.9719888
0.99426426
1.0046353
1.003146
1.0013452
1.0081462
1.0193958
1.0236388
1.0176174
1.0091872
1.006173
1.0072608
1.0017866
0.98745112
0.96229693
1.1761282
1.1169011
1.0371024
0.97233898
0.91870057
0.88824492
0.87634538
0.88505256
0.91813845
0.97275117
1.0361515
1.0905324
1.1154687
1.099695
1.0557293
1.0071818
0.9619819
0.93585303
0.92841598
0.94324498
0.97205043
0.99890949
1.018117
1.0706771
1.0646446
1.0241213
0.97225528
0.92258663
0.88536445
0.8704188
0.88459179
0.92700471
1.0004258
1.0883453
1.1579993
1.1740625
1.1181285
1.0347949
0.95455873
0.8977382
0.86711798
0.87583493
0.91443748
0.98742466
1.0698341
1.124967
0.91441704
0.95287501
0.99572472
1.0162105
1.0103452
0.99060174
0.97320107
0.97364801
0.9929005
1.0218763
1.0611781
1.095882
1.0989799
1.0564207
0.98843918
0.91794781
0.87228096
0.85972789
0.89040724
0.96148257
1.0614957
1.1501435
1.1670333
0.90265548
0.92625812
0.98508008
1.0498031
1.0992692
1.1088242
1.0792133
1.0314387
0.99290135
0.9609416
0.94798413
0.95873308
0.9804943
0.99633887
0.98758882
0.95798575
0.94015787
0.94849786
0.98330376
1.0269104
1.066153
1.0932188
1.075924
0.99422502
0.98118435
0.98691989
1.0148681
1.0448623
1.0662743
1.0610294
1.0194803
0.96364879
0.91549942
0.88910688
0.89895495
0.93237118
0.98986854
1.050911
1.0775422
1.0648194
1.0351985
1.0017708
0.97982039
0.96920241
0.96763909
0.98165092
1.0671007
1.0323166
0.97646474
0.93624975
0.9292749
0.95277058
0.98549418
1.0033675
0.99648279
0.96940844
0.93958305
0.94046973
0.96764159
1.0147246
1.0726464
1.106827
1.0809615
1.0182031
0.95068725
0.90494107
0.89692257
0.92117502
0.96935202
1.0138068
1.0149661
0.98791361
0.94639151
0.91943561
0.92169737
0.9572474
1.0088078
1.0480605
1.0650241
1.0382621
1.0019291
0.9822391
0.97776869
0.9912195
1.0168167
1.0213031
0.99535588
0.95206258
0.91954209
0.91932269
0.95582058
1.0086651
0.93367063
0.95972626
0.99459102
1.013196
1.0023451
0.97421542
0.96476252
0.98891005
1.026855
1.0547629
1.051705
1.0091314
0.9583086
0.92808589
0.92427218
0.9488454
0.98879389
1.0221531
1.0301451
1.0176993
1.0007568
0.98193767
0.97843774
0.95392229
0.95646383
0.98626348
1.0218127
1.0360617
1.0047662
0.96427757
0.94053737
0.94672774
0.97398605
1.0008024
1.0048822
0.97766767
0.94662927
0.93717208
0.95209814
0.99099434
1.0379555
1.0681448
1.058151
1.0293338
0.98781585
0.94849937
1.0157447
0.99485024
0.97297238
0.96747738
0.98841468
1.0013496
0.98350712
0.95676752
0.94334933
0.9491122
0.97635886
1.0114528
1.0317655
1.0224414
0.99563733
0.97628079
0.97433796
0.98486705
1.0026418
1.0141922
1.008015
0.99641208
0.99224256
1.0161174
1.0010783
0.97117424
0.94920264
0.95056197
0.98066761
1.0108177
1.0143958
0.9940306
0.96966062
0.96423632
0.98294334
1.0155972
1.0415351
1.0399136
1.0091869
0.96801511
0.94290395
0.93942167
0.95560194
0.97750112
0.99300281
1.0044574
0.98462268
0.99692855
0.99103734
0.9738274
0.96465677
0.97074232
0.99456331
1.0212357
1.0300033
1.0137587
0.98458147
0.96486348
0.96580058
0.98289132
1.0031024
1.008637
0.99574938
0.97543055
0.96473047
0.96897351
0.98102383
0.98917325
0.99137255
0.96629769
0.98349749
1.0082068
1.0141918
1.0012473
0.98536723
0.97861725
0.98426998
0.99938637
1.0089521
1.0032302
0.98430326
0.96524845
0.95838403
0.96446791
0.97838003
0.99024395
0.9967557
1.0035693
1.0124077
1.0200148
1.0172329
1.0041263
0.98308605
0.98576291
1.0023135
1.0207675
1.0232771
1.0064561
0.98245909
0.9660418
0.96285624
0.97535249
0.99177401
1.0025974
1.0013358
0.99364896
0.9879785
0.98559109
0.98709486
0.99152705
0.9970963
1.0047373
1.0100842
1.0086835
0.99623551
1.0061795
0.99650222
0.99048817
0.9935563
1.0017419
1.004826
0.99794176
0.98560822
0.97656764
0.9746936
0.98451493
0.99930733
1.0098439
1.0130932
1.0106476
1.0060414
0.99973415
0.99265649
0.98528888
0.98087075
0.97810308
0.97696108
0.9737694
1.01453
1.0055992
0.99029286
0.97964983
0.97707952
0.98378971
0.99532588
1.0043556
1.0073473
1.0059314
1.0026118
0.99924217
0.99499081
0.99114603
0.98858238
0.9890437
0.99153532
0.99230632
0.99057563
0.98543375
0.98190067
0.98025989
0.98097347
0.99454046
0.99961936
0.9984783
0.99260416
0.98865473
0.98830419
0.99176142
0.99988328
1.0076924
1.0113013
1.0092751
1.0023808
0.99202477
0.9813237
0.97449379
0.97408062
0.98032077
0.98944987
0.99654179
0.99973563
0.99947511
0.99909868
1.0002829
0.98687342
0.98956457
0.99708257
1.0054484
1.0099122
1.0089965
1.0047123
0.99854305
0.99264775
0.98923944
0.98879021
0.98969397
0.99113577
0.99196851
0.99262558
0.99498392
0.9986405
1.0026306
1.0041787
1.0023221
0.99769751
0.99367826
0.99177141
1.0029877
0.99870883
0.9958016
0.99666003
1.0006585
1.003881
1.0041328
1.0000625
0.9930806
0.9864868
0.98353413
0.98526051
0.99116191
0.99850136
1.0046406
1.0083872
1.009359
1.0070564
1.00159
0.99338211
0.98565016
0.98046912
0.97979534
1.0041508
1.0034789
0.99871006
0.99270184
0.9886885
0.98838986
0.99107398
0.99489998
0.99775306
0.99944227
1.0007062
1.0023514
1.0038471
1.0041182
1.0022629
0.99812956
0.99345771
0.98921726
0.98568576
0.98360015
0.9826839
0.98501939
0.99035324
0.99144627
0.99517464
0.99890331
1.0007831
0.99965842
0.99788501
0.99679667
0.99709222
0.9986878
1.0006132
1.0020012
1.0030894
1.0027985
1.0006826
0.99623072
0.99033588
0.98588795
0.98446886
0.98723089
0.99212832
0.99738773
1.00153
1.0048899
0.99585017
0.99553192
0.99780514
1.0010485
1.0028909
1.0031214
1.0022162
1.0007781
0.9988771
0.99660179
0.99408404
0.992043
0.99107822
0.99154371
0.99235639
0.99332591
0.99447508
0.9969075
1.0011842
1.0058363
1.0083031
1.0062942
1.000683
1.0028574
1.0017389
0.99995879
0.99779625
0.99561435
0.99393341
0.9933849
0.99449367
0.99669523
0.99869302
0.99940086
0.99857249
0.99750483
0.9976
0.99912548
1.0014484
1.0025961
1.0021921
1.0006156
0.9986482
0.99632114
0.99279542
0.98809856
0.99580781
0.99641279
0.99769548
0.99877939
0.99940543
0.99882186
0.99779413
0.99719364
0.99806745
1.0000588
1.001682
1.0017399
0.99996381
0.99758643
0.99653498
0.99690772
0.9975805
0.9969749
0.99438125
0.9914194
0.98962744
0.9904124
0.99236668
1.000018
0.99882638
0.99761124
0.99774532
0.99901198
1.0005931
1.0010244
1.0000811
0.99843493
0.99736843
0.99729179
0.99760573
0.99737124
0.9962731
0.99520606
0.99528593
0.99681835
0.99839996
0.99893141
0.9979853
0.99720516
0.99786516
1.0003746
0.99987476
0.99934924
0.99788791
0.99618427
0.99589388
0.99719254
0.99893125
0.99988598
0.99929617
0.99770945
0.99669475
0.99700538
0.99834374
0.99955737
0.99976594
0.99915699
0.9985785
0.99858103
0.99868527
0.99818096
0.99699408
0.99579622
0.99561807
0.99536372
0.99704445
0.99890661
0.99984849
0.99970756
0.99900128
0.99873285
0.99873879
0.99867576
0.99820519
0.9974243
0.9971163
0.99775071
0.99896409
0.9997052
0.99922368
0.99766714
0.99620991
0.99572418
0.99628006
0.99705608
0.99745497
0.99726303
0.9979121
0.99787886
0.99864196
0.99932553
0.99902811
0.99778669
0.99630543
0.99585508
0.99670254
0.99820432
0.99930216
0.99940139
0.99875988
0.99812334
0.99786154
0.99779023
0.99745261
0.99690064
0.99667725
0.99713529
0.99803242
0.99869223
0.99866564
0.99868604
0.99780381
0.99689911
0.99671537
0.99699174
0.99748013
0.99778604
0.99786607
0.99815257
0.99867514
0.99904048
0.99879189
0.99789457
0.99680954
0.99620702
0.99644259
0.99730642
0.99819842
0.99874668
0.99885366
0.99856951
0.99785301
0.99692727
0.99743163
0.99753049
0.99720309
0.99690311
0.99707178
0.99773821
0.99838015
0.99855915
0.99812179
0.99731241
0.99670631
0.99653837
0.99678468
0.99725354
0.99780418
0.99827447
0.99855811
0.99848678
0.99797948
0.9972377
0.99657052
0.99625424
0.99630563
0.99683297
0.99726943
0.99772279
0.9979329
0.99772991
0.9974622
0.99720593
0.99712371
0.99710889
0.99703282
0.99703109
0.99721043
0.99761072
0.99798898
0.99810683
0.99788764
0.99742926
0.99700199
0.99671673
0.99665511
0.99682263
0.99722637
0.99784324
0.99731052
0.99733484
0.99760486
0.99771647
0.99761553
0.99727641
0.99697062
0.99688015
0.99705744
0.9974032
0.99765606
0.99765715
0.99759849
0.99745985
0.99726619
0.99702854
0.99687071
0.99694242
0.99729377
0.99779321
0.998156
0.99813124
0.99785909
0.99768365
0.99757383
0.99746733
0.99734441
0.99723561
0.99718551
0.99720315
0.99735907
0.99755757
0.99765192
0.99759203
0.99728796
0.9969782
0.99681569
0.99701003
0.99737591
0.99768289
0.99777391
0.99769092
0.9975773
0.99746402
0.9973447
0.99723134
0.99758773
0.99749912
0.99750386
0.99758467
0.99761994
0.99758575
0.99746885
0.99736903
0.99728959
0.99730072
0.9973267
0.99736895
0.99736719
0.99734132
0.99734848
0.99744564
0.99754553
0.99752476
0.99735241
0.9971721
0.99713057
0.99730848
0.99765288
0.99815364
0.99776904
0.99744212
0.99734266
0.99738218
0.99750232
0.99763411
0.9977235
0.99766738
0.99751713
0.99732921
0.9973008
0.99739214
0.99749203
0.99748677
0.99737578
0.99726768
0.9972465
0.9973115
0.99742726
0.99753224
0.99756142
0.99759844
0.99790303
0.9977054
0.99758621
0.99760081
0.99765786
0.99770145
0.99777681
0.99783357
0.99779995
0.99759072
0.99729898
0.99717684
0.99731668
0.99757078
0.99769495
0.99759556
0.99739796
0.99728242
0.99730704
0.99743546
0.99754839
0.99753194
0.99738817
0.99779503
0.99766276
0.99781053
0.99803008
0.99805364
0.99786277
0.99764873
0.99762767
0.99764616
0.99753853
0.99741431
0.99743234
0.99762653
0.99780342
0.99777638
0.9975972
0.99740806
0.99728631
0.99724675
0.99731262
0.99745099
0.99752503
0.99741545
0.99791058
0.99776578
0.9979057
0.99806664
0.99798338
0.9977183
0.99753877
0.99756725
0.99767281
0.9977159
0.99769049
0.9976706
0.99769169
0.99768805
0.99762068
0.99753531
0.99745742
0.9974015
0.99735228
0.99734207
0.99740438
0.9974398
0.99735202
0.99780368
0.99777236
0.99788314
0.99796155
0.99791562
0.99775483
0.99761067
0.99753765
0.99758829
0.99773178
0.99784003
0.9978707
0.99776191
0.99757781
0.99746916
0.99739913
0.99738648
0.99746915
0.99754556
0.99750553
0.99732695
0.99718712
0.9971446
0.99788929
0.99780162
0.99774162
0.9977165
0.99772141
0.99768402
0.99763076
0.99766328
0.99770856
0.99770764
0.99770854
0.9977336
0.99771955
0.99764576
0.99748197
0.99727789
0.99725149
0.99740454
0.997611
0.99761549
0.99728125
0.99692664
0.99681439
0.99786628
0.99786506
0.99767081
0.99744849
0.99740825
0.99752815
0.99769853
0.99779426
0.99779315
0.99769515
0.99762229
0.99761712
0.99760674
0.99757254
0.99743406
0.99730884
0.99729736
0.99729503
0.99740158
0.99750624
0.99731555
0.99679543
0.99647042
0.99778096
0.99778101
0.9975173
0.99720172
0.99722198
0.99755797
0.9978869
0.99797273
0.99782838
0.99755279
0.9973243
0.9973113
0.99751232
0.99771974
0.99765565
0.99740632
0.99714214
0.99701011
0.99704604
0.99712086
0.99727159
0.99713846
0.99667224
0.99757569
0.99760112
0.99749781
0.99725389
0.99718414
0.99746576
0.99786531
0.99795069
0.99771856
0.99746562
0.99730497
0.99719715
0.99722515
0.99743056
0.99769488
0.99770106
0.99730404
0.99686466
0.99670481
0.99678506
0.9969187
0.99691699
0.99682004
0.99723122
0.99756992
0.99770707
0.99748469
0.99725937
0.99735629
0.99761746
0.99774817
0.99756621
0.99720814
0.99710927
0.99740551
0.99761641
0.99742105
0.99717248
0.99709402
0.99718724
0.99718577
0.99707856
0.99694722
0.99670414
0.99645746
0.99637527
0.99786402
0.99769222
0.99724703
0.99695795
0.99725458
0.99784501
0.99806151
0.9976467
0.99707785
0.99677989
0.99700774
0.99748326
0.99768239
0.99759215
0.99736987
0.99712141
0.99701275
0.99681879
0.99665535
0.9966456
0.99682782
0.99681151
0.99662864
0.9978312
0.99801422
0.99747173
0.99699113
0.99721676
0.99772516
0.99802402
0.99781169
0.9972942
0.99715766
0.99741509
0.99741472
0.99719521
0.99709677
0.99707179
0.99720343
0.99736349
0.9971843
0.99687787
0.99654447
0.99666101
0.99673444
0.99664568
0.99749005
0.99817654
0.99795158
0.99756767
0.99752959
0.99783075
0.99825684
0.99790387
0.99721654
0.9971525
0.99740919
0.99766518
0.99761598
0.99722105
0.9968664
0.99695251
0.99739145
0.99759421
0.99715365
0.99656547
0.996128
0.9964754
0.99716819
0.99813995
0.99825064
0.99783332
0.99774321
0.99804664
0.99863102
0.99849266
0.99767632
0.99725053
0.99711988
0.99770911
0.99834404
0.99787666
0.99724489
0.99689696
0.99727929
0.99787277
0.99757645
0.99709389
0.99666444
0.99637686
0.99680293
0.99709222
0.99830486
0.9985177
0.99864249
0.99855839
0.99845411
0.99849314
0.99824418
0.99819746
0.99788766
0.99733057
0.99787479
0.99848948
0.99851595
0.99823874
0.99722782
0.99690346
0.99711622
0.99747337
0.99806683
0.99768333
0.99699167
0.9967895
0.99703906
0.99907241
0.99907273
0.99876527
0.99824889
0.99862188
0.99939194
0.9991585
0.99849749
0.99766119
0.99765845
0.99875616
0.99902981
0.99873017
0.99817426
0.99746741
0.99755823
0.99811203
0.99831986
0.99777391
0.99736265
0.99737565
0.99758676
0.99733252
0.99934626
0.99940101
0.99914761
0.99895684
0.99957322
0.99958595
0.99892516
0.99874834
0.99854791
0.99866081
0.99919622
0.99914665
0.99903085
0.99846889
0.99769805
0.99825599
0.99820402
0.99844856
0.99875259
0.99815816
0.99804994
0.99735204
0.99737686
0.99972472
1.0000328
0.99927331
0.99924178
1.0002113
1.0004146
1.0000616
0.99949068
0.99801037
0.99811237
0.99969175
1.0001669
0.99988991
0.99854312
0.99778539
0.99867602
0.99923917
0.99968961
0.99872994
0.99795117
0.99773585
0.99799138
0.99830859
1.0002658
0.99974925
0.99972117
1.0006305
1.00139
1.0005572
0.99947689
0.99910252
0.99873217
0.99959504
1.0008607
1.0004429
0.99979343
0.99911317
0.99836361
0.9989346
0.99919019
0.99936335
0.99930169
0.99921985
0.9987557
0.99850134
0.99820708
1.0004409
1.0002277
1.0003007
1.0007289
1.0015775
1.0015477
1.0003284
0.99933146
0.99916546
0.99946744
1.0005984
1.0014463
1.0009035
0.9995196
0.99831863
0.99894494
0.99995926
1.0004295
0.99968926
0.99903015
0.99865206
0.99910415
0.99885803
1.0006447
1.0003619
1.0006684
1.0017381
1.002251
1.0012253
0.99980271
0.99906238
0.99982171
1.0009861
1.0014782
1.001887
1.0012561
0.99960077
0.99836363
0.99869777
0.99981594
1.0012877
1.0008096
0.99970975
0.99912139
0.99947689
0.99945318
1.0002787
1.0008173
1.0010778
1.0014056
1.0022625
1.0020539
1.0008544
0.99983848
0.99931777
1.0000253
1.001828
1.0025849
1.0011553
0.99948765
0.99912993
0.99980586
1.0008517
1.001376
1.0002274
0.99988582
0.99919619
0.99936916
0.99948589
1.0002738
1.0006518
1.0016171
1.0018757
1.0016724
1.0012085
1.000485
1.0001692
1.0002729
1.0006525
1.0017173
1.0023263
1.0014496
0.99984834
0.99882599
0.99944171
1.0009017
1.0020029
1.0009885
0.99940621
0.99895123
0.99984202
1.0005646
1.0001358
1.0003908
1.0011614
1.0017591
1.0017761
1.0011105
1.0003861
1.0000803
0.99994306
1.0004266
1.0016265
1.0023462
1.0010598
0.99929492
0.99896765
1.0001839
1.0010071
1.0015094
1.0010858
0.99992257
0.99902807
0.99911837
0.99997095
1.000624
1.0004421
1.0008118
1.0006324
1.0003411
1.0002948
1.0003093
1.0006146
1.0005697
1.0000132
1.0003376
1.0015581
1.0014401
0.99945941
0.9982175
1.0000228
1.0019645
1.0015651
0.99965815
0.99868724
0.99896002
0.99934488
1.0000788
1.0018178
0.99980915
0.99855708
0.99917594
1.0000194
0.99976616
0.99895257
0.99952655
1.0016345
1.0023077
1.0009178
0.99936291
0.99890663
0.99890715
0.99858429
0.99896605
1.0010402
1.0023857
1.0007854
0.99800356
0.99705667
0.99891437
1.0010748
0.99879049
1.0001387
0.99946121
0.99841652
0.998937
1.0003025
1.00047
0.99938256
0.99906142
0.99991275
1.0004291
0.99954549
0.99809463
0.99784055
0.99882547
1.0001355
1.0007349
1.0005488
0.99943298
0.99772259
0.99699512
0.99794955
0.99924747
0.99808596
0.99903533
1.0001793
0.99936768
0.99780516
0.99789361
0.99954566
1.0003392
0.99941144
0.99813624
0.99794023
0.99853241
0.99881385
0.99867949
0.99889713
0.9994476
0.99958516
0.99875764
0.99747956
0.99681161
0.99758121
0.99890082
0.99918968
0.99871464
0.99806577
0.99834719
0.99897272
0.99886819
0.99812654
0.99789576
0.99857086
0.99898961
0.99838986
0.99750336
0.99753317
0.99852746
0.99934911
0.99902862
0.99799308
0.99744851
0.99742841
0.99719842
0.99701145
0.99784391
0.99898966
0.99880778
0.99855149
0.99816565
0.99787443
0.99801796
0.99836356
0.99836519
0.99803399
0.99788268
0.99805981
0.99814742
0.99789218
0.99766044
0.99792973
0.99836566
0.99826424
0.99754721
0.99690684
0.99688907
0.99724738
0.99747619
0.99746664
0.99721855
0.99684302
0.99827292
0.99818189
0.99800373
0.9979268
0.99802773
0.9982191
0.99819177
0.99798542
0.99786459
0.99795582
0.99808592
0.99798506
0.997717
0.997455
0.99731935
0.99729204
0.99720218
0.99706444
0.99701543
0.99698186
0.99679213
0.99636179
0.99601475
0.99806739