/*--------------------------------*- C++ -*----------------------------------*\
| =========                 |                                                 |
| \\      /  F ield         | OpenFOAM: The Open Source CFD Toolbox           |
|  \\    /   O peration     | Version:  2406                                  |
|   \\  /    A nd           | Website:  www.openfoam.com                      |
|    \\/     M anipulation  |                                                 |
\*---------------------------------------------------------------------------*/
FoamFile
{
    version     2.0;
    format      ascii;
    arch        "LSB;label=32;scalar=64";
    class       volScalarField;
    location    "145";
    object      pMean;
}
// * * * * * * * * * * * * * * * * * * * * * * * * * * * * * * * * * * * * * //

dimensions      [1 -1 -2 0 0 0 0];

internalField   nonuniform List<scalar> 
20580
(
1.0039095
1.0049858
1.0039879
1.0041292
1.0042483
1.0042766
1.0042994
1.0043358
1.0043754
1.0044168
1.0044548
1.00449
1.0045207
1.0045489
1.0045718
1.0045861
1.0045909
1.0045944
1.0045822
1.0045576
1.0045196
1.0044633
1.004378
1.004253
1.0041017
1.0039259
1.0037081
1.0034275
1.0030999
1.0027415
1.0023873
1.0038944
1.0049824
1.0039924
1.0041304
1.0042494
1.0042766
1.0042993
1.0043353
1.004374
1.0044135
1.0044502
1.0044836
1.0045125
1.004538
1.0045572
1.0045701
1.004575
1.0045737
1.0045563
1.0045271
1.0044878
1.0044197
1.0043322
1.0042253
1.0040895
1.0039299
1.0037247
1.0034533
1.0031423
1.0027485
1.002348
1.0038842
1.0049813
1.0039922
1.0041314
1.0042495
1.0042755
1.0042984
1.0043337
1.0043719
1.0044096
1.0044449
1.0044762
1.0045022
1.0045251
1.0045409
1.0045503
1.0045519
1.0045459
1.0045235
1.0044892
1.0044449
1.0043703
1.0042789
1.0041709
1.0040293
1.0038655
1.0036664
1.0034192
1.0031461
1.002778
1.0023793
1.0038729
1.0049779
1.0039904
1.0041319
1.0042486
1.0042743
1.0042975
1.0043318
1.00437
1.0044059
1.0044398
1.0044689
1.0044928
1.004513
1.0045253
1.0045307
1.0045295
1.0045189
1.0044913
1.0044504
1.004401
1.0043261
1.0042299
1.004109
1.0039543
1.0037713
1.0035734
1.0033517
1.0031087
1.0028056
1.0024386
1.0038677
1.0049781
1.0039901
1.0041351
1.0042496
1.0042741
1.0042972
1.0043307
1.0043683
1.0044029
1.0044351
1.0044623
1.0044848
1.0045027
1.0045113
1.0045126
1.0045075
1.0044928
1.0044608
1.004414
1.0043592
1.0042833
1.0041844
1.0040623
1.0039061
1.0037113
1.0035
1.0032715
1.0030324
1.002769
1.0024745
1.0038625
1.0049801
1.0039867
1.0041377
1.0042507
1.0042736
1.0042963
1.0043296
1.0043663
1.0044
1.0044307
1.004456
1.0044776
1.004493
1.0044988
1.0044969
1.0044891
1.0044691
1.0044348
1.0043839
1.0043239
1.0042437
1.0041387
1.0040189
1.0038828
1.0037075
1.0034817
1.0032184
1.0029449
1.0026485
1.0023826
1.0038566
1.0049792
1.0039786
1.0041379
1.0042511
1.0042726
1.0042948
1.0043285
1.004364
1.0043974
1.0044266
1.0044508
1.0044712
1.0044845
1.0044878
1.0044843
1.0044754
1.0044511
1.0044149
1.0043604
1.0042947
1.0042096
1.0041052
1.0039886
1.0038513
1.0036895
1.0034919
1.0032432
1.0029588
1.0026255
1.0022816
1.0038458
1.0049783
1.0039704
1.0041367
1.0042519
1.0042722
1.0042936
1.004328
1.0043622
1.0043949
1.0044228
1.004446
1.004465
1.0044761
1.0044779
1.0044739
1.0044635
1.004437
1.0043979
1.0043406
1.0042709
1.0041845
1.0040813
1.0039628
1.0038108
1.0036386
1.0034541
1.0032547
1.0030272
1.0027559
1.002406
1.0038427
1.0049754
1.0039595
1.0041371
1.0042533
1.0042718
1.004293
1.0043272
1.0043608
1.0043925
1.0044194
1.0044419
1.0044592
1.0044687
1.0044691
1.0044633
1.004451
1.0044236
1.004382
1.0043228
1.0042484
1.0041611
1.0040546
1.0039307
1.0037764
1.0035939
1.0033962
1.0032025
1.0030041
1.0027744
1.0025143
1.0038394
1.0049787
1.0039504
1.00414
1.0042557
1.0042703
1.0042922
1.0043257
1.0043593
1.00439
1.0044162
1.0044383
1.0044541
1.0044629
1.0044621
1.004453
1.0044388
1.0044102
1.0043677
1.0043069
1.0042319
1.0041395
1.0040235
1.0038894
1.0037432
1.003577
1.0033725
1.0031385
1.0029066
1.0026569
1.0024341
1.0038332
1.004969
1.003945
1.0041433
1.0042568
1.0042685
1.0042913
1.0043242
1.0043581
1.0043877
1.0044139
1.0044352
1.0044498
1.0044581
1.0044568
1.0044459
1.0044302
1.004401
1.0043566
1.0042952
1.0042203
1.0041302
1.0040161
1.0038762
1.0037244
1.003565
1.0033793
1.003149
1.002886
1.0025955
1.0023147
1.0038192
1.0049662
1.0039459
1.0041458
1.0042565
1.0042687
1.004292
1.0043234
1.0043561
1.0043847
1.0044114
1.0044321
1.0044457
1.0044531
1.0044514
1.0044395
1.0044231
1.0043953
1.0043496
1.0042874
1.0042124
1.0041275
1.0040225
1.0038916
1.0037347
1.0035648
1.0033917
1.0031978
1.0029719
1.0027102
1.0024266
1.0038
1.0049609
1.0039447
1.0041515
1.0042548
1.0042671
1.004292
1.0043236
1.0043556
1.0043833
1.0044102
1.0044302
1.0044429
1.0044499
1.0044491
1.0044369
1.0044175
1.0043895
1.0043442
1.0042817
1.0042059
1.0041225
1.0040224
1.0039
1.003748
1.0035684
1.0033844
1.0032013
1.0030151
1.0027929
1.0025818
1.003809
1.0049476
1.0039384
1.0041594
1.0042538
1.0042652
1.0042906
1.004322
1.0043525
1.0043798
1.0044067
1.0044264
1.004439
1.0044457
1.0044455
1.0044356
1.0044124
1.0043847
1.0043378
1.0042747
1.004199
1.0041147
1.004011
1.0038857
1.0037408
1.0035787
1.0033964
1.0031883
1.0029775
1.0027322
1.0025305
1.0038001
1.0049376
1.0039361
1.0041674
1.0042545
1.0042644
1.0042903
1.0043225
1.0043523
1.004379
1.0044048
1.0044235
1.0044355
1.0044423
1.0044408
1.0044305
1.0044092
1.0043813
1.0043333
1.0042687
1.0041881
1.0040996
1.0039942
1.0038683
1.0037237
1.0035635
1.0033867
1.003182
1.0029546
1.0027065
1.002465
1.0037957
1.0049422
1.0039257
1.0041697
1.0042541
1.0042631
1.0042891
1.0043195
1.0043493
1.0043756
1.0044016
1.00442
1.004432
1.0044388
1.004436
1.0044239
1.0044047
1.0043781
1.0043313
1.0042691
1.0041884
1.0040981
1.0039923
1.0038694
1.0037246
1.003562
1.0033856
1.0031928
1.0029788
1.0027403
1.0024767
1.0037789
1.0049288
1.0039161
1.0041818
1.0042543
1.0042614
1.0042901
1.0043203
1.0043499
1.0043755
1.0044018
1.0044187
1.0044305
1.004438
1.0044339
1.0044217
1.0044037
1.0043768
1.0043301
1.0042712
1.0041971
1.0041076
1.0040062
1.003895
1.0037592
1.0035913
1.0034087
1.0032344
1.0030562
1.0028625
1.0026034
1.0037721
1.0049326
1.0039027
1.0041868
1.00425
1.0042563
1.0042882
1.0043153
1.0043479
1.0043715
1.0043994
1.004415
1.0044267
1.0044345
1.0044315
1.0044203
1.0044014
1.0043743
1.0043305
1.0042747
1.0042077
1.0041261
1.0040264
1.0039126
1.0037865
1.003641
1.0034639
1.0032635
1.0030581
1.002857
1.0026499
1.0037869
1.0048944
1.0038988
1.0042103
1.0042532
1.0042571
1.0042912
1.0043168
1.0043475
1.0043711
1.0044012
1.0044146
1.0044262
1.0044331
1.00443
1.0044224
1.0044042
1.0043761
1.0043314
1.0042735
1.0042062
1.004126
1.0040294
1.0039151
1.0037846
1.0036448
1.0034938
1.0033218
1.0031149
1.0028826
1.0026567
1.0037593
1.0049354
1.0038729
1.004211
1.0042494
1.0042523
1.0042905
1.0043112
1.0043482
1.004363
1.0043981
1.0044103
1.0044222
1.0044305
1.004427
1.0044188
1.0044001
1.0043716
1.00433
1.0042719
1.0042039
1.0041227
1.0040224
1.0039069
1.0037766
1.0036316
1.0034684
1.0032876
1.0030891
1.0028794
1.0026581
1.0037575
1.0048813
1.0038774
1.0042431
1.0042472
1.0042544
1.0042929
1.0043157
1.0043457
1.0043674
1.0044016
1.0044113
1.0044231
1.0044285
1.004428
1.0044245
1.0044057
1.0043792
1.0043366
1.0042779
1.0042077
1.0041267
1.0040307
1.0039218
1.0037979
1.0036554
1.0034927
1.0033182
1.0031346
1.00294
1.0027217
1.0037477
1.0049351
1.0038032
1.0042511
1.0042384
1.0042452
1.0042911
1.0043044
1.0043537
1.0043476
1.0044023
1.0044051
1.0044202
1.0044288
1.0044233
1.0044209
1.0043998
1.0043782
1.0043434
1.0042864
1.0042173
1.0041405
1.0040448
1.0039426
1.0038236
1.003687
1.0035218
1.0033457
1.0031606
1.0029835
1.0027666
1.0037355
1.004853
1.0038629
1.0042746
1.0042239
1.0042468
1.004284
1.0043052
1.0043338
1.0043602
1.0043935
1.0044012
1.0044156
1.0044188
1.0044227
1.0044292
1.0044058
1.0043846
1.0043489
1.0042983
1.0042351
1.0041667
1.0040815
1.0039845
1.0038709
1.0037452
1.0036083
1.0034612
1.0032848
1.0030892
1.0028658
1.0026431
1.002578
1.0024823
1.0024432
1.0024317
1.0024051
1.0023568
1.0022482
1.0022303
1.0022565
1.0022516
1.0021128
1.0020165
1.0021255
1.0021314
1.0020586
1.001939
1.0020065
1.0020379
1.0020087
1.0018812
1.0018805
1.0019848
1.0023109
1.0022287
1.0021743
1.0020743
1.0021064
1.0021393
1.0020722
1.0019541
1.0018342
1.0019177
1.0019649
1.0018433
1.0016549
1.0016423
1.0017423
1.0017187
1.0015566
1.0013968
1.0014979
1.0016069
1.001456
1.0011591
1.0011949
1.0020885
1.0018921
1.0017812
1.0016785
1.0018045
1.0018056
1.001733
1.0015049
1.0014217
1.0015353
1.0016009
1.0014518
1.0012452
1.001168
1.0012792
1.0013196
1.0011434
1.0008647
1.0008802
1.001081
1.0009614
1.0005881
1.0005127
1.0017864
1.0014828
1.0013284
1.0012274
1.0014257
1.0015353
1.0014374
1.0011316
1.0009486
1.0010249
1.001265
1.0011732
1.0009148
1.000579
1.0007069
1.0010067
1.0008583
1.0004363
1.0001973
1.0005431
1.0006404
1.0002635
0.99984083
1.0014428
1.0011254
1.0009268
1.0008039
1.0009602
1.0011766
1.0011293
1.0008022
1.0004832
1.000486
1.0008192
1.0009364
1.0006235
1.0000861
1.000071
1.0005641
1.0006561
1.000179
0.99952757
0.99972192
1.0002891
1.000105
0.9993918
1.0011323
1.0007553
1.0005083
1.0003255
1.000506
1.0008686
1.0009022
1.0005256
1.0000498
0.9999147
1.0003265
1.000744
1.0004987
0.99977989
0.99938201
0.99979196
1.0003793
1.0000824
0.99920675
0.99882921
0.99944647
0.99990065
0.99927583
1.0008791
1.0004003
1.0000461
0.99983203
1.0000509
1.0005558
1.0006884
1.0002935
0.99965743
0.99938663
0.9997675
1.0004922
1.0004071
0.99961847
0.99883549
0.99906234
1.0000023
1.0001433
0.99923434
0.99813466
0.99836439
0.99956091
0.99947114
1.0008032
1.0001639
0.99967588
0.99940782
0.99966166
1.000344
1.0006694
1.0002565
0.99936886
0.9989224
0.99926238
1.0002847
1.0005205
0.99971876
0.99850862
0.99833296
0.99925419
1.0002533
0.99960998
0.99805935
0.99740342
0.99839745
0.99953505
1.0008314
0.999987
0.99928514
0.99898737
0.99929486
1.0002637
1.0008437
1.000469
0.99924021
0.99854056
0.99874558
0.99993876
1.0007016
1.000106
0.99844415
0.9977184
0.99844303
1.0001455
1.0001069
0.99846772
0.99684724
0.99726526
0.99913922
1.0011227
1.000015
0.99905065
0.99868683
0.99901836
1.0002465
1.001115
1.0008295
0.99929831
0.99832151
0.99833203
0.9995749
1.0009746
1.0006764
0.99870024
0.99742956
0.9977668
0.99961877
1.0006894
0.99938319
0.99694267
0.99630117
0.9978907
1.0015784
1.0001982
0.99892259
0.99846485
0.99882912
1.0003276
1.0016089
1.0014193
0.99959295
0.99821109
0.99795272
0.99931452
1.0013817
1.001502
0.99945923
0.99739149
0.99703828
0.99883267
1.0012178
1.0006378
0.99768534
0.99575905
0.99660326
1.0025196
1.0006865
0.99893677
0.99828269
0.99871441
1.0005732
1.0024276
1.0023787
1.0002377
0.99826271
0.99765306
0.99903714
1.0017196
1.002637
1.0006731
0.9977216
0.99657509
0.99810818
1.0012328
1.001948
0.99914105
0.99593552
0.99542135
1.0037377
1.0014328
0.99911866
0.99823872
0.99874976
1.0009402
1.0034115
1.0034966
1.0011278
0.99848202
0.99753934
0.99886722
1.0019158
1.0037879
1.0020956
0.9984246
0.99649644
0.99748181
1.000805
1.0031404
1.001067
0.99680115
0.99486026
1.0050173
1.0022827
0.99948246
0.9983902
0.99894367
1.0013889
1.0043446
1.0047438
1.0021344
0.9989316
0.99764188
0.99881071
1.0020576
1.0047221
1.0034656
0.99939171
0.99677896
0.99717402
1.000309
1.0037507
1.0027336
0.99799759
0.99500803
1.0062866
1.0032446
0.99997372
0.99866222
0.9992509
1.0019638
1.0053231
1.0060306
1.0031915
0.99950754
0.99786099
0.99888929
1.0023049
1.0055434
1.0047041
1.0003991
0.99719554
0.99700796
1.000015
1.0041821
1.0040796
0.99934631
0.9954206
1.0075583
1.0041065
1.0004883
0.99896963
0.99957752
1.002505
1.006267
1.0072037
1.0041095
1.0000391
0.99811246
0.99905129
1.0026417
1.0063758
1.0058253
1.0012835
0.99757031
0.99698517
0.9999269
1.0046085
1.0053333
1.0006455
0.99599811
1.0086476
1.0049327
1.0009478
0.99925163
0.9999028
1.0030781
1.0072468
1.0083491
1.0049754
1.0004903
0.99828536
0.99920747
1.0030539
1.0072016
1.0067946
1.0019994
0.99785222
0.99701959
1.0000294
1.00507
1.0063252
1.0015872
0.99645952
1.0100011
1.0056945
1.0015071
0.99953352
1.0001855
1.0035779
1.0081286
1.0093744
1.0057045
1.0008401
0.99842358
0.99940212
1.0035406
1.0079646
1.0075344
1.0024065
0.99800513
0.99713764
1.0003547
1.0056514
1.007013
1.0019934
0.9966226
1.010874
1.0062645
1.0019657
0.99979801
1.0004865
1.0040784
1.0089106
1.0101735
1.0061433
1.0010057
0.99853247
0.99968256
1.0041725
1.0086966
1.007928
1.0023892
0.9979725
0.99734118
1.0009695
1.0064378
1.0073816
1.0017784
0.99649986
1.0114422
1.006627
1.0021818
0.99998275
1.0007456
1.004526
1.0095247
1.0105958
1.0061573
1.0008582
0.99851352
1.0000299
1.0049512
1.0093223
1.0078006
1.0018338
0.99767251
0.9976616
1.0019275
1.0073154
1.0071455
1.0008262
0.99604536
1.0118422
1.006902
1.0022772
1.000139
1.0009492
1.0048257
1.0098421
1.0105539
1.005723
1.0004231
0.99838669
1.0004159
1.0057271
1.0095867
1.0069554
1.0007248
0.9971741
0.99815349
1.0032041
1.0080157
1.0060177
0.99923871
0.99538436
1.011825
1.0069632
1.0021342
1.0001418
1.0009974
1.0049567
1.0098853
1.01006
1.0048262
0.99970121
0.9981473
1.0008223
1.0064544
1.0093781
1.0053842
0.99919775
0.99661768
0.99891204
1.0046977
1.0081282
1.0038262
0.99730046
0.99492083
1.0110945
1.0064255
1.0015217
0.99981366
1.0008015
1.0048145
1.0094433
1.0089103
1.0033871
0.99867972
0.99781483
1.001186
1.0068536
1.0082964
1.0030736
0.99753885
0.99629669
0.99997738
1.0059647
1.006905
1.0006681
0.99549964
0.99547234
1.0093443
1.0046843
1.0001586
0.99909884
1.0004738
1.0044151
1.008169
1.0066804
1.0011278
0.99735972
0.99758034
1.0016745
1.0067264
1.0059816
1.0001452
0.99597014
0.99655465
1.0014583
1.0062612
1.0038795
0.99730004
0.99448962
0.9973298
1.0063639
1.0016982
0.99780115
0.99748616
0.99952711
1.0032869
1.0058562
1.0034928
0.99841598
0.99592807
0.99744995
1.002095
1.0055616
1.0026736
0.99713452
0.9948805
0.99741279
1.0026828
1.0046476
0.99961321
0.99477252
0.99495547
0.99982773
1.0012451
0.99700292
0.99401435
0.99467507
0.9973369
1.000442
1.0017297
0.99902591
0.99544725
0.9946638
0.99728821
1.001717
1.0027659
0.99865505
0.99468459
0.99463651
0.99848597
1.0025965
1.0010146
0.99570704
0.99382418
0.9967047
1.0015274
0.99763027
0.9943533
0.99243779
0.99322075
0.99588481
0.99797685
0.99788278
0.99536186
0.9933909
0.99393722
0.99700643
1.0000576
0.99882477
0.99516779
0.99339926
0.99513761
0.99902544
1.0005413
0.99666771
0.99358939
0.99434179
0.9984595
1.0009384
0.99461517
0.99182113
0.99002722
0.99125286
0.99383371
0.99535512
0.99471413
0.99286809
0.99213024
0.99349164
0.99637244
0.99759251
0.99530449
0.99306787
0.99318934
0.9958141
0.99842705
0.99719379
0.99384017
0.99320795
0.99570955
0.99882468
0.99829174
0.99031734
0.98741418
0.98634935
0.98733183
0.98957147
0.99078373
0.99043669
0.98982269
0.99034708
0.99234798
0.99478332
0.99463647
0.99273278
0.99201185
0.99342101
0.99608966
0.99664522
0.99409591
0.99277561
0.99380334
0.99657388
0.99726792
0.99473714
0.98949191
0.98737323
0.98644109
0.98735661
0.98870356
0.98906734
0.98867756
0.9889133
0.98999227
0.99187021
0.99324187
0.99252242
0.99161553
0.99202436
0.99396025
0.9954377
0.99440161
0.99280879
0.99293341
0.99473435
0.99616602
0.99491468
0.99317731
0.99073482
0.98881893
0.98789432
0.98847391
0.98929193
0.98902122
0.98881768
0.98932866
0.99045986
0.99175931
0.99234279
0.9917588
0.99157452
0.9923991
0.99385374
0.99408991
0.99296548
0.99263078
0.99344839
0.99474694
0.99455617
0.99340303
0.99309622
0.99205389
0.99057463
0.99001088
0.99015034
0.99050944
0.98993419
0.98977142
0.99039246
0.99132531
0.99216669
0.99213426
0.99190888
0.99212457
0.99303887
0.99379989
0.99335024
0.99278695
0.99306883
0.99412518
0.99452401
0.99370601
0.99321214
0.99341637
0.99407523
0.99281522
0.99241842
0.9923328
0.99235189
0.99180336
0.9915188
0.9918162
0.99226628
0.99263984
0.9924113
0.99245055
0.9927897
0.99322552
0.9932616
0.99290525
0.99291181
0.99330762
0.9937749
0.99351352
0.99308158
0.99307947
0.9936066
0.99535526
0.9942987
0.99398818
0.99384613
0.99362262
0.99315288
0.99299755
0.99316274
0.99337217
0.99347441
0.99319498
0.99326998
0.99364221
0.99390489
0.99369796
0.99338846
0.99343423
0.9937706
0.99392432
0.99358793
0.99327246
0.99326998
0.99352254
0.99684913
0.99619101
0.99583335
0.99562791
0.99531364
0.99482974
0.99455161
0.99450497
0.99442546
0.9942581
0.99397412
0.9940303
0.99415097
0.99409473
0.99372838
0.99356933
0.99362343
0.99363837
0.99329367
0.99302454
0.9930283
0.99322302
0.99322246
0.99731219
0.99687227
0.99659904
0.99640879
0.99613158
0.99575244
0.99544981
0.9953214
0.99524832
0.99504061
0.99481702
0.9946767
0.9946326
0.99459062
0.99448952
0.99439851
0.99431152
0.99429425
0.99424594
0.99411259
0.99391942
0.99367121
0.99355544
0.99799321
0.99766062
0.99746901
0.99733791
0.99710731
0.99677959
0.99642129
0.99618335
0.99607806
0.99588414
0.99556723
0.99531601
0.99525233
0.99511884
0.99487265
0.99460461
0.99449376
0.99441578
0.99422566
0.99398226
0.99377282
0.99361994
0.99344307
0.99829516
0.99803259
0.99788945
0.99781537
0.99766552
0.99743248
0.99714735
0.99688509
0.99671078
0.99653779
0.99628657
0.99601156
0.99586803
0.99571433
0.99549206
0.99522436
0.99502322
0.99489122
0.99471281
0.9944842
0.99423349
0.99398091
0.99372818
0.99869325
0.99848173
0.99833861
0.99826107
0.99812849
0.99794023
0.9977157
0.99748977
0.99729241
0.99710463
0.99688495
0.99662621
0.99642564
0.996268
0.9960554
0.99579321
0.99552282
0.99531628
0.99510305
0.99486274
0.99460309
0.99430246
0.99399899
0.9988808
0.99872229
0.99861918
0.99856816
0.99847053
0.99832335
0.99815043
0.99797713
0.99779748
0.99760906
0.99740352
0.99717353
0.99693875
0.99674885
0.99655357
0.99632135
0.99605563
0.99579969
0.99555104
0.99529609
0.99502739
0.99471074
0.99435311
0.99910022
0.99897391
0.99888665
0.99884625
0.99876364
0.99864395
0.99849704
0.99835522
0.99819953
0.99803563
0.99785056
0.99764996
0.99743111
0.99721581
0.99701324
0.9968054
0.9965762
0.99630867
0.9960321
0.99576236
0.99549366
0.9951709
0.99478956
0.99926658
0.99916984
0.99909989
0.99907342
0.99900901
0.99891773
0.99879352
0.99866688
0.99852807
0.99838269
0.99822646
0.99805721
0.99787192
0.9976728
0.99747033
0.99727378
0.99706791
0.9968186
0.99652446
0.99623217
0.99595339
0.99563829
0.99524831
0.99943857
0.9993546
0.99928842
0.99926432
0.99920662
0.99913963
0.99904497
0.99893831
0.99882008
0.99868981
0.99855522
0.99841155
0.99825407
0.99807977
0.99789677
0.99771013
0.99751843
0.99729073
0.99701078
0.99670912
0.99641381
0.99610809
0.9957281
0.99958259
0.99951367
0.99945742
0.99943628
0.99938072
0.99932643
0.99925642
0.99917135
0.99907432
0.99896379
0.99885054
0.99872844
0.99859034
0.99843202
0.99826277
0.99808757
0.99790609
0.99769846
0.99745102
0.99717292
0.99687894
0.99658014
0.99623138
0.99970878
0.99964969
0.99960527
0.9995882
0.99954234
0.99949741
0.99944181
0.99937147
0.99928635
0.99919534
0.99910156
0.99899892
0.99887722
0.99873757
0.9985863
0.99842691
0.99825147
0.99805833
0.99783869
0.99759621
0.99732232
0.99703683
0.99671834
0.99982062
0.9997745
0.99973335
0.99971997
0.99968327
0.99964955
0.99960226
0.99954227
0.9994663
0.99939059
0.99931101
0.99921994
0.9991143
0.99899674
0.99886957
0.99872816
0.99856641
0.99838738
0.9981879
0.99797032
0.99771863
0.99745316
0.99716743
0.99992241
0.99987562
0.99983944
0.99982617
0.99979506
0.99976778
0.99972723
0.99967859
0.99961901
0.9995568
0.9994889
0.999409
0.9993206
0.99922276
0.99911295
0.99898603
0.9988415
0.99868002
0.99849742
0.99829531
0.99806307
0.99781792
0.99757013
1.0000007
0.99995867
0.99992461
0.99991634
0.99988907
0.9998663
0.99983214
0.99979425
0.9997494
0.99969738
0.99963875
0.99957272
0.99949953
0.99941663
0.99931779
0.99920296
0.99907389
0.9989297
0.99876285
0.99857494
0.99836318
0.99814004
0.99792939
1.0000744
1.0000246
0.99999887
0.99998819
0.99996725
0.99994721
0.99992095
0.99989084
0.99985298
0.99980868
0.99975998
0.99970614
0.99964414
0.99957154
0.99948432
0.99938245
0.99926738
0.99913877
0.99898917
0.99881928
0.99862875
0.99842728
0.99824705
1.0001363
1.0000943
1.0000645
1.0000517
1.0000304
1.0000114
0.99998898
0.99996276
0.99992978
0.99989214
0.9998521
0.99980802
0.99975628
0.99969452
0.99962033
0.99953207
0.99942883
0.99931194
0.99917793
0.99902561
0.99885329
0.99866968
0.99851221
1.0002025
1.0001532
1.0001271
1.00011
1.0000874
1.0000672
1.0000442
1.000019
0.99998987
0.99995733
0.9999222
0.99988271
0.99983763
0.99978493
0.99972162
0.99964494
0.99955318
0.99944708
0.99932709
0.99919086
0.99903487
0.99886709
0.99872783
1.0002425
1.0002035
1.0001767
1.0001624
1.0001391
1.0001185
1.0000942
1.0000684
1.0000404
1.0000107
0.99997816
0.99994055
0.99989771
0.99984909
0.99979183
0.99972342
0.9996426
0.99954773
0.99943996
0.99931801
0.99917763
0.99902593
0.99890385
1.00028
1.0002351
1.0002106
1.0001973
1.0001766
1.0001578
1.0001359
1.0001117
1.0000846
1.0000554
1.0000233
0.99998656
0.99994456
0.99989723
0.9998428
0.99977977
0.99970673
0.99962298
0.99952367
0.99941323
0.99928577
0.99914742
0.99903867
1.0002951
1.0002592
1.0002339
1.0002213
1.0002021
1.0001847
1.0001645
1.0001418
1.0001156
1.0000867
1.0000538
1.0000175
0.99997657
0.99993132
0.99987945
0.99982009
0.99975203
0.99967421
0.99958396
0.99948084
0.99936388
0.99923567
0.99913664
1.0002956
1.0002603
1.0002394
1.00023
1.0002136
1.0001979
1.0001792
1.0001578
1.0001328
1.0001044
1.0000719
1.0000354
0.99999485
0.99995004
0.99989942
0.99984222
0.99977742
0.99970391
0.99961964
0.99952445
0.99941606
0.99929654
0.99920304
1.0002848
1.000255
1.0002354
1.0002272
1.0002124
1.000198
1.0001803
1.0001599
1.0001359
1.0001082
1.0000758
1.0000398
0.99999844
0.99995315
0.99990252
0.99984635
0.99978361
0.9997135
0.9996345
0.99954624
0.99944606
0.99933394
0.99924192
1.0002633
1.0002332
1.0002169
1.0002113
1.0001984
1.0001862
1.0001698
1.0001506
1.0001269
1.0000992
1.0000668
1.0000301
0.99998861
0.99994265
0.99989181
0.99983589
0.99977427
0.99970641
0.99963081
0.99954723
0.99945266
0.99934589
0.99925302
1.0002346
1.000209
1.0001939
1.0001894
1.0001767
1.0001651
1.0001492
1.00013
1.0001063
1.0000783
1.0000456
1.0000086
0.99996698
0.99992065
0.99986966
0.99981365
0.9997522
0.99968491
0.99961102
0.99953013
0.99943965
0.9993371
0.99924143
1.0002035
1.000176
1.000163
1.0001599
1.0001488
1.0001381
1.0001226
1.0001032
1.000079
1.0000505
1.0000173
0.99997977
0.99993771
0.99989073
0.9998391
0.99978239
0.99972095
0.9996538
0.99958087
0.99950094
0.9994125
0.99931066
0.99920975
1.000169
1.0001457
1.0001324
1.0001292
1.0001181
1.000107
1.0000912
1.0000716
1.0000474
1.0000186
0.99998489
0.99994675
0.99990412
0.99985644
0.99980437
0.99974702
0.9996849
0.99961717
0.99954407
0.99946324
0.99937579
0.99927151
0.99916512
1.0001379
1.0001103
1.0000995
1.0000961
1.0000857
1.0000748
1.0000589
1.0000389
1.0000143
0.99998499
0.99995077
0.99991188
0.99986912
0.99982082
0.99976813
0.99970998
0.99964715
0.99957876
0.99950505
0.99942201
0.99933286
0.99922402
0.99911353
1.0001062
1.0000834
1.0000703
1.0000664
1.0000551
1.0000435
1.0000268
1.0000063
0.99998132
0.99995166
0.99991724
0.9998782
0.99983499
0.99978633
0.99973281
0.99967377
0.99961029
0.99954074
0.99946572
0.9993792
0.99928599
0.9991728
0.99905901
1.0000797
1.0000528
1.0000415
1.0000361
1.0000251
1.0000131
0.9999961
0.99997553
0.99995029
0.99992031
0.99988579
0.99984651
0.99980267
0.99975369
0.99969974
0.99964026
0.99957631
0.99950519
0.99942759
0.99933621
0.9992389
0.99912291
0.99900629
1.0000615
1.0000321
1.00002
1.0000127
1.0000004
0.99998679
0.99996903
0.99994813
0.99992255
0.99989271
0.99985836
0.99981854
0.99977413
0.99972488
0.99967081
0.99961096
0.99954615
0.99947296
0.99939172
0.99929641
0.99919551
0.99907743
0.99895751
1.0000364
1.0000098
0.99999704
0.99998931
0.99997673
0.9999628
0.99994508
0.99992404
0.99989837
0.99986897
0.99983471
0.99979455
0.99975021
0.99970085
0.99964679
0.99958684
0.99952097
0.99944459
0.99935942
0.99926148
0.99915859
0.99903913
0.99891637
1.0000266
0.99999339
0.99998122
0.99997096
0.99995778
0.99994291
0.99992493
0.99990376
0.99987864
0.99984942
0.99981467
0.99977439
0.99973032
0.99968145
0.99962776
0.99956748
0.9994993
0.99942004
0.99933252
0.99923318
0.99912874
0.99900839
0.99888323
1.0000058
0.99997755
0.99996419
0.99995452
0.9999404
0.99992563
0.99990783
0.99988714
0.99986253
0.9998336
0.99979892
0.99975919
0.99971578
0.9996671
0.9996135
0.99955159
0.99948144
0.99940068
0.99931175
0.99921177
0.99910649
0.9989862
0.99885896
1.0000003
0.99996546
0.99995299
0.99994136
0.99992718
0.99991186
0.9998941
0.99987358
0.99984934
0.99982064
0.99978671
0.99974799
0.99970498
0.99965674
0.99960257
0.99953918
0.99946742
0.99938571
0.99929662
0.99919683
0.99909167
0.99897201
0.99884322
0.99998856
0.99995675
0.99994233
0.99993089
0.9999159
0.99990067
0.9998829
0.99986296
0.9998388
0.99980988
0.99977621
0.99973848
0.99969634
0.99964845
0.99959281
0.99952791
0.99945551
0.99937424
0.99928528
0.99918608
0.99908161
0.99896325
0.99883397
0.99997926
0.99994714
0.99993332
0.99992129
0.9999065
0.99989199
0.99987479
0.99985535
0.99983163
0.99980336
0.99977048
0.99973347
0.99969152
0.99964285
0.99958629
0.99952068
0.99944753
0.9993665
0.99927805
0.9991802
0.99907657
0.9989602
0.99883117
0.99997171
0.99993759
0.99992346
0.99991057
0.99989592
0.99988171
0.9998652
0.99984621
0.99982224
0.9997942
0.99976195
0.9997255
0.99968389
0.99963435
0.99957656
0.99951126
0.9994395
0.99935916
0.99927108
0.99917447
0.99907255
0.99895861
0.99883003
0.99996909
0.99993448
0.99991929
0.99990582
0.99989018
0.99987612
0.99986026
0.99984135
0.99981724
0.99978925
0.99975744
0.99972119
0.99967825
0.99962767
0.99956976
0.99950434
0.99943245
0.99935307
0.99926638
0.99917079
0.9990697
0.99895833
0.99883161
0.99994856
0.99991732
0.99990272
0.99989057
0.99987651
0.99986333
0.99984804
0.99982914
0.99980541
0.99977762
0.9997462
0.99971015
0.99966663
0.99961512
0.99955684
0.99949215
0.99942142
0.9993427
0.99925723
0.99916367
0.99906459
0.99895546
0.99883045
0.99994781
0.99990859
0.99989526
0.99988066
0.9998668
0.99985337
0.99983804
0.9998189
0.99979481
0.99976712
0.99973563
0.99969798
0.99965304
0.99960127
0.99954291
0.99947807
0.99940753
0.99932966
0.9992451
0.99915286
0.99905567
0.99894907
0.99882619
0.99990837
0.99987821
0.99986498
0.99985417
0.99984188
0.99982978
0.99981445
0.99979583
0.99977267
0.99974586
0.99971449
0.99967601
0.99963014
0.99957833
0.99952082
0.9994568
0.99938635
0.9993091
0.99922597
0.99913542
0.99903969
0.99893549
0.9988158
0.99988629
0.99984634
0.99983623
0.99982373
0.99981338
0.99980087
0.99978539
0.99976689
0.99974472
0.99971839
0.99968558
0.99964593
0.99959999
0.99954749
0.99948918
0.99942582
0.99935646
0.99927968
0.99919719
0.99910807
0.99901437
0.99891184
0.9987945
0.99981461
0.99978673
0.99977831
0.99977024
0.9997625
0.99975274
0.99973849
0.99972093
0.99969937
0.99967364
0.99964122
0.99960137
0.99955549
0.99950361
0.99944566
0.99938232
0.99931348
0.999238
0.99915671
0.99906821
0.99897537
0.99887549
0.99876144
0.99975389
0.99971544
0.99971204
0.99970189
0.99969629
0.99968666
0.99967287
0.9996557
0.99963496
0.99960935
0.99957662
0.9995367
0.99949105
0.99944
0.99938271
0.99931967
0.99925131
0.99917667
0.99909675
0.99901015
0.99891892
0.99882109
0.99870949
0.99963638
0.99961192
0.99960847
0.99960369
0.99959904
0.99959235
0.99957995
0.99956441
0.99954398
0.99951787
0.99948495
0.99944566
0.99940093
0.99935076
0.99929428
0.99923176
0.99916418
0.99909049
0.9990109
0.9989248
0.99883541
0.99874092
0.99863231
0.99950434
0.99947811
0.99947949
0.99947557
0.99947271
0.9994676
0.99945738
0.99944353
0.99942346
0.99939734
0.99936485
0.99932595
0.99928085
0.99923053
0.99917483
0.99911323
0.99904586
0.99897255
0.9988938
0.99880815
0.9987195
0.9986273
0.99852173
0.99933686
0.99931638
0.99932048
0.99931973
0.99931848
0.9993146
0.99930506
0.99929182
0.99927125
0.99924419
0.99921172
0.99917362
0.99912896
0.99907808
0.99902197
0.9989607
0.9988937
0.99881973
0.99874045
0.99865566
0.99856767
0.99847624
0.99837237
0.99915084
0.9991305
0.99913608
0.99913602
0.99913524
0.99913117
0.99912089
0.99910696
0.99908581
0.99905792
0.99902404
0.99898449
0.99893883
0.99888678
0.99882926
0.99876678
0.99869899
0.99862434
0.99854413
0.99845869
0.99837059
0.99827931
0.998176
0.99895028
0.99893231
0.99893771
0.99893749
0.99893616
0.99893106
0.99891917
0.99890356
0.9988802
0.99885063
0.99881463
0.99877264
0.99872442
0.99866976
0.99860997
0.99854471
0.99847393
0.99839631
0.99831338
0.99822544
0.99813508
0.9980417
0.99793724
0.99875336
0.99873342
0.99873891
0.998736
0.99873237
0.99872424
0.99870905
0.99868951
0.99866239
0.99862873
0.99858832
0.99854187
0.99848954
0.99843089
0.9983669
0.99829725
0.99822228
0.99814081
0.99805355
0.99796118
0.99786655
0.99776917
0.99766094
0.99857703
0.99855358
0.99855643
0.99854993
0.99854297
0.99853062
0.99851094
0.99848657
0.99845476
0.99841631
0.99837041
0.9983176
0.99825896
0.99819405
0.99812378
0.99804702
0.99796496
0.99787707
0.99778353
0.99768476
0.99758354
0.99748029
0.99736315
0.99840364
0.99838277
0.99838593
0.99837743
0.99836698
0.99835145
0.99832788
0.99829905
0.99826198
0.99821881
0.99816853
0.99811119
0.99804707
0.99797552
0.99789847
0.99781433
0.9977241
0.99762779
0.99752616
0.99741975
0.99731036
0.99719865
0.99707038
0.9982944
0.99826413
0.99826532
0.99825106
0.99823617
0.99821441
0.99818486
0.99815009
0.99810714
0.99805766
0.9980009
0.99793713
0.9978667
0.99778808
0.99770329
0.99761093
0.99751237
0.99740789
0.99729754
0.99718251
0.99706372
0.99694307
0.99680367
0.99820165
0.99817824
0.9981752
0.99816159
0.99814378
0.99812
0.99808642
0.99804779
0.99800094
0.99794754
0.99788607
0.99781702
0.99774086
0.99765618
0.99756488
0.99746552
0.99735946
0.99724727
0.99712876
0.99700474
0.99687587
0.99674506
0.99659555
0.99815083
0.99812363
0.99812036
0.99810354
0.99808384
0.99805738
0.99802138
0.99797975
0.99792935
0.99787242
0.99780721
0.99773398
0.99765342
0.99756365
0.99746745
0.99736298
0.99725135
0.99713312
0.99700806
0.9968774
0.99674117
0.99660344
0.99644815
0.99812389
0.99809593
0.99809174
0.99807451
0.99805397
0.99802755
0.99799155
0.99795001
0.99789907
0.99784123
0.99777495
0.99770035
0.99761795
0.99752575
0.99742657
0.99731905
0.99720397
0.99708165
0.99695197
0.99681631
0.99667485
0.99653203
0.99637371
0.99807502
0.99805159
0.99804901
0.99803313