-0.5 	1.023192
-0.48412699 	1.0280122
-0.46825397 	1.0010065
-0.45238095 	1.0074566
-0.43650794 	1.0154295
-0.42063492 	0.97373374
-0.40476191 	0.97079301
-0.3888889 	0.99800077
-0.37301588 	0.9958504
-0.35714287 	0.97156742
-0.34126985 	0.95931536
-0.32539684 	0.95633815
-0.30952379 	0.94482402
-0.29365078 	0.93023149
-0.27777776 	0.92768409
-0.26190475 	0.93717854
-0.24603173 	0.9447344
-0.23015872 	0.9395518
-0.2142857 	0.92296653
-0.19841269 	0.90227689
-0.18253967 	0.88557698
-0.16666666 	0.87633542
-0.15079364 	0.87407949
-0.13492063 	0.87670066
-0.11904758 	0.88089541
-0.10317457 	0.88343052
-0.087301552 	0.8808631
-0.071428537 	0.87335238
-0.055555522 	0.86265971
-0.039682507 	0.85187843
-0.023809493 	0.84339005
-0.0079364777 	0.83912534
0.0079365373 	0.83871126
0.023809552 	0.8410468
0.039682567 	0.8447886
0.055555582 	0.84889523
0.071428597 	0.85322165
0.087301612 	0.85832519
0.10317463 	0.86471393
0.11904764 	0.87192503
0.13492066 	0.87860144
0.15079367 	0.88449537
0.16666669 	0.89112281
0.1825397 	0.89978562
0.19841272 	0.90995896
0.21428573 	0.9210894
0.23015875 	0.93255672
0.24603176 	0.9430561
0.26190484 	0.95090335
0.27777785 	0.95484452
0.29365087 	0.95533971
0.30952388 	0.95544201
0.3253969 	0.95895353
0.34126991 	0.96743371
0.35714292 	0.97972441
0.37301594 	0.99137331
0.38888895 	0.99621725
0.40476197 	0.99362884
0.42063499 	0.99186547
0.436508 	0.99792436
0.45238101 	1.0067919
0.46825403 	1.0145754
0.48412704 	1.0062871
0.5 	1.0076711
