-0.5 	1.0165926
-0.48412699 	1.0147819
-0.46825397 	1.0093174
-0.45238095 	1.0041702
-0.43650794 	0.99892724
-0.42063492 	0.99829747
-0.40476191 	0.99234439
-0.3888889 	0.98968917
-0.37301588 	0.98532209
-0.35714287 	0.98002891
-0.34126985 	0.97800371
-0.32539684 	0.97669403
-0.30952379 	0.97057726
-0.29365078 	0.96790763
-0.27777776 	0.9686138
-0.26190475 	0.96393206
-0.24603173 	0.96370958
-0.23015872 	0.9592248
-0.2142857 	0.95548615
-0.19841269 	0.95430353
-0.18253967 	0.95108521
-0.16666666 	0.94821916
-0.15079364 	0.94635818
-0.13492063 	0.94236566
-0.11904758 	0.94317836
-0.10317457 	0.93977025
-0.087301552 	0.93838618
-0.071428537 	0.9367674
-0.055555522 	0.93629285
-0.039682507 	0.93476423
-0.023809493 	0.9328143
-0.0079364777 	0.9329877
0.0079365373 	0.93311789
0.023809552 	0.93207713
0.039682567 	0.93126301
0.055555582 	0.93021097
0.071428597 	0.93163725
0.087301612 	0.93209698
0.10317463 	0.93254156
0.11904764 	0.93157045
0.13492066 	0.93459183
0.15079367 	0.9318884
0.16666669 	0.9372396
0.1825397 	0.93374833
0.19841272 	0.93715781
0.21428573 	0.9418362
0.23015875 	0.93650226
0.24603176 	0.94707528
0.26190484 	0.9390103
0.27777785 	0.95230782
0.29365087 	0.94563762
0.30952388 	0.95242721
0.3253969 	0.95853459
0.34126991 	0.95670527
0.35714292 	0.96996438
0.37301594 	0.96100988
0.38888895 	0.976183
0.40476197 	0.96718675
0.42063499 	0.97933836
0.436508 	0.98441047
0.45238101 	0.98332995
0.46825403 	0.99203488
0.48412704 	0.99763878
0.5 	1.0075591
