/*--------------------------------*- C++ -*----------------------------------*\
| =========                 |                                                 |
| \\      /  F ield         | OpenFOAM: The Open Source CFD Toolbox           |
|  \\    /   O peration     | Version:  2406                                  |
|   \\  /    A nd           | Website:  www.openfoam.com                      |
|    \\/     M anipulation  |                                                 |
\*---------------------------------------------------------------------------*/
FoamFile
{
    version     2.0;
    format      ascii;
    arch        "LSB;label=32;scalar=64";
    class       volScalarField;
    location    "80";
    object      omega;
}
// * * * * * * * * * * * * * * * * * * * * * * * * * * * * * * * * * * * * * //

dimensions      [0 0 -1 0 0 0 0];

internalField   nonuniform List<scalar> 
20580
(
3.5401839
2.6969349
2.2031429
1.8663123
1.6215226
1.4377201
1.2964786
1.1837253
1.0917066
1.0153839
0.95150118
0.89673078
0.85021779
0.80965551
0.77461544
0.74351316
0.71667277
0.69411507
0.67356923
0.65727099
0.64417834
0.62902513
0.61782759
0.61338182
0.61324671
0.61417154
0.61936716
0.62113119
0.62135992
0.62876612
0.64455302
3.5422933
2.6969119
2.203528
1.8707705
1.6302493
1.4456707
1.3041028
1.190726
1.0980998
1.0214624
0.95765116
0.90231465
0.85578429
0.81517265
0.78025857
0.74859943
0.72200564
0.69886285
0.67842743
0.66296318
0.65037195
0.63694527
0.62374329
0.61594721
0.61548758
0.61633976
0.62108345
0.62875418
0.6340091
0.64507957
0.65293321
3.5428359
2.6948678
2.2017355
1.8709183
1.6332355
1.45006
1.3088983
1.1960053
1.1040939
1.0268743
0.96321082
0.90820532
0.86084774
0.82075331
0.78466547
0.75344826
0.72640033
0.70265081
0.68180982
0.66638616
0.65245915
0.63917916
0.62823992
0.6170096
0.61469239
0.61382576
0.61649746
0.62388838
0.63189961
0.64081989
0.66202541
3.545253
2.6890278
2.1968433
1.8693053
1.6320494
1.4517447
1.3120346
1.2001039
1.1081536
1.0326322
0.9678712
0.91417392
0.86607291
0.82656922
0.78961781
0.75818083
0.73130526
0.70664343
0.68567944
0.66914147
0.65578892
0.64035833
0.63213767
0.62007021
0.61558431
0.61474768
0.61654423
0.62093766
0.62481594
0.62863839
0.64820594
3.5520922
2.6875181
2.1924951
1.8653572
1.62964
1.453667
1.3165262
1.2035786
1.1117386
1.0362104
0.97242103
0.9175
0.87180463
0.8306402
0.79610848
0.76232731
0.73730922
0.71057475
0.69138482
0.67192307
0.65929233
0.64440676
0.63430468
0.62496223
0.61865688
0.61909408
0.62158086
0.62515012
0.62938885
0.63172541
0.63733884
3.5594516
2.6912055
2.1898944
1.8632199
1.6294834
1.4547629
1.3189707
1.2074923
1.1166687
1.0398722
0.97666073
0.9207996
0.87587806
0.8338984
0.8000502
0.76691533
0.74115284
0.71545392
0.69575079
0.67719637
0.66197735
0.65078806
0.63895487
0.62822583
0.62145316
0.62302993
0.62614879
0.6337851
0.64308234
0.65545566
0.65333021
3.5625975
2.699071
2.1836572
1.8569058
1.6263947
1.4530696
1.317903
1.2094546
1.1214029
1.0455758
0.98260317
0.92622845
0.88015315
0.83792032
0.80283374
0.77050571
0.743352
0.71854324
0.69882184
0.68115565
0.66462361
0.65464378
0.64299743
0.63129345
0.6209894
0.62149164
0.62390594
0.6296036
0.64109445
0.65945106
0.67100295
3.5674314
2.70096
2.1835731
1.8432963
1.6108595
1.4431681
1.3142511
1.2085797
1.1231125
1.0497578
0.98828996
0.93293513
0.88672985
0.84407438
0.80745268
0.77524332
0.74620725
0.72189038
0.70096607
0.68400856
0.66575707
0.65689992
0.64559834
0.6351188
0.62313074
0.61850404
0.61793152
0.61838466
0.62581626
0.64257798
0.66954187
3.6269165
2.7320827
2.1979525
1.8465797
1.6050331
1.429633
1.2993863
1.1972026
1.1170734
1.0475521
0.98722739
0.9360775
0.890621
0.85250684
0.8149831
0.78492808
0.75313375
0.72916036
0.70613423
0.68733005
0.66903076
0.65821359
0.65020802
0.63936491
0.63053525
0.62217803
0.6201082
0.61920561
0.62096666
0.62851517
0.6471506
3.8393897
2.9661378
2.3092971
1.9013698
1.6330277
1.440089
1.2999549
1.1889127
1.1006655
1.0305647
0.97511738
0.93081479
0.88879797
0.85331848
0.82011652
0.79155542
0.76292566
0.73862321
0.71673145
0.69552579
0.67800325
0.66409622
0.65464295
0.6465517
0.63871556
0.63303177
0.63200535
0.6331203
0.63452607
0.64023276
0.64784201
3.6869637
3.0162
2.4756589
2.0750142
1.7728527
1.5201879
1.3412577
1.2104446
1.1087867
1.0313837
0.96640446
0.91718135
0.87600381
0.84334845
0.81432138
0.78814817
0.7626016
0.73948498
0.71928061
0.69930739
0.68384785
0.67084236
0.6599275
0.65226472
0.64652572
0.64026622
0.64137896
0.64742547
0.65428405
0.67090989
0.67477799
3.6229386
2.9246085
2.466997
2.1299308
1.8691406
1.6654646
1.4847368
1.3238731
1.1798132
1.0702279
0.98714571
0.92551011
0.87756559
0.83854754
0.80522243
0.77615183
0.75154843
0.72979961
0.71106477
0.69326893
0.68056272
0.66868736
0.65834736
0.65171066
0.64767846
0.63953802
0.63764064
0.64299124
0.65232322
0.66689906
0.68193528
3.7594659
2.9132655
2.413814
2.0775415
1.8245695
1.6495295
1.4994193
1.3727431
1.2684167
1.1725266
1.0795873
0.99487243
0.92232778
0.86848453
0.82631502
0.79065161
0.76065885
0.73496105
0.71271693
0.69309257
0.67861009
0.66482258
0.65330442
0.64761939
0.64440666
0.6360056
0.62913969
0.63060898
0.63792339
0.64523504
0.65871422
3.7360143
2.9642381
2.4395073
2.0843136
1.8155326
1.6144053
1.4580581
1.3358995
1.2441395
1.1641495
1.1013907
1.053174
1.0121288
0.97174319
0.92958157
0.89140243
0.85186367
0.81342593
0.7768427
0.73991486
0.71158714
0.68856482
0.66887066
0.65737968
0.65036388
0.64099794
0.6317721
0.63132096
0.63669331
0.64430144
0.65059178
3.6103462
2.8693513
2.4161614
2.092116
1.8339163
1.6272889
1.4618722
1.3299904
1.2207139
1.1358751
1.0720944
1.0293395
0.99989029
0.97530077
0.9553559
0.93546892
0.91539299
0.89466139
0.87023411
0.84750828
0.81975605
0.79456581
0.76306319
0.7367096
0.71493592
0.69265302
0.67162312
0.66063014
0.66058527
0.66722255
0.66842625
3.6009531
2.7713644
2.3063511
2.0118146
1.7842629
1.6019552
1.4512485
1.3239343
1.217053
1.1300744
1.0604231
1.0041084
0.96197884
0.93401003
0.91218383
0.89339182
0.87708679
0.86481291
0.85018647
0.839506
0.82390949
0.81307643
0.80153812
0.79315955
0.78347892
0.77881436
0.76861448
0.75824032
0.74670303
0.74501679
0.74140329
3.6617044
2.7913311
2.27291
1.9317145
1.6893068
1.5207358
1.3892656
1.2822145
1.1907891
1.1131946
1.0469503
0.99434864
0.94832588
0.91191865
0.87951932
0.85325081
0.82824733
0.80792975
0.79024499
0.77979448
0.77142041
0.76494777
0.76401922
0.76520739
0.76402173
0.76456651
0.76602527
0.76508211
0.76333313
0.76270637
0.76532662
3.8020513
2.9370486
2.3368845
1.9592529
1.696626
1.5050855
1.3606108
1.249148
1.1589939
1.0864028
1.0263801
0.97772276
0.9366127
0.90070788
0.86835945
0.84096294
0.81424143
0.79142732
0.76921514
0.75422059
0.7379603
0.72378254
0.71694995
0.70989518
0.70619014
0.70557726
0.7104996
0.71647712
0.7202243
0.72255248
0.73135059
3.5982813
2.9397155
2.4357033
2.0766114
1.7934772
1.5704496
1.4027996
1.2728296
1.171132
1.0907729
1.0253287
0.97172875
0.92809538
0.89124168
0.85944814
0.83276668
0.80875673
0.78665178
0.76616374
0.75053737
0.73424865
0.71988878
0.70976455
0.70240959
0.69321125
0.68840836
0.68904442
0.69229051
0.69340432
0.6932588
0.696644
3.6357535
2.8925965
2.4255801
2.0999947
1.8597512
1.6774377
1.5190892
1.3799662
1.2629557
1.1659463
1.0842766
1.0173945
0.96189107
0.91696581
0.8788057
0.84659103
0.82029616
0.79645417
0.77673255
0.76111803
0.74732314
0.73446161
0.72656062
0.72077434
0.71568855
0.71417393
0.7178829
0.72322375
0.72742277
0.72838186
0.72630513
3.6674279
3.0571536
2.518321
2.2140558
1.9702142
1.7961162
1.6598317
1.5410717
1.4484305
1.3653821
1.2918025
1.2316606
1.1694516
1.126298
1.0792289
1.0366466
1.0090438
0.98305419
0.95944961
0.94426582
0.92835727
0.91278244
0.90307855
0.89740157
0.89076722
0.88705848
0.89081395
0.89722236
0.89976771
0.89493167
0.8716911
4.3664199
5.2198541
4.1774685
3.6462981
3.3675949
3.159835
3.0266192
2.8598089
2.7780725
2.6621323
2.5992093
2.5102355
2.4616881
2.4049135
2.3462107
2.3049323
2.282459
2.2544267
2.225715
2.2058745
2.1684289
2.123984
2.0931088
2.0770296
2.0428257
2.0060287
1.9879431
1.9815571
1.962006
1.9206658
1.8296952
12.997917
14.121235
12.265286
11.800656
10.868374
10.479796
9.8378222
9.5368394
9.055801
8.8300496
8.4494809
8.2435633
7.9332772
7.7497068
7.504771
7.3054494
7.1099074
6.9603762
6.7832651
6.6591383
6.5174247
6.3633341
6.2354009
6.1446301
6.0214705
5.9014476
5.7830032
5.7283742
5.6351436
5.5431363
5.4077766
5.6584882
1.9215461
0.90941702
0.74164422
0.70437185
0.73052723
0.77169445
0.75484084
0.69149171
0.66272876
0.66604848
0.69122627
0.69559076
0.67966021
0.66499888
0.67998649
0.69006535
0.68159124
0.66551833
0.67151456
0.68347711
0.68150698
0.66643352
6.2748325
2.1014833
0.96857966
0.76886304
0.71877659
0.73448335
0.77993052
0.78082178
0.72750094
0.68164554
0.67889319
0.70961311
0.72542359
0.71575328
0.68794974
0.69397404
0.71618558
0.71578205
0.70247733
0.70489476
0.71583875
0.71584249
0.70346102
6.9020151
2.3906557
1.0739667
0.81717727
0.74037773
0.74111915
0.78053312
0.80094412
0.77687657
0.72176372
0.70272513
0.72616282
0.7507097
0.74636749
0.71663181
0.71186765
0.73462288
0.7479935
0.74653176
0.73029914
0.73481864
0.74203733
0.73914741
7.4954913
2.6122311
1.1657843
0.86887992
0.7797744
0.75873744
0.79131449
0.82686263
0.81780873
0.77028596
0.72874255
0.74046003
0.77899343
0.78109115
0.7714156
0.7488867
0.76378128
0.78134433
0.78349777
0.76986355
0.76131332
0.76784005
0.77147474
8.2483137
2.8709151
1.2960588
0.95425355
0.83209786
0.79450202
0.82125458
0.87292313
0.86167255
0.81852696
0.76877899
0.76678774
0.80392815
0.81556366
0.82139218
0.80486034
0.80942838
0.82714353
0.82504637
0.81923353
0.803334
0.81023547
0.81850812
9.2733166
3.1705897
1.4411221
1.0580644
0.9115354
0.85222149
0.86370489
0.93059016
0.92070271
0.87828592
0.82450722
0.79808769
0.84114075
0.85851463
0.86573883
0.86133959
0.84192339
0.85913829
0.86174102
0.86430109
0.85828334
0.85344062
0.86142126
10.269835
3.5501692
1.6150201
1.1896767
1.004357
0.92229809
0.90888686
0.98131842
0.9797934
0.94111277
0.88577723
0.84649101
0.87811476
0.90937714
0.90036169
0.89379941
0.86776893
0.87413334
0.89122825
0.89273725
0.89871818
0.89633028
0.90043762
11.000884
4.0112986
1.8205622
1.3358157
1.117709
1.0015776
0.96435534
1.0261622
1.0264133
0.99484629
0.96658453
0.91181403
0.92699731
0.97620327
0.96325609
0.95369638
0.93319532
0.92048608
0.94376125
0.94449376
0.95225949
0.95515556
0.95256462
11.829697
4.6775665
2.150002
1.5518367
1.2739451
1.1208583
1.0584349
1.1207118
1.1150038
1.0786939
1.0640252
1.0070603
0.99098386
1.0427355
1.0433594
1.032821
1.0295578
1.0098855
1.0218762
1.0349832
1.0244768
1.0208842
1.0005281
13.214839
5.5814024
2.6539962
1.8667154
1.507444
1.3255303
1.2324243
1.2918462
1.266488
1.1920485
1.151378
1.0815368
1.0449534
1.0899895
1.1049016
1.0930322
1.095605
1.0773615
1.0852428
1.1056724
1.0868903
1.0688874
1.0590542
14.792633
6.6080255
3.2572657
2.2366095
1.8018787
1.5993266
1.4637785
1.4823273
1.4192545
1.2891218
1.2131741
1.1367567
1.0886495
1.1222509
1.150201
1.1473421
1.1476471
1.1499829
1.1462654
1.1628145
1.1470883
1.1207313
1.1075071
16.060313
7.5149831
3.8220203
2.5763248
2.0446257
1.8114058
1.6493242
1.6388735
1.5644675
1.3929921
1.2804379
1.2071235
1.1546479
1.1750425
1.2386093
1.241819
1.2299282
1.2385547
1.2299215
1.2407576
1.2573255
1.2310763
1.201844
16.74658
8.1895176
4.2624149
2.8531794
2.285954
2.0547629
1.8911573
1.8717927
1.7937904
1.5741392
1.4091339
1.3441352
1.29009
1.2945626
1.360899
1.353434
1.3108755
1.3014304
1.2844853
1.2923416
1.318615
1.307612
1.2697404
17.008217
8.5753768
4.4756708
3.0964253
2.6692659
2.5514542
2.3681314
2.3339197
2.2408496
1.9510195
1.6583041
1.5750496
1.4934744
1.4698936
1.5279023
1.5114254
1.4429869
1.3911858
1.3653599
1.3621797
1.4055712
1.4095942
1.3895079
17.329923
9.0687475
4.6968665
3.3303997
3.0289224
3.0232943
2.8992381
2.822153
2.6912291
2.3247677
1.9041444
1.773836
1.6769898
1.63483
1.6876258
1.6868227
1.6296905
1.5578024
1.5345529
1.4900633
1.4821219
1.4808162
1.4575559
17.914634
9.6217424
4.9537158
3.5461148
3.2795706
3.3238954
3.29921
3.1936428
2.9996042
2.5236817
2.0416862
1.8810049
1.7941668
1.7565458
1.7948449
1.797101
1.7411326
1.6581381
1.6456489
1.6085729
1.6315795
1.6294223
1.5976513
18.5279
10.519844
5.317995
3.8049005
3.5634343
3.7581589
3.82028
3.7081593
3.4014511
2.7170819
2.1389658
1.9590953
1.8829117
1.8528697
1.8798595
1.879647
1.8348191
1.7792769
1.7966192
1.7794122
1.7853977
1.7841614
1.7444698
18.8206
11.189734
5.6783956
4.0679064
3.8699141
4.3409271
4.8568283
4.8436723
4.2981667
3.0490024
2.3017097
2.1150818
2.0655495
2.0489214
2.0772883
2.0759013
1.9998813
1.8830796
1.9132145
1.9186011
1.9433156
1.9398566
1.8635357
18.731117
11.536475
5.8860705
4.2389738
4.0901504
4.7606327
5.6488091
5.7568691
4.9363802
3.1716823
2.4517966
2.3633986
2.4477716
2.4826797
2.4565886
2.3579655
2.0689892
1.972944
2.0659916
2.0840264
2.0784404
2.0629121
1.9402584
18.19236
11.568991
5.9570794
4.3629095
4.2731711
5.0990009
6.1710432
6.2970605
5.2535446
3.2472501
2.5748502
2.5629299
2.7829817
2.8712908
2.7720599
2.5123157
2.1121069
2.0390243
2.1961447
2.2707544
2.3025613
2.2268028
1.9728256
17.273904
11.441909
5.9911569
4.5528341
4.5475847
5.5509106
6.6588791
6.715476
5.4418477
3.3132989
2.6768989
2.7119863
2.9773475
3.0623107
2.911389
2.5224298
2.1967024
2.2146554
2.5201245
2.6161174
2.5178338
2.2212935
2.0368139
16.065011
11.193844
5.9958399
4.7877458
4.8565441
6.0345213
7.0580729
7.0585379
5.5524712
3.3894075
2.7878292
2.8928996
3.243266
3.3486762
3.1260957
2.5426912
2.3508513
2.5670159
2.8394902
2.8528824
2.637175
2.2422708
2.1156629
14.690897
10.78237
5.983031
4.9949002
5.157707
6.4986926
7.427534
7.1188418
5.4531317
3.5038517
3.0422035
3.4252295
3.8635694
3.8787266
3.1157689
2.5946425
2.5164133
2.9207576
3.1325617
3.1466051
2.5669873
2.3141926
2.2815092
13.384499
10.226835
5.9666835
5.1863308
5.4656619
6.8467818
7.4222026
6.963035
5.0546665
3.6410713
3.4439783
4.0519952
4.4485499
4.0824594
3.0884126
2.7911803
2.902183
3.4700919
3.5314313
3.0664162
2.6137182
2.4833069
2.7155102
12.296585
9.5995614
5.9597863
5.3137615
5.6502886
6.8305893
7.2323236
6.4951799
4.5946636
3.8329879
3.931464
4.6968363
4.9428311
3.9970373
3.2490656
3.151428
3.6662407
3.8136613
3.5241682
3.0195028
2.8309728
2.8843417
3.1113373
11.538748
8.9434008
5.9595107
5.397224
5.7506161
6.6287046
6.8326071
5.7935377
4.4120631
4.0866211
4.439669
4.905981
4.9100167
3.9363645
3.6213617
3.7721245
4.0036285
3.9708944
3.4280304
3.2186674
3.2222236
3.3080888
3.3548294
10.967269
8.3257365
5.8853681
5.4005264
5.7209644
6.2905059
6.2867201
5.0937847
4.4167674
4.3449476
4.6423187
4.8029657
4.5377959
4.054135
3.9713009
4.0704389
4.1006368
3.9492865
3.6405084
3.6215793
3.5134581
3.5247626
3.5397503
10.227443
7.7607289
5.69565
5.3263691
5.6319578
5.9272435
5.6875113
4.745637
4.4608083
4.4588469
4.5694855
4.5490075
4.2616134
4.1487337
4.1360594
4.1712965
4.1490278
3.9850392
3.8370336
3.7411268
3.7029386
3.7606688
3.9398183
9.2822782
7.1196454
5.3825449
5.1655389
5.4933087
5.6743693
5.1954222
4.5328367
4.4087629
4.4391335
4.4424731
4.3045187
4.1492037
4.1532453
4.2106472
4.2205878
4.1340658
4.0056685
3.9483296
3.9245383
3.9720782
4.1130952
4.3795154
8.2181837
6.5495499
5.2075203
5.0762976
5.2060244
5.152568
4.6361594
4.3939025
4.3593707
4.3727453
4.3279688
4.1455917
4.1233728
4.1830137
4.2219823
4.1784242
4.0710448
4.0380937
4.0866685
4.1573524
4.1913604
4.3571072
4.7271756
7.2646363
6.1421859
4.9781352
4.823068
4.7830435
4.6459933
4.3322437
4.2787308
4.3110722
4.303109
4.1859956
4.1380073
4.1927245
4.2190734
4.1550083
4.0245866
4.0043541
4.1428891
4.2795696
4.3269685
4.3926157
4.7645048
5.4661625
6.6493011
5.7826966
4.742677
4.6021247
4.5631889
4.2930574
4.0886537
4.1027118
4.1787302
4.1757298
4.117874
4.1131977
4.1657163
4.1217453
3.9698599
3.8985426
3.9773106
4.2122122
4.3672128
4.5073536
4.8200334
5.6635394
6.6728118
6.2020624
5.4001228
4.5795836
4.4371845
4.3069674
4.0425794
3.986576
4.0639295
4.0862662
3.9639954
3.9271466
4.0374717
4.0847258
4.0234714
3.8959598
3.8686325
4.1247469
4.3534307
4.5140667
4.7705291
5.5662212
6.7203859
7.2410188
5.6931766
5.1009645
4.3455445
4.2087768
4.0643411
3.9121143
3.9145802
3.9516844
3.8474243
3.7358593
3.7492371
3.902469
3.9620435
3.8874659
3.8497889
3.9875472
4.3198058
4.4793375
4.6753208
5.3057326
6.3783844
6.9053009
7.1567491
5.108348
4.7426458
4.0848519
3.9562551
3.7778799
3.7073628
3.7592126
3.7784876
3.693833
3.6348443
3.6738434
3.7761705
3.8275262
3.8506031
3.9112237
4.1724437
4.5009293
4.7123578
5.1181936
5.7776454
6.383801
6.6369285
6.7226567
4.8145701
4.5700106
3.9390538
3.7741191
3.561383
3.4757046
3.5679408
3.6549466
3.6090229
3.5340855
3.5730443
3.7029105
3.7349633
3.6992547
3.7123031
4.000856
4.4046109
4.6667103
5.0355245
5.6272246
6.0783231
6.1221098
5.96015
4.8600897
4.4107589
3.8042231
3.6249428
3.4102553
3.320428
3.4049358
3.4964062
3.4869681
3.4313372
3.4508554
3.6024775
3.6611587
3.6074759
3.5705326
3.7572763
4.0702499
4.350424
4.728132
5.3079462
5.672592
5.6614086
5.4446108
4.9603087
4.2334349
3.6620345
3.5051709
3.3087049
3.2197216
3.302581
3.3751948
3.3590776
3.2974604
3.2970641
3.4351415
3.5116065
3.4992011
3.4594512
3.5941337
3.8385851
4.1046621
4.4858665
5.0495269
5.3177176
5.2338787
4.9512565
4.9955186
4.0753197
3.5081272
3.3643911
3.1923978
3.1187265
3.2011713
3.2711103
3.2566836
3.1813528
3.1502208
3.2429719
3.3182085
3.3464033
3.3413783
3.4683309
3.676084
3.9230561
4.3155879
4.8513203
5.0027522
4.8221715
4.5124444
4.9508713
3.9579104
3.3779675
3.2248282
3.0490584
2.975735
3.0523785
3.1330233
3.138031
3.0701011
3.0317574
3.0959877
3.1588596
3.1948589
3.2123242
3.3331498
3.5128487
3.747715
4.1719784
4.6489247
4.6969604
4.4537909
4.1460075
4.9543768
3.8570646
3.256233
3.0884988
2.9173326
2.8368425
2.8951577
2.9742615
2.999996
2.9591872
2.9362348
2.9924023
3.0442044
3.0783492
3.0988126
3.2035622
3.3513501
3.5728444
4.0275797
4.4009291
4.3835367
4.129292
3.8359133
5.0307224
3.7402493
3.1295261
2.9722565
2.8137047
2.7365077
2.7780751
2.8444661
2.8693177
2.8424381
2.831966
2.8824641
2.93053
2.9636418
2.9922535
3.0836015
3.2078541
3.4296202
3.9058211
4.1629921
4.0935577
3.8511113
3.5572195
5.0775215
3.6340844
3.0040101
2.8493908
2.7076513
2.6419789
2.6812698
2.7426992
2.7610079
2.7295555
2.7156072
2.7527963
2.7927096
2.8276959
2.8604034
2.9528873
3.0820795
3.3325471
3.795012
3.9459403
3.8335023
3.6018109
3.2719201
5.0700387
3.5464537
2.8852459
2.7282228
2.5993819
2.5376194
2.5681321
2.626883
2.6523704
2.6284039
2.6138803
2.6392966
2.6684536
2.7025272
2.7373886
2.8305066
2.9703795
3.2584678
3.651708
3.718548
3.585497
3.3626467
2.9995964
5.0816088
3.4797886
2.7815337
2.6224982
2.4911573
2.4302531
2.4508459
2.5065894
2.5369664
2.525845
2.5166122
2.5433044
2.5782483
2.608201
2.6461433
2.7358128
2.8752099
3.1709809
3.4738126
3.4805611
3.3416067
3.1238025
2.7574546
5.1304769
3.4206373
2.6823839
2.5109644
2.3968791
2.3360127
2.3521095
2.404181
2.437277
2.4282454
2.4201483
2.4461614
2.4801396
2.5119653
2.5438219
2.6260968
2.7684394
3.0624069
3.272081
3.2545769
3.1339949
2.9322186
2.567482
5.1495321
3.3988707
2.6001065
2.4286978
2.3161764
2.2551577
2.2622984
2.3062996
2.3409791
2.3393023
2.3334035
2.35586
2.3900449
2.4146658
2.4410787
2.5150582
2.6454381
2.9073169
3.0989015
3.0797905
2.9792881
2.7905925
2.4353504
5.1002535
3.4015902
2.5334927
2.3369214
2.2266768
2.1648059
2.1691773
2.2084316
2.2429118
2.2412939
2.2343254
2.2548905
2.2977317
2.3240054
2.3497109
2.4209178
2.5402423
2.7763693
2.9539016
2.9432991
2.8559017
2.6766065
2.3320533
5.1113719
3.4146292
2.465546
2.2493741
2.1479065
2.0830329
2.0822775
2.1142303
2.159264
2.1591842
2.1507386
2.1638725
2.2054715
2.239522
2.2578819
2.3150135
2.42696
2.6535678
2.8165367
2.8131638
2.7485181
2.5927044
2.2730678
5.1025266
3.4705751
2.4404563
2.197947
2.0814075
2.0165428
2.0059968
2.0271461
2.0720334
2.0879462
2.0809217
2.0880011
2.1274877
2.160644
2.1805771
2.2250291
2.3170079
2.492589
2.6718987
2.6821628
2.6446857
2.5306563
2.2833848
5.0007738
3.4940098
2.4456264
2.121737
2.0168643
1.9450542
1.9353729
1.9465789
1.991716
2.004273
2.0023219
2.0050433
2.0310965
2.0788202
2.094967
2.1313001
2.2085169
2.3721073
2.5255127
2.5706481
2.5576524
2.492471
2.3206243
4.9487034
3.5213966
2.4809004
2.0970142
1.9663212
1.8899798
1.8602878
1.8690998
1.907358
1.9417474
1.9390084
1.9383413
1.9514835
2.0004661
2.0196603
2.0436486
2.0988213
2.2302393
2.4068698
2.4627334
2.4721751
2.4473809
2.3510686
4.9900503
3.6458391
2.5774924
2.107226
1.9252238
1.8446535
1.8083395
1.7990427
1.816873
1.8648379
1.8770405
1.8789982
1.8865681
1.9173455
1.9638749
1.9782123
2.0074438
2.0825684
2.2583143
2.3514904
2.3655805
2.3601033
2.3329155
5.0285169
3.537025
2.6548434
2.1346584
1.9173658
1.8018495
1.7558095
1.7472893
1.7518367
1.7774727
1.8137611
1.8135502
1.8161381
1.8309406
1.8712213
1.9173361
1.9417504
1.9840771
2.0922173
2.2355627
2.2898963
2.2878724
2.2813412
5.1250694
3.5994452
2.9163317
2.2278803
1.9348804
1.7961333
1.710372
1.6911802
1.6944917
1.7083004
1.7431934
1.7665277
1.7666721
1.7707399
1.7879103
1.8271538
1.8749921
1.9090286
1.9683884
2.0871755
2.1926821
2.224732
2.2349791
5.4112665
3.6577369
3.0261124
2.4431809
2.0014023
1.8090353
1.7048543
1.6386661
1.6329198
1.6411929
1.6634366
1.7002703
1.7196364
1.7216773
1.7256387
1.7403372
1.7728883
1.8203302
1.8583231
1.9362508
2.0337202
2.109765
2.1491301
5.4914963
3.2621509
2.9967061
2.7239822
2.1617649
1.8625012
1.7150331
1.6306162
1.5785576
1.5738793
1.583131
1.608237
1.6435171
1.6697089
1.6818178
1.6899213
1.704567
1.7375851
1.7749857
1.8205732
1.9008084
1.9619656
2.0448788
5.5504986
3.2723808
2.9154757
2.7964472
2.5492469
2.0652131
1.7791447
1.6453218
1.5717286
1.5294722
1.5256558
1.5358972
1.5611979
1.5959121
1.6248955
1.6478062
1.6636057
1.6825329
1.7145295
1.7438041
1.8048806
1.8455119
1.936185
6.6020187
3.7441727
2.7093545
2.71308
2.6213449
2.4031258
1.9873714
1.7192855
1.5858279
1.5163781
1.4846047
1.4781603
1.4852685
1.5014982
1.5291519
1.55847
1.585387
1.6023155
1.6347099
1.657534
1.7083722
1.7421125
1.8301528
7.752968
3.8289805
2.5483815
2.4572629
2.5345733
2.4372445
2.1881351
1.8467107
1.6301292
1.5154242
1.4551097
1.4265617
1.4212822
1.425299
1.437951
1.4563333
1.4898117
1.508674
1.5445278
1.5638651
1.6073124
1.6353268
1.7166488
8.3341968
3.6452088
2.3784506
2.2260788
2.3049646
2.3668742
2.2208345
1.9107759
1.657
1.5130216
1.4380329
1.4002104
1.3881251
1.3893208
1.3948012
1.405658
1.4322128
1.4474104
1.4783444
1.4944655
1.5262643
1.5460137
1.6076351
8.5896057
3.2169396
2.0397429
2.0002545
2.1033833
2.1832725
2.1576543
1.9232795
1.6565731
1.5041642
1.4222016
1.3808607
1.3650989
1.3619744
1.3646048
1.3692642
1.3824249
1.3929372
1.4181272
1.4323636
1.4610765
1.4778334
1.5280698
8.6180668
2.7909142
1.7131994
1.7705095
1.9508622
2.0376484
2.017467
1.868645
1.6263043
1.4727989
1.3855362
1.3347464
1.3090299
1.2981575
1.2967264
1.2973602
1.303455
1.3110753
1.3307635
1.3436249
1.3729121
1.3887843
1.4347671
8.4667963
2.4634429
1.5394144
1.5904164
1.7390646
1.8389645
1.8103995
1.6959674
1.5132035
1.3741578
1.2944687
1.2518999
1.2322168
1.2268584
1.2267703
1.2284094
1.2352584
1.2415624
1.2574826
1.2664178
1.287683
1.2985672
1.3317047
8.2093151
2.2552254
1.4227928
1.4298772
1.4910652
1.5451772
1.5440648
1.4582412
1.3610786
1.2884119
1.2361819
1.2076052
1.1945284
1.1925262
1.1934427
1.1957665
1.2037384
1.2091194
1.2220045
1.22818
1.2386022
1.2441789
1.2647359
7.9451525
2.1372249
1.2746711
1.2496192
1.2514294
1.2533899
1.2553571
1.2320619
1.207635
1.1918891
1.1792637
1.165491
1.158292
1.1561502
1.1559209
1.1553813
1.1579274
1.1583651
1.1611781
1.1617285
1.1645528
1.1680497
1.1886975
7.697699
2.059057
1.1166567
1.0653844
1.0442731
1.0237876
1.019676
1.0242363
1.0341022
1.044424
1.0546841
1.0618209
1.0653216
1.0649026
1.0638784
1.0612746
1.0591587
1.0564477
1.0553035
1.0518243
1.0527799
1.053071
1.0710811
7.4627898
1.9968607
1.0036145
0.92998933
0.90995862
0.89886074
0.90061862
0.91298452
0.93027874
0.94647733
0.9605893
0.97137695
0.98039257
0.98626604
0.99100114
0.99289173
0.99410365
0.99279736
0.990489
0.98561753
0.98322964
0.97624923
0.98452023
7.2592327
1.9154306
0.96509181
0.8831068
0.87332087
0.87541679
0.88649537
0.9021993
0.92106916
0.93758737
0.95120384
0.96192488
0.97113551
0.97766514
0.98332807
0.986448
0.98839369
0.98775992
0.98560254
0.9805012
0.97672008
0.96712371
0.96483155
7.077938
1.7651576
0.9721519
0.89543954
0.89607548
0.9110368
0.93456052
0.95790348
0.98310065
1.0021284
1.013161
1.017023
1.0174863
1.0154704
1.0132303
1.00996
1.0071277
1.0033096
0.99967574
0.99253515
0.98799944
0.97699358
0.97077481
6.9394552
1.7530973
1.0563036
0.98815287
1.0355973
1.0919184
1.1403589
1.1653306
1.1654145
1.1480385
1.1135581
1.0793147
1.0525573
1.0321217
1.0179011
1.0072116
0.99944412
0.99197872
0.98707347
0.97916053
0.97470271
0.96421627
0.97868648
6.8186116
2.5165952
1.4635317
1.3335752
1.4710659
1.5740045
1.582343
1.4954285
1.3563025
1.2229362
1.1194505
1.0489335
0.99262518
0.94733983
0.91293621
0.88651807
0.86963663
0.85725732
0.85204938
0.84702449
0.84671185
0.84504954
0.85605014
6.8992604
3.9632361
2.559487
2.1764623
2.0979915
2.0390439
1.8997766
1.6894636
1.4492541
1.2331166
1.0646839
0.92086939
0.81273439
0.73967473
0.69354833
0.66495488
0.6490267
0.63949147
0.6355478
0.63336563
0.63399469
0.63605698
0.65827828
7.6827922
4.2703187
3.0318307
2.6044198
2.3465469
2.1288511
1.8832899
1.6033655
1.3235037
1.0756153
0.8685565
0.73233057
0.64986815
0.59878709
0.56671647
0.54581459
0.53193453
0.52186351
0.51572798
0.51315666
0.51342822
0.51475274
0.52909018
8.7969287
4.4283384
3.1121347
2.5616769
2.1525985
1.7672866
1.4024886
1.1052437
0.88810788
0.73866741
0.64225086
0.58075518
0.54142866
0.51398826
0.49446586
0.47856641
0.46787322
0.46057168
0.45787498
0.45755886
0.45872629
0.46128556
0.47167024
9.6344966
4.6360502
2.9758205
2.085307
1.4881953
1.1042238
0.86640801
0.71747722
0.62257955
0.56271856
0.52382056
0.49806908
0.47902128
0.46295774
0.45120191
0.44273181
0.43876243
0.43736468
0.43781117
0.44048947
0.44517876
0.44921321
0.46154441
10.316731
4.7120685
2.6084733
1.560797
1.0375854
0.77450417
0.63672703
0.55952035
0.51448578
0.48717229
0.46844489
0.45497072
0.44405044
0.43625856
0.43198719
0.43033496
0.43057883
0.43206703
0.43623579
0.44153107
0.44621608
0.45718751
0.46975422
10.860631
4.687948
2.2318603
1.2164891
0.80776116
0.6291084
0.54273604
0.49753703
0.47129191
0.45483282
0.44330154
0.43494408
0.42957928
0.42723429
0.42709541
0.42754663
0.43002243
0.43355313
0.44221552
0.4484678
0.46088748
0.48007272
0.48181923
11.249424
4.5521356
1.8928818
1.0010215
0.68995564
0.56238673
0.50288787
0.47212282
0.4537673
0.4413722
0.43255141
0.42709762
0.42507406
0.42503309
0.42572959
0.42764113
0.43280501
0.43974091
0.45195266
0.46098748
0.48162664
0.48896442
0.48732742
11.518527
4.3286955
1.6415381
0.87585489
0.63043166
0.53322913
0.48840376
0.46422516
0.4484488
0.43711732
0.42945093
0.42558749
0.42514012
0.42552461
0.42691566
0.43064426
0.43910652
0.44908311
0.46314028
0.47548013
0.49352728
0.4976572
0.51998198
11.65649
4.0685795
1.467946
0.80654072
0.6034485
0.52393695
0.48655793
0.46494133
0.44981568
0.43860233
0.43142447
0.42835471
0.42841226
0.42897904
0.43128342
0.43681377
0.44735538
0.4595903
0.47460653
0.48798069
0.50422784
0.51586773
0.58408544
11.681778
3.8325655
1.3556651
0.76946816
0.59327487
0.52434346
0.49150255
0.47117576
0.45557592
0.4436716
0.43653944
0.43394635
0.43393058
0.43451647
0.43751545
0.44423143
0.45567728
0.46875407
0.48441212
0.49985074
0.52159877
0.54718826
0.63398803
11.624073
3.603034
1.2793316
0.74910125
0.59167466
0.53004817
0.50036475
0.48044821
0.46414829
0.45136425
0.44376524
0.44105043
0.44075836
0.44124484
0.44423155
0.45155434
0.46308251
0.47688859
0.49328643
0.51202698
0.5391769
0.57544605
0.64788928
11.494765
3.3999735
1.2251376
0.73812282
0.59477776
0.5389668
0.51124846
0.49122991
0.47401972
0.46028163
0.45160567
0.44802846
0.4472401
0.44761042
0.44999827
0.456107
0.46646988
0.4799046
0.49671666
0.51790043
0.54680477
0.58511795
0.64502296
11.31526
3.2035581
1.1822998
0.73142452
0.59938429
0.54776897
0.52148776
0.50131661
0.48330476
0.46854196
0.45875279
0.45422684
0.45270393
0.45261629
0.45388096
0.45853999
0.46689529
0.47957173
0.49626456
0.51707399
0.54480951
0.58146198
0.63216068
11.093189
2.9990189
1.1414622
0.72640194
0.60509294
0.55748361
0.53230228
0.51136136
0.49201531
0.47657951
0.46551391
0.45991512
0.45716366
0.45618871
0.45652073
0.4589253
0.46519446
0.4750138
0.4884508
0.50667985
0.53197124
0.56513455
0.60679018
10.846293
2.8003308
1.1058348
0.72312859
0.61088799
0.56650605
0.54172198
0.52072748
0.50056382
0.48318196
0.47104915
0.46402393
0.4601663
0.45813149
0.45788689
0.45887808
0.46173818
0.46790678
0.47831527
0.49312497
0.51277106
0.53746009
0.57092225
10.568456
2.5517876
1.0596106
0.71756425
0.61533505
0.57406617
0.55038194
0.52894657
0.50667566
0.48824712
0.47435036
0.46561099
0.46124453
0.45783951
0.45708739
0.45734145
0.45902023
0.46279522
0.46785834
0.47667616
0.48977674
0.50967988
0.53475822
10.277695
2.2611448
1.0087925
0.71363484
0.62119764
0.582717
0.55950097
0.53737907
0.51355297
0.49310124
0.47649113
0.46590572
0.46031808
0.45511959
0.45285667
0.45228278
0.45273222
0.45377964
0.45598835
0.46110475
0.47075096
0.48445302
0.49741458
9.9643154
1.9515477
0.96206721
0.71249659
0.62898277
0.59317313
0.57036202
0.54803408
0.52228789
0.4990643
0.4803566
0.46663378
0.45891087
0.45153077
0.44576113
0.44214012
0.44160199
0.44259696
0.44535086
0.44850419
0.45106603
0.4567885
0.46625579
9.6429055
1.8059503
0.94250297
0.71540512
0.63928022
0.60652027
0.5846209
0.5628034
0.53512878
0.50913625
0.48730958
0.46930509
0.45942343
0.45039234
0.44301824
0.43517738
0.43168899
0.43060719
0.42956944
0.429667
0.43063698
0.4356389
0.44390706
9.3271834
1.7780435
0.9392499
0.72348115
0.65156735
0.62045353
0.59973714
0.57962576
0.55131066
0.52350367
0.49906391
0.47641018
0.46232365
0.45117717
0.44275974
0.43352374
0.4239439
0.41851684
0.41572556
0.41578721
0.41657638
0.41689983
0.41650282
9.0512508
1.7554561
0.93672152
0.72987201
0.66227632
0.6329861
0.61339952