/*--------------------------------*- C++ -*----------------------------------*\
| =========                 |                                                 |
| \\      /  F ield         | OpenFOAM: The Open Source CFD Toolbox           |
|  \\    /   O peration     | Version:  2406                                  |
|   \\  /    A nd           | Website:  www.openfoam.com                      |
|    \\/     M anipulation  |                                                 |
\*---------------------------------------------------------------------------*/
FoamFile
{
    version     2.0;
    format      ascii;
    arch        "LSB;label=32;scalar=64";
    class       volScalarField;
    location    "80";
    object      p_0;
}
// * * * * * * * * * * * * * * * * * * * * * * * * * * * * * * * * * * * * * //

dimensions      [1 -1 -2 0 0 0 0];

internalField   nonuniform List<scalar> 
20580
(
1.0041392
1.0023976
1.0053155
1.0066067
1.0063927
1.0080657
1.0085731
1.009038
1.0087503
1.0079569
1.0087777
1.0076543
1.0084559
1.0073301
1.0096685
1.0086132
1.0081895
1.0127951
1.0071932
1.0073858
1.0134046
1.0099873
1.0063876
1.0128268
1.0181861
1.0064196
1.0048519
1.0108426
1.0042985
1.0085894
1.0313427
1.0043571
1.0026873
1.0053161
1.0068668
1.0068955
1.0079793
1.0085107
1.0094238
1.0089453
1.0073028
1.008865
1.0078468
1.0076519
1.0077912
1.0094975
1.0076057
1.0094915
1.0127428
1.0052676
1.0100979
1.014649
1.0076659
1.0082853
1.0154973
1.0175941
1.0015514
0.9988058
1.0141022
1.0126816
1.0046813
1.0181397
1.0043196
1.0039164
1.0050881
1.0069753
1.0076928
1.0082712
1.0090371
1.0098191
1.0090217
1.0073329
1.0084255
1.0083154
1.0069256
1.0083265
1.0091811
1.0069163
1.0105053
1.0124244
1.004315
1.0118782
1.0143536
1.0055792
1.0086564
1.0150964
1.0163578
1.0004073
0.99597588
1.0156976
1.0212665
1.0033625
0.99990781
1.0039806
1.0056381
1.0048385
1.0067998
1.0084054
1.0089109
1.0097782
1.0098329
1.008865
1.0078957
1.0078378
1.0086567
1.0067453
1.0087848
1.0088679
1.0067305
1.0109551
1.0113426
1.0046083
1.0131122
1.0123529
1.0036349
1.0091336
1.0122574
1.0132231
1.0034672
0.99748226
1.0152433
1.0278273
1.0081007
0.98743549
1.0034111
1.0072129
1.0049052
1.0065757
1.0088157
1.0094791
1.0101666
1.0094045
1.008596
1.0087346
1.0075499
1.008501
1.007292
1.0089462
1.0088059
1.0072016
1.0110863
1.0097898
1.0061312
1.0134138
1.0094814
1.0030332
1.0109033
1.0085093
1.0083309
1.0086241
1.003152
1.0122974
1.0275264
1.0179192
0.98998905
1.0029292
1.0079528
1.0052219
1.0061853
1.0087338
1.0096933
1.0099934
1.0088534
1.0082998
1.009256
1.0077413
1.0078981
1.0080523
1.0086959
1.0083884
1.0080101
1.0107633
1.0080246
1.0084835
1.0133485
1.0066461
1.0039167
1.0141081
1.0064504
1.002876
1.0125926
1.0119062
1.0083931
1.0176973
1.023644
1.00572
1.0029363
1.0076127
1.0055188
1.0055012
1.0081788
1.0097136
1.0096303
1.0085813
1.0081748
1.0089081
1.0084368
1.0072622
1.0088774
1.0083565
1.007861
1.009218
1.0102041
1.0065424
1.0110386
1.0130033
1.0045596
1.0055073
1.0177165
1.007459
0.99896832
1.0136029
1.0203943
1.0067432
1.0035754
1.0172497
1.0222435
1.0033836
1.0063196
1.0056108
1.0052536
1.0076186
1.0094522
1.0093426
1.0088532
1.0083808
1.0081998
1.0087734
1.0068094
1.0092521
1.0079403
1.0072594
1.0099239
1.0097439
1.0057762
1.0131041
1.0119833
1.0040132
1.0075938
1.020009
1.0102593
0.99809949
1.0120008
1.024847
1.0091793
0.99345268
1.0026305
1.0252946
1.0039463
1.0045436
1.005392
1.0059224
1.007445
1.0089841
1.0094207
1.0094838
1.0086058
1.007836
1.0083886
1.0071111
1.0091328
1.0075541
1.0066652
1.009799
1.0094195
1.0055705
1.0140692
1.0105289
1.004669
1.0098149
1.0189705
1.0123061
1.0008683
1.0092765
1.0232652
1.0140558
0.99260558
0.99122689
1.0147644
1.0043988
1.0030963
1.0050405
1.0069701
1.007624
1.0086648
1.0098862
1.0099576
1.0087765
1.0078326
1.0078928
1.0078638
1.008337
1.0073055
1.0066123
1.0092902
1.0091756
1.0065263
1.0138086
1.0088277
1.0064486
1.0119396
1.014481
1.0121298
1.0061182
1.0076141
1.0163247
1.0169217
1.0010096
0.99153006
1.0006485
1.0046205
1.0027425
1.004856
1.0078282
1.008026
1.0085626
1.0102938
1.0098953
1.0089972
1.0082246
1.007369
1.0082588
1.0074583
1.0072358
1.0074311
1.0086447
1.0086948
1.0085034
1.0128256
1.006504
1.0090162
1.0144654
1.0085933
1.0091806
1.0115714
1.0080834
1.0073363
1.0138971
1.0136541
1.0026088
0.995802
1.0043053
1.0035839
1.0051196
1.0083297
1.008469
1.0087961
1.0102901
1.0093971
1.0089893
1.0086956
1.0071282
1.0083462
1.0069078
1.007397
1.0084031
1.0078852
1.0077584
1.0105131
1.0116558
1.0046656
1.0108722
1.0170437
1.0040272
1.0042883
1.0156606
1.011108
1.0004098
1.0054183
1.0205013
1.0186936
1.0024616
1.0036331
1.0052191
1.0056712
1.0079792
1.0085734
1.0093527
1.0099111
1.0089401
1.0088038
1.008744
1.0074301
1.0081938
1.0066901
1.0072796
1.0090754
1.0074389
1.0068796
1.0119816
1.0102056
1.004503
1.0116547
1.0188601
1.00232
1.0001858
1.0175171
1.0157644
0.99867538
0.99688294
1.0169105
1.0284731
1.0143625
1.003086
1.0069215
1.0059732
1.0067033
1.0082013
1.0099084
1.0094806
1.0089564
1.008839
1.008391
1.0079083
1.0080253
1.0070017
1.0070585
1.0093905
1.0076674
1.0067836
1.01251
1.0086249
1.0055373
1.0120212
1.0188442
1.0037255
0.99965674
1.0166345
1.019155
1.0022781
0.99497253
1.0067303
1.0250194
1.0219175
1.0027628
1.0079741
1.0057615
1.0054289
1.0078076
1.0100785
1.0092692
1.0094772
1.0090533
1.0078494
1.0081532
1.0079984
1.0073654
1.0072332
1.0089695
1.0082116
1.0070542
1.0120915
1.007471
1.0075844
1.0120224
1.0160656
1.0068784
1.003068
1.0137905
1.018521
1.0091041
1.0001476
1.0008922
1.0109623
1.0185089
1.0027617
1.0077755
1.0053748
1.005017
1.0076217
1.0097867
1.0094018
1.0101339
1.0091013
1.0073745
1.0081424
1.0079616
1.0076199
1.0077935
1.0079493
1.0083519
1.0075961
1.0109941
1.006244
1.010913
1.0119913
1.011046
1.0094987
1.0094663
1.0112661
1.0126947
1.0142573
1.0097111
1.0032553
0.9982305
1.0059575
1.0035014
1.0062603
1.0048042
1.0055849
1.0076908
1.009228
1.0100554
1.0104374
1.0091308
1.0074652
1.007972
1.0077725
1.0076223
1.0083646
1.0068913
1.0080014
1.0084465
1.0098046
1.0050284
1.013742
1.0126167
1.0061279
1.0100341
1.0160671
1.0106852
1.0045116
1.0126981
1.0197822
1.0098389
0.99515187
0.99316422
1.0043587
1.0043257
1.0048151
1.0067927
1.0082237
1.0086885
1.0105727
1.0100909
1.0088908
1.0082673
1.0079167
1.0073025
1.0074292
1.0087321
1.006206
1.0076827
1.0091255
1.0089208
1.0047263
1.0146425
1.0135522
1.0032322
1.0086572
1.0198872
1.0118626
0.99889619
1.0064724
1.0229204
1.0178127
0.99875243
0.98918314
1.0048417
1.0029847
1.0052456
1.0080738
1.0089755
1.0087599
1.0108496
1.0094474
1.0085442
1.0089846
1.0081283
1.0067113
1.0074931
1.0087814
1.006137
1.0074358
1.009257
1.0080283
1.0054547
1.0139004
1.0141236
1.003306
1.0071228
1.0201152
1.0129739
0.99847595
1.0016205
1.0179382
1.021154
1.0058257
0.99387041
1.0047675
1.0030799
1.005832
1.008565
1.0090461
1.0090362
1.0107814
1.0089451
1.0084205
1.0088942
1.0082339
1.006607
1.0077232
1.0083368
1.0065563
1.0072162
1.0089512
1.0074071
1.0071676
1.0119722
1.0133409
1.0058328
1.0075694
1.0163989
1.0133537
1.0021919
1.0027984
1.0100783
1.0159151
1.0114858
1.0037183
1.004026
1.0042372
1.006006
1.0079364
1.0085821
1.0095218
1.0102996
1.0090822
1.0086244
1.0086038
1.0079923
1.0071994
1.007896
1.0074551
1.0072915
1.0073253
1.0085155
1.007062
1.0096462
1.0099166
1.0102814
1.0102052
1.0098443
1.0120979
1.0109244
1.0085862
1.0084061
1.0060886
1.0057596
1.0109791
1.0129313
1.0030571
1.006344
1.005592
1.0064979
1.0077469
1.009824
1.0097077
1.0098243
1.009445
1.0082109
1.0074949
1.0080805
1.0078667
1.0064636
1.0082189
1.0077396
1.0081582
1.0064143
1.0123974
1.0085137
1.0067479
1.0136262
1.0134473
1.0089652
1.0068355
1.013339
1.0158396
1.0068821
0.99747033
1.0051075
1.0167844
1.0027508
1.0079658
1.0047289
1.0053357
1.0070043
1.0096427
1.009338
1.0105938
1.0097704
1.007866
1.0070455
1.0088766
1.0078539
1.005773
1.0088848
1.0079874
1.0080328
1.0055051
1.0142395
1.0085034
1.0043224
1.0139633
1.0168653
1.0086248
1.0039496
1.0132323
1.0218196
1.0107758
0.99526245
0.99898478
1.0151686
1.0230376
1.0174974
1.0087252
1.000797
0.99885993
1.0034665
1.010386
1.0134797
1.0102703
0.99965035
0.98973063
0.98997573
1.0035517
1.0227852
1.033583
1.0279117
1.0078242
0.98840532
0.98473311
0.99890656
1.0189838
1.0296048
1.02496
0.99622849
0.99513875
1.0006296
1.0119883
1.0237602
1.0308968
1.028894
1.0166087
0.99911011
0.98717424
0.98717575
0.99803542
1.012789
1.020547
1.0153175
1.0012853
0.99191659
0.99591849
1.0122382
1.0308836
1.0361709
1.0201413
0.99502539
0.98371663
0.99164875
1.0014822
1.0106369
1.0153181
1.0127646
1.0049539
0.99853341
0.99994773
1.0098677
1.0228218
1.0304371
1.0256545
1.0075939
0.98535517
0.97394236
0.98041833
1.002142
1.027806
1.0409822
1.0310884
1.0071331
0.98703078
1.0192946
1.0200815
1.0131791
1.0000041
0.98468826
0.97203659
0.97122952
0.98265197
1.0032767
1.0243709
1.0372078
1.0363114
1.0211553
1.001571
0.98948257
0.99197867
1.0055305
1.0179176
1.019435
1.0073322
0.98862692
0.97955412
0.98748659
1.0397903
1.0292882
1.0137818
0.99771038
0.9863409
0.98559737
0.99256474
1.0030516
1.010297
1.0099685
1.0007832
0.98763773
0.98043041
0.98685901
1.0077683
1.0338015
1.0497509
1.0445372
1.0193415
0.98405536
0.9610412
0.9610119
0.98271145
0.99416528
0.99164172
0.99490093
1.0052113
1.020558
1.0353721
1.0436031
1.0402111
1.0217858
0.99543337
0.96997016
0.95486087
0.95836643
0.97893709
1.0081391
1.0339453
1.0447902
1.0359477
1.0138818
0.99323292
0.98477556
0.99148832
1.0081785
0.96116464
0.96954268
0.98693062
1.0075688
1.0273385
1.0403056
1.040914
1.0305014
1.0150171
1.0006919
0.99220053
0.99382854
0.99985761
1.0072795
1.0087008
1.0004055
0.98607838
0.97368314
0.97354481
0.9899961
1.0181432
1.046318
1.0607817
0.99968053
1.007806
1.009964
1.0047163
0.99387268
0.98107199
0.97293726
0.97328426
0.98377192
1.004892
1.0317703
1.0547449
1.0636471
1.0540243
1.0242831
0.98721193
0.95137659
0.9349639
0.94222462
0.97086397
1.011576
1.0520768
1.0717541
1.0665022
1.05146
1.025748
0.99657919
0.97087285
0.95258526
0.94182401
0.94531985
0.96525832
0.99636641
1.0301921
1.0564672
1.0645641
1.0518762
1.0277238
1.0005194
0.97893989
0.97022337
0.97364647
0.98684388
1.001189
1.0122491
1.0130752
1.045199
1.0350105
1.0229724
1.0076624
0.991421
0.9811272
0.98199242
0.99092638
1.0007204
1.0048872
1.0007235
0.99273419
0.98613251
0.98579681
0.99080127
1.0034653
1.0224222
1.0400571
1.0499541
1.0471701
1.0260933
0.99254154
0.95689481
0.96875128
0.97292299
0.98478912
1.0044326
1.0285537
1.0516944
1.0645726
1.0645499
1.0467094
1.0178553
0.98352826
0.95222494
0.93037919
0.92425844
0.93900306
0.97421957
1.0235451
1.0736293
1.1029827
1.0978064
1.0612442
1.0085204
0.95690277
0.92980291
0.93963467
0.9615526
0.99508592
1.0361361
1.0753118
1.0982329
1.0937464
1.0673352
1.0280962
0.98904943
0.95423645
0.93318832
0.92771217
0.93805363
0.96437722
1.0013815
1.0404868
1.0694528
1.0775747
1.0640733
1.0324847
0.99260385
0.95093979
0.96479014
0.98466764
1.0064847
1.0237091
1.0342379
1.0386005
1.0376732
1.0334736
1.0252909
1.0103174
0.99325231
0.98176037
0.97954192
0.98599344
0.99408446
0.99976862
0.99957491
0.99758255
0.99810144
1.0027525
1.0127897
1.0201538
1.0203953
1.0230965
1.0211392
1.0116572
0.99568563
0.97797477
0.9648656
0.96250251
0.97181139
0.99123667
1.0150645
1.0356478
1.0499209
1.0558711
1.0517039
1.0346498
1.0088955
0.97923711
0.9510214
0.93400803
0.93725052
0.9592838
0.99612553
1.0937783
1.0766691
1.0434441
1.0047421
0.967974
0.93974378
0.92317219
0.91927873
0.93023007
0.95685921
0.99763051
1.0467543
1.0920042
1.1158442
1.1074962
1.0705573
1.0222362
0.97317637
0.93176541
0.90871836
0.90294302
0.92251117
0.96466144
1.1218034
1.0956801
1.0526089
1.0039906
0.96214803
0.93107988
0.91276315
0.90790286
0.91770477
0.94473562
0.98678929
1.0395148
1.0914407
1.1259087
1.1258842
1.0904789
1.0352466
0.97963433
0.93595157
0.9094366
0.90284632
0.91524032
0.94954981
1.1074535
1.0838981
1.0494653
1.0097975
0.97101881
0.94121836
0.92374707
0.91889621
0.92812075
0.95120525
0.98678319
1.0298248
1.0729766
1.1053167
1.1095903
1.0863417
1.0436669
0.99257741
0.95038232
0.92548026
0.91688443
0.92473124
0.9509497
1.078599
1.0627432
1.041386
1.0148685
0.98500091
0.95858518
0.94162392
0.93764747
0.94596358
0.96528879
0.99293381
1.0239425
1.0537806
1.0770763
1.0833354
1.071318
1.042307
1.0028118
0.96657413
0.94207551
0.93388184
0.93980309
0.96125803
1.0570642
1.0475946
1.0343529
1.016134
0.99385855
0.97185307
0.95566199
0.95158884
0.95953956
0.97565175
0.9982681
1.0213407
1.0415249
1.057482
1.0655654
1.0597615
1.0387003
1.0069483
0.97445285
0.9532981
0.94633404
0.95354722
0.97056992
1.057123
1.047741
1.034606
1.0159163
0.9929721
0.97175818
0.95715064
0.95452286
0.96391091
0.98065378
1.0015493
1.0214384
1.0392891
1.0539575
1.0598328
1.054607
1.0365504
1.006833
0.9763138
0.95702133
0.95108633
0.95785648
0.97614374
1.0692111
1.0555477
1.0389696
1.0159566
0.98853168
0.96417568
0.94737641
0.94381269
0.9541809
0.97614624
1.0043487
1.03046
1.0520914
1.0679733
1.0705665
1.0588124
1.0338214
0.99766956
0.96569813
0.94789352
0.94480885
0.95711211
0.97933926
1.100165
1.0761807
1.0439623
1.0097361
0.97420256
0.94696972
0.93253626
0.93127624
0.94427883
0.97023001
1.0048973
1.0400111
1.0704865
1.0899057
1.085558
1.0618761
1.0246006
0.9814682
0.94635462
0.92958168
0.93232747
0.95369654
0.98581678
1.1330524
1.0970369
1.0475624
0.99966239
0.95844976
0.93014104
0.91514692
0.91475587
0.92959213
0.9610798
1.0085588
1.0592232
1.1038411
1.1207234
1.1036822
1.0589974
1.0073551
0.95792179
0.92233116
0.91069133
0.92043569
0.95152503
1.0009419
1.1436289
1.1058724
1.0507317
0.99393719
0.94736323
0.91707109
0.90275415
0.90254165
0.91901669
0.95518324
1.0152751
1.0833775
1.1390274
1.1457993
1.106943
1.0430293
0.98240154
0.93410844
0.90334309
0.89828355
0.91405817
0.96203493
1.0305557
1.1090676
1.0873997
1.0458029
0.99653093
0.9508684
0.91848266
0.90344171
0.90602342
0.92822201
0.97423094
1.0374854
1.1037698
1.1443858
1.1330527
1.0836796
1.0168364
0.96032029
0.91749341
0.8931446
0.89581916
0.92684376
0.99661453
1.0785138
1.0313152
1.0342067
1.0247518
1.0043749
0.97678476
0.95061818
0.93786987
0.94546305
0.97167811
1.0117529
1.0512736
1.0819447
1.0943358
1.0826491
1.0438614
0.99595101
0.94583989
0.91321293
0.9076411
0.92962392
0.98551486
1.0489392
1.0991042
0.95698805
0.97076816
0.98878783
1.0041423
1.0146423
1.0184347
1.0187386
1.0219016
1.0261136
1.0278116
1.0233019
1.017762
1.0144881
1.00968
1.0011854
0.98268014
0.96071186
0.95346658
0.96973875
1.0039177
1.0367449
1.0563513
1.0560816
0.9242767
0.93945596
0.96675584
1.0057752
1.0504564
1.0873111
1.0964759
1.0759002
1.0413752
1.0022719
0.97205248
0.95274263
0.94362416
0.94965677
0.96864761
0.99832558
1.0314655
1.048656
1.0496198
1.0398839
1.0224243
1.0001263
0.9735048
0.95561825
0.96354428
0.986041
1.0184082
1.0535707
1.0801683
1.0861288
1.0690008
1.0280953
0.97852782
0.93614798
0.9135256
0.91391255
0.94111962
0.99214572
1.0502177
1.0952753
1.1104241
1.0837353
1.022341
0.95812319
0.92224089
0.91480064
1.0384566
1.0231321
1.0124511
1.0056041
1.0024548
1.0052371
1.0121438
1.013275
1.002608
0.98002532
0.95757932
0.94735573
0.95633366
0.98173278
1.0209976
1.0639757
1.0869882
1.0798648
1.0471307
0.99610544
0.93728294
0.90444991
0.91519288
1.0795488
1.0551604
1.0170143
0.98001188
0.95401542
0.93969266
0.94085495
0.96032509
0.99138756
1.0213957
1.0388053
1.038764
1.0289246
1.0142236
0.99907534
0.9934691
0.99565213
0.99820016
1.0036187
1.0079112
1.0030516
0.98873694
0.98226388
1.0189881
1.0234062
1.011187
0.98338401
0.95386696
0.93829513
0.94218271
0.9639432
1.0034191
1.0502793
1.0860501
1.0898202
1.0572609
1.006659
0.95457807
0.91969304
0.91750174
0.94690726
0.99749174
1.0548737
1.0984061
1.0989019
1.0466982
0.95421787
0.9678567
0.98880454
1.0087366
1.0182517
1.0151682
1.0064823
1.0016909
1.0036055
1.0130756
1.0257343
1.0344039
1.0274372
0.99955252
0.96189787
0.9365901
0.93547599
0.95950774
1.0058322
1.0524898
1.0756478
1.077644
1.0614303
0.95735142
0.96308706
0.98609207
1.0171249
1.0520632
1.0692023
1.0584331
1.0243266
0.98342364
0.95343025
0.94387529
0.95611747
0.98590889
1.0192955
1.0398428
1.0372842
1.0178098
0.9938274
0.97297323
0.96272474
0.96932407
0.98618735
1.0205275
1.0214733
1.0054628
0.99685046
0.99518542
1.0037248
1.0175871
1.026
1.0167769
0.98872473
0.95651981
0.94049103
0.94929424
0.98120249
1.026516
1.0674863
1.0805088
1.0556691
1.0063019
0.95502782
0.92304748
0.92434231
0.94978099
0.98584295
1.0378862
1.0286668
1.006453
0.9807129
0.96186419
0.95655512
0.96974902
0.99214257
1.0135032
1.0232085
1.0123349
0.99546933
0.98086072
0.98054639
0.98994354
1.008228
1.0253235
1.0300697
1.0227706
1.0157051
1.0100436
1.0047671
0.99255353
0.99399082
1.0063796
1.0078013
0.99464211
0.97228629
0.95496711
0.95079181
0.96516044
0.99396348
1.028243
1.0528008
1.0521898
1.0280609
0.99439724
0.96742877
0.95595542
0.96021761
0.97819145
1.001133
1.022974
1.040412
1.0439161
1.0282754
0.95705654
0.96857057
0.98690091
1.0053844
1.0151945
1.0099591
0.99768422
0.98683206
0.98620132
0.99558446
1.009229
1.0221233
1.0249144
1.0136215
0.99597216
0.98098295
0.97450846
0.9771823
0.98710678
0.99806411
1.0087706
1.0131336
1.0069021
0.97748093
0.97412424
0.98198599
0.99750621
1.0170866
1.0337364
1.0364413
1.0235148
1.0026149
0.98347481
0.97142713
0.96833427
0.9741647
0.98695599
0.99984891
1.0126432
1.0229132
1.0253903
1.0183899
1.0046788
0.99135985
0.98385551
0.98344169
1.0227299
1.0094064
0.99563381
0.98804017
0.9882285
0.99477065
1.0039337
1.0094507
1.0063988
0.99495254
0.98165071
0.97246777
0.97058776
0.97545456
0.98787765
1.0044541
1.0191261
1.0278285
1.0230786
1.006946
0.98951588
0.98306527
0.99008402
1.0142468
1.0123927
1.0026355
0.98768393
0.97492019
0.96756066
0.96762024
0.97420359
0.98348978
0.99432758
1.0045275
1.0113053
1.0122958
1.0081389
1.0013914
0.99473332
0.99257673
0.99113138
0.98821321
0.98358325
0.97944963
0.98509432
1.0030801
0.97904082
0.98494004
0.98963119
0.99184179
0.99119402
0.98920606
0.98613101
0.98359432
0.98416108
0.98975238
0.99908096
1.010577
1.0188901
1.0193732
1.0092089
0.99400979
0.98160111
0.97624276
0.97777318
0.98349946
0.99088684
0.99873886
1.0102813
0.98137017
0.98125954
0.98498928
0.99191798
1.0008995
1.0089778
1.0139067
1.0123946
1.0046168
0.99470706
0.98767245
0.98533679
0.98663468
0.98834694
0.98725673
0.98332628
0.98025896
0.98403534
0.9955758
1.0106478
1.0208698
1.0207986
1.010576
1.0043468
1.0004485
0.99587831
0.99211805
0.99077481
0.99238205
0.99644191
0.99997277
0.99983049
0.99463033
0.98598378
0.97872675
0.97581314
0.9778937
0.98207431
0.98605548
0.98996566
0.99606465
1.0054454
1.0143963
1.0175158
1.0099903
0.99328411
0.99599336
0.99788154
0.99679921
0.99264457
0.98642108
0.98053731
0.97777849
0.97934618
0.98353943
0.9872667
0.99017847
0.99174115
0.9933987
0.99748729
1.0026152
1.0064724
1.0071296
1.0040477
0.99893126
0.99314257
0.98699752
0.97937826
0.97289606
0.98074359
0.9851835
0.99053746
0.99407399
0.9951377
0.99383444
0.99151579
0.99081589
0.99265311
0.99599184
0.99909712
1.0007329
1.0003294
0.99994292
0.99927517
0.99939008
0.99751239
0.99208637
0.98375891
0.9749432
0.96980995
0.97044189
0.97639808
0.99232024
0.99216345
0.99458149
0.99775255
1.0001652
1.0003723
0.99952211
0.99829682
0.99749871
0.99772207
0.99746925
0.99550089
0.99161034
0.98603769
0.98076133
0.97849289
0.97786643
0.97839711
0.97856649
0.97892292
0.98124484
0.98736733
0.99694587
0.99956633
0.99853476
0.99718098
0.9963169
0.99504287
0.99283131
0.99042987
0.98779702
0.98571846
0.9853122
0.98559656
0.98591294
0.98528356
0.98330258
0.98147435
0.98111527
0.98322111
0.98835641
0.99349679
0.99710144
0.99877098
0.99827829
0.99719798
0.99242783
0.99231232
0.99146434
0.99106828
0.99072376
0.9907949
0.99083862
0.99019067
0.98965938
0.98934808
0.98923491
0.99028876
0.99156042
0.99243238
0.99314671
0.99359723
0.99439489
0.99565305
0.99664509
0.9961566
0.99284883
0.98724859
0.97929352
0.99504765
0.99364298
0.99272422
0.99240691
0.99186468
0.99314623
0.99576948
0.99780835
0.99917804
0.99890565
0.99748562
0.99578961
0.9935819
0.99306007
0.99271176
0.99139467
0.98979153
0.98683228
0.98333655
0.97969671
0.97665704
0.9743837
0.97195936
0.99726294
0.9971053
0.99729265
0.99655024
0.99405929
0.99305843
0.9928839
0.9926119
0.99372586
0.9935608
0.99146006
0.989266
0.98661395
0.98599235
0.98640432
0.98770484
0.98879774
0.9868585
0.98482564
0.98142366
0.98064228
0.98145343
0.98428139
0.99105819
0.99191473
0.99525827
0.99702523
0.99602657
0.99504483
0.99336715
0.99128388
0.99137854
0.99163056
0.99126377
0.99128743
0.9904533
0.99024388
0.99049722
0.99157194
0.99320858
0.99274574
0.99165025
0.98849935
0.98648697
0.98641111
0.98730559
0.99407282
0.99379492
0.99561336
0.99668121
0.99747145
0.99772913
0.99547855
0.99343722
0.99292593
0.99212231
0.99293612
0.99490103
0.99526207
0.99471104
0.99319497
0.99107991
0.98928785
0.98836789
0.98635924
0.98461203
0.98244819
0.98179059
0.98143849
0.99857184
0.99680636
0.9956356
0.99351224
0.9937277
0.99451996
0.99384136
0.99335443
0.99268538
0.99181115
0.99271716
0.99329944
0.99386268
0.99432669
0.99187604
0.98996652
0.98715157
0.98648137
0.98582405
0.98721677
0.98778437
0.98820094
0.9881556
0.99689529
0.99749343
0.99467532
0.99197981
0.99300036
0.99367036
0.9939857
0.99602172
0.99695843
0.99613237
0.99555902
0.994841
0.99390113
0.99351338
0.99212739
0.9925486
0.99040921
0.98959514
0.99011939
0.99048713
0.99120452
0.99090106
0.9893214
0.99581815
0.99744534
0.99665855
0.99567395
0.99660813
0.9958947
0.99628599
0.99800154
0.99784155
0.99722025
0.9953503
0.99341318
0.9917353
0.99091018
0.99088352
0.99219775
0.99176533
0.99373383
0.99346338
0.99272612
0.99331312
0.9905414
0.98819834
0.99495221
0.99675018
0.99681966
0.99751581
0.99859564
0.99628873
0.99562638
0.99586831
0.99362827
0.99363317
0.99302377
0.99231529
0.9931264
0.99359683
0.99413191
0.99478014
0.99463492
0.99519473
0.99215298
0.99226613
0.98980706
0.98838874
0.98736418
0.99664872
0.99731153
0.99621052
0.99650369
0.99790389
0.99655939
0.99592217
0.99610578
0.99402213
0.9949935
0.99538171
0.99474692
0.9968893
0.9957882
0.99635263
0.99672133
0.99464451
0.9945213
0.99174178
0.99217877
0.98899136
0.99046268
0.990038
0.99817718
0.99901745
0.99733632
0.99615867
0.99704688
0.99652656
0.99552731
0.99658048
0.99619133
0.99650717
0.99846535
0.99744383
0.99865071
0.99665201
0.99570686
0.99544748
0.99242273
0.9932954
0.99282519
0.99246273
0.99407827
0.9938304
0.99434063
0.99632402
0.99728206
0.99657524
0.99615211
0.99717139
0.99747655
0.9968264
0.99764348
0.99812042
0.99561866
0.99635571
0.99621297
0.99475233
0.99519921
0.99396459
0.99337438
0.99381779
0.99353085
0.99505216
0.99486491
0.99731755
0.9950705
0.99526134
0.99712807
0.99732559
0.9961631
0.99599014
0.99620433
0.99613337
0.99696687
0.99703618
0.99760826
0.99658535
0.99507268
0.9959189
0.99470725
0.99511369
0.99639588
0.99598111
0.99764506
0.99626501
0.99671869
0.99668425
0.99589496
0.99464249
0.9936364
0.99682947
0.99736929
0.99686689
0.99728185
0.99728246
0.99572543
0.99675266
0.99722208
0.99628369
0.9977462
0.99682536
0.99639247
0.99749434
0.99597803
0.99747045
0.99769653
0.99731692
0.99689074
0.99579177
0.99531277
0.99437018
0.99435372
0.99440009
0.9955718
0.99641593
0.99732056
0.99730121
0.99781094
0.996835
0.99645419
0.99692648
0.995473
0.99589738
0.99686786
0.99579686
0.99751826
0.99684973
0.99592446
0.99713193
0.99604393
0.99637589
0.99607601
0.99481802
0.99582875
0.99520208
0.99625101
0.99732227
0.9966009
0.99637328
0.99619252
0.99626958
0.99711792
0.99652528
0.99598097
0.99670535
0.99615886
0.99712133
0.99773284
0.99680983
0.99774038
0.99686453
0.99607
0.99551643
0.99563584
0.99618786
0.99582922
0.99669742
0.99587849
0.9971153
0.99880955
0.99731489
0.99674186
0.99671336
0.99664084
0.9972781
0.99742208
0.99685346
0.99742691
0.99786961
0.99655977
0.99767272
0.9967991
0.99628834
0.99767273
0.99638903
0.99715968
0.9973807
0.99697605
0.99795861
0.99716569
0.99732852
0.99711447
0.99821851
0.99786406
0.99788931
0.9977468
0.99760716
0.99789961
0.99803029
0.99766575
0.99801839
0.99831377
0.99709491
0.99688332
0.99734874
0.99624586
0.99768704
0.99707646
0.99672575
0.99771602
0.99643547
0.9973646
0.99600853
0.99651595
0.99627642
0.99848796
0.99869726
0.99914181
0.99920484
0.99868602
0.99821849
0.9983651
0.99834896
0.99828201
0.99805492
0.99765732
0.9970648
0.9983851
0.99832728
0.99804248
0.99811165
0.99774946
0.99827737
0.99695362
0.99681902
0.99639945
0.9973641
0.99710887
0.99942361
0.99994647
1.0001701
0.99938337
0.99900059
0.99949774
0.99956329
0.99884674
0.99845597
0.99867723
0.9988365
0.99964573
0.99898908
0.99820876
0.99939867
0.99835975
0.99793058
0.99832193
0.99725689
0.99789621
0.99724417
0.9977712
0.99791577
1.0001436
1.0009633
1.0012789
1.0004179
0.99947535
0.99983163
1.0006752
1.0004255
0.99950596
0.99946214
0.99977596
1.0008077
1.0002332
0.99863334
0.99922161
0.99928145
0.99845502
0.9985238
0.99805428
0.99885921
0.99913872
0.99798086
0.99777973
1.0006915
1.000803
1.0008308
1.0005656
1.0002294
1.0005971
1.0011815
1.0009631
0.99997985
1.0003867
1.0008711
1.0005636
1.0002628
0.99945336
0.99963434
1.0007371
1.0001827
1.0001921
0.99933257
0.99979965
0.99945748
0.9991082
0.99848736
1.0000636
1.0002966
1.0002471
1.0002306
1.0004926
1.0008787
1.0006059
1.0001438
1.000307
1.0010362
1.0012311
1.0008791
0.99984325
0.99979255
1.0011172
1.0013777
1.0000585
0.99950898
0.99994942
1.0002508
1.000332
0.99909418
0.99809283
0.99976891
1.0000643
0.99971204
0.99890098
0.99942027
1.0006547
1.000665
0.9992442
0.99942209
1.000679
1.0006828
1.0004831
1.000472
1.0003562
1.0003366
1.0005044
1.0011405
0.99998803
0.99930354
0.99863396
1.0002145
1.0003419
0.9990193
1.000694
0.9991372
0.99832914
0.99905125
0.99999584
1.000081
0.99950437
0.99868112
0.99906396
1.0005116
1.0006486
0.99978279
0.99939731
0.99940736
1.0002303
1.0002335
1.0000167
0.99926276
1.0001492
1.0001929
0.99942246
0.9995017
0.99983415
0.99975474
0.99891209
0.99796807
0.99853421
1.0001093
1.0002607
0.99890587
0.99836937
0.99930242
0.99964062
0.99888178
0.9985245
0.99949985
1.0004348
0.99929741
0.99785009
0.99933428
1.0005517
0.99987872
0.99794643
0.99947025
0.99984414
0.99916902
0.998517
0.99859069
0.99924286
0.99895164
0.99826262
0.99808266
0.9986928
0.99952697
0.99913715
0.9977804
0.99807739
0.99949052
0.99956514
0.9985353
0.99810756
0.99875496
0.99952353
0.99891415
0.99789611
0.99713685
0.99964145
0.99983661
0.99796002
0.9994925
0.99772114
0.99622648
0.99810724
1.0002793
0.99903988
0.99643083
0.99686749
0.99949641
1.0002018
0.99805183
0.99651324
0.99804745
0.99937936
0.99804201
0.99717347
0.99783885
0.99849153
0.99929109
0.99860433
0.9972596
0.99705299
0.9996935
0.99681864
0.99823477
0.99772154
0.99701899
0.99786812
0.99888537
0.99847221
0.99712216
0.99675783
0.99816733
0.99844993
0.99677843
0.99712804
0.99877541
0.99825769
0.99642823
0.99753493
0.99954164
0.9983725
0.99591592
0.99635187
0.99838137
0.99875075
0.99780699
0.99653095
0.99681612
0.9977374
0.99794317
0.99696001
0.99631171
0.99715525
0.99763683
0.99709224
0.99730383
0.99765373
0.99727214
0.99738727
0.99795922
0.99751933
0.99626015
0.99661336
0.99795713
0.99734089
0.99649087
0.99770247
0.99773791
0.9972614
0.99735798
0.99612129
0.9957292
0.99675989
0.99749628
0.99666939
0.99589607
0.99687228
0.99790628
0.99734954
0.99661387
0.99663538
0.9968483
0.99699608
0.9973333
0.99641583
0.99562499
0.99710643
0.99800919
0.99669522
0.99588467
0.99737574
0.99610766
0.99660198
0.99741383
0.99702132
0.99588233
0.99570557
0.99649509
0.99712647
0.99733664
0.99712601
0.99624396
0.99579624
0.99632953
0.9966139
0.99609429
0.99596638
0.99682796
0.99679506
0.99625237
0.9962394
0.99639227
0.99618451
0.99628017
0.99742169
0.99655402
0.99623022
0.99681
0.99751398
0.99739992
0.99665905
0.99610972
0.99636007
0.99697214
0.99693806
0.99605561
0.99555238
0.99618902
0.99693408
0.99669098
0.99617972
0.99612821
0.99636552
0.99624782
0.99576524
0.99555427
0.99574702
0.99751688
0.99805306
0.99818053
0.997578
0.99703378
0.99726128
0.99765501
0.99761844
0.99715828
0.9966713
0.99659015
0.99682966
0.99707895
0.99707373
0.99700261
0.996935
0.99666576
0.99626005
0.99611286
0.99625065
0.99618525
0.99590686
0.9958059
0.9993404
0.99913112
0.99845064
0.99803513
0.99810949
0.99828371
0.99831012
0.99843687
0.99857281
0.99793107
0.99766074
0.99800461
0.9979433
0.99770665
0.99750233
0.99726837
0.99761917
0.99754193
0.99706612
0.99666171
0.99658894
0.99670749
0.99688031
0.99980466
1.0001258
0.99961003
0.9992507
0.99943926
0.99958911
0.99951757
0.99959293
0.99942078
0.99886893
0.9989494
0.998878
0.9986123
0.99908536
0.99879058
0.99832781
0.99846231
0.99863632
0.99879362
0.99810057
0.99738125
0.9971491
0.9974071
1.0004175
1.0009279
1.000738
1.0006151
1.0005054
1.0001377
1.0002302
1.0007646
1.0006258
1.0000245
0.99992938
0.99962724
0.99928261
1.0001395
1.0006511
0.99995951
0.99960642
0.99920164
0.99918018
0.9992877
0.9990395
0.99891606
0.99879833
1.001243
1.0016225
1.0010638
1.0004635
1.0008877
1.0017464
1.0020867
1.0015621
1.0003963
0.99997115
1.000419
1.0008959
1.0013069
1.0011754
1.0006773
1.0000171
1.0000771
1.0005318
1.0008745
1.0002656
0.999791
0.99991718
0.99974292
1.0006436
1.0021538
1.0024719
1.0018411
1.0013676
1.0015303
1.0014223
1.0013403
1.0016095
1.0015447
1.0015229
1.0011663
1.0007611
1.0012995
1.0019503
1.0017076
1.0008886
1.0004657
1.0005721
1.0010062
1.0009139
1.000984
1.0008521
1.0021638
1.0024294
1.0018104
1.001222
1.0013676
1.0023272
1.0030529
1.0024783
1.001379
1.001056
1.0014263
1.0017114
1.0020205
1.0020273
1.0012393
1.001372
1.0018513
1.0017116
1.0016159
1.0012823
1.0013705
1.0014451
1.0014349
1.0010776
1.0029075
1.0036236
1.0027986
1.0016882
1.0016475
1.002332
1.0025597
1.0025121
1.0023534
1.0016651
1.0012718
1.0019657
1.0029334
1.0025796
1.0014481
1.0016585
1.0025185
1.0023601
1.0009046
1.0006154
1.0022574
1.0031312
1.0026754
1.0029493
1.0026604
1.0022234
1.0023697
1.003119
1.0036284
1.0031347
1.0018297
1.0013846
1.0022809
1.0029114
1.0022191
1.001884
1.0027864
1.0033881
1.0027773
1.0015285
1.0011131
1.0018759
1.0027219
1.0026744
1.0022142
1.0021067
1.0038883
1.004413
1.0030939
1.0013946
1.0015534
1.0033352
1.0044862
1.0036172
1.0019382
1.001542
1.0029596
1.0039087
1.0029816
1.0018289
1.0018683
1.0027999
1.0032233
1.002591
1.0022468