/*--------------------------------*- C++ -*----------------------------------*\
| =========                 |                                                 |
| \\      /  F ield         | OpenFOAM: The Open Source CFD Toolbox           |
|  \\    /   O peration     | Version:  2406                                  |
|   \\  /    A nd           | Website:  www.openfoam.com                      |
|    \\/     M anipulation  |                                                 |
\*---------------------------------------------------------------------------*/
FoamFile
{
    version     2.0;
    format      ascii;
    arch        "LSB;label=32;scalar=64";
    class       volScalarField;
    location    "1400";
    object      alphat;
}
// * * * * * * * * * * * * * * * * * * * * * * * * * * * * * * * * * * * * * //

dimensions      [1 -1 -1 0 0 0 0];

internalField   nonuniform List<scalar> 
132739
(
8.824906e-07
8.672803e-07
8.5426564e-07
8.4340284e-07
8.3427209e-07
8.2646788e-07
8.1968289e-07
8.1369844e-07
8.0835848e-07
8.0354877e-07
7.9918339e-07
7.9519598e-07
7.9153425e-07
7.8815609e-07
7.8502719e-07
7.8211918e-07
7.7940842e-07
7.7687499e-07
7.7450205e-07
7.7227521e-07
7.7018218e-07
7.6821237e-07
7.6635662e-07
7.6460702e-07
7.6295673e-07
7.6139981e-07
7.5993114e-07
7.5854629e-07
7.5724144e-07
7.5601331e-07
7.5485912e-07
7.5377648e-07
7.5276338e-07
7.5181812e-07
7.5093931e-07
7.5012578e-07
7.4937655e-07
7.4869084e-07
7.4806796e-07
7.4750737e-07
7.4700856e-07
7.4657108e-07
7.4619448e-07
7.4587828e-07
7.4562195e-07
7.4542487e-07
7.4528632e-07
7.452063e-07
7.4517732e-07
7.4518923e-07
7.4523103e-07
7.4530172e-07
7.4535183e-07
7.4531784e-07
7.4529234e-07
7.4515373e-07
7.449613e-07
7.4470636e-07
7.4450095e-07
7.4442553e-07
7.4450196e-07
7.4480555e-07
7.4534038e-07
7.4598608e-07
7.4670589e-07
7.4748794e-07
7.4832729e-07
7.4922154e-07
7.5017304e-07
7.5118822e-07
7.5228984e-07
7.5347119e-07
7.5488512e-07
7.5604968e-07
7.5814253e-07
7.593627e-07
7.6231894e-07
7.6537622e-07
7.6930097e-07
7.7353163e-07
7.7934312e-07
7.8664264e-07
7.9558329e-07
8.0596514e-07
8.1804536e-07
8.3191457e-07
8.4762521e-07
8.6526212e-07
8.8499206e-07
9.0709051e-07
9.3189093e-07
9.5993138e-07
9.9029329e-07
1.0229301e-06
1.0578614e-06
1.095147e-06
1.1349318e-06
1.1774376e-06
1.2229348e-06
1.2717418e-06
1.3242661e-06
1.3810853e-06
1.4425786e-06
1.5112895e-06
8.8247837e-07
8.6727771e-07
8.5427064e-07
8.4341358e-07
8.3428747e-07
8.2648707e-07
8.1970528e-07
8.1372362e-07
8.0838623e-07
8.0357909e-07
7.9921644e-07
7.9523206e-07
7.9157376e-07
7.8819955e-07
7.8507519e-07
7.821724e-07
7.7946757e-07
7.7694085e-07
7.7457539e-07
7.7235684e-07
7.7027288e-07
7.6831289e-07
7.6646767e-07
7.6472926e-07
7.6309071e-07
7.6154601e-07
7.6008991e-07
7.5871783e-07
7.5742583e-07
7.5621045e-07
7.5506874e-07
7.5399813e-07
7.5299643e-07
7.5206178e-07
7.511926e-07
7.5038756e-07
7.4964555e-07
7.4896564e-07
7.4834707e-07
7.4778921e-07
7.4729152e-07
7.4685353e-07
7.4647483e-07
7.4615499e-07
7.4589359e-07
7.4569008e-07
7.455443e-07
7.4545261e-07
7.45383e-07
7.4531829e-07
7.4525403e-07
7.4520361e-07
7.4510673e-07
7.4500481e-07
7.4491047e-07
7.4480476e-07
7.4472629e-07
7.4468803e-07
7.4472514e-07
7.448765e-07
7.4520209e-07
7.4576403e-07
7.4658837e-07
7.4751091e-07
7.4845781e-07
7.4941231e-07
7.5037471e-07
7.5135479e-07
7.5236912e-07
7.5343971e-07
7.5459391e-07
7.5586471e-07
7.5729204e-07
7.5891853e-07
7.6080915e-07
7.6295774e-07
7.6537594e-07
7.6808392e-07
7.7115098e-07
7.7460211e-07
7.7861951e-07
7.8346995e-07
7.8953848e-07
7.9706185e-07
8.06348e-07
8.1770575e-07
8.3139169e-07
8.4758351e-07
8.6638e-07
8.8784975e-07
9.1201523e-07
9.3915535e-07
9.6882301e-07
9.9965484e-07
1.0316475e-06
1.0651134e-06
1.1003999e-06
1.1378364e-06
1.1777291e-06
1.2203912e-06
1.2660049e-06
1.3154423e-06
1.3663429e-06
1.4323893e-06
8.8246954e-07
8.6727802e-07
8.5427788e-07
8.4342575e-07
8.3430319e-07
8.2650531e-07
8.1972517e-07
8.1374448e-07
8.0840744e-07
8.0360002e-07
7.9923643e-07
7.9525042e-07
7.9158969e-07
7.882122e-07
7.8508362e-07
7.8217559e-07
7.7946441e-07
7.7693014e-07
7.7455588e-07
7.7232718e-07
7.7023166e-07
7.6825864e-07
7.6639888e-07
7.6464436e-07
7.6298813e-07
7.6142414e-07
7.5994713e-07
7.5855255e-07
7.5723646e-07
7.5599545e-07
7.5482659e-07
7.5372739e-07
7.5269571e-07
7.5172976e-07
7.5082807e-07
7.4998938e-07
7.4921268e-07
7.4849714e-07
7.478421e-07
7.4724701e-07
7.4671141e-07
7.4623491e-07
7.4581716e-07
7.4545778e-07
7.4515634e-07
7.4491237e-07
7.447251e-07
7.4459331e-07
7.4451828e-07
7.4449984e-07
7.4453493e-07
7.4465115e-07
7.4469406e-07
7.4474101e-07
7.4482657e-07
7.4494797e-07
7.4510096e-07
7.4528495e-07
7.4553585e-07
7.4583362e-07
7.4618213e-07
7.4672541e-07
7.4735824e-07
7.4799492e-07
7.486248e-07
7.4925212e-07
7.4988639e-07
7.5054074e-07
7.5123115e-07
7.5197672e-07
7.5280083e-07
7.537308e-07
7.5480386e-07
7.5604334e-07
7.5756901e-07
7.5964238e-07
7.6202474e-07
7.6460805e-07
7.675086e-07
7.7133009e-07
7.7586405e-07
7.810758e-07
7.8701002e-07
7.9377967e-07
8.0156763e-07
8.1064059e-07
8.213408e-07
8.3405766e-07
8.4917642e-07
8.6703919e-07
8.8788369e-07
9.1191329e-07
9.3921464e-07
9.6957163e-07
1.001395e-06
1.0340191e-06
1.0674475e-06
1.1019233e-06
1.1377753e-06
1.1754329e-06
1.2150398e-06
1.2579503e-06
1.3004107e-06
1.3585985e-06
8.8246386e-07
8.6728104e-07
8.5428755e-07
8.4344011e-07
8.3432097e-07
8.2652559e-07
8.197474e-07
8.1376833e-07
8.0843276e-07
8.0362679e-07
7.9926471e-07
7.9528037e-07
7.9162157e-07
7.8824631e-07
7.8512035e-07
7.8221538e-07
7.7950777e-07
7.7697764e-07
7.7460813e-07
7.7238486e-07
7.7029549e-07
7.6832938e-07
7.6647733e-07
7.6473134e-07
7.6308449e-07
7.6153076e-07
7.6006489e-07
7.5868234e-07
7.5737915e-07
7.5615191e-07
7.5499768e-07
7.5391392e-07
7.5289848e-07
7.5194952e-07
7.5106551e-07
7.5024513e-07
7.4948732e-07
7.4879116e-07
7.4815591e-07
7.4758094e-07
7.4706571e-07
7.4660972e-07
7.4621253e-07
7.4587367e-07
7.4559262e-07
7.4536877e-07
7.4520131e-07
7.450892e-07
7.450304e-07
7.4502344e-07
7.4506592e-07
7.4514912e-07
7.4530083e-07
7.4549185e-07
7.4571788e-07
7.459947e-07
7.4631832e-07
7.4668274e-07
7.470692e-07
7.4747103e-07
7.4790281e-07
7.4834868e-07
7.4879949e-07
7.4925899e-07
7.4973256e-07
7.5022524e-07
7.5074243e-07
7.51292e-07
7.518852e-07
7.5253723e-07
7.5326799e-07
7.541024e-07
7.5507263e-07
7.5621115e-07
7.575877e-07
7.5913548e-07
7.6134412e-07
7.6369335e-07
7.6603665e-07
7.6912609e-07
7.7292667e-07
7.7751889e-07
7.8299214e-07
7.8942419e-07
7.9688104e-07
8.0543654e-07
8.1520132e-07
8.2635338e-07
8.3915461e-07
8.5394741e-07
8.711195e-07
8.9106702e-07
9.141056e-07
9.4081701e-07
9.7011384e-07
1.001052e-06
1.0331891e-06
1.066292e-06
1.1002704e-06
1.1352714e-06
1.1712232e-06
1.2094525e-06
1.246503e-06
1.2960306e-06
8.82461e-07
8.6728669e-07
8.5429958e-07
8.4345654e-07
8.3434052e-07
8.2654735e-07
8.1977072e-07
8.1379278e-07
8.0845798e-07
8.0365246e-07
7.9929054e-07
7.9530604e-07
7.9164674e-07
7.8827064e-07
7.8514345e-07
7.8223684e-07
7.7952715e-07
7.7699445e-07
7.7462187e-07
7.7239498e-07
7.7030142e-07
7.6833052e-07
7.6647305e-07
7.6472101e-07
7.6306745e-07
7.6150633e-07
7.6003239e-07
7.5864106e-07
7.5732841e-07
7.56091e-07
7.5492589e-07
7.5383056e-07
7.5280286e-07
7.5184096e-07
7.5094333e-07
7.5010868e-07
7.4933594e-07
7.4862422e-07
7.4797277e-07
7.4738098e-07
7.4684831e-07
7.4637429e-07
7.4595844e-07
7.4560032e-07
7.4529936e-07
7.4505495e-07
7.4486628e-07
7.4473215e-07
7.446519e-07
7.4462459e-07
7.4464824e-07
7.4472169e-07
7.4483624e-07
7.4499562e-07
7.4519299e-07
7.4542811e-07
7.4569685e-07
7.459962e-07
7.4632317e-07
7.466707e-07
7.4703523e-07
7.4741585e-07
7.4780739e-07
7.48206e-07
7.4861399e-07
7.4903431e-07
7.4947049e-07
7.4992856e-07
7.5041777e-07
7.5095097e-07
7.5154519e-07
7.5222249e-07
7.5300921e-07
7.5394292e-07
7.5504084e-07
7.5645808e-07
7.5822763e-07
7.6023314e-07
7.6273519e-07
7.6575627e-07
7.6936307e-07
7.7363969e-07
7.7868999e-07
7.8462674e-07
7.9156489e-07
7.996093e-07
8.0885065e-07
8.1937213e-07
8.3127015e-07
8.4468464e-07
8.5982245e-07
8.7698125e-07
8.9647075e-07
9.1885704e-07
9.4422557e-07
9.7155983e-07
1.0006117e-06
1.0312086e-06
1.0631228e-06
1.0962181e-06
1.1301158e-06
1.1656403e-06
1.1998435e-06
1.2435584e-06
8.8246081e-07
8.6729473e-07
8.5431377e-07
8.4347495e-07
8.3436188e-07
8.2657077e-07
8.1979564e-07
8.1381887e-07
8.0848503e-07
8.0368035e-07
7.993192e-07
7.9533545e-07
7.9167694e-07
7.8830168e-07
7.8517542e-07
7.8226986e-07
7.7956138e-07
7.7703008e-07
7.7465911e-07
7.7243407e-07
7.7034261e-07
7.683741e-07
7.6651931e-07
7.6477026e-07
7.6312e-07
7.6156251e-07
7.6009252e-07
7.5870548e-07
7.5739743e-07
7.5616493e-07
7.5500504e-07
7.5391521e-07
7.5289326e-07
7.5193736e-07
7.5104593e-07
7.5021766e-07
7.4945145e-07
7.4874635e-07
7.481016e-07
7.4751652e-07
7.4699055e-07
7.4652315e-07
7.4611381e-07
7.4576201e-07
7.4546715e-07
7.4522854e-07
7.4504527e-07
7.4491623e-07
7.4484016e-07
7.4481558e-07
7.4483973e-07
7.4490985e-07
7.4502935e-07
7.4518822e-07
7.4538506e-07
7.4562238e-07
7.4589357e-07
7.4619424e-07
7.4651705e-07
7.4685442e-07
7.4720717e-07
7.4757241e-07
7.4794337e-07
7.483183e-07
7.4869888e-07
7.4908699e-07
7.4948538e-07
7.498992e-07
7.5033671e-07
7.5080974e-07
7.5133429e-07
7.5193119e-07
7.5262659e-07
7.5345225e-07
7.5444883e-07
7.5564423e-07
7.5708767e-07
7.5881644e-07
7.6091071e-07
7.6345769e-07
7.6654592e-07
7.7027146e-07
7.7473531e-07
7.8004507e-07
7.8631233e-07
7.9365373e-07
8.0218262e-07
8.1200253e-07
8.2320088e-07
8.3585213e-07
8.5003248e-07
8.6585047e-07
8.8346367e-07
9.0307592e-07
9.2527266e-07
9.49157e-07
9.7445515e-07
1.0012613e-06
1.029633e-06
1.0595914e-06
1.0908127e-06
1.1238204e-06
1.1559104e-06
1.1962952e-06
8.8246354e-07
8.673057e-07
8.5433074e-07
8.4349592e-07
8.343855e-07
8.2659609e-07
8.1982208e-07
8.1384613e-07
8.0851292e-07
8.0370872e-07
7.9934791e-07
7.9536436e-07
7.9170588e-07
7.8833048e-07
7.852039e-07
7.8229784e-07
7.7958866e-07
7.7705645e-07
7.7468435e-07
7.7245794e-07
7.7036488e-07
7.683945e-07
7.6653758e-07
7.6478613e-07
7.6313319e-07
7.6157273e-07
7.6009949e-07
7.5870889e-07
7.5739699e-07
7.5616034e-07
7.5499598e-07
7.5390138e-07
7.5287436e-07
7.5191307e-07
7.5101594e-07
7.5018166e-07
7.4940912e-07
7.4869739e-07
7.4804567e-07
7.474533e-07
7.469197e-07
7.4644433e-07
7.4602664e-07
7.4566611e-07
7.4536209e-07
7.4511385e-07
7.4492046e-07
7.4478072e-07
7.4469339e-07
7.4465706e-07
7.4466968e-07
7.4472848e-07
7.4483281e-07
7.4497738e-07
7.4515817e-07
7.4537372e-07
7.4562005e-07
7.4589335e-07
7.4618798e-07
7.4649776e-07
7.4681997e-07
7.4715086e-07
7.4748535e-07
7.4782045e-07
7.4815559e-07
7.4849149e-07
7.4883014e-07
7.4917576e-07
7.4953544e-07
7.4991961e-07
7.5034255e-07
7.5082297e-07
7.5138441e-07
7.5205604e-07
7.528711e-07
7.5388018e-07
7.551363e-07
7.5669507e-07
7.5861533e-07
7.6096183e-07
7.6380252e-07
7.6721426e-07
7.7128202e-07
7.761032e-07
7.8178211e-07
7.8843162e-07
7.9617294e-07
8.0512919e-07
8.1542041e-07
8.2715361e-07
8.4041669e-07
8.5527547e-07
8.718061e-07
8.9002552e-07
9.1025118e-07
9.3215261e-07
9.5491281e-07
9.7855189e-07
1.0032742e-06
1.0293462e-06
1.0567485e-06
1.0861301e-06
1.1151331e-06
1.1521577e-06
8.8246675e-07
8.6731669e-07
8.543475e-07
8.4351676e-07
8.3440924e-07
8.266218e-07
8.1984915e-07
8.1387413e-07
8.0854159e-07
8.0373791e-07
7.9937753e-07
7.9539435e-07
7.917362e-07
7.8836111e-07
7.8523483e-07
7.8232906e-07
7.7962019e-07
7.7708833e-07
7.7471662e-07
7.7249067e-07
7.7039814e-07
7.6842837e-07
7.6657215e-07
7.6482149e-07
7.6316944e-07
7.6160997e-07
7.6013782e-07
7.5874841e-07
7.5743779e-07
7.5620251e-07
7.5503959e-07
7.539465e-07
7.5292102e-07
7.5196131e-07
7.5106577e-07
7.5023307e-07
7.4946208e-07
7.4875184e-07
7.4810153e-07
7.4751047e-07
7.4697804e-07
7.4650366e-07
7.4608677e-07
7.4572678e-07
7.4542301e-07
7.4517468e-07
7.4498081e-07
7.4484019e-07
7.4475146e-07
7.4471305e-07
7.4472264e-07
7.4477751e-07
7.4487674e-07
7.4501525e-07
7.4518957e-07
7.4539883e-07
7.4563835e-07
7.4590305e-07
7.4618723e-07
7.4648442e-07
7.4679105e-07
7.4710353e-07
7.4741676e-07
7.4772714e-07
7.4803363e-07
7.4833659e-07
7.4863753e-07
7.4893997e-07
7.4925017e-07
7.4957758e-07
7.4993541e-07
7.5034119e-07
7.5081726e-07
7.5139097e-07
7.5209707e-07
7.5296552e-07
7.540376e-07
7.5536329e-07
7.5700471e-07
7.590295e-07
7.6151183e-07
7.645323e-07
7.6817622e-07
7.7253243e-07
7.7769393e-07
7.8375754e-07
7.9082568e-07
7.9900671e-07
8.084151e-07
8.1916805e-07
8.3137992e-07
8.4515001e-07
8.6056546e-07
8.7767645e-07
8.9651398e-07
9.1736906e-07
9.3891641e-07
9.6087175e-07
9.8328813e-07
1.0063984e-06
1.0303013e-06
1.0557679e-06
1.080966e-06
1.1133468e-06
8.8247025e-07
8.6732773e-07
8.5436395e-07
8.43537e-07
8.3443231e-07
8.2664694e-07
8.1987577e-07
8.1390181e-07
8.0857002e-07
8.0376686e-07
7.9940684e-07
7.9542389e-07
7.9176586e-07
7.8839079e-07
7.8526443e-07
7.8235848e-07
7.7964932e-07
7.7711706e-07
7.7474484e-07
7.7251826e-07
7.7042498e-07
7.6845434e-07
7.6659711e-07
7.6484532e-07
7.63192e-07
7.6163112e-07
7.6015742e-07
7.5876632e-07
7.5745385e-07
7.5621656e-07
7.5505148e-07
7.5395605e-07
7.5292808e-07
7.5196569e-07
7.5106729e-07
7.5023154e-07
7.494573e-07
7.487436e-07
7.4808963e-07
7.4749467e-07
7.4695809e-07
7.464793e-07
7.4605772e-07
7.4569274e-07
7.4538364e-07
7.451296e-07
7.4492962e-07
7.4478244e-07
7.4468664e-07
7.4464059e-07
7.4464206e-07
7.4468841e-07
7.4477815e-07
7.4490674e-07
7.4507014e-07
7.4526609e-07
7.4549017e-07
7.4573758e-07
7.4600285e-07
7.4627974e-07
7.4656402e-07
7.4685158e-07
7.4713739e-07
7.4741754e-07
7.4769008e-07
7.4795442e-07
7.4821127e-07
7.4846333e-07
7.4871591e-07
7.4897739e-07
7.4925973e-07
7.4957893e-07
7.4995556e-07
7.5041513e-07
7.5098829e-07
7.5171417e-07
7.5263796e-07
7.5380719e-07
7.5527926e-07
7.5710961e-07
7.5936161e-07
7.6210715e-07
7.6542382e-07
7.6939426e-07
7.7410781e-07
7.7965629e-07
7.8613578e-07
7.9364405e-07
8.0228222e-07
8.1215466e-07
8.23369e-07
8.3603379e-07
8.5024984e-07
8.6612279e-07
8.8365547e-07
9.0314336e-07
9.238732e-07
9.4501955e-07
9.663799e-07
9.8798988e-07
1.0098355e-06
1.0325332e-06
1.0547002e-06
1.0823228e-06
8.8247452e-07
8.6733903e-07
8.5438031e-07
8.4355692e-07
8.344548e-07
8.2667128e-07
8.1990147e-07
8.1392853e-07
8.0859752e-07
8.0379493e-07
7.9943534e-07
7.954527e-07
7.917949e-07
7.8841997e-07
7.852937e-07
7.8238778e-07
7.7967861e-07
7.7714631e-07
7.7477404e-07
7.7254739e-07
7.7045403e-07
7.684833e-07
7.66626e-07
7.6487413e-07
7.6322075e-07
7.6165982e-07
7.6018607e-07
7.5879492e-07
7.574824e-07
7.5624506e-07
7.550799e-07
7.5398437e-07
7.5295625e-07
7.5199367e-07
7.5109502e-07
7.5025894e-07
7.4948427e-07
7.4877003e-07
7.4811539e-07
7.475196e-07
7.4698203e-07
7.4650206e-07
7.4607908e-07
7.4571243e-07
7.4540138e-07
7.4514508e-07
7.4494249e-07
7.4479232e-07
7.4469308e-07
7.4464308e-07
7.4464004e-07
7.4468126e-07
7.4476484e-07
7.4488648e-07
7.4504231e-07
7.4522977e-07
7.4544448e-07
7.4568129e-07
7.4593463e-07
7.4619834e-07
7.4646752e-07
7.4673768e-07
7.4700377e-07
7.4726154e-07
7.4750847e-07
7.4774346e-07
7.4796676e-07
7.4818053e-07
7.4838939e-07
7.4860091e-07
7.4882607e-07
7.4907982e-07
7.4938144e-07
7.49755e-07
7.5023048e-07
7.5083841e-07
7.516169e-07
7.5261268e-07
7.5388015e-07
7.5547631e-07
7.5746645e-07
7.5992148e-07
7.6291453e-07
7.6652604e-07
7.7083621e-07
7.7593102e-07
7.8189864e-07
7.8882869e-07
7.9681218e-07
8.0594046e-07
8.1630617e-07
8.2800449e-07
8.4112857e-07
8.5578334e-07
8.7203174e-07
8.9000357e-07
9.0972439e-07
9.3003914e-07
9.5062946e-07
9.714106e-07
9.9225131e-07
1.0135038e-06
1.0340421e-06
1.0583541e-06
8.8247988e-07
8.6735119e-07
8.5439724e-07
8.4357706e-07
8.3447716e-07
8.2669516e-07
8.1992645e-07
8.1395437e-07
8.0862404e-07
8.03822e-07
7.9946282e-07
7.9548047e-07
7.9182284e-07
7.8844797e-07
7.8532166e-07
7.8241562e-07
7.7970624e-07
7.7717366e-07
7.7480102e-07
7.7257393e-07
7.7048005e-07
7.6850873e-07
7.6665076e-07
7.6489814e-07
7.6324393e-07
7.6168207e-07
7.602073e-07
7.5881504e-07
7.5750131e-07
7.5626266e-07
7.5509609e-07
7.5399902e-07
7.5296925e-07
7.5200489e-07
7.5110432e-07
7.5026617e-07
7.4948927e-07
7.4877264e-07
7.4811542e-07
7.4751688e-07
7.4697633e-07
7.4649317e-07
7.4606675e-07
7.4569641e-07
7.4538138e-07
7.4512079e-07
7.4491356e-07
7.4475837e-07
7.4465371e-07
7.445978e-07
7.4458837e-07
7.4462274e-07
7.4469868e-07
7.4481223e-07
7.4495923e-07
7.4513662e-07
7.4533992e-07
7.4556392e-07
7.4580303e-07
7.4605115e-07
7.4630304e-07
7.465539e-07
7.4679858e-07
7.4703256e-07
7.4725276e-07
7.4745752e-07
7.4764648e-07
7.4782116e-07
7.4798542e-07
7.4814597e-07
7.4831284e-07
7.4849984e-07
7.4872493e-07
7.490109e-07
7.4938504e-07
7.4988115e-07
7.5053685e-07
7.5139835e-07
7.5251393e-07
7.5393659e-07
7.5572508e-07
7.5794568e-07
7.6066699e-07
7.6396403e-07
7.6791501e-07
7.7260134e-07
7.7810638e-07
7.8451519e-07
7.919135e-07
8.0038581e-07
8.1001561e-07
8.2088532e-07
8.330759e-07
8.466685e-07
8.6175252e-07
8.7835593e-07
8.9679264e-07
9.1612806e-07
9.3584091e-07
9.5580351e-07
9.7587468e-07
9.9625988e-07
1.0159806e-06
1.0385576e-06
8.8248596e-07
8.6736368e-07
8.5441423e-07
8.4359701e-07
8.3449912e-07
8.2671849e-07
8.1995081e-07
8.1397955e-07
8.086499e-07
8.0384838e-07
7.9948959e-07
7.9550749e-07
7.9185e-07
7.8847518e-07
7.8534883e-07
7.8244267e-07
7.7973311e-07
7.7720029e-07
7.7482735e-07
7.7259993e-07
7.7050568e-07
7.6853395e-07
7.6667553e-07
7.6492243e-07
7.6326771e-07
7.6170531e-07
7.6022998e-07
7.5883711e-07
7.5752274e-07
7.5628339e-07
7.5511607e-07
7.540182e-07
7.5298755e-07
7.5202222e-07
7.511206e-07
7.5028129e-07
7.4950312e-07
7.4878508e-07
7.4812631e-07
7.4752605e-07
7.4698361e-07
7.4649836e-07
7.4606964e-07
7.4569676e-07
7.4537894e-07
7.4511526e-07
7.4490463e-07
7.4474571e-07
7.4463693e-07
7.4457647e-07
7.4456204e-07
7.4459089e-07
7.4466059e-07
7.4476724e-07
7.4490672e-07
7.450757e-07
7.4526962e-07
7.454832e-07
7.4571081e-07
7.4594632e-07
7.4618419e-07
7.4641926e-07
7.4664629e-07
7.4686047e-07
7.4705837e-07
7.4723781e-07
7.4739801e-07
7.4753996e-07
7.4766691e-07
7.4778489e-07
7.479031e-07
7.4803442e-07
7.4819573e-07
7.4840863e-07
7.4869926e-07
7.4909747e-07
7.4963749e-07
7.5036421e-07
7.5132278e-07
7.5256588e-07
7.5415222e-07
7.5614498e-07
7.5861057e-07
7.6162031e-07
7.652481e-07
7.695703e-07
7.7466517e-07
7.8061207e-07
7.8749097e-07
7.9538135e-07
8.0436098e-07
8.1450505e-07
8.2588695e-07
8.3857312e-07
8.5264439e-07
8.6811995e-07
8.8521616e-07
9.0356374e-07
9.2234662e-07
9.4139246e-07
9.6058864e-07
9.801149e-07
9.9910639e-07
1.0206558e-06
8.8249289e-07
8.6737681e-07
8.5443156e-07
8.4361705e-07
8.3452102e-07
8.2674172e-07
8.1997503e-07
8.1400456e-07
8.0867552e-07
8.0387446e-07
7.9951597e-07
7.9553405e-07
7.9187662e-07
7.8850175e-07
7.8537527e-07
7.8246889e-07
7.7975904e-07
7.7722585e-07
7.7485248e-07
7.7262455e-07
7.7052973e-07
7.6855737e-07
7.6669826e-07
7.649444e-07
7.6328885e-07
7.6172556e-07
7.6024926e-07
7.5885535e-07
7.5753986e-07
7.562993e-07
7.5513068e-07
7.5403143e-07
7.5299928e-07
7.5203234e-07
7.5112898e-07
7.502878e-07
7.4950762e-07
7.4878741e-07
7.4812631e-07
7.4752354e-07
7.4697841e-07
7.4649026e-07
7.4605842e-07
7.4568218e-07
7.4536075e-07
7.4509317e-07
7.4487834e-07
7.4471489e-07
7.4460121e-07
7.4453543e-07
7.4451522e-07
7.4453787e-07
7.4460074e-07
7.4470002e-07
7.4483159e-07
7.4499175e-07
7.4517586e-07
7.4537858e-07
7.4559419e-07
7.4581657e-07
7.4603996e-07
7.4625897e-07
7.4646817e-07
7.4666257e-07
7.468383e-07
7.4699281e-07
7.4712488e-07
7.4723501e-07
7.4732589e-07
7.4740285e-07
7.4747433e-07
7.4755232e-07
7.4765265e-07
7.4779581e-07
7.4800643e-07
7.4831439e-07
7.4875349e-07
7.4936675e-07
7.501963e-07
7.5129295e-07
7.5271093e-07
7.5450832e-07
7.5675114e-07
7.5950596e-07
7.628434e-07
7.6683659e-07
7.715601e-07
7.7708949e-07
7.8350029e-07
7.9086733e-07
7.9926369e-07
8.0875955e-07
8.1942268e-07
8.3131482e-07
8.4449948e-07
8.5902369e-07
8.7493819e-07
8.9241214e-07
9.1034478e-07
9.2850275e-07
9.4678301e-07
9.6536984e-07
9.8349718e-07
1.0040313e-06
8.8250074e-07
8.6739041e-07
8.5444907e-07
8.4363718e-07
8.3454303e-07
8.2676507e-07
8.1999935e-07
8.1402961e-07
8.0870108e-07
8.0390038e-07
7.9954211e-07
7.955603e-07
7.9190286e-07
7.8852789e-07
7.8540121e-07
7.8249456e-07
7.7978435e-07
7.7725073e-07
7.7487687e-07
7.726484e-07
7.7055297e-07
7.6857995e-07
7.6672013e-07
7.6496551e-07
7.6330915e-07
7.61745e-07
7.6026778e-07
7.588729e-07
7.5755636e-07
7.563147e-07
7.551449e-07
7.5404437e-07
7.5301089e-07
7.520425e-07
7.5113758e-07
7.5029472e-07
7.4951272e-07
7.4879057e-07
7.4812736e-07
7.4752231e-07
7.4697472e-07
7.4648391e-07
7.460492e-07
7.4566986e-07
7.4534506e-07
7.4507385e-07
7.4485508e-07
7.4468737e-07
7.4456906e-07
7.4449825e-07
7.444726e-07
7.4448936e-07
7.4454573e-07
7.4463797e-07
7.447619e-07
7.4491364e-07
7.4508853e-07
7.4528114e-07
7.4548567e-07
7.4569593e-07
7.4590603e-07
7.4611035e-07
7.4630333e-07
7.4647984e-07
7.4663571e-07
7.4676791e-07
7.4687485e-07
7.4695659e-07
7.4701533e-07
7.4705583e-07
7.4708587e-07
7.4711667e-07
7.4716327e-07
7.4724491e-07
7.4738564e-07
7.4761227e-07
7.4795786e-07
7.4846333e-07
7.4916935e-07
7.5012337e-07
7.5138012e-07
7.5299667e-07
7.5503381e-07
7.5755771e-07
7.6063426e-07
7.6433386e-07
7.6872648e-07
7.7388389e-07
7.7987728e-07
7.86777e-07
7.9465193e-07
8.0356824e-07
8.1358884e-07
8.2477285e-07
8.3717263e-07
8.5084928e-07
8.6579245e-07
8.8226691e-07
8.9946842e-07
9.1690224e-07
9.3440824e-07
9.5214589e-07
9.6943179e-07
9.8888001e-07
8.8250961e-07
8.6740484e-07
8.5446724e-07
8.4365789e-07
8.3456557e-07
8.2678887e-07
8.2002404e-07
8.140549e-07
8.087268e-07
8.0392636e-07
7.9956822e-07
7.9558642e-07
7.9192888e-07
7.8855371e-07
7.8542674e-07
7.825197e-07
7.7980902e-07
7.7727486e-07
7.7490039e-07
7.7267124e-07
7.7057506e-07
7.6860123e-07
7.6674052e-07
7.6498495e-07
7.6332758e-07
7.6176234e-07
7.6028395e-07
7.5888783e-07
7.5756997e-07
7.563269e-07
7.5515559e-07
7.5405346e-07
7.5301826e-07
7.5204806e-07
7.5114118e-07
7.5029621e-07
7.4951196e-07
7.4878738e-07
7.4812158e-07
7.4751376e-07
7.4696319e-07
7.464692e-07
7.4603107e-07
7.4564807e-07
7.4531935e-07
7.4504393e-07
7.4482063e-07
7.4464804e-07
7.445245e-07
7.4444805e-07
7.4441633e-07
7.4442655e-07
7.4447582e-07
7.4456041e-07
7.4467611e-07
7.4481889e-07
7.4498398e-07
7.4516591e-07
7.4535884e-07
7.4555651e-07
7.457529e-07
7.4594222e-07
7.4611873e-07
7.462771e-07
7.4641295e-07
7.4652301e-07
7.4660535e-07
7.4665957e-07
7.4668747e-07
7.4669331e-07
7.4668423e-07
7.4667071e-07
7.4666707e-07
7.4669138e-07
7.4676704e-07
7.4691958e-07
7.4718206e-07
7.4759245e-07
7.4819062e-07
7.4902257e-07
7.5013868e-07
7.5159451e-07
7.5344915e-07
7.5576483e-07
7.5860608e-07
7.6203975e-07
7.661335e-07
7.709554e-07
7.7657333e-07
7.8305404e-07
7.9046227e-07
7.9886021e-07
8.0830652e-07
8.1885672e-07
8.3055853e-07
8.4346802e-07
8.5758788e-07
8.7307459e-07
8.8958815e-07
9.0637903e-07
9.2322583e-07
9.4024568e-07
9.5682073e-07
9.7526724e-07
8.825192e-07
8.674196e-07
8.5448561e-07
8.436788e-07
8.3458827e-07
8.2681279e-07
8.200488e-07
8.1408024e-07
8.0875251e-07
8.0395226e-07
7.9959418e-07
7.9561231e-07
7.9195459e-07
7.8857914e-07
7.8545178e-07
7.8254426e-07
7.7983301e-07
7.772982e-07
7.74923e-07
7.7269304e-07
7.7059598e-07
7.686212e-07
7.6675948e-07
7.6500282e-07
7.6334429e-07
7.6177782e-07
7.6029813e-07
7.5890062e-07
7.5758128e-07
7.5633663e-07
7.5516366e-07
7.5405975e-07
7.5302266e-07
7.5205044e-07
7.5114145e-07
7.502942e-07
7.4950749e-07
7.4878027e-07
7.4811164e-07
7.4750079e-07
7.4694699e-07
7.4644953e-07
7.4600769e-07
7.456207e-07
7.452877e-07
7.4500768e-07
7.4477945e-07
7.4460157e-07
7.4447234e-07
7.4438976e-07
7.4435145e-07
7.443546e-07
7.4439622e-07
7.4447258e-07
7.4457946e-07
7.4471266e-07
7.4486737e-07
7.4503807e-07
7.4521888e-07
7.4540359e-07
7.45586e-07
7.4576014e-07
7.4592018e-07
7.4606062e-07
7.4617685e-07
7.4626537e-07
7.4632392e-07
7.4635187e-07
7.4635047e-07
7.4632362e-07
7.4627798e-07
7.4622338e-07
7.4617352e-07
7.4614551e-07
7.4616205e-07
7.4624718e-07
7.4643326e-07
7.4675553e-07
7.4725352e-07
7.4797099e-07
7.4895823e-07
7.5026825e-07
7.5195671e-07
7.54085e-07
7.5671433e-07
7.5990963e-07
7.6373495e-07
7.6825583e-07
7.7353667e-07
7.796412e-07
7.8663098e-07
7.9456478e-07
8.0349773e-07
8.1348125e-07
8.2456115e-07
8.3678188e-07
8.5017482e-07
8.6477206e-07
8.8066587e-07
8.9687548e-07
9.1313181e-07
9.2951895e-07
9.4548371e-07
9.6306409e-07
8.8252909e-07
8.6743465e-07
8.5450424e-07
8.4369992e-07
8.3461114e-07
8.2683683e-07
8.2007359e-07
8.1410553e-07
8.087781e-07
8.0397798e-07
7.9961989e-07
7.9563786e-07
7.9197987e-07
7.8860403e-07
7.8547616e-07
7.8256803e-07
7.7985607e-07
7.7732046e-07
7.7494436e-07
7.7271342e-07
7.706153e-07
7.6863937e-07
7.6677641e-07
7.6501843e-07
7.6335849e-07
7.6179051e-07
7.6030922e-07
7.5891e-07
7.5758886e-07
7.5634229e-07
7.5516727e-07
7.5406118e-07
7.5302177e-07
7.5204708e-07
7.5113544e-07
7.5028542e-07
7.4949573e-07
7.4876531e-07
7.4809325e-07
7.4747872e-07
7.4692099e-07
7.4641932e-07
7.4597298e-07
7.4558118e-07
7.4524303e-07
7.449575e-07
7.4472336e-07
7.4453914e-07
7.4440312e-07
7.4431326e-07
7.4426714e-07
7.4426193e-07
7.4429457e-07
7.443613e-07
7.4445788e-07
7.4458002e-07
7.4472281e-07
7.4488071e-07
7.4504778e-07
7.4521778e-07
7.4538445e-07
7.455417e-07
7.456836e-07
7.4580458e-07
7.4589984e-07
7.4596558e-07
7.4599936e-07
7.4600032e-07
7.4596953e-07
7.4591044e-07
7.4582911e-07
7.4573492e-07
7.4564104e-07
7.4556369e-07
7.4552516e-07
7.455481e-07
7.4566493e-07
7.4590848e-07
7.4631672e-07
7.4693384e-07
7.4780585e-07
7.4898495e-07
7.5052549e-07
7.5248515e-07
7.5492445e-07
7.5790464e-07
7.6148852e-07
7.6573858e-07
7.707169e-07
7.7648445e-07
7.8309902e-07
7.9061659e-07
7.9908959e-07
8.085658e-07
8.1908942e-07
8.3069622e-07
8.4343188e-07
8.572723e-07
8.7245416e-07
8.88144e-07
9.0390267e-07
9.1975724e-07
9.3520593e-07
9.520599e-07
8.8253969e-07
8.6745009e-07
8.5452311e-07
8.4372116e-07
8.3463402e-07
8.2686078e-07
8.2009825e-07
8.1413063e-07
8.0880341e-07
8.0400335e-07
7.9964514e-07
7.9566287e-07
7.9200449e-07
7.8862812e-07
7.8549961e-07
7.8259071e-07
7.7987787e-07
7.7734126e-07
7.7496407e-07
7.7273193e-07
7.706325e-07
7.6865516e-07
7.6679069e-07
7.650311e-07
7.6336943e-07
7.6179962e-07
7.6031637e-07
7.5891508e-07
7.5759173e-07
7.5634281e-07
7.551653e-07
7.5405655e-07
7.5301431e-07
7.520366e-07
7.5112175e-07
7.502683e-07
7.4947502e-07
7.4874072e-07
7.480645e-07
7.4744551e-07
7.4688299e-07
7.4637619e-07
7.4592436e-07
7.4552667e-07
7.4518222e-07
7.4488993e-07
7.4464854e-07
7.4445656e-07
7.4431222e-07
7.4421344e-07
7.4415776e-07
7.4414232e-07
7.4416398e-07
7.4421896e-07
7.4430301e-07
7.4441172e-07
7.4454013e-07
7.4468266e-07
7.4483334e-07
7.449859e-07
7.4513403e-07
7.4527156e-07
7.4539247e-07
7.4549114e-07
7.4556268e-07
7.4560321e-07
7.4561008e-07
7.4558218e-07
7.4552041e-07
7.4542792e-07
7.4531071e-07
7.4517741e-07
7.450408e-07
7.4491659e-07
7.448261e-07
7.4479171e-07
7.4484454e-07
7.4501565e-07
7.4534281e-07
7.4586751e-07
7.4663591e-07
7.4769739e-07
7.4910524e-07
7.5091531e-07
7.531846e-07
7.5597316e-07
7.5934122e-07
7.6334907e-07
7.6805641e-07
7.7352152e-07
7.7980029e-07
7.8694596e-07
7.9500711e-07
8.0402958e-07
8.1405519e-07
8.2511586e-07
8.3725529e-07
8.5045413e-07
8.6488107e-07
8.80073e-07
8.9538282e-07
9.1077295e-07
9.2577729e-07
9.4202033e-07
8.8255057e-07
8.6746584e-07
8.5454222e-07
8.4374255e-07
8.3465696e-07
8.2688471e-07
8.2012279e-07
8.1415549e-07
8.088284e-07
8.0402827e-07
7.9966982e-07
7.9568715e-07
7.9202821e-07
7.8865114e-07
7.8552178e-07
7.8261189e-07
7.7989793e-07
7.7736007e-07
7.7498149e-07
7.7274783e-07
7.7064677e-07
7.6866766e-07
7.6680129e-07
7.6503966e-07
7.6337581e-07
7.6180368e-07
7.6031796e-07
7.5891403e-07
7.5758786e-07
7.5633594e-07
7.5515524e-07
7.5404309e-07
7.5299722e-07
7.5201565e-07
7.5109666e-07
7.502388e-07
7.494408e-07
7.4870158e-07
7.4802002e-07
7.473953e-07
7.4682662e-07
7.4631321e-07
7.4585428e-07
7.4544898e-07
7.4509634e-07
7.4479528e-07
7.4454448e-07
7.443424e-07
7.4418722e-07
7.4407682e-07
7.4400869e-07
7.4397991e-07
7.4398727e-07
7.4402696e-07
7.4409468e-07
7.4418594e-07
7.4429572e-07
7.4441842e-07
7.4454802e-07
7.4467826e-07
7.448028e-07
7.4491542e-07
7.450101e-07
7.4508118e-07
7.4512375e-07
7.4513386e-07
7.4510886e-07
7.450476e-07
7.4495085e-07
7.4482159e-07
7.4466559e-07
7.4449145e-07
7.4431161e-07
7.4414078e-07
7.4400024e-07
7.4391124e-07
7.4390482e-07
7.440106e-07
7.4426504e-07
7.4470811e-07
7.4538453e-07
7.4634245e-07
7.4763314e-07
7.4931061e-07
7.5143053e-07
7.5405019e-07
7.5722775e-07
7.6102134e-07
7.6548824e-07
7.7068433e-07
7.7666334e-07
7.8347612e-07
7.9117015e-07
7.9978693e-07
8.0936682e-07
8.1994118e-07
8.3154523e-07
8.4418121e-07
8.5792029e-07
8.7265038e-07
8.8754064e-07
9.0250157e-07
9.1709797e-07
9.3279645e-07
8.8256183e-07
8.6748174e-07
8.5456131e-07
8.4376383e-07
8.346797e-07
8.2690836e-07
8.2014696e-07
8.1417992e-07
8.0885282e-07
8.0405248e-07
7.9969363e-07
7.9571038e-07
7.9205068e-07
7.8867268e-07
7.855422e-07
7.8263103e-07
7.7991562e-07
7.7737614e-07
7.7499578e-07
7.7276018e-07
7.70657e-07
7.6867561e-07
7.6680678e-07
7.6504252e-07
7.6337586e-07
7.6180071e-07
7.6031177e-07
7.589044e-07
7.5757456e-07
7.5631873e-07
7.5513384e-07
7.5401722e-07
7.5296658e-07
7.5197989e-07
7.5105545e-07
7.5019176e-07
7.4938752e-07
7.4864159e-07
7.4795305e-07
7.4732074e-07
7.4674389e-07
7.4622168e-07
7.4575328e-07
7.4533779e-07
7.4497419e-07
7.4466133e-07
7.4439783e-07
7.4418209e-07
7.4401221e-07
7.4388601e-07
7.438009e-07
7.4375391e-07
7.4374173e-07
7.4376049e-07
7.4380586e-07
7.4387323e-07
7.4395754e-07
7.4405314e-07
7.4415404e-07
7.4425397e-07
7.4434659e-07
7.4442574e-07
7.4448541e-07
7.4452005e-07
7.4452481e-07
7.4449584e-07
7.4443057e-07
7.4432794e-07
7.4418881e-07
7.4401622e-07
7.4381589e-07
7.4359639e-07
7.4336985e-07
7.4315127e-07
7.4296059e-07
7.4281917e-07
7.4275712e-07
7.4280297e-07
7.4299222e-07
7.4336439e-07
7.4396135e-07
7.4483042e-07
7.4602059e-07
7.4758449e-07
7.495755e-07
7.5205039e-07
7.5506097e-07
7.5866808e-07
7.6292577e-07
7.6788688e-07
7.736028e-07
7.8012226e-07
7.8749051e-07
7.95748e-07
8.0493206e-07
8.1507117e-07
8.2619502e-07
8.3832666e-07
8.5145259e-07
8.6577092e-07
8.8029403e-07
8.9487502e-07
9.0910514e-07
9.2431588e-07
8.8257334e-07
8.6749787e-07
8.5458048e-07
8.4378502e-07
8.3470223e-07
8.2693168e-07
8.2017069e-07
8.1420374e-07
8.0887649e-07
8.0407576e-07
7.9971629e-07
7.957322e-07
7.9207144e-07
7.8869216e-07