/*--------------------------------*- C++ -*----------------------------------*\
| =========                 |                                                 |
| \\      /  F ield         | OpenFOAM: The Open Source CFD Toolbox           |
|  \\    /   O peration     | Version:  2406                                  |
|   \\  /    A nd           | Website:  www.openfoam.com                      |
|    \\/     M anipulation  |                                                 |
\*---------------------------------------------------------------------------*/
FoamFile
{
    version     2.0;
    format      ascii;
    arch        "LSB;label=32;scalar=64";
    class       volScalarField;
    location    "1400";
    object      omega;
}
// * * * * * * * * * * * * * * * * * * * * * * * * * * * * * * * * * * * * * //

dimensions      [0 0 -1 0 0 0 0];

internalField   nonuniform List<scalar> 
132739
(
3.9027044
3.1852582
2.6832063
2.3226692
2.053594
1.8454474
1.6795826
1.5442166
1.4315892
1.3363842
1.2548346
1.1841925
1.1224049
1.0679055
1.0194784
0.97616426
0.93719654
0.90195481
0.86993164
0.84070791
0.81393439
0.78931776
0.76660981
0.74559916
0.72610465
0.70797013
0.69106033
0.67525749
0.66045861
0.6465732
0.63352151
0.62123289
0.60964462
0.5987008
0.58835143
0.57855172
0.56926133
0.56044393
0.55206663
0.54409962
0.53651577
0.52929036
0.52240079
0.51582635
0.50954798
0.50354814
0.49781063
0.49232085
0.48706153
0.48201532
0.47716563
0.4725018
0.4679904
0.46359303
0.45934744
0.45518847
0.45114017
0.4471928
0.44339321
0.43977209
0.43633273
0.43310161
0.43007352
0.42718767
0.42442312
0.42177074
0.41922496
0.41678164
0.41443877
0.41219725
0.41006109
0.40803734
0.40613592
0.40436963
0.4027523
0.40131219
0.40009334
0.39918273
0.39849834
0.39853415
0.39882352
0.39959783
0.40093545
0.40304355
0.40585088
0.40933441
0.41348389
0.41830607
0.42383524
0.43013982
0.43730618
0.44548097
0.45429538
0.46370299
0.47368869
0.48425096
0.49541233
0.50721507
0.51970956
0.53295257
0.54702124
0.56200831
0.5781191
0.59508688
3.9029299
3.1858299
2.6839363
2.3234625
2.054405
1.8462546
1.6803755
1.5449909
1.4323431
1.3371181
1.2555495
1.18489
1.1230868
1.0685736
1.0201345
0.97681031
0.93783418
0.90258569
0.87055729
0.84132975
0.81455374
0.78993581
0.76722764
0.74621772
0.72672476
0.70859247
0.69168547
0.67588585
0.66109047
0.64720872
0.63416068
0.6218756
0.61029062
0.59934972
0.5890028
0.57920495
0.56991578
0.56109887
0.5527213
0.54475323
0.53716755
0.52993955
0.52304668
0.51646828
0.51018538
0.50418052
0.49843778
0.49294074
0.48765961
0.48257406
0.47767135
0.47294827
0.4683663
0.46393842
0.45966224
0.45552202
0.45152943
0.44768436
0.44399602
0.44047628
0.43714638
0.43402743
0.43112437
0.42835681
0.42568755
0.423106
0.42060958
0.41819999
0.41588183
0.41366197
0.41154938
0.40955522
0.40769296
0.40597823
0.40443179
0.40305556
0.40183528
0.40078156
0.39991472
0.39931205
0.39901263
0.39906646
0.39951532
0.40051637
0.40220392
0.40469017
0.40805743
0.41235282
0.41758993
0.42376492
0.4308541
0.43891157
0.447731
0.456793
0.46606104
0.47561851
0.48556511
0.49599395
0.50698731
0.51861936
0.53093725
0.54408862
0.55765949
0.57446773
3.903159
3.1863862
2.6846361
2.3242132
2.0551632
1.8470005
1.6811002
1.5456908
1.4330171
1.3377663
1.2561725
1.1854886
1.1236619
1.0691261
1.020665
0.97731933
0.93832228
0.90305322
0.87100449
0.84175678
0.81496066
0.79032262
0.76759427
0.74656404
0.72705061
0.70889767
0.69196981
0.67614911
0.66133243
0.64742916
0.63435942
0.62205247
0.61044548
0.59948246
0.58911336
0.57929331
0.56998196
0.56114295
0.55274339
0.54475349
0.5371462
0.52989683
0.52298288
0.5163837
0.51008034
0.50405535
0.49829254
0.49277674
0.48749525
0.48243561
0.47758484
0.47294592
0.4684329
0.46407684
0.45988615
0.45585203
0.4519654
0.4482199
0.44462571
0.44116773
0.43784249
0.43471035
0.43171741
0.42882083
0.42601238
0.42329085
0.42065759
0.41811553
0.4156688
0.41332282
0.41108466
0.40896335
0.40696997
0.40511822
0.40342146
0.40191419
0.40063853
0.39962276
0.39888852
0.39844492
0.39830369
0.3984755
0.39896948
0.39980885
0.40104787
0.40277513
0.40510783
0.40817825
0.41211411
0.41702275
0.42297056
0.43000452
0.43812204
0.44721271
0.45668644
0.46627692
0.47595377
0.48577336
0.49582732
0.50623115
0.51705127
0.52857108
0.54003364
0.55511418
3.9033924
3.1869312
2.6853177
2.3249429
2.0558994
1.8477244
1.6818038
1.5463711
1.4336739
1.3384002
1.2567848
1.1860809
1.1242358
1.0696834
1.0212072
0.97784798
0.93883883
0.90355903
0.87150089
0.842245
0.81544189
0.79079795
0.76806477
0.74703072
0.72751442
0.70935953
0.69243056
0.67660957
0.66179335
0.64789128
0.6348234
0.62251893
0.61091501
0.59995559
0.58959057
0.57977503
0.57046857
0.56163478
0.55324073
0.54525658
0.53765521
0.5304119
0.5235041
0.51691112
0.51061396
0.50459513
0.4988384
0.49332872
0.48805168
0.4829942
0.47814372
0.47348555
0.46902386
0.46473496
0.46060902
0.45664581
0.45283622
0.449171
0.44563503
0.44222025
0.43892862
0.435748
0.43266995
0.42969287
0.42681538
0.42403623
0.42135464
0.41877095
0.41628708
0.41390667
0.41163532
0.40948083
0.40745329
0.40556515
0.40383367
0.40226311
0.4008618
0.39965199
0.39866667
0.39794551
0.39753161
0.39746674
0.39778775
0.39852024
0.39968058
0.40128446
0.4033591
0.40595501
0.4091519
0.41305661
0.41778976
0.42347144
0.43019181
0.43811944
0.44684447
0.4560218
0.46548198
0.47512384
0.48489557
0.49480999
0.50486046
0.51532882
0.52548679
0.53856008
3.903629
3.1874672
2.6859837
2.3256535
2.0566149
1.848427
1.6824857
1.5470296
1.4343082
1.3390109
1.2573729
1.1866476
1.1247823
1.0702106
1.0217163
0.9783399
0.93931438
0.90401896
0.87194583
0.84267551
0.81585844
0.79120096
0.76845458
0.74740763
0.72787868
0.70971135
0.69277012
0.67693702
0.66210883
0.64819488
0.63511521
0.62279904
0.61118348
0.60021248
0.58983595
0.58000895
0.57069109
0.56184596
0.55344061
0.54544522
0.53783266
0.53057822
0.52365934
0.51705532
0.51074717
0.50471737
0.4989497
0.49342905
0.48814171
0.48307488
0.47821621
0.47355465
0.46907629
0.46477404
0.46063647
0.45665589
0.45282337
0.4491312
0.44557187
0.44213685
0.43881967
0.43561526
0.43251705
0.42951971
0.4266206
0.42381765
0.42110929
0.41849519
0.41597652
0.41355605
0.41123835
0.40902999
0.40693966
0.4049785
0.40315841
0.40150469
0.40004278
0.39879461
0.39778083
0.39702274
0.39654429
0.39637418
0.39654692
0.39710112
0.39807534
0.39950324
0.40141097
0.40381944
0.40675167
0.41024342
0.41435174
0.41916194
0.42476304
0.43132435
0.43883597
0.44691713
0.4554693
0.46442647
0.47370714
0.48324281
0.4929232
0.50289569
0.5124816
0.52432672
3.9038687
3.1879922
2.6866326
2.3263447
2.0573102
1.8491091
1.6831477
1.5476687
1.4349243
1.3396047
1.2579456
1.1872005
1.1253169
1.0707283
1.0222185
0.97882782
0.93978921
0.90448182
0.87239775
0.84311746
0.81629131
0.7916256
0.76887178
0.74781811
0.72828314
0.71011041
0.69316439
0.67732705
0.66249514
0.64857794
0.63549548
0.62317691
0.61155933
0.60058666
0.59020877
0.58038069
0.571062
0.56221626
0.5538105
0.54581487
0.53820221
0.53094779
0.52402901
0.51742515
0.5111172
0.5050876
0.49932011
0.49379964
0.48851221
0.48344475
0.47858456
0.47391983
0.46944268
0.46513921
0.46100076
0.45702092
0.45318951
0.44949816
0.44593746
0.44249865
0.43917737
0.43596773
0.43286243
0.42985708
0.42694891
0.42413541
0.42141471
0.41878618
0.41625062
0.41381047
0.41146994
0.40923525
0.40711479
0.40511905
0.40326227
0.40155223
0.40000205
0.39863144
0.39746539
0.396533
0.39586589
0.39549724
0.39546121
0.39579299
0.39652919
0.39770725
0.39936313
0.40152805
0.40422602
0.40747456
0.41128946
0.41569478
0.42072855
0.42644337
0.4330103
0.44007597
0.44752004
0.45536009
0.4636119
0.47227171
0.48125304
0.4906445
0.49977969
0.5109905
3.9041134
3.188511
2.6872691
2.3270202
2.0579879
1.8497729
1.6837907
1.5482889
1.4355214
1.3401796
1.2584994
1.1877345
1.1258324
1.0712265
1.0227004
0.97929453
0.94024166
0.90492083
0.87282408
0.84353178
0.81669424
0.79201766
0.76925345
0.74818984
0.7286453
0.71046336
0.69350844
0.67766248
0.66282221
0.6488969
0.63580652
0.62348025
0.61185513
0.60087509
0.59048998
0.58065483
0.57132922
0.56247666
0.55406422
0.546062
0.53844285
0.53118203
0.52425693
0.51764682
0.51133265
0.50529686
0.49952321
0.49399657
0.48870295
0.48362937
0.47876346
0.47409341
0.46960933
0.46529972
0.46115456
0.45716563
0.45332411
0.44962194
0.44605055
0.4426018
0.43926965
0.43604791
0.43293011
0.42991129
0.42698771
0.42415643
0.42141535
0.41876348
0.41620122
0.41373049
0.41135488
0.40907983
0.40691275
0.40486326
0.40294248
0.40116848
0.39955999
0.39813602
0.39691646
0.39592257
0.39517756
0.39470713
0.3945399
0.39470744
0.39524376
0.39618526
0.3975701
0.39943683
0.40182182
0.404756
0.4082624
0.41235504
0.41704852
0.42233709
0.42831197
0.43482422
0.44155963
0.44850264
0.45570957
0.46325397
0.47114287
0.47952597
0.48781774
0.49821036
3.9043512
3.1890099
2.6878809
2.3276702
2.0586415
1.850414
1.6844126
1.548889
1.4360994
1.3407362
1.2590358
1.188252
1.1263322
1.07171
1.0231689
0.97974903
0.94068323
0.90535044
0.87324262
0.84394007
0.81709304
0.79240768
0.76963534
0.74856419
0.72901266
0.71082425
0.69386334
0.67801182
0.6631664
0.6492363
0.63614148
0.62381108
0.61218213
0.60119852
0.59081008
0.58097182
0.57164328
0.56278798
0.55437295
0.54636827
0.53874679
0.53148372
0.52455645
0.51794422
0.51162798
0.50559013
0.49981441
0.49428569
0.48898995
0.48391411
0.4790457
0.47437295
0.46988586
0.46557304
0.46142478
0.45743314
0.45358895
0.44988354
0.4463084
0.44285528
0.43951777
0.43628978
0.43316489
0.43013785
0.42720478
0.42436264
0.42160915
0.41894307
0.41636451
0.41387503
0.41147785
0.40917799
0.40698244
0.40490019
0.40294307
0.40112082
0.39944722
0.39793992
0.39661987
0.39551083
0.39463889
0.39403167
0.39371773
0.39372637
0.39408754
0.3948319
0.39599109
0.39759803
0.39968687
0.40229185
0.40544531
0.40917376
0.41349828
0.4184264
0.42395927
0.43017901
0.43659421
0.44308864
0.44966819
0.4563939
0.46330314
0.47059005
0.47780428
0.48692135
3.9045821
3.1894926
2.6884711
2.3282962
2.0592702
1.851031
1.6850114
1.5494673
1.4366569
1.3412732
1.2595532
1.188751
1.1268141
1.0721759
1.0236198
0.98018603
0.94110726
0.90576235
0.87364317
0.84432996
0.81747289
0.79277805
0.76999675
0.7489171
0.7293575
0.7111614
0.69419315
0.67833461
0.66348245
0.64954589
0.63644486
0.62410847
0.61247374
0.60148454
0.59109069
0.58124718
0.57191354
0.56305329
0.55463343
0.54662404
0.53899794
0.53173035
0.52479863
0.51818203
0.51186146
0.50581932
0.50003933
0.49450635
0.48920633
0.48412617
0.47925345
0.47457645
0.47008487
0.46576765
0.46161476
0.45761764
0.45376731
0.45005524
0.44647305
0.44301261
0.4396672
0.43643054
0.43329628
0.43025902
0.42731454
0.42445941
0.42169105
0.41900793
0.41640979
0.41389782
0.41147475
0.40914506
0.40691507
0.40479314
0.40278946
0.40091784
0.39919359
0.39763365
0.39625651
0.39508211
0.39413244
0.39343159
0.3930055
0.39288183
0.3930896
0.39365857
0.39461874
0.39600002
0.39783229
0.40014554
0.40296978
0.40633432
0.41026512
0.41478818
0.41989624
0.42567881
0.43186459
0.43815114
0.44446161
0.45079738
0.45715865
0.46369984
0.47007783
0.47789556
3.9048084
3.1899589
2.6890403
2.3288996
2.0598759
1.8516247
1.6855875
1.5500236
1.4371929
1.3417896
1.260051
1.1892313
1.127278
1.0726246
1.0240544
0.98060756
0.94151661
0.90616038
0.87403067
0.84470767
0.81784146
0.79313811
0.77034885
0.74926176
0.7296952
0.71149258
0.6945182
0.67865392
0.66379636
0.64985471
0.63674888
0.62440797
0.61276896
0.6017757
0.59137799
0.58153082
0.57219368
0.56333008
0.55490701
0.54689453
0.53926545
0.53199497
0.52506043
0.51844107
0.51211779
0.50607297
0.50029031
0.49475468
0.48945198
0.4843691
0.4794936
0.47481376
0.47031906
0.4659986
0.46184242
0.45784185
0.45398792
0.45027195
0.44668555
0.44322062
0.43987018
0.43662778
0.43348711
0.43044261
0.42748982
0.42462515
0.42184584
0.41915016
0.41653761
0.41400905
0.41156688
0.40921518
0.40695984
0.40480864
0.40277174
0.40085914
0.39908401
0.39746228
0.39601231
0.39475466
0.39371193
0.39290812
0.3923685
0.3921193
0.39218735
0.39260017
0.39338546
0.39457078
0.3961831
0.39824868
0.40079309
0.40384158
0.40741772
0.41154754
0.41624255
0.42153741
0.42742153
0.43347243
0.43957413
0.44569325
0.45179439
0.45796232
0.46390783
0.47084996
3.9050319
3.190414
2.6895934
2.3294842
2.0604616
1.8521982
1.686143
1.5505594
1.437709
1.3422866
1.26053
1.1896935
1.1277244
1.0730563
1.0244724
0.98101291
0.94191014
0.9065429
0.87440289
0.84507024
0.81819499
0.79348313
0.77068586
0.74959121
0.7300175
0.7118081
0.6948273
0.67895691
0.66409354
0.65014635
0.63703523
0.62468924
0.61304537
0.60204743
0.59164523
0.58179372
0.5724524
0.56358475
0.55515775
0.54714146
0.53950867
0.53223457
0.5252965
0.51867367
0.51234698
0.5062988
0.50051282
0.49497388
0.48966788
0.48458167
0.47970283
0.47501963
0.47052144
0.46619748
0.46203771
0.45803322
0.45417502
0.4504544
0.446863
0.44339275
0.44003649
0.43678768
0.43363997
0.43058772
0.42762623
0.42475168
0.42196109
0.41925249
0.41662507
0.41407938
0.41161746
0.40924296
0.4069613
0.40477973
0.40270753
0.40075594
0.39893831
0.39726984
0.39576741
0.39444967
0.39333706
0.39245176
0.39181733
0.39145865
0.39140154
0.39167236
0.39229769
0.39330397
0.39471691
0.39656108
0.39885968
0.40163451
0.40490577
0.40869263
0.41301534
0.41787412
0.42336323
0.42913122
0.4349863
0.44087964
0.44677194
0.45271212
0.45844216
0.46493592
3.9052515
3.1908543
2.6901274
2.3300484
2.0610267
1.8527511
1.6866786
1.551076
1.4382065
1.3427657
1.2609918
1.1901389
1.1281547
1.0734726
1.0248756
0.98140391
0.94228982
0.90691202
0.87476219
0.84542038
0.81853656
0.79381669
0.77101191
0.74991021
0.73032989
0.71211428
0.69512763
0.67925172
0.66438314
0.65043102
0.63731523
0.62496481
0.61331672
0.60231479
0.59190877
0.5820536
0.57270879
0.56383779
0.55540756
0.54738816
0.53975237
0.53247537
0.52553447
0.51890889
0.5125795
0.50652867
0.50074008
0.49519855
0.48988997
0.48480118
0.47991973
0.47523391
0.47073296
0.46640618
0.46224352
0.45823595
0.45437447
0.45065034
0.4470552
0.44358098
0.44022038
0.43696671
0.43381359
0.43075527
0.4277869
0.42490445
0.42210477
0.41938569
0.41674617
0.4141865
0.41170841
0.4093152
0.4070119
0.40480527
0.4027043
0.4007185
0.39886011
0.39714358
0.39558532
0.39420377
0.39301912
0.39205298
0.39132817
0.39086841
0.39069811
0.39084203
0.39132503
0.39217182
0.39340657
0.39505252
0.39713152
0.39966367
0.40266745
0.40615813
0.41015426
0.41465335
0.41971932
0.42520046
0.43079483
0.43643399
0.44208421
0.44778964
0.45332023
0.45954055
3.9054678
3.1912838
2.6906463
2.3305951
2.0615733
1.8532857
1.6871961
1.551575
1.4386871
1.3432286
1.2614378
1.1905693
1.1285704
1.0738745
1.0252649
0.98178136
0.94265629
0.90726827
0.8751089
0.84575816
0.818866
0.79413829
0.77132614
0.75021752
0.73063066
0.71240889
0.69541641
0.67953499
0.66466118
0.65070409
0.63758357
0.62522863
0.61357624
0.60257018
0.59216021
0.58230126
0.57295281
0.56407831
0.55564471
0.54762206
0.53998311
0.53270306
0.5257592
0.51913073
0.51279853
0.50674494
0.50095363
0.49540943
0.4900982
0.48500677
0.48012268
0.47543422
0.47093056
0.46660104
0.4624356
0.45842507
0.45456044
0.45083293
0.44723414
0.44375602
0.44039116
0.43713278
0.43397442
0.43091025
0.42793526
0.42504528
0.42223694
0.41950789
0.41685685
0.41428385
0.41179031
0.40937919
0.40705513
0.40482449
0.40269564
0.40067828
0.39878439
0.39702778
0.39542396
0.39399032
0.39274566
0.3917104
0.39090634
0.39035615
0.39008332
0.39011162
0.39046489
0.39116669
0.39223993
0.39370658
0.39558726
0.39790088
0.4006646
0.40389275
0.40759931
0.41179155
0.41647881
0.42170365
0.42705865
0.43245141
0.43784848
0.44329519
0.44858737
0.4545271
3.9056812
3.1916998
2.6911475
2.3311232
2.0621015
1.8538022
1.6876963
1.5520575
1.4391517
1.3436761
1.2618691
1.1909853
1.1289722
1.0742632
1.0256413
0.98214635
0.94301067
0.90761278
0.8754442
0.84608487
0.81918467
0.79444945
0.77163025
0.75051502
0.73092195
0.71269433
0.69569635
0.67980973
0.66493101
0.65096929
0.63784436
0.62548525
0.61382888
0.60281904
0.59240547
0.58254309
0.57319136
0.56431371
0.55587711
0.54785157
0.54020986
0.53292714
0.5259807
0.51934975
0.51301513
0.50695919
0.50116559
0.49561915
0.49030572
0.48521209
0.48032584
0.47563523
0.47112936
0.46679761
0.46262992
0.45861701
0.45474986
0.45101967
0.44741801
0.44393683
0.44056864
0.43730653
0.43414402
0.43107516
0.4280948
0.42519862
0.4223831
0.41964567
0.41698488
0.4144005
0.41189369
0.40946711
0.40712504
0.40487347
0.40272037
0.40067457
0.39874739
0.3969521
0.3953036
0.39381876
0.39251613
0.39141543
0.39053763
0.38990459
0.38953867
0.38946266
0.38969917
0.39027059
0.39119861
0.39250401
0.39420628
0.39632325
0.39887091
0.40186313
0.4053109
0.40922682
0.41359994
0.41851145
0.42365727
0.42885105
0.43403731
0.43925359
0.44431702
0.44995886
3.9058928
3.1921068
2.6916357
2.3316364
2.0626142
1.8543034
1.6881815
1.5525252
1.4396021
1.3441097
1.2622868
1.1913882
1.1293613
1.0746394
1.0260056
0.98249959
0.94335363
0.90794617
0.87576867
0.84640101
0.81949303
0.79475051
0.77192448
0.75080282
0.73120371
0.7129704
0.69596706
0.68007539
0.66519189
0.65122564
0.63809642
0.62573323
0.61407299
0.60305943
0.59264234
0.58277659
0.57342166
0.56454096
0.55610143
0.5480731
0.54042871
0.53314342
0.52619452
0.5195612
0.5132243
0.50716616
0.50137043
0.49582192
0.49050648
0.4854109
0.48052272
0.47583022
0.47132245
0.4669888
0.46281921
0.45880433
0.45493509
0.45120268
0.44759864
0.4441149
0.4407439
0.43747864
0.43431256
0.43123964
0.4282546
0.42535296
0.42253102
0.41978612
0.41711657
0.41452191
0.41200303
0.40956229
0.40720365
0.40493273
0.40275708
0.40068533
0.39872842
0.39689906
0.39521163
0.39368218
0.39232836
0.3911692
0.39022488
0.38951644
0.38906548
0.38889392
0.38902357
0.38947606
0.39027208
0.39143139
0.39297241
0.39491197
0.39726498
0.40004451
0.40326039
0.40692422
0.4110294
0.41562212
0.4205647
0.42557753
0.43058211
0.43560295
0.44047361
0.4458436
3.9061009
3.1925006
2.692108
2.3321332
2.0631107
1.8547888
1.6886515
1.5529783
1.4400383
1.3445296
1.2626914
1.1917784
1.1297381
1.0750038
1.0263584
0.98284173
0.94368581
0.90826908
0.87608297
0.84670727
0.81979178
0.79504224
0.77220963
0.75108182
0.73147693
0.7132382
0.69622976
0.68033328
0.66544525
0.65147472
0.63834146
0.62597445
0.61431058
0.6032936
0.59287323
0.58300439
0.57364652
0.56476305
0.55632089
0.54829007
0.54064332
0.5333558
0.52640479
0.51976946
0.51343066
0.50737071
0.50157327
0.49602313
0.49070614
0.48560907
0.48071948
0.47602562
0.47151652
0.46718158
0.46301071
0.45899452
0.45512391
0.45139004
0.44778444
0.44429901
0.44092612
0.4376587
0.4344901
0.43141423
0.42842569
0.42551983
0.42269285
0.41994182
0.41726496
0.41466157
0.41213228
0.4096792
0.40730595
0.40501784
0.40282204
0.40072669
0.3987422
0.3968808
0.39515641
0.39358464
0.39218269
0.39096894
0.38996291
0.389185
0.38865609
0.38839729
0.38842957
0.38877359
0.38944949
0.39047611
0.39187099
0.39365009
0.39582745
0.39841514
0.40142268
0.4048584
0.40872547
0.41302805
0.41778519
0.42263137
0.42746945
0.4323142
0.43701597
0.44214758
3.9063046
3.1928846
2.6925668
2.332615
2.0635919
1.855259
1.6891067
1.553417
1.4404607
1.3449362
1.2630831
1.1921563
1.130103
1.0753567
1.0267001
0.9831731
0.94400758
0.90858194
0.87638752
0.84700408
0.82008137
0.79532508
0.77248617
0.75135243
0.73174201
0.71349808
0.69648476
0.68058369
0.66569135
0.65171676
0.63857968
0.62620906
0.61454178
0.60352159
0.59309819
0.58322645
0.57386588
0.56497987
0.55653534
0.5485023
0.54085348
0.53356403
0.52661122
0.51997423
0.51363389
0.50757254
0.5017738
0.49622249
0.49090443
0.4858064
0.48091595
0.47622133
0.47171153
0.46737598
0.46320456
0.45918784
0.45531668
0.45158222
0.44797597
0.4444898
0.44111601
0.43784746
0.43467744
0.43159974
0.42860885
0.42569999
0.4228692
0.4201134
0.41743056
0.41481976
0.41228152
0.4098176
0.40743134
0.40512773
0.40291355
0.40079668
0.39878717
0.39689673
0.39513887
0.3935287
0.39208276
0.39081892
0.38975609
0.38891402
0.38831302
0.38797357
0.38791607
0.38816045
0.38872602
0.38963096
0.39089244
0.3925255
0.39454343
0.39695742
0.39977671
0.40300719
0.40665715
0.41071142
0.4152443
0.41993975
0.42463806
0.42933463
0.43389302
0.43882139
3.9065051
3.1932567
2.6930111
2.3330815
2.0640578
1.8557143
1.6895473
1.5538419
1.4408696
1.34533
1.2634625
1.1925221
1.1304564
1.0756985
1.0270312
0.98349426
0.94431949
0.90888526
0.87668286
0.84729201
0.82036238
0.79559965
0.77275473
0.75161539
0.73199972
0.71375089
0.69673299
0.68082765
0.6659313
0.65195295
0.63881236
0.62643845
0.6147681
0.60374504
0.59331896
0.58344474
0.5740818
0.56519363
0.55674713
0.5487123
0.54106187
0.53377097
0.52681689
0.52017879
0.51383751
0.50777536
0.501976
0.49642421
0.49110584
0.48600765
0.48111719
0.47642271
0.47191318
0.46757801
0.46340712
0.459391
0.45552049
0.45178672
0.44818116
0.44469563
0.4413224
0.43805423
0.43488433
0.43180641
0.42881483
0.42590467
0.4230718
0.42031298
0.41762595
0.41500964
0.41246416
0.40999123
0.4075938
0.40527654
0.40304592
0.40090946
0.39887678
0.39695918
0.39516977
0.39352325
0.39203576
0.39072471
0.38960858
0.38870656
0.38803835
0.38762393
0.38748313
0.38763536
0.38809926
0.3888924
0.39003113
0.39152999
0.3934023
0.39565827
0.39830656
0.40135208
0.40480288
0.40864527
0.4129316
0.41747902
0.4220499
0.42661677
0.43105175
0.43580701
3.9067019
3.1936201
2.6934433
2.3335343
2.0645095
1.8561556
1.6899743
1.5542534
1.4412658
1.3457114
1.26383
1.1928767
1.1307989
1.0760298
1.0273522
0.98380563
0.94462202
0.9091796
0.8769696
0.84757169
0.82063551
0.79586668
0.77301609
0.75187148
0.73225092
0.71399754
0.69697542
0.68106614
0.66616615
0.65218443
0.63904071
0.62666392
0.61499091
0.6039654
0.59353709
0.58366085
0.5742961
0.56540622
0.55695827
0.5489222
0.54127075
0.53397905
0.52702437
0.52038589
0.51404444
0.50798235
0.50218325
0.49663196
0.4913143
0.48621704
0.48132774
0.47663465
0.47212672
0.46779337
0.46362451
0.45961058
0.45574241
0.45201109
0.44840806
0.44492511
0.44155444
0.43828871
0.43512105
0.43204505
0.42905496
0.4261457
0.42331295
0.42055329
0.41786426
0.41524452
0.41269398
0.41021394
0.4078071
0.40547803
0.40323276
0.40107848
0.3990245
0.39708175
0.3952629
0.39358225
0.39205557
0.39069987
0.38953322
0.38857442
0.38784275
0.38735771
0.38713864
0.38720451
0.38757349
0.3882627
0.38928792
0.39066327
0.39240098
0.39451186
0.39700369
0.3998811
0.40314981
0.40680349
0.4108612
0.41526795
0.4197165
0.42416024
0.42847999
0.43307643
3.9068948
3.1939715
2.693861
2.3339724
2.0649467
1.8565827
1.6903877
1.5546519
1.4416495
1.3460808
1.2641861
1.1932203
1.1311309
1.0763512
1.0276637
0.98410799
0.94491595
0.90946574
0.87724856
0.84784401
0.82090169
0.7961272
0.77327138
0.75212194
0.73249694
0.71423947
0.69721359
0.68130089
0.66639776
0.65241318
0.63926687
0.62688775
0.61521268
0.60418535
0.59375545
0.58387787
0.57451201
0.56562128
0.55717259
0.54913609
0.5414845
0.53419294
0.52723868
0.52060091
0.51426045
0.50819965
0.50240216
0.49685278
0.49153738
0.4864427
0.48155633
0.47686651
0.47236219
0.4680328
0.46386821
0.45985887
0.45599554
0.45226931
0.44867157
0.44519404
0.44182887
0.43856861
0.43540628
0.43233535
0.4293499
0.42644467
0.42361516
0.4208577
0.4181696
0.41554926
0.4129963
0.41051172
0.40809797
0.40575903
0.40350096
0.40133054
0.39925672
0.39729007
0.395443
0.39372946
0.39216485
0.39076589
0.38955029
0.38853658
0.38774386
0.38719066
0.38689813
0.38688184
0.38716052
0.38775138
0.38866985
0.38992964
0.3915426
0.3935187
0.39586547
0.39858879
0.40169126
0.40517328
0.4090241
0.41330452
0.41764439
0.4219765
0.42619019
0.43063749
3.9070843
3.1943148
2.6942675
2.3343975
2.0653706
1.8569966
1.6907882
1.555038
1.4420213
1.346439
1.2645314
1.1935536
1.1314532
1.0766632
1.0279664
0.98440208
0.94520214
0.90974468
0.87752084
0.84811017
0.82116226
0.79638265
0.77352216
0.75236848
0.73273962
0.71447868
0.69744969
0.68153421
0.66662864
0.65264194
0.63949381
0.62711317
0.61543686
0.60440859
0.59397805
0.58410011
0.57473419
0.5658437
0.55739558
0.54935979
0.54170933
0.53441924
0.52746685
0.52083135
0.5144936
0.50843595
0.50264206
0.49709676
0.49178592
0.48669631
0.4818155
0.47713179
0.47263409
0.46831183
0.4641549
0.46015369
0.45629896
0.45258173
0.44899333
0.44552544
0.44217009
0.43891973
0.4357672
0.43270583
0.42972949
0.42683271
0.42401072
0.4212596
0.41857637
0.41595912
0.41340715
0.41092112
0.40850314
0.40615689
0.40388787
0.4017026
0.39961017
0.39762069
0.39574615
0.39400025
0.39239821
0.39095648
0.38969243
0.38862494
0.38776905
0.38716572
0.38671034
0.38669513
0.38689618
0.38739208
0.38820565
0.38935233
0.39084452
0.39269214
0.39490256
0.39748071
0.40042833
0.40374965
0.40742666
0.41151973
0.41576089
0.42000627
0.42413875
0.42846195
3.9072685
3.1946457
2.6946597
2.3348083
2.0657803
1.8573969
1.6911758
1.5554119
1.4423815
1.3467862
1.2648663
1.1938773
1.1317665
1.076967
1.0282614
0.98468912
0.94548191
0.91001784
0.87778801
0.84837194
0.82141915
0.79663516
0.77377077
0.75261365
0.73298179
0.71471826
0.69768708
0.68176979
0.66686279
0.65287502
0.63972618
0.6273452
0.6156689
0.60464101
0.59421122
0.5843344
0.57496999
0.56608141
0.55763561
0.54960261
0.54195518
0.53466841
0.52772013
0.52108938
0.51475699
0.50870533
0.5029181
0.49738016
0.49207739
0.48699661
0.4821254
0.47745206
0.47296552
0.46865522
0.46451102
0.46052329
0.45668274
0.45298031
0.44940728
0.4459552
0.44261597
0.43938186
0.43624554
0.43320008
0.4302391
0.42735684
0.42454823
0.42180901
0.41913582
0.41652642
0.41397972
0.41149602
0.40907703
0.40672611
0.40444834
0.40225009
0.40013967
0.39812763
0.39622551
0.39444677
0.39280645
0.39132087
0.39000732
0.38888426
0.38796889
0.38728652
0.38683441
0.38665007
0.38677906
0.3871868
0.38790703
0.38895177
0.39033274
0.39206003
0.39414162
0.39658266
0.39938553
0.40255161
0.40607239
0.40997825
0.41411454
0.41827176
0.42232745
0.42653907
3.9074498
3.1949691
2.6950412
2.3352068
2.0661775
1.857785
1.6915515
1.5557744
1.4427311
1.3471234
1.2651921
1.1941925
1.132072
1.0772637
1.0285501
0.98497071
0.9457571
0.91028733
0.87805244
0.84863191
0.82167524
0.79688793
0.77402074
0.75286133
0.73322767
0.71496282
0.69793079
0.68201311
0.66710617
0.65311891
0.63997105
0.62759149
0.61591709
0.60489156
0.59446463
0.58459118
0.57523069
0.56634658
0.55790584
0.5498785
0.54223738
0.53495768
0.52801664
0.52139422
0.51507112
0.50902973
0.50325377
0.49772814
0.49243876
0.48737248
0.48251691
0.47786037
0.47339178
0.46910058
0.46497662
0.46101019
0.45719192
0.45351266
0.44996354
0.44653595
0.44322158
0.44001245
0.43690095
0.43387985
0.43094243
0.42808254
0.42529471
0.42257428
0.41991749
0.41732163
0.41478522
0.41230811
0.40989167
0.40753882
0.40525432
0.40304427
0.40091682
0.39888187
0.3969508
0.39513784
0.39345749
0.39192595
0.39056056
0.38937948
0.38840145
0.38764495
0.38713175
0.38686733
0.38687677
0.38720168
0.38782686
0.38877062
0.39004495
0.39165896
0.39361981
0.39593223
0.39859915
0.40162024
0.40499194
0.40871913
0.41275703
0.41682937
0.42080758
0.42491463
3.9076252
3.1952804
2.6954092
2.3355919
2.0665617
1.8581606
1.6919157
1.5561263
1.4430709
1.3474517
1.2655098
1.1945005
1.1323713
1.0775553
1.0288349
0.98524944
0.94603059
0.91055632
0.87831766
0.84889405
0.82193495
0.79714584
0.77427747
0.75311747
0.73348382
0.71521957
0.69818871
0.68227279
0.66736817
0.65338383
0.64023948
0.62786405
0.61619442
0.60517434
0.59475353
0.58488695
0.57553407
0.5666584
0.55822693
0.55020979
0.54257981
0.53531224
0.52838454
0.52177582
0.51546804
0.50944342
0.50368572
0.49817986
0.4929118
0.48786842
0.48303738
0.478407
0.4739662
0.46970434
0.46561121
0.46167698
0.45789213
0.45424733
0.45073348
0.44734171
0.44406341
0.44089026
0.43781425
0.43482776
0.43192362
0.42909522
0.42633663
0.4236427
0.42100918
0.41843292
0.41591197
0.41344576
0.41103523
0.40868297
0.40639337
0.40417233
0.40202787
0.39996964
0.39800899
0.39615925
0.39443512
0.39285442
0.39143379
0.39019139
0.3891461
0.38831665
0.38772258
0.38738305
0.38730437
0.38751958
0.38804008
0.38887769
0.39004297
0.3915443
0.39338797
0.3955777
0.39811603
0.40100078
0.40423412
0.40779363
0.41174492
0.41573408
0.41964785
0.42350414
3.9077987
3.1955852
2.6957675
2.3359659
2.0669348
1.8585255
1.6922697
1.5564689
1.4434023
1.3477728
1.2658214
1.1948037
1.1326671
1.0778447
1.0291189
0.98552899
0.9463066
0.91082965
0.87858913
0.84916445
0.82220507
0.79741645
0.77454933
0.75339133
0.73376043
0.71549968
0.69847309
0.68256219
0.66766341
0.6536857
0.64054883
0.62818174
0.61652137
0.60551149
0.59510191
0.58524761
0.57590815
0.56704708
0.55863148
0.55063153
0.54302015
0.53577268
0.52886659
0.52228131
0.51599766
0.50999948
0.50427009
0.49879466
0.49355921
0.48855066
0.48375663
0.47916534
0.4747656
0.47054666
0.46649812
0.46260996
0.4588724
0.45527582
0.45181077
0.44846802
0.44523853
0.44211351
0.4390845
0.43614336
0.43328241
0.43049453
0.42777327
0.42511296
0.4225089
0.41995744
0.41745621
0.41500424
0.4126021
0.41025207
0.40795822
0.40572634
0.40356433
0.40148178
0.39948993
0.39760198
0.39583294
0.39419889
0.39271942
0.3914121
0.3902958
0.38938982
0.38871309
0.38828526
0.38812237
0.38824098
0.38865726
0.38938532
0.39043686
0.39182095
0.39354411
0.39560993
0.39802058
0.4007732
0.40387007
0.4072909
0.41106519
0.41512065
0.4194012
0.42370477
3.9079659
3.1958784
2.6961133
2.336328
2.0672965
1.85888
1.6926146
1.5568036
1.4437272
1.3480887
1.2661295
1.1951051
1.1329631
1.0781363
1.0294073
0.98581525
0.94659178
0.91111481
0.87887529
0.84945262
0.82249624
0.79771161
0.77484947
0.75369746
0.73407356
0.71582085
0.69880334
0.68290262
0.66801512
0.65404986
0.64092665
0.6285745
0.6169304
0.6059382
0.59554778
0.5857142
0.57639711
0.56756014
0.55917047
0.55119836
0.54361682
0.53640127
0.52952926
0.52298025
0.51673531
0.51077713
0.50508911
0.49965876
0.49447122
0.48951313
0.48477188
0.48023555
0.47589277
0.47173257
0.46774429
0.46391754
0.46024216
0.45670811
0.45330547
0.4500245
0.44685566
0.44378963
0.44081742
0.43793034
0.4351202
0.43237937
0.42970091
0.42707871
0.42450762
0.42198363
0.419504
0.41706747
0.41467433
0.41232664
0.41002824
0.40778494
0.40560455
0.40349666
0.40147253
0.39954541
0.3977303
0.39604343
0.39450283
0.39312656
0.39193757
0.39095379
0.39019425
0.38967795
0.38942332
0.38944697
0.38976407
0.39038811
0.39133061
0.39260088
0.39420608
0.3961503
0.39843595
0.40106043
0.40402403
0.40731336
0.41093178
0.41486503
0.41909899
0.42365626
3.9081314
3.1961657
2.6964506
2.3366804