/*--------------------------------*- C++ -*----------------------------------*\
| =========                 |                                                 |
| \\      /  F ield         | OpenFOAM: The Open Source CFD Toolbox           |
|  \\    /   O peration     | Version:  2406                                  |
|   \\  /    A nd           | Website:  www.openfoam.com                      |
|    \\/     M anipulation  |                                                 |
\*---------------------------------------------------------------------------*/
FoamFile
{
    version     2.0;
    format      ascii;
    arch        "LSB;label=32;scalar=64";
    class       volScalarField;
    location    "1400";
    object      p;
}
// * * * * * * * * * * * * * * * * * * * * * * * * * * * * * * * * * * * * * //

dimensions      [1 -1 -2 0 0 0 0];

internalField   nonuniform List<scalar> 
132739
(
1.0027916
1.0028006
1.0028161
1.0028327
1.0028535
1.0028791
1.0029085
1.0029416
1.0029785
1.003019
1.0030632
1.0031108
1.0031618
1.0032163
1.0032741
1.0033352
1.0033995
1.0034671
1.0035379
1.0036118
1.0036889
1.003769
1.0038522
1.0039384
1.0040276
1.0041197
1.0042147
1.0043126
1.0044132
1.0045166
1.0046226
1.0047313
1.0048424
1.004956
1.0050719
1.0051901
1.0053105
1.0054328
1.0055571
1.0056832
1.005811
1.0059402
1.0060709
1.0062028
1.0063358
1.0064696
1.0066042
1.0067395
1.0068752
1.0070112
1.0071472
1.0072831
1.007419
1.0075536
1.0076878
1.0078215
1.0079526
1.0080829
1.0082119
1.0083382
1.0084614
1.0085851
1.0087059
1.0088243
1.0089394
1.0090514
1.0091598
1.0092645
1.0093651
1.0094613
1.0095527
1.0096391
1.0097198
1.0097945
1.0098625
1.0099234
1.0099762
1.0100205
1.0100555
1.0100804
1.0100943
1.0100964
1.0100857
1.0100613
1.0100221
1.009967
1.0098949
1.0098047
1.0096953
1.0095655
1.0094142
1.0092402
1.0090424
1.0088197
1.0085711
1.0082955
1.0079922
1.0076601
1.0072989
1.0069075
1.0064876
1.0060366
1.0055662
1.0050656
1.0027922
1.0028016
1.0028173
1.0028338
1.0028546
1.0028802
1.0029096
1.0029426
1.0029795
1.00302
1.003064
1.0031116
1.0031626
1.003217
1.0032747
1.0033357
1.0034
1.0034675
1.0035382
1.003612
1.0036889
1.0037689
1.003852
1.0039381
1.0040271
1.0041191
1.004214
1.0043117
1.0044122
1.0045154
1.0046213
1.0047297
1.0048407
1.004954
1.0050698
1.0051877
1.0053078
1.0054299
1.0055539
1.0056797
1.0058071
1.005936
1.0060662
1.0061977
1.0063302
1.0064635
1.0065975
1.0067321
1.0068669
1.007002
1.007137
1.0072718
1.0074067
1.0075399
1.007673
1.0078043
1.0079345
1.0080628
1.0081906
1.0083158
1.0084382
1.0085593
1.008677
1.0087916
1.0089034
1.0090119
1.0091168
1.0092177
1.0093142
1.0094062
1.0094931
1.0095746
1.0096503
1.0097197
1.0097824
1.0098378
1.0098855
1.0099251
1.0099559
1.0099772
1.0099882
1.0099879
1.0099756
1.0099504
1.0099113
1.0098573
1.0097876
1.0097012
1.009597
1.0094741
1.0093314
1.009168
1.008983
1.0087753
1.0085441
1.0082886
1.0080079
1.0077013
1.0073684
1.0070079
1.0066197
1.0062012
1.0057497
1.0052645
1.0027927
1.0028026
1.0028184
1.0028348
1.0028557
1.0028813
1.0029107
1.0029438
1.0029807
1.0030212
1.0030653
1.003113
1.003164
1.0032185
1.0032762
1.0033373
1.0034017
1.0034692
1.00354
1.0036139
1.0036909
1.0037711
1.0038542
1.0039404
1.0040296
1.0041217
1.0042167
1.0043145
1.0044152
1.0045185
1.0046245
1.0047331
1.0048442
1.0049577
1.0050736
1.0051916
1.0053119
1.0054341
1.0055582
1.005684
1.0058115
1.0059405
1.0060708
1.0062022
1.0063346
1.0064679
1.0066018
1.0067361
1.0068705
1.0070051
1.0071395
1.0072737
1.0074073
1.00754
1.007672
1.0078026
1.0079321
1.0080594
1.0081858
1.0083098
1.0084308
1.0085497
1.0086654
1.0087774
1.0088862
1.0089917
1.0090933
1.0091906
1.0092834
1.0093712
1.0094537
1.0095306
1.0096014
1.0096656
1.0097228
1.0097725
1.0098139
1.0098465
1.0098698
1.0098831
1.0098858
1.0098772
1.0098565
1.0098229
1.0097755
1.0097135
1.0096361
1.0095423
1.0094311
1.0093018
1.0091534
1.0089849
1.0087955
1.0085844
1.0083506
1.0080935
1.0078124
1.0075064
1.0071752
1.0068182
1.0064348
1.0060271
1.0055875
1.0051429
1.0027931
1.0028036
1.0028195
1.0028358
1.0028567
1.0028823
1.0029117
1.0029448
1.0029817
1.0030222
1.0030663
1.0031139
1.0031649
1.0032193
1.0032771
1.0033381
1.0034025
1.00347
1.0035407
1.0036146
1.0036916
1.0037717
1.0038548
1.003941
1.0040301
1.0041222
1.0042171
1.0043149
1.0044155
1.0045187
1.0046247
1.0047332
1.0048442
1.0049577
1.0050734
1.0051914
1.0053115
1.0054336
1.0055576
1.0056833
1.0058106
1.0059394
1.0060694
1.0062006
1.0063327
1.0064656
1.0065991
1.006733
1.0068671
1.0070012
1.0071351
1.0072686
1.0074008
1.007533
1.0076637
1.0077933
1.0079215
1.0080474
1.0081723
1.0082946
1.0084136
1.0085306
1.0086442
1.0087537
1.0088599
1.0089625
1.009061
1.0091549
1.0092441
1.0093281
1.0094066
1.0094791
1.0095454
1.0096048
1.0096571
1.0097016
1.0097381
1.0097658
1.0097844
1.009793
1.009791
1.0097777
1.0097522
1.0097138
1.0096616
1.0095948
1.0095127
1.0094143
1.0092989
1.0091656
1.0090136
1.0088421
1.0086504
1.0084376
1.008203
1.007946
1.0076659
1.0073622
1.0070344
1.0066822
1.0063045
1.0059033
1.0054731
1.0050236
1.0027934
1.0028045
1.0028205
1.0028367
1.0028576
1.0028833
1.0029126
1.0029457
1.0029826
1.0030232
1.0030673
1.0031149
1.0031659
1.0032203
1.0032781
1.0033392
1.0034035
1.0034711
1.0035419
1.0036158
1.0036928
1.0037729
1.0038561
1.0039423
1.0040314
1.0041235
1.0042185
1.0043163
1.0044169
1.0045202
1.0046262
1.0047348
1.0048458
1.0049593
1.0050751
1.0051931
1.0053132
1.0054353
1.0055592
1.0056849
1.0058122
1.0059409
1.0060708
1.0062019
1.0063339
1.0064666
1.0065999
1.0067335
1.0068672
1.0070009
1.0071343
1.0072673
1.0073991
1.0075305
1.0076605
1.0077893
1.0079164
1.0080413
1.0081647
1.0082854
1.008403
1.008518
1.0086296
1.0087372
1.0088412
1.0089413
1.009037
1.0091281
1.0092141
1.0092947
1.0093697
1.0094385
1.0095008
1.0095561
1.009604
1.0096441
1.0096757
1.0096983
1.0097114
1.0097144
1.0097067
1.0096878
1.0096568
1.009613
1.0095559
1.0094845
1.0093982
1.009296
1.0091774
1.0090415
1.0088874
1.0087146
1.0085222
1.0083097
1.0080763
1.0078214
1.0075446
1.0072452
1.0069229
1.0065774
1.0062079
1.0058149
1.0053967
1.0049526
1.0027937
1.0028053
1.0028214
1.0028375
1.0028585
1.0028841
1.0029135
1.0029466
1.0029835
1.003024
1.0030681
1.0031157
1.0031667
1.0032211
1.0032789
1.00334
1.0034043
1.0034718
1.0035426
1.0036165
1.0036935
1.0037736
1.0038567
1.0039429
1.004032
1.0041241
1.004219
1.0043168
1.0044174
1.0045207
1.0046266
1.0047352
1.0048462
1.0049596
1.0050753
1.0051933
1.0053133
1.0054353
1.0055592
1.0056847
1.0058119
1.0059404
1.0060702
1.0062011
1.0063328
1.0064653
1.0065983
1.0067315
1.0068649
1.0069981
1.007131
1.0072634
1.0073947
1.0075253
1.0076545
1.0077822
1.0079083
1.0080321
1.0081541
1.0082734
1.0083896
1.0085028
1.0086125
1.0087182
1.00882
1.0089177
1.0090108
1.0090991
1.0091821
1.0092596
1.0093311
1.0093963
1.0094548
1.0095062
1.0095499
1.0095857
1.009613
1.0096314
1.0096403
1.0096391
1.0096272
1.0096039
1.0095687
1.0095208
1.0094594
1.009384
1.0092938
1.0091882
1.0090663
1.0089275
1.0087712
1.0085966
1.0084031
1.0081901
1.007957
1.0077034
1.0074286
1.0071324
1.0068142
1.0064739
1.0061109
1.0057256
1.0053172
1.0048855
1.0027938
1.0028061
1.0028222
1.0028383
1.0028593
1.0028849
1.0029143
1.0029474
1.0029842
1.0030248
1.0030689
1.0031164
1.0031675
1.0032219
1.0032797
1.0033407
1.0034051
1.0034726
1.0035433
1.0036172
1.0036942
1.0037743
1.0038575
1.0039436
1.0040328
1.0041249
1.0042198
1.0043176
1.0044182
1.0045215
1.0046274
1.0047359
1.0048469
1.0049603
1.005076
1.0051939
1.0053139
1.0054358
1.0055596
1.0056851
1.0058122
1.0059406
1.0060703
1.006201
1.0063326
1.0064649
1.0065976
1.0067306
1.0068636
1.0069965
1.0071289
1.0072608
1.0073916
1.0075215
1.00765
1.007777
1.0079021
1.008025
1.0081457
1.0082638
1.0083786
1.0084903
1.0085984
1.0087023
1.0088022
1.0088977
1.0089886
1.0090744
1.0091548
1.0092295
1.0092981
1.0093602
1.0094154
1.0094634
1.0095036
1.0095358
1.0095592
1.0095735
1.0095782
1.0095726
1.0095564
1.0095289
1.0094894
1.0094374
1.0093721
1.0092931
1.0091995
1.0090908
1.0089662
1.0088252
1.0086671
1.0084912
1.0082971
1.0080841
1.0078517
1.0075995
1.007327
1.0070339
1.0067199
1.0063847
1.006028
1.00565
1.0052499
1.0048291
1.0027939
1.0028068
1.002823
1.002839
1.00286
1.0028857
1.002915
1.0029481
1.0029849
1.0030255
1.0030695
1.0031171
1.0031681
1.0032226
1.0032803
1.0033414
1.0034057
1.0034732
1.0035439
1.0036178
1.0036948
1.0037749
1.003858
1.0039441
1.0040332
1.0041253
1.0042202
1.004318
1.0044185
1.0045218
1.0046277
1.0047361
1.0048471
1.0049604
1.0050761
1.0051939
1.0053138
1.0054357
1.0055594
1.0056848
1.0058118
1.0059401
1.0060696
1.0062001
1.0063315
1.0064635
1.006596
1.0067287
1.0068614
1.0069939
1.0071259
1.0072573
1.0073876
1.0075169
1.0076447
1.0077709
1.0078951
1.0080171
1.0081367
1.0082535
1.0083671
1.0084773
1.0085838
1.0086862
1.0087842
1.0088778
1.0089665
1.00905
1.009128
1.0092
1.0092659
1.009325
1.0093772
1.0094219
1.0094588
1.0094874
1.0095074
1.0095181
1.0095192
1.0095102
1.0094904
1.0094593
1.0094164
1.009361
1.0092925
1.0092103
1.0091138
1.0090024
1.0088756
1.0087326
1.008573
1.0083961
1.0082015
1.0079886
1.0077571
1.0075064
1.0072362
1.0069463
1.0066362
1.0063059
1.0059551
1.0055841
1.0051915
1.0047811
1.0027939
1.0028075
1.0028238
1.0028396
1.0028606
1.0028863
1.0029157
1.0029487
1.0029856
1.0030261
1.0030702
1.0031177
1.0031687
1.0032232
1.0032809
1.0033419
1.0034062
1.0034737
1.0035445
1.0036183
1.0036953
1.0037753
1.0038585
1.0039446
1.0040337
1.0041257
1.0042206
1.0043184
1.0044189
1.0045221
1.004628
1.0047364
1.0048473
1.0049606
1.0050762
1.005194
1.0053139
1.0054357
1.0055593
1.0056846
1.0058114
1.0059396
1.006069
1.0061994
1.0063306
1.0064624
1.0065946
1.0067271
1.0068594
1.0069916
1.0071232
1.0072542
1.007384
1.0075127
1.0076399
1.0077654
1.0078888
1.0080099
1.0081285
1.0082443
1.0083567
1.0084656
1.0085708
1.0086716
1.0087681
1.0088599
1.0089467
1.0090282
1.009104
1.0091737
1.0092371
1.0092937
1.0093431
1.0093851
1.009419
1.0094447
1.0094615
1.009469
1.0094668
1.0094544
1.0094312
1.0093968
1.0093505
1.0092919
1.0092204
1.0091354
1.0090363
1.0089226
1.0087937
1.0086491
1.0084882
1.0083106
1.0081157
1.0079031
1.0076724
1.0074232
1.0071552
1.0068682
1.0065619
1.0062362
1.0058908
1.0055264
1.0051409
1.0047398
1.0027939
1.0028082
1.0028244
1.0028402
1.0028613
1.0028869
1.0029163
1.0029493
1.0029862
1.0030267
1.0030707
1.0031183
1.0031693
1.0032237
1.0032814
1.0033424
1.0034067
1.0034742
1.0035449
1.0036187
1.0036957
1.0037757
1.0038588
1.0039449
1.004034
1.004126
1.0042208
1.0043185
1.004419
1.0045222
1.004628
1.0047364
1.0048473
1.0049605
1.005076
1.0051938
1.0053136
1.0054353
1.0055588
1.005684
1.0058107
1.0059388
1.006068
1.0061982
1.0063292
1.0064609
1.0065929
1.006725
1.0068571
1.0069889
1.0071202
1.0072507
1.0073801
1.0075082
1.0076349
1.0077597
1.0078824
1.0080027
1.0081204
1.0082351
1.0083465
1.0084542
1.008558
1.0086576
1.0087525
1.0088427
1.0089278
1.0090073
1.0090811
1.0091487
1.0092099
1.0092641
1.009311
1.0093504
1.0093816
1.0094045
1.0094184
1.009423
1.009418
1.0094026
1.0093766
1.0093393
1.0092903
1.009229
1.0091549
1.0090675
1.0089662
1.0088505
1.0087199
1.0085739
1.008412
1.0082338
1.0080388
1.0078266
1.0075968
1.0073492
1.0070834
1.0067992
1.0064965
1.0061752
1.0058349
1.0054766
1.0050976
1.0047049
1.0027939
1.0028087
1.0028251
1.0028408
1.0028618
1.0028875
1.0029168
1.0029499
1.0029867
1.0030272
1.0030712
1.0031188
1.0031698
1.0032241
1.0032818
1.0033429
1.0034071
1.0034746
1.0035453
1.0036191
1.003696
1.003776
1.0038591
1.0039451
1.0040342
1.0041261
1.004221
1.0043186
1.0044191
1.0045222
1.004628
1.0047363
1.0048471
1.0049603
1.0050758
1.0051935
1.0053132
1.0054348
1.0055583
1.0056834
1.00581
1.0059379
1.006067
1.006197
1.0063279
1.0064593
1.0065911
1.006723
1.0068548
1.0069863
1.0071172
1.0072473
1.0073763
1.007504
1.0076301
1.0077542
1.0078763
1.0079959
1.0081127
1.0082266
1.0083369
1.0084436
1.0085463
1.0086445
1.0087382
1.0088269
1.0089104
1.0089883
1.0090602
1.009126
1.0091851
1.0092372
1.0092819
1.009319
1.0093478
1.0093682
1.0093797
1.0093817
1.009374
1.009356
1.0093273
1.0092874
1.0092359
1.0091721
1.0090957
1.0090061
1.0089029
1.0087855
1.0086534
1.0085063
1.0083436
1.008165
1.00797
1.0077582
1.0075295
1.0072834
1.0070197
1.0067383
1.006439
1.0061218
1.0057863
1.0054337
1.0050608
1.0046758
1.0027939
1.0028093
1.0028256
1.0028413
1.0028623
1.002888
1.0029173
1.0029504
1.0029872
1.0030277
1.0030717
1.0031192
1.0031702
1.0032245
1.0032822
1.0033432
1.0034075
1.0034749
1.0035455
1.0036193
1.0036962
1.0037762
1.0038592
1.0039453
1.0040343
1.0041262
1.004221
1.0043186
1.004419
1.0045221
1.0046278
1.0047361
1.0048469
1.00496
1.0050754
1.005193
1.0053126
1.0054342
1.0055575
1.0056825
1.005809
1.0059368
1.0060658
1.0061957
1.0063263
1.0064575
1.0065891
1.0067208
1.0068523
1.0069835
1.0071141
1.0072439
1.0073724
1.0074997
1.0076252
1.0077489
1.0078703
1.0079892
1.0081053
1.0082182
1.0083277
1.0084334
1.008535
1.0086322
1.0087245
1.0088119
1.008894
1.0089704
1.0090407
1.0091047
1.009162
1.0092122
1.0092549
1.0092898
1.0093165
1.0093347
1.0093438
1.0093436
1.0093336
1.0093133
1.0092823
1.0092401
1.0091863
1.0091205
1.0090421
1.0089506
1.0088457
1.0087269
1.0085936
1.0084456
1.0082823
1.0081034
1.0079085
1.0076974
1.0074697
1.0072251
1.0069635
1.0066848
1.0063887
1.0060754
1.0057444
1.0053971
1.00503
1.0046521
1.0027938
1.0028098
1.0028262
1.0028417
1.0028628
1.0028885
1.0029178
1.0029508
1.0029876
1.0030281
1.0030721
1.0031196
1.0031706
1.0032249
1.0032826
1.0033435
1.0034077
1.0034752
1.0035458
1.0036195
1.0036964
1.0037764
1.0038594
1.0039454
1.0040343
1.0041262
1.004221
1.0043186
1.0044189
1.0045219
1.0046276
1.0047358
1.0048465
1.0049596
1.0050749
1.0051924
1.005312
1.0054335
1.0055567
1.0056816
1.005808
1.0059356
1.0060644
1.0061942
1.0063247
1.0064557
1.0065871
1.0067185
1.0068498
1.0069808
1.007111
1.0072404
1.0073686
1.0074954
1.0076205
1.0077436
1.0078645
1.0079828
1.0080981
1.0082104
1.008319
1.0084238
1.0085245
1.0086206
1.0087119
1.008798
1.0088788
1.0089538
1.0090227
1.0090851
1.0091408
1.0091892
1.0092302
1.0092633
1.0092881
1.0093042
1.0093114
1.0093091
1.009297
1.0092746
1.0092415
1.0091973
1.0091416
1.0090739
1.0089937
1.0089007
1.0087943
1.0086742
1.00854
1.0083912
1.0082274
1.0080484
1.0078538
1.0076433
1.0074167
1.0071737
1.0069141
1.0066379
1.0063449
1.0060353
1.0057085
1.0053661
1.0050045
1.0046331
1.0027937
1.0028102
1.0028267
1.0028422
1.0028633
1.0028889
1.0029182
1.0029512
1.002988
1.0030285
1.0030725
1.00312
1.0031709
1.0032252
1.0032828
1.0033438
1.003408
1.0034754
1.003546
1.0036197
1.0036965
1.0037764
1.0038594
1.0039454
1.0040343
1.0041261
1.0042209
1.0043184
1.0044187
1.0045217
1.0046273
1.0047354
1.0048461
1.0049591
1.0050743
1.0051918
1.0053112
1.0054326
1.0055558
1.0056805
1.0058068
1.0059343
1.006063
1.0061926
1.0063229
1.0064538
1.0065849
1.0067162
1.0068472
1.0069779
1.0071079
1.007237
1.0073648
1.0074912
1.0076159
1.0077385
1.0078588
1.0079765
1.0080913
1.0082028
1.0083107
1.0084147
1.0085144
1.0086096
1.0086999
1.008785
1.0088646
1.0089383
1.0090059
1.0090669
1.0091211
1.009168
1.0092074
1.0092388
1.0092618
1.0092762
1.0092816
1.0092774
1.0092635
1.0092393
1.0092044
1.0091585
1.0091011
1.0090317
1.00895
1.0088556
1.008748
1.0086269
1.0084918
1.0083425
1.0081785
1.0079995
1.0078052
1.0075954
1.0073699
1.0071284
1.0068708
1.0065971
1.006307
1.0060009
1.005678
1.0053403
1.0049838
1.0046184
1.0027935
1.0028107
1.0028271
1.0028425
1.0028637
1.0028893
1.0029186
1.0029516
1.0029884
1.0030288
1.0030728
1.0031203
1.0031712
1.0032255
1.0032831
1.003344
1.0034082
1.0034755
1.0035461
1.0036198
1.0036966
1.0037765
1.0038594
1.0039453
1.0040342
1.004126
1.0042207
1.0043181
1.0044184
1.0045213
1.0046269
1.004735
1.0048455
1.0049585
1.0050737
1.005191
1.0053104
1.0054317
1.0055547
1.0056794
1.0058055
1.005933
1.0060615
1.0061909
1.0063211
1.0064518
1.0065828
1.0067138
1.0068446
1.006975
1.0071047
1.0072335
1.007361
1.0074871
1.0076113
1.0077335
1.0078534
1.0079705
1.0080847
1.0081956
1.0083028
1.0084061
1.008505
1.0085993
1.0086887
1.0087728
1.0088514
1.008924
1.0089904
1.0090502
1.009103
1.0091486
1.0091865
1.0092164
1.0092379
1.0092508
1.0092545
1.0092487
1.0092332
1.0092074
1.0091709
1.0091234
1.0090645
1.0089937
1.0089107
1.0088151
1.0087065
1.0085845
1.0084488
1.008299
1.0081349
1.007956
1.0077622
1.0075531
1.0073287
1.0070887
1.0068331
1.0065617
1.0062744
1.0059716
1.0056525
1.0053192
1.0049673
1.0046075
1.0027933
1.0028111
1.0028275
1.0028429
1.002864
1.0028897
1.0029189
1.0029519
1.0029887
1.0030291
1.0030731
1.0031205
1.0031714
1.0032257
1.0032833
1.0033442
1.0034083
1.0034757
1.0035462
1.0036198
1.0036966
1.0037765
1.0038593
1.0039452
1.004034
1.0041258
1.0042204
1.0043179
1.004418
1.0045209
1.0046264
1.0047344
1.0048449
1.0049578
1.0050729
1.0051902
1.0053095
1.0054306
1.0055536
1.0056782
1.0058042
1.0059315
1.0060599
1.0061892
1.0063192
1.0064497
1.0065805
1.0067113
1.0068419
1.0069721
1.0071016
1.0072301
1.0073573
1.007483
1.0076069
1.0077287
1.007848
1.0079647
1.0080784
1.0081887
1.0082953
1.0083979
1.0084961
1.0085896
1.0086782
1.0087614
1.008839
1.0089106
1.008976
1.0090346
1.0090863
1.0091306
1.0091672
1.0091958
1.009216
1.0092274
1.0092297
1.0092226
1.0092056
1.0091783
1.0091405
1.0090916
1.0090314
1.0089595
1.0088754
1.0087788
1.0086693
1.0085466
1.0084104
1.0082604
1.0080961
1.0079175
1.0077241
1.0075159
1.0072926
1.0070541
1.0068003
1.0065312
1.0062466
1.0059469
1.0056315
1.0053022
1.0049548
1.0046001
1.0027932
1.0028115
1.0028279
1.0028432
1.0028644
1.00289
1.0029192
1.0029522
1.002989
1.0030294
1.0030733
1.0031208
1.0031716
1.0032259
1.0032834
1.0033443
1.0034084
1.0034757
1.0035462
1.0036198
1.0036966
1.0037764
1.0038592
1.0039451
1.0040339
1.0041256
1.0042201
1.0043175
1.0044176
1.0045204
1.0046259
1.0047338
1.0048443
1.004957
1.0050721
1.0051893
1.0053085
1.0054296
1.0055524
1.0056769
1.0058028
1.00593
1.0060582
1.0061874
1.0063173
1.0064476
1.0065782
1.0067089
1.0068393
1.0069692
1.0070984
1.0072266
1.0073536
1.0074789
1.0076025
1.0077239
1.0078429
1.0079591
1.0080723
1.0081821
1.0082881
1.0083901
1.0084877
1.0085805
1.0086683
1.0087508
1.0088275
1.0088982
1.0089626
1.0090202
1.0090709
1.0091141
1.0091496
1.009177
1.009196
1.0092062
1.0092072
1.0091988
1.0091805
1.0091521
1.009113
1.009063
1.0090017
1.0089287
1.0088436
1.0087462
1.008636
1.0085128
1.0083763
1.008226
1.0080618
1.0078835
1.0076907
1.0074833
1.0072612
1.0070241
1.0067722
1.0065052
1.0062232
1.0059265
1.0056144
1.0052889
1.0049457
1.0045958
1.0027929
1.0028119
1.0028283
1.0028435
1.0028647
1.0028903
1.0029195
1.0029525
1.0029892
1.0030296
1.0030735
1.003121
1.0031718
1.003226
1.0032836
1.0033444
1.0034085
1.0034758
1.0035462
1.0036198
1.0036965
1.0037763
1.0038591
1.0039449
1.0040336
1.0041253
1.0042198
1.0043171
1.0044172
1.0045199
1.0046253
1.0047332
1.0048435
1.0049562
1.0050712
1.0051883
1.0053074
1.0054284
1.0055512
1.0056755
1.0058013
1.0059284
1.0060565
1.0061856
1.0063153
1.0064455
1.0065759
1.0067063
1.0068366
1.0069663
1.0070953
1.0072232
1.0073499
1.007475
1.0075982
1.0077193
1.0078379
1.0079537
1.0080664
1.0081757
1.0082813
1.0083827
1.0084797
1.0085719
1.008659
1.0087408
1.0088168
1.0088867
1.0089502
1.0090069
1.0090566
1.0090989
1.0091334
1.0091597
1.0091776
1.0091868
1.0091867
1.0091772
1.0091578
1.0091283
1.0090882
1.0090372
1.0089749
1.008901
1.0088152
1.0087171
1.0086064
1.0084828
1.0083459
1.0081956
1.0080316
1.0078536
1.0076614
1.0074549
1.0072339
1.0069983
1.0067481
1.0064833
1.0062037
1.0059098
1.0056009
1.005279
1.0049398
1.0045943
1.0027927
1.0028122
1.0028286
1.0028438
1.002865
1.0028906
1.0029198
1.0029528
1.0029895
1.0030298
1.0030737
1.0031211
1.003172
1.0032262
1.0032837
1.0033445
1.0034085
1.0034758
1.0035462
1.0036198
1.0036964
1.0037761
1.0038589
1.0039446
1.0040333
1.0041249
1.0042194
1.0043167
1.0044167
1.0045194
1.0046247
1.0047325
1.0048428
1.0049554
1.0050703
1.0051873
1.0053063
1.0054272
1.0055499
1.0056741
1.0057998
1.0059268
1.0060548
1.0061837
1.0063132
1.0064433
1.0065736
1.0067038
1.0068339
1.0069634
1.0070921
1.0072199
1.0073463
1.0074711
1.0075941
1.0077148
1.0078331
1.0079485
1.0080608
1.0081697
1.0082747
1.0083757
1.0084721
1.0085638
1.0086503
1.0087314
1.0088067
1.0088759
1.0089387
1.0089946
1.0090435
1.0090849
1.0091185
1.0091439
1.0091609
1.0091691
1.0091681
1.0091576
1.0091373
1.0091068
1.0090658
1.0090139
1.0089508
1.0088762
1.0087897
1.0086911
1.00858
1.008456
1.0083191
1.0081688
1.008005
1.0078274
1.0076359
1.0074302
1.0072104
1.0069762
1.0067277
1.0064649
1.0061877
1.0058965
1.0055906
1.0052721
1.0049367
1.0045953
1.0027925
1.0028125
1.0028289
1.0028441
1.0028653
1.0028909
1.00292
1.002953
1.0029897
1.00303
1.0030739
1.0031213
1.0031721
1.0032263
1.0032837
1.0033445
1.0034085
1.0034758
1.0035461
1.0036197
1.0036963
1.003776
1.0038587
1.0039444
1.004033
1.0041246
1.004219
1.0043162
1.0044161
1.0045188
1.004624
1.0047318
1.004842
1.0049545
1.0050693
1.0051862
1.0053052
1.005426
1.0055486
1.0056727
1.0057983
1.0059251
1.006053
1.0061818
1.0063112
1.0064411
1.0065712
1.0067013
1.0068312
1.0069605
1.0070891
1.0072166
1.0073427
1.0074673
1.00759
1.0077104
1.0078284
1.0079435
1.0080554
1.0081639
1.0082685
1.008369
1.008465
1.0085561
1.0086421
1.0087226
1.0087973
1.0088659
1.008928
1.0089833
1.0090314
1.009072
1.0091048
1.0091295
1.0091456
1.009153
1.0091511
1.0091398
1.0091187
1.0090874
1.0090456
1.008993
1.0089293
1.0088541
1.0087671
1.008668
1.0085565
1.0084324
1.0082954
1.0081452
1.0079817
1.0078046
1.0076137
1.007409
1.0071903
1.0069576
1.0067107
1.0064499
1.0061749
1.0058863
1.0055833
1.0052679
1.0049361
1.0045985
1.0027922
1.0028128
1.0028291
1.0028443
1.0028655
1.0028911
1.0029203
1.0029532
1.0029899
1.0030302
1.0030741
1.0031214
1.0031722
1.0032263
1.0032838
1.0033445
1.0034085
1.0034757
1.0035461
1.0036196
1.0036961
1.0037758
1.0038584
1.0039441
1.0040327
1.0041242
1.0042185
1.0043157
1.0044156
1.0045181
1.0046233
1.004731
1.0048411
1.0049536
1.0050683
1.0051852
1.005304
1.0054247
1.0055472
1.0056712
1.0057967
1.0059234
1.0060512
1.0061798
1.0063091
1.0064389
1.0065688
1.0066988
1.0068285
1.0069576
1.007086
1.0072133
1.0073393
1.0074636
1.007586
1.0077062
1.0078238
1.0079386
1.0080502
1.0081583
1.0082626
1.0083627
1.0084582
1.0085489
1.0086344
1.0087144
1.0087886
1.0088566
1.0089181
1.0089727
1.0090202
1.0090602
1.0090923
1.0091162
1.0091317
1.0091383
1.0091357
1.0091237
1.0091019
1.0090699
1.0090275
1.0089743
1.00891
1.0088343
1.0087469
1.0086475
1.0085358
1.0084116
1.0082746
1.0081246
1.0079614
1.0077848
1.0075947
1.0073909
1.0071733
1.006942
1.0066968
1.0064378
1.006165
1.0058788
1.0055785
1.0052662
1.0049377
1.0046036
1.0027919
1.0028131
1.0028294
1.0028445
1.0028657
1.0028913
1.0029205
1.0029534
1.00299
1.0030303
1.0030742
1.0031215
1.0031723
1.0032264
1.0032838
1.0033445
1.0034085
1.0034757
1.003546
1.0036194
1.003696
1.0037755
1.0038582
1.0039438
1.0040323
1.0041238
1.0042181
1.0043152
1.004415
1.0045175
1.0046226
1.0047302
1.0048403
1.0049527
1.0050673
1.0051841
1.0053028
1.0054235
1.0055458
1.0056698
1.0057951
1.0059217
1.0060494
1.0061779
1.0063071
1.0064367
1.0065665
1.0066963
1.0068258
1.0069548
1.007083
1.0072101
1.0073358
1.0074599
1.0075821
1.0077021
1.0078194
1.0079339
1.0080452
1.008153
1.0082569
1.0083566
1.0084518
1.0085421
1.0086272
1.0087067
1.0087804
1.0088479
1.0089089
1.008963
1.0090099
1.0090492
1.0090808
1.0091041
1.0091189
1.0091249
1.0091218
1.0091091
1.0090867
1.0090542
1.0090112
1.0089575
1.0088928
1.0088167
1.0087289
1.0086293
1.0085175
1.0083933
1.0082564
1.0081067
1.0079439
1.0077678
1.0075784
1.0073756
1.0071591
1.0069291
1.0066855
1.0064283
1.0061576
1.0058737
1.005576
1.0052666
1.0049413
1.0046105
1.0027917
1.0028134
1.0028296
1.0028447
1.0028659
1.0028915
1.0029206
1.0029535
1.0029902
1.0030305
1.0030743
1.0031216
1.0031723
1.0032264
1.0032838
1.0033445
1.0034084
1.0034756
1.0035458
1.0036193
1.0036958
1.0037753
1.0038579
1.0039434
1.0040319
1.0041233
1.0042176
1.0043146
1.0044144
1.0045168
1.0046218
1.0047294
1.0048394
1.0049517
1.0050663
1.0051829
1.0053016
1.0054222
1.0055444
1.0056683
1.0057935
1.00592
1.0060475
1.0061759
1.006305
1.0064345
1.0065641
1.0066938
1.0068232
1.006952
1.00708
1.0072069
1.0073325
1.0074564
1.0075783
1.007698
1.0078152
1.0079294
1.0080405
1.0081479
1.0082515
1.0083509
1.0084457
1.0085357
1.0086203
1.0086995
1.0087727
1.0088398
1.0089003
1.0089539
1.0090003
1.0090392
1.0090702
1.009093
1.0091073
1.0091128
1.0091091
1.009096
1.009073
1.00904
1.0089966
1.0089425
1.0088774
1.008801
1.0087131
1.0086133
1.0085015
1.0083773
1.0082406
1.0080911
1.0079288
1.0077534
1.0075647
1.0073628
1.0071475
1.0069188
1.0066767
1.0064213
1.0061525
1.0058709
1.0055757
1.0052689
1.0049466
1.004619
1.0027914
1.0028136
1.0028298
1.0028449
1.0028661
1.0028917
1.0029208
1.0029537
1.0029903
1.0030306
1.0030744
1.0031217
1.0031724
1.0032264
1.0032838
1.0033445
1.0034084
1.0034755
1.0035457
1.0036191
1.0036955
1.003775
1.0038576
1.0039431
1.0040315
1.0041229
1.0042171
1.004314
1.0044137
1.0045161
1.0046211
1.0047286
1.0048385
1.0049507
1.0050652
1.0051818
1.0053004
1.0054208
1.005543
1.0056667
1.0057919
1.0059183
1.0060457
1.006174
1.0063029
1.0064323
1.0065618
1.0066913
1.0068205
1.0069492
1.007077
1.0072038
1.0073292
1.0074529
1.0075747
1.0076942
1.0078111
1.0079251
1.0080358
1.0081431
1.0082464
1.0083454
1.00844
1.0085296
1.0086139
1.0086927
1.0087656
1.0088322
1.0088923
1.0089455
1.0089915
1.00903
1.0090605
1.0090829
1.0090968
1.0091018
1.0090977
1.0090841
1.0090607
1.0090273
1.0089836
1.0089292
1.0088638
1.0087872
1.0086991
1.0085993
1.0084874
1.0083634
1.0082269
1.0080778
1.007916
1.0077411
1.0075533
1.0073523
1.0071381
1.0069107
1.0066701
1.0064164
1.0061495
1.00587
1.0055771
1.005273
1.0049535
1.0046289
1.0027911
1.0028139
1.00283
1.0028451
1.0028663
1.0028919
1.0029209
1.0029538
1.0029904
1.0030307
1.0030744
1.0031217
1.0031724
1.0032264
1.0032838
1.0033444
1.0034083
1.0034753
1.0035456
1.0036189
1.0036953
1.0037748
1.0038573
1.0039427
1.0040311
1.0041224
1.0042165
1.0043135
1.0044131
1.0045154
1.0046203
1.0047277
1.0048376
1.0049497
1.0050641
1.0051806
1.0052991
1.0054195
1.0055416
1.0056652
1.0057903
1.0059166
1.0060439
1.006172
1.0063008
1.0064301
1.0065595
1.0066889
1.0068179
1.0069465
1.0070742
1.0072008
1.007326
1.0074495
1.0075711
1.0076904
1.0078071
1.0079209
1.0080314
1.0081384
1.0082414
1.0083402
1.0084345
1.0085238
1.0086078
1.0086863
1.0087589
1.0088252
1.0088849
1.0089378
1.0089834
1.0090215
1.0090517
1.0090737
1.0090871
1.0090918
1.0090873
1.0090733
1.0090497
1.009016
1.0089719
1.0089173
1.0088517
1.008775
1.0086868
1.008587
1.0084752
1.0083514
1.0082152
1.0080665
1.0079051
1.007731
1.0075439
1.0073438
1.0071307
1.0069046
1.0066654
1.0064133
1.0061483
1.0058708
1.0055803
1.0052785
1.0049618
1.0046399
1.0027908
1.0028141
1.0028302
1.0028452
1.0028665
1.002892
1.0029211
1.0029539
1.0029905
1.0030307
1.0030745
1.0031217
1.0031724
1.0032264
1.0032838
1.0033444
1.0034082
1.0034752
1.0035454
1.0036187
1.0036951
1.0037745
1.0038569
1.0039423
1.0040307
1.0041219
1.004216
1.0043129
1.0044125
1.0045147
1.0046195
1.0047269
1.0048366
1.0049487
1.0050631
1.0051795
1.0052979
1.0054182
1.0055402
1.0056637
1.0057887
1.0059148
1.0060421
1.0061701
1.0062988
1.0064279
1.0065572
1.0066864
1.0068154
1.0069438
1.0070713
1.0071978
1.0073228
1.0074462
1.0075676
1.0076867
1.0078032
1.0079168
1.0080271
1.0081339
1.0082367
1.0083353
1.0084293
1.0085183
1.0086021
1.0086803
1.0087526
1.0088186
1.0088781
1.0089306
1.0089759
1.0090137
1.0090435
1.0090652
1.0090783
1.0090827
1.0090779
1.0090637
1.0090397
1.0090058
1.0089616
1.0089067
1.0088411
1.0087643
1.0086761
1.0085763
1.0084647
1.0083411
1.0082052
1.0080569
1.0078961
1.0077226
1.0075364
1.0073372
1.0071252
1.0069003
1.0066626
1.0064121
1.0061488
1.0058733
1.0055849
1.0052855
1.0049714
1.0046521
1.0027906
1.0028143
1.0028303
1.0028453
1.0028666
1.0028921
1.0029212
1.002954
1.0029906
1.0030308
1.0030745
1.0031218
1.0031724
1.0032264
1.0032837
1.0033443
1.0034081
1.0034751
1.0035452
1.0036185
1.0036948
1.0037742
1.0038566
1.003942
1.0040303
1.0041214
1.0042155
1.0043123
1.0044118
1.004514
1.0046187
1.004726
1.0048357
1.0049477
1.005062
1.0051783
1.0052967
1.0054168
1.0055387
1.0056622
1.0057871
1.0059131
1.0060402
1.0061682
1.0062968
1.0064258
1.0065549
1.0066841
1.0068129
1.0069411
1.0070685
1.0071948
1.0073197
1.007443
1.0075642
1.0076831
1.0077995
1.0079129
1.008023
1.0081296
1.0082322
1.0083306
1.0084243
1.0085132
1.0085967
1.0086747
1.0087467
1.0088125
1.0088717
1.0089239
1.008969
1.0090065
1.0090361
1.0090575
1.0090704
1.0090745
1.0090694
1.009055
1.0090308
1.0089968
1.0089524
1.0088974
1.0088317
1.0087549
1.0086668
1.0085671
1.0084557
1.0083323
1.0081968
1.008049
1.0078888
1.007716
1.0075305
1.0073323
1.0071214
1.0068977
1.0066613
1.0064123
1.0061508
1.0058771
1.0055907
1.0052935
1.0049819
1.0046651
1.0027903
1.0028145
1.0028305
1.0028455
1.0028667
1.0028922
1.0029213
1.0029541
1.0029907
1.0030309
1.0030746
1.0031218
1.0031724
1.0032264
1.0032836
1.0033442
1.003408
1.0034749
1.003545
1.0036182
1.0036945
1.0037739
1.0038562
1.0039416
1.0040298
1.0041209
1.0042149
1.0043117
1.0044111
1.0045132
1.004618
1.0047252
1.0048348
1.0049467
1.0050609
1.0051772
1.0052954
1.0054155
1.0055373
1.0056607
1.0057855
1.0059114
1.0060384
1.0061663
1.0062948
1.0064236
1.0065527
1.0066817
1.0068104
1.0069385
1.0070658
1.007192
1.0073167
1.0074398
1.0075609
1.0076797
1.0077959
1.0079091
1.0080191
1.0081254
1.0082279
1.0083261
1.0084196
1.0085083
1.0085916
1.0086694
1.0087412
1.0088067
1.0088657
1.0089177
1.0089626
1.0089998
1.0090292
1.0090504
1.0090631
1.009067
1.0090618
1.0090472
1.0090229
1.0089887
1.0089442
1.0088893
1.0088235
1.0087468
1.0086587
1.0085592
1.008448
1.008325
1.0081899
1.0080425
1.0078829
1.0077108
1.0075261
1.0073289
1.007119
1.0068965
1.0066614
1.0064139
1.006154
1.005882
1.0055977
1.0053026
1.0049934
1.0046788
1.00279
1.0028147
1.0028306
1.0028456
1.0028669
1.0028924
1.0029214
1.0029542
1.0029907
1.0030309
1.0030746
1.0031218
1.0031724
1.0032263
1.0032836
1.0033441
1.0034078
1.0034748
1.0035448
1.003618
1.0036943
1.0037736
1.0038559
1.0039412
1.0040294
1.0041204
1.0042144
1.004311