/*--------------------------------*- C++ -*----------------------------------*\
| =========                 |                                                 |
| \\      /  F ield         | OpenFOAM: The Open Source CFD Toolbox           |
|  \\    /   O peration     | Version:  2406                                  |
|   \\  /    A nd           | Website:  www.openfoam.com                      |
|    \\/     M anipulation  |                                                 |
\*---------------------------------------------------------------------------*/
FoamFile
{
    version     2.0;
    format      ascii;
    arch        "LSB;label=32;scalar=64";
    class       volScalarField;
    location    "1400";
    object      pPrime2Mean;
}
// * * * * * * * * * * * * * * * * * * * * * * * * * * * * * * * * * * * * * //

dimensions      [2 -2 -4 0 0 0 0];

internalField   nonuniform List<scalar> 
132739
(
2.9425946e-08
3.1577642e-08
3.3074328e-08
3.3174851e-08
3.3870286e-08
3.5082759e-08
3.630886e-08
3.7618783e-08
3.911702e-08
4.078416e-08
4.2607831e-08
4.4600851e-08
4.6775697e-08
4.9140914e-08
5.170342e-08
5.4472935e-08
5.7463921e-08
6.0693558e-08
6.4170379e-08
6.7908182e-08
7.1926559e-08
7.6240672e-08
8.0866551e-08
8.5825737e-08
9.1140028e-08
9.6823303e-08
1.0290157e-07
1.0939302e-07
1.1632043e-07
1.2372015e-07
1.3159751e-07
1.3999452e-07
1.4895052e-07
1.5846461e-07
1.6860197e-07
1.793632e-07
1.9079806e-07
2.0296605e-07
2.1583998e-07
2.2950478e-07
2.4400815e-07
2.5935118e-07
2.7556074e-07
2.9270983e-07
3.1085144e-07
3.2995086e-07
3.5006099e-07
3.712714e-07
3.9356039e-07
4.169712e-07
4.4155385e-07
4.6738602e-07
4.9450709e-07
5.2285494e-07
5.5277165e-07
5.8414271e-07
6.1681532e-07
6.509382e-07
6.8685126e-07
7.2432185e-07
7.6346687e-07
8.0391786e-07
8.4624622e-07
8.8965899e-07
9.3497986e-07
9.8234375e-07
1.0317969e-06
1.0828797e-06
1.1360825e-06
1.192331e-06
1.2513384e-06
1.3127999e-06
1.3773607e-06
1.445145e-06
1.5163644e-06
1.5916187e-06
1.6717333e-06
1.7573649e-06
1.8492177e-06
1.948119e-06
2.0550213e-06
2.1709935e-06
2.297336e-06
2.4354925e-06
2.5870485e-06
2.7538769e-06
2.9378564e-06
3.1407728e-06
3.3648163e-06
3.6124481e-06
3.8865077e-06
4.1901096e-06
4.5265299e-06
4.8993639e-06
5.3120838e-06
5.7687646e-06
6.2735314e-06
6.8312293e-06
7.4461891e-06
8.1245418e-06
8.8682019e-06
9.6821396e-06
1.0558419e-05
1.1493646e-05
2.9433042e-08
3.1603216e-08
3.3107914e-08
3.3200138e-08
3.3895367e-08
3.51088e-08
3.6334555e-08
3.7644127e-08
3.9141948e-08
4.0808642e-08
4.2631771e-08
4.4624218e-08
4.6798337e-08
4.9162926e-08
5.1724566e-08
5.4493044e-08
5.748305e-08
6.0711695e-08
6.4187137e-08
6.7923716e-08
7.1941376e-08
7.6254785e-08
8.0880526e-08
8.5838843e-08
9.1153242e-08
9.6837293e-08
1.0291685e-07
1.0941176e-07
1.1634045e-07
1.2374441e-07
1.3163104e-07
1.4003543e-07
1.4899854e-07
1.5852497e-07
1.6867759e-07
1.7945892e-07
1.9091147e-07
2.0310176e-07
2.1601545e-07
2.2971527e-07
2.4425135e-07
2.5964648e-07
2.7591113e-07
2.9312095e-07
3.1133593e-07
3.3053328e-07
3.507783e-07
3.7212444e-07
3.9457215e-07
4.181578e-07
4.4293834e-07
4.6906353e-07
4.9630975e-07
5.2506967e-07
5.5506952e-07
5.8678276e-07
6.1954224e-07
6.5377389e-07
6.8942437e-07
7.2662537e-07
7.6561978e-07
8.0625468e-07
8.4880321e-07
8.9308333e-07
9.3919068e-07
9.8764014e-07
1.038147e-06
1.0905764e-06
1.1451371e-06
1.2024017e-06
1.2622968e-06
1.3248079e-06
1.3901099e-06
1.4588137e-06
1.5310617e-06
1.6071972e-06
1.6878873e-06
1.7736527e-06
1.8651608e-06
1.9631873e-06
2.0686568e-06
2.1825695e-06
2.3060855e-06
2.4404181e-06
2.5868081e-06
2.7467969e-06
2.9221688e-06
3.1148347e-06
3.3268087e-06
3.5601813e-06
3.8173368e-06
4.1008175e-06
4.4134324e-06
4.758519e-06
5.1395175e-06
5.5600345e-06
6.0238013e-06
6.5353166e-06
7.0985119e-06
7.7187737e-06
8.4011968e-06
9.1530944e-06
9.9884583e-06
1.0909276e-05
2.943804e-08
3.1630728e-08
3.3143744e-08
3.3225444e-08
3.3921648e-08
3.5138188e-08
3.6365529e-08
3.7677102e-08
3.917746e-08
4.0846835e-08
4.2673091e-08
4.4669205e-08
4.6847221e-08
4.9216123e-08
5.1782508e-08
5.4556396e-08
5.7552112e-08
6.0787156e-08
6.4269491e-08
6.8014073e-08
7.2041376e-08
7.6364229e-08
8.1001357e-08
8.5972557e-08
9.1301218e-08
9.7001158e-08
1.030987e-07
1.0961541e-07
1.1656557e-07
1.2399446e-07
1.3191218e-07
1.4035099e-07
1.4935062e-07
1.5891931e-07
1.691187e-07
1.7995417e-07
1.9146581e-07
2.037183e-07
2.1671001e-07
2.3049447e-07
2.4512175e-07
2.6062157e-07
2.7700089e-07
2.9433265e-07
3.1269352e-07
3.3206918e-07
3.5251427e-07
3.7408566e-07
3.9678188e-07
4.2066617e-07
4.4574843e-07
4.7214385e-07
4.9971547e-07
5.2873782e-07
5.5900679e-07
5.907588e-07
6.2387581e-07
6.5862837e-07
6.948706e-07
7.3275796e-07
7.7237289e-07
8.1382216e-07
8.5717563e-07
9.0236478e-07
9.4946679e-07
9.9878049e-07
1.0502083e-06
1.1036934e-06
1.1594423e-06
1.2179192e-06
1.2791955e-06
1.343372e-06
1.4104479e-06
1.4810087e-06
1.5553446e-06
1.6339001e-06
1.7174274e-06
1.8065109e-06
1.90174e-06
2.0038513e-06
2.1137355e-06
2.2322919e-06
2.3606269e-06
2.4999832e-06
2.6515843e-06
2.8168017e-06
2.9972161e-06
3.1944237e-06
3.4103341e-06
3.6472112e-06
3.9073803e-06
4.193263e-06
4.5077394e-06
4.8538414e-06
5.2348219e-06
5.6542679e-06
6.1158666e-06
6.6236757e-06
7.1819078e-06
7.7944533e-06
8.4674012e-06
9.199738e-06
1.0014671e-05
1.0854642e-05
2.9440658e-08
3.1657207e-08
3.3173605e-08
3.324668e-08
3.3944413e-08
3.5162894e-08
3.6390145e-08
3.7702271e-08
3.9203377e-08
4.0873384e-08
4.2700249e-08
4.4697034e-08
4.6876105e-08
4.9245977e-08
5.1813216e-08
5.4588447e-08
5.7585538e-08
6.082195e-08
6.4305927e-08
6.8052371e-08
7.2082705e-08
7.6408493e-08
8.1049043e-08
8.6025034e-08
9.1358702e-08
9.7064915e-08
1.0316878e-07
1.0969529e-07
1.1665604e-07
1.240966e-07
1.3202986e-07
1.4048544e-07
1.4950471e-07
1.5909552e-07
1.6932102e-07
1.801885e-07
1.9173421e-07
2.0402371e-07
2.1706333e-07
2.3090341e-07
2.4557876e-07
2.611447e-07
2.776133e-07
2.9501953e-07
3.1346813e-07
3.3294977e-07
3.5349973e-07
3.7519104e-07
3.9802627e-07
4.2209265e-07
4.4735428e-07
4.739804e-07
5.0182174e-07
5.3110392e-07
5.6177215e-07
5.9377407e-07
6.2733102e-07
6.624335e-07
6.9908581e-07
7.3735926e-07
7.7725886e-07
8.1914413e-07
8.6290406e-07
9.0867947e-07
9.5647171e-07
1.0064528e-06
1.0586526e-06
1.1130326e-06
1.1697548e-06
1.2292158e-06
1.2914976e-06
1.3567177e-06
1.4250426e-06
1.4968425e-06
1.572431e-06
1.6522761e-06
1.7370476e-06
1.827342e-06
1.9237832e-06
2.0271311e-06
2.1383364e-06
2.2584272e-06
2.3885161e-06
2.5298379e-06
2.683734e-06
2.8516007e-06
3.035052e-06
3.2357179e-06
3.455365e-06
3.6960201e-06
3.9598629e-06
4.2493073e-06
4.5667996e-06
4.9151083e-06
5.2973601e-06
5.7167852e-06
6.1770282e-06
6.6818643e-06
7.2350669e-06
7.8401927e-06
8.5041615e-06
9.2240121e-06
1.0022512e-05
1.0861588e-05
2.9441642e-08
3.1683348e-08
3.3202675e-08
3.3266898e-08
3.3966448e-08
3.5186706e-08
3.6414274e-08
3.7727574e-08
3.9230166e-08
4.090155e-08
4.272997e-08
4.4728796e-08
4.6910008e-08
4.9281984e-08
5.1851592e-08
5.4629927e-08
5.7629864e-08
6.0869362e-08
6.4357099e-08
6.8107171e-08
7.2142709e-08
7.6473866e-08
8.1119693e-08
8.6102913e-08
9.1444128e-08
9.7158807e-08
1.0327307e-07
1.098116e-07
1.1678489e-07
1.2423967e-07
1.321909e-07
1.4066707e-07
1.4970889e-07
1.5932441e-07
1.6957939e-07
1.8048195e-07
1.9206426e-07
2.0439357e-07
2.1748146e-07
2.3138243e-07
2.4611556e-07
2.6173762e-07
2.7829363e-07
2.957908e-07
3.1432578e-07
3.3391367e-07
3.5458265e-07
3.7641597e-07
3.9940239e-07
4.2361403e-07
4.4906246e-07
4.7585369e-07
5.0390266e-07
5.333959e-07
5.6428213e-07
5.9656971e-07
6.3042861e-07
6.6584814e-07
7.0288224e-07
7.4158773e-07
7.8202298e-07
8.244688e-07
8.6882299e-07
9.1516753e-07
9.6358125e-07
1.0141896e-06
1.0670836e-06
1.122261e-06
1.1798644e-06
1.2402481e-06
1.3035328e-06
1.3698646e-06
1.4394571e-06
1.5125777e-06
1.5896316e-06
1.6711774e-06
1.7578526e-06
1.8502585e-06
1.9489817e-06
2.0548075e-06
2.1685275e-06
2.2911206e-06
2.4236718e-06
2.5673166e-06
2.7233788e-06
2.8930872e-06
3.0779518e-06
3.2795861e-06
3.4996968e-06
3.7402693e-06
4.0034477e-06
4.2916564e-06
4.6073502e-06
4.953058e-06
5.3316823e-06
5.7463608e-06
6.2003329e-06
6.6970239e-06
7.2404105e-06
7.8336315e-06
8.4829199e-06
9.187512e-06
9.9638192e-06
1.0793586e-05
2.9440863e-08
3.1709188e-08
3.3227823e-08
3.3284742e-08
3.3986409e-08
3.520797e-08
3.6435468e-08
3.7749503e-08
3.9252889e-08
4.0924921e-08
4.2754124e-08
4.4753947e-08
4.6936137e-08
4.9309073e-08
5.1879853e-08
5.4659854e-08
5.7660877e-08
6.0901622e-08
6.4391417e-08
6.8143258e-08
7.2181431e-08
7.6515684e-08
8.1164618e-08
8.6151844e-08
9.1497971e-08
9.7218037e-08
1.0333887e-07
1.0988591e-07
1.1686827e-07
1.2433335e-07
1.3229808e-07
1.4078901e-07
1.4984766e-07
1.5948306e-07
1.6976078e-07
1.8069223e-07
1.9230365e-07
2.04664e-07
2.1779283e-07
2.3173831e-07
2.4652066e-07
2.6220364e-07
2.7881872e-07
2.9638474e-07
3.1500966e-07
3.3468478e-07
3.5544267e-07
3.7739213e-07
4.0049887e-07
4.2483828e-07
4.5044925e-07
4.7740367e-07
5.0565693e-07
5.3535546e-07
5.664965e-07
5.9905367e-07
6.3320608e-07
6.6894645e-07
7.0634057e-07
7.4542672e-07
7.8621968e-07
8.2904928e-07
8.7385155e-07
9.2065907e-07
9.6961302e-07
1.0208153e-06
1.0743426e-06
1.1302607e-06
1.1886729e-06
1.2498892e-06
1.3140827e-06
1.3813894e-06
1.452069e-06
1.5263414e-06
1.604589e-06
1.6873749e-06
1.7753155e-06
1.8690073e-06
1.9690282e-06
2.0762162e-06
2.1913765e-06
2.3155166e-06
2.4497286e-06
2.5951421e-06
2.7531151e-06
2.9248684e-06
3.1118388e-06
3.3155963e-06
3.5377652e-06
3.7801242e-06
4.0446601e-06
4.3336091e-06
4.6493375e-06
4.9943536e-06
5.3712771e-06
5.7829503e-06
6.232711e-06
6.7236472e-06
7.2595359e-06
7.8432393e-06
8.4804039e-06
9.1705308e-06
9.9277679e-06
1.0733597e-05
2.943871e-08
3.1734791e-08
3.3251577e-08
3.3301035e-08
3.4005216e-08
3.5227785e-08
3.6455046e-08
3.7769915e-08
3.9274275e-08
4.0947084e-08
4.2777133e-08
4.4778153e-08
4.6961516e-08
4.933566e-08
5.1907908e-08
5.4689675e-08
5.769216e-08
6.0934427e-08
6.4426398e-08
6.8180219e-08
7.2221155e-08
7.6558273e-08
8.1210645e-08
8.6201762e-08
9.1552367e-08
9.727806e-08
1.0340524e-07
1.0995971e-07
1.1694947e-07
1.2442408e-07
1.3240118e-07
1.4090623e-07
1.499795e-07
1.5963262e-07
1.699303e-07
1.8088619e-07
1.9252433e-07
2.0491348e-07
2.1807727e-07
2.3206437e-07
2.4688868e-07
2.6261678e-07
2.7929426e-07
2.9692513e-07
3.1561805e-07
3.3537051e-07
3.5621525e-07
3.7826658e-07
4.0148487e-07
4.2593396e-07
4.5169073e-07
4.7878354e-07
5.0719522e-07
5.3707819e-07
5.6841093e-07
6.0117971e-07
6.355788e-07
6.7157881e-07
7.0923274e-07
7.4867055e-07
7.8986433e-07
8.3305535e-07
8.782769e-07
9.2553604e-07
9.7498333e-07
1.0266999e-06
1.0807823e-06
1.1373204e-06
1.1964338e-06
1.2583773e-06
1.3233537e-06
1.3915264e-06
1.4631531e-06
1.5384481e-06
1.6178202e-06
1.701876e-06
1.7912022e-06
1.8863907e-06
1.9880668e-06
2.0970045e-06
2.2139481e-06
2.3399019e-06
2.4759396e-06
2.6231154e-06
2.782719e-06
2.9560346e-06
3.1443912e-06
3.3492567e-06
3.5722643e-06
3.8151935e-06
4.0799766e-06
4.3687071e-06
4.6836729e-06
5.027292e-06
5.4020145e-06
5.8106879e-06
6.2561104e-06
6.7411584e-06
7.2698234e-06
7.8444023e-06
8.4702159e-06
9.1464997e-06
9.8879103e-06
1.0670653e-05
2.9435231e-08
3.1759628e-08
3.3272205e-08
3.3315569e-08
3.4022625e-08
3.5245862e-08
3.6472664e-08
3.7788244e-08
3.9293303e-08
4.0966592e-08
4.2797107e-08
4.4798873e-08
4.6983128e-08
4.9357886e-08
5.1931053e-08
5.4713993e-08
5.7717068e-08
6.095998e-08
6.4453305e-08
6.8208548e-08
7.2251048e-08
7.6589955e-08
8.124499e-08
8.623873e-08
9.1592201e-08
9.7322039e-08
1.0345377e-07
1.1001412e-07
1.1700987e-07
1.244926e-07
1.3247978e-07
1.4099471e-07
1.5008027e-07
1.5974957e-07
1.7006471e-07
1.8103938e-07
1.9270042e-07
2.0511704e-07
2.1831006e-07
2.3233059e-07
2.4719511e-07
2.6296485e-07
2.7969249e-07
2.9737878e-07
3.1613082e-07
3.359553e-07
3.5687677e-07
3.79012e-07
4.0232988e-07
4.2688157e-07
4.5275871e-07
4.7997786e-07
5.085392e-07
5.3858336e-07
5.7009925e-07
6.0307691e-07
6.3770631e-07
6.739571e-07
7.1187022e-07
7.5161497e-07
7.9313356e-07
8.3663825e-07
8.8223307e-07
9.2988516e-07
9.7975714e-07
1.0319398e-06
1.0865405e-06
1.1436394e-06
1.2034134e-06
1.2660509e-06
1.3317165e-06
1.4006983e-06
1.4732171e-06
1.5494529e-06
1.6298284e-06
1.7149488e-06
1.8053664e-06
1.9016832e-06
2.004511e-06
2.1146472e-06
2.2328062e-06
2.3600091e-06
2.4973517e-06
2.6458368e-06
2.8067302e-06
2.9813472e-06
3.1709507e-06
3.3769292e-06
3.6008981e-06
3.8445461e-06
4.1096722e-06
4.3982495e-06
4.7124661e-06
5.0545858e-06
5.4270036e-06
5.8323935e-06
6.2733779e-06
6.7528854e-06
7.2742711e-06
7.839791e-06
8.4548062e-06
9.1177078e-06
9.8445398e-06
1.0605857e-05
2.9431858e-08
3.1782477e-08
3.329117e-08
3.3328655e-08
3.4038824e-08
3.5262461e-08
3.6488739e-08
3.7804955e-08
3.9310633e-08
4.0984333e-08
4.2815226e-08
4.4817789e-08
4.7002764e-08
4.9377969e-08
5.1952141e-08
5.4736039e-08
5.7739663e-08
6.0983271e-08
6.4477529e-08
6.8234006e-08
7.2277661e-08
7.6618106e-08
8.1275089e-08
8.627102e-08
9.1626888e-08
9.7359741e-08
1.0349487e-07
1.100603e-07
1.1706157e-07
1.245501e-07
1.325456e-07
1.4106896e-07
1.5016455e-07
1.5984759e-07
1.7017706e-07
1.811676e-07
1.9284714e-07
2.0528679e-07
2.1850309e-07
2.3255137e-07
2.4745288e-07
2.6325713e-07
2.8002604e-07
2.9776236e-07
3.1656135e-07
3.3644485e-07
3.5743672e-07
3.7964592e-07
4.030435e-07
4.2768357e-07
4.5366819e-07
4.8099606e-07
5.0968268e-07
5.3986333e-07
5.7153311e-07
6.0468267e-07
6.3950168e-07
6.7595906e-07
7.1409668e-07
7.5410023e-07
7.9590309e-07
8.3969846e-07
8.8560099e-07
9.3361151e-07
9.8386146e-07
1.0364506e-06
1.0914941e-06
1.1490754e-06
1.2093948e-06
1.2726313e-06
1.3389486e-06
1.4085946e-06
1.4818421e-06
1.5588862e-06
1.6401507e-06
1.7262379e-06
1.8177057e-06
1.9151546e-06
2.0191799e-06
2.1305854e-06
2.2500315e-06
2.3785789e-06
2.5172713e-06
2.6669961e-06
2.829099e-06
3.004818e-06
3.1953909e-06
3.4021718e-06
3.6266364e-06
3.8705269e-06
4.1355975e-06
4.4236835e-06
4.7368903e-06
5.0773733e-06
5.447468e-06
5.8496452e-06
6.286417e-06
6.7604267e-06
7.2748611e-06
7.8319508e-06
8.4369728e-06
9.0871788e-06
9.800392e-06
1.0542497e-05
2.9429257e-08
3.1802711e-08
3.3307303e-08
3.3340231e-08
3.4053915e-08
3.5277651e-08
3.6503273e-08
3.7820103e-08
3.9326184e-08
4.1000122e-08
4.2831242e-08
4.4834429e-08
4.7019937e-08
4.9395339e-08
5.1970033e-08
5.4754505e-08
5.7758401e-08
6.1002237e-08
6.4496921e-08
6.8254091e-08
7.2298232e-08
7.6639638e-08
8.1298088e-08
8.629538e-08
9.1652528e-08
9.7387675e-08
1.0352569e-07
1.1009454e-07
1.1710018e-07
1.2459296e-07
1.3259482e-07
1.4112561e-07
1.5022882e-07
1.599239e-07
1.70264e-07
1.8126796e-07
1.9296619e-07
2.0542366e-07
2.1866091e-07
2.3273317e-07
2.4766547e-07
2.6349844e-07
2.8030234e-07
2.9808331e-07
3.1692437e-07
3.3685959e-07
3.5791215e-07
3.8017691e-07
4.0364624e-07
4.283786e-07
4.5444643e-07
4.8185937e-07
5.1067355e-07
5.4097663e-07
5.7277258e-07
6.0608334e-07
6.4107128e-07
6.7771033e-07
7.1606445e-07
7.5628923e-07
7.983264e-07
8.4240992e-07
8.8858645e-07
9.3689972e-07
9.8749306e-07
1.0404255e-06
1.0958848e-06
1.1538932e-06
1.2146996e-06
1.2784812e-06
1.3453722e-06
1.4156595e-06
1.4895891e-06
1.5673737e-06
1.6494465e-06
1.7363663e-06
1.8287124e-06
1.9270885e-06
2.0320403e-06
2.144468e-06
2.2648364e-06
2.3942678e-06
2.5340185e-06
2.6847639e-06
2.8477761e-06
3.0243076e-06
3.2156411e-06
3.423022e-06
3.6478996e-06
3.8919823e-06
4.1568913e-06
4.444422e-06
4.7565809e-06
5.0953627e-06
5.4630982e-06
5.8621334e-06
6.2947494e-06
6.7635093e-06
7.2715181e-06
7.8204992e-06
8.4158033e-06
9.0541663e-06
9.7543984e-06
1.0479483e-05
2.9427257e-08
3.1820343e-08
3.332164e-08
3.3350696e-08
3.4068038e-08
3.529147e-08
3.6516405e-08
3.7833829e-08
3.9340186e-08
4.1014241e-08
4.2845534e-08
4.4849232e-08
4.7035069e-08
4.9410623e-08
5.1985599e-08
5.4770458e-08
5.777454e-08
6.1018354e-08
6.4513304e-08
6.8270714e-08
7.2315134e-08
7.6657026e-08
8.1316192e-08
8.6314565e-08
9.1672474e-08
9.7409018e-08
1.0354908e-07
1.1012014e-07
1.1712879e-07
1.2462534e-07
1.32632e-07
1.4116799e-07
1.5027751e-07
1.5998183e-07
1.7033091e-07
1.8134548e-07
1.9305931e-07
2.0552995e-07
2.1878339e-07
2.3287695e-07
2.4783387e-07
2.6369209e-07
2.8052584e-07
2.9834233e-07
3.1721573e-07
3.3719541e-07
3.5830084e-07
3.8061444e-07
4.0414393e-07
4.2895025e-07
4.5509427e-07
4.825785e-07
5.1149091e-07
5.4190519e-07
5.7380745e-07
6.0725261e-07
6.4238906e-07
6.7917818e-07
7.1772238e-07
7.5813702e-07
8.00364e-07
8.4468981e-07
8.9110369e-07
9.3966818e-07
9.9056798e-07
1.0438189e-06
1.099649e-06
1.1580019e-06
1.219211e-06
1.2834802e-06
1.3508292e-06
1.4216763e-06
1.4961945e-06
1.5746038e-06
1.6573643e-06
1.7450401e-06
1.8381875e-06
1.9373786e-06
2.0432343e-06
2.1565344e-06
2.2778961e-06
2.4083653e-06
2.5489393e-06
2.7005703e-06
2.8643983e-06
3.0416124e-06
3.2335196e-06
3.4413494e-06
3.6664004e-06
3.9103482e-06
4.1748653e-06
4.4615815e-06
4.7724846e-06
5.1094246e-06
5.474638e-06
5.8704894e-06
6.2990711e-06
6.7628172e-06
7.2645843e-06
7.8059342e-06
8.3922079e-06
9.0197026e-06
9.7071884e-06
1.0417138e-05
2.9425645e-08
3.1836101e-08
3.3333703e-08
3.3359848e-08
3.4081146e-08
3.5304131e-08
3.6528235e-08
3.7846251e-08
3.9352809e-08
4.1026811e-08
4.2858222e-08
4.486225e-08
4.7048223e-08
4.9423778e-08
5.1998805e-08
5.4783893e-08
5.7787919e-08
6.1031282e-08
6.4526271e-08
6.8283512e-08
7.2327587e-08
7.6669581e-08
8.1329159e-08
8.6328094e-08
9.1686177e-08
9.7423326e-08
1.0356461e-07
1.1013713e-07
1.1714781e-07
1.2464669e-07
1.3265714e-07
1.4119715e-07
1.5031113e-07
1.6002254e-07
1.7037898e-07
1.8140282e-07
1.9312853e-07
2.0561032e-07
2.1887836e-07
2.3298762e-07
2.4796451e-07
2.6384597e-07
2.8070269e-07
2.9854825e-07
3.1745209e-07
3.3746737e-07
3.5861697e-07
3.8097269e-07
4.0455152e-07
4.2941768e-07
4.5562638e-07
4.8318318e-07
5.1217916e-07
5.426803e-07
5.7468122e-07
6.0824313e-07
6.4350303e-07
6.8042931e-07
7.1911679e-07
7.5970656e-07
8.0212891e-07
8.4665813e-07
8.9328048e-07
9.4206134e-07
9.9321442e-07
1.0467562e-06
1.1028607e-06
1.1615585e-06
1.2231552e-06
1.2878099e-06
1.3556277e-06
1.4269545e-06
1.501977e-06
1.5809506e-06
1.6643188e-06
1.7526542e-06
1.8465081e-06
1.9463971e-06
2.0529667e-06
2.1669944e-06
2.2891327e-06
2.4203218e-06
2.5615741e-06
2.7138881e-06
2.878337e-06
3.056046e-06
3.2483387e-06
3.4564383e-06
3.6815585e-06
3.9252999e-06
4.1893005e-06
4.4751747e-06
4.7847468e-06
5.119784e-06
5.4824976e-06
5.8752024e-06
6.2998179e-06
6.75864e-06
7.2544409e-06
7.7886663e-06
8.3662194e-06
8.9835967e-06
9.6589258e-06
1.0355954e-05
2.9423196e-08
3.1851116e-08
3.334398e-08
3.3368007e-08
3.4093404e-08
3.5315692e-08
3.6538841e-08
3.7857421e-08
3.9364088e-08
4.1037956e-08
4.2869415e-08
4.4873673e-08
4.7059646e-08
4.9435136e-08
5.2010011e-08
5.4794971e-08
5.7798873e-08
6.1041733e-08
6.453643e-08
6.8293244e-08
7.2336675e-08
7.6678568e-08
8.1338177e-08
8.6336814e-08
9.1694543e-08
9.7432064e-08
1.0357368e-07
1.1014635e-07
1.1715847e-07
1.2465935e-07
1.3267196e-07
1.4121434e-07
1.5033232e-07
1.600488e-07
1.7040951e-07
1.8144144e-07
1.9317514e-07
2.0566505e-07
2.1894727e-07
2.3306859e-07
2.4805813e-07
2.6396026e-07
2.8083735e-07
2.9870363e-07
3.1763287e-07
3.3767738e-07
3.588627e-07
3.8125522e-07
4.0487074e-07
4.2979066e-07
4.5605323e-07
4.8366146e-07
5.1273178e-07
5.4331169e-07
5.7539111e-07
6.0905004e-07
6.4441883e-07
6.8146114e-07
7.2027119e-07
7.610074e-07
8.0358343e-07
8.4826922e-07
8.9508054e-07
9.4405401e-07
9.9543782e-07
1.049195e-06
1.1055487e-06
1.1645864e-06
1.2264887e-06
1.2914627e-06
1.3596556e-06
1.4313805e-06
1.506874e-06
1.5863413e-06
1.6701873e-06
1.7590964e-06
1.8535681e-06
1.954058e-06
2.061263e-06
2.1759718e-06
2.2987887e-06
2.4306222e-06
2.5724932e-06
2.7253831e-06
2.8903307e-06
3.0684184e-06
3.2609572e-06
3.4691918e-06
3.6942202e-06
3.9375944e-06
4.2009637e-06
4.4858494e-06
4.7940633e-06
5.1269876e-06
5.4870901e-06
5.8767196e-06
6.2974008e-06
6.7514113e-06
7.2415021e-06
7.7690199e-06
8.3383644e-06
8.9464233e-06
9.6099125e-06
1.0295794e-05
2.9419613e-08
3.1866173e-08
3.3352541e-08
3.3375158e-08
3.4104881e-08
3.5326295e-08
3.6548385e-08
3.7867472e-08
3.9374243e-08
4.1047836e-08
4.2879288e-08
4.4883626e-08
4.7069493e-08
4.9444755e-08
5.2019329e-08
5.4804082e-08
5.7807682e-08
6.1049763e-08
6.4543848e-08
6.8299951e-08
7.2342558e-08
7.6683978e-08
8.1343019e-08
8.6341082e-08
9.1697986e-08
9.7435226e-08
1.0357705e-07
1.1014925e-07
1.1716158e-07
1.2466293e-07
1.3267714e-07
1.4122154e-07
1.5034099e-07
1.6006164e-07
1.7042564e-07
1.814629e-07
1.9320347e-07
2.0569941e-07
2.1899163e-07
2.3312088e-07
2.4812238e-07
2.6404116e-07
2.8093224e-07
2.9881719e-07
3.1776629e-07
3.3783287e-07
3.5904921e-07
3.8146969e-07
4.0511592e-07
4.3008313e-07
4.5638675e-07
4.8403919e-07
5.1317372e-07
5.4380934e-07
5.7596223e-07
6.0970548e-07
6.4515625e-07
6.8229977e-07
7.2121495e-07
7.6208113e-07
8.0478849e-07
8.4960857e-07
8.9659258e-07
9.4571762e-07
9.972848e-07
1.0512555e-06
1.1078119e-06
1.1671152e-06
1.229259e-06
1.2945367e-06
1.3631028e-06
1.4351765e-06
1.5110239e-06
1.590919e-06
1.6752563e-06
1.7646352e-06
1.8596358e-06
1.9606174e-06
2.0683278e-06
2.1835919e-06
2.3069472e-06
2.4393166e-06
2.581649e-06
2.7349401e-06
2.9002428e-06
3.0785957e-06
3.2712549e-06
3.4794579e-06
3.70431e-06
3.9472637e-06
4.2098862e-06
4.4937059e-06
4.8003714e-06
5.1315062e-06
5.4892459e-06
5.8755838e-06
6.2924125e-06
6.7417957e-06
7.2263157e-06
7.7473664e-06
8.3089217e-06
8.9082432e-06
9.5602562e-06
1.0237354e-05
2.9414678e-08
3.1881831e-08
3.3359481e-08
3.3381321e-08
3.4115452e-08
3.5335855e-08
3.6556911e-08
3.7876449e-08
3.9383268e-08
4.1056542e-08
4.2887903e-08
4.4892213e-08
4.7077839e-08
4.9452866e-08
5.2026985e-08
5.4811306e-08
5.7814468e-08
6.1055663e-08
6.4548802e-08
6.8304156e-08
7.2345824e-08
7.6686359e-08
8.1344414e-08
8.6341502e-08
9.169723e-08
9.7433729e-08
1.0357488e-07
1.10146e-07
1.1715831e-07
1.2465955e-07
1.3267414e-07
1.4121908e-07
1.5033939e-07
1.6006191e-07
1.7042858e-07
1.8146967e-07
1.9321333e-07
2.0571478e-07
2.1901456e-07
2.3314849e-07
2.4815898e-07
2.6409143e-07
2.8099047e-07
2.9888727e-07
3.178565e-07
3.3794015e-07
3.5917893e-07
3.8162219e-07
4.0529338e-07
4.3029388e-07
4.5663025e-07
4.8432579e-07
5.1351103e-07
5.4418731e-07
5.7639956e-07
6.1021597e-07
6.4573492e-07
6.8296429e-07
7.2196606e-07
7.6292954e-07
8.0575174e-07
8.5068019e-07
8.9779697e-07
9.4707111e-07
9.9877491e-07
1.0529245e-06
1.109669e-06
1.1691826e-06
1.2315596e-06
1.2970757e-06
1.3659249e-06
1.438292e-06
1.5144679e-06
1.5947343e-06
1.6794544e-06
1.7692339e-06
1.8646609e-06
1.9660976e-06
2.0742738e-06
2.1899621e-06
2.3137735e-06
2.4465671e-06
2.5892851e-06
2.7429041e-06
2.9084561e-06
3.0869885e-06
3.2796517e-06
3.4876981e-06
3.7122802e-06
3.9547021e-06
4.2165196e-06
4.4992076e-06
4.8043937e-06
5.1336564e-06
5.4888916e-06
5.8721672e-06
6.285276e-06
6.7301947e-06
7.2092934e-06
7.7241639e-06
8.2782401e-06
8.8695865e-06
9.510507e-06
1.0180155e-05
2.9408291e-08
3.1897553e-08
3.3365487e-08
3.3387025e-08
3.4125498e-08
3.5344641e-08
3.6564625e-08
3.7884512e-08
3.9391288e-08
4.1064215e-08
4.2895404e-08
4.4899559e-08
4.7084899e-08
4.945959e-08
5.203312e-08
5.4816888e-08
5.7819416e-08
6.1059672e-08
6.4551733e-08
6.8305902e-08
7.2346446e-08
7.6685924e-08
8.1342578e-08
8.6338481e-08
9.1692705e-08
9.7427881e-08
1.0356813e-07
1.1013779e-07
1.1714901e-07
1.246493e-07
1.326636e-07
1.412079e-07
1.5032829e-07
1.6005226e-07
1.7041908e-07
1.8146305e-07
1.9320898e-07
2.0571183e-07
2.1901735e-07
2.3315512e-07
2.4817117e-07
2.6411266e-07
2.8101842e-07
2.9892453e-07
3.179076e-07
3.3800226e-07
3.5925631e-07
3.8172025e-07
4.0541168e-07
4.3043727e-07
4.5679966e-07
4.8452664e-07
5.1374892e-07
5.444621e-07
5.7672215e-07
6.1059943e-07
6.4616786e-07
6.8345871e-07
7.225527e-07
7.6359127e-07
8.0649825e-07
8.5152438e-07
8.9875592e-07
9.4814974e-07
9.9996477e-07
1.0542575e-06
1.1111597e-06
1.1708461e-06
1.2334111e-06
1.2991404e-06
1.3682359e-06
1.4408414e-06
1.5173047e-06
1.597881e-06
1.6829188e-06
1.7730477e-06
1.868828e-06
1.9706561e-06
2.0792025e-06
2.1952316e-06
2.3194025e-06
2.4525219e-06
2.5955085e-06
2.7493369e-06
2.9150362e-06
3.093634e-06
3.2862046e-06
3.4939942e-06
3.718203e-06
3.9600455e-06
4.2210129e-06
4.5025196e-06
4.8061865e-06
5.1336013e-06
5.486465e-06
5.8666774e-06
6.2761982e-06
6.7168871e-06
7.1908061e-06
7.6997413e-06
8.246708e-06
8.830569e-06
9.4607965e-06
1.0123746e-05
2.9403508e-08
3.1912041e-08
3.3369341e-08
3.3391629e-08
3.4134676e-08
3.53525e-08
3.6571457e-08
3.7891678e-08
3.9398376e-08
4.1070912e-08
4.290188e-08
4.490578e-08
4.7090779e-08
4.9465065e-08
5.2037911e-08
5.4821009e-08
5.7822757e-08
6.1061815e-08
6.4552755e-08
6.8305717e-08
7.2344805e-08
7.6683038e-08
8.1338065e-08
8.6332356e-08
9.1684878e-08
9.7418237e-08
1.035571e-07
1.1012476e-07
1.1713444e-07
1.2463361e-07
1.3264659e-07
1.4118937e-07
1.5030925e-07
1.6003325e-07
1.7039862e-07
1.8144352e-07
1.9319056e-07
2.0569447e-07
2.1900323e-07
2.3314085e-07
2.4816077e-07
2.6410834e-07
2.8101782e-07
2.9893064e-07
3.1792205e-07
3.3802576e-07
3.5929075e-07
3.8176659e-07
4.0547345e-07
4.3051701e-07
4.5689873e-07
4.8465194e-07
5.1389994e-07
5.446425e-07
5.7694061e-07
6.108602e-07
6.4648057e-07
6.8381427e-07
7.229637e-07
7.640822e-07
8.0705695e-07
8.5214762e-07
8.9947471e-07
9.4895826e-07
1.0008735e-06
1.0552915e-06
1.1123192e-06
1.1721408e-06
1.2348539e-06
1.3007686e-06
1.3700587e-06
1.4428667e-06
1.5195627e-06
1.600391e-06
1.685695e-06
1.7761133e-06
1.8721838e-06
1.9743094e-06
2.0831648e-06
2.199488e-06
2.3239241e-06
2.4572912e-06
2.6004933e-06
2.7544536e-06
2.920197e-06
3.0987616e-06
3.2911625e-06
3.4986359e-06
3.7223841e-06
3.9635721e-06
4.2236335e-06
4.5039475e-06
4.8060547e-06
5.1315709e-06
5.4821488e-06
5.8594526e-06
6.2654765e-06
6.702108e-06
7.1711209e-06
7.6743909e-06
8.2146199e-06
8.7913905e-06
9.4115887e-06
1.0067328e-05
2.9397615e-08
3.1926411e-08
3.3372695e-08
3.3396011e-08
3.4143432e-08
3.5359691e-08
3.6577565e-08
3.7898066e-08
3.9404628e-08
4.1076727e-08
4.2907362e-08
4.4910999e-08
4.7095633e-08
4.9469338e-08
5.204141e-08
5.4823782e-08
5.7824646e-08
6.1062466e-08
6.4552133e-08
6.8303619e-08
7.23411e-08
7.667799e-08
8.1331198e-08
8.6323457e-08
9.1674006e-08
9.7405242e-08
1.035424e-07
1.1010771e-07
1.1711533e-07
1.2461275e-07
1.3262326e-07
1.4116434e-07
1.5028314e-07
1.6000576e-07
1.7036911e-07
1.8141356e-07
1.9316018e-07
2.0566301e-07
2.1897298e-07
2.3311025e-07
2.4813012e-07
2.6408024e-07
2.8099246e-07
2.9890933e-07
3.1790383e-07
3.380129e-07
3.5928701e-07
3.8176907e-07
4.0548401e-07
4.3054167e-07
4.5693764e-07
4.8470707e-07
5.13974e-07
5.4473797e-07
5.7706745e-07
6.1101623e-07
6.4666783e-07
6.8404796e-07
7.2323996e-07
7.6440675e-07
8.0744609e-07
8.5259035e-07
8.9998248e-07
9.4954579e-07
1.0015309e-06
1.0560464e-06
1.1131754e-06
1.1731046e-06
1.2359494e-06
1.3019983e-06
1.3714449e-06
1.4444264e-06
1.5213161e-06
1.6023418e-06
1.6878701e-06
1.7785295e-06
1.874827e-06
1.9771982e-06
2.086279e-06
2.2028245e-06
2.3274581e-06
2.4609946e-06
2.6043238e-06
2.7583323e-06
2.9240709e-06
3.1025304e-06
3.2946795e-06
3.5017509e-06
3.7249527e-06
3.9654079e-06
4.2245324e-06
4.5036461e-06
4.8042e-06
5.1278662e-06
5.4761978e-06
5.8506128e-06
6.2532354e-06
6.685984e-06
7.1503657e-06
7.6482347e-06
8.1820152e-06
8.751915e-06
9.3631187e-06
1.0010741e-05
2.9392125e-08
3.1940126e-08
3.3374662e-08
3.3399647e-08
3.4151524e-08
3.5366161e-08
3.6582982e-08
3.7903725e-08
3.9410117e-08
4.1081758e-08
4.2912033e-08
4.4915312e-08
4.7099495e-08
4.9472571e-08
5.2043843e-08
5.4825357e-08
5.7825177e-08
6.1061725e-08
6.4550007e-08
6.8299854e-08
7.2335738e-08
7.6670952e-08
8.1322192e-08
8.631224e-08
9.1660379e-08
9.7389442e-08
1.0352426e-07
1.1008697e-07
1.1709259e-07
1.2458713e-07
1.3259493e-07
1.4113408e-07
1.5025e-07
1.5997108e-07
1.703316e-07
1.8137353e-07
1.9311919e-07
2.0561907e-07
2.1892868e-07
2.3306459e-07
2.4808209e-07
2.640318e-07
2.8094549e-07
2.9886228e-07
3.1785632e-07
3.3796958e-07
3.5924593e-07
3.8173059e-07
4.0545251e-07
4.3051571e-07
4.5692016e-07
4.8470025e-07
5.1397818e-07
5.4475918e-07
5.7710591e-07
6.1108002e-07
6.4675611e-07
6.8415747e-07
7.2339029e-07
7.6459066e-07
8.0766965e-07
8.5287162e-07
9.0030735e-07
9.4991752e-07
1.0019635e-06
1.0565561e-06
1.1137536e-06
1.1737659e-06
1.2367258e-06
1.3028761e-06
1.3724414e-06
1.4455609e-06
1.5226075e-06
1.6037854e-06
1.6894832e-06
1.7803284e-06
1.876807e-06
1.9793822e-06
2.0886331e-06
2.2053277e-06
2.3300961e-06
2.4637379e-06
2.6071305e-06
2.7611229e-06
2.9267678e-06
3.1050587e-06
3.2969056e-06
3.5035255e-06
3.7261279e-06
3.9658133e-06
4.2239604e-06
4.5018174e-06
4.8008134e-06
5.1226104e-06
5.4686404e-06
5.8403981e-06
6.239918e-06
6.6687966e-06
7.1286719e-06
7.6213982e-06
8.1490838e-06
8.7124201e-06
9.3154835e-06
9.9542918e-06
2.9386979e-08
3.1953167e-08
3.3375698e-08
3.3402829e-08
3.4159076e-08
3.5371988e-08
3.658774e-08
3.7908704e-08
3.9414891e-08
4.1086009e-08
4.2915957e-08
4.4918839e-08
4.7102476e-08
4.9474863e-08
5.2045272e-08
5.4825853e-08
5.7824479e-08
6.1059766e-08
6.4546571e-08
6.8294682e-08
7.2328756e-08
7.666211e-08
8.1311256e-08
8.6298939e-08
9.1644606e-08
9.7371176e-08
1.0350334e-07
1.1006289e-07
1.1706619e-07
1.245577e-07
1.3256198e-07
1.4109876e-07
1.5021138e-07
1.5992987e-07
1.7028693e-07
1.813248e-07
1.9306849e-07
2.0556541e-07
2.1887183e-07
2.3300419e-07
2.480191e-07
2.639648e-07
2.8087786e-07
2.9879528e-07
3.1778338e-07
3.3789823e-07
3.5917314e-07
3.8165394e-07
4.0538247e-07
4.3044796e-07
4.5685328e-07
4.8463695e-07
5.1392314e-07
5.4471261e-07
5.7706689e-07
6.1105935e-07
6.4675236e-07
6.8416722e-07
7.2342375e-07
7.6464915e-07
8.0775737e-07
8.5298974e-07
9.0045795e-07
9.5011342e-07
1.0022034e-06
1.0568394e-06
1.1140898e-06
1.1741687e-06
1.2372064e-06
1.3034372e-06
1.3730836e-06
1.4463176e-06
1.5234759e-06
1.6047705e-06
1.6906209e-06
1.781598e-06
1.878205e-06
1.9809216e-06
2.0902989e-06
2.2070911e-06
2.3319319e-06
2.4656272e-06
2.6090132e-06
2.7629224e-06
2.92843e-06
3.1064877e-06
3.2979681e-06
3.5040967e-06
3.7260448e-06
3.9649056e-06
4.2220599e-06
4.4986431e-06
4.7961032e-06
5.1160278e-06
5.4598362e-06
5.8290163e-06
6.2254037e-06
6.6506503e-06
7.1062754e-06
7.5940882e-06
8.1160633e-06
8.6730026e-06
9.2685562e-06
9.8985769e-06
2.9381211e-08
3.1965778e-08
3.337601e-08
3.3405698e-08
3.4166192e-08
3.5377275e-08
3.6591991e-08
3.7913112e-08
3.941904e-08
4.1089623e-08
4.2919169e-08
4.4921576e-08