/*--------------------------------*- C++ -*----------------------------------*\
| =========                 |                                                 |
| \\      /  F ield         | OpenFOAM: The Open Source CFD Toolbox           |
|  \\    /   O peration     | Version:  2406                                  |
|   \\  /    A nd           | Website:  www.openfoam.com                      |
|    \\/     M anipulation  |                                                 |
\*---------------------------------------------------------------------------*/
FoamFile
{
    version     2.0;
    format      ascii;
    arch        "LSB;label=32;scalar=64";
    class       volScalarField;
    location    "165";
    object      k;
}
// * * * * * * * * * * * * * * * * * * * * * * * * * * * * * * * * * * * * * //

dimensions      [0 2 -2 0 0 0 0];

internalField   nonuniform List<scalar> 
20580
(
3.2305742e-06
2.5612375e-06
1.9893306e-06
1.6004248e-06
1.3409533e-06
1.1624843e-06
1.0255392e-06
9.2095035e-07
8.3677644e-07
7.6649678e-07
7.1052202e-07
6.6467211e-07
6.2647327e-07
5.936184e-07
5.6613729e-07
5.4432019e-07
5.3076165e-07
5.1930077e-07
5.1280945e-07
5.1602665e-07
5.1795987e-07
5.2193858e-07
5.3741135e-07
5.7309314e-07
6.5063022e-07
6.9402928e-07
7.6840899e-07
7.8648893e-07
7.362494e-07
7.5368747e-07
8.0507337e-07
3.2515643e-06
2.6166849e-06
2.0949122e-06
1.7023704e-06
1.4147146e-06
1.2110472e-06
1.0544016e-06
9.4005069e-07
8.5029027e-07
7.7526129e-07
7.1657453e-07
6.7065252e-07
6.3120422e-07
5.9889542e-07
5.6940009e-07
5.4873979e-07
5.3821778e-07
5.2645808e-07
5.1885224e-07
5.2265942e-07
5.2889954e-07
5.3191366e-07
5.4502569e-07
5.8018693e-07
6.4780882e-07
7.7019935e-07
8.5502106e-07
1.0020166e-06
1.0728065e-06
1.1218492e-06
1.0501096e-06
3.2576358e-06
2.6280586e-06
2.1201716e-06
1.7727825e-06
1.4988676e-06
1.2862637e-06
1.1145856e-06
9.8227764e-07
8.7986238e-07
7.9500937e-07
7.2903243e-07
6.8029015e-07
6.3725888e-07
6.0477153e-07
5.7303842e-07
5.5255048e-07
5.371009e-07
5.2573455e-07
5.154253e-07
5.1607286e-07
5.1838125e-07
5.2264293e-07
5.3274429e-07
5.5523675e-07
6.0342997e-07
7.1248298e-07
8.0557699e-07
9.6875163e-07
1.0699155e-06
1.1873387e-06
1.3156536e-06
3.2682071e-06
2.6361636e-06
2.1103256e-06
1.7774822e-06
1.5314073e-06
1.3357108e-06
1.1702093e-06
1.031403e-06
9.2015823e-07
8.2796969e-07
7.5404854e-07
6.9884193e-07
6.5073245e-07
6.1370708e-07
5.7989827e-07
5.5593829e-07
5.3788898e-07
5.252346e-07
5.1683043e-07
5.1217974e-07
5.1128955e-07
5.1585525e-07
5.2452643e-07
5.4023566e-07
5.7750365e-07
6.4502451e-07
7.6176296e-07
8.8788634e-07
1.0044279e-06
1.1233815e-06
1.2555844e-06
3.282792e-06
2.6632451e-06
2.0833482e-06
1.7594872e-06
1.5274677e-06
1.3410104e-06
1.1836923e-06
1.0483914e-06
9.3690034e-07
8.4625331e-07
7.7358101e-07
7.1491867e-07
6.6799409e-07
6.2655171e-07
5.9302982e-07
5.6379776e-07
5.4195316e-07
5.269113e-07
5.19314e-07
5.1185765e-07
5.1095551e-07
5.1709353e-07
5.2580554e-07
5.3797579e-07
5.7242913e-07
6.4587787e-07
7.2521592e-07
8.7777796e-07
9.9795611e-07
1.2514643e-06
1.308556e-06
3.2947102e-06
2.6919183e-06
2.0592215e-06
1.713312e-06
1.4917948e-06
1.3171693e-06
1.1671085e-06
1.0386527e-06
9.3159735e-07
8.4422601e-07
7.7578403e-07
7.1767863e-07
6.7508003e-07
6.3509793e-07
6.0455722e-07
5.7488127e-07
5.5225595e-07
5.3398908e-07
5.2476769e-07
5.1391971e-07
5.128797e-07
5.1896159e-07
5.2401267e-07
5.2949283e-07
5.5365359e-07
6.2342699e-07
6.9512885e-07
8.4473271e-07
9.6278337e-07
1.2486449e-06
1.37601e-06
3.2933806e-06
2.6842219e-06
2.0345962e-06
1.6694715e-06
1.4300188e-06
1.2492528e-06
1.1083468e-06
9.9444711e-07
9.0113968e-07
8.2505067e-07
7.6565116e-07
7.1288124e-07
6.725326e-07
6.3546202e-07
6.0965081e-07
5.801187e-07
5.6216794e-07
5.4592197e-07
5.3744561e-07
5.2202914e-07
5.1813121e-07
5.2326164e-07
5.2465198e-07
5.2403221e-07
5.3269453e-07
5.6381866e-07
6.0846832e-07
7.1250729e-07
8.2492104e-07
1.0784938e-06
1.4032749e-06
3.2983082e-06
2.6589857e-06
2.0286161e-06
1.6518301e-06
1.3997159e-06
1.2161868e-06
1.0727039e-06
9.6060488e-07
8.7039423e-07
7.9989802e-07
7.4338325e-07
6.9903049e-07
6.6330286e-07
6.3210614e-07
6.080961e-07
5.8511947e-07
5.6820903e-07
5.5803514e-07
5.5319501e-07
5.4443973e-07
5.360688e-07
5.3933988e-07
5.4176837e-07
5.4160169e-07
5.4569801e-07
5.6454411e-07
5.9515994e-07
6.3461922e-07
7.0582652e-07
8.0684663e-07
1.1401749e-06
3.3999765e-06
2.7599747e-06
2.1266055e-06
1.7163211e-06
1.4377937e-06
1.2395763e-06
1.0855203e-06
9.6605277e-07
8.7084093e-07
7.9667848e-07
7.371681e-07
6.9126359e-07
6.5473239e-07
6.2660028e-07
6.0406819e-07
5.8601411e-07
5.695781e-07
5.6565052e-07
5.6456058e-07
5.6178582e-07
5.6444309e-07
5.7292724e-07
5.8566356e-07
6.0295743e-07
6.198538e-07
6.379042e-07
6.7341002e-07
7.0906944e-07
7.6932951e-07
8.5250059e-07
9.7384098e-07
4.1633464e-06
3.8916766e-06
3.0570749e-06
2.2763885e-06
1.7918977e-06
1.4642668e-06
1.2252361e-06
1.0488095e-06
9.1755731e-07
8.2211093e-07
7.5001707e-07
6.9664255e-07
6.5625917e-07
6.2456969e-07
5.9933232e-07
5.8182884e-07
5.6480529e-07
5.6117098e-07
5.608097e-07
5.6082329e-07
5.684533e-07
5.8192469e-07
6.0002692e-07
6.3777383e-07
6.6977493e-07
7.2671971e-07
7.857302e-07
9.0346702e-07
9.691398e-07
1.1551675e-06
1.194888e-06
5.6285867e-06
5.2117645e-06
4.2468816e-06
3.5806792e-06
2.938582e-06
2.3604759e-06
1.8623173e-06
1.4713954e-06
1.1709534e-06
9.6800206e-07
8.3462671e-07
7.4549744e-07
6.8486628e-07
6.4157911e-07
6.1027333e-07
5.8775659e-07
5.6996971e-07
5.6129223e-07
5.5827085e-07
5.5837608e-07
5.6554134e-07
5.7539308e-07
5.9065345e-07
6.2954412e-07
6.620236e-07
7.077582e-07
7.5770147e-07
8.8044333e-07
1.0107922e-06
1.2096073e-06
1.3470531e-06
3.8299487e-06
3.6021477e-06
3.5378952e-06
3.3309621e-06
2.9725391e-06
2.6158928e-06
2.2538004e-06
1.9008794e-06
1.5942593e-06
1.3305715e-06
1.1153766e-06
9.5277326e-07
8.3192835e-07
7.4777763e-07
6.9517596e-07
6.6074151e-07
6.3833548e-07
6.2393757e-07
6.1673617e-07
6.124743e-07
6.1258409e-07
6.1229462e-07
6.1640903e-07
6.3793491e-07
6.7096617e-07
6.8360248e-07
7.0056149e-07
7.5369356e-07
8.8582702e-07
1.0454803e-06
1.3001635e-06
3.1138494e-06
2.5064209e-06
2.2111996e-06
2.1034903e-06
2.0212743e-06
1.9147017e-06
1.7693655e-06
1.596789e-06
1.4525048e-06
1.2926432e-06
1.1565355e-06
1.0649311e-06
1.0068125e-06
9.6741606e-07
9.4055546e-07
9.2813148e-07
9.2481826e-07
9.2625024e-07
9.2795993e-07
9.3042256e-07
9.3379012e-07
9.2871607e-07
9.1465569e-07
9.0683872e-07
8.9800105e-07
8.6578026e-07
8.2711156e-07
8.3522238e-07
8.9421166e-07
1.0010453e-06
1.0898069e-06
3.1012034e-06
2.3793292e-06
1.9601168e-06
1.727792e-06
1.5691093e-06
1.443629e-06
1.3350798e-06
1.2236686e-06
1.1188287e-06
1.0408592e-06
9.6991325e-07
9.2352524e-07
9.1255165e-07
9.1382356e-07
9.1730766e-07
9.2872338e-07
9.4823591e-07
9.7373982e-07
1.0044911e-06
1.0432005e-06
1.0979803e-06
1.1373262e-06
1.1948297e-06
1.2580449e-06
1.3361567e-06
1.4057096e-06
1.4239673e-06
1.451708e-06
1.490442e-06
1.604703e-06
1.5897823e-06
3.0645854e-06
2.4889509e-06
2.1007593e-06
1.9082946e-06
1.7780312e-06
1.6333434e-06
1.4865932e-06
1.3297806e-06
1.179657e-06
1.0575689e-06
9.4973284e-07
8.6882677e-07
8.1706508e-07
7.8175571e-07
7.6446271e-07
7.6067341e-07
7.6270872e-07
7.6905318e-07
7.8279899e-07
8.1585881e-07
8.5036747e-07
9.1166544e-07
9.811493e-07
1.0971493e-06
1.1888603e-06
1.3513234e-06
1.4510841e-06
1.5926283e-06
1.7190476e-06
1.9428737e-06
2.0859277e-06
3.0861428e-06
2.9487399e-06
2.7753664e-06
2.593801e-06
2.3481505e-06
2.0574784e-06
1.7814149e-06
1.5231326e-06
1.3026541e-06
1.127096e-06
9.9130996e-07
8.8704447e-07
8.1995511e-07
7.7304513e-07
7.345399e-07
7.0687004e-07
6.896406e-07
6.7719878e-07
6.7610648e-07
6.8306724e-07
6.9249826e-07
7.1621642e-07
7.4992612e-07
8.2003812e-07
8.7207077e-07
9.8283339e-07
1.1303803e-06
1.2639397e-06
1.5141002e-06
1.6948732e-06
2.0154717e-06
4.2170718e-06
3.7714463e-06
2.9058e-06
2.4231221e-06
2.0437264e-06
1.7536424e-06
1.5111566e-06
1.3049056e-06
1.1359977e-06
1.00848e-06
9.1182542e-07
8.3448395e-07
7.8060838e-07
7.4493498e-07
7.1433555e-07
6.8418203e-07
6.6322927e-07
6.4009576e-07
6.264995e-07
6.2781326e-07
6.2963188e-07
6.3674847e-07
6.5971156e-07
6.9317401e-07
7.3999626e-07
7.8493359e-07
8.6726737e-07
9.3517168e-07
1.0581328e-06
1.1447956e-06
1.4366747e-06
4.1407261e-06
3.2496194e-06
2.3678611e-06
1.8822166e-06
1.5757203e-06
1.3775813e-06
1.2302869e-06
1.1120048e-06
1.0275817e-06
9.596229e-07
9.0333085e-07
8.5757117e-07
8.2278267e-07
8.0386613e-07
7.810389e-07
7.517784e-07
7.2239656e-07
6.887722e-07
6.6527571e-07
6.3991879e-07
6.1452025e-07
6.039629e-07
6.0957717e-07
6.1945794e-07
6.308595e-07
6.4811371e-07
6.9600199e-07
7.4338897e-07
8.1162013e-07
8.5280247e-07
9.3983547e-07
3.331932e-06
2.8660119e-06
2.3225171e-06
1.969736e-06
1.7028474e-06
1.4944324e-06
1.3388584e-06
1.2145688e-06
1.1223166e-06
1.0534039e-06
9.908934e-07
9.5016972e-07
9.1232546e-07
8.7417081e-07
8.440913e-07
8.0453794e-07
7.6403839e-07
7.1518921e-07
6.7964701e-07
6.4971548e-07
6.1790112e-07
6.0637256e-07
6.1108686e-07
6.2265914e-07
6.3563571e-07
6.6583911e-07
7.084853e-07
7.9856349e-07
8.6043179e-07
9.5616481e-07
9.8995009e-07
4.428869e-06
3.8753702e-06
3.0204526e-06
2.4798409e-06
2.0498429e-06
1.7215394e-06
1.4840312e-06
1.3011719e-06
1.1725389e-06
1.0686029e-06
9.9279955e-07
9.4202891e-07
8.9470941e-07
8.65089e-07
8.3739633e-07
8.0664637e-07
7.7618525e-07
7.4887822e-07
7.2538329e-07
7.1347595e-07
7.1030888e-07
7.1916879e-07
7.4713854e-07
8.1096971e-07
8.5324363e-07
9.402776e-07
1.0152555e-06
1.1924361e-06
1.2972418e-06
1.5086419e-06
1.4922e-06
3.7903165e-06
3.3707853e-06
2.7274133e-06
2.4393797e-06
2.3053254e-06
2.1364741e-06
2.0315388e-06
1.9230408e-06
1.8549677e-06
1.744095e-06
1.7749937e-06
1.760576e-06
1.6969992e-06
1.7538653e-06
1.695548e-06
1.6567486e-06
1.6269211e-06
1.6030946e-06
1.6165367e-06
1.659903e-06
1.7041985e-06
1.8299038e-06
1.9858894e-06
2.2861374e-06
2.4483442e-06
2.7181733e-06
2.9083747e-06
3.315424e-06
3.5526536e-06
3.9089058e-06
3.7572501e-06
3.7359993e-06
5.0253781e-06
5.7494395e-06
7.2627398e-06
8.0000255e-06
7.7170302e-06
8.0494757e-06
7.9888121e-06
7.9386889e-06
7.1669781e-06
8.5629884e-06
8.2837315e-06
7.9860902e-06
8.5895971e-06
8.1770897e-06
8.1171183e-06
8.1151011e-06
8.0802837e-06
8.4553985e-06
8.8659542e-06
9.3221962e-06
9.8451358e-06
1.0484349e-05
1.1270899e-05
1.1675319e-05
1.205016e-05
1.235642e-05
1.2881251e-05
1.3380764e-05
1.3569804e-05
1.3184446e-05
1.9728182e-05
4.0380773e-05
5.3344106e-05
4.8758908e-05
5.8573663e-05
5.2993314e-05
5.7001587e-05
5.2672223e-05
5.5223136e-05
5.1641624e-05
5.0458049e-05
5.4575175e-05
5.1022002e-05
5.4753328e-05
5.1938978e-05
5.055426e-05
5.0568887e-05
4.9922205e-05
4.9549882e-05
4.8253983e-05
4.7237666e-05
4.6251235e-05
4.5218709e-05
4.4052152e-05
4.2952116e-05
4.2588981e-05
4.2029581e-05
4.1037013e-05
3.9600705e-05
3.8611266e-05
3.8164084e-05
3.7724415e-05
1.4566218e-05
4.5457547e-06
1.8632546e-06
1.1696451e-06
1.0262951e-06
1.4326797e-06
2.2655324e-06
2.4887371e-06
2.0120516e-06
1.3465849e-06
1.5477173e-06
1.633891e-06
1.5604404e-06
1.2893473e-06
1.343158e-06
1.5916814e-06
1.7310843e-06
1.6465064e-06
1.4743527e-06
1.5336421e-06
1.3928228e-06
9.3890866e-07
3.7742125e-05
1.6021375e-05
5.727173e-06
2.5926151e-06
1.4905486e-06
1.1923783e-06
1.5388731e-06
2.6114166e-06
2.9851632e-06
2.6695851e-06
1.7182323e-06
1.8735616e-06
2.1256326e-06
2.1291786e-06
1.7609354e-06
1.6719267e-06
1.8498212e-06
2.1392715e-06
2.3283383e-06
2.1573441e-06
2.1635369e-06
2.0761021e-06
1.5801353e-06
3.5142588e-05
1.7442375e-05
6.9297858e-06
3.4079201e-06
2.0305094e-06
1.4515521e-06
1.7454657e-06
3.0640092e-06
3.5399624e-06
3.4391382e-06
2.3610297e-06
2.3591315e-06
2.551822e-06
2.5370374e-06
2.2876433e-06
1.9582033e-06
2.1198625e-06
2.6233838e-06
2.9240684e-06
2.816183e-06
2.8562463e-06
2.8139836e-06
2.4966383e-06
3.5148749e-05
1.9424072e-05
8.8598552e-06
4.8408499e-06
2.9592324e-06
1.8571678e-06
2.1149318e-06
3.5378986e-06
4.6600564e-06
4.856235e-06
3.6813126e-06
3.2241381e-06
3.4123381e-06
3.3810154e-06
3.2735707e-06
2.6282511e-06
2.66855e-06
3.0306589e-06
3.7673233e-06
3.6900593e-06
3.4398183e-06
3.4426881e-06
3.2531519e-06
3.3636212e-05
2.0460073e-05
1.0292196e-05
6.2064289e-06
4.0949492e-06
2.5396688e-06
2.7149913e-06
4.2220286e-06
5.9961244e-06
7.332307e-06
6.5944891e-06
4.7661291e-06
5.1181155e-06
4.997302e-06
5.1474849e-06
4.5857353e-06
3.8375297e-06
4.0938475e-06
4.5989812e-06
5.4206089e-06
4.625689e-06
4.412227e-06
4.3145289e-06
3.2086189e-05
2.2078799e-05
1.3217848e-05
9.2648315e-06
6.5758349e-06
4.1554197e-06
4.1126019e-06
5.900657e-06
8.4255676e-06
9.9931338e-06
1.020977e-05
7.4764125e-06
7.8310617e-06
7.4470077e-06
7.0684125e-06
7.3952935e-06
6.4681106e-06
6.8422573e-06
6.9074389e-06
7.1619239e-06
7.5604153e-06
6.887603e-06
7.2310404e-06
2.8301651e-05
2.3053197e-05
1.5702928e-05
1.2620037e-05
1.0126805e-05
7.0844473e-06
6.4448168e-06
9.3809987e-06
1.2155216e-05
1.324133e-05
1.4298731e-05
1.1332015e-05
1.116971e-05
1.1616383e-05
1.0754254e-05
1.0715842e-05
9.4963957e-06
9.4470339e-06
1.0201399e-05
9.9788531e-06
1.0725451e-05
1.0439989e-05
1.1224297e-05
2.5954518e-05
2.4588867e-05
1.9263609e-05
1.7238279e-05
1.553487e-05
1.1782682e-05
1.0218958e-05
1.570199e-05
1.9489534e-05
1.9945566e-05
2.1582022e-05
1.9328849e-05
1.8656232e-05
2.1407392e-05
1.9432734e-05
1.6249303e-05
1.4593192e-05
1.2961589e-05
1.5965623e-05
1.586988e-05
1.5409818e-05
1.606491e-05
1.6428078e-05
2.4434216e-05
2.6472983e-05
2.3713711e-05
2.2046253e-05
2.1235505e-05
1.9318779e-05
1.7936291e-05
2.6663458e-05
3.3537452e-05
3.3392887e-05
3.5515143e-05
3.6344567e-05
3.6880475e-05
4.3298844e-05
3.9457968e-05
2.978677e-05
2.5180067e-05
2.0443985e-05
2.2710033e-05
2.9453416e-05
2.6834666e-05
2.5825765e-05
2.4038805e-05
2.5185074e-05
2.9651753e-05
3.0722651e-05
3.2148828e-05
3.454828e-05
3.5391658e-05
3.6048618e-05
4.8590962e-05
6.5394691e-05
6.5610204e-05
6.7875859e-05
7.3724911e-05
7.752201e-05
8.9833894e-05
8.5235298e-05
6.6361201e-05
4.7935231e-05
3.7494198e-05
3.8369594e-05
5.1556828e-05
5.1304898e-05
4.5312952e-05
4.0407923e-05
2.5815129e-05
3.2881873e-05
3.670911e-05
4.1094076e-05
4.8897793e-05
5.5132663e-05
6.2366255e-05
8.543475e-05
0.00010563237
0.00010803994
0.00011162679
0.00012393258
0.00016297502
0.00020369112
0.00019377699
0.00016530071
0.0001140807
8.749127e-05
8.2549081e-05
0.0001043472
0.00010267739
8.7215055e-05
7.1682422e-05
2.5928905e-05
3.6255429e-05
4.388515e-05
5.0188014e-05
6.303314e-05
8.1019363e-05
0.00011637977
0.00016631436
0.00018980067
0.00018317188
0.00017440516
0.00018774989
0.00024205141
0.00032040487
0.00029995973
0.00024717051
0.00018083276
0.00014996076
0.00014877064
0.00018643813
0.00017854978
0.00013907402
0.00010700929
2.6449768e-05
3.8052507e-05
4.8507151e-05
5.8601215e-05
8.2490198e-05
0.00013244888
0.00021823233
0.00030167554
0.00030840305
0.00027047667
0.00023980261
0.00025395784
0.00033316689
0.00046126735
0.00044860324
0.00036962461
0.00026461024
0.00023313012
0.00025833004
0.00036387683
0.00035035906
0.00024846591
0.00019467241
2.7487364e-05
4.0637628e-05
5.9950669e-05
7.5904993e-05
0.00011242093
0.0002041602
0.00036380328
0.00048124828
0.00047179652
0.00040871352
0.00037161504
0.00040493867
0.00055235018
0.00075159294
0.00076084487
0.00063724962
0.00043818926
0.00039477809
0.00046496617
0.00066671373
0.00064045338
0.00039459901
0.00028313901
3.1735063e-05
4.523875e-05
7.2749652e-05
8.993133e-05
0.00013182512
0.00025083885
0.00050585044
0.00064797599
0.00062718263
0.00054406889
0.00051394638
0.00059524121
0.00083542897
0.0010613227
0.0010955823
0.0009594506
0.00063670682
0.00052705671
0.00059957239
0.00082666728
0.00083047659
0.00054195167
0.00033938832
3.3963776e-05
4.812976e-05
8.6197289e-05
0.00011074175
0.00016901638
0.00033526434
0.00064625491
0.0008009604
0.00076697643
0.00068153506
0.00066172429
0.00078868137
0.001110353
0.0013476945
0.0013850931
0.001220918
0.00086124726
0.00074555094
0.00085693924
0.0011354304
0.0011350685
0.0007607669
0.00044461947
3.8041932e-05
5.352339e-05
0.00010224902
0.00014002671
0.0002216206
0.00043535357
0.00077435629
0.00093946471
0.00090315822
0.00082778059
0.00081976239
0.00098452655
0.0013635902
0.0016057008
0.0016350101
0.0014440835
0.0011244929
0.0010660453
0.0012910205
0.0017134969
0.0017305926
0.0011791724
0.00063884413
4.3045787e-05
6.31097e-05
0.00012778204
0.00018102162
0.0002851104
0.00053772019
0.00088489827
0.0010567047
0.001025707
0.00096246349
0.00096816768
0.0011666641
0.0015778216
0.0018101091
0.0018269834
0.0016309152
0.0013819704
0.0013929094
0.0017142871
0.0022121915
0.0022537128
0.0016285649
0.00090152258
4.4945161e-05
6.8632043e-05
0.00014217854
0.00021512557
0.00035540991
0.00065517909
0.0010022292
0.0011743692
0.0011558206
0.0011073668
0.0011327066
0.0013606724
0.0017766129
0.0019815534
0.0019843722
0.0018096359
0.0016336897
0.0017107441
0.0021346413
0.0026146436
0.002586717
0.0019184136
0.001250952
4.4181092e-05
7.0166962e-05
0.00014678515
0.00026120272
0.00044992301
0.000783987
0.0011400688
0.0013260011
0.0013310538
0.0013008287
0.0013465564
0.0015878768
0.0019714317
0.0021460287
0.0021355941
0.0019897546
0.0019016438
0.0020545389
0.002560002
0.0029664834
0.0028078398
0.002101516
0.0016129853
4.5472184e-05
7.5948186e-05
0.00016627482
0.00034326657
0.00058150204
0.0009413339
0.0013003935
0.0015101273
0.0015527699
0.0015512697
0.0016230744
0.0018747335
0.0022094478
0.0023546674
0.0023478039
0.0022671571
0.0022784822
0.0024993107
0.0030113172
0.0032701848
0.0029394261
0.0022178386
0.0019054491
4.9487091e-05
9.1785751e-05
0.00021685242
0.00044753473
0.00073298896
0.0011042457
0.0014452103
0.0016741333
0.0017759674
0.0018272111
0.0019536405
0.0022349017
0.0025219516
0.0026524595
0.0026621978
0.0026522715
0.002729667
0.0030291231
0.003377452
0.0034099335
0.0029429424
0.0023702039
0.0021939457
5.5550426e-05
0.00011349036
0.00027689983
0.00055935507
0.00088446288
0.001239241
0.0015453785
0.0017949973
0.0019784167
0.0021146957
0.0023219078
0.0026329536
0.0029017556
0.0030357416
0.0030820496
0.003116036
0.0032555168
0.0034988679
0.0036141211
0.0034384272
0.0029849316
0.0026612132
0.0026049391
6.2509046e-05
0.00013881354
0.00034334127
0.00067891883
0.0010297091
0.0013604746
0.0016622432
0.0019619982
0.0022278651
0.0024560818
0.0027653005
0.0031179397
0.0033990183
0.0035527931
0.0036257381
0.003679876
0.003783584
0.0038191591
0.003747089
0.0035207938
0.0032229308
0.0030733933
0.0030080656
6.8063556e-05
0.0001587866
0.00040046557
0.0007962976
0.0011695124
0.0015141272
0.0018617396
0.0022212455
0.0025524611
0.0028686274
0.0032650768
0.0036442485
0.0039213044
0.004069639
0.0040956367
0.0040687422
0.0040187423
0.0039221951
0.003817548
0.0036926379
0.0035244528
0.0033726577
0.0031312875
7.1909884e-05
0.00017255121
0.00045404126
0.00091268211
0.0013300519
0.0017312125
0.0021480168
0.0025672955
0.0029244218
0.0032605941
0.0036431936
0.0039763218
0.0042164207
0.0042982448
0.0042444247
0.0041589205
0.0040546812
0.0039534195
0.00387484
0.003747805
0.0035927015
0.0033819833
0.0029982143
7.9017232e-05
0.00020612835
0.00055459843
0.0010441839
0.0015226795
0.00199362
0.0024679141
0.0028964305
0.0032274508
0.0035102379
0.0037527031
0.0039684353
0.004162772
0.0042571842
0.0042375871
0.0041755127
0.0040590689
0.0039692179
0.0038753903
0.0036932639
0.0034191022
0.0030185243
0.002552594
9.1198289e-05
0.00027475246
0.0007000111
0.0011957838
0.0016956487
0.0021899634
0.0026634033
0.003051536
0.0033268226
0.0035294651
0.0036788258
0.003833778
0.0040119667
0.0041535706
0.0042042801
0.004141476
0.0039951053
0.0038642844
0.0036557962
0.003285668
0.0027831694
0.0022769237
0.0018941641
0.00010792313
0.00036947841
0.00085650162
0.0013256244
0.0017760282
0.0022225963
0.0026634259
0.0030286157
0.0032870716
0.0034761441
0.0036157518
0.0037631523
0.0039014374
0.0039889647
0.0039820892
0.0038316777
0.0036128947
0.0033467036
0.0029483629
0.0024211796
0.0018915117
0.0015381449
0.0013350142
0.00012557654
0.00045116876
0.00093845765
0.0013712801
0.0017727156
0.0021645328
0.0025567861
0.0029293748
0.0032389712
0.0034474609
0.0035802875
0.0036733341
0.0037080787
0.0036292251
0.0034311087
0.0031602211
0.00288298
0.0025654163
0.0021496837
0.0017008069
0.0014035797
0.00126429
0.0011937644
0.00013216151
0.00048392702
0.00094953218
0.0013647057
0.0017543621
0.0021237688
0.0024884684
0.0028345446
0.0031206185
0.0033053516
0.0033937905
0.0034039027
0.003326633
0.0031259852
0.0028207059
0.0024930941
0.0022039895
0.0019271332
0.0016486475
0.0014577009
0.001371321
0.0013399537
0.0013414896
0.00013317107
0.00049251149
0.0009346424
0.0013498217
0.001738262
0.0021026573
0.0024369771
0.0027104117
0.0028952003
0.0029912545
0.0030242079
0.0030066796
0.0028934087
0.0026634297
0.0023564867
0.0020566559
0.0018342725
0.0016789663
0.0015569122
0.0015047292
0.0015317114
0.0016980837
0.0018380359
0.00013928223
0.00049712984
0.00092024585
0.0013167488
0.0016843215
0.0020204366
0.002308545
0.0025264978
0.0026503501
0.0026867349
0.0026773591
0.0026198198
0.0025011799
0.0023023627
0.0020562076
0.0018763645
0.001784724
0.001726703
0.0016965626
0.0017782025
0.0019121795
0.0020402415
0.0021029797
0.00013843374
0.00049168971
0.00088122431
0.0012336076
0.0015562307
0.0018507566
0.0021148127
0.0023256785
0.0024354012
0.0024630317
0.0024358233
0.0023519487
0.0022083242
0.0020235144
0.0018929012
0.0018541701
0.0018620057
0.0019419168
0.0020283177
0.0020913588
0.0021246312
0.0021281309
0.0020410285
0.00012285862
0.00047325741
0.0008548784
0.0012025905
0.0015128779
0.0017833932
0.0020084278
0.002166616
0.0022389516
0.0022535555
0.0022094262
0.0021232669
0.0020178619
0.001926193
0.0018882591
0.0019130864
0.0020145517
0.0021239986
0.0021716317
0.0021574699
0.0020988919
0.0019811462
0.0017669333
0.00010620773
0.00037366894
0.00074059254
0.0010765122
0.0013773963
0.0016358779
0.0018465308
0.0019931801
0.0020628034
0.0020707073
0.0020386715
0.0019918428
0.0019479147
0.0019160909
0.0019131992
0.0019512733
0.0020254426
0.0020870705
0.0020981517
0.0020580062
0.0019671248
0.001800934
0.0015726679
0.00010308489
0.00030173557
0.00063702532
0.00095036786
0.0012341079
0.0014816604
0.0016868387
0.0018374896
0.0019213203
0.0019418119
0.0019190536
0.0018815031
0.0018581381
0.0018645436
0.0018939838
0.0019423222
0.0020020668
0.0020375398
0.0020190435
0.0019486629
0.0018321698
0.0016831261
0.001508568
0.00011059062
0.0002926078
0.00056792331
0.00084977231
0.0011097762
0.0013376478
0.0015281995
0.0016774193
0.0017782122
0.0018265507
0.0018310077
0.0018146494
0.0018025814
0.001811754
0.0018441562
0.0018919236
0.001939915
0.0019658713
0.0019488713
0.0018843752
0.0017767637
0.0016433031
0.0014874149
0.00012158429
0.00029774866
0.00052913255
0.00077769052
0.0010152545
0.0012270422
0.0014045231
0.0015436214
0.0016426119
0.001702963
0.0017312131
0.0017409013
0.0017490185
0.001767829
0.0017996433
0.0018370771
0.0018721392
0.0018932613
0.0018878636
0.0018484727
0.0017694841
0.0016599681
0.0015188481
0.00013780045
0.00032844907
0.00052212198
0.00073035386
0.00093864614
0.0011315328
0.0012985283
0.0014322587
0.0015292686
0.0015917021
0.0016280063
0.0016519099
0.0016776816
0.0017130717
0.0017572043
0.0018022892
0.0018401031
0.0018636632
0.0018654057
0.0018443432
0.0017874621
0.0017009476
0.0015801543
0.00015468216
0.00037769637
0.00052700343
0.00070112734
0.00087725273
0.001044336
0.001194785
0.0013221108
0.0014212472
0.0014916567
0.0015391502
0.0015753189
0.0016128311
0.0016599258
0.00171644
0.0017740667
0.0018234031
0.0018569271
0.0018686107
0.0018567866
0.0018191986
0.0017524783
0.0016495355
0.00016710229
0.00041172842
0.00053566206
0.00068315514
0.00083402215
0.000978681
0.00111073
0.0012252862
0.0013194249
0.0013934596
0.0014522836
0.0015037928
0.0015566558
0.00161656
0.0016831175
0.0017501011
0.0018094214
0.001854349
0.0018769126
0.0018760955
0.0018555546
0.0018061696
0.0017190925
0.00017568121
0.000430102
0.00054156371
0.00066861836
0.00079885161
0.00092548981
0.00104232
0.0011445584
0.0012303503
0.0013019258
0.0013655069
0.0014285367
0.0014969961
0.0015732043
0.001654683
0.0017349328
0.0018057199
0.0018603291
0.0018946535
0.0019036423
0.0018903942
0.0018496183
0.0017707612
0.00018098985
0.00043794629
0.00054397661
0.00065460334
0.00076521486
0.00087367235
0.0009761211
0.0010687714
0.0011504503
0.001223095
0.0012926792
0.0013663951
0.0014487297
0.0015398903
0.0016351005
0.0017265796
0.001805668
0.0018663594
0.0019043299
0.0019138221
0.0018984689
0.0018528002
0.0017736277
0.00018274363
0.00043781536
0.00054324597
0.00064253011
0.00073835958
0.00083162184
0.00092079095
0.0010042773
0.001082428
0.0011581581
0.0012362984
0.0013218952
0.0014169539
0.0015188804
0.0016212288
0.0017164685
0.0017983957
0.0018602752
0.0018946597
0.0018956627
0.0018677778
0.0018021712
0.0017124172
0.00017946721
0.00043405681
0.0005386561
0.00062977944
0.00071557974
0.00079795873
0.00087675049
0.00095246491
0.0010274531
0.0011059216
0.001192498
0.0012893402
0.0013952133
0.0015052203
0.001611669
0.0017081322
0.0017882953
0.0018426775
0.0018612512
0.0018422537
0.0017822307
0.0016880972
0.0015832031
0.00017678035
0.00042826435
0.00053114495
0.00061598278
0.0006927059
0.00076551814
0.0008362891
0.00090751188
0.00098335252
0.0010686762
0.0011666321
0.0012773467
0.0013941336
0.0015085671
0.001615157
0.0017075436
0.0017763381
0.0018099318
0.0018004714
0.0017468686
0.0016466178
0.0015221258
0.0013950944
0.00016733211
0.00041360256
0.00051744311
0.00059926504
0.00067032498
0.00073700194
0.00080338285
0.00087414787
0.00095517659
0.0010512334
0.0011632569
0.0012832945
0.0014046901
0.0015204096
0.0016224211
0.0017028544
0.0017493181
0.0017523379
0.0017074052
0.0016115574
0.0014740971
0.0013206123
0.0011702666
0.00016399878
0.00040412763
0.00050639672
0.00058410935
0.00065034942
0.0007130241
0.00077800332
0.00085170128
0.00094080671
0.0010488131
0.0011693242
0.0012960603
0.0014207069
0.0015334811
0.0016257506
0.0016861386
0.001704283
0.0016731891
0.0015899436
0.0014573047
0.0012880217
0.0011071645
0.00093044551
0.00015452294
0.00038884871
0.00049234917
0.00056857422
0.00063214973
0.00069262384
0.00075822623
0.00083709229
0.00093570343
0.0010534095
0.0011844389
0.001318746
0.0014433615
0.0015489775
0.001625606
0.0016607046
0.0016500878
0.0015842336
0.0014653805
0.0013016598
0.0011095383
0.0009114031
0.00071982175
0.00014867787
0.00037545407
0.0004770306
0.00055111516
0.00061296464
0.00067346789
0.00074257477
0.00082925078
0.00093841824
0.0010678137
0.001208082
0.0013450598
0.0014665832
0.0015625934
0.0016187491
0.0016306211
0.0015906307
0.001494465
0.0013473929
0.0011624833
0.00095857297
0.00075730692
0.00057067813
0.00013567515
0.00035421776
0.00045501475
0.00052912161
0.00059191046
0.00065492172
0.00072935656
0.00082430283
0.00094292254
0.0010814038
0.0012263199
0.0013632685
0.0014800718
0.0015650852
0.0016032734
0.0015996561
0.0015381759
0.0014208619
0.0012557366
0.0010589371
0.00085079933
0.00065282815
0.00047960305
0.00013244185
0.00034416298
0.00044122095
0.00051099345
0.00057128047
0.00063503462
0.00071405463
0.00081642647
0.0009420165
0.0010845869
0.001231899
0.0013688477
0.0014831406
0.001560898
0.0015900111
0.0015766055
0.0015044786
0.0013771294
0.0012038771
0.0010024069
0.00079378707
0.00059962333
0.00043472161
0.00011900197
0.00032375061
0.00042047618
0.00049074222
0.00055094261
0.00061520248
0.00069669479
0.00080312915
0.00093413076
0.0010800029
0.0012283825
0.0013654548
0.0014787756
0.0015527224
0.0015790136
0.0015641477
0.0014926395
0.0013663046
0.0011947977
0.00099546919
0.00078910806
0.00059693828
0.00043342222
0.00011051739
0.00030641919
0.00039329467
0.00046039063
0.00052021962
0.00058389046
0.00066506491
0.00077394395
0.00090996282
0.0010597667
0.0012099504
0.0013478275
0.0014619187
0.0015387879
0.0015689399
0.0015605221
0.0014984547
0.0013823973
0.0012224088
0.0010333185
0.0008338074
0.00064248681
0.00047236573
9.6439314e-05
0.0002691462
0.00035735
0.00042016622
0.00047646013
0.0005383264
0.00061738056
0.00072286033
0.00085615713
0.0010079091
0.0011613722
0.0013030549
0.0014225413
0.0015112711
0.0015559934
0.0015624376
0.0015245756
0.0014352848
0.0012993511
0.0011275943
0.00093495267
0.00073951649
0.00055689358
8.6100087e-05
0.00024962537
0.00033839199
0.00039481823
0.00044031992
0.00048787787
0.00055307545
0.00064798057
0.00077434159
0.00092290614
0.0010786694
0.0012274012
0.0013582095
0.001462807
0.0015317003
0.0015583386
0.0015519204
0.00149931
0.001398488
0.0012549186
0.0010801157
0.00088878161
0.00069570081
6.3076697e-05
0.00019906505
0.00030972363
0.00037441543
0.00042004994
0.00045747165
0.00050121496
0.00056937187
0.00067346727
0.00081006999
0.00096422719
0.0011196198
0.0012637068
0.0013869465
0.0014817169
0.0015392251
0.0015584475
0.0015483031
0.0014930192
0.0013920837
0.0012508312
0.0010793786
0.00088913595
5.5626461e-05
0.00013352997
0.00024516701
0.00033014081
0.00038856074
0.00042821097
0.00046010831
0.00049981928
0.00056708191
0.00067359813
0.00081436096
0.00097200859
0.0011287208
0.0012718419
0.0013936168
0.0014877011
0.0015430165
0.0015633874
0.0015568196
0.0015080225
0.001415875
0.0012838389
0.0011186506
5.5883993e-05
8.5815789e-05
0.00015865713
0.00025192441
0.00032603795
0.00038255251
0.00042371393
0.00045632528
0.0004943241
0.00055714988
0.00065942343
0.00079902769
0.00095854539
0.0011179255
0.0012635672
0.0013878877
0.0014861023
0.0015456026
0.0015729928
0.0015755448
0.0015403418
0.0014629464
0.0013443919
7.0932141e-05
7.819385e-05
0.0001097331
0.00017755872
0.00024845658
0.00030912156
0.00035919446
0.00040023532
0.00043532987
0.00047334243
0.00053062715
0.00062346345
0.00075673869
0.000917876
0.0010850044
0.0012398591
0.0013729869
0.0014790622
0.0015465013
0.0015833355
0.0015987924
0.0015824658
0.0015243814
7.1457573e-05
6.5535421e-05
8.7246081e-05
0.00013657365
0.00019859191
0.00025597375
0.00030323621
0.00034091495
0.00037323118
0.00040345394
0.00043683024
0.00048401903
0.00056033007
0.00067766562
0.00083404271
0.0010114602
0.0011859382
0.0013396004
0.0014607148
0.001542601
0.0015921169
0.0016222592
0.0016247149
0.00010323947
6.4095827e-05
7.5682396e-05
0.00010790727
0.0001597295
0.00021446694
0.00026542221