/*--------------------------------*- C++ -*----------------------------------*\
| =========                 |                                                 |
| \\      /  F ield         | OpenFOAM: The Open Source CFD Toolbox           |
|  \\    /   O peration     | Version:  2406                                  |
|   \\  /    A nd           | Website:  www.openfoam.com                      |
|    \\/     M anipulation  |                                                 |
\*---------------------------------------------------------------------------*/
FoamFile
{
    version     2.0;
    format      ascii;
    arch        "LSB;label=32;scalar=64";
    class       volScalarField;
    location    "165";
    object      p;
}
// * * * * * * * * * * * * * * * * * * * * * * * * * * * * * * * * * * * * * //

dimensions      [1 -1 -2 0 0 0 0];

internalField   nonuniform List<scalar> 
20580
(
1.0070535
1.0042157
1.0051941
1.0063217
1.0029113
1.0057288
1.0039731
1.0045376
1.0048548
1.0055115
1.0038766
1.0042314
1.0056766
1.0048248
1.0040494
1.0045736
1.0085565
1.0038245
1.0016035
1.0098628
1.0072066
1.0014223
1.0066013
1.0137756
1.0087664
0.99182058
0.99517439
1.00674
0.99908763
0.99887388
1.0318207
1.0073798
1.0045494
1.0055142
1.0065663
1.0026674
1.0058688
1.0042639
1.0052314
1.005325
1.005398
1.0031893
1.0044813
1.006315
1.0044851
1.003422
1.0060707
1.0094023
1.0011659
1.0029689
1.0116593
1.0031466
1.0000323
1.0107778
1.0144207
1.0034839
0.98529184
0.98975751
1.0146856
1.0160661
0.99764095
1.0061602
1.0063453
1.0052892
1.005456
1.0059014
1.0031735
1.0052476
1.004665
1.0055434
1.005654
1.0050139
1.0030031
1.0046298
1.006503
1.004304
1.0031876
1.0065972
1.0095058
0.99931697
1.0042867
1.0124516
0.99991078
0.99892377
1.0109389
1.0137744
1.0023917
0.9856777
0.98932916
1.0182258
1.0284896
1.0010893
0.97949183
1.0043125
1.005996
1.0049947
1.0045196
1.0042457
1.004254
1.0049031
1.0053934
1.0056517
1.0045788
1.0034451
1.0046761
1.0061277
1.0042568
1.0034354
1.0064496
1.0083548
0.99878119
1.0060085
1.011685
0.99815584
0.99959873
1.0096174
1.008336
1.0034225
0.99432348
0.994539
1.0158032
1.0325075
1.0095459
0.96986927
1.0022565
1.0062247
1.0042457
1.0030388
1.0054046
1.0035093
1.0048105
1.0048732
1.0052862
1.0041314
1.0042802
1.0048603
1.0052523
1.0044186
1.0041233
1.0059315
1.0059973
0.9998866
1.0077686
1.009389
0.99800379
1.0021938
1.0097516
1.0008474
1.0016089
1.0071427
1.0043974
1.009253
1.0245413
1.0174834
0.98088097
1.0010658
1.0060915
1.0034684
1.0021499
1.0061984
1.0034283
1.0044512
1.0043419
1.0046269
1.0037885
1.0050785
1.0052611
1.0041229
1.0045837
1.0051879
1.005245
1.0034079
1.002028
1.0091078
1.0063629
0.99868702
1.0067143
1.0105433
0.99586666
0.99697368
1.0160135
1.0158911
1.0035062
1.0054276
1.0159659
1.00319
1.0011177
1.0058576
1.0029642
1.0022214
1.0062236
1.0039253
1.00413
1.003998
1.0037484
1.0037704
1.005554
1.0055818
1.003218
1.0044929
1.006197
1.0048115
1.0014805
1.0042522
1.01009
1.0032036
0.99937231
1.0112994
1.0120776
0.99452384
0.99295892
1.0171256
1.023889
1.0019157
0.98497622
1.0000372
1.020401
1.0024386
1.0052745
1.0029077
1.0032846
1.005367
1.0045465
1.0041599
1.0039073
1.0029199
1.0040023
1.0056803
1.0055958
1.002923
1.0043254
1.0065472
1.0050027
1.0005516
1.0061771
1.0104033
1.0003955
1.0003764
1.0130502
1.0133409
0.99633648
0.99261019
1.0121899
1.0253395
1.0031762
0.97603344
0.98111475
1.0172596
1.0045929
1.0046082
1.0034195
1.0049142
1.0041145
1.0048918
1.0044947
1.004023
1.0026401
1.0043155
1.005526
1.0053048
1.0031988
1.0044256
1.0061044
1.0055055
1.0006701
1.0077399
1.0096139
0.9985602
1.002361
1.0115831
1.0111212
1.000642
0.99643388
1.0063561
1.0181016
1.0058709
0.9813886
0.97502824
1.0018493
1.0065504
1.004365
1.0044803
1.0063708
1.0031053
1.0048509
1.0047468
1.0042493
1.0032596
1.004592
1.0050858
1.0047252
1.0038939
1.004714
1.0051775
1.0056526
1.0019059
1.0086483
1.0075108
0.99824476
1.0050537
1.0094076
1.0039266
1.0044701
1.0045716
1.0035018
1.0044056
1.0071479
0.99640981
0.98634234
0.99013948
1.0072025
1.0047013
1.0056035
1.0068848
1.0027097
1.0046601
1.0046224
1.0044375
1.0045447
1.0047812
1.004469
1.0039536
1.0048279
1.005018
1.0040867
1.0052559
1.0038821
1.0085538
1.0046745
0.99908341
1.0083631
1.0076586
0.99568217
1.0040707
1.0142416
1.0049229
0.99266946
1.0009542
1.0126974
1.0074952
0.99655314
1.0063664
1.0051988
1.0060209
1.0061911
1.0031425
1.0045676
1.0041978
1.0044549
1.0057689
1.0049886
1.0039644
1.0032472
1.0056684
1.00541
1.0031867
1.0046082
1.0057004
1.0077996
1.0020701
1.0000584
1.0118748
1.0072264
0.99064455
1.0007436
1.0197846
1.0095329
0.98851218
0.99022761
1.0176114
1.0285144
1.0133921
1.0045272
1.0056652
1.0054821
1.0045555
1.0042841
1.0045557
1.0037877
1.0043546
1.0062543
1.0052824
1.0038163
1.0029639
1.0060237
1.0058329
1.0028647
1.0039681
1.0067339
1.0067928
1.0002289
1.0013853
1.0137122
1.0076566
0.99029402
0.99810158
1.0196741
1.0144175
0.99101386
0.98508405
1.0099378
1.0351832
1.0274409
1.0023557
1.0059734
1.0043671
1.0027782
1.0054702
1.0044796
1.0038309
1.0044391
1.0058321
1.0054109
1.0038823
1.0032954
1.0057636
1.0058376
1.0033667
1.0034181
1.0069585
1.0056568
0.99950701
1.0031361
1.0130073
1.0078387
0.9940229
0.99949065
1.0142973
1.0150711
0.99697644
0.98992319
0.99984191
1.0233596
1.0286522
1.0009378
1.0059786
1.0031689
1.0017308
1.006033
1.0041891
1.0043476
1.0047842
1.005034
1.0051922
1.0039558
1.0040102
1.0052003
1.0051614
1.0044669
1.0032114
1.0067373
1.0043171
1.0003619
1.0053766
1.0100819
1.0055948
1.0005392
1.004224
1.0082654
1.0078093
1.0040522
0.99997782
0.99822682
1.0038013
1.0134391
1.0009516
1.0056156
1.0024372
1.0019545
1.005853
1.0039245
1.0048791
1.0050173
1.0041889
1.0045372
1.0040856
1.0048435
1.0046231
1.0041927
1.0055927
1.0036309
1.0062215
1.0030005
1.0022355
1.0079374
1.0062716
1.0007628
1.006589
1.0110922
1.004635
0.99669661
1.0067153
1.0118461
1.0057657
0.9916181
0.99218533
1.0026677
1.0052063
1.0027661
1.0034878
1.0050444
1.0039451
1.0051843
1.0048241
1.0034425
1.0036132
1.0043989
1.0057126
1.0041789
1.0032849
1.0062921
1.0045812
1.005505
1.0020863
1.0042476
1.0103784
1.0035608
0.99575456
1.0085259
1.0180434
1.003567
0.98831837
1.0014237
1.0211623
1.0165436
0.99307825
0.97863307
1.0051879
1.0049508
1.0040534
1.0055478
1.0038091
1.0042945
1.0049055
1.0041758
1.0030717
1.0028826
1.0047319
1.0063164
1.003956
1.0027247
1.006371
1.0054778
1.0048581
1.0017666
1.0055589
1.0117977
1.0024488
0.99289566
1.0066868
1.0209874
1.0054546
0.98599919
0.99423267
1.0204689
1.0243857
1.0015264
0.9796593
1.0070097
1.0049171
1.0053899
1.0069387
1.0028751
1.0047884
1.0041377
1.0036687
1.0034013
1.0028615
1.0049209
1.0062875
1.004065
1.0027587
1.0059034
1.0058701
1.0046257
1.0021926
1.0058214
1.0113176
1.0029466
0.99383258
1.0041014
1.0175162
1.0073109
0.98982395
0.99265065
1.012011
1.0236984
1.0097228
0.98978434
1.0071098
1.0049966
1.0059179
1.0069217
1.0028745
1.00503
1.0036368
1.0033867
1.004196
1.0034723
1.0048376
1.0055486
1.0043972
1.0035036
1.0050979
1.0057
1.0045643
1.0031914
1.0059368
1.008361
1.0039237
0.99814949
1.0039356
1.0108885
1.0062049
0.99715479
0.99836818
1.005006
1.0115596
1.0114058
1.0025039
1.0053689
1.0052064
1.0053108
1.0053961
1.0035618
1.0047917
1.0036445
1.0038112
1.0047755
1.0045178
1.0047586
1.0044445
1.0045846
1.0046814
1.0042615
1.0052311
1.0042426
1.0045839
1.0060099
1.0041976
1.004033
1.0046408
1.0063482
1.0034579
1.0012308
1.0055477
1.0081923
1.0037749
0.99783028
1.0028797
1.0098374
1.0028919
1.0053401
1.0038893
1.0031868
1.0048082
1.0042182
1.0043014
1.0047347
1.0050385
1.0055174
1.0046212
1.0034596
1.0045438
1.0062457
1.0035126
1.004471
1.0037135
1.0058222
1.0063498
1.0004867
1.0024452
1.0107223
1.0100758
0.99917369
0.99506416
1.0090912
1.0183835
1.0076425
0.9891619
0.99093776
1.0086649
1.000915
1.0057232
1.0027735
1.0015211
1.005898
1.0037719
1.0051902
1.0052968
1.0050114
1.0062374
1.004661
1.0027534
1.0041691
1.0070859
1.0035612
1.0039708
1.0031865
1.0065493
1.0071826
0.99861522
1.0001397
1.0128062
1.0146791
0.99901355
0.99050746
1.0066751
1.0246945
1.0142428
0.98919131
0.98274636
1.0022807
1.025216
1.0211535
1.0100859
0.99509438
0.98365035
0.98368902
0.99264508
1.0033732
1.0094627
1.0053219
0.99192229
0.98489719
0.99520198
1.0201899
1.0393846
1.0398596
1.0155208
0.97781948
0.95781249
0.96936066
1.0025587
1.0343145
1.0457486
1.0084024
1.0016886
1.0000298
1.00616
1.0179804
1.027617
1.0303505
1.0192546
0.99506051
0.96979669
0.96085477
0.97108363
0.99673016
1.0242205
1.0375467
1.0273739
1.001806
0.9855849
0.9891309
1.009224
1.0275395
1.0272342
1.0034215
0.96780564
0.97506044
0.99292183
1.0150522
1.0331207
1.0399625
1.0298447
1.0122097
0.99537415
0.9879056
0.99376242
1.0058278
1.0143189
1.0071182
0.98693288
0.96689818
0.96598801
0.98911339
1.0274911
1.0578661
1.0593722
1.0265076
0.97703144
0.98590243
0.9975935
1.0047761
1.0043384
0.99531465
0.98337776
0.97556432
0.97897516
0.99869145
1.0292603
1.053171
1.0597798
1.0392953
1.0004943
0.95975109
0.94278992
0.95435691
0.98754839
1.023706
1.0464511
1.0376502
1.0063505
0.98329907
1.0502421
1.0410762
1.018367
0.98914528
0.96347167
0.945659
0.9467012
0.96766451
0.99955785
1.0304963
1.0483132
1.0423008
1.0195234
0.99651204
0.98577475
0.99286374
1.007895
1.0207442
1.0180915
0.99433182
0.96122091
0.94887205
0.96560752
1.0445325
1.0299656
1.0136579
0.99609436
0.98433048
0.98699642
0.99960177
1.0128093
1.0147404
1.000116
0.9778567
0.95788087
0.9532649
0.96955646
1.0071175
1.051699
1.0830478
1.0815183
1.0391545
0.97855659
0.92753267
0.91468378
0.93586953
0.96720682
0.96778423
0.9792107
1.003863
1.0374527
1.0664678
1.0785018
1.0642141
1.0289716
0.98631664
0.94674431
0.9205819
0.92099994
0.94926755
0.99538179
1.0452855
1.078661
1.0750465
1.0425418
1.0003797
0.96789949
0.95709741
0.96496729
0.93134624
0.94268244
0.97026953
1.0045689
1.0405014
1.0649701
1.0687904
1.0519669
1.0271082
0.99895848
0.97671002
0.96899475
0.97503679
0.98988736
1.0020153
1.0038828
0.99393617
0.98294239
0.97817867
0.98699188
1.0098718
1.0352425
1.0543365
0.97873249
0.99630137
1.0089549
1.0110014
0.99833751
0.97990961
0.96845041
0.97002653
0.98205676
1.000901
1.0268949
1.0534944
1.0716886
1.0709205
1.041247
0.99197308
0.94262204
0.90817741
0.90473717
0.93051595
0.98395138
1.0532643
1.115654
1.0842109
1.067242
1.0336472
0.9937316
0.95731451
0.92981773
0.91277103
0.91033947
0.92905804
0.97136102
1.0318477
1.0921427
1.1268093
1.1167748
1.0695883
1.0103971
0.95362583
0.91285132
0.89914258
0.91207992
0.95251328
1.0130996
1.0754784
1.1129937
1.0832764
1.0403316
0.99670878
0.95695991
0.93085572
0.918803
0.92432838
0.94286596
0.97534161
1.0125789
1.0466348
1.0716056
1.0736386
1.0590336
1.0312091
0.99497951
0.96497696
0.9512885
0.95679096
0.97410458
0.99551229
1.0123042
1.0338313
1.0269959
1.0238932
1.0151139
0.99968148
0.98379755
0.97658826
0.98308457
0.99740796
1.0071064
1.0064297
0.99447036
0.97961741
0.97788091
0.98845171
1.0070231
1.0220029
1.030204
1.0323331
1.0338247
1.0292847
1.0118323
0.98584642
0.94762135
0.9580153
0.98018696
1.0068005
1.0314564
1.0522139
1.0663168
1.0702384
1.0589903
1.0326227
0.9962772
0.95699229
0.92559646
0.91067431
0.92025194
0.95320409
1.0030218
1.0568838
1.096388
1.1108398
1.0915142
1.0455736
0.98838863
0.89999623
0.91551445
0.94473005
0.98875307
1.0394599
1.0918135
1.1308941
1.1358794
1.1025315
1.0482719
0.99140964
0.94096833
0.90395584
0.8861522
0.88950983
0.91924547
0.97277779
1.0433382
1.1119657
1.1522156
1.1384142
1.0764874
1.0011917
0.88738367
0.90239684
0.93353869
0.97846767
1.0360672
1.0981091
1.147897
1.1600167
1.1226273
1.0571545
0.99156222
0.9396019
0.90375603
0.88494917
0.88614148
0.90903604
0.9563659
1.0246458
1.1002186
1.153239
1.1537281
1.0986014
1.0193618
0.89375944
0.90710268
0.93342061
0.97435147
1.0301958
1.0920202
1.142589
1.1565412
1.1239171
1.0618796
0.99739439
0.94365913
0.90719422
0.88966501
0.89011299
0.91057837
0.95277219
1.0144115
1.0877679
1.1413061
1.1487017
1.1045632
1.0337172
0.90075437
0.91507213
0.93954325
0.97889929
1.0304806
1.0846976
1.1279197
1.1423746
1.1161352
1.0627648
1.0014057
0.95048771
0.91568195
0.89740046
0.89616754
0.91269514
0.95320851
1.0111437
1.0761782
1.1280224
1.1409294
1.1026279
1.0383801
0.90304417
0.91708648
0.94105195
0.97997123
1.0305657
1.0836709
1.1250497
1.1382136
1.1109447
1.0605396
1.0021018
0.95164434
0.91635365
0.8975873
0.89673718
0.91367725
0.95417575
1.0138758
1.0790076
1.1277927
1.1362113
1.0967882
1.0350721
0.89758173
0.91107078
0.93664953
0.97699703
1.0305085
1.0888736
1.1364676
1.1467853
1.1146043
1.0567955
0.99555057
0.94533401
0.91025705
0.89421577
0.89352275
0.91332551
0.95781805
1.0203754
1.0877855
1.1349587
1.136312
1.0925371
1.0255269
0.88954647
0.90415232
0.93192878
0.9755226
1.033732
1.0984147
1.1479775
1.1543016
1.1139652
1.050771
0.98698947
0.93599392
0.90244285
0.88731606
0.89037386
0.91441666
0.96488779
1.0344908
1.1051753
1.1472113
1.1353539
1.079753
1.0107433
0.89602077
0.91027949
0.94008621
0.98348972
1.0384423
1.0956507
1.1352665
1.1362647
1.0987995
1.0411658
0.9814022
0.93247117
0.89973782
0.88585448
0.89411559
0.926407
0.98406061
1.0546451
1.1169006
1.1446027
1.1194967
1.0586796
0.99121624
0.92851668
0.94149517
0.96772524
1.0022627
1.0388571
1.0683934
1.0838797
1.0821002
1.0605865
1.0242759
0.98091294
0.93930817
0.91085967
0.90401778
0.92215296
0.96334285
1.0173007
1.069838
1.1038393
1.1080442
1.0779393
1.0281276
0.97142725
1.0029521
1.0036464
1.0091108
1.0139942
1.0133948
1.006548
1.0012316
1.0023279
1.0057848
1.0014087
0.98708556
0.967887
0.95654745
0.96244389
0.98587773
1.0117682
1.0310689
1.0422803
1.0467159
1.0432345
1.0269321
0.99828447
0.96241858
1.0895221
1.0675677
1.0369279
1.000746
0.96519857
0.94062079
0.92956164
0.93560676
0.9539815
0.97939607
1.0069756
1.0310431
1.0477171
1.0499484
1.0400498
1.0188892
0.99384722
0.97470702
0.96900462
0.97534801
0.98510247
0.99187776
0.99246822
1.0959695
1.0743235
1.035568
0.98938256
0.94659918
0.91653021
0.90384803
0.9093877
0.93839166
0.990037
1.051515
1.1025687
1.1130599
1.0829109
1.0307996
0.97829928
0.9369512
0.91316804
0.91502421
0.93875887
0.98488212
1.0348914
1.0705782
1.0187385
1.0204879
1.0124603
0.99418666
0.96851576
0.94522993
0.93796296
0.95172013
0.98290324
1.0222643
1.0604106
1.0846045
1.0801482
1.0458176
0.99444937
0.94495597
0.91320048
0.90474403
0.92215389
0.96748884
1.0290775
1.0863933
1.1116369
0.95245998
0.96224502
0.9792094
0.99835299
1.0147422
1.0234397
1.0251403
1.0217294
1.0153397
1.0076353
1.0003032
0.99886668
0.99809554
0.9945594
0.98291201
0.9674209
0.95994303
0.96789302
0.98710203
1.0122219
1.0358657
1.0499397
1.0478164
0.94965507
0.95808856
0.97793966
1.0089806
1.0422662
1.0644719
1.0621542
1.0365226
1.0015791
0.96850861
0.94560267
0.9382364
0.9507559
0.97940189
1.0136934
1.0394252
1.0463369
1.0364167
1.0139511
0.98974036
0.97258274
0.96582082
0.96828386
1.00413
0.99994616
1.0007204
1.0051197
1.011608
1.0176172
1.0194393
1.0100389
0.98882401
0.96507906
0.95045109
0.95272454
0.96999311
1.0002696
1.0353911
1.0597501
1.0595255
1.0357904
0.99796032
0.95843478
0.93329061
0.93301942
0.95200076
1.0394063
1.0253954
1.0053953
0.98448203
0.97004925
0.96433594
0.96973358
0.98467747
1.0008131
1.0116346
1.0130864
1.0091599
1.0037138
0.99955664
0.99807846
0.99898981
1.0006541
1.0000355
0.99524663
0.99025174
0.98619195
0.98324535
0.98704119
1.006178
1.0074189
1.0001773
0.98605492
0.97309924
0.96819366
0.97451905
0.99032
1.0118644
1.0307512
1.0381514
1.0294123
1.0082292
0.98302106
0.96252571
0.95424266
0.96181886
0.98139093
1.0075431
1.0334975
1.0483264
1.0442767
1.0216924
0.97329041
0.98025834
0.99254026
1.0056724
1.0136567
1.0139759
1.0083251
1.001722
0.99681578
0.99538905
0.99671488
0.99880964
0.9985721
0.994612
0.98977001
0.9861062
0.9847804
0.98725284
0.99336274
0.9977025
1.0040014
1.0115386
1.0178595
0.99088271
0.99083997
0.99697483
1.0070375
1.0163028
1.0198982
1.0139558
1.000245
0.98434501
0.97320993
0.97127187
0.97873573
0.993051
1.0087112
1.0214227
1.0267466
1.0212467
1.0041394
0.98026906
0.95996438
0.95393911
0.96933759
0.99695463
1.0136064
1.0081822
1.0007042
0.99342519
0.98856133
0.98825632
0.99037208
0.99365078
0.99685604
0.99961431
1.0008752
0.99973427
0.99612854
0.99251637
0.99154422
0.99722216
1.0077179
1.0150307
1.0106652
0.993104
0.9738101
0.97042587
0.98117725
0.99745234
0.99965692
0.9989893
0.99578361
0.99185999
0.9889219
0.98936046
0.99417223
1.001956
1.0105115
1.0160447
1.0137801
1.002115
0.98373239
0.96802507
0.96508383
0.97918583
1.0038855
1.0234596
1.0248859
1.0043477
0.97889081
0.97086933
0.99131563
0.99284289
0.99567332
1.0001922
1.0045489
1.0067564
1.0058154
1.0011278
0.99496608
0.98972596
0.98948265
0.99553362
1.0038612
1.0083498
1.0051882
0.99584044
0.98314274
0.97914731
0.98690256
0.99975167
1.0091578
1.0064068
0.9926272
1.0037302
1.0012184
0.99892151
0.99812252
0.99937068
1.002625
1.0061168
1.0063953
1.0021276
0.99404714
0.98543401
0.98040904
0.98240861
0.9924246
1.0052345
1.0126234
1.0105025
0.9998686
0.98753179
0.98290664
0.98690828
0.99301792
0.99693953
1.00514
1.0049987
1.0027305
0.99854388
0.99410893
0.99096
0.99048803
0.99343715
0.99866269
1.0028891
1.0038594
1.0008683
0.99545086
0.99071937
0.99062778
0.99557814
1.0011656
1.0021666
0.9974706
0.99052905
0.98743552
0.98944579
0.99344952
0.99140797
0.99431614
0.99828392
1.0018004
1.0032521
1.0014919
0.99760301
0.9937863
0.99266938
0.99583881
1.0021718
1.0079932
1.0091179
1.0045026
0.99613156
0.98906465
0.98686317
0.98914957
0.99313997
0.99612819
0.99733118
0.99776073
0.99732752
1.001449
0.99918016
0.99882906
1.0003852
1.003336
1.0063312
1.0073452
1.0051846
1.0004267
0.99552591
0.99307899
0.9939842
0.99723612
0.9999436
0.99979202
0.99704412
0.99380521
0.99259359
0.99390129
0.99655085
0.99858145
0.99860248
0.99670885
1.0069362
1.0055131
1.0018215
0.99760399
0.99487336
0.99456455
0.99672688
1.0002368
1.0028416
1.0029516
1.0002734
0.99657457
0.99398842
0.99379502
0.9959104
0.99866298
1.0007173
1.0011499
1.0000637
0.99811888
0.99598162
0.99409135
0.99206464
0.99620335
0.99864001
1.0006895
1.0016111
1.0008029
0.99869169
0.99705692
0.99711109
0.9991496
1.002087
1.0043668
1.0045813
1.0027175
1.0000147
0.99813121
0.99784638
0.99866033
0.99921852
0.99850294
0.99654502
0.99448805
0.9934423
0.99350337
0.99899746
0.9985932
1.0003098
1.0031849
1.0059629
1.0071518
1.0062664
1.0034674
1.0003741
0.99853868
0.99835368
0.99929043
1.0004438
1.0009056
1.0005382
0.99980371
0.99903989
0.99848109
0.99778671
0.99686971
0.99622092
0.99642855
0.99748064
1.0073752
1.0052445
1.0023432
1.0001079
0.99915747
0.99945414
1.0005574
1.0013354
1.0014294
1.0005192
0.99959853
0.99940173
0.99992606
1.0009161
1.0016504
1.0018045
1.0013562
1.000665
0.99998556
0.99940085
0.99882177
0.99838593
0.99819708
1.0011044
1.0019891
1.0019314
1.0010544
0.99986546
0.9990702
0.99928599
1.0003823
1.0020211
1.0036263
1.0044208
1.0045076
1.004024
1.0033335
1.0024636
1.0015445
1.000595
0.99988009
0.99962082
0.99968771
0.9999182
0.99976573
0.99927172
0.99928849
1.0000508
1.0018664
1.0037657
1.0049431
1.0053703
1.0048999
1.0040837
1.0033224
1.0027431
1.0023027
1.001786
1.0012591
1.0008937
1.0007983
1.0009577
1.0011995
1.0012977
1.0012641
1.0011551
1.0009466
1.0006272
1.0002193
1.0050205
1.0040275
1.0032072
1.002764
1.0026477
1.0024568
1.0021082
1.0016597
1.0012208
1.0010222
1.0010947
1.0013654
1.0017552
1.0022446
1.0027797
1.003365
1.0037296
1.0036803
1.003118
1.0022295
1.0012915
1.0004299
1.0000165
1.0035448
1.0030949
1.0023028
1.001441
1.0009032
1.0007729
1.0010803
1.0016703
1.0023943
1.0032111
1.0039424
1.0044617
1.0046465
1.0044301
1.0039706
1.0034201
1.0027576
1.0022821
1.0017959
1.0012637
1.0008241
1.0005347
1.000719
1.0016025
1.0017675
1.002109
1.0024964
1.0029588
1.0035272
1.0039744
1.0041547
1.0040745
1.003718
1.0032355
1.0027644
1.0023515
1.0021194
1.0019943
1.0019097
1.0019609
1.0020004
1.002116
1.0022453
1.0022084
1.0019153
1.0022265
1.0032926
1.0030289
1.0028099
1.0027095
1.0027243
1.0027522
1.0027632
1.0026782
1.0024043
1.002081
1.0018525
1.001804
1.0020863
1.0025965
1.0031527
1.0036716
1.0039306
1.0039929
1.0039251
1.0035376
1.0029872
1.0022993
1.0017051
1.0026098
1.0024822
1.0023463
1.0022463
1.0021044
1.0020679
1.0020833
1.0021511
1.0023289
1.0025452
1.0028232
1.0032049
1.0035575
1.0037575
1.0038179
1.0035927
1.0031541
1.0027374
1.0022607
1.0019176
1.0016846
1.0014655
1.0014639
1.002122
1.0020491
1.0020175
1.0021667
1.0023567
1.0025235
1.0025846
1.0025958
1.0025777
1.0025751
1.0026135
1.0026475
1.0027038
1.0026774
1.0025086
1.0023337
1.0022002
1.0020782
1.0020744
1.0021775
1.0022456
1.0024224
1.002574
1.0022778
1.0020436
1.0018296
1.0017824
1.0018498
1.0020007
1.0020408
1.001994
1.0019313
1.0019149
1.0020124
1.0021323
1.0021915
1.0021802
1.0021687
1.0022632
1.0025444
1.0029779
1.003259
1.0031956
1.0027255
1.0021314
1.0016834
1.00169
1.0015758
1.0014115
1.0014023
1.0015093
1.0016846
1.0017553
1.0016647
1.0015151
1.0014555
1.0016519
1.0020425
1.0023696
1.0024115
1.0021386
1.0018125
1.0017537
1.002041
1.0024588
1.0025707
1.002162
1.0013725
1.0007815
1.0015066
1.0013473
1.0011627
1.0010373
1.0011628
1.0014629
1.0016956
1.0016633
1.001347
1.00095
1.0008004
1.0010689
1.0016079
1.0020295
1.0020155
1.0015989
1.0011414
1.0010483
1.0013683
1.0017827
1.0018813
1.0015673
1.0011332
1.001539
1.0013173
1.0010903
1.0007726
1.0005978
1.0007467
1.0011091
1.0013647
1.001297
1.0009682
1.0005729
1.0004246
1.0006531
1.001078
1.0013624
1.001296
1.0009743
1.0007283
1.0008402
1.0012309
1.0015295
1.0014471
1.0010263
1.0007334
1.0009787
1.0011096
1.0009928
1.0008469
1.0007385
1.0006575
1.0008062
1.0008627
1.0007925
1.0005815
1.0003005
1.0001645
1.0002589
1.000466
1.000537
1.0004063
1.0001958
1.0001275
1.0003516
1.0007342
1.0009204
1.0007023
1.0007549
1.0009826
1.0012026
1.0014847
1.0013948
1.0011205
1.0007832
1.0003911
1.0002226
1.0001435
1.0001182
0.99993452
0.99970389
0.99961446
0.99972814
0.99993016
1.0000036
0.99987523
0.99967605
0.99959944
0.99975832
1.0000885
1.0002459
1.0013111
1.0014226
1.0013439
1.0014375
1.0013049
1.0009697
1.0006164
1.0000596
0.99999092
0.99986101
0.99999082
0.99991325
0.99968856
0.99933605
0.99913592
0.99920808
0.99939064
0.99946512
0.99928469
0.99891977
0.99866549
0.99879989
0.99931679
1.0024908
1.0021983
1.0019212
1.0017093
1.0015241
1.0011659
1.0009416
1.0003837
1.0002631
0.99995469
1.0000686
0.99995542
0.99964939
0.99919042
0.99869063
0.99831392
0.99842861
0.99875206
0.99899525
0.99890268
0.99847249
0.99800622
0.99782434
1.0017508
1.0017987
1.0015824
1.0014315
1.0013851
1.0012597
1.0013694
1.001044
1.0008057
1.0002439
0.99996298
0.99956588
0.99940988
0.99916362
0.9988081
0.99835476
0.99796046
0.99779251
0.99791743
0.99818927
0.99836817
0.99830878
0.99797805
1.0016946
1.0016086
1.0013868
1.0012291
1.0011225
1.0010117
1.0012313
1.0012252
1.0012258
1.0007646
1.0002248
0.99952799
0.99908866
0.99884612
0.99883308
0.99877991
0.99856647
0.99819929
0.99775031
0.99734804
0.99719848
0.99724776
0.99731139
1.001102
1.001351
1.0014693
1.0015971
1.001618
1.0014182
1.001294
1.001026
1.0008284
1.0007008
1.0004356
1.000157
0.99972835
0.99934511
0.99901428
0.99869948
0.99846017
0.99816306
0.99779351
0.99739202
0.99708077
0.99698447
0.99669415
1.0009693
1.0010591
1.001121
1.0012556
1.0014043
1.001347
1.001248
1.0009655
1.0006791
1.0005282
1.0003174
1.0003418
1.0001715
1.0000309
0.99960529
0.99909662
0.99853332
0.9979977
0.99759953
0.99730062
0.99709861
0.99699894
0.99673989
1.0014282
1.001295
1.0011365
1.0010551
1.0010338
1.001071
1.0011833
1.0012574
1.0011625
1.0010856
1.0008182
1.0006631
1.0003136
1.0000389
0.99962042
0.99923114
0.99884723
0.99843686
0.99815801
0.99792141
0.99757112
0.99718344
0.99658424
1.0000217
1.0004341
1.0005375
1.0006908
1.0007963
1.0009529
1.001105
1.0012276
1.0012064
1.0011256
1.0009631
1.0007363
1.0004901
1.0002368
0.99996076
0.99965166
0.99931625
0.99890072
0.9986422
0.99833641
0.99796085
0.99746231
0.99665938
1.000366
1.0002831
1.0003169
1.0003986
1.0005038
1.000611
1.0006842
1.000775
1.0008413
1.000864
1.0008657
1.0008004
1.0006821
1.0004754
1.0002787
1.000028
0.99974251
0.99930709
0.9988614
0.9983746
0.99802111
0.99767953
0.99721571
0.99941292
0.99953286
0.99967372
0.99977787
0.99986373
0.99991663
0.99996495
1.0000441
1.0001682
1.0002615
1.0003441
1.0003849
1.000379
1.0002679
1.0000846
0.99984371
0.99964804
0.99938455
0.99906381
0.9986402
0.99824498
0.99791327
0.99764287
0.99861344
0.99869588
0.99878898
0.99886256
0.99893505
0.99899725
0.99907105
0.99916958
0.99929676
0.99937765
0.9993921
0.99936238
0.99935957
0.99940061
0.9994108
0.99933317
0.99917839
0.99896442
0.99872494
0.99845417
0.99814476
0.99779798
0.99741378
0.99766291
0.99771859
0.99776711
0.99783874
0.99795491
0.99805535
0.99814036
0.99815063
0.99814502
0.99815736
0.99817837
0.99819454
0.99820502
0.99821619
0.99822686
0.99817848
0.99805004
0.99790543
0.99774332
0.99757643
0.99735148
0.9971057
0.99685118
0.99662211
0.99674808
0.99688707
0.99701251
0.99708127
0.99711464
0.99711445
0.99709397
0.99707027
0.99704314
0.9970338
0.99703833
0.99701409
0.99693374
0.99682541
0.99671671
0.99661496
0.99652788
0.99641445
0.99624934
0.99608427
0.99592684
0.99582352
0.99601746
0.99608162
0.99617986
0.99623698
0.99624408
0.99625997
0.99622201
0.99618385
0.99614293
0.99608404
0.99601836
0.99588349
0.99575345
0.99564367
0.9955204
0.99537417
0.99523062
0.99506768
0.99485385
0.9946732
0.99453638
0.99445076
0.9943838
0.99577978
0.99567728
0.99566415
0.99561336
0.9956172
0.99566975
0.99568111
0.9956307
0.99548081
0.99531857
0.99527254
0.99514257
0.99496711
0.99479359
0.99463039
0.99439759
0.99409967
0.99383193
0.99360617
0.99339984
0.99318817
0.99299703
0.99294021
0.99563867
0.99540778
0.99538346
0.99542566
0.99550809
0.99540695
0.99529003
0.99529408
0.99516959
0.99502529
0.99485059
0.99482744
0.99467872
0.99436322
0.99413762
0.99389158
0.99363678
0.99330939
0.99295653
0.99270198
0.992391
0.99206213
0.99198835
0.99568147
0.99537338
0.99527184
0.99544275
0.99560138
0.99542389
0.99510721
0.99500984
0.99514818
0.99521042
0.99482063
0.99457447
0.99462237
0.99443954
0.99422885
0.99383502
0.99372658
0.99336443
0.99303747
0.99262349
0.99228364
0.99198761
0.99179272
0.99566861
0.9955442
0.99550692
0.99550921
0.99548914
0.99545926
0.99531893
0.99520941
0.99528478
0.99523747
0.9949954
0.99480573
0.99464184
0.99465411
0.99456802
0.99421824
0.99403587
0.99381196
0.99363394
0.99322656
0.99290099
0.99263429
0.99243276
0.9957166
0.99564448
0.99567107
0.99568276
0.99565068
0.99557802
0.99550076
0.99547425
0.99544988
0.99534666
0.99521193
0.99513783
0.99502953
0.99495502
0.9949013
0.99472485
0.99453656
0.99430192
0.9942156
0.99407047
0.99388602
0.99352036
0.99322249
0.99596003
0.99570915
0.99564063
0.99576384
0.99584372
0.99574036
0.99558361
0.99557809
0.99565698
0.99560661
0.99544417
0.99533435
0.99536887
0.99537352
0.99522346
0.99511452
0.99508043
0.9949181
0.99482439
0.99469282
0.99468148
0.99444439
0.9940634
0.99581934
0.99584233
0.99584308
0.99580581
0.99577476
0.99576138
0.99573415
0.99578324
0.99582607
0.9957988
0.99568178
0.99561244
0.99570182
0.99576018
0.99561254
0.9954181
0.99540867
0.99558577
0.99550697
0.99528396
0.99517973
0.99528611
0.99527923
0.9954056
0.99579399
0.99615298
0.99607292
0.99566347
0.99541554
0.99559221
0.99594437
0.9960833
0.99598123
0.99571683
0.99554483
0.99568325
0.99595906
0.99603365
0.9958756
0.99565747
0.99572946
0.99585796
0.99589783
0.99576763
0.99575683
0.99585988
0.99554974
0.99584478
0.99611163
0.99593354
0.99558763
0.99553894
0.99578532
0.99604862
0.99611218
0.99596955
0.99579085
0.99578397
0.99595408
0.99608323
0.9960888
0.99594365
0.99587357
0.99600905
0.9962031
0.9962437
0.99615281
0.99599026
0.99599519
0.99526898
0.9959276
0.99633588
0.9958452
0.99518879
0.99539087
0.99596925
0.99634459
0.99621519
0.99572168
0.99545942
0.99570806
0.9961327
0.99639422
0.99623337
0.99589441
0.9958789
0.99607245
0.99626653
0.99636817
0.99628341
0.99630688
0.99622649
0.99517017
0.99584348
0.99640036
0.9961085
0.99559051
0.99522086
0.9954689
0.99624202
0.99639954
0.99612501
0.99559844
0.99524859
0.99583329
0.99649174
0.99662194
0.99610376
0.99548395
0.99568925
0.99653185
0.99681312
0.99632857
0.99577645
0.99593301
0.99448739
0.99587097
0.99679249
0.99634021
0.99497881
0.99432068
0.99524687
0.99632541
0.99672449
0.99618689
0.99495724
0.99480462
0.9959299
0.996654
0.99661589
0.9958759
0.9952515
0.9955972
0.99624418
0.99678773
0.99643409
0.9957737
0.99547824
0.99455743
0.99607992
0.99685012
0.99606885
0.99444213
0.99443349
0.99550319
0.99643254
0.99663901
0.99540194
0.99459117
0.99542643
0.99622173
0.99625044
0.99587895
0.99542416
0.99552495
0.99577068
0.99587544
0.99604655
0.99614228
0.99616382
0.99573149
0.9949883
0.99582022
0.99577887
0.99496035
0.99485991
0.9955017
0.99569566
0.99558777
0.99527171
0.99496961
0.99560312
0.99605991
0.99545951
0.99516014
0.99516043
0.9956384
0.99623759
0.995599
0.99533432
0.99521763
0.99574832
0.99611823
0.99617724
0.99557651
0.99508009
0.99464501
0.99473904
0.99547628
0.99566338
0.99499849
0.99481603
0.99509392
0.99531308
0.9955957
0.99546006
0.99477844
0.99475558
0.99528416
0.99575546
0.99585681
0.99499512
0.99468916
0.99503013
0.99562338
0.99579344
0.99580794
0.99600062
0.99470582
0.99356742
0.99393979
0.99545844
0.99621994
0.99538525
0.99412614
0.9938826
0.99490255
0.99581419
0.99534754
0.99443257
0.99427496
0.99517517
0.99571685
0.99510596
0.99428422
0.99425407
0.99527339
0.99573606
0.99533445
0.99502366
0.99559968
0.99426361
0.9937715
0.99407551
0.994934
0.9953342
0.99492903
0.99442719
0.99421077
0.99430783
0.99493786
0.99506366
0.99458144
0.99429868
0.99449942
0.9949125
0.99483675
0.99439075
0.99423066
0.99484158
0.99546811
0.99481705
0.99378042
0.99541221
0.99427159
0.99328663
0.9937056
0.99490188
0.9954562
0.99466336
0.99366594
0.99380481
0.99465279
0.99495274
0.99434657
0.99386568
0.99431389
0.99486076
0.99458796
0.99380857
0.99377682
0.99465028
0.99498347
0.99465684
0.99362359
0.99308054
0.99466429
0.99438018
0.99377932
0.99377141
0.99438374
0.99495902
0.99463435
0.99371485
0.99340559
0.99421333
0.99496784
0.99443801
0.99337459
0.99350364
0.9947068
0.9950102
0.99372208
0.99274688
0.99379247
0.99523057
0.99482775
0.99295259
0.9921692
0.99405686
0.99434133
0.99446262
0.99437408
0.99420556
0.99416818