/*--------------------------------*- C++ -*----------------------------------*\
| =========                 |                                                 |
| \\      /  F ield         | OpenFOAM: The Open Source CFD Toolbox           |
|  \\    /   O peration     | Version:  2406                                  |
|   \\  /    A nd           | Website:  www.openfoam.com                      |
|    \\/     M anipulation  |                                                 |
\*---------------------------------------------------------------------------*/
FoamFile
{
    version     2.0;
    format      ascii;
    arch        "LSB;label=32;scalar=64";
    class       volVectorField;
    location    "165";
    object      UMean;
}
// * * * * * * * * * * * * * * * * * * * * * * * * * * * * * * * * * * * * * //

dimensions      [0 1 -1 0 0 0 0];

internalField   nonuniform List<vector> 
20580
(
(0.088044431 0.00025759459 6.4956547e-22)
(0.089307668 0.0001042026 9.0101805e-23)
(0.096483932 -2.3863405e-05 8.8266601e-23)
(0.095873901 0.00034794083 -1.6498215e-22)
(0.095542405 0.00063012153 -1.0987469e-24)
(0.095600571 0.00069607307 -4.2887769e-23)
(0.095541051 0.00076775829 2.5900696e-22)
(0.095282982 0.00085959264 -4.7268045e-23)
(0.09494794 0.00090848949 -1.1358334e-22)
(0.094555598 0.00087900605 0)
(0.094142273 0.00076418347 -1.4787845e-23)
(0.093726971 0.00055886833 -7.250318e-22)
(0.093294315 0.00023592523 -1.7474478e-22)
(0.092867571 -0.0002321773 2.1479334e-22)
(0.092469556 -0.00083138844 3.7122602e-22)
(0.092107634 -0.0016709941 3.9660403e-22)
(0.091776778 -0.00265803 8.3020464e-22)
(0.091450501 -0.0038062739 -6.4643156e-24)
(0.091185765 -0.005166421 8.5073737e-22)
(0.091011633 -0.0067517898 -2.2945763e-22)
(0.09099755 -0.0086466185 7.826116e-24)
(0.090969309 -0.010743752 -6.7264691e-23)
(0.091114196 -0.013110475 -7.8836927e-22)
(0.091816125 -0.015841638 2.1857239e-21)
(0.092960063 -0.018905965 -2.4800684e-21)
(0.094084181 -0.022238599 -2.2043089e-21)
(0.094922704 -0.025600493 3.9421936e-21)
(0.095698116 -0.028976301 5.7648692e-22)
(0.097121596 -0.032777859 -2.2723063e-21)
(0.098846318 -0.036903332 2.9431955e-21)
(0.10115806 -0.041659056 1.1114711e-21)
(0.086994107 0.00017419884 0)
(0.087855817 0.00016677619 -3.5143266e-22)
(0.095033246 -4.9741993e-05 3.878163e-22)
(0.09490031 0.0002479493 7.6095692e-23)
(0.094855739 0.00052946712 -2.6563009e-23)
(0.095091135 0.00062610515 -1.6406895e-23)
(0.0951762 0.00070681327 1.7063603e-22)
(0.095042837 0.00079117401 -2.296757e-23)
(0.094799826 0.00084710602 -7.651426e-23)
(0.09449 0.00083405207 -1.3661843e-22)
(0.094144407 0.00074156352 3.531442e-22)
(0.093804216 0.00055731324 -1.8082661e-22)
(0.093467448 0.00026501534 -2.6991723e-22)
(0.093148236 -0.00016001472 -1.5988193e-23)
(0.092817508 -0.00072130385 -6.3865191e-22)
(0.092524946 -0.0014716756 -1.800214e-23)
(0.09229622 -0.0023878902 -3.4419298e-22)
(0.092111425 -0.0034981767 -8.192632e-22)
(0.091974488 -0.0047988028 0)
(0.091901148 -0.0062898499 -9.792148e-22)
(0.091949311 -0.0080223097 0)
(0.092095042 -0.010001438 -1.1527108e-21)
(0.092269278 -0.012174106 1.2394125e-21)
(0.092688545 -0.014565894 -1.6314495e-23)
(0.093590909 -0.017309792 -9.5358636e-22)
(0.094855025 -0.020501095 5.3055743e-22)
(0.096523136 -0.02390012 -4.9003577e-22)
(0.098148673 -0.027220639 3.9220082e-22)
(0.099521191 -0.030590797 1.454386e-21)
(0.10096675 -0.033730747 -7.3750086e-22)
(0.10253009 -0.037580985 -7.5085399e-22)
(0.086165759 0.00035472395 0)
(0.086833797 0.00044307464 0)
(0.093498021 -8.142961e-06 -9.792875e-23)
(0.093565815 0.00023996635 -1.7856497e-22)
(0.093787963 0.00052748064 1.7614899e-24)
(0.09423051 0.0006131758 -9.4118302e-24)
(0.094505442 0.00067692707 -1.8039746e-22)
(0.094504363 0.0007534071 -5.1502109e-23)
(0.094381731 0.00079607546 0)
(0.094196137 0.00077392899 -4.6085378e-22)
(0.09396354 0.00068184624 -1.6021949e-22)
(0.09372744 0.00051027783 4.4118366e-22)
(0.093500843 0.00022936347 0)
(0.09328996 -0.0001734711 3.1475194e-23)
(0.093077386 -0.00071584555 -3.2418783e-22)
(0.092854742 -0.0014504242 -4.9090603e-23)
(0.092689888 -0.0023190557 2.8476161e-23)
(0.092610762 -0.0033492378 2.2439083e-23)
(0.092593881 -0.0045731143 9.7494173e-22)
(0.092638992 -0.0059724904 0)
(0.092816451 -0.0076198526 0)
(0.093119702 -0.0094869033 1.2597929e-21)
(0.093419902 -0.011538274 -1.0539693e-21)
(0.093743827 -0.01378087 -1.2429525e-21)
(0.094403882 -0.016208275 -2.5703192e-22)
(0.095543663 -0.018925152 1.890868e-22)
(0.097164654 -0.021977434 1.9112691e-21)
(0.099058342 -0.025366072 2.8629448e-22)
(0.10127387 -0.028692246 -6.2193605e-22)
(0.10336519 -0.031884941 -2.9688833e-22)
(0.10485203 -0.034789222 7.1992323e-22)
(0.085362807 0.0004998998 0)
(0.085855083 0.00065648258 -4.1253043e-25)
(0.092096639 -8.1146434e-05 6.8616561e-23)
(0.092030896 0.00018692032 3.3580307e-23)
(0.092366138 0.00045827673 5.5511226e-23)
(0.092980113 0.00052721056 -5.7803215e-23)
(0.093463371 0.00058567879 -1.6961249e-22)
(0.093662591 0.00066072993 0)
(0.093698474 0.00070480709 2.2032919e-23)
(0.093650403 0.00069498184 1.3384342e-22)
(0.093540044 0.00061756994 -4.9437437e-22)
(0.093417429 0.00045781723 1.8596818e-22)
(0.093294093 0.00019531674 -1.3677504e-23)
(0.093176856 -0.0001851249 2.5781373e-22)
(0.093092095 -0.00069317735 5.980363e-22)
(0.093029191 -0.0013666665 -2.5880825e-23)
(0.092983906 -0.002192094 -7.1834241e-22)
(0.092993977 -0.0031666532 -9.3492235e-24)
(0.093087846 -0.0043283908 -1.040811e-23)
(0.093254716 -0.0056401145 -1.509705e-23)
(0.093532662 -0.0071950038 4.8010907e-23)
(0.093935959 -0.0089746204 9.5584225e-22)
(0.094376218 -0.010920836 -8.8775013e-23)
(0.094883421 -0.012956049 -7.7453901e-22)
(0.095590436 -0.015079977 0)
(0.096401089 -0.017574948 2.0303696e-22)
(0.09751562 -0.020463369 -3.720513e-22)
(0.099302212 -0.023433511 -5.890906e-22)
(0.10138547 -0.026459318 -5.725258e-22)
(0.10394826 -0.029668173 -4.057634e-22)
(0.10611959 -0.032861879 -6.1035422e-23)
(0.08486833 0.00058787729 0)
(0.085178672 0.00084058117 -3.1186847e-22)
(0.09110661 -0.00011802708 -5.0101952e-22)
(0.090713385 0.00016817499 1.3445236e-22)
(0.090934292 0.0004263618 6.629385e-24)
(0.091557661 0.00047776683 -9.6207269e-23)
(0.09209678 0.00053385786 0)
(0.09248576 0.00059996665 6.5923891e-23)
(0.092699051 0.00064345788 8.4983947e-23)
(0.092800829 0.00063251339 2.6081561e-22)
(0.092830276 0.00056292712 -2.9472572e-22)
(0.092839924 0.00041953341 8.9731326e-25)
(0.092828905 0.00017976184 2.0013941e-22)
(0.092821406 -0.00017831389 -2.3806969e-22)
(0.092848074 -0.00065313135 2.844445e-22)
(0.092919375 -0.0012850157 3.1155872e-22)
(0.093021134 -0.0020481647 -6.4928001e-22)
(0.093166978 -0.0029696582 7.7255778e-22)
(0.093401723 -0.004065033 -7.7835336e-22)
(0.093706063 -0.005304891 0)
(0.094097695 -0.0067548623 5.3995054e-23)
(0.094624281 -0.0084190955 8.7908956e-23)
(0.095267808 -0.010249721 8.9136096e-22)
(0.095981158 -0.012185452 -1.9875623e-22)
(0.096806304 -0.014160706 0)
(0.097839742 -0.016194824 7.6704864e-22)
(0.098886528 -0.01848891 -2.7811743e-22)
(0.10011818 -0.021324562 3.8126281e-22)
(0.1018033 -0.024384437 -3.8454689e-22)
(0.1039015 -0.027306521 1.8250691e-22)
(0.10671837 -0.030676118 -2.2932917e-22)
(0.084697068 0.00075068302 -2.2411998e-21)
(0.084670817 0.0010036175 -3.4558861e-24)
(0.090399507 -0.00014670269 4.3433755e-24)
(0.089759243 8.5614374e-05 -1.4978258e-23)
(0.089732587 0.00036791438 6.8613322e-23)
(0.090218716 0.00042342337 1.4576333e-24)
(0.090719013 0.00047798972 3.8045702e-23)
(0.091106477 0.00054487938 -7.1513432e-24)
(0.091382751 0.00058016711 1.1469663e-22)
(0.091587917 0.00056861927 -3.4042599e-22)
(0.091751881 0.00050832324 -2.816376e-22)
(0.091905793 0.00037860634 -1.9109305e-22)
(0.092046009 0.00015132477 1.919246e-22)
(0.09217607 -0.0001753574 -2.2229339e-22)
(0.092328008 -0.00060677212 2.3243661e-22)
(0.092537318 -0.0011751228 4.6291061e-24)
(0.092779012 -0.0018728139 -5.8854744e-22)
(0.093067175 -0.0027302273 6.9184327e-22)
(0.093456972 -0.003742893 -1.5777878e-23)
(0.093921242 -0.0049095323 0)
(0.094459705 -0.0062612645 6.1217031e-23)
(0.095169491 -0.0077982153 -1.9226308e-21)
(0.096029127 -0.0094856454 -1.2010394e-21)
(0.096939662 -0.011349291 0)
(0.097999651 -0.01331954 1.3215121e-21)
(0.099128358 -0.015418474 -9.7040873e-22)
(0.10034648 -0.017515163 3.8974362e-22)
(0.10163064 -0.019507187 -4.0813978e-23)
(0.10313676 -0.021704793 2.7377207e-22)
(0.10471328 -0.024121945 1.3874725e-21)
(0.10687567 -0.027350015 -4.0452705e-22)
(0.085454974 0.00088786908 -8.383148e-22)
(0.084462362 0.0012276736 1.5042438e-22)
(0.089838726 -0.00011354697 3.5367846e-23)
(0.088983946 7.2163404e-05 -1.5426004e-22)
(0.088740179 0.00035927654 3.6697243e-23)
(0.089073629 0.00041533393 1.0002262e-22)
(0.089433609 0.00045908345 -1.2897502e-22)
(0.089714111 0.00050837525 -1.8582123e-24)
(0.089939361 0.00052588894 2.2517988e-23)
(0.090145136 0.00050579789 1.5285418e-22)
(0.090356972 0.00045714582 -2.5065438e-23)
(0.090602496 0.00034255598 -3.4480006e-23)
(0.090872806 0.00012903667 -1.7912786e-22)
(0.091150446 -0.00017195038 -1.1550769e-24)
(0.091452939 -0.00056584633 -2.3789032e-22)
(0.091823959 -0.0011035072 2.7956459e-23)
(0.092204618 -0.0017632467 4.1314466e-24)
(0.092621078 -0.0025426016 -1.2065488e-21)
(0.093140048 -0.0034731149 0)
(0.093750284 -0.0045496351 -6.6301415e-22)
(0.094434945 -0.0057848217 -6.8369307e-23)
(0.09528356 -0.0071827573 -7.3540906e-22)
(0.096268672 -0.0087819127 1.1872738e-22)
(0.097318564 -0.010527426 1.818995e-22)
(0.098475534 -0.012387923 1.5236755e-22)
(0.099814395 -0.014403487 -8.4952216e-23)
(0.10147746 -0.01645692 1.3523352e-21)
(0.1032466 -0.018474715 -1.0361389e-22)
(0.1049804 -0.020422976 -4.8703976e-22)
(0.1067279 -0.022237723 -3.1820757e-22)
(0.10831797 -0.024463048 -6.37815e-22)
(0.088767966 0.0013703946 3.7692484e-21)
(0.08491619 0.0014041991 0)
(0.089830635 -0.0001595093 2.4793833e-21)
(0.088649115 6.4922837e-05 5.1024403e-23)
(0.088099241 0.00032443122 -3.7617423e-23)
(0.088202585 0.00035862188 1.0161274e-23)
(0.088331932 0.00039101956 -7.8088611e-23)
(0.088437964 0.00043421543 -2.2962136e-23)
(0.0885461 0.00045305659 -1.0172167e-22)
(0.088667704 0.00043920318 3.886038e-22)
(0.088829244 0.00040567116 2.4562638e-22)
(0.089060256 0.00031436462 -2.1579389e-23)
(0.089361179 0.00012310151 -1.6525854e-22)
(0.089708657 -0.00014340567 -3.8802133e-22)
(0.09011363 -0.00049796981 4.2251846e-22)
(0.090631822 -0.00099386506 4.5527773e-22)
(0.091196725 -0.001625334 5.0358652e-22)
(0.091763618 -0.0023416615 -5.1915901e-22)
(0.092419226 -0.0031994264 -2.317969e-24)
(0.093175824 -0.0041972878 1.1598661e-23)
(0.093979805 -0.0053542154 6.7812877e-23)
(0.094855368 -0.0066744794 -7.5835064e-24)
(0.095908122 -0.0081661294 0)
(0.097177946 -0.0097568591 1.0291407e-22)
(0.098519026 -0.011353644 1.9033492e-24)
(0.099922499 -0.013058918 6.4066088e-22)
(0.10144112 -0.014986971 -3.1860488e-22)
(0.1032126 -0.017113793 -7.9527752e-22)
(0.10526232 -0.019153847 -9.7644419e-22)
(0.10766072 -0.021172671 5.8561268e-22)
(0.10966527 -0.023208728 6.2037131e-22)
(0.09741843 0.0017772299 6.2341006e-22)
(0.086845597 0.0016073314 -2.8506051e-25)
(0.090786437 -0.00012348482 1.0019163e-21)
(0.089169461 0.00010363378 1.2959332e-23)
(0.088234151 0.0003384286 3.3923176e-23)
(0.088038268 0.00032949238 1.3438299e-23)
(0.087879616 0.00036102616 1.3521782e-22)
(0.087709028 0.00039582812 -8.6040483e-25)
(0.087562432 0.00040521476 -1.0930496e-22)
(0.087454679 0.00038364398 -1.139033e-22)
(0.087424513 0.00035502995 3.3466959e-22)
(0.08752427 0.00027520576 0)
(0.087739307 0.00010861632 2.1797446e-23)
(0.088040612 -0.00014653439 -2.9812068e-23)
(0.088441927 -0.0004562276 3.4817506e-22)
(0.088944498 -0.00086714651 -4.2729471e-22)
(0.089619579 -0.0014443781 1.0690611e-23)
(0.090366518 -0.002123975 4.5457534e-22)
(0.091196807 -0.0029026336 4.830089e-22)
(0.092140639 -0.0038109722 4.9918408e-22)
(0.093142734 -0.0048730396 4.5372606e-22)
(0.094218512 -0.0060780432 1.7861233e-23)
(0.09541396 -0.0073751465 1.486241e-22)
(0.096806994 -0.0088282705 1.1381331e-22)
(0.098314928 -0.010402262 1.425128e-22)
(0.099863055 -0.012025748 -3.3647883e-22)
(0.10146679 -0.013749699 1.2880909e-22)
(0.10318182 -0.015591222 -2.6946294e-22)
(0.10512383 -0.01750617 9.6556602e-22)
(0.10719023 -0.019410103 9.8513345e-22)
(0.10981393 -0.021822896 -1.9426129e-21)
(0.10904667 0.002044093 -4.1496117e-21)
(0.092189933 0.0011303345 -1.4692424e-24)
(0.094147322 -0.00014176597 -1.8605121e-21)
(0.091651919 4.9243298e-05 1.5727965e-22)
(0.089675821 0.00031962119 -3.7675028e-24)
(0.088869917 0.00032369469 0)
(0.088301817 0.00033352377 6.7391368e-23)
(0.087811629 0.0003562659 -1.707634e-22)
(0.087420146 0.00035930879 1.0672388e-22)
(0.087065979 0.00032945259 -1.2826438e-22)
(0.086777398 0.00031961699 1.533509e-24)
(0.086623054 0.0002594458 1.0233618e-23)
(0.08661387 0.00010897079 0)
(0.086721495 -0.00011293285 2.5865969e-22)
(0.086961154 -0.00039615935 -1.5193948e-22)
(0.087324997 -0.00076004009 1.3437815e-23)
(0.087901468 -0.0012339743 3.7227717e-22)
(0.088637595 -0.0018409444 3.7635559e-22)
(0.089522877 -0.0025615663 3.823033e-22)
(0.090590712 -0.0033910597 4.4804466e-22)
(0.091787194 -0.0043542154 4.2686519e-22)
(0.093091512 -0.0053967709 2.5760455e-22)
(0.094487307 -0.0064901355 3.9238141e-22)
(0.095990437 -0.0077483586 6.3875088e-22)
(0.097601098 -0.009169574 -6.9761169e-22)
(0.099397299 -0.010658827 2.1513372e-22)
(0.10132697 -0.012109906 -4.8464906e-23)
(0.10325315 -0.01370311 -5.9280228e-22)
(0.10530667 -0.015466054 -7.9283718e-22)
(0.10715951 -0.017137708 2.1439113e-22)
(0.10956686 -0.019364607 1.4481333e-21)
(0.11301891 0.0015182584 1.3541764e-22)
(0.098327463 0.00080552328 -2.2421568e-24)
(0.099475875 -0.00013196401 -2.5655633e-22)
(0.09664134 0.00010124926 -5.1588022e-23)
(0.093693411 0.00032227806 7.9456412e-24)
(0.091692313 0.00034752688 2.2204554e-22)
(0.090223428 0.00036020963 7.0238461e-23)
(0.089126909 0.00036311142 -5.5414315e-24)
(0.088350579 0.00033534015 9.8924078e-23)
(0.087700392 0.00027595228 1.4204831e-22)
(0.087136762 0.00026566225 -9.0267467e-23)
(0.086732486 0.00022690657 9.8892744e-23)
(0.086497984 9.6046163e-05 0)
(0.086375366 -9.7466389e-05 -1.843753e-23)
(0.086383927 -0.00034478378 -2.9232743e-22)
(0.086529494 -0.00066243132 -2.5676959e-24)
(0.086850198 -0.0010670364 -1.3763842e-24)
(0.087365665 -0.0015709848 1.0203386e-24)
(0.088083829 -0.0022010831 2.6991611e-23)
(0.089071832 -0.0029260768 -5.0180427e-24)
(0.090313259 -0.0037881077 -5.1378073e-22)
(0.091726356 -0.0047488994 3.7310938e-22)
(0.093307296 -0.0057456707 1.6135206e-22)
(0.094984639 -0.0068386739 -4.7430828e-22)
(0.09671957 -0.008087952 -3.504799e-22)
(0.098525285 -0.0094692782 2.9674755e-22)
(0.10053934 -0.010820089 -4.061255e-22)
(0.10271144 -0.012092065 -6.1373276e-22)
(0.10502002 -0.013487795 9.0423653e-22)
(0.10722829 -0.014820062 7.5543626e-22)
(0.10937635 -0.016494009 -9.3408933e-22)
(0.10994884 0.0013688703 7.5267444e-21)
(0.10164768 0.00028975054 0)
(0.10411473 -0.00029260488 1.0523997e-22)
(0.10191104 0.00014064128 -5.8032364e-22)
(0.099347923 0.00027753841 -3.0452058e-22)
(0.097180607 0.00025632416 7.4646357e-23)
(0.095025667 0.00029253708 1.7817061e-23)
(0.093044134 0.00033558291 2.5714984e-24)
(0.091436201 0.00034067225 -1.0754986e-22)
(0.090095436 0.00027840552 1.3335175e-22)
(0.088998403 0.0002692796 7.8507523e-23)
(0.088176241 0.00022908615 1.1352045e-24)
(0.087610391 0.00010049378 -2.179513e-22)
(0.087241065 -7.3001659e-05 0)
(0.086993965 -0.00027103301 -2.269383e-22)
(0.086915307 -0.00053845527 -2.4499374e-22)
(0.086986547 -0.00092369617 -3.0006431e-22)
(0.087217701 -0.0013783655 2.6669559e-22)
(0.087642533 -0.0019038025 -3.0964066e-24)
(0.088301472 -0.0025086709 -3.3897815e-22)
(0.089218816 -0.0032417664 -2.9271061e-22)
(0.090416617 -0.0041006722 -1.5027423e-23)
(0.091892726 -0.005071574 -5.231282e-22)
(0.093608649 -0.0061225678 -3.9514587e-22)
(0.095468267 -0.0072643046 4.686359e-22)
(0.097339705 -0.0084770272 -2.6847414e-22)
(0.09929469 -0.0097438253 9.2147453e-22)
(0.10144515 -0.010982811 -5.8924281e-23)
(0.10385539 -0.012251287 -1.2821818e-22)
(0.10648303 -0.013539511 -7.6454869e-23)
(0.10920101 -0.015031185 -1.4487537e-22)
(0.101432 0.00092667242 -7.3665759e-22)
(0.10024665 0.00048757248 5.5631847e-22)
(0.10451131 -0.00038164407 1.051308e-22)
(0.10308496 0.00013103955 2.0574522e-23)
(0.10193001 0.00023685557 1.5934911e-23)
(0.10113553 0.00017310417 -4.8313629e-22)
(0.10004811 0.00019587534 -1.7387787e-22)
(0.098560447 0.00021218085 3.2091615e-24)
(0.096899168 0.00021791984 -2.8825798e-23)
(0.095175374 0.00014826251 -1.4360529e-22)
(0.093563462 0.00018888069 1.2854537e-23)
(0.092184087 0.00018998958 -6.5896932e-23)
(0.091050211 8.7712229e-05 -1.2261018e-24)
(0.090183803 -7.1719628e-05 -1.6157492e-23)
(0.089473522 -0.00028057982 0)
(0.088936414 -0.00050949901 0)
(0.088655777 -0.00082922533 2.7785576e-22)
(0.088591161 -0.0012375603 8.2658932e-24)
(0.088712374 -0.0017193284 -2.7986526e-22)
(0.089027122 -0.0022748765 -5.1348121e-23)
(0.089527227 -0.0029321008 -2.1575296e-22)
(0.090263516 -0.0036767177 -2.3141454e-22)
(0.091263288 -0.0045217647 0)
(0.092565912 -0.0054480961 0)
(0.094180647 -0.0064420858 0)
(0.095970534 -0.0074628061 3.9423242e-22)
(0.09787729 -0.0085890692 -4.203783e-23)
(0.099849022 -0.0098304889 1.1574317e-23)
(0.10202631 -0.011127162 2.5719284e-22)
(0.10423747 -0.012252025 -3.1180811e-22)
(0.10718413 -0.013949573 3.9994013e-22)
(0.09485976 0.001103056 -1.6555976e-21)
(0.094860043 0.00033839444 9.9583409e-24)
(0.1016602 -0.00055337885 -3.0109176e-23)
(0.10120933 1.5785882e-07 9.8210729e-22)
(0.1009749 0.00017120574 0)
(0.10090071 0.00014150846 9.0240321e-24)
(0.10056566 0.00017548658 -5.7755866e-23)
(0.10005116 0.00019434897 1.1161797e-22)
(0.099468489 0.000172291 1.0716833e-23)
(0.098725035 5.9466476e-05 3.3823578e-22)
(0.097841201 0.00010900395 -7.9413901e-23)
(0.096882914 0.00011832081 0)
(0.09589504 4.0597948e-05 4.5593672e-22)
(0.094921925 -7.9132198e-05 2.4519261e-22)
(0.094075885 -0.00025090576 2.3321481e-22)
(0.093316081 -0.00046013588 -6.4751835e-24)
(0.092642083 -0.00070745075 1.9282947e-22)
(0.092203899 -0.0010322042 -1.1680041e-23)
(0.091954934 -0.0014551991 -2.1971342e-22)
(0.091875527 -0.0019389435 -5.940317e-23)
(0.091958314 -0.0025171326 9.2761599e-24)
(0.092273285 -0.0031913349 2.3288325e-22)
(0.092841442 -0.0039163453 2.3110396e-23)
(0.093660501 -0.0047002789 0)
(0.094749052 -0.0055840258 1.4229143e-22)
(0.096082082 -0.0065505256 -1.3298023e-22)
(0.097664282 -0.0074902521 3.5297781e-22)
(0.099396178 -0.0084193614 -2.7177292e-22)
(0.10145827 -0.0094723911 1.8083509e-22)
(0.10334838 -0.01037923 2.8411695e-22)
(0.10581795 -0.011934353 1.7500717e-22)
(0.093395777 0.00089874445 2.4767154e-21)
(0.092250725 0.00067501421 -1.6789113e-22)
(0.097807087 -0.00046751278 -4.6355296e-24)
(0.097398501 -6.924897e-05 -5.8400966e-22)
(0.097635088 4.670296e-05 1.4107073e-22)
(0.098264733 2.3181067e-05 1.6282779e-24)
(0.098655654 5.9314511e-05 1.308363e-22)
(0.098754998 6.2787589e-05 -1.0630125e-22)
(0.098673358 7.3493097e-05 -2.9633378e-23)
(0.098428702 -3.6119432e-05 5.0421548e-24)
(0.098107275 3.0349519e-05 9.2153291e-23)
(0.097816985 2.0033343e-05 -2.0541976e-23)
(0.097550093 -7.4311214e-05 -1.7250908e-23)
(0.097243105 -0.0001937992 -1.1882642e-24)
(0.096912285 -0.0003547592 2.7770221e-22)
(0.096629557 -0.00053108507 -6.9197659e-25)
(0.096338441 -0.00078780603 -1.7007424e-22)
(0.096108019 -0.0010667479 -1.8070061e-23)
(0.095970354 -0.001400758 -3.6711223e-23)
(0.095937093 -0.0017798646 0)
(0.095988786 -0.0022053724 1.3993857e-22)
(0.096150009 -0.0026973251 4.6379232e-23)
(0.096481197 -0.0032421371 -1.0677796e-22)
(0.097012883 -0.0038360958 -1.0154686e-22)
(0.097750991 -0.0045343503 3.4930925e-23)
(0.098682386 -0.0053606612 1.941354e-22)
(0.09980531 -0.0062594016 -3.3912027e-23)
(0.10110552 -0.0070874947 -2.6071364e-23)
(0.10269966 -0.0079580275 -3.2088977e-22)
(0.1044398 -0.00867765 -2.9749408e-22)
(0.10591764 -0.0098377701 3.0325703e-22)
(0.10231815 0.0014116476 3.106321e-21)
(0.093881486 0.00052032695 1.6540122e-24)
(0.097739297 -0.00067500486 1.5358988e-21)
(0.096388804 9.1425172e-06 -5.3638004e-23)
(0.095966737 0.00014396769 3.1777265e-23)
(0.096073051 8.1427488e-05 -7.8963413e-23)
(0.096209954 9.5963101e-05 0)
(0.096345209 0.00011049697 -8.3549587e-24)
(0.096467308 5.586275e-05 1.6614397e-24)
(0.096480928 -0.00011730411 -6.371325e-22)
(0.09645166 -1.2663796e-06 2.0263379e-24)
(0.096522436 4.1273047e-05 8.8850386e-24)
(0.096599906 -1.7132528e-05 -1.6975741e-22)
(0.096650055 -0.00010254989 -1.9989163e-22)
(0.096711939 -0.00022763487 -2.1095948e-22)
(0.096799901 -0.00038764935 6.7055427e-24)
(0.096955443 -0.00057326322 1.4971198e-24)
(0.097178763 -0.00081329231 1.7816813e-24)
(0.097493533 -0.0011291991 0)
(0.097923218 -0.0014997931 1.4662998e-22)
(0.09838776 -0.0018651779 3.8329932e-23)
(0.098882878 -0.0022836946 6.9195869e-23)
(0.09946691 -0.0027879584 7.2062983e-23)
(0.10016266 -0.0033404228 -8.9147289e-23)
(0.10099455 -0.0039174726 -3.3004363e-22)
(0.10191023 -0.0045562248 6.9499671e-23)
(0.10292595 -0.0052690277 5.9699759e-22)
(0.1040886 -0.0059500545 -2.3754528e-22)
(0.10539363 -0.0066083063 -1.4049668e-22)
(0.10705167 -0.0072542559 -3.3725667e-22)
(0.10816186 -0.0080737206 -5.8008815e-23)
(0.098968711 0.00096200384 3.3350974e-21)
(0.0947584 0.00051111274 -7.6657009e-25)
(0.098594451 -0.00075871165 1.4977414e-25)
(0.09705671 -5.9490045e-06 1.3642782e-21)
(0.096416507 3.1027255e-05 -7.8457552e-24)
(0.096228734 -7.6086891e-05 -3.1280412e-22)
(0.096009145 -3.1821086e-05 0)
(0.09580662 -5.2039682e-05 0)
(0.095656583 4.7946573e-05 -2.6203379e-23)
(0.095407401 -0.00016095021 0)
(0.095156729 -3.3916112e-05 -5.4232381e-23)
(0.095129663 -4.4865092e-05 1.7342991e-22)
(0.095193244 -0.00013901282 0)
(0.095281734 -0.00022499274 -3.8523616e-22)
(0.095414266 -0.00034030415 -2.0178211e-22)
(0.095625498 -0.00044605952 -1.6442439e-22)
(0.095934539 -0.00061935389 -2.1617745e-24)
(0.096329984 -0.00083693716 -1.5847786e-23)
(0.096839967 -0.0010752053 1.6500736e-22)
(0.097526716 -0.001367429 1.7796119e-22)
(0.098333438 -0.0016926504 -6.8042018e-23)
(0.099195036 -0.002029605 4.8413282e-24)
(0.10014228 -0.0024382987 -1.6177642e-22)
(0.10118632 -0.0029267279 9.3611067e-24)
(0.10237921 -0.0034392008 2.655922e-22)
(0.10366337 -0.0039250437 -2.1929589e-22)
(0.10493845 -0.0044648561 -4.7016262e-22)
(0.10617742 -0.005128616 2.2618857e-22)
(0.10747518 -0.0058265252 7.0823199e-23)
(0.10911293 -0.0065844151 -1.6851797e-22)
(0.11060815 -0.0072401416 8.0146082e-22)
(0.094917337 0.0012841134 1.4054037e-21)
(0.093528131 0.00045254935 5.3906837e-24)
(0.098275615 -0.00079436217 -1.7748954e-21)
(0.096967989 0.00012084174 -2.0201837e-21)
(0.096529399 0.00015871261 4.0193023e-22)
(0.096393116 8.9580967e-05 1.1054243e-23)
(0.096172748 0.00012851372 -1.2353038e-23)
(0.09588392 0.00012477342 -1.5879861e-22)
(0.095721684 -4.8878136e-05 6.8006784e-22)
(0.095365104 -0.00028651394 2.5474059e-22)
(0.095012741 -1.2778676e-05 -1.3054768e-22)
(0.094861143 4.5653541e-05 -1.4152755e-23)
(0.094776273 2.9977714e-06 2.0765972e-22)
(0.094745001 -8.3860309e-05 -1.9315695e-22)
(0.094772599 -0.00018430569 -1.8187405e-22)
(0.094905679 -0.00024978305 -6.2350072e-23)
(0.095112337 -0.00036295813 -8.5199243e-23)
(0.09539366 -0.00054510873 -7.1110729e-23)
(0.095808371 -0.00077865881 2.6463262e-23)
(0.09638244 -0.001029673 -1.5028534e-22)
(0.097102804 -0.0013300636 -8.0561363e-23)
(0.097950522 -0.001655428 1.4519335e-22)
(0.098960494 -0.0020297184 7.3103776e-23)
(0.10008311 -0.0024876714 -5.6273593e-25)
(0.10132268 -0.0029855972 1.2543053e-23)
(0.1027702 -0.0034699427 5.5362073e-23)
(0.10441107 -0.003941065 2.1162157e-23)
(0.10612761 -0.0044476545 -7.20885e-22)
(0.10781986 -0.0049772655 -7.8069333e-22)
(0.10948868 -0.0055837657 1.0516635e-22)
(0.11132504 -0.0063596901 1.4693037e-21)
(0.09731865 0.0010950935 -3.0430714e-21)
(0.093884991 0.00075354072 1.7400082e-24)
(0.098075309 -0.00093263181 1.1030552e-22)
(0.096781323 -0.0001195289 -6.2090161e-23)
(0.096466782 -9.674093e-05 -2.2032251e-22)
(0.096379312 -0.00014084362 4.0769929e-22)
(0.096193875 -5.0415224e-05 3.3837429e-23)
(0.096015597 -0.00012595819 9.4525199e-23)
(0.095844682 0.00013061871 -1.0733627e-22)
(0.09545629 -0.00037646854 2.8239033e-23)
(0.095046042 -0.00015976402 -1.005341e-23)
(0.094909486 -0.00018927894 -3.8336857e-22)
(0.094820083 -0.00024735965 1.723718e-23)
(0.094746212 -0.00026635714 1.4813054e-22)
(0.094713461 -0.00037592383 1.1984642e-24)
(0.094765182 -0.00041771024 9.3349188e-23)
(0.094906186 -0.000532388 9.3158851e-23)
(0.095169809 -0.0006800746 0)
(0.095557046 -0.00082999163 4.0517405e-25)
(0.096028091 -0.0010500676 3.2235847e-25)
(0.096625491 -0.0013460341 3.2816224e-23)
(0.097373099 -0.0016473095 -6.2585127e-23)
(0.098275676 -0.0019555134 -4.1706008e-23)
(0.099334529 -0.0022736194 1.2676371e-22)
(0.10051543 -0.0026607586 1.2561733e-22)
(0.10183658 -0.003130025 -1.6826245e-22)
(0.10332731 -0.0035934315 2.1076506e-22)
(0.10501552 -0.0039948637 6.0390127e-22)
(0.10685733 -0.004341163 -1.4807049e-21)
(0.10872113 -0.0046958704 -1.0903717e-21)
(0.11074477 -0.0051806832 -1.3592133e-21)
(0.099881786 0.0014713774 -2.3067432e-21)
(0.096249158 0.00021912006 2.753464e-22)
(0.099690873 -0.0010759674 -1.4349777e-21)
(0.098068016 9.6796182e-05 4.1734756e-21)
(0.097531066 7.5089952e-05 -1.0781657e-23)
(0.097212213 3.929157e-06 1.2335408e-24)
(0.096930083 2.5389051e-05 8.0792277e-25)
(0.096565337 7.0758536e-05 7.3817442e-23)
(0.096436156 -0.00021287123 -6.2874249e-22)
(0.095974746 -0.00038564235 -1.8135088e-22)
(0.095460801 6.7018695e-05 -1.6223749e-22)
(0.095285258 7.3484311e-05 -1.8578058e-24)
(0.095122403 5.5867089e-05 5.6436398e-23)
(0.095026057 -3.9785185e-05 -1.5624002e-24)
(0.094989603 -0.00010526673 1.9417802e-22)
(0.094963586 -0.00012412177 -2.3665584e-23)
(0.095106034 -0.00016891374 -2.9016735e-25)
(0.095347233 -0.00024852102 1.3988939e-24)
(0.09572462 -0.0003497346 -4.0855165e-23)
(0.09620864 -0.00047356405 -1.2577843e-22)
(0.096819066 -0.00064242185 -3.661896e-23)
(0.097581532 -0.00081353813 8.3916503e-23)
(0.098481816 -0.0010125787 -6.8975655e-23)
(0.099530185 -0.0012236716 4.4760153e-22)
(0.10069527 -0.0014894466 2.4499017e-22)
(0.10202897 -0.0017997995 -2.7527724e-22)
(0.10350283 -0.0021477839 -1.545935e-21)
(0.10512747 -0.0024657374 5.7229811e-22)
(0.1068183 -0.0027783159 -2.5452196e-22)
(0.10857101 -0.0030697744 8.0669372e-22)
(0.1102522 -0.0033902061 7.3408036e-22)
(0.1057194 0.0011975569 2.3331955e-21)
(0.098854445 0.00099994697 4.462626e-24)
(0.10189119 -0.0014389092 -1.4075817e-22)
(0.1001365 -9.2477732e-05 -8.8063718e-23)
(0.099622145 -0.00015753062 -1.4100799e-24)
(0.099216473 -0.00026356733 1.441004e-23)
(0.098754377 -0.00014273794 -8.1755939e-25)
(0.098445264 -0.00028701515 -6.4733235e-24)
(0.098137511 0.00031466469 7.9358976e-25)
(0.097459713 -0.00086744355 -2.0846217e-23)
(0.096891505 -0.00026721274 6.5962126e-24)
(0.096755863 -0.00031772601 4.8855263e-22)
(0.096598924 -0.00029792855 -7.9983402e-23)
(0.096461264 -0.0002029731 4.0725041e-24)
(0.096328126 -0.00037625433 1.9566414e-23)
(0.096258259 -0.00033545845 7.2098347e-24)
(0.096377744 -0.00038037767 4.25132e-24)
(0.096601874 -0.0004090787 1.5258713e-23)
(0.096962639 -0.00043129868 1.2031945e-22)
(0.097442922 -0.00048286653 5.4506998e-23)
(0.098034795 -0.00059644779 -5.0063794e-23)
(0.09874968 -0.00070708829 -1.8842718e-25)
(0.099595435 -0.00084575962 -1.4520331e-22)
(0.10056981 -0.0009853385 1.3743188e-23)
(0.10167515 -0.0011605128 2.0632117e-22)
(0.10294376 -0.0013687646 7.5677667e-22)
(0.10433349 -0.0016412327 -2.4491684e-22)
(0.1058297 -0.0018893587 -8.5618999e-22)
(0.10737327 -0.0021516648 -3.9047635e-22)
(0.1091639 -0.0023955033 -1.0880881e-21)
(0.11065571 -0.0027603404 1.1858028e-21)
(0.10887495 0.0013562399 1.5470125e-21)
(0.097366957 -0.0003521507 -9.3642725e-22)
(0.10122696 -0.0011232553 1.2971563e-21)
(0.10008055 0.00015991675 -1.8886435e-21)
(0.099899883 -4.830722e-05 -2.3675008e-21)
(0.10020778 -5.4936026e-06 2.3976924e-22)
(0.10008118 3.2900525e-05 -7.5889392e-22)
(0.10010956 9.1765417e-05 1.5775311e-24)
(0.10036427 -0.00043326665 -6.5982015e-22)
(0.10010971 -0.00031505161 -1.3448106e-22)
(0.09966322 0.00014592512 -8.3383689e-23)
(0.099796586 3.8987716e-05 1.0435931e-23)
(0.099888827 5.5091459e-05 -3.8021268e-22)
(0.10004432 -0.00010439672 8.5135307e-22)
(0.10012224 -9.400328e-05 -1.148441e-23)
(0.10018875 1.5128887e-05 7.7224767e-23)
(0.1004795 4.0026052e-06 -8.410673e-25)
(0.10079315 -9.2571052e-06 6.3901382e-23)
(0.10122384 -4.6864105e-05 4.4862103e-25)
(0.10176068 -8.3690314e-05 6.8054576e-23)
(0.10235018 -0.00012078178 -1.6589958e-23)
(0.10304932 -0.00015677509 -4.5113116e-24)
(0.10384559 -0.00020032652 -6.1247708e-23)
(0.10474489 -0.00023991985 -3.5585225e-22)
(0.10576954 -0.0002916259 1.1426858e-22)
(0.10690905 -0.00037135708 -2.6958219e-22)
(0.10820776 -0.00051172426 2.6184601e-22)
(0.10965999 -0.00067178417 0)
(0.11115488 -0.00080447692 -1.8249952e-22)
(0.11274383 -0.00098275381 -6.718499e-22)
(0.11415853 -0.0010252165 -2.5206787e-22)
(0.10134985 0.00053350697 -4.3700322e-21)
(0.075709098 0.00029180537 0)
(0.10350215 -0.0019200151 4.5185423e-23)
(0.11103061 1.3738714e-05 -2.435424e-22)
(0.09947891 -0.00020061187 -3.9038435e-22)
(0.11423557 -0.00021312942 1.4129122e-23)
(0.10172944 -8.2766558e-05 -9.1789134e-22)
(0.11518875 -0.00027826588 -5.7032878e-23)
(0.10300306 0.000695385 -1.2730243e-21)
(0.11414551 -0.0015411091 1.4834774e-21)
(0.11324547 -6.6426354e-05 -2.1748601e-23)
(0.11283474 -0.00032534287 -6.6397468e-23)
(0.11520701 -0.00015344723 9.3998929e-23)
(0.11315142 2.782235e-05 9.3481432e-22)
(0.11588127 -0.00038899055 -9.1149703e-23)
(0.1155003 -0.00010899936 7.4161361e-25)
(0.11631891 -0.00013677361 1.2004791e-22)
(0.11621993 -9.461118e-05 -7.2505486e-23)
(0.11655077 -6.2910438e-05 -1.3567331e-22)
(0.1165895 -8.3346546e-05 7.2659067e-24)
(0.1171412 -0.00016441755 -3.1855431e-22)
(0.1175417 -0.00017627748 4.9288603e-23)
(0.1182097 -0.00025793811 1.0679785e-22)