/*--------------------------------*- C++ -*----------------------------------*\
| =========                 |                                                 |
| \\      /  F ield         | OpenFOAM: The Open Source CFD Toolbox           |
|  \\    /   O peration     | Version:  2406                                  |
|   \\  /    A nd           | Website:  www.openfoam.com                      |
|    \\/     M anipulation  |                                                 |
\*---------------------------------------------------------------------------*/
FoamFile
{
    version     2.0;
    format      ascii;
    arch        "LSB;label=32;scalar=64";
    class       volScalarField;
    location    "4";
    object      nut;
}
// * * * * * * * * * * * * * * * * * * * * * * * * * * * * * * * * * * * * * //

dimensions      [0 2 -1 0 0 0 0];

internalField   nonuniform List<scalar> 
158064
(
9.5492069e-07
9.545852e-07
9.6887391e-07
9.9637798e-07
1.0351865e-06
1.0809405e-06
1.124541e-06
1.1622729e-06
1.193323e-06
1.2154081e-06
1.2324827e-06
1.2432742e-06
1.2499118e-06
1.2533214e-06
1.2563805e-06
1.2588602e-06
1.261813e-06
1.2642485e-06
1.2661084e-06
1.267744e-06
1.2704183e-06
1.2730956e-06
1.2751117e-06
1.2764311e-06
1.2781684e-06
1.2801407e-06
1.2824735e-06
1.2860602e-06
1.2904864e-06
1.2950746e-06
1.2993548e-06
1.3039184e-06
1.3112448e-06
1.3186065e-06
1.3278812e-06
1.3379568e-06
1.3498945e-06
1.3623124e-06
1.3763439e-06
1.3903342e-06
1.4047805e-06
1.418036e-06
1.4298575e-06
1.4328834e-06
1.4246681e-06
1.4088597e-06
1.4145801e-06
1.3713098e-06
1.3072009e-06
1.3111464e-06
1.3118869e-06
1.3062973e-06
1.3409827e-06
1.2914088e-06
1.2298871e-06
1.1820283e-06
1.1470468e-06
1.1209985e-06
1.1032352e-06
1.0923539e-06
1.0847053e-06
1.0780171e-06
1.0704114e-06
1.0619165e-06
1.0534487e-06
1.0454668e-06
1.0381741e-06
1.0316637e-06
1.026263e-06
1.0216475e-06
1.0176372e-06
1.0140913e-06
1.0108833e-06
1.0079975e-06
1.0054681e-06
1.0032506e-06
1.0012619e-06
9.9956833e-07
9.9813289e-07
9.9702601e-07
9.9627415e-07
9.9595667e-07
9.9608994e-07
9.9709121e-07
9.998165e-07
1.0053955e-06
1.0128861e-06
1.025117e-06
1.0820283e-06
9.6039677e-07
9.5294717e-07
9.6059555e-07
9.8253485e-07
1.014381e-06
1.0503029e-06
1.0846608e-06
1.1139889e-06
1.1372422e-06
1.152258e-06
1.1617633e-06
1.1651945e-06
1.166306e-06
1.1633905e-06
1.1592807e-06
1.1540156e-06
1.1494905e-06
1.1437767e-06
1.1406521e-06
1.1335887e-06
1.1279461e-06
1.1217065e-06
1.1174793e-06
1.1127601e-06
1.1087656e-06
1.1040844e-06
1.1003692e-06
1.0955033e-06
1.0933061e-06
1.0906602e-06
1.0900773e-06
1.0867705e-06
1.0845466e-06
1.0825933e-06
1.0820338e-06
1.0814215e-06
1.0817796e-06
1.082139e-06
1.08336e-06
1.0843869e-06
1.0858025e-06
1.0867195e-06
1.0876463e-06
1.0875142e-06
1.0876222e-06
1.0877019e-06
1.0847168e-06
1.0848833e-06
1.0922735e-06
1.1060837e-06
1.1286628e-06
1.1624929e-06
1.198517e-06
1.1963034e-06
1.1882983e-06
1.1660033e-06
1.1403511e-06
1.1176805e-06
1.0994881e-06
1.0854291e-06
1.0745362e-06
1.065766e-06
1.0583173e-06
1.0516495e-06
1.0454724e-06
1.0397044e-06
1.0343438e-06
1.0294376e-06
1.0248024e-06
1.0208609e-06
1.0176022e-06
1.0146781e-06
1.0120718e-06
1.0097801e-06
1.0078046e-06
1.0061266e-06
1.0047773e-06
1.0036909e-06
1.0028461e-06
1.002226e-06
1.0018961e-06
1.0018874e-06
1.002288e-06
1.0032379e-06
1.005175e-06
1.008887e-06
1.0129106e-06
1.0210245e-06
1.0564501e-06
9.6091227e-07
9.5332454e-07
9.6076685e-07
9.8155114e-07
1.0120712e-06
1.0463683e-06
1.0795427e-06
1.1079808e-06
1.1302288e-06
1.145637e-06
1.1546681e-06
1.1588456e-06
1.1591624e-06
1.1571679e-06
1.1531982e-06
1.1482292e-06
1.1430337e-06
1.1376172e-06
1.131901e-06
1.1269465e-06
1.1212384e-06
1.1158547e-06
1.1106865e-06
1.1058259e-06
1.1012034e-06
1.0967907e-06
1.0926623e-06
1.0887984e-06
1.0852131e-06
1.0819728e-06
1.078943e-06
1.0764574e-06
1.0735768e-06
1.071046e-06
1.0689008e-06
1.0672537e-06
1.0658558e-06
1.0647475e-06
1.0639707e-06
1.0635199e-06
1.0633515e-06
1.0634437e-06
1.0636352e-06
1.0637858e-06
1.0645167e-06
1.0671931e-06
1.0739668e-06
1.0887557e-06
1.106518e-06
1.1136454e-06
1.1162295e-06
1.1247545e-06
1.1218103e-06
1.1134997e-06
1.1060338e-06
1.1003655e-06
1.0942687e-06
1.0876503e-06
1.0814151e-06
1.0756902e-06
1.0704617e-06
1.0655528e-06
1.0607964e-06
1.0560938e-06
1.0514158e-06
1.0467914e-06
1.0422847e-06
1.0379746e-06
1.0338969e-06
1.0301593e-06
1.0268226e-06
1.0238521e-06
1.0212247e-06
1.0189227e-06
1.0169302e-06
1.0152349e-06
1.013818e-06
1.0126769e-06
1.0117689e-06
1.0110954e-06
1.010635e-06
1.0104403e-06
1.0105251e-06
1.0109935e-06
1.0119806e-06
1.0139885e-06
1.0151364e-06
1.023708e-06
1.0415896e-06
9.6177589e-07
9.5305673e-07
9.6017016e-07
9.8083203e-07
1.0112433e-06
1.0453139e-06
1.0781751e-06
1.1062842e-06
1.1280744e-06
1.1432057e-06
1.1523876e-06
1.156759e-06
1.15735e-06
1.155364e-06
1.1516635e-06
1.1469487e-06
1.1419372e-06
1.1365678e-06
1.1310225e-06
1.1254667e-06
1.1203715e-06
1.1153502e-06
1.1104579e-06
1.105663e-06
1.1010093e-06
1.0965454e-06
1.0925259e-06
1.0886603e-06
1.0852779e-06
1.0819677e-06
1.0787842e-06
1.0756906e-06
1.0728812e-06
1.0703374e-06
1.0681084e-06
1.066158e-06
1.0645028e-06
1.0630109e-06
1.0618648e-06
1.0609247e-06
1.0602843e-06
1.0598284e-06
1.0596545e-06
1.0597166e-06
1.0602214e-06
1.0614438e-06
1.0641366e-06
1.0681338e-06
1.0736018e-06
1.0786833e-06
1.0836358e-06
1.0894516e-06
1.0842514e-06
1.0767039e-06
1.0699962e-06
1.0658182e-06
1.0625745e-06
1.0597797e-06
1.0574607e-06
1.0555365e-06
1.0538281e-06
1.0521216e-06
1.0502427e-06
1.048091e-06
1.0456385e-06
1.0429176e-06
1.0400018e-06
1.0369846e-06
1.0339543e-06
1.0310011e-06
1.0282001e-06
1.0255948e-06
1.0232095e-06
1.0210555e-06
1.0191376e-06
1.0174487e-06
1.0159935e-06
1.0147526e-06
1.0137252e-06
1.0128786e-06
1.0122298e-06
1.0117591e-06
1.011501e-06
1.0114615e-06
1.011705e-06
1.0124936e-06
1.0121317e-06
1.0189044e-06
1.0339666e-06
9.6196578e-07
9.5362454e-07
9.608178e-07
9.8122209e-07
1.0114956e-06
1.045239e-06
1.0778825e-06
1.1058179e-06
1.127438e-06
1.1424921e-06
1.1515802e-06
1.1559604e-06
1.1565626e-06
1.1546132e-06
1.1509514e-06
1.1462831e-06
1.1413318e-06
1.136007e-06
1.1304695e-06
1.1249432e-06
1.1198452e-06
1.1148858e-06
1.1100413e-06
1.1053098e-06
1.1006662e-06
1.0962461e-06
1.0922135e-06
1.088392e-06
1.0849676e-06
1.0816608e-06
1.0784404e-06
1.0753633e-06
1.0725107e-06
1.0699446e-06
1.0676649e-06
1.0656877e-06
1.0639902e-06
1.0624728e-06
1.0612904e-06
1.0603282e-06
1.0596591e-06
1.0591627e-06
1.0589466e-06
1.0589335e-06
1.0592852e-06
1.0602174e-06
1.0621007e-06
1.0649865e-06
1.0682438e-06
1.0700173e-06
1.0711152e-06
1.0739428e-06
1.0681665e-06
1.0612877e-06
1.055411e-06
1.0514755e-06
1.0485051e-06
1.0461605e-06
1.0444087e-06
1.0431305e-06
1.0421338e-06
1.0412117e-06
1.0401887e-06
1.0389475e-06
1.0374325e-06
1.0356425e-06
1.0336169e-06
1.0314188e-06
1.0291204e-06
1.0267941e-06
1.0245051e-06
1.0223054e-06
1.0202326e-06
1.0183126e-06
1.0165581e-06
1.0149806e-06
1.0135751e-06
1.0123497e-06
1.0112869e-06
1.0103926e-06
1.0096434e-06
1.0090474e-06
1.008591e-06
1.0082819e-06
1.0081073e-06
1.0082442e-06
1.0072523e-06
1.0123711e-06
1.0255743e-06
9.6231385e-07
9.5331223e-07
9.6026225e-07
9.8064385e-07
1.0108703e-06
1.0445938e-06
1.0771588e-06
1.1049775e-06
1.1264312e-06
1.1414235e-06
1.1504408e-06
1.1548518e-06
1.1554179e-06
1.1535574e-06
1.1499239e-06
1.1453313e-06
1.1403797e-06
1.135157e-06
1.129694e-06
1.1243856e-06
1.1193874e-06
1.1145175e-06
1.1096645e-06
1.1049752e-06
1.1003547e-06
1.0959955e-06
1.0919946e-06
1.0882007e-06
1.0847433e-06
1.0814283e-06
1.0781868e-06
1.0751363e-06
1.0722798e-06
1.069712e-06
1.0674105e-06
1.0654218e-06
1.0637084e-06
1.0621881e-06
1.0609947e-06
1.0600283e-06
1.0593423e-06
1.0588264e-06
1.058564e-06
1.0584622e-06
1.0586226e-06
1.0591637e-06
1.0603304e-06
1.0622295e-06
1.0643829e-06
1.064882e-06
1.0645237e-06
1.0663386e-06
1.0608478e-06
1.0545146e-06
1.0489315e-06
1.0448945e-06
1.0417151e-06
1.0391892e-06
1.0373081e-06
1.0359504e-06
1.0349347e-06
1.0340679e-06
1.0331859e-06
1.0321733e-06
1.0309661e-06
1.0295458e-06
1.0279287e-06
1.026154e-06
1.0242722e-06
1.022337e-06
1.0203995e-06
1.0185039e-06
1.0166858e-06
1.0149712e-06
1.0133798e-06
1.0119167e-06
1.0105955e-06
1.0094079e-06
1.0083614e-06
1.0074433e-06
1.0066537e-06
1.0059829e-06
1.0054184e-06
1.0049587e-06
1.0045668e-06
1.0043728e-06
1.0032008e-06
1.0071025e-06
1.0181474e-06
9.6242513e-07
9.5386431e-07
9.6092267e-07
9.8112231e-07
1.011215e-06
1.0446709e-06
1.0770131e-06
1.1046525e-06
1.1259425e-06
1.1408056e-06
1.1497307e-06
1.1540999e-06
1.1546794e-06
1.1528323e-06
1.1492389e-06
1.1446955e-06
1.1398484e-06
1.1346726e-06
1.1292568e-06
1.1239588e-06
1.1189805e-06
1.1141704e-06
1.1093926e-06
1.1047787e-06
1.1002049e-06
1.0958914e-06
1.0919078e-06
1.0881526e-06
1.0847002e-06
1.0813999e-06
1.0781603e-06
1.0751086e-06
1.0722327e-06
1.0696516e-06
1.0673286e-06
1.0653267e-06
1.063601e-06
1.0620819e-06
1.0608891e-06
1.0599324e-06
1.0592559e-06
1.0587339e-06
1.0584462e-06
1.0582667e-06
1.0582518e-06
1.0584266e-06
1.0589434e-06
1.0599461e-06
1.0612262e-06
1.0610711e-06
1.0599652e-06
1.0615184e-06
1.0571114e-06
1.051289e-06
1.0458954e-06
1.0416591e-06
1.0381599e-06
1.0353107e-06
1.0331305e-06
1.0315116e-06
1.0302802e-06
1.0292534e-06
1.0282763e-06
1.0272391e-06
1.0260761e-06
1.0247621e-06
1.0233014e-06
1.0217189e-06
1.0200504e-06
1.018336e-06
1.0166147e-06
1.0149217e-06
1.0132859e-06
1.0117308e-06
1.0102703e-06
1.0089194e-06
1.0076748e-06
1.0065482e-06
1.0055299e-06
1.0046236e-06
1.0038208e-06
1.0031111e-06
1.002494e-06
1.0019409e-06
1.0014421e-06
1.0010719e-06
9.9990291e-07
1.0029081e-06
1.0121817e-06
9.6251128e-07
9.5354652e-07
9.6043862e-07
9.8066859e-07
1.0107283e-06
1.0441897e-06
1.0764583e-06
1.1039389e-06
1.1250564e-06
1.1397886e-06
1.1486396e-06
1.1529916e-06
1.1535267e-06
1.1517276e-06
1.1481646e-06
1.1436918e-06
1.1388403e-06
1.1337646e-06
1.1284421e-06
1.1233454e-06
1.1184705e-06
1.1137406e-06
1.1089828e-06
1.104413e-06
1.0998791e-06
1.0956239e-06
1.091679e-06
1.0879484e-06
1.0844811e-06
1.0811733e-06
1.0779211e-06
1.0748807e-06
1.0720063e-06
1.0694222e-06
1.0670882e-06
1.0650783e-06
1.0633485e-06
1.061832e-06
1.0606373e-06
1.0596784e-06
1.0589939e-06
1.0584565e-06
1.0581333e-06
1.0578743e-06
1.0576666e-06
1.0575123e-06
1.0574608e-06
1.0576924e-06
1.0582364e-06
1.0576984e-06
1.0562704e-06
1.0572206e-06
1.0545139e-06
1.0492601e-06
1.0440111e-06
1.0397096e-06
1.0359867e-06
1.0328751e-06
1.0304231e-06
1.028541e-06
1.0270717e-06
1.0258434e-06
1.0247105e-06
1.0235679e-06
1.0223512e-06
1.0210318e-06
1.0196081e-06
1.018097e-06
1.0165255e-06
1.0149248e-06
1.0133258e-06
1.0117564e-06
1.0102403e-06
1.0087956e-06
1.0074369e-06
1.0061671e-06
1.0049989e-06
1.0039231e-06
1.0029478e-06
1.0020624e-06
1.0012653e-06
1.0005484e-06
9.9989711e-07
9.993075e-07
9.987409e-07
9.9829742e-07
9.9717795e-07
9.995303e-07
1.007377e-06
9.6264189e-07
9.5409851e-07
9.6112508e-07
9.8121106e-07
1.0111502e-06
1.0443593e-06
1.0763861e-06
1.1036684e-06
1.1245964e-06
1.1391615e-06
1.1478973e-06
1.1521804e-06
1.1527196e-06
1.150921e-06
1.147395e-06
1.1429696e-06
1.1382421e-06
1.1332108e-06
1.1279435e-06
1.1228495e-06
1.1180034e-06
1.113336e-06
1.1086592e-06
1.1041663e-06
1.0996905e-06
1.095484e-06
1.0915714e-06
1.0878801e-06
1.0844355e-06
1.0811415e-06
1.0779034e-06
1.0748566e-06
1.0719715e-06
1.0693731e-06
1.0670267e-06
1.0650027e-06
1.0632632e-06
1.0617525e-06
1.0605616e-06
1.059614e-06
1.0589367e-06
1.0583978e-06
1.0580482e-06
1.0577178e-06
1.0573362e-06
1.0568767e-06
1.0563242e-06
1.0558941e-06
1.0557707e-06
1.0548967e-06
1.0532838e-06
1.0534889e-06
1.0524484e-06
1.0477266e-06
1.0426986e-06
1.038429e-06
1.0345749e-06
1.0312574e-06
1.0285803e-06
1.0264715e-06
1.0247843e-06
1.0233622e-06
1.0220678e-06
1.0208014e-06
1.0194993e-06
1.0181317e-06
1.016693e-06
1.0151951e-06
1.0136591e-06
1.0121107e-06
1.0105754e-06
1.0090765e-06
1.0076331e-06
1.0062608e-06
1.0049679e-06
1.0037649e-06
1.0026456e-06
1.0016202e-06
1.0006771e-06
9.9981969e-07
9.9903725e-07
9.9832161e-07
9.9766545e-07
9.9705137e-07
9.9646835e-07
9.959799e-07
9.9495025e-07
9.9678346e-07
1.0035091e-06
9.6255868e-07
9.5379976e-07
9.607343e-07
9.8089683e-07
1.0108149e-06
1.044038e-06
1.0759836e-06
1.1030628e-06
1.123803e-06
1.1381773e-06
1.1468306e-06
1.1510585e-06
1.1515351e-06
1.1497582e-06
1.1462584e-06
1.141904e-06
1.1371638e-06
1.1322344e-06
1.1270706e-06
1.122173e-06
1.1174313e-06
1.1128409e-06
1.1082025e-06
1.1037592e-06
1.0993355e-06
1.09519e-06
1.0913234e-06
1.0876573e-06
1.0842084e-06
1.0809071e-06
1.0776631e-06
1.0746192e-06
1.0717404e-06
1.0691392e-06
1.0667875e-06
1.064762e-06
1.0630249e-06
1.0615212e-06
1.0603288e-06
1.0593768e-06
1.058685e-06
1.0581275e-06
1.0577347e-06
1.0573253e-06
1.0567789e-06
1.0560767e-06
1.0550894e-06
1.0541379e-06
1.0534614e-06
1.0522541e-06
1.0504838e-06
1.0503622e-06
1.0505443e-06
1.0463254e-06
1.0415663e-06
1.0373473e-06
1.0334443e-06
1.0300151e-06
1.027187e-06
1.0249103e-06
1.0230539e-06
1.0214729e-06
1.0200402e-06
1.018661e-06
1.0172745e-06
1.0158498e-06
1.0143794e-06
1.0128715e-06
1.0113436e-06
1.0098171e-06
1.0083142e-06
1.0068545e-06
1.0054547e-06
1.0041271e-06
1.0028812e-06
1.0017164e-06
1.0006419e-06
9.9964624e-07
9.9873626e-07
9.9789952e-07
9.9713339e-07
9.9642894e-07
9.9577313e-07
9.9515934e-07
9.9456667e-07
9.9407321e-07
9.9311969e-07
9.9455462e-07
1.0003587e-06
9.6273417e-07
9.543333e-07
9.6143796e-07
9.8149068e-07
1.011321e-06
1.0442976e-06
1.0759841e-06
1.1028445e-06
1.1233577e-06
1.1375376e-06
1.1460384e-06
1.1501815e-06
1.1506456e-06
1.1488638e-06
1.1453954e-06
1.141086e-06
1.1364838e-06
1.1316015e-06
1.1264961e-06
1.1216037e-06
1.1169029e-06
1.1123806e-06
1.1078254e-06
1.10346e-06
1.0991009e-06
1.0950084e-06
1.091185e-06
1.0875614e-06
1.0841471e-06
1.0808644e-06
1.0776422e-06
1.0745956e-06
1.0717105e-06
1.0690968e-06
1.0667378e-06
1.0647027e-06
1.062958e-06
1.0614602e-06
1.0602697e-06
1.0593227e-06
1.0586304e-06
1.0580629e-06
1.0576355e-06
1.0571522e-06
1.0564565e-06
1.0555273e-06
1.0541753e-06
1.0527895e-06
1.0516698e-06
1.0501315e-06
1.0481362e-06
1.0478336e-06
1.0489469e-06
1.045146e-06
1.0406296e-06
1.0364906e-06
1.03257e-06
1.029071e-06
1.0261347e-06
1.0237296e-06
1.0217367e-06
1.0200245e-06
1.0184729e-06
1.0169942e-06
1.0155291e-06
1.0140476e-06
1.0125401e-06
1.0110125e-06
1.0094791e-06
1.0079589e-06
1.0064707e-06
1.0050322e-06
1.0036576e-06
1.0023584e-06
1.0011394e-06
1.0000078e-06
9.9895503e-07
9.979894e-07
9.9709736e-07
9.9628142e-07
9.9553038e-07
9.9483517e-07
9.94189e-07
9.935786e-07
9.929949e-07
9.9249792e-07
9.9162528e-07
9.9272493e-07
9.9779179e-07
9.6253504e-07
9.5404408e-07
9.6113237e-07
9.8131691e-07
1.0111451e-06
1.0441404e-06
1.0757321e-06
1.102345e-06
1.1226391e-06
1.1365747e-06
1.1449733e-06
1.1490326e-06
1.1494094e-06
1.1476329e-06
1.1441823e-06
1.1399466e-06
1.1353224e-06
1.1305492e-06
1.1255527e-06
1.1208585e-06
1.1162679e-06
1.1118206e-06
1.1073184e-06
1.103006e-06
1.0987102e-06
1.0946811e-06
1.0909117e-06
1.0873143e-06
1.083905e-06
1.080617e-06
1.0773945e-06
1.0743505e-06
1.0714751e-06
1.0688599e-06
1.0664981e-06
1.0644674e-06
1.0627332e-06
1.0612425e-06
1.0600506e-06
1.0590922e-06
1.0583787e-06
1.0577815e-06
1.0573028e-06
1.0567389e-06
1.055911e-06
1.0547943e-06
1.0531655e-06
1.051448e-06
1.0499875e-06
1.0481758e-06
1.0459671e-06
1.0455901e-06
1.0475121e-06
1.0440184e-06
1.0397384e-06
1.035701e-06
1.0318023e-06
1.0282709e-06
1.025268e-06
1.022773e-06
1.0206798e-06
1.0188655e-06
1.0172196e-06
1.0156589e-06
1.0141278e-06
1.0125963e-06
1.0110544e-06
1.009506e-06
1.0079633e-06
1.0064427e-06
1.0049613e-06
1.0035347e-06
1.0021758e-06
1.0008941e-06
9.996965e-07
9.9858031e-07
9.9755254e-07
9.9660038e-07
9.9572937e-07
9.9492575e-07
9.9418691e-07
9.9350455e-07
9.9286584e-07
9.9226597e-07
9.9169175e-07
9.91202e-07
9.9039502e-07
9.9092824e-07
9.9550078e-07
9.6274987e-07
9.5457156e-07
9.6187456e-07
9.8198664e-07
1.0117598e-06
1.0445047e-06
1.0758136e-06
1.1021785e-06
1.1222032e-06
1.1359148e-06
1.1441228e-06
1.1480832e-06
1.1484294e-06
1.1466454e-06
1.143223e-06
1.1390313e-06
1.1345552e-06
1.1298321e-06
1.1248961e-06
1.1202126e-06
1.1156728e-06
1.1113005e-06
1.1068832e-06
1.1026523e-06
1.0984258e-06
1.0944566e-06
1.0907384e-06
1.0871894e-06
1.083823e-06
1.0805604e-06
1.0773663e-06
1.0743232e-06
1.0714484e-06
1.0688257e-06
1.0664599e-06
1.0644265e-06
1.0626861e-06
1.0612013e-06
1.0600053e-06
1.0590457e-06
1.0583187e-06
1.0577032e-06
1.0571772e-06
1.0565407e-06
1.0555978e-06
1.0543084e-06
1.0524519e-06
1.0504665e-06
1.0487314e-06
1.0466612e-06
1.0442594e-06
1.0438107e-06
1.04617e-06
1.0430008e-06
1.0389548e-06
1.0350373e-06
1.0311779e-06
1.0276366e-06
1.0245881e-06
1.0220257e-06
1.0198509e-06
1.017953e-06
1.016227e-06
1.0145965e-06
1.0130071e-06
1.0114309e-06
1.0098563e-06
1.0082866e-06
1.0067317e-06
1.0052068e-06
1.0037266e-06
1.0023057e-06
1.0009556e-06
9.9968542e-07
9.9849859e-07
9.9740017e-07
9.9638051e-07
9.9544661e-07
9.9458386e-07
9.9379457e-07
9.9306655e-07
9.9239159e-07
9.9176425e-07
9.9117318e-07
9.9061185e-07
9.9012928e-07
9.8938123e-07
9.8987438e-07
9.9376465e-07
9.6247125e-07
9.5432707e-07
9.6170405e-07
9.8199284e-07
1.0117821e-06
1.0445373e-06
1.0757234e-06
1.1017912e-06
1.121557e-06
1.1349714e-06
1.1430534e-06
1.1469063e-06
1.1471391e-06
1.1453478e-06
1.1419324e-06
1.1378193e-06
1.1333161e-06
1.1287093e-06
1.1238837e-06
1.1194012e-06
1.1149754e-06
1.1106767e-06
1.1063246e-06
1.102151e-06
1.0979981e-06
1.094097e-06
1.0904398e-06
1.0869198e-06
1.0835654e-06
1.0803003e-06
1.0771111e-06
1.0740733e-06
1.0712091e-06
1.0685844e-06
1.066218e-06
1.0641959e-06
1.0624702e-06
1.0609957e-06
1.0597968e-06
1.0588218e-06
1.0580643e-06
1.0574088e-06
1.0568229e-06
1.0561084e-06
1.0550725e-06
1.0536465e-06
1.0516339e-06
1.0494619e-06
1.0475191e-06
1.0453064e-06
1.04273e-06
1.0422768e-06
1.0448741e-06
1.0419932e-06
1.0381789e-06
1.0343878e-06
1.0305875e-06
1.0270579e-06
1.0239893e-06
1.0213839e-06
1.0191533e-06
1.0171929e-06
1.0154062e-06
1.0137202e-06
1.0120845e-06
1.0104713e-06
1.0088696e-06
1.0072813e-06
1.0057153e-06
1.0041851e-06
1.0027046e-06
1.0012867e-06
9.9994237e-07
9.9867937e-07
9.9750313e-07
9.9641032e-07
9.9540636e-07
9.9447764e-07
9.9362961e-07
9.9284709e-07
9.9212812e-07
9.9146424e-07
9.9084368e-07
9.9026318e-07
9.8971296e-07
9.8923861e-07
9.8853985e-07
9.8897065e-07
9.9229469e-07
9.6273172e-07
9.5485601e-07
9.6248739e-07
9.8274684e-07
1.0125215e-06
1.0450276e-06
1.0759064e-06
1.101689e-06
1.1211361e-06
1.1342926e-06
1.1421434e-06
1.1458797e-06
1.1460616e-06
1.1442608e-06
1.1408701e-06
1.1368004e-06
1.1324504e-06
1.1278991e-06
1.1231384e-06
1.1186753e-06
1.1143148e-06
1.1100954e-06
1.1058333e-06
1.1017406e-06
1.0976644e-06
1.0938252e-06
1.0902291e-06
1.0867599e-06
1.0834592e-06
1.0802235e-06
1.0770712e-06
1.0740351e-06
1.0711815e-06
1.0685538e-06
1.0661876e-06
1.064168e-06
1.0624408e-06
1.0609685e-06
1.0597634e-06
1.0587787e-06
1.0579978e-06
1.0573132e-06
1.0566727e-06
1.0558882e-06
1.0547752e-06
1.0532193e-06
1.0510902e-06
1.048771e-06
1.0466562e-06
1.0442993e-06
1.0415532e-06
1.0409406e-06
1.043651e-06
1.0410505e-06
1.0374751e-06
1.0338115e-06
1.03008e-06
1.0265785e-06
1.023505e-06
1.0208712e-06
1.0185953e-06
1.0165847e-06
1.0147464e-06
1.0130139e-06
1.0113375e-06
1.0096923e-06
1.0080657e-06
1.00646e-06
1.0048825e-06
1.003346e-06
1.0018626e-06
1.0004452e-06
9.9910307e-07
9.9784447e-07
9.96672e-07
9.955896e-07
9.9458722e-07
9.9367111e-07
9.9282614e-07
9.9205471e-07
9.9134368e-07
9.9068535e-07
9.9007488e-07
9.8950241e-07
9.8896234e-07
9.884942e-07
9.8784079e-07
9.8813597e-07
9.9099073e-07
9.6241192e-07
9.5465415e-07
9.6243762e-07
9.8292626e-07
1.0127433e-06
1.045256e-06
1.0759811e-06
1.101415e-06
1.1205549e-06
1.1333636e-06
1.1410572e-06
1.1446631e-06
1.1447095e-06
1.1428907e-06
1.139497e-06
1.1355098e-06
1.1311318e-06
1.1267046e-06
1.1220555e-06
1.1177975e-06
1.113557e-06
1.109411e-06
1.1052246e-06
1.1011924e-06
1.0971991e-06
1.0934315e-06
1.0899034e-06
1.0864666e-06
1.0831855e-06
1.0799519e-06
1.0768097e-06
1.0737853e-06
1.0709429e-06
1.0683131e-06
1.0659487e-06
1.0639469e-06
1.0622395e-06
1.060779e-06
1.0595694e-06
1.0585646e-06
1.0577488e-06
1.0570134e-06
1.0563061e-06
1.0554441e-06
1.0542749e-06
1.0526207e-06
1.0504427e-06
1.0480428e-06
1.0458019e-06
1.0432939e-06
1.0404169e-06
1.0395646e-06
1.0423024e-06
1.0400386e-06
1.0366954e-06
1.0331703e-06
1.0295323e-06
1.0260854e-06
1.0230335e-06
1.0203951e-06
1.018098e-06
1.0160549e-06
1.0141814e-06
1.0124142e-06
1.0107077e-06
1.0090372e-06
1.0073914e-06
1.0057716e-06
1.0041848e-06
1.0026426e-06
1.001157e-06
9.9973922e-07
9.9839879e-07
9.9714272e-07
9.9597561e-07
9.9489429e-07
9.9390271e-07
9.9298765e-07
9.921541e-07
9.9138628e-07
9.9068256e-07
9.9003409e-07
9.8942934e-07
9.8886539e-07
9.8833432e-07
9.878697e-07
9.8725594e-07
9.8740456e-07
9.8988865e-07
9.6271734e-07
9.5518925e-07
9.632684e-07
9.8377926e-07
1.0136249e-06
1.0458882e-06
1.0762757e-06
1.1013795e-06
1.1201488e-06
1.1326612e-06
1.140087e-06
1.1435602e-06
1.1435355e-06
1.1417071e-06
1.1383354e-06
1.1343938e-06
1.1301701e-06
1.125804e-06
1.1212246e-06
1.1169951e-06
1.1128345e-06
1.1087696e-06
1.104681e-06
1.1007278e-06
1.0968217e-06
1.0931165e-06
1.0896604e-06
1.0862753e-06
1.0830596e-06
1.0798566e-06
1.0767619e-06
1.0737402e-06
1.0709195e-06
1.0682902e-06
1.0659303e-06
1.0639365e-06
1.0622337e-06
1.0607724e-06
1.0595562e-06
1.0585351e-06
1.0576905e-06
1.0569158e-06
1.0561483e-06
1.0552148e-06
1.053975e-06
1.0522691e-06
1.0500889e-06
1.0476157e-06
1.0452592e-06
1.0425977e-06
1.0395868e-06
1.0384022e-06
1.0411829e-06
1.0392324e-06
1.036069e-06
1.0326354e-06
1.0290733e-06
1.0256768e-06
1.0226482e-06
1.0200101e-06
1.0176949e-06
1.0156268e-06
1.0137231e-06
1.0119275e-06
1.0101941e-06
1.0085022e-06
1.0068387e-06
1.0052064e-06
1.0036104e-06
1.0020628e-06
1.0005733e-06
9.9915411e-07
9.9781293e-07
9.9655782e-07
9.9539093e-07
9.9431576e-07
9.9332248e-07
9.9241661e-07
9.9158316e-07
9.9082481e-07
9.9012726e-07
9.8948333e-07
9.8888788e-07
9.8833098e-07
9.8780707e-07
9.87345e-07
9.8676755e-07
9.8677861e-07
9.8897415e-07
9.6239055e-07
9.5504591e-07
9.6337457e-07
9.8417894e-07
1.0141002e-06
1.0463493e-06
1.0765337e-06
1.1012293e-06
1.1196354e-06
1.1317503e-06
1.1389827e-06
1.1423064e-06
1.1421262e-06
1.1402752e-06
1.1368902e-06
1.1330376e-06
1.1287883e-06
1.1245534e-06
1.1200852e-06
1.1160622e-06
1.1120293e-06
1.1080334e-06
1.1040343e-06
1.1001409e-06
1.0963322e-06
1.0926987e-06
1.0893208e-06
1.0859681e-06
1.0827829e-06
1.0795829e-06
1.0765076e-06
1.0734992e-06
1.0706932e-06
1.0680599e-06
1.0657043e-06
1.0637361e-06
1.06206e-06
1.0606112e-06
1.0593896e-06
1.0583433e-06
1.0574578e-06
1.0566252e-06
1.0557858e-06
1.0547724e-06
1.053474e-06
1.0517508e-06
1.0496297e-06
1.0471367e-06
1.0447036e-06
1.0419164e-06
1.0388086e-06
1.0373146e-06
1.0401118e-06
1.0383979e-06
1.0353389e-06
1.0319663e-06
1.0285192e-06
1.0252083e-06
1.022233e-06
1.0196206e-06
1.0173109e-06
1.0152336e-06
1.0133141e-06
1.0114998e-06
1.009749e-06
1.0080411e-06
1.0063654e-06
1.0047233e-06
1.0031209e-06
1.0015687e-06
1.000077e-06
9.9865658e-07
9.9731563e-07
9.9606091e-07
9.9489669e-07
9.9382042e-07
9.9283488e-07
9.9192767e-07
9.911039e-07
9.9034716e-07
9.8965635e-07
9.8902185e-07
9.884316e-07
9.8788227e-07
9.8736624e-07
9.8690486e-07
9.8635573e-07
9.8625659e-07
9.8820676e-07
9.6271323e-07
9.555758e-07
9.6423944e-07
9.8514986e-07
1.0151437e-06
1.0471447e-06
1.0769558e-06
1.1012659e-06
1.1192454e-06
1.1310213e-06
1.1379514e-06
1.1411211e-06
1.1408584e-06
1.1389915e-06
1.1356293e-06
1.1318236e-06
1.1277294e-06
1.123563e-06
1.119172e-06
1.1151895e-06
1.1112475e-06
1.1073388e-06
1.1034424e-06
1.0996307e-06
1.0959148e-06
1.0923472e-06
1.0890482e-06
1.0857522e-06
1.0826403e-06
1.0794775e-06
1.0764564e-06
1.0734594e-06
1.0706824e-06
1.0680557e-06
1.0657096e-06
1.0637535e-06
1.0620855e-06
1.0606347e-06
1.0594059e-06
1.0583395e-06
1.0574213e-06
1.0565422e-06
1.0556393e-06
1.0545481e-06
1.0531929e-06
1.0514611e-06
1.0494203e-06
1.0469197e-06
1.0444181e-06
1.0415035e-06
1.0382761e-06
1.0364546e-06
1.0391842e-06
1.0376015e-06
1.0345639e-06
1.0312692e-06
1.027953e-06
1.0247481e-06
1.0218453e-06
1.0192731e-06
1.0169784e-06
1.0149022e-06
1.0129735e-06
1.0111467e-06
1.0093811e-06
1.0076611e-06
1.0059741e-06
1.0043244e-06
1.0027158e-06
1.0011601e-06
9.9966515e-07
9.9824335e-07
9.9690061e-07
9.9564555e-07
9.9447978e-07
9.9340717e-07
9.924184e-07
9.9151837e-07
9.9069302e-07
9.8994499e-07
9.8925939e-07
9.8862898e-07
9.8804812e-07
9.8750592e-07
9.8699583e-07
9.8653723e-07
9.8601101e-07
9.8582974e-07
9.8755292e-07
9.6240523e-07
9.5552918e-07
9.6451194e-07
9.8575253e-07
1.015841e-06
1.0478056e-06
1.0773623e-06
1.1012073e-06
1.1187684e-06
1.130106e-06
1.1368085e-06
1.1398092e-06
1.1393793e-06
1.1374887e-06
1.1341124e-06
1.1304009e-06
1.1262903e-06
1.1222608e-06
1.1179847e-06
1.114208e-06
1.1103987e-06
1.1065614e-06
1.102763e-06
1.0990149e-06
1.0954043e-06
1.0919118e-06
1.088698e-06
1.0854398e-06
1.0823675e-06
1.0792143e-06
1.0762205e-06
1.0732406e-06
1.0704839e-06
1.0678571e-06
1.0655201e-06
1.0635955e-06
1.0619589e-06
1.0605217e-06
1.0592875e-06
1.0581934e-06
1.0572313e-06
1.0562906e-06
1.0553136e-06
1.0541453e-06
1.0527451e-06
1.0510098e-06
1.0489398e-06
1.0465737e-06
1.0440676e-06
1.0410622e-06
1.0376768e-06
1.035524e-06
1.0382527e-06
1.0366408e-06
1.03356e-06
1.0303704e-06
1.0272227e-06
1.0241657e-06
1.0213729e-06
1.0188746e-06
1.0166231e-06
1.0145675e-06
1.0126456e-06
1.0108173e-06
1.009047e-06
1.00732e-06
1.0056275e-06
1.0039728e-06
1.0023611e-06
1.0008029e-06
9.9930736e-07
9.978848e-07
9.9654252e-07
9.9528737e-07
9.941233e-07
9.9304912e-07
9.9206606e-07
9.9116378e-07
9.9034683e-07
9.895994e-07
9.8892039e-07
9.8829962e-07
9.8772431e-07
9.8719e-07
9.8668766e-07
9.8623049e-07
9.8572208e-07
9.854777e-07
9.8699308e-07
9.6271747e-07
9.5607789e-07
9.6544743e-07
9.8684796e-07
1.0170349e-06
1.0487471e-06
1.0778915e-06
1.1012935e-06
1.1183755e-06
1.1293327e-06
1.1357058e-06
1.1385373e-06
1.1380148e-06
1.1361067e-06
1.1327552e-06
1.1290969e-06
1.1251404e-06
1.1211891e-06
1.1169969e-06
1.1132745e-06
1.1095685e-06
1.1058234e-06
1.1021349e-06
1.0984707e-06
1.0949609e-06
1.0915375e-06
1.0884114e-06
1.0852141e-06
1.0822244e-06
1.0791132e-06
1.0761818e-06
1.07322e-06
1.0705006e-06
1.0678853e-06
1.0655623e-06
1.0636549e-06
1.0620316e-06
1.060593e-06
1.0593523e-06
1.0582354e-06
1.0572384e-06
1.0562467e-06
1.055204e-06
1.0539601e-06
1.0525085e-06
1.0506957e-06
1.0485522e-06
1.0464332e-06
1.0438988e-06
1.0407658e-06
1.0371094e-06
1.0346068e-06
1.0373435e-06
1.0356397e-06
1.0325485e-06
1.0294687e-06
1.0264883e-06
1.0235849e-06
1.0209125e-06
1.0184962e-06
1.0162953e-06
1.0142688e-06
1.0123596e-06
1.0105349e-06
1.0087615e-06
1.0070317e-06
1.0053344e-06
1.0036772e-06
1.0020629e-06
1.0005043e-06
9.9900717e-07
9.9758484e-07
9.9624122e-07
9.9498604e-07
9.9382012e-07
9.9274828e-07
9.9176201e-07
9.9086545e-07
9.9004621e-07
9.8930713e-07
9.8863288e-07
9.8801658e-07
9.8745151e-07
9.8692535e-07
9.8643003e-07
9.859767e-07
9.8548489e-07
9.851838e-07
9.8651631e-07
9.6246716e-07
9.5612206e-07
9.659115e-07
9.8770593e-07
1.0180035e-06
1.0496246e-06
1.0784404e-06
1.1013117e-06
1.1179154e-06
1.1283958e-06
1.1345082e-06
1.1371599e-06
1.1364588e-06
1.1345321e-06
1.1311674e-06
1.1276107e-06
1.1236565e-06
1.1198496e-06
1.115775e-06
1.1122571e-06
1.108691e-06
1.1050177e-06
1.101439e-06
1.0978401e-06
1.0944478e-06
1.091101e-06
1.0880715e-06
1.0849149e-06
1.0819782e-06
1.07888e-06
1.0759883e-06
1.0730447e-06
1.0703536e-06
1.0677398e-06
1.0654301e-06
1.0635615e-06
1.0619758e-06
1.0605514e-06
1.059306e-06
1.0581591e-06
1.0571168e-06
1.0560611e-06
1.0549439e-06
1.0536206e-06
1.0520897e-06
1.0501237e-06
1.0481493e-06
1.0462869e-06
1.0436369e-06
1.0402695e-06
1.0363151e-06
1.0335098e-06
1.0362543e-06
1.0345195e-06
1.031478e-06
1.0285206e-06
1.0257119e-06
1.0229687e-06
1.0204236e-06
1.0180995e-06
1.0159587e-06
1.0139678e-06
1.0120775e-06
1.0102616e-06
1.0084912e-06
1.0067605e-06
1.0050623e-06
1.0034041e-06
1.0017899e-06
1.0002316e-06
9.9873636e-07
9.9731495e-07
9.9597339e-07
9.9471903e-07
9.9355525e-07
9.9248264e-07
9.915009e-07
9.9060204e-07
9.897906e-07
9.8905161e-07
9.8838434e-07
9.8777841e-07
9.8722006e-07
9.8670339e-07
9.862176e-07
9.8576765e-07
9.8529187e-07
9.8494675e-07
9.8610731e-07
9.6272988e-07
9.5665897e-07
9.668998e-07
9.889423e-07
1.0193091e-06
1.0506441e-06
1.0789817e-06
1.1013376e-06
1.1174085e-06
1.1274765e-06
1.1332434e-06
1.1357121e-06
1.1349336e-06
1.1329947e-06
1.1296743e-06
1.1261823e-06
1.1223846e-06
1.1186665e-06
1.1146911e-06
1.1112396e-06
1.1077836e-06
1.1042165e-06
1.1007516e-06
1.0972489e-06
1.0939594e-06
1.0906933e-06
1.087754e-06
1.0846723e-06
1.0818228e-06
1.0787842e-06
1.0759618e-06
1.0730562e-06
1.0704133e-06
1.0678283e-06
1.0655436e-06
1.0636953e-06
1.0621234e-06
1.0606996e-06
1.0594475e-06
1.0582782e-06
1.0571997e-06
1.0560919e-06
1.0549075e-06
1.0535128e-06
1.051854e-06
1.0498077e-06
1.0480458e-06
1.0461397e-06
1.0434297e-06
1.0398113e-06
1.0356386e-06
1.0325626e-06
1.0352844e-06
1.0335265e-06
1.0305385e-06
1.027692e-06
1.0250326e-06
1.0224319e-06
1.0200014e-06
1.0177583e-06
1.0156707e-06
1.0137116e-06
1.0118375e-06
1.0100275e-06
1.0082568e-06
1.0065255e-06
1.0048253e-06
1.0031668e-06
1.0015525e-06
9.9999589e-07
9.9850102e-07
9.9708224e-07
9.9574092e-07
9.9448831e-07
9.9332368e-07
9.9225364e-07
9.9127017e-07
9.9037662e-07
9.8956314e-07
9.8883236e-07
9.8816996e-07
9.8756904e-07
9.8702236e-07
9.8651642e-07
9.8604051e-07
9.8559782e-07
9.8513704e-07
9.8475592e-07
9.8576764e-07
9.6252421e-07
9.5676534e-07
9.6751138e-07
9.8996026e-07
1.0203961e-06
1.0515404e-06
1.0794451e-06
1.1011953e-06
1.1167321e-06
1.1263018e-06
1.1317915e-06
1.1340817e-06
1.1331394e-06
1.1312006e-06
1.127888e-06
1.1245143e-06
1.1207514e-06
1.1171906e-06
1.1133454e-06
1.1101006e-06
1.1067935e-06
1.1033104e-06
1.0999675e-06
1.0965427e-06
1.0933815e-06
1.090202e-06
1.0873707e-06
1.084342e-06
1.0815603e-06
1.07855e-06
1.0757809e-06
1.0729044e-06
1.0703023e-06
1.0677316e-06
1.0654729e-06
1.0636738e-06
1.0621463e-06
1.0607404e-06
1.0594863e-06
1.0582883e-06
1.0571655e-06
1.0559942e-06
1.0547358e-06
1.0532696e-06
1.0514858e-06
1.0494446e-06
1.0477997e-06