/*--------------------------------*- C++ -*----------------------------------*\
| =========                 |                                                 |
| \\      /  F ield         | OpenFOAM: The Open Source CFD Toolbox           |
|  \\    /   O peration     | Version:  2406                                  |
|   \\  /    A nd           | Website:  www.openfoam.com                      |
|    \\/     M anipulation  |                                                 |
\*---------------------------------------------------------------------------*/
FoamFile
{
    version     2.0;
    format      ascii;
    arch        "LSB;label=32;scalar=64";
    class       volScalarField;
    location    "4";
    object      omega;
}
// * * * * * * * * * * * * * * * * * * * * * * * * * * * * * * * * * * * * * //

dimensions      [0 0 -1 0 0 0 0];

internalField   nonuniform List<scalar> 
62344
(
4.3892508
3.6331715
2.9981356
2.5425056
2.250004
2.0758202
1.9775656
1.9272256
1.9028754
1.8938226
1.8877327
1.8881492
1.8879363
1.8879497
1.8904473
1.8924425
1.8946016
1.8936233
1.8952322
1.8991683
1.8981143
1.8995437
1.9003345
1.8992301
1.9039394
1.9013422
1.9075442
1.9199093
1.9230534
1.9308845
1.9482252
1.9626589
1.9663627
1.9757001
1.9927017
2.0135591
2.029151
2.0433531
2.0596207
2.0853562
2.1117576
2.1527167
2.1789979
2.2068455
2.2306777
2.25855
2.2792588
2.304801
2.3233886
2.3725172
2.4265594
2.4952911
2.5398941
2.5919515
2.6034909
4.3912855
3.6382288
3.0055535
2.5501238
2.2565105
2.0795969
1.9794108
1.9287062
1.9028654
1.8918902
1.8862813
1.8862952
1.8848357
1.8837462
1.8849541
1.8863489
1.8889456
1.885775
1.8854372
1.8892081
1.8869436
1.8885842
1.8896321
1.8887569
1.8893986
1.8858356
1.8936613
1.9036655
1.9031895
1.9077346
1.9259666
1.9403735
1.9434719
1.9502874
1.9661634
1.9868199
2.0022516
2.012381
2.0261554
2.0538498
2.0970167
2.142902
2.172496
2.2097803
2.2472744
2.2848575
2.3054102
2.3280864
2.3690851
2.408949
2.4509543
2.483429
2.5410318
2.5877824
2.6304489
4.3935384
3.6447463
3.0133871
2.5576071
2.2639762
2.0843062
1.9835318
1.931695
1.9039615
1.8934401
1.888064
1.8870933
1.8860066
1.8856588
1.8857522
1.8869239
1.8898054
1.8874067
1.8864145
1.8894308
1.8864457
1.8880912
1.8898912
1.8908584
1.8891251
1.8851123
1.8938675
1.9011105
1.8989651
1.904428
1.9237921
1.9389859
1.9402703
1.9412126
1.9512962
1.9681005
1.9801738
1.9877642
1.9983926
2.0235043
2.0624944
2.0958018
2.1293617
2.1722497
2.2201017
2.2665918
2.3050196
2.3428032
2.393572
2.4256226
2.4472094
2.4625212
2.4998777
2.5464228
2.59796
4.3954774
3.6506034
3.0213791
2.565384
2.2707447
2.0889827
1.988247
1.9344174
1.9058023
1.8957676
1.8902815
1.8879655
1.887318
1.8877445
1.887729
1.8865932
1.8890678
1.8882515
1.8865017
1.8878717
1.8843015
1.8864159
1.8881135
1.8904991
1.8872367
1.8839784
1.8944389
1.8998713
1.8976667
1.9047188
1.9252865
1.9398165
1.9393335
1.9368848
1.9441887
1.9579258
1.9676058
1.976926
1.9895633
2.0119302
2.0469843
2.0750391
2.1081096
2.1391285
2.1828586
2.226507
2.2780771
2.340227
2.3961021
2.4359359
2.4604728
2.4795416
2.4951851
2.5303915
2.5793076
4.3976617
3.6572032
3.0294613
2.5729939
2.2769525
2.0943411
1.9925927
1.9366735
1.9090967
1.8978407
1.8925424
1.8896179
1.8886949
1.8895144
1.8902642
1.887413
1.8879381
1.888479
1.8877476
1.8881272
1.8842836
1.8854383
1.8860437
1.8887022
1.8850897
1.8845544
1.8962224
1.8998681
1.8970729
1.9042057
1.9227935
1.9374179
1.9394644
1.9367725
1.9432907
1.9568959
1.9649077
1.9704792
1.9800793
1.9982189
2.0245824
2.0508852
2.0804247
2.1045168
2.1366969
2.171176
2.2179893
2.2916054
2.3575054
2.4065418
2.4372196
2.4530405
2.4718157
2.4873846
2.5265609
4.4001641
3.6675039
3.0416702
2.5826636
2.2828288
2.0984877
1.9942633
1.9373343
1.9107719
1.8976041
1.8935035
1.890435
1.8898885
1.8905961
1.8922333
1.8899802
1.8887812
1.8896092
1.8902273
1.8911877
1.8877165
1.8870007
1.8860093
1.8893009
1.8859567
1.8875675
1.8995968
1.9009514
1.8975297
1.9031347
1.9182133
1.9324517
1.938658
1.9392503
1.946674
1.958553
1.9652586
1.9676647
1.9747274
1.9909584
2.011845
2.034182
2.0585203
2.0809887
2.1095823
2.1426136
2.1875231
2.2541121
2.3062714
2.3519797
2.374338
2.3855243
2.4210082
2.4302578
2.4710279
4.4021254
3.6705811
3.0452773
2.5867595
2.2864329
2.1015754
1.9956075
1.9387561
1.911994
1.8976542
1.8940972
1.8910817
1.8908009
1.8908975
1.8927041
1.8915213
1.8899624
1.8890249
1.8897431
1.8914231
1.8887733
1.8867074
1.8842322
1.8876839
1.8851263
1.8888954
1.9001213
1.8999047
1.8965236
1.9020957
1.9146841
1.9264178
1.9369101
1.9427006
1.9523474
1.9611889
1.9653775
1.9671634
1.9721666
1.9876015
2.0055258
2.0234585
2.0448039
2.0647658
2.0908047
2.1312722
2.1867713
2.2316117
2.2817574
2.3181117
2.3570915
2.3806529
2.4006557
2.4092949
2.4212216
4.403998
3.6750387
3.0506396
2.5919882
2.2907729
2.1045316
1.9972979
1.9405132
1.9120594
1.898161
1.8940404
1.8914527
1.8915101
1.8911547
1.8924943
1.8923351
1.8917043
1.8893724
1.8904001
1.8920749
1.8904367
1.8885112
1.8859277
1.8885204
1.8857497
1.8905397
1.9005364
1.8987566
1.895505
1.9021651
1.9135786
1.9218737
1.9342851
1.9464158
1.9601636
1.968787
1.9722784
1.9752797
1.9803575
1.9945801
2.0103605
2.0230004
2.0425832
2.0654049
2.0895043
2.1275503
2.1859088
2.2276012
2.2698489
2.3053097
2.3571081
2.4047351
2.4221524
2.4419986
2.4374184
4.4057728
3.6794635
3.0560171
2.5972997
2.2949955
2.1073292
1.9994439
1.9420725
1.9118886
1.8989499
1.893802
1.8913742
1.8917868
1.8915494
1.8918833
1.8924409
1.8927382
1.8902956
1.890859
1.8916845
1.8902307
1.8894058
1.8872989
1.8889024
1.8854099
1.890863
1.9000287
1.8978879
1.8955561
1.9040397
1.9146959
1.9194276
1.9295357
1.9456007
1.9651336
1.9775025
1.9850189
1.992873
1.9990836
2.0096279
2.0230663
2.0350737
2.052485
2.0738777
2.0959486
2.1255258
2.1745269
2.2180606
2.2502259
2.2933814
2.3391822
2.4006561
2.4296877
2.4692007
2.4788787
4.4074098
3.6838587
3.0614202
2.6024396
2.298811
2.1102003
2.0017636
1.9428323
1.9117878
1.8994448
1.8935653
1.8911436
1.8916581
1.8920066
1.8916534
1.8927256
1.8935371
1.8919342
1.8923256
1.8923364
1.8905905
1.8906711
1.8894833
1.8903436
1.8856994
1.8906734
1.8993024
1.8975982
1.8964504
1.9071916
1.9172526
1.91916
1.9259607
1.9437621
1.9653792
1.982
1.9932091
2.0057936
2.01812
2.0308084
2.0432274
2.0524091
2.0635163
2.085502
2.1095881
2.1384854
2.1682072
2.2052319
2.23027
2.265966
2.2956317
2.3494019
2.3907788
2.4463535
2.4798508
4.4089574
3.6881085
3.0667902
2.6073054
2.3022649
2.1134061
2.00386
1.943197
1.9124145
1.8998917
1.8931944
1.8912202
1.8912888
1.8920591
1.8915189
1.8925311
1.8938586
1.8928968
1.8931153
1.892478
1.890789
1.8911809
1.8912389
1.8918974
1.886431
1.8907336
1.8986599
1.8976808
1.898149
1.910145
1.9195204
1.9191952
1.9237993
1.9403607
1.9626885
1.9784806
1.9899758
2.0042124
2.023482
2.0436085
2.0550412
2.061185
2.069596
2.0878969
2.1132603
2.1427264
2.1717021
2.1975369
2.214099
2.2378557
2.2563139
2.2822521
2.3326847
2.3679625
2.422492
4.4104355
3.6923575
3.0722951
2.6122627
2.3059546
2.1171999
2.006102
1.9439302
1.9138287
1.9008996
1.8931401
1.8918561
1.8916746
1.8922368
1.8918258
1.8925523
1.8942478
1.8936127
1.8938619
1.8929008
1.891327
1.8917221
1.8927231
1.8931386
1.8874172
1.8912612
1.8981454
1.8979321
1.9001517
1.9128797
1.9215583
1.9195583
1.9223714
1.9377646
1.9588504
1.9710166
1.9802165
1.992327
2.0148272
2.0414349
2.0560759
2.0611946
2.068842
2.0790898
2.0980134
2.1296766
2.164672
2.1903239
2.2038265
2.2183426
2.2343085
2.2505933
2.2774297
2.2901709
2.3224967
4.411896
3.6966594
3.0778936
2.617455
2.3102815
2.1214446
2.0086046
1.945431
1.9159167
1.9024927
1.8935443
1.8929704
1.8928433
1.892511
1.8923915
1.8928312
1.8942923
1.8939758
1.894565
1.8932486
1.8916678
1.8922304
1.8936577
1.893912
1.8885679
1.89211
1.8977725
1.8977143
1.9014943
1.9144559
1.9225939
1.9201232
1.9213191
1.9354832
1.9549779
1.9643138
1.968942
1.9771392
1.9980876
2.0275165
2.0464819
2.0525264
2.0580422
2.0643741
2.0806863
2.1106746
2.1474712
2.1727172
2.1873278
2.2002808
2.215415
2.2274122
2.2433371
2.2529766
2.2741807
4.4132893
3.7008137
3.0833561
2.6227012
2.3150193
2.1257056
2.0112752
1.9477195
1.9180846
1.9042462
1.8944915
1.8944849
1.894514
1.8929857
1.8934718
1.8941287
1.8944201
1.8942289
1.895479
1.8941112
1.8924299
1.8928162
1.8941233
1.8943081
1.8897245
1.8930289
1.8973987
1.8971974
1.9019949
1.9154113
1.9237702
1.9217024
1.9211529
1.9336479
1.9522691
1.9615704
1.9651172
1.9718926
1.9891412
2.0160425
2.036906
2.0446172
2.049004
2.0575731
2.0731918
2.0948719
2.1206822
2.1451294
2.1650794
2.1826216
2.2020123
2.2173167
2.2298075
2.243434
2.2579342
4.4146666
3.7048576
3.0885067
2.6276422
2.3197212
2.1293454
2.0138378
1.9501648
1.9197971
1.9058207
1.8956416
1.8958251
1.8963386
1.8936574
1.8946787
1.8960708
1.8949531
1.8944436
1.8964067
1.8953526
1.893405
1.893366
1.8941715
1.8945967
1.8909947
1.8939845
1.8971573
1.8964425
1.9017024
1.9152613
1.9245331
1.9232321
1.9221779
1.9332804
1.951978
1.9641111
1.969879
1.9766251
1.9935804
2.017158
2.0363049
2.0477372
2.0524366
2.061648
2.0751265
2.0948145
2.117027
2.1395202
2.1627384
2.1820701
2.1997956
2.2183956
2.2292651
2.2565289
2.2695307
4.4159889
3.708583
3.0930678
2.6320123
2.3237566
2.1320787
2.0158178
1.9520845
1.9207338
1.9066257
1.8964832
1.8965399
1.8976418
1.8942998
1.8957388
1.8979653
1.8957575
1.8945835
1.8972275
1.896717
1.894597
1.8940342
1.8941875
1.8946988
1.8920736
1.8948507
1.8970574
1.8958619
1.9011715
1.9142354
1.9244602
1.9253371
1.9249137
1.9352862
1.953849
1.9699393
1.9819505
1.993374
2.0131918
2.0345382
2.0506073
2.0648944
2.0715188
2.0762534
2.0896855
2.1103605
2.1311585
2.1507761
2.1716
2.1937379
2.2107451
2.2263199
2.2366471
2.2692517
2.2847604
4.4173499
3.7122513
3.0972069
2.635831
2.3270026
2.1340118
2.0173939
1.9534717
1.9211067
1.906815
1.8972285
1.8968098
1.8983813
1.895094
1.8966506
1.8993726
1.896704
1.894879
1.8978785
1.8979442
1.8956647
1.8947345
1.8944719
1.8948139
1.8931121
1.8959121
1.8973591
1.8957998
1.9006787
1.9127414
1.9235305
1.9273953
1.9289481
1.9395205
1.9574749
1.9772439
1.9945726
2.0103875
2.0376183
2.0621972
2.078626
2.0953222
2.1061409
2.1091399
2.1197658
2.1431433
2.167359
2.1842565
2.2035109
2.224409
2.2388926
2.2510613
2.259052
2.2842778
2.297268
4.418606
3.7153335
3.1007055
2.639007
2.3295867
2.1353636
2.018553
1.9541701
1.9211803
1.9064313
1.8978043
1.8965295
1.8981855
1.8953997
1.8969577
1.8998359
1.8974892
1.8953972
1.8983428
1.8987675
1.8965146
1.8954407
1.8948983
1.8947322
1.8937943
1.8967296
1.8975178
1.8956321
1.899839
1.9104722
1.921217
1.9276479
1.9321664
1.9442529
1.9609922
1.9819289
2.004125
2.0230236
2.0552819
2.0841415
2.0994993
2.1203556
2.1405791
2.1469362
2.1594309
2.1841642
2.207335
2.220123
2.230003
2.246273
2.2666414
2.2815242
2.2867714
2.293899
2.2994983
4.4199638
3.7186577
3.1044016
2.642234
2.3321236
2.1372036
2.0202263
1.955395
1.922112
1.9067876
1.8992018
1.8972387
1.8986164
1.8966092
1.8979717
1.90055
1.8989266
1.8969043
1.8993652
1.8998733
1.8977961
1.8970256
1.8965545
1.8958854
1.8957962
1.8988797
1.899317
1.8975306
1.9007472
1.9094698
1.9192419
1.9276788
1.9352862
1.9488137
1.9638829
1.985199
2.008849
2.0286429
2.0616394
2.0941751
2.1137381
2.137748
2.1634519
2.1786266
2.1905387
2.2116851
2.2360842
2.2476887
2.2520843
2.2642195
2.2818957
2.2962114
2.299104
2.2993901
2.3020732
4.4211695
3.7214211
3.1080184
2.6461213
2.336142
2.1416746
2.0248287
1.9596966
1.9265246
1.910671
1.9037532
1.9012125
1.9019636
1.9007023
1.9015665
1.9036081
1.9028345
1.901041
1.9027149
1.9028793
1.9008256
1.9000883
1.8994642
1.8980509
1.8986188
1.9018825
1.9021561
1.900321
1.9027938
1.9099059
1.9183377
1.9283759
1.939697
1.9545989
1.9689499
1.9884022
2.0098403
2.0318838
2.0640246
2.098599
2.1215315
2.1451282
2.1771606
2.2014062
2.2169289
2.2386448
2.2619515
2.273831
2.2754116
2.2803583
2.290022
2.3016557
2.3087159
2.3117856
2.3124159
4.4226986
3.7259862
3.1151803
2.6552865
2.3472194
2.1551396
2.0394041
1.9744028
1.9420312
1.9256938
1.9191802
1.9163581
1.9164453
1.9157162
1.9161635
1.917616
1.9175916
1.9159976
1.9170444
1.9168573
1.9146903
1.9140564
1.9131712
1.9104015
1.9109723
1.9144686
1.9144157
1.9122294
1.9144153
1.9205641
1.9274805
1.9376503
1.9515749
1.9683306
1.981586
1.9959095
2.016025
2.039513
2.0702804
2.1064335
2.1312335
2.1534623
2.1859953
2.2167491
2.2408343
2.2629579
2.2815098
2.289338
2.2901038
2.292535
2.2987808
2.3066093
2.3161228
2.3193196
2.3174048
4.4248103
3.7362499
3.1353141
2.6839896
2.382881
2.1963101
2.0829062
2.0185698
1.987159
1.970545
1.9644966
1.9612941
1.9609818
1.9606559
1.9605001
1.9611366
1.9615489
1.9600994
1.9604127
1.9595627
1.9565856
1.9558277
1.9545037
1.9498452
1.9497322
1.9528589
1.9509479
1.9470824
1.9482216
1.953483
1.9588065
1.9689836
1.9850231
2.003194
2.01493
2.0247325
2.0432913
2.0679073
2.0989968
2.1369771
2.1627278
2.1878275
2.2182801
2.2582058
2.2946287
2.3212148
2.3359614
2.3392234
2.3393961
2.3400023
2.3443437
2.3505746
2.3594048
2.3678315
2.3692568
4.4347424
3.7791725
3.2048916
2.7651243
2.4669454
2.2867552
2.1727014
2.1052131
2.0771588
2.0610071
2.0515798
2.0518533
2.0540989
2.0522969
2.0521449
2.0547763
2.056639
2.0543466
2.0554891
2.0555656
2.052461
2.0502921
2.0478482
2.0410055
2.0407053
2.0444548
2.0424452
2.0366531
2.0342934
2.0375597
2.0406871
2.0489307
2.0642224
2.081195
2.0899318
2.0964881
2.1090409
2.1313865
2.1592811
2.1901333
2.2162793
2.2401028
2.2686523
2.3038838
2.3446044
2.3767495
2.3926488
2.3957818
2.3948124
2.3930351
2.3917973
2.3931662
2.4009256
2.4105319
2.4103144
4.4522353
3.8509042
3.3594365
3.01061
2.77245
2.6466431
2.5514541
2.4792078
2.4604342
2.4490627
2.4249162
2.4316037
2.4443795
2.4313207
2.4303043
2.4403229
2.439445
2.4296079
2.4341002
2.4382659
2.4318344
2.4209752
2.4105466
2.3947173
2.3929903
2.3986707
2.3980193
2.3862894
2.370831
2.3728456
2.3787033
2.3870539
2.3971039
2.408331
2.4152958
2.4168571
2.4175621
2.4267336
2.4409103
2.4568072
2.4759601
2.5042985
2.5328492
2.5603603
2.5932851
2.6234227
2.6388645
2.6357252
2.6253969
2.6179794
2.6123207
2.6131509
2.613504
2.614004
2.5936158
4.396642
4.2037785
4.2513528
4.455175
4.5879047
4.6502457
4.6473624
4.585597
4.557343
4.5365716
4.4717722
4.4741246
4.495822
4.4445918
4.4215107
4.4372139
4.4149304
4.3832007
4.3865222
4.4000046
4.3815623
4.3363978
4.2976979
4.2466838
4.222953
4.226872
4.226228
4.1964434
4.1303093
4.1122441
4.1276135
4.1347536
4.1250575
4.122408
4.1262909
4.1277615
4.0981985
4.0449713
3.9803198
3.9389036
3.9489509
3.9964534
4.038803
4.0638804
4.0559829
4.0357591
3.9997649
3.9561763
3.8777432
3.8386265
3.8277035
3.8214092
3.8090561
3.7788097
3.6487457
6.1889427
8.1537043
9.91739
11.256702
11.865446
12.28396
12.368603
12.345771
12.424672
12.539342
12.362559
12.478399
12.702348
12.542752
12.535415
12.676321
12.617612
12.448933
12.533951
12.637452
12.667022
12.619784
12.573189
12.560672
12.55786
12.662876
12.781323
12.76335
12.697222
12.748893
12.881826
12.954583
12.93816
12.950545
12.982214
13.058877
12.995392
12.861497
12.672453
12.518199
12.549337
12.708741
12.795298
12.879772
12.845123
12.716697
12.480211
12.305288
12.097168
11.925075
11.888134
11.834202
11.805309
11.714639
11.091026
54.139953
54.188506
54.33826
54.580989
54.6104
54.580974
54.588524
54.572061
54.573275
54.746671
54.662157
54.757866
54.936034
54.823846
54.976969
55.139055
55.027609
55.064698
55.244073
55.399926
55.553892
55.520489
55.473791
55.840391
55.861637
55.795134
55.931602
56.216898
56.327147
56.430892
56.7551
56.990857
56.753307
56.460491
56.71997
57.372553
57.731467
57.304607
56.409329
55.953819
56.475958
57.515626
58.258948
58.350895
57.781865
56.845082
56.083957
56.021536
56.501474
57.201905
57.80667
58.171408
58.296878
58.186915
57.911378
59.161295
12.031841
3.7606015
2.6193881
2.4131589
2.3711093
2.3162168
2.3142942
2.3175386
2.3202147
2.327326
2.3203781
2.2951077
2.277296
2.2994346
2.3588389
2.4609634
2.5196361
2.5136534
2.4734757
2.4492898
2.4935551
2.5871327
2.6521428
2.6342525
2.6492898
2.6346186
62.315815
13.149608
3.9752842
2.6538098
2.406681
2.367041
2.3142979
2.3166633
2.3293141
2.345233
2.3507238
2.3510316
2.337101
2.3268508
2.3391865
2.3835986
2.4692443
2.5301373
2.52911
2.4921585
2.4682577
2.5184437
2.6212541
2.6791359
2.6582602
2.6923649
2.6700002
66.271266
13.882503
4.0982696
2.6709816
2.3952219
2.3590029
2.3106482
2.3161605
2.3337285
2.3585943
2.3697859
2.3735044
2.3706852
2.3644272
2.3683682
2.3912704
2.4679937
2.5370907
2.5455123
2.5224235
2.509975
2.55971
2.6548216
2.7146034
2.6971578
2.7227203
2.7032416
70.994582
14.534846
4.1826718
2.6822424
2.3837863
2.3508888
2.3070267
2.3163203
2.3388558
2.3815737
2.4069282
2.4062486
2.3963493
2.3804955
2.3766213
2.3938476
2.4745412
2.5465631
2.5736204
2.5801288
2.5743614
2.6038667
2.6685679
2.7640882
2.761971
2.7807926
2.7377227
76.539702
15.321277
4.3973358
2.7394346
2.387673
2.3555797
2.320173
2.3325475
2.3647068
2.4206853
2.4523109
2.4477717
2.4150429
2.3810768
2.3764665
2.3980875
2.482779
2.5696769
2.6032259
2.6273453
2.64339
2.6385363
2.6738938
2.7979409
2.8229549
2.852252
2.8038847
82.688507
16.224024
4.6093786
2.7710228
2.4014302
2.3792462
2.3558835
2.3720071
2.4086149
2.455929
2.4770743
2.4635395
2.4221057
2.3777864
2.3716763
2.396474
2.483829
2.5830188
2.6423022
2.6791661
2.6875007
2.6605705
2.6869418
2.8116267
2.8799896
2.930033
2.9128653
88.622411
16.978972
4.856861
2.860208
2.4462784
2.416709
2.3992403
2.4077668
2.4351278
2.4650504
2.4770943
2.466254
2.4346214
2.3764458
2.3688814
2.3972519
2.4931834
2.6051111
2.6908017
2.7261342
2.7041293
2.6744576
2.6990037
2.817804
2.9196031
3.0002368
3.0147274
93.903883
18.153634
5.2036871
2.9534204
2.5084276
2.4516111
2.4299937
2.433135
2.4529014
2.4763573
2.4893156
2.479124
2.4462103
2.3844362
2.3830747
2.4192831
2.52042
2.6321978
2.7242869
2.7470153
2.7193139
2.6930747
2.7090868
2.8160673
2.9771875
3.061291
3.0823941
98.918223
19.602265
5.6130089
3.0741794
2.5706011
2.4906955
2.4621727
2.462686
2.4806071
2.5167647
2.5272575
2.5083768
2.4677014
2.4199021
2.4209898
2.4597566
2.5505744
2.6549159
2.7475981
2.7628803
2.7411587
2.7082493
2.7162024
2.8377902
3.0443971
3.1123689
3.1249025
104.84279
21.056587
6.0217378
3.1705017
2.6070817
2.5350396
2.5172801
2.5122573
2.5192898
2.5471022
2.5669936
2.5542496
2.507548
2.4728016
2.4732835
2.5006722
2.5743403
2.6809519
2.7721221
2.805758
2.7870922
2.7393545
2.7461565
2.8706948
3.1093391
3.165404
3.1745225
113.00466
21.947689
6.2219896
3.2290994
2.6219081
2.5566668
2.5504043
2.552688
2.556084
2.5732139
2.6065683
2.6013328
2.5560445
2.5232103
2.5138596
2.5348907
2.5996838
2.7104577
2.8012512
2.852449
2.8430112
2.7948568
2.7897897
2.9111395
3.1588984
3.1886299
3.2205808
123.34844
23.074718
6.4716587
3.3023842
2.6314601
2.5592936
2.5643497
2.5850754
2.5974584
2.6225752
2.6549179
2.6540667
2.6168659
2.5642831
2.5331356
2.5475974
2.6132104
2.7290192
2.8390877
2.8974367
2.8999453
2.8671885
2.8619495
2.9574218
3.1689136
3.2187969
3.2656061
134.71778
24.721879
6.8180483
3.3903372
2.6597154
2.5803699
2.6016594
2.6363008
2.6643009
2.6824697
2.7056439
2.7038023
2.6708786
2.6027542
2.5473899
2.5506742
2.6157988
2.7384581
2.8583237
2.9390055
2.9589113
2.9466269
2.9437654
3.0020858
3.1722422
3.2765171
3.3090408
144.98915
27.156105
7.4899655
3.6070937
2.7494032
2.6474651
2.6811912
2.7205111
2.7389102
2.7363791
2.7433966
2.7403686
2.6967213
2.6222248
2.5730276
2.5686625
2.6187395
2.730964
2.8622981
2.9795969
3.038761
3.0455807
2.9950493
3.0340153
3.1751667
3.334782
3.3745704
153.0614
29.35677
8.2167216
3.8720368
2.899936
2.7590003
2.7681154
2.7923851
2.7836154
2.7646719
2.7572752
2.7606344
2.7159938
2.647264
2.5980007
2.5931305
2.6297527
2.7420355
2.886152
3.0288647
3.112024
3.1156542
3.0223374
3.0488998
3.1658863
3.3819294
3.4702365
159.43709
31.137425
8.7402073
4.0276557
2.9947367
2.8332572
2.8302488
2.8506082
2.8374785
2.8182394
2.7983765
2.7889528
2.7522187
2.6835144
2.627334
2.6153651
2.6606138
2.7721549
2.9279218
3.0920516
3.1691754
3.1468955
3.0474324
3.0565266
3.1478992
3.4046653
3.5273305
166.75328
32.580591
9.1684135
4.1772912
3.0711897
2.8970222
2.9046422
2.941216
2.9412209
2.9148194
2.8532893
2.8275281
2.80722
2.75839
2.6735029
2.6563747
2.7118728
2.8311149
2.988313
3.1496925
3.2069877
3.1832041
3.0733355
3.0490043
3.138125
3.4200148
3.5578652
178.52364
33.974741
9.7802486
4.4168988
3.1802068
2.9701278
2.9745801
3.0374637
3.049949
3.0347846
2.9450815
2.8942878
2.8858679
2.8436146
2.745034
2.720617
2.7751828
2.9072567
3.0585443
3.1912413
3.2432466
3.2246223
3.1106677
3.0523165
3.1513371
3.4495699
3.5947657
195.53702
37.565235
10.811998
4.686468
3.2540981
3.0156874
3.024319
3.0884839
3.1368284
3.1333334
3.043279
2.9724228
2.9702845
2.9377093
2.8553554
2.813536
2.8529492
2.9726385
3.1390524
3.2484412
3.2803789
3.2630496
3.1755635
3.0726828
3.1830091
3.4746817
3.6350521
215.63782
42.632752
12.208719
5.0955657
3.3762366
3.0562587
3.0686285
3.1578903
3.2201349
3.2206585
3.1381368
3.0652794
3.0711907
3.0383906
2.95833
2.891161
2.910266
3.0409353
3.1991027
3.2971766
3.3326325
3.3221645
3.2759513
3.1483838
3.2328425
3.4906464
3.6661441
235.15201
47.988269
13.684445
5.5854828
3.5455105
3.1402993
3.148226
3.2521232
3.3542794
3.3769877
3.2984713
3.1712856
3.1459987
3.1046347
3.0205828
2.9223911
2.9383236
3.0817456
3.2251818
3.3281969
3.3949849
3.4072391
3.3918193
3.2658417
3.3181711
3.5109649
3.6811287
250.86824
53.282441
15.321017
6.1129944
3.7353285
3.2531358
3.2781334
3.4249401
3.5519624
3.5510002
3.4297761
3.2623688
3.1975477
3.1440869
3.0523605
2.9459765
2.953502
3.0814384
3.2214026
3.3289535
3.4443133
3.5015309
3.5170546
3.3915639
3.4043447
3.5698214
3.7489926
261.43963
57.19029
16.709598
6.595567
4.0142876
3.4790473
3.4655678
3.5644571
3.6949623
3.6936083
3.5158897
3.3114724
3.2234802
3.1800517
3.0849961
2.9660481
2.9553326
3.071069
3.2202372
3.3533335
3.4862014
3.5758598
3.6031477
3.4963586
3.494021
3.6325931
3.8563298
267.24963
58.688135
17.106249
6.6877442
4.1468075
3.654311
3.6445589
3.7734375
3.8468075
3.7819863
3.5833294
3.3667278
3.2610296
3.219283
3.1279499
2.990232
2.9685167
3.068254
3.2190814
3.3769329
3.5197202
3.6223475
3.66981
3.5614908
3.5232992
3.6721617
3.9573157
271.59699
60.142605
17.898508
7.0319533
4.405058
3.8887718
3.8465803
3.9195254
3.9579378
3.9168972
3.7222788
3.4459302
3.3243504
3.2826487
3.1896672
3.0313811
2.994903
3.0763659
3.2418151
3.4202469
3.55916
3.6542771
3.7250662
3.6529785
3.5459094
3.663835
3.9858984
281.52065
61.898459
18.643252
7.3621157
4.5989515
4.0595871
4.0231499
4.1542861
4.2186626
4.1212423
3.8891351
3.5916821
3.4372575
3.3711164
3.2614919
3.0996552
3.0468618
3.1209511
3.3009444
3.4776984
3.5997462
3.7018717
3.7730308
3.7339481
3.6009428
3.6664175
3.9357098
298.74656
65.548657
20.206349
8.0419756
4.935042
4.3273692
4.2650938
4.3732778
4.446292
4.3771364
4.1320641
3.7680685
3.5541367
3.4617329
3.3476579
3.1780016
3.1121035
3.1855993
3.3912309
3.5491204
3.6546922
3.7449244
3.8137929
3.7878588
3.6424486
3.6716332
3.8822383
322.15508
72.645046
22.690395
9.0719606
5.297334
4.5360009
4.4694018
4.5672242
4.6035642
4.5529813
4.3142731
3.9456454
3.6902198
3.563471
3.4400574
3.291107
3.212842
3.286812
3.4977987
3.6545351
3.7229752
3.7709282
3.8220439
3.817392
3.6854404
3.6850244
3.8469566
348.52877
83.712529
26.61466
10.669039
5.9537757
4.7830616
4.5827125
4.6108683
4.6616304
4.620936
4.4283769
4.1012116
3.8308779
3.6760149
3.5803248
3.4435278
3.3386307
3.4040845
3.6092188
3.7623059
3.7948265
3.8249491
3.8649329
3.8546558
3.7261472
3.7007906
3.8371212
373.04758
94.446349
30.810644
12.457319
6.6145994
5.0450444
4.6737553
4.6643088
4.7066439
4.6981408
4.5767846
4.2487529
3.9830419
3.8195335
3.7452576
3.5779032
3.4529487
3.5024143
3.7070553
3.8577417
3.8828043
3.9088323
3.9421317
3.9250423
3.7767973
3.7306917
3.8392731
391.19106
101.25867
34.344593
14.071299
7.3330945
5.3271929
4.8113667
4.7631809
4.7812359
4.7836802
4.6891263
4.3815675
4.1035133
3.9625595
3.8735933
3.6658318
3.5252158
3.5649959
3.7714647
3.9449602
3.989176
4.0086149
4.0514824
4.0143208
3.8525679
3.780741
3.8557167
402.42782
104.66666
36.983326
15.416425
7.9058521
5.5797969
4.9721242
4.8558432
4.872483
4.8838281
4.7710635
4.4785488
4.2153028
4.0710021
3.9653209
3.7301184
3.5617834
3.5789673
3.7705545
4.0002968
4.0841967
4.095778
4.146429
4.1150284
3.9522856
3.8641369
3.9015767
408.89882
106.8321
38.889852
16.345793
8.330511
5.79119
5.0946805
4.9538323
4.9450526
4.9068162
4.7997844
4.5486805
4.2875774
4.1425365
4.0173991
3.777547
3.6114935
3.6098726
3.7676548
4.0336339
4.1473065
4.1696779
4.2273978
4.2181571
4.068509
3.9519815
3.9719131
411.81523
107.85798
40.087515
17.033645
8.7147614
6.0367253
5.2761333
5.0698898
4.9965981
4.8889976
4.7738368
4.5533187
4.3248839
4.1621198
4.0240422
3.8147285
3.6633033
3.6529206
3.7846191
4.0523601
4.1696642
4.1953339
4.2828925
4.3047461
4.1698143
4.0374746
4.0398186
412.53251
108.26448
40.528105
17.35081
8.9559238
6.2295486
5.4171351
5.1317166
4.9975922
4.8737523
4.7098279
4.5098587
4.3121911
4.1696339
4.0394386
3.8526409
3.7114078
3.6978289
3.8018394
4.0656131
4.1885943
4.216291
4.293319
4.3510737
4.2550945
4.1156991
4.1082947
413.27207
109.23683
41.077567
17.713004
9.1634968
6.3588713
5.4984159
5.1511884
4.9883836
4.8344128
4.635813
4.4383265
4.2810336
4.1749921
4.0799411
3.8747631
3.7431152
3.7324134
3.8307759
4.0869737
4.2074645
4.2256714
4.2893608
4.3604317
4.31143
4.1940026
4.1791536
414.69619
110.4469
41.883336
18.233629
9.4527524
6.4977319
5.5530021
5.1428517
4.924227
4.7577182
4.5791093
4.4011011
4.2582752
4.1805655
4.0824952
3.8795943
3.7724774
3.7624866
3.8553512
4.1088297
4.2168333
4.2350063
4.2751886
4.3563647
4.3387202
4.2672767
4.2666323
416.51938
111.49297
42.419498
18.577049
9.6342721
6.5583429
5.5364064
5.0698246
4.8246725
4.6524975
4.4938653
4.3442058
4.2550497
4.1815674
4.0779268
3.8983922
3.8000141
3.790207
3.8757656
4.1389283
4.2441879
4.2436827
4.264507
4.3403225
4.3394907
4.3195063
4.3557601
418.45135
112.51783
43.260501
19.01902
9.827883
6.5928252
5.4952562
5.0123581
4.7759863
4.5964864
4.4312125
4.2991979
4.2351995
4.1860305
4.0965745
3.9162881
3.8290683
3.8132737
3.914818
4.1734307
4.2629257
4.253118
4.2646647
4.3306967
4.3532644
4.3574706
4.4345218
419.26844
113.59737
44.557185
19.600401
10.032831
6.6338145
5.4578753
4.9095416
4.6378483
4.4689175
4.3258764
4.2493766
4.215915
4.1944538
4.1093592
3.9229482
3.8427322
3.8367285
3.9441852
4.1966417
4.27165
4.2549782
4.2627393
4.321531
4.3497247
4.3866997
4.4814543
417.94597
115.39194
46.248442
20.354306
10.33521
6.7084874
5.4342297
4.8432575
4.5438562
4.3548207
4.2352914
4.1892165
4.1925856
4.1853025
4.1052858
3.9381793
3.873341
3.8654179
3.9945705
4.2223299
4.2653199
4.2452382
4.2470676
4.3018166
4.3453162
4.3942154
4.520448
414.57791
116.63986
47.518075
20.935083
10.584788
6.7690283
5.3934
4.7548005
4.4089128
4.2074913
4.1300645
4.1111572
4.1491094
4.166998
4.106596
3.9544111
3.9009713
3.916954
4.0619864
4.2247812
4.2459617
4.2201616
4.2243878
4.282214
4.3400584
4.4103544
4.5590315
409.58039
118.48899
49.178463
21.587888
10.850625
6.8418735
5.3592324
4.6528259
4.2701389
4.0801128
4.0250321
4.0269185
4.1142255
4.1389031
4.0999588
3.9818347
3.947575
3.9595539
4.0974868
4.2228854
4.2227946
4.1884107
4.1856758
4.2487837
4.3352559
4.4256258
4.613185
403.15066
118.34599
50.860475
22.42911
11.207396
6.9285444
5.3349705
4.5785533
4.1546883
3.9741283
3.9329172
3.9427774
4.0647731
4.1091205
4.085594
4.0100471
3.9909292
4.0094435
4.1415669
4.2207788
4.2007224
4.1363966
4.1366047
4.2117533
4.3282726
4.4462491
4.659388
395.78583
117.3422
51.694064
22.989486
11.490353
6.9925773
5.2620725
4.4655641
4.0506224
3.8789051
3.8448823
3.8656172
4.0112563
4.0863014
4.0842516
4.0397188
4.0297799
4.0677334
4.173892
4.2107239
4.1496367
4.0673387
4.0701285
4.1828381
4.3242653
4.4711686
4.6857688
386.90162
116.19036
52.150107
23.287184
11.599499
6.9304073
5.1008486
4.3009097
3.9237558
3.7825691
3.7564091
3.8027906
3.9782863
4.0725705
4.0831294
4.063697
4.05928
4.1178375
4.1785924
4.1906153
4.076074
4.0039212
4.0169806
4.1603783
4.3350778
4.5144765
4.7083397
376.09526
116.4672
53.035773
23.638982
11.709196
6.9094683
4.9882384
4.1517174
3.790121
3.6777716
3.6652096
3.7402775
3.9492078
4.0530268
4.0770067
4.0738615
4.0824951
4.1467264
4.1706512
4.1401735
3.9895137
3.9378932
3.9655374
4.1565109
4.345878
4.5579305
4.7220067
363.43789
115.05853
54.57196
24.244089
11.86703
6.9026851
4.9033191
4.0339376
3.6819576
3.5900031
3.5834235
3.690422
3.9211412
4.0312714
4.0665739
4.0783323
4.1076101
4.1544558
4.1603137
4.078046
3.9143625
3.8855679
3.9421804
4.1622185
4.3664989
4.5861125
4.7282765
349.74254
111.57544
54.800043
24.712772
12.069095
6.9070044
4.8357918
3.9541448
3.6094156
3.5271888
3.5282414
3.6409298
3.8858941
4.0051521
4.0536386
4.0755678
4.1222413
4.1497173
4.1368285
3.9962673
3.8501927
3.8415306
3.9370229
4.1850374
4.3954055
4.6103984
4.7298399
335.7829
109.19111
54.636118
24.863628
12.105395
6.8116171
4.7167825
3.8612427
3.5390371
3.4650382
3.4755143
3.6051587
3.8640038
3.9842625
4.0371088
4.0744455
4.1253078
4.1413917
4.1019801
3.9070884
3.7980757
3.8072039
3.9456492
4.2166082
4.4187192
4.627449
4.716991
321.96598
107.47925
54.682187
24.967111
12.118796
6.7208648
4.5995678
3.7806121
3.4901037
3.4273435
3.4423812
3.5760426
3.8435381
3.9634168
4.0275192
4.0757187
4.1229861
4.1325755
4.0620944
3.8308713
3.7500464
3.7846614
3.967971
4.23796
4.4364707
4.6184677
4.6770541
308.08723
105.41723
54.870286
25.199491
12.207366
6.7180731
4.5629024
3.7330866
3.4418672
3.3795556
3.3957668
3.553243
3.8227269
3.9513153
4.0221845
4.0842694
4.115434
4.1172785
3.9983805
3.7786582
3.7274009
3.7757925
3.9884164
4.2565772
4.4429725
4.6176661
4.6121432
293.89349
102.21831
55.012069
25.484685
12.325124
6.727124
4.5307251
3.6806263
3.382893
3.3238163
3.3473444
3.518284
3.8066894
3.9433725
4.0209144
4.088224
4.1113965
4.0984207
3.9278315
3.7261221
3.6977968
3.7604093
3.9950492
4.2708047
4.4570511
4.5998435
4.5294414
279.6643
99.308546
55.289229
25.908429
12.501406
6.7624011
4.5230642
3.6631838
3.3591937
3.2947049
3.3167902
3.4872731
3.7885592
3.9386812
4.0348333
4.0931406
4.1060203
4.0581833
3.8441665
3.6779641
3.6658629
3.7612149
4.0279847
4.2871511
4.4614697
4.581087
4.4511759
265.22187
95.742149