/*--------------------------------*- C++ -*----------------------------------*\
| =========                 |                                                 |
| \\      /  F ield         | OpenFOAM: The Open Source CFD Toolbox           |
|  \\    /   O peration     | Version:  2406                                  |
|   \\  /    A nd           | Website:  www.openfoam.com                      |
|    \\/     M anipulation  |                                                 |
\*---------------------------------------------------------------------------*/
FoamFile
{
    version     2.0;
    format      ascii;
    arch        "LSB;label=32;scalar=64";
    class       volScalarField;
    location    "4";
    object      omega_0;
}
// * * * * * * * * * * * * * * * * * * * * * * * * * * * * * * * * * * * * * //

dimensions      [0 0 -1 0 0 0 0];

internalField   nonuniform List<scalar> 
62344
(
4.3895425
3.6317505
2.9959403
2.5411742
2.2493653
2.0760433
1.9784953
1.9283367
1.9043777
1.8953368
1.8896665
1.8896418
1.8902393
1.8898604
1.8920754
1.8944992
1.8972539
1.896545
1.8965717
1.9007513
1.9006697
1.9008749
1.9028799
1.9001649
1.905119
1.9043477
1.9079015
1.9225683
1.927363
1.932067
1.9467345
1.9631914
1.9707989
1.979175
1.9952988
2.0159651
2.0328983
2.0470345
2.0617615
2.088084
2.1108885
2.1481015
2.179351
2.2087077
2.2297036
2.2579964
2.2782781
2.3077888
2.3226973
2.3599635
2.4059968
2.4732822
2.5319472
2.5955079
2.609422
4.3915295
3.6368003
3.0033744
2.5487559
2.2558425
2.079966
1.9802575
1.9297676
1.9043158
1.8933884
1.8879452
1.887521
1.8869498
1.8857484
1.8865022
1.8879176
1.8910906
1.8892154
1.8870351
1.8908943
1.8893728
1.8895891
1.8919107
1.8900021
1.8914247
1.8883021
1.8932982
1.9064281
1.9079391
1.9090377
1.9235091
1.9415456
1.9479625
1.954427
1.9680859
1.988217
2.005939
2.0170152
2.0299592
2.0546851
2.0927339
2.1408507
2.1765151
2.2106781
2.24636
2.2857959
2.3073834
2.3228981
2.3563872
2.3928464
2.4406303
2.4762022
2.5324309
2.5802677
2.6306197
4.3936975
3.6429987
3.0109289
2.5559055
2.2631482
2.0846935
1.9843041
1.9328479
1.9053675
1.8951908
1.8896236
1.8884917
1.8877813
1.8875458
1.8876466
1.8882293
1.8913373
1.8904809
1.8883412
1.891373
1.8888968
1.8889368
1.8917396
1.8928445
1.8919872
1.8871408
1.8928519
1.9034213
1.9034493
1.9061335
1.9222077
1.9403372
1.9444335
1.9447647
1.9527779
1.9691035
1.9841833
1.9925411
2.0023264
2.0241273
2.0601859
2.0984156
2.135337
2.1747371
2.2212591
2.2679248
2.3019584
2.3334871
2.3807187
2.417812
2.4477509
2.4631819
2.4920832
2.536408
2.5882266
4.3955817
3.6485592
3.0186847
2.5633513
2.2696977
2.0892416
1.988848
1.9357182
1.9072669
1.8976839
1.8917355
1.8897549
1.8888058
1.8893152
1.8896563
1.8883275
1.8900282
1.8906073
1.8883556
1.8899774
1.8867386
1.8874455
1.8896837
1.892687
1.8906409
1.8857041
1.8930569
1.9019912
1.9016778
1.9063176
1.9245803
1.9422149
1.9438199
1.9403936
1.9446091
1.9582309
1.9712075
1.981689
1.993394
2.0119091
2.0453336
2.0784867
2.1138446
2.1420467
2.1868312
2.2285306
2.2710892
2.3263941
2.3841962
2.4353299
2.466688
2.4847085
2.4913978
2.5248242
2.5676597
4.3977449
3.6549799
3.0265782
2.5707589
2.2758886
2.0944976
1.9932279
1.9381373
1.9107773
1.8997651
1.8941252
1.8916842
1.8901005
1.8910634
1.8919718
1.8897036
1.8887616
1.890071
1.8893262
1.8900962
1.8866054
1.8869107
1.8874312
1.8905895
1.8885704
1.8855204
1.8953349
1.9022639
1.9007109
1.9057361
1.9231202
1.9404011
1.9440178
1.9405748
1.9433671
1.9567517
1.9682631
1.9755345
1.9839315
1.9981559
2.0238396
2.053786
2.0850354
2.1091991
2.1422924
2.1720015
2.2091342
2.2759667
2.3466047
2.4084362
2.4447347
2.4590396
2.4741608
2.4910757
2.5256755
4.4002792
3.6653952
3.0388648
2.5804693
2.2819306
2.0986214
1.9949857
1.9388836
1.9126207
1.899461
1.8951769
1.8926191
1.8914081
1.8922413
1.8936027
1.8924899
1.8901299
1.8908389
1.8913857
1.8929805
1.8898199
1.8890459
1.8873994
1.890764
1.8889155
1.8877862
1.8994537
1.9040294
1.900774
1.9039529
1.9191539
1.93589
1.9432445
1.9431781
1.9465194
1.9582632
1.9679992
1.9725779
1.9783807
1.9912077
2.0120456
2.035878
2.061255
2.0861808
2.1146692
2.1404468
2.1779482
2.2419437
2.2982583
2.3505673
2.3770453
2.3903956
2.4278896
2.4400338
2.47936
4.402293
3.6687135
3.0427688
2.5848621
2.2858383
2.1017791
1.9964599
1.940282
1.9139155
1.8994238
1.8959093
1.893213
1.8924632
1.892682
1.8939934
1.8938212
1.891895
1.8905001
1.8906796
1.893166
1.8906829
1.8890616
1.8857295
1.8890406
1.8872916
1.8885864
1.900855
1.9036407
1.8995251
1.9025459
1.9158442
1.9298446
1.941226
1.9461878
1.952002
1.96125
1.9674408
1.9714047
1.9755795
1.9880611
2.0067933
2.0247814
2.0453875
2.0688514
2.0944725
2.1272831
2.1767999
2.2245519
2.2796584
2.3150207
2.3522749
2.3811493
2.4064459
2.4194322
2.4294204
4.4042296
3.6734478
3.0484074
2.590383
2.2904236
2.1048145
1.9982566
1.9420219
1.913921
1.8999165
1.8959644
1.8934798
1.8932717
1.8930574
1.8939371
1.8943057
1.893952
1.8914277
1.8912682
1.8938783
1.8921233
1.8909804
1.8873877
1.8900773
1.8877088
1.8898917
1.9019599
1.903088
1.8983044
1.9023079
1.9148267
1.9251846
1.9378872
1.9489461
1.9597364
1.9696042
1.9739406
1.9786531
1.9834309
1.9950455
2.0125438
2.0254858
2.0428586
2.067365
2.0913759
2.124116
2.1790695
2.2257013
2.2739266
2.3054837
2.3539919
2.4002554
2.4245846
2.4508993
2.4448754
4.4060645
3.6780266
3.0539432
2.5958062
2.2946888
2.1076465
2.0004738
1.9435444
1.9135927
1.900727
1.895782
1.8933267
1.8935546
1.8934683
1.8937054
1.8940582
1.8949333
1.8927239
1.8922502
1.8936123
1.89173
1.8917493
1.8887376
1.8907695
1.8875841
1.8903013
1.9017421
1.9024453
1.8982354
1.9038341
1.9160272
1.9227315
1.9325277
1.9470132
1.965054
1.9793516
1.9870814
1.9948149
2.0013234
2.0104592
2.0261101
2.0389618
2.0541402
2.0743762
2.0959398
2.1225698
2.1713291
2.2205809
2.2576517
2.2986089
2.3388996
2.3960828
2.4268791
2.4721592
2.484153
4.4077382
3.6824308
3.0593453
2.6009298
2.2984599
2.1104976
2.0028079
1.9442856
1.9133609
1.9013038
1.8955978
1.8930254
1.8934961
1.8938817
1.8938439
1.8942091
1.8955433
1.8945091
1.8942303
1.8945317
1.8919981
1.8927938
1.8907915
1.8924761
1.8881706
1.8903179
1.9010654
1.9020674
1.898888
1.9067129
1.9187538
1.9227101
1.9283622
1.9442646
1.965607
1.9851462
1.9962544
2.0067103
2.0188626
2.0316135
2.0469114
2.0572853
2.0670891
2.0868216
2.1080905
2.1348671
2.1663857
2.2098439
2.238836
2.2729184
2.2994183
2.3498962
2.3880596
2.4437099
2.4786829
4.4092787
3.6866
3.0645765
2.6056725
2.3017703
2.1135968
2.0048397
1.944635
1.9139123
1.901794
1.8952496
1.893016
1.893221
1.8939072
1.893888
1.8940968
1.8956453
1.8953733
1.895318
1.8949284
1.8922047
1.8930978
1.8923748
1.8941476
1.8891175
1.8906189
1.9004405
1.9018587
1.9003068
1.9095069
1.9212374
1.9232076
1.9257926
1.9402015
1.9629314
1.9827192
1.9942551
2.0054003
2.0223006
2.0435733
2.0593187
2.0667534
2.07468
2.0911554
2.111701
2.1378704
2.1690786
2.2018678
2.222072
2.245473
2.2616057
2.2878486
2.3342692
2.3647678
2.4153996
4.4107173
3.6907168
3.0698959
2.6104628
2.3052429
2.1172694
2.0069248
1.945342
1.9152413
1.9027974
1.8951963
1.8934907
1.8936739
1.8940785
1.8942141
1.8942477
1.8958263
1.8957996
1.8961634
1.8954623
1.8928649
1.8935083
1.8936875
1.8953548
1.89013
1.8913294
1.8999589
1.9017428
1.9019115
1.9121534
1.9235506
1.9239964
1.924354
1.9371498
1.9593157
1.9761216
1.985523
1.9946728
2.0124125
2.0397446
2.0601161
2.0672076
2.0742507
2.0836474
2.0975489
2.1245285
2.1608302
2.193204
2.2106299
2.2249075
2.2406784
2.2572098
2.2803772
2.2867342
2.315979
4.4121307
3.694853
3.0752827
2.6154566
2.3093958
2.1213854
2.0092836
1.9468296
1.9172895
1.9043858
1.8955875
1.8944531
1.8948925
1.8943903
1.8945757
1.8947108
1.8958806
1.8958863
1.8967547
1.8958245
1.8934726
1.8939907
1.8945201
1.8959529
1.8911915
1.892376
1.8996604
1.9011509
1.9029036
1.9136668
1.9248226
1.9247789
1.9236886
1.93458
1.955428
1.9698332
1.975052
1.980531
1.9958721
2.0240802
2.0494059
2.0585211
2.0636486
2.0696887
2.0816284
2.1072803
2.1430699
2.1730873
2.1925003
2.206476
2.2215019
2.2332529
2.2473882
2.2523921
2.2701235
4.413485
3.6988541
3.080504
2.6205113
2.3139372
2.1255332
2.0118706
1.9490462
1.9194206
1.9061467
1.8965022
1.89584
1.8965724
1.8949537
1.8953323
1.896103
1.8962249
1.895865
1.897379
1.896541
1.894412
1.8945908
1.8950498
1.8960895
1.8921166
1.8935034
1.8993619
1.900266
1.9031101
1.9147544
1.926116
1.92648
1.9239942
1.9327702
1.952636
1.9669627
1.9717718
1.9761036
1.9872956
2.0118832
2.0375281
2.0502682
2.0548288
2.0627124
2.0746604
2.092299
2.1168221
2.1435838
2.1675682
2.1880993
2.20799
2.2227942
2.2333775
2.2437545
2.2545441
4.4148398
3.7027948
3.0854897
2.6253027
2.3184973
2.1290919
2.0143643
1.951438
1.9210969
1.9077052
1.8976316
1.8971242
1.8983927
1.8957322
1.8961667
1.8980949
1.8970213
1.8959035
1.8978964
1.8975085
1.895506
1.8951616
1.8952594
1.896169
1.8931025
1.8946435
1.8991715
1.8992426
1.9026598
1.9148943
1.9268565
1.9279263
1.9253473
1.9327692
1.9522156
1.9689884
1.9766961
1.9814126
1.9921906
2.0130775
2.0349874
2.0511698
2.0585731
2.0662697
2.0759576
2.0926161
2.1143185
2.1381467
2.1630001
2.1850734
2.2053256
2.2242869
2.2328289
2.2581066
2.2681421
4.4161621
3.7064757
3.0899728
2.6296054
2.3224391
2.1317843
2.0163235
1.9533167
1.9220134
1.9084914
1.898458
1.8978376
1.8996669
1.896463
1.8969223
1.899983
1.8980313
1.895998
1.8983362
1.8986103
1.8967246
1.8958449
1.8954862
1.8962251
1.8938993
1.8956983
1.8991186
1.8984684
1.9020447
1.91425
1.9267252
1.9298053
1.9282559
1.935377
1.9543027
1.9738861
1.9889138
1.9978142
2.0112128
2.031478
2.0484202
2.0654222
2.0770206
2.081049
2.0901549
2.1080187
2.1297997
2.1504568
2.1711753
2.1942806
2.2144597
2.2321241
2.2409836
2.2719246
2.2856307
4.4175378
3.7101669
3.0941514
2.6334455
2.3256775
2.1337185
2.0179187
1.954652
1.9223921
1.9086811
1.8992028
1.8981732
1.9003662
1.8973106
1.8977124
1.9013268
1.8990997
1.8963848
1.8987437
1.8995693
1.8977648
1.8965404
1.8959969
1.8963587
1.8946707
1.8969057
1.8995116
1.8982788
1.9015278
1.9130886
1.9257035
1.9314911
1.9323466
1.9402273
1.9583534
1.9802761
2.001055
2.0143307
2.0352089
2.0608441
2.0774683
2.0938374
2.1094239
2.1144385
2.1200042
2.1415506
2.1666823
2.1855233
2.2038057
2.2238425
2.2400151
2.2555503
2.2639925
2.2874258
2.2991782
4.418827
3.7133291
3.097772
2.6367124
2.328329
2.1351024
2.0191007
1.955308
1.9225033
1.9082923
1.8997586
1.8979746
1.9001268
1.8976305
1.8980656
1.9016617
1.8999324
1.8970703
1.8991351
1.900236
1.8985527
1.8971996
1.896648
1.8963801
1.8951019
1.8978083
1.8997483
1.8979891
1.9006824
1.9111575
1.9233668
1.931312
1.9355616
1.945405
1.9624849
1.9841782
2.0094785
2.0266508
2.0533682
2.0842378
2.1004749
2.1181715
2.141218
2.1517248
2.1608004
2.1822815
2.2065299
2.2223913
2.2313584
2.2458227
2.2665044
2.2834081
2.289918
2.2961871
2.3014959
4.4202278
3.7167919
3.1016296
2.6400837
2.330973
2.1370098
2.020804
1.9564998
1.9234962
1.9086273
1.9011131
1.8987961
1.9005121
1.8987987
1.899229
1.9022506
1.9013574
1.8987334
1.9002772
1.9012874
1.8997635
1.8986968
1.8985183
1.8976944
1.8969046
1.9000372
1.9016163
1.8998256
1.9016431
1.910481
1.9213618
1.930853
1.9384102
1.9503653
1.9661243
1.9869111
2.0126448
2.0316242
2.0603889
2.0950801
2.1171037
2.1366841
2.1620755
2.1815217
2.1922105
2.209912
2.235623
2.2507277
2.254883
2.2642554
2.2807642
2.2955182
2.3000702
2.3011685
2.3042791
4.421481
3.7197198
3.1054284
2.644136
2.3351007
2.1415533
2.0254351
1.9607716
1.9279744
1.912476
1.9056108
1.9028709
1.9038162
1.9028012
1.9030027
1.9052229
1.9051471
1.9029517
1.9038732
1.9043548
1.9027602
1.9016253
1.9015789
1.9000288
1.8995471
1.9030877
1.9044891
1.9025482
1.9037529
1.9111861
1.9204815
1.9310982
1.9423557
1.956422
1.9718983
1.9899268
2.0120593
2.033954
2.06288
2.0999669
2.1265383
2.1463804
2.1750991
2.2017898
2.218274
2.2374413
2.2620472
2.2771121
2.2791552
2.2815469
2.2892327
2.299961
2.3079409
2.3123136
2.3137104
4.423069
3.7244633
3.1127797
2.6534452
2.3462547
2.1550735
2.0400213
1.9754125
1.9435123
1.9274452
1.920962
1.9180782
1.9182474
1.917696
1.917731
1.9191628
1.9197868
1.9179664
1.9183902
1.9184235
1.9165925
1.9154337
1.9153678
1.9125291
1.9117553
1.915639
1.916743
1.9143827
1.9153477
1.9220186
1.9297403
1.9399843
1.9536754
1.970265
1.9851162
1.9980181
2.0170402
2.0403864
2.0689644
2.1079006
2.1370035
2.1563831
2.1841723
2.214786
2.2406187
2.2617462
2.2814982
2.2924108
2.294855
2.2952227
2.2990568
2.3050743
2.3137509
2.3176816
2.3166939
4.4252408
3.7349064
3.1330924
2.6822653
2.3819555
2.1962494
2.0835035
2.0195141
1.9886319
1.9722313
1.9661936
1.9630235
1.9627132
1.9624682
1.962165
1.9625422
1.9635725
1.9619935
1.961863
1.9611499
1.9584454
1.9569321
1.9566774
1.9520684
1.9502783
1.9538498
1.9531854
1.949161
1.9490135
1.9549676
1.9612093
1.9709912
1.9864845
2.0050303
2.019095
2.0276781
2.0436521
2.0672137
2.0973768
2.1385227
2.1694156
2.1926932
2.218196
2.2549728
2.2913723
2.319306
2.3356627
2.342957
2.3450889
2.3440176
2.346169
2.3493883
2.3563264
2.3643683
2.3669718
4.4352864
3.7781569
3.2028883
2.76338
2.465908
2.2865379
2.1730804
2.1060091
2.0784597
2.0625322
2.0531618
2.0533888
2.0557182
2.0538875
2.0535317
2.0560488
2.0585213
2.0560186
2.0565696
2.0568312
2.0541582
2.0511434
2.0498998
2.043191
2.0410599
2.0452522
2.0446005
2.0385693
2.0348695
2.0387368
2.043059
2.0507854
2.0650101
2.0828307
2.0940091
2.0998782
2.1092601
2.1290062
2.1572182
2.1918401
2.2223389
2.2451859
2.2703904
2.3004468
2.3381261
2.372449
2.39235
2.3993579
2.3988369
2.3961715
2.3943575
2.393059
2.3976946
2.4052787
2.4050497
4.4529481
3.8506228
3.3580608
3.0085864
2.7707849
2.645454
2.5505119
2.479471
2.4601248
2.4500314
2.4261575
2.4313231
2.445059
2.4326108
2.4289199
2.4405917
2.4412433
2.4299803
2.4317968
2.4365116
2.432098
2.4210539
2.4112684
2.3958331
2.3927795
2.398768
2.3996773
2.3876457
2.3703197
2.3715492
2.3794006
2.3890391
2.3984094
2.410012
2.4171221
2.4187958
2.4188159
2.4255319
2.4400349
2.4582186
2.478057
2.50522
2.5346362
2.5578633
2.586444
2.617449
2.637786
2.6385636
2.6257663
2.6179847
2.6122737
2.6120625
2.6099083
2.6071824
2.5849375
4.3971643
4.2071643
4.2541502
4.4574397
4.5885966
4.6495878
4.6466526
4.5863382
4.5548348
4.5384115
4.474699
4.470375
4.4952547
4.4472082
4.4134247
4.4349894
4.4181732
4.3815696
4.3750292
4.3897067
4.377586
4.3345468
4.2949428
4.2431704
4.2204476
4.2241755
4.2257324
4.1956799
4.1241454
4.1010303
4.1191902
4.135792
4.1295093
4.1238763
4.1187331
4.1199646
4.0977069
4.0484142
3.9847753
3.9389181
3.9325525
3.9756095
4.0276643
4.0575927
4.0523049
4.0338475
3.9989143
3.9512127
3.8586148
3.8116416
3.8042802
3.8043945
3.790148
3.7636572
3.6325765
6.1897741
8.167643
9.9308653
11.2613
11.871823
12.291002
12.374724
12.36227
12.426634
12.559691
12.380077
12.475401
12.713154
12.560551
12.507835
12.679475
12.636137
12.448574
12.491175
12.600285
12.665733
12.632838
12.583274
12.562723
12.566529
12.67263
12.798708
12.781995
12.693659
12.716555
12.860453
12.975161
12.971562
12.97485
12.973342
13.05286
13.021518
12.896171
12.70875
12.541593
12.506998
12.632306
12.771544
12.88707
12.854867
12.7258
12.492187
12.303395
12.047235
11.822887
11.7795
11.76333
11.729985
11.652065
11.02934
54.134741
54.173851
54.316474
54.555729
54.599505
54.574204
54.583096
54.591626
54.557247
54.760738
54.693165
54.739097
54.941318
54.870147
54.928151
55.157327
55.073412
55.058812
55.196419
55.361869
55.53982
55.593524
55.473135
55.799035
55.933614
55.860753
55.941207
56.230825
56.376711
56.42648
56.686079
57.020096
56.930377
56.548656
56.577882
57.157555
57.718439
57.607772
56.786285
56.047704
56.128873
57.029891
57.93553
58.383511
58.106051
57.348672
56.427479
55.953465
56.161992
56.752204
57.385331
57.924715
58.21909
58.267565
58.123249
59.49127
12.034737
3.7587441
2.6147512
2.4100676
2.3703119
2.3169879
2.3158835
2.3202346
2.3228015
2.3293055
2.321683
2.2939489
2.2723515
2.2911398
2.3498899
2.4545151
2.5189428
2.5150518
2.4752791
2.45264
2.4942116
2.5749181
2.6379151
2.637005
2.6556539
2.6447444
62.612362
13.165488
3.9768807
2.6528378
2.406369
2.368415
2.316522
2.3192793
2.3323461
2.3482552
2.3521977
2.3502163
2.3328862
2.3195857
2.3298438
2.376262
2.4651684
2.5269712
2.5260223
2.4907143
2.4655015
2.5084423
2.603263
2.6721846
2.6618046
2.6981257
2.6763963
66.350749
13.884011
4.0918166
2.6718571
2.3975382
2.3634773
2.3153047
2.3215471
2.3387988
2.362687
2.3710941
2.3707333
2.3648409
2.3585979
2.3652487
2.3910293
2.4683094
2.5362552
2.5462849
2.5232946
2.5039577
2.5436101
2.6403244
2.7118482
2.6951767
2.722866
2.7056988
70.871603
14.52068
4.172505
2.6853678
2.3888402
2.3578036
2.3129592
2.3217377
2.34248
2.3836653
2.4059362
2.4031865
2.3943754
2.3812745
2.3796809
2.3972436
2.4789306
2.5508186
2.5777101
2.5786252
2.5626468
2.5910826
2.6654309
2.7590105
2.7585785
2.7787195
2.7320035
76.219669
15.259524
4.3793426
2.7405921
2.3921209
2.3605504
2.3238619
2.3341892
2.3646692
2.4182286
2.4502837
2.4491011
2.4196446
2.3870211
2.3819993
2.4037225
2.4898807
2.5749835
2.6020659
2.6176995
2.6333431
2.6385401
2.678668
2.7950907
2.8180302
2.8483944
2.7847444
82.436835
16.104887
4.5855964
2.7692584
2.401008
2.3793327
2.3530809
2.3687528
2.4052943
2.454936
2.4801402
2.4707327
2.430664
2.3853943
2.3785911
2.4038282
2.4895608
2.580099
2.630869
2.6674328
2.6871932
2.6685919
2.692554
2.8146545
2.883682
2.9214564
2.8834112
88.795455
16.919087
4.8465085
2.8577074
2.4423736
2.4105159
2.3938973
2.406168
2.4371596
2.4702528
2.4848024
2.4748937
2.4432009
2.3842445
2.376096
2.4014342
2.4886471
2.5908717
2.6752226
2.7232765
2.7118623
2.681993
2.7051182
2.8289524
2.9244948
2.9782775
2.9841954
94.635046
18.256619
5.2196322
2.9510942
2.5014875
2.446207
2.4279975
2.4348861
2.4563044
2.4798972
2.4926657
2.4826666
2.4506228
2.3901872
2.3871751
2.4160672
2.5064076
2.6157982
2.7190063
2.7538948
2.7271678
2.6990229
2.7180482
2.8246135
2.9669415
3.0335638
3.0670169
99.94176
19.792057
5.6456138
3.0775077
2.5676849
2.4890295
2.4609488
2.4612197
2.47851
2.5145338
2.5257653
2.5079967
2.4669175
2.4192578
2.4139451
2.4459005
2.535771
2.6493811
2.7515277
2.7688829
2.7460954
2.7165198
2.7250938
2.8335347
3.0252593
3.0878463
3.1271656
105.39253
21.225518
6.0398923
3.1744734
2.6066832
2.5352078
2.5167597
2.5113806
2.5178316
2.5454774
2.5657971
2.5507274
2.4996138
2.460915
2.4578189
2.4871745
2.567006
2.6778233
2.7674963
2.8059747
2.7880497
2.747919
2.7442502
2.8553336
3.0872617
3.1579976
3.1848712
112.6554
21.953015
6.2038187
3.2250939
2.6243708
2.5624516
2.5571933
2.5596789
2.5620264
2.5767718
2.6055752
2.5942728
2.5432394
2.5098826
2.5039022
2.5307741
2.5960179
2.7035966
2.7958624
2.8461228
2.8379555
2.7922294
2.7719421
2.8870451
3.143699
3.1971867
3.2297205
122.31602
22.895468
6.4150921
3.290151
2.635068
2.5682298
2.5723504
2.5893667
2.5967237
2.6167534
2.6434235
2.6406782
2.6083567
2.5626262
2.5371018
2.551349
2.612592
2.7274438
2.8346728
2.8899301
2.8891932
2.8468741
2.8334943
2.9365297
3.1667447
3.2270378
3.2733763
133.65525
24.44841
6.7604915
3.3796768
2.6591722
2.5782177
2.5936812
2.6208637
2.6461091
2.6692909
2.6936385
2.6975306
2.6749091
2.6128036
2.5571897
2.5576625
2.6226883
2.7471152
2.8653341
2.937606
2.9426975
2.917405
2.9168164
2.9904923
3.1623057
3.2770564
3.3096376
145.10017
27.08408
7.4801522
3.6083484
2.7433344
2.635352
2.6617592
2.7003798
2.7238837
2.7304955
2.7449001
2.7496776
2.7097695
2.63436
2.5853618
2.5798715
2.6318391
2.7419075
2.8618834
2.9667629
3.0156754
3.0212286
2.9857376
3.028806
3.1642228
3.3295588
3.3677824
154.64675
29.611239
8.2664631
3.8800374
2.8848248
2.7381101
2.7517704
2.7855424
2.785598
2.771586
2.7653037
2.7689331
2.7251489
2.6572772
2.6097368
2.604855
2.6389245
2.7392848
2.8771086
3.0122972
3.091995
3.1046832
3.0309472
3.0515546
3.1632054
3.3737413
3.4602407
162.05089
31.608135
8.8474404
4.0490233
2.9835703
2.8168999
2.8173873
2.8409415
2.8273731
2.807949
2.795271
2.7877454
2.7526855
2.6823989
2.630902
2.6188213
2.6528246
2.7590361
2.9096782
3.0743503
3.158301
3.1531059
3.0624562
3.0656221
3.1601144
3.4181633
3.5217712
168.58641
33.039833
9.2664624
4.1999055
3.0650643
2.8790121
2.8799949
2.9106437
2.9101203
2.889742
2.8396307
2.8179822
2.7956314
2.7453052
2.6577329
2.6343137
2.6856398
2.8039844
2.9629013
3.1419578
3.2163636
3.1999632
3.0899299
3.0615401
3.1567571
3.4346544
3.5530093
178.02904
34.225768
9.8035974
4.4131404
3.1725438
2.9592015
2.9585283
3.016958
3.0281432
3.0144177
2.927918
2.881901
2.8697421
2.8178324
2.7134483
2.6882699
2.7400922
2.8735161
3.0403955
3.1827639
3.2418875
3.2320626
3.1268154
3.0675014
3.161294
3.4490816
3.5826346
192.5218
36.837581
10.640046
4.6192049
3.2410256
3.0237381
3.0373523
3.1053935
3.1496188
3.1393021
3.0363096
2.9622716
2.951954
2.9054643
2.8212566
2.7792875
2.823267
2.9445317
3.1158436
3.2314734
3.2697161
3.2562294
3.1738635
3.0809794
3.1823118
3.4624919
3.6240652
211.91199
41.591151
11.936549
4.9943203
3.3582088
3.0658444
3.0841287
3.1701703
3.2219901
3.2063339
3.1167169
3.0464573
3.0474727
3.0103988
2.9353554
2.880128
2.9053505
3.0258682
3.1839387
3.2811309
3.3160579
3.3031713
3.2528191
3.132106
3.2190099
3.4734475
3.6619055
232.65729
47.296983
13.498649
5.5231132
3.528803
3.1344393
3.132264
3.2221248
3.3080527
3.3258062
3.2647778
3.1514903
3.1328645
3.0943075
3.015593
2.9319459
2.9493772
3.0852513
3.2237237
3.3189348
3.3775289
3.3784626
3.3535539
3.2254761
3.2812338
3.4877765
3.6833263
251.29384
53.448478
15.33541
6.1266677
3.7226958
3.221432
3.2291418
3.3540299
3.4797596
3.4981916
3.4080936
3.2575012
3.1998037
3.1531614
3.0669578
2.9637954
2.970911
3.0995327
3.2378932
3.3450727
3.4530624
3.4886414
3.4773322
3.3417525
3.3576956
3.5282906
3.7316963
265.4451
58.447309
16.996291
6.6952315
3.9996982
3.4175846
3.3996717
3.5025717
3.6598864
3.6883292
3.5382127
3.3371461
3.2445838
3.2038223
3.1115775
2.9899907
2.9779032
3.0937636
3.2389397
3.3682076
3.4900875
3.5640841
3.5834951
3.4625809
3.4493173
3.5879414
3.8190709
274.49146
60.582038
17.707489
6.8886272
4.149306
3.5971056
3.5958358
3.7278997
3.8301765
3.7914256
3.6070506
3.3871229
3.2747444
3.2372663
3.1517646
3.0108925
2.989611
3.0820539
3.2295751
3.3865536
3.5197488
3.6114548
3.6550942
3.5515188
3.5139101
3.6471309
3.9159529
278.46051
62.046771
18.576409
7.2519637
4.4100503
3.8401305
3.7934946
3.863369
3.9049662
3.8746764
3.7063829
3.4413828
3.3248205
3.2844215
3.1920349
3.0429512
3.0064209
3.0821524
3.2385212
3.4171687
3.5540186
3.6494362
3.7224184
3.6546406
3.5556961
3.6763708
3.9710466
284.10188
63.235129
18.998294
7.4583361
4.582553
4.0071617
3.9484608
4.0621762
4.1256208
4.0359225
3.8368927
3.5580115
3.4151638
3.3516963
3.2394387
3.0780243
3.0248204
3.0968801
3.2778776
3.4558345
3.5846588
3.6968251
3.7772994
3.7451501
3.6123524
3.6853072
3.9531034
296.37351
65.337753
20.025062
7.9282983
4.8811359
4.2909855
4.2212213
4.3180494
4.3722205
4.2915935
4.0440885
3.7027587
3.5078692
3.4216201
3.3041533
3.1385544
3.0742809
3.1453173
3.3486683
3.5139511
3.6420608
3.7432229
3.821509
3.8020042
3.6574684
3.686013
3.9000552
315.01013
69.57218
21.711655
8.6603699
5.1713272
4.5161795
4.4707295
4.5761866
4.5924065
4.5116881
4.2440192
3.8755171
3.628921
3.5067083
3.3846217
3.2421162
3.165997
3.2376286
3.4447613
3.6074061
3.6886645
3.7628573
3.8351061
3.841752
3.7000936
3.7019216
3.8666017
338.89013
79.260882
25.097794
10.028957
5.73887
4.7465617
4.6023467
4.6432594
4.6859785
4.6146797
4.3920534
4.0556677
3.7784555
3.6179578
3.525872
3.3894459
3.2880727
3.3549876
3.5542692
3.7114112
3.7503586
3.7926438
3.8516136
3.8769349
3.7534004
3.7218484
3.853946
365.2838
90.980958
29.344647
11.814335
6.3824568
4.9963506
4.6816239
4.682213
4.7178608
4.6883105
4.5410827
4.1981744
3.9373799
3.7833782
3.7060211
3.5270403
3.4072916
3.4603468
3.6605728
3.8086222
3.8362896
3.8661
3.9136765
3.9142201
3.795345
3.7554087
3.8600304
387.51143
100.31504
33.569167
13.705132
7.1987757
5.2966768
4.8107654
4.7518504
4.762025
4.7492555
4.6345104
4.3367304
4.0724134
3.9376773
3.8526929
3.6439989
3.5105034
3.5467817
3.7397564
3.9042195
3.9457689
3.9607828
4.0087551
3.9845058
3.8408604
3.7878081
3.8769865
403.21885
106.79121
37.153574
15.454098
7.9209063
5.5847079
4.9720752
4.8458224
4.849345
4.8442799
4.7284579
4.4510749
4.2036893
4.0619662
3.9549202
3.7246263
3.568052
3.5864307
3.7743581
3.9851247
4.0475121
4.0504967
4.098358
4.0709305
3.9222419
3.8426893
3.8998619
413.38265
110.47717
39.837936
16.75178
8.4888332
5.8303088
5.0861187
4.9387832
4.9317199
4.8879365
4.7897291
4.5459112
4.2895474
4.1432953
4.0188053
3.7835233
3.620956
3.6257106
3.7939868
4.0485192
4.1392315
4.1360084
4.1827191
4.1683035
4.020981
3.910634
3.9389286
419.36003
112.18012
41.597414
17.731699
8.9870621
6.1094103
5.2684597
5.0480512
4.9869977
4.8915516
4.7844983
4.578816
4.3443631
4.1706778
4.0357259
3.8305294
3.678978
3.6684404
3.8093464
4.0789502
4.1841877
4.1922944
4.2616791
4.2567603
4.1110312
3.9819229
3.9865785
421.18675
112.67368
42.358831
18.227193
9.2963618
6.316301
5.4100247
5.1093435
4.9791291
4.8764793
4.7239564
4.5359068
4.3445652
4.1936881
4.0596696
3.8733415
3.7273987
3.7133979
3.8223826
4.0879866
4.208323
4.2304356
4.2986584
4.3304446
4.1944055
4.0540603
4.04514
421.2732
113.18931
42.936848
18.624413
9.5218922
6.4473739
5.493124
5.1256153
4.9572355
4.827975
4.6499784
4.45946
4.3056205
4.2035729
4.1102413
3.8978039
3.7555337
3.7460101
3.8478548
4.1064663
4.2190284
4.2411749
4.307404
4.3637827
4.2772828
4.1343583
4.1140314
421.4356
113.56991
43.526837
19.046836
9.7817895
6.5813865
5.5450799
5.1140624
4.8892748
4.7403501
4.5786158
4.4116105
4.2768639
4.2041405
4.1107875
3.910174
3.788553
3.771704
3.8660972
4.1243361
4.2300365
4.241544
4.2897659
4.3710976
4.3283314
4.2207723
4.2027278
420.99134
113.96426
43.651932
19.177829
9.8856618
6.6229746
5.5285258
5.042061
4.7937254
4.6288172
4.4787524
4.3353766
4.2574856
4.1945318
4.1031677
3.929529
3.8193671
3.8021939
3.8808887
4.1498915
4.2533385
4.2490867
4.2773157
4.3525059
4.3439801
4.2927688
4.2967145
420.89409
114.64808
44.323876
19.519796
10.033559
6.6478742
5.4921492
4.9906391
4.7454837
4.5661202
4.4097751
4.2818865
4.226121
4.1888483
4.1153139
3.9404678
3.8472888
3.8256003
3.9204993
4.1795872
4.2674002
4.2544531
4.2694802
4.3435078
4.3635673
4.3481995
4.3860537
419.7266
115.13804
45.188037
19.862452
10.142129
6.6684032
5.4540839
4.8899286
4.6097856
4.4409727
4.2960314
4.2246265
4.1966781
4.1909237
4.1195537
3.939108
3.8543992
3.8500982
3.9528153
4.2071462
4.274484
4.2523598
4.2598178
4.3260358
4.3588115
4.3875386
4.4507482
417.35887
116.3872
46.611655
20.499101
10.408866
6.7357115
5.4313035
4.8272385
4.5191786
4.3250408
4.2054522
4.1636709
4.1769732
4.1728009
4.1048875
3.9472195
3.8828537
3.876884
4.0039129
4.2317763
4.2710894
4.2424661
4.2419631
4.3044473
4.3543258
4.4006239
4.5050848
413.17345
116.9505
47.622202
20.919307
10.581242
6.7676865
5.3861265
4.7367817
4.3853607
4.1827325
4.1048423
4.085803
4.1284997
4.1546903
4.1054286
3.9562806
3.9045348
3.9234942
4.0671281
4.234909
4.251429
4.2177045
4.2181676
4.2805133
4.3494712
4.422308
4.5557819
407.51373
118.55271
49.141125
21.511696
10.82277
6.8345952
5.3505003
4.6387483
4.2513826
4.0610311
4.0059139
4.0072275
4.0987983
4.1253267
4.0922499
3.9823454
3.9489056
3.961984
4.0987619
4.232379
4.228962
4.1835525
4.1781801
4.2476982
4.3438404
4.4402502
4.6182695
400.76227
118.17349
50.68876
22.28798
11.153018
6.9099857
5.3229899
4.5642954
4.1394922
3.9605419
3.9181037
3.925492
4.0512249
4.1007046
4.0782052
4.0076438
3.9896039
4.0099709
4.1419999
4.2275044
4.2055525
4.1314144
4.1282198
4.211767
4.3395021
4.4636885
4.6683308
393.51194
117.23855
51.489086
22.818144
11.412326
6.96098
5.2388035
4.4460712
4.0364283
3.8678521
3.8329997
3.8518929
3.9997708
4.0800174
4.0797179
4.0383277
4.027512
4.0666029
4.1730428
4.2151626
4.1506403
4.0631588
4.0653573
4.1854609
4.337714
4.4919992
4.6965123
385.01144
116.23309
51.983916
23.124397
11.520803
6.8934864
5.0776636
4.2807611
3.9081626
3.7708561
3.7449399
3.7924185
3.9689642
4.0656738
4.0788583
4.060322
4.0563848
4.116854
4.1784311
4.1934795
4.0759486
4.0003488
4.01398
4.1668448
4.3511715
4.5370629
4.7197262
374.77655
116.65161
52.993872
23.536939
11.660427
6.8907654
4.9744209
4.136091
3.7753494
3.6655599
3.6529887
3.7298794
3.9403629
4.0452585
4.0718509
4.0703031
4.0808981
4.1469723
4.1724205
4.1438606
3.9884643
3.9350984
3.9649283
4.1652708
4.3607903
4.5774187
4.7315629
362.66061
115.41056
54.644539
24.243609
11.858594
6.8985158
4.8976338
4.0245813
3.6716579
3.5802924
3.5733779
3.6797079
3.9109723
4.023341
4.0617894
4.0755094
4.1075944
4.1562875
4.1660387
4.0836151
3.9124029
3.8823169
3.9431249
4.1714929
4.3822587
4.6008978
4.7337798
349.27336
112.11909
54.842187
24.733317
12.083987
6.9078523
4.8317219
3.9483319
3.6023794
3.5196694
3.5204049
3.6299287
3.8753724
3.998331
4.0492559
4.0730363
4.122924
4.1534138
4.1425942
4.0016809
3.8480295
3.8379471
3.9375307
4.1966773
4.4092822
4.6206358
4.7296832
335.37293
109.83693
54.691519
24.883663
12.119048
6.8163539
4.714417
3.857607
3.5343653
3.4592891
3.4685087
3.5941389
3.8545631
3.9781412
4.0330551
4.072368
4.1273566
4.1475432
4.1120482
3.9136978
3.7956885
3.8037974
3.9509672
4.2250369
4.4295945
4.6335711
4.7064966
321.39472
108.11628
54.734954
24.986583
12.137057
6.7383825
4.605893
3.7801744
3.4867207
3.4224219
3.4349494
3.5637097
3.8335172
3.9575427
4.0244095
4.0758663
4.1268255
4.141699
4.0749513
3.8377351
3.7499161
3.7826639
3.9708217
4.2473078
4.446639
4.6196735
4.6563034
307.50342
106.10459
54.974984
25.249655
12.242234
6.7450043
4.5774611
3.7361367
3.4376992
3.3721508
3.3842717
3.5371232
3.8103734
3.9442915
4.0186754
4.0856392
4.1208221
4.1283127
4.0116987
3.7830485
3.7263938
3.7723845
3.9909075
4.2653319
4.4512316
4.6165974
4.5786532
293.4124
102.88406
55.151452
25.561542
12.373309
6.7586409
4.5488961
3.6865928
3.3792939
3.3156795
3.3346865
3.4994953
3.7919481
3.9353524
4.0172325
4.0908056
4.1204332
4.1103953
3.9401116
3.7256256
3.6918806
3.7566631
3.9995534
4.2807836
4.4639913
4.5885396
4.4852753
279.43822
100.06595
55.520903
26.055616
12.583973
6.8094694
4.5480256
3.673541
3.3593113
3.2895568
3.3049023
3.4655777
3.7688833
3.928183
4.0340888
4.0984279
4.1160716
4.0687226
3.8528196
3.6723589
3.6569563
3.7554202
4.0349944
4.2966567
4.4628745
4.5573191
4.3949865
265.3752
96.57789
55.996899
26.866681