/*--------------------------------*- C++ -*----------------------------------*\
| =========                 |                                                 |
| \\      /  F ield         | OpenFOAM: The Open Source CFD Toolbox           |
|  \\    /   O peration     | Version:  2406                                  |
|   \\  /    A nd           | Website:  www.openfoam.com                      |
|    \\/     M anipulation  |                                                 |
\*---------------------------------------------------------------------------*/
FoamFile
{
    version     2.0;
    format      ascii;
    arch        "LSB;label=32;scalar=64";
    class       volScalarField;
    location    "4";
    object      omega_0;
}
// * * * * * * * * * * * * * * * * * * * * * * * * * * * * * * * * * * * * * //

dimensions      [0 0 -1 0 0 0 0];

internalField   nonuniform List<scalar> 
96472
(
3.7474192
3.156301
2.608565
2.207992
1.9737508
1.8529745
1.7974174
1.7740371
1.7649495
1.761563
1.76007
1.7589316
1.7579023
1.7571751
1.7568567
1.756929
1.7571322
1.7573011
1.7572072
1.7565672
1.7552644
1.7535446
1.7518368
1.7505584
1.7496513
1.7494279
1.7503592
1.7517729
1.7532425
1.7552217
1.7574023
1.7596734
1.7619259
1.7641222
1.7662925
1.7691288
1.7730034
1.7769117
1.781697
1.7870103
1.7944562
1.8018994
1.811768
1.8207669
1.8333346
1.8457591
1.8614957
1.8775711
1.8976381
1.9155821
1.9387844
1.9629667
1.9849439
2.0132932
2.0558095
3.7482355
3.1613164
2.6156015
2.2140015
1.9777626
1.8554071
1.7987767
1.7749061
1.7656178
1.7622224
1.7606855
1.7595522
1.7586084
1.7579101
1.7576351
1.7577258
1.7580313
1.7582888
1.7581613
1.7573144
1.7556972
1.7535767
1.7513322
1.7493644
1.7478932
1.7470933
1.7470741
1.7477771
1.7490689
1.7511154
1.7538119
1.7569382
1.7603495
1.7635261
1.7677973
1.771442
1.7757803
1.7792253
1.783973
1.7875301
1.7941906
1.798886
1.807885
1.8154134
1.8251604
1.8382525
1.8476153
1.8668007
1.8783191
1.9018372
1.914495
1.9398129
1.9618848
1.9793318
2.0197469
3.7494876
3.1646295
2.6200016
2.2179284
1.9805979
1.8572004
1.7999309
1.7757101
1.7662875
1.7628544
1.7613538
1.760253
1.7593331
1.7586683
1.7583867
1.7584906
1.7588152
1.7591271
1.7591099
1.7583227
1.7566537
1.7544945
1.7521903
1.7501293
1.7485274
1.7474751
1.7471006
1.7473124
1.7479444
1.7489578
1.7505342
1.7523579
1.7554677
1.75868
1.7640953
1.7685167
1.774781
1.7791033
1.7856623
1.7899613
1.7957045
1.8010508
1.806416
1.8159582
1.8218923
1.8343654
1.8414072
1.8580787
1.8670063
1.8874156
1.902054
1.9179686
1.9438252
1.9579262
1.9917324
3.750477
3.1689056
2.6257901
2.2227794
1.9838218
1.859111
1.8010438
1.776409
1.766805
1.7633243
1.7618209
1.7607397
1.7597992
1.7591257
1.7588455
1.7589437
1.7593062
1.7596494
1.759709
1.7590632
1.7574521
1.7552888
1.7529711
1.7508777
1.7492314
1.7481416
1.7476623
1.7477445
1.7481934
1.7491041
1.7502281
1.7516653
1.7537903
1.7557667
1.7591555
1.7624926
1.7687843
1.7735101
1.7813713
1.7876452
1.7934924
1.801291
1.8058019
1.8152756
1.8203761
1.831739
1.837681
1.8513902
1.8596926
1.8716829
1.8899929
1.9005544
1.9229913
1.9355272
1.9648795
3.751479
3.1729681
2.6312394
2.2274185
1.9869754
1.8610242
1.8021767
1.7771648
1.7673864
1.763883
1.7623631
1.761315
1.7604171
1.7597252
1.7594693
1.7595721
1.7599643
1.76034
1.7604239
1.7598667
1.7583074
1.7561161
1.7537136
1.7515235
1.7497609
1.7485573
1.7480065
1.748067
1.7484693
1.7495461
1.7504047
1.7518998
1.75363
1.7554142
1.7579566
1.7609548
1.764193
1.7689272
1.7731796
1.7811412
1.7863197
1.7967348
1.8019459
1.8122041
1.8172389
1.8285145
1.8344355
1.8445003
1.857312
1.8644883
1.8801487
1.8889878
1.9070174
1.917304
1.9411658
3.7523265
3.1769823
2.6367887
2.2321326
1.9901511
1.8629218
1.8032972
1.777892
1.7679392
1.7643878
1.7628976
1.7618622
1.760985
1.7602915
1.7600231
1.7601435
1.7605446
1.7609848
1.7611329
1.7606543
1.7591809
1.7570006
1.7545348
1.7522318
1.7503456
1.7490065
1.7483152
1.7482371
1.7485195
1.7495893
1.7503777
1.7521133
1.7536306
1.7556452
1.7576706
1.7605398
1.7632696
1.7674332
1.770739
1.7766825
1.7806128
1.7885849
1.7935432
1.8038294
1.8097474
1.8189804
1.8302371
1.8369473
1.8508326
1.858235
1.8733257
1.8811192
1.8969841
1.9056876
1.925316
3.7530063
3.1815559
2.6430721
2.2373512
1.9935792
1.8649241
1.8044677
1.7786289
1.7685154
1.7648948
1.7634174
1.7624156
1.7615604
1.7608898
1.7606086
1.7607394
1.761146
1.7616282
1.761872
1.7614889
1.7601041
1.7579679
1.7554662
1.7530641
1.7510429
1.7495578
1.7487157
1.7484695
1.7486805
1.7495253
1.7502286
1.7520014
1.7534071
1.7555768
1.7574482
1.7603808
1.7629392
1.7668416
1.7698227
1.775181
1.7785954
1.7842967
1.7891794
1.7946437
1.8037859
1.8091663
1.8207742
1.8270388
1.8403144
1.8473584
1.8620076
1.8696427
1.8856426
1.8941956
1.9124024
3.7540831
3.184809
2.6476385
2.2415284
1.9965853
1.8668008
1.8055783
1.7793449
1.7690515
1.7654069
1.7639268
1.7629734
1.7621534
1.7614927
1.7612151
1.7613525
1.7617971
1.762285
1.7625939
1.7623354
1.7610578
1.7589705
1.7564628
1.7539813
1.7518507
1.7502133
1.7492446
1.7487942
1.7489655
1.7494891
1.7502765
1.7518827
1.7529716
1.7551803
1.7571408
1.7600134
1.7624729
1.7660102
1.7690206
1.7728614
1.7775037
1.7810532
1.7872657
1.7910941
1.7986986
1.8032074
1.8126137
1.8180207
1.8294676
1.8358287
1.8493102
1.8568097
1.871823
1.8798119
1.8975471
3.7544687
3.1897456
2.6546371
2.2472386
2.0002311
1.8688872
1.8067625
1.780092
1.7696086
1.7659194
1.7644306
1.7634985
1.762716
1.7620792
1.7618182
1.7619519
1.7624273
1.7629625
1.7633118
1.7631632
1.7620246
1.7600182
1.7575319
1.7550037
1.7527661
1.7510085
1.7498602
1.7492486
1.7493199
1.7495721
1.7504531
1.7517585
1.7527813
1.7548735
1.7567954
1.75926
1.7618717
1.764706
1.7683976
1.771394
1.7761778
1.7793691
1.7852068
1.7886345
1.7952846
1.7990685
1.8069949
1.8116322
1.821346
1.8270286
1.8387645
1.8451152
1.8585613
1.8658549
1.882355
3.7549393
3.1941448
2.6608748
2.2524332
2.0036354
1.8708654
1.8079014
1.7807971
1.7701401
1.766397
1.7649384
1.7640383
1.7632792
1.7626673
1.7624107
1.7625611
1.7630563
1.7636679
1.76407
1.7639976
1.7629892
1.7610847
1.758641
1.7560761
1.7537707
1.7519022
1.7506081
1.7498376
1.7497702
1.7498609
1.7506748
1.7516478
1.7529463
1.7545145
1.7564788
1.7585332
1.7612364
1.7638578
1.7673903
1.7702235
1.7746423
1.7777024
1.7830648
1.7862111
1.7922906
1.795751
1.8028594
1.8068364
1.8155391
1.8202215
1.8305303
1.836217
1.8481602
1.8546175
1.8689523
3.7555629
3.1984171
2.6670243
2.2577054
2.0071685
1.8729466
1.8090912
1.7815269
1.7706748
1.7668775
1.7654187
1.7645618
1.763846
1.7632487
1.7630117
1.7631847
1.7636975
1.7643548
1.764848
1.7648594
1.7639708
1.7621652
1.7597947
1.7572242
1.7548594
1.7528793
1.7514728
1.7505578
1.7503509
1.7503058
1.7509567
1.7517114
1.7530323
1.7542985
1.7562327
1.7581032
1.7607139
1.7632143
1.7664417
1.7690906
1.7732734
1.7761658
1.7811454
1.7841643
1.7897918
1.7929761
1.7993974
1.8030925
1.8106875
1.8150906
1.8242885
1.8293487
1.8396414
1.8452648
1.8575662
3.7567574
3.2013788
2.6711011
2.2615997
2.0100881
1.8748167
1.8101983
1.7822363
1.7711881
1.7673516
1.765896
1.7650736
1.7644079
1.7638317
1.7636078
1.763801
1.7643476
1.7650268
1.7656024
1.7657193
1.7649587
1.7632528
1.7609573
1.7584194
1.7560258
1.7539747
1.7524428
1.7514082
1.7510571
1.750879
1.7513502
1.7519435
1.7531367
1.7542418
1.7560714
1.7578001
1.7601628
1.7625382
1.7655323
1.7680763
1.7719666
1.77472
1.7794332
1.7822835
1.7874515
1.790429
1.7963846
1.7998312
1.8069385
1.8109479
1.8190581
1.8234857
1.8326317
1.8377096
1.8487635
3.7572719
3.2053989
2.6770339
2.2667375
2.013559
1.8768732
1.8113727
1.7829476
1.7717129
1.7678053
1.7663554
1.7655658
1.7649364
1.7644019
1.7641866
1.7644
1.7649972
1.765716
1.7663458
1.766574
1.7659407
1.7643556
1.7621443
1.7596443
1.757232
1.755121
1.7534792
1.752334
1.751861
1.7515902
1.7519156
1.7523695
1.753394
1.7543564
1.7560412
1.7575895
1.7598024
1.762007
1.7647964
1.7672124
1.7708273
1.7735016
1.7778549
1.7805489
1.7854426
1.7882402
1.7938647
1.7969225
1.803504
1.807048
1.8145074
1.8186359
1.827034
1.8314257
1.8412501
3.7580913
3.2088525
2.6820327
2.271284
2.0167821
1.8788466
1.8125193
1.7836446
1.7722213
1.7682402
1.7667913
1.7660535
1.7654603
1.764951
1.7647626
1.7649908
1.7656286
1.7664207
1.7671031
1.7674063
1.7668994
1.7654581
1.7633456
1.7608739
1.7584586
1.756319
1.7546076
1.753353
1.7527604
1.7524119
1.7526292
1.752953
1.7538238
1.7546387
1.7561366
1.757505
1.7595462
1.7615596
1.7641477
1.7664521
1.7698273
1.7723563
1.7764176
1.7790393
1.7835904
1.7862263
1.7913576
1.7943383
1.80038
1.8036554
1.8106553
1.814256
1.8217673
1.8258282
1.8345859
3.7589155
3.2122679
2.6870204
2.2758483
2.0200394
1.8808574
1.8136732
1.7843359
1.7727046
1.768685
1.7672178
1.7665126
1.7659765
1.7654853
1.765331
1.7655738
1.7662378
1.7670798
1.7678583
1.7682648
1.7678671
1.766555
1.7645485
1.7621331
1.759698
1.7575205
1.755766
1.7544477
1.7537516
1.7533087
1.7534123
1.7536348
1.754364
1.7550393
1.7564046
1.7576266
1.7594738
1.7612701
1.7636549
1.7658361
1.7689222
1.771335
1.7751166
1.7776049
1.7817897
1.7843684
1.7891842
1.7918903
1.7974956
1.8004701
1.8067461
1.8101517
1.8170643
1.8209746
1.8289509
3.7594923
3.2160757
2.6926777
2.2808715
2.0234788
1.8829189
1.8148393
1.7850393
1.7731938
1.7691011
1.7676364
1.7669505
1.7664541
1.7659997
1.7658655
1.7661428
1.7668279
1.7677234
1.7685721
1.7690706
1.7687996
1.7676229
1.7657267
1.763379
1.7609718
1.7587742
1.7569686
1.7555832
1.7547953
1.7542699
1.7542727
1.7544141
1.7550414
1.7556238
1.7568445
1.7579182
1.7595925
1.7611896
1.763378
1.7654274
1.7682826
1.7706054
1.7741093
1.7764477
1.7803936
1.7827314
1.7872541
1.7898269
1.7947973
1.7976812
1.8033925
1.8065257
1.8129241
1.8164347
1.8238359
3.7602951
3.2195521
2.69778
2.2855246
2.0267849
1.8849427
1.815995
1.7857141
1.7736679
1.7694885
1.7680381
1.767387
1.7669283
1.7665188
1.7663923
1.7666899
1.7674409
1.7683398
1.7692686
1.7699059
1.7697496
1.7686979
1.7669028
1.7646362
1.7622501
1.7600379
1.7581784
1.7567196
1.7558372
1.7552313
1.7551567
1.7552084
1.7557522
1.7563086
1.7574168
1.7583699
1.759852
1.7612157
1.7631681
1.7651104
1.7677067
1.7698965
1.7732063
1.7754985
1.7792367
1.7815475
1.7857163
1.7880915
1.7927671
1.7952895
1.8005238
1.8031721
1.8091734
1.8123421
1.8190556
3.7605825
3.2237171
2.7041233
2.2910411
2.0304625
1.8870986
1.8171968
1.786409
1.7741416
1.769872
1.7683999
1.7677931
1.7673738
1.7669972
1.7669028
1.7672139
1.7679762
1.7689741
1.769926
1.7706223
1.7705946
1.7697183
1.76805
1.7658666
1.7635217
1.7613129
1.7594147
1.7578799
1.7569159
1.7562755
1.7561163
1.7560923
1.7565532
1.7569993
1.758057
1.7589915
1.7603466
1.7614988
1.763236
1.7650106
1.7673389
1.7694056
1.772483
1.7747304
1.7782585
1.7805404
1.7845959
1.786819
1.7913027
1.7936208
1.7980979
1.8007685
1.8062791
1.8091588
1.8152187
3.7612114
3.2273154
2.7095256
2.2959448
2.0338994
1.8891956
1.8183728
1.7870911
1.7745958
1.7702653
1.7687748
1.7681927
1.7678171
1.7674681
1.7674063
1.7676995
1.7685316
1.7695136
1.7705791
1.7714497
1.7715031
1.770723
1.7691681
1.767087
1.7647709
1.7625646
1.7606405
1.7590589
1.7579943
1.757295
1.7570645
1.7569783
1.757305
1.7576121
1.7585819
1.7595286
1.7607885
1.7618274
1.763395
1.7649874
1.7670874
1.769028
1.7717757
1.7738184
1.7771238
1.7792267
1.7829846
1.7853894
1.7891785
1.7921087
1.7957057
1.7990626
1.8033699
1.8067398
1.8121992
3.7613546
3.2315168
2.7161005
2.3016438
2.0376956
1.8914284
1.8196176
1.7878083
1.7750799
1.7706373
1.7691276
1.768568
1.7682277
1.7679024
1.7678568
1.7681819
1.7689858
1.7700995
1.7711718
1.7720722
1.7722779
1.7717075
1.7702846
1.7682941
1.766
1.7638034
1.7618581
1.7602417
1.7591264
1.7583434
1.7580094
1.7578814
1.7581426
1.7583257
1.7591938
1.760148
1.7613573
1.7622894
1.7637234
1.7651529
1.7671016
1.7689448
1.7714473
1.7733942
1.7763959
1.7784605
1.7819477
1.7841159
1.7876681
1.7907018
1.793543
1.7973847
1.8009954
1.804771
1.8092538
3.7614854
3.2357286
2.7228143
2.3076156
2.0416891
1.8937756
1.8209331
1.7885803
1.7756139
1.7710775
1.7695479
1.769007
1.7687113
1.7684195
1.7683956
1.768692
1.7695694
1.7705767
1.7718
1.7729308
1.7731702
1.7726191
1.7713057
1.7694888
1.7672798
1.7650934
1.7630912
1.7614107
1.760211
1.7593735
1.7589426
1.7587034
1.7588216
1.7589036
1.7596688
1.7606332
1.7617283
1.7624749
1.7637706
1.7650526
1.7668753
1.7685914
1.7708584
1.7727596
1.775453
1.7773572
1.7805898
1.7824597
1.7860213
1.7886433
1.7913795
1.7949611
1.7983726
1.8020312
1.8059108
3.7628532
3.2376759
2.7254377
2.3107468
2.0446143
1.8960678
1.8225447
1.7897272
1.7765053
1.7718641
1.7702911
1.7697457
1.7694689
1.7692025
1.7691758
1.7694866
1.7703213
1.7714551
1.7725948
1.7736946
1.7741693
1.7739009
1.7726903
1.7709018
1.7686834
1.7665495
1.7645187
1.7628477
1.7615268
1.760658
1.7600703
1.7598641
1.759939
1.7598248
1.7603161
1.7613514
1.7623968
1.7629969
1.7640752
1.7651596
1.7668166
1.768509
1.77069
1.7724655
1.775082
1.7769167
1.7797987
1.7817072
1.7850412
1.7871455
1.7898959
1.7935793
1.7962339
1.799696
1.8031584
3.7628322
3.2424826
2.7334258
2.3186713
2.0507687
1.9011093
1.826721
1.7933434
1.7798132
1.7750013
1.773337
1.7727693
1.7724429
1.7721603
1.7720784
1.7723009
1.7732058
1.7740453
1.7754103
1.7765787
1.7769166
1.7766236
1.7754393
1.7739015
1.7717074
1.7696004
1.7675049
1.7657957
1.7643573
1.7634457
1.7627387
1.7624234
1.7623217
1.7620569
1.7624482
1.7635458
1.7644543
1.7647891
1.7655968
1.7663697
1.7677825
1.7693017
1.7713392
1.7730637
1.7754163
1.7771857
1.7798082
1.7816237
1.7844838
1.7866326
1.788862
1.7925321
1.7944115
1.7980434
1.8004778
3.7623043
3.2486671
2.7467954
2.3376249
2.0707037
1.9236862
1.8497685
1.8157634
1.8015734
1.796329
1.7941691
1.7935288
1.7926669
1.7923928
1.7916314
1.7919431
1.792799
1.7927964
1.7942528
1.7943275
1.7950526
1.7954468
1.7940124
1.790812
1.7874486
1.7848336
1.7825479
1.7809016
1.7792912
1.7786202
1.7775454
1.7775899
1.7775649
1.7769452
1.7769917
1.778427
1.7794469
1.7795294
1.779578
1.7798392
1.7806059
1.7818196
1.7834077
1.7850824
1.7866841
1.7881549
1.7902378
1.7919607
1.7940829
1.7970049
1.7988533
1.8018721
1.803809
1.8076101
1.8087958
3.7617689
3.2923339
2.8363633
2.466839
2.2026559
2.0739014
2.001976
1.9632175
1.9448942
1.9382959
1.9336686
1.9339036
1.9317714
1.9327936
1.9302912
1.9331967
1.9351778
1.9315185
1.9355412
1.9312995
1.9338272
1.9392398
1.9395917
1.9302691
1.9199225
1.913715
1.9084869
1.9041309
1.8975429
1.8946581
1.886963
1.8855171
1.883421
1.8777157
1.875765
1.8773802
1.8770937
1.8748605
1.8694407
1.865526
1.8625764
1.8618383
1.8615638
1.861499
1.8611767
1.861062
1.8608259
1.8609758
1.8613339
1.8618803
1.8624695
1.8637443
1.8643854
1.8663021
1.8622549
3.9123031
3.6994984
3.5709654
3.4793162
3.3439092
3.3577042
3.3590406
3.3025528
3.2383593
3.2278049
3.2050184
3.2165974
3.2056047
3.230708
3.2092133
3.2553258
3.259473
3.2174841
3.2722598
3.2127986
3.2347935
3.3172187
3.376107
3.2784652
3.2115251
3.1546757
3.1497259
3.1277605
3.1029245
3.1043415
3.0332866
3.0550835
3.0387351
2.9785089
2.9599686
2.9925196
2.9932312
2.9621512
2.8799603
2.8300986
2.7806601
2.7630113
2.7377723
2.7247488
2.6950188
2.678212
2.6437982
2.6293936
2.6010149
2.5882514
2.5746977
2.5610342
2.5389456
2.5286395
2.4730563
11.285533
11.47676
11.710299
11.818092
11.865121
11.842181
11.822222
11.839325
11.869028
11.908261
11.951736
11.99972
12.05629
12.1037
12.164354
12.193424
12.255586
12.270756
12.301424
12.343846
12.325402
12.388362
12.421786
12.523483
12.524217
12.615862
12.593192
12.674312
12.631548
12.691545
12.642249
12.632707
12.654976
12.609147
12.566672
12.556116
12.559415
12.540842
12.513306
12.48692
12.443932
12.412491
12.375637
12.353194
12.324505
12.306335
12.281674
12.267357
12.246338
12.246235
12.219584
12.240878
12.213689
12.230177
12.224466
12.610334
2.6391578
1.8800699
1.8139155
1.8051895
1.8068865
1.8093771
1.8127017
1.8154716
1.8189436
1.8231525
1.8279622
1.8333774
1.8394198
1.8460502
1.8542122
1.8638087
1.8754336
1.889595
1.9055457
1.9211647
1.9347202
1.9500231
1.9743586
2.0026145
2.0320048
2.0647005
13.411996
2.9692706
1.9130516
1.8250168
1.8112161
1.8137361
1.8169063
1.8203847
1.8232491
1.8267289
1.8312531
1.8363517
1.8416602
1.847784
1.854333
1.8617582
1.8708533
1.8817955
1.8953538
1.911352
1.9276881
1.9417093
1.9570028
1.9804097
2.0102205
2.0414197
2.0683348
14.277033
3.0112291
1.9234387
1.8312456
1.8182303
1.8184758
1.8211643
1.8249704
1.8282225
1.8320702
1.8370715
1.8430458
1.8490364
1.8560485
1.8637284
1.8722915
1.8821674
1.8936274
1.9074313
1.9236706
1.9405155
1.9547219
1.9689792
1.991015
2.0199774
2.0549404
2.0774607
15.207371
3.0352731
1.9347144
1.8374327
1.8227053
1.8253499
1.8296161
1.833504
1.837304
1.8415412
1.8462956
1.8517781
1.8574252
1.8636027
1.8710399
1.8791876
1.8890089
1.9006119
1.9143637
1.931222
1.9493821
1.9655023
1.9798489
2.0015276
2.0299712
2.0695037
2.0928185
16.206302
3.0833165
1.9464217
1.8502968
1.8326649
1.8323463
1.8357132
1.8407455
1.8443382
1.8490078
1.8546706
1.861092
1.868009
1.8748307
1.8827936
1.8916832
1.901495
1.9128714
1.9260113
1.9420747
1.9601646
1.9768018
1.9907725
2.0107091
2.0373455
2.0788222
2.1045816
17.278834
3.2269816
1.9745389
1.8628456
1.839585
1.8423672
1.8456098
1.8496403
1.8534902
1.8581265
1.8634833
1.8695423
1.8761659
1.8831013
1.8910634
1.9003587
1.9108732
1.9226629
1.9366008
1.9527374
1.9714785
1.9894125
2.0038588
2.0229693
2.0461619
2.0892624
2.118306
18.433131
3.3694037
1.9981655
1.8777589
1.8522562
1.8510324
1.8540204
1.8594195
1.8631602
1.8678142
1.8738255
1.8801731
1.8868499
1.8944147
1.9022916
1.9113734
1.9219507
1.9335372
1.9471825
1.9633241
1.9822763
2.0013565
2.0160768
2.0347487
2.0556764
2.0965642
2.1295396
19.674389
3.6540839
2.0448344
1.8947561
1.8601575
1.8615204
1.8638973
1.8692331
1.8737505
1.878789
1.8847998
1.8913274
1.8979049
1.9053383
1.913597
1.9225512
1.9331802
1.9447368
1.9582287
1.9741292
1.9932362
2.0133933
2.0290875
2.047829
2.0666813
2.1058428
2.1419428
21.010959
3.8012023
2.0733848
1.9109076
1.8760672
1.8719392
1.874202
1.8795351
1.8835719
1.8884543
1.8948349
1.9019414
1.9091068
1.9170974
1.9255118
1.9350345
1.945725
1.9574075
1.9706873
1.9861375
2.0049686
2.0259
2.0426487
2.0612634
2.0783045
2.1134224
2.1523934
22.457357
4.0273877
2.1234446
1.9327438
1.8874887
1.8863897
1.8872538
1.8920641
1.8963059
1.9013655
1.9071372
1.9137606
1.9207827
1.9283632
1.9369917
1.9463647
1.9572368
1.9690686
1.982159
1.9974681
2.0157754
2.0377277
2.0552393
2.075218
2.0911307
2.12333
2.1639418
24.023499
4.4709258
2.1839488
1.9544349
1.9065954
1.8959809
1.8973356
1.9024198
1.9065487
1.9121078
1.9186901
1.9258766
1.9332573
1.9413063
1.9501272
1.9598172
1.9708069
1.9827126
1.9958046
2.0105038
2.028282
2.0503348
2.0686379
2.0894716
2.1041849
2.1319964
2.1733076
25.71827
5.0952387
2.2747715
1.9797033
1.9215762
1.9134206
1.9123403
1.9169165
1.9209026
1.9260846
1.9320176
1.9384903
1.945677
1.9533937
1.9617639
1.9715485
1.9821583
1.9940321
2.0070831
2.0213253
2.0385625
2.0607464
2.0800678
2.1024576
2.1176805
2.1418935
2.1838069
27.549304
5.4298713
2.3211686
2.0010676
1.9410176
1.9230425
1.92292
1.9264027
1.9309231
1.9370212
1.943757
1.9513003
1.9591458
1.9675372
1.9765569
1.9866348
1.9976279
2.0099352
2.0228592
2.0370339
2.0529562
2.0746183
2.0933235
2.115949
2.1314587
2.1507807
2.1908301
29.531184
5.7766845
2.3797891
2.0208563
1.9576886
1.9421279
1.939157
1.9428227
1.9466415
1.9514535
1.9571111
1.9637273
1.9705922
1.9783668
1.9867497
1.9961865
2.007117
2.0193642
2.0327349
2.0474463
2.0631731
2.0856742
2.1051733
2.129724
2.1471965
2.1641005
2.2022432
31.661952
6.0049927
2.4215633
2.0488065
1.9784005
1.9528315
1.9508499
1.9540771
1.9587969
1.9652455
1.9723343
1.9797237
1.9874794
1.9959822
2.0047988
2.014359
2.0249395
2.0364655
2.0492966
2.0629416
2.0769493
2.0983292
2.1165578
2.1406827
2.1593859
2.1740104
2.2074142
33.950909
6.4018265
2.478379
2.066721
1.9943558
1.9743609
1.9666177
1.9691706
1.9725148
1.9775024
1.9832261
1.9898519
1.9971779
2.0051221
2.0139327
2.0237142
2.0348243
2.0468451
2.060466
2.0751016
2.0895994
2.1114403
2.1299571
2.1554417
2.1762054
2.1900218
2.2199512
36.408129
6.8145632
2.5702521
2.101677
2.0184425
1.986849
1.9808077
1.9827751
1.9876337
1.9944537
2.0011753
2.0084981
2.0160147
2.0239284
2.0327785
2.042063
2.0519894
2.0632373
2.0754062
2.0889303
2.1017872
2.1221533
2.1395776
2.1640264
2.1866566
2.199749
2.2270142
39.032029
7.3676877
2.6413021
2.1237219
2.0368236
2.0109882
1.9965517
1.9975689
2.0003359
2.0047698
2.0107027
2.0178142
2.0251892
2.0331814
2.0423929
2.0523582
2.0631524
2.0754633
2.0882064
2.1028688
2.1159174
2.1364011
2.1538508
2.1778124
2.2022056
2.2149413
2.2392017
41.827662
7.9892072
2.7676187
2.1633483
2.0632323
2.0250994
2.0131293
2.0129967
2.0165597
2.0232319
2.0296532
2.0362849
2.0436486
2.0515398
2.0597683
2.0686666
2.0785681
2.0896148
2.1012666
2.1153165
2.1269966
2.1465117
2.1635371
2.1862288
2.2121947
2.2256949
2.248962
44.803304
8.6482599
2.8611548
2.1867051
2.0798711
2.0502243
2.0283574
2.0266786
2.0277495
2.0325646
2.0387196
2.0453868
2.0526987
2.0610967
2.0700433
2.0799613
2.0906999
2.10226
2.1143886
2.1292121
2.1405783
2.1595573
2.1762203
2.1975953
2.2249984
2.2387758
2.2607043
47.951229
9.4967452
3.0276249
2.2295574
2.1070372
2.066069
2.0469097
2.0433838
2.0455315
2.0509493
2.0569712
2.0634789
2.0705665
2.0778194
2.085705
2.0946594
2.1044813
2.1151986
2.1264414
2.1412149
2.1518738
2.1702725
2.186107
2.2056513
2.2338038
2.2486327
2.2696057
51.260595
10.251352
3.1514684
2.256774
2.1228741
2.0893746
2.0604565
2.0554975
2.0551963
2.0596395
2.0654812
2.0720522
2.0797435
2.0876026
2.0961938
2.1056928
2.1160482
2.1272475
2.1383451
2.1534869
2.1642159
2.1821904
2.1984927
2.2159887
2.2448264
2.2606416
2.2810076
54.732065
11.332235
3.3750099
2.3064224
2.1518437
2.1064134
2.0816259
2.0734307
2.0735572
2.076959
2.0827109
2.0890238
2.0955889
2.1028487
2.1103599
2.1191337
2.1285542
2.1389375
2.1495374
2.1642712
2.1742495
2.1913126
2.2074641
2.2233437
2.2518928
2.2687484
2.2891454
58.345731
12.193914
3.5374466
2.3383119
2.1676181
2.1283419
2.0943125
2.0843852
2.0822085
2.0850457
2.0905363
2.0971304
2.1041244
2.1121375
2.1205991
2.1297211
2.1395585
2.1502302
2.1605302
2.1756309
2.1855439
2.201934
2.2185005
2.2324751
2.2610568
2.2782576
2.2989536
62.082293
13.51391
3.829345
2.3942213
2.1954657
2.145504
2.1155773
2.1020621
2.0993592
2.1011623
2.1062095
2.1118476
2.1177567
2.12481
2.1320551
2.1409014
2.1497377
2.1602849
2.169818
2.1846036
2.1941464
2.2097088
2.2264615
2.2387646
2.2664152
2.2845984
2.3056606
65.913417
14.475876
4.0373404
2.4304896
2.2094734
2.1643193
2.1265358
2.1116037
2.106869
2.108218
2.1134227
2.119763
2.1262825
2.1340205
2.1416458
2.150818
2.1592851
2.1702506
2.1791119
2.1941104
2.2037331
2.2182051
2.2359111
2.247282
2.2732807
2.2912327
2.3126953
69.806715
16.002578
4.4105974
2.4934264
2.2350418
2.178916
2.1446772
2.1270425
2.1212979
2.1219613
2.126007
2.1309296
2.1367697
2.1436821
2.1509428
2.1595853
2.1676059
2.1783718
2.1868985
2.2014206
2.2105465
2.2243005
2.2420231
2.253061
2.2773326
2.2958487
2.3177487
73.725792
17.041765
4.6712574
2.5392239
2.2480718
2.194588
2.1543725
2.1352235
2.1274795
2.1277754
2.1320279
2.1375767
2.1440352
2.1510957
2.1586868
2.1672713
2.1752837
2.1860916
2.1938679
2.2088814
2.217797
2.230939
2.2488167
2.2596501
2.2825556
2.3003853
2.3223776
77.627644
18.744567
5.1339367
2.6082588
2.2700189
2.2063618
2.1685789
2.1478495
2.1385522
2.137979
2.1409496
2.1455021
2.1513317
2.1576295
2.1652033
2.1735231
2.1816371
2.1923606
2.1996938
2.2142893
2.223595
2.2352344
2.2527946
2.26328
2.2852133
2.3033889
2.3256512
81.456362
19.824265
5.4558294
2.6831692
2.2864669
2.2196071
2.1775669
2.1548503
2.1435701
2.1428209
2.1456159
2.1507464
2.1565803
2.1627571
2.1703663
2.1782909
2.1864646
2.1968243
2.2043242
2.2189593
2.229092
2.2399999
2.2574996
2.2677245
2.2883956
2.3055534
2.3276904
85.165725
21.605048
5.9543891
2.7483677
2.3019175
2.2280538
2.1865332
2.1631534
2.15069
2.1493762
2.1509453
2.1555732
2.1607437
2.1671531
2.1744736
2.1823234
2.1904468
2.2003715
2.2080719
2.2214216
2.2324251
2.2425916
2.260064
2.2699794
2.2901897
2.3068458
2.3291569
88.696352
22.753568
6.4433239
2.8560891
2.3220155
2.2377835
2.1940112
2.1683857
2.1546127
2.1520359
2.1534523
2.1582356
2.1633744
2.1698458
2.1766202
2.1845871
2.1925085
2.2027212
2.2101679
2.223522
2.2348714
2.2444745
2.2624745
2.2723038
2.292139
2.3076399
2.3292322
91.991497
24.471738
6.9243272
2.9330218
2.3347607
2.2431904
2.1985736
2.1730968
2.1581407
2.1550318
2.15601
2.1601311
2.1655815
2.1718138
2.1785082
2.1866025
2.1943226
2.2047215
2.2119664
2.2243785
2.2361911
2.2454449
2.2630139
2.2730473
2.2922594
2.3073052
2.3285169
94.977858
25.494668
7.387995
3.0480046
2.3507488
2.2474099
2.2017159
2.1753866
2.159121
2.1551841
2.1558792
2.1601077
2.1654724
2.1715908
2.1782707
2.1864089
2.1942833
2.2047454
2.2121917
2.2240376
2.2361305
2.2453098
2.2626466
2.272779
2.2918155
2.3065492
2.3273432
97.626355
27.369276
8.1065412
3.1690316
2.3688395
2.2515032
2.2035357
2.1764566
2.1591779
2.1547919
2.1554285
2.1594872
2.1648305
2.1709361
2.1775978
2.1858156
2.1936445
2.2041522
2.211556
2.2232469
2.2353815
2.2446462
2.2616686
2.2719347
2.2908011
2.3054553
2.3258116
99.868689
27.706379
8.4574234
3.2665995
2.3790122
2.2509593
2.2022596
2.1754248
2.1582803
2.153675
2.1542196
2.1581619
2.1634538
2.1695327
2.1764007
2.1845782
2.1925709
2.2030103
2.2106232
2.2220103
2.2343421
2.2436823
2.2603967
2.2708143
2.2895535
2.3042545
2.3242639
102.03065
28.088676
8.740939
3.3413222
2.38861
2.2503027
2.2007332
2.1735742
2.1559989
2.1511035
2.1514882
2.1553975
2.1606511
2.1669215
2.1740609
2.182331
2.1904665
2.2009959
2.208899
2.2200975
2.2327044
2.2423172
2.258727
2.2693542
2.2880213
2.3027928
2.3226773
103.2656
29.75278
9.1896581
3.4459848
2.400466
2.2485681
2.1974437
2.1708806
2.1530763
2.1478619
2.1479998
2.1520215
2.1574818
2.1641184
2.1716182
2.1799662
2.1880879
2.1986565
2.2068522
2.2180769
2.2307986
2.2407108
2.2568003
2.2676824
2.2863029
2.3010725
2.3210748
104.11027
31.575529
9.9968157
3.6284248
2.4168541
2.2471434
2.1947308
2.1681021
2.1502328
2.1449006
2.1448826
2.148553
2.1540718
2.1607208
2.1682217
2.1766399
2.1848352
2.1953882
2.2037502
2.2150274
2.2277928
2.2384709
2.2540831
2.2657434
2.2845023
2.2993211
2.3195986
104.26485
32.424517
10.486486
3.7654037
2.4362135
2.2453736
2.191215
2.1642809
2.1464973
2.140853
2.140893
2.144508
2.1499952
2.1566308
2.1645014
2.1732727
2.1819082
2.1925607
2.2011164
2.2128417
2.2255046
2.2365977
2.2519275
2.2638419
2.2826677
2.2975616
2.31831
103.73767
33.823837
11.276588
3.9770635
2.4588199
2.2439794
2.1872368
2.1604298
2.1428389
2.1371198
2.1371748
2.140897
2.1465516
2.1531912
2.1608572
2.169471
2.1782402
2.1890664
2.1978274
2.2096566
2.2223353
2.2340966
2.2492347
2.2617876
2.2809449
2.2958402
2.3172691
102.83769
34.391763
11.787112
4.1157399
2.4779281
2.2408392
2.1826035
2.1553799
2.1377946
2.1321589
2.1323043
2.1362717
2.1422857
2.1492553
2.1572447
2.1659815
2.1749972
2.1858707
2.1952434
2.2072989
2.2203404
2.2322474
2.2473154
2.2600767
2.2794974
2.294717
2.3167101
101.2313
34.807045
12.406366
4.3181622
2.4982085
2.237636
2.1782645
2.1513206
2.133792
2.1281268
2.12838
2.1323301
2.1383392
2.1452389
2.1531558
2.161868
2.1710241
2.1819165
2.1920101
2.2043084
2.2178433
2.2301806
2.2454406
2.2589834
2.2785602
2.2942779
2.3172465
99.420171
34.921723
12.759484
4.4488958
2.5166912
2.2346871
2.1733113
2.1465453
2.1292883
2.1237315
2.1243976
2.1284907
2.1347282
2.1416142
2.1498084
2.15881
2.1684395
2.1795331
2.1899881
2.2025095
2.2160735
2.2290992
2.2441521
2.2588838
2.2785334
2.2960145
2.3172533
96.867011
34.990855
13.194116
4.6194987
2.5336328
2.2328862
2.1703204
2.1427449
2.125557
2.1199873
2.120919
2.1252456
2.1318661
2.1391141
2.1474136
2.1566219
2.1659388
2.1773566
2.1877498
2.2010589
2.2146193
2.228634
2.243419
2.259613
2.2784991
2.2968362
2.3192131
94.267155
34.783578
13.42402
4.7254857
2.5488561
2.2302132
2.167229
2.1397689
2.1227278
2.1174118
2.1181376
2.1230079
2.1293056
2.1371423
2.1451713
2.1550275
2.1642349
2.176224
2.1870629
2.2007576
2.2149364
2.2288989
2.2447429
2.2607407
2.2812084
2.3005244
2.3206686
91.023911
34.780936
13.71993
4.8538691
2.5630735
2.2293516
2.1644569
2.1371282
2.1198296
2.1147243
2.1156572
2.1206307
2.1275556
2.1352403
2.1444593
2.1537664
2.1641655
2.1753579
2.1873653
2.2004731
2.2153897
2.2294911
2.2456717
2.2638332
2.2842651
2.3026372
2.3242449
87.828487
34.428599
13.871089
4.9356915
2.5742587
2.229306
2.1634039
2.1347831
2.1179585
2.1130976
2.1143807
2.1197733
2.126978
2.1352021
2.1442165
2.1542515
2.1641711
2.1764465
2.187915
2.2024898
2.2170458
2.2326134
2.2485798
2.2658997
2.2871402
2.3088329
2.3286003
84.105244
34.428549
14.030913
5.0162169
2.5836337
2.2304344
2.1636369
2.1345639
2.1176143
2.1129133
2.1143491
2.1197517
2.1272736
2.135256
2.1447529
2.1544868
2.1651402
2.1769982
2.1891263
2.2033203
2.218508
2.2341696
2.2516458
2.2726189
2.2926077
2.3116491
2.334024
80.525191
34.167437
14.142558
5.0839796
2.5913016
2.2315279
2.1643587
2.1347161
2.1178538
2.1133132
2.1145411
2.1206196
2.1279531
2.1368183
2.1462937
2.1567798
2.1678323
2.1801307
2.1928298
2.2073381
2.2232123
2.2393238
2.2576013
2.2766554
2.2991908
2.3196951
2.3415234
76.561948
34.148015
14.257439
5.1491636
2.5997608
2.2337111
2.1650871
2.1354615
2.1187129
2.1142302
2.1156865
2.1212875
2.1293847
2.1380133
2.1480018
2.1584714
2.1696121
2.1823144
2.1948337
2.2101018
2.225519
2.2424577
2.2610407
2.2841583
2.3061801
2.3258885
2.3492305
72.782964
33.89288
14.352609
5.2092399
2.6077736
2.2360112
2.1666266
2.1364256
2.1199267
2.115984
2.1178321
2.1241482
2.1323062
2.1416257
2.1520668
2.1629229
2.1747328
2.1877472
2.2013191
2.2171574
2.2331985
2.2508133
2.2707365
2.2910387
2.3116215
2.3349863
2.3601552
68.855272
33.676583
14.443226
5.2683924
2.6175371
2.2394528
2.1697779
2.1388439
2.1225819
2.1194393
2.120452
2.126714
2.1348402
2.1437369
2.1546085
2.1653808
2.1779666
2.1908082
2.2048533
2.2206692
2.2370262
2.2553064
2.2760828
2.3005315
2.3241155
2.344201
2.3690029
65.184024
33.428553
14.558776
5.3324772
2.6269297
2.2434402
2.1727507
2.1413155
2.1258823
2.1229473
2.1252808
2.1315727
2.1399718
2.1494453
2.1603129
2.1719746
2.18481
2.1987946
2.2133498
2.229927
2.2470155
2.2665647
2.2877506
2.3085835
2.3301157