/*--------------------------------*- C++ -*----------------------------------*\
| =========                 |                                                 |
| \\      /  F ield         | OpenFOAM: The Open Source CFD Toolbox           |
|  \\    /   O peration     | Version:  2406                                  |
|   \\  /    A nd           | Website:  www.openfoam.com                      |
|    \\/     M anipulation  |                                                 |
\*---------------------------------------------------------------------------*/
FoamFile
{
    version     2.0;
    format      ascii;
    arch        "LSB;label=32;scalar=64";
    class       volScalarField;
    location    "4";
    object      omega;
}
// * * * * * * * * * * * * * * * * * * * * * * * * * * * * * * * * * * * * * //

dimensions      [0 0 -1 0 0 0 0];

internalField   nonuniform List<scalar> 
158064
(
3.6747382
2.9726497
2.4970667
2.1715305
1.9552415
1.8182446
1.7337389
1.6873042
1.6694448
1.669839
1.6857763
1.7108903
1.7426318
1.7786694
1.8188391
1.8624592
1.9092352
1.9563912
2.003616
2.0493448
2.0949174
2.1417978
2.1881245
2.2336413
2.2788921
2.3238949
2.3678861
2.4137044
2.4602923
2.506743
2.5511072
2.5950054
2.6421785
2.6899499
2.7402171
2.7926477
2.8481422
2.9057885
2.9668061
3.0294921
3.0932355
3.1547314
3.2115959
3.2363324
3.2087457
3.1365104
3.1176178
2.9277492
2.7076691
2.7050395
2.7971137
2.9372913
3.1377179
3.0680207
2.9295415
2.8114289
2.7325318
2.6962565
2.7030695
2.7467427
2.8139135
2.8935214
2.9759914
3.0568316
3.1351922
3.2104622
3.2822614
3.3504696
3.4159885
3.4782243
3.5369947
3.5922549
3.6439955
3.6924918
3.7381851
3.7812614
3.8217655
3.8601844
3.8966297
3.9315356
3.965173
3.9979578
4.0300699
4.0629069
4.0991198
4.1419945
4.1896855
4.2504914
4.4451629
3.6917878
2.9698503
2.484887
2.1531252
1.928208
1.7783242
1.681246
1.6224334
1.592365
1.5808748
1.584267
1.5967139
1.6180344
1.6423257
1.6698706
1.699768
1.7329102
1.7651778
1.8006528
1.8285979
1.8568752
1.8847245
1.9159597
1.9462401
1.9761821
2.0033841
2.0305153
2.0545986
2.0824436
2.1084524
2.1356964
2.1555036
2.1749213
2.1934309
2.2127125
2.2299876
2.2468069
2.2614474
2.27528
2.2863747
2.2957438
2.3018717
2.3057581
2.3056967
2.3043388
2.3012032
2.2894411
2.2796728
2.286755
2.324104
2.4092233
2.5613858
2.7203942
2.7631558
2.7773719
2.7564098
2.7277042
2.7087533
2.706887
2.7245543
2.760975
2.8131352
2.8769454
2.9481812
3.0232039
3.0992818
3.174497
3.2476664
3.3175266
3.384823
3.4494714
3.5106031
3.5683368
3.6228987
3.6745619
3.7235486
3.770224
3.8146632
3.8570612
3.8975753
3.9366043
3.9744151
4.0114373
4.0482193
4.0861695
4.1275393
4.1681531
4.2193045
4.3569789
3.695316
2.9735846
2.4888708
2.1560402
1.9300121
1.778532
1.6803617
1.6205622
1.5893072
1.5779502
1.5804208
1.5931427
1.6130272
1.6378464
1.6650643
1.6947751
1.7265343
1.7586499
1.7901611
1.8203904
1.8480706
1.8764737
1.9058082
1.9353749
1.9639806
1.9911744
2.0173174
2.0426206
2.0679582
2.0927089
2.1157719
2.1367633
2.1549464
2.1722048
2.1885315
2.2037385
2.2172256
2.2289106
2.2387846
2.2466763
2.252528
2.256335
2.2581026
2.2578861
2.2572339
2.2583077
2.2631093
2.2791604
2.3090579
2.3390039
2.3872275
2.4793869
2.5483635
2.5777208
2.5947337
2.6131683
2.6307483
2.6481355
2.6691576
2.6964661
2.7320102
2.7764243
2.8291981
2.8889898
2.954003
3.0223441
3.0922892
3.1624269
3.2315936
3.2991814
3.3647909
3.4280164
3.4886652
3.5466899
3.602136
3.6551176
3.7057529
3.7542402
3.8006563
3.8452038
3.8879935
3.9293603
3.9694971
4.0088688
4.0479986
4.08849
4.1243777
4.1812872
4.2697617
3.7008091
2.9757771
2.4911875
2.1589574
1.9333686
1.7820846
1.6839901
1.6241339
1.5925382
1.5809105
1.5834542
1.5961448
1.6160459
1.6405923
1.6678335
1.6974763
1.7290336
1.760818
1.7921352
1.8213087
1.8495846
1.8781519
1.9074684
1.9368133
1.9651745
1.9921728
2.0184048
2.043696
2.069234
2.0938335
2.1167041
2.136983
2.1555471
2.1729586
2.1892703
2.2041098
2.2172903
2.2284398
2.2377804
2.2449486
2.2501264
2.2532025
2.2546192
2.2547579
2.2547485
2.2553404
2.25695
2.2614049
2.2773122
2.3067286
2.3560298
2.4357408
2.4955506
2.5260196
2.5443905
2.5653074
2.5880248
2.6122983
2.6395162
2.6711706
2.7083506
2.7515536
2.800715
2.8552915
2.9143783
2.9768634
3.0415813
3.1074338
3.1734485
3.238864
3.3031122
3.36576
3.4265107
3.4851844
3.5417015
3.5960341
3.648251
3.6983913
3.7465793
3.7928483
3.8373934
3.8802884
3.9217767
3.9620012
4.0012812
4.040529
4.0743155
4.1281906
4.2114637
3.7035637
2.9799468
2.4960483
2.1638124
1.9383732
1.7869922
1.6890172
1.6293013
1.5977365
1.586145
1.5885609
1.6010722
1.6207442
1.6450972
1.6721203
1.7014672
1.7326846
1.764134
1.7950236
1.8239405
1.8519381
1.8802406
1.90923
1.9383262
1.9664653
1.9933772
2.0194819
2.044794
2.0701506
2.0946782
2.117518
2.1380629
2.1568103
2.1743536
2.1906958
2.2056069
2.2188175
2.2300019
2.2393371
2.24652
2.2517097
2.2548245
2.2564147
2.2569645
2.2577171
2.2596984
2.2634585
2.271411
2.2890807
2.3160984
2.3585107
2.4313531
2.4892402
2.5215962
2.5421554
2.5639914
2.5874219
2.6124327
2.640136
2.6716781
2.7078616
2.7490295
2.7951072
2.8456978
2.9001743
2.9577685
3.0176509
3.0789985
3.1410433
3.2031141
3.2646545
3.3252197
3.3844705
3.4421654
3.4981363
3.5523019
3.6046022
3.6550709
3.7037018
3.7505862
3.7957391
3.8392851
3.8812814
3.9218532
3.9610515
3.9995121
4.0326434
4.0826463
4.161572
3.706951
2.9816368
2.4981738
2.1667523
1.9418851
1.7910358
1.6934913
1.6340725
1.6025989
1.5910955
1.5934403
1.605818
1.6252105
1.6494239
1.6762116
1.7052822
1.7360476
1.767202
1.7977536
1.8266805
1.8545744
1.8826748
1.9112485
1.9400276
1.9679277
1.9947552
2.0207873
2.0460728
2.0712486
2.0956633
2.1184788
2.1392706
2.1582541
2.1759646
2.1923836
2.2073741
2.2206385
2.2318771
2.2412278
2.248438
2.2536413
2.256824
2.2585838
2.2595442
2.2610609
2.264412
2.2706736
2.281606
2.301417
2.3286145
2.3684332
2.4389048
2.4968898
2.5307377
2.5526312
2.5752619
2.5992319
2.6245786
2.6523086
2.6834441
2.7187155
2.7584264
2.8025029
2.8505895
2.9021474
2.9565356
3.013075
3.0710946
3.1299644
3.1891175
3.2480642
3.3063954
3.3637826
3.419969
3.4747709
3.5280397
3.5797165
3.6297301
3.6780976
3.7248037
3.769895
3.8134016
3.8553536
3.8958189
3.9347453
3.9725956
4.005645
4.0524353
4.1246997
3.7092641
2.9855841
2.502894
2.1716037
1.9469488
1.7961706
1.6988351
1.6396659
1.608337
1.5969076
1.5991993
1.6113917
1.6305952
1.6546113
1.6811847
1.7099607
1.7404298
1.7712254
1.8013868
1.8299782
1.8575903
1.8854246
1.9137082
1.9422219
1.9699027
1.9965981
2.0225073
2.0477533
2.072806
2.0971419
2.1199634
2.1409235
2.1600911
2.1779439
2.1944393
2.2094973
2.2228081
2.2340948
2.243482
2.2507512
2.2560428
2.2593581
2.2613871
2.2628526
2.2652721
2.2701743
2.2791057
2.2935273
2.3151126
2.342781
2.3807151
2.449777
2.5086578
2.5431645
2.5659409
2.5891757
2.6136697
2.6393775
2.6671974
2.6980701
2.7326972
2.7713931
2.8141147
2.8605535
2.9102229
2.9625433
3.0169013
3.0726967
3.1293679
3.1864106
3.2433848
3.2999179
3.3557023
3.4104929
3.4640909
3.516366
3.5671887
3.6165219
3.6643009
3.7105319
3.755205
3.7983222
3.8399259
3.8799745
3.9184819
3.9557169
3.9887631
4.0328601
4.0991721
3.7114043
2.9869253
2.5049293
2.1746133
1.9506279
1.800517
1.7037264
1.6449247
1.613792
1.6024664
1.604756
1.616807
1.6357528
1.6595918
1.6859273
1.7144126
1.7444029
1.7748675
1.8046988
1.8332258
1.8606909
1.8882931
1.9161945
1.9443648
1.9717812
1.9983329
2.024128
2.049282
2.074156
2.0983526
2.1211298
2.1422388
2.1616007
2.1796002
2.1961838
2.2113033
2.2246621
2.2359931
2.2454093
2.2527252
2.2580911
2.2615586
2.2638856
2.2659198
2.2692839
2.2758451
2.2874328
2.305574
2.3291675
2.3583988
2.3943963
2.4606088
2.5207793
2.5552396
2.578346
2.6021953
2.6273149
2.6535198
2.6815855
2.7123684
2.7465623
2.7845076
2.8262115
2.8714205
2.9197046
2.9705342
3.0233419
3.0775667
3.1326831
3.1882174
3.2437559
3.2989462
3.3534957
3.4071639
3.4597649
3.5111342
3.5611855
3.6098087
3.6569796
3.7026445
3.7467985
3.789433
3.8305292
3.8701073
3.9080747
3.9447773
3.9777176
4.0196119
4.0808742
3.7136821
2.9908203
2.5096246
2.1795202
1.9558412
1.8059319
1.7094474
1.6510014
1.6201011
1.6089006
1.6111809
1.6230568
1.6418301
1.665465
1.6915707
1.719746
1.7494479
1.7795202
1.8089498
1.8370786
1.8642203
1.8915377
1.9191447
1.9470229
1.97419
2.0005587
2.0262011
2.0512586
2.0760081
2.1000981
2.122867
2.1440701
2.1635787
2.1816989
2.1983689
2.2135378
2.2269287
2.2383095
2.2477835
2.2552036
2.2607292
2.2644476
2.2671842
2.2698938
2.2743073
2.2825297
2.2965709
2.317867
2.3442597
2.3747533
2.4095282
2.4729237
2.5337345
2.5672707
2.590203
2.6143511
2.639938
2.6665496
2.6948391
2.7255807
2.7594302
2.7967545
2.8376039
2.8817817
2.9289118
2.978516
3.0300676
3.0830395
3.1369308
3.1912874
3.2457088
3.2998523
3.35343
3.4062066
3.4579844
3.5086243
3.5579828
3.6060032
3.6525949
3.6977384
3.741391
3.7835328
3.8241567
3.8632294
3.9007404
3.9369159
3.9697931
4.0097847
4.0669372
3.7150556
2.9920947
2.5117605
2.1827403
1.959822
1.8107034
1.7148806
1.6568803
1.62628
1.6152117
1.6175528
1.6292886
1.647807
1.6712378
1.6970855
1.7249569
1.7541465
1.7838571
1.8129477
1.8409583
1.8678969
1.8949456
1.9221828
1.9497021
1.9765817
2.0027576
2.0282435
2.0531515
2.0777056
2.1016276
2.1243261
2.1455993
2.1652566
2.183499
2.2002594
2.2154909
2.228931
2.2403698
2.249906
2.2574298
2.2631149
2.2671121
2.2702914
2.2737267
2.2792197
2.2890837
2.3052462
2.3291203
2.3580812
2.3891624
2.4243515
2.4866391
2.5472655
2.5793124
2.6015877
2.6255945
2.6513809
2.6782901
2.7067496
2.7374506
2.7710098
2.8077967
2.8478984
2.8911642
2.9372709
2.9857872
3.0362285
3.0880995
3.1409237
3.194263
3.2477276
3.3009798
3.3537344
3.4057528
3.456844
3.5068357
3.5556287
3.603098
3.6492037
3.6938718
3.7370777
3.7787913
3.8189803
3.8576392
3.8947222
3.9305052
3.9632761
4.0017286
4.0554402
3.71743
2.9959089
2.5164381
2.1877309
1.96527
1.8164975
1.7211068
1.6635822
1.6333017
1.6224261
1.624788
1.6363715
1.6547212
1.6779419
1.7035349
1.7310738
1.7599714
1.7892614
1.817928
1.8454965
1.8720721
1.8988116
1.925739
1.9529421
1.9795407
2.0054869
2.0307836
2.0555446
2.0799573
2.1037496
2.1264143
2.1477281
2.1674875
2.1858273
2.2026761
2.2179575
2.2314287
2.2429322
2.252566
2.2602585
2.2662008
2.2705792
2.274318
2.2785664
2.2851724
2.2965205
2.314418
2.340179
2.3710293
2.4029953
2.4397116
2.5010073
2.5610588
2.5912827
2.6124989
2.6361401
2.6619223
2.6889874
2.7175368
2.748165
2.7814384
2.8177268
2.8571373
2.8995622
2.9447205
2.9922269
3.0416339
3.0924792
3.1443092
3.1967035
3.2492818
3.3017128
3.3537117
3.4050411
3.4554973
3.5049302
3.5531841
3.6001897
3.6458404
3.6901028
3.7329194
3.7742537
3.814087
3.8523889
3.8891503
3.9245912
3.9573165
3.9944563
4.0453808
3.718287
2.9971341
2.5186924
2.1912134
1.9696397
1.8218037
1.7272124
1.6702301
1.6403478
1.6296449
1.6321199
1.6435752
1.6616597
1.684653
1.7099569
1.7371745
1.7655208
1.794425
1.8227333
1.8501433
1.8764681
1.9028982
1.9294559
1.9562812
1.9825708
2.0082766
2.033376
2.0579337
2.0821263
2.1057193
2.1282812
2.1496051
2.1694654
2.1878988
2.2048325
2.2201826
2.2337203
2.2453054
2.2550539
2.2629222
2.2691317
2.2739202
2.2782495
2.2833434
2.2910518
2.3037214
2.3229664
2.3500181
2.3821974
2.4158356
2.4545129
2.5147512
2.5741815
2.6023917
2.6224168
2.6455992
2.6713308
2.6984987
2.72712
2.7576809
2.7907021
2.8265396
2.8653217
2.9069713
2.9512496
2.9978096
3.0462418
3.0961133
3.1469958
3.1984852
3.2502141
3.3018568
3.3531324
3.4038013
3.453666
3.502546
3.5503293
3.5968785
3.6421405
3.6860261
3.7284989
3.769519
3.809044
3.8470672
3.8835662
3.9187593
3.9514482
3.9865733
4.0355499
3.7207306
3.0008956
2.5234176
2.1963807
1.9754413
1.8281108
1.7340956
1.6777179
1.6482477
1.6378079
1.6403338
1.6516637
1.669577
1.6923502
1.7173721
1.74423
1.7722725
1.800726
1.8285823
1.855514
1.8814357
1.9075293
1.9337551
1.9602424
1.9862189
2.0116546
2.0365256
2.0608917
2.0849151
2.1083524
2.1308486
2.1521608
2.1720839
2.1905923
2.2076099
2.2230188
2.2365963
2.2482746
2.2581685
2.2662846
2.2728516
2.2781567
2.2831754
2.2891855
2.2979901
2.3117609
2.3318979
2.3595875
2.3925309
2.4278836
2.4685098
2.527756
2.5861481
2.6125619
2.6314407
2.6541687
2.6798349
2.7070797
2.7357481
2.7662372
2.7990136
2.8344294
2.8726207
2.9135433
2.9569893
3.0026511
3.0501502
3.0990852
3.1490495
3.1996586
3.250556
3.3014257
3.3519896
3.4020119
3.4512863
3.4996539
3.5469505
3.5930948
3.6379675
3.6815237
3.7236915
3.7644261
3.8037042
3.8414958
3.8777992
3.9128027
3.945493
3.9803554
4.0268687
3.721174
3.0021488
2.5259068
2.2002374
1.980337
1.8341015
1.7410337
1.6853088
1.6563373
1.6461173
1.6488057
1.6600285
1.6776614
1.7001811
1.7248749
1.7513912
1.7788476
1.8068901
1.8343588
1.8610946
1.8867177
1.9124585
1.9383048
1.9643943
1.9900409
2.0151953
2.0398291
2.0639428
2.0877132
2.1109144
2.1332692
2.1545376
2.174508
2.1930735
2.2101661
2.2256542
2.2393164
2.2511158
2.2611853
2.2695621
2.276502
2.2823413
2.2880751
2.2950122
2.3048912
2.3195876
2.3402351
2.3680278
2.4012508
2.4381524
2.480871
2.5394536
2.5967565
2.6215397
2.6393984
2.6617048
2.6873281
2.7146511
2.7433756
2.7738088
2.8063759
2.8414101
2.8790624
2.9193091
2.9619767
3.0067886
3.0533996
3.1014346
3.1505115
3.2002629
3.250347
3.3004559
3.3503184
3.3996996
3.4484012
3.4962394
3.5430933
3.588816
3.6333454
3.6765777
3.7184678
3.7589653
3.7980231
3.8356344
3.8717864
3.9066558
3.9393695
3.9739472
4.0184312
3.7236792
3.0058569
2.5307016
2.205642
1.9865972
1.841068
1.74875
1.6937704
1.6653071
1.6554213
1.6581895
1.669313
1.686765
1.7090478
1.7334268
1.7595509
1.78668
1.8142423
1.8412314
1.8674603
1.892652
1.9180243
1.9435159
1.9692376
1.9945436
2.0193831
2.0437535
2.0676273
2.0912
2.1142082
2.1364629
2.1576614
2.1776574
2.1962685
2.2134362
2.22899
2.2427127
2.2546348
2.2649099
2.273611
2.2810065
2.2874761
2.2940064
2.3019194
2.3128537
2.3282662
2.3490104
2.3763188
2.4093059
2.4473978
2.4922767
2.5500199
2.6062177
2.6295434
2.6465497
2.6684935
2.6940872
2.7214907
2.7502673
2.7806473
2.8130098
2.8476858
2.8848266
2.9244354
2.9663612
3.0103619
3.0561177
3.1032829
3.1514951
3.2004074
3.2496894
3.2990455
3.3482094
3.3969531
3.4450729
3.4924077
3.5387889
3.5841274
3.6282946
3.6712369
3.7128699
3.7531416
3.7920231
3.8294842
3.8655235
3.900297
3.9330674
3.967166
4.009983
3.7238951
3.007185
2.533447
2.2099236
1.9921118
1.8478792
1.7566858
1.7024898
1.6746283
1.6650159
1.6679887
1.6790286
1.6961848
1.7181816
1.7421883
1.7679423
1.794452
1.8215775
1.848147
1.874148
1.8990045
1.923983
1.9490786
1.9743777
1.9993311
2.0238483
2.0479434
2.0715177
2.0948017
2.1175338
2.1396032
2.1607079
2.1806942
2.19932
2.2165464
2.2321887
2.2460206
2.2581053
2.268618
2.2776593
2.2855292
2.2926317
2.2999677
2.308845
2.3208164
2.3368174
2.357366
2.3837392
2.416039
2.454966
2.5020924
2.5590639
2.6142285
2.6363646
2.6526661
2.6743501
2.6999685
2.7274824
2.7563378
2.7866927
2.8188916
2.8532473
2.8899233
2.9289377
2.9701689
3.0133993
3.0583395
3.1046664
3.1520417
3.2001344
3.2486308
3.2972439
3.3457172
3.3938255
3.4413748
3.4881844
3.5341275
3.5790545
3.6228955
3.6655376
3.7069286
3.7470093
3.7857269
3.8230702
3.8590282
3.8937346
3.9265804
3.9602014
4.0017064
3.726556
3.0109396
2.538387
2.215664
1.9989621
1.8556706
1.765425
1.7121271
1.684877
1.6756684
1.6787528
1.689724
1.7066842
1.7284212
1.7520749
1.7774018
1.8035523
1.830167
1.8562279
1.8816971
1.9061034
1.9306784
1.9553969
1.9802935
2.0048834
2.0290411
2.0528411
2.0761257
2.0991814
2.1216735
2.1436054
2.164579
2.1845508
2.2031835
2.2204679
2.2361818
2.2501014
2.2623436
2.2731234
2.2825599
2.2909736
2.2987892
2.306992
2.3168601
2.3298092
2.3463394
2.3664035
2.3912998
2.4224007
2.4618136
2.5110899
2.5673368
2.6216927
2.6427233
2.6586277
2.6802823
2.7056975
2.7331705
2.7620093
2.7922856
2.8242901
2.8583261
2.8945475
2.932993
2.9735546
3.016046
3.0601967
3.1057118
3.1522696
3.1995601
3.2472798
3.2951571
3.34294
3.3904134
3.4373804
3.4836825
3.529152
3.5736953
3.6171798
3.659547
3.7007029
3.7405906
3.7791749
3.8164199
3.8523187
3.8869861
3.9199291
3.9531363
3.9936243
3.7267527
3.0124761
2.541522
2.2205254
2.0052924
1.8635132
1.7745771
1.7222045
1.6956595
1.6867806
1.6901034
1.7010212
1.7176689
1.7390869
1.762317
1.7872433
1.8127436
1.8388947
1.8644991
1.8897057
1.9137516
1.9378875
1.9621946
1.9866353
2.0108569
2.0346496
2.0581428
2.0810769
2.1038106
2.1259749
2.1476783
2.1684969
2.1884006
2.206995
2.2243122
2.2401231
2.2541842
2.2666311
2.2777069
2.2875496
2.2965124
2.3050305
2.3140885
2.3249196
2.3388392
2.3558702
2.3752703
2.3983138
2.427801
2.4673861
2.518635
2.5746395
2.6283553
2.648291
2.6648923
2.6871769
2.7117802
2.7388303
2.7674283
2.7975041
2.8292623
2.8629571
2.8987316
2.9366251
2.9765473
3.0183268
3.0617191
3.1064467
3.1522105
3.1987146
3.2456731
3.2928223
3.3399222
3.386761
3.433153
3.4789245
3.5239471
3.5680727
3.6112296
3.6532989
3.6942258
3.7339443
3.7723952
3.8095608
3.8454245
3.880072
3.9131135
3.9460259
3.9856644
3.7295118
3.0162577
2.546596
2.2267056
2.0128945
1.87234
1.7845743
1.7332574
1.7074286
1.6990164
1.702481
1.7133551
1.7297964
1.7509132
1.7737493
1.7982054
1.8233119
1.8489225
1.8739919
1.8986491
1.9222314
1.9459369
1.9698381
1.9938459
2.0176737
2.0410688
2.0642308
2.0868325
2.1092986
2.1311793
2.1526958
2.1733308
2.1931667
2.2117251
2.2290746
2.2449568
2.2591312
2.2717731
2.2831702
2.2934678
2.3030379
2.3123177
2.3222701
2.3340671
2.3489558
2.3664624
2.3849957
2.4057553
2.4331717
2.4725235
2.525243
2.5817516
2.6350497
2.6542962
2.6726891
2.6949273
2.7183478
2.7447032
2.7728707
2.8026175
2.8340459
2.86736
2.9026701
2.9400147
2.9793046
3.0203918
3.0630418
3.1070024
3.1519865
3.1977189
3.2439215
3.2903482
3.3367619
3.3829638
3.428766
3.4740169
3.518554
3.5622823
3.6050715
3.6468612
3.6875532
3.7270879
3.7654249
3.8025207
3.838358
3.8730117
3.9061573
3.9388891
3.9777687
3.7298319
3.0181062
2.5501621
2.232216
2.0201643
1.881387
1.7951446
1.7449128
1.719896
1.7118753
1.7156072
1.7264539
1.7425665
1.7633274
1.785693
1.8097104
1.8341412
1.8592586
1.8838393
1.9081999
1.9314018
1.9546359
1.9781021
2.0016249
2.0250587
2.0480522
2.070872
2.0930814
2.1151875
2.1366947
2.1579325
2.1783499
2.1980582
2.2165279
2.2338797
2.2498604
2.2642042
2.2770915
2.2888354
2.2995928
2.3097632
2.319781
2.3305944
2.3433293
2.3592165
2.37723
2.3945442
2.4129674
2.4380615
2.4768082
2.5312137
2.5904806
2.6437283
2.6635014
2.6840382
2.7048378
2.7262122
2.751274
2.7786177
2.8077946
2.838753
2.8716044
2.9064133
2.9431959
2.9818623
3.022267
3.0641939
3.1074018
3.1516231
3.1965936
3.2420527
3.2877606
3.3334939
3.3790564
3.4242726
3.4689797
3.5130491
3.5563414
3.5987841
3.6402602
3.6807149
3.7200795
3.7582904
3.7953229
3.8311489
3.8658176
3.8990682
3.9316982
3.9699033
3.7325859
3.0219676
2.5555174
2.2389746
2.0286885
1.8914617
1.8066436
1.7576399
1.7334515
1.7259566
1.7298599
1.7406916
1.7565797
1.7769934
1.798917
1.8224211
1.8464176
1.8709665
1.8949843
1.9187829
1.9415191
1.9642975
1.9873317
2.0103883
2.0334008
2.0559603
2.0784176
2.1002524
2.122052
2.1432244
2.1642228
2.1843962
2.203978
2.2223588
2.2397062
2.2557552
2.2702404
2.2833602
2.2954718
2.306727
2.3175411
2.3283329
2.3400195
2.3536731
2.3705671
2.3889224
2.4050133
2.4216015
2.4443899
2.4824157
2.539032
2.6011742
2.6536576
2.6747837
2.6966884
2.7156544
2.7347795
2.7583437
2.7846882
2.813151
2.8435357
2.8758624
2.9101326
2.9463375
2.9843721
3.0241027
3.0653126
3.1077811
3.1512468
3.1954657
3.2401811
3.285173
3.3302178
3.3751355
3.419747
3.4639117
3.5074745
3.5503421
3.5923916
3.633565
3.6737647
3.7129331
3.7510265
3.7879945
3.823809
3.8585081
3.8918728
3.924436
3.9620643
3.7331931
3.024245
2.5597722
2.2454425
2.0372343
1.902046
1.8189638
1.7712077
1.7479323
1.740884
1.7450713
1.7559057
1.7714369
1.7914523
1.8128497
1.8358709
1.8591775
1.8832069
1.9066999
1.9301664
1.9525142
1.9747892
1.9973684
2.0199049
2.0425026
2.0646219
2.0867103
2.1081092
2.1295167
2.1502609
2.1709299
2.1908103
2.2101996
2.2284276
2.2457329
2.2618787
2.2765649
2.2899667
2.3024662
2.314215
2.3256529
2.3371805
2.3496894
2.3642112
2.3819869
2.4004867
2.416474
2.4319411
2.4534206
2.4915545
2.5494015
2.6127627
2.6634903
2.6858874
2.7089498
2.7260911
2.743127
2.7652718
2.7906447
2.8184061
2.848223
2.8800271
2.9137673
2.9494072
2.9868303
3.0259
3.0664115
3.108152
3.1508755
3.1943485
3.2383297
3.2826042
3.3269641
3.3712305
3.4152377
3.4588371
3.5019015
3.5443031
3.5859731
3.6268007
3.6667353
3.7057108
3.7436627
3.7805612
3.8163684
3.8510976
3.8845811
3.9171315
3.9542326
3.735831
3.028249
2.5655754
2.2531192
2.0470226
1.9137318
1.8323195
1.7859459
1.7635953
1.7571217
1.7615014
1.7723353
1.7876382
1.8072563
1.8281739
1.8506375
1.8734671
1.8968973
1.9198062
1.9426939
1.9645685
1.9863744
2.0084875
2.0305348
2.0526715
2.0743308
2.0960142
2.1170101
2.1380634
2.1584405
2.1788107
2.1984025
2.2176013
2.2356953
2.2529593
2.2691597
2.2840039
2.2976718
2.3105711
2.3228453
2.3349357
2.3472186
2.3605387
2.3759062
2.3942874
2.4129429
2.4293348
2.4439588
2.4655018
2.5034768
2.5612221
2.624756
2.673132
2.6967748
2.720794
2.7361927
2.7513186
2.7721418
2.796595
2.8236767
2.8529408
2.884238
2.917464
2.9525532
2.9893766
3.0278039
3.0676289
3.1086551
3.1506433
3.1933767
3.236619
3.2801764
3.3238381
3.3674443
3.410824
3.4538512
3.4963799
3.5383191
3.5795584
3.620044
3.6596856
3.6984306
3.7362375
3.7730546
3.8088437
3.8436101
3.87721
3.9097805
3.9464437
3.7367732
3.0310901
2.5707649
2.2609291
2.0573103
1.9263556
1.846888
1.8019041
1.780542
1.7745514
1.779213
1.790061
1.8049831
1.8241565
1.8444977
1.8664313
1.8885605
1.91144
1.9337896
1.9563052
1.9777779
1.9990574
2.0206876
2.0421853
2.0638745
2.0850593
2.1063402
2.1268647
2.1474897
2.1673973
2.187385
2.206621
2.2255621
2.2434469
2.2606205
2.2768999
2.2919601
2.3059354
2.3192482
2.3320327
2.3447455
2.3577325
2.3717998
2.387961
2.4067554
2.4255231
2.4422916
2.4575341
2.4801931
2.5172584
2.5737452
2.6363468
2.6820152
2.706963
2.7317627
2.7455874
2.7590825
2.7787501
2.8023897
2.8288695
2.8576349
2.8884656
2.921209
2.9557786
2.9920315
3.0298352
3.0689927
3.1093154
3.1505782
3.1925754
3.2350851
3.2779184
3.3208821
3.3638167
3.4065659
3.4489986
3.4909873
3.5324214
3.5732338
3.6133279
3.6526575
3.6911666
3.7287946
3.7655107
3.8012751
3.836064
3.8697835
3.9023785
3.9386753
3.7394282
3.0356082
2.5775192
2.2701943
2.0692045
1.9405527
1.8629942
1.8195112
1.7991266
1.7937188
1.7985601
1.809394
1.8240678
1.8427851
1.8626009
1.8839273
1.9055245
1.927766
1.9495026
1.9714109
1.9923916
2.0131796
2.0343038
2.0552817
2.0764645
2.097157
2.117985
2.1380736
2.1582938
2.177797
2.1974291
2.2163315
2.2350215
2.2527273
2.2698159
2.286125
2.301339
2.3155859
2.3293011
2.3426095
2.3559529
2.369645
2.3844291
2.401306
2.4203501
2.439294
2.456453
2.4734385
2.4968578
2.5325241
2.5867439
2.6476468
2.6903742
2.7167959
2.7421746
2.7549403
2.7673428
2.7857451
2.8085118
2.8343572
2.8626172
2.8929869
2.9252634
2.9593245
2.9950156
3.0322072
3.070701
3.1103258
3.1508623
3.1921206
3.2338848
3.2759891
3.3182348
3.3604845
3.4025749
3.4443966
3.4858094
3.5267331
3.5670638
3.6067612
3.6457424
3.6839647
3.7213942
3.7579866
3.7937014
3.8285076
3.8623376
3.8949742
3.9309792
3.7411674
3.03993
2.5849125
2.280972
2.0831424
1.9572362
1.881817
1.8398005
1.8203833
1.815416
1.8204478
1.8312261
1.845468
1.8636541
1.8828206
1.9035288
1.9243888
1.9460068
1.967119
1.9885612
2.0090822
2.0293013
2.0498858
2.0702675
2.0909388
2.1111026
2.1314637
2.1510333
2.1707695
2.189759
2.2089423
2.2274234
2.2457804
2.2632139
2.2801537
2.2964976
2.3119007
2.3264365
2.3405361
2.3543078
2.3681982
2.3825024
2.3979116
2.4153394
2.4345802
2.4537933
2.4714561
2.4902056
2.5139393
2.5482915
2.5998992
2.6585283
2.6990668
2.7278322
2.752862
2.7646582
2.775915
2.7930926
2.8150183
2.8402632
2.8680457
2.8979815
2.9298125
2.9633896
2.9985375
3.0351258
3.072961
3.1118805
3.151678
3.1921789
3.2331793
3.2745307
3.3160443
3.3575872
3.3990054
3.4401894
3.4810135
3.5213788
3.5612273
3.6004732
3.6390747
3.6769968
3.7141784
3.7506081
3.7862436
3.8210455
3.8549723
3.8876587
3.923453
3.7447767
3.0472087
2.5962643
2.296543
2.1025638
1.9796288
1.9063492
1.8657759
1.8471589
1.8425276
1.8475062
1.8580573
1.8718213
1.8893396
1.9077741
1.9277014
1.9478525
1.9686962
1.9890528
2.0097787
2.0296981
2.0493073
2.0692606
2.0890003
2.1090422
2.1285992
2.148396
2.1674165
2.1866287
2.2050882
2.2237839
2.2417974
2.2597603
2.2768749
2.2935933
2.3098602
2.3253397
2.3400764
2.3544927
2.368679
2.383063
2.3978864
2.4137795
2.4315079
2.4508715
2.4702198
2.4883773
2.5085717
2.5319241
2.5653809
2.6145169
2.6701909
2.7113387
2.743154
2.7659408
2.7759812
2.7857947
2.8016877
2.8227487
2.8473885
2.8747071
2.9042265
2.9356321
2.9687332
3.0033432
3.0393262
3.0764918
3.1146879
3.1537202
3.1934274
3.2336201
3.2741631
3.3148749
3.3556413
3.3963089
3.4368043
3.4769812
3.5167665
3.5560646
3.5948374
3.6330221
3.6705716
3.7074761
3.7436982
3.7792176
3.8139824
3.8479717
3.8807151
3.916337
3.7512548
3.0605782
2.6167936
2.3235455
2.1346569
2.0151922
1.9441436
1.9047722
1.8867048
1.8820317
1.8867359
1.8968134
1.9096778
1.9262649
1.9436355
1.9625758
1.9816642
2.0015621
2.0209536
2.0408932
2.0600502
2.0787884
2.0979015
2.116746
2.1359833
2.1547221
2.1737823
2.192007
2.2104694
2.2281351
2.2460989
2.2633902
2.2807209
2.2972549
2.313514
2.3295252
2.3449193
2.3596681
2.3741907
2.3885555
2.4031932
2.4183074
2.4344872
2.452322
2.4715698
2.4906247
2.5088775
2.5296762
2.5528336
2.5862653
2.6338655
2.6861167
2.7294792
2.7624198
2.7820296
2.7898222
2.7981625
2.8129148
2.8332319
2.8573854
2.8843454
2.9135469
2.9446039
2.9772948
3.0114021
3.046795
3.0832782
3.1207212
3.1589357
3.1977877
3.2370912
3.2767392
3.3165529
3.3564426
3.396254
3.4359118
3.4752936
3.5143147
3.5529196
3.5910823
3.6287238
3.6658482
3.7023709
3.7383136
3.7736451
3.8083165
3.8423225
3.8750983
3.9105343
3.7677249
3.0916874
2.6582015
2.3711379
2.1857873
2.0683294
1.9985543
1.9600059
1.9424191
1.9379469
1.9426552
1.9526622
1.9651756
1.9813002
1.9980852
2.0164263
2.0349278
2.0541921
2.0728829
2.0921703
2.1107042
2.1287268
2.1470654
2.1650656
2.1834502
2.201309
2.2195216
2.236852
2.2544292
2.2711453
2.2881883
2.3045296
2.320961
2.3366281
2.3520966
2.3674674
2.3823649
2.396714
2.410922
2.425038
2.4394839
2.4544377
2.4704556
2.4879628
2.506619
2.5249031
2.5426965
2.5630123
2.5861055
2.619841
2.6691811
2.7185312
2.7637808
2.7954348
2.8094011
2.8130063
2.8188971
2.8320965
2.8515246
2.8752408
2.9020305
2.9311709
2.9621741
2.9947379
3.0286129
3.0636382
3.0996223
3.1364318
3.1738996
3.2118968
3.2502716
3.2889252
3.3277085
3.3665372
3.4052831
3.4438809
3.4822166
3.520228
3.5578518
3.5950363
3.6317718
3.6679846
3.703708
3.7389151
3.7737186
3.8080283
3.8418403
3.8745427
3.9098179
3.8047688
3.139858
2.7102338
2.4269335
2.2467611
2.1339681
2.0678327
2.0317395
2.0156831
2.0119712
2.0170346
2.0271299
2.0393602
2.0552168
2.0715913
2.0896319
2.1078407
2.1269886
2.1454958
2.1648164
2.1833802
2.2013344
2.2196532
2.2375755
2.2559824
2.2737958
2.2920662
2.3092697
2.3267668
2.3432103
2.3600321
2.3759813
2.3920435
2.4071914
2.4221569
2.4371917
2.451839
2.4659137
2.4798682
2.4937125
2.5079229
2.5226384
2.53844
2.5555692
2.573407
2.5904561
2.6073899
2.6266485
2.6502604
2.6865844
2.7508524
2.8046714
2.8554684
2.8795178
2.8778816
2.8686953
2.8658665
2.8732152
2.8889547
2.9105419
2.9362207
2.9648784
2.9957335
3.0283132
3.0622396
3.0973062
3.133264
3.1699775
3.207254
3.244976
3.2829716
3.3211757
3.3594137
3.3976393
3.4357031
3.473572
3.5111308
3.5483119
3.5850751
3.6213892
3.6571617
3.6924803
3.7272291
3.761491
3.7952504
3.8285008
3.8612673
3.8928085
3.9274366
3.8302394
3.1934967
2.7944945
2.5413213
2.3880435
2.2952912
2.2424627
2.2144914
2.2027725
2.2010703
2.2064324
2.2157939
2.2271554
2.2418795
2.2569
2.2734026
2.2901992
2.3079994
2.3250465
2.3428533
2.3598443
2.3764666
2.3934771
2.4102803
2.4275274
2.4442406
2.4613989
2.4774552
2.4937609
2.5089581
2.5245026
2.5389486
2.5532277
2.5661552
2.5784478
2.5904453
2.6017731
2.6123639
2.6228107
2.6332258
2.6442955
2.6563855
2.6704097
2.6865892
2.7024346
2.7150932
2.7276601
2.7418051
2.765903
2.8165813
2.9375829
3.0291479
3.1105383
3.1133411
3.064117
3.0129157
2.9816661
2.9696389
2.9714937
2.9831942
3.0017104
3.0249612
3.051517
3.0804995
3.1113276
3.1436319
3.1770966
3.2115124
3.2466676
3.2824057
3.3185673
3.3550495
3.391708
3.4284608
3.4651887
3.5018345
3.5382869
3.5744859
3.6103808
3.6459035
3.681069
3.7157749
3.7500932
3.783995
3.8175262
3.8506438
3.8834536
3.9150369
3.9493923
3.9481389
3.4566919
3.191797
3.0466234
2.9773629
2.9396673
2.9212239
2.9129733
2.9116782
2.9146385
2.9214843
2.9301317
2.9394722
2.953068
2.9657935
2.9802831
2.9949907
3.0112125
3.0259257
3.0418074
3.0562475
3.0703297
3.085227
3.1000295
3.1156658
3.1304636
3.1460926
3.159743
3.1738218
3.1858643
3.1984947
3.2087447
3.2182305
3.2244314
3.2286274
3.2314185
3.232153
3.2308308
3.2287269
3.226216
3.2249655
3.2262041
3.2324088
3.2436804
3.2514353
3.2480752
3.2426526
3.2319533
3.2410818
3.3266155
3.6065807
3.8416578
4.0376391
3.9842787
3.7875362
3.5906301
3.4484274
3.3583611
3.3051855
3.2782876
3.2691978
3.2719086
3.2822786
3.2976614
3.3163213
3.3372492
3.3597483
3.383461
3.408109
3.4335587
3.4596745
3.4864296
3.5137048
3.5414801
3.5696534
3.5982111
3.6270476
3.6560972
3.6853096
3.7146385
3.7438751
3.7733465
3.8026462
3.8319265
3.8611751
3.8903958
3.9196841
3.9480859
3.9794946
4.8790612
5.0821797
5.2614571
5.3622375
5.4484574
5.4910956
5.5184761
5.5342411
5.5467563
5.5562216
5.5691089
5.581966
5.5897153
5.6092032
5.6223944
5.6406948
5.6574275
5.6776594
5.6929876
5.7130487
5.7294867
5.7437049
5.7610374
5.7774941
5.7976943
5.8154601
5.8367798
5.8521255
5.869667
5.8809908
5.8951199
5.9025705
5.9095826
5.9083008
5.9039521
5.8982344
5.8880426
5.8722903
5.8543507
5.8347701
5.8180621
5.8072344
5.8092887
5.8236254
5.8249678
5.7970516
5.7613302
5.7101534
5.659838
5.85125
6.3788934
6.9861996
7.4691559
7.3373971
6.813211
6.2645325
5.8376831
5.5428588
5.3453111
5.216074
5.1321553
5.0769915
5.0392146
5.0114784
4.9890389
4.9691187
4.9499709
4.930745
4.9109956
4.8906128
4.8696382
4.8483411
4.8268848
4.8055311
4.7845609
4.7642952
4.7448889
4.7265058
4.7092637
4.6931225
4.6780164
4.6641905
4.651285
4.6391655
4.6276028
4.6161915
4.6047813
4.5902152
4.5792601
12.637207
14.937047
15.883588
16.031278
16.171256
16.210121
16.246376