/*--------------------------------*- C++ -*----------------------------------*\
| =========                 |                                                 |
| \\      /  F ield         | OpenFOAM: The Open Source CFD Toolbox           |
|  \\    /   O peration     | Version:  2406                                  |
|   \\  /    A nd           | Website:  www.openfoam.com                      |
|    \\/     M anipulation  |                                                 |
\*---------------------------------------------------------------------------*/
FoamFile
{
    version     2.0;
    format      ascii;
    arch        "LSB;label=32;scalar=64";
    class       volScalarField;
    location    "4";
    object      omega;
}
// * * * * * * * * * * * * * * * * * * * * * * * * * * * * * * * * * * * * * //

dimensions      [0 0 -1 0 0 0 0];

internalField   nonuniform List<scalar> 
96472
(
3.747354
3.1564933
2.6088768
2.208193
1.9737788
1.8528721
1.7972387
1.7738161
1.7647111
1.7613193
1.7598335
1.7587001
1.7576685
1.7569361
1.756604
1.7566665
1.7568641
1.7570321
1.7569528
1.7563394
1.7550532
1.7533426
1.751634
1.7503386
1.7494135
1.7491748
1.7500842
1.7514867
1.7529454
1.7549148
1.7570917
1.7593561
1.7616058
1.7638054
1.7659781
1.7688073
1.7726908
1.7766313
1.7814379
1.786763
1.7942273
1.801705
1.8115896
1.8205604
1.8331685
1.8455483
1.8612881
1.8773763
1.8973901
1.9153559
1.9385594
1.9627315
1.984679
2.0129787
2.0555116
3.7481698
3.1615054
2.615915
2.2142052
1.9777919
1.8553068
1.7985981
1.7746865
1.7653781
1.7619792
1.760448
1.7593227
1.758377
1.7576699
1.7573847
1.7574633
1.7577645
1.7580233
1.757905
1.7570846
1.7554905
1.7533785
1.7511328
1.7491541
1.7476635
1.7468428
1.746806
1.7474917
1.7487729
1.7508081
1.7534917
1.7566138
1.7600202
1.7631924
1.7674661
1.7711206
1.7754691
1.7789256
1.7836896
1.7872718
1.7939558
1.7986658
1.8076689
1.8152293
1.8249411
1.838046
1.8473982
1.8665436
1.8780647
1.9015895
1.9142051
1.9395104
1.9615583
1.9790213
2.0194148
3.7494218
3.1648166
2.6203142
2.2181355
1.9806332
1.8571044
1.7997538
1.7754919
1.7660482
1.7626119
1.7611159
1.7600217
1.759104
1.7584286
1.7581359
1.7582281
1.758546
1.7588621
1.7588538
1.7580884
1.756445
1.7542979
1.7519919
1.7499204
1.7483032
1.7472287
1.7468354
1.7470325
1.7476524
1.748655
1.7502233
1.7520369
1.7551425
1.7583464
1.763757
1.7681809
1.7744466
1.7787827
1.7853676
1.78969
1.7954621
1.8008378
1.8062179
1.81575
1.8216962
1.8341647
1.8411953
1.85784
1.8667889
1.8871154
1.9017803
1.9176596
1.9435358
1.9576289
1.9913918
3.7504111
3.1690928
2.6261066
2.2229892
1.9838566
1.8590126
1.800867
1.7761903
1.7665665
1.763079
1.7615833
1.7605073
1.7595681
1.7588885
1.7585936
1.7586807
1.7590333
1.7593797
1.7594526
1.7588281
1.7572406
1.7550926
1.7527756
1.7506714
1.7490098
1.7478995
1.7473999
1.7474664
1.7479019
1.7488036
1.7499179
1.7513489
1.753466
1.7554382
1.758827
1.7621631
1.7684587
1.7731893
1.7810587
1.7873688
1.7932302
1.8010545
1.805582
1.8150758
1.8201889
1.8315426
1.8374713
1.851186
1.8594469
1.8714264
1.8897553
1.9002986
1.9226962
1.9351991
1.9645673
3.7514126
3.1731511
2.6315518
2.2276313
1.9870177
1.8609326
1.8020034
1.7769453
1.7671471
1.7636378
1.7621242
1.7610848
1.7601857
1.7594888
1.7592197
1.7593108
1.7596944
1.7600677
1.760164
1.7596317
1.758096
1.7559198
1.7535198
1.75132
1.749542
1.7483186
1.7477464
1.7477904
1.7481795
1.7492456
1.7500947
1.7515839
1.753311
1.7550908
1.7576244
1.7606216
1.7638619
1.7686022
1.7728667
1.7808389
1.7860411
1.7964835
1.8017199
1.8119997
1.8170356
1.8282932
1.834245
1.8442599
1.8570866
1.8642826
1.8798808
1.8886832
1.9067319
1.9170398
1.9408652
3.7522595
3.1771664
2.6371079
2.2323495
1.9901922
1.8628289
1.8031215
1.7776743
1.767699
1.7641441
1.7626574
1.7616308
1.7607556
1.7600542
1.759775
1.7598812
1.7602764
1.7607136
1.7608681
1.7604149
1.7589692
1.756805
1.7543427
1.7520319
1.7501305
1.7487711
1.7480581
1.7479632
1.7482322
1.7492888
1.750069
1.7517951
1.7533066
1.7553201
1.7573473
1.7602193
1.7629476
1.767116
1.7704212
1.7763944
1.7803328
1.7883336
1.7933009
1.8036006
1.8095349
1.8187825
1.830028
1.8367327
1.8506234
1.8579688
1.8730518
1.8809053
1.8967259
1.9054047
1.9250048
3.7529385
3.1817336
2.6433853
2.2375683
1.9936271
1.8648369
1.8042959
1.7784117
1.7682756
1.7646504
1.763179
1.7621829
1.7613298
1.760652
1.760359
1.7604765
1.7608749
1.7613579
1.7616066
1.761244
1.7598895
1.7577718
1.7552752
1.7528666
1.7508309
1.7493261
1.7484623
1.7481976
1.7483958
1.7492266
1.7499217
1.7516853
1.7530856
1.7552476
1.7571145
1.7600421
1.7626094
1.7665155
1.7695068
1.7748722
1.7783145
1.7840245
1.7889398
1.794417
1.8035796
1.8089486
1.820546
1.8268242
1.8400551
1.847145
1.8617856
1.8693778
1.8853417
1.8938916
1.9121171
3.7540147
3.1849893
2.64796
2.2417539
1.9966354
1.8667126
1.8054074
1.7791278
1.768813
1.7651591
1.7636872
1.7627417
1.7619232
1.7612561
1.7609649
1.7610905
1.7615239
1.7620133
1.7623307
1.7620889
1.7608399
1.7587738
1.7562729
1.7537863
1.7516429
1.7499858
1.748995
1.7485256
1.7486818
1.7491935
1.7499688
1.7515678
1.7526507
1.7548557
1.7568141
1.7596861
1.7621394
1.7656865
1.7687019
1.7725585
1.7772161
1.7807918
1.787026
1.790861
1.7984751
1.8029929
1.8124116
1.8178084
1.8292739
1.8355854
1.849041
1.8565294
1.8715573
1.879573
1.8972533
3.7543999
3.1899187
2.6549513
2.2474617
2.0002844
1.8688037
1.8065922
1.779874
1.7693675
1.7656732
1.7641896
1.7632671
1.762488
1.761844
1.7615705
1.7616916
1.7621569
1.7626872
1.7630461
1.7629158
1.761805
1.7598202
1.7573429
1.7548106
1.7525601
1.7507839
1.7496146
1.7489835
1.7490398
1.749278
1.7501468
1.7514446
1.7524593
1.7545444
1.7564623
1.7589228
1.7615404
1.7643748
1.7680712
1.7710733
1.7758773
1.7790837
1.784934
1.7883874
1.7950627
1.7988604
1.8067816
1.8114148
1.8210952
1.8267915
1.8385264
1.8448997
1.8583024
1.8655634
1.8820258
3.7548706
3.194316
2.6611946
2.2526661
2.0036944
1.8707851
1.8077328
1.7805829
1.7699011
1.7661517
1.7646969
1.7638042
1.7630494
1.7624323
1.7621634
1.7622997
1.7627862
1.763392
1.7637995
1.7637464
1.7627675
1.7608855
1.7584523
1.7558861
1.7535684
1.7516822
1.7503655
1.7495751
1.7494924
1.7495701
1.7503692
1.7513342
1.7526256
1.7541883
1.7561494
1.7582018
1.7609003
1.7635305
1.7670688
1.7699095
1.7743457
1.7774161
1.7828118
1.7859739
1.7920652
1.7955296
1.8026404
1.8066291
1.8153295
1.8200195
1.830296
1.8359394
1.847872
1.8543323
1.8687003
3.7554945
3.1985839
2.6673401
2.2579337
2.0072272
1.8728659
1.808923
1.7813092
1.7704346
1.7666301
1.7651778
1.7643288
1.763615
1.7630137
1.7627639
1.7629226
1.7634259
1.7640808
1.7645768
1.7646042
1.7637455
1.7619642
1.7596064
1.7570352
1.7546592
1.7526619
1.7512354
1.7502997
1.750075
1.7500174
1.7506532
1.7513988
1.7527111
1.7539711
1.7559017
1.7577658
1.7603767
1.7628757
1.7661087
1.7687629
1.7729532
1.7758676
1.7808625
1.7838922
1.7895441
1.7927474
1.7991865
1.8028689
1.8104769
1.8148413
1.8240379
1.8291084
1.83942
1.8450207
1.8572975
3.7566891
3.2015453
2.6714201
2.2618387
2.0101555
1.8747421
1.8100347
1.7820225
1.7709496
1.7671042
1.7656531
1.7648405
1.7641782
1.7635965
1.7633616
1.7635406
1.7640752
1.7647519
1.7653326
1.7654621
1.76473
1.7630497
1.7607689
1.7582326
1.7558291
1.7537612
1.7522081
1.7511527
1.7507837
1.7505914
1.7510486
1.7516321
1.7528177
1.7539175
1.7557387
1.7574663
1.7598286
1.7622058
1.7652068
1.7677535
1.7716604
1.774424
1.7791536
1.7820295
1.7872196
1.7902028
1.7961609
1.7996244
1.8067038
1.8107315
1.8188505
1.8232564
1.832368
1.8374407
1.8484468
3.7572035
3.2055633
2.6773526
2.2669728
2.0136225
1.8767968
1.8112053
1.7827315
1.7714706
1.7675586
1.7661132
1.7653318
1.7647079
1.7641675
1.7639404
1.7641399
1.7647246
1.7654373
1.7660734
1.7663154
1.7657091
1.7641502
1.761955
1.7594578
1.7570371
1.7549106
1.7532497
1.7520832
1.7515911
1.7513061
1.7516156
1.7520598
1.7530743
1.7540304
1.7557107
1.7572563
1.7594604
1.761664
1.7644556
1.7668762
1.7704972
1.7731805
1.777558
1.7802687
1.7851706
1.7879939
1.7936272
1.7966927
1.8032881
1.8068353
1.8142625
1.8183944
1.8267755
1.8311849
1.8410139
3.7580229
3.2090133
2.6823499
2.2715264
2.0168557
1.8787781
1.8123583
1.783433
1.7719829
1.7679921
1.7665485
1.7658188
1.7652292
1.764717
1.7645159
1.7647312
1.7653579
1.7661421
1.7668276
1.7671452
1.7666644
1.7652504
1.7631553
1.7606889
1.7582665
1.7561112
1.7543806
1.7531044
1.7524931
1.75213
1.7523326
1.7526452
1.7535054
1.7543133
1.7558062
1.7571709
1.7592123
1.7612248
1.763819
1.766125
1.7695092
1.7720511
1.7761267
1.7787567
1.7833401
1.7859815
1.7911372
1.7941205
1.8001477
1.8034324
1.8104177
1.8140241
1.8215554
1.8255742
1.8343334
3.7588469
3.2124295
2.6873414
2.2760908
2.0201101
1.880785
1.8135095
1.7841206
1.7724645
1.7684348
1.7669735
1.7662791
1.7657465
1.7652528
1.7650861
1.7653139
1.7659677
1.7668036
1.7675822
1.7680012
1.7676281
1.7663451
1.7643572
1.761948
1.7595074
1.7573162
1.7555439
1.7542048
1.7534874
1.7530285
1.7531182
1.7533284
1.7540479
1.7547155
1.7560732
1.7572889
1.7591328
1.7609267
1.7633117
1.7654971
1.7685891
1.7710086
1.7748012
1.7773128
1.7815144
1.7841046
1.7889294
1.7916516
1.7972737
1.8002479
1.8065367
1.8099307
1.8168228
1.8207173
1.8286789
3.7594239
3.216232
2.6929944
2.2811184
2.0235584
1.8828552
1.8146812
1.7848278
1.7729546
1.7688539
1.7673906
1.7667147
1.7662241
1.7657661
1.7656225
1.7658834
1.7665564
1.7674469
1.7682963
1.7688058
1.768557
1.7674104
1.7655344
1.7631946
1.7607834
1.7585719
1.7567482
1.7553424
1.7545362
1.7539931
1.7539805
1.7541092
1.7547251
1.7552995
1.756515
1.7575843
1.7592571
1.7608498
1.7630407
1.7650939
1.7679524
1.7702824
1.7738037
1.7761582
1.7801108
1.7824768
1.7870204
1.7895874
1.7945818
1.7974563
1.8031446
1.8063107
1.8126667
1.8162109
1.823601
3.7602266
3.2197084
2.6981014
2.2857756
2.0268641
1.8848775
1.8158348
1.7855021
1.773428
1.7692411
1.7677938
1.7671507
1.7666979
1.7662851
1.7661484
1.7664312
1.7671684
1.7680607
1.7689909
1.7696398
1.7695044
1.7684826
1.7667087
1.7644514
1.7620622
1.7598389
1.7579636
1.7564835
1.7555796
1.7549574
1.7548674
1.7549067
1.7554366
1.7559846
1.7570865
1.7580348
1.7595121
1.7608752
1.7628247
1.7647675
1.7673681
1.7695653
1.7728864
1.7751844
1.7789522
1.7812632
1.7854471
1.7878573
1.7925156
1.7950628
1.8003079
1.8029591
1.8089276
1.8121155
1.8188151
3.7605142
3.2238679
2.7044397
2.2912918
2.030547
1.8870383
1.8170405
1.7861983
1.7739028
1.7696225
1.768155
1.7675565
1.7671429
1.7667644
1.7666582
1.7669554
1.7677049
1.7686942
1.7696461
1.7703536
1.770346
1.7694998
1.7678535
1.7656823
1.7633356
1.7611155
1.7592007
1.7576474
1.7566638
1.7560031
1.7558303
1.7557927
1.7562395
1.7566776
1.7577267
1.758656
1.7600081
1.76116
1.7628943
1.7646718
1.7670061
1.7690781
1.7721611
1.7744231
1.7779639
1.7802691
1.7843401
1.7865639
1.7910713
1.7933841
1.7978955
1.8005118
1.8060625
1.8089421
1.8149446
3.7611433
3.2274643
2.7098454
2.2962027
2.0339883
1.889137
1.8182178
1.7868807
1.7743567
1.7700152
1.7685286
1.7679566
1.7675872
1.7672364
1.7671649
1.7674428
1.7682627
1.7692354
1.770298
1.771178
1.7712509
1.7705013
1.7689695
1.7669015
1.7645859
1.7623707
1.7604314
1.7588296
1.7577446
1.7570273
1.7567796
1.7566808
1.7569934
1.7572919
1.7582515
1.7591929
1.7604502
1.7614844
1.7630498
1.7646432
1.766748
1.7686877
1.7714464
1.7735038
1.7768179
1.778936
1.7827164
1.7851163
1.7889463
1.7918855
1.7954621
1.7988333
1.8031552
1.8065067
1.8119516
3.7612866
3.2316611
2.7164175
2.3019012
2.0377861
1.8913725
1.819463
1.7875982
1.7748398
1.7703886
1.7688818
1.7683305
1.7679965
1.7676696
1.7676152
1.7679236
1.7687151
1.7698216
1.7708909
1.7717992
1.7720233
1.7714814
1.7700844
1.768108
1.7658152
1.7636104
1.7616507
1.760017
1.7588796
1.7580787
1.757729
1.7575859
1.7578341
1.7580067
1.7588627
1.7598135
1.7610182
1.7619479
1.7633818
1.7648087
1.7667596
1.7686085
1.7711191
1.7730686
1.7760943
1.7781661
1.7816551
1.7838712
1.7874077
1.7904548
1.7932954
1.7971852
1.8007614
1.8044944
1.8090631
3.7614177
3.2358683
2.7231306
2.3078796
2.0417868
1.8937249
1.8207824
1.7883731
1.7753765
1.770828
1.7693012
1.7687692
1.7684797
1.7681863
1.7681538
1.7684357
1.7692989
1.7702987
1.7715186
1.7726569
1.772914
1.77239
1.7711024
1.7693014
1.7670953
1.7649025
1.7628868
1.761188
1.7599702
1.7591117
1.7586644
1.7584116
1.7585148
1.7585872
1.7593397
1.7602975
1.7613893
1.7621334
1.7634265
1.7647073
1.766533
1.7682531
1.7705259
1.772435
1.7751331
1.7770603
1.7803114
1.7822005
1.785752
1.7883987
1.7911758
1.7947
1.7981411
1.8017977
1.8057147
3.7627855
3.237817
2.7257552
2.3110087
2.04471
1.8960155
1.8223936
1.7895186
1.7762674
1.771614
1.7700434
1.7695074
1.769238
1.768971
1.7689349
1.7692318
1.7700526
1.7711763
1.7723126
1.7734186
1.7739106
1.7736675
1.7724857
1.7707136
1.7685002
1.7663603
1.7643172
1.7626291
1.7612879
1.7604008
1.7597964
1.759574
1.7596366
1.7595109
1.7599885
1.7610169
1.7620595
1.7626553
1.7637308
1.7648123
1.7664739
1.7681654
1.7703498
1.77214
1.7747674
1.7766057
1.7795159
1.7814123
1.784777
1.7869116
1.7896573
1.793319
1.7960183
1.7995049
1.8028947
3.7627647
3.242618
2.7337406
2.3189389
2.0508725
1.9010643
1.8265758
1.7931399
1.7795774
1.7747544
1.7730914
1.7725312
1.7722132
1.7719303
1.7718397
1.7720472
1.7729388
1.7737677
1.7751276
1.7763013
1.7766563
1.7763888
1.7752329
1.7737128
1.7715257
1.7694151
1.7673071
1.7655828
1.7641241
1.7631928
1.7624677
1.7621381
1.7620216
1.7617447
1.7621235
1.7632136
1.7641188
1.7644493
1.7652543
1.7660266
1.7674338
1.7689594
1.7710064
1.7727261
1.7750927
1.7768774
1.7795062
1.7813462
1.7842301
1.7863923
1.7885746
1.7923327
1.7941844
1.7978107
1.8002231
3.7622377
3.2487934
2.7471036
2.3378932
2.0708091
1.9236459
1.8496313
1.8155695
1.8013465
1.7960903
1.7939324
1.7933012
1.7924457
1.7921733
1.7914037
1.791699
1.7925414
1.7925286
1.7939762
1.794055
1.7947936
1.7952132
1.7938164
1.7906351
1.7872776
1.7846586
1.782362
1.7806995
1.7790698
1.778378
1.7772828
1.7773127
1.7772719
1.7766393
1.7766727
1.7780931
1.7791126
1.7791944
1.7792382
1.7794953
1.7802593
1.7814752
1.7830665
1.7847513
1.7863632
1.7878436
1.7899396
1.7916846
1.793809
1.796739
1.7986269
1.8016615
1.8035721
1.8073807
1.8086221
3.761704
3.2924034
2.8366188
2.4671013
2.2027688
2.0738807
2.0018877
1.9630769
1.9447108
1.9380949
1.9334682
1.9337139
1.931593
1.9326156
1.9301085
1.9329866
1.9349579
1.9312893
1.9352997
1.9310581
1.9335805
1.9390235
1.9394272
1.9301604
1.9198158
1.9135926
1.9083523
1.9039798
1.8973671
1.8944689
1.8867423
1.8852809
1.8831695
1.8774434
1.8754651
1.8770821
1.8767969
1.8745727
1.8691488
1.8652152
1.8622558
1.8615132
1.8612399
1.8611885
1.8608793
1.8607688
1.8605569
1.8607153
1.8610916
1.8616587
1.8622834
1.8635341
1.8642013
1.8661268
1.8620829
3.9121092
3.699078
3.5706154
3.4791391
3.3437074
3.3574731
3.3589297
3.3026388
3.2382647
3.2276712
3.2049037
3.2165177
3.2055766
3.2307013
3.2092594
3.2552626
3.2594988
3.2175101
3.2722566
3.2128563
3.2346027
3.3168581
3.3763085
3.2789911
3.2120685
3.1549084
3.1500063
3.1279745
3.1031094
3.1047053
3.0335732
3.0554176
3.039122
2.9787117
2.9599996
2.9926923
2.993571
2.9627669
2.8805775
2.8304906
2.7808863
2.7631643
2.7379297
2.7249236
2.6952523
2.678464
2.6440583
2.629639
2.601258
2.5884454
2.57492
2.5613519
2.539192
2.5288953
2.4732676
11.285429
11.476132
11.709411
11.817184
11.86436
11.841517
11.82152
11.838619
11.868344
11.907531
11.950903
11.99877
12.055274
12.102734
12.163502
12.192793
12.255029
12.270394
12.301033
12.343369
12.324853
12.387293
12.420569
12.521987
12.522953
12.61461
12.592253
12.673554
12.631098
12.691343
12.642394
12.632939
12.655487
12.609955
12.567518
12.556937
12.560334
12.541904
12.514407
12.488079
12.445054
12.413516
12.376515
12.354012
12.325245
12.307002
12.282183
12.267694
12.24633
12.246137
12.219053
12.240285
12.212684
12.229106
12.223326
12.608916
2.6387756
1.8798476
1.8136893
1.8049808
1.8066533
1.809125
1.8124533
1.8152476
1.8187113
1.8228859
1.8277054
1.8331318
1.8391336
1.8457854
1.8539505
1.8635136
1.8751491
1.8893098
1.9052403
1.9208697
1.934418
1.9497116
1.9740411
2.0022691
2.0316594
2.0643968
13.410221
2.9705839
1.9129983
1.8248072
1.8109754
1.8134941
1.8166661
1.8201342
1.8229793
1.826472
1.8309915
1.8360673
1.8413829
1.8475036
1.8540257
1.8614649
1.8705457
1.8814812
1.8950434
1.9110342
1.9273672
1.9413968
1.956683
1.9800752
2.0098814
2.0410487
2.0680148
14.275063
3.0135195
1.9234957
1.831063
1.8179954
1.8182415
1.820902
1.824717
1.8279597
1.8317915
1.8368077
1.8427549
1.8487486
1.8557743
1.8634182
1.871999
1.8818506
1.8933127
1.9071006
1.9233368
1.9401782
1.9543793
1.9686451
1.9906596
2.0196192
2.0545574
2.0771105
15.205373
3.0376305
1.9347234
1.8372323
1.8224587
1.8250843
1.8293548
1.8332222
1.8370221
1.8412536
1.8459984
1.8514933
1.8571039
1.8633016
1.8707412
1.8788564
1.8887072
1.9002784
1.9140422
1.9308939
1.9490464
1.9651686
1.9795029
2.0011934
2.0296042
2.0691313
2.0924548
16.204249
3.0852695
1.9463694
1.8500647
1.832394
1.8320547
1.8354424
1.8404572
1.8440531
1.848725
1.8543504
1.8608165
1.8676905
1.8745011
1.8824977
1.8913357
1.9011685
1.9125291
1.9256613
1.9417282
1.9598087
1.9764538
1.9904152
2.0103562
2.0369888
2.0784519
2.1042238
17.276736
3.2278139
1.9743583
1.8626105
1.8393067
1.8420674
1.8453214
1.8493262
1.85319
1.8578357
1.8631507
1.8692385
1.8758636
1.8827773
1.8907333
1.9000549
1.9105307
1.9223244
1.9362694
1.9523636
1.9711399
1.989031
2.0035072
2.0225847
2.0458016
2.0888814
2.1179411
18.431296
3.3701351
1.9979487
1.8774671
1.8519855
1.8507332
1.8537133
1.8591237
1.8628277
1.8675023
1.8735186
1.8798111
1.8865439
1.8940885
1.9019195
1.91107
1.9215908
1.9331936
1.9468451
1.9629579
1.981924
2.0009842
2.0157134
2.0343728
2.0552917
2.0961934
2.12916
19.672836
3.6548303
2.0446
1.8944581
1.8598748
1.861206
1.8635737
1.8689388
1.8734218
1.8784529
1.8845112
1.8909703
1.897565
1.9050384
1.9132192
1.9222157
1.9328405
1.9443579
1.9578957
1.9737484
1.9928815
2.0130066
2.0287157
2.0474468
2.0662928
2.1054524
2.1415616
21.009692
3.8023884
2.0731343
1.9105699
1.8757874
1.8715908
1.8738497
1.879251
1.8832135
1.888107
1.894552
1.9015672
1.9087723
1.9167811
1.9251462
1.9346968
1.9453671
1.9570555
1.9703179
1.985785
2.0045922
2.0255269
2.0422645
2.0608825
2.0779149
2.1130274
2.1519975
22.455873
4.0268348
2.1230665
1.9324255
1.887167
1.8860461
1.886927
1.891748
1.8959676
1.9010144
1.9068129
1.9134239
1.9204175
1.92803
1.9366511
1.9459914
1.9568966
1.9686957
1.9817898
1.9971119
2.015386
2.0373654
2.0548344
2.0748386
2.0907293
2.1229365
2.1635315
24.022337
4.4689232
2.1834683
1.9540975
1.9062899
1.8956323
1.8969776
1.9021111
1.9062038
1.9117402
1.9183675
1.9255283
1.9328955
1.9409652
1.9497693
1.9594626
1.9704561
1.9823381
1.9954538
2.0101276
2.0279244
2.0499573
2.068256
2.0890782
2.1037993
2.1315979
2.1729074
25.716678
5.0943847
2.2745602
1.9794354
1.9212565
1.913066
1.9120195
1.9165866
1.9205523
1.9257563
1.9316624
1.938138
1.9453415
1.9530166
1.9614123
1.9711865
1.9817779
1.9936725
2.0066896
2.0209512
2.038182
2.0603583
2.0796875
2.1020512
2.1173035
2.1414826
2.1834264
27.548104
5.4315036
2.3212212
2.0007828
1.9406989
1.9227259
1.9225627
1.926053
1.9306003
1.9366625
1.9434006
1.9509706
1.9587902
1.9671803
1.9762164
1.9862704
1.9972817
2.009576
2.0224739
2.0366792
2.0525547
2.0742518
2.0929172
2.1155513
2.1310575
2.1503649
2.1904345
29.530103
5.7792563
2.3799069
2.0205329
1.957375
1.9417947
1.9387938
1.9424876
1.9462786
1.9510768
1.9567751
1.9633405
1.9702193
1.9780221
1.9863546
1.9958208
2.0067529
2.0189818
2.032369
2.0470686
2.0627814
2.085317
2.1047585
2.1293538
2.1467812
2.163704
2.2018453
31.660196
6.006779
2.4217301
2.0485349
1.9780697
1.9524872
1.950516
1.9537296
1.9584478
1.9649067
1.9719781
1.9793584
1.9871455
1.9956153
2.0044156
2.01402
2.0245481
2.0360824
2.0489373
2.0625388
2.0765706
2.0979328
2.116144
2.1403052
2.1589525
2.1736075
2.2070076
33.949776
6.4034363
2.4783321
2.0663847
1.9939986
1.9740456
1.9662684
1.9687845
1.9721707
1.9771467
1.9828416
1.9894937
1.9968085
2.0047495
2.0135782
2.0233409
2.0344303
2.046499
2.0600855
2.0746989
2.08925
2.1110435
2.1295588
2.1550583
2.1757741
2.1896367
2.2195314
36.406711
6.8154062
2.5701295
2.101327
2.0181103
1.9864908
1.9804431
1.982437
1.9872864
1.9940737
2.0008178
2.0081648
2.0156272
2.0235487
2.0324215
2.0416702
2.0516139
2.0628663
2.0749979
2.0885534
2.1014184
2.1217287
2.1391996
2.1636474
2.1862145
2.1993601
2.2266142
39.029772
7.3668124
2.6411487
2.1234167
2.0364651
2.0106049
1.9962014
1.9972178
1.9999634
2.004403
2.0103554
2.0174389
2.0248099
2.0328461
2.042019
2.0519577
2.0628049
2.0750998
2.087802
2.1024973
2.1155374
2.135994
2.1534757
2.1774045
2.2017648
2.2145514
2.2387961
41.825741
7.9888728
2.7674824
2.1629948
2.0628629
2.0247644
2.0127945
2.0126288
2.0161727
2.0229065
2.0293002
2.0358891
2.0432934
2.0511895
2.0593877
2.0682791
2.0782175
2.0892178
2.1008789
2.1149623
2.1266056
2.1461007
2.1631754
2.1858482
2.2117648
2.2252873
2.2485608
44.801653
8.6477828
2.8609976
2.1863492
2.07949
2.0498956
2.0280011
2.0262969
2.0274038
2.032196
2.0383501
2.045013
2.0523614
2.0607301
2.0696359
2.0796281
2.0903351
2.1018591
2.1139922
2.1288659
2.1401833
2.1591392
2.1758414
2.1972106
2.2245758
2.2383734
2.2603066
47.948282
9.4950577
3.0273852
2.2292224
2.1067356
2.0657239
2.0465229
2.0430422
2.0451949
2.0505981
2.0565729
2.0631142
2.0702371
2.0774273
2.0853413
2.0942924
2.1041237
2.1148008
2.1260749
2.1408559
2.1514697
2.1698805
2.185732
2.2052577
2.2333661
2.2482303
2.2692199
51.257198
10.248702
3.1512485
2.2564581
2.1225387
2.0889836
2.0600869
2.0551694
2.0548282
2.0592691
2.065103
2.0717213
2.079378
2.0872045
2.0958374
2.1053408
2.115679
2.1268304
2.1379938
2.1531277
2.1638272
2.1817746
2.1981365
2.2156016
2.2444044
2.2602116
2.2806201
54.728643
11.329966
3.3748425
2.306107
2.1514285
2.1060723
2.0812786
2.0730825
2.0732013
2.076555
2.0823998
2.0886596
2.0952083
2.1024781
2.1099899
2.1188146
2.1281271
2.1385668
2.1491541
2.1639331
2.1738376
2.1909224
2.2070876
2.2229646
2.2514756
2.2683374
2.2887506
58.342011
12.19123
3.5372878
2.3379834
2.1671965
2.1280078
2.0939553
2.0840166
2.0818659
2.084647
2.090221
2.0967527
2.1037484
2.1118046
2.1202063
2.1294017
2.1391369
2.1498931
2.1601464
2.175262
2.1851513
2.2015481
2.2181424
2.2320739
2.2606453
2.2778427
2.2985675
62.077872
13.510582
3.8292509
2.3938777
2.1950561
2.1452094
2.1151859
2.1017254
2.0990034
2.100766
2.1059208
2.1114187
2.1174256
2.1244221
2.1317015
2.1405647
2.1493027
2.1599716
2.1693943
2.1843126
2.1936939
2.2093644
2.2260505
2.2384324
2.2659822
2.2841901
2.3052517
65.907936
14.471392
4.0371685
2.4301536
2.2091082
2.1640468
2.1261307
2.1112672
2.1065103
2.1078527
2.1131475
2.1193068
2.1259673
2.1336204
2.1413382
2.1504661
2.1588317
2.1699449
2.1786774
2.1938749
2.2032287
2.2178911
2.2354573
2.2470073
2.2728376
2.2908316
2.3122575
69.800443
15.997165
4.4104144
2.4930937
2.2347361
2.1786122
2.144261
2.1267375
2.1209173
2.1216533
2.1256703
2.1305052
2.1364643
2.1432691
2.1506739
2.1591618
2.1672396
2.1780084
2.1865188
2.201129
2.2100903
2.2239967
2.2415547
2.2527784
2.2768853
2.2954975
2.3173167
73.719366
17.036735
4.6711152
2.5389193
2.2477643
2.1942695
2.153982
2.1349534
2.1270805
2.1274704
2.131684
2.137193
2.1437447
2.1506517
2.1584231
2.1668377
2.1749981
2.185671
2.1934956
2.2085334
2.2173994
2.2306572
2.2483356
2.2593422
2.2820984
2.3000848
2.3219676
77.620494
18.738621
5.1335631
2.6079031
2.2697139
2.2060219
2.1682268
2.1475447
2.1381425
2.1376829
2.140588
2.1451728
2.1509908
2.1572185
2.1649206
2.1731155
2.1813679
2.1919297
2.199362
2.2139095
2.2232309
2.2349
2.2523674
2.2629513
2.2847987
2.3030409
2.3252471
81.448778
19.818943
5.4558141
2.6829367
2.2862041
2.2192413
2.1772225
2.1545696
2.1431933
2.1425528
2.1452106
2.1504278
2.1562175
2.1624182
2.1700665
2.177869
2.1861701
2.1963834
2.2040856
2.2185453
2.2287683
2.2395609
2.2571373
2.267391
2.2880379
2.3051631
2.3272701
85.159059
21.600709
5.9537481
2.7481886
2.3015807
2.2276255
2.1862075
2.1628293
2.1504291
2.1490361
2.1505614
2.1552213
2.160382
2.1669132
2.174098
2.1819979
2.1900203
2.2000441
2.2077796
2.2210727
2.2320901
2.2421406
2.2597351
2.2696109
2.2898678
2.3064334
2.3287543
88.688982
22.749787
6.4430644
2.8559594
2.3216397
2.2373944
2.1936691
2.1680734
2.1543768
2.1516518
2.1531314
2.157831
2.163071
2.1695535
2.1762507
2.1842874
2.1920558
2.2024529
2.2097727
2.2232361
2.2344849
2.2441142
2.2621137
2.271939
2.2917865
2.3072557
2.3288518
91.982546
24.466968
6.9250488
2.9328833
2.3344656
2.2428424
2.1982435
2.1728083
2.1578261
2.154724
2.1556651
2.1597945
2.1652692
2.1714609
2.1781833
2.1862839
2.1939464
2.2044275
2.2115501
2.2240748
2.2358266
2.2451185
2.2626602
2.2726618
2.2919045
2.3069383
2.3281649
94.967243
25.485696
7.3860253
3.0477419
2.3504603
2.2470623
2.2014228
2.1750259
2.1588208
2.1548708
2.1555576
2.1598013
2.1651068
2.1712533
2.1779271
2.1861372
2.1939044
2.204448
2.2117511
2.2237439
2.235778
2.2450225
2.2622712
2.2723974
2.2914306
2.3062076
2.3270014
97.615194
27.361766
8.1062974
3.1690794
2.3685988
2.2511907
2.2031894
2.1760996
2.1588899
2.1545126
2.1551388
2.1591496
2.1644613
2.170566
2.1772892
2.1855477
2.1933054
2.2038201
2.2111266
2.2229305
2.2350394
2.2443619
2.2612965
2.2715647
2.2904206
2.3051137
2.3254686
99.857201
27.700453
8.4586748
3.2670238
2.3788143
2.2506403
2.2019047
2.1750843
2.1579923
2.1534065
2.1539161
2.1578368
2.1630731
2.1692062
2.1760703
2.1843082
2.1922261
2.202665
2.2102394
2.2216874
2.2340242
2.2433562
2.2600257
2.2704273
2.2892188
2.3039202
2.3239425
102.01637
28.082762
8.7417866
3.3416541
2.3884106
2.2499833
2.2004044
2.1732448
2.1557115
2.1508057
2.1511731
2.1550836
2.1603016
2.1666391
2.173723
2.182036
2.1900944
2.2006511
2.2085556
2.2197963
2.2324143
2.2419536
2.2583606
2.2689313
2.2877131
2.3024647
2.3223792
103.25298
29.744033
9.1896735
3.4461342
2.4002193
2.2482302
2.1971328
2.1705616
2.1528097
2.1475422
2.1476738
2.1516888
2.1571396
2.1638379
2.1712898
2.1796634
2.1877078
2.1983178
2.2065064
2.2177821
2.2305003
2.2403478
2.2564433
2.2672647
2.2859886
2.3007415
2.3207666
104.09596
31.561413
9.9945931
3.6281863
2.4165947
2.2468097
2.1944381
2.1678004
2.1499608
2.1445771
2.1445548
2.1482153
2.1537436
2.160432
2.1679172
2.1763418
2.1844806
2.1950505
2.2034014
2.2147086
2.2274869
2.2381233
2.2537503
2.2653669
2.2841637
2.2989768
2.3192544
104.25087
32.411088
10.483818
3.7650457
2.4359124
2.2450424
2.1909153
2.1639559
2.1462037
2.1405438
2.1405771
2.144189
2.1496681
2.1563104
2.1641851
2.1729633
2.1815789
2.1922338
2.2007794
2.2125058
2.2251814
2.2362529
2.2515963
2.2634958
2.2823306
2.2972161
2.3179532
103.72479
33.812953
11.274609
3.9768798
2.4585639
2.2436612
2.1869013
2.160106
2.1425355
2.1368306
2.1368803
2.140588
2.1462212
2.1528517
2.1605317
2.1691541
2.1779359
2.1887454
2.1975119
2.2093085
2.2220024
2.2337444
2.248904
2.2614482
2.2806188
2.2955013
2.3169188
102.82424
34.380968
11.785232
4.1156333
2.477688
2.2405267
2.1822765
2.1550609
2.1374971
2.1318724
2.1319929
2.1359694
2.1419427
2.1489432
2.1569175
2.1656818
2.1746937
2.1855574
2.1949215
2.2069534
2.2200047
2.231906
2.2469865
2.2597454
2.2791527
2.2943737
2.3163483
101.21794
34.796482
12.404284
4.3182026
2.4979837
2.2373172
2.1779658
2.1510178
2.1334848
2.1278445
2.1280343
2.1320288
2.1379863
2.1449424
2.1528409
2.1615721
2.1707094
2.1815876
2.1916731
2.2039678
2.2175121
2.2298571
2.2451202
2.2586341
2.2782172
2.2939025
2.3168877
99.406793
34.911061
12.757815
4.4488854
2.516497
2.2343704
2.1729821
2.1462683
2.1289522
2.1234644
2.1240449
2.1281934
2.1343922
2.1412926
2.1495119
2.1584524
2.1681647
2.1791356
2.1897196
2.2021079
2.2158151
2.2286933
2.2438928
2.2584635
2.2782412
2.2956087
2.3169079
96.853814
34.980095
13.192661
4.6195953
2.5334448
2.2326043
2.1699511
2.142462
2.1252038
2.1196818
2.1206041
2.1248996
2.1315928
2.1387189
2.1471668
2.1561841
2.1657133
2.1769235
2.187521
2.200643
2.2143431
2.2282339
2.2430819
2.2592711
2.2781237
2.2965274
2.3188361
94.254017
34.772796
13.422257
4.7256472
2.548662
2.2298997
2.1669312
2.1394011
2.1224569
2.117011
2.1178957
2.1225999
2.1290701
2.1367473
2.1448783
2.1546715
2.1638586
2.1759686
2.1866127
2.200582
2.2144029
2.2287277
2.2441901
2.2605183
2.2807457
2.3002388
2.3202881
91.011233
34.770853
13.718302
4.8540075
2.5629
2.229014
2.164129
2.1368236
2.1194737
2.1144348
2.1152606
2.1203755
2.127141
2.1350025
2.1440239
2.1534937
2.1637513
2.1750385
2.1870334
2.2000896
2.2151277
2.2290066
2.2454368
2.2633538
2.2840237
2.3021951
2.3239088
87.817997
34.421915
13.869865
4.9358897
2.5740582
2.2289517
2.1630355
2.1344163
2.1176526
2.1127272
2.1140792
2.1193729
2.1266809
2.1347962
2.1439375
2.1538409
2.1638714
2.176045
2.1875805
2.2021403
2.2166596
2.2323125
2.2481328
2.2656142
2.2867089
2.3085163
2.328181
84.095287
34.421561
14.029502
5.0164005
2.5834418
2.2300774
2.1632201
2.1342286
2.1172356
2.1126186
2.1139677
2.1194255
2.126872
2.1349283
2.1443943
2.1541443
2.1647968
2.1765897
2.1887999
2.2029026
2.2182163
2.2337483
2.2513232
2.2721717
2.2922362
2.3112532
2.3336588
80.514146
34.158782
14.140463
5.0841324
2.5910943
2.2311841
2.1640176
2.1342872
2.1175552
2.1128748
2.1142612
2.1202321
2.1275988
2.136481
2.1458591
2.1565013
2.1673733
2.1798425
2.1923727
2.2070074
2.2228138
2.2389674
2.257241
2.2762568
2.2988066
2.3192735
2.341131
76.553098
34.140962
14.255448
5.1490802
2.5995351
2.2333626
2.1647039
2.1351249
2.1182735
2.1138801
2.1152967
2.1209604
2.1290587
2.1375944
2.147653
2.1580177
2.1693141
2.1819039
2.194503
2.2096617
2.2251312
2.2420673
2.2606756
2.2837957
2.3057825
2.3254735
2.3488125
72.777032
33.887649
14.351045
5.2089898
2.607446
2.2355741
2.1662418
2.1360426
2.1195938
2.1155939
2.1174322
2.1237602
2.1319345
2.1412726
2.1516827
2.1625231
2.1743334
2.1873675
2.2009344
2.2167548
2.2327713
2.2504136
2.2703251
2.290648
2.3111813
2.3345674
2.3597351
68.848766
33.665833
14.440759
5.2681448
2.6172456
2.2389707
2.169403
2.1383857
2.1222268
2.11909
2.1199874
2.1263752
2.1343541
2.1434564
2.1542083
2.1650063
2.1775586
2.1903334
2.2045279
2.2202268
2.2367094
2.2548113
2.2757081
2.3000873
2.3237384
2.3437596
2.3685851
65.177241
33.419066
14.555942
5.3321362
2.6266768
2.2430437
2.1723369
2.1409103
2.1253932
2.1225954
2.1248789
2.1311872
2.1395845
2.1489903
2.1599425
2.1715705
2.1844165
2.1983999
2.2128999
2.2295454
2.2465623
2.266174