/*--------------------------------*- C++ -*----------------------------------*\
| =========                 |                                                 |
| \\      /  F ield         | OpenFOAM: The Open Source CFD Toolbox           |
|  \\    /   O peration     | Version:  2406                                  |
|   \\  /    A nd           | Website:  www.openfoam.com                      |
|    \\/     M anipulation  |                                                 |
\*---------------------------------------------------------------------------*/
FoamFile
{
    version     2.0;
    format      ascii;
    arch        "LSB;label=32;scalar=64";
    class       volScalarField;
    location    "4";
    object      p_0;
}
// * * * * * * * * * * * * * * * * * * * * * * * * * * * * * * * * * * * * * //

dimensions      [1 -1 -2 0 0 0 0];

internalField   nonuniform List<scalar> 
96472
(
0.99993632
1.0006152
1.0019204
1.0030572
1.0035338
1.0036109
1.003669
1.0038885
1.0042575
1.0042686
1.003331
1.0014224
0.99921155
0.9976242
0.99721145
0.99792054
0.99938797
1.0007337
1.0009301
0.99922195
0.99519368
0.98949542
0.98329176
0.97722722
0.97166898
0.96704471
0.96356146
0.96107562
0.95948539
0.95870782
0.95861392
0.95902634
0.95962987
0.96040201
0.96111862
0.96132334
0.96098344
0.95984044
0.95764231
0.95456845
0.95033371
0.94559495
0.94032175
0.93526321
0.9299803
0.92518185
0.92058079
0.91647802
0.91259144
0.90930548
0.90609459
0.90349077
0.9005976
0.89880666
0.89674427
0.99992361
1.0005904
1.0019053
1.0030504
1.0035659
1.0036537
1.0036992
1.0039405
1.004296
1.0043473
1.0034347
1.0015195
0.99933992
0.99766128
0.99717689
0.99786612
0.99929641
1.0007808
1.0012222
0.99966064
0.99585816
0.99034747
0.98413038
0.97806863
0.97253021
0.9677991
0.964192
0.96161576
0.95990774
0.95903778
0.95888797
0.95919778
0.95983947
0.96059122
0.96125816
0.96156573
0.96140982
0.96055545
0.95877499
0.95580509
0.952094
0.94744962
0.94249973
0.93719549
0.93204436
0.92702376
0.92245358
0.91799186
0.91438934
0.91061175
0.90742434
0.9044507
0.90222529
0.89986633
0.89766266
0.99991431
1.0005886
1.0019306
1.0031031
1.0036146
1.0036763
1.0037587
1.0039711
1.0043695
1.0043921
1.0035368
1.0016061
0.99939542
0.99772983
0.9971405
0.99779957
0.99919998
1.0007256
1.0014326
1.0001408
0.99650229
0.9911641
0.98501027
0.97891271
0.97335274
0.9685705
0.96484993
0.96215805
0.96032757
0.95936813
0.95910858
0.95935114
0.95997512
0.96075477
0.96153527
0.9619331
0.9618631
0.96123097
0.95963824
0.95719079
0.95355361
0.94928189
0.94435302
0.93913813
0.93409061
0.92911044
0.92422014
0.92008095
0.91566888
0.91195086
0.90899857
0.90601567
0.90321449
0.90055536
0.89855312
0.99990597
1.0005646
1.0018909
1.0030743
1.0036308
1.0037202
1.0037957
1.0039727
1.0043648
1.004438
1.0036323
1.0017636
0.99946879
0.99775513
0.9971341
0.99774338
0.9991843
1.0007053
1.0015528
1.0005924
0.99718129
0.99195799
0.98589235
0.97979788
0.97416941
0.96932505
0.96552908
0.96272878
0.96081421
0.95971734
0.95935078
0.95958017
0.96013481
0.96087766
0.96160384
0.96211499
0.96220223
0.96172443
0.96053542
0.95817166
0.95502275
0.95091186
0.94624617
0.94136967
0.93613839
0.93090757
0.92631544
0.92153694
0.91746166
0.91416788
0.91027268
0.90696286
0.90428445
0.90195381
0.89968968
0.99989775
1.0005613
1.0019207
1.0031421
1.0036917
1.0037897
1.0038323
1.0040452
1.0044104
1.0045416
1.0037081
1.0018675
0.99959417
0.99776315
0.99714161
0.99767268
0.99915066
1.0007458
1.0016472
1.0009298
0.99783313
0.99276082
0.9867603
0.98069407
0.97501417
0.9700935
0.966205
0.96330357
0.96128934
0.96009694
0.9596366
0.95972911
0.96026562
0.96104401
0.96184485
0.96244841
0.96256777
0.96230803
0.96126617
0.95939061
0.95643383
0.95271622
0.94820633
0.94316002
0.93804692
0.93323664
0.92825088
0.92362168
0.91962626
0.91508561
0.91154328
0.90884269
0.90581167
0.90320827
0.90064417
0.99988548
1.0005364
1.0018789
1.0030922
1.0036827
1.0037961
1.0038526
1.0040594
1.0044191
1.0045656
1.0038321
1.0019747
0.99969162
0.99779528
0.99707413
0.9975805
0.99901825
1.0007511
1.0017941
1.0012261
0.99840869
0.99354092
0.98762299
0.98157366
0.97588055
0.97088418
0.96689332
0.96389867
0.96178833
0.9604771
0.95992616
0.95995389
0.96037446
0.96106134
0.96182953
0.96252307
0.96287026
0.96264556
0.9619058
0.9602238
0.95765052
0.95404012
0.94987528
0.94523001
0.94036165
0.93519924
0.93014121
0.92566015
0.92092976
0.91727718
0.91383397
0.9102861
0.90697197
0.90410906
0.90193127
0.99986913
1.0005169
1.0018777
1.0031744
1.0037849
1.0038692
1.0039394
1.0040918
1.0044949
1.004589
1.003911
1.002098
0.99979109
0.9978753
0.99705178
0.99752315
0.99889581
1.0006826
1.001943
1.0015662
0.99895752
0.99429677
0.98848429
0.98245608
0.9767405
0.97167745
0.96759312
0.96451299
0.96230035
0.96088254
0.96020202
0.96013707
0.96055036
0.96125767
0.96200754
0.96272995
0.96308586
0.96310402
0.96254096
0.96119676
0.95888826
0.95573397
0.95180562
0.9471787
0.94218927
0.93714205
0.93243356
0.92759099
0.92334333
0.91905294
0.91506976
0.91128125
0.90855627
0.90602189
0.90324794
0.9998484
1.000499
1.0018492
1.0031078
1.0037308
1.0038582
1.0039124
1.0040772
1.0044633
1.0046433
1.0039785
1.0022391
0.99993413
0.9979644
0.99706437
0.99747059
0.99885421
1.0005862
1.0019839
1.0018811
0.99950927
0.99504079
0.98934802
0.98333425
0.97760015
0.97249489
0.96830348
0.96513647
0.96283163
0.96128887
0.96050491
0.9603301
0.96062644
0.96128998
0.9620772
0.96283401
0.96335221
0.96337224
0.96291696
0.96184158
0.95981111
0.95695899
0.9531449
0.94888781
0.9442307
0.93947101
0.93446188
0.92966759
0.92503716
0.92074758
0.9169438
0.913824
0.91039804
0.90710898
0.90431439
0.99982785
1.0004614
1.0018205
1.0031505
1.003828
1.0039596
1.003986
1.004142
1.0045141
1.0047215
1.0040566
1.0023119
1.0000197
0.99802479
0.99706988
0.99738954
0.99876543
1.0005312
1.0019688
1.0021013
1.0000291
0.99576357
0.99019028
0.98422494
0.97846383
0.97330579
0.96901206
0.96575294
0.96337066
0.96173206
0.96081339
0.96055145
0.96081059
0.96140953
0.96215861
0.96291019
0.96353457
0.96375332
0.96349829
0.96257638
0.96092806
0.9582452
0.95493934
0.95089293
0.94628736
0.94136573
0.9364328
0.93178008
0.92710884
0.9231247
0.91904794
0.91495762
0.91156501
0.90848362
0.90613271
0.99980879
1.0004537
1.0018462
1.0031171
1.0037732
1.0039036
1.0039748
1.0041099
1.0045067
1.004715
1.0041593
1.0024456
1.0001123
0.99807428
0.99704191
0.9973137
0.99863702
1.0005048
1.0020127
1.0022855
1.0004891
0.99645406
0.99102211
0.98508748
0.97933711
0.97414274
0.96976257
0.96639675
0.96391218
0.96219109
0.96116654
0.96078709
0.96093968
0.96146053
0.96223861
0.96295779
0.96357276
0.96387997
0.96374172
0.96308137
0.96158595
0.95937856
0.95625116
0.95234189
0.94799962
0.94339464
0.93872796
0.9338459
0.9295401
0.92471144
0.92064309
0.91692653
0.91376474
0.91065021
0.90769078
0.9997953
1.0004107
1.0018038
1.0031546
1.0038717
1.0040095
1.0040607
1.0041508
1.0045284
1.0047513
1.0042209
1.0025726
1.000251
0.99814228
0.99706098
0.99728167
0.9985207
1.0004092
1.0020691
1.0024845
1.000922
0.99711824
0.99183441
0.98596094
0.98019893
0.97495635
0.97049259
0.96703893
0.96447671
0.96264067
0.96152963
0.96104867
0.96110635
0.96159618
0.96227119
0.96301385
0.96375106
0.96417594
0.9641685
0.96361495
0.96248394
0.96048331
0.95758319
0.95410231
0.95004361
0.9455254
0.94072631
0.93607083
0.93110839
0.92694361
0.92292123
0.91916479
0.91536184
0.9119862
0.9086325
0.99978645
1.0004027
1.001842
1.0031559
1.0038274
1.0039861
1.0040231
1.0041599
1.0045089
1.0047901
1.0042987
1.0026804
1.0003922
0.99823233
0.99707293
0.99722862
0.99843407
1.000261
1.0020333
1.0026538
1.0013351
0.9977619
0.99262242
0.98681993
0.98106865
0.97580606
0.97126727
0.96770122
0.96505706
0.96313363
0.96189199
0.96130334
0.96126329
0.96165869
0.96231691
0.96307396
0.96369796
0.96425992
0.96433855
0.9639782
0.96300212
0.96125244
0.9588241
0.95555484
0.95158607
0.94727029
0.94264455
0.93811209
0.93358043
0.9293247
0.92480434
0.92078328
0.91698872
0.91384709
0.91103155
0.99978251
1.0003542
1.0017814
1.0031279
1.0038825
1.0040653
1.0040918
1.0041847
1.0045452
1.0048062
1.0043682
1.0027833
1.0004804
0.99832106
0.99706982
0.99715671
0.99834859
1.0001572
1.0019623
1.0027677
1.0016959
0.99837554
0.99340044
0.98767638
0.98191962
0.97661422
0.97202533
0.96835753
0.96562896
0.96363951
0.96229473
0.96159521
0.96144965
0.96176122
0.96236058
0.96307662
0.96379254
0.96440845
0.96462298
0.96438378
0.96359131
0.96219121
0.95990917
0.95686617
0.95332783
0.9492115
0.94495855
0.94014916
0.93564127
0.93105488
0.92672964
0.92300248
0.91947535
0.91579488
0.9127288
0.99977579
1.0003393
1.0018138
1.0031657
1.003886
1.004055
1.0041042
1.0041789
1.0045606
1.0048071
1.0044133
1.0029201
1.0006058
0.99841228
0.99710456
0.9970975
0.99824368
1.0000882
1.001932
1.0028616
1.0020079
0.99896385
0.99416622
0.98851746
0.98278762
0.97746659
0.97281202
0.96903842
0.96620028
0.96413442
0.96270684
0.96189967
0.96166077
0.96187256
0.96235537
0.9630274
0.96376413
0.96440467
0.96475044
0.96465944
0.96408864
0.96283598
0.96086915
0.95824175
0.95490423
0.95097592
0.94661245
0.9422986
0.93782761
0.93334375
0.92937291
0.92510727
0.92109956
0.91755448
0.91415155
0.99976858
1.0002939
1.0017561
1.0031139
1.0038854
1.0040953
1.0041202
1.0041733
1.0045248
1.0048671
1.0044647
1.0030059
1.0007443
0.99849066
0.99714735
0.99704681
0.99809658
0.99995283
1.0018995
1.0029486
1.0022991
0.99950979
0.99490791
0.98935404
0.98363479
0.97827741
0.97357486
0.96972086
0.96680629
0.9646466
0.96311023
0.96220021
0.96187174
0.96198157
0.96243262
0.96308073
0.96376329
0.96437846
0.96483719
0.96487006
0.96440783
0.96339128
0.96174887
0.95937697
0.95620092
0.95271603
0.94863356
0.9442849
0.94000026
0.93547612
0.93116232
0.92712469
0.92314339
0.91991664
0.91643915
0.99976154
1.0002725
1.001768
1.0031609
1.0039183
1.0041316
1.004143
1.004214
1.0045408
1.0048923
1.0045521
1.0030973
1.0008496
0.99857729
0.99716135
0.99702292
0.99798511
0.99978518
1.0018129
1.0030056
1.0025723
1.0000263
0.99561519
0.99017458
0.98449585
0.97912661
0.97436363
0.97038899
0.96737142
0.96515779
0.96354155
0.96253214
0.96208436
0.96208418
0.96246444
0.96306077
0.96375732
0.96442873
0.96495383
0.96506921
0.96478248
0.96400863
0.96255974
0.96038139
0.95767295
0.95416569
0.95046017
0.9463904
0.94180366
0.93773333
0.9333932
0.92933126
0.92547742
0.92182194
0.91836174
0.99975493
1.0002373
1.0017301
1.003085
1.0038747
1.0041108
1.0041378
1.0041806
1.0045245
1.0048596
1.0046125
1.0032122
1.0009711
0.99870961
0.99718671
0.99698188
0.99790758
0.99965077
1.0016987
1.0030237
1.0027993
1.0005066
0.99629693
0.99098568
0.9853388
0.97994035
0.97513122
0.97110718
0.96797977
0.96564831
0.96397645
0.96287828
0.96231957
0.96226103
0.96252723
0.96304223
0.96368311
0.96434492
0.9648956
0.96517084
0.96501879
0.96438476
0.96315585
0.96130549
0.95881573
0.9557415
0.9520815
0.94809935
0.94405114
0.93977341
0.93576632
0.93135896
0.92778666
0.9238174
0.92019506
0.99974868
1.0002143
1.0017279
1.0031344
1.0039322
1.0041688
1.0041934
1.0042148
1.0045376
1.0048733
1.0046347
1.0033194
1.0011033
0.99882436
0.99727483
0.99696036
0.99783994
0.99955637
1.0015953
1.0030202
1.002986
1.0009552
0.99695666
0.99176835
0.98619289
0.98079023
0.97591788
0.97178677
0.96858104
0.96618389
0.96439788
0.96320692
0.96257799
0.96239962
0.96260561
0.96304996
0.96367793
0.96429302
0.96489065
0.96526769
0.96522013
0.96475875
0.96377213
0.96225831
0.95990322
0.95714409
0.95385375
0.94994075
0.9462826
0.9419143
0.93766823
0.93371638
0.92988367
0.92599231
0.92254041
0.99974446
1.0001921
1.0017181
1.0030938
1.0038788
1.004148
1.0041563
1.0041894
1.0044969
1.0049038
1.0046821
1.0034088
1.001222
0.99892145
0.99733297
0.99691522
0.99770388
0.99942332
1.0014911
1.0030158
1.0031561
1.0013652
0.99758972
0.99253363
0.98700427
0.98159998
0.97670757
0.97251989
0.96917074
0.96670524
0.96485352
0.9635742
0.96281923
0.9625556
0.96267772
0.96306318
0.96359453
0.96423992
0.96481337
0.96522346
0.96528178
0.96498874
0.96423081
0.96282356
0.96094654
0.95826293
0.95508049
0.95191769
0.94775738
0.94395417
0.93985495
0.93616516
0.93190282
0.92802021
0.9250281
0.99973846
1.0001756
1.0016969
1.003102
1.0039253
1.0042093
1.0042165
1.0042318
1.0045304
1.0049061
1.0047216
1.0034966
1.001333
0.99900654
0.99736043
0.99689224
0.997588
0.99926024
1.0013638
1.0029926
1.0033028
1.0017389
0.99818203
0.99328198
0.98782823
0.98243206
0.97748012
0.97321894
0.96981668
0.96720664
0.96529391
0.96392431
0.96309639
0.96272888
0.96276705
0.96305324
0.96356362
0.96418807
0.96477241
0.96523832
0.96543978
0.96529746
0.96468375
0.96350857
0.96179918
0.95958729
0.95677267
0.95352087
0.94971699
0.94602677
0.94219867
0.93791748
0.93422842
0.93045399
0.9270232
0.99973332
1.0001537
1.0017027
1.0030928
1.0038941
1.00417
1.0041942
1.0041975
1.0044996
1.004886
1.0047477
1.0035831
1.0014636
0.99914755
0.99743672
0.99690042
0.9975223
0.99910462
1.0012048
1.0029228
1.0034086
1.0020813
0.99874712
0.99400236
0.98864516
0.98325806
0.97828142
0.97393805
0.97041934
0.96774185
0.96573742
0.96427396
0.96333699
0.96290659
0.96284803
0.96307684
0.96352218
0.96407401
0.96463029
0.96513285
0.9654517
0.96533195
0.96487438
0.96407654
0.96254257
0.96051003
0.95806018
0.95468014
0.95162865
0.948005
0.94415498
0.94011269
0.93649257
0.93309153
0.92875657
0.9997236
1.0001485
1.0016808
1.0030779
1.0039139
1.0042201
1.0042301
1.0042259
1.0044853
1.0049084
1.0047981
1.0036506
1.0015746
0.99926036
0.99751439
0.99686659
0.99744211
0.99897
1.0010399
1.0028296
1.0034829
1.002386
0.99928313
0.99471061
0.98944062
0.98407817
0.979059
0.97467202
0.97103749
0.96827021
0.96618165
0.96464599
0.96364942
0.96310031
0.96295285
0.96311594
0.96348325
0.96399515
0.96457702
0.96508516
0.96540027
0.96549622
0.96521474
0.96441149
0.96329304
0.96151131
0.95911836
0.95644302
0.95335273
0.9497609
0.94583097
0.94268649
0.93854919
0.93496639
0.93108293
0.999718
1.00013
1.0016871
1.0031009
1.0039139
1.0042164
1.0042281
1.0042163
1.0044726
1.0048942
1.004835
1.0037494
1.0016873
0.9993739
0.99759829
0.99687351
0.99736397
0.9988538
1.0008846
1.0027353
1.003546
1.0026523
0.99978416
0.9953829
0.99022556
0.98487501
0.97985173
0.97537983
0.97169143
0.96878634
0.9666166
0.96502252
0.96389993
0.96325348
0.9630482
0.96313487
0.96343923
0.96391456
0.96445325
0.96496321
0.96537555
0.96552035
0.96537127
0.96479866
0.96376045
0.9623082
0.96022965
0.95783032
0.954732
0.95144843
0.94817669
0.94455188
0.9407985
0.93690622
0.93391205
0.99970665
1.0001275
1.0016716
1.0030646
1.0039041
1.0042292
1.0042489
1.0042245
1.0044876
1.0048762
1.0048478
1.0038385
1.0018145
0.99948688
0.9976634
0.99688825
0.99728635
0.99871328
1.0007259
1.0026312
1.0035791
1.0028888
1.0002456
0.99604682
0.99097795
0.98567097
0.9806283
0.9761103
0.97231715
0.9693491
0.96706478
0.96539074
0.96421049
0.96345441
0.96314157
0.9631653
0.96341916
0.96382231
0.96434237
0.96484387
0.9653167
0.96554674
0.9654426
0.96512645
0.96431971
0.96298471
0.96127833
0.95894633
0.95624029
0.95323115
0.950175
0.9462773
0.94300293
0.93924778
0.93614641
0.99969787
1.0001157
1.0016643
1.0030744
1.0039104
1.0042314
1.0042579
1.0042274
1.0044659
1.0048799
1.0048634
1.0039
1.0019456
0.99961421
0.99775067
0.99690105
0.99721086
0.99854913
1.0005492
1.0024966
1.0035826
1.0030924
1.0006866
0.99665596
0.99174512
0.98646405
0.98143748
0.97683619
0.972965
0.96985704
0.96752861
0.96577069
0.96447156
0.96364336
0.96328008
0.96321305
0.96338928
0.96374237
0.96422365
0.96473866
0.96514474
0.96549793
0.96558775
0.9652852
0.964627
0.96360784
0.96204737
0.96004592
0.95768092
0.95491987
0.95161016
0.94840912
0.94496422
0.94166431
0.93799108
0.99968703
1.0001196
1.0016514
1.0030557
1.0038901
1.0042346
1.0042509
1.0042243
1.0044382
1.004874
1.0049029
1.0039645
1.0020515
0.99973997
0.9978449
0.99692422
0.99715532
0.9983989
1.0003651
1.002353
1.0035562
1.0032728
1.0010808
0.99727087
0.99245875
0.987254
0.98220121
0.97757091
0.97362993
0.97043566
0.96787682
0.96615345
0.96478136
0.96381373
0.96334008
0.96324847
0.96334717
0.96366003
0.96410365
0.96457804
0.96504712
0.9654276
0.96559362
0.96545274
0.96499792
0.96412997
0.96281816
0.96104987
0.95886956
0.95624365
0.95343475
0.9503251
0.94703303
0.94376624
0.94007893
0.99967509
1.0001149
1.0016486
1.0030536
1.0038821
1.0042202
1.0042674
1.0042296
1.0044388
1.004842
1.0049215
1.0040318
1.002153
0.99986958
0.99794378
0.9969426
0.997099
0.99828734
1.0001931
1.0022011
1.0034826
1.003423
1.0014544
0.99781417
0.99319195
0.98798967
0.98302535
0.97824449
0.97430379
0.97094038
0.968469
0.96650332
0.9650487
0.96404358
0.96347931
0.96324836
0.96331944
0.9635685
0.96398001
0.96442606
0.96488223
0.96529339
0.96556227
0.965605
0.96527123
0.96455236
0.96347067
0.96193636
0.95996921
0.95762296
0.95504729
0.95211336
0.94900225
0.9455757
0.94250617
0.93826357
0.93614871
0.93384967
0.9314769
0.92944354
0.92736806
0.92512596
0.92280755
0.92065776
0.91881889
0.91685421
0.91461422
0.91299442
0.91122734
0.90918133
0.90788297
0.90630656
0.90461796
0.90337666
0.90208067
0.90072342
0.89973213
0.89848251
0.89765073
0.8966513
0.89580664
0.89500712
0.93306511
0.93086509
0.92886336
0.92674305
0.92453422
0.92249883
0.92048939
0.91857967
0.9165949
0.91462926
0.91291516
0.91113615
0.90931611
0.90786514
0.90626871
0.90470406
0.90345873
0.90201225
0.90088115
0.89960762
0.89858684
0.89744684
0.8966565
0.89551896
0.89494765
0.89399754
0.89339652
0.92781785
0.92574047
0.9237233
0.92189048
0.9198508
0.9179618
0.91614792
0.91423645
0.91260761
0.91081153
0.9091531
0.90773727
0.90594144
0.90471963
0.9033118
0.90185317
0.90080725
0.89947852
0.89845008
0.89734085
0.89644424
0.89540589
0.89460045
0.89384296
0.89300243
0.89241837
0.89170014
0.92261566
0.92076115
0.91889011
0.91711594
0.91541869
0.91359525
0.91189044
0.91041908
0.90866002
0.90723233
0.90565673
0.90436998
0.90301797
0.9015075
0.90061679
0.8992376
0.8980734
0.89727025
0.89601202
0.89532096
0.89420279
0.89362599
0.8926063
0.89209122
0.89128422
0.89073734
0.89012316
0.91768397
0.916154
0.91430407
0.91256781
0.91132063
0.90947593
0.90795942
0.90670477
0.9049934
0.90397338
0.90243048
0.90107444
0.90036292
0.89866808
0.89781515
0.8969295
0.89563101
0.89493834
0.89394083
0.89315472
0.89234052
0.89165437
0.89092865
0.8902786
0.88970953
0.88910386
0.8886095
0.91311279
0.91176093
0.90997249
0.90851165
0.90730134
0.90563884
0.90446797
0.9031455
0.90167808
0.90078794
0.89954235
0.89821218
0.89745055
0.89634971
0.89527481
0.89439496
0.89373762
0.89252728
0.89209737
0.89113017
0.89055213
0.88984774
0.88922056
0.88870288
0.88807684
0.88764269
0.88714005
0.90872306
0.90748329
0.90610072
0.90467561
0.90342993
0.90229721
0.90099808
0.8999138
0.89888475
0.8974959
0.8969195
0.89581544
0.89450647
0.89419359
0.89303936
0.89205423
0.89176042
0.89054464
0.89016234
0.88935505
0.88880341
0.88818793
0.8876456
0.88713827
0.88661074
0.88616714
0.88578182
0.90468652
0.90347655
0.90239265
0.90112469
0.89998065
0.89907389
0.89783767
0.89690255
0.8962129
0.89479048
0.89413611
0.89360517
0.89215442
0.89179663
0.89115171
0.88991008
0.88983264
0.88878815
0.88829616
0.8877654
0.88707254
0.88673277
0.88606993
0.88572367
0.88519324
0.884792
0.88448082
0.90098874
0.89985063
0.89908276
0.89772492
0.89687583
0.89627275
0.89479501
0.8941653
0.89375353
0.89225248
0.89179549
0.89130857
0.89004834
0.88980641
0.88900891
0.88832061
0.88784402
0.88715358
0.88674737
0.88604417
0.88574444
0.88510528
0.88482873
0.88419447
0.88400998
0.88341506
0.88323496
0.89758377
0.89674064
0.89576796
0.8947942
0.89413833
0.89334739
0.89239102
0.89170564
0.89110976
0.89030476
0.88954196
0.88910123
0.8884028
0.8876607
0.88735167
0.88664081
0.88606953
0.88575182
0.88507919
0.88477835
0.88419192
0.88386495
0.8834381
0.88302008
0.88268617
0.88227864
0.88196858
0.89452802
0.89371269
0.89302815
0.89211667
0.89148511
0.89095145
0.8900177
0.88944022
0.88904238
0.88816922
0.8876562
0.88727642
0.88650786
0.88609186
0.88567612
0.88505561
0.88469679
0.88416316
0.88379701
0.88342022
0.88289448
0.88266392
0.88213047
0.88199259
0.88141756
0.88123981
0.8808361
0.89170096
0.89121288
0.89040944
0.88968771
0.88932577
0.88860126
0.88790316
0.88759905
0.88692545
0.88638268
0.88604752
0.88537388
0.88506646
0.88459224
0.88400405
0.88386192
0.88323131
0.88287548
0.8825977
0.88205722
0.88193302
0.88130663
0.88119263
0.88076847
0.88049273
0.8800988
0.87992662
0.88941373
0.88860939
0.88818355
0.88777117
0.88709015
0.886578
0.88623678
0.88564376
0.88520308
0.88489838
0.88430408
0.88397157
0.88363721
0.8830844
0.88284417
0.88249887
0.88195452
0.88185381
0.88127413
0.8810879
0.88080511
0.88025559
0.88026726
0.87962433
0.87969141
0.87901975
0.87910068
0.88713833
0.88668779
0.88628075
0.8856669
0.88526864
0.88508719
0.88443505
0.88394879
0.88392187
0.8832951
0.88287902
0.8827801
0.88215715
0.88199602
0.88165306
0.88115349
0.88108323
0.88064043
0.88025145
0.88018715
0.87967107
0.87949598
0.87921983
0.87875802
0.87880967
0.87813672
0.87826954
0.88527555
0.88487565
0.88439056
0.8841681
0.88379233
0.8832692
0.88307974
0.88281842
0.88229636
0.88198881
0.88189126
0.88140488
0.88100105
0.88099315
0.88050519
0.88018115
0.88009599
0.87957055
0.87951827
0.87916664
0.87874068
0.87879505
0.87825913
0.87806298
0.87791766
0.87736819
0.87748431
0.88370118
0.88319117
0.88290943
0.88277365
0.88232004
0.88198615
0.88188442
0.88141095
0.88113839
0.88108781
0.880589
0.88025867
0.88026737
0.87984849
0.87945357
0.87948044
0.87913268
0.87868482
0.8787241
0.8782831
0.8781055
0.87796715
0.87742634
0.87746092
0.877184
0.87665042
0.87672861
0.8821238
0.88200406
0.88173787
0.88125216
0.88106056
0.88104236
0.88066292
0.88027492
0.88019409
0.87999899
0.87962231
0.87949589
0.87925997
0.87883356
0.87886808
0.87866868
0.87810645
0.87814304
0.87801545
0.87744656
0.87745907
0.87729522
0.87681815
0.87678829
0.8764704
0.87612956
0.87610959
0.8809209
0.88080712
0.88047114
0.88026256
0.88019992
0.87981043
0.87954343
0.87959022
0.87934057
0.8788824
0.87880231
0.87884724
0.87839516
0.87809482
0.8781722
0.87783456
0.87756534
0.8775755
0.87717984
0.87687783
0.87703671
0.8765665
0.87619215
0.87627547
0.87601528
0.87552979
0.87545671
0.87998628
0.8795966
0.87947963
0.87947796
0.87918935
0.87891499
0.8787946
0.87876737
0.87840616
0.87818357
0.8782958
0.87790204
0.87763192
0.87773869
0.87752343
0.87704607
0.87704424
0.87713313
0.87658198
0.87641128
0.87644884
0.8761145
0.87577627
0.87578837
0.8754275
0.87511045
0.87507056
0.87897328
0.87883062
0.87876973
0.87858105
0.87828505
0.87823963
0.87829886
0.87787883
0.87767281
0.87776743
0.87758119
0.87732452
0.87708835
0.87724936
0.87686691
0.87661632
0.87669996
0.87644991
0.87618364
0.87608749
0.87606855
0.87556049
0.87546224
0.87543308
0.87509462
0.87467035
0.8746594
0.87812439
0.87819709
0.87814373
0.87780093
0.87761163
0.87779703
0.87753784
0.87730072
0.8773021
0.87718134
0.87710697
0.87672293
0.87688405
0.87673716
0.87634146
0.87634301
0.87625231
0.87615575
0.87571251
0.8758464
0.87565011
0.87537733
0.8750684
0.87511892
0.87481634
0.87449604
0.87430349
0.87765683
0.87750917
0.87736847
0.87733355
0.87734504
0.87722606
0.87688557
0.87690319
0.87701276
0.87680825
0.87654861
0.87644257
0.87663613
0.87630636
0.87608734
0.87601124
0.87607564
0.87579683
0.87552606
0.87556176
0.87542015
0.87515725
0.87486659
0.87487407
0.87461208
0.87430328
0.87408657
0.87717391
0.8771095
0.8768406
0.87704983
0.87695845
0.87661672
0.87675816
0.87658655
0.87670023
0.87644305
0.87619669
0.87653625
0.87613913
0.8761431
0.87582811
0.87597059
0.87588251
0.87544754
0.87555404
0.87536074
0.87537406
0.87480294
0.87488638
0.87470062
0.87459994
0.87408128
0.8739405
0.87680291
0.87678811
0.87658473
0.87675672
0.87662438
0.87641112
0.87663473
0.87635301
0.87641014
0.87630274
0.87611193
0.87641966
0.8758664
0.87603593
0.87583715
0.87585973
0.87581716
0.87528534
0.87561814
0.8752021
0.87538562
0.87477492
0.87485073
0.8745868
0.87454296
0.87418832
0.87393581
0.87655007
0.87660266
0.87642646
0.87666599
0.87634912
0.87632475
0.87659829
0.87620231
0.87648513
0.87604222
0.87615594
0.87637138
0.87581957
0.87620453
0.87553166
0.8761125
0.87563549
0.87561133
0.87546261
0.87520628
0.87548942
0.87481416
0.87502973
0.87442408
0.87472991
0.87422692
0.87409149
0.87645712
0.87654818
0.87644569
0.87659563
0.87626651
0.87641461
0.87661008
0.87621466
0.87651139
0.87603025
0.87635972
0.87639575
0.87587428
0.87631283
0.87560162
0.87640221
0.87557306
0.87581726
0.87548747
0.87548343
0.87560885
0.87486276
0.8752272
0.87453761
0.87501515
0.87426536
0.87427949
0.87658649
0.87656563
0.87650561
0.8766358
0.87639654
0.87672692
0.87656891
0.87638424
0.87663426
0.87624372
0.87674035
0.87624752
0.87626293
0.87636486
0.87606622
0.8765319
0.87560181
0.87622365
0.87558684
0.87605104
0.87542448
0.87530318
0.8752989
0.87507352
0.87514504
0.87451207
0.87447309
0.87681452
0.87674777
0.87674501
0.87690297
0.87666487
0.87696112
0.87673944
0.87670788
0.87698219
0.87653196
0.87702139
0.87642343
0.87671337
0.87665045
0.87644617
0.87676114
0.87593854
0.87664481
0.87578951
0.87650848
0.87562096
0.87594343
0.87544736
0.8754638
0.87534604
0.8750967
0.87493724
0.87717324
0.87707287
0.87717562
0.8772053
0.87709369
0.87739488
0.87709921
0.87720175
0.87718466
0.87705016
0.87745168
0.87693026
0.87720326
0.87677806
0.87702505
0.87713358
0.87672635
0.87686792
0.87613343
0.87681966
0.87627391
0.87662225
0.87579665
0.87578411
0.87567926
0.87578907
0.87554567
0.87776825
0.877566
0.87754105
0.87765421
0.87768632
0.8780732
0.87764146
0.87768144
0.87754235
0.87769187
0.87808422
0.87756263
0.87771734
0.87707485
0.87777606
0.87756044
0.87759938
0.87719446
0.87673542
0.87726747
0.87689059
0.877278
0.87635061
0.87644368
0.87616252
0.87637775
0.87610336
0.8784784
0.87819336
0.87814376
0.87817623
0.87858081
0.87864592
0.8784181
0.87828069
0.87809868
0.87863981
0.87848356
0.87858195
0.87807337
0.87805818
0.87833423
0.87813962
0.87841985
0.87758722
0.87792918
0.87753889
0.87786306
0.87752375
0.87736591
0.87709781
0.87701371
0.87687321
0.87673568
0.87921731
0.87906749
0.87895177
0.87908477
0.87937712
0.87925529
0.87936527
0.87904305
0.87917382
0.87935172
0.87917436
0.8794312
0.87882516
0.8792489
0.87883557
0.87905106
0.87893896
0.87862617
0.87890078
0.87826631
0.878655
0.8780784
0.87845663
0.87795076
0.8779757
0.87749389
0.87747217
0.88006546
0.88005582
0.8800463
0.88014318
0.88014524
0.88025098
0.88021189
0.88025772
0.88014386
0.88014359
0.88021301
0.88015497
0.88017715
0.88008727
0.87972879
0.87992209
0.87982057
0.87987641
0.87984515
0.87921503
0.87938055
0.87904652
0.87950761
0.87911696
0.87889665
0.87835706
0.8782656
0.88126017
0.8811894
0.88119112
0.88116586
0.88130586
0.88142933
0.88145237
0.88142985
0.88105454
0.88124623
0.8812027
0.8815042
0.88140923
0.88112546
0.88075214
0.88084366
0.88107099
0.88106836
0.88107515
0.88024571
0.88039424
0.88006146
0.88067091
0.88024939
0.88008152
0.87940332
0.87932445
0.88265377
0.88251542
0.88228795
0.88234439
0.88260263
0.88288079
0.88296126
0.8826197
0.88230258
0.8823593
0.88258083
0.88286894
0.88271764
0.88238835
0.88192451
0.8821236
0.88231749
0.8824213
0.88223639
0.88156387
0.88152766
0.88141562
0.88182438
0.88154275
0.88126673
0.88067339
0.88053943
0.88422749
0.88396207
0.883692
0.8838667
0.88419411
0.88449568
0.88435267
0.883952
0.88366952
0.88384805
0.8841758
0.88435882
0.8841602
0.88364397
0.88344635
0.88343499
0.88390008
0.88375954
0.88367116
0.88293975
0.88292718
0.8828477
0.88315411
0.88294767
0.88256505
0.88209659
0.88187209
0.88626336
0.88571064
0.88543933
0.88558151
0.88596707
0.88617432
0.88596118
0.88559156
0.88530793
0.88555632
0.88575709
0.88595246
0.88566228
0.88523904
0.88511003
0.88502992
0.88547135
0.88523247
0.88520773
0.88448229
0.88454091
0.88436699
0.88467157
0.88444617
0.88406282
0.8836552
0.88335257
0.88804288
0.88775213
0.88751485
0.88747202
0.88774861
0.88790187
0.88779959
0.88758385
0.88733796
0.88746802
0.88745707
0.88758572
0.88729124
0.88708459
0.88698434
0.88694203
0.88713901
0.88686237
0.88678037
0.8862017
0.88628946
0.88612532
0.88635161
0.88611385
0.88571335
0.88530119
0.88501572
0.88976577
0.88974527
0.88971073
0.8897325
0.88983942
0.88980886
0.88968788
0.88953117
0.88941634
0.88953235
0.8894863
0.88949651
0.88921133
0.88901813
0.8888944
0.88889569
0.88895411
0.88876244
0.88860793
0.88818
0.88812188
0.88800665
0.88804307
0.88788739
0.88753604
0.88716202
0.88692775
0.89196318
0.89194438
0.8919425
0.89195956
0.89200222
0.8919305
0.8917671
0.89167883
0.89158562
0.89163054
0.89164251
0.89154305
0.89134393
0.89109033
0.89096089
0.89094496
0.89096248
0.89080504
0.89062244
0.89027171
0.89011655
0.88999425
0.88993163
0.88978645
0.8895049
0.88916945
0.88893893
0.89442704
0.89433997
0.89425998
0.89419602
0.89422286
0.89417922
0.89412314
0.8940544
0.89393236
0.89386995
0.89382051
0.89369931
0.89357493
0.89339425
0.89326794
0.8931932
0.89307244
0.89294752
0.89265298
0.89251171
0.89224976
0.89222588
0.89202091
0.89187367
0.89152412
0.89124993
0.89101501
0.89699687
0.89690812
0.8967378
0.89668675
0.8966612
0.89667511
0.89664628
0.89654002
0.89630182
0.89622491
0.89610081
0.89603493
0.89601571
0.89580216
0.89577359
0.89544748
0.89537645
0.89509017
0.89497187
0.89481487
0.89464884
0.89452167
0.89425694
0.89401797
0.8937147
0.89344392
0.89325908
0.89977858
0.89965253
0.89951863
0.89942395
0.89938708
0.89938841
0.89924085
0.89915246
0.8988741
0.89877842
0.89871216
0.89856504
0.89861727
0.89825743
0.89824283
0.89781296
0.89783709
0.89750021
0.89755847
0.89723763
0.89717185
0.8967235
0.89663123
0.8962276
0.89618408
0.89587772
0.89571331
0.90270945
0.90257543
0.90247526
0.9023606
0.90226445
0.90224164
0.90201518
0.90186349
0.90171629
0.90145999
0.90160811
0.90121523
0.90137816
0.90080892
0.90083618
0.90039845
0.90040396
0.90027539
0.90007025
0.89997012
0.89946778
0.8993472
0.89884044
0.89899381
0.89854117
0.89865742
0.89812653
0.90580964
0.90567294
0.90547479
0.90536052
0.90522826
0.90509863
0.90504347
0.90467058
0.90473021
0.90425981
0.90445322
0.90401366
0.90404355
0.90370833
0.90343503
0.90342727
0.90288423
0.90325123
0.90240449
0.9028805
0.9017747
0.90231347
0.90128666
0.90180099
0.90109531
0.90117426
0.90063077
0.90893698
0.9087994
0.90863415
0.90841765
0.90831708
0.90802737
0.90802561
0.90771997
0.90759799
0.90744261
0.90701685
0.90720171