/*--------------------------------*- C++ -*----------------------------------*\
| =========                 |                                                 |
| \\      /  F ield         | OpenFOAM: The Open Source CFD Toolbox           |
|  \\    /   O peration     | Version:  2406                                  |
|   \\  /    A nd           | Website:  www.openfoam.com                      |
|    \\/     M anipulation  |                                                 |
\*---------------------------------------------------------------------------*/
FoamFile
{
    version     2.0;
    format      ascii;
    arch        "LSB;label=32;scalar=64";
    class       volScalarField;
    location    "4";
    object      p_0;
}
// * * * * * * * * * * * * * * * * * * * * * * * * * * * * * * * * * * * * * //

dimensions      [1 -1 -2 0 0 0 0];

internalField   nonuniform List<scalar> 
62344
(
1.0018716
1.0018901
1.0011869
1.000543
0.99831037
1.0012216
0.99863313
0.99915618
0.99877414
0.99921932
0.99598262
0.99604903
0.99709233
0.99152692
0.99459337
0.99918859
1.0023672
0.99373422
0.98997462
1.0007534
0.99721204
0.99229242
0.99203963
0.97865167
0.98421921
0.97421088
0.96678231
0.97968382
0.96188083
0.93727357
0.94977994
0.96777189
0.96485198
0.94754897
0.94277016
0.94898957
0.95327905
0.94895299
0.93802178
0.92944623
0.93015542
0.94144212
0.95355933
0.95541495
0.94215041
0.91880963
0.89351315
0.87200844
0.8593646
0.85988399
0.87596789
0.90420792
0.93289689
0.94582046
0.93443667
1.0016677
1.00175
1.0010393
1.0002702
0.99888085
1.00057
0.99818382
0.99970808
0.9988671
0.99933577
0.99478378
0.99630519
0.99704486
0.9912563
0.99180479
0.99469703
1.0029718
0.99666027
0.98846101
0.99852334
0.99497462
0.99245667
0.99537337
0.98663576
0.98608957
0.97133216
0.97006613
0.98556825
0.96550063
0.93953143
0.94990875
0.97335601
0.96871404
0.9483154
0.94212354
0.95376284
0.95998417
0.95090019
0.93560086
0.93139766
0.94218603
0.95909702
0.9663594
0.95307377
0.92882949
0.90750767
0.89499208
0.88816207
0.88450221
0.8856284
0.89266725
0.90463243
0.92018048
0.93370928
0.93343388
1.0013345
1.0016526
1.0013785
1.0006796
1.0013329
1.0017102
1.0005805
1.0022629
1.0012134
1.0016712
0.99657394
0.99830391
0.99701218
0.99421901
0.99244631
0.99078521
0.99889362
0.99788158
0.98959855
0.99635006
0.99155429
0.99060753
0.99522866
0.99243161
0.98582277
0.96655341
0.97093805
0.98780504
0.96946116
0.94475107
0.9536476
0.97494337
0.969711
0.94564029
0.94090536
0.95551343
0.96340439
0.95120717
0.93423086
0.93294797
0.94973151
0.96799634
0.96780689
0.94442455
0.91454629
0.89475745
0.89375349
0.90455329
0.91361756
0.91562691
0.91077586
0.90247281
0.89725207
0.89822517
0.90247992
1.001056
1.0016412
1.0020098
1.0016282
1.0036984
1.0032264
1.0038776
1.0056992
1.0044401
1.0040991
1.000758
1.0013049
0.99812095
0.99761114
0.99662276
0.99132685
0.99441185
0.99735014
0.9924637
0.9966629
0.99046664
0.9898558
0.99308729
0.99513643
0.98512153
0.96511293
0.97312672
0.98866358
0.97127043
0.95127462
0.96080739
0.97792233
0.96908927
0.9438677
0.93831165
0.95648319
0.96756081
0.95518048
0.93563101
0.93414164
0.95347618
0.97332401
0.97121768
0.94237162
0.90794822
0.88829918
0.89174927
0.91208882
0.9350309
0.94613003
0.93717591
0.91407706
0.88870369
0.87130868
0.86605592
1.0009037
1.0016582
1.0024005
1.0025925
1.0053263
1.0041811
1.0062779
1.0078915
1.006912
1.0051088
1.0046571
1.0032101
0.99947759
0.9999314
1.0005677
0.99528386
0.99174143
0.99535054
0.99408665
0.99816249
0.99129026
0.98991507
0.98865842
0.99338551
0.98388683
0.96643262
0.97777868
0.98834156
0.97002098
0.95611699
0.96599264
0.9781883
0.96768554
0.94263812
0.93683623
0.95590474
0.96959122
0.958809
0.93850458
0.93549571
0.95355736
0.97239867
0.97140527
0.94418944
0.91064909
0.89139628
0.8943573
0.91561071
0.94441953
0.9641485
0.96037138
0.93440837
0.89997535
0.86913076
0.84978845
1.0009157
1.0017864
1.002573
1.0031555
1.0057308
1.0041796
1.0070034
1.0080136
1.0074246
1.0048242
1.0066673
1.0036503
1.0007002
1.0006756
1.0022647
0.99939356
0.99296393
0.9935215
0.99404741
0.9996199
0.99324493
0.99147089
0.98520578
0.99054908
0.98235609
0.96985253
0.98407239
0.98805347
0.96728691
0.95774764
0.96993773
0.97806032
0.96650046
0.94380186
0.93795695
0.9552226
0.96922673
0.96214093
0.94332832
0.93852142
0.95211879
0.96680126
0.96701019
0.94723453
0.92088327
0.90425456
0.90533689
0.92240174
0.94623595
0.96608475
0.9690071
0.95063152
0.91943153
0.88542132
0.85723966
1.001081
1.0019243
1.0023106
1.0031334
1.0049524
1.0031309
1.0061093
1.0063299
1.0062117
1.003681
1.0064967
1.0026099
1.0010585
1.0002074
1.0017489
1.0008156
0.99607504
0.99249347
0.9927597
0.99953319
0.99486732
0.99326976
0.9841334
0.98908363
0.98098103
0.97390228
0.98991011
0.98758503
0.96412978
0.9584223
0.97201138
0.97671055
0.96505593
0.94694858
0.94239933
0.95573968
0.96670795
0.96348643
0.94968333
0.94416913
0.95177187
0.95878288
0.9575755
0.94703886
0.93217884
0.92276088
0.92380023
0.93411045
0.94705863
0.95706804
0.95997547
0.95180273
0.93106304
0.90468877
0.8780078
1.0012382
1.0019808
1.0018082
1.0026
1.0036822
1.0017647
1.0044431
1.0039878
1.0041682
1.0022602
1.0046059
1.0007441
1.0005107
0.99955409
0.99978952
0.99992134
0.99884809
0.99300002
0.9914861
0.99837363
0.99488919
0.99490295
0.98520729
0.98996511
0.98103168
0.97701542
0.99449957
0.98742615
0.96154398
0.95930683
0.97338529
0.97445775
0.96240375
0.951272
0.94969778
0.95761185
0.96332835
0.96212768
0.95589678
0.95307856
0.9557724
0.95435256
0.947158
0.94053923
0.93840885
0.93949627
0.94324963
0.94900278
0.95247616
0.94972539
0.94344515
0.93564976
0.92642462
0.91325749
0.89709756
1.0013346
1.0019819
1.0014165
1.0020386
1.0023318
1.0006866
1.0029213
1.0019689
1.0022648
1.0011419
1.002003
0.99886239
0.9992403
0.99899021
0.99778195
0.99747081
0.99995591
0.99460106
0.9917613
0.99661567
0.99361143
0.99552007
0.98765665
0.99223943
0.98195844
0.97926466
0.99673102
0.9871923
0.9604914
0.96081719
0.9750566
0.97270529
0.95965701
0.95511627
0.95861534
0.96131843
0.9601735
0.95702514
0.95926065
0.96305906
0.96297107
0.95424319
0.93964843
0.93083589
0.93653374
0.94813537
0.95867294
0.96331992
0.95832015
0.94492036
0.92818061
0.91525362
0.9094685
0.90736897
0.90464259
1.0013215
1.0019554
1.0012467
1.0018406
1.0015448
1.0003417
1.0021138
1.0007896
1.0011665
1.000764
0.9996551
0.99763236
0.99821245
0.99842314
0.99660918
0.99493528
0.99962583
0.99631922
0.99334312
0.99529555
0.99184897
0.99522147
0.99027671
0.9947593
0.98312275
0.98033343
0.99693263
0.98612987
0.96024145
0.96291144
0.97743523
0.97190924
0.95647709
0.95764427
0.96699552
0.96751345
0.95743908
0.94916072
0.95794911
0.97103294
0.97341849
0.95934737
0.93709297
0.9230421
0.92957084
0.94836513
0.96643771
0.97442482
0.96683184
0.94642467
0.92181109
0.90194622
0.89299244
0.89407348
0.90039634
1.0012012
1.0019252
1.0013086
1.0018539
1.0012119
1.0007246
1.0019824
1.0005514
1.0008193
1.0011295
0.99802088
0.99728066
0.99794339
0.99800258
0.99629379
0.9934643
0.99843388
0.99724126
0.99537953
0.99498981
0.99049283
0.99428104
0.99227542
0.99677416
0.98419276
0.98089479
0.99550435
0.98450183
0.96106127
0.96560859
0.98026655
0.97207147
0.95376393
0.95830571
0.97377078
0.97433128
0.95613428
0.94107145
0.9511846
0.9742579
0.98320758
0.96771412
0.94000114
0.91985854
0.92207294
0.94272266
0.96671822
0.98086957
0.97512643
0.9531834
0.92470683
0.89972594
0.88542898
0.88296919
0.89074136
1.0010385
1.0019706
1.0016326
1.0022198
1.0014418
1.0016118
1.0023883
1.0011491
1.0009591
1.0020469
0.99721275
0.99746155
0.9985471
0.99769837
0.99659881
0.99349482
0.99689373
0.99688964
0.99726788
0.99554153
0.99003319
0.99311048
0.99321943
0.99789064
0.98488921
0.98130697
0.99331108
0.98226473
0.96225904
0.96836626
0.98313296
0.97304321
0.95235819
0.95745469
0.97823303
0.98083206
0.95670372
0.9348742
0.94240107
0.97161008
0.98976515
0.97776976
0.94759278
0.92132033
0.91735041
0.93554228
0.9616846
0.98171847
0.98125246
0.96197416
0.93445554
0.90634996
0.88630923
0.87891295
0.883567
1.0009022
1.0020343
1.00209
1.0027921
1.0021585
1.0026984
1.003226
1.0022207
1.0015407
1.0033645
0.99710504
0.99812961
0.99990289
0.99746819
0.99682533
0.99508649
0.9958605
0.99602662
0.9985419
0.99669474
0.99076346
0.992315
0.99326119
0.99790023
0.98549134
0.98205348
0.99147944
0.98018032
0.96346678
0.97091835
0.9855036
0.97460141
0.95269017
0.95595636
0.97987025
0.98573327
0.95897403
0.93160271
0.93449514
0.96480703
0.99098788
0.98622851
0.95641793
0.92741374
0.91740754
0.93040198
0.95432483
0.97714531
0.9831813
0.96933382
0.945176
0.91784354
0.89577399
0.88400336
0.88322845
1.0008094
1.0021316
1.0025057
1.0033395
1.0029491
1.0037287
1.0042837
1.0033445
1.0022101
1.0047172
0.99747912
0.99889073
1.0015609
0.99739323
0.99697317
0.99746515
0.9957545
0.99465785
0.99899209
0.9978501
0.99206824
0.99201944
0.99281513
0.99675604
0.98587825
0.98328787
0.99028352
0.97858779
0.96465011
0.97294609
0.98702708
0.97639184
0.95433355
0.95479786
0.97910168
0.98810476
0.96246396
0.93204163
0.92936802
0.95669409
0.98627168
0.99093793
0.96510755
0.93574855
0.92192414
0.92855076
0.94797336
0.96882528
0.97977931
0.97378995
0.95444399
0.93091032
0.90982543
0.8956857
0.89014061
1.000781
1.0022437
1.0028778
1.0037476
1.0037267
1.004598
1.0051578
1.0043604
1.0028867
1.0056842
0.99820026
0.99961893
1.0032149
0.99748032
0.99693684
0.99981915
0.99635474
0.99337224
0.99863426
0.99871625
0.9936439
0.99224861
0.99239016
0.99508081
0.98606652
0.98481298
0.98981504
0.97781159
0.96592235
0.97431306
0.98733774
0.9780026
0.95693834
0.95451317
0.97689505
0.98796572
0.96620631
0.9353667
0.92809731
0.95013284
0.97799166
0.98968662
0.97205562
0.94476958
0.92938495
0.93103192
0.94472852
0.96172998
0.97268302
0.97242535
0.96086791
0.94264106
0.92407492
0.91014728
0.90183271
1.0008138
1.0023594
1.0031693
1.0040324
1.0043039
1.0052331
1.0056888
1.005108
1.0034849
1.0061599
0.9990248
1.0000965
1.0044594
0.99770878
0.9968058
1.0016954
0.99731335
0.99243727
0.99786313
0.99930509
0.99504148
0.99285652
0.99226876
0.99335923
0.98610615
0.986457
0.98986489
0.977756
0.96740086
0.97534462
0.98685021
0.97919974
0.96018077
0.95535458
0.9741687
0.98510675
0.96862404
0.94017209
0.93126946
0.94769123
0.96979465
0.9827413
0.97469645
0.95301617
0.93845528
0.93658259
0.94526225
0.95677793
0.96525237
0.96674907
0.96177916
0.95048545
0.93641807
0.92449147
0.91581422
1.0009013
1.0024588
1.0033807
1.0041866
1.0045965
1.0055843
1.005858
1.0054347
1.0039708
1.0060896
0.99981319
1.0003231
1.0050379
0.99802627
0.99671309
1.0027875
0.99830607
0.99212879
0.9969811
0.9994903
0.99606128
0.99362332
0.99258998
0.99184247
0.98599422
0.98806845
0.99028661
0.97826947
0.96907054
0.97613263
0.98559134
0.97958897
0.96348517
0.95725694
0.97118196
0.98037911
0.96936975
0.94626121
0.93788803
0.94875493
0.96348141
0.97382085
0.97148495
0.95920003
0.94763176
0.94425862
0.94853059
0.95504095
0.95916534
0.96014525
0.95775706
0.95246382
0.944348
0.93594024
0.92862601
1.0010396
1.0025254
1.003506
1.0041468
1.0045948
1.0056411
1.0056745
1.0053602
1.0042944
1.0055261
1.0004371
1.0003129
1.004879
0.99838847
0.9967149
1.0028314
0.99919012
0.99244924
0.99625876
0.99928377
0.99660492
0.99437068
0.99332766
0.99071599
0.98585097
0.98944594
0.99080436
0.97916878
0.97091377
0.97680357
0.98384748
0.97901064
0.96663695
0.96018448
0.96862118
0.97468707
0.96796091
0.95276692
0.94637032
0.95292133
0.96002926
0.96460838
0.96417914
0.96148935
0.95626814
0.95289939
0.95410612
0.95632364
0.95548419
0.95361578
0.95144766
0.94967296
0.94697782
0.94308494
0.93846192
1.0012011
1.0025662
1.0035224
1.0039103
1.0043321
1.0054267
1.0052202
1.0049934
1.0044493
1.004521
1.0008589
1.0002408
1.0039856
0.99872
0.99679366
1.0020419
0.99986684
0.99327825
0.99583365
0.99869779
0.9966426
0.99492766
0.99440357
0.99002443
0.98582302
0.99059309
0.9912856
0.98027822
0.97286312
0.97755944
0.98176616
0.97767004
0.96905433
0.96391746
0.9672197
0.9688916
0.96460629
0.9576999
0.95521645
0.95858516
0.95961336
0.95682285
0.95451822
0.95859721
0.96219805
0.9617686
0.96181389
0.96006008
0.95476636
0.94859075
0.94484668
0.94435462
0.94548127
0.94584036
0.94446105
1.001368
1.0025921
1.003459
1.003506
1.0038551
1.0049554
1.0045757
1.0044001
1.0044466
1.0031915
1.0010908
1.0001403
1.0025394
0.99896261
0.99693425
1.0006438
1.0002312
0.99437452
0.99576937
0.99790158
0.99632631
0.99525663
0.99567208
0.98975123
0.98595437
0.9915311
0.99169532
0.98138034
0.97483339
0.97846866
0.97979639
0.97566223
0.97056529
0.96808877
0.96725666
0.96393229
0.95982874
0.96027521
0.96372241
0.96577048
0.96197393
0.95145248
0.94494839
0.95200134
0.96363756
0.96939773
0.97031722
0.96580832
0.95643887
0.94581305
0.93914001
0.93829453
0.94126367
0.94489866
0.94688104
1.0015241
1.0026067
1.0033626
1.0029928
1.0032514
1.0043193
1.0038279
1.0036863
1.0043191
1.0017124
1.0011352
1.0000395
1.0008039
0.99904643
0.99716072
0.99892953
1.0003238
0.99567439
0.99601543
0.99712534
0.99566463
0.9953182
0.99697729
0.98982632
0.98620852
0.99226924
0.99206132
0.98238326
0.9767222
0.97951435
0.97818982
0.97321376
0.9712532
0.97210568
0.96860592
0.96027829
0.95447317
0.96025477
0.97058413
0.97396586
0.96611456
0.94881191
0.93673571
0.9433815
0.96089353
0.97439694
0.97851671
0.97311157
0.96079506
0.94560568
0.93520669
0.93242939
0.93543924
0.94118504
0.94618412
1.0016622
1.0026092
1.0032625
1.0024565
1.0026221
1.0036035
1.0030483
1.0029855
1.0040999
1.0002352
1.0010358
0.99995578
0.99903023
0.99892482
0.99748023
0.99713954
1.000089
0.99685047
0.99649142
0.99644236
0.99481406
0.99511738
0.99816717
0.99010398
0.98653265
0.9928634
0.99239907
0.98324918
0.97846645
0.98060557
0.9770272
0.97065817
0.97108963
0.97553146
0.970941
0.95802135
0.94941376
0.95805223
0.97497581
0.98183855
0.97180435
0.94861192
0.93077775
0.93434053
0.95481858
0.97588411
0.98536789
0.98123818
0.96670687
0.9479447
0.93369245
0.92771227
0.92903537
0.93558037
0.94303243
1.0017753
1.0026018
1.0031712
1.0019692
1.0020584
1.0029121
1.0023109
1.0023467
1.0038731
0.99891682
1.0008337
0.99992016
0.99739034
0.99867703
0.99781284
0.99548788
0.99968359
0.99795667
0.99699661
0.99592218
0.99396635
0.99475818
0.99930738
0.99048857
0.98690344
0.99337422
0.99275073
0.98400281
0.98000547
0.98177399
0.9763514
0.96840802
0.97029868
0.97811818
0.97388824
0.95730889
0.94530044
0.95441168
0.97679961
0.98872056
0.97866944
0.95070742
0.92757924
0.92624346
0.94701751
0.97358048
0.99009786
0.98950423
0.97370026
0.95252331
0.93463287
0.92469016
0.92352354
0.92973676
0.93828656
1.0018673
1.0025897
1.0030938
1.0015662
1.0015993
1.0022925
1.0016722
1.0018345
1.0036626
0.99783648
1.0005408
0.99990534
0.99601047
0.99827856
0.99818349
0.99412533
0.99898288
0.99884049
0.99747214
0.99553023
0.99316993
0.99412074
1.0000618
0.99097043
0.98721898
0.99371058
0.99298857
0.98460275
0.98130469
0.98286899
0.97614672
0.9665663
0.96915775
0.97964114
0.97687863
0.95794165
0.94240813
0.95028792
0.97582758
0.99383289
0.98526044
0.95460597
0.92656971
0.91969173
0.9387203
0.9679561
0.99152051
0.99609027
0.98075281
0.95843972
0.93724585
0.923335
0.91933279
0.92334421
0.93189651
1.0019299
1.0025776
1.0030359
1.0012726
1.0012727
1.0018139
1.0011756
1.0014652
1.0035436
0.99701931
1.0003034
0.99993479
0.99495252
0.99798387
0.99848364
0.99317117
0.99842003
0.99954756
0.99785561
0.99534609
0.99259099
0.99373173
1.0007712
0.991411
0.9875375
0.99397256
0.99338234
0.98511825
0.98226605
0.98380316
0.97645107
0.96525835
0.96795633
0.98033128
0.97958192
0.95970022
0.94077728
0.94646149
0.97295856
0.99678836
0.9917101
0.95998898
0.92761643
0.915569
0.93116752
0.96073198
0.99024512
1.0016589
0.98910024
0.9652463
0.94155462
0.92409643
0.91713063
0.91953673
0.92688587
1.0019661
1.0025694
1.0030008
1.0010745
1.00107
1.0014957
1.0008495
1.0012127
1.0034778
0.99649987
1.0000497
0.9999483
0.99426799
0.9976266
0.99869708
0.99257726
0.99782511
0.99998727
0.99814439
0.9953023
0.9921909
0.99302094
1.0011462
0.99185647
0.98755736
0.99392175
0.99373325
0.98551527
0.98269763
0.9843881
0.97718048
0.96465965
0.96647442
0.98016097
0.98200432
0.96216246
0.94062235
0.94226932
0.96869849
0.99694554
0.99801481
0.96693344
0.93090957
0.9135949
0.92250401
0.95171363
0.98561914
1.003339
0.99674676
0.97387195
0.94759135
0.92689456
0.91635585
0.91443841
0.92008181
1.0019813
1.0025644
1.0029859
1.0009855
1.0009768
1.0013394
1.0006983
1.0010885
1.0034705
0.99631266
0.99992219
0.99999722
0.99399099
0.99744353
0.99884134
0.99233946
0.9974857
1.0000945
0.99832267
0.99540712
0.99218783
0.99265551
1.0011636
0.99259721
0.98777596
0.99373789
0.9941402
0.98620711
0.98318936
0.984835
0.97822567
0.96566119
0.96544968
0.97897822
0.98290798
0.96537356
0.94345058
0.94050417
0.96401677
0.99217318
0.99954426
0.97362885
0.93873706
0.91724061
0.9201802
0.94401112
0.97628683
0.99884282
0.99844047
0.98066579
0.95669611
0.93450615
0.9212478
0.91668706
0.91925955
0.92935976
0.9325272
0.93976136
0.94371005
0.94795988
0.94956267
0.94925596
0.94646744
0.94107349
0.93265919
0.92168699
0.9098894
0.89960335
0.89341686
0.89282796
0.89766002
0.90445885
0.90658893
0.89864483
0.87952384
0.8563876
0.84104915
0.84439205
0.86772219
0.89817814
0.90932662
0.89739538
0.94603612
0.94904916
0.95316385
0.95306346
0.9531078
0.9507614
0.94659624
0.9406013
0.9328289
0.92397819
0.91538514
0.90911334
0.90670424
0.908093
0.91279497
0.91785299
0.91877958
0.90983608
0.89156918
0.86889286
0.85092191
0.84704568
0.85931341
0.87950076
0.88622128
0.86941804
0.84468048
0.95443456
0.95502893
0.95449235
0.95091762
0.94728064
0.94206937
0.93587126
0.92904165
0.92223899
0.91671723
0.91385695
0.91464738
0.91881295
0.92580735
0.93192916
0.93208516
0.92299562
0.90546754
0.88358348
0.86539451
0.86020392
0.86887483
0.88593672
0.89387393
0.8748425
0.83693755
0.80569669
0.9468624
0.94409225
0.94037767
0.9350914
0.92962963
0.92377724
0.9182686
0.91405017
0.91197363
0.91258104
0.91640287
0.92314552
0.93137901
0.93759056
0.9375023
0.92839421
0.91179139
0.89149727
0.87457923
0.86904891
0.87803476
0.89675468
0.91101489
0.90144381
0.86440263
0.81896377
0.79481618
0.92756546
0.92143668
0.91591259
0.90983443
0.90478302
0.90090084
0.89907659
0.89995674
0.90373169
0.91015141
0.91862188
0.92747215
0.93347747
0.93310053
0.92476347
0.90963095
0.89085081
0.87480554
0.86918273
0.87829502
0.89881759
0.91967289
0.9223588
0.89659299
0.85363875
0.81630132
0.80845387
0.90046294
0.89338052
0.8889459
0.88532192
0.88360648
0.8839193
0.88667569
0.89182025
0.89889663
0.90709312
0.91446648
0.91843929
0.91723449
0.91031277
0.8976511
0.88175847
0.8683195
0.86372503
0.87157873
0.89082802
0.91365805
0.92449929
0.91177646
0.87848886
0.84341884
0.82664224
0.83711024
0.87767988
0.87346544
0.87303391
0.87325631
0.87540779
0.87937199
0.88476433
0.89076775
0.89594617
0.89946421
0.89973277
0.89572173
0.88778243
0.87652283
0.86370141
0.85377159
0.8519521
0.8607961
0.87918172
0.90077876
0.91381701
0.90803455
0.8840898
0.85412465
0.83625505
0.84372437
0.87285427
0.87209303
0.87193224
0.87642236
0.87956623
0.88347955
0.88738033
0.89050506
0.89195546
0.89075437
0.88642563
0.87873236
0.86835384
0.85647228
0.84537466
0.83854672
0.83891053
0.84809585
0.86535291
0.88490958
0.89784443
0.89466589
0.87652556
0.85008238
0.83200663
0.83527262
0.86372845
0.90340551
0.88550218
0.88833175
0.89289033
0.89588225
0.89783591
0.89782267
0.89531203
0.89020144
0.8824298
0.87207268
0.86003722
0.84815618
0.83869111
0.83409014
0.83608228
0.84486052
0.85935251
0.87446317
0.88272255
0.87920294
0.86230129
0.83868452
0.82015267
0.82011012
0.84270955
0.88320385
0.91897458
0.90549748
0.9080741
0.90865427
0.90738808
0.90454069
0.89954758
0.89229332
0.88299139
0.8720505
0.86057893
0.85072243
0.84439382
0.84334309
0.84764661
0.85698048
0.86910252
0.87960874
0.88217267
0.87403613
0.85451986
0.82868248
0.80692053
0.80187194
0.81909789
0.8557515
0.89735005
0.91566225
0.91122524
0.91044286
0.90695803
0.90136049
0.89490904
0.8870063
0.8780733
0.86912078
0.86119479
0.85581923
0.85459392
0.85813131
0.86576972
0.87696775
0.8891361
0.89787089
0.89728211
0.88639543
0.86342248
0.83364756
0.80732525
0.79460538
0.80243216
0.83005279
0.86959356
0.89859627
0.89409635
0.88978504
0.8850105
0.87929876
0.8733666
0.86717832
0.86129279
0.85657665
0.85403776
0.85453326
0.85886973
0.86696477
0.87854948
0.8925593
0.90571363
0.91394547
0.91304461
0.90166723
0.87980187
0.85182898
0.82450992
0.80752278
0.8074742
0.82442591
0.85361308
0.88025815
0.88619053
0.86321317
0.85215325
0.84539515
0.84070662
0.83704698
0.83495443
0.8349102
0.83763661
0.84365715
0.85283029
0.86471879
0.87898784
0.89348987
0.90546916
0.91209711
0.91070546
0.90077117
0.8821079
0.86009227
0.83911745
0.82650255
0.82688688
0.83996985
0.86220399
0.88320479
0.8868011
0.86881941
0.83273582
0.81964696
0.81554988
0.81472782
0.81564668
0.81863949
0.82419025
0.83237519
0.84288426
0.85523331
0.86819209
0.88004108
0.88770309
0.89002192
0.88660216
0.87651516
0.86123677
0.84452991
0.83107976
0.82656932
0.83394283
0.85194018
0.87772315
0.90136684
0.9080439
0.89123522
0.85495786
0.81447888
0.81346801
0.81419463
0.81896029
0.82366517
0.82975179
0.83726167
0.84569072
0.85400525
0.86080233
0.86470075
0.86479743
0.86058509
0.85227846
0.8399865
0.82533469
0.81205353
0.8041294
0.80493728
0.81710973
0.84036155
0.87168616
0.90268947
0.92039384
0.91530518
0.88842978
0.84853381
0.81516487
0.83877829
0.84313648
0.84962944
0.85543447
0.86091897
0.86523827
0.86745901
0.86695513
0.86317973
0.85597622
0.84510862
0.83079889
0.81423436
0.79666647
0.78310453
0.77643611
0.77850262
0.79120345
0.8143108
0.84574219
0.87850632
0.9015089
0.90808927
0.89558056
0.87109349
0.84468478
0.83102906
0.88013885
0.88534517
0.88835844
0.88989184
0.88978526
0.88711547
0.88144335
0.87262488
0.86069411
0.84591041
0.82923823
0.81193638
0.79474085
0.78021926
0.7733426
0.77351929
0.78215065
0.7998343
0.82428709
0.84960822
0.86810957
0.87393209
0.86917353
0.85360348
0.83865204
0.83610438
0.84702731
0.90912898
0.91127116
0.90983361
0.90603485
0.89984121
0.89119947
0.88011032
0.86692771
0.85209831
0.83730104
0.82314269
0.81059367
0.8014208
0.7974854
0.79932514
0.80676033
0.81898796
0.83392698
0.84756444
0.85390841
0.84946964
0.83667683
0.81922427
0.8041901
0.80299242
0.82047068
0.85162894
0.90023337
0.89728788
0.89084778
0.884424
0.87704682
0.86872271
0.85968549
0.85052331
0.84163483
0.83406081
0.82882658
0.82724446
0.82990327
0.8371232
0.848038
0.86107695
0.87332435
0.88036678
0.87653768
0.86138096
0.83680058
0.8075994
0.7800249
0.767521
0.77619143
0.80346257
0.84314461
0.85116047
0.84552467
0.83998996
0.83488495
0.83019448
0.82655394
0.82453471
0.82438602
0.82657217
0.83129902
0.83909067
0.85050088
0.86533344
0.88308089
0.90108514
0.91587686
0.92327301
0.91883854
0.90046568
0.87081013
0.83547959
0.79859832
0.76869294
0.75783722
0.76765221
0.79341556
0.82825591
0.794019
0.78768125
0.784435
0.78286522
0.78296332
0.78522097
0.79019899
0.79852776
0.81035132
0.82604501
0.84544353
0.8676567
0.89095442
0.91342106
0.93183857
0.94264291
0.94306502
0.93138043
0.90846416
0.87768889
0.84413963
0.8118059
0.78928079
0.78096808
0.7858967
0.7995832
0.81763288
0.75650202
0.75323486
0.75301085
0.75459141
0.75828763
0.7648965
0.77474308
0.78799599
0.80474659
0.82488338
0.84747066
0.87059094
0.89183128
0.90955828
0.92133246
0.92540109
0.92031479
0.90818677
0.89148924
0.87248148
0.85412361
0.83831947
0.83060871
0.82643786
0.82511506
0.82459506
0.82248958
0.7520446
0.75307076
0.75797594
0.76285948
0.76972125
0.77850926
0.7894444
0.80240865
0.81693042
0.83192603
0.84609578
0.85815279
0.86700537
0.87226832
0.87359572
0.87162896
0.86618711
0.85945637
0.8545627
0.85284259
0.8544374
0.86059739
0.87114408
0.87808959
0.87636385
0.86293147
0.84435399
0.78571261
0.78979603
0.79694231
0.80422669
0.81181153
0.81967638
0.82732549
0.83413301
0.8391258
0.84169802
0.84149126
0.83837912
0.83254626
0.82452413
0.81562575
0.80774935
0.80172927
0.80223597
0.80847707
0.8214271
0.84129755
0.86671782
0.89308298
0.91211309
0.9181779
0.90589439
0.8794167
0.84757738
0.85261905
0.85721605
0.86146094
0.86517842
0.86735236
0.86715503
0.86416037
0.85800333
0.84859402
0.8363653
0.82104934
0.8039321
0.7865345
0.77105386
0.75994664
0.75522423
0.75780996
0.76966863
0.79088798
0.82061547
0.85569497
0.89103663
0.918889
0.93359859
0.93261202
0.91412204
0.91337649
0.91753975
0.91830361
0.91670635
0.91257109
0.90570518
0.89611471
0.88367461
0.86852902
0.85094144
0.83106266
0.81012366
0.78990631
0.77110515
0.75515086
0.7438963
0.73888579
0.74022899
0.75128167
0.77205277
0.80103328
0.83488933
0.86790832
0.89702921
0.91833806
0.93000758
0.92875788
0.95031686
0.95199225
0.94928982
0.94387356
0.93561773
0.92428495
0.90986121
0.89253818
0.87305352
0.85241722
0.83202705
0.81272131
0.79523296
0.7802543
0.76787171
0.75872731
0.75387371
0.75408177
0.76023198
0.77267645
0.7913204
0.81331066
0.83661467
0.86145155
0.88322834
0.90313042
0.9151648
0.9452768
0.94417431
0.93824564
0.93189182
0.92416961
0.91440595
0.90268592
0.88923376
0.87444352
0.85910608
0.84455882
0.83105715
0.81922148
0.80925959
0.80130267
0.79553266
0.79203957
0.79124743
0.79217994
0.79401144
0.79672423
0.80136118
0.80987597
0.82366716
0.84207638
0.86288161
0.88070818
0.90322727
0.90037567
0.89615718
0.891732
0.88683158
0.88194474
0.87716306
0.87272123
0.86861327
0.86444582
0.8602766
0.85629201
0.85263267
0.84960786
0.84742503
0.84579525
0.84374717
0.84139469
0.83581378
0.82727559
0.81644949
0.80490801
0.79710001
0.79686609
0.80507494
0.8200481
0.83779933
0.84300147
0.84105419
0.83939477
0.83912886
0.8401011
0.84232145
0.84594642
0.8506676
0.85624677
0.86240521
0.86899931
0.87592556
0.88319714
0.8899622
0.89515325
0.89811166
0.8978868
0.89396814
0.88328136
0.86638564
0.84450084
0.82095744
0.80079579
0.78705447
0.78062075
0.78478515
0.79706413
0.79281459
0.79154483
0.79206302
0.79493567
0.79984079
0.80688586
0.81586488
0.82656455
0.83895361
0.85306829
0.8684444
0.88516107
0.9015421
0.91632754
0.92877711
0.93722216
0.94010371
0.93565644
0.92352823
0.90352804
0.87699166
0.8472152
0.81825929
0.79221342
0.77275108
0.76299552
0.76588141
0.76665534
0.76596585
0.76746043
0.77130439
0.77729426
0.78547039
0.79603448
0.80899926
0.82438262
0.84220419
0.86203624
0.88303128
0.90429766
0.9244423
0.94175898
0.9544909
0.96062298
0.95887431
0.94923986
0.93149296
0.90643044
0.87646415
0.8433099
0.81061161
0.78115617
0.7591856
0.74999662
0.76324048
0.76327778
0.7653986
0.76914226
0.77434863
0.78131638
0.79057597
0.80235229
0.81678764
0.8337377
0.85275875
0.87290645
0.89409595
0.91521654
0.93412708
0.9493719
0.95889675
0.9617974
0.95791836
0.94660036
0.92828817
0.90261321
0.87154673
0.8361311
0.80125791
0.77107784
0.75020716
0.77628426
0.77700339
0.77938377
0.78266883
0.78680134
0.7920831
0.79886143
0.80714829
0.81735253
0.82956242
0.8435712
0.8592618
0.87725583
0.89499627
0.91188427
0.92734406
0.94009511
0.94846309
0.95172678
0.94936853
0.93987573
0.92146333
0.89697888
0.86486133
0.82843651
0.7933549
0.76597091
0.80109833
0.80204922
0.80375465
0.80605234
0.80884974
0.81211063
0.81583443
0.82011211
0.82504147
0.83111841
0.83903387
0.84906015
0.86053117
0.87284652
0.88627706
0.90125386
0.91448783
0.92643718
0.93568483
0.94099431
0.94021537
0.93209199
0.91585196
0.8909962
0.85813834
0.82257083
0.79105402
0.83067099
0.83118093
0.83189231
0.83265697
0.8334808
0.83433328
0.8351802
0.83604
0.83700985
0.83831607
0.84017102
0.84331927
0.84820122
0.85522048
0.86511041
0.87615663
0.88966199
0.90286451
0.91582223
0.92592588
0.93203238
0.9321626
0.9248768
0.90927506
0.88492926
0.85343213
0.82128444
0.85788401
0.85809442
0.85811955
0.85790749
0.85739784
0.85649968
0.8551812
0.85331551
0.85069757
0.84770369
0.84513647
0.8432466
0.84281115
0.84418084
0.84871217
0.85655502
0.86720302
0.88065536
0.8942442
0.90774277
0.91824632
0.92513787
0.92580505
0.91963925
0.90489226
0.88137655
0.85195003
0.88329066
0.88304787
0.88220509
0.88077165
0.87872475
0.87599714
0.87238479
0.86786224
0.86269803
0.85706891
0.85147932
0.84630761
0.84187534
0.83935595
0.83991179
0.8435368
0.85116288
0.86182229
0.87455117
0.8883445
0.90178662
0.91273016
0.9203028
0.92226506
0.91722681
0.90314155
0.88016619
0.90228889
0.9018461
0.90063841
0.89857501
0.89554681
0.89155653
0.88660107
0.88085597
0.87441619
0.86731336
0.85987103
0.85250427
0.84563891
0.83993304
0.83639161
0.8361624
0.83945894
0.8469639
0.85776126
0.87091882
0.88493153
0.89908437
0.91145562
0.92046531
0.92392343
0.91918567
0.90415749
0.91726104
0.91651245
0.9147506
0.91200723
0.9082957
0.90362216
0.89805754
0.89174191
0.88476953
0.87700426
0.86846873
0.85965961
0.85117777
0.84365055
0.83744934
0.83357148
0.83293836
0.83626888
0.84411187
0.85558643
0.8694307
0.88499187
0.90097708
0.91503577
0.92564988
0.92975995
0.9235164
0.92806054
0.92726619
0.92552407
0.9228247
0.91916442
0.91452161
0.90890974
0.90233326
0.89487776
0.88667151
0.8778195
0.86849751
0.85909954
0.84975457
0.84098498
0.83412775
0.83008017
0.82999109
0.83450904
0.84351961
0.85669374
0.8726478
0.89108968
0.90922491
0.92536272
0.93646634
0.93802473
0.9361223
0.93529084
0.93353141
0.93083498
0.92718898
0.92262516
0.91715302
0.9107694
0.903535
0.89550848
0.88676165
0.87726154
0.86731994
0.85723213
0.84749829
0.83867776
0.83191477
0.82818929
0.82904434
0.83551449
0.84705978
0.86300277
0.88260815
0.90380275
0.92424498
0.9407588
0.94870316
0.94240735
0.94162646
0.93999201
0.93741426
0.93390871
0.92948254
0.92418668
0.91804906
0.9111988
0.90361168
0.89525579
0.88596436
0.87579338
0.86513901
0.85429141
0.84408123
0.8354654
0.82957152
0.82808442
0.83204472
0.84185216
0.85723274
0.87727068
0.90006179
0.92319811
0.94388429
0.95676146
0.94421125
0.94358095
0.94219659
0.94002178
0.9370392
0.93320896
0.92850411
0.92292494
0.91645539
0.90921816
0.90130777
0.89254919
0.88296119
0.87254888
0.86166088
0.85075024
0.84096304
0.83364964
0.83049928
0.83296051
0.84154464
0.85618899
0.87560687
0.89897782
0.92386227
0.94731932
0.96381691
0.94224669
0.94184163
0.94087663
0.93921519
0.9368237
0.93364909
0.92972456
0.92502039
0.91947627
0.91312426
0.90601312
0.8979781
0.88894937
0.87900199
0.86836705
0.8575972
0.84770448
0.83972382
0.83545004
0.83676605
0.84419316
0.8577184
0.87667915
0.90009449
0.92576894
0.95072591
0.96925414
0.93961241