/*--------------------------------*- C++ -*----------------------------------*\
| =========                 |                                                 |
| \\      /  F ield         | OpenFOAM: The Open Source CFD Toolbox           |
|  \\    /   O peration     | Version:  2406                                  |
|   \\  /    A nd           | Website:  www.openfoam.com                      |
|    \\/     M anipulation  |                                                 |
\*---------------------------------------------------------------------------*/
FoamFile
{
    version     2.0;
    format      ascii;
    arch        "LSB;label=32;scalar=64";
    class       surfaceScalarField;
    location    "4";
    object      phi;
}
// * * * * * * * * * * * * * * * * * * * * * * * * * * * * * * * * * * * * * //

dimensions      [1 0 -1 0 0 0 0];

oriented        oriented;

internalField   nonuniform List<scalar> 
192068
(
0.0015995073
2.57907e-06
-1.5274665e-06
0.001588183
-8.9166533e-05
9.39689e-05
0.0015635422
-0.00029958436
0.00031437312
0.001534561
-0.00042846215
0.00044401763
0.0015058404
-0.00043348715
0.0004472523
0.0014798268
-0.00039054234
0.00040359893
0.0014567395
-0.00034998873
0.00036001164
0.0014379135
-0.00031633368
0.00032762885
0.0014219264
-0.00028522067
0.00029387768
0.0014030578
-0.00025287965
0.00026240978
0.0013756586
-0.00022399182
0.00023096005
0.0013417626
-0.00020146174
0.00020968868
0.0013092257
-0.00018917702
0.00019940551
0.0012852145
-0.00018903839
0.00019653163
0.001273693
-0.00018683251
0.00019637591
0.0012738174
-0.00018247507
0.00019033808
0.0012804477
-0.00016656463
0.00017347596
0.0012853979
-0.0001417944
0.00015031253
0.001279671
-0.00011588163
0.00012126918
0.0012569063
-8.2307516e-05
8.2765717e-05
0.0012196421
-5.0569137e-05
5.4075693e-05
0.0011765638
-2.9366771e-05
3.3445406e-05
0.0011362622
-1.8940712e-05
2.1918841e-05
0.0011044193
-1.6359262e-05
2.3521622e-05
0.0010832687
-2.1476346e-05
2.9420813e-05
0.0010745731
-2.9164576e-05
3.4326811e-05
0.0010781394
-3.2865076e-05
3.7108219e-05
0.0010908939
-3.3890221e-05
3.7305258e-05
0.0011114464
-3.0188921e-05
3.2801507e-05
0.0011392663
-2.2098317e-05
2.3148608e-05
0.0011734101
-9.282817e-06
6.5343954e-06
0.001212588
9.706585e-06
-1.3862117e-05
0.0012547492
3.1580435e-05
-3.8139869e-05
0.0012982644
5.6911555e-05
-6.7323067e-05
0.0013397715
8.4725133e-05
-9.6865525e-05
0.0013773012
0.00011545412
-0.00012612413
0.0014098127
0.00014619734
-0.00015756629
0.0014334069
0.00017714291
-0.00019402776
0.0014467111
0.00020861273
-0.00022950358
0.0014515914
0.0002417692
-0.00026140434
0.0014493279
0.00027463125
-0.00029649794
0.0014413105
0.00030521014
-0.00033269578
0.0014305951
0.0003358565
-0.00036490247
0.0014230015
0.00036705005
-0.0003909269
0.0014141066
0.00039160544
-0.00042514836
0.0014116936
0.00041883607
-0.0004475501
0.0014131884
0.00044181118
-0.00047456745
0.0014156313
0.0004627391
-0.00050034855
0.001427397
0.00048284956
-0.00051421658
0.0014414802
0.00050279349
-0.00054107478
0.0014578086
0.00051422479
-0.00055592388
0.0014798452
0.00053095544
-0.00057426963
0.0015029329
0.00054105509
-0.00058179912
0.0015365663
0.00055032696
-0.00059612253
0.00057367233
0.0015640321
-0.00061157683
0.0016014014
3.726761e-06
0.0015902194
-8.5047337e-05
0.001565458
-0.0002861696
0.0015361491
-0.00041105563
0.0015069928
-0.00041532795
0.0014805989
-0.00037600619
0.0014574103
-0.0003376728
0.0014385881
-0.00030584154
0.0014229622
-0.00027513373
0.0014044358
-0.00024420959
0.0013772266
-0.00021600795
0.0013432072
-0.00019556642
0.0013101156
-0.00018078234
0.0012855322
-0.00017958713
0.0012734554
-0.00017911873
0.0012730791
-0.00017457781
0.0012793587
-0.00016164738
0.0012846385
-0.00013723665
0.001280066
-0.00011008355
0.0012586977
-8.0018909e-05
0.0012225407
-4.9903597e-05
0.0011801017
-2.6108426e-05
0.0011396062
-1.5418883e-05
0.001106812
-1.2425882e-05
0.001084443
-1.5221149e-05
0.0010745706
-2.2856453e-05
0.0010769595
-2.778514e-05
0.0010889917
-3.005015e-05
0.0011088464
-2.8271613e-05
0.0011358739
-2.2172606e-05
0.0011696913
-1.0083146e-05
0.0012080924
5.779775e-06
0.0012496923
2.6527275e-05
0.0012928742
5.0010501e-05
0.0013349717
7.4709777e-05
0.001373063
0.00010212885
0.0014064916
0.00013007315
0.0014320279
0.00016066981
0.0014487178
0.00019169516
0.0014558964
0.00022132673
0.0014556634
0.0002524975
0.0014497149
0.00028209344
0.0014418427
0.00031196338
0.0014313981
0.00033639064
0.0014249555
0.00036408447
0.0014205093
0.0003878011
0.0014189602
0.00040875993
0.0014241956
0.00043062109
0.0014314925
0.00044902718
0.0014419331
0.00046283286
0.0014567092
0.0004800803
0.0014773689
0.00049139856
0.0014993214
0.00050847205
0.0015240918
0.00051007231
0.00053058088
0.0015529783
0.001602835
4.9684255e-06
0.0015917227
-7.9271957e-05
0.0015670109
-0.00027031479
0.0015377782
-0.00039454499
0.0015084465
-0.00040167466
0.0014818874
-0.00036488628
0.0014585931
-0.00032582052
0.0014396769
-0.00029665759
0.0014241903
-0.00026536553
0.0014059101
-0.00023708153
0.0013789096
-0.00020795825
0.0013449031
-0.00018802382
0.0013113854
-0.00017524086
0.0012862871
-0.00017031028
0.001273707
-0.00017083743
0.001273019
-0.0001667548
0.0012795439
-0.00015520542
0.0012855352
-0.00013420424
0.0012822857
-0.0001062241
0.0012625623
-7.5200857e-05
0.0012273323
-4.8416068e-05
0.0011849396
-2.4038349e-05
0.0011437723
-1.1755836e-05
0.0011099794
-8.5013052e-06
0.0010859766
-1.09122e-05
0.0010745216
-1.7069946e-05
0.0010754448
-2.2892088e-05
0.0010863007
-2.659241e-05
0.0011053883
-2.6337922e-05
0.0011320738
-2.1818026e-05
0.0011651748
-1.211479e-05
0.0012037616
1.9653769e-06
0.0012456107
1.9787381e-05
0.0012895284
4.1680429e-05
0.0013329629
6.5768442e-05
0.0013726575
9.2017908e-05
0.0014084637
0.00011942333
0.0014369312
0.00014757319
0.0014560004
0.00017462667
0.0014661001
0.00020417141
0.001467724
0.00023133738
0.0014633859
0.00025847537
0.0014544356
0.00028538353
0.0014464271
0.00031226726
0.0014384737
0.0003365984
0.0014329477
0.00035829658
0.0014311332
0.0003788782
0.0014341397
0.00039870136
0.0014359102
0.00041351284
0.0014495099
0.00043099603
0.0014616593
0.00044882046
0.0014801995
0.0004558587
0.0014978057
0.00046979747
0.0015187375
0.000471198
0.000491514
0.0015471557
0.0016046276
6.1898231e-06
0.0015937207
-7.5885907e-05
0.0015689506
-0.00025820657
0.0015395469
-0.00037763918
0.0015098908
-0.0003827208
0.0014831608
-0.00034706447
0.0014596728
-0.00031252718
0.001440739
-0.0002862707
0.0014253835
-0.00025691513
0.0014075742
-0.00022710183
0.0013809051
-0.00020062689
0.0013469673
-0.00017891176
0.0013132174
-0.00016724464
0.0012875662
-0.00016338777
0.0012746885
-0.00016131445
0.0012738045
-0.000158393
0.0012805863
-0.00014555819
0.0012874185
-0.00012812575
0.0012855816
-0.00010383578
0.001267491
-7.1753185e-05
0.0012333649
-4.5376453e-05
0.0011909674
-2.2160177e-05
0.0011490958
-9.162002e-06
0.0011139804
-4.7247599e-06
0.0010883931
-6.7560819e-06
0.0010751438
-1.2386772e-05
0.0010744838
-1.835318e-05
0.0010839577
-2.2654347e-05
0.0011018349
-2.3404155e-05
0.0011271908
-2.1109145e-05
0.0011596983
-1.3201028e-05
0.0011973374
-1.5715475e-06
0.0012390479
1.5412608e-05
0.0012831634
3.4736082e-05
0.0013274379
5.5375693e-05
0.0013690987
7.8848304e-05
0.0014069675
0.00010438535
0.0014385274
0.00013173193
0.0014618242
0.00015900999
0.001474682
0.00018465094
0.0014795428
0.00021240324
0.0014773757
0.0002383222
0.0014709923
0.000264345
0.0014623757
0.00028755004
0.0014530433
0.00030919702
0.0014467547
0.00032961498
0.0014437444
0.00035148491
0.0014417617
0.0003655649
0.0014479924
0.00038656576
0.0014567986
0.000398852
0.0014655706
0.00041148439
0.0014796361
0.00041817474
0.0014981931
0.00043506559
0.0015207986
0.00043965682
0.00045494688
0.0015436787
0.0016061491
7.604954e-06
0.0015953569
-7.0241961e-05
0.0015706578
-0.0002402228
0.0015412604
-0.00035996002
0.0015113733
-0.00036913516
0.001484406
-0.00033508116
0.0014607542
-0.00030222767
0.0014418199
-0.00027379256
0.0014266386
-0.00024710977
0.0014091058
-0.000217007
0.0013827609
-0.0001923569
0.0013488223
-0.00017275857
0.0013147967
-0.00015863403
0.0012886296
-0.00015694171
0.0012752997
-0.00015372956
0.001274277
-0.00015165953
0.0012811048
-0.0001389199
0.0012887411
-0.00012050791
0.0012884318
-0.00010031244
0.0012720502
-7.082602e-05
0.0012392472
-4.3656975e-05
0.0011971193
-2.0371043e-05
0.001154765
-7.1403039e-06
0.0011186578
-1.578607e-06
0.0010917362
-2.7206119e-06
0.0010768017
-8.0490016e-06
0.0010746478
-1.3820477e-05
0.0010829441
-1.8593997e-05
0.0010995611
-2.0534854e-05
0.0011239338
-2.0018838e-05
0.0011551329
-1.332804e-05
0.0011918587
-4.6053346e-06
0.0012326501
9.688953e-06
0.0012762213
2.7258529e-05
0.0013207147
4.8362379e-05
0.0013636588
7.0772467e-05
0.0014029718
9.3954314e-05
0.0014375056
0.00011922616
0.001463538
0.00014283969
0.0014812495
0.0001696832
0.0014894014
0.00019384651
0.0014902611
0.00021799732
0.0014852439
0.00024159323
0.0014767589
0.00026309164
0.0014683968
0.00028568329
0.0014626281
0.00030712109
0.0014556077
0.00032398826
0.0014556882
0.00034010671
0.0014578548
0.00035703509
0.0014596775
0.00036399285
0.0014702
0.00038136632
0.0014857527
0.00039268021
0.0015015587
0.00040303874
0.0015173051
0.00040369131
0.00041958808
0.0015385755
0.0016075005
9.3918412e-06
0.0015968805
-6.7987568e-05
0.0015722117
-0.00022945981
0.0015427858
-0.00034421923
0.001512711
-0.00034988742
0.0014855372
-0.00031854531
0.0014618626
-0.00028727344
0.0014428363
-0.00026314538
0.0014278759
-0.00023642425
0.0014106196
-0.00020963357
0.0013846464
-0.0001828124
0.0013508098
-0.00016546314
0.0013164168
-0.00015198549
0.0012898222
-0.00014935627
0.0012759058
-0.00014750888
0.0012747301
-0.00014429992
0.0012816306
-0.0001344292
0.0012899185
-0.00011462122
0.0012910711
-9.4000157e-05
0.0012764039
-6.8579555e-05
0.0012448858
-4.3218749e-05
0.0012030497
-1.9358659e-05
0.0011602208
-5.5214615e-06
0.0011229991
5.3163384e-07
0.0010947324
4.6934675e-07
0.0010782724
-4.0511251e-06
0.0010746133
-9.5472869e-06
0.0010816417
-1.477685e-05
0.0010971159
-1.7755909e-05
0.0011204859
-1.836768e-05
0.0011506996
-1.3313407e-05
0.0011865546
-6.070367e-06
0.0012265839
6.6083186e-06
0.0012697701
2.0606308e-05
0.0013138341
3.7974716e-05
0.0013574014
5.7301152e-05
0.0013976602
8.037365e-05
0.0014337634
0.0001039841
0.0014634115
0.00012842933
0.0014835654
0.00015020563
0.0014952892
0.00017537551
0.0014985433
0.00019628875
0.0014964175
0.00022084279
0.001490561
0.00024261346
0.001483613
0.00026350031
0.0014745199
0.0002787675
0.0014694082
0.00029718977
0.0014669169
0.00031236971
0.0014649566
0.00032579969
0.0014710546
0.00034098728
0.0014812117
0.0003546913
0.0014868639
0.00035684754
0.0014995177
0.00036863261
0.0015156732
0.00037261047
0.00038840862
0.0015356766
0.0016090132
1.1499242e-05
0.0015985685
-6.3066701e-05
0.0015740803
-0.0002117231
0.0015446617
-0.00032346819
0.0015142167
-0.00033370707
0.0014867859
-0.00030572781
0.0014629511
-0.00027507819
0.0014439019
-0.00025212426
0.0014290336
-0.00022563203
0.0014121099
-0.00020186218
0.0013864206
-0.00017602796
0.0013527539
-0.0001569641
0.00131807
-0.00014391448
0.0012909711
-0.00014068229
0.0012765458
-0.00013934409
0.001274969
-0.00013622234
0.0012820159
-0.00012781623
0.001290919
-0.00011059638
0.0012934406
-8.8536608e-05
0.0012806478
-6.4093836e-05
0.0012505792
-4.215102e-05
0.0012092325
-1.8467596e-05
0.0011659872
-4.0561416e-06
0.0011277098
2.4525679e-06
0.0010981318
3.2767532e-06
0.0010800797
-5.6392586e-07
0.0010747535
-5.7454132e-06
0.0010804787
-1.0879913e-05
0.0010946668
-1.5123877e-05
0.0011171602
-1.6639044e-05
0.0011463734
-1.3369583e-05
0.0011814895
-8.3398232e-06
0.0012206002
3.2410346e-06
0.001263314
1.6576298e-05
0.0013069404
3.3070488e-05
0.0013513462
5.1219849e-05
0.0013921099
7.0120886e-05
0.001430065
9.2020741e-05
0.0014609876
0.00011397782
0.0014851071
0.00013638311
0.0014989908
0.00015850976
0.0015063224
0.00018056215
0.0015063965
0.00020159125
0.0015015517
0.0002199148
0.0014936603
0.00023847546
0.0014869174
0.00025668384
0.0014821102
0.00027490834
0.0014769279
0.0002876653
0.0014788979
0.00030407464
0.001478991
0.00031014675
0.00148178
0.00032157619
0.0014900371
0.00032920296
0.0015035082
0.00034304348
0.0015181807
0.00034665017
0.00035708185
0.0015331549
0.0016101522
1.4029837e-05
0.001599677
-6.1154899e-05
0.0015753301
-0.00020236757
0.0015459855
-0.00031097994
0.0015154814
-0.00031762057
0.0014879541
-0.00028922017
0.0014639685
-0.00026295772
0.001444908
-0.00024091834
0.0014301099
-0.00021698337
0.0014136157
-0.00019021234
0.0013882661
-0.00016839696
0.0013547817
-0.00014972524
0.0013198764
-0.00013594697
0.0012922472
-0.00013268912
0.0012773385
-0.00013023702
0.0012753105
-0.00012862078
0.0012823402
-0.00011922781
0.0012917835
-0.00010624725
0.00129549
-8.6457852e-05
0.0012845288
-6.0678885e-05
0.0012561406
-4.0202027e-05
0.0012153831
-1.7725398e-05
0.0011718036
-2.8740389e-06
0.0011324719
3.9693028e-06
0.0011015034
5.0108339e-06
0.0010818277
2.1632274e-06
0.0010748369
-2.3410207e-06
0.001079115
-7.4694536e-06
0.0010921767
-1.2092667e-05
0.001113423
-1.5190232e-05
0.0011417436
-1.2695768e-05
0.0011759518
-9.7320753e-06
0.0012146321
-7.0674568e-08
0.0012568245
1.0290635e-05
0.0013002913
2.5021062e-05
0.0013444902
4.0810949e-05
0.0013866209
6.1044778e-05
0.0014250549
7.9131224e-05
0.0014583566
0.00010038548
0.0014843552
0.00011913677
0.0015020768
0.00014127231
0.0015109435
0.00015956664
0.0015129414
0.00017900862
0.0015105002
0.00019898061
0.0015054118
0.00021825636
0.0014992159
0.00023467415
0.0014922942
0.00024911292
0.0014882599
0.00026171552
0.0014834792
0.00027305012
0.0014848559
0.00028570453
0.0014895061
0.00029868278
0.0014976411
0.00030606716
0.0015068027
0.00031391666
0.0015145666
0.0003137452
0.00032613273
0.001529858
0.0016116949
1.6391679e-05
0.0016014323
-5.7004439e-05
0.0015773433
-0.00018536522
0.0015479632
-0.00028969924
0.0015170924
-0.00029902402
0.001489197
-0.00027431766
0.0014650892
-0.00024906333
0.0014459695
-0.00022706865
0.0014313577
-0.00020459224
0.0014150539
-0.00018055788
0.0013900441
-0.00015956502
0.0013566948
-0.00014359407
0.0013215862
-0.00013056414
0.0012935099
-0.00012615274
0.0012779977
-0.00012317988
0.0012755826
-0.0001227452
0.0012823842
-0.00011344833
0.0012924125
-9.9483473e-05
0.0012972881
-8.3814492e-05
0.0012880837
-5.9013798e-05
0.0012614701
-3.8985506e-05
0.0012215814
-1.7099802e-05
0.0011778388
-2.0962128e-06
0.0011375397
5.4625204e-06
0.0011052769
7.2420118e-06
0.0010839689
4.9063346e-06
0.0010751891
5.3515446e-07
0.0010779061
-4.6786546e-06
0.0010896723
-9.6511785e-06
0.001109791
-1.3068192e-05
0.0011369676
-1.2193224e-05
0.0011704449
-1.0718778e-05
0.0012082745
-1.8919685e-06
0.0012499479
6.7324808e-06
0.0012931471
2.0556158e-05
0.0013378467
3.4548374e-05
0.0013803126
5.1890768e-05
0.0014198593
6.9033724e-05
0.0014545438
8.9725098e-05
0.0014832194
0.00010731071
0.0015031884
0.00012764516
0.0015148406
0.0001448988
0.001520584
0.00016528124
0.0015200376
0.00018169809
0.0015153544
0.0001977857
0.0015083546
0.00021203657
0.0015017721
0.00022690537
0.0014959542
0.00024049216
0.0014945249
0.00025413098
0.001493895
0.00026318303
0.0014957547
0.00027182788
0.0014972783
0.00027454515
0.0015041135
0.00028499554
0.0015148593
0.00028979122
0.00030261793
0.0015303989
0.0016130065
1.8305603e-05
0.0016028448
-5.4080264e-05
0.0015789999
-0.00017399183
0.0015495138
-0.00027664746
0.0015183508
-0.00028401631
0.0014902617
-0.00026113112
0.0014661333
-0.00023613156
0.0014469526
-0.00021791156
0.0014324627
-0.00019503021
0.0014164372
-0.00017264117
0.0013918385
-0.00015049118
0.00135865
-0.00013455968
0.00132336
-0.00012328983
0.0012947606
-0.00011946365
0.001278586
-0.00011628652
0.0012757967
-0.00011570473
0.0012824751
-0.0001081795
0.0012929286
-9.2701417e-05
0.0012989678
-7.8236088e-05
0.0012913504
-5.6431594e-05
0.0012665134
-3.8355935e-05
0.0012276552
-1.6911356e-05
0.0011839181
-1.5771303e-06
0.0011427556
5.7940541e-06
0.0011092768
8.5065168e-06
0.0010863234
6.7503466e-06
0.0010757141
3.6171566e-06
0.0010767089
-1.7624239e-06
0.0010871186
-7.1262685e-06
0.001106051
-1.1350931e-05
0.001132123
-1.1132966e-05
0.0011646592
-1.1186911e-05
0.0012018905
-3.9141502e-06
0.0012430966
2.5215731e-06
0.0012860039
1.5123111e-05
0.0013303035
2.6563617e-05
0.0013736686
4.3871163e-05
0.0014138838
5.7053915e-05
0.0014499084
7.6383524e-05
0.0014804309
9.22116e-05
0.0015029716
0.00011072268
0.0015182944
0.00012788746
0.0015250473
0.00014433003
0.0015261029
0.00015963877
0.0015231187
0.0001768068
0.0015179492
0.00019205557
0.0015122725
0.00020679529
0.0015065743
0.00021721467
0.0015021981
0.00022892713
0.0014980971
0.00023562969
0.0014973839
0.00024677183
0.0015023119
0.00025492385
0.0015092556
0.00026458208
0.0015183412
0.00026624218
0.00027360147
0.0015256766
0.0016144659
1.9460069e-05
0.0016043708
-5.0410816e-05
0.0015808116
-0.00015914652
0.0015513654
-0.00025390422
0.0015198829
-0.00026260936
0.0014915422
-0.00024273492
0.0014672124
-0.00022092473
0.0014480044
-0.00020302934
0.0014335591
-0.00018355905
0.0014178447
-0.00016251888
0.0013936197
-0.00014290299
0.0013606244
-0.00012697589
0.0013252174
-0.00011460181
0.0012961021
-0.00011231421
0.001279315
-0.00010832178
0.0012759785
-0.00010767372
0.0012825233
-0.0001018356
0.0012932613
-8.8328774e-05
0.0013004077
-7.321281e-05
0.00129442
-5.2578523e-05
0.0012713498
-3.6994376e-05
0.001233626
-1.6805392e-05
0.0011899433
-1.4595548e-06
0.0011481163
6.349022e-06
0.0011134771
9.8346658e-06
0.00108903
8.553163e-06
0.0010764795
5.5054646e-06
0.0010756814
4.448342e-07
0.0010847281
-4.4857043e-06
0.0011022985
-9.6040263e-06
0.0011272288
-1.0025205e-05
0.0011588599
-1.1397959e-05
0.0011952155
-4.8263495e-06
0.0012358052
-2.4810997e-07
0.0012782992
1.0842159e-05
0.0013227977
2.1220487e-05
0.0013661755
3.7235338e-05
0.0014074963
4.9655784e-05
0.0014445697
6.7851003e-05
0.0014766365
8.1936598e-05
0.0015021591
0.00010068113
0.0015189403
0.0001145874
0.0015284406
0.00013106924
0.0015326228
0.00014638961
0.0015314687
0.00016139396
0.0015269582
0.00017358407
0.0015200104
0.00018574024
0.0015146005
0.00019763134
0.0015075534
0.00020646445
0.0015064015
0.00021757843
0.0015062907
0.00022700253
0.0015079053
0.00023081489
0.0015092694
0.00023596001
0.001514429
0.00023888837
0.0002469558
0.001522568
0.0016154719
2.026521e-05
0.0016051987
-4.6273011e-05
0.0015819746
-0.00014652408
0.0015526334
-0.00024133706
0.0015211273
-0.0002498712
0.0014926795
-0.00023033907
0.0014682818
-0.00021085422
0.0014489959
-0.00019253092
0.0014346399
-0.00017432216
0.0014192154
-0.00015247326
0.0013953944
-0.00013352797
0.0013626369
-0.00011982346
0.0013270981
-0.00010721881
0.0012975473
-0.00010465071
0.0012800964
-0.00010144271
0.0012761453
-0.00010103168
0.0012824503
-9.4674682e-05
0.001293419
-8.4049982e-05
0.0013015119
-7.0741036e-05
0.0012972434
-4.9039839e-05
0.0012759998
-3.545365e-05
0.0012395041
-1.6516456e-05
0.0011959993
-1.6282683e-06
0.0011535807
6.0456652e-06
0.0011178517
1.0203401e-05
0.0010919484
9.7159874e-06
0.0010775716
7.8177491e-06
0.0010750279
2.9263467e-06
0.0010825665
-1.8019608e-06
0.0010987154
-7.0966606e-06
0.0011223693
-8.5548839e-06
0.0011528521
-1.1211773e-05
0.0011884352
-6.1075556e-06
0.0012281026
-3.4593205e-06
0.0012706251
7.380133e-06
0.0013146601
1.5354788e-05
0.0013582703
2.9251179e-05
0.0014003847
3.9584363e-05
0.0014384005
5.6044722e-05
0.0014723073
6.8916089e-05
0.0014991642
8.5150105e-05
0.001518958
9.8306148e-05
0.0015315548
0.00011466457
0.001536861
0.000126863
0.0015366862
0.00014019871
0.0015332012
0.00015337565
0.0015284083
0.00016588642
0.0015213749
0.00017596755
0.0015178859
0.00018787739
0.0015135344
0.0001952369
0.001509403
0.0002015617
0.0015081717
0.0002077092
0.0015109801
0.00021507238
0.0015149905
0.00021952735
0.00022866252
0.0015255822
0.0016165985
2.0831767e-05
0.0016062707
-4.3343593e-05
0.0015833364
-0.00013462595
0.0015540947
-0.00022090197
0.0015224932
-0.00022676304
0.0014938363
-0.00021125434
0.0014693969
-0.00019312524
0.0014500109
-0.00017781693
0.0014357861
-0.00016007509
0.0014205608
-0.00014363958
0.0013971123
-0.00012537795
0.0013645984
-0.00011216181
0.0013289568
-0.00010149936
0.0012989609
-9.7480867e-05
0.0012808605
-9.4260868e-05
0.0012763441
-9.4445712e-05
0.0012822797
-8.7348683e-05
0.0012934461
-7.6883426e-05
0.0013024037
-6.7470234e-05
0.001299643
-4.6152968e-05
0.0012802796
-3.4328699e-05
0.0012451817
-1.6118212e-05
0.0012020168
-1.7100127e-06
0.0011591181
6.0840031e-06
0.0011223255
1.0531863e-05
0.001095084
1.0333793e-05
0.0010789115
8.8251522e-06
0.001074593
4.4451205e-06
0.0010806112
3.6581165e-07
0.0010952537
-5.2024931e-06
0.0011175665
-6.5837479e-06
0.0011468033
-1.0627708e-05
0.0011813575
-6.2612696e-06
0.0012204186
-5.3858889e-06
0.001262314
3.8469351e-06
0.0013058441
1.0064438e-05
0.0013498216
2.4914276e-05
0.0013925511
3.4029234e-05
0.0014317174
4.9914971e-05
0.0014665935
6.0959496e-05
0.0014956485
7.6937385e-05
0.0015182167
8.914269e-05
0.0015322648
0.00010296721
0.0015395797
0.00011390294
0.0015425273
0.00012840525
0.001540153
0.00013823564
0.0015357396
0.00015052055
0.0015299701
0.00015887845
0.0015236637
0.0001668392
0.0015170881
0.00017430141
0.0015150276
0.00018248671
0.0015136781
0.00018866653
0.0015158967
0.00019565175
0.0015180201
0.00019649482
0.00020302846
0.001521208
0.001617582
2.0999089e-05
0.0016071331
-3.8404539e-05
0.001584616
-0.00012068884
0.0015554699
-0.00020541307
0.001523742
-0.00021278307
0.0014949809
-0.00019997478
0.0014704802
-0.00018225837
0.0014510458
-0.00016814617
0.0014367934
-0.00015034323
0.0014218564
-0.00013352845
0.0013988375
-0.0001171873
0.0013665704
-0.00010386988
0.0013309501
-9.289939e-05
0.0013004597
-9.0386266e-05
0.0012817152
-8.5953551e-05
0.0012766125
-8.8072984e-05
0.0012821594
-8.1688903e-05
0.0012933449
-6.9971983e-05
0.0013031525
-6.2697439e-05
0.0013018158
-4.2862322e-05
0.0012843612
-3.3331131e-05
0.0012507753
-1.5839528e-05
0.0012081229
-1.8134816e-06
0.0011648022
5.4693645e-06
0.0011269898
1.0235616e-05
0.0010984016
1.0969058e-05
0.0010805153
1.0209719e-05
0.0010743956
6.4827198e-06
0.0010788355
2.4223635e-06
0.0010921041
-3.5375994e-06
0.0011129661
-4.9637289e-06
0.0011410134
-9.8795325e-06
0.001174403
-6.0358431e-06
0.0012125005
-6.6603356e-06
0.0012537268
8.7674165e-07
0.0012971796
5.2348247e-06
0.0013408708
1.790812e-05
0.0013841405
2.5360535e-05
0.0014240757
3.9315402e-05
0.0014603956
4.9369507e-05
0.0014912841
6.4041561e-05
0.0015154662
7.4162225e-05
0.0015321827
8.7875934e-05
0.0015430185
9.929142e-05
0.0015461827
0.00011069611
0.0015460548
0.00012052156
0.0015415535
0.00013022627
0.0015355763
0.00013951002
0.0015304138
0.00014990211
0.0015243506
0.00015638964
0.001521264
0.00016458496
0.0015186427
0.00016868108
0.001514732
0.00017206052
0.0015171533
0.00017572864
0.00018168806
0.0015192509
0.0016185798
2.0964324e-05
0.0016079939
-3.5821595e-05
0.0015858077
-0.00011135443
0.0015567552
-0.00018751919
0.0015249905
-0.00019104684
0.0014961566
-0.00017998572
0.0014715332
-0.00016578213
0.0014520462
-0.00015291899
0.0014378451
-0.00013850393
0.001423188
-0.00012086003
0.0014005664
-0.00010778864
0.0013685654
-9.7534139e-05
0.0013329313
-8.5575738e-05
0.0013020311
-8.4616429e-05
0.0012825581
-7.8752289e-05
0.0012768157
-8.1199708e-05
0.0012819567
-7.6673847e-05
0.0012930804
-6.5472201e-05
0.0013036923
-5.8446493e-05
0.0013035863
-3.8978039e-05
0.0012880162
-3.1685744e-05
0.0012560257
-1.5866862e-05
0.0012140232
-2.1001883e-06
0.0011704743
5.2034075e-06
0.0011317783
9.921242e-06
0.0011018633
1.0714157e-05
0.0010823221
1.0305908e-05
0.0010743576
7.1000437e-06
0.00107722
4.385687e-06
0.0010890032
-1.6309786e-06
0.0011084847
-3.411934e-06
0.0011353604
-8.9427142e-06
0.0011675512
-5.9912431e-06
0.0012045861
-7.7275604e-06
0.0012451125
-9.3276307e-07
0.001287989
2.750603e-06
0.0013312889
1.4481472e-05
0.0013745359
2.0446377e-05
0.0014154766
3.3783174e-05
0.0014526365
4.2130655e-05
0.0014849591
5.5760627e-05
0.0015114885
6.5033643e-05
0.0015313209
7.851344e-05
0.0015432957
8.7220332e-05
0.0015490188
9.7908197e-05
0.0015501664
0.00010778206
0.0015477858
0.00011780681
0.0015431722
0.00012429345
0.0015364576
0.00013254518
0.0015307259
0.0001378599
0.0015246255
0.00014293505
0.0015199047
0.00014889311
0.0015179276
0.00015347305
0.0015184353
0.00015873217
0.00016387009
0.0015215982
0.0016196083
2.0231119e-05
0.0016089848
-3.0888307e-05
0.0015873107
-9.7655327e-05
0.0015582541
-0.00017044171
0.0015262758
-0.00017561631
0.0014972822
-0.00016776517
0.0014726305
-0.00015454143
0.0014530778
-0.00014125374
0.001438969
-0.0001272895
0.0014244532
-0.00011193195
0.0014022584
-9.697555e-05
0.001370584
-8.9195584e-05
0.0013348785
-7.8470567e-05
0.0013036757
-7.7638184e-05
0.0012834449
-7.2935485e-05
0.0012770562
-7.4316094e-05
0.0012817458
-7.0265558e-05
0.0012926582
-6.1095838e-05
0.0013040033
-5.5591234e-05
0.0013052985
-3.5765303e-05
0.001291549
-2.9855923e-05
0.0012611674
-1.5936821e-05
0.0012199337
-2.8083909e-06
0.0011762612
4.4789135e-06
0.0011367679
9.0871084e-06
0.0011055886
1.0743933e-05
0.0010844219
1.1129415e-05
0.0010746773
8.0575661e-06
0.0010757819
4.9964027e-06
0.0010860475
-3.1620301e-07
0.0011042475
-1.6032152e-06
0.0011296825
-7.6184454e-06
0.00116085
-5.2244093e-06
0.0011970709
-8.0552584e-06
0.0012367793
-2.7780121e-06
0.001279011
-5.7775992e-07
0.001321897
9.6336286e-06
0.0013651154
1.4915268e-05
0.001406393
2.6520733e-05
0.0014443087
3.3111616e-05
0.0014781889
4.6126292e-05
0.0015068073
5.4078571e-05
0.0015282108
6.5660955e-05
0.0015425284
7.3116933e-05
0.0015515671
8.5297388e-05
0.0015540372
9.1066742e-05
0.0015520043
0.00010011558
0.0015486527
0.00010854182
0.0015413237
0.00011414187
0.0015349216
0.00012157396
0.0015309882
0.00012868322
0.0015235153
0.00013149453
0.0015233963
0.00013684729
0.0015196622
0.00013916339
0.00014317082
0.0015188421
0.0016207314
1.8836962e-05
0.0016099382
-2.7545452e-05
0.0015885629
-8.9113712e-05
0.0015595098
-0.00015563525
0.0015274185
-0.00015597476
0.0014983455
-0.00015065192
0.0014736778
-0.00013877501
0.0014540454
-0.00012837788
0.001439965
-0.00011505766
0.001425705
-0.00010328637
0.0014039101
-8.8343367e-05
0.0013726186
-8.0595822e-05
0.0013369053
-7.1102192e-05
0.0013053346
-7.0105301e-05
0.0012844262
-6.5889986e-05
0.0012773338
-6.7788009e-05
0.0012815135
-6.2678057e-05
0.00129229
-5.46235e-05
0.0013041144
-5.2102335e-05
0.001306463
-3.274836e-05
0.001294464
-2.8453715e-05
0.0012658316
-1.6028031e-05
0.0012255889
-3.6411129e-06
0.0011818903
3.9360308e-06
0.0011418019
8.4763129e-06
0.0011094363
9.9328816e-06
0.0010867025
1.0301072e-05
0.0010750983
8.4103705e-06
0.0010744704
6.4313531e-06
0.0010832106
7.012697e-07
0.0010998414
-3.4156228e-08
0.0011240107
-6.7377571e-06
0.0011540638
-4.2079772e-06
0.0011890684
-7.5877641e-06
0.0012281401
-3.7950454e-06
0.0012697566
-2.8803932e-06
0.0013124848
6.8446424e-06
0.0013550749
1.0619451e-05
0.0013966285
2.1587316e-05
0.001435357
2.7386794e-05
0.0014701242
3.9377857e-05
0.0014998561
4.5562179e-05
0.0015231809
5.6316666e-05
0.0015410217
6.3690974e-05
0.0015504746
7.3177955e-05
0.0015557862
8.0840777e-05
0.0015565928
8.883502e-05
0.0015516588
9.3166797e-05
0.001548136
0.00010178789
0.0015419252
0.00010579329
0.0015347716
0.00011145359
0.0015282305
0.000113435
0.0015256404
0.00012046262
0.0015203639
0.00012171114
0.00012432336
0.001518725
0.0016218414
1.6606538e-05
0.0016110092
-2.2732293e-05
0.0015900424
-7.6152108e-05
0.0015610511
-0.00013573754
0.0015286846
-0.00013709822
0.0014994902
-0.00013553272
0.001474755
-0.00012544033
0.0014550885
-0.0001157264
0.0014409445
-0.0001036478
0.0014269691
-9.2176603e-05
0.0014055482
-7.9698729e-05
0.0013746587
-7.2272515e-05
0.0013390281
-6.3321763e-05
0.0013071226
-6.3361148e-05
0.0012855962
-5.7422624e-05
0.0012778214
-6.0951917e-05
0.0012814049
-5.5873572e-05
0.001291815
-4.7333209e-05
0.0013041696
-4.7545708e-05
0.0013078345
-2.9163011e-05
0.0012974253
-2.6677776e-05
0.0012705132
-1.5823618e-05
0.0012313058
-4.1886474e-06
0.0011876576
2.8047729e-06
0.0011470136
7.4052192e-06
0.0011134959
9.424569e-06
0.0010893869
1.0418555e-05
0.0010760038
8.3044439e-06
0.0010734737
6.6006714e-06
0.0010808026
2.0193665e-06
0.0010957356
1.0941643e-06
0.0011185665
-5.849047e-06
0.0011473835
-3.1759478e-06
0.0011812126
-7.207693e-06
0.0012195794
-4.6304736e-06
0.0012607654
-4.6795823e-06
0.0013030518
4.2539878e-06
0.0013453403
6.3633896e-06
0.0013871731
1.644968e-05
0.0014263979
2.0682977e-05
0.0014616162
3.1246543e-05
0.001492508
3.5907039e-05
0.0015181664
4.6501132e-05
0.0015371886
5.2507525e-05
0.001549934
6.1352493e-05
0.0015563857
6.6496331e-05
0.0015576641
7.465037e-05
0.001556695
7.9428469e-05
0.0015515998
8.7154548e-05
0.0015465317
9.1212107e-05
0.0015369836
9.4241413e-05
0.0015347748
0.00010017692
0.001527638
0.00010330306
0.00152102
0.0001048781
0.0001095339
0.001522492
0.0016229549
1.3525857e-05
0.001611856
-1.7997286e-05
0.0015911827
-6.6849204e-05
0.0015622115
-0.00012146727
0.0015297469
-0.00011993957
0.0015005267
-0.00011971538
0.0014757569
-0.00011224508
0.0014560628
-0.00010276534
0.0014419496
-9.1895443e-05
0.0014282253
-8.0448907e-05
0.0014071805
-6.994615e-05
0.0013766339
-6.504008e-05
0.0013410753
-5.6709125e-05
0.0013089028
-5.7525239e-05
0.0012866437
-5.1578383e-05
0.0012781523
-5.5251395e-05
0.0012811604
-5.1195326e-05
0.0012914165
-4.1774096e-05
0.0013040337
-4.2686388e-05
0.0013085426
-2.4372708e-05
0.0012997511
-2.4135957e-05
0.0012746405
-1.5539992e-05
0.0012367194
-4.9053631e-06
0.0011932309
2.1646689e-06
0.0011521487
5.9771518e-06
0.0011175412
7.9011589e-06
0.0010920298
9.2724871e-06
0.0010769082
8.2904806e-06
0.0010727001
6.9510768e-06
0.0010782876
2.5101076e-06
0.0010918066
2.7810072e-06
0.0011131098
-4.8826761e-06
0.0011405723
-2.0428525e-06
0.0011730098
-6.2872825e-06
0.0012105626
-5.2018193e-06
0.0012510468
-5.9336567e-06
0.0012928809
1.8558803e-06
0.0013351329
3.8999561e-06
0.0013768685
1.3006502e-05
0.001416519
1.5961707e-05
0.0014523231
2.543276e-05
0.0014847598
2.9828355e-05
0.001511773
3.8868142e-05
0.0015322857
4.2799029e-05
0.0015470319
5.2224348e-05
0.0015554502
5.5963691e-05