/*--------------------------------*- C++ -*----------------------------------*\
| =========                 |                                                 |
| \\      /  F ield         | OpenFOAM: The Open Source CFD Toolbox           |
|  \\    /   O peration     | Version:  2406                                  |
|   \\  /    A nd           | Website:  www.openfoam.com                      |
|    \\/     M anipulation  |                                                 |
\*---------------------------------------------------------------------------*/
FoamFile
{
    version     2.0;
    format      ascii;
    arch        "LSB;label=32;scalar=64";
    class       volScalarField;
    location    "4";
    object      rho;
}
// * * * * * * * * * * * * * * * * * * * * * * * * * * * * * * * * * * * * * //

dimensions      [1 -3 0 0 0 0 0];

internalField   nonuniform List<scalar> 
96472
(
1.0001301
1.0004696
1.0008773
1.0015989
1.0023029
1.0025705
1.0026116
1.0027411
1.0030302
1.0030607
1.0024092
1.0010705
0.9995132
0.99840472
0.99811009
0.99862771
0.99967445
1.0006308
1.0007871
0.999596
0.99674862
0.99269619
0.98826186
0.98388182
0.97985032
0.97648596
0.97392607
0.97208877
0.97089856
0.97029947
0.97021342
0.97048514
0.97090186
0.97146137
0.97198307
0.97211152
0.97185522
0.97106244
0.96952071
0.96732417
0.96431565
0.96095106
0.95715901
0.95343011
0.9496942
0.9461286
0.94281113
0.93984782
0.93692015
0.93452746
0.93224614
0.93029717
0.92818887
0.92683222
0.9253341
1.0001245
1.0004554
1.0008684
1.0015885
1.0023131
1.0025975
1.0026301
1.0027768
1.0030497
1.0031129
1.0024713
1.0011328
0.99959872
0.99841656
0.99807922
0.99857748
0.99960225
1.0006595
1.0009769
0.99987715
0.99720079
0.99328137
0.98883855
0.98448137
0.98047004
0.97702666
0.97438643
0.97249328
0.97123458
0.97058795
0.97045966
0.97068552
0.97114727
0.9717
0.97220667
0.97246266
0.97237713
0.97177937
0.97052752
0.9684326
0.96581138
0.96248901
0.95894228
0.95515119
0.95139564
0.94775123
0.94446163
0.9411314
0.93853562
0.93576084
0.93336791
0.93118963
0.92949859
0.92783428
0.92623942
1.0001208
1.0004531
1.0008843
1.0016248
1.0023506
1.0026164
1.0026723
1.0027986
1.0031004
1.0031448
1.0025407
1.0011876
0.99964131
0.99846618
0.99805186
0.99853107
0.99953221
1.0006298
1.001139
1.0002165
0.99765524
0.99386426
0.9894652
0.98508546
0.98106902
0.97758466
0.97485878
0.97287636
0.97151953
0.97079783
0.97059515
0.97076312
0.97122212
0.97179971
0.9723853
0.97270659
0.97268429
0.97227052
0.97118339
0.96945084
0.96689092
0.96384698
0.96034526
0.95654302
0.95294378
0.94933261
0.94579359
0.94277977
0.93960707
0.93677065
0.93462236
0.93246681
0.93043579
0.9284764
0.92698839
1.0001188
1.0004406
1.0008623
1.0015996
1.0023487
1.002634
1.0026942
1.0027942
1.0030943
1.0031677
1.0026053
1.0012924
0.99968313
0.99848593
0.99804135
0.99848747
0.99951276
1.0006095
1.0012353
1.0005493
0.99813881
0.99443268
0.99010245
0.98572827
0.98166921
0.97814957
0.97536922
0.97330311
0.97187732
0.9710483
0.97075213
0.9709032
0.97128851
0.97183114
0.97238566
0.9727927
0.97289822
0.97259202
0.97178239
0.97014139
0.96791002
0.96496678
0.96163049
0.95813158
0.95438002
0.95057008
0.94723272
0.9438158
0.94074158
0.93842226
0.93560239
0.93318608
0.93115745
0.92941437
0.9278771
1.0001162
1.0004363
1.0008771
1.0016457
1.0023972
1.0026915
1.0027245
1.0028406
1.0031215
1.0032384
1.0026524
1.0013674
0.99976663
0.99848823
0.99804871
0.99843837
0.99949486
1.0006339
1.0013007
1.0008015
0.99861239
0.99500933
0.99072622
0.98637578
0.98228472
0.97871886
0.975877
0.97374072
0.97224336
0.9713411
0.97096819
0.97101398
0.97138619
0.9719401
0.97251534
0.97296708
0.97309262
0.97294496
0.97226711
0.97095334
0.96889937
0.96625974
0.96305209
0.95941746
0.95570038
0.95219721
0.94861212
0.94520599
0.94231228
0.93907311
0.93635755
0.93436377
0.93220336
0.93035905
0.9285005
1.0001111
1.0004235
1.0008575
1.0016074
1.0023748
1.0026844
1.0027287
1.0028508
1.0031218
1.0032563
1.0027345
1.0014364
0.99983476
0.99850345
0.99799872
0.99836708
0.99940202
1.0006396
1.0013956
1.0010114
0.99903123
0.99557534
0.99134948
0.98701256
0.982914
0.97929749
0.97638784
0.9741894
0.97262629
0.97163638
0.97119843
0.97118731
0.97146281
0.9719505
0.9725154
0.97303347
0.97330445
0.97317061
0.97267188
0.97154023
0.96973366
0.96719552
0.96421539
0.96088524
0.95737771
0.95370452
0.94997356
0.94673438
0.94328046
0.94052492
0.9379989
0.93556643
0.93304722
0.93089426
0.92933897
1.0001031
1.0004061
1.0008482
1.0016582
1.0024503
1.0027417
1.0027958
1.002872
1.0031734
1.003269
1.0027915
1.0015167
0.99989693
0.99855295
0.99797354
0.99832108
0.99930589
1.0005908
1.0015002
1.0012469
0.99942274
0.99612337
0.99197571
0.98765278
0.98353641
0.97987315
0.9769012
0.97464527
0.97301569
0.97195102
0.97142151
0.97134462
0.97161288
0.97209427
0.97262285
0.97314104
0.97343244
0.97346652
0.97310879
0.97217276
0.97058196
0.96834379
0.96557523
0.96229955
0.95871914
0.95505255
0.95162059
0.94814717
0.94496879
0.94195926
0.93902454
0.9361819
0.93411552
0.93227774
0.93033669
1.0000917
1.0003969
1.0008414
1.0016198
1.0024057
1.0027241
1.0027741
1.0028581
1.0031504
1.0032962
1.0028334
1.0016159
0.99999468
0.99861314
0.99797529
0.9982805
0.99926879
1.0005161
1.0015323
1.0014712
0.9998115
0.99666017
0.99260608
0.98829634
0.98416707
0.98047012
0.97741931
0.97510411
0.97340945
0.97226457
0.97165934
0.97150302
0.97168582
0.97214502
0.97269844
0.97324549
0.97361269
0.97365988
0.97335413
0.9726382
0.97121601
0.96923785
0.96653151
0.96348647
0.96012985
0.95673315
0.95312891
0.94966011
0.94632928
0.94312615
0.94029548
0.93804385
0.93557246
0.93321943
0.93111324
1.0000816
1.0003657
1.0008106
1.0016367
1.0024697
1.0027995
1.0028246
1.002899
1.0031776
1.0033537
1.0028829
1.0016645
1.0000555
0.99865405
0.99797926
0.99822168
0.99920828
1.0004653
1.0015125
1.0016281
1.0001791
0.99717632
0.99321685
0.98894899
0.98480082
0.98106539
0.97793915
0.9755563
0.97380816
0.97259334
0.97189951
0.97167964
0.97183346
0.97223791
0.97275259
0.97328456
0.97374791
0.97391711
0.97375139
0.97311994
0.9719867
0.97010325
0.96774505
0.9648974
0.96161397
0.95809884
0.95451063
0.95114803
0.94769062
0.94485875
0.9419014
0.93898739
0.93642442
0.93409747
0.93239032
1.0000734
1.0003607
1.0008392
1.0016225
1.0024297
1.0027578
1.0028161
1.0028818
1.0031744
1.0033485
1.0029523
1.0017496
1.000112
0.99868311
0.99795375
0.99815876
0.99911193
1.0004409
1.0015294
1.0017514
1.000502
0.99766627
0.99381383
0.98957993
0.98544673
0.98168887
0.97849524
0.97603141
0.97420584
0.97293273
0.97216135
0.97186082
0.97194457
0.97229651
0.97283476
0.97334344
0.97377386
0.97402148
0.97393632
0.97349416
0.97246343
0.97091556
0.96873516
0.96596262
0.96283886
0.95953157
0.95615516
0.95265718
0.94954364
0.9460638
0.94303853
0.94025926
0.93794323
0.9357048
0.9336736
1.0000693
1.0003269
1.0008051
1.0016345
1.0024888
1.0028253
1.0028749
1.0028999
1.0031844
1.0033674
1.0029953
1.0018391
1.0002033
0.99872518
0.99795987
0.99812832
0.99902031
1.0003722
1.0015648
1.0018841
1.0008014
0.99813512
0.99439365
0.99020783
0.98607398
0.98228976
0.97904578
0.97651706
0.9746262
0.97326629
0.97243172
0.97205621
0.97206995
0.97240321
0.97287009
0.97338578
0.97391209
0.97421651
0.97422292
0.97384532
0.97305646
0.97167994
0.96962521
0.96715257
0.96427175
0.96106458
0.9576216
0.95424425
0.95066111
0.94757596
0.94465128
0.94197191
0.93923346
0.93672783
0.93428761
1.0000679
1.0003186
1.0008385
1.0016514
1.0024672
1.0028163
1.0028556
1.0029128
1.0031718
1.0033931
1.0030442
1.0019125
1.0003026
0.9987837
0.99796579
0.99808774
0.99895098
1.000259
1.0015383
1.0019981
1.0010883
0.9985876
0.99495399
0.99082524
0.98670572
0.9829139
0.97961957
0.97701478
0.97506755
0.97363822
0.97270349
0.97224661
0.9721921
0.97246124
0.97290986
0.97344705
0.97389463
0.9743033
0.97437411
0.97412589
0.97346457
0.97223917
0.97052984
0.96824184
0.96542206
0.96232775
0.95898566
0.95575209
0.95241323
0.94938865
0.9461162
0.94315255
0.94031201
0.9379962
0.93593759
1.00007
1.0002829
1.0007959
1.0016165
1.0024867
1.0028611
1.0028924
1.0029218
1.0031869
1.0034048
1.0030936
1.0019807
1.000364
0.99884354
0.9979574
0.99802985
0.99888354
1.0001701
1.001477
1.0020724
1.0013384
0.9990173
0.99550467
0.99143546
0.98731707
0.98350037
0.98018038
0.97750962
0.97550521
0.97403001
0.97301623
0.97247372
0.97233203
0.97253462
0.97294948
0.97345606
0.97395073
0.97439521
0.97455539
0.9743967
0.97384204
0.97286399
0.97127607
0.96912502
0.96659058
0.9636842
0.96063059
0.95717917
0.95395126
0.95063685
0.94743273
0.94473689
0.94214113
0.93948755
0.93732987
1.0000703
1.0002669
1.0008184
1.0016522
1.0025015
1.0028658
1.0029137
1.0029262
1.0032055
1.0034003
1.0031228
1.002074
1.0004429
0.99890458
0.99797512
0.99798222
0.99880719
1.0001148
1.0014431
1.0021291
1.0015526
0.99942905
0.99604526
0.99203588
0.98794103
0.98411547
0.98075101
0.97800762
0.97593288
0.97441123
0.9733425
0.97271992
0.97250675
0.97263016
0.97295399
0.97342189
0.973952
0.97441473
0.97468173
0.97462645
0.97424004
0.97337495
0.97199073
0.9701219
0.96778345
0.96497005
0.96186322
0.9587591
0.95549152
0.9522702
0.94937118
0.9462955
0.94341703
0.94074098
0.93831809
1.0000698
1.0002346
1.0007842
1.0016095
1.0024855
1.0028793
1.0029159
1.0029107
1.0031735
1.0034371
1.0031549
1.0021357
1.0005412
0.99895992
0.99800406
0.99793909
0.99869747
1.0000172
1.0014136
1.0021801
1.00175
0.99981002
0.99656762
0.99262691
0.98854498
0.98470057
0.98130737
0.97851153
0.9763798
0.9747932
0.97365538
0.97296397
0.97269227
0.97273797
0.97302896
0.97346649
0.97393954
0.97437514
0.97470753
0.9747489
0.9744352
0.97372891
0.97257818
0.97092633
0.96867292
0.9661866
0.96325603
0.9601539
0.95708913
0.95382261
0.95072138
0.94777358
0.94483767
0.94244863
0.93995362
1.0000703
1.0002131
1.0007882
1.0016454
1.0025176
1.0029188
1.002943
1.0029472
1.003186
1.0034616
1.0032131
1.0021934
1.0006129
0.99901517
0.99801301
0.99791691
0.99860909
0.99989036
1.0013473
1.0022136
1.0019364
1.0001687
0.99706467
0.99320785
0.98915911
0.98530731
0.9818725
0.97899384
0.97679927
0.97517518
0.97398012
0.97322256
0.9728686
0.97283787
0.97308589
0.9734882
0.97396944
0.97443248
0.97481064
0.97490649
0.97471001
0.97418205
0.97318807
0.97166078
0.96973063
0.96726841
0.96463456
0.96169043
0.95841374
0.95545163
0.9522591
0.94938118
0.94650973
0.94390277
0.94142875
1.0000708
1.0001877
1.0007697
1.0015927
1.0024753
1.002894
1.0029315
1.0029197
1.0031713
1.0034368
1.0032592
1.0022729
1.0006959
0.99910582
0.99802403
0.99788329
0.9985457
0.99978254
1.0012574
1.0022176
1.002091
1.0005007
0.99754186
0.99377842
0.98975491
0.98588964
0.98242979
0.97951639
0.97723929
0.97553744
0.97430587
0.97348993
0.97305591
0.97298608
0.97315451
0.97350047
0.97393459
0.97439529
0.97477546
0.97497025
0.97486769
0.9744343
0.9735812
0.97227207
0.97054864
0.96834101
0.96573774
0.96293657
0.9599756
0.95693425
0.9540584
0.95085956
0.94822058
0.94535106
0.94274945
1.0000714
1.0001673
1.0007629
1.0016208
1.002516
1.0029395
1.0029782
1.0029461
1.0031824
1.0034413
1.0032733
1.002348
1.000787
0.99918684
0.99808088
0.99786335
0.99849609
0.9997082
1.0011742
1.0022044
1.0022147
1.0008089
0.99800172
0.9943309
0.99036159
0.98649437
0.98298869
0.98000666
0.97768123
0.97592748
0.97462093
0.97373723
0.97325739
0.9731034
0.97323145
0.9735295
0.97396236
0.9743926
0.97480697
0.97507954
0.97505175
0.97473081
0.97403489
0.97298074
0.97131778
0.96938447
0.96704935
0.96422816
0.96163449
0.95847415
0.95545446
0.95249751
0.94980387
0.94694879
0.94440396
1.0000731
1.0001493
1.0007632
1.0016003
1.0024772
1.0029222
1.0029523
1.0029266
1.0031513
1.0034615
1.0033048
1.0024126
1.0008722
0.99925607
0.99812638
0.99783071
0.99839956
0.9996138
1.0010942
1.0021885
1.0023266
1.0010911
0.99844466
0.99486731
0.99093659
0.98707383
0.9835585
0.98053391
0.97810597
0.97631122
0.97495161
0.97401097
0.97344106
0.97322731
0.97329772
0.97355625
0.97392376
0.97436989
0.97477128
0.97506305
0.97511041
0.97489479
0.97437199
0.97339093
0.97205885
0.97015932
0.96791041
0.96562198
0.96270702
0.95996906
0.9569614
0.9543365
0.95127273
0.94840016
0.94626464
1.0000722
1.0001365
1.0007471
1.0015981
1.0025016
1.0029651
1.0029939
1.0029567
1.0031722
1.003467
1.0033345
1.002472
1.0009472
0.99931199
0.99814198
0.9978059
0.99830998
0.99949317
1.0010007
1.0021672
1.0024237
1.0013468
0.99885895
0.99539518
0.99151886
0.9876638
0.98410882
0.98103874
0.97857
0.97667437
0.97527613
0.97426861
0.97365078
0.97335902
0.97337026
0.97356457
0.97391578
0.97435466
0.97477145
0.97509877
0.975247
0.97515676
0.97473088
0.97389354
0.97271302
0.97113235
0.96911177
0.96685639
0.96408327
0.96142148
0.95867232
0.95567425
0.95291098
0.95009506
0.94783094
1.0000728
1.0001179
1.0007543
1.001597
1.0024813
1.0029402
1.0029843
1.0029376
1.0031553
1.0034508
1.0033519
1.0025331
1.0010384
0.99940996
0.99819262
0.99781365
0.99825953
0.99938021
1.0008847
1.0021101
1.0024941
1.001582
0.99925486
0.99590108
0.99209856
0.98825327
0.98468411
0.98155141
0.97900901
0.97705895
0.97559347
0.9745255
0.97382581
0.97349413
0.9734384
0.97358606
0.97389389
0.97428289
0.97467687
0.97503646
0.97527503
0.97519979
0.97488414
0.9743312
0.97324018
0.97182594
0.97010114
0.96769298
0.96547129
0.96289372
0.96019595
0.95715256
0.95457897
0.95211736
0.94909203
1.0000671
1.0001145
1.0007419
1.0015815
1.0024853
1.0029681
1.0030073
1.002953
1.0031424
1.0034653
1.0033867
1.00258
1.0011185
0.99949253
0.99824859
0.99778911
0.9982054
0.99927781
1.0007629
1.0020399
1.0025386
1.0017912
0.99962918
0.99640181
0.9926644
0.98883912
0.98524218
0.98208164
0.97945016
0.97744417
0.97591588
0.97479395
0.97405706
0.97363401
0.97351465
0.97362026
0.97387381
0.9742306
0.97464608
0.97500895
0.9752508
0.97532458
0.97513469
0.97459618
0.97381791
0.97254778
0.97087916
0.96892564
0.96676242
0.96421682
0.96136859
0.95904488
0.95614265
0.95356848
0.9506712
1.0000668
1.0000996
1.000748
1.0016019
1.0024892
1.0029725
1.0030139
1.0029535
1.003134
1.0034595
1.0034162
1.0026486
1.0011976
0.99957293
0.99830852
0.99779242
0.99814714
0.99919613
1.0006472
1.0019631
1.0025796
1.0019738
0.99998348
0.99687315
0.99322357
0.98940717
0.98581115
0.98259172
0.97992536
0.97781769
0.97622965
0.97506846
0.97423609
0.97374324
0.9735863
0.97363825
0.97384327
0.97417412
0.97456307
0.97493178
0.97522507
0.97535484
0.97527266
0.97486143
0.97414892
0.97314267
0.97166273
0.96998853
0.967805
0.96543713
0.96300355
0.96054581
0.95776879
0.9549053
0.95277991
1.0000599
1.0001014
1.0007424
1.0015758
1.0024728
1.0029765
1.0030246
1.0029569
1.0031432
1.0034458
1.0034279
1.0027153
1.001287
0.99965349
0.99835937
0.99780432
0.99809558
0.99909556
1.0005372
1.0018918
1.0025962
1.0021387
1.0003065
0.99734864
0.99375734
0.98997617
0.98636897
0.9831184
0.98037919
0.978232
0.97655365
0.97534426
0.97447061
0.97389398
0.97365534
0.97366299
0.97383313
0.97411423
0.97448283
0.97484163
0.97518924
0.97536693
0.975309
0.97510891
0.97455527
0.97362327
0.97242948
0.97079142
0.9688577
0.96669832
0.96457063
0.96176895
0.95935813
0.95662837
0.9545635
1.000057
1.0000918
1.0007397
1.0015829
1.0024782
1.0029818
1.0030418
1.0029665
1.003134
1.0034503
1.0034415
1.0027634
1.0013838
0.99974809
0.99842359
0.99782058
0.99804256
0.99898638
1.000414
1.0017958
1.002605
1.0022841
1.0006289
0.99777639
0.994309
0.99054063
0.98695669
0.98364458
0.98085338
0.97860696
0.97690515
0.97562262
0.97466771
0.97404085
0.97376894
0.97370631
0.97382156
0.97406011
0.97440528
0.97476889
0.97506726
0.97533142
0.97540902
0.97521754
0.97476978
0.97405434
0.9729782
0.97156268
0.96989612
0.96794651
0.96561083
0.96326269
0.96081903
0.9584336
0.95585135
1.0000521
1.0000996
1.000748
1.0015885
1.0024797
1.0030118
1.0030665
1.0029949
1.0031423
1.0034787
1.003501
1.0028389
1.0014929
0.99986987
0.99852544
0.99786673
0.99803676
0.99890452
1.000317
1.0017248
1.0026063
1.0024375
1.0009271
0.99824595
0.99483853
0.99112981
0.98752522
0.98419941
0.98135435
0.97906156
0.97715813
0.97593844
0.97492447
0.97418245
0.97382545
0.97375549
0.97381655
0.97402601
0.97433415
0.97467444
0.97500448
0.97528571
0.97542879
0.97533939
0.97502668
0.97444246
0.97351624
0.97228258
0.97074712
0.96889915
0.96687695
0.9646883
0.96230639
0.95997586
0.95735153
1.0000179
1.00013
1.000904
1.0017127
1.0025643
1.0030965
1.0031669
1.003088
1.0032359
1.0035535
1.0035901
1.0029512
1.0016339
1.0000345
0.99866889
0.997938
0.99805602
0.99891151
1.0001861
1.0016921
1.002628
1.0025596
1.0012368
0.99865897
0.99542496
0.99167234
0.98815731
0.98470293
0.98186826
0.97944471
0.97764311
0.97618193
0.97513416
0.97438125
0.973952
0.97376038
0.97380853
0.97397898
0.97427598
0.97457444
0.97489765
0.97518469
0.97539101
0.97543926
0.97522296
0.97471966
0.97397567
0.97289001
0.97152508
0.96983281
0.96804757
0.96591221
0.96372135
0.96119111
0.95906921
0.95614924
0.95463621
0.95292572
0.95117082
0.94970574
0.94810597
0.94639906
0.94469705
0.94315488
0.9417935
0.94028422
0.93865366
0.93749465
0.93611906
0.93466073
0.93372392
0.93251132
0.93131325
0.93041479
0.92940558
0.92840799
0.92767056
0.92680595
0.9262924
0.92555808
0.92487195
0.92410936
0.95226549
0.95071437
0.94923571
0.94765171
0.94599794
0.94448477
0.94298921
0.94155995
0.94007848
0.93865612
0.93739175
0.93605078
0.93473221
0.93366564
0.93244577
0.93134021
0.9304063
0.92934806
0.92853888
0.92758053
0.92679612
0.92594764
0.92538328
0.92460957
0.92427639
0.92355096
0.92297527
0.94834151
0.94684746
0.94540415
0.94402107
0.94249158
0.9411012
0.9397214
0.93833185
0.93712967
0.93578859
0.93460552
0.9335204
0.93220783
0.93134099
0.93024264
0.92920988
0.92841697
0.92746871
0.92671068
0.92589916
0.92521284
0.92441669
0.92384097
0.92331375
0.92278532
0.9223978
0.92177019
0.94445852
0.943152
0.94178068
0.94048448
0.93919122
0.93783319
0.93658882
0.93547846
0.93419692
0.93314785
0.93197316
0.93106625
0.93000887
0.92893709
0.9282937
0.92721549
0.9264318
0.92580004
0.92491423
0.92440273
0.92355432
0.92311613
0.92233248
0.92201458
0.9214491
0.92114201
0.92062096
0.94080723
0.93975132
0.93838288
0.93714335
0.93617141
0.93476946
0.93368858
0.93273054
0.93148258
0.93075065
0.92954571
0.92865
0.9280615
0.92680172
0.92624553
0.9255118
0.92461121
0.92408943
0.92337003
0.9228044
0.92218361
0.92167066
0.92110673
0.92064738
0.92026892
0.91989127
0.91950773
0.93743818
0.9365182
0.93519669
0.93415475
0.93321395
0.93195978
0.93110652
0.93008901
0.9290347
0.92840509
0.92741628
0.92649152
0.92594312
0.92510507
0.92430238
0.923717
0.92317335
0.92231154
0.92203828
0.92126987
0.92091495
0.92030367
0.91988547
0.91944901
0.91906136
0.91876527
0.91840625
0.93418417
0.93340462
0.9323602
0.93128986
0.93039496
0.92950404
0.92852408
0.92775777
0.92693497
0.92595399
0.92555873
0.92464652
0.92379256
0.92354421
0.9226111
0.92201768
0.92170777
0.9208528
0.92060753
0.91997958
0.91961377
0.91910791
0.9187184
0.9183264
0.9179509
0.91767785
0.91737834
0.93119295
0.93047562
0.92964661
0.92867447
0.92785677
0.92713389
0.92618696
0.92555481
0.92498297
0.92391737
0.92353846
0.92302673
0.92199778
0.92182047
0.92121375
0.92038524
0.92032914
0.91951031
0.9192486
0.91879494
0.91834453
0.91803156
0.91756587
0.91728851
0.91690153
0.91663882
0.91641051
0.92844095
0.92782043
0.92720335
0.92616115
0.92561298
0.92504595
0.92393412
0.92358395
0.92314407
0.92205081
0.92182995
0.92131403
0.92046067
0.92031854
0.91965658
0.91920362
0.91883069
0.91835392
0.91804007
0.91757842
0.91732148
0.91686888
0.91663242
0.91617274
0.91602361
0.9156198
0.91547122
0.9259009
0.92546799
0.9247564
0.92405621
0.92353916
0.9228961
0.92220197
0.92171466
0.921239
0.9206216
0.92010335
0.91976248
0.91920137
0.91871135
0.91848101
0.91790699
0.91755848
0.9172822
0.91681699
0.91663297
0.91615765
0.91597059
0.91557276
0.91531164
0.91501779
0.91478049
0.91451025
0.92361003
0.9232479
0.92272271
0.9220537
0.92161474
0.9211293
0.92041701
0.92007072
0.91971186
0.91903259
0.91872375
0.91839722
0.91781709
0.91754365
0.91721126
0.91676937
0.91651483
0.91609802
0.91588915
0.91557558
0.91524123
0.91503421
0.91463862
0.91451281
0.91409123
0.91398372
0.91368997
0.92154303
0.92134274
0.92078473
0.92030694
0.91997543
0.91937916
0.91891108
0.91866094
0.91813338
0.91777402
0.91747417
0.91698627
0.91679605
0.91637692
0.91599875
0.91588321
0.91539335
0.91519001
0.91493568
0.91459278
0.91449497
0.91402193
0.91394345
0.91357979
0.91340828
0.91310157
0.91303094
0.9197955
0.91942513
0.91916318
0.9188192
0.91831616
0.91793641
0.91762224
0.91719469
0.91691385
0.91662125
0.91618513
0.91598083
0.9156858
0.91528378
0.91513536
0.91484136
0.91448368
0.91440206
0.91394754
0.91389267
0.91360841
0.91328488
0.91321332
0.91276765
0.91278509
0.91230846
0.91241586
0.91804646
0.91799277
0.91774008
0.91724096
0.91696874
0.91681068
0.91628051
0.91597705
0.91591532
0.91542621
0.91519316
0.91502933
0.91459238
0.91452753
0.91418678
0.9138762
0.91382623
0.9134668
0.91322786
0.91316953
0.91277463
0.91271977
0.91240545
0.91215884
0.91208678
0.91166647
0.91178313
0.91666228
0.91657779
0.91632421
0.91617395
0.91583642
0.91544726
0.91531785
0.91509812
0.91471227
0.91450111
0.91440032
0.91402165
0.91378078
0.91372712
0.91334399
0.91319111
0.91304538
0.91268208
0.91270261
0.91237467
0.91213142
0.91215636
0.91171925
0.91165704
0.91141949
0.91110549
0.9111994
0.91542509
0.91536199
0.91524226
0.9150882
0.91473733
0.91454889
0.91441793
0.91402051
0.91388989
0.91382953
0.91341389
0.91321677
0.91320179
0.91287039
0.91261949
0.91261858
0.91232056
0.91208149
0.91205785
0.91170874
0.91168905
0.91151368
0.91111773
0.91119701
0.91087147
0.91058292
0.91062289
0.91422452
0.91447641
0.91432955
0.91397428
0.91385451
0.91379329
0.91348799
0.91325137
0.91317198
0.91297472
0.91272913
0.91267729
0.9124183
0.91212771
0.91220106
0.91198486
0.91160906
0.91165898
0.91150569
0.91115295
0.91118974
0.91099819
0.9107157
0.91070942
0.91034503
0.9101861
0.91018274
0.9133128
0.91352791
0.91337352
0.91328684
0.91320155
0.91285365
0.912701
0.91273987
0.91250713
0.91218456
0.91215148
0.91213455
0.91178591
0.9116423
0.91163928
0.91134669
0.91123939
0.91122362
0.91088343
0.9107301
0.91084887
0.91048103
0.91025792
0.91030012
0.91002454
0.90974399
0.90969347
0.91254031
0.91262372
0.91268471
0.91264374
0.91242584
0.91224302
0.91215962
0.91209299
0.91179198
0.91172309
0.91176096
0.91140154
0.91126814
0.91135924
0.91114794
0.91079804
0.91086279
0.91085816
0.91047028
0.91040937
0.91039849
0.91014079
0.90995248
0.90996618
0.90960944
0.90940008
0.909405
0.91169033
0.91206117
0.91215243
0.91197213
0.91175048
0.91176441
0.91177279
0.91141967
0.91133185
0.91135657
0.91121344
0.91100923
0.91089422
0.91097199
0.91062446
0.9105593
0.91057456
0.91035489
0.91016441
0.91018283
0.91010453
0.90973087
0.90969679
0.90970185
0.90936787
0.90907116
0.90908717
0.91100597
0.91153455
0.91163409
0.91139862
0.91133204
0.91140253
0.91115836
0.91104603
0.91105162
0.91094703
0.91082534
0.91058221
0.91076365
0.91054799
0.91031755
0.9103029
0.9102649
0.91013261
0.90985895
0.90998166
0.90978412
0.9096261
0.90941124
0.90946513
0.90916121
0.90894961
0.90883789
0.91056745
0.91097449
0.91106167
0.91108263
0.91111389
0.91095036
0.91071786
0.91078812
0.91081319
0.91065329
0.91044148
0.91043305
0.91052211
0.91023595
0.9101312
0.91008097
0.91011373
0.90983783
0.90973985
0.90975451
0.90962419
0.90941342
0.90927739
0.90927536
0.90903569
0.90877014
0.90867272
0.91007643
0.91064043
0.91069194
0.91089535
0.91074117
0.91056364
0.91064885
0.91051554
0.9106161
0.91032582
0.91029068
0.91045437
0.91013287
0.910171
0.90990807
0.91012012
0.90987942
0.90966659
0.9097114
0.90964384
0.90955261
0.90919084
0.90926303
0.90915275
0.90903497
0.90862906
0.90856059
0.90967761
0.91036543
0.91051532
0.91067328
0.91049373
0.91044106
0.91055377
0.9103265
0.91042333
0.91023459
0.91022593
0.91034408
0.90992936
0.91013238
0.90986907
0.91002957
0.90981593
0.9095786
0.90973352
0.90947547
0.90957366
0.90915512
0.90924328
0.90902379
0.90900536
0.90870031
0.90856141
0.90936197
0.91016209
0.91041865
0.9105875
0.91028699
0.91041798
0.91046926
0.91025321
0.91045251
0.91002908
0.91030946
0.91022157
0.90998434
0.91016824
0.90970929
0.91020076
0.90965568
0.9098723
0.90953742
0.90961175
0.90954489
0.90926435
0.90928453
0.90900256
0.90911504
0.90875081
0.90864256
0.90917267
0.91006705
0.9104038
0.91051981
0.91026625
0.91049999
0.91045159
0.91026376
0.91045582
0.91006046
0.91046874
0.91018884
0.91004687
0.91020869
0.90982418
0.91037111
0.909586
0.91002901
0.90952395
0.90988521
0.90953184
0.90934814
0.90935296
0.90915758
0.9092849
0.90879386
0.90875675
0.90911892
0.91001014
0.9104399
0.91052323
0.91041337
0.91068891
0.91040837
0.91043369
0.91049245
0.91030343
0.91065046
0.91012564
0.91035213
0.91020716
0.91024034
0.9103349
0.90975824
0.91022226
0.90968875
0.91021265
0.90945921
0.90969226
0.90938381
0.90954623
0.90935516
0.90904466
0.90890701
0.90912255
0.91008271
0.91061789
0.91071011
0.91060131
0.91084129
0.91054975
0.91070562
0.9107112
0.91051774
0.91083199
0.91030032
0.91069229
0.91036047
0.91052911
0.91046505
0.91011605
0.91043461
0.9098606
0.91046295
0.90968485
0.91016495
0.90946334
0.90979129
0.90947947
0.90953228
0.90925791
0.90920741
0.9102659
0.91088848
0.91090688
0.91093956
0.91112721
0.91086958
0.91102406
0.91084637
0.91092671
0.91110473
0.91076299
0.91096139
0.9105141
0.91092197
0.91076748
0.91071567
0.9105518
0.9101882
0.91062821
0.91024521
0.91056661
0.90980208
0.9099737
0.90979196
0.90997345
0.90970825
0.90947157
0.91054052
0.91114249
0.91123989
0.91138154
0.91159258
0.91126543
0.91138367
0.91113697
0.91143212
0.91150018
0.9112547
0.91128157
0.91084112
0.91143221
0.91107377
0.91132099
0.91075567
0.91075337
0.91086799
0.91076903
0.91088427
0.91031591
0.91041844
0.9102175
0.91033114
0.91011194
0.90974779
0.9109476
0.91154515
0.9116871
0.91199766
0.91193935
0.91188404
0.91173608
0.91170987
0.9119995
0.91183259
0.91195601
0.91151984
0.91171297
0.91168284
0.91167366
0.911701
0.91124218
0.91152239
0.91115578
0.91144924
0.91103571
0.91112309
0.91083251
0.91089521
0.91064565
0.910606
0.91010495
0.91149034
0.91209934
0.91239513
0.91251596
0.91242921
0.91254842
0.91230363
0.91252325
0.91243962
0.91242884
0.91248247
0.91217084
0.91249879
0.91205524
0.91237447
0.91202897
0.91211116
0.91207469
0.91179108
0.91192394
0.9115642
0.91186184
0.91146461
0.91154276
0.91112318
0.91116833
0.91051342
0.91208258
0.91289545
0.91308284
0.91311172
0.91316887
0.91315365
0.91322632
0.91309879
0.91312855
0.91312111
0.9130975
0.91314332
0.91301039
0.91277928
0.91295655
0.91278198
0.91297646
0.91274682
0.91245578
0.91247677
0.91230826
0.91262667
0.91228042
0.91219821
0.91176911
0.91177522
0.91123157
0.91282321
0.91363647
0.91381271
0.91398932
0.91403126
0.91411236
0.91398924
0.91378525
0.9139159
0.91386185
0.91413143
0.91395344
0.91379229
0.91348141
0.91368387
0.91367951
0.91383197
0.91359735
0.9132089
0.91321357
0.91308789
0.91342869
0.91311153
0.91301435
0.91256532
0.91255396
0.91199872
0.91364278
0.91440803
0.91469281
0.91493367
0.91512277
0.91514285
0.91485621
0.91470436
0.9147549
0.91492074
0.9150722
0.91491126
0.91466514
0.91439316
0.91461329
0.91464912
0.91476249
0.91446823
0.91414236
0.91405825
0.9140783
0.91425935
0.91406048
0.91387518
0.91349237
0.91343837
0.91280027
0.91458251
0.91535824
0.91579572
0.91609851
0.91627666
0.91612793
0.91583282
0.9156886
0.91585674
0.91604843
0.91617153
0.91592749
0.91563538
0.91547132
0.91555096
0.91579261
0.91568734
0.91558092
0.91511307
0.9151242
0.91504406
0.91523212
0.9150402
0.91487481
0.91452914
0.91443983
0.91415753
0.9157238
0.91660353
0.91702296
0.91736121
0.91749012
0.91732386
0.91704047
0.91688522
0.91705656
0.91717471
0.91733695
0.91705095
0.91686431
0.91667119
0.91668894
0.91689202
0.91676506
0.91675141
0.91626471
0.91634049
0.91608882
0.91635176
0.91607445
0.91600842
0.91566676
0.915539
0.91524039
0.91714137
0.91810957
0.91839107
0.91862297
0.9187229
0.91868019
0.91850008
0.91839214
0.91841784
0.91840083
0.91849127
0.91824749
0.91819989
0.91804391
0.91806292
0.91808849
0.91795581
0.91787812
0.91752226
0.91758742
0.91736823
0.91758078
0.91730637
0.91719665
0.91686434
0.91672045
0.91624984
0.91843721
0.91964716
0.9199982
0.92016621
0.92011507
0.92008623
0.91994356
0.91990739
0.91992433
0.91988608
0.91987619
0.91966935
0.9195841
0.91946542
0.91948613
0.91945039
0.91934472
0.91920842
0.91893898
0.91890572
0.9187628
0.91883167
0.91865854
0.9184847
0.91820591
0.91807339
0.9177635
0.91987142
0.92122245
0.92164127
0.92175195
0.92168231
0.92159515
0.92148747
0.92146415
0.92147944
0.92148316
0.92140369
0.92123648
0.92105065
0.92095708
0.920955
0.92094547
0.92084001
0.92068681
0.92043298
0.92033205
0.92021761
0.92020574
0.92007759
0.91991055
0.91965854
0.91951502
0.91972489
0.92144322
0.92285385
0.92325171
0.92337089
0.92333115
0.92326022
0.92321907
0.92315504
0.92313771
0.92309188
0.92298128
0.92285232
0.92270478
0.92263161
0.92258839
0.92252486
0.92240805
0.92220015
0.92204515
0.92187442
0.92183424
0.92172732
0.92160714
0.92139226
0.92116811
0.92103573
0.92090574
0.9231043
0.92457359
0.92502891
0.92511853
0.9251259
0.92510277
0.92503814
0.92488734
0.92485857
0.92471451
0.9246845
0.92459201
0.92449168
0.92444915
0.92424846
0.92419247
0.92395331
0.92386313
0.92371181
0.92362048
0.92352753
0.92336888
0.92318499
0.92296186
0.9227636
0.92266197
0.92346749
0.92497884
0.92649237
0.92700028
0.92708135
0.92707982
0.92700822
0.92695549
0.92673393
0.92671856
0.9265598
0.92652919
0.92648269
0.92630106
0.92627579
0.92596571
0.92597536
0.92567125
0.92573456
0.92547423
0.92547214
0.92514258
0.92510675
0.92474653
0.92476456
0.92447657
0.92446314
0.92449857
0.92688812
0.92858401
0.92909376
0.92917556
0.92918511
0.92899866
0.92895997
0.92874848
0.92866462
0.92864823
0.92843867
0.92853332
0.92810569
0.92820959
0.92773581
0.92791438
0.9275808
0.92767897
0.92737987
0.92726083
0.92694127
0.92679293
0.92668124
0.92654352
0.92651658
0.92627878
0.92769645
0.92901009
0.93069021
0.93126665
0.93132149
0.93130722
0.93118732
0.93101303
0.93096615
0.9306616
0.93082366
0.93041691
0.93060226
0.93012488
0.93018715
0.92985748
0.92978952
0.92976514
0.92943216
0.92955535
0.92888403
0.92916341
0.92841172
0.92888323
0.92826999
0.92853044
0.92806904
0.92880592
0.93111801
0.93288093
0.93348051
0.93355628
0.93338939
0.93345034
0.93311633
0.93317302
0.93283653
0.93278277
0.93265619