/*--------------------------------*- C++ -*----------------------------------*\
| =========                 |                                                 |
| \\      /  F ield         | OpenFOAM: The Open Source CFD Toolbox           |
|  \\    /   O peration     | Version:  2406                                  |
|   \\  /    A nd           | Website:  www.openfoam.com                      |
|    \\/     M anipulation  |                                                 |
\*---------------------------------------------------------------------------*/
FoamFile
{
    version     2.0;
    format      ascii;
    arch        "LSB;label=32;scalar=64";
    class       volScalarField;
    location    "4";
    object      rho_0;
}
// * * * * * * * * * * * * * * * * * * * * * * * * * * * * * * * * * * * * * //

dimensions      [1 -3 0 0 0 0 0];

internalField   nonuniform List<scalar> 
96472
(
1.0001275
1.0004623
1.0008658
1.0015825
1.0022842
1.0025535
1.0025938
1.0027305
1.0030194
1.0030462
1.0023765
1.0010277
0.99947496
0.99837553
0.99810661
0.99864351
0.99970145
1.0006584
1.0007858
0.99954438
0.99666779
0.99260022
0.98816629
0.98381589
0.97981439
0.97647669
0.97395011
0.97213978
0.9709742
0.97039754
0.97032413
0.97061288
0.97103769
0.97159263
0.97210238
0.97222474
0.97194725
0.97109106
0.96948299
0.96724664
0.96418964
0.96075739
0.95693791
0.9532433
0.94943659
0.94593139
0.94260594
0.93960582
0.93678361
0.93434597
0.93205336
0.93012479
0.92805418
0.92672538
0.92524135
1.0001219
1.0004476
1.0008553
1.0015743
1.0022994
1.0025819
1.0026154
1.0027649
1.0030417
1.0030975
1.0024403
1.0010859
0.9995558
0.99838977
0.99807135
0.99859231
0.99962494
1.0006796
1.0009787
0.99983301
0.99711582
0.99318426
0.98874385
0.98440445
0.98042552
0.97701704
0.97440961
0.97254346
0.97130594
0.97067972
0.97057631
0.97081222
0.97128665
0.97184389
0.97233918
0.97256868
0.97245335
0.97181977
0.97052325
0.96836511
0.96569136
0.96233032
0.95876008
0.95490954
0.95118851
0.94752719
0.94423262
0.94095168
0.93834113
0.93554368
0.93322104
0.93104401
0.92940528
0.92769663
0.92611302
1.0001182
1.000447
1.0008737
1.001609
1.0023306
1.0025963
1.0026565
1.0027846
1.0030915
1.0031275
1.0025101
1.0011437
0.99959297
0.9984377
0.99804425
0.99854531
0.999559
1.0006488
1.0011394
1.0001814
0.99757443
0.99376402
0.98936869
0.98500591
0.98101453
0.97756874
0.97487702
0.97292192
0.97158901
0.97089022
0.97070527
0.97089147
0.97135641
0.97194097
0.97252655
0.97283243
0.97279549
0.97233956
0.97119159
0.96941105
0.96678698
0.96369186
0.96014337
0.95635532
0.95272573
0.94910766
0.9455869
0.94257486
0.9393705
0.93664237
0.93447068
0.93232589
0.93025876
0.92832757
0.92689389
1.0001161
1.0004322
1.0008478
1.0015848
1.0023353
1.0026224
1.0026802
1.0027823
1.0030843
1.0031558
1.002574
1.0012506
0.99963864
0.99845222
0.99803545
0.99850235
0.99954628
1.000637
1.0012358
1.0005143
0.99806377
0.99433172
0.99000089
0.9856443
0.98160982
0.97812532
0.97538155
0.97334593
0.97194598
0.97113777
0.97086423
0.97102913
0.97143199
0.97197966
0.97252674
0.97291573
0.97299992
0.97266465
0.9718168
0.97010718
0.96783391
0.9648442
0.96147401
0.95793059
0.95415309
0.95035061
0.94702808
0.94357816
0.94059705
0.93823601
0.93538158
0.93300302
0.93102622
0.92933499
0.92775064
1.0001136
1.0004304
1.0008689
1.0016308
1.0023761
1.0026714
1.0027061
1.0028311
1.0031133
1.0032263
1.0026232
1.0013207
0.99972222
0.99845279
0.99803784
0.9984498
0.99952208
1.0006661
1.0013075
1.0007649
0.99853687
0.99490833
0.99062164
0.98628706
0.98222103
0.97868862
0.97588488
0.97378041
0.97230803
0.97142867
0.97107911
0.97113903
0.97152102
0.97208393
0.97267013
0.97311641
0.97322184
0.97304559
0.97231323
0.97096343
0.96884168
0.96614866
0.96289064
0.95922302
0.95550662
0.95201264
0.94838209
0.9450314
0.94210638
0.93883518
0.93621498
0.93427829
0.93206338
0.93017892
0.92837648
1.0001088
1.0004141
1.0008412
1.0015912
1.0023615
1.0026707
1.002717
1.0028389
1.0031157
1.0032408
1.0027075
1.0013917
0.99978625
0.9984693
0.99798467
0.99837973
0.99942559
1.0006694
1.0014117
1.000982
0.99895563
0.99547276
0.99124226
0.98691777
0.98284379
0.9792616
0.97639039
0.97422444
0.97268705
0.97172285
0.97130667
0.97131521
0.97160621
0.97209805
0.97265668
0.9731642
0.97342374
0.97326839
0.97274458
0.97154237
0.96969582
0.96709428
0.96408461
0.96072706
0.95719309
0.95346288
0.94976357
0.94652143
0.94304948
0.94039736
0.9378603
0.93531699
0.93286885
0.93077196
0.92923572
1.0001013
1.0003999
1.0008401
1.0016468
1.0024313
1.0027219
1.0027792
1.0028603
1.0031667
1.0032547
1.0027605
1.0014742
0.99985045
0.99851957
0.99796214
0.99833426
0.99933454
1.0006182
1.001517
1.0012267
0.99935201
0.99602139
0.99186664
0.98755425
0.98346121
0.97983107
0.97689722
0.97467649
0.97307194
0.97203487
0.97152643
0.9714673
0.97175111
0.97224957
0.97278479
0.97330732
0.9735704
0.97358714
0.9731869
0.97222188
0.97056289
0.96829342
0.96546
0.96213234
0.95851547
0.95486949
0.95143616
0.94794077
0.94482063
0.94172493
0.93879036
0.93603764
0.93401446
0.93217005
0.93018534
1.0000903
1.0003871
1.0008236
1.0015995
1.0023878
1.0027099
1.0027581
1.0028472
1.0031415
1.0032886
1.0028043
1.001571
0.99994701
0.99857727
0.99796454
0.99829176
0.999301
1.0005458
1.0015445
1.0014524
0.99974657
0.99655887
0.99249489
0.98819358
0.98408462
0.98042068
0.97740897
0.97512921
0.97346344
0.97234362
0.97176394
0.97162613
0.97182403
0.97229058
0.97284721
0.97339277
0.97376199
0.97378033
0.97345075
0.97268141
0.97121748
0.96916834
0.96641394
0.96334689
0.95997164
0.95654653
0.95290789
0.94944963
0.94607085
0.94295767
0.94015546
0.93791077
0.93539602
0.93300008
0.93097742
1.0000803
1.0003589
1.0008024
1.0016263
1.0024532
1.0027813
1.00281
1.002891
1.0031739
1.0033427
1.0028564
1.0016183
1.000003
0.99861463
0.99796327
0.99822893
0.99923437
1.0005016
1.0015292
1.0016096
1.0001164
0.9970765
0.9931038
0.98884298
0.9847159
0.98101118
0.97792179
0.97557463
0.97385601
0.97267099
0.97199993
0.97180193
0.97197398
0.97239239
0.97291608
0.97345292
0.97389862
0.97405503
0.97386725
0.97320388
0.97201615
0.97008453
0.96769477
0.96478546
0.96145344
0.95790641
0.9543182
0.95095803
0.94754566
0.94467657
0.94169866
0.93874681
0.93624368
0.93398916
0.93231154
1.0000719
1.0003523
1.000824
1.0016024
1.0024095
1.0027385
1.0028009
1.0028676
1.0031671
1.0033357
1.0029264
1.0017082
1.0000626
0.998643
0.99793652
0.99816779
0.99913705
1.0004779
1.0015552
1.0017388
1.000442
0.99756762
0.99369969
0.98946818
0.98535516
0.98162665
0.97847259
0.97604463
0.97424972
0.97300496
0.97226
0.97198196
0.97208273
0.97244762
0.97299298
0.97350318
0.97393586
0.97415584
0.97404843
0.9735719
0.97249301
0.97090355
0.9686503
0.96583613
0.96268941
0.95936764
0.95597744
0.95245409
0.94931894
0.94582779
0.94284014
0.94014276
0.9378236
0.93556884
0.93346812
1.0000673
1.0003197
1.000795
1.001626
1.002475
1.0028114
1.0028616
1.0028935
1.0031797
1.0033585
1.0029678
1.0017954
1.0001558
0.99868484
0.99794322
0.99813797
0.99904756
1.0004047
1.0015915
1.0018782
1.0007473
0.99803879
0.99427811
0.99009437
0.98597907
0.98222305
0.9790136
0.97652226
0.97466599
0.97333435
0.97252664
0.97217517
0.97220946
0.97255781
0.9730325
0.97355878
0.97407936
0.97437699
0.97436254
0.97395605
0.97313597
0.97169559
0.96960172
0.96709468
0.96416321
0.96091056
0.95743063
0.95406491
0.95045128
0.94743077
0.94449042
0.94177951
0.93899909
0.93653214
0.93412957
1.0000657
1.0003114
1.0008253
1.0016302
1.0024432
1.0027951
1.0028359
1.0029001
1.0031643
1.0033843
1.00302
1.0018684
1.0002521
0.99874327
0.99794565
0.99809342
0.9989794
1.0002924
1.0015617
1.0019954
1.0010389
0.99849447
0.99483782
0.99070741
0.98660445
0.98284032
0.97958269
0.97701527
0.9751025
0.97370411
0.9727956
0.97236332
0.97232759
0.97261064
0.97307642
0.97361564
0.97405932
0.9744563
0.97450434
0.97423289
0.97352393
0.97225798
0.97050436
0.96815222
0.96528664
0.96217221
0.95881884
0.95554805
0.95224879
0.94917702
0.94588133
0.94295509
0.94016367
0.93786127
0.93585972
1.0000678
1.0002745
1.000783
1.0016057
1.0024754
1.0028477
1.0028827
1.0029149
1.0031869
1.0033944
1.0030679
1.0019379
1.0003105
0.99880124
0.99793676
0.99803444
0.99891157
1.0002104
1.0015046
1.0020719
1.0012924
0.99892771
0.99538919
0.99131676
0.98721244
0.98342129
0.98013386
0.97750128
0.97553337
0.97408854
0.97310548
0.97258751
0.97246847
0.97268751
0.97311323
0.97362591
0.97413355
0.97457283
0.9747193
0.97453514
0.97395325
0.9729359
0.97128704
0.96908978
0.9665321
0.96356691
0.96048977
0.957017
0.95374751
0.95042876
0.94726969
0.9445665
0.94198543
0.93929855
0.93711602
1.000068
1.0002604
1.0008076
1.0016345
1.0024782
1.0028422
1.0028944
1.0029118
1.0031984
1.0033928
1.0030979
1.0020321
1.0003944
0.99886099
0.99795521
0.99798517
0.99883088
1.0001543
1.001476
1.0021329
1.001511
0.99934262
0.99593063
0.99191381
0.9878311
0.98403172
0.98069994
0.97799509
0.97595568
0.97446441
0.97342533
0.97283014
0.97264042
0.97278221
0.97311858
0.97359461
0.97412189
0.97458086
0.97482772
0.97475406
0.97433496
0.9734244
0.97199819
0.97009534
0.96768731
0.96485008
0.96169389
0.95857668
0.95532679
0.95208569
0.94919601
0.94610477
0.94318164
0.94057895
0.93814504
1.0000676
1.0002253
1.0007689
1.0015959
1.0024725
1.0028672
1.0029044
1.0029047
1.0031701
1.0034336
1.0031327
1.002091
1.00049
0.99891302
0.99798034
0.99794186
0.99871937
1.0000515
1.0014471
1.0021883
1.0017145
0.99972662
0.99645375
0.99250469
0.9884322
0.9846102
0.98124705
0.9784881
0.97639666
0.97484213
0.97373333
0.97307095
0.97282082
0.97288706
0.97319585
0.97364723
0.9741252
0.97456101
0.97488538
0.97490458
0.97456527
0.97382644
0.97263747
0.97092254
0.9686276
0.96610661
0.96315201
0.96001117
0.95690611
0.95363466
0.95049962
0.94756936
0.94466382
0.94229527
0.93981355
1.0000679
1.0002064
1.0007782
1.0016296
1.0024953
1.0028956
1.0029237
1.0029352
1.0031814
1.0034522
1.0031937
1.0021528
1.0005612
0.99896998
0.99798519
0.99791821
0.99863307
0.99992435
1.0013795
1.0022235
1.0019057
1.000089
0.99695135
0.99308359
0.98904194
0.98521332
0.98180898
0.97896602
0.97680593
0.97521678
0.97405452
0.9733258
0.97299656
0.97298757
0.97324947
0.97366272
0.97414658
0.97461462
0.97498077
0.97505698
0.9748407
0.9742794
0.97323521
0.97166016
0.96970358
0.9671725
0.96449538
0.96154865
0.95822457
0.95527348
0.95211282
0.9491714
0.94636298
0.94368918
0.94122509
1.0000683
1.000179
1.0007542
1.0015751
1.0024593
1.0028779
1.0029191
1.0029101
1.0031686
1.0034279
1.0032368
1.0022331
1.0006445
0.99906052
0.99799744
0.9978826
0.99857109
0.99982104
1.0012925
1.0022298
1.0020635
1.0004252
0.99743047
0.99365405
0.98963638
0.98578947
0.98235597
0.97947991
0.97724271
0.97557272
0.97437367
0.97358677
0.97318092
0.97313395
0.97331967
0.97367792
0.97412213
0.97458188
0.97496098
0.97514353
0.97502006
0.97455376
0.97366274
0.9723221
0.97052926
0.96830579
0.96566369
0.96279028
0.95985531
0.95676225
0.95385522
0.95065728
0.9480497
0.94514472
0.94256156
1.0000686
1.0001603
1.0007531
1.0016087
1.0024976
1.0029197
1.0029614
1.0029354
1.0031779
1.0034367
1.0032517
1.0023082
1.0007362
0.99913927
0.99805536
0.99786168
0.99851828
0.99974751
1.0012131
1.0022213
1.0021922
1.0007384
0.99789346
0.99420459
0.99023939
0.98639094
0.98291328
0.97996312
0.97767372
0.97595902
0.97468124
0.97382957
0.97337767
0.97324683
0.97339483
0.97370778
0.97414853
0.97457846
0.97499279
0.97524988
0.97519903
0.97485032
0.97412691
0.97302482
0.97132173
0.96932774
0.96695483
0.96412258
0.96147861
0.95831913
0.95523935
0.95236698
0.94958618
0.94673722
0.94427823
1.0000702
1.0001417
1.0007491
1.0015817
1.0024573
1.002904
1.0029361
1.0029169
1.003148
1.003458
1.0032854
1.0023714
1.0008193
0.99920611
0.99809409
0.99782545
0.99841642
0.99964909
1.0011345
1.0022103
1.0023099
1.0010252
0.99833895
0.99474238
0.99081186
0.98696383
0.98347415
0.98048435
0.97809366
0.97633338
0.9750088
0.97409768
0.97355697
0.97336763
0.97345937
0.97373423
0.97411022
0.97456513
0.9749666
0.97524803
0.97527576
0.9750455
0.97448565
0.97345706
0.9720918
0.97014398
0.96784395
0.96555133
0.96254899
0.95979669
0.95682091
0.95415067
0.95105749
0.94821303
0.9461029
1.0000693
1.000129
1.0007357
1.0015856
1.0024859
1.0029473
1.0029803
1.0029479
1.0031714
1.0034607
1.0033144
1.002433
1.0008962
0.99926364
0.9981099
0.99780297
0.99832972
0.99952717
1.0010402
1.0021908
1.002411
1.0012863
0.9987558
0.99527045
0.99139373
0.98755209
0.98402127
0.98098047
0.97855183
0.97669036
0.97532393
0.97435019
0.97376031
0.97349686
0.97353131
0.97373945
0.97410391
0.97454791
0.97496262
0.97528788
0.97542161
0.97530565
0.97485078
0.97398759
0.97274494
0.97113361
0.96909315
0.96673916
0.96398098
0.96130034
0.95853036
0.95543571
0.95274297
0.94997929
0.94757232
1.0000697
1.0001105
1.0007422
1.0015793
1.0024604
1.0029186
1.0029666
1.002925
1.0031502
1.0034465
1.0033335
1.0024946
1.000988
0.99936235
0.99816088
0.99780697
0.99827838
0.99941404
1.0009238
1.0021346
1.0024845
1.0015266
0.99915551
0.99577759
0.9919721
0.98813801
0.98459116
0.98148984
0.97897937
0.97706904
0.97563656
0.97459878
0.97393147
0.97362563
0.97359399
0.9737627
0.97408265
0.97447753
0.97487488
0.9752307
0.97545455
0.97535872
0.97501898
0.97443297
0.97331518
0.97183804
0.97006408
0.9676099
0.96539255
0.96276628
0.95998285
0.95703417
0.95440385
0.95192591
0.94884856
1.000064
1.0001069
1.0007297
1.0015689
1.0024707
1.002953
1.0029934
1.0029451
1.0031395
1.0034627
1.0033705
1.0025429
1.0010668
0.99944192
0.9982153
0.9977794
0.9982207
0.99931274
1.0008041
1.002068
1.0025334
1.0017406
0.99953355
0.9962797
0.99253597
0.98872094
0.98514439
0.98201262
0.97941726
0.9774456
0.9759501
0.97486269
0.97415407
0.97376148
0.97366701
0.97379273
0.97405978
0.97442729
0.97484695
0.97520981
0.97543462
0.97549812
0.97528947
0.97470549
0.97389144
0.97259423
0.97086005
0.96891268
0.96667792
0.96407598
0.96122216
0.95892971
0.95593799
0.95331838
0.95055239
1.0000636
1.0000919
1.0007367
1.0015859
1.0024686
1.0029513
1.0029952
1.0029407
1.0031307
1.0034541
1.0033988
1.0026139
1.0011464
0.99952221
0.99827327
0.99778342
0.99816089
0.99923048
1.0006902
1.0019951
1.0025792
1.0019279
0.9998915
0.99675319
0.99309427
0.98928503
0.98570942
0.98251559
0.9798843
0.97781273
0.97625979
0.97512893
0.97432909
0.97386568
0.97373413
0.97380575
0.97402803
0.97437087
0.97476373
0.97513002
0.97542478
0.9755301
0.97542105
0.97500219
0.97424797
0.97319534
0.97168851
0.96995235
0.96771232
0.96532671
0.96294815
0.96032958
0.95760303
0.95474541
0.95264503
1.0000567
1.0000938
1.0007297
1.0015601
1.0024558
1.0029584
1.0030103
1.0029471
1.0031411
1.0034422
1.0034102
1.0026789
1.0012378
0.99960217
0.99832135
0.99779175
0.99810756
0.99912669
1.0005796
1.0019251
1.0025996
1.0020979
1.0002189
0.99723002
0.99362773
0.98985265
0.98626251
0.98303822
0.98033002
0.9782203
0.9765762
0.97539759
0.97455577
0.97400926
0.97379713
0.97382795
0.97401684
0.97430794
0.9746851
0.97504706
0.97538777
0.97555317
0.97547822
0.97524947
0.97466502
0.97369784
0.9724632
0.97077546
0.96881582
0.96663639
0.96443304
0.96160472
0.95922502
0.95648185
0.95431856
1.0000539
1.0000841
1.0007277
1.0015679
1.0024594
1.0029621
1.0030233
1.0029544
1.0031289
1.0034484
1.0034258
1.0027271
1.0013344
0.99969692
0.99838556
0.99780626
0.99805408
0.99901606
1.0004546
1.0018302
1.0026123
1.0022484
1.0005464
0.99766096
0.99418036
0.99041554
0.98684686
0.98355883
0.9807993
0.97858814
0.97691991
0.97567023
0.97474659
0.97414908
0.97390551
0.97386769
0.97400123
0.97425456
0.97460811
0.97497595
0.97526824
0.97552129
0.97558831
0.97536745
0.97489125
0.97415049
0.97302502
0.97157579
0.96986833
0.96787538
0.96548408
0.96315964
0.9606697
0.95825949
0.9556678
1.0000489
1.0000918
1.0007356
1.0015725
1.0024606
1.0029923
1.00305
1.0029839
1.0031391
1.0034762
1.0034869
1.0028044
1.0014424
0.9998179
0.99848644
0.99785094
0.99804707
0.99893499
1.0003575
1.0017617
1.0026179
1.0024065
1.0008494
0.99813303
0.99471063
0.99100313
0.98741267
0.98410847
0.98129321
0.97903613
0.97716716
0.97597943
0.97499636
0.97428511
0.97395625
0.9739112
0.97399231
0.9742174
0.97453626
0.97487943
0.97521191
0.97548483
0.97560809
0.97550322
0.97517187
0.97454245
0.9735921
0.97231322
0.97073655
0.96883945
0.9668102
0.9645685
0.9621855
0.95979374
0.95719292
1.0000148
1.0001224
1.000892
1.0016971
1.0025455
1.003077
1.0031493
1.0030759
1.0032324
1.0035495
1.0035748
1.0029179
1.0015851
0.9999825
0.99862952
0.99792134
0.99806346
0.99894022
1.0002279
1.001731
1.0026439
1.0025329
1.0011642
0.99854922
0.99529814
0.99154505
0.98804207
0.98460828
0.98180072
0.97941326
0.97764336
0.97621584
0.97519984
0.9744761
0.97407544
0.97390959
0.97397866
0.97416632
0.97447367
0.97478031
0.97510336
0.97538559
0.97558072
0.9756133
0.97536859
0.97484106
0.97406183
0.97294072
0.97152876
0.96980973
0.96797125
0.96583236
0.96357057
0.96106224
0.95890689
0.95596954
0.95445054
0.95275064
0.95099422
0.94947842
0.94791089
0.94623802
0.94452885
0.9429515
0.94159308
0.94013673
0.93849115
0.93730558
0.93599967
0.93450518
0.9335576
0.93240309
0.93118109
0.93027423
0.92930066
0.92828391
0.9275611
0.92670168
0.92617426
0.92546564
0.92476926
0.92400781
0.95207762
0.95052626
0.94904372
0.94746627
0.94582126
0.9442973
0.94279707
0.94138013
0.93992438
0.93848472
0.93722335
0.93591188
0.93458078
0.93351256
0.93233562
0.93119807
0.93028745
0.92923752
0.92842198
0.92747458
0.92669704
0.92584473
0.92528932
0.9245252
0.92417388
0.92347298
0.9228945
0.94814598
0.94667481
0.94520281
0.94384223
0.94232102
0.94091412
0.93956557
0.93816084
0.93696799
0.93565048
0.93443949
0.93339784
0.93208186
0.93119154
0.93014814
0.92908089
0.92831982
0.92736002
0.92661906
0.9258033
0.92512306
0.92433638
0.92374914
0.92324324
0.92270546
0.92232301
0.92170021
0.94427281
0.94297468
0.94160916
0.94030216
0.93903476
0.93767793
0.93641917
0.93533817
0.93405413
0.93301052
0.93185166
0.93091821
0.92992091
0.92881962
0.92816846
0.92714764
0.92630873
0.92573071
0.92482321
0.92431987
0.92348295
0.92303676
0.92227708
0.92193157
0.92139956
0.92107172
0.92056729
0.94062809
0.93958802
0.93823205
0.93695888
0.93602201
0.934645
0.93352943
0.93260499
0.93135451
0.93061529
0.92947112
0.92849753
0.92797398
0.92672887
0.92611552
0.92545648
0.92451546
0.92401649
0.92330145
0.92273243
0.92212568
0.92160345
0.92105537
0.92059302
0.9202157
0.9198443
0.91946496
0.93726587
0.93637583
0.93506301
0.9339889
0.93307957
0.93183558
0.93096899
0.9299913
0.92891857
0.92827489
0.92735057
0.9263874
0.92583937
0.92503047
0.92424382
0.92361001
0.92312616
0.92224957
0.92195749
0.92124928
0.92082926
0.92028447
0.91981572
0.91943369
0.91900076
0.91873952
0.91837351
0.93404222
0.93325636
0.93224115
0.93118007
0.9302542
0.92939577
0.9284262
0.92763216
0.92686843
0.9258552
0.92544232
0.92462034
0.92368167
0.92346029
0.92259973
0.9219019
0.92168098
0.9207987
0.92054483
0.91995531
0.91955924
0.91908348
0.91867674
0.91830157
0.91792492
0.9176458
0.9173657
0.93107923
0.93033148
0.92953965
0.92858624
0.92773579
0.92704254
0.92611356
0.92543576
0.92491783
0.92386748
0.92341104
0.92300207
0.92194682
0.92170756
0.92121389
0.92031887
0.9202697
0.91950574
0.91917587
0.91879185
0.91829415
0.91802701
0.9175298
0.91727317
0.91688397
0.91662794
0.9163948
0.92835617
0.92767765
0.92712358
0.92610113
0.9254741
0.92499424
0.92388844
0.92344435
0.92312125
0.9220122
0.92170154
0.92132071
0.92040403
0.92024452
0.91964629
0.9191506
0.91880889
0.91831421
0.91803438
0.91753736
0.91732023
0.91684605
0.9166265
0.91615919
0.91601656
0.91561683
0.91547023
0.92580912
0.92538677
0.92468924
0.92396501
0.92346418
0.92285384
0.92213809
0.92164
0.92119335
0.92059265
0.92004208
0.91971358
0.91919593
0.91866405
0.91843884
0.91791311
0.91750901
0.91728266
0.91680595
0.91660584
0.91617463
0.91593819
0.91559884
0.91529263
0.91503088
0.91477453
0.91452467
0.92354722
0.92315999
0.92267869
0.92200241
0.9215251
0.92109995
0.9203992
0.91998559
0.91968241
0.91902984
0.91866088
0.91837662
0.91780873
0.91751049
0.91720694
0.91675237
0.91649801
0.91611186
0.91586447
0.91559809
0.91522412
0.91505058
0.91463948
0.9145322
0.91409171
0.91400465
0.91369094
0.92147161
0.92131129
0.92075905
0.92022791
0.91993707
0.91937445
0.91885689
0.91863094
0.91812754
0.91772894
0.91747454
0.91697778
0.91675797
0.91640128
0.9159791
0.91587772
0.91541393
0.91516837
0.91496923
0.9145899
0.91450796
0.91404224
0.91394503
0.91362175
0.91340169
0.91315004
0.91302147
0.91976001
0.91938414
0.91912335
0.91880664
0.91828803
0.91789398
0.91762691
0.91718773
0.91686975
0.91663371
0.91619129
0.91595193
0.91570164
0.91529419
0.91512542
0.914871
0.91447817
0.91441308
0.91398891
0.91387779
0.91366692
0.91327367
0.91326011
0.91278614
0.91280936
0.9123536
0.91241965
0.91803465
0.91795523
0.91771472
0.91724825
0.91694333
0.91679721
0.91629887
0.91594574
0.91592579
0.91545173
0.91515482
0.91507044
0.91461028
0.91450385
0.91424082
0.91388221
0.91383631
0.91350942
0.91323598
0.91320086
0.91282401
0.91271311
0.91247969
0.91215499
0.91214977
0.91169717
0.91180537
0.91663511
0.91659957
0.91631502
0.9161513
0.91585069
0.91545688
0.91531107
0.91511246
0.91472979
0.91449848
0.91442539
0.91405831
0.91376876
0.91376292
0.91339385
0.91317447
0.91310391
0.9127202
0.91270294
0.91244193
0.9121482
0.91219831
0.91178144
0.91165853
0.91149757
0.91113617
0.91123576
0.91544031
0.91535582
0.91522689
0.91511939
0.91476876
0.9145242
0.91443363
0.9140776
0.91388612
0.91384245
0.91346604
0.91322546
0.91323388
0.91291601
0.91263252
0.91265531
0.91238776
0.91207817
0.91210798
0.91178493
0.91168541
0.91158073
0.91117223
0.9112197
0.91095693
0.91060386
0.9106769
0.9142461
0.91447453
0.91436031
0.91399965
0.91385537
0.91382708
0.91353356
0.91325783
0.9131903
0.9130388
0.91275991
0.91267433
0.91248775
0.91217308
0.91221368
0.9120521
0.91164604
0.9116849
0.91158684
0.91118607
0.91121387
0.91109576
0.91074282
0.91073858
0.91044673
0.91022181
0.91023074
0.91331829
0.91357142
0.91342412
0.91328201
0.91322882
0.91291717
0.91272362
0.91276347
0.9125622
0.91222706
0.912167
0.91219493
0.91185093
0.91164518
0.9116957
0.91143539
0.91125578
0.91126503
0.91096976
0.91076683
0.91089983
0.91055923
0.91028666
0.91036378
0.91011733
0.9097759
0.90974574
0.91257262
0.91266065
0.91270047
0.91269754
0.91248227
0.91226763
0.91218265
0.91215279
0.91187535
0.91172689
0.91179996
0.91149384
0.91130257
0.91139205
0.91121838
0.91086737
0.91088287
0.91094409
0.91053879
0.91043614
0.91046999
0.91023359
0.9099886
0.91001758
0.90970132
0.90946609
0.90946126
0.91175132
0.91208432
0.91217904
0.91203754
0.91181868
0.91178171
0.91182523
0.91149717
0.91135845
0.91142055
0.91127774
0.91107892
0.91091665
0.91103369
0.91073502
0.91057168
0.91063164
0.9104435
0.91024661
0.91020312
0.91018316
0.90982353
0.90975114
0.90975797
0.90946118
0.90913902
0.90915083
0.91104425
0.91159006
0.91170948
0.91146687
0.91134085
0.91145907
0.91126031
0.91108845
0.91109533
0.91099536
0.91093026
0.91064583
0.91078314
0.91065236
0.91037
0.91037348
0.91031404
0.91023279
0.90991543
0.91003272
0.90987913
0.90970077
0.9094674
0.90953564
0.90927217
0.90901814
0.90889508
0.91060808
0.91105161
0.91113375
0.91113945
0.91115002
0.91104471
0.91079179
0.91081637
0.91089164
0.91073014
0.91053035
0.91046066
0.91059898
0.91034012
0.91018907
0.91013452
0.91018234
0.90996174
0.90978363
0.90981586
0.90970521
0.90952708
0.90931933
0.90935039
0.90913204
0.90887444
0.90873287
0.91013688
0.91072576
0.91074412
0.91094613
0.91085625
0.91061367
0.91071595
0.9105855
0.91067671
0.91045844
0.91029795
0.91053988
0.91023105
0.9102422
0.90999771
0.91013096
0.91003143
0.90972449
0.90980647
0.90967702
0.9096747
0.90927364
0.90933706
0.90922444
0.90913803
0.90872074
0.90863271
0.90974888
0.9104546
0.91056479
0.91074057
0.91061852
0.91048128
0.91063751
0.91041799
0.91047461
0.91036434
0.91024387
0.91045216
0.91002503
0.9101736
0.90999756
0.91004628
0.90997346
0.90960707
0.90984294
0.90954762
0.90967766
0.90924366
0.90930442
0.90912995
0.90910101
0.90880415
0.90863121
0.90943464
0.9102708
0.91045277
0.91067585
0.91041889
0.91043106
0.91060361
0.91031406
0.91053137
0.9101675
0.91029306
0.91040132
0.91001138
0.91029102
0.90978194
0.9102415
0.90983498
0.90987199
0.90971739
0.90958166
0.90974336
0.90929426
0.90943117
0.90902658
0.90924916
0.90884769
0.90875356
0.90923868
0.9101845
0.91046099
0.91062498
0.91037158
0.91050926
0.91061238
0.91033045
0.91055369
0.910169
0.9104531
0.91040985
0.91006041
0.91036286
0.90984371
0.91045035
0.90977915
0.91002797
0.90971888
0.90980052
0.90980558
0.90933493
0.9095572
0.90911749
0.90945521
0.90888201
0.90889518
0.90918422
0.91013885
0.91050005
0.91064864
0.91048009
0.9107381
0.91057844
0.91046957
0.91063417
0.91034581
0.91072524
0.91030384
0.91036203
0.91039015
0.91021228
0.91052496
0.90983095
0.91031793
0.90980764
0.91022145
0.90967668
0.90967812
0.90960541
0.90952027
0.90954691
0.90908224
0.90904262
0.90920444
0.91020779
0.91066552
0.91084172
0.91068002
0.91091098
0.91070669
0.91071915
0.91088398
0.91056343
0.91092784
0.91043909
0.91070158
0.91058535
0.91049953
0.91067927
0.91009965
0.91060962
0.90995833
0.91054292
0.90982627
0.91015198
0.90970177
0.90979942
0.90968348
0.90952746
0.90938807
0.90929192
0.91037769
0.91096254
0.91105105
0.91100101
0.91122041
0.91098087
0.91107957
0.91102749
0.91095653
0.91123606
0.91083504
0.91105234
0.91069059
0.91093035
0.91095863
0.91070146
0.91076358
0.9102352
0.91075964
0.91033165
0.91064063
0.90997307
0.91002322
0.9099368
0.91003359
0.90984353
0.90956442
0.91065681
0.9112075
0.91137963
0.91144045
0.91171783
0.91138436
0.91143564
0.91129444
0.91144172
0.91169005
0.91131493
0.91141934
0.91092708
0.91148026
0.91126689
0.91134702
0.9109865
0.91070288
0.91106291
0.91080158
0.91108798
0.91039889
0.91049493
0.91030131
0.91045315
0.91025788
0.90987778
0.91103679
0.91162214
0.91176319
0.91209277
0.91211494
0.91196685
0.91185284
0.91173045
0.91212003
0.91198126
0.91206835
0.91166429
0.91169195
0.91185605
0.91173089
0.91191617
0.91130794
0.91158264
0.91126811
0.91152546
0.91124903
0.91116952
0.91095812
0.91094077
0.91080077
0.9107302
0.91024099
0.91158319
0.91217928
0.91243878
0.91266427
0.91256556
0.91266277
0.91240817
0.91253241
0.91261939
0.91250018
0.91267195
0.91222628
0.91256146
0.91220778
0.91241291
0.91227171
0.91209765
0.91226562
0.9118157
0.91208616
0.91166443
0.91196657
0.91157689
0.91163941
0.91125202
0.91127565
0.9106346
0.91219534
0.91295699
0.91318958
0.91321954
0.91329476
0.91326969
0.91330849
0.91321243
0.91321364
0.91325145
0.91320729
0.9132262
0.91314897
0.91287587
0.91303969
0.91293366
0.91301429
0.91294965
0.91250914
0.91261535
0.91238076
0.9127342
0.91242401
0.91230289
0.91188372
0.91185823
0.91133583
0.9129255
0.91375018
0.91392629
0.91407444
0.91415551
0.91418535
0.91414781
0.91387328
0.91401779
0.91397037
0.91420537
0.91410789
0.91390403
0.91361204
0.91371267
0.91384471
0.9138748
0.91383153
0.91324993
0.91334554
0.91312035
0.91357201
0.91324758
0.91315551
0.91265144
0.91263339
0.91210818
0.9137651
0.91450785
0.91478214
0.91502097
0.91522691
0.91528164
0.91501187
0.91478729
0.91482966
0.91499173
0.91519694
0.91506669
0.91481969
0.91447795
0.91464764
0.9147674
0.91485665
0.91468435
0.91421238
0.91417407
0.91411058
0.91440426
0.91419017
0.91401324
0.91357877
0.91351923
0.91291738
0.91470931
0.91545942
0.91587108
0.91616944
0.91639658
0.91628289
0.9159789
0.91577661
0.91591534
0.9161473
0.91628023
0.9161076
0.91573532
0.91558306
0.91559028
0.91592114
0.91581081
0.9157383
0.91520095
0.9151986
0.91513611
0.91536881
0.91520458
0.9149616
0.91461663
0.91449648
0.91425625
0.91586036
0.91671014
0.91711051
0.91744853
0.9176087
0.91745003
0.91717236
0.91697011
0.91715543
0.91729398
0.91744387
0.91720436
0.91691422
0.91679984
0.91675279
0.91706465
0.91688687
0.9168732
0.91633103
0.91638931
0.91622952
0.91648135
0.91628393
0.91606213
0.91575274
0.91557651
0.91536965
0.9172526
0.91819693
0.91847319
0.91873994
0.91886231
0.91879155
0.91862359
0.91845143
0.91853613
0.91852077
0.91861944
0.91838444
0.91825347
0.91815905
0.91813657
0.91826383
0.91806764
0.91800714
0.91758339
0.91765541
0.91750719
0.91770138
0.91749914
0.91725751
0.91695269
0.91678111
0.91635419
0.91854322
0.91975146
0.92011818
0.92027685
0.92025316
0.92017694
0.92005233
0.91997564
0.92004729
0.92000757
0.92001274
0.91979316
0.91966286
0.91956176
0.91956756
0.91959631
0.91946045
0.91934109
0.91902912
0.91898791
0.91888735
0.91893413
0.91880339
0.91858005
0.91830716
0.91817646
0.91787767
0.91998544
0.92132396
0.92173987
0.92185377
0.92180715
0.92169608
0.92162188
0.92156033
0.92158573
0.92158924
0.92150919
0.92135184
0.92116419
0.92106532
0.92105406
0.92106042
0.92094472
0.92080318
0.92054545
0.92043173
0.92033881
0.92030727
0.920194
0.92001074
0.91976631
0.91963167
0.91985248
0.92156514
0.92293835
0.92334061
0.92346255
0.92344353
0.92340099
0.92335161
0.9232642
0.92321901
0.92317787
0.92308093
0.92297949
0.92284107
0.92275053
0.92269558
0.92260902
0.92251114
0.9222887
0.92217948
0.92198301
0.92196802
0.92182655
0.92171663
0.9214794
0.92128045
0.92114835
0.9210202
0.92322258
0.92466057
0.9251305
0.92521816
0.92524816
0.92523143
0.92515995
0.92498506
0.92493423
0.92482661
0.92477898
0.92474666
0.92459452
0.92457254
0.9243311
0.92428215
0.92405951
0.9239725
0.92385122
0.92373099
0.92364181
0.92345579
0.9232789
0.92307133
0.92288141
0.92279006
0.92358025
0.92507634
0.92660508
0.92710052
0.92719191
0.92721225
0.92711197
0.92705528
0.926843
0.92678628
0.92671386
0.92661746
0.92664126
0.926382
0.92637629
0.92604739
0.92607426
0.92580319
0.92585735
0.92560733
0.92556925
0.92523205
0.92518155
0.92486653
0.92486859
0.92463865
0.92457944
0.92460494
0.92700005
0.92868393
0.92920978
0.92927941
0.92929664
0.92912557
0.92902979
0.92889594
0.92872038
0.92881079
0.9285246
0.92865369
0.92821642
0.92826772
0.92789964
0.92794762
0.92779954
0.92769768
0.92758501
0.92725724
0.92713656
0.92680086
0.92688819
0.92659716
0.92669025
0.92636479
0.92780128
0.92912581
0.93079244
0.93137977
0.93143325
0.93138276
0.93133785
0.93108022
0.93111392
0.9307597
0.93091634
0.93056041
0.93062649
0.93032696
0.93018153
0.9301162
0.92976989
0.93000104
0.92940719
0.92974255
0.92891985
0.92932668
0.92854293
0.92896812
0.9284275
0.9285634
0.92818849
0.92890368
0.93121676
0.93300936
0.9335845
0.93367577
0.93349501
0.93351979
0.93327034
0.93321396