/*--------------------------------*- C++ -*----------------------------------*\
| =========                 |                                                 |
| \\      /  F ield         | OpenFOAM: The Open Source CFD Toolbox           |
|  \\    /   O peration     | Version:  2406                                  |
|   \\  /    A nd           | Website:  www.openfoam.com                      |
|    \\/     M anipulation  |                                                 |
\*---------------------------------------------------------------------------*/
FoamFile
{
    version     2.0;
    format      ascii;
    arch        "LSB;label=32;scalar=64";
    class       volScalarField;
    location    "4";
    object      rho_0;
}
// * * * * * * * * * * * * * * * * * * * * * * * * * * * * * * * * * * * * * //

dimensions      [1 -3 0 0 0 0 0];

internalField   nonuniform List<scalar> 
62344
(
1.0013829
1.0012958
1.0001942
0.99985679
0.99898461
1.001445
0.99968338
0.99999277
0.99968464
1.0001465
0.99783441
0.99781726
0.99824046
0.99472317
0.99710294
0.9999997
1.0019072
0.99589967
0.99372848
1.0014583
0.99885415
0.99542889
0.99496085
0.98621296
0.99025209
0.98211885
0.97797723
0.98688843
0.97300016
0.95652404
0.96682495
0.97934377
0.97628783
0.96361998
0.96074964
0.96556302
0.96847094
0.96479774
0.95654144
0.95095345
0.95324797
0.96309122
0.97259019
0.97258412
0.96167096
0.94394852
0.92607762
0.91146957
0.9038647
0.90619448
0.91996258
0.94211159
0.96295543
0.96986003
0.95746951
1.0012507
1.0011997
1.0000965
0.99968669
0.99938352
1.0009099
0.99930658
1.0003988
0.99971789
1.0001654
0.99700849
0.99812162
0.99844643
0.99442969
0.99499514
0.99707644
1.0027849
0.99789341
0.99249013
0.99982585
0.99719871
0.99558509
0.99736571
0.99175531
0.99112593
0.98028879
0.98080382
0.99134615
0.9759668
0.95832193
0.96734341
0.98360222
0.97876543
0.96414729
0.96086847
0.96974799
0.97390268
0.96660209
0.95555075
0.95371579
0.96299177
0.97630349
0.98101443
0.97003161
0.95160683
0.93648296
0.92840236
0.92459246
0.92345772
0.925853
0.932068
0.94154602
0.9530751
0.96170675
0.95876402
1.001035
1.0012025
1.0004279
1.0001043
1.0012618
1.0017984
1.0010813
1.0022612
1.0015183
1.0018268
0.99831799
0.99960105
0.99872298
0.9966937
0.99525199
0.99445517
1.0001681
0.9989389
0.99325039
0.99817328
0.99472071
0.99430383
0.99735297
0.99559153
0.99056379
0.97702678
0.98180267
0.99308521
0.97888846
0.9620996
0.96971384
0.98448702
0.97931017
0.96190051
0.95999361
0.97127945
0.97644264
0.96691543
0.95494705
0.95548046
0.96871919
0.98198816
0.98027124
0.96233558
0.94048262
0.92739459
0.92854662
0.93728843
0.94439397
0.94585872
0.94218139
0.93595511
0.93260721
0.93399287
0.93755778
1.0008423
1.0012597
1.0009903
1.0009223
1.0030763
1.0030249
1.0035766
1.0047663
1.0039059
1.0036265
1.0013345
1.00169
0.99974563
0.99926094
0.99833585
0.99473118
0.9972137
0.99888022
0.99535572
0.99833208
0.9939437
0.99375346
0.99583556
0.99744389
0.98979951
0.97606417
0.98332752
0.99354103
0.98016547
0.96670565
0.97442792
0.9863621
0.97871121
0.96061209
0.95829078
0.97214559
0.97930246
0.96961335
0.95592734
0.95665893
0.97167326
0.98578071
0.98213685
0.96044986
0.93592357
0.92374577
0.92864806
0.94470703
0.96172465
0.96819782
0.95931984
0.94161776
0.92295606
0.91145613
0.90962804
1.0007419
1.0013226
1.0013502
1.0016885
1.0042804
1.0038046
1.0053312
1.0063205
1.0056769
1.0043875
1.0041018
1.0030489
1.0007875
1.001007
1.0013582
0.99745773
0.99541725
0.99780368
0.99670793
0.99957546
0.99462462
0.99366766
0.99276222
0.99641471
0.98893927
0.97720598
0.98636763
0.99297117
0.97913665
0.97012773
0.97788395
0.98634349
0.97775957
0.95981866
0.95717113
0.97165446
0.98053465
0.97185768
0.9577659
0.95764256
0.97170963
0.98494267
0.98214996
0.96187077
0.93821357
0.92654031
0.931404
0.94897585
0.97100784
0.98373421
0.97778254
0.95654698
0.9307159
0.90872118
0.89627204
1.0007533
1.001409
1.0014702
1.0020377
1.0044802
1.0038155
1.0058241
1.0063825
1.005983
1.0042297
1.0055418
1.0034166
1.0015879
1.001526
1.0027732
1.0003895
0.9961742
0.99667293
0.99687288
1.0007142
0.99612663
0.99457642
0.99041265
0.99453256
0.98806714
0.97987479
0.99049081
0.99216419
0.97712759
0.97139164
0.98062511
0.98613796
0.97719592
0.96084882
0.95808319
0.97108574
0.98020437
0.97406384
0.9611663
0.95954392
0.97046535
0.98066735
0.9792979
0.96430696
0.94594234
0.93606395
0.9394992
0.9540282
0.97242845
0.9864313
0.98580224
0.97026352
0.94612623
0.92127391
0.90154913
1.0008671
1.0014258
1.0011677
1.0018781
1.003778
1.0029956
1.0051202
1.0051763
1.0050486
1.0034121
1.0054282
1.0027188
1.0017444
1.0011147
1.0024803
1.0014818
0.99819285
0.99588046
0.99607149
1.000648
0.9973873
0.9959176
0.98975276
0.993593
0.98741177
0.9830902
0.99439176
0.99150911
0.97484607
0.97198746
0.98205766
0.98509685
0.97651092
0.96354654
0.96142862
0.97141222
0.97848309
0.97517011
0.9656114
0.96325071
0.96953599
0.97446996
0.97269649
0.96456172
0.95433639
0.94908111
0.9518741
0.96088907
0.97118928
0.9782002
0.97949057
0.97224662
0.95596608
0.93633952
0.91711115
1.0009618
1.0013846
1.0006955
1.0013351
1.0027479
1.0019257
1.0038427
1.0034854
1.0035596
1.0023517
1.004043
1.0014154
1.0013071
1.0006372
1.000979
1.0008981
1.0000757
0.99603043
0.99518651
0.99974188
0.99741758
0.99721256
0.99063588
0.99417636
0.98755587
0.98555713
0.99765704
0.99123472
0.97318796
0.97273367
0.98287821
0.9833725
0.97483015
0.96718379
0.96694742
0.9726943
0.97618838
0.97461528
0.97030315
0.96919566
0.97169671
0.97040011
0.96473764
0.96011363
0.95922883
0.96090518
0.96454826
0.96953621
0.97207302
0.96977681
0.96507757
0.95964174
0.95276112
0.94319181
0.93132452
1.001019
1.0013481
1.0003512
1.0008677
1.0017421
1.0010777
1.0027013
1.0020584
1.0022389
1.0014814
1.0021314
1.0000303
1.0003589
1.0002675
0.99935558
0.99922275
1.0008594
0.99702626
0.99527901
0.99840231
0.99657137
0.99777067
0.99249998
0.99569521
0.98811878
0.9873249
0.99916338
0.99119808
0.97273353
0.97411163
0.98417803
0.98184457
0.9728048
0.97052202
0.97348726
0.9751782
0.97375792
0.97124484
0.97315285
0.97618508
0.97618132
0.96946664
0.95866214
0.95318359
0.9582521
0.96725091
0.97502675
0.97795411
0.9736949
0.9635034
0.95152696
0.94301891
0.93988362
0.93886345
0.93720921
1.0010049
1.0013365
1.0002341
1.0007466
1.0012156
1.0008186
1.0021301
1.0012338
1.0015185
1.0011493
1.0003992
0.99905349
0.99958366
0.99993423
0.99838225
0.99740206
1.0006591
0.99823657
0.99625981
0.9974152
0.99541031
0.99764981
0.99451142
0.99736425
0.98884739
0.98790334
0.99937327
0.99064465
0.97281618
0.97588915
0.98593748
0.9811337
0.97049353
0.97265062
0.97957234
0.97934077
0.97144049
0.96581539
0.97288316
0.98243086
0.98341683
0.97256608
0.95634225
0.9473417
0.95345114
0.96799879
0.98090195
0.98541533
0.97883254
0.96318817
0.94556081
0.93225913
0.92733447
0.92955962
0.93478017
1.0009189
1.0013392
1.0003378
1.0008019
1.0010267
1.0011501
1.0020716
1.0010789
1.0012905
1.0013844
0.99926808
0.99881321
0.99935568
0.99965265
0.99810905
0.99632615
0.99992926
0.99894668
0.99756426
0.99722602
0.99447638
0.99707406
0.99604782
0.99879072
0.98949531
0.98818945
0.99831376
0.98960838
0.97363433
0.97807648
0.9880436
0.98109383
0.96847084
0.97325283
0.98460592
0.98390071
0.9700159
0.96001687
0.96883512
0.98583959
0.99099086
0.97852887
0.9582515
0.94486981
0.94849443
0.96443209
0.98201705
0.99093877
0.98505724
0.96835023
0.9476839
0.93073467
0.92184339
0.9220865
0.92873671
1.0008125
1.0014094
1.0006477
1.0011311
1.0012702
1.0018608
1.0024469
1.0015502
1.00141
1.0020846
0.99875872
0.99901088
0.99978574
0.99941736
0.99837812
0.99637744
0.99894154
0.99877482
0.99884938
0.99769854
0.99420841
0.99626196
0.99682439
0.99967497
0.98999035
0.9884774
0.99660097
0.98809045
0.97459194
0.98021401
0.99017526
0.98168067
0.96740723
0.97276754
0.98807189
0.98838377
0.96998815
0.95534174
0.96317486
0.9849777
0.99682109
0.98600057
0.96391815
0.94598394
0.9453711
0.95982641
0.97968205
0.99312936
0.99067371
0.9757082
0.95560273
0.93585194
0.92278522
0.91946583
0.92453126
1.0007307
1.0014981
1.0010527
1.0016189
1.0018541
1.0027184
1.003135
1.0023577
1.0018532
1.00309
0.9987363
0.99956424
1.000797
0.99922565
0.99866517
0.99756911
0.99828446
0.99828074
0.99981891
0.99863085
0.99478523
0.99574336
0.99690936
0.99976752
0.99054665
0.98898465
0.99524452
0.98677057
0.97559181
0.98196293
0.99184602
0.98277601
0.96764766
0.97182401
0.98941729
0.99171105
0.9714987
0.95280539
0.95749727
0.98107539
0.99887336
0.99295785
0.97065258
0.95038494
0.94556362
0.95661281
0.97503486
0.9912675
0.99361231
0.98257759
0.9644776
0.94502815
0.93017784
0.9232374
0.92417388
1.0006785
1.0016135
1.0014164
1.0020705
1.0024853
1.0035125
1.0039608
1.0032252
1.0023492
1.0041258
0.99904407
1.0002063
1.002043
0.99911961
0.99894497
0.99935591
0.99823579
0.99739759
1.0003331
0.9996371
0.99578287
0.99562816
0.99656342
0.9990263
0.9910013
0.98988565
0.99441694
0.98573806
0.97657328
0.98328127
0.99285238
0.98406173
0.96878558
0.9709477
0.98897115
0.99354999
0.97375643
0.95294907
0.95379903
0.97535646
0.99659505
0.99720961
0.97709772
0.95662231
0.94858754
0.95526565
0.9705652
0.98570239
0.99255075
0.98676575
0.9722827
0.95518864
0.94065761
0.93159086
0.92894432
1.000665
1.0017279
1.0017207
1.0024028
1.0030878
1.0041712
1.0046485
1.003987
1.0028459
1.0048791
0.99959388
1.0007921
1.0032904
0.99914471
0.99908558
1.0011284
0.99863663
0.99654944
1.0002948
1.0004801
0.9969394
0.99587529
0.99619812
0.99789155
0.9913022
0.99096318
0.99417465
0.98528666
0.97749594
0.98416517
0.99296477
0.98521508
0.97063006
0.97054498
0.98730065
0.99367874
0.9763668
0.95509468
0.95248811
0.97040875
0.99045655
0.99689721
0.98260911
0.96323161
0.95371643
0.95654787
0.96754765
0.98043476
0.98758534
0.98640906
0.97737179
0.96395849
0.95087919
0.94138519
0.93614755
1.0006836
1.0018342
1.0019489
1.0026294
1.0035175
1.0046473
1.0050337
1.0045401
1.0033028
1.0052565
1.0001984
1.0011613
1.0042548
0.99928058
0.99911173
1.0025425
0.99930081
0.99588403
0.99994041
1.0010766
0.99800883
0.99637242
0.99602854
0.996691
0.99144831
0.9921334
0.99423093
0.98538143
0.97859974
0.98484153
0.99250412
0.9861633
0.9728782
0.97090288
0.98523036
0.99159855
0.97847242
0.95810934
0.95434035
0.96771635
0.98432585
0.99226451
0.98475503
0.96878499
0.95934854
0.95967877
0.96695377
0.97572608
0.98165905
0.98193507
0.97799706
0.9694927
0.95922354
0.95089673
0.94498743
1.000739
1.0019086
1.0020899
1.0027426
1.0037014
1.0048904
1.0051417
1.0047797
1.0036627
1.0052074
1.0007482
1.0013212
1.0047337
0.99949352
0.99908784
1.0034032
0.99995796
0.99564409
0.99941999
1.0013625
0.99880623
0.99695154
0.99619513
0.9955747
0.99148656
0.99332216
0.99456389
0.98585181
0.97986802
0.98531004
0.99160526
0.98663639
0.97526041
0.97204691
0.98271626
0.98831908
0.97916735
0.9626074
0.95852252
0.96768807
0.9787217
0.98540092
0.98249028
0.97304578
0.96533024
0.96393944
0.96800175
0.97288172
0.97598186
0.97637161
0.97449223
0.97039735
0.96432821
0.95828516
0.95302184
1.0008289
1.0019402
1.0021508
1.0026918
1.0036422
1.0049036
1.0049867
1.0047079
1.003893
1.0047858
1.0011781
1.001293
1.0046435
0.99977824
0.99908292
1.003437
1.0005603
0.99583523
0.99895053
1.001263
0.99923286
0.99754025
0.9966979
0.99472353
0.99145331
0.99434922
0.99505737
0.98662882
0.98126699
0.98576025
0.99030236
0.98642618
0.97762083
0.97388447
0.98046603
0.98419606
0.97849525
0.96762451
0.96421564
0.96987681
0.97510133
0.97790502
0.97712325
0.97495545
0.9711312
0.96919076
0.97072712
0.97246719
0.97187184
0.97041563
0.96893219
0.96782286
0.96581799
0.96283436
0.95935903
1.0009329
1.0019413
1.0021174
1.0024758
1.0033739
1.0047185
1.0046344
1.0044222
1.0039867
1.0040554
1.0014549
1.0011753
1.0039988
1.00007
0.99908334
1.0028603
1.0010244
0.9964089
0.99863466
1.0008246
0.99923934
0.99794128
0.99746378
0.99426547
0.9915575
0.99519937
0.99544668
0.98757437
0.98273392
0.98622436
0.9888608
0.98565253
0.97954498
0.97645221
0.97909876
0.97994435
0.97662781
0.97177314
0.97053729
0.97350344
0.97392787
0.97157117
0.96989513
0.97314976
0.97550271
0.97518828
0.97542981
0.97407881
0.97022995
0.96593011
0.96354273
0.96361129
0.96456018
0.96467999
0.9635242
1.0010391
1.0019247
1.002019
1.0021215
1.002947
1.0043435
1.0041625
1.0039736
1.0039585
1.0030672
1.0015694
1.0010329
1.0029313
1.0003197
0.99911242
1.0017862
1.0013208
0.99718844
0.99851392
1.0001651
0.9989632
0.99818064
0.99836074
0.99411727
0.99182328
0.99590156
0.99581573
0.9884818
0.98419173
0.98685353
0.98742664
0.98444448
0.98098066
0.9794897
0.97888825
0.97633388
0.97361374
0.97445663
0.97708132
0.97854454
0.97525698
0.96719235
0.96300245
0.96896042
0.97733878
0.98113953
0.98148287
0.97802219
0.97105234
0.96352518
0.95928264
0.95923578
0.96177431
0.9644786
0.96564578
1.0011382
1.001898
1.001891
1.0016827
1.0024428
1.0038381
1.0036023
1.0034351
1.0038453
1.0020051
1.0016026
1.0009113
1.0015929
1.0003939
0.99917726
1.0004733
1.0014241
0.99816636
0.99861945
0.99951209
0.99838778
0.99823276
0.99932284
0.99422317
0.99218472
0.99650623
0.99618326
0.98928338
0.98560157
0.9875761
0.98630321
0.9829209
0.98192684
0.98264566
0.97979646
0.9736718
0.97014774
0.97525122
0.98286732
0.98484601
0.97835783
0.9652617
0.95726527
0.96333723
0.97659095
0.98597986
0.98815403
0.98361688
0.97436987
0.96351387
0.9567374
0.95545376
0.95808779
0.96267104
0.96612757
1.0012235
1.0018697
1.0017643
1.001231
1.0019336
1.0032799
1.0030132
1.0029079
1.0036596
1.0009599
1.0015681
1.0008122
1.00025
1.0003238
0.99925813
0.9990807
1.0013079
0.99907873
0.99890664
0.99892523
0.9976675
0.99812089
1.000177
0.99446552
0.99250345
0.99704832
0.99653024
0.99003665
0.98689674
0.98833778
0.98555522
0.98130552
0.98224858
0.98545438
0.98158466
0.97200685
0.96679974
0.97453155
0.98710029
0.99108765
0.98270451
0.96536914
0.95328692
0.95765518
0.97362663
0.98876447
0.99448245
0.99043514
0.97922491
0.96565988
0.95618541
0.95269482
0.95436417
0.95973464
0.96519477
1.0012916
1.0018393
1.0016542
1.0008265
1.0014794
1.0027376
1.0024489
1.0024411
1.0034818
1.0000224
1.0014565
1.000776
0.9990335
1.0001778
0.999386
0.99779772
1.0010234
0.99994684
0.99922988
0.99847377
0.99696321
0.99785582
1.001039
0.99478198
0.9928874
0.99752129
0.99689755
0.99069475
0.98808018
0.9892215
0.98506269
0.97988065
0.98217926
0.98778518
0.98384611
0.97161783
0.96400485
0.97264186
0.98941615
0.99703277
0.98799082
0.96713341
0.95158555
0.95254569
0.9692025
0.98897269
0.99979314
0.99785399
0.98530521
0.96982783
0.95746475
0.95118579
0.95134456
0.9566602
0.96308127
1.0013514
1.0018164
1.0015711
1.0005041
1.0011229
1.0022685
1.0019802
1.0020695
1.0033282
0.99927119
1.0012862
1.0007634
0.99803333
0.99993822
0.99958595
0.99679074
1.000526
1.0006244
0.99954304
0.99811161
0.99632585
0.99741171
1.0015835
0.99516307
0.99324137
0.99784993
0.99716029
0.99124444
0.98914737
0.99002132
0.98493828
0.97869052
0.98177018
0.98930676
0.98634208
0.97225756
0.96205659
0.96999367
0.98952605
1.0017418
0.99331621
0.97045777
0.95102522
0.94860504
0.9643156
0.98648715
1.0027862
1.0039473
0.99159411
0.97509591
0.96008597
0.95091939
0.94917471
0.95291892
0.95975895
1.0013989
1.0018247
1.0015466
1.0003093
1.0009172
1.0019541
1.0016789
1.001885
1.0033188
0.99878616
1.0012132
1.0008656
0.99734299
0.99983793
0.99984094
0.99616608
1.0002218
1.0012506
0.999878
0.99802411
0.99593429
0.99722497
1.0022426
0.99557452
0.99360484
0.99816332
0.99764319
0.99176302
0.98998734
0.99080483
0.98524646
0.97784396
0.98126897
0.99036099
0.98861396
0.97359446
0.96110364
0.96735456
0.98828573
1.0047907
0.99856488
0.97496567
0.95206789
0.94618747
0.95955916
0.98248354
1.0037973
1.0097594
0.99890322
0.98087917
0.96397371
0.95216261
0.94826356
0.95108295
0.95714141
1.0014828
1.0019049
1.0016534
1.0002375
1.0008157
1.0018042
1.0015798
1.001882
1.0034531
0.99861167
1.0012465
1.0010784
0.99705201
0.99981664
1.0002116
0.99593939
0.99998779
1.0017975
1.0003103
0.99817562
0.99586032
0.99689378
1.0027131
0.996092
0.99382247
0.99836312
0.9981703
0.99233826
0.99048275
0.99143534
0.98600696
0.97760666
0.98038462
0.99061774
0.99061367
0.97558477
0.96092156
0.96447299
0.9852619
1.0056865
1.0037427
0.97988776
0.95465965
0.94462318
0.95359524
0.97651178
1.0013912
1.0120836
1.0050345
0.98769398
0.96849143
0.95428833
0.94771529
0.9471976
0.95213166
1.0015904
1.0019771
1.0018344
1.0000797
1.0004084
1.0013555
1.0013064
1.0017251
1.0034083
0.99849278
1.0011535
1.0011522
0.99692217
0.99974611
1.000459
0.99592493
0.9998104
1.0019442
1.0006146
0.99848611
0.99612143
0.99675325
1.0028147
0.99673753
0.99405053
0.99838922
0.99865046
0.99305077
0.99100854
0.99183537
0.98682916
0.97840683
0.97945749
0.98963209
0.99156292
0.97824034
0.96290888
0.96251023
0.98122158
1.001802
1.0050424
0.98493812
0.96037649
0.9465795
0.9510417
0.96979516
0.99403859
1.0092055
1.0069025
0.99270472
0.97523414
0.95964864
0.95069793
0.94820339
0.95070434
0.95926683
0.96237549
0.96729168
0.96896641
0.97046539
0.9700135
0.96831926
0.9652077
0.9607844
0.95482562
0.94791489
0.94107274
0.93572733
0.9330072
0.93338228
0.9365938
0.93991366
0.93917152
0.93210919
0.91841445
0.90252575
0.89231612
0.89533559
0.91250332
0.93333852
0.93899911
0.92808617
0.97169828
0.97425779
0.9769197
0.97525644
0.9737713
0.97037895
0.96576774
0.96039036
0.95425634
0.94809939
0.94307686
0.9404598
0.94117394
0.94443183
0.94914258
0.95201123
0.95000828
0.94041069
0.92586557
0.91040822
0.89968749
0.89897916
0.90839956
0.9222826
0.92374624
0.9098699
0.89143171
0.97679813
0.97740724
0.97655329
0.97254443
0.96843661
0.96320997
0.95737414
0.95146085
0.94624559
0.94278745
0.9421565
0.94491227
0.9504672
0.95795307
0.96315184
0.96135932
0.95157415
0.93580273
0.91945453
0.9083283
0.90762772
0.91664228
0.9299056
0.93250026
0.91478865
0.88644753
0.86555539
0.97033376
0.96816308
0.96512898
0.96007635
0.95465521
0.94920038
0.94415099
0.94051002
0.93897418
0.94009012
0.94429212
0.95125776
0.95953121
0.96571253
0.9654373
0.95683369
0.94200786
0.9250503
0.91297657
0.91173568
0.9219299
0.93816668
0.94762588
0.93659103
0.90644972
0.87433901
0.86069079
0.95548467
0.9507785
0.9463946
0.94094051
0.93617016
0.93249318
0.9304072
0.93056407
0.93331359
0.93859086
0.94586992
0.95377829
0.95963608
0.96034651
0.95440891
0.94185332
0.92611214
0.91318617
0.9100163
0.91950144
0.93782069
0.95428813
0.95384675
0.93123364
0.89803992
0.87411998
0.87349666
0.93489055
0.93009851
0.92671732
0.92349767
0.92141905
0.92084585
0.92223201
0.92546597
0.93036351
0.93638408
0.94206667
0.945625
0.94611847
0.94190872
0.93274658
0.92041829
0.90978681
0.90642321
0.91310242
0.92963165
0.94831377
0.95591687
0.94406043
0.91677758
0.8906029
0.88276613
0.8963013
0.91892766
0.91646914
0.91632692
0.91610214
0.91705564
0.9191209
0.92213491
0.92552722
0.92828475
0.93026479
0.93028188
0.92788128
0.9230552
0.91593132
0.90718166
0.90034583
0.8989751
0.90553541
0.91966431
0.93670735
0.9463784
0.94195293
0.92285101
0.8993732
0.88634706
0.89643365
0.92432005
0.91662705
0.91716003
0.92081385
0.92282516
0.92469356
0.92632314
0.92702905
0.92648364
0.92412637
0.92004546
0.91401781
0.90719931
0.89976547
0.8934296
0.89000063
0.89130174
0.89813559
0.91010502
0.92374043
0.93248391
0.93011635
0.9171017
0.89783555
0.88456165
0.88712113
0.91177259
0.94574627
0.92805594
0.93097375
0.93427643
0.93544046
0.93563418
0.93398591
0.93018983
0.92471382
0.91765762
0.90912557
0.90041434
0.89290994
0.88800268
0.88708523
0.89065904
0.89814489
0.90810368
0.91741367
0.92087837
0.9167996
0.90442741
0.88853587
0.8766767
0.87762568
0.89430768
0.92631653
0.95499208
0.94345759
0.94552227
0.94555124
0.94331363
0.93954792
0.93399561
0.92691214
0.91852436
0.90947418
0.90085187
0.89452817
0.89189519
0.89358994
0.89916771
0.9083541
0.91792011
0.92419339
0.92294584
0.91360017
0.89738774
0.87916419
0.8658878
0.86515895
0.87883541
0.90541927
0.93609016
0.94966833
0.94531881
0.94447163
0.94176183
0.93642868
0.93031271
0.92332481
0.91537098
0.90770652
0.90152879
0.89808551
0.89857914
0.90303145
0.91152431
0.92238028
0.93336494
0.93947023
0.93685796
0.92521516
0.90526903
0.88204649
0.86432876
0.85859083
0.86717908
0.88854383
0.91611481
0.93478443
0.9321582
0.92670829
0.92314211
0.91894319
0.91381284
0.90831045
0.90309812
0.89898413
0.89676635
0.8972356
0.90107252
0.90817722
0.91876222
0.93142231
0.94339277
0.95009628
0.94870619
0.93785184
0.9189992
0.89651381
0.87664179
0.86658146
0.87063551
0.88577164
0.90736936
0.92337006
0.92381104
0.90780961
0.89754231
0.8927174
0.8896216
0.88652821
0.88446201
0.88399694
0.88564557
0.889822
0.8964164
0.90550234
0.91692383
0.92868765
0.93893858
0.94473334
0.94412431
0.93648179
0.92162288
0.90392387
0.88772301
0.87969111
0.88294639
0.8965573
0.91630904
0.93007008
0.92745297
0.91011928
0.88505765
0.87433637
0.8719823
0.87189761
0.87268557
0.87463453
0.87805123
0.88357966
0.89075382
0.89901694
0.90787419
0.91629882
0.9219277
0.92419861
0.9231159
0.9163412
0.9054817
0.89270504
0.88229965
0.87927319
0.8858529
0.90255551
0.92605664
0.94527825
0.94757269
0.93014358
0.89974253
0.87241056
0.87264804
0.87396658
0.87831413
0.88194232
0.88610715
0.89040476
0.89527715
0.89984236
0.90317996
0.90447055
0.90360175
0.90042359
0.89513569
0.88703647
0.87778751
0.86889065
0.86366018
0.86424096
0.87320061
0.89130314
0.9169942
0.94272848
0.95626067
0.95092186
0.92777603
0.89604033
0.87455034
0.89422091
0.89858615
0.90380442
0.90753255
0.91083423
0.91251222
0.91203117
0.90932271
0.90434576
0.8976191
0.88877031
0.87810165
0.86710686
0.85589462
0.84810618
0.84469846
0.84679977
0.85606604
0.87268685
0.8957335
0.92013829
0.93764232
0.94375807
0.93408204
0.9146578
0.89464043
0.88763158
0.92691314
0.93143851
0.93376682
0.93349796
0.93172639
0.92793985
0.92122714
0.91249636
0.90204649
0.88980758
0.87735579
0.86546549
0.85443251
0.84656679
0.84450241
0.84631174
0.85321505
0.86584406
0.88198175
0.89823162
0.91021685
0.91474985
0.91234481
0.90282992
0.89119489
0.88931657
0.90003393
0.94581
0.94773938
0.94655934
0.94258973
0.93632926
0.92821582
0.91854341
0.90702916
0.89507613
0.88396563
0.87407459
0.86645044
0.86231307
0.8628834
0.86642507
0.87476707
0.88477589
0.89393513
0.90067813
0.90098362
0.89546376
0.88580675
0.87537357
0.86650257
0.86618325
0.87857528
0.90216418
0.934426
0.93238913
0.92797429
0.92276458
0.91631556
0.90920281
0.90157394
0.89432528
0.88729273
0.8821493
0.87948592
0.88055111
0.88536911
0.89398226
0.90647324
0.91796356
0.92700085
0.9296907
0.92238078
0.9064709
0.88608458
0.86549479
0.84801349
0.84128787
0.84870039
0.86715208
0.89552476
0.89500753
0.89176766
0.88888247
0.88461888
0.88003694
0.87679195
0.8746869
0.8740611
0.87575485
0.88005981
0.88722113
0.89784631
0.91225677
0.9288523
0.94565169
0.95868157
0.96352858
0.95740075
0.93900962
0.91350035
0.8863938
0.86106165
0.84293882
0.83825824
0.84530209
0.86169552
0.88428739
0.85299603
0.84955624
0.84810994
0.84700704
0.84660512
0.84755729
0.85043061
0.85609901
0.86435779
0.87627891
0.89157303
0.90959477
0.92914419
0.94865282
0.96473053
0.97384888
0.97368479
0.9625347
0.94308823
0.91866817
0.89438639
0.87379544
0.86170214
0.85953338
0.8628338
0.8687191
0.87699204
0.82780954
0.82775822
0.82812834
0.82923256
0.83178165
0.83581197
0.84213422
0.85099184
0.86245513
0.87656222
0.89300157
0.91007781
0.9263037
0.94124113
0.95181917
0.95677259
0.95290833
0.94290011
0.92914873
0.91442048
0.90236806
0.89440813
0.89416127
0.89575855
0.89418237
0.88934421
0.88191393
0.82853674
0.83184102
0.83649909
0.84023097
0.84491121
0.85040313
0.85724647
0.86545734
0.87438316
0.8830687
0.89190316
0.90005142
0.90678338
0.91166599
0.91438107
0.9148602
0.91186179
0.90625854
0.90151254
0.89929774
0.90169838
0.9103701
0.92480093
0.93519404
0.93464328
0.91942773
0.89968518
0.85741006
0.86463742
0.87058304
0.87533912
0.8798796
0.88403735
0.8875409
0.8899668
0.89092467
0.8903046
0.88805039
0.88491855
0.88080911
0.87697582
0.87251187
0.86869507
0.86536674
0.86542225
0.86842728
0.87624971
0.89119944
0.91197912
0.93719928
0.9573562
0.96370782
0.95189587
0.92831189
0.90881844
0.91536248
0.91889976
0.921054
0.92186701
0.92073805
0.91747138
0.91202907
0.90431907
0.89487353
0.88414494
0.87300599
0.86183706
0.85109471
0.84257683
0.83676452
0.83399683
0.83536176
0.84212044
0.85503223
0.87544615
0.90202312
0.93066099
0.95631013
0.97028979
0.9699443
0.95493904
0.95805497
0.96284966
0.9635127
0.9610537
0.95517762
0.94721688
0.93711286
0.92492551
0.9109149
0.89621771
0.88110673
0.86633542
0.8539389
0.84312599
0.83478182
0.82899155
0.82700482
0.82683079
0.83252056
0.84422852
0.86198383
0.88547336
0.91127906
0.93570719
0.95561682
0.96497843
0.96388135
0.9801111
0.9811901
0.98036036
0.97532561
0.96756399
0.95732005
0.94452371
0.92964438
0.91405955
0.89852366
0.88389826
0.87155812
0.86134401
0.85407115
0.8487187
0.84506939
0.84306305
0.84226071
0.84376384
0.84864482
0.85674187
0.86958593
0.88635529
0.90898894
0.92860424
0.9437539
0.95227505
0.97114967
0.96881902
0.96697473
0.96185529
0.9553521
0.94698156
0.93724724
0.92680088
0.91531539
0.90445544
0.89550518
0.88732444
0.88205904
0.87920713
0.87777696
0.87725133
0.8764849
0.87445836
0.87116585
0.86633373
0.86288264
0.86204564
0.86749037
0.88129226
0.89851238
0.9139243
0.92620056
0.93715835
0.9352567
0.93348784
0.93024308
0.9261146
0.92179053
0.91761739
0.91393733
0.91105165
0.90852397
0.90686315
0.9069384
0.90878446
0.9114635
0.91429201
0.91749056
0.91803029
0.9155949
0.90672138
0.89371612
0.87914512
0.8664386
0.86071538
0.86315998
0.87265169
0.8839963
0.89529432
0.89254348
0.89291472
0.89272763
0.89294982
0.89316986
0.89450293
0.8956368
0.89808345
0.90188286
0.90620761
0.91232412
0.92037009
0.92998625
0.94000195
0.94948058
0.95691706
0.95922505
0.95586883
0.94362853
0.92455066
0.90172149
0.88061322
0.86639476
0.85859954
0.85729278
0.86022753
0.86689987
0.85932016
0.86302407
0.86290264
0.86508596
0.86764291
0.87133097
0.87607105
0.88188789
0.88911672
0.89903177
0.91085454
0.92475621
0.94070052
0.95605117
0.97138901
0.98339336
0.98860807
0.98490314
0.97273234
0.95228286
0.92731713
0.90316129
0.88191585
0.86617122
0.85450602
0.84709172
0.8458691
0.84533749
0.85269715
0.85146928
0.85359544
0.85643329
0.85976383
0.8645326
0.8713139
0.8802989
0.89136902
0.9052991
0.92102066
0.93921971
0.95836928
0.97670982
0.99155286
0.99944754
0.99882704
0.98965374
0.97216791
0.94964221
0.92685171
0.90330463
0.88269991
0.86387077
0.84766281
0.83682173
0.8477268
0.85835164
0.85653423
0.8576903
0.85941108
0.86131575
0.86450795
0.86956467
0.87693863
0.88627088
0.89852382
0.91282413
0.92974288
0.94866757
0.96721804
0.98357752
0.9944633
0.99810071
0.99377247
0.98216024
0.965835
0.9466383
0.92640054
0.904606
0.88147681
0.85903976
0.84012733
0.86145036
0.8749794
0.87202301
0.87209088
0.87265326
0.8732305
0.87421863
0.87629179
0.87958227
0.88462814
0.89193691
0.90260113
0.91700935
0.93273403
0.94940113
0.96551237
0.97889178
0.9864932
0.98797061
0.98323991
0.97345641
0.95970535
0.94514894
0.92712679
0.90383071
0.87817743
0.85450201
0.88392373
0.89682305
0.89381408
0.89259404
0.89170383
0.8903293
0.88862888
0.88712084
0.88636573
0.88687009
0.88956716
0.8962265
0.9050945
0.91616057
0.93027521
0.94614321
0.95958762
0.96988281
0.97537436
0.97645855
0.97240825
0.96575389
0.95736667
0.94550907
0.92661844
0.90192208
0.87588767
0.90878567
0.92127711
0.91689499
0.91404384
0.91123271
0.9076462
0.90367752
0.89961183
0.8956092
0.89262208
0.89121452
0.8928134
0.89735527
0.90500227
0.91620562
0.92888748
0.94210425
0.95293498
0.96118126
0.96501823
0.96560062
0.96452383
0.96153426
0.95648806
0.94551339
0.92523095
0.90047943
0.93008223
0.94110402
0.93640673
0.93260612
0.92865154
0.92386036
0.91797589
0.91173967
0.90563499
0.90021044
0.89612042
0.89429426
0.89517074
0.89878904
0.90603822
0.91603781
0.92682175
0.93761816
0.94576389
0.95190787
0.95478043
0.95745321
0.95990783
0.96142681
0.95795434
0.9457739
0.92435668
0.94888234
0.95747111
0.95268838
0.94800523
0.9431567
0.93683292
0.92967879
0.92175126
0.91423983
0.90704896
0.901416
0.89751647
0.89628301
0.89748397
0.90186006
0.90819314
0.91630202
0.92437325
0.93172357
0.93754574
0.94264662
0.94757214
0.95388379
0.96063747
0.96438022
0.96041098
0.9454426
0.96161761
0.96786181
0.96387573
0.95896447
0.95345
0.94663976
0.93895106
0.93048871
0.92230556
0.91456081
0.90835902
0.90361455
0.9010552
0.89996867
0.90150433
0.90457503
0.90900955
0.91455545
0.91983175
0.92485884
0.92980512
0.93602083
0.94593214
0.95702446
0.96702872
0.97071181
0.9631723
0.97124598
0.97494482
0.97157992
0.96673812
0.96115633
0.95400477
0.94589336
0.93762219
0.92974218
0.92198819
0.91519056
0.91005087
0.90622639
0.90461577
0.90397569
0.90412621
0.90541595
0.90749296
0.91009205
0.91359298
0.91775753
0.9250639
0.93675482
0.95134541
0.96641188
0.97697379
0.97683344
0.97772987
0.97959502
0.97722125
0.97302606
0.96790939
0.96122292
0.95326359
0.94500833
0.93696763
0.92923969
0.92273872
0.91754722
0.91339055
0.91009275
0.90773201
0.90570054
0.9040621
0.90298426
0.9029432
0.90411149
0.90796866
0.9152907
0.92867699
0.94627772
0.9650303
0.98077846
0.98697905
0.98290765
0.98348564
0.98177327
0.97790334
0.9728823
0.96646495
0.95892344
0.95095663
0.94335051
0.93584228
0.92956322
0.92454743
0.92036951
0.91678183
0.91332911
0.90949554
0.90582125
0.90172797
0.8986574
0.89786605
0.90052389
0.90803214
0.92196996
0.94189842
0.96378981
0.98349989
0.99471954
0.98662197
0.98618073
0.98530089
0.98199662
0.97738327
0.97104617
0.9637829
0.9561207
0.94879096
0.94166281
0.93588087
0.93097774
0.92679854
0.92290898
0.91864154
0.91379552
0.90846139
0.90257992
0.89751579
0.89486158
0.89621105
0.90353949
0.91812337
0.93950457
0.96336328
0.98589425
1.0005023
0.98735573
0.98659604
0.98615433
0.98354411
0.9795108
0.97361651
0.96661962
0.95932661
0.9521626
0.94537087
0.9400473
0.93580227
0.93205313
0.92836647
0.9242299
0.91882539
0.9122437
0.905493
0.89908462
0.89518037
0.89557771
0.90290733
0.91749422
0.93930953
0.96455948
0.98881335
1.005686
0.98482879
0.98433977
0.98426335
0.98229168
0.97876522
0.97349679
0.96717077
0.96053493
0.95408217
0.94784099
0.94313543
0.93963012
0.93639196
0.93328164
0.92934617
0.92399512
0.91723585
0.90990742
0.90256313
0.89774316
0.89753176
0.90414964
0.91897433
0.94103875
0.96693426
0.99179746
1.0096248
0.98165422
0.98167009
0.9819185
0.98037353
0.97736345
0.97259719
0.96671956
0.96068211