/*--------------------------------*- C++ -*----------------------------------*\
| =========                 |                                                 |
| \\      /  F ield         | OpenFOAM: The Open Source CFD Toolbox           |
|  \\    /   O peration     | Version:  2406                                  |
|   \\  /    A nd           | Website:  www.openfoam.com                      |
|    \\/     M anipulation  |                                                 |
\*---------------------------------------------------------------------------*/
FoamFile
{
    version     2.0;
    format      ascii;
    arch        "LSB;label=32;scalar=64";
    class       volScalarField;
    location    "4";
    object      T;
}
// * * * * * * * * * * * * * * * * * * * * * * * * * * * * * * * * * * * * * //

dimensions      [0 0 0 1 0 0 0];

internalField   nonuniform List<scalar> 
62344
(
1.0004676
1.0004203
1.0008607
1.0004533
0.99927323
0.99979122
0.99891108
0.999301
0.9991381
0.99926694
0.99805032
0.99852555
0.99847854
0.99663814
0.99779297
0.99917187
0.99997034
0.99683701
0.99658857
0.99981354
0.99812126
0.99736382
0.9966914
0.99287273
0.9947916
0.99115092
0.98957752
0.99288304
0.98613737
0.97966028
0.98449414
0.9891049
0.98689204
0.98166719
0.98099892
0.98312641
0.98401062
0.98213466
0.97890663
0.97678617
0.97755856
0.9806961
0.98326912
0.98278185
0.97752527
0.96985768
0.96182127
0.95557751
0.95236148
0.95387401
0.95948123
0.96801473
0.97527984
0.97721721
0.97165551
1.0004084
1.0004075
1.0008253
1.0004029
0.99946534
0.99954116
0.99884729
0.99946571
0.99919143
0.99930167
0.99778462
0.99859171
0.99841224
0.99656292
0.99697035
0.99793258
1.0002055
0.99750948
0.99601754
0.99899829
0.99740882
0.99757931
0.99785076
0.99536966
0.99511967
0.99019681
0.99063282
0.99430247
0.98698012
0.97999929
0.98458272
0.9908793
0.98798707
0.98182741
0.98062305
0.98419668
0.98513664
0.98166727
0.9773705
0.97707483
0.980863
0.98506666
0.98569967
0.98035822
0.97295793
0.96697794
0.96356266
0.96145497
0.96011936
0.96052887
0.96268904
0.96604933
0.97029619
0.97335734
0.97132275
1.0003096
1.000442
1.0009757
1.0005923
1.0002237
0.99983457
0.99959742
1.0001296
0.99984453
0.99988883
0.99838028
0.99904746
0.99835133
0.99754042
0.99702009
0.99658426
0.9990867
0.99805654
0.99616911
0.99814078
0.99624399
0.99706786
0.99806758
0.99699414
0.9946118
0.98862366
0.99093643
0.99497916
0.98835017
0.98170473
0.98565708
0.991403
0.98843935
0.98112432
0.98053344
0.98486438
0.98596703
0.98145101
0.97673434
0.97760018
0.98296994
0.98746959
0.98558132
0.97747597
0.96856222
0.96381088
0.96491303
0.96848319
0.97056443
0.97024781
0.96807183
0.96502838
0.96314803
0.96320031
0.96349886
1.0002352
1.0004919
1.001173
1.0009128
1.0009313
1.0002664
1.0005932
1.0010599
1.0007389
1.0004807
0.99973604
0.99976999
0.99868272
0.99862435
0.99826705
0.99653968
0.99782169
0.99821615
0.99706694
0.99817496
0.99594301
0.99676003
0.99761798
0.99780673
0.99415416
0.98834929
0.99169597
0.99544551
0.98925562
0.98394735
0.98780254
0.99196647
0.98784927
0.98040762
0.97995191
0.9853749
0.98752654
0.98262781
0.97709461
0.97788272
0.98394779
0.98876831
0.98620505
0.97630286
0.96603895
0.96130167
0.96435761
0.97101951
0.97745635
0.97964355
0.97578867
0.96777105
0.95967318
0.95454151
0.95313359
1.0001884
1.0005197
1.0012982
1.001243
1.001399
1.0005461
1.0012726
1.0016495
1.0013723
1.0007357
1.0009015
1.0001471
0.99910786
0.99932616
0.99953363
0.99751727
0.99688408
0.99775147
0.99766472
0.99862625
0.99622425
0.99657361
0.99617771
0.99717944
0.99365369
0.9890112
0.99315239
0.99537163
0.98912397
0.98577311
0.98909615
0.99163589
0.98725119
0.97981993
0.97953565
0.98554913
0.98865362
0.98399119
0.97811174
0.9781215
0.98376166
0.98845533
0.98637196
0.97675899
0.96682604
0.96207334
0.96461666
0.97126313
0.97928148
0.98405012
0.98092986
0.97226774
0.96127274
0.95209978
0.94709959
1.0001903
1.0005361
1.0013202
1.0014242
1.0014916
1.0005436
1.0014384
1.0016466
1.0014374
1.0006449
1.0014461
1.0001569
0.9994903
0.99947346
1.0000824
0.99871323
0.99708854
0.99726437
0.9977388
0.99914739
0.9969426
0.99681291
0.99489114
0.99638934
0.99337608
0.99033176
0.9950591
0.99526431
0.98849499
0.98652261
0.99017788
0.99133767
0.98674256
0.98013745
0.97978782
0.98540801
0.98890004
0.98547148
0.979644
0.978942
0.98306649
0.98683061
0.98555523
0.97866359
0.97064853
0.96620184
0.96743665
0.97266565
0.97930095
0.98371493
0.98310185
0.97617326
0.96591456
0.95512977
0.94737598
1.0002343
1.0005689
1.0012131
1.0014046
1.0011815
1.0002068
1.001098
1.0011152
1.0010252
1.0003479
1.0012783
0.99981193
0.99960771
0.99924553
0.9999001
0.99920701
0.99789686
0.9968318
0.99736943
0.99915132
0.99756304
0.99704849
0.99437426
0.9958813
0.99310362
0.99182933
0.99667928
0.99475025
0.98765449
0.98682927
0.99078093
0.99087852
0.98638537
0.98116307
0.98089666
0.9852998
0.98821492
0.98633172
0.98191963
0.98051667
0.98284758
0.9843692
0.98350255
0.97995308
0.97549686
0.97287876
0.97340577
0.97629239
0.97927374
0.9813884
0.98094934
0.9771016
0.96995298
0.9609778
0.95289046
1.0002863
1.0005614
1.0010256
1.0012016
1.0007285
0.99977922
1.0005511
1.0003889
1.0004309
0.99994357
1.0006223
0.99926979
0.99940694
0.99894496
0.99923799
0.9991286
0.99864623
0.99676839
0.99693229
0.9988168
0.99769007
0.9973506
0.99461329
0.99609905
0.99317673
0.99294306
0.99773928
0.99436314
0.98675794
0.98720327
0.99127541
0.9901943
0.98594461
0.9827644
0.98284151
0.98538902
0.98690878
0.98615067
0.98417974
0.98335009
0.98378518
0.98283672
0.98068823
0.97920855
0.97880323
0.97911312
0.97998854
0.98118963
0.98145584
0.97972319
0.97719238
0.97416287
0.97065035
0.96576217
0.9602485
1.0003148
1.0005423
1.0008885
1.0009978
1.0002779
0.99944976
1.0000468
0.99975356
0.99990023
0.99962978
0.99979906
0.9987555
0.99899875
0.99874743
0.99846307
0.99850872
0.999013
0.99714517
0.9967572
0.99822468
0.99731203
0.99752684
0.99530795
0.99672334
0.99345244
0.99355797
0.99834153
0.99395952
0.98627842
0.98764651
0.99153309
0.9897663
0.98556754
0.98430926
0.9854032
0.98604963
0.98551273
0.9848722
0.98563498
0.98644086
0.98575656
0.98259907
0.97819689
0.97653881
0.97910188
0.98251734
0.98522492
0.98600518
0.98347161
0.97863973
0.97315913
0.96929241
0.96771065
0.96697239
0.96539025
1.0003074
1.0005265
1.0008288
1.0009279
1.0000317
0.99934882
0.99977805
0.99937348
0.99961524
0.9995005
0.99908313
0.99850441
0.99863386
0.99854395
0.9979274
0.99776558
0.9990114
0.99761686
0.99704141
0.9976199
0.99671598
0.99750026
0.99613801
0.9974567
0.99370376
0.99392017
0.99830103
0.99348493
0.98610427
0.98818399
0.99208639
0.98938988
0.98480224
0.98563096
0.98799776
0.98753497
0.98418882
0.98238943
0.9856328
0.98897995
0.98865583
0.98349774
0.97680576
0.97370588
0.97715214
0.98278084
0.98779001
0.9892878
0.98560416
0.97875749
0.97088953
0.9651886
0.96316849
0.9641778
0.96613588
1.0002697
1.0005207
1.0008513
1.0009333
0.99996013
0.99949031
0.99974249
0.99929013
0.99956249
0.99960126
0.99853446
0.99847449
0.99848252
0.99843525
0.99771611
0.99723734
0.99868957
0.99796889
0.99757205
0.99730651
0.99622982
0.99723503
0.99683336
0.99799653
0.99395655
0.99401241
0.99779628
0.99309681
0.98644097
0.98883067
0.99275341
0.98924401
0.9840784
0.98629422
0.99020811
0.98923076
0.98325322
0.97952473
0.9837244
0.98990278
0.9911257
0.98534104
0.97686193
0.97176643
0.97439225
0.98091216
0.98769777
0.99091826
0.98731701
0.97985586
0.97092416
0.96357895
0.95989941
0.95990721
0.96326665
1.0002214
1.0005541
1.0009604
1.0010632
1.0000895
0.99977631
0.99989252
0.99946517
0.99966066
0.99983563
0.99823216
0.99860278
0.99860594
0.99837597
0.99779342
0.99710281
0.99820953
0.99796967
0.99813664
0.99733029
0.99593978
0.99691551
0.99716148
0.99829506
0.9941006
0.99396744
0.99710468
0.9926061
0.98702636
0.98962003
0.99338697
0.98931421
0.98361757
0.98615751
0.99164409
0.99081679
0.98291088
0.97703175
0.98095292
0.98918403
0.99283114
0.98782137
0.97830159
0.97109426
0.97174377
0.97814176
0.98543427
0.99045077
0.98862266
0.98186849
0.97293487
0.9643451
0.95885348
0.95722021
0.95990331
1.0001811
1.000593
1.0011249
1.0012755
1.0003643
1.0001189
1.0001583
0.99978479
0.99986442
1.0001913
0.99818071
0.99887135
0.99897137
0.99829715
0.99793946
0.99743052
0.99775769
0.99779833
0.99859671
0.99757628
0.99595706
0.99664676
0.99717682
0.99834359
0.99422794
0.99406187
0.99646629
0.99207532
0.98756086
0.99054026
0.99404435
0.98962616
0.98356357
0.98562469
0.99222666
0.99221302
0.98299758
0.97556099
0.97835302
0.98694861
0.99341522
0.9897752
0.98045098
0.97231345
0.97056853
0.97562509
0.98262451
0.98845669
0.98880031
0.98337864
0.97554279
0.96705816
0.96078317
0.95776751
0.95874843
1.0001536
1.0006374
1.0012872
1.0014804
1.0006524
1.0004372
1.000489
1.0001335
1.0000811
1.0005563
0.99830007
0.99911015
0.99943952
0.99823946
0.99810873
0.99806757
0.99756016
0.9974408
0.99881549
0.99787941
0.99619461
0.99645893
0.99699786
0.99803111
0.99434452
0.9942835
0.99598956
0.99174021
0.98802088
0.99128274
0.99455464
0.99013435
0.98382516
0.98515625
0.99201282
0.99295172
0.98396172
0.97544254
0.9761306
0.98458882
0.99195796
0.99141673
0.98300274
0.97444446
0.97142969
0.97437594
0.98007193
0.98587215
0.98796688
0.98477112
0.97827283
0.97100084
0.964841
0.96090422
0.95985445
1.000147
1.0006788
1.0014282
1.0016276
1.0009315
1.0007062
1.0007549
1.0004522
1.0002905
1.0008115
0.99852072
0.99933215
0.99993225
0.99820154
0.99820937
0.99870816
0.99759756
0.99708179
0.99876464
0.99813709
0.99658747
0.9964296
0.99677925
0.99752887
0.99444498
0.99464129
0.99571952
0.99160093
0.98855946
0.99170584
0.9947201
0.99071785
0.98447282
0.98493416
0.99150538
0.99301816
0.98530308
0.97621083
0.97553127
0.98242343
0.9900516
0.9920925
0.9850296
0.97720504
0.97327792
0.9749419
0.97917408
0.98367027
0.98641107
0.98529084
0.9810317
0.97522028
0.96967976
0.96587254
0.96385094
1.000163
1.0007126
1.001527
1.0017223
1.0011461
1.0008949
1.0009225
1.0007006
1.0004595
1.0009485
0.99877626
0.99945554
1.0003066
0.99822166
0.99825368
0.99926953
0.99776532
0.99678633
0.99856025
0.99834516
0.9969315
0.99653789
0.99664535
0.99698578
0.99454095
0.99504636
0.99567606
0.99160885
0.98906417
0.9919285
0.9946887
0.99124736
0.98549862
0.98501207
0.99059799
0.99257521
0.98612435
0.97814041
0.97633666
0.98190602
0.9876329
0.99051509
0.98687423
0.98040574
0.97679545
0.97670103
0.97953713
0.9827508
0.98474786
0.98486528
0.98279143
0.97884458
0.97463541
0.97132611
0.96901698
1.0001947
1.0007378
1.0015818
1.0017632
1.0012602
1.0010043
1.0009723
1.0008275
1.0005914
1.0009343
0.99902896
0.99948566
1.0004764
0.99829167
0.99826009
0.99963058
0.99801127
0.99663755
0.99831525
0.99844795
0.99720334
0.99674822
0.99664851
0.9964879
0.99457719
0.99542538
0.9957248
0.99178774
0.98954606
0.99207492
0.99426807
0.99150882
0.98655972
0.98538272
0.98964923
0.99143513
0.98702186
0.98029579
0.97863433
0.98206418
0.98610171
0.98865436
0.98715459
0.98324413
0.98021862
0.97972559
0.98111686
0.98295927
0.98376889
0.98392525
0.98299626
0.98112865
0.9786173
0.976174
0.97408378
1.0002391
1.0007474
1.0015985
1.0017322
1.0012696
1.0010265
1.0009189
1.000835
1.0006585
1.000797
0.99925141
0.99941503
1.000454
0.99837667
0.99823534
0.99973989
0.99826718
0.99665627
0.9980811
0.99844527
0.99737876
0.9969655
0.99672834
0.9960904
0.99462758
0.9957582
0.99569636
0.99203901
0.9900352
0.99208867
0.99371267
0.99149883
0.98761681
0.98617461
0.98875196
0.98993646
0.987224
0.9826508
0.98135116
0.98331159
0.98511006
0.98631832
0.98601465
0.98507123
0.98347814
0.98289803
0.98339282
0.98380919
0.98332168
0.98284681
0.98217441
0.98170264
0.98082732
0.97963348
0.97820623
1.000292
1.0007393
1.0015765
1.0016306
1.0011974
1.0009493
1.0007764
1.0007567
1.0006688
1.0005235
0.99943163
0.99936236
1.0002111
0.99846935
0.99821427
0.99957362
0.99851809
0.99682347
0.99787533
0.99831217
0.99744533
0.99720112
0.9969049
0.99573067
0.99464195
0.99602324
0.99572981
0.99231239
0.99053087
0.99216497
0.9929272
0.99127236
0.98850426
0.98717332
0.98815329
0.98819699
0.98660761
0.98453584
0.98390613
0.98482576
0.98472788
0.98389411
0.98369826
0.9853065
0.98603954
0.98593401
0.98593004
0.98511719
0.9832896
0.98153195
0.98074373
0.98084962
0.98127463
0.98136815
0.98079693
1.0003445
1.0007224
1.0015224
1.0014767
1.0010554
1.0007809
1.0005545
1.0005998
1.0006229
1.0001738
0.99957855
0.99930237
0.99978969
0.99855065
0.99816846
0.99923354
0.99868616
0.99708108
0.9977469
0.99807365
0.99740336
0.99738441
0.99719306
0.99547495
0.99462935
0.99622858
0.99571757
0.99258455
0.99103153
0.99225016
0.99221793
0.99071083
0.98904466
0.98828434
0.98787635
0.98654523
0.98536204
0.98555278
0.98619744
0.98652455
0.98489884
0.98176592
0.98070795
0.9836688
0.98678738
0.98814892
0.98818384
0.98635727
0.98321554
0.98013666
0.97862441
0.97902892
0.98016887
0.98121288
0.9817769
1.0003909
1.0007036
1.0014582
1.0012902
1.0008646
1.0005654
1.0003052
1.0004106
1.0005325
0.99973559
0.99962479
0.99921021
0.99932306
0.99866407
0.99815092
0.99875426
0.99880511
0.99737043
0.99767633
0.99778665
0.99726749
0.99749122
0.99749274
0.99532681
0.99462052
0.99635031
0.99569435
0.99284493
0.9914908
0.99238895
0.99156967
0.98992352
0.98927458
0.98928662
0.98785836
0.98518166
0.98371398
0.98567724
0.98797681
0.98828401
0.98525997
0.98001036
0.97750495
0.98085918
0.98587591
0.98918467
0.98981236
0.98765495
0.98348128
0.97897539
0.97641676
0.97636024
0.97787457
0.97960092
0.98111183
1.0004329
1.00068
1.001396
1.0010997
1.0006671
1.0003321
1.0000502
1.0002234
1.0004229
0.99927867
0.99960336
0.99911685
0.99881848
0.99872118
0.99820441
0.99827335
0.99881687
0.99764233
0.99764329
0.99750639
0.99706402
0.99750022
0.99782695
0.99525507
0.99468558
0.99641786
0.99570698
0.99302087
0.9919507
0.99255461
0.9909663
0.98901608
0.98925322
0.9901713
0.98805291
0.98415438
0.98194886
0.98496193
0.98902559
0.99002751
0.98605161
0.97880803
0.97451686
0.97734321
0.98354166
0.98899471
0.99085056
0.9887498
0.98395687
0.97829967
0.97456787
0.97344508
0.97481012
0.97696677
0.97928842
1.000468
1.0006578
1.0013408
1.0009265
1.0004929
1.0001102
0.99981109
1.0000465
1.0003034
0.99888069
0.99953801
0.99903134
0.9983095
0.99870576
0.99823092
0.99780772
0.99879701
0.99792424
0.99760511
0.99726068
0.99681463
0.99744925
0.99815182
0.99524427
0.9947193
0.99648835
0.99571392
0.99315569
0.99233363
0.9927006
0.99058006
0.98818214
0.98891365
0.99072809
0.98854334
0.98341561
0.98034819
0.98368292
0.98945291
0.99145684
0.98717152
0.97847692
0.97212879
0.97369007
0.98050345
0.98755009
0.99127388
0.98970099
0.98443993
0.97812056
0.9732559
0.97095016
0.97161925
0.9739871
0.97676096
1.0004913
1.0006348
1.0012894
1.0007787
1.000347
0.99991072
0.99958761
0.99989744
1.0001824
0.99853114
0.99945413
0.99895977
0.99786473
0.99863408
0.99824246
0.99738686
0.99867875
0.99815919
0.99759253
0.99706754
0.99656175
0.99728745
0.99838284
0.99527832
0.99468617
0.99652085
0.99573417
0.99322525
0.99259876
0.99289935
0.99031187
0.98744076
0.98846616
0.991062
0.98894772
0.98302511
0.97909073
0.98234873
0.98913783
0.99262286
0.98825982
0.97856895
0.97079067
0.97025504
0.97704416
0.98518275
0.99084798
0.99064125
0.98515532
0.97832246
0.97231155
0.96896408
0.96872986
0.97063949
0.97360213
1.0005009
1.0005922
1.001216
1.000633
1.000192
0.99969934
0.99934625
0.99971171
1.0000205
0.99818773
0.99930808
0.99884098
0.99743365
0.99848003
0.9981711
0.99697984
0.99847632
0.99827754
0.99751879
0.99686939
0.99627506
0.99710095
0.99850339
0.99525702
0.99466484
0.99651187
0.99566043
0.99323238
0.99274298
0.9929936
0.99020059
0.98685169
0.98791114
0.99098163
0.98942991
0.98315979
0.977955
0.98105066
0.98812685
0.99343719
0.98943806
0.97920893
0.96998101
0.96778098
0.97382207
0.98229549
0.98974118
0.99138242
0.98614332
0.97909539
0.97207693
0.96764775
0.96664326
0.96828296
0.97078725
1.00045
1.0004908
1.0010495
1.0004769
1.0000769
0.99950822
0.99908996
0.99945808
0.9997794
0.99783199
0.99905903
0.99861163
0.99699182
0.99819444
0.99794422
0.99656971
0.99813075
0.99821735
0.99731471
0.99657911
0.9958737
0.99670062
0.99845469
0.99513275
0.99443733
0.99631275
0.99551613
0.99305516
0.99266695
0.99298726
0.99010685
0.98635615
0.98730519
0.99081048
0.99013027
0.98345848
0.97762075
0.97941568
0.98714369
0.9935461
0.99145714
0.98090856
0.97021524
0.96628083
0.97049186
0.97934701
0.98843402
0.99196405
0.98813029
0.98082294
0.9729888
0.96764567
0.96543129
0.96600846
0.96844635
1.000357
1.0004094
1.000843
1.0005294
1.0003798
0.99979014
0.9991971
0.99949779
0.99979116
0.9977702
0.99902886
0.99857453
0.99682747
0.99809147
0.99781112
0.9963295
0.99796459
0.99820168
0.99718336
0.99634121
0.99556215
0.99645612
0.99840249
0.99520239
0.99439117
0.99610212
0.99551466
0.99303888
0.99264063
0.99305092
0.99033787
0.98651959
0.98703024
0.99069231
0.99044054
0.98414917
0.97816211
0.97896594
0.98638823
0.99310155
0.99259645
0.98301503
0.97250939
0.96700938
0.96994355
0.97757224
0.9866527
0.99131706
0.98912373
0.98324325
0.97570471
0.96959647
0.96684977
0.96660121
0.96839332
0.97173264
0.97224473
0.97474129
0.97678963
0.97934242
0.9807748
0.98145626
0.98110576
0.97954627
0.97647984
0.97214463
0.96743415
0.96355668
0.96148851
0.96169365
0.96413348
0.96726993
0.96798506
0.96376504
0.95515729
0.94660683
0.94283377
0.94639717
0.9542837
0.96143814
0.96148149
0.95762459
0.9767867
0.97725337
0.97835621
0.97919613
0.98001882
0.98032889
0.98012561
0.97898099
0.97689417
0.97416584
0.97102919
0.96846908
0.96661974
0.96618211
0.96734974
0.96954297
0.97088413
0.96883921
0.96214262
0.95313111
0.94679555
0.94686588
0.95207587
0.95834797
0.95809522
0.94775746
0.93780362
0.97865979
0.97828068
0.97786145
0.97758062
0.97750519
0.9770044
0.97625309
0.9751182
0.97375487
0.97246982
0.97143735
0.97069175
0.97057159
0.97104473
0.97203727
0.9727262
0.97092588
0.96676487
0.96003982
0.95335816
0.9512253
0.95379593
0.95957066
0.96228196
0.95446973
0.93824571
0.92595896
0.97521196
0.9740183
0.97278647
0.97200779
0.97144019
0.97073866
0.97034031
0.97031857
0.97074944
0.97145438
0.97232208
0.97317498
0.97374485
0.97363393
0.9723398
0.96984822
0.96638627
0.96208955
0.95755454
0.95541141
0.95718136
0.96199425
0.96630064
0.96358682
0.95133612
0.93411189
0.92528087
0.96903019
0.96670053
0.96510102
0.96408109
0.96373442
0.96381139
0.96463016
0.96620508
0.96829999
0.97052435
0.97238239
0.97341977
0.97288401
0.97048194
0.96691014
0.96307265
0.95924684
0.95675711
0.95640529
0.95872442
0.96310712
0.967601
0.96755132
0.96032478
0.94832125
0.93556659
0.93171021
0.96074923
0.95833656
0.95736655
0.95717436
0.95793621
0.95939889
0.96149392
0.96419942
0.96693307
0.96911526
0.97014543
0.96929691
0.96625093
0.96229563
0.95771463
0.95383294
0.9521793
0.95349166
0.95756636
0.96225696
0.96640893
0.96659372
0.96188138
0.95366257
0.94560644
0.94085946
0.94225942
0.95494577
0.95344098
0.95385925
0.95474476
0.9565559
0.95887704
0.9615109
0.96403757
0.96581093
0.96620509
0.96491495
0.96146033
0.95657775
0.95129196
0.94706195
0.94532712
0.94757096
0.95283682
0.95940798
0.96439592
0.96468024
0.95949493
0.95135056
0.94459009
0.94352889
0.94713084
0.95309479
0.95466224
0.95458148
0.95616012
0.95775451
0.95970991
0.96163623
0.96331615
0.96414161
0.96380165
0.96191011
0.95845054
0.9531785
0.94755079
0.94266688
0.94051616
0.94181912
0.94703095
0.95434067
0.96045782
0.96188095
0.95727314
0.94834793
0.93944499
0.93728702
0.9436101
0.95327196
0.96170816
0.95956784
0.95983451
0.96077096
0.96227196
0.96344104
0.96412966
0.9642255
0.9631213
0.96095752
0.9575929
0.95302389
0.94803549
0.94371723
0.94168705
0.94217687
0.94565268
0.95130096
0.95675849
0.95872232
0.95547565
0.94648476
0.93588053
0.93006711
0.93398489
0.94583046
0.95870754
0.96492852
0.96456606
0.96483849
0.96455307
0.96448538
0.96408814
0.96347245
0.96208319
0.9602325
0.9574346
0.95424071
0.95110129
0.9485132
0.94761737
0.94779902
0.94961601
0.95315584
0.95687052
0.95830106
0.95569286
0.94777432
0.93648895
0.92692621
0.92529066
0.93421211
0.94927596
0.96173423
0.96160093
0.96444655
0.96360808
0.96185658
0.96056679
0.95967003
0.95815037
0.95673966
0.95532203
0.95405865
0.95326912
0.95328524
0.95406794
0.95495599
0.95694174
0.95892432
0.96084165
0.96083534
0.95842236
0.95199281
0.9419179
0.93172937
0.92632142
0.92913581
0.93885106
0.95291542
0.96040936
0.95280179
0.95591136
0.95382231
0.95185002
0.95070524
0.94983075
0.94929973
0.94946735
0.95052299
0.95224173
0.9546131
0.95728746
0.96009444
0.96265749
0.96414635
0.96471021
0.96313946
0.96004707
0.95474069
0.94754663
0.94002526
0.93506633
0.93338585
0.93790578
0.94738997
0.95573171
0.95579234
0.94246621
0.94386366
0.94120292
0.93953059
0.93922145
0.93990026
0.94142958
0.94396951
0.94748954
0.95178626
0.95625221
0.9604705
0.96366437
0.96446382
0.96357868
0.96072301
0.95638516
0.95107897
0.94642245
0.94285583
0.94135421
0.94215816
0.94513524
0.95002645
0.95603948
0.95741479
0.95040021
0.93391735
0.93466336
0.93326132
0.93321015
0.93416879
0.93657167
0.93988824
0.94374099
0.94811809
0.95283636
0.95667995
0.95914931
0.9592036
0.95725752
0.95287013
0.94734377
0.94150639
0.93755941
0.93615666
0.93861203
0.94391068
0.94993172
0.95559911
0.96066246
0.96202471
0.95781231
0.94675227
0.93049569
0.93569637
0.93603598
0.93790515
0.93992006
0.94218476
0.94570403
0.94917898
0.95232398
0.95448209
0.95498467
0.95359948
0.94962956
0.94388159
0.93676375
0.92946835
0.92492908
0.92388587
0.92774089
0.93530642
0.94534543
0.95503092
0.96166844
0.96373033
0.96085706
0.95437043
0.94466404
0.93411789
0.94552009
0.94625088
0.94769631
0.94992956
0.95201617
0.95414402
0.95561497
0.9559356
0.95486734
0.95201128
0.94726542
0.94074234
0.93240714
0.9237144
0.91751115
0.91484475
0.91706062
0.92407088
0.93509372
0.94653924
0.95564578
0.95891034
0.95654718
0.951173
0.9457475
0.94232474
0.94001829
0.95764689
0.95835413
0.95836219
0.95926253
0.95962166
0.95926446
0.95873646
0.9566805
0.95322535
0.94861237
0.94253134
0.93564192
0.92802122
0.92199879
0.91832514
0.91873522
0.9226091
0.92997282
0.9392752
0.94771099
0.95105937
0.94809847
0.94202515
0.9339713
0.93231515
0.93778165
0.94420482
0.96421725
0.9638147
0.96224765
0.96148622
0.96044133
0.95869387
0.95605308
0.95353009
0.94987138
0.94570872
0.94140366
0.93705405
0.93366074
0.93053996
0.93038402
0.93151518
0.93553504
0.94179046
0.94718391
0.94919555
0.94497555
0.93598256
0.92388178
0.9165222
0.91951248
0.93041167
0.94429984
0.9577096
0.95529145
0.95278905
0.95106925
0.94980458
0.94860749
0.94766001
0.94657954
0.94574768
0.94476422
0.94402793
0.94358459
0.94380582
0.94471569
0.9458165
0.94910415
0.95274522
0.95568642
0.9556827
0.9515827
0.94174757
0.92742129
0.91273378
0.90616929
0.91057768
0.92378532
0.93971297
0.93984012
0.93637059
0.93359714
0.93277952
0.93299975
0.93327397
0.93470748
0.93693405
0.94003792
0.94351142
0.94735199
0.95129191
0.95476327
0.9584523
0.96136418
0.96352516
0.96509758
0.96465864
0.96158303
0.95391967
0.94218573
0.9268598
0.91282944
0.90663166
0.91025947
0.92062931
0.9341656
0.92092462
0.91707936
0.9153659
0.91536148
0.91683486
0.91947004
0.92344559
0.92838685
0.93457972
0.94146035
0.94874137
0.95584138
0.96163299
0.96576093
0.96812751
0.96826558
0.96729304
0.96528053
0.96093598
0.95417057
0.94481253
0.93312717
0.92291413
0.91691558
0.91851258
0.92570893
0.93202322
0.91005929
0.9069361
0.90698095
0.9081988
0.91026311
0.91497583
0.92019608
0.92657129
0.93391885
0.94169992
0.94894116
0.95499597
0.95900838
0.9604469
0.95991823
0.95812271
0.95589949
0.95358342
0.95191726
0.94999085
0.94717153
0.94247097
0.93813256
0.93334769
0.93298464
0.93454827
0.93615215
0.91225599
0.91102828
0.9130062
0.91540127
0.91898413
0.92280396
0.92781462
0.93318443
0.9388529
0.9443647
0.94791264
0.94929731
0.94845258
0.94594109
0.94189067
0.9375853
0.93449278
0.93426138
0.93688735
0.94146774
0.94554361
0.94904869
0.95002985
0.94915928
0.94843823
0.94754351
0.94427443
0.92651144
0.92468299
0.92632702
0.92949568
0.93317262
0.93705034
0.94096372
0.94450329
0.94689722
0.94741937
0.94637448
0.94243669
0.93683758
0.92884599
0.92110058
0.91480194
0.91112577
0.91307745
0.91948488
0.92922372
0.94001934
0.94997878
0.95584928
0.95783819
0.95916545
0.95921622
0.95471562
0.94600768
0.94554631
0.94591834
0.94738586
0.9493635
0.9513002
0.95249571
0.95264593
0.95164092
0.94864315
0.94391462
0.93624259
0.92702939
0.91706673
0.90710206
0.89982924
0.8974496
0.89902649
0.90635909
0.91832202
0.93196682
0.94474593
0.95417529
0.95872615
0.96161949
0.96422694
0.96268874
0.96369857
0.96381101
0.96270347
0.96249794
0.96268895
0.96193491
0.96051117
0.95793542
0.95426039
0.94864236
0.94140259
0.93303786
0.92312634
0.913144
0.90449927
0.89790102
0.89450037
0.89593857
0.90131568
0.9123662
0.92555285
0.93727817
0.94539168
0.95097651
0.95432418
0.95894695
0.96251923
0.97218909
0.97253588
0.96983088
0.96875608
0.96766656
0.96582965
0.96275569
0.95927967
0.95454337
0.9486554
0.94219723
0.93455943
0.92674616
0.91887831
0.91110668
0.90542523
0.90227508
0.90360202
0.90863308
0.91492357
0.92349695
0.93088838
0.9353508
0.9378355
0.94082146
0.94766326
0.9534645
0.96626184
0.96581375
0.96108357
0.95947696
0.95843588
0.95755654
0.9570436
0.95545876
0.95355104
0.95067623
0.94627458
0.94165861
0.93568241
0.92893747
0.92275387
0.9179953
0.91543277
0.91623204
0.91988363
0.92494626
0.92851715
0.92847817
0.92767162
0.92481627
0.92542706
0.9315505
0.93902858
0.94818405
0.94554173
0.94394671
0.94336938
0.94370967
0.94488745
0.94661272
0.94851271
0.95021878
0.95136611
0.95126878
0.94974625
0.94643415
0.94243451
0.93876002
0.934753
0.93219019
0.93215587
0.93380969
0.93576129
0.93539491
0.93237176
0.92436047
0.91728457
0.91246449
0.91493656
0.92194697
0.92623905
0.92158429
0.9221301
0.92320643
0.92566303
0.92901315
0.93373172
0.9390466
0.94399593
0.94860452
0.95321005
0.9552078
0.95604239
0.95558573
0.9534997
0.95027524
0.9482005
0.94712002
0.94736221
0.947195
0.94462088
0.93745742
0.92695886
0.91490638
0.90474291
0.90180682
0.90655793
0.90938621
0.90219669
0.90437287
0.90618275
0.90985246
0.91494175
0.92139656
0.92877095
0.93673088
0.94427234
0.95097657
0.95735831
0.9608863
0.96299562
0.9624326
0.96060382
0.95925217
0.95833462
0.957936
0.95721791
0.95367843
0.94520087
0.93272734
0.91716145
0.90255702
0.8948183
0.89574471
0.90099221
0.89157695
0.89528434
0.89765347
0.90149815
0.90726441
0.91432359
0.92214489
0.93061323
0.93966349
0.94781645
0.95491645
0.96028235
0.9641572
0.96488154
0.96439029
0.96367723
0.96358311
0.96366919
0.96369832
0.96118864
0.95302956
0.94015164
0.92314858
0.90769408
0.89551749
0.89120104
0.90093919
0.88976965
0.89470421
0.89773658
0.90154354
0.90635442
0.91302709
0.92044347
0.92822084
0.93660285
0.94413751
0.95078308
0.95568888
0.95826299
0.9598961
0.96024699
0.9605613
0.96148843
0.96367363
0.96594399
0.96542366
0.95933177
0.94785996
0.93107769
0.91405264
0.90085062
0.89403653
0.90614534
0.89473217
0.89969681
0.90303342
0.90676893
0.91216795
0.91769601
0.92343003
0.92966758
0.93580073
0.94168211
0.94604755
0.94942548
0.95105338
0.95131866
0.95142251
0.95233368
0.95485891
0.95876541
0.96347213
0.9661261
0.96358179
0.95451933
0.93972969
0.92351028
0.90924954
0.90088273
0.91425624
0.90376281
0.90780244
0.91114811
0.91462306
0.91896826
0.9239042
0.92886247
0.93349639
0.93804768
0.94119148
0.9426915
0.94348533
0.94335169
0.94175562
0.9415146
0.94221235
0.94554981
0.95147114
0.95805213
0.96359084
0.96517646
0.95946112
0.94770247
0.93335009
0.91999799
0.91056815
0.92302231
0.91328113
0.91698882
0.92010088
0.92321163
0.92705182
0.93114003
0.93522162
0.93889298
0.94137875
0.94266474
0.94146511
0.93964472
0.93688351
0.93370311
0.93171136
0.93272216
0.93610721
0.94252019
0.95088907
0.95891719
0.96277178
0.96163262
0.95380797
0.94237074
0.93107508
0.92165238
0.93092293
0.92243624
0.92571587
0.92874875
0.93158466
0.93478903
0.93841059
0.94161579
0.94372208
0.94450708
0.94422039
0.94175404
0.93792206
0.9329999
0.92840213
0.92516049
0.92429763
0.9275937
0.9339543
0.94298454
0.95258367
0.95976625
0.96146627
0.95743011
0.94945395
0.94044023
0.93226976
0.93825437
0.93153032
0.93399769
0.93657524
0.9387511
0.94157065
0.94427011
0.94656073
0.94763023
0.94774297
0.94604544
0.94273463
0.93751405
0.93150912
0.92547524
0.92099655
0.91914147
0.92141545
0.92697738
0.93589167
0.94607661
0.95476876
0.95919294
0.95859515
0.95409877
0.9477605
0.94168944
0.94375507
0.93884454
0.94040994
0.94269484
0.94457921
0.94675318
0.94882761
0.95079419
0.95159627
0.95120713
0.94861993
0.94434808
0.93834024
0.9314833
0.92435296
0.91894351
0.91582802
0.91655731
0.92162204
0.92997925
0.94028635
0.95041932
0.95666796
0.95858594
0.95674677
0.95293743
0.94921796
0.94835875
0.94521913
0.94578437
0.94744764
0.94889613
0.95089664
0.95293291
0.95433618
0.95462142
0.95391558
0.95115387
0.94614937
0.93984188
0.93226007
0.92462141
0.91826709
0.91434229
0.91368906
0.91770568
0.92547545
0.93586445
0.94620299
0.95370374
0.95724426
0.95762987
0.95629042
0.95494587
0.95175212
0.95015174
0.95006822
0.95128487
0.95246152
0.95421864
0.95623838
0.95753421
0.95774309
0.95677424
0.95381644
0.94869777
0.94209842
0.93429913
0.92611051
0.9192633
0.91470176
0.91301621
0.91593107
0.92293856
0.93270791
0.94291879
0.95086093
0.95548179
0.95738248
0.95817131
0.95876544
0.95378811
0.95316213
0.95269902
0.95373557
0.95496203
0.95666135
0.95859598
0.95994156
0.96003728
0.95915232
0.9562236
0.95111462
0.94442203
0.93658968
0.92849082
0.92144556
0.91643379
0.91440072
0.91621896
0.9219658
0.93090288
0.94048765
0.94859165
0.95369932
0.95660874
0.95871341
0.96090858
0.95546609
0.95560464
0.95465177
0.95534157
0.95642198
0.95825714
0.96018544
0.96168426
0.96211823
0.96153745
0.95869448
0.95383081
0.94710249
0.93929774
0.9313136
0.9241494
0.9187417
0.91639644
0.91779682
0.92297227
0.93074812
0.93949117
0.94718475
0.95202976
0.95576636
0.9587158
0.96226846
0.95586192
0.9562911
0.95529019
0.95574771
0.95681698
0.95887799
0.96117263
0.96291932
0.96365082
0.96321352
0.96052582
0.95575907
0.9493421
0.94178323
0.93379234
0.92673385
0.92156159
0.91890917
0.91996287
0.92468045
0.93188059
0.94006838
0.9465288
0.95113102
0.95479426
0.95868272
0.96326678
0.95548393
0.95567212
0.95487392
0.95525965
0.95649189
0.95870386
0.96123909
0.9633289
0.9643824
0.96435061
0.96194369
0.95733946
0.95120373
0.94367709
0.93598859
0.92920523