/*--------------------------------*- C++ -*----------------------------------*\
| =========                 |                                                 |
| \\      /  F ield         | OpenFOAM: The Open Source CFD Toolbox           |
|  \\    /   O peration     | Version:  2406                                  |
|   \\  /    A nd           | Website:  www.openfoam.com                      |
|    \\/     M anipulation  |                                                 |
\*---------------------------------------------------------------------------*/
FoamFile
{
    version     2.0;
    format      ascii;
    arch        "LSB;label=32;scalar=64";
    class       volScalarField;
    location    "4";
    object      T;
}
// * * * * * * * * * * * * * * * * * * * * * * * * * * * * * * * * * * * * * //

dimensions      [0 0 0 1 0 0 0];

internalField   nonuniform List<scalar> 
96472
(
0.99980961
1.0001543
1.0010561
1.0014781
1.0012542
1.0010608
1.0010787
1.0011581
1.0012376
1.001223
1.0009641
1.0004108
0.99975118
0.99925851
0.99910428
0.99926913
0.99967472
1.0000631
1.0001422
0.99969628
0.99855249
0.99690981
0.99510515
0.99332953
0.9917007
0.99034369
0.98932292
0.98859716
0.98813617
0.98791265
0.98788578
0.98800974
0.98819514
0.98842696
0.98865193
0.98874059
0.98868064
0.98840063
0.98780105
0.98692405
0.98568085
0.98429811
0.98272653
0.98121654
0.97961665
0.97814791
0.97672103
0.97548986
0.97423289
0.97327843
0.97223128
0.9714397
0.97046883
0.96991878
0.96924153
0.99980244
1.0001442
1.0010518
1.0014783
1.001269
1.0010747
1.0010859
1.0011762
1.0012526
1.0012508
1.0010031
1.0004512
0.99980093
0.99928057
0.99910663
0.99926625
0.99966116
1.000092
1.0002405
0.99984311
0.99877158
0.99718209
0.99537154
0.99359448
0.99196475
0.99056862
0.98950393
0.98874269
0.98823539
0.98796831
0.98790918
0.98798393
0.98815678
0.98836163
0.98854813
0.98864203
0.98861084
0.98839103
0.98789577
0.98705579
0.98596851
0.98460176
0.98311568
0.98154994
0.979959
0.97845411
0.9770306
0.97567322
0.97455724
0.97344198
0.97241766
0.97149727
0.9707962
0.97006122
0.96933342
0.99979692
1.0001424
1.0010581
1.0014975
1.001289
1.0010846
1.0011046
1.0011879
1.0012768
1.0012661
1.0010351
1.0004784
0.99982119
0.99930215
0.99909708
0.99924682
0.99962873
1.0000675
1.0002908
0.99997118
0.99895626
0.99742324
0.99563304
0.99384554
0.99221152
0.99080135
0.98970639
0.9889172
0.98838005
0.98809402
0.98800787
0.98806055
0.98822758
0.98843271
0.98864041
0.98874464
0.98871537
0.988546
0.98809895
0.9874097
0.98635332
0.98511023
0.98363639
0.9820727
0.98052989
0.97902408
0.9774884
0.97622186
0.97486599
0.9736877
0.97280592
0.9718404
0.97100273
0.97014395
0.96946203
0.99979069
1.000134
1.0010455
1.0014919
1.0012975
1.0010989
1.0011172
1.0011906
1.0012794
1.0012813
1.001067
1.0005285
0.99984728
0.999315
0.99909882
0.99923344
0.99962334
1.0000557
1.0003145
1.0000898
0.99914464
0.99765239
0.99589036
0.99410182
0.99244369
0.99101225
0.98989322
0.98907395
0.98851826
0.98820281
0.98809445
0.98815747
0.98831121
0.98851634
0.98870949
0.98884702
0.98885961
0.98872098
0.98837595
0.98770853
0.98679238
0.98560846
0.98422495
0.98279504
0.9812132
0.9796298
0.97821301
0.97673771
0.97546083
0.97442847
0.97324922
0.97216252
0.97132943
0.97056862
0.96980711
0.99978493
1.0001317
1.001052
1.0015143
1.001321
1.0011229
1.0011297
1.0012137
1.0012955
1.0013146
1.0010922
1.0005639
0.9998893
0.99932308
0.99910622
0.99921675
0.99961671
1.0000656
1.0003346
1.000177
0.99932427
0.99788122
0.99614364
0.9943646
0.99268795
0.99122948
0.99007709
0.98922414
0.98864033
0.98829853
0.98817068
0.98819936
0.98835904
0.98858409
0.98880736
0.98897626
0.98899901
0.98892323
0.98861849
0.98807634
0.98721616
0.98614249
0.98481597
0.98333245
0.98180499
0.9803539
0.9788685
0.97741649
0.97622613
0.97479877
0.97370185
0.97281029
0.97189492
0.97108099
0.97017753
0.9997774
1.0001245
1.0010408
1.0015038
1.0013229
1.0011271
1.0011361
1.0012208
1.0013007
1.0013252
1.0011311
1.0005992
0.99992423
0.99933813
0.9990927
0.99919388
0.99958193
1.0000685
1.0003736
1.0002529
0.99948129
0.99809965
0.99639128
0.99462279
0.99294319
0.99145931
0.99027165
0.98938602
0.98876972
0.98839092
0.98823838
0.98825046
0.98838021
0.9885848
0.98880936
0.98901076
0.9891089
0.98904377
0.98882607
0.9883472
0.98759194
0.98654071
0.9853128
0.98393396
0.98249278
0.98094472
0.97942466
0.97804789
0.97663724
0.97546649
0.97444297
0.97334498
0.97231123
0.97140067
0.9706579
0.99976843
1.0001179
1.0010377
1.0015292
1.0013583
1.0011518
1.0011631
1.001232
1.001326
1.0013342
1.0011583
1.0006389
0.99995857
0.99936777
0.99909185
0.99918184
0.99954826
1.0000521
1.0004173
1.0003446
0.99963203
0.99830841
0.99663314
0.99487681
0.99319622
0.99169511
0.99047693
0.98955904
0.98890667
0.98849192
0.9883
0.98828649
0.98841672
0.98863057
0.98885457
0.98906384
0.98917349
0.9891823
0.98902847
0.98863917
0.98797873
0.98704993
0.98590526
0.98452663
0.98304972
0.98150804
0.98010367
0.97861781
0.9773305
0.97602376
0.97482812
0.97360576
0.97278335
0.97199655
0.97110486
0.99975848
1.0001143
1.0010296
1.0015128
1.0013461
1.0011498
1.0011563
1.0012297
1.0013199
1.0013518
1.0011811
1.0006843
1.0000059
0.9994004
0.99910193
0.99917272
0.99953914
1.0000271
1.0004324
1.0004329
0.99978722
0.99851634
0.99687342
0.99512345
0.9934435
0.99193558
0.99068778
0.98974156
0.98905566
0.98859781
0.98837036
0.98832319
0.98842017
0.98862531
0.98886785
0.98909175
0.98924808
0.98926066
0.98913744
0.98883611
0.98825287
0.98742905
0.98631534
0.9850458
0.98366697
0.98222659
0.9807339
0.97925107
0.97787349
0.97651276
0.97536743
0.97437799
0.97335234
0.97234028
0.97141245
0.99974785
1.0001035
1.0010179
1.0015253
1.0013783
1.0011821
1.0011779
1.0012499
1.0013366
1.0013775
1.0012059
1.0007097
1.0000371
0.99942483
0.99911089
0.999156
0.99951937
1.0000137
1.0004306
1.0004957
0.9999364
0.9987223
0.99711105
0.99537213
0.99368465
0.99216684
0.99089557
0.98992424
0.989213
0.98872134
0.98844939
0.98837253
0.98845672
0.98864157
0.98887538
0.9891002
0.9892962
0.98936725
0.98930516
0.989045
0.98858046
0.98780242
0.98683931
0.98564723
0.98429246
0.98281064
0.98133608
0.97991078
0.9784899
0.97726383
0.9760333
0.97475662
0.97371126
0.97273296
0.97195286
0.99973731
1.0001034
1.0010254
1.0015193
1.0013678
1.0011684
1.0011754
1.0012433
1.0013372
1.0013782
1.0012382
1.0007518
1.0000688
0.99944617
0.99910985
0.9991404
0.9994885
1.000011
1.0004449
1.0005481
1.0000693
0.99892228
0.99735064
0.99561716
0.99392904
0.99240082
0.99110711
0.99010929
0.98937061
0.98885606
0.98854908
0.98843227
0.98847984
0.98863885
0.9888818
0.98910152
0.98929187
0.98939506
0.98937078
0.98919135
0.98877017
0.98813295
0.98723329
0.98607809
0.98480009
0.98341677
0.98202968
0.98054652
0.97926054
0.97777041
0.97653592
0.97535159
0.97439721
0.97342538
0.97247361
0.99972856
1.0000921
1.0010094
1.0015287
1.0013989
1.0012002
1.0012005
1.0012554
1.0013455
1.0013904
1.0012588
1.0007924
1.0001136
0.99947248
0.99912219
0.99913816
0.99946078
0.99999035
1.0004649
1.0006052
1.0001942
0.99911519
0.99758801
0.99587044
0.99417548
0.99262816
0.99130877
0.99028589
0.9895289
0.98898484
0.98865297
0.98850582
0.98852211
0.98866505
0.98887327
0.98909715
0.98932838
0.98946492
0.98948001
0.98933652
0.98902105
0.98845438
0.98761316
0.98658884
0.98540089
0.98405305
0.98263157
0.98121305
0.97973243
0.97843389
0.97723106
0.97606969
0.97492543
0.97386954
0.97276492
0.99972142
1.0000927
1.0010191
1.0015309
1.0013899
1.0011953
1.0011904
1.0012603
1.0013423
1.0014032
1.0012829
1.0008272
1.0001598
0.99950429
0.99913315
0.99913125
0.99944183
0.99995396
1.00046
1.0006561
1.0003138
0.99930256
0.99781901
0.99612299
0.99442953
0.99287238
0.99152581
0.99046601
0.98968311
0.98911641
0.9887531
0.98857716
0.9885651
0.98867801
0.98887396
0.98910322
0.98929414
0.9894726
0.9895134
0.98942886
0.98916625
0.98867068
0.98797424
0.9870245
0.98586078
0.98457431
0.98319774
0.9818366
0.98046397
0.97917472
0.97781468
0.97656551
0.9754075
0.97444948
0.9735035
0.99971535
1.0000814
1.0010001
1.0015228
1.001408
1.0012191
1.0012088
1.001268
1.0013531
1.0014099
1.001305
1.0008598
1.0001904
0.99953582
0.99913897
0.9991186
0.99942432
0.99992948
1.0004443
1.0006926
1.0004193
0.99948195
0.99804766
0.99637501
0.99468033
0.99310954
0.99174544
0.9906486
0.98983505
0.98924847
0.98885331
0.98865065
0.98861296
0.98870373
0.9888829
0.98909503
0.98930925
0.98949736
0.98957417
0.98952572
0.98931435
0.98892626
0.98828036
0.98739929
0.98636136
0.98514998
0.98388897
0.98244073
0.98109904
0.9796993
0.97838027
0.97724098
0.97617078
0.97505763
0.97406611
0.99970854
1.0000801
1.0010076
1.0015352
1.0014135
1.0012181
1.0012131
1.0012682
1.0013599
1.0014111
1.0013196
1.000902
1.0002301
0.99956792
0.99915512
0.99910926
0.99940192
0.99991726
1.0004406
1.0007237
1.0005106
0.9996544
0.99827361
0.99662455
0.99493836
0.99336188
0.99197718
0.99084633
0.98999417
0.98937689
0.98895447
0.98871857
0.98865634
0.98872233
0.98887126
0.9890746
0.98929705
0.98948988
0.98960231
0.98959065
0.98944451
0.98910132
0.98854609
0.9877912
0.9868296
0.98566859
0.9843858
0.98309314
0.98174968
0.98039128
0.97919059
0.9778863
0.97668358
0.97558484
0.97449301
0.9997016
1.0000707
1.0009899
1.0015199
1.0014142
1.0012287
1.001216
1.0012662
1.0013506
1.0014287
1.001335
1.0009298
1.0002741
0.9995956
0.99917451
0.99910178
0.99936678
0.99988656
1.000437
1.0007537
1.0005954
0.9998152
0.99849357
0.99687418
0.99519141
0.99360417
0.9922051
0.99104916
0.99017042
0.98952072
0.98905783
0.98878397
0.98869193
0.98872918
0.98887133
0.98907295
0.98928612
0.98947449
0.98961919
0.98964213
0.98952291
0.98924276
0.98877957
0.98810916
0.98718773
0.98617179
0.98496834
0.98367665
0.98240883
0.98103546
0.97974574
0.97850693
0.97728885
0.97631529
0.97518783
0.99969445
1.0000673
1.0009908
1.0015346
1.0014284
1.0012414
1.0012226
1.0012791
1.0013561
1.0014378
1.0013603
1.0009577
1.0003082
0.99962448
0.99918521
0.99910219
0.99934074
0.99984605
1.0004185
1.0007747
1.0006753
0.99996781
0.99870434
0.99712012
0.99545038
0.9938596
0.99244202
0.99124934
0.99033803
0.98966773
0.98917599
0.98886772
0.98873192
0.98873212
0.98885102
0.98903943
0.98926223
0.98947408
0.98964609
0.98969449
0.98962809
0.98941795
0.98901128
0.98839149
0.9876041
0.98659006
0.98550505
0.98429416
0.9829394
0.98171141
0.98039809
0.9791846
0.97799063
0.97691721
0.97579302
0.99968749
1.0000602
1.0009789
1.0015132
1.0014176
1.0012349
1.001219
1.0012696
1.0013516
1.001429
1.0013787
1.0009918
1.0003462
0.99966655
0.9991977
0.99909737
0.99932465
0.99981312
1.0003902
1.0007857
1.0007428
1.0001102
0.9989073
0.99736401
0.99570466
0.99410647
0.9926749
0.99146636
0.99051938
0.98981209
0.98930112
0.98896094
0.98878752
0.98876625
0.98884353
0.98900342
0.989206
0.98941888
0.98959912
0.98970126
0.98967893
0.98951541
0.98917408
0.98864769
0.98793779
0.98703781
0.98596372
0.98480011
0.98358288
0.98231419
0.98112077
0.97978229
0.97869691
0.97752003
0.97634509
0.99968094
1.0000552
1.0009756
1.0015274
1.0014384
1.0012531
1.0012344
1.0012792
1.0013564
1.0014322
1.0013854
1.0010237
1.0003866
0.99970352
0.99922787
0.9990973
0.99931136
0.99979219
1.0003647
1.000789
1.0007984
1.0002435
0.99910367
0.99759971
0.99596249
0.99436348
0.99291301
0.99167352
0.99070223
0.98997048
0.98942425
0.98905348
0.9888553
0.9887955
0.98884861
0.98898093
0.98917506
0.98936969
0.98956226
0.98969463
0.98970625
0.98959857
0.98933191
0.98891679
0.98824193
0.98745397
0.98649057
0.98533256
0.98426113
0.98294545
0.98169254
0.98046878
0.97934233
0.97817504
0.97702915
0.99967519
1.0000519
1.0009715
1.0015161
1.0014253
1.0012468
1.0012218
1.0012714
1.0013448
1.001441
1.0013983
1.0010503
1.0004229
0.99973476
0.99925008
0.99908959
0.999279
0.9997591
1.0003388
1.0007935
1.0008484
1.0003645
0.99929092
0.99782909
0.99620678
0.99460922
0.99315349
0.99189679
0.99088155
0.99012894
0.98956051
0.98916082
0.98892259
0.98883427
0.98885791
0.98896785
0.98912785
0.98932472
0.98950535
0.98964427
0.98968352
0.98962254
0.98942894
0.98904783
0.98852014
0.98775758
0.98683705
0.98590844
0.9846964
0.98356301
0.98232526
0.98122915
0.97994717
0.97877917
0.97779256
0.99967014
1.000048
1.0009626
1.0015181
1.001442
1.0012652
1.0012373
1.001283
1.0013543
1.0014418
1.0014089
1.0010754
1.000456
0.99976146
0.99926138
0.99908802
0.9992485
0.99971832
1.0003062
1.0007892
1.0008925
1.0004746
0.99946581
0.9980515
0.99645341
0.99486007
0.99338749
0.9921111
0.99108037
0.99028269
0.98969611
0.98926578
0.98900352
0.9888819
0.988877
0.98895348
0.98910212
0.9892903
0.98946976
0.98961812
0.98969499
0.9896773
0.9895214
0.98920166
0.98873372
0.9881096
0.98729472
0.98637576
0.98524359
0.98416075
0.98302109
0.98176176
0.9806341
0.97949377
0.97842326
0.99966464
1.0000446
1.0009623
1.0015172
1.0014381
1.0012556
1.0012298
1.0012726
1.0013462
1.001435
1.001415
1.0011
1.0004946
0.99980377
0.99928684
0.99909395
0.99923469
0.99967587
1.0002638
1.0007751
1.0009235
1.0005742
0.99962998
0.99826609
0.99669652
0.99510756
0.99362873
0.99233025
0.99126774
0.99044921
0.98983546
0.98937564
0.98907823
0.98893638
0.98889858
0.98895346
0.98908087
0.9892438
0.98940952
0.98956538
0.98967157
0.98965326
0.98953879
0.98932947
0.98890008
0.98833734
0.98764009
0.98666835
0.98577378
0.98472104
0.98360043
0.98236418
0.98130575
0.98029662
0.9789232
0.9996607
1.0000431
1.0009528
1.0015106
1.0014452
1.0012691
1.0012378
1.0012793
1.0013419
1.0014406
1.0014276
1.0011184
1.0005271
0.99983814
0.99931075
0.99908858
0.99921348
0.99964205
1.0002179
1.0007471
1.0009471
1.0006627
0.99978667
0.99847327
0.99693255
0.99535153
0.99386188
0.9925525
0.99145686
0.99061167
0.98997627
0.9894912
0.98917633
0.98899906
0.98893343
0.98896506
0.98906535
0.98921316
0.98938272
0.98953551
0.98963706
0.98967535
0.98960631
0.9893932
0.98908692
0.98858517
0.98791226
0.98713513
0.98625096
0.98520853
0.98404444
0.98310929
0.98189472
0.98085145
0.97956212
0.99965555
1.0000396
1.0009519
1.0015183
1.0014496
1.0012693
1.0012357
1.0012759
1.0013381
1.0014361
1.0014367
1.0011452
1.0005599
0.99987145
0.99933763
0.99909127
0.99919576
0.99960841
1.0001758
1.0007244
1.0009626
1.0007393
0.99992834
0.99867258
0.99716274
0.99559102
0.99409804
0.9927676
0.99165524
0.99077025
0.99010928
0.98961063
0.98925763
0.98905238
0.98896489
0.98897327
0.98905276
0.98918781
0.98934005
0.98949229
0.98961538
0.98966687
0.98963559
0.98947633
0.98919341
0.9887904
0.98819578
0.98751718
0.98662326
0.98566642
0.98468233
0.983661
0.98251823
0.98137824
0.98039244
0.99965105
1.0000352
1.0009438
1.0015073
1.0014512
1.0012737
1.0012396
1.0012766
1.0013423
1.0014293
1.0014381
1.0011699
1.0005949
0.99990469
0.9993557
0.99909914
0.9991722
0.99957291
1.0001281
1.00069
1.0009739
1.0008033
1.0000605
0.99886024
0.99738473
0.99582472
0.99432984
0.99298452
0.99184576
0.99093545
0.99025068
0.98971842
0.98934926
0.98911596
0.98899924
0.98898304
0.98904407
0.98915823
0.98930552
0.9894512
0.9895935
0.98966623
0.98964177
0.98956219
0.98934083
0.98896613
0.98848437
0.98782019
0.98703558
0.98615699
0.98527456
0.98412604
0.98314187
0.98204174
0.98106159
0.99964511
1.0000332
1.0009384
1.0015092
1.0014547
1.001273
1.0012374
1.0012731
1.001334
1.0014262
1.0014372
1.001183
1.0006293
0.99993725
0.99937886
0.99909805
0.99915023
0.99951978
1.0000771
1.00065
1.0009632
1.0008541
1.000172
0.99903798
0.99760155
0.99606025
0.99456238
0.99319927
0.99203374
0.99108499
0.99038006
0.98983357
0.98942594
0.98917078
0.98903362
0.98899318
0.98903096
0.98913007
0.98926161
0.98941497
0.98953684
0.98964701
0.98967546
0.98960105
0.98942049
0.98913727
0.98869786
0.98812645
0.98744525
0.98664418
0.98567981
0.98472641
0.98371206
0.98275485
0.98157753
0.99963926
1.0000294
1.0009177
1.0014863
1.0014332
1.0012459
1.0012027
1.0012402
1.0012954
1.0013929
1.001415
1.0011693
1.0006275
0.99994234
0.99937269
0.99907712
0.9991022
0.9994502
0.99999021
1.000574
1.0009297
1.0008742
1.0002611
0.99918049
0.99778681
0.99626737
0.99476703
0.99339321
0.99221493
0.99122503
0.9904884
0.98991483
0.98949295
0.98920979
0.98904612
0.9889876
0.98899838
0.98908447
0.98921176
0.98934884
0.98949162
0.98960808
0.9896612
0.98962931
0.98950695
0.98927419
0.98890184
0.98840288
0.98777867
0.98702227
0.98619182
0.98528309
0.98430068
0.98337714
0.98218351
0.9996614
0.99999427
1.0007586
1.0013595
1.0013403
1.0011472
1.0011207
1.0011541
1.0012031
1.0012884
1.0013463
1.0011221
1.0005857
0.99990749
0.99932875
0.99902546
0.99903032
0.9993341
0.9999474
1.0004524
1.0008286
1.0008955
1.0003176
0.99930694
0.99793381
0.99646524
0.99496822
0.99357493
0.99239068
0.9913616
0.99061461
0.99003636
0.98956338
0.98925484
0.98907078
0.9889916
0.98898618
0.98904415
0.98915009
0.98929312
0.98943329
0.98957052
0.98965282
0.98966933
0.98958753
0.9893952
0.9890909
0.98866784
0.9880996
0.98744259
0.98667941
0.98582699
0.98494302
0.9839369
0.98296422
0.98155016
0.98089985
0.98023128
0.97954619
0.97899253
0.97840804
0.97775208
0.97706955
0.97644017
0.97589587
0.97529512
0.97462246
0.97414069
0.97358227
0.97296298
0.97256761
0.97205517
0.97152628
0.97114479
0.97075156
0.97035999
0.97004248
0.96958989
0.96925071
0.96890231
0.96872359
0.96865669
0.98010535
0.97939004
0.97881374
0.97820202
0.97756322
0.97699174
0.97641725
0.97585266
0.97524079
0.97464983
0.97413314
0.97358393
0.97302753
0.97258956
0.97208509
0.97160564
0.97121036
0.97074539
0.97038353
0.96999704
0.96970636
0.96936894
0.96909319
0.96865856
0.96841784
0.96811284
0.96807074
0.97863907
0.97795529
0.97735627
0.97681562
0.9762229
0.97568204
0.97513946
0.9745681
0.97406767
0.97350833
0.97300694
0.97255949
0.97200457
0.97163379
0.97118697
0.97074561
0.97040284
0.96997862
0.96963748
0.96929509
0.96903689
0.96873333
0.96848288
0.96818333
0.96784081
0.96760705
0.96747994
0.97714039
0.97651596
0.97594116
0.97541637
0.9749154
0.97437958
0.97387503
0.97341628
0.97287061
0.97242807
0.97193779
0.97154331
0.97110566
0.97064121
0.97036917
0.96992352
0.96956867
0.96928504
0.96888302
0.96866133
0.96832182
0.96817017
0.96785005
0.9676675
0.96733439
0.96709483
0.96695036
0.97568076
0.975128
0.97455786
0.97404222
0.9736743
0.9731206
0.97267408
0.97228144
0.97174613
0.97142962
0.97093673
0.97052633
0.9702848
0.96974742
0.96949618
0.96919848
0.96879498
0.96856139
0.96822768
0.96797534
0.96772227
0.96753131
0.96731136
0.96709283
0.96687009
0.96659903
0.9664589
0.9743007
0.97377368
0.97322077
0.9727893
0.97243065
0.97193644
0.97159118
0.97117414
0.97072054
0.97044448
0.97004052
0.96962621
0.96938156
0.96902541
0.96867906
0.96841296
0.96818434
0.96779513
0.96764722
0.96731275
0.96715583
0.96693351
0.96676658
0.96658184
0.96637515
0.96616216
0.96600344
0.97295079
0.97244658
0.97200932
0.97158073
0.97122293
0.97088829
0.97049672
0.9701717
0.96983654
0.96940695
0.96923038
0.96885704
0.9684565
0.96834551
0.96796268
0.96766948
0.96755061
0.96716291
0.96702228
0.9667459
0.9665761
0.96639379
0.96623852
0.96607426
0.96589565
0.96570887
0.96557585
0.97169979
0.97119411
0.97084101
0.97046203
0.9701322
0.96986992
0.96949649
0.96921665
0.96899546
0.96854263
0.96835041
0.96816433
0.96770056
0.96759742
0.96736764
0.96698084
0.96695407
0.9665922
0.96643559
0.96623174
0.96602021
0.96591304
0.96572636
0.96561108
0.96544298
0.96527157
0.96518114
0.97055421
0.97006238
0.96979085
0.96938089
0.96915635
0.96897483
0.96852366
0.96835155
0.96820056
0.96773359
0.9676073
0.96742478
0.96703802
0.96695619
0.96668952
0.96647844
0.96630809
0.96608298
0.96592151
0.96569218
0.96557831
0.96538858
0.96531238
0.96511371
0.96506206
0.96482965
0.96478887
0.96954976
0.96907809
0.96875112
0.9684648
0.968275
0.96804567
0.96776591
0.96755034
0.96736356
0.96711056
0.96687235
0.96673739
0.96650094
0.96626921
0.96617111
0.96592689
0.9657533
0.96562573
0.96539705
0.96528826
0.96508204
0.96499641
0.96486241
0.96474749
0.96464545
0.96447784
0.96439419
0.96860409
0.96813819
0.96788373
0.96760491
0.96743926
0.9672828
0.96699556
0.96683277
0.96669812
0.96641923
0.96627545
0.96614517
0.96589778
0.96576953
0.96562483
0.96543061
0.96530793
0.96511855
0.9649964
0.96484577
0.96468109
0.96459947
0.96445437
0.96441132
0.96425268
0.96414309
0.96404043
0.96772108
0.96734502
0.96704824
0.96684318
0.96674176
0.9665293
0.96633314
0.96623294
0.96601668
0.9658613
0.96574645
0.96553582
0.96544737
0.9652781
0.96509762
0.96504731
0.96483267
0.96472205
0.96460558
0.96442807
0.96437519
0.96417411
0.9641634
0.96402118
0.96397351
0.96378251
0.96375753
0.96702118
0.96654104
0.96635402
0.96622754
0.9660363
0.9658995
0.96579009
0.96560931
0.96547997
0.9653733
0.96519126
0.96509686
0.96497705
0.96480284
0.96472844
0.96460329
0.96443423
0.96438971
0.9641863
0.96412614
0.96400835
0.96384759
0.96385554
0.96365776
0.96371073
0.9634403
0.96348415
0.96634868
0.96595274
0.96575881
0.96556438
0.96546459
0.96542008
0.96521616
0.96507639
0.96505652
0.96486076
0.96474597
0.964697
0.96450591
0.96446401
0.96433202
0.96418165
0.96415555
0.96399985
0.96387575
0.96383627
0.96365738
0.96360886
0.96351841
0.96338498
0.96342488
0.96317103
0.96321455
0.96579942
0.96537949
0.96516133
0.96510021
0.96498967
0.96483282
0.96478975
0.96470447
0.96453406
0.96445023
0.96441155
0.96426003
0.96414215
0.96412419
0.96396998
0.96387478
0.96382771
0.96366036
0.96364241
0.96350264
0.96336427
0.96336608
0.96320525
0.96314732
0.96312798
0.96292097
0.96294882
0.96532255
0.96486174
0.9646937
0.96464222
0.96451325
0.96442905
0.96440047
0.96423624
0.964166
0.96415422
0.96398458
0.96389421
0.96388943
0.96375804
0.96363623
0.9636358
0.96352269
0.96338558
0.9633803
0.9632217
0.96316806
0.96309962
0.96293676
0.96294365
0.96289008
0.96270017
0.96270178
0.96485321
0.96449483
0.96430964
0.96415732
0.96411195
0.96411101
0.96399822
0.96387903
0.96385927
0.96378678
0.96367961
0.96364876
0.96355666
0.9634269
0.9634412
0.96337071
0.96318958
0.96319815
0.96314008
0.96295346
0.96294698
0.96286067
0.96273517
0.9627118
0.96263786
0.96252655
0.96249558
0.96452375
0.96411842
0.96390054
0.96384577
0.9638232
0.96370628
0.96363468
0.96364817
0.96357245
0.96342528
0.96341482
0.96341949
0.96328037
0.96319347
0.96320808
0.96309511
0.96301862
0.96301521
0.96286997
0.96277049
0.96280669
0.96263428
0.96252907
0.96252984
0.96249094
0.96234096
0.96228784
0.96427823
0.96375243
0.96359383
0.96358165
0.96348911
0.96342772
0.96338622
0.96337623
0.96325905
0.96320415
0.96324202
0.96310554
0.96303398
0.9630629
0.96299363
0.96283492
0.96284133
0.96285126
0.96267397
0.96261414
0.96260597
0.96247547
0.96238439
0.96236706
0.96228444
0.96219264
0.96216263
0.96402104
0.96353048
0.96336367
0.96328922
0.96319092
0.96320415
0.96321333
0.96308134
0.96302386
0.96305044
0.96299603
0.96292056
0.96284952
0.96289522
0.96276303
0.96270141
0.96271596
0.96262544
0.96254053
0.96250897
0.96248893
0.96229763
0.9622847
0.96224871
0.9621722
0.96205346
0.96203596
0.96384608
0.96334514
0.96315426
0.96303253
0.9629815
0.96304819
0.96294903
0.96289442
0.96289144
0.96286115
0.96282716
0.96271514
0.9627753
0.96271428
0.96259472
0.9625888
0.96256177
0.96252195
0.96238071
0.96241469
0.96234059
0.96223732
0.9621487
0.96213304
0.96205822
0.96199133
0.96191622
0.96379574
0.96314842
0.96290942
0.96287245
0.96288395
0.96284074
0.96273682
0.962753
0.96277664
0.96272015
0.96263928
0.96262119
0.96267463
0.96256824
0.96250629
0.96248289
0.96250161
0.96240051
0.96232289
0.96232555
0.96227851
0.96216142
0.96209008
0.96205699
0.96198892
0.96191589
0.961847
0.96375462
0.96305415
0.96274425
0.96277292
0.96273778
0.96263846
0.96268872
0.96262757
0.96267044
0.96258139
0.96252827
0.96262744
0.96249831
0.96251229
0.96240581
0.962465
0.96241256
0.96229057
0.9623142
0.96225945
0.9622471
0.96204679
0.96208501
0.96199742
0.96196981
0.96183777
0.96178723
0.96375341
0.96298654
0.96265518
0.96266152
0.96261614
0.96255639
0.96263201
0.96253787
0.96256707
0.96252883
0.96248754
0.96258563
0.96241204
0.96248158
0.96240019
0.96242941
0.96240185
0.96224503
0.96234499
0.96219958
0.96226871
0.96204349
0.96208814
0.96195457
0.96195019
0.96186399
0.96178534
0.96380757
0.9629693
0.96260609
0.96262525
0.96251491
0.96252966
0.96260809
0.96249051
0.96258583
0.96243668
0.96250702
0.96255355
0.96240201
0.96251574
0.96230427
0.9625039
0.96232609
0.96234763
0.96226821
0.96221546
0.96227381
0.96205583
0.96211882
0.96191344
0.96198786
0.96186052
0.96181156
0.96391611
0.96299609
0.9626108
0.96259359
0.9624831
0.96255187
0.96259885
0.96248392
0.96258481
0.96243109
0.96256748
0.96254886
0.96241648
0.96254815
0.96233417
0.96259437
0.9622996
0.96241896
0.96227971
0.96231847
0.96230383
0.96208346
0.96218146
0.96196662
0.96207321
0.96186525
0.96185853
0.96411802
0.96305487
0.96263632
0.96260243
0.96252627
0.96264321
0.96257625
0.96254128
0.96261315
0.96250557
0.96266811
0.96250157
0.96253894
0.962552
0.96248508
0.96260605
0.96232352
0.96252535
0.96231739
0.9624727
0.96224453
0.96221762
0.9621901
0.96213265
0.96210365
0.96194901
0.96191538
0.96434025
0.96318225
0.96273026
0.96268836
0.96260421
0.96271083
0.96262915
0.96264497
0.96271817
0.96258928
0.96275762
0.96256116
0.96268376
0.96263425
0.96260593
0.96268109
0.96244713
0.96265068
0.96238056
0.96261487
0.96232337
0.96243521
0.96223124
0.96226059
0.96216584
0.96214612
0.96206225
0.9646415
0.9633627
0.96288099
0.96278907
0.96274635
0.9628508
0.96275112
0.96279422
0.96277491
0.96275754
0.96288569
0.96272972
0.96281964
0.96267184
0.96278076
0.96279449
0.96269018
0.9627059
0.96249042
0.9627001
0.96253344
0.96263213
0.96235325
0.96235728
0.96228527
0.96234976
0.96224898
0.96500423
0.96360694
0.96302411
0.96293474
0.96293539
0.96305979
0.96291409
0.96294834
0.96288677
0.96296523
0.96307305
0.96292526
0.96297738
0.96277566
0.96302067
0.96292139
0.96296927
0.96280367
0.96270926
0.96283538
0.96274266
0.96282481
0.96254783
0.96257381
0.96245279
0.9625287
0.96241771
0.9654361
0.96390636
0.96324069
0.96312237
0.9632249
0.96323505
0.96317666
0.96313117
0.96309047
0.96325459
0.96320086
0.96324905
0.9630806
0.96311303
0.96316942
0.96312584
0.96319528
0.96294924
0.96306825
0.96292453
0.96305017
0.96289416
0.96288399
0.9627708
0.96273746
0.96268176
0.9626222
0.96585782
0.96429093
0.96353305
0.96342274
0.96347168
0.96343566
0.96347637
0.96337626
0.96343907
0.96347455
0.96344092
0.96351423
0.96334081
0.96348471
0.9633354
0.96342763
0.96335991
0.9632983
0.96336021
0.9631745
0.96329487
0.96309876
0.96322767
0.96305325
0.96304067
0.96288901
0.96285979
0.96637808
0.96471703
0.96392323
0.9637659
0.96373533
0.96376823
0.9637518
0.96377968
0.9637346
0.96375059
0.96376838
0.96376022
0.96377607
0.96373891
0.96363489
0.96369846
0.96366075
0.96369074
0.96366393
0.96347231
0.96353386
0.96341512
0.96356928
0.9634293
0.9633448
0.96317345
0.96312097
0.96695315
0.96519129
0.96431856
0.96410006
0.96411562
0.96414933
0.96416586
0.96414718
0.96403766
0.96410589
0.96409401
0.96420774
0.96416578
0.96408812
0.96396344
0.96401373
0.96406811
0.9640858
0.96407023
0.9638217
0.96387409
0.96376153
0.96394688
0.96380405
0.96372974
0.96351879
0.9634636
0.96766149
0.96574865
0.9647184
0.96449674
0.96453344
0.96461842
0.96463762
0.96453084
0.96444369
0.96447065
0.96454618
0.96463344
0.96458655
0.96448397
0.9643495
0.96442498
0.96447849
0.96451282
0.96444395
0.96424203
0.96423901
0.96420637
0.96432393
0.964233
0.96412033
0.96393291
0.96385742
0.9685255
0.96633017
0.96524497
0.96501796
0.96506966
0.96514759
0.96509301
0.96496938
0.96488988
0.96495916
0.96506197
0.96512585
0.96505662
0.96490629
0.96484529
0.96485181
0.96499794
0.96494872
0.96493038
0.9646934
0.96470704
0.96466707
0.96476092
0.96468786
0.96455796
0.96439905
0.96429282
0.96934211
0.96702064
0.96583144
0.9655767
0.96565295
0.96570278
0.96562854
0.96550789
0.9654205
0.96550414
0.96556799
0.965642
0.96554693
0.96542687
0.96537564
0.96535608
0.96549147
0.96541931
0.96542888
0.96519399
0.96523027
0.96515013
0.96525013
0.96516618
0.96504727
0.96490796
0.96477894
0.97009545
0.96778773
0.9665407
0.96620428
0.96622089
0.96625275
0.9662245
0.96615637
0.96608867
0.96612807
0.9661263
0.96617387
0.96608188
0.96603092
0.96599337
0.96598612
0.96604063
0.96595813
0.96594134
0.96575588
0.96579585
0.9657253
0.96579946
0.96571298
0.96558521
0.96543961
0.96531675
0.97094025
0.96860021
0.9672919
0.96692042
0.96688167
0.96686038
0.96682926
0.96677851
0.96674761
0.96678357
0.96677145
0.9667797
0.96669534
0.96664262
0.9666048
0.96660944
0.96662217
0.9665626
0.9665199
0.96638322
0.96637892
0.96633492
0.96634602
0.96629497
0.96616343
0.96603641
0.96591652
0.97171388
0.96946891
0.9680659
0.96764721
0.96757742
0.96753706
0.96748354
0.96745167
0.96742915
0.96745116
0.9674626
0.96743903
0.96737993
0.96730171
0.96726578
0.96726696
0.96727747
0.96722892
0.96717718
0.96705895
0.96701989
0.96697518
0.96695283
0.9669091
0.96679952
0.96668441
0.96657172
0.9723026
0.97040337
0.96889095
0.96839473
0.96830024
0.96826133
0.9682326
0.96821478
0.96818064
0.96817505
0.96816459
0.96812727
0.96808869
0.96803035
0.96799671
0.96798008
0.96795033
0.96791237
0.96782613
0.96777288
0.96769818
0.96768678
0.96762262
0.96757982
0.96745285
0.96735402
0.96723666
0.97386462
0.9714467
0.96976142
0.96920886
0.96909235
0.96906572
0.96905144
0.96901574
0.96894422
0.96892933
0.96888903
0.96887634
0.96886863
0.96881084
0.96880507
0.96870982
0.96869278
0.96860003
0.968567
0.96851026
0.96846803
0.96842593
0.96834277
0.96826842
0.96814849
0.96805013
0.96794246
0.9741784
0.97247452
0.97071752
0.97010234
0.9699639
0.9699372
0.96989268
0.96986349
0.96977125
0.96974993
0.96971821
0.96968359
0.96969925
0.9695975
0.96959767
0.96946427
0.9694744
0.96936228
0.96939045
0.96928752
0.9692853
0.96914173
0.96911466
0.96897495
0.96894593
0.96882164
0.96873164
0.97627151
0.9736013
0.97173581
0.97105439
0.97088277
0.97084404
0.97076481
0.97072967
0.97067756
0.9706144
0.97065419
0.97053842
0.97059488
0.97041066
0.97043591
0.9702789
0.97030836
0.97023887
0.97021121
0.97014831
0.9700258
0.96994892
0.96981498
0.96982699
0.96968739
0.96968784
0.96947685
0.97624959
0.97470814
0.97275392
0.97201594
0.97181735
0.97174665
0.97170815
0.97159755
0.97161227
0.97147135
0.97154894
0.97139844
0.97143614
0.97129613
0.97124527
0.97120244
0.97107479
0.97115934
0.97093107
0.97105961
0.97072885
0.97089367
0.97055668
0.97074561
0.97047478
0.97050509
0.97025454
0.97845907
0.97588399
0.97381921
0.97299676
0.97279279
0.9726653
0.97266919
0.97254873
0.97253838
0.9724605