/*--------------------------------*- C++ -*----------------------------------*\
| =========                 |                                                 |
| \\      /  F ield         | OpenFOAM: The Open Source CFD Toolbox           |
|  \\    /   O peration     | Version:  2406                                  |
|   \\  /    A nd           | Website:  www.openfoam.com                      |
|    \\/     M anipulation  |                                                 |
\*---------------------------------------------------------------------------*/
FoamFile
{
    version     2.0;
    format      ascii;
    arch        "LSB;label=32;scalar=64";
    class       volScalarField;
    location    "204";
    object      alphat;
}
// * * * * * * * * * * * * * * * * * * * * * * * * * * * * * * * * * * * * * //

dimensions      [1 -1 -1 0 0 0 0];

internalField   nonuniform List<scalar> 
158064
(
9.6629941e-07
9.5248886e-07
9.3812831e-07
9.2719734e-07
9.1796267e-07
9.0966148e-07
9.0232429e-07
8.9579173e-07
8.8992395e-07
8.8460896e-07
8.7979322e-07
8.7539139e-07
8.7136551e-07
8.6766338e-07
8.6424035e-07
8.6105864e-07
8.5808275e-07
8.5531493e-07
8.5273546e-07
8.5035056e-07
8.4813163e-07
8.4607686e-07
8.4414348e-07
8.4233878e-07
8.4064145e-07
8.3905228e-07
8.3755814e-07
8.361691e-07
8.348708e-07
8.3368207e-07
8.3259623e-07
8.3161829e-07
8.3073594e-07
8.2994765e-07
8.2923849e-07
8.2860118e-07
8.2802372e-07
8.2750165e-07
8.2702683e-07
8.2659775e-07
8.2620901e-07
8.2586202e-07
8.2555382e-07
8.2528917e-07
8.2504758e-07
8.2484842e-07
8.2463601e-07
8.2443261e-07
8.2426929e-07
8.2405227e-07
8.2388452e-07
8.2389277e-07
8.2420772e-07
8.2482979e-07
8.2557949e-07
8.2645539e-07
8.2748527e-07
8.2871874e-07
8.3022112e-07
8.3207508e-07
8.3438157e-07
8.3730174e-07
8.4128766e-07
8.4723775e-07
8.5608221e-07
8.6891248e-07
8.8688945e-07
9.1106831e-07
9.421348e-07
9.8021944e-07
1.0249033e-06
1.0753837e-06
1.1307587e-06
1.1903015e-06
1.2536389e-06
1.3208251e-06
1.3922997e-06
1.4687961e-06
1.5515524e-06
1.6428968e-06
1.7449861e-06
1.8596274e-06
1.9854211e-06
2.114724e-06
2.2359375e-06
2.3391489e-06
2.4194764e-06
2.4772549e-06
2.4934649e-06
9.6548153e-07
9.5153389e-07
9.3716323e-07
9.2628174e-07
9.170963e-07
9.0883925e-07
9.015502e-07
8.9509395e-07
8.8930754e-07
8.840887e-07
8.7936579e-07
8.7506311e-07
8.7111678e-07
8.6746873e-07
8.6407424e-07
8.609048e-07
8.5794413e-07
8.5519003e-07
8.5263335e-07
8.502651e-07
8.4806998e-07
8.460389e-07
8.441547e-07
8.4240659e-07
8.4077996e-07
8.392651e-07
8.3785219e-07
8.3653927e-07
8.3532259e-07
8.3420572e-07
8.3318871e-07
8.322713e-07
8.3144763e-07
8.3071157e-07
8.3002774e-07
8.293884e-07
8.2879275e-07
8.2824216e-07
8.2773322e-07
8.2726439e-07
8.2683202e-07
8.264366e-07
8.2607492e-07
8.2574547e-07
8.2544477e-07
8.2517753e-07
8.2493338e-07
8.2471581e-07
8.2452117e-07
8.243701e-07
8.2428863e-07
8.2438823e-07
8.2480644e-07
8.2559199e-07
8.2639116e-07
8.2722238e-07
8.281173e-07
8.2910984e-07
8.3023553e-07
8.3153509e-07
8.3305127e-07
8.3482757e-07
8.3691802e-07
8.3947404e-07
8.4280485e-07
8.4744765e-07
8.5420466e-07
8.641372e-07
8.784944e-07
8.9854948e-07
9.2539139e-07
9.597439e-07
1.0018822e-06
1.0516571e-06
1.1086181e-06
1.1721811e-06
1.2417946e-06
1.3170369e-06
1.3976301e-06
1.4836353e-06
1.5759584e-06
1.6774708e-06
1.7928237e-06
1.9155568e-06
2.0405147e-06
2.1607344e-06
2.2698162e-06
2.3636804e-06
2.4357195e-06
9.6651762e-07
9.5274243e-07
9.3829287e-07
9.2725964e-07
9.1796744e-07
9.0962544e-07
9.0224747e-07
8.9570606e-07
8.8982381e-07
8.8449922e-07
8.7966172e-07
8.7524865e-07
8.7120318e-07
8.6747965e-07
8.6403666e-07
8.6084511e-07
8.5787529e-07
8.5511186e-07
8.5253962e-07
8.5015044e-07
8.4793009e-07
8.4586745e-07
8.4394246e-07
8.4214598e-07
8.4046699e-07
8.3890053e-07
8.3744071e-07
8.3608621e-07
8.3483247e-07
8.3367969e-07
8.3262441e-07
8.3166275e-07
8.3078804e-07
8.2999518e-07
8.2927926e-07
8.2863586e-07
8.2806009e-07
8.2754855e-07
8.2709676e-07
8.2670104e-07
8.2635731e-07
8.2606305e-07
8.2579835e-07
8.2555065e-07
8.25325e-07
8.2513577e-07
8.2496265e-07
8.2481089e-07
8.2472356e-07
8.2470636e-07
8.2475229e-07
8.248298e-07
8.2507774e-07
8.2557579e-07
8.2610208e-07
8.2666893e-07
8.2730394e-07
8.280392e-07
8.2890748e-07
8.2994187e-07
8.3117571e-07
8.3264724e-07
8.3442736e-07
8.3661377e-07
8.3927633e-07
8.4251037e-07
8.4649988e-07
8.5159294e-07
8.5836939e-07
8.6767292e-07
8.8058449e-07
8.9832535e-07
9.2211449e-07
9.5300985e-07
9.9177805e-07
1.0388226e-06
1.0941897e-06
1.1576458e-06
1.22876e-06
1.3068991e-06
1.3912751e-06
1.481717e-06
1.5798088e-06
1.6868314e-06
1.8042589e-06
1.9292333e-06
2.0522287e-06
2.1682427e-06
2.2732073e-06
9.6498011e-07
9.5125171e-07
9.3689205e-07
9.2600112e-07
9.1686019e-07
9.0863063e-07
9.0136003e-07
8.9494409e-07
8.8920286e-07
8.8402333e-07
8.7932371e-07
8.7503527e-07
8.7110007e-07
8.6746945e-07
8.6409936e-07
8.6095411e-07
8.580115e-07
8.552655e-07
8.527148e-07
8.503518e-07
8.4816029e-07
8.4612109e-07
8.4421468e-07
8.4242937e-07
8.4075818e-07
8.3919825e-07
8.3774752e-07
8.3640572e-07
8.3517057e-07
8.3403957e-07
8.3300807e-07
8.3207023e-07
8.3121911e-07
8.3044892e-07
8.2975436e-07
8.2913151e-07
8.2857661e-07
8.2808592e-07
8.2765463e-07
8.2727805e-07
8.2695171e-07
8.2667245e-07
8.2643847e-07
8.2625188e-07
8.261132e-07
8.260267e-07
8.2600117e-07
8.2603657e-07
8.2613221e-07
8.2629162e-07
8.2649978e-07
8.267253e-07
8.2696439e-07
8.2724495e-07
8.275566e-07
8.2791511e-07
8.2834716e-07
8.2888145e-07
8.2954516e-07
8.3036374e-07
8.3136205e-07
8.3256582e-07
8.340016e-07
8.3568271e-07
8.3767123e-07
8.4004168e-07
8.4289211e-07
8.4636107e-07
8.5066243e-07
8.5613413e-07
8.6328667e-07
8.7283504e-07
8.856958e-07
9.0293946e-07
9.2570262e-07
9.5507283e-07
9.9196906e-07
1.0370515e-06
1.0906891e-06
1.1529539e-06
1.2235184e-06
1.3016933e-06
1.3868235e-06
1.4789232e-06
1.5787615e-06
1.6886341e-06
1.8065408e-06
1.9257004e-06
2.043425e-06
9.6493754e-07
9.5095884e-07
9.3671566e-07
9.2584202e-07
9.1673066e-07
9.0853595e-07
9.0128944e-07
8.9487557e-07
8.8912782e-07
8.8394426e-07
8.7923782e-07
8.7493796e-07
8.7099333e-07
8.6736618e-07
8.6401602e-07
8.6090738e-07
8.5800922e-07
8.5530603e-07
8.5278443e-07
8.5043211e-07
8.4823355e-07
8.4617716e-07
8.4424951e-07
8.4244354e-07
8.4075289e-07
8.3917397e-07
8.3770374e-07
8.3634096e-07
8.3508234e-07
8.3392517e-07
8.3286484e-07
8.318957e-07
8.3101174e-07
8.3020806e-07
8.2948066e-07
8.2882622e-07
8.2824101e-07
8.2772153e-07
8.2726305e-07
8.2686111e-07
8.2651135e-07
8.2621089e-07
8.2595789e-07
8.2575292e-07
8.2559819e-07
8.2549714e-07
8.2545359e-07
8.2546922e-07
8.2554095e-07
8.2566239e-07
8.2581904e-07
8.259838e-07
8.2614861e-07
8.2633364e-07
8.2654597e-07
8.2680036e-07
8.2711916e-07
8.2752548e-07
8.2804029e-07
8.2868269e-07
8.2947162e-07
8.304277e-07
8.3158956e-07
8.3302478e-07
8.347771e-07
8.3688481e-07
8.3939068e-07
8.4235277e-07
8.4586007e-07
8.5005295e-07
8.5515097e-07
8.6148518e-07
8.6952902e-07
8.79918e-07
8.9344946e-07
9.1105562e-07
9.3374671e-07
9.6252845e-07
9.9831265e-07
1.0418606e-06
1.0937084e-06
1.1540759e-06
1.2226443e-06
1.2988846e-06
1.382021e-06
1.4730568e-06
1.5718233e-06
1.6788808e-06
1.7907046e-06
9.6538199e-07
9.517676e-07
9.3754162e-07
9.2677449e-07
9.1763826e-07
9.0942595e-07
9.0215197e-07
8.9571185e-07
8.8995781e-07
8.8477955e-07
8.8006899e-07
8.7574046e-07
8.7173957e-07
8.6803639e-07
8.6460673e-07
8.6142572e-07
8.5847045e-07
8.5571986e-07
8.5315704e-07
8.507637e-07
8.4852584e-07
8.4643166e-07
8.4447117e-07
8.4263657e-07
8.4092228e-07
8.39324e-07
8.378387e-07
8.3646412e-07
8.3519744e-07
8.3403453e-07
8.3297079e-07
8.3200047e-07
8.311177e-07
8.3031713e-07
8.2959437e-07
8.2894525e-07
8.2836577e-07
8.278518e-07
8.2739857e-07
8.270014e-07
8.266564e-07
8.2636114e-07
8.2611465e-07
8.2591862e-07
8.2577546e-07
8.2568825e-07
8.2565984e-07
8.2568789e-07
8.257651e-07
8.2588134e-07
8.260187e-07
8.2614908e-07
8.2626688e-07
8.2639607e-07
8.2654097e-07
8.2671742e-07
8.2694842e-07
8.2725553e-07
8.2765656e-07
8.2816671e-07
8.2880072e-07
8.2957468e-07
8.3051183e-07
8.3164083e-07
8.3300255e-07
8.3464612e-07
8.3662786e-07
8.3901259e-07
8.4187665e-07
8.4531425e-07
8.494485e-07
8.5444688e-07
8.6054021e-07
8.6804485e-07
8.7738231e-07
8.8909462e-07
9.038477e-07
9.2241751e-07
9.4565196e-07
9.7442793e-07
1.0095949e-06
1.0519476e-06
1.1020048e-06
1.1599888e-06
1.2254003e-06
1.2980766e-06
1.3775881e-06
1.4640109e-06
1.5580836e-06
9.66759e-07
9.526819e-07
9.3824925e-07
9.2732163e-07
9.182074e-07
9.0994391e-07
9.0258606e-07
8.9605608e-07
8.9019963e-07
8.8491117e-07
8.801047e-07
8.7570751e-07
8.7166364e-07
8.679346e-07
8.6448721e-07
8.6129378e-07
8.5832776e-07
8.5557029e-07
8.5300215e-07
8.5060547e-07
8.4836388e-07
8.4626643e-07
8.4430284e-07
8.4246589e-07
8.4074993e-07
8.3915039e-07
8.3766379e-07
8.3628761e-07
8.3501849e-07
8.3385278e-07
8.3278597e-07
8.3181222e-07
8.3092571e-07
8.3012102e-07
8.2939354e-07
8.287391e-07
8.2815341e-07
8.2763246e-07
8.2717157e-07
8.267668e-07
8.2641514e-07
8.2611546e-07
8.258678e-07
8.2567433e-07
8.2553734e-07
8.2545847e-07
8.2543754e-07
8.2546928e-07
8.255422e-07
8.2564106e-07
8.2574627e-07
8.2583183e-07
8.258942e-07
8.2595747e-07
8.2602968e-07
8.2612827e-07
8.2627369e-07
8.2648235e-07
8.2676645e-07
8.2713583e-07
8.2760065e-07
8.2817319e-07
8.2887636e-07
8.2976107e-07
8.3086599e-07
8.3222873e-07
8.3388984e-07
8.3589737e-07
8.383112e-07
8.4120763e-07
8.4468362e-07
8.4886135e-07
8.5389266e-07
8.599668e-07
8.6731955e-07
8.7624567e-07
8.8711197e-07
9.0036954e-07
9.1655762e-07
9.3630302e-07
9.6029769e-07
9.8930921e-07
1.0240877e-06
1.0653554e-06
1.1134512e-06
1.1684544e-06
1.2293219e-06
1.2961394e-06
1.3695338e-06
9.6482978e-07
9.5117806e-07
9.3700642e-07
9.2622586e-07
9.1716604e-07
9.0901829e-07
9.0179709e-07
8.9538208e-07
8.8960415e-07
8.843669e-07
8.7959931e-07
8.7524062e-07
8.7123738e-07
8.6754881e-07
8.6414085e-07
8.6098319e-07
8.5805195e-07
8.5532452e-07
8.5278387e-07
8.50411e-07
8.4819253e-07
8.4611641e-07
8.4417324e-07
8.423552e-07
8.406568e-07
8.3907345e-07
8.37602e-07
8.3623978e-07
8.3498407e-07
8.3383061e-07
8.3277507e-07
8.3181187e-07
8.3093532e-07
8.3013984e-07
8.294205e-07
8.2877255e-07
8.2819153e-07
8.2767335e-07
8.2721408e-07
8.2681065e-07
8.2646156e-07
8.2616706e-07
8.2592846e-07
8.2574844e-07
8.2562899e-07
8.2557015e-07
8.2556842e-07
8.2561407e-07
8.2569112e-07
8.2578069e-07
8.2586199e-07
8.25911e-07
8.2592747e-07
8.2593966e-07
8.2595765e-07
8.2599831e-07
8.2607957e-07
8.2621444e-07
8.264111e-07
8.2667561e-07
8.2701476e-07
8.2743824e-07
8.2796387e-07
8.286228e-07
8.294501e-07
8.3048656e-07
8.3177795e-07
8.3337628e-07
8.3534114e-07
8.377423e-07
8.4066319e-07
8.4420326e-07
8.484799e-07
8.5362987e-07
8.5981106e-07
8.6720578e-07
8.7602664e-07
8.865258e-07
8.9900322e-07
9.138207e-07
9.3140137e-07
9.5225117e-07
9.7693286e-07
1.0061009e-06
1.0403619e-06
1.0802349e-06
1.1252661e-06
1.1749871e-06
1.2299376e-06
9.6677723e-07
9.5268976e-07
9.3824567e-07
9.2726896e-07
9.1803988e-07
9.0974732e-07
9.0240306e-07
8.9588612e-07
8.9002439e-07
8.8471612e-07
8.7988958e-07
8.7548083e-07
8.7143557e-07
8.6771231e-07
8.6427518e-07
8.6109406e-07
8.5814138e-07
8.553977e-07
8.5284353e-07
8.5046075e-07
8.4823332e-07
8.4614988e-07
8.4420081e-07
8.4237799e-07
8.4067586e-07
8.3908925e-07
8.3761463e-07
8.3624908e-07
8.3498952e-07
8.338322e-07
8.3277284e-07
8.3180562e-07
8.309247e-07
8.3012413e-07
8.2939858e-07
8.287431e-07
8.2815313e-07
8.2762505e-07
8.2715579e-07
8.2674385e-07
8.2638931e-07
8.2609402e-07
8.2586025e-07
8.2569069e-07
8.2558608e-07
8.2554372e-07
8.2555582e-07
8.2560798e-07
8.2568e-07
8.2575036e-07
8.2579904e-07
8.2580606e-07
8.2577545e-07
8.2573851e-07
8.2570645e-07
8.2569492e-07
8.2571864e-07
8.2578597e-07
8.2590027e-07
8.2606308e-07
8.262777e-07
8.2655115e-07
8.2690017e-07
8.2736167e-07
8.2797267e-07
8.2877043e-07
8.2979522e-07
8.3109278e-07
8.3271619e-07
8.3472849e-07
8.3720515e-07
8.4023497e-07
8.4391989e-07
8.4837387e-07
8.537212e-07
8.6009588e-07
8.6764162e-07
8.7651546e-07
8.8689183e-07
8.9897228e-07
9.1299017e-07
9.2922903e-07
9.4801558e-07
9.6975692e-07
9.9489103e-07
1.0239616e-06
1.0571904e-06
1.0939594e-06
1.1344245e-06
9.6491032e-07
9.5128336e-07
9.3712066e-07
9.2634834e-07
9.1728734e-07
9.0913993e-07
9.0191672e-07
8.9549975e-07
8.8971895e-07
8.8447672e-07
8.7970308e-07
8.7533811e-07
8.71329e-07
8.6763503e-07
8.6422246e-07
8.6106076e-07
8.581266e-07
8.5539666e-07
8.5285419e-07
8.5048001e-07
8.4826124e-07
8.4618547e-07
8.4424307e-07
8.4242598e-07
8.4072837e-07
8.3914542e-07
8.3767372e-07
8.3631049e-07
8.35053e-07
8.338971e-07
8.3283846e-07
8.3187145e-07
8.3098998e-07
8.3018784e-07
8.2945928e-07
8.2879908e-07
8.282031e-07
8.2766862e-07
8.2719416e-07
8.2677974e-07
8.264271e-07
8.2613913e-07
8.2591859e-07
8.2576725e-07
8.2568367e-07
8.2566137e-07
8.2568771e-07
8.2574345e-07
8.2580535e-07
8.2585143e-07
8.2586453e-07
8.2582984e-07
8.2575599e-07
8.2567759e-07
8.2560656e-07
8.2555658e-07
8.2553867e-07
8.2555681e-07
8.2561005e-07
8.2569631e-07
8.2581607e-07
8.2597458e-07
8.2618646e-07
8.2648051e-07
8.2689047e-07
8.2745438e-07
8.2821466e-07
8.2921911e-07
8.3052111e-07
8.321815e-07
8.3427043e-07
8.3686814e-07
8.4006482e-07
8.4395884e-07
8.4865449e-07
8.5425959e-07
8.6088383e-07
8.6863883e-07
8.7763928e-07
8.8800741e-07
8.998758e-07
9.1339999e-07
9.2875431e-07
9.4616342e-07
9.6585397e-07
9.881975e-07
1.0133748e-06
1.0416389e-06
1.0721637e-06
9.6681504e-07
9.5273525e-07
9.3831121e-07
9.2733742e-07
9.1812041e-07
9.0983589e-07
9.024989e-07
8.959876e-07
8.9013137e-07
8.8482738e-07
8.8000469e-07
8.7559905e-07
8.7155641e-07
8.6783512e-07
8.6439952e-07
8.6121939e-07
8.5826735e-07
8.555242e-07
8.5297043e-07
8.5058793e-07
8.4836105e-07
8.4627811e-07
8.4432982e-07
8.4250744e-07
8.4080544e-07
8.3921829e-07
8.3774252e-07
8.3637506e-07
8.3511302e-07
8.3395256e-07
8.328892e-07
8.3191675e-07
8.3102884e-07
8.3021882e-07
8.2948101e-07
8.2881076e-07
8.282047e-07
8.2766134e-07
8.2718044e-07
8.2676369e-07
8.2641394e-07
8.2613475e-07
8.2592828e-07
8.2579447e-07
8.2572845e-07
8.2571923e-07
8.2574936e-07
8.2579613e-07
8.2583512e-07
8.2584611e-07
8.2581664e-07
8.2573791e-07
8.2562293e-07
8.2550823e-07
8.2540513e-07
8.2532425e-07
8.2527253e-07
8.2524939e-07
8.2524953e-07
8.2526707e-07
8.2529989e-07
8.2535153e-07
8.2543581e-07
8.2558252e-07
8.2582704e-07
8.2620672e-07
8.2676221e-07
8.2753932e-07
8.2858882e-07
8.2996839e-07
8.317441e-07
8.3399049e-07
8.3678964e-07
8.4022958e-07
8.4440133e-07
8.4939641e-07
8.5530434e-07
8.6221182e-07
8.7020249e-07
8.7935917e-07
8.8976474e-07
9.0151019e-07
9.1468978e-07
9.2942937e-07
9.4583175e-07
9.6412063e-07
9.8435336e-07
1.0068389e-06
1.0313095e-06
9.6498928e-07
9.5138807e-07
9.3723781e-07
9.264761e-07
9.1742248e-07
9.0928328e-07
9.020646e-07
8.9565013e-07
8.8987139e-07
8.8463021e-07
8.7985712e-07
8.7549222e-07
8.7148283e-07
8.6778805e-07
8.6437442e-07
8.6121127e-07
8.5827592e-07
8.5554445e-07
8.5300044e-07
8.5062443e-07
8.4840414e-07
8.4632691e-07
8.4438286e-07
8.4256391e-07
8.4086396e-07
8.3927822e-07
8.3780314e-07
8.3643594e-07
8.351736e-07
8.3401181e-07
8.3294566e-07
8.3196909e-07
8.310755e-07
8.3025861e-07
8.2951301e-07
8.2883468e-07
8.2822154e-07
8.2767348e-07
8.2719193e-07
8.267794e-07
8.2643936e-07
8.2617483e-07
8.2598632e-07
8.2587057e-07
8.258184e-07
8.2581415e-07
8.2583633e-07
8.258602e-07
8.2586284e-07
8.2582834e-07
8.257507e-07
8.256271e-07
8.2547374e-07
8.2532809e-07
8.2520014e-07
8.2509728e-07
8.2502223e-07
8.2497001e-07
8.2493115e-07
8.2489653e-07
8.248617e-07
8.24829e-07
8.2481156e-07
8.2483611e-07
8.2493622e-07
8.2514979e-07
8.2551882e-07
8.2609059e-07
8.2691626e-07
8.2805266e-07
8.2956319e-07
8.3151746e-07
8.3399049e-07
8.3706096e-07
8.4080833e-07
8.4531166e-07
8.5064579e-07
8.5688092e-07
8.6408207e-07
8.7230969e-07
8.8162087e-07
8.9207432e-07
9.0372408e-07
9.1664517e-07
9.3088257e-07
9.4657361e-07
9.6371113e-07
9.8249452e-07
1.0033263e-06
9.6684543e-07
9.5277422e-07
9.3837019e-07
9.2740243e-07
9.1819363e-07
9.099175e-07
9.0258845e-07
8.9608405e-07
8.9023463e-07
8.849364e-07
8.8011891e-07
8.7571766e-07
8.7167877e-07
8.6796051e-07
8.6452733e-07
8.61349e-07
8.583983e-07
8.5565605e-07
8.5310276e-07
8.5072018e-07
8.4849308e-07
8.4640947e-07
8.4446038e-07
8.4263663e-07
8.4093285e-07
8.3934322e-07
8.3786428e-07
8.3649269e-07
8.3522521e-07
8.3405746e-07
8.3298441e-07
8.3199951e-07
8.3109644e-07
8.302692e-07
8.2951336e-07
8.2882618e-07
8.282066e-07
8.2765559e-07
8.2717542e-07
8.267693e-07
8.2644028e-07
8.2618952e-07
8.2601462e-07
8.2590814e-07
8.2585625e-07
8.2583921e-07
8.2583334e-07
8.2581488e-07
8.2576474e-07
8.2567318e-07
8.2554083e-07
8.2536992e-07
8.2517876e-07
8.2500411e-07
8.2485409e-07
8.2473264e-07
8.2463845e-07
8.2456212e-07
8.244902e-07
8.2441028e-07
8.2431599e-07
8.2420889e-07
8.2410199e-07
8.2402169e-07
8.2400231e-07
8.2408224e-07
8.243037e-07
8.2471429e-07
8.253647e-07
8.2631034e-07
8.2761205e-07
8.2933558e-07
8.3155015e-07
8.3432662e-07
8.3773572e-07
8.4184506e-07
8.4671734e-07
8.5241032e-07
8.5897583e-07
8.6646071e-07
8.7490657e-07
8.8435394e-07
8.9483752e-07
9.0640552e-07
9.1907595e-07
9.3293907e-07
9.4796313e-07
9.6427643e-07
9.8229771e-07
9.6507177e-07
9.5149494e-07
9.3735948e-07
9.2660787e-07
9.1756061e-07
9.0942691e-07
9.0221093e-07
8.9579736e-07
8.9001919e-07
8.8477777e-07
8.8000423e-07
8.7563855e-07
8.716282e-07
8.6793203e-07
8.6451688e-07
8.6135181e-07
8.5841468e-07
8.5568094e-07
8.5313448e-07
8.5075555e-07
8.4853233e-07
8.4645203e-07
8.445045e-07
8.426818e-07
8.4097752e-07
8.3938691e-07
8.3790594e-07
8.3653149e-07
8.3525976e-07
8.3408604e-07
8.330049e-07
8.3201058e-07
8.3109712e-07
8.3025971e-07
8.2949465e-07
8.2879998e-07
8.2817594e-07
8.2762452e-07
8.2714853e-07
8.2675061e-07
8.2643204e-07
8.2619106e-07
8.2602063e-07
8.2590865e-07
8.2583713e-07
8.2578385e-07
8.2572547e-07
8.2564154e-07
8.2551957e-07
8.2535705e-07
8.2516072e-07
8.2493622e-07
8.2470235e-07
8.2449497e-07
8.2432038e-07
8.2417932e-07
8.2406667e-07
8.2396883e-07
8.2386833e-07
8.2374991e-07
8.2360556e-07
8.2343671e-07
8.2325667e-07
8.2309113e-07
8.2297254e-07
8.2293995e-07
8.2303713e-07
8.2331346e-07
8.2382027e-07
8.2461274e-07
8.2575039e-07
8.2729531e-07
8.2931072e-07
8.3186067e-07
8.35007e-07
8.3880696e-07
8.4331384e-07
8.4857338e-07
8.5462603e-07
8.6150879e-07
8.6925308e-07
8.778894e-07
8.8744095e-07
8.9794108e-07
9.0939708e-07
9.2187304e-07
9.353264e-07
9.4985033e-07
9.6580345e-07
9.668714e-07
9.5281121e-07
9.3841726e-07
9.2745762e-07
9.1825738e-07
9.0999031e-07
9.0266938e-07
8.9617188e-07
8.9032898e-07
8.8503599e-07
8.8022298e-07
8.7582529e-07
8.7178915e-07
8.6807277e-07
8.6464076e-07
8.6146275e-07
8.5851175e-07
8.5576836e-07
8.5321317e-07
8.5082777e-07
8.4859752e-07
8.4651021e-07
8.4455685e-07
8.4272799e-07
8.4101819e-07
8.3942123e-07
8.3793325e-07
8.3655032e-07
8.3526863e-07
8.3408344e-07
8.3298979e-07
8.3198188e-07
8.3105466e-07
8.302039e-07
8.2942712e-07
8.2872358e-07
8.2809402e-07
8.2754046e-07
8.2706501e-07
8.2666841e-07
8.2634872e-07
8.2609983e-07
8.2591025e-07
8.2576358e-07
8.2563858e-07
8.2551364e-07
8.2536902e-07
8.251909e-07
8.2497413e-07
8.2472263e-07
8.2444707e-07
8.2415459e-07
8.2386374e-07
8.2360962e-07
8.2339749e-07
8.2322584e-07
8.2308566e-07
8.2295844e-07
8.2282345e-07
8.2266296e-07
8.224682e-07
8.2224094e-07
8.2199581e-07
8.2175865e-07
8.2156012e-07
8.2144057e-07
8.2145009e-07
8.2162526e-07
8.2202844e-07
8.2271396e-07
8.2373826e-07
8.2515952e-07
8.2703629e-07
8.2942558e-07
8.323801e-07
8.3594929e-07
8.4017449e-07
8.4509367e-07
8.5073895e-07
8.571374e-07
8.6431092e-07
8.7228373e-07
8.8107292e-07
8.9070419e-07
9.0117823e-07
9.1254543e-07
9.2476421e-07
9.3790065e-07
9.5226794e-07
9.651568e-07
9.5160377e-07
9.3748684e-07
9.2674407e-07
9.1770066e-07
9.0956966e-07
9.0235387e-07
8.9593881e-07
8.9015877e-07
8.8491478e-07
8.8013843e-07
8.7576967e-07
8.7175598e-07
8.6805593e-07
8.6463664e-07
8.6146671e-07
8.5852459e-07
8.557849e-07
8.5323191e-07
8.5084532e-07
8.4861403e-07
8.4652537e-07
8.4456872e-07
8.4273557e-07
8.4101911e-07
8.3941446e-07
8.3791676e-07
8.365225e-07
8.3522722e-07
8.3402635e-07
8.3291477e-07
8.3188796e-07
8.3094135e-07
8.3007206e-07
8.2927808e-07
8.2855883e-07
8.2791525e-07
8.2734856e-07
8.2685854e-07
8.2644229e-07
8.2609325e-07
8.2580061e-07
8.2554906e-07
8.2532014e-07
8.2509416e-07
8.2485223e-07
8.2458096e-07
8.2427379e-07
8.2393242e-07
8.2356483e-07
8.231832e-07
8.2279508e-07
8.2241937e-07
8.2209155e-07
8.218167e-07
8.215909e-07
8.2140104e-07
8.2122518e-07
8.2103911e-07
8.2082266e-07
8.2056802e-07
8.2027888e-07
8.1997144e-07
8.1967377e-07
8.1940842e-07
8.1922034e-07
8.191564e-07
8.1926745e-07
8.1961251e-07
8.2023845e-07
8.2120019e-07
8.2255311e-07
8.2435093e-07
8.2664396e-07
8.2947754e-07
8.3289138e-07
8.3691638e-07
8.4158273e-07
8.469134e-07
8.5292846e-07
8.5964479e-07
8.6707961e-07
8.7524249e-07
8.8415664e-07
8.9382278e-07
9.0428175e-07
9.1549198e-07
9.2750873e-07
9.4060251e-07
9.6689533e-07
9.5284778e-07
9.3845649e-07
9.2750633e-07
9.183143e-07
9.1005556e-07
9.0274161e-07
8.9624961e-07
8.9041124e-07
8.8512118e-07
8.8030981e-07
8.7591242e-07
8.7187524e-07
8.6815638e-07
8.6472058e-07
8.6153717e-07
8.5857954e-07
8.5582764e-07
8.5326233e-07
8.5086464e-07
8.4862059e-07
8.4651801e-07
8.4454785e-07
8.4270053e-07
8.4096901e-07
8.3934678e-07
8.3782931e-07
8.364123e-07
8.3509154e-07
8.3386259e-07
8.3272095e-07
8.3166206e-07
8.3068211e-07
8.2977832e-07
8.28949e-07
8.2819321e-07
8.2750995e-07
8.2689745e-07
8.263518e-07
8.2586592e-07
8.254294e-07
8.2502864e-07
8.2464748e-07
8.2426921e-07
8.2387849e-07
8.2346366e-07
8.2301841e-07
8.2254057e-07
8.2203471e-07
8.2150934e-07
8.2097683e-07
8.2044646e-07
8.1993953e-07
8.1949327e-07
8.1911247e-07
8.1879007e-07
8.1850861e-07
8.1824269e-07
8.1796662e-07
8.1766197e-07
8.1732253e-07
8.1695353e-07
8.165746e-07
8.1621755e-07
8.1590012e-07
8.1566761e-07
8.155664e-07
8.1565454e-07
8.1597812e-07
8.1658929e-07
8.1754218e-07
8.188855e-07
8.2066811e-07
8.2293236e-07
8.2571497e-07
8.2904651e-07
8.3295132e-07
8.3744904e-07
8.4255135e-07
8.4827433e-07
8.5462974e-07
8.6163024e-07
8.6928529e-07
8.7761193e-07
8.8660635e-07
8.9630772e-07
9.0668573e-07
9.1777342e-07
9.2981683e-07
9.6524727e-07
9.5171548e-07
9.3761741e-07
9.268818e-07
9.17839e-07
9.0970736e-07
9.024878e-07
8.9606688e-07
8.9028024e-07
8.8502849e-07
8.802436e-07
8.7586518e-07
8.7184055e-07
8.6812797e-07
8.6469459e-07
8.6150846e-07
8.5854824e-07
8.5578769e-07
8.5321132e-07
8.5079799e-07
8.4853696e-07
8.4641558e-07
8.4442249e-07
8.4255003e-07
8.4079043e-07
8.3913697e-07
8.3758371e-07
8.3612672e-07
8.3476085e-07
8.3348181e-07
8.322845e-07
8.3116501e-07
8.3011895e-07
8.2914344e-07
8.282351e-07
8.2739055e-07
8.2660632e-07
8.2587773e-07
8.2519763e-07
8.2455657e-07
8.23943e-07
8.2334424e-07
8.2274718e-07
8.2214007e-07
8.2151355e-07
8.2086166e-07
8.201818e-07
8.194742e-07
8.1874288e-07
8.1799318e-07
8.172403e-07
8.164982e-07
8.1579249e-07
8.151617e-07
8.1460895e-07
8.1412291e-07
8.1368216e-07
8.1325959e-07
8.1283055e-07
8.1238004e-07
8.1190656e-07
8.1142245e-07
8.1095142e-07
8.1052393e-07
8.1015382e-07
8.0988735e-07
8.097724e-07
8.0986179e-07
8.1020465e-07
8.1085292e-07
8.1185595e-07
8.1325806e-07
8.1509855e-07
8.1740598e-07
8.2021046e-07
8.2353312e-07
8.2738972e-07
8.3179189e-07
8.3674814e-07
8.4226629e-07
8.4835361e-07
8.5500861e-07
8.6224708e-07
8.700839e-07
8.7851994e-07
8.8757593e-07
8.9723383e-07
9.0752354e-07
9.1864148e-07
9.6692249e-07
9.5288973e-07
9.3850096e-07
9.2755638e-07
9.183682e-07
9.1011407e-07
9.0280235e-07
8.9630973e-07
8.9046813e-07
8.8517158e-07
8.8035053e-07
8.7594e-07
8.718859e-07
8.6814595e-07
8.6468483e-07
8.6147114e-07
8.5847854e-07
8.5568573e-07
8.530737e-07
8.5062234e-07
8.4831811e-07
8.4614856e-07
8.4410374e-07
8.4217401e-07
8.4035276e-07
8.386331e-07
8.3700977e-07
8.3547208e-07
8.3401655e-07
8.3263798e-07
8.3133066e-07
8.3008904e-07
8.2890766e-07
8.2778165e-07
8.2670604e-07
8.2567575e-07
8.2468521e-07
8.2372832e-07
8.2279785e-07
8.2188556e-07
8.2098264e-07
8.200803e-07
8.1917018e-07
8.1824514e-07
8.1729934e-07
8.1632819e-07
8.1532827e-07
8.1429836e-07
8.1324184e-07
8.1217018e-07
8.1110432e-07
8.1005981e-07
8.0906611e-07
8.0816116e-07
8.0734338e-07
8.065972e-07
8.0589932e-07
8.0522422e-07
8.0455212e-07
8.0387466e-07
8.0319751e-07
8.0253984e-07
8.0193056e-07
8.0140775e-07
8.009754e-07
8.0067617e-07
8.0056248e-07
8.0068458e-07
8.0109094e-07
8.0182841e-07
8.0293868e-07
8.0445732e-07
8.0641424e-07
8.0883266e-07
8.1172977e-07
8.151079e-07
8.1897801e-07
8.2334428e-07
8.2820937e-07
8.3357609e-07
8.3944559e-07
8.4582062e-07
8.5270621e-07
8.6009707e-07
8.5403841e-07
8.3275532e-07
8.197979e-07
7.8985272e-07
7.7064385e-07
9.6534652e-07
9.5183723e-07
9.37752e-07
9.2701775e-07
9.1796918e-07
9.0982729e-07
9.0259276e-07
8.9615253e-07
8.9034285e-07
8.8506345e-07
8.8024603e-07
8.7582934e-07
8.7175988e-07
8.6799497e-07
8.6450118e-07
8.6124525e-07
8.5820548e-07
8.5535394e-07
8.5267482e-07
8.5014541e-07
8.4775496e-07
8.4549041e-07
8.4333915e-07
8.4129344e-07
8.3934439e-07
8.3748671e-07
8.3571345e-07
8.3401986e-07
8.3239161e-07
8.3082203e-07
8.293027e-07
8.2782759e-07
8.263897e-07
8.2498414e-07
8.2360525e-07
8.2224799e-07
8.2090823e-07
8.1958211e-07
8.1826489e-07
8.1695163e-07
8.1563701e-07
8.1431582e-07
8.1298254e-07
8.1163149e-07
8.1025646e-07
8.0885108e-07
8.0741003e-07
8.0593218e-07
8.044255e-07
8.029091e-07
8.0141172e-07
7.9995885e-07
7.985786e-07
7.9730317e-07
7.9610814e-07
7.9498584e-07
7.9391431e-07
7.9287383e-07
7.9185318e-07
7.9085318e-07
7.8988875e-07
7.8898659e-07
7.8817983e-07
7.8751401e-07
7.8698764e-07
7.8664661e-07
7.8654264e-07
7.8672401e-07
7.87224e-07
7.88086e-07
7.8934244e-07
7.9101914e-07
7.9313494e-07
7.9570152e-07
7.9872441e-07
8.0220351e-07
8.0613603e-07
8.1051652e-07
8.1531587e-07
8.2054338e-07
7.9231245e-07
7.5556749e-07
7.2456649e-07
6.9807799e-07
6.7591504e-07
6.4698572e-07
6.3049504e-07
6.1762987e-07
5.9103303e-07
9.6695955e-07
9.5293259e-07
9.3854495e-07
9.2759968e-07
9.1840415e-07
9.1013879e-07
9.0280761e-07
8.9628573e-07
8.9040437e-07
8.8505612e-07
8.8017041e-07
8.7568101e-07
8.7153234e-07
8.6768047e-07
8.6408888e-07
8.6072403e-07
8.5755886e-07
8.5456937e-07
8.5173612e-07
8.4903713e-07
8.4645914e-07
8.4398945e-07
8.4161708e-07
8.3933259e-07
8.3712831e-07
8.3499702e-07
8.3293182e-07
8.3092687e-07
8.2897478e-07
8.270693e-07
8.2518243e-07
8.2331376e-07
8.2145625e-07
8.1960652e-07
8.1776139e-07
8.1591855e-07
8.1407643e-07
8.1223383e-07
8.1038915e-07
8.0854031e-07
8.0668458e-07
8.048184e-07
8.0293681e-07
8.0103355e-07
7.9910124e-07
7.9713291e-07
7.9512495e-07
7.9308118e-07
7.9101619e-07
7.8895553e-07
7.8693093e-07
7.8496637e-07
7.8308423e-07
7.8130989e-07
7.7963421e-07
7.7804062e-07
7.7649048e-07
7.7498325e-07
7.7351996e-07
7.7211281e-07
7.7078656e-07
7.6957504e-07
7.6851421e-07
7.6765789e-07
7.6700327e-07
7.6659503e-07
7.6648332e-07
7.6671201e-07
7.6731589e-07
7.6832476e-07
7.6975213e-07
7.7161409e-07
7.7391593e-07
7.7665541e-07
7.7982502e-07
7.8341315e-07
7.8740335e-07
7.7372097e-07
7.2685079e-07
6.87789e-07
6.5478873e-07
6.1578393e-07
5.8832599e-07
5.6433744e-07
5.4363252e-07
5.259043e-07
5.0657431e-07
4.9156204e-07
4.7539948e-07
9.6544025e-07
9.5195743e-07
9.3787407e-07
9.2712421e-07
9.1804247e-07
9.0985095e-07
9.0254991e-07
8.9602338e-07
8.9010578e-07
8.8469354e-07
8.7971597e-07
8.751087e-07
8.7081535e-07
8.6679037e-07
8.6299782e-07
8.5940167e-07
8.5597851e-07
8.5269869e-07
8.495463e-07
8.4649815e-07
8.4354501e-07
8.4067564e-07
8.3787833e-07
8.3514725e-07
8.3247395e-07
8.2985387e-07
8.2727957e-07
8.2474684e-07
8.2224907e-07
8.1978281e-07
8.1734288e-07
8.1492818e-07
8.1248845e-07
8.1004141e-07
8.0758435e-07
8.0511734e-07
8.0264224e-07
8.001613e-07
7.9767574e-07
7.9518609e-07
7.9269125e-07
7.9018857e-07
7.8767305e-07
7.8513796e-07
7.8257577e-07
7.7998067e-07
7.7735172e-07
7.746963e-07
7.7203208e-07
7.6938418e-07
7.6677972e-07
7.642354e-07
7.6176636e-07
7.5939304e-07
7.5710898e-07
7.5490516e-07
7.5277629e-07
7.5072446e-07
7.4875066e-07
7.468781e-07
7.4514296e-07
7.4358496e-07
7.4224735e-07
7.4119073e-07
7.403984e-07
7.3992209e-07
7.3980301e-07
7.4008012e-07
7.4078385e-07
7.419379e-07
7.4355362e-07
7.4563068e-07
7.4815921e-07
7.5111623e-07
7.5448211e-07
7.5822936e-07
7.0284576e-07
6.5553837e-07
6.1626371e-07
5.8304131e-07
5.5447645e-07
5.2951572e-07
5.075161e-07
4.8404156e-07
4.6476906e-07
4.4708892e-07
4.3253469e-07
4.1984133e-07
4.0037635e-07
9.6695998e-07
9.529714e-07
9.3855729e-07
9.2756269e-07
9.1829576e-07
9.0992911e-07
9.0245482e-07
8.957409e-07
8.896132e-07
8.8395891e-07
8.7870289e-07
8.7377505e-07
8.6911644e-07
8.6468064e-07
8.604302e-07
8.5633113e-07
8.5235894e-07
8.4849134e-07
8.447144e-07
8.4101105e-07
8.373758e-07
8.338031e-07
8.302875e-07
8.2682584e-07
8.23414e-07
8.2004865e-07
8.1672515e-07
8.1344095e-07
8.1019223e-07
8.0697805e-07
8.0379706e-07
8.0065039e-07
7.9753578e-07
7.9445381e-07
7.9132776e-07
7.8818831e-07
7.8504274e-07
7.8189776e-07
7.7875821e-07
7.7562637e-07
7.7250101e-07
7.6937745e-07
7.6624749e-07
7.6310091e-07
7.5992719e-07
7.5671851e-07
7.5347277e-07
7.5019604e-07
7.4690253e-07
7.4361175e-07
7.4034403e-07
7.3711075e-07
7.3392514e-07
7.3081035e-07
7.2776973e-07
7.2480873e-07
7.2194007e-07
7.1918371e-07
7.165676e-07
7.1412771e-07
7.1190905e-07
7.0995336e-07
7.0832658e-07
7.070522e-07
7.0613969e-07
7.055979e-07
7.0547955e-07
7.0582716e-07
7.066671e-07
7.0801201e-07
7.0986017e-07
7.121975e-07
7.1500042e-07
7.182373e-07
7.2187104e-07
6.7625292e-07
6.2693616e-07
5.8734051e-07
5.5404672e-07
5.2544405e-07
5.0039734e-07
4.7806556e-07
4.5794799e-07
4.3953336e-07
4.2280633e-07
4.0706812e-07
3.9121952e-07
3.7743528e-07
3.6230173e-07
9.6558221e-07
9.520626e-07
9.3790259e-07
9.2701506e-07
9.1772569e-07
9.0924816e-07
9.0156391e-07
8.9454161e-07
8.8800711e-07
8.8185026e-07
8.7599793e-07
8.7038635e-07
8.6496345e-07
8.5969118e-07
8.5454422e-07
8.4949934e-07
8.4454827e-07
8.3967708e-07
8.3488663e-07
8.3016961e-07
8.2553214e-07
8.209761e-07
8.1649931e-07
8.1210323e-07
8.0778323e-07
8.0353705e-07
7.9935776e-07
7.9524153e-07
7.9118159e-07
7.8717457e-07
7.8321565e-07
7.793031e-07
7.7543352e-07
7.7160545e-07
7.6781035e-07
7.6404312e-07
7.6026094e-07
7.564794e-07
7.5270353e-07
7.4893206e-07
7.4515786e-07
7.4136974e-07
7.3755339e-07
7.336936e-07
7.2977643e-07
7.25792e-07
7.2173676e-07
7.1761519e-07