/*--------------------------------*- C++ -*----------------------------------*\
| =========                 |                                                 |
| \\      /  F ield         | OpenFOAM: The Open Source CFD Toolbox           |
|  \\    /   O peration     | Version:  2406                                  |
|   \\  /    A nd           | Website:  www.openfoam.com                      |
|    \\/     M anipulation  |                                                 |
\*---------------------------------------------------------------------------*/
FoamFile
{
    version     2.0;
    format      ascii;
    arch        "LSB;label=32;scalar=64";
    class       volScalarField;
    location    "204";
    object      pMean;
}
// * * * * * * * * * * * * * * * * * * * * * * * * * * * * * * * * * * * * * //

dimensions      [1 -1 -2 0 0 0 0];

internalField   nonuniform List<scalar> 
158064
(
1.0034413
1.0053621
1.0035683
1.0035306
1.0038052
1.0037992
1.0038016
1.003849
1.0038922
1.003933
1.0039801
1.0040322
1.0040877
1.0041471
1.0042105
1.0042778
1.004349
1.0044241
1.0045029
1.0045854
1.0046713
1.0047608
1.0048536
1.0049497
1.0050489
1.0051511
1.0052561
1.0053636
1.0054735
1.0055854
1.0056991
1.0058142
1.0059303
1.0060472
1.0061645
1.0062818
1.006399
1.0065155
1.0066313
1.0067459
1.0068591
1.0069707
1.0070803
1.0071878
1.0072928
1.007395
1.0074942
1.0075899
1.007682
1.00777
1.007854
1.0079334
1.0080079
1.0080774
1.0081416
1.0081998
1.0082518
1.0082971
1.0083353
1.008366
1.0083888
1.0084031
1.0084084
1.0084028
1.0083849
1.0083541
1.0083096
1.0082505
1.0081754
1.0080829
1.0079721
1.0078418
1.0076907
1.0075169
1.0073185
1.0070935
1.0068398
1.0065554
1.0062386
1.0058879
1.0055027
1.0050827
1.0046278
1.0041385
1.0036145
1.0030582
1.0024753
1.0018674
1.0012879
1.0034392
1.0053674
1.0035779
1.0035266
1.0038047
1.0038009
1.0038021
1.0038492
1.0038927
1.0039333
1.0039802
1.0040321
1.0040874
1.0041465
1.0042097
1.0042768
1.0043476
1.0044224
1.0045008
1.004583
1.0046685
1.0047576
1.00485
1.0049457
1.0050445
1.0051462
1.0052506
1.0053577
1.005467
1.0055783
1.0056913
1.0058057
1.0059212
1.0060373
1.0061538
1.0062704
1.0063867
1.0065023
1.0066171
1.0067306
1.0068427
1.006953
1.0070614
1.0071673
1.0072708
1.0073714
1.0074689
1.0075629
1.0076531
1.0077392
1.0078211
1.0078982
1.0079702
1.0080369
1.008098
1.0081531
1.0082018
1.0082439
1.0082789
1.0083064
1.0083262
1.0083378
1.0083408
1.0083342
1.0083167
1.0082877
1.0082465
1.0081924
1.0081247
1.008042
1.0079428
1.0078265
1.0076924
1.0075396
1.0073668
1.0071724
1.0069547
1.0067122
1.006443
1.0061455
1.0058178
1.0054584
1.0050658
1.0046398
1.0041808
1.0036852
1.0031578
1.0025687
1.0019843
1.0034394
1.0053715
1.0035836
1.0035227
1.0038042
1.0038029
1.0038032
1.0038499
1.0038937
1.0039344
1.0039812
1.004033
1.0040883
1.0041475
1.0042106
1.0042776
1.0043485
1.0044232
1.0045016
1.0045837
1.0046692
1.0047583
1.0048506
1.0049462
1.0050449
1.0051465
1.0052509
1.0053578
1.0054669
1.005578
1.0056909
1.005805
1.0059202
1.0060361
1.0061523
1.0062685
1.0063844
1.0064996
1.0066139
1.0067269
1.0068384
1.006948
1.0070555
1.0071605
1.0072629
1.0073621
1.0074581
1.0075505
1.0076389
1.007723
1.0078025
1.007877
1.0079461
1.0080098
1.0080679
1.0081196
1.0081648
1.0082031
1.0082341
1.0082574
1.0082727
1.0082796
1.0082776
1.0082656
1.0082422
1.008207
1.0081595
1.008099
1.0080248
1.0079362
1.0078321
1.0077113
1.0075732
1.0074167
1.0072411
1.0070451
1.0068277
1.0065875
1.0063231
1.0060333
1.0057172
1.0053736
1.0050018
1.0046007
1.0041717
1.0037105
1.0032314
1.0026978
1.0022038
1.0034394
1.0053723
1.0035891
1.003521
1.0038038
1.0038046
1.0038041
1.0038503
1.0038943
1.0039349
1.0039815
1.0040333
1.0040884
1.0041474
1.0042104
1.0042772
1.0043479
1.0044224
1.0045005
1.0045824
1.0046676
1.0047564
1.0048485
1.0049438
1.0050422
1.0051435
1.0052475
1.005354
1.0054627
1.0055735
1.0056858
1.0057995
1.0059142
1.0060296
1.0061452
1.0062609
1.0063762
1.0064907
1.0066044
1.0067167
1.0068273
1.0069361
1.0070426
1.0071466
1.0072478
1.0073459
1.0074405
1.0075313
1.0076182
1.0077006
1.0077783
1.0078508
1.0079177
1.0079791
1.0080347
1.0080839
1.0081263
1.0081618
1.00819
1.0082105
1.008223
1.0082272
1.0082227
1.0082084
1.0081831
1.0081463
1.0080974
1.0080357
1.0079606
1.0078713
1.0077669
1.0076466
1.0075095
1.0073547
1.0071815
1.006989
1.0067764
1.0065426
1.0062868
1.0060078
1.0057049
1.0053772
1.0050243
1.0046448
1.0042408
1.0038061
1.0033567
1.0028545
1.002395
1.0034427
1.0053749
1.0035928
1.0035191
1.003803
1.0038057
1.0038049
1.0038507
1.0038948
1.0039355
1.003982
1.0040337
1.0040888
1.0041477
1.0042105
1.0042773
1.0043478
1.0044222
1.0045003
1.0045819
1.0046671
1.0047557
1.0048476
1.0049428
1.0050409
1.005142
1.0052458
1.005352
1.0054605
1.0055709
1.005683
1.0057963
1.0059107
1.0060256
1.0061409
1.0062561
1.0063709
1.0064851
1.0065982
1.0067099
1.0068199
1.006928
1.0070338
1.007137
1.0072373
1.0073343
1.0074278
1.0075174
1.0076029
1.0076838
1.0077598
1.0078305
1.0078955
1.0079547
1.0080081
1.008055
1.008095
1.008128
1.0081535
1.0081713
1.008181
1.0081822
1.0081747
1.0081574
1.0081293
1.0080897
1.0080383
1.0079745
1.0078978
1.0078076
1.007703
1.0075834
1.0074479
1.007296
1.0071267
1.0069393
1.0067331
1.0065073
1.0062612
1.0059941
1.0057054
1.0053942
1.0050604
1.0047026
1.0043229
1.0039147
1.0034933
1.0030215
1.0025849
1.0034429
1.0053744
1.0035957
1.0035187
1.0038029
1.0038068
1.0038059
1.0038511
1.0038953
1.0039359
1.0039823
1.0040339
1.0040889
1.0041476
1.0042103
1.0042769
1.0043473
1.0044215
1.0044994
1.0045808
1.0046657
1.0047541
1.0048458
1.0049407
1.0050386
1.0051394
1.0052428
1.0053488
1.0054569
1.0055669
1.0056786
1.0057915
1.0059054
1.0060199
1.0061347
1.0062495
1.0063638
1.0064774
1.0065899
1.006701
1.0068105
1.0069179
1.0070229
1.0071253
1.0072247
1.0073208
1.0074133
1.0075017
1.007586
1.0076655
1.0077402
1.0078094
1.0078727
1.0079302
1.0079818
1.0080267
1.0080648
1.0080957
1.0081191
1.0081347
1.0081423
1.0081414
1.0081319
1.0081128
1.008083
1.0080419
1.0079893
1.0079244
1.0078469
1.007756
1.0076514
1.0075322
1.0073979
1.0072479
1.0070815
1.006898
1.0066968
1.0064773
1.0062388
1.0059809
1.0057031
1.0054049
1.0050862
1.0047458
1.004386
1.0040005
1.0036042
1.0031623
1.0027542
1.0034473
1.0053771
1.0035972
1.0035179
1.0038024
1.0038076
1.0038065
1.0038513
1.0038957
1.0039363
1.0039825
1.004034
1.0040889
1.0041476
1.0042102
1.0042766
1.0043469
1.0044209
1.0044986
1.0045799
1.0046646
1.0047528
1.0048443
1.0049389
1.0050366
1.0051371
1.0052403
1.005346
1.0054538
1.0055635
1.0056748
1.0057873
1.0059009
1.006015
1.0061294
1.0062437
1.0063575
1.0064707
1.0065827
1.0066933
1.0068022
1.006909
1.0070134
1.0071151
1.0072138
1.007309
1.0074006
1.0074882
1.0075713
1.0076498
1.0077232
1.0077911
1.0078531
1.0079091
1.0079591
1.0080025
1.0080388
1.008068
1.0080896
1.0081034
1.0081091
1.0081065
1.0080951
1.0080742
1.0080428
1.0080003
1.0079464
1.0078807
1.0078026
1.0077117
1.0076074
1.0074893
1.0073567
1.0072091
1.0070459
1.0068667
1.0066708
1.0064577
1.006227
1.0059781
1.0057107
1.0054244
1.0051194
1.0047944
1.0044519
1.0040859
1.0037103
1.0032933
1.0029073
1.0034473
1.0053758
1.0035991
1.0035184
1.0038024
1.0038083
1.0038072
1.0038516
1.003896
1.0039366
1.0039827
1.0040341
1.0040889
1.0041474
1.0042099
1.0042762
1.0043463
1.0044201
1.0044976
1.0045787
1.0046632
1.0047512
1.0048424
1.0049368
1.0050342
1.0051345
1.0052374
1.0053427
1.0054501
1.0055595
1.0056704
1.0057826
1.0058957
1.0060094
1.0061234
1.0062372
1.0063506
1.0064633
1.0065748
1.006685
1.0067933
1.0068995
1.0070034
1.0071044
1.0072024
1.0072969
1.0073877
1.0074744
1.0075567
1.0076341
1.0077065
1.0077733
1.0078341
1.0078889
1.0079376
1.0079796
1.0080146
1.0080424
1.0080626
1.0080749
1.0080792
1.008075
1.0080623
1.0080401
1.0080077
1.0079644
1.0079099
1.0078437
1.0077655
1.0076748
1.0075712
1.0074541
1.0073232
1.0071779
1.0070178
1.0068425
1.0066515
1.0064443
1.0062207
1.0059801
1.0057222
1.0054468
1.005154
1.0048429
1.0045157
1.0041671
1.00381
1.0034153
1.003049
1.0034511
1.0053784
1.0035999
1.003518
1.0038022
1.0038089
1.0038077
1.0038518
1.0038962
1.0039368
1.0039828
1.0040341
1.0040888
1.0041472
1.0042095
1.0042757
1.0043456
1.0044193
1.0044966
1.0045775
1.0046618
1.0047496
1.0048406
1.0049348
1.0050319
1.0051319
1.0052345
1.0053395
1.0054466
1.0055556
1.0056662
1.005778
1.0058907
1.0060041
1.0061176
1.006231
1.006344
1.0064562
1.0065673
1.006677
1.0067848
1.0068906
1.0069939
1.0070943
1.0071917
1.0072856
1.0073757
1.0074617
1.0075432
1.0076199
1.0076914
1.0077573
1.0078171
1.0078709
1.0079185
1.0079594
1.0079933
1.0080199
1.0080389
1.0080501
1.0080532
1.008048
1.0080341
1.0080109
1.0079777
1.0079338
1.0078788
1.0078125
1.0077344
1.0076441
1.0075413
1.0074256
1.0072965
1.0071536
1.0069966
1.0068251
1.0066386
1.006437
1.0062198
1.0059868
1.0057377
1.0054721
1.0051904
1.0048917
1.0045781
1.0042448
1.0039035
1.0035288
1.0031782
1.0034512
1.0053769
1.0036012
1.0035188
1.0038022
1.0038094
1.0038082
1.003852
1.0038964
1.003937
1.0039829
1.004034
1.0040886
1.0041469
1.0042091
1.0042751
1.0043449
1.0044184
1.0044955
1.0045762
1.0046603
1.0047479
1.0048386
1.0049325
1.0050294
1.0051291
1.0052314
1.0053361
1.0054429
1.0055516
1.0056618
1.0057732
1.0058856
1.0059985
1.0061116
1.0062247
1.0063372
1.006449
1.0065597
1.0066689
1.0067763
1.0068815
1.0069843
1.0070843
1.0071811
1.0072744
1.0073639
1.0074493
1.0075301
1.0076061
1.0076769
1.007742
1.007801
1.0078539
1.0079007
1.0079407
1.0079737
1.0079994
1.0080175
1.0080278
1.0080301
1.008024
1.0080092
1.0079854
1.0079517
1.0079075
1.0078525
1.0077862
1.0077085
1.0076189
1.0075172
1.0074029
1.0072757
1.0071353
1.0069813
1.0068134
1.0066314
1.0064349
1.0062238
1.0059977
1.0057566
1.0055
1.0052284
1.0049409
1.0046395
1.0043199
1.0039925
1.0036357
1.0032972
1.0034546
1.0053789
1.0036018
1.0035188
1.003802
1.0038099
1.0038086
1.0038522
1.0038965
1.003937
1.0039829
1.0040339
1.0040884
1.0041465
1.0042086
1.0042745
1.0043441
1.0044174
1.0044943
1.0045748
1.0046588
1.0047461
1.0048366
1.0049303
1.0050269
1.0051264
1.0052284
1.0053328
1.0054392
1.0055475
1.0056574
1.0057685
1.0058804
1.005993
1.0061057
1.0062184
1.0063305
1.0064419
1.0065522
1.0066609
1.0067679
1.0068727
1.0069751
1.0070746
1.0071709
1.0072638
1.0073527
1.0074375
1.0075178
1.0075932
1.0076634
1.0077279
1.0077862
1.0078385
1.0078846
1.0079239
1.0079562
1.0079812
1.0079986
1.0080083
1.0080099
1.0080032
1.0079879
1.0079636
1.0079297
1.0078854
1.0078304
1.0077645
1.0076873
1.0075986
1.007498
1.0073853
1.0072601
1.0071221
1.0069711
1.0068068
1.006629
1.0064374
1.0062319
1.0060123
1.0057784
1.0055302
1.0052678
1.0049904
1.0047
1.0043929
1.0040775
1.003737
1.0034077
1.0034546
1.0053771
1.0036029
1.00352
1.003802
1.0038103
1.003809
1.0038523
1.0038966
1.0039371
1.0039828
1.0040337
1.0040881
1.0041461
1.0042081
1.0042738
1.0043432
1.0044164
1.0044931
1.0045734
1.0046572
1.0047443
1.0048346
1.004928
1.0050244
1.0051235
1.0052252
1.0053293
1.0054355
1.0055434
1.0056529
1.0057636
1.0058752
1.0059874
1.0060998
1.006212
1.0063238
1.0064348
1.0065447
1.0066531
1.0067596
1.006864
1.0069659
1.007065
1.0071609
1.0072533
1.0073419
1.0074262
1.007506
1.0075809
1.0076506
1.0077146
1.0077724
1.0078241
1.0078697
1.0079085
1.0079402
1.0079647
1.0079817
1.0079908
1.007992
1.0079849
1.0079693
1.0079447
1.0079107
1.0078666
1.007812
1.0077466
1.0076702
1.0075825
1.0074832
1.0073721
1.0072489
1.0071134
1.0069654
1.0068046
1.0066308
1.0064439
1.0062436
1.00603
1.005803
1.0055623
1.0053083
1.0050403
1.0047598
1.0044641
1.0041595
1.003834
1.0035127
1.0034577
1.0053784
1.0036036
1.0035203
1.0038017
1.0038106
1.0038093
1.0038523
1.0038966
1.0039371
1.0039827
1.0040335
1.0040878
1.0041457
1.0042075
1.004273
1.0043423
1.0044153
1.0044919
1.004572
1.0046555
1.0047424
1.0048325
1.0049257
1.0050218
1.0051207
1.0052221
1.0053258
1.0054317
1.0055393
1.0056485
1.0057588
1.0058701
1.0059819
1.0060939
1.0062058
1.0063172
1.0064278
1.0065373
1.0066453
1.0067515
1.0068555
1.0069571
1.0070558
1.0071513
1.0072433
1.0073314
1.0074154
1.0074948
1.0075693
1.0076385
1.0077021
1.0077595
1.0078108
1.007856
1.0078944
1.0079258
1.0079499
1.0079665
1.0079754
1.0079763
1.007969
1.0079533
1.0079287
1.0078948
1.007851
1.0077968
1.0077321
1.0076566
1.00757
1.0074722
1.0073628
1.0072417
1.0071087
1.0069636
1.0068061
1.0066362
1.0064537
1.0062585
1.0060505
1.0058297
1.005596
1.0053497
1.0050903
1.004819
1.0045337
1.0042391
1.0039268
1.003614
1.0034577
1.0053763
1.0036046
1.0035218
1.0038016
1.0038108
1.0038095
1.0038524
1.0038966
1.0039371
1.0039826
1.0040333
1.0040875
1.0041452
1.0042069
1.0042723
1.0043414
1.0044142
1.0044906
1.0045705
1.0046538
1.0047405
1.0048304
1.0049233
1.0050192
1.0051178
1.0052189
1.0053224
1.0054279
1.0055352
1.005644
1.005754
1.0058649
1.0059764
1.006088
1.0061995
1.0063106
1.0064209
1.00653
1.0066376
1.0067435
1.0068472
1.0069484
1.0070467
1.0071419
1.0072336
1.0073214
1.007405
1.007484
1.0075582
1.0076271
1.0076904
1.0077475
1.0077985
1.0078433
1.0078815
1.0079126
1.0079365
1.007953
1.0079618
1.0079626
1.0079552
1.0079395
1.007915
1.0078813
1.007838
1.0077845
1.0077206
1.0076461
1.0075608
1.0074644
1.0073569
1.0072379
1.0071073
1.006965
1.0068109
1.0066447
1.0064663
1.0062759
1.0060732
1.0058583
1.0056311
1.0053919
1.0051404
1.0048774
1.0046016
1.0043163
1.0040158
1.0037123
1.0034603
1.005377
1.0036053
1.0035224
1.0038012
1.003811
1.0038097
1.0038524
1.0038966
1.003937
1.0039824
1.004033
1.0040871
1.0041447
1.0042062
1.0042715
1.0043405
1.0044131
1.0044893
1.004569
1.0046521
1.0047386
1.0048282
1.0049209
1.0050165
1.0051149
1.0052157
1.0053189
1.0054241
1.0055311
1.0056396
1.0057493
1.0058598
1.0059709
1.0060822
1.0061934
1.0063041
1.006414
1.0065228
1.0066301
1.0067356
1.006839
1.0069399
1.0070379
1.0071328
1.0072241
1.0073117
1.007395
1.0074738
1.0075476
1.0076163
1.0076794
1.0077362
1.007787
1.0078317
1.0078697
1.0079007
1.0079245
1.0079409
1.0079496
1.0079505
1.0079433
1.0079277
1.0079034
1.0078701
1.0078274
1.0077746
1.0077116
1.0076383
1.0075543
1.0074596
1.0073538
1.007237
1.0071089
1.0069694
1.0068184
1.0066558
1.0064815
1.0062955
1.0060977
1.0058883
1.0056672
1.0054346
1.0051903
1.004935
1.0046679
1.0043914
1.0041011
1.0038075
1.0034603
1.0053749
1.0036063
1.0035241
1.0038009
1.0038112
1.0038099
1.0038524
1.0038965
1.0039369
1.0039822
1.0040327
1.0040867
1.0041442
1.0042056
1.0042707
1.0043395
1.0044119
1.004488
1.0045675
1.0046504
1.0047367
1.0048261
1.0049185
1.0050139
1.005112
1.0052125
1.0053154
1.0054203
1.005527
1.0056352
1.0057445
1.0058547
1.0059655
1.0060764
1.0061873
1.0062977
1.0064073
1.0065157
1.0066227
1.0067279
1.006831
1.0069316
1.0070293
1.0071239
1.007215
1.0073023
1.0073854
1.0074639
1.0075376
1.0076061
1.0076689
1.0077257
1.0077763
1.0078209
1.0078588
1.0078898
1.0079136
1.0079301
1.0079389
1.0079399
1.0079329
1.0079176
1.0078937
1.0078609
1.0078188
1.0077669
1.007705
1.0076328
1.0075503
1.0074571
1.0073533
1.0072386
1.0071129
1.0069762
1.0068282
1.0066691
1.0064986
1.0063169
1.0061239
1.0059196
1.0057042
1.0054777
1.0052401
1.0049919
1.0047327
1.0044643
1.004183
1.0038988
1.0034624
1.0053752
1.003607
1.0035249
1.0038005
1.0038114
1.00381
1.0038524
1.0038964
1.0039368
1.003982
1.0040324
1.0040863
1.0041436
1.0042049
1.0042698
1.0043385
1.0044108
1.0044867
1.004566
1.0046487
1.0047347
1.0048239
1.0049161
1.0050112
1.0051091
1.0052094
1.005312
1.0054166
1.005523
1.0056308
1.0057398
1.0058497
1.0059601
1.0060708
1.0061813
1.0062913
1.0064006
1.0065088
1.0066155
1.0067204
1.0068231
1.0069235
1.007021
1.0071153
1.0072062
1.0072932
1.0073761
1.0074545
1.007528
1.0075964
1.0076591
1.0077158
1.0077663
1.0078108
1.0078488
1.0078798
1.0079037
1.0079203
1.0079294
1.0079307
1.0079239
1.007909
1.0078856
1.0078534
1.0078121
1.0077611
1.0077003
1.0076294
1.0075483
1.0074569
1.0073549
1.0072424
1.0071191
1.006985
1.0068401
1.0066843
1.0065175
1.0063399
1.0061513
1.0059519
1.0057417
1.0055209
1.0052895
1.005048
1.0047959
1.0045351
1.004262
1.0039863
1.0034623
1.0053732
1.0036081
1.0035266
1.0038001
1.0038115
1.0038102
1.0038523
1.0038963
1.0039367
1.0039818
1.004032
1.0040858
1.004143
1.0042042
1.004269
1.0043375
1.0044096
1.0044853
1.0045644
1.004647
1.0047328
1.0048218
1.0049138
1.0050086
1.0051062
1.0052062
1.0053085
1.0054129
1.0055189
1.0056265
1.0057352
1.0058447
1.0059548
1.0060652
1.0061754
1.0062851
1.0063941
1.006502
1.0066084
1.006713
1.0068155
1.0069156
1.0070128
1.007107
1.0071976
1.0072845
1.0073672
1.0074455
1.0075189
1.0075871
1.0076498
1.0077064
1.007757
1.0078015
1.0078395
1.0078707
1.0078948
1.0079116
1.0079209
1.0079226
1.0079162
1.0079018
1.0078789
1.0078474
1.0078069
1.0077569
1.0076973
1.0076277
1.0075481
1.0074584
1.0073584
1.007248
1.0071271
1.0069957
1.0068537
1.0067011
1.0065378
1.006364
1.0061797
1.0059849
1.0057797
1.0055643
1.0053387
1.0051033
1.0048578
1.0046039
1.0043383
1.0040702
1.003464
1.0053732
1.0036088
1.0035276
1.0037996
1.0038116
1.0038103
1.0038522
1.0038962
1.0039365
1.0039815
1.0040317
1.0040853
1.0041425
1.0042035
1.0042681
1.0043365
1.0044084
1.004484
1.0045629
1.0046453
1.0047309
1.0048196
1.0049114
1.005006
1.0051033
1.0052031
1.0053051
1.0054092
1.005515
1.0056222
1.0057306
1.0058399
1.0059497
1.0060597
1.0061696
1.006279
1.0063877
1.0064953
1.0066014
1.0067058
1.0068081
1.0069079
1.0070049
1.0070989
1.0071894
1.0072761
1.0073587
1.0074368
1.0075101
1.0075783
1.007641
1.0076976
1.0077482
1.0077928
1.007831
1.0078623
1.0078866
1.0079038
1.0079134
1.0079155
1.0079096
1.0078957
1.0078735
1.0078427
1.0078031
1.0077542
1.0076957
1.0076275
1.0075495
1.0074615
1.0073634
1.0072551
1.0071366
1.0070077
1.0068686
1.0067191
1.0065593
1.0063892
1.0062089
1.0060184
1.0058179
1.0056076
1.0053874
1.0051578
1.0049184
1.004671
1.0044123
1.004151
1.0034637
1.0053713
1.00361
1.0035292
1.0037992
1.0038116
1.0038103
1.0038521
1.003896
1.0039363
1.0039812
1.0040313
1.0040849
1.0041419
1.0042027
1.0042673
1.0043355
1.0044073
1.0044826
1.0045614
1.0046436
1.004729
1.0048175
1.004909
1.0050034
1.0051005
1.0052
1.0053018
1.0054055
1.005511
1.005618
1.0057261
1.005835
1.0059445
1.0060543
1.0061639
1.006273
1.0063814
1.0064888
1.0065946
1.0066988
1.0068008
1.0069004
1.0069973
1.007091
1.0071814
1.0072679
1.0073504
1.0074285
1.0075017
1.0075699
1.0076326
1.0076893
1.00774
1.0077847
1.007823
1.0078546
1.0078792
1.0078967
1.0079068
1.0079093
1.007904
1.0078907
1.0078691
1.0078391
1.0078005
1.0077527
1.0076955
1.0076287
1.0075522
1.0074659
1.0073697
1.0072636
1.0071473
1.007021
1.0068847
1.0067382
1.0065817
1.0064151
1.0062387
1.0060523
1.0058563
1.0056507
1.0054356
1.0052113
1.0049777
1.0047362
1.0044841
1.0042289
1.0034649
1.0053711
1.0036108
1.0035301
1.0037987
1.0038117
1.0038104
1.003852
1.0038958
1.0039361
1.0039809
1.0040309
1.0040844
1.0041412
1.004202
1.0042664
1.0043345
1.0044061
1.0044813
1.0045599
1.0046419
1.0047271
1.0048154
1.0049067
1.0050009
1.0050977
1.0051969
1.0052985
1.0054019
1.0055072
1.0056138
1.0057216
1.0058303
1.0059395
1.006049
1.0061583
1.0062672
1.0063753
1.0064824
1.006588
1.0066919
1.0067937
1.0068931
1.0069898
1.0070834
1.0071736
1.0072601
1.0073425
1.0074204
1.0074937
1.0075619
1.0076246
1.0076814
1.0077322
1.0077771
1.0078157
1.0078475
1.0078725
1.0078903
1.0079009
1.0079039
1.0078992
1.0078866
1.0078657
1.0078366
1.0077989
1.0077522
1.0076963
1.0076309
1.007556
1.0074714
1.0073772
1.0072731
1.0071591
1.0070353
1.0069016
1.0067581
1.0066047
1.0064416
1.0062688
1.0060864
1.0058946
1.0056935
1.0054832
1.005264
1.0050358
1.0047998
1.0045537
1.0043042
1.0034645
1.0053695
1.0036121
1.0035316
1.0037982
1.0038117
1.0038105
1.0038519
1.0038957
1.0039359
1.0039806
1.0040305
1.0040839
1.0041406
1.0042013
1.0042655
1.0043335
1.0044049
1.00448
1.0045584
1.0046402
1.0047252
1.0048133
1.0049044
1.0049983
1.0050949
1.0051939
1.0052952
1.0053984
1.0055034
1.0056098
1.0057173
1.0058257
1.0059346
1.0060438
1.0061528
1.0062615
1.0063693
1.0064761
1.0065815
1.0066852
1.0067868
1.0068861
1.0069826
1.007076
1.0071661
1.0072525
1.0073348
1.0074127
1.007486
1.0075543
1.0076171
1.0076739
1.0077249
1.00777
1.0078088
1.007841
1.0078663
1.0078846
1.0078956
1.0078992
1.0078951
1.0078832
1.0078632
1.0078349
1.0077982
1.0077527
1.007698
1.0076341
1.0075608
1.0074779
1.0073855
1.0072835
1.0071718
1.0070504
1.0069194
1.0067786
1.0066283
1.0064685
1.0062992
1.0061205
1.0059327
1.0057359
1.0055301
1.0053157
1.0050925
1.0048617
1.0046213
1.004377
1.003465
1.0053693
1.0036132
1.0035325
1.0037978
1.0038117
1.0038105
1.0038518
1.0038955
1.0039357
1.0039803
1.0040301
1.0040834
1.00414
1.0042005
1.0042647
1.0043325
1.0044038
1.0044787
1.0045569
1.0046385
1.0047233
1.0048113
1.0049021
1.0049958
1.0050922
1.005191
1.005292
1.0053949
1.0054996
1.0056057
1.005713
1.0058211
1.0059298
1.0060387
1.0061475
1.0062559
1.0063635
1.0064701
1.0065752
1.0066787
1.0067801
1.0068792
1.0069755
1.0070689
1.0071588
1.0072451
1.0073274
1.0074053
1.0074786
1.0075469
1.0076098
1.0076668
1.007718
1.0077634
1.0078024
1.0078349
1.0078606
1.0078794
1.0078909
1.0078951
1.0078917
1.0078805
1.0078613
1.0078339
1.0077983
1.0077539
1.0077005
1.007638
1.0075663
1.0074852
1.0073947
1.0072947
1.0071852
1.0070661
1.0069376
1.0067997
1.0066523
1.0064956
1.0063296
1.0061546
1.0059706
1.0057778
1.0055763
1.0053665
1.0051481
1.0049223
1.0046871
1.0044478
1.0034644
1.005368
1.0036145
1.0035337
1.0037973
1.0038117
1.0038105
1.0038517
1.0038953
1.0039354
1.00398
1.0040297
1.0040828
1.0041394
1.0041998
1.0042638
1.0043315
1.0044027
1.0044774
1.0045554
1.0046369
1.0047215
1.0048092
1.0048999
1.0049934
1.0050895
1.0051881
1.0052888
1.0053915
1.005496
1.0056018
1.0057088
1.0058167
1.0059251
1.0060337
1.0061423
1.0062504
1.0063578
1.0064641
1.0065691
1.0066724
1.0067736
1.0068725
1.0069687
1.0070619
1.0071518
1.007238
1.0073203
1.0073982
1.0074715
1.0075399
1.0076029
1.0076601
1.0077115
1.0077571
1.0077964
1.0078293
1.0078554
1.0078747
1.0078868
1.0078916
1.0078889
1.0078785
1.0078601
1.0078337
1.007799
1.0077558
1.0077037
1.0076427
1.0075725
1.0074931
1.0074044
1.0073064
1.0071991
1.0070824
1.0069563
1.006821
1.0066764
1.0065228
1.00636
1.0061884
1.006008
1.0058191
1.0056216
1.005416
1.0052022
1.004981
1.0047509
1.0045162
1.0034646
1.0053678
1.0036155
1.0035345
1.0037969
1.0038117
1.0038106
1.0038515
1.0038951
1.0039352
1.0039797
1.0040293
1.0040823
1.0041388
1.0041991
1.004263
1.0043305
1.0044015
1.0044761
1.004554
1.0046353
1.0047197
1.0048072
1.0048977
1.004991
1.0050869
1.0051852
1.0052857
1.0053882
1.0054924
1.005598
1.0057047
1.0058123
1.0059205
1.0060289
1.0061372
1.0062451
1.0063522
1.0064583
1.0065631
1.0066662
1.0067673
1.006866
1.0069621
1.0070552
1.007145
1.0072311
1.0073134
1.0073913
1.0074647
1.0075332
1.0075963
1.0076537
1.0077053
1.0077511
1.0077908
1.0078241
1.0078506
1.0078704
1.0078831
1.0078885
1.0078865
1.0078768
1.0078593
1.0078339
1.0078002
1.0077582
1.0077074
1.0076478
1.0075792
1.0075015
1.0074146
1.0073186
1.0072134
1.0070989
1.0069753
1.0068426
1.0067008
1.00655
1.0063904
1.0062221
1.0060452
1.0058599
1.0056664
1.0054649
1.0052554
1.0050387
1.0048135
1.0045832
1.0034635
1.0053669
1.003617
1.0035355
1.0037965
1.0038117
1.0038106
1.0038514
1.0038949
1.0039349
1.0039794
1.0040288
1.0040818
1.0041382
1.0041984
1.0042621
1.0043295
1.0044004
1.0044748
1.0045526
1.0046337
1.0047179
1.0048053
1.0048955
1.0049886
1.0050843
1.0051824
1.0052827
1.0053849
1.0054889
1.0055942
1.0057007
1.0058081
1.005916
1.0060241
1.0061322
1.0062399
1.0063468
1.0064527
1.0065573
1.0066602
1.0067611
1.0068597
1.0069557
1.0070487
1.0071384
1.0072245
1.0073067
1.0073847
1.0074582
1.0075268
1.0075901
1.0076476
1.0076994
1.0077456
1.0077856
1.0078192
1.0078463
1.0078665
1.0078798
1.0078859
1.0078846
1.0078757
1.0078591
1.0078346
1.007802
1.0077611
1.0077116
1.0076534
1.0075864
1.0075103
1.0074252
1.0073311
1.0072279
1.0071157
1.0069944
1.0068642
1.006725
1.006577
1.0064203
1.0062551
1.0060815
1.0058996
1.0057097
1.0055121
1.0053066
1.0050941
1.0048734
1.0046473
1.0034631
1.0053668
1.0036182
1.0035362
1.0037961
1.0038117
1.0038106
1.0038512
1.0038946
1.0039347
1.003979
1.0040284
1.0040813
1.0041376
1.0041976
1.0042613
1.0043286
1.0043993
1.0044736
1.0045512
1.0046321
1.0047162
1.0048033
1.0048934
1.0049863
1.0050818
1.0051796
1.0052797
1.0053817
1.0054854
1.0055905
1.0056968
1.0058039
1.0059116
1.0060195
1.0061273
1.0062348
1.0063415
1.0064472
1.0065516
1.0066544
1.0067551
1.0068536
1.0069494
1.0070423
1.007132
1.0072181
1.0073003
1.0073783
1.0074518
1.0075205
1.007584
1.0076418
1.0076938
1.0077402
1.0077806
1.0078147
1.0078421
1.0078629
1.0078768
1.0078835
1.0078829
1.0078749
1.0078591
1.0078356
1.007804
1.0077643
1.0077161
1.0076593
1.0075938
1.0075194
1.0074361
1.0073439
1.0072427
1.0071327
1.0070137
1.0068859
1.0067493
1.0066041
1.0064503
1.0062882
1.0061178
1.0059394
1.0057531
1.0055592
1.0053577
1.0051493
1.0049332
1.0047114
1.0034619
1.0053664
1.0036196
1.0035369
1.0037958
1.0038117
1.0038106
1.0038511
1.0038944
1.0039344
1.0039787
1.004028
1.0040808
1.004137
1.0041969
1.0042605
1.0043276
1.0043982
1.0044724
1.0045498
1.0046306
1.0047145
1.0048014
1.0048913
1.004984
1.0050793
1.0051769
1.0052768
1.0053786
1.0054821
1.005587
1.005693
1.0057999
1.0059073
1.006015
1.0061226
1.0062299
1.0063364
1.0064419
1.0065462
1.0066487
1.0067493
1.0068477
1.0069434
1.0070363
1.0071259
1.007212
1.0072942
1.0073722
1.0074458
1.0075147
1.0075783
1.0076363
1.0076886
1.0077353
1.007776
1.0078105
1.0078385
1.0078598
1.0078742
1.0078816
1.0078817
1.0078745
1.0078596
1.0078371
1.0078065
1.0077679
1.007721
1.0076656
1.0076015
1.0075287
1.0074471
1.0073567
1.0072575
1.0071495
1.0070327
1.0069072
1.006773
1.0066303
1.0064792
1.0063199
1.0061524
1.0059771
1.005794
1.0056034
1.0054055
1.0052008
1.0049888
1.0047706
1.0034611
1.0053665
1.0036209
1.0035374
1.0037954
1.0038117
1.0038105
1.0038509
1.0038942
1.0039342
1.0039784
1.0040276
1.0040803
1.0041364
1.0041962
1.0042596
1.0043267
1.0043972
1.0044711
1.0045484
1.004629
1.0047128
1.0047996
1.0048893
1.0049818
1.0050768
1.0051743
1.0052739
1.0053755
1.0054788
1.0055834
1.0056892
1.0057959
1.0059031
1.0060106
1.006118
1.006225
1.0063314
1.0064367
1.0065408
1.0066432
1.0067437
1.0068419
1.0069375
1.0070303
1.0071198
1.0072059
1.0072881
1.0073662
1.0074399
1.0075089
1.0075727
1.0076309
1.0076834
1.0077304
1.0077715
1.0078063
1.0078348
1.0078566
1.0078716
1.0078797
1.0078805
1.0078741
1.0078601
1.0078385
1.007809
1.0077716
1.0077259
1.0076719
1.0076093
1.0075381
1.0074583
1.0073698
1.0072725
1.0071666
1.0070521
1.0069289
1.0067973
1.0066572
1.0065089
1.0063525
1.0061881
1.006016
1.0058363
1.0056493
1.0054552
1.0052543
1.0050468
1.0048327
1.0034595
1.0053667
1.0036226
1.0035378
1.0037951
1.0038116
1.0038105
1.0038507
1.003894
1.0039339
1.0039781
1.0040272
1.0040798
1.0041358
1.0041955
1.0042588
1.0043258
1.0043961
1.00447
1.0045471
1.0046276
1.0047112
1.0047978
1.0048873
1.0049796
1.0050745
1.0051717
1.0052712
1.0053725
1.0054756
1.0055801
1.0056857
1.0057921
1.0058991
1.0060064
1.0061136
1.0062205
1.0063266
1.0064318
1.0065357
1.006638
1.0067383
1.0068364
1.006932
1.0070247
1.0071142
1.0072003
1.0072825
1.0073607
1.0074345
1.0075036
1.0075676
1.007626
1.0076788
1.0077261
1.0077676
1.0078028
1.0078317
1.0078541
1.0078697
1.0078784
1.0078799
1.0078743
1.0078612
1.0078405
1.007812
1.0077756
1.0077312
1.0076784
1.0076172
1.0075475
1.0074692
1.0073823
1.0072869
1.0071828
1.0070702
1.0069492
1.0068197
1.0066819
1.0065359
1.0063819
1.0062201
1.0060506
1.0058737
1.0056895
1.0054984
1.0053004
1.0050965
1.004885
1.0034575
1.0053672
1.0036245
1.0035378
1.0037948
1.0038116
1.0038105
1.0038506
1.0038938
1.0039337
1.0039777
1.0040268
1.0040793
1.0041352
1.0041949
1.004258
1.0043248
1.0043951
1.0044688
1.0045458
1.0046261
1.0047095
1.004796
1.0048853
1.0049774
1.0050721
1.0051692
1.0052684
1.0053696
1.0054724
1.0055767
1.005682
1.0057883
1.0058951
1.0060021
1.0061092
1.0062158
1.0063218
1.0064268
1.0065305
1.0066326
1.0067328
1.0068308
1.0069263
1.0070189
1.0071084
1.0071944
1.0072767
1.0073549
1.0074287
1.007498
1.0075621
1.0076207
1.0076738
1.0077214
1.0077632
1.0077989
1.0078282
1.0078511
1.0078673
1.0078766
1.0078789
1.0078741
1.0078619
1.0078421
1.0078147
1.0077795
1.0077363
1.007685
1.0076253
1.0075572
1.0074806
1.0073956
1.0073022
1.0072002
1.0070899
1.0069712
1.0068442
1.0067091
1.0065659
1.0064148
1.0062561
1.0060898
1.0059163
1.0057357
1.0055482
1.005354
1.0051546
1.0049466
1.0034559
1.0053678
1.0036263
1.0035378
1.0037946
1.0038116
1.0038104
1.0038504
1.0038936
1.0039334
1.0039774
1.0040264
1.0040789
1.0041346
1.0041942
1.0042573
1.004324
1.0043941
1.0044677
1.0045446
1.0046247
1.004708
1.0047943
1.0048835
1.0049755
1.00507
1.0051669
1.0052659
1.0053669
1.0054695
1.0055736
1.0056788
1.0057849
1.0058915
1.0059984
1.0061052
1.0062117
1.0063175
1.0064224
1.006526
1.006628
1.0067281
1.0068261
1.0069215
1.0070141
1.0071035
1.0071896
1.0072719
1.0073501
1.0074241
1.0074935
1.0075579
1.0076167
1.00767
1.0077179
1.00776
1.0077961
1.0078259
1.0078492
1.007866
1.0078759
1.0078788
1.0078747
1.0078632
1.0078443
1.0078178
1.0077836
1.0077414
1.0076911
1.0076326
1.0075658
1.0074906
1.007407
1.007315
1.0072147
1.007106
1.006989
1.0068638
1.0067305
1.0065892
1.0064401
1.0062834
1.0061192
1.0059479
1.0057694
1.0055843
1.0053921
1.0051954
1.004988
1.0034538
1.0053681
1.003628
1.0035376
1.0037945
1.0038117
1.0038104
1.0038502
1.0038933
1.0039332
1.0039771
1.0040259
1.0040784
1.0041341
1.0041935
1.0042565
1.0043231
1.004393
1.0044665
1.0045432
1.0046232
1.0047064
1.0047925
1.0048815
1.0049733
1.0050676
1.0051642
1.0052631
1.0053638
1.0054663
1.0055701
1.0056751
1.005781
1.0058873
1.005994
1.0061007
1.0062069
1.0063125
1.0064172
1.0065206
1.0066225
1.0067224
1.0068202
1.0069155
1.007008
1.0070974
1.0071834
1.0072658
1.0073441
1.0074181
1.0074876
1.0075522
1.0076112
1.0076647
1.0077129
1.0077554
1.0077919
1.0078222
1.0078461
1.0078635
1.0078741
1.0078778
1.0078745
1.007864
1.0078462
1.0078208
1.0077878
1.007747
1.0076982
1.0076414
1.0075763
1.007503
1.0074214
1.0073316
1.0072335
1.0071272
1.0070128
1.0068903
1.0067598
1.0066215
1.0064756
1.0063221
1.0061614
1.0059937
1.0058191
1.0056379
1.0054498
1.0052579
1.0050534
1.0034526
1.0053689