/*--------------------------------*- C++ -*----------------------------------*\
| =========                 |                                                 |
| \\      /  F ield         | OpenFOAM: The Open Source CFD Toolbox           |
|  \\    /   O peration     | Version:  2406                                  |
|   \\  /    A nd           | Website:  www.openfoam.com                      |
|    \\/     M anipulation  |                                                 |
\*---------------------------------------------------------------------------*/
FoamFile
{
    version     2.0;
    format      ascii;
    arch        "LSB;label=32;scalar=64";
    class       volScalarField;
    location    "204";
    object      rho;
}
// * * * * * * * * * * * * * * * * * * * * * * * * * * * * * * * * * * * * * //

dimensions      [1 -3 0 0 0 0 0];

internalField   nonuniform List<scalar> 
158064
(
1.0030946
1.0046584
1.0031812
1.0031615
1.0033969
1.0034017
1.0034127
1.0034618
1.0035063
1.0035478
1.0035941
1.0036441
1.0036966
1.0037522
1.0038108
1.0038723
1.0039366
1.0040036
1.004073
1.0041449
1.0042189
1.0042953
1.0043738
1.0044544
1.004537
1.0046214
1.0047076
1.0047953
1.0048844
1.0049747
1.0050658
1.0051578
1.0052503
1.0053432
1.0054363
1.0055293
1.0056222
1.0057145
1.0058061
1.0058968
1.0059863
1.0060743
1.0061606
1.006245
1.0063274
1.0064073
1.0064849
1.0065595
1.0066318
1.0067016
1.0067675
1.0068208
1.0068603
1.006902
1.0069389
1.0069716
1.0070022
1.0070301
1.007055
1.0070774
1.0070969
1.0071131
1.0071252
1.0071309
1.0071283
1.0071165
1.0070946
1.0070617
1.0070172
1.0069607
1.0068915
1.0068094
1.0067141
1.0066052
1.0064826
1.006346
1.0061953
1.0060301
1.0058504
1.0056567
1.0054504
1.0052336
1.0050045
1.0047582
1.0044859
1.0041849
1.0038582
1.0035031
1.003195
1.0031542
1.0046511
1.0031813
1.0031528
1.0033938
1.0033994
1.0034096
1.0034589
1.0035042
1.0035462
1.0035929
1.0036434
1.0036964
1.0037523
1.0038112
1.0038729
1.0039372
1.0040041
1.0040731
1.0041445
1.004218
1.0042937
1.0043716
1.0044516
1.0045337
1.0046176
1.0047033
1.0047905
1.0048791
1.0049688
1.0050596
1.0051511
1.0052431
1.0053355
1.0054281
1.0055206
1.0056128
1.0057044
1.0057952
1.005885
1.0059734
1.0060603
1.0061454
1.0062284
1.0063093
1.0063878
1.0064638
1.0065371
1.0066074
1.0066759
1.0067405
1.0067926
1.0068305
1.0068715
1.0069077
1.0069384
1.0069652
1.0069883
1.0070072
1.0070223
1.0070339
1.007042
1.0070466
1.0070473
1.0070429
1.0070325
1.0070154
1.0069909
1.0069577
1.0069147
1.0068609
1.0067956
1.006718
1.0066276
1.006524
1.0064071
1.0062768
1.0061335
1.0059774
1.0058087
1.0056272
1.0054333
1.0052277
1.0050099
1.0047792
1.0045262
1.0042564
1.003925
1.0036313
1.0031654
1.0046447
1.0031762
1.0031483
1.0033939
1.0034031
1.0034132
1.0034625
1.0035084
1.0035508
1.0035978
1.0036485
1.0037017
1.0037577
1.0038165
1.0038781
1.0039422
1.0040087
1.0040775
1.0041487
1.004222
1.0042977
1.0043755
1.0044555
1.0045375
1.0046214
1.004707
1.0047942
1.0048826
1.0049723
1.0050629
1.0051543
1.0052463
1.0053386
1.005431
1.0055234
1.0056153
1.0057067
1.0057973
1.0058867
1.0059748
1.0060613
1.006146
1.0062285
1.0063088
1.0063866
1.0064618
1.0065342
1.0066038
1.0066708
1.0067342
1.006784
1.0068208
1.0068609
1.0068969
1.0069271
1.0069528
1.006974
1.0069902
1.0070014
1.0070074
1.0070083
1.007004
1.0069941
1.006978
1.0069555
1.0069265
1.0068911
1.006849
1.0067996
1.0067419
1.0066748
1.0065972
1.006508
1.006406
1.0062906
1.0061611
1.006017
1.0058583
1.0056853
1.0054982
1.0052979
1.0050858
1.0048624
1.0046317
1.0043857
1.0041427
1.0038487
1.0036281
1.0031298
1.0046734
1.0032043
1.0031586
1.0034019
1.0034109
1.003419
1.0034672
1.0035124
1.003554
1.0036001
1.0036503
1.0037031
1.0037587
1.0038173
1.0038787
1.0039425
1.004009
1.0040778
1.0041491
1.0042226
1.0042983
1.0043762
1.0044562
1.0045381
1.0046218
1.0047071
1.0047939
1.004882
1.0049712
1.0050614
1.0051524
1.0052439
1.0053357
1.0054276
1.0055194
1.0056108
1.0057016
1.0057915
1.0058803
1.0059677
1.0060535
1.0061374
1.0062191
1.0062985
1.0063754
1.0064495
1.0065208
1.0065892
1.0066549
1.006717
1.0067653
1.0068002
1.0068387
1.0068736
1.0069028
1.0069276
1.0069481
1.006964
1.0069749
1.0069803
1.0069801
1.0069738
1.0069607
1.00694
1.0069119
1.0068763
1.0068334
1.0067829
1.0067252
1.0066602
1.0065876
1.0065068
1.006417
1.006317
1.0062057
1.0060819
1.0059448
1.0057937
1.005628
1.0054476
1.0052523
1.0050432
1.0048203
1.0045886
1.0043412
1.0041005
1.0038144
1.0036051
1.0032167
1.004663
1.0032057
1.0031571
1.0034008
1.0034136
1.0034222
1.0034702
1.0035155
1.0035571
1.0036031
1.0036531
1.0037057
1.003761
1.0038193
1.0038804
1.0039441
1.0040105
1.0040793
1.0041506
1.0042241
1.0043
1.0043779
1.0044578
1.0045396
1.0046232
1.0047083
1.0047949
1.0048828
1.0049717
1.0050617
1.0051523
1.0052436
1.0053351
1.0054267
1.0055181
1.0056092
1.0056996
1.0057891
1.0058775
1.0059644
1.0060497
1.0061331
1.0062143
1.0062931
1.0063693
1.0064427
1.0065133
1.0065808
1.0066455
1.0067064
1.0067531
1.0067861
1.0068228
1.006856
1.0068838
1.0069072
1.0069265
1.0069411
1.0069508
1.0069555
1.0069546
1.0069478
1.006934
1.0069124
1.0068824
1.006844
1.0067967
1.0067408
1.0066766
1.0066043
1.0065239
1.0064357
1.0063396
1.0062354
1.0061225
1.006
1.005867
1.0057225
1.0055654
1.0053953
1.0052113
1.0050137
1.0048011
1.0045779
1.0043366
1.0040996
1.0038196
1.0036064
1.0031552
1.0046872
1.003224
1.0031618
1.0034026
1.0034161
1.0034242
1.0034715
1.0035171
1.0035588
1.0036051
1.0036553
1.0037079
1.0037632
1.0038213
1.0038822
1.0039456
1.0040116
1.0040802
1.0041512
1.0042246
1.0043002
1.0043779
1.0044576
1.0045392
1.0046225
1.0047073
1.0047937
1.0048813
1.00497
1.0050596
1.00515
1.0052409
1.0053321
1.0054234
1.0055145
1.0056052
1.0056952
1.0057843
1.0058723
1.0059588
1.0060436
1.0061265
1.0062071
1.0062853
1.0063608
1.0064336
1.0065034
1.0065702
1.0066341
1.006694
1.0067397
1.0067712
1.0068065
1.0068383
1.0068648
1.0068868
1.0069046
1.0069178
1.0069261
1.0069296
1.0069279
1.0069206
1.0069068
1.0068855
1.0068561
1.0068184
1.0067718
1.006716
1.0066507
1.0065757
1.0064914
1.0063978
1.0062957
1.006185
1.0060659
1.0059384
1.0058022
1.0056568
1.0055017
1.0053361
1.0051592
1.0049709
1.0047691
1.0045572
1.0043272
1.0040989
1.0038301
1.0036188
1.0032974
1.0046533
1.00319
1.0031508
1.0033931
1.0034111
1.0034204
1.0034682
1.0035146
1.0035571
1.003604
1.0036547
1.0037077
1.0037632
1.0038215
1.0038823
1.0039457
1.0040118
1.0040802
1.0041512
1.0042244
1.0042999
1.0043775
1.0044571
1.0045385
1.0046217
1.0047064
1.0047925
1.0048799
1.0049684
1.0050579
1.005148
1.0052387
1.0053297
1.0054207
1.0055116
1.005602
1.0056918
1.0057806
1.0058682
1.0059544
1.0060388
1.0061213
1.0062015
1.0062792
1.0063543
1.0064266
1.0064959
1.0065621
1.0066254
1.0066846
1.0067295
1.0067597
1.0067938
1.0068246
1.0068499
1.0068708
1.0068873
1.0068992
1.0069062
1.0069082
1.0069051
1.0068966
1.0068819
1.0068602
1.006831
1.0067938
1.0067481
1.0066936
1.0066299
1.0065565
1.0064734
1.00638
1.0062767
1.0061636
1.0060409
1.0059094
1.0057692
1.0056203
1.0054628
1.0052966
1.0051212
1.0049368
1.0047415
1.0045382
1.004319
1.0041008
1.0038457
1.0036378
1.0031775
1.0046975
1.0032377
1.0031632
1.003398
1.003414
1.0034222
1.0034692
1.0035154
1.0035579
1.0036047
1.0036553
1.0037082
1.0037637
1.0038218
1.0038826
1.0039459
1.0040118
1.0040802
1.004151
1.0042241
1.0042995
1.0043769
1.0044563
1.0045375
1.0046205
1.004705
1.004791
1.0048782
1.0049665
1.0050557
1.0051456
1.0052361
1.0053268
1.0054176
1.0055082
1.0055983
1.0056878
1.0057763
1.0058636
1.0059494
1.0060334
1.0061155
1.0061953
1.0062725
1.0063472
1.006419
1.0064878
1.0065536
1.0066163
1.006675
1.0067192
1.0067484
1.0067816
1.0068115
1.006836
1.006856
1.0068716
1.0068825
1.0068885
1.0068895
1.0068853
1.0068757
1.0068601
1.0068378
1.0068083
1.0067713
1.0067263
1.0066731
1.006611
1.0065398
1.006459
1.0063684
1.0062676
1.0061566
1.0060354
1.0059038
1.0057626
1.0056119
1.0054521
1.0052839
1.0051072
1.0049226
1.0047289
1.0045289
1.0043158
1.0041041
1.0038611
1.0036582
1.0032994
1.0046523
1.0031891
1.0031548
1.003397
1.003415
1.0034233
1.00347
1.0035161
1.0035586
1.0036052
1.0036558
1.0037087
1.003764
1.0038222
1.0038829
1.0039461
1.0040119
1.0040802
1.0041509
1.0042239
1.0042991
1.0043764
1.0044556
1.0045367
1.0046195
1.0047039
1.0047896
1.0048767
1.0049647
1.0050537
1.0051435
1.0052337
1.0053242
1.0054147
1.0055051
1.0055949
1.0056841
1.0057723
1.0058593
1.0059448
1.0060285
1.0061102
1.0061896
1.0062666
1.0063408
1.0064123
1.0064809
1.0065463
1.0066085
1.0066668
1.0067106
1.006739
1.0067713
1.0068006
1.0068244
1.0068437
1.0068586
1.0068688
1.006874
1.0068742
1.0068693
1.0068589
1.0068426
1.0068197
1.0067897
1.0067525
1.0067077
1.006655
1.0065942
1.0065247
1.0064463
1.0063585
1.006261
1.0061534
1.0060358
1.0059079
1.0057697
1.0056216
1.0054636
1.005296
1.0051192
1.0049342
1.0047402
1.0045404
1.0043293
1.0041197
1.0038843
1.0036822
1.0031873
1.0047011
1.0032391
1.0031634
1.0033953
1.0034148
1.0034236
1.0034703
1.0035167
1.0035593
1.0036059
1.0036565
1.0037093
1.0037646
1.0038227
1.0038833
1.0039464
1.0040121
1.0040803
1.0041508
1.0042237
1.0042987
1.0043759
1.0044549
1.0045359
1.0046185
1.0047026
1.0047882
1.004875
1.0049629
1.0050517
1.0051411
1.0052311
1.0053214
1.0054117
1.0055017
1.0055914
1.0056803
1.0057682
1.0058548
1.00594
1.0060234
1.0061048
1.0061839
1.0062605
1.0063345
1.0064057
1.006474
1.0065392
1.006601
1.0066589
1.0067025
1.0067302
1.0067618
1.0067904
1.0068137
1.0068325
1.006847
1.0068566
1.0068613
1.0068611
1.0068557
1.0068448
1.0068281
1.006805
1.0067749
1.0067377
1.0066931
1.0066409
1.0065808
1.0065126
1.0064359
1.0063504
1.0062559
1.006152
1.0060383
1.0059146
1.0057809
1.0056371
1.0054835
1.0053203
1.0051473
1.0049653
1.0047738
1.0045756
1.0043661
1.0041566
1.0039258
1.0037198
1.0033006
1.0046514
1.0031872
1.0031554
1.0034009
1.0034181
1.0034258
1.0034718
1.0035179
1.0035603
1.0036068
1.0036572
1.0037099
1.0037652
1.0038231
1.0038836
1.0039467
1.0040123
1.0040803
1.0041507
1.0042234
1.0042984
1.0043753
1.0044542
1.004535
1.0046174
1.0047014
1.0047868
1.0048734
1.004961
1.0050496
1.0051389
1.0052286
1.0053186
1.0054087
1.0054985
1.0055878
1.0056765
1.0057641
1.0058505
1.0059354
1.0060185
1.0060996
1.0061784
1.0062549
1.0063287
1.0063997
1.0064678
1.0065328
1.0065943
1.0066519
1.0066953
1.0067226
1.0067536
1.0067818
1.0068046
1.0068231
1.0068371
1.0068464
1.0068508
1.0068502
1.0068445
1.0068335
1.0068167
1.0067935
1.0067636
1.0067267
1.0066825
1.0066309
1.0065715
1.0065043
1.006429
1.0063454
1.0062531
1.0061521
1.006042
1.0059226
1.0057937
1.005655
1.0055064
1.0053483
1.0051806
1.0050038
1.0048177
1.004624
1.0044193
1.0042121
1.0039869
1.003777
1.003196
1.0047043
1.0032396
1.0031635
1.0033933
1.0034153
1.0034248
1.0034713
1.0035179
1.0035606
1.0036072
1.0036576
1.0037104
1.0037656
1.0038235
1.003884
1.0039469
1.0040124
1.0040803
1.0041506
1.0042232
1.0042979
1.0043747
1.0044535
1.0045341
1.0046163
1.0047001
1.0047853
1.0048717
1.0049591
1.0050474
1.0051365
1.005226
1.0053158
1.0054056
1.0054952
1.0055843
1.0056726
1.00576
1.0058461
1.0059307
1.0060135
1.0060944
1.0061731
1.0062494
1.006323
1.006394
1.0064619
1.0065268
1.0065881
1.0066454
1.0066888
1.0067157
1.0067461
1.006774
1.0067966
1.0068147
1.0068286
1.0068377
1.0068419
1.0068412
1.0068354
1.0068243
1.0068075
1.0067845
1.006755
1.0067185
1.006675
1.0066242
1.0065659
1.0065
1.0064261
1.0063441
1.0062539
1.0061552
1.006048
1.0059321
1.0058073
1.0056734
1.0055303
1.0053779
1.0052161
1.0050454
1.0048651
1.0046772
1.004479
1.0042766
1.0040589
1.0038489
1.0033
1.0046496
1.0031876
1.0031584
1.0034036
1.0034207
1.003428
1.0034734
1.0035194
1.0035618
1.0036081
1.0036584
1.003711
1.0037661
1.0038239
1.0038842
1.0039471
1.0040125
1.0040803
1.0041504
1.0042229
1.0042975
1.0043741
1.0044527
1.0045331
1.0046151
1.0046987
1.0047837
1.0048699
1.0049572
1.0050453
1.0051341
1.0052234
1.0053129
1.0054025
1.0054918
1.0055806
1.0056687
1.0057558
1.0058417
1.0059261
1.0060088
1.0060895
1.0061681
1.0062442
1.0063178
1.0063887
1.0064566
1.0065214
1.0065825
1.0066397
1.0066829
1.0067096
1.0067397
1.0067672
1.0067897
1.0068077
1.0068214
1.0068305
1.0068347
1.006834
1.0068283
1.0068173
1.0068007
1.006778
1.006749
1.0067132
1.0066705
1.0066206
1.0065635
1.0064988
1.0064265
1.0063463
1.0062581
1.0061617
1.0060571
1.0059442
1.0058228
1.0056929
1.0055545
1.0054074
1.0052515
1.0050871
1.0049137
1.0047324
1.0045414
1.0043449
1.0041354
1.0039288
1.0032042
1.0047062
1.0032397
1.003164
1.0033925
1.003416
1.0034258
1.0034722
1.0035188
1.0035616
1.0036082
1.0036586
1.0037113
1.0037663
1.0038241
1.0038844
1.0039472
1.0040125
1.0040802
1.0041502
1.0042225
1.004297
1.0043735
1.0044519
1.0045321
1.004614
1.0046974
1.0047822
1.0048682
1.0049552
1.0050431
1.0051317
1.0052208
1.0053101
1.0053994
1.0054884
1.005577
1.0056649
1.0057518
1.0058374
1.0059217
1.0060042
1.0060849
1.0061634
1.0062395
1.0063131
1.0063839
1.0064518
1.0065165
1.0065775
1.0066345
1.0066777
1.0067043
1.006734
1.0067614
1.0067838
1.0068018
1.0068155
1.0068247
1.006829
1.0068285
1.006823
1.0068122
1.0067959
1.0067737
1.0067453
1.0067102
1.0066684
1.0066197
1.0065638
1.0065005
1.0064298
1.0063515
1.0062654
1.0061713
1.0060693
1.0059592
1.005841
1.0057146
1.0055801
1.0054375
1.0052867
1.0051279
1.0049608
1.0047861
1.0046026
1.0044134
1.0042125
1.0040121
1.0032973
1.0046487
1.0031911
1.0031622
1.0034056
1.0034226
1.0034297
1.0034746
1.0035205
1.0035629
1.0036092
1.0036593
1.0037119
1.0037668
1.0038245
1.0038847
1.0039474
1.0040125
1.0040801
1.00415
1.0042222
1.0042965
1.0043728
1.0044511
1.0045311
1.0046128
1.004696
1.0047806
1.0048664
1.0049532
1.0050409
1.0051293
1.0052181
1.0053072
1.0053962
1.0054851
1.0055735
1.0056611
1.0057478
1.0058334
1.0059175
1.006
1.0060806
1.0061591
1.0062353
1.0063089
1.0063798
1.0064477
1.0065123
1.0065732
1.00663
1.0066732
1.0066997
1.0067292
1.0067565
1.0067789
1.006797
1.0068108
1.0068202
1.0068248
1.0068245
1.0068194
1.006809
1.0067932
1.0067716
1.0067438
1.0067096
1.0066688
1.0066212
1.0065666
1.0065048
1.0064358
1.0063593
1.0062752
1.0061835
1.006084
1.0059767
1.0058616
1.0057386
1.0056077
1.0054691
1.0053227
1.0051687
1.005007
1.0048382
1.0046613
1.0044789
1.0042859
1.0040933
1.0032112
1.0047067
1.0032393
1.0031647
1.0033919
1.0034168
1.0034269
1.0034732
1.0035199
1.0035628
1.0036093
1.0036596
1.0037122
1.0037671
1.0038248
1.0038849
1.0039475
1.0040126
1.00408
1.0041498
1.0042218
1.004296
1.0043722
1.0044502
1.0045301
1.0046116
1.0046946
1.004779
1.0048646
1.0049513
1.0050387
1.0051269
1.0052155
1.0053043
1.0053932
1.0054818
1.00557
1.0056576
1.0057442
1.0058297
1.0059138
1.0059963
1.0060769
1.0061555
1.0062317
1.0063053
1.0063763
1.0064442
1.0065088
1.0065695
1.0066262
1.0066694
1.0066959
1.0067252
1.0067524
1.0067748
1.0067931
1.0068072
1.0068168
1.0068218
1.006822
1.0068173
1.0068074
1.0067922
1.0067712
1.0067443
1.0067111
1.0066713
1.0066249
1.0065716
1.0065114
1.006444
1.0063694
1.0062874
1.0061979
1.0061009
1.0059963
1.0058842
1.0057644
1.005637
1.0055021
1.0053598
1.0052102
1.0050533
1.0048896
1.0047183
1.0045419
1.0043556
1.0041702
1.0032925
1.0046484
1.0031972
1.0031663
1.0034071
1.0034242
1.0034311
1.0034757
1.0035216
1.003564
1.0036102
1.0036603
1.0037127
1.0037676
1.0038251
1.0038851
1.0039476
1.0040125
1.0040799
1.0041495
1.0042214
1.0042954
1.0043714
1.0044493
1.004529
1.0046104
1.0046932
1.0047774
1.0048629
1.0049493
1.0050366
1.0051246
1.005213
1.0053017
1.0053904
1.0054789
1.005567
1.0056545
1.005741
1.0058265
1.0059106
1.0059932
1.0060739
1.0061525
1.0062288
1.0063024
1.0063734
1.0064412
1.0065057
1.0065663
1.0066228
1.006666
1.0066925
1.0067217
1.0067489
1.0067716
1.0067901
1.0068045
1.0068145
1.00682
1.0068207
1.0068165
1.0068073
1.0067928
1.0067726
1.0067466
1.0067144
1.0066758
1.0066306
1.0065788
1.00652
1.0064544
1.0063816
1.0063016
1.0062143
1.0061197
1.0060178
1.0059085
1.0057918
1.0056677
1.0055364
1.005398
1.0052525
1.0050999
1.0049409
1.0047747
1.0046036
1.004423
1.0042437
1.0032172
1.0047046
1.0032393
1.0031664
1.003392
1.0034181
1.0034285
1.0034745
1.0035212
1.003564
1.0036104
1.0036605
1.003713
1.0037678
1.0038252
1.0038852
1.0039476
1.0040124
1.0040797
1.0041492
1.004221
1.0042948
1.0043707
1.0044485
1.004528
1.0046092
1.0046919
1.004776
1.0048613
1.0049476
1.0050347
1.0051225
1.0052108
1.0052994
1.005388
1.0054765
1.0055645
1.005652
1.0057385
1.005824
1.0059082
1.0059907
1.0060715
1.0061501
1.0062263
1.0063
1.0063709
1.0064386
1.006503
1.0065634
1.0066197
1.0066629
1.0066895
1.0067186
1.006746
1.0067689
1.0067878
1.0068026
1.0068132
1.0068192
1.0068205
1.0068171
1.0068086
1.0067948
1.0067756
1.0067506
1.0067195
1.0066821
1.0066382
1.0065878
1.0065307
1.0064667
1.0063957
1.0063178
1.0062327
1.0061404
1.006041
1.0059343
1.0058206
1.0056997
1.0055718
1.0054369
1.0052953
1.0051469
1.0049922
1.0048306
1.0046643
1.004489
1.0043147
1.0032856
1.0046494
1.0032075
1.0031707
1.0034076
1.0034248
1.0034316
1.003476
1.0035219
1.0035645
1.0036106
1.0036607
1.0037131
1.0037678
1.0038252
1.0038851
1.0039475
1.0040123
1.0040795
1.0041489
1.0042206
1.0042944
1.0043702
1.0044478
1.0045273
1.0046084
1.0046909
1.0047749
1.00486
1.0049462
1.0050333
1.005121
1.0052092
1.0052977
1.0053863
1.0054747
1.0055627
1.0056501
1.0057367
1.0058221
1.0059063
1.0059888
1.0060695
1.006148
1.0062242
1.0062978
1.0063685
1.0064362
1.0065004
1.0065606
1.0066168
1.0066601
1.0066869
1.0067161
1.0067437
1.006767
1.0067863
1.0068017
1.0068129
1.0068196
1.0068217
1.0068191
1.0068114
1.0067986
1.0067803
1.0067564
1.0067264
1.0066903
1.0066478
1.0065989
1.0065433
1.006481
1.0064119
1.0063359
1.0062529
1.0061629
1.0060658
1.0059618
1.0058508
1.0057329
1.0056082
1.0054767
1.0053387
1.0051941
1.0050435
1.0048862
1.0047243
1.0045539
1.0043842
1.0032209
1.0047032
1.0032399
1.0031682
1.0033924
1.0034191
1.0034294
1.0034751
1.0035217
1.0035646
1.0036109
1.003661
1.0037135
1.0037682
1.0038256
1.0038855
1.0039478
1.0040126
1.0040797
1.0041491
1.0042207
1.0042944
1.0043701
1.0044477
1.004527
1.004608
1.0046905
1.0047743
1.0048594
1.0049455
1.0050325
1.0051201
1.0052083
1.0052967
1.0053852
1.0054735
1.0055614
1.0056488
1.0057353
1.0058206
1.0059047
1.0059871
1.0060677
1.0061461
1.0062222
1.0062956
1.0063663
1.0064338
1.0064979
1.0065581
1.0066142
1.0066578
1.006685
1.0067144
1.0067423
1.0067661
1.0067861
1.0068022
1.0068142
1.0068217
1.0068247
1.0068229
1.0068163
1.0068044
1.0067872
1.0067644
1.0067357
1.0067009
1.0066598
1.0066124
1.0065584
1.0064978
1.0064305
1.0063563
1.0062753
1.0061875
1.0060928
1.0059912
1.0058828
1.0057677
1.0056459
1.0055176
1.0053829
1.0052419
1.005095
1.0049417
1.0047839
1.0046181
1.0044524
1.0032789
1.0046459
1.0032153
1.0031734
1.0034068
1.0034246
1.0034318
1.0034764
1.0035226
1.0035654
1.0036117
1.0036618
1.0037143
1.003769
1.0038264
1.0038863
1.0039486
1.0040133
1.0040804
1.0041497
1.0042213
1.0042949
1.0043705
1.004448
1.0045272
1.0046081
1.0046905
1.0047743
1.0048593
1.0049453
1.0050322
1.0051198
1.0052078
1.0052961
1.0053845
1.0054728
1.0055606
1.0056478
1.0057342
1.0058195
1.0059034
1.0059857
1.0060662
1.0061446
1.0062205
1.0062939
1.0063645
1.006432
1.0064962
1.0065566
1.0066128
1.0066567
1.0066845
1.0067144
1.0067429
1.0067674
1.0067881
1.0068051
1.006818
1.0068264
1.0068304
1.0068296
1.006824
1.0068131
1.0067971
1.0067755
1.0067481
1.0067146
1.006675
1.006629
1.0065766
1.0065177
1.0064521
1.0063798
1.0063007
1.0062149
1.0061224
1.0060231
1.0059172
1.0058047
1.0056857
1.0055603
1.0054287
1.005291
1.0051475
1.0049979
1.0048438
1.0046821
1.0045202
1.0032113
1.0046981
1.0032403
1.0031719
1.0033958
1.0034222
1.0034323
1.0034776
1.0035241
1.0035671
1.0036133
1.0036634
1.0037158
1.0037705
1.0038279
1.0038877
1.0039499
1.0040146
1.0040816
1.0041508
1.0042223
1.0042958
1.0043713
1.0044487
1.0045279
1.0046087
1.004691
1.0047747
1.0048596
1.0049456
1.0050324
1.0051199
1.0052079
1.0052961
1.0053844
1.0054726
1.0055603
1.0056475
1.0057338
1.005819
1.0059029
1.0059852
1.0060657
1.006144
1.0062201
1.0062935
1.0063643
1.006432
1.0064965
1.0065572
1.0066139
1.0066583
1.0066869
1.0067174
1.0067467
1.0067721
1.0067938
1.0068117
1.0068256
1.0068351
1.0068401
1.0068405
1.006836
1.0068262
1.0068114
1.006791
1.0067649
1.0067328
1.0066946
1.0066501
1.0065992
1.0065419
1.006478
1.0064075
1.0063303
1.0062464
1.0061559
1.0060588
1.0059551
1.005845
1.0057286
1.0056059
1.0054772
1.0053425
1.0052022
1.0050559
1.0049052
1.0047473
1.0045885
1.0032443
1.0046564
1.0032345
1.0031794
1.0034071
1.0034263
1.0034341
1.0034788
1.0035252
1.0035683
1.0036146
1.0036647
1.0037172
1.0037719
1.0038293
1.0038891
1.0039513
1.0040159
1.0040829
1.004152
1.0042234
1.0042969
1.0043724
1.0044497
1.0045288
1.0046096
1.004692
1.0047757
1.0048606
1.0049465
1.0050334
1.0051209
1.0052089
1.0052971
1.0053854
1.0054736
1.0055615
1.0056487
1.0057351
1.0058204
1.0059044
1.0059869
1.0060676
1.0061462
1.0062225
1.0062963
1.0063674
1.0064356
1.0065006
1.0065619
1.0066193
1.0066645
1.0066942
1.0067255
1.0067557
1.0067821
1.0068049
1.0068239
1.0068389
1.0068495
1.0068557
1.0068571
1.0068538
1.0068452
1.0068316
1.0068125
1.0067877
1.0067569
1.0067201
1.0066771
1.0066277
1.0065719
1.0065096
1.0064408
1.0063653
1.0062833
1.0061948
1.0060997
1.0059982
1.0058903
1.0057763
1.0056561
1.00553
1.0053981
1.0052607
1.0051174
1.0049698
1.0048154
1.0046594
1.0032136
1.0046953
1.0032454
1.0031777
1.0033993
1.0034258
1.0034356
1.0034807
1.0035271
1.0035701
1.0036164
1.0036665
1.0037189
1.0037735
1.0038309
1.0038906
1.0039528
1.0040173
1.0040843
1.0041534
1.0042249
1.0042984
1.0043739
1.0044513
1.0045305
1.0046114
1.0046939
1.0047778
1.0048629
1.004949
1.0050361
1.0051238
1.005212
1.0053005
1.0053891
1.0054776
1.0055657
1.0056533
1.00574
1.0058257
1.0059102
1.0059931
1.0060742
1.0061533
1.0062302
1.0063046
1.0063763
1.0064452
1.0065111
1.0065733
1.0066316
1.0066777
1.0067086
1.006741
1.0067721
1.0067997
1.0068236
1.0068438
1.0068599
1.0068717
1.006879
1.0068816
1.0068794
1.0068721
1.0068596
1.0068417
1.0068182
1.0067887
1.0067533
1.0067117
1.0066638
1.0066095
1.0065487
1.0064815
1.0064077
1.0063275
1.0062407
1.0061476
1.0060481
1.0059423
1.0058304
1.0057126
1.0055889
1.0054595
1.0053247
1.0051842
1.0050394
1.0048881
1.0047346
1.0032678
1.0046507
1.0032404
1.003182
1.0034065
1.003428
1.0034368
1.0034817
1.0035283
1.0035715
1.0036178
1.0036679
1.0037203
1.003775
1.0038323
1.0038921
1.0039544
1.004019
1.0040861
1.0041555
1.0042271
1.0043009
1.0043767
1.0044545
1.0045341
1.0046155
1.0046984
1.0047828
1.0048684
1.0049551
1.0050426
1.0051309
1.0052197
1.0053088
1.005398
1.0054871
1.0055759
1.0056642
1.0057516
1.005838
1.0059231
1.0060068
1.0060887
1.0061686
1.0062463
1.0063215
1.0063941
1.0064639
1.0065308
1.006594
1.0066534
1.0067006
1.0067327
1.0067662
1.0067984
1.0068271
1.0068522
1.0068734
1.0068907
1.0069036
1.006912
1.0069157
1.0069146
1.0069084
1.0068971
1.0068804
1.006858
1.0068299
1.0067958
1.0067555
1.006709
1.0066561
1.0065969
1.0065312
1.006459
1.0063804
1.0062954
1.0062041
1.0061064
1.0060027
1.0058929
1.0057772
1.0056558
1.0055288
1.0053964
1.0052587
1.0051164
1.0049682
1.004817
1.0032245
1.0046952
1.0032477
1.0031841
1.003407
1.0034309
1.0034395
1.0034837
1.0035299
1.0035728
1.003619
1.0036691
1.0037216
1.0037765
1.0038341
1.0038943
1.003957
1.0040222
1.0040898
1.0041598
1.0042321
1.0043067
1.0043833
1.0044619
1.0045424
1.0046247
1.0047085
1.0047938
1.0048804
1.004968
1.0050565
1.0051458
1.0052356
1.0053257
1.0054159
1.005506
1.0055958
1.005685
1.0057734
1.0058608
1.0059469
1.0060315
1.0061143
1.0061952
1.0062739
1.0063501
1.0064237
1.0064945
1.0065625
1.0066269
1.0066873
1.0067357
1.006769
1.0068035
1.0068368
1.0068666
1.0068927
1.006915
1.0069333
1.0069472
1.0069566
1.0069614
1.0069612
1.0069562
1.0069458
1.0069302
1.006909
1.0068821
1.0068492
1.0068102
1.006765
1.0067135
1.0066556
1.0065914
1.0065208
1.0064437
1.0063603
1.0062707
1.0061748
1.0060729
1.005965
1.0058513
1.005732
1.0056071
1.0054771
1.0053417
1.0052018
1.0050564
1.0049072
1.0032516
1.0046652
1.0032607
1.0031863
1.0034077
1.0034296
1.0034384
1.0034831
1.0035298
1.0035732
1.00362
1.0036707
1.003724
1.0037798
1.0038384
1.0038996
1.0039635
1.0040298
1.0040988
1.0041701
1.0042438
1.0043197
1.0043978
1.0044779
1.0045598
1.0046435
1.0047288
1.0048155
1.0049034
1.0049924
1.0050823
1.0051729
1.005264
1.0053554
1.0054469
1.0055382
1.0056292
1.0057196
1.0058091
1.0058976
1.0059848
1.0060704
1.0061543
1.0062362
1.0063159
1.0063932
1.0064678
1.0065396
1.0066087
1.0066742
1.0067356
1.0067851
1.0068194
1.0068549
1.0068891
1.0069198
1.0069469
1.00697
1.0069892
1.0070039
1.0070142
1.0070198
1.0070206
1.0070164
1.007007
1.0069923
1.0069721
1.0069462
1.0069145
1.0068767
1.0068327
1.0067825
1.006726
1.0066632
1.006594
1.0065185
1.0064367
1.0063487
1.0062545
1.0061544
1.0060483
1.0059366
1.0058193
1.0056965
1.0055687
1.0054356
1.0052981
1.0051555
1.0050083
1.003234
1.0046939
1.0032507
1.0031852
1.003406
1.0034298
1.0034387
1.0034835
1.0035309
1.0035755
1.0036238
1.0036762
1.0037314
1.0037892
1.0038499
1.0039132
1.0039792
1.0040478
1.0041189
1.0041923
1.0042681
1.0043461
1.0044262
1.0045082
1.0045921
1.0046776
1.0047646
1.004853
1.0049426
1.0050332
1.0051247
1.0052168
1.0053093
1.005402
1.0054948
1.0055875
1.0056797
1.0057712
1.0058619
1.0059514
1.0060396
1.0061263
1.0062111
1.006294
1.0063746
1.0064528
1.0065283
1.0066011
1.006671
1.0067375
1.0067998
1.0068502
1.0068854
1.0069217
1.0069567
1.0069882
1.007016
1.00704
1.0070598
1.0070753
1.0070863
1.0070927
1.0070942
1.0070908
1.0070822
1.0070684
1.0070491
1.0070241
1.0069934
1.0069566
1.0069138
1.0068648
1.0068095
1.006748
1.0066801
1.0066059
1.0065255
1.0064389
1.0063463
1.0062477
1.0061432
1.0060331
1.0059175
1.0057965
1.0056705
1.0055394
1.0054037
1.0052635
1.0051178
1.0032713
1.0046591
1.003242
1.0031797
1.0034031
1.0034269
1.0034382
1.0034862
1.003537
1.0035851
1.0036369
1.0036929
1.0037516
1.0038127
1.0038768
1.0039433
1.0040124
1.0040839
1.0041578
1.0042339
1.0043122
1.0043925
1.0044748
1.0045589
1.0046448
1.0047322
1.004821
1.004911
1.0050022
1.0050943
1.0051871
1.0052805
1.0053743
1.0054683
1.0055622
1.0056559
1.0057491
1.0058416
1.0059331
1.0060235
1.0061126
1.0062
1.0062856
1.0063692
1.0064506
1.0065295
1.0066058
1.0066793
1.00675
1.0068174
1.0068803
1.0069316
1.0069675
1.0070045
1.0070402
1.0070724
1.0071008
1.0071254
1.0071459
1.007162
1.0071736
1.0071806
1.0071828
1.00718
1.0071721
1.0071591
1.0071406
1.0071165
1.0070867
1.0070509
1.0070091
1.0069612
1.0069071
1.0068467
1.0067801
1.0067073
1.0066283
1.0065431
1.0064519
1.0063548
1.0062519
1.0061435
1.0060296
1.0059104
1.0057862
1.005657
1.0055233
1.0053855
1.0052414
1.0032508
1.0046549
1.0032438
1.0031755
1.0033968
1.0034321
1.0034501
1.0035035
1.00356
1.0036137
1.0036709
1.0037319
1.0037954
1.0038609
1.0039288
1.003999
1.0040714
1.0041458
1.0042224
1.0043009
1.0043814
1.0044638
1.0045479
1.0046337
1.004721
1.0048098
1.0048999
1.0049911
1.0050834
1.0051765
1.0052703
1.0053646
1.0054592
1.005554
1.0056486
1.005743
1.0058369
1.0059301
1.0060223
1.0061133
1.006203
1.006291
1.0063773
1.0064616
1.0065436
1.0066232
1.0067002
1.0067744
1.0068458
1.0069139
1.0069776
1.0070297
1.0070665
1.0071041
1.0071404
1.0071732
1.0072024
1.0072276
1.0072487
1.0072655
1.0072777
1.0072853
1.0072882
1.007286
1.0072789
1.0072665
1.0072487
1.0072254
1.0071964
1.0071614
1.0071205
1.0070735
1.0070204
1.006961
1.0068955
1.0068237
1.0067457
1.0066617
1.0065716
1.0064756
1.0063738
1.0062665
1.0061537
1.0060357
1.0059126
1.0057847
1.0056519
1.0055158
1.0053719
1.0031841
1.0046665
1.0032491
1.0031842
1.0034163
1.0034591
1.0034872
1.0035498
1.0036145
1.0036755
1.0037388
1.0038049
1.0038726
1.0039417
1.0040128
1.0040856
1.0041603
1.0042367
1.0043146
1.0043941
1.0044757
1.0045589
1.0046438
1.0047303
1.0048182
1.0049075
1.004998
1.0050897
1.0051824
1.0052759
1.00537
1.0054648
1.0055598
1.005655
1.0057501
1.0058449
1.0059393
1.006033
1.0061257
1.0062173
1.0063075
1.0063962
1.0064831
1.0065681
1.0066508
1.0067312
1.006809
1.006884
1.0069562
1.0070253
1.0070899
1.0071432
1.0071807
1.0072191
1.0072562
1.0072899
1.0073198
1.0073459
1.0073678
1.0073853
1.0073983
1.0074067
1.0074102
1.0074088
1.0074024
1.0073907
1.0073738
1.0073513
1.0073231
1.0072891
1.0072491
1.0072031
1.007151
1.0070928
1.0070283
1.0069577
1.006881
1.0067982
1.0067094
1.0066148
1.0065145
1.0064086
1.0062973
1.0061809
1.0060593
1.005933
1.0058017
1.0056677
1.0055244
1.0031277
1.0046595
1.0032607
1.0032262
1.0034801
1.0035362
1.0035736
1.0036443
1.0037146
1.0037796
1.0038458
1.0039139
1.003983
1.004053
1.0041244
1.0041972
1.0042716
1.0043475
1.0044252
1.0045044
1.0045855
1.0046682
1.0047526
1.0048387
1.0049263
1.0050154
1.0051059
1.0051975
1.0052903
1.005384
1.0054784
1.0055735
1.0056689
1.0057646
1.0058603
1.0059558
1.0060509
1.0061454
1.006239
1.0063315
1.0064227
1.0065124
1.0066005
1.0066866
1.0067705
1.0068521
1.0069312
1.0070075
1.007081
1.0071515
1.0072176
1.0072722
1.007311
1.0073504
1.0073888
1.0074236
1.0074547
1.0074818
1.0075048
1.0075233
1.0075373
1.0075465
1.0075509
1.0075503
1.0075446
1.0075336
1.0075174
1.0074955
1.007468
1.0074346
1.0073953
1.00735
1.0072985
1.007241
1.0071772
1.0071073
1.0070313
1.0069492
1.0068612
1.0067672
1.0066675
1.0065622
1.0064515
1.0063355
1.0062144
1.0060885
1.0059571
1.0058237
1.0056791
1.0030469
1.0047217
1.0033344
1.0033391
1.0036091
1.0036683
1.0037084
1.0037796
1.0038492
1.0039121
1.0039754
1.0040403
1.0041061
1.0041728
1.0042412
1.0043113
1.0043833
1.0044571
1.004533
1.0046109
1.0046908
1.0047727
1.0048564
1.0049421
1.0050295
1.0051186
1.0052092
1.0053012
1.0053944
1.0054887
1.005584
1.0056799
1.0057764
1.0058732
1.0059702
1.006067
1.0061634
1.0062593
1.0063545
1.0064486
1.0065415
1.0066329
1.0067226
1.0068105
1.0068962
1.0069796
1.0070604
1.0071386
1.0072139
1.0072862
1.0073542
1.0074109
1.007451
1.0074918
1.0075316
1.0075679
1.0076003
1.0076287
1.0076529
1.0076725
1.0076875
1.0076976
1.0077029
1.0077032
1.0076982
1.007688
1.0076724
1.0076513
1.0076244
1.0075918
1.0075532
1.0075087
1.0074581
1.0074014
1.0073386
1.0072698
1.0071949
1.007114
1.0070272
1.0069346
1.0068363
1.0067324
1.0066231
1.0065087
1.0063891
1.0062647
1.0061347
1.0060032
1.0058589
1.0030862
1.00487
1.0034941
1.0035031