/*--------------------------------*- C++ -*----------------------------------*\
| =========                 |                                                 |
| \\      /  F ield         | OpenFOAM: The Open Source CFD Toolbox           |
|  \\    /   O peration     | Version:  2406                                  |
|   \\  /    A nd           | Website:  www.openfoam.com                      |
|    \\/     M anipulation  |                                                 |
\*---------------------------------------------------------------------------*/
FoamFile
{
    version     2.0;
    format      ascii;
    arch        "LSB;label=32;scalar=64";
    class       volScalarField;
    location    "12";
    object      k;
}
// * * * * * * * * * * * * * * * * * * * * * * * * * * * * * * * * * * * * * //

dimensions      [0 2 -2 0 0 0 0];

internalField   nonuniform List<scalar> 
96472
(
3.2478768e-06
2.4797165e-06
2.0301237e-06
1.8164401e-06
1.681785e-06
1.5487909e-06
1.3936291e-06
1.2307437e-06
1.087756e-06
9.8338036e-07
9.2013985e-07
8.8906016e-07
8.7579032e-07
8.6706181e-07
8.544693e-07
8.33483e-07
8.0284951e-07
7.6752727e-07
7.3311597e-07
7.0331562e-07
6.7935077e-07
6.6129488e-07
6.4868681e-07
6.4036136e-07
6.347664e-07
6.3095651e-07
6.2829201e-07
6.267382e-07
6.2586267e-07
6.2618882e-07
6.2669152e-07
6.2906017e-07
6.316465e-07
6.3671035e-07
6.4373834e-07
6.5432411e-07
6.6651511e-07
6.781347e-07
6.917141e-07
6.9749564e-07
7.0588059e-07
7.0658388e-07
7.1323002e-07
7.1454339e-07
7.2231416e-07
7.3352165e-07
7.5069549e-07
7.7037594e-07
7.9632634e-07
8.2685521e-07
8.579109e-07
9.0330354e-07
9.3527379e-07
9.8364332e-07
1.0528069e-06
3.2473597e-06
2.4811904e-06
2.0320578e-06
1.8174345e-06
1.6828434e-06
1.5512331e-06
1.3976661e-06
1.2355246e-06
1.0920213e-06
9.8615293e-07
9.2131084e-07
8.889841e-07
8.7536177e-07
8.6690895e-07
8.5462129e-07
8.3355275e-07
8.0428026e-07
7.7037589e-07
7.3624938e-07
7.0636216e-07
6.8205639e-07
6.6346566e-07
6.500836e-07
6.4130394e-07
6.3541216e-07
6.3162739e-07
6.2899472e-07
6.2712546e-07
6.2590624e-07
6.2525283e-07
6.2517622e-07
6.2529312e-07
6.2574082e-07
6.2661981e-07
6.2869111e-07
6.3101031e-07
6.351001e-07
6.4139898e-07
6.5437962e-07
6.6708707e-07
6.8530556e-07
6.9789547e-07
7.0904855e-07
7.1900535e-07
7.24619e-07
7.352868e-07
7.4379733e-07
7.6211293e-07
7.7472736e-07
8.0418715e-07
8.2139427e-07
8.5621318e-07
8.9244837e-07
9.2155889e-07
9.9011707e-07
3.248977e-06
2.4850566e-06
2.0345916e-06
1.8190248e-06
1.6847151e-06
1.5544383e-06
1.4022735e-06
1.2407199e-06
1.0965133e-06
9.8912689e-07
9.2270298e-07
8.8918263e-07
8.7516906e-07
8.6707983e-07
8.5563362e-07
8.3567865e-07
8.0706106e-07
7.7330453e-07
7.3911017e-07
7.0879256e-07
6.8398118e-07
6.6509483e-07
6.512824e-07
6.4208262e-07
6.3574508e-07
6.3181412e-07
6.2908865e-07
6.2747177e-07
6.2612691e-07
6.2578113e-07
6.2574991e-07
6.2618722e-07
6.2687211e-07
6.2835612e-07
6.2990212e-07
6.3229485e-07
6.3424572e-07
6.3765115e-07
6.4074138e-07
6.4738866e-07
6.5352346e-07
6.6801892e-07
6.7977852e-07
7.0376456e-07
7.1390742e-07
7.3104738e-07
7.3856719e-07
7.5643648e-07
7.65798e-07
7.8532447e-07
8.0561376e-07
8.2190476e-07
8.5433972e-07
8.7452996e-07
9.2806812e-07
3.2507051e-06
2.48874e-06
2.0369796e-06
1.820527e-06
1.6864545e-06
1.5574643e-06
1.4068164e-06
1.2458579e-06
1.1010844e-06
9.9233093e-07
9.2427534e-07
8.8951113e-07
8.749437e-07
8.6704826e-07
8.5636957e-07
8.3759941e-07
8.1026447e-07
7.7733348e-07
7.4340791e-07
7.1290403e-07
6.8755178e-07
6.6794908e-07
6.5352039e-07
6.43772e-07
6.3699072e-07
6.3255383e-07
6.2942449e-07
6.2747949e-07
6.2600292e-07
6.2533957e-07
6.2523489e-07
6.2546144e-07
6.2597364e-07
6.2745855e-07
6.2885337e-07
6.3198401e-07
6.3395506e-07
6.3790702e-07
6.4020696e-07
6.452406e-07
6.4843071e-07
6.5600032e-07
6.615537e-07
6.7553929e-07
6.8539169e-07
7.0854335e-07
7.2048075e-07
7.4137713e-07
7.5742211e-07
7.7064198e-07
7.9292883e-07
8.0527928e-07
8.3107332e-07
8.4626272e-07
8.8336042e-07
3.2524911e-06
2.4926218e-06
2.039483e-06
1.8221352e-06
1.6882937e-06
1.5605504e-06
1.4113032e-06
1.2509576e-06
1.1057036e-06
9.9557262e-07
9.259081e-07
8.8989438e-07
8.7477659e-07
8.6706204e-07
8.5719574e-07
8.3924336e-07
8.1270378e-07
7.8030267e-07
7.4644395e-07
7.1574017e-07
6.9014245e-07
6.7019328e-07
6.5524294e-07
6.451486e-07
6.3805035e-07
6.3352704e-07
6.3013321e-07
6.2816378e-07
6.2645188e-07
6.2561376e-07
6.2530013e-07
6.2543597e-07
6.2576894e-07
6.2693742e-07
6.2797549e-07
6.3066062e-07
6.3245216e-07
6.3665006e-07
6.3895438e-07
6.4425503e-07
6.4701388e-07
6.5372836e-07
6.5740019e-07
6.652438e-07
6.7306443e-07
6.8321114e-07
6.9867473e-07
7.098948e-07
7.3376956e-07
7.4620642e-07
7.71462e-07
7.8463539e-07
8.1100392e-07
8.2473171e-07
8.5669421e-07
3.2542887e-06
2.4964095e-06
2.0418746e-06
1.8236888e-06
1.6900853e-06
1.5635857e-06
1.415791e-06
1.2561259e-06
1.1104109e-06
9.9894849e-07
9.2768267e-07
8.9036472e-07
8.7468249e-07
8.6704219e-07
8.578638e-07
8.410373e-07
8.1548508e-07
7.8387808e-07
7.5041308e-07
7.1942279e-07
6.9334618e-07
6.7289001e-07
6.5742261e-07
6.4664902e-07
6.3910039e-07
6.3420196e-07
6.3058619e-07
6.284873e-07
6.266457e-07
6.2566874e-07
6.249836e-07
6.2501325e-07
6.2522076e-07
6.2609216e-07
6.2693488e-07
6.292182e-07
6.3072449e-07
6.3425971e-07
6.3642907e-07
6.41298e-07
6.4450189e-07
6.4954142e-07
6.5531666e-07
6.5983714e-07
6.6855674e-07
6.7416092e-07
6.8580464e-07
6.9344079e-07
7.101392e-07
7.204234e-07
7.4245736e-07
7.5462763e-07
7.8040693e-07
7.9421268e-07
8.2598192e-07
3.2560135e-06
2.5001946e-06
2.0443386e-06
1.8253267e-06
1.6918949e-06
1.5665823e-06
1.4202256e-06
1.2612637e-06
1.1151717e-06
1.0024505e-06
9.2960575e-07
8.9093846e-07
8.7455622e-07
8.6698418e-07
8.5837765e-07
8.4256181e-07
8.1809768e-07
7.871159e-07
7.5400872e-07
7.2293716e-07
6.9645065e-07
6.7542226e-07
6.5955238e-07
6.4839854e-07
6.4045974e-07
6.3525823e-07
6.3135528e-07
6.2901738e-07
6.2717441e-07
6.2609979e-07
6.2524875e-07
6.2511554e-07
6.251866e-07
6.2575034e-07
6.2644901e-07
6.2802978e-07
6.2971847e-07
6.3195218e-07
6.348052e-07
6.3748202e-07
6.4195282e-07
6.4496613e-07
6.5118329e-07
6.5510241e-07
6.6316863e-07
6.6798406e-07
6.7816944e-07
6.8416276e-07
6.9694224e-07
7.047391e-07
7.2121501e-07
7.3134654e-07
7.5190696e-07
7.6392435e-07
7.9126316e-07
3.257976e-06
2.50419e-06
2.0468088e-06
1.8269976e-06
1.6937542e-06
1.5695956e-06
1.4246298e-06
1.2664244e-06
1.1200558e-06
1.0061333e-06
9.3167279e-07
8.9161009e-07
8.7440317e-07
8.6682814e-07
8.5894286e-07
8.4413584e-07
8.2083836e-07
7.906375e-07
7.5774399e-07
7.2652921e-07
6.996847e-07
6.7802966e-07
6.6161368e-07
6.4993967e-07
6.417142e-07
6.3619361e-07
6.321308e-07
6.2950877e-07
6.2757247e-07
6.2624888e-07
6.2535407e-07
6.2499274e-07
6.2499568e-07
6.2523492e-07
6.2594944e-07
6.2683842e-07
6.2879866e-07
6.3031024e-07
6.3320734e-07
6.3520412e-07
6.3914759e-07
6.4180408e-07
6.4718499e-07
6.5045922e-07
6.5761741e-07
6.6189383e-07
6.7089557e-07
6.7620341e-07
6.8746386e-07
6.94043e-07
7.0782081e-07
7.1558969e-07
7.3230822e-07
7.4184277e-07
7.6395583e-07
3.2595436e-06
2.5077782e-06
2.0492506e-06
1.8287149e-06
1.6955821e-06
1.5725651e-06
1.4290816e-06
1.2717252e-06
1.1250779e-06
1.0098817e-06
9.3372513e-07
8.922086e-07
8.7428864e-07
8.6670982e-07
8.5956166e-07
8.4578303e-07
8.2338959e-07
7.939253e-07
7.6131218e-07
7.2986636e-07
7.0266813e-07
6.8061187e-07
6.6369239e-07
6.5148317e-07
6.4298279e-07
6.3716552e-07
6.3309537e-07
6.3013217e-07
6.2817982e-07
6.2676159e-07
6.2583345e-07
6.2518518e-07
6.2510518e-07
6.2522792e-07
6.2569491e-07
6.2637025e-07
6.2791066e-07
6.291498e-07
6.3174742e-07
6.3341046e-07
6.3695759e-07
6.3911885e-07
6.4373142e-07
6.4669067e-07
6.5273288e-07
6.564199e-07
6.6436204e-07
6.6906571e-07
6.7911365e-07
6.8463047e-07
6.9692576e-07
7.036074e-07
7.1820655e-07
7.2596234e-07
7.4425441e-07
3.2619543e-06
2.5123245e-06
2.0518712e-06
1.8304786e-06
1.6974519e-06
1.575564e-06
1.4335331e-06
1.2770193e-06
1.1301003e-06
1.0136669e-06
9.3586047e-07
8.9291695e-07
8.7427202e-07
8.6663998e-07
8.5996478e-07
8.4710676e-07
8.2562368e-07
7.9675826e-07
7.6454833e-07
7.3308484e-07
7.0547499e-07
6.8297554e-07
6.6565395e-07
6.5305614e-07
6.4424544e-07
6.3809736e-07
6.3381521e-07
6.3072782e-07
6.28717e-07
6.2722721e-07
6.2617409e-07
6.2540649e-07
6.2517256e-07
6.2518781e-07
6.255066e-07
6.2601077e-07
6.2723722e-07
6.2829009e-07
6.3045424e-07
6.3197755e-07
6.3495946e-07
6.3693082e-07
6.4100573e-07
6.4344953e-07
6.4876852e-07
6.5203731e-07
6.5888615e-07
6.6302977e-07
6.7151664e-07
6.7691492e-07
6.8729289e-07
6.9361365e-07
7.0611374e-07
7.1295787e-07
7.2848928e-07
3.2632299e-06
2.5154638e-06
2.0542318e-06
1.8322443e-06
1.699326e-06
1.5785074e-06
1.4378793e-06
1.2822477e-06
1.1351555e-06
1.0175861e-06
9.3820831e-07
8.9383418e-07
8.7426441e-07
8.6648359e-07
8.6022585e-07
8.4812949e-07
8.2771363e-07
7.996218e-07
7.6772725e-07
7.3637347e-07
7.0848511e-07
6.8547343e-07
6.6763441e-07
6.5458228e-07
6.4548109e-07
6.3912924e-07
6.3471618e-07
6.3148635e-07
6.2926647e-07
6.2764871e-07
6.2658419e-07
6.2578136e-07
6.2540077e-07
6.2535767e-07
6.2550598e-07
6.2588764e-07
6.2678262e-07
6.2763302e-07
6.2947966e-07
6.3076203e-07
6.334207e-07
6.3512549e-07
6.3861507e-07
6.4083922e-07
6.4547383e-07
6.4826181e-07
6.542168e-07
6.5774276e-07
6.6548455e-07
6.6979871e-07
6.7906831e-07
6.8446195e-07
6.9545151e-07
7.0194009e-07
7.1487827e-07
3.2661446e-06
2.5207419e-06
2.0570103e-06
1.8341412e-06
1.7012975e-06
1.5814691e-06
1.4421845e-06
1.2874172e-06
1.1402226e-06
1.0216522e-06
9.4072905e-07
8.9489168e-07
8.7433284e-07
8.6623639e-07
8.6042079e-07
8.4912864e-07
8.2962369e-07
8.024433e-07
7.7097754e-07
7.3960061e-07
7.1151769e-07
6.8809416e-07
6.6972521e-07
6.5614868e-07
6.4664375e-07
6.4007659e-07
6.3550749e-07
6.3213987e-07
6.2982593e-07
6.281535e-07
6.2701179e-07
6.2614694e-07
6.2564102e-07
6.2549646e-07
6.2557409e-07
6.2582803e-07
6.2652124e-07
6.2720745e-07
6.2874169e-07
6.2987656e-07
6.3216964e-07
6.3363137e-07
6.3671625e-07
6.3862423e-07
6.4264777e-07
6.4506622e-07
6.5033489e-07
6.5345138e-07
6.6004358e-07
6.637452e-07
6.7208414e-07
6.7665062e-07
6.8655907e-07
6.9203999e-07
7.0297038e-07
3.267111e-06
2.5234263e-06
2.059285e-06
1.8358484e-06
1.7031153e-06
1.5843327e-06
1.4464629e-06
1.2926357e-06
1.1453538e-06
1.025736e-06
9.4321751e-07
8.9588394e-07
8.7438996e-07
8.6596762e-07
8.6056441e-07
8.5015109e-07
8.3160126e-07
8.052031e-07
7.7431967e-07
7.4303194e-07
7.1460188e-07
6.9072672e-07
6.7188117e-07
6.5786477e-07
6.4790222e-07
6.4099957e-07
6.3625518e-07
6.3280278e-07
6.3042337e-07
6.2870616e-07
6.2749373e-07
6.2657537e-07
6.2597292e-07
6.2568883e-07
6.2571483e-07
6.2589199e-07
6.26363e-07
6.2691655e-07
6.2818344e-07
6.2916898e-07
6.3115287e-07
6.3248071e-07
6.3512522e-07
6.3678982e-07
6.4025786e-07
6.4245655e-07
6.469069e-07
6.4960959e-07
6.5521562e-07
6.5887016e-07
6.6580896e-07
6.6978824e-07
6.7870124e-07
6.8319805e-07
6.9326832e-07
3.2704835e-06
2.5295965e-06
2.0623496e-06
1.8377959e-06
1.7050523e-06
1.5872456e-06
1.4507668e-06
1.2978889e-06
1.1505336e-06
1.0298871e-06
9.4582858e-07
8.9698347e-07
8.7447055e-07
8.6576251e-07
8.6062759e-07
8.5097896e-07
8.3342894e-07
8.0786148e-07
7.7744772e-07
7.463809e-07
7.1773502e-07
6.9339188e-07
6.7400596e-07
6.5949253e-07
6.4921596e-07
6.4203578e-07
6.3710592e-07
6.3347543e-07
6.3094732e-07
6.2910924e-07
6.2786679e-07
6.2690852e-07
6.2630435e-07
6.2593864e-07
6.2590984e-07
6.2598736e-07
6.2632303e-07
6.2677154e-07
6.2782012e-07
6.2864828e-07
6.3039415e-07
6.3154198e-07
6.3388572e-07
6.353533e-07
6.3848472e-07
6.4024772e-07
6.4422937e-07
6.4650161e-07
6.5170062e-07
6.5442099e-07
6.6056578e-07
6.6443996e-07
6.7173709e-07
6.7608554e-07
6.8475037e-07
3.2711843e-06
2.5318358e-06
2.0645269e-06
1.8394529e-06
1.7068419e-06
1.5900279e-06
1.4549332e-06
1.3030306e-06
1.1556458e-06
1.0340549e-06
9.4848647e-07
8.9815637e-07
8.7455962e-07
8.6546392e-07
8.6068205e-07
8.5172303e-07
8.3523249e-07
8.1064971e-07
7.8081861e-07
7.498863e-07
7.2112153e-07
6.9632744e-07
6.7634976e-07
6.6129688e-07
6.5055094e-07
6.4307883e-07
6.3788304e-07
6.341091e-07
6.3144318e-07
6.2954236e-07
6.2827218e-07
6.2729007e-07
6.2662967e-07
6.2619024e-07
6.2606469e-07
6.2610579e-07
6.2633379e-07
6.2671865e-07
6.275803e-07
6.2830717e-07
6.2981763e-07
6.3083214e-07
6.3290173e-07
6.3424214e-07
6.3685445e-07
6.3851967e-07
6.4194513e-07
6.4404019e-07
6.4824189e-07
6.5090535e-07
6.5645547e-07
6.5961753e-07
6.6614037e-07
6.701182e-07
6.773199e-07
3.2748934e-06
2.5387296e-06
2.0679506e-06
1.8416545e-06
1.7089348e-06
1.5930143e-06
1.4592656e-06
1.3083197e-06
1.1609354e-06
1.038359e-06
9.5122779e-07
8.993857e-07
8.7470194e-07
8.6517173e-07
8.6074427e-07
8.5258979e-07
8.3709201e-07
8.134887e-07
7.843633e-07
7.5355107e-07
7.2454026e-07
6.9935702e-07
6.7883904e-07
6.6324188e-07
6.5194168e-07
6.4409843e-07
6.3873346e-07
6.3483692e-07
6.3202637e-07
6.3003713e-07
6.2867585e-07
6.2765317e-07
6.2695071e-07
6.2648243e-07
6.2626093e-07
6.2627868e-07
6.2646152e-07
6.2676744e-07
6.2746102e-07
6.2808916e-07
6.2941352e-07
6.3034767e-07
6.3222865e-07
6.333876e-07
6.3578548e-07
6.3724375e-07
6.4027439e-07
6.4196159e-07
6.4588383e-07
6.4810353e-07
6.5278441e-07
6.5569718e-07
6.6139929e-07
6.6455768e-07
6.7155766e-07
3.2753644e-06
2.5405484e-06
2.0700055e-06
1.8433217e-06
1.7107058e-06
1.5956981e-06
1.4633389e-06
1.3134126e-06
1.1661004e-06
1.0426176e-06
9.5400676e-07
9.0063163e-07
8.7487443e-07
8.6493633e-07
8.6072452e-07
8.5342226e-07
8.3898286e-07
8.1628136e-07
7.8776429e-07
7.5732604e-07
7.2813872e-07
7.0246894e-07
6.8138888e-07
6.6528963e-07
6.5359908e-07
6.4532459e-07
6.3963012e-07
6.3550303e-07
6.3254822e-07
6.3045503e-07
6.2904997e-07
6.2798771e-07
6.2725734e-07
6.2674446e-07
6.2645317e-07
6.264448e-07
6.2655951e-07
6.2681023e-07
6.273965e-07
6.2793789e-07
6.2915182e-07
6.2998797e-07
6.3164124e-07
6.3271482e-07
6.3477535e-07
6.3603781e-07
6.3874655e-07
6.4035642e-07
6.4370871e-07
6.4571114e-07
6.4974511e-07
6.531216e-07
6.5688135e-07
6.6111492e-07
6.6701569e-07
3.2792458e-06
2.548086e-06
2.0738422e-06
1.8459482e-06
1.7131906e-06
1.598962e-06
1.4677796e-06
1.3188425e-06
1.1715951e-06
1.0470888e-06
9.5692173e-07
9.0194016e-07
8.7503643e-07
8.647879e-07
8.607939e-07
8.5431961e-07
8.410279e-07
8.1938692e-07
7.9154332e-07
7.6122754e-07
7.3191175e-07
7.0593719e-07
6.8427575e-07
6.674827e-07
6.5521453e-07
6.4660874e-07
6.4066301e-07
6.3635699e-07
6.332121e-07
6.3095229e-07
6.2944465e-07
6.2835659e-07
6.2761144e-07
6.2706102e-07
6.2673091e-07
6.2667039e-07
6.2674096e-07
6.2695544e-07
6.2744183e-07
6.2790904e-07
6.2894537e-07
6.2971068e-07
6.3129445e-07
6.3234318e-07
6.3415938e-07
6.3549191e-07
6.3778736e-07
6.3921831e-07
6.4187236e-07
6.4388591e-07
6.4748134e-07
6.5009758e-07
6.5347459e-07
6.5807281e-07
6.6194482e-07
3.2795106e-06
2.549532e-06
2.0758438e-06
1.8476886e-06
1.7150443e-06
1.6016807e-06
1.4718867e-06
1.3240133e-06
1.1768796e-06
1.0515689e-06
9.5989793e-07
9.0341812e-07
8.7532122e-07
8.6464407e-07
8.6082833e-07
8.5512688e-07
8.4294462e-07
8.2224268e-07
7.9511018e-07
7.6511283e-07
7.3564374e-07
7.0921735e-07
6.8704496e-07
6.6978501e-07
6.5695488e-07
6.4783749e-07
6.4149038e-07
6.3702653e-07
6.3377104e-07
6.31419e-07
6.2986019e-07
6.2872074e-07
6.2789624e-07
6.272948e-07
6.2693134e-07
6.268179e-07
6.2686658e-07
6.2705627e-07
6.2747885e-07
6.2790885e-07
6.288609e-07
6.2955772e-07
6.3096758e-07
6.317997e-07
6.3358258e-07
6.3473836e-07
6.3691509e-07
6.3799599e-07
6.4078966e-07
6.4226226e-07
6.4588155e-07
6.4805862e-07
6.513066e-07
6.557808e-07
6.5866065e-07
3.2834557e-06
2.5575682e-06
2.0800905e-06
1.8508431e-06
1.7179467e-06
1.6051908e-06
1.4764484e-06
1.3296463e-06
1.182712e-06
1.0563626e-06
9.6309335e-07
9.0489636e-07
8.7568951e-07
8.6456438e-07
8.607762e-07
8.5601408e-07
8.4503583e-07
8.2522601e-07
7.9894054e-07
7.6916938e-07
7.3952153e-07
7.1281042e-07
6.9011341e-07
6.7216152e-07
6.5874675e-07
6.4925197e-07
6.4264284e-07
6.3793662e-07
6.3446596e-07
6.3193736e-07
6.3026421e-07
6.2909495e-07
6.2825531e-07
6.2763384e-07
6.2720439e-07
6.2700182e-07
6.2703261e-07
6.2718277e-07
6.2753125e-07
6.2790208e-07
6.2869209e-07
6.2938149e-07
6.3081984e-07
6.3176685e-07
6.3326676e-07
6.3459077e-07
6.3631096e-07
6.3742477e-07
6.3954918e-07
6.4110847e-07
6.4408895e-07
6.459545e-07
6.4912731e-07
6.5266384e-07
6.549177e-07
3.2835832e-06
2.5586125e-06
2.0819538e-06
1.8526673e-06
1.7198658e-06
1.6078677e-06
1.4804656e-06
1.3346551e-06
1.1879471e-06
1.061013e-06
9.6638809e-07
9.0667692e-07
8.7623651e-07
8.646065e-07
8.6069495e-07
8.564189e-07
8.46578e-07
8.2741722e-07
8.0177486e-07
7.7263944e-07
7.4299425e-07
7.1582063e-07
6.9281482e-07
6.7454234e-07
6.6065684e-07
6.5059515e-07
6.4349253e-07
6.3857665e-07
6.350131e-07
6.3236977e-07
6.3058486e-07
6.2930145e-07
6.2839211e-07
6.277487e-07
6.2728243e-07
6.269963e-07
6.2700844e-07
6.2713493e-07
6.2747622e-07
6.2786717e-07
6.2850425e-07
6.2918979e-07
6.3044975e-07
6.3118498e-07
6.3261629e-07
6.3441439e-07
6.3553028e-07
6.3660996e-07
6.3878782e-07
6.4038737e-07
6.4313239e-07
6.4478495e-07
6.4811398e-07
6.5048718e-07
6.5322985e-07
3.2877738e-06
2.5669081e-06
2.0862117e-06
1.8563635e-06
1.7237709e-06
1.6123077e-06
1.485453e-06
1.3406491e-06
1.1941399e-06
1.0662449e-06
9.7003714e-07
9.086809e-07
8.7691694e-07
8.6465089e-07
8.6060877e-07
8.5650404e-07
8.4703326e-07
8.2882592e-07
8.0429759e-07
7.7598634e-07
7.4716236e-07
7.2072955e-07
6.9794266e-07
6.7936627e-07
6.6504353e-07
6.5466597e-07
6.4714799e-07
6.4180207e-07
6.3784845e-07
6.3489398e-07
6.3281025e-07
6.3129141e-07
6.3017715e-07
6.2939363e-07
6.2873313e-07
6.2828825e-07
6.2812001e-07
6.2813172e-07
6.2824929e-07
6.2849641e-07
6.2885673e-07
6.2968246e-07
6.3086498e-07
6.3143507e-07
6.3250649e-07
6.3405803e-07
6.3503101e-07
6.3586061e-07
6.3786776e-07
6.3896211e-07
6.4168897e-07
6.4334447e-07
6.4566881e-07
6.4805792e-07
6.5017884e-07
3.2874855e-06
2.567178e-06
2.0877828e-06
1.8573701e-06
1.725029e-06
1.6161218e-06
1.4916636e-06
1.3466733e-06
1.1998627e-06
1.0711925e-06
9.7336628e-07
9.109964e-07
8.7879713e-07
8.6680597e-07
8.6273247e-07
8.5916594e-07
8.5020225e-07
8.318092e-07
8.0997348e-07
7.8587136e-07
7.6057659e-07
7.3742805e-07
7.1835919e-07
7.0187231e-07
6.8834343e-07
6.7767308e-07
6.6969142e-07
6.6358745e-07
6.5880577e-07
6.5535952e-07
6.5220419e-07
6.4966015e-07
6.4776225e-07
6.4622621e-07
6.447067e-07
6.434627e-07
6.4286417e-07
6.4223629e-07
6.4176987e-07
6.408269e-07
6.4005735e-07
6.3997217e-07
6.3973547e-07
6.3933706e-07
6.3948644e-07
6.4004013e-07
6.4010182e-07
6.4035194e-07
6.4116259e-07
6.4201979e-07
6.4345759e-07
6.4466634e-07
6.4586091e-07
6.492477e-07
6.5030203e-07
3.2911065e-06
2.5761923e-06
2.0954357e-06
1.8609807e-06
1.7314946e-06
1.6441745e-06
1.5394907e-06
1.3902069e-06
1.2317712e-06
1.0935337e-06
9.9226663e-07
9.3260972e-07
9.089803e-07
9.0770102e-07
9.1060808e-07
9.1226503e-07
9.0780509e-07
8.8763364e-07
8.6675401e-07
8.5288333e-07
8.418123e-07
8.3676967e-07
8.3593603e-07
8.331163e-07
8.288341e-07
8.2453996e-07
8.2177673e-07
8.1789976e-07
8.1217514e-07
8.0923307e-07
8.0319719e-07
7.9822253e-07
7.9402832e-07
7.9001787e-07
7.8596216e-07
7.8245035e-07
7.8067285e-07
7.7708833e-07
7.7435678e-07
7.6828725e-07
7.6085638e-07
7.5785012e-07
7.538435e-07
7.4245651e-07
7.3399527e-07
7.2907327e-07
7.1725656e-07
7.0725055e-07
7.0302934e-07
6.9752996e-07
6.9325624e-07
6.9117849e-07
6.8973948e-07
6.8950084e-07
6.8419323e-07
3.2824114e-06
2.5913447e-06
2.1328516e-06
1.8856165e-06
1.8179214e-06
1.869119e-06
1.9061731e-06
1.8382638e-06
1.6054853e-06
1.3739336e-06
1.2766763e-06
1.2702658e-06
1.288212e-06
1.369443e-06
1.4595928e-06
1.488068e-06
1.4839372e-06
1.4411131e-06
1.4046139e-06
1.400105e-06
1.4097566e-06
1.4591232e-06
1.5501847e-06
1.61768e-06
1.6702711e-06
1.7146857e-06
1.7579804e-06
1.7898503e-06
1.8026426e-06
1.8185193e-06
1.8192443e-06
1.8203444e-06
1.8188283e-06
1.8217199e-06
1.8179928e-06
1.8158253e-06
1.8197901e-06
1.8142024e-06
1.8115008e-06
1.8005934e-06
1.7654775e-06
1.7561887e-06
1.7411222e-06
1.6843199e-06
1.6186006e-06
1.5911609e-06
1.5250323e-06
1.4369039e-06
1.3957295e-06
1.3460308e-06
1.308072e-06
1.2890909e-06
1.2593807e-06
1.2469202e-06
1.1952184e-06
3.4689559e-06
3.4894756e-06
2.7176067e-06
2.6943334e-06
2.8803354e-06
4.0768268e-06
4.9445872e-06
4.7154982e-06
4.4236579e-06
4.0658646e-06
4.0574837e-06
4.152194e-06
4.3720134e-06
4.8034899e-06
5.1042121e-06
5.2184631e-06
5.2145167e-06
5.0996288e-06
5.0100286e-06
5.009074e-06
5.0682706e-06
5.2992085e-06
5.6608513e-06
5.9836309e-06
6.2614296e-06
6.5216854e-06
6.7995755e-06
7.0695717e-06
7.2041912e-06
7.4413706e-06
7.5319467e-06
7.7065687e-06
7.7607196e-06
7.9430512e-06
7.9644539e-06
8.0311147e-06
8.2038979e-06
8.0885758e-06
8.2355758e-06
8.1623942e-06
8.1527053e-06
8.3747888e-06
8.4357407e-06
7.9223829e-06
7.6788654e-06
7.7429456e-06
7.4297319e-06
7.1024901e-06
7.0278995e-06
6.7353966e-06
6.6366052e-06
6.5661985e-06
6.4913505e-06
6.3991307e-06
6.1879121e-06
7.9670866e-06
2.7359198e-05
2.1776822e-05
2.2812729e-05
2.3621689e-05
2.4939189e-05
3.0283119e-05
3.1340444e-05
3.0622603e-05
2.7371628e-05
2.3661071e-05
2.1707963e-05
2.0987027e-05
2.105291e-05
2.1649588e-05
2.2666858e-05
2.3899231e-05
2.5129809e-05
2.6225596e-05
2.716041e-05
2.7974227e-05
2.8729808e-05
2.9481074e-05
3.0266762e-05
3.109868e-05
3.1966361e-05
3.2853351e-05
3.3742865e-05
3.4617314e-05
3.545973e-05
3.6267671e-05
3.7016377e-05
3.774861e-05
3.8371539e-05
3.9126225e-05
3.9586909e-05
4.0273954e-05
4.0734644e-05
4.1086491e-05
4.1691849e-05
4.1941341e-05
4.2231698e-05
4.3131205e-05
4.3054691e-05
4.2392064e-05
4.2796496e-05
4.315771e-05
4.1135124e-05
4.1150273e-05
4.0981423e-05
3.8760515e-05
3.91518e-05
3.7296602e-05
3.7393003e-05
3.5440538e-05
3.5393248e-05
6.9591751e-06
1.3221794e-06
7.0482585e-07
6.5640032e-07
6.5480423e-07
6.5819267e-07
6.599141e-07
6.6359003e-07
6.6651609e-07
6.7102972e-07
6.760946e-07
6.8257272e-07
6.902021e-07
6.9971281e-07
7.1036228e-07
7.2213387e-07
7.3550581e-07
7.5149625e-07
7.7216582e-07
8.0036124e-07
8.3540161e-07
8.674944e-07
8.9543836e-07
9.3966788e-07
1.0056421e-06
1.0609721e-06
3.4385055e-05
7.2056704e-06
1.4287743e-06
7.2655934e-07
6.6220255e-07
6.586356e-07
6.6217721e-07
6.6487917e-07
6.6929403e-07
6.7343086e-07
6.791968e-07
6.8432286e-07
6.9088281e-07
6.979156e-07
7.0695041e-07
7.1793356e-07
7.3084182e-07
7.4517819e-07
7.6130078e-07
7.8032257e-07
8.0650907e-07
8.4098256e-07
8.7552398e-07
9.0253157e-07
9.4339799e-07
1.0106183e-06
1.0635862e-06
3.1847924e-05
8.3626004e-06
1.6178985e-06
7.5373496e-07
6.6901581e-07
6.6465899e-07
6.6729647e-07
6.7003359e-07
6.7484893e-07
6.7905271e-07
6.8540994e-07
6.9173485e-07
6.9907436e-07
7.06651e-07
7.1536492e-07
7.2521834e-07
7.3728619e-07
7.5155944e-07
7.6778628e-07
7.879551e-07
8.1462514e-07
8.5098171e-07
8.8877581e-07
9.1851231e-07
9.5409325e-07
1.0240624e-06
1.0756353e-06
3.2206321e-05
8.971846e-06
1.7516363e-06
7.8103869e-07
6.7628591e-07
6.7193143e-07
6.7512138e-07
6.7941169e-07
6.8443925e-07
6.8805391e-07
6.9395706e-07
6.998067e-07
7.077822e-07
7.1644376e-07
7.2663459e-07
7.3822556e-07
7.5098342e-07
7.6531467e-07
7.8114564e-07
7.9902578e-07
8.2262339e-07
8.565397e-07
8.9535568e-07
9.2835177e-07
9.6086366e-07
1.0305035e-06
1.0840186e-06
3.038194e-05
9.3087368e-06
1.9801971e-06
8.3439036e-07
6.9207527e-07
6.8454011e-07
6.8732235e-07
6.9160306e-07
6.9654563e-07
7.0031721e-07
7.057325e-07
7.1090035e-07
7.1788872e-07
7.2578282e-07
7.3546556e-07
7.4678988e-07
7.6068776e-07
7.7562083e-07
7.9251815e-07
8.1133959e-07
8.3422816e-07
8.6694621e-07
9.0557795e-07
9.414275e-07
9.7288694e-07
1.0412675e-06
1.0959184e-06
2.7752183e-05
1.1004666e-05
2.6931054e-06
9.9407563e-07
7.3194889e-07
7.020877e-07
7.0120842e-07
7.0332975e-07
7.0745292e-07
7.1106872e-07
7.1675327e-07
7.2186899e-07
7.291281e-07
7.371575e-07
7.475861e-07
7.5980886e-07
7.7377731e-07
7.8934127e-07
8.0637143e-07
8.2586472e-07
8.4857776e-07
8.7864938e-07
9.1678813e-07
9.5328886e-07
9.8321453e-07
1.0511494e-06
1.1002158e-06
2.797144e-05
1.2049943e-05
3.1745353e-06
1.1116154e-06
7.5510848e-07
7.1141818e-07
7.077174e-07
7.0916348e-07
7.1312081e-07
7.1697563e-07
7.2308337e-07
7.2954763e-07
7.375178e-07
7.4629245e-07
7.5710772e-07
7.6891649e-07
7.8327089e-07
7.9941502e-07
8.1815032e-07
8.3829322e-07
8.6307108e-07
8.9456878e-07
9.3320925e-07
9.7185667e-07
1.0003604e-06
1.0664847e-06
1.1121339e-06
2.8749386e-05
1.137318e-05
3.1774106e-06
1.1280508e-06
7.6297555e-07
7.1615404e-07
7.1224238e-07
7.1439031e-07
7.1910306e-07
7.2379566e-07
7.3045492e-07
7.3789167e-07
7.4794977e-07
7.585242e-07
7.6988001e-07
7.8163167e-07
7.9451818e-07
8.0940973e-07
8.2661022e-07
8.4599254e-07
8.7045182e-07
9.0228545e-07
9.4161463e-07
9.8569132e-07
1.0156631e-06
1.0829145e-06
1.1306595e-06
2.4438842e-05
1.1258619e-05
3.2180932e-06
1.1548648e-06
7.7763751e-07
7.2558615e-07
7.2391711e-07
7.2740352e-07
7.3384815e-07
7.3980091e-07
7.4650555e-07
7.5356017e-07
7.6182976e-07
7.722729e-07
7.8465356e-07
7.9816248e-07
8.1233953e-07
8.2835812e-07
8.4533768e-07
8.6379753e-07
8.8565833e-07
9.1622763e-07
9.5185546e-07
9.9387523e-07
1.0230035e-06
1.0882105e-06
1.1406043e-06
2.1943163e-05
1.158054e-05
3.4254377e-06
1.2474259e-06
8.1051677e-07
7.4454184e-07
7.4385679e-07
7.4569184e-07
7.5153837e-07
7.5672186e-07
7.6320009e-07
7.7022427e-07
7.7811702e-07
7.8627608e-07
7.9534305e-07
8.0680664e-07
8.2124306e-07
8.3856185e-07
8.5685088e-07
8.7816712e-07
9.0063948e-07
9.3265177e-07
9.6842572e-07
1.0121447e-06
1.0403445e-06
1.1013287e-06
1.157928e-06
2.2316163e-05
1.1367775e-05
3.4514448e-06
1.2791204e-06
8.2175373e-07
7.5465009e-07
7.5171432e-07
7.5368002e-07
7.5957323e-07
7.6497172e-07
7.7178853e-07
7.7984545e-07
7.89891e-07
7.9995581e-07
8.1152287e-07
8.2323387e-07
8.371027e-07
8.5382822e-07
8.7216356e-07
8.9307867e-07
9.1567038e-07
9.4438613e-07
9.7766242e-07
1.0218576e-06
1.0497031e-06
1.1080287e-06
1.1647254e-06
2.1569143e-05
1.0145427e-05
3.3147312e-06
1.2730407e-06
8.2846449e-07
7.5961242e-07
7.575788e-07
7.6070121e-07
7.6669936e-07
7.7270777e-07
7.803187e-07
7.889378e-07
8.0005288e-07
8.1117016e-07
8.2339756e-07
8.3669583e-07
8.512024e-07
8.6703324e-07
8.8690508e-07
9.0895383e-07
9.3354835e-07
9.6472431e-07
9.9791265e-07
1.0432133e-06
1.070103e-06
1.1244665e-06
1.176639e-06
1.6555028e-05
9.9775967e-06
3.3276716e-06
1.29579e-06
8.4499748e-07
7.6870876e-07
7.7044584e-07
7.7749267e-07
7.8312937e-07
7.9091385e-07
7.9937176e-07
8.0808069e-07
8.1833065e-07
8.2887344e-07
8.4173014e-07
8.554928e-07
8.7074485e-07
8.8643512e-07
9.0536312e-07
9.2477592e-07
9.4618667e-07
9.7709735e-07
1.0113533e-06
1.0587636e-06
1.0857011e-06
1.1388344e-06
1.184984e-06
1.3191645e-05
9.9846181e-06
3.6141357e-06
1.4247015e-06
8.9666623e-07
7.9257151e-07
7.9548997e-07
8.0507798e-07
8.128835e-07
8.1801593e-07
8.2474066e-07
8.3181791e-07
8.396436e-07
8.49177e-07
8.6078877e-07
8.7446509e-07
8.9011455e-07
9.0790501e-07
9.273631e-07
9.4856793e-07
9.7033306e-07
1.0013491e-06
1.0321111e-06
1.0803325e-06
1.1077822e-06
1.1603839e-06
1.2039422e-06
1.2495539e-05
9.8704063e-06
3.7819412e-06
1.5195531e-06
9.3051385e-07
8.1231923e-07
8.1060204e-07
8.2117613e-07
8.2961837e-07
8.3517902e-07
8.428388e-07
8.5035485e-07
8.5861473e-07
8.672297e-07
8.7752337e-07
8.9042476e-07
9.0442383e-07
9.2212576e-07
9.4008344e-07
9.6154569e-07
9.8180669e-07
1.0141949e-06
1.0441779e-06
1.0919178e-06
1.1195262e-06
1.1720468e-06
1.2151016e-06
1.0153902e-05
9.3422563e-06
3.7038394e-06
1.5093746e-06
9.3176559e-07
8.1911247e-07
8.1466352e-07
8.2729706e-07
8.3505049e-07
8.4259932e-07
8.5229203e-07
8.609911e-07
8.7042538e-07
8.8119469e-07
8.9175981e-07
9.0531529e-07
9.2094928e-07
9.3968551e-07
9.5943867e-07
9.8281326e-07
1.0034148e-06
1.0369472e-06
1.0667485e-06
1.114412e-06
1.141618e-06
1.1925823e-06
1.2320371e-06
9.9162003e-06
8.4166893e-06
3.4246063e-06
1.4724338e-06
9.3283574e-07
8.2362229e-07
8.1788531e-07
8.3197912e-07
8.4146738e-07
8.5075044e-07
8.6017367e-07
8.6926206e-07
8.7986453e-07
8.9341654e-07
9.0755518e-07
9.2258577e-07
9.3872383e-07
9.562446e-07
9.7531143e-07
9.9861405e-07
1.0171722e-06
1.0505022e-06
1.0797405e-06
1.1264734e-06
1.1529578e-06
1.2041871e-06
1.2419677e-06
1.0866045e-05
8.181519e-06
3.4063107e-06
1.4864629e-06
9.4354754e-07
8.3209861e-07
8.2492165e-07
8.4097913e-07
8.5647995e-07
8.6749811e-07
8.7557956e-07
8.8552781e-07
8.9743074e-07
9.1016207e-07
9.2477593e-07
9.386738e-07
9.5456684e-07
9.7180165e-07
9.9271492e-07
1.0174591e-06
1.0368216e-06
1.067734e-06
1.0971959e-06
1.1459464e-06
1.1731615e-06
1.2227035e-06
1.2569157e-06
1.1219718e-05
7.93385e-06
3.5775335e-06
1.5862732e-06
9.9407968e-07
8.5462176e-07
8.4455128e-07
8.6345644e-07
8.9502189e-07
9.0674189e-07
9.1165406e-07
9.1872727e-07
9.2647339e-07
9.3523889e-07
9.4741468e-07
9.6042385e-07
9.7593424e-07
9.9177044e-07
1.0105184e-06
1.0346209e-06
1.0537046e-06
1.0832588e-06
1.1118156e-06
1.1617196e-06
1.1904373e-06
1.2413933e-06
1.277722e-06
9.5810697e-06
7.2971465e-06
3.8599156e-06
1.7711025e-06
1.0673866e-06
8.8564905e-07
8.699955e-07
8.8655768e-07
9.2657317e-07
9.352928e-07
9.410003e-07
9.4592235e-07
9.524697e-07
9.608325e-07
9.7183963e-07
9.8508563e-07
9.9994612e-07
1.0159451e-06
1.0327871e-06
1.0554938e-06
1.0727551e-06
1.0997267e-06
1.1249714e-06
1.1744356e-06
1.203145e-06
1.2533016e-06
1.287181e-06
8.8235152e-06
6.5040384e-06
3.8692704e-06
1.8145946e-06
1.0859904e-06
9.0238305e-07
8.8421427e-07
9.0109206e-07
9.3891064e-07
9.4774018e-07
9.5535741e-07
9.6194316e-07
9.7032801e-07
9.8034925e-07
9.9153488e-07
1.0047736e-06
1.0196358e-06
1.0375715e-06
1.0547047e-06
1.077534e-06
1.0945839e-06
1.1212441e-06
1.1436275e-06
1.1900449e-06
1.2196406e-06
1.2692304e-06
1.3061541e-06
9.2755499e-06
5.9246076e-06
3.7334044e-06
1.7965605e-06
1.0840818e-06
9.1008772e-07
8.9079682e-07
9.0910319e-07
9.419533e-07
9.5457575e-07
9.6282857e-07
9.7089425e-07
9.804409e-07
9.9101269e-07
1.0023121e-06
1.0148088e-06
1.0297496e-06
1.0490287e-06
1.0672844e-06
1.0915881e-06
1.1084121e-06
1.1352864e-06
1.1567426e-06
1.2036074e-06
1.2328676e-06
1.2809262e-06
1.3170059e-06
1.0830089e-05
5.6282176e-06
3.3739488e-06
1.7190958e-06
1.0791249e-06
9.1491806e-07
8.9462182e-07
9.1276099e-07
9.4311611e-07
9.6099637e-07
9.6974421e-07
9.7924859e-07
9.8905198e-07
1.0004658e-06
1.0121579e-06
1.0260976e-06