/*--------------------------------*- C++ -*----------------------------------*\
| =========                 |                                                 |
| \\      /  F ield         | OpenFOAM: The Open Source CFD Toolbox           |
|  \\    /   O peration     | Version:  2406                                  |
|   \\  /    A nd           | Website:  www.openfoam.com                      |
|    \\/     M anipulation  |                                                 |
\*---------------------------------------------------------------------------*/
FoamFile
{
    version     2.0;
    format      ascii;
    arch        "LSB;label=32;scalar=64";
    class       volScalarField;
    location    "12";
    object      nut;
}
// * * * * * * * * * * * * * * * * * * * * * * * * * * * * * * * * * * * * * //

dimensions      [0 2 -1 0 0 0 0];

internalField   nonuniform List<scalar> 
96472
(
8.7531338e-07
8.4128515e-07
8.0321383e-07
8.1610368e-07
8.4954515e-07
8.7319128e-07
8.6802845e-07
8.3530149e-07
7.9227341e-07
7.5794813e-07
7.4242944e-07
7.461032e-07
7.624582e-07
7.8308383e-07
8.0160951e-07
8.1357786e-07
8.1572094e-07
8.1039207e-07
8.0109206e-07
7.9074857e-07
7.8105677e-07
7.7301766e-07
7.6726445e-07
7.6344101e-07
7.6080877e-07
7.5896218e-07
7.5762014e-07
7.5684886e-07
7.5657166e-07
7.5691844e-07
7.5735348e-07
7.5904204e-07
7.6089068e-07
7.6446435e-07
7.693782e-07
7.7677071e-07
7.8495279e-07
7.9301098e-07
8.0219298e-07
8.0631258e-07
8.1210833e-07
8.1273066e-07
8.1732015e-07
8.1825726e-07
8.2326932e-07
8.3081329e-07
8.4217615e-07
8.551317e-07
8.7166639e-07
8.9237243e-07
9.1035451e-07
9.3983022e-07
9.588687e-07
9.8876586e-07
1.0292418e-06
8.7493064e-07
8.4092819e-07
8.0295106e-07
8.1527115e-07
8.4846955e-07
8.7261929e-07
8.684412e-07
8.3655404e-07
7.9367714e-07
7.5868939e-07
7.4218828e-07
7.4481492e-07
7.6053565e-07
7.8092079e-07
7.9920797e-07
8.105808e-07
8.1375521e-07
8.0981427e-07
8.0120301e-07
7.9134907e-07
7.8187324e-07
7.7380837e-07
7.6778521e-07
7.6385092e-07
7.6112725e-07
7.5940227e-07
7.5814326e-07
7.572271e-07
7.5658289e-07
7.5631196e-07
7.5633821e-07
7.564731e-07
7.5684607e-07
7.5753821e-07
7.5915127e-07
7.6088211e-07
7.637008e-07
7.6807628e-07
7.7697059e-07
7.8578964e-07
7.9834729e-07
8.0705579e-07
8.1458347e-07
8.2144348e-07
8.2520989e-07
8.3220862e-07
8.3780641e-07
8.4974115e-07
8.5792434e-07
8.7699795e-07
8.8794444e-07
9.0994747e-07
9.3274696e-07
9.5080221e-07
9.919284e-07
8.7480894e-07
8.4140997e-07
8.0286787e-07
8.144792e-07
8.4741483e-07
8.7207915e-07
8.6894869e-07
8.3798904e-07
7.9527902e-07
7.5966564e-07
7.4213006e-07
7.4370453e-07
7.5881572e-07
7.79201e-07
7.9803638e-07
8.1036476e-07
8.1429844e-07
8.1079615e-07
8.0241227e-07
7.9251943e-07
7.8288004e-07
7.7474751e-07
7.6847691e-07
7.6431766e-07
7.6132856e-07
7.5950958e-07
7.5822236e-07
7.5748895e-07
7.5681541e-07
7.5676795e-07
7.5679396e-07
7.5716413e-07
7.5768923e-07
7.5885457e-07
7.5998477e-07
7.6180069e-07
7.6314538e-07
7.6555118e-07
7.6771748e-07
7.7235174e-07
7.7665846e-07
7.8680855e-07
7.9484737e-07
8.11251e-07
8.1819704e-07
8.2955182e-07
8.345273e-07
8.461983e-07
8.5231379e-07
8.6484871e-07
8.7801915e-07
8.8850139e-07
9.0902696e-07
9.2172215e-07
9.5475928e-07
8.7474402e-07
8.4189501e-07
8.0276776e-07
8.1367803e-07
8.4632346e-07
8.7147549e-07
8.6943622e-07
8.3941367e-07
7.9693057e-07
7.6077261e-07
7.4217837e-07
7.4270709e-07
7.5715047e-07
7.7735344e-07
7.9647145e-07
8.0946507e-07
8.1431107e-07
8.1164315e-07
8.0382882e-07
7.9422451e-07
7.8456719e-07
7.7623644e-07
7.6969028e-07
7.6530332e-07
7.6211743e-07
7.5999804e-07
7.5847782e-07
7.5752483e-07
7.5675107e-07
7.5651075e-07
7.5654909e-07
7.5676916e-07
7.5717287e-07
7.5830033e-07
7.5933313e-07
7.6162673e-07
7.6302247e-07
7.6579581e-07
7.6740389e-07
7.7091491e-07
7.7314877e-07
7.7841223e-07
7.8228228e-07
7.9193111e-07
7.98785e-07
8.1454409e-07
8.2283613e-07
8.3660328e-07
8.4719606e-07
8.5561454e-07
8.7010433e-07
8.7806084e-07
8.944189e-07
9.0399087e-07
9.2713887e-07
8.7467468e-07
8.4241452e-07
8.0269066e-07
8.1291555e-07
8.4528555e-07
8.7091816e-07
8.6992331e-07
8.408286e-07
7.9861009e-07
7.6189421e-07
7.422679e-07
7.4175045e-07
7.5551627e-07
7.7554803e-07
7.9502533e-07
8.0856886e-07
8.141386e-07
8.1212647e-07
8.0471475e-07
7.9529903e-07
7.8575576e-07
7.7741435e-07
7.7064188e-07
7.6611186e-07
7.6279344e-07
7.6065937e-07
7.5898949e-07
7.5803876e-07
7.5716427e-07
7.5676908e-07
7.5672685e-07
7.5685321e-07
7.5712372e-07
7.5801775e-07
7.5879543e-07
7.6077237e-07
7.6206528e-07
7.6503985e-07
7.6664574e-07
7.7031491e-07
7.7223215e-07
7.7686687e-07
7.7941037e-07
7.8469727e-07
7.9027718e-07
7.9713376e-07
8.077572e-07
8.1547822e-07
8.3170479e-07
8.3999365e-07
8.5656161e-07
8.6513195e-07
8.8201773e-07
8.9074906e-07
9.1078176e-07
8.7461372e-07
8.4292497e-07
8.0259917e-07
8.1216795e-07
8.442735e-07
8.7037522e-07
8.7041821e-07
8.4226317e-07
8.0032e-07
7.6308784e-07
7.4244893e-07
7.4087523e-07
7.5395746e-07
7.7374343e-07
7.9347574e-07
8.0769151e-07
8.1404204e-07
8.1281755e-07
8.0604117e-07
7.9678483e-07
7.8725577e-07
7.7880421e-07
7.7185068e-07
7.6695692e-07
7.6343122e-07
7.6109303e-07
7.5930656e-07
7.5829662e-07
7.573569e-07
7.5684387e-07
7.5657361e-07
7.5665967e-07
7.5685362e-07
7.5753838e-07
7.5817167e-07
7.5987116e-07
7.6096594e-07
7.6349047e-07
7.6501252e-07
7.6836424e-07
7.706674e-07
7.7405638e-07
7.7812072e-07
7.811017e-07
7.8712352e-07
7.9096558e-07
7.9889423e-07
8.0411307e-07
8.1544631e-07
8.2243688e-07
8.372167e-07
8.4535167e-07
8.6229659e-07
8.7129662e-07
8.9165603e-07
8.745366e-07
8.4342429e-07
8.0255196e-07
8.1150018e-07
8.4333048e-07
8.6986276e-07
8.7090543e-07
8.4368058e-07
8.0205558e-07
7.643569e-07
7.4273387e-07
7.4008567e-07
7.5240338e-07
7.7192642e-07
7.9184571e-07
8.066654e-07
8.1385209e-07
8.1330937e-07
8.0714158e-07
7.9815643e-07
7.8868367e-07
7.8007622e-07
7.7303554e-07
7.6796566e-07
7.6427563e-07
7.618016e-07
7.598411e-07
7.5871805e-07
7.5777722e-07
7.5722417e-07
7.5682253e-07
7.5684635e-07
7.5693794e-07
7.5739697e-07
7.5792734e-07
7.5910149e-07
7.6040409e-07
7.6194777e-07
7.6397368e-07
7.6582792e-07
7.6896689e-07
7.7104735e-07
7.7533062e-07
7.7801797e-07
7.8353579e-07
7.8683762e-07
7.9377158e-07
7.9785055e-07
8.0648322e-07
8.1176474e-07
8.2284386e-07
8.2965412e-07
8.4335078e-07
8.513164e-07
8.6925617e-07
8.7447455e-07
8.4399566e-07
8.0253098e-07
8.1089111e-07
8.4246229e-07
8.6939844e-07
8.7138776e-07
8.4509021e-07
8.038328e-07
7.6571781e-07
7.431151e-07
7.3938393e-07
7.5088072e-07
7.7010423e-07
7.9027284e-07
8.0567849e-07
8.1372179e-07
8.1393139e-07
8.0827691e-07
7.9953264e-07
7.9014316e-07
7.8135593e-07
7.7414245e-07
7.6881029e-07
7.6502064e-07
7.6241546e-07
7.6037361e-07
7.5907965e-07
7.5810191e-07
7.5740869e-07
7.5694117e-07
7.5685174e-07
7.5691302e-07
7.5712863e-07
7.5770758e-07
7.5836962e-07
7.5984288e-07
7.6092882e-07
7.6297881e-07
7.6436542e-07
7.6711223e-07
7.6895808e-07
7.726847e-07
7.7494447e-07
7.7985382e-07
7.8278474e-07
7.8892159e-07
7.9253915e-07
8.0015698e-07
8.0460682e-07
8.1385667e-07
8.1907911e-07
8.3023036e-07
8.3658245e-07
8.5121118e-07
8.7438859e-07
8.4444862e-07
8.0252302e-07
8.1033884e-07
8.4162972e-07
8.6895325e-07
8.7190486e-07
8.4656973e-07
8.0568227e-07
7.6712058e-07
7.4349528e-07
7.3865072e-07
7.4937934e-07
7.6829379e-07
7.8870978e-07
8.0469384e-07
8.1342529e-07
8.1434883e-07
8.0922645e-07
8.0067665e-07
7.9137347e-07
7.8256945e-07
7.752098e-07
7.6963191e-07
7.6576013e-07
7.6302902e-07
7.6104252e-07
7.5952286e-07
7.5856998e-07
7.5784122e-07
7.5735351e-07
7.5705718e-07
7.5711101e-07
7.5723313e-07
7.5762636e-07
7.5814081e-07
7.5932487e-07
7.602242e-07
7.6207368e-07
7.6323227e-07
7.6569993e-07
7.6720346e-07
7.7040388e-07
7.724479e-07
7.7660523e-07
7.7913817e-07
7.8456314e-07
7.877764e-07
7.9459185e-07
7.9834195e-07
8.0662175e-07
8.1111805e-07
8.2086564e-07
8.2604459e-07
8.3816776e-07
8.7435578e-07
8.4518817e-07
8.0258935e-07
8.0984405e-07
8.4085927e-07
8.685522e-07
8.7242669e-07
8.48031e-07
8.0751554e-07
7.6853774e-07
7.4393619e-07
7.3801517e-07
7.4797369e-07
7.6654183e-07
7.8704262e-07
8.0351434e-07
8.1290064e-07
8.1444707e-07
8.0991269e-07
8.0169308e-07
7.9243688e-07
7.8359992e-07
7.7615547e-07
7.7044956e-07
7.6646134e-07
7.6360396e-07
7.6151711e-07
7.5995056e-07
7.5897885e-07
7.5822981e-07
7.576683e-07
7.572728e-07
7.572569e-07
7.5731734e-07
7.5760616e-07
7.5800681e-07
7.5896114e-07
7.5973071e-07
7.6128848e-07
7.6235519e-07
7.644436e-07
7.6581413e-07
7.686383e-07
7.7032889e-07
7.7399261e-07
7.7624022e-07
7.8092962e-07
7.8376371e-07
7.8954797e-07
7.9321274e-07
8.0024025e-07
8.0449839e-07
8.1287861e-07
8.1746731e-07
8.2782795e-07
8.7426312e-07
8.4552965e-07
8.0259641e-07
8.0939293e-07
8.401484e-07
8.6817084e-07
8.729078e-07
8.4944122e-07
8.0934956e-07
7.7004042e-07
7.4453431e-07
7.3754601e-07
7.4662416e-07
7.6476765e-07
7.8529975e-07
8.0217041e-07
8.1229512e-07
8.1457167e-07
8.1056588e-07
8.0276379e-07
7.936284e-07
7.8471527e-07
7.7710199e-07
7.7123428e-07
7.67132e-07
7.6423147e-07
7.6210837e-07
7.6048559e-07
7.5938626e-07
7.5858134e-07
7.5802994e-07
7.5760413e-07
7.5748658e-07
7.5757526e-07
7.5772214e-07
7.5803541e-07
7.5874337e-07
7.593779e-07
7.6073442e-07
7.6164042e-07
7.6350966e-07
7.6469593e-07
7.6711737e-07
7.6865423e-07
7.7184749e-07
7.7376721e-07
7.7785144e-07
7.8027098e-07
7.8555049e-07
7.8849202e-07
7.9478717e-07
7.9843816e-07
8.0584074e-07
8.1019688e-07
8.1879792e-07
8.7425212e-07
8.4648994e-07
8.0274938e-07
8.0901967e-07
8.3951162e-07
8.6782278e-07
8.7336623e-07
8.5080002e-07
8.1116302e-07
7.7161068e-07
7.4524242e-07
7.3719333e-07
7.4536738e-07
7.6301109e-07
7.8359234e-07
8.0088182e-07
8.1163663e-07
8.1469021e-07
8.1125672e-07
8.0378387e-07
7.9480793e-07
7.8588683e-07
7.78096e-07
7.7202541e-07
7.677354e-07
7.6478031e-07
7.6261718e-07
7.6094042e-07
7.5979199e-07
7.5896991e-07
7.5839958e-07
7.5793766e-07
7.5771822e-07
7.5778779e-07
7.5787838e-07
7.5810361e-07
7.586744e-07
7.5919317e-07
7.6034079e-07
7.6115237e-07
7.6277922e-07
7.6379953e-07
7.6594455e-07
7.6726444e-07
7.7003906e-07
7.7170556e-07
7.7532083e-07
7.7745864e-07
7.8196168e-07
7.8449461e-07
7.9016567e-07
7.932704e-07
7.9996423e-07
8.0366123e-07
8.109196e-07
8.7415716e-07
8.4672377e-07
8.0277002e-07
8.0861978e-07
8.388667e-07
8.6748131e-07
8.738418e-07
8.5219215e-07
8.1301427e-07
7.732017e-07
7.4595523e-07
7.368366e-07
7.4413959e-07
7.6127531e-07
7.8187529e-07
7.9959576e-07
8.1098327e-07
8.1472375e-07
8.119439e-07
8.0487111e-07
7.9597417e-07
7.8702673e-07
7.7910464e-07
7.7288987e-07
7.683853e-07
7.6529186e-07
7.6308587e-07
7.6138632e-07
7.6021822e-07
7.5938559e-07
7.5879082e-07
7.583175e-07
7.5802262e-07
7.5799424e-07
7.5809287e-07
7.5827219e-07
7.5868674e-07
7.5910278e-07
7.6006665e-07
7.6078438e-07
7.6220963e-07
7.6313922e-07
7.6498822e-07
7.6614299e-07
7.6854099e-07
7.7005416e-07
7.7311112e-07
7.749655e-07
7.7880632e-07
7.8130059e-07
7.8602983e-07
7.8874674e-07
7.947815e-07
7.9783242e-07
8.0456861e-07
8.7416347e-07
8.4794146e-07
8.0304753e-07
8.0832417e-07
8.382857e-07
8.6716561e-07
8.7431833e-07
8.5357773e-07
8.1486764e-07
7.7481982e-07
7.4674513e-07
7.36568e-07
7.4296609e-07
7.596056e-07
7.8013082e-07
7.9819604e-07
8.1021982e-07
8.1465313e-07
8.1245381e-07
8.0585704e-07
7.9712911e-07
7.8814739e-07
7.8006039e-07
7.7366577e-07
7.6905317e-07
7.6585861e-07
7.6360454e-07
7.6182025e-07
7.6058134e-07
7.5968713e-07
7.5909462e-07
7.586168e-07
7.5832454e-07
7.5821664e-07
7.5835534e-07
7.5845081e-07
7.5875425e-07
7.591053e-07
7.5993322e-07
7.6054631e-07
7.6181103e-07
7.6262028e-07
7.6427371e-07
7.6529924e-07
7.67473e-07
7.6869017e-07
7.7142688e-07
7.7298964e-07
7.7654695e-07
7.7841141e-07
7.8261047e-07
7.8524774e-07
7.9021028e-07
7.9315679e-07
7.9902456e-07
8.7406903e-07
8.4807296e-07
8.0307309e-07
8.0797626e-07
8.3772513e-07
8.6687456e-07
8.7478673e-07
8.5492846e-07
8.1669143e-07
7.7645498e-07
7.4758576e-07
7.363764e-07
7.4183776e-07
7.579204e-07
7.7839707e-07
7.9675118e-07
8.0943559e-07
8.1464559e-07
8.1309396e-07
8.0692428e-07
7.9843143e-07
7.8943168e-07
7.8114913e-07
7.745455e-07
7.6972537e-07
7.6641755e-07
7.6405936e-07
7.6221757e-07
7.6090697e-07
7.5999874e-07
7.5940788e-07
7.5893044e-07
7.586163e-07
7.584515e-07
7.5853655e-07
7.5863014e-07
7.5886145e-07
7.5918156e-07
7.598767e-07
7.6042464e-07
7.6154357e-07
7.6226463e-07
7.6373295e-07
7.6467345e-07
7.6650547e-07
7.6766031e-07
7.700267e-07
7.7146574e-07
7.7435077e-07
7.7617597e-07
7.7996852e-07
7.8212183e-07
7.8657324e-07
7.892648e-07
7.9418828e-07
8.7407438e-07
8.494803e-07
8.0348686e-07
8.0782886e-07
8.3728251e-07
8.6664676e-07
8.7529462e-07
8.5631388e-07
8.1857735e-07
7.7815042e-07
7.4847785e-07
7.362279e-07
7.4074485e-07
7.5624562e-07
7.7666543e-07
7.9535875e-07
8.0866064e-07
8.1463646e-07
8.1379986e-07
8.0804523e-07
7.9971444e-07
7.9074162e-07
7.8230916e-07
7.7549094e-07
7.7041386e-07
7.6693974e-07
7.6454324e-07
7.6266613e-07
7.6127984e-07
7.6034065e-07
7.5970568e-07
7.5921624e-07
7.5889465e-07
7.5870656e-07
7.5870445e-07
7.5885926e-07
7.5905223e-07
7.5931724e-07
7.5989092e-07
7.6037675e-07
7.6138788e-07
7.6206082e-07
7.6340595e-07
7.6422429e-07
7.6591785e-07
7.6693654e-07
7.6904327e-07
7.7021033e-07
7.7290743e-07
7.7443325e-07
7.7760283e-07
7.7967797e-07
7.8350294e-07
7.8561272e-07
7.9046521e-07
8.7398226e-07
8.4951573e-07
8.0350634e-07
8.0755442e-07
8.3682284e-07
8.6642262e-07
8.7578644e-07
8.5765636e-07
8.2042076e-07
7.7983381e-07
7.4940965e-07
7.3612002e-07
7.397001e-07
7.546301e-07
7.7490997e-07
7.9395933e-07
8.0789979e-07
8.1458674e-07
8.1439753e-07
8.0920382e-07
8.0107729e-07
7.9207703e-07
7.8348541e-07
7.7647937e-07
7.712555e-07
7.6757274e-07
7.6502947e-07
7.6304966e-07
7.615863e-07
7.6059979e-07
7.5996388e-07
7.5946212e-07
7.5913733e-07
7.5891976e-07
7.5885748e-07
7.5904934e-07
7.5918787e-07
7.5942656e-07
7.5993988e-07
7.6036911e-07
7.6131554e-07
7.619272e-07
7.6312531e-07
7.6388881e-07
7.653604e-07
7.6625079e-07
7.6815004e-07
7.6926797e-07
7.7158675e-07
7.7296944e-07
7.757081e-07
7.7812154e-07
7.805377e-07
7.8346473e-07
7.8758644e-07
8.7395631e-07
8.5106132e-07
8.0406777e-07
8.0761922e-07
8.3661458e-07
8.6638252e-07
8.7638055e-07
8.5910423e-07
8.2238706e-07
7.8160467e-07
7.504029e-07
7.3604147e-07
7.3865116e-07
7.530812e-07
7.7318499e-07
7.9261858e-07
8.072511e-07
8.1471495e-07
8.1520303e-07
8.1040525e-07
8.0250827e-07
7.9358791e-07
7.8483222e-07
7.7750576e-07
7.7201201e-07
7.6819048e-07
7.6555014e-07
7.6350917e-07
7.6194624e-07
7.6086452e-07
7.6018389e-07
7.5968522e-07
7.5936718e-07
7.5913471e-07
7.5904845e-07
7.5921515e-07
7.5935684e-07
7.5957992e-07
7.6003046e-07
7.6040572e-07
7.6124385e-07
7.6182251e-07
7.6299656e-07
7.6374651e-07
7.6506066e-07
7.6600236e-07
7.6762746e-07
7.6862569e-07
7.7048413e-07
7.7187494e-07
7.743536e-07
7.7615241e-07
7.7845675e-07
7.8165504e-07
7.8424115e-07
8.7386999e-07
8.5100909e-07
8.0409363e-07
8.0744213e-07
8.3631035e-07
8.6631447e-07
8.7698251e-07
8.6052069e-07
8.242854e-07
7.8337644e-07
7.5142762e-07
7.3606627e-07
7.3769977e-07
7.5157841e-07
7.7147849e-07
7.9123333e-07
8.0652748e-07
8.1465952e-07
8.1580108e-07
8.1149277e-07
8.0377557e-07
7.9483438e-07
7.8595251e-07
7.7845155e-07
7.7268908e-07
7.6861189e-07
7.6577921e-07
7.6370144e-07
7.6208857e-07
7.6095793e-07
7.6028394e-07
7.5978405e-07
7.594403e-07
7.5918852e-07
7.5908983e-07
7.5921059e-07
7.5939477e-07
7.5960564e-07
7.6001781e-07
7.6037535e-07
7.6118094e-07
7.6172757e-07
7.6280494e-07
7.6341936e-07
7.6472955e-07
7.6556106e-07
7.6711441e-07
7.6788403e-07
7.6984542e-07
7.7087533e-07
7.7338441e-07
7.7489984e-07
7.7714468e-07
7.8022765e-07
7.8214295e-07
8.7378894e-07
8.5262015e-07
8.0478269e-07
8.0774717e-07
8.3635147e-07
8.6646876e-07
8.7767449e-07
8.6204608e-07
8.2636213e-07
7.8525704e-07
7.5253481e-07
7.3606746e-07
7.3676922e-07
7.500991e-07
7.6969044e-07
7.8983286e-07
8.059019e-07
8.1460096e-07
8.1639997e-07
8.1244278e-07
8.0484638e-07
7.9591409e-07
7.8685703e-07
7.7900074e-07
7.729383e-07
7.6867711e-07
7.6573604e-07
7.635735e-07
7.6186811e-07
7.6064301e-07
7.5992752e-07
7.5946302e-07
7.5913998e-07
7.5891233e-07
7.5879874e-07
7.5887894e-07
7.5910501e-07
7.5934141e-07
7.597249e-07
7.6006516e-07
7.6078805e-07
7.6136991e-07
7.6255289e-07
7.6326788e-07
7.644197e-07
7.6535369e-07
7.6664769e-07
7.6745177e-07
7.6896873e-07
7.7006261e-07
7.7216609e-07
7.7346224e-07
7.7569041e-07
7.7809975e-07
7.7966874e-07
8.7373097e-07
8.5247549e-07
8.0476466e-07
8.0765304e-07
8.3618879e-07
8.6651991e-07
8.7830508e-07
8.6339689e-07
8.2818492e-07
7.8702227e-07
7.5364627e-07
7.3616136e-07
7.3588537e-07
7.4854014e-07
7.6775802e-07
7.8793896e-07
8.0459544e-07
8.1364834e-07
8.1577436e-07
8.1219224e-07
8.0463184e-07
7.9544717e-07
7.8619261e-07
7.7812142e-07
7.7175394e-07
7.6714967e-07
7.6392575e-07
7.6169548e-07
7.6000539e-07
7.5875561e-07
7.5804233e-07
7.5759896e-07
7.5731904e-07
7.5715236e-07
7.5709981e-07
7.5720359e-07
7.5748227e-07
7.5781701e-07
7.5830187e-07
7.5874865e-07
7.5942909e-07
7.6009104e-07
7.6126659e-07
7.6190221e-07
7.6310084e-07
7.6448677e-07
7.6534094e-07
7.6615887e-07
7.6781894e-07
7.6898451e-07
7.7102061e-07
7.7214763e-07
7.7466866e-07
7.7600248e-07
7.7809607e-07
8.7363685e-07
8.5405511e-07
8.0537e-07
8.0809588e-07
8.3660268e-07
8.6699721e-07
8.7893292e-07
8.6468554e-07
8.2999823e-07
7.8868578e-07
7.5460293e-07
7.3591622e-07
7.344731e-07
7.4608046e-07
7.6486338e-07
7.8458609e-07
8.0116429e-07
8.1038132e-07
8.1261352e-07
8.0893295e-07
8.0156097e-07
7.9261078e-07
7.8322093e-07
7.7477389e-07
7.679809e-07
7.6310463e-07
7.5957241e-07
7.5707232e-07
7.5523394e-07
7.5381434e-07
7.5298936e-07
7.5254461e-07
7.5226194e-07
7.5218429e-07
7.5217109e-07
7.5234453e-07
7.526452e-07
7.5310523e-07
7.5367576e-07
7.5438531e-07
7.5500434e-07
7.5595128e-07
7.5730047e-07
7.5801023e-07
7.5918018e-07
7.607939e-07
7.6170193e-07
7.6250431e-07
7.6421677e-07
7.6512258e-07
7.6730081e-07
7.6849398e-07
7.7040902e-07
7.7168259e-07
7.7345211e-07
8.7366623e-07
8.5355251e-07
8.0490575e-07
8.0724403e-07
8.3548029e-07
8.6607031e-07
8.7825633e-07
8.6409723e-07
8.2970483e-07
7.8816187e-07
7.532564e-07
7.3308643e-07
7.3034291e-07
7.3995661e-07
7.5766181e-07
7.761202e-07
7.9237472e-07
8.0032415e-07
8.0275023e-07
8.0020925e-07
7.9442163e-07
7.874169e-07
7.8011025e-07
7.7284507e-07
7.6641563e-07
7.6127152e-07
7.573815e-07
7.5432506e-07
7.5213487e-07
7.503434e-07
7.4897321e-07
7.4801877e-07
7.4729374e-07
7.4689115e-07
7.4654812e-07
7.4639627e-07
7.4645171e-07
7.4674419e-07
7.472418e-07
7.4772906e-07
7.4813388e-07
7.4850077e-07
7.4905727e-07
7.5008954e-07
7.5075371e-07
7.5173683e-07
7.5302732e-07
7.5423734e-07
7.5538155e-07
7.5642978e-07
7.5805305e-07
7.5920814e-07
7.6042646e-07
7.6308738e-07
7.6443965e-07
8.7339217e-07
8.5277817e-07
8.0318196e-07
8.0259908e-07
8.2959931e-07
8.6423149e-07
8.828072e-07
8.695733e-07
8.3202427e-07
7.8702785e-07
7.5096538e-07
7.3018511e-07
7.2927929e-07
7.3913507e-07
7.565742e-07
7.7444447e-07
7.9444238e-07
8.0109955e-07
8.0199839e-07
8.0394745e-07
8.065558e-07
8.1184098e-07
8.1699817e-07
8.2036213e-07
8.215122e-07
8.2216198e-07
8.2316422e-07
8.229161e-07
8.2162314e-07
8.2101881e-07
8.1919786e-07
8.1784695e-07
8.164547e-07
8.1541485e-07
8.1464497e-07
8.13934e-07
8.1354134e-07
8.1245058e-07
8.1217731e-07
8.102989e-07
8.0699931e-07
8.0566428e-07
8.0367502e-07
7.9779503e-07
7.931059e-07
7.9026766e-07
7.8378195e-07
7.7892077e-07
7.7686087e-07
7.7440877e-07
7.7267487e-07
7.719407e-07
7.7203328e-07
7.722667e-07
7.6945988e-07
8.631808e-07
8.299965e-07
7.8502974e-07
7.700862e-07
8.1196295e-07
8.7812735e-07
9.5210381e-07
1.0158707e-06
9.7231627e-07
8.9724669e-07
8.6955115e-07
8.7149726e-07
8.8014338e-07
9.1924264e-07
9.6550985e-07
9.8216178e-07
9.8848487e-07
9.9478909e-07
9.9418884e-07
9.9761087e-07
1.0039262e-06
1.0322013e-06
1.0775934e-06
1.1095641e-06
1.1334878e-06
1.1531872e-06
1.1728466e-06
1.1879242e-06
1.1949753e-06
1.2049942e-06
1.2070103e-06
1.2110581e-06
1.2144434e-06
1.2178738e-06
1.2202224e-06
1.2229535e-06
1.2268311e-06
1.2273971e-06
1.2277272e-06
1.226188e-06
1.2175633e-06
1.214962e-06
1.2104584e-06
1.1928748e-06
1.169963e-06
1.1602118e-06
1.1370331e-06
1.1060732e-06
1.0899353e-06
1.0720734e-06
1.0581609e-06
1.0509026e-06
1.0401722e-06
1.0356299e-06
1.012509e-06
6.1140725e-07
8.3939617e-07
8.0057506e-07
8.3760008e-07
8.9968775e-07
1.1979989e-06
1.4269377e-06
1.4404505e-06
1.4434201e-06
1.3823739e-06
1.3782695e-06
1.3835936e-06
1.397465e-06
1.4640235e-06
1.510704e-06
1.5289694e-06
1.5296513e-06
1.5143105e-06
1.5036846e-06
1.506034e-06
1.5190367e-06
1.5666476e-06
1.6393938e-06
1.7055541e-06
1.7612037e-06
1.8110707e-06
1.8649436e-06
1.9161776e-06
1.9433087e-06
1.9906957e-06
2.0107024e-06
2.0479152e-06
2.061608e-06
2.0977375e-06
2.1065957e-06
2.123776e-06
2.1563759e-06
2.1474379e-06
2.168615e-06
2.1623188e-06
2.1642293e-06
2.1949807e-06
2.2038819e-06
2.1473935e-06
2.1111668e-06
2.1159798e-06
2.0754321e-06
2.0351538e-06
2.0207013e-06
1.9755314e-06
1.9650467e-06
1.9516879e-06
1.9442294e-06
1.9333766e-06
1.9090498e-06
3.7868078e-07
8.0256461e-07
8.3887689e-07
8.1887158e-07
8.5389373e-07
9.2892213e-07
1.0014667e-06
1.1673133e-06
1.2111467e-06
1.1928968e-06
1.1760594e-06
1.1587797e-06
1.1792492e-06
1.2015837e-06
1.2122188e-06
1.2187287e-06
1.219738e-06
1.220638e-06
1.2286325e-06
1.2498999e-06
1.2827428e-06
1.3212565e-06
1.3587847e-06
1.3916499e-06
1.421293e-06
1.4552459e-06
1.4979186e-06
1.5486886e-06
1.6041611e-06
1.6636483e-06
1.716015e-06
1.7728306e-06
1.8024238e-06
1.8673588e-06
1.8586914e-06
1.9513488e-06
1.9342765e-06
2.0014728e-06
2.0938974e-06
2.0567954e-06
2.1681902e-06
2.2387715e-06
2.2070109e-06
2.1734933e-06
2.3752372e-06
2.395469e-06
2.2646109e-06
2.4431127e-06
2.4772251e-06
2.3219354e-06
2.5513597e-06
2.4190122e-06
2.5522992e-06
2.4501204e-06
2.6272362e-06
2.4365049e-06
1.9882814e-06
1.0705733e-06
7.8196626e-07
7.6737777e-07
7.7623181e-07
7.8136802e-07
7.8309604e-07
7.8558705e-07
7.8736857e-07
7.9024106e-07
7.9348462e-07
7.9765644e-07
8.027424e-07
8.0905991e-07
8.1606987e-07
8.2370558e-07
8.3231146e-07
8.429346e-07
8.5657508e-07
8.7514349e-07
8.9767855e-07
9.1757059e-07
9.3466094e-07
9.6182888e-07
1.0016117e-06
1.0329593e-06
2.4405905e-06
2.0021696e-06
1.1169639e-06
7.9432032e-07
7.6973028e-07
7.7812254e-07
7.8370567e-07
7.8643052e-07
7.8960264e-07
7.9220911e-07
7.9589054e-07
7.9915889e-07
8.0335248e-07
8.0775441e-07
8.1371237e-07
8.2105875e-07
8.2966505e-07
8.3909155e-07
8.4949243e-07
8.6192265e-07
8.7899677e-07
9.0105662e-07
9.226491e-07
9.3905243e-07
9.6405267e-07
1.0047277e-06
1.0337194e-06
2.2341398e-06
2.0666048e-06
1.1816591e-06
8.0937776e-07
7.7221608e-07
7.8130649e-07
7.8690751e-07
7.8980202e-07
7.9341091e-07
7.9603254e-07
8.0022829e-07
8.0438861e-07
8.0911499e-07
8.1393797e-07
8.1940319e-07
8.2557367e-07
8.3340914e-07
8.4281181e-07
8.5330421e-07
8.666255e-07
8.8434809e-07
9.0801024e-07
9.3138882e-07
9.491823e-07
9.7049736e-07
1.0130676e-06
1.040083e-06
2.128504e-06
2.0729121e-06
1.2251822e-06
8.2644099e-07
7.75451e-07
7.8524982e-07
7.9167348e-07
7.9618953e-07
7.9990319e-07
8.0210895e-07
8.0588499e-07
8.0959811e-07
8.1484451e-07
8.2066727e-07
8.2734512e-07
8.349033e-07
8.4296374e-07
8.5201603e-07
8.6210585e-07
8.7330141e-07
8.8858304e-07
9.106779e-07
9.3525212e-07
9.5525702e-07
9.74915e-07
1.017146e-06
1.0441464e-06
1.8984586e-06
2.0958882e-06
1.3016114e-06
8.5956675e-07
7.8256068e-07
7.9189466e-07
7.9940803e-07
8.0410216e-07
8.0822343e-07
8.1045275e-07
8.1379282e-07
8.1697464e-07
8.2141902e-07
8.2657248e-07
8.3278641e-07
8.4015919e-07
8.4931557e-07
8.5881927e-07
8.6951781e-07
8.8138487e-07
8.9570634e-07
9.1694691e-07
9.4071948e-07
9.6256344e-07
9.8158152e-07
1.0238528e-06
1.0505097e-06
1.6399527e-06
2.1417603e-06
1.4931875e-06
9.529699e-07
7.4701073e-07
8.0099483e-07
8.0809985e-07
8.1163843e-07
8.1547276e-07
8.1772178e-07
8.2133179e-07
8.2452433e-07
8.2915166e-07
8.3411463e-07
8.4077965e-07
8.4872115e-07
8.5765098e-07
8.6767661e-07
8.7854213e-07
8.9116976e-07
9.0566293e-07
9.2441802e-07
9.4812902e-07
9.6968646e-07
9.8682354e-07
1.0297126e-06
1.0516475e-06
1.5537663e-06
2.0837094e-06
1.5815936e-06
9.3111836e-07
7.6902339e-07
8.0554403e-07
8.1195569e-07
8.1535686e-07
8.1914838e-07
8.2169535e-07
8.2563195e-07
8.2973628e-07
8.3474013e-07
8.4018401e-07
8.4709685e-07
8.5448022e-07
8.6362446e-07
8.7381886e-07
8.8583931e-07
8.9851284e-07
9.1448068e-07
9.3448446e-07
9.5860276e-07
9.8164686e-07
9.9734251e-07
1.0391151e-06
1.0572162e-06
1.4989073e-06
2.074505e-06
1.5787122e-06
1.0247089e-06
7.8687729e-07
8.0757767e-07
8.1441686e-07
8.184819e-07
8.2310045e-07
8.262527e-07
8.3042695e-07
8.3507043e-07
8.4164919e-07
8.4849531e-07
8.5569415e-07
8.6300863e-07
8.7100994e-07
8.803335e-07
8.9111434e-07
9.0316301e-07
9.1878167e-07
9.39208e-07
9.6361903e-07
9.910457e-07
1.0074743e-06
1.0493371e-06
1.0676911e-06
1.2050421e-06
2.0265766e-06
1.5789185e-06
1.0373034e-06
6.5937884e-07
7.4533134e-07
8.2081268e-07
8.2621172e-07
8.3275401e-07
8.3688127e-07
8.4088813e-07
8.4540692e-07
8.5049796e-07
8.5716731e-07
8.6527877e-07
8.7400984e-07
8.8275181e-07
8.9276623e-07
9.0305023e-07
9.1405588e-07
9.2744744e-07
9.4719932e-07
9.6934504e-07
9.9506502e-07
1.0118502e-06
1.0527837e-06
1.073338e-06
1.0190884e-06
1.8070581e-06
1.5682493e-06
9.4239813e-07
6.3657957e-07
6.7585518e-07
8.3120111e-07
8.3761991e-07
8.4391809e-07
8.4797398e-07
8.5195308e-07
8.5638836e-07
8.6131779e-07
8.6634647e-07
8.7152967e-07
8.7879188e-07
8.8834575e-07
8.9947876e-07
9.1070665e-07
9.2395058e-07
9.3733031e-07
9.5742068e-07
9.7937576e-07
1.0055052e-06
1.0217099e-06
1.0610436e-06
1.083443e-06
9.7153012e-07
1.7645275e-06
1.5472501e-06
9.0512146e-07
7.2467437e-07
6.6257223e-07
8.3509016e-07
8.4243238e-07
8.4892554e-07
8.5329487e-07
8.5767536e-07
8.6278632e-07
8.6910499e-07
8.7537041e-07
8.8255788e-07
8.8943594e-07
8.9785052e-07
9.0844027e-07
9.1976549e-07
9.3282871e-07
9.4673184e-07
9.6432758e-07
9.8485332e-07
1.0112617e-06
1.0266338e-06
1.0654255e-06
1.0870597e-06
8.8130509e-07
1.7080586e-06
1.5087243e-06
1.0756478e-06
7.7716855e-07
6.7585056e-07
8.3761055e-07
8.4632054e-07
8.532419e-07
8.5828245e-07
8.6313873e-07
8.6851735e-07
8.75526e-07
8.8243919e-07
8.9003101e-07
8.9819124e-07
9.0686606e-07
9.1607863e-07
9.2847366e-07
9.4211875e-07
9.5746371e-07
9.7652088e-07
9.9695476e-07
1.0239368e-06
1.038126e-06
1.0755423e-06
1.0936871e-06
6.3809565e-07
1.6660268e-06
1.4918919e-06
1.0817488e-06
6.4654032e-07
6.2003338e-07
7.0856514e-07
8.5572185e-07
8.6302525e-07
8.6990633e-07
8.7508131e-07
8.8042634e-07
8.8694842e-07
8.9340307e-07
9.0162986e-07
9.1017872e-07
9.1945774e-07
9.2856169e-07
9.4000823e-07
9.5132086e-07
9.6393137e-07
9.8293442e-07
1.0043082e-06
1.0335882e-06
1.0465086e-06
1.0843298e-06
1.0988406e-06
4.7830271e-07
1.3530795e-06
1.4382616e-06
9.9972138e-07
5.6187072e-07
5.5117768e-07
6.5229318e-07
8.7013771e-07
8.8103361e-07
8.8651646e-07
8.9132725e-07
8.9545845e-07
9.0009727e-07
9.0596501e-07
9.1325763e-07
9.2175265e-07
9.3157426e-07
9.4245677e-07
9.541724e-07
9.6650387e-07
9.7918215e-07
9.980594e-07
1.0158389e-06
1.0463783e-06
1.0585083e-06
1.0969043e-06
1.1117367e-06
4.2467979e-07
1.2185941e-06
1.3985166e-06
9.7979591e-07
6.0413616e-07
5.6196811e-07
6.4754981e-07
8.7867159e-07
8.9098403e-07
8.9710509e-07
9.0299833e-07
9.0744447e-07
9.1223189e-07
9.1740776e-07
9.234869e-07
9.3137426e-07
9.3979889e-07
9.5096421e-07
9.6162862e-07
9.7432863e-07
9.8573996e-07
1.0058326e-06
1.0223497e-06
1.0532161e-06
1.0640144e-06
1.1024819e-06
1.1185762e-06
3.2409711e-07
1.2120677e-06
1.3973503e-06
9.6095291e-07
7.0255369e-07
5.8936875e-07
6.9448611e-07
8.7099523e-07
8.9397343e-07
9.0175754e-07
9.0909797e-07
9.1440619e-07
9.2021189e-07
9.2666426e-07
9.324794e-07
9.4055383e-07
9.4971169e-07
9.6124736e-07
9.7301523e-07
9.8716147e-07
9.987867e-07
1.0196492e-06
1.035481e-06
1.0668079e-06
1.0761726e-06
1.1136848e-06
1.1285158e-06
2.9671187e-07
1.2290371e-06
1.3482485e-06
1.0132253e-06
7.5079488e-07
5.7477563e-07
6.6347604e-07
8.3396608e-07
8.9714902e-07
9.0651504e-07
9.1387252e-07
9.1947433e-07
9.2612521e-07
9.3449997e-07
9.4279365e-07
9.5168069e-07
9.6113481e-07
9.7140343e-07
9.825334e-07
9.9641799e-07
1.0064522e-06
1.0275645e-06
1.0428327e-06
1.0736022e-06
1.0817162e-06
1.1190646e-06
1.1342145e-06
3.0460682e-07
1.1649601e-06
1.3188889e-06
1.0340814e-06
6.5058289e-07
5.2947268e-07
5.6004664e-07
6.9892863e-07
9.0463628e-07
9.1606723e-07
9.2285109e-07
9.2907136e-07
9.3641046e-07
9.4416805e-07
9.5323634e-07
9.6126919e-07
9.7048975e-07
9.8034062e-07
9.9277357e-07
1.0076062e-06
1.0182671e-06
1.0371624e-06
1.0528366e-06
1.0859043e-06
1.0938297e-06
1.1293678e-06
1.1429998e-06
2.9491681e-07
9.1025045e-07
1.2149959e-06
1.0485859e-06
5.7204541e-07
5.2799091e-07
5.069061e-07
6.3055915e-07
8.6743216e-07
9.380695e-07
9.4349572e-07
9.4865613e-07
9.5343182e-07
9.5864859e-07
9.6636586e-07
9.7409928e-07
9.8343028e-07
9.9237241e-07
1.0032077e-06
1.0175296e-06
1.0280932e-06
1.0457583e-06
1.0607576e-06
1.0948518e-06
1.1033424e-06
1.1397065e-06
1.1557818e-06
2.36705e-07
6.7977769e-07
1.0942815e-06
1.0978912e-06
6.0204357e-07
5.4178561e-07
5.2559694e-07
6.2866417e-07
8.7135679e-07
9.5408758e-07
9.6078185e-07
9.650494e-07
9.6928527e-07
9.7414695e-07
9.8096864e-07
9.8873204e-07
9.9754215e-07
1.0066059e-06
1.0160069e-06
1.0293249e-06
1.0386426e-06
1.0546857e-06
1.0673939e-06
1.1018949e-06
1.1105217e-06
1.1461144e-06
1.1615675e-06
2.0494262e-07
5.9196385e-07
1.0660544e-06
1.0579586e-06
6.6311007e-07
5.4737896e-07
5.4068675e-07
6.4513601e-07
8.4414485e-07
9.6117772e-07
9.6952414e-07
9.7518494e-07
9.8041331e-07
9.8635726e-07
9.9287336e-07
1.0006693e-06
1.0095085e-06
1.0201391e-06
1.0298459e-06
1.0427671e-06
1.0518214e-06
1.0676888e-06
1.0779272e-06
1.1100823e-06
1.1192858e-06
1.1535285e-06
1.1720092e-06
2.0267886e-07
5.6850615e-07
1.0584161e-06
1.0198827e-06
6.9519052e-07
5.5572786e-07
5.5652628e-07
6.3457794e-07
7.8860934e-07
9.6467538e-07
9.7392785e-07
9.8065687e-07
9.8656246e-07
9.9296552e-07
9.9935058e-07
1.0067419e-06
1.015257e-06
1.0268912e-06
1.0374569e-06
1.0514162e-06
1.059892e-06
1.0758504e-06
1.0852493e-06
1.1182192e-06
1.1273976e-06
1.1590324e-06
1.1779192e-06
2.2278885e-07
6.0360865e-07
1.0320627e-06
9.7234203e-07
6.9709994e-07
5.5866087e-07
5.7191905e-07
6.1251329e-07
7.3748282e-07
9.6737008e-07
9.7761426e-07
9.8566311e-07
9.9179382e-07