/*--------------------------------*- C++ -*----------------------------------*\
| =========                 |                                                 |
| \\      /  F ield         | OpenFOAM: The Open Source CFD Toolbox           |
|  \\    /   O peration     | Version:  2406                                  |
|   \\  /    A nd           | Website:  www.openfoam.com                      |
|    \\/     M anipulation  |                                                 |
\*---------------------------------------------------------------------------*/
FoamFile
{
    version     2.0;
    format      ascii;
    arch        "LSB;label=32;scalar=64";
    class       volScalarField;
    location    "12";
    object      omega_0;
}
// * * * * * * * * * * * * * * * * * * * * * * * * * * * * * * * * * * * * * //

dimensions      [0 0 -1 0 0 0 0];

internalField   nonuniform List<scalar> 
62344
(
4.3018881
3.4610886
2.9628279
2.5978032
2.3000834
2.0535086
1.8494973
1.688118
1.5629118
1.469656
1.3967821
1.3395814
1.2926758
1.2505673
1.2086091
1.1704469
1.1293397
1.0911364
1.054336
1.0212967
0.99219149
0.96849151
0.94891353
0.9345902
0.9258626
0.9225422
0.91775952
0.91892037
0.9196474
0.92166086
0.93136154
0.9436121
0.96316982
0.99102204
1.0325529
1.0728361
1.1575645
1.2367855
1.3728596
1.519944
1.7328353
1.8918864
2.1503168
2.2926651
2.5663866
2.7503565
3.0133749
3.2867
3.6437305
3.933853
4.2780224
4.4972088
4.7938727
4.9324201
5.279148
4.3063039
3.4663649
2.9688697
2.6048786
2.3080437
2.0610816
1.856986
1.6949105
1.5683875
1.4740523
1.4022435
1.3451083
1.2981877
1.2571568
1.216035
1.1770899
1.136472
1.0984344
1.0601692
1.0262149
0.99787627
0.97102671
0.95237152
0.93493883
0.92436993
0.91871493
0.91441982
0.91425567
0.91384598
0.91492068
0.91907256
0.9235547
0.93409538
0.95568009
0.98771024
1.0207073
1.079114
1.1411311
1.2399169
1.3251871
1.4914591
1.6091881
1.8563579
2.0202741
2.3680372
2.634544
2.9381904
3.1494341
3.4706222
3.7164872
4.0685016
4.251538
4.4794178
4.6257805
4.793123
4.3096913
3.469556
2.9744679
2.6105489
2.3152825
2.0678325
1.8632788
1.6999321
1.5730191
1.4769709
1.4040119
1.3473941
1.3006015
1.2580198
1.2171851
1.1776803
1.1384142
1.1010713
1.0621781
1.0283479
1.0004403
0.97249568
0.95308747
0.93858308
0.92805706
0.92012951
0.91552228
0.91472175
0.91299606
0.91407003
0.91770155
0.92210622
0.93646556
0.96309945
0.99753548
1.0247782
1.0655638
1.1025264
1.1691917
1.2355779
1.3398609
1.434325
1.6143729
1.7440059
2.0046945
2.2059145
2.4379476
2.6688833
3.0143149
3.2754234
3.5742655
3.8295176
4.201843
4.4883962
4.7751083
4.3143648
3.4736022
2.9794617
2.6166045
2.3217504
2.0754248
1.8706703
1.7065049
1.5786277
1.4823062
1.4081081
1.3510615
1.3045768
1.2622383
1.2210923
1.1833459
1.1452303
1.1068276
1.070583
1.0363493
1.007893
0.98110931
0.95915277
0.94403226
0.93415481
0.922528
0.91659488
0.91591885
0.91330378
0.91535992
0.92135458
0.9282961
0.94410304
0.96801373
0.99223235
1.0159094
1.0560223
1.0905031
1.1522265
1.2013711
1.2890633
1.3650287
1.5105476
1.6245171
1.8276703
1.9819765
2.2218321
2.4777123
2.6595355
2.8362028
3.0480316
3.3061762
3.6556612
3.8564598
4.2352663
4.318108
3.4774838
2.9838481
2.6228245
2.3278502
2.0816653
1.8768078
1.7115539
1.5828196
1.4860485
1.412432
1.3557933
1.3086662
1.265115
1.2241729
1.1884069
1.1495283
1.1104117
1.074771
1.0419518
1.0109615
0.984623
0.96302891
0.94821942
0.9371896
0.92516033
0.91815513
0.91692648
0.91500023
0.91773967
0.92336622
0.93052997
0.94325521
0.96154023
0.98106
1.0034535
1.0463588
1.0868353
1.1521982
1.1958651
1.277193
1.3393422
1.464625
1.5620018
1.7385549
1.8693109
2.1273422
2.2898966
2.5181422
2.6870027
2.957417
3.1095983
3.3379674
3.4730942
3.751632
4.3221238
3.4820032
2.9882471
2.6284393
2.3341718
2.0878745
1.8828637
1.7168788
1.587559
1.490596
1.4158233
1.3583146
1.3105143
1.2695868
1.2291838
1.1925253
1.1553507
1.1168091
1.0826421
1.0476437
1.015934
0.99008333
0.96791854
0.95300622
0.9422915
0.92854079
0.92056846
0.91826705
0.91647396
0.91916555
0.92226189
0.92689326
0.93985684
0.95752151
0.97945375
1.0023981
1.0456663
1.090407
1.150601
1.189039
1.257117
1.3049295
1.4084707
1.4863879
1.6311792
1.7261037
1.9175559
2.0369386
2.2725835
2.4577823
2.72897
2.896192
3.1423721
3.3054528
3.5555491
4.3253437
3.4861796
2.9929168
2.6333722
2.3401165
2.0943813
1.8879473
1.7219964
1.5915435
1.49345
1.418435
1.3610066
1.3144634
1.2725867
1.2317607
1.1972555
1.1590474
1.1207562
1.0860766
1.049784
1.0188289
0.99301378
0.97118038
0.95519394
0.94356482
0.9304198
0.92293503
0.91864312
0.91656801
0.91824195
0.92041811
0.92480942
0.93953006
0.95982143
0.98654935
1.0099067
1.0507706
1.089908
1.1424721
1.1786795
1.2399569
1.2782312
1.365509
1.4360252
1.5668568
1.6617531
1.8160009
1.9231442
2.0997142
2.2949556
2.5053013
2.6761878
2.8943947
3.0334146
3.2871333
4.328681
3.4899235
2.9974715
2.6377588
2.3455301
2.0998285
1.8945016
1.7272769
1.5964636
1.4976484
1.4220621
1.3651272
1.3182564
1.2762377
1.2356107
1.2004014
1.1607244
1.1243847
1.0903365
1.0560623
1.024263
0.99507731
0.97535392
0.96142292
0.94727865
0.93553722
0.9287044
0.92220365
0.91902286
0.92023673
0.92183621
0.92740285
0.94393184
0.96237533
0.98747601
1.0089162
1.0432857
1.0752795
1.1257946
1.1625948
1.2277353
1.2698845
1.3428946
1.4075445
1.5144113
1.5965025
1.7439173
1.8613336
2.0021044
2.1674713
2.3360364
2.4816937
2.6717235
2.7838338
3.0297167
4.3318416
3.4930306
3.0016189
2.6424567
2.3504929
2.1052408
1.8997536
1.732034
1.5996431
1.5015813
1.4251198
1.3668029
1.3195196
1.2775542
1.2387055
1.2012559
1.1643849
1.1275186
1.0932568
1.0594584
1.0275457
0.9990861
0.97722165
0.96275146
0.94878737
0.93773525
0.93067378
0.92322324
0.91900358
0.92113633
0.92334448
0.92983226
0.94672715
0.96208953
0.97878977
1.0015454
1.0338413
1.0697735
1.118352
1.1567629
1.2248379
1.2778704
1.3429235
1.4070998
1.496918
1.5727599
1.7125288
1.8342699
1.9757257
2.1029656
2.2751998
2.4367943
2.5928484
2.773946
2.8996655
4.3349425
3.4961057
3.0053037
2.6474992
2.355731
2.1104709
1.9045824
1.7376144
1.6040069
1.5047098
1.4290359
1.3701378
1.3235926
1.2811026
1.2409137
1.2049425
1.1693585
1.1313833
1.097741
1.062788
1.031097
1.0042837
0.98040967
0.96354507
0.95168359
0.94160573
0.9334102
0.925365
0.92012936
0.92119565
0.92407813
0.93108982
0.94621229
0.95889588
0.97210931
0.99707532
1.0280301
1.0686772
1.1151386
1.1554775
1.2193279
1.2868913
1.3466392
1.4180973
1.4980509
1.5697403
1.691836
1.8199299
1.9531029
2.0761215
2.2300645
2.4166875
2.5618657
2.814037
2.9313097
4.3380108
3.4992171
3.0087536
2.6523137
2.3611274
2.1151758
1.9091914
1.7426155
1.6092715
1.5085415
1.4322316
1.3741145
1.3268964
1.2855346
1.2439668
1.2077486
1.1711468
1.1363363
1.1015689
1.065814
1.0338918
1.0057141
0.98406195
0.96736592
0.95300628
0.94258568
0.93505186
0.9268185
0.92205823
0.9221511
0.92311046
0.92958191
0.94282668
0.95598143
0.96987952
0.9979117
1.0289221
1.0722745
1.1129251
1.1565126
1.2083849
1.2808018
1.3410949
1.4148642
1.4915614
1.566239
1.665058
1.7968733
1.9194804
2.0476656
2.1738003
2.3474453
2.5052537
2.7588525
2.8975257
4.3410449
3.5022477
3.0121218
2.6567406
2.3661433
2.1199018
1.9138357
1.7460554
1.6127311
1.5125568
1.4344785
1.3764745
1.3284794
1.2861766
1.2468618
1.2097948
1.1744352
1.140625
1.1050208
1.0704696
1.037996
1.0097424
0.98791109
0.97050989
0.95506631
0.94377439
0.93843511
0.92947475
0.92457105
0.92319903
0.92152461
0.92700788
0.9402483
0.9555992
0.97107743
0.99930913
1.0291681
1.0737033
1.1071118
1.1546741
1.191115
1.2638574
1.3206661
1.399011
1.4702354
1.5510891
1.6214432
1.7503438
1.852776
1.9951282
2.1017034
2.2404746
2.4240627
2.605016
2.7398714
4.3437196
3.5053524
3.015578
2.6611025
2.3708485
2.1247505
1.918536
1.749547
1.6152706
1.5153728
1.4373952
1.377583
1.3300292
1.2873981
1.2493159
1.2125751
1.1788994
1.1431286
1.1103566
1.0766806
1.041615
1.014829
0.99093004
0.97063761
0.95738297
0.94636506
0.94104616
0.93124525
0.92619624
0.92344051
0.9214948
0.92656699
0.93902124
0.95584672
0.97154185
0.99803981
1.0265659
1.0670433
1.1022315
1.1417243
1.1789066
1.2412752
1.2948786
1.3717929
1.4454066
1.5223863
1.5928974
1.6886803
1.7898317
1.9177246
2.0324283
2.1408261
2.332126
2.439543
2.5652459
4.346292
3.5084904
3.019329
2.6652528
2.3751004
2.1296908
1.9229019
1.7549348
1.6198252
1.5182944
1.4407953
1.379872
1.3324529
1.2910859
1.2521162
1.215287
1.1811054
1.1451325
1.1128535
1.0807144
1.0446714
1.016961
0.99366195
0.97297459
0.95973015
0.94940727
0.94268804
0.93414472
0.92929696
0.92593721
0.92459682
0.92941102
0.93975423
0.9551828
0.96925191
0.99035631
1.0186407
1.0513623
1.0939371
1.1231482
1.1696985
1.2175523
1.2693075
1.3360863
1.4106327
1.4774613
1.5484867
1.6169593
1.7124439
1.8157898
1.9100151
2.0087099
2.173186
2.2637226
2.3705224
4.348837
3.511382
3.0231795
2.6691104
2.3794092
2.1343644
1.9272098
1.760134
1.6247541
1.5222308
1.4432611
1.3836475
1.3363255
1.2936516
1.254685
1.2181759
1.1824586
1.1479518
1.1136928
1.0820202
1.0485065
1.0179379
0.99630908
0.97882405
0.96319944
0.9517927
0.94366981
0.9364096
0.93131417
0.92816694
0.9267277
0.93104267
0.9404268
0.95371328
0.96634966
0.98433202
1.0083711
1.0411001
1.0806481
1.1189946
1.157372
1.2103849
1.2575401
1.3218246
1.3888815
1.4638669
1.5213493
1.5854719
1.6643344
1.7663819
1.8404382
1.9494599
2.0578443
2.1837203
2.2657221
4.351221
3.5140553
3.026545
2.672559
2.3835508
2.1382075
1.9319175
1.7635027
1.627553
1.5256599
1.4458026
1.3862507
1.3391925
1.2960609
1.2567054
1.2211846
1.1861714
1.1519783
1.117356
1.0837572
1.0523345
1.0214794
0.99922361
0.9825335
0.96675728
0.95503122
0.9460838
0.93850543
0.93214711
0.92983567
0.92869415
0.9324656
0.94123775
0.95261594
0.96418424
0.9819478
1.0042093
1.0375346
1.0744245
1.1196218
1.1569317
1.2119979
1.2609476
1.3237297
1.3860448
1.4709589
1.5258527
1.5865214
1.6550981
1.7548886
1.8225066
1.9385953
2.0249398
2.1695582
2.2455929
4.3536296
3.516764
3.0295389
2.6760495
2.3877964
2.1421571
1.9362678
1.765854
1.6293988
1.527653
1.4488791
1.3876768
1.3398424
1.2985623
1.2587051
1.2234338
1.1901262
1.1566311
1.1228849
1.0887351
1.0555027
1.0264459
1.0031604
0.98448978
0.96974516
0.95991985
0.95116335
0.9431652
0.93637759
0.93503196
0.935055
0.93875546
0.94665316
0.95591419
0.96603208
0.98579377
1.0056348
1.0433268
1.0772646
1.1328064
1.1738186
1.2301119
1.2825079
1.3539859
1.4127447
1.5091172
1.5771319
1.6491684
1.702867
1.8107956
1.8830734
2.0231712
2.1064462
2.241396
2.3292174
4.3556654
3.5193342
3.0323395
2.6795236
2.3918416
2.1465861
1.9397616
1.7694833
1.6330914
1.530091
1.4521235
1.3902951
1.3408669
1.3005558
1.2619498
1.2259801
1.1924387
1.1615302
1.1277721
1.0951359
1.0606838
1.0315588
1.0090347
0.98868902
0.97404094
0.96532226
0.95899204
0.95138927
0.94522307
0.94396193
0.94482811
0.94879801
0.95619862
0.96481148
0.97550198
0.99720462
1.0182369
1.0618455
1.0995253
1.1583672
1.2076477
1.2697034
1.3183403
1.4024809
1.4669442
1.5622802
1.6398385
1.7336374
1.7867686
1.8854714
1.9754398
2.1241683
2.2164357
2.3425099
2.4409682
4.3580782
3.5220302
3.0352912
2.6835536
2.3964599
2.1514983
1.9438731
1.7755142
1.6393838
1.535491
1.4568961
1.3961695
1.3472801
1.3058551
1.2695506
1.23316
1.1976722
1.1701516
1.1363611
1.1051013
1.0730545
1.042713
1.0225317
1.0031947
0.98857032
0.98181824
0.97831327
0.97201703
0.96658352
0.96491785
0.96595096
0.97073575
0.97929376
0.98827376
1.0004137
1.0262929
1.0491804
1.0958777
1.1360351
1.1973212
1.2655955
1.3417704
1.3946901
1.4933734
1.5705494
1.6631368
1.7417108
1.8554174
1.9230508
2.0015378
2.0808983
2.2337396
2.3454716
2.4484398
2.5351965
4.3599708
3.5246259
3.0383656
2.6880872
2.4019659
2.1573815
1.9508861
1.7847035
1.6495809
1.5470757
1.4681945
1.4087272
1.3632641
1.3207894
1.2860934
1.2507829
1.2141534
1.1880363
1.1557484
1.1251122
1.0968529
1.0655797
1.0477195
1.0301541
1.0173931
1.0135147
1.0096638
1.0043004
1.0003243
0.99988
1.0003698
1.0065982
1.0165004
1.0269579
1.0405563
1.0711745
1.0970735
1.1474598
1.1929793
1.2502637
1.3253158
1.4096855
1.4715932
1.5801868
1.6917429
1.7911298
1.875727
2.0147136
2.1116563
2.1867241
2.2563078
2.3926391
2.5068351
2.6168182
2.6683989
4.3636679
3.5287954
3.0437285
2.6959812
2.4128058
2.1705693
1.9682606
1.8045229
1.6713202
1.572473
1.4959228
1.4372639
1.3960001
1.3546866
1.321201
1.2876665
1.2513006
1.2240822
1.1950562
1.1643844
1.1380232
1.109446
1.0933643
1.078321
1.0699831
1.0695567
1.0664126
1.0633157
1.0613016
1.0634693
1.066273
1.075388
1.0867086
1.0991517
1.1133162
1.1448516
1.1717577
1.2238929
1.2746498
1.3354882
1.410376
1.5092736
1.5741094
1.6779793
1.7975789
1.9096356
1.9949967
2.1526743
2.2974249
2.4172257
2.4862822
2.6101118
2.7235553
2.8581708
2.9037546
4.3699399
3.5397031
3.0603726
2.7194336
2.4438494
2.207885
2.0121624
1.8498648
1.718198
1.6222626
1.549366
1.4912419
1.4508618
1.4130975
1.3813488
1.3491394
1.3137756
1.288277
1.2621702
1.2342105
1.2093972
1.1880958
1.1767588
1.1713113
1.1725925
1.1811871
1.1906281
1.1944162
1.1971899
1.2075555
1.2186921
1.2327199
1.2485438
1.2671765
1.2824997
1.3135126
1.3394888
1.3907508
1.4413562
1.5036155
1.5676169
1.6596808
1.7249227
1.8299009
1.942209
2.0627038
2.1504314
2.3014667
2.436798
2.600487
2.6823453
2.8210066
2.902836
3.0731151
3.1596718
4.4050155
3.5853307
3.1178922
2.7850029
2.5132513
2.2787636
2.0887596
1.9367818
1.8171795
1.7373613
1.6808341
1.6402899
1.6105306
1.5871985
1.5666438
1.5427142
1.5143544
1.502777
1.4873903
1.4678274
1.4537836
1.4512905
1.4548614
1.4656573
1.4844956
1.5249986
1.5590503
1.578054
1.5985548
1.6317432
1.6597105
1.6870076
1.7137461
1.7457866
1.767205
1.8037864
1.8298396
1.8785
1.9289871
1.9833515
2.0379518
2.0917367
2.1377179
2.223338
2.296991
2.4108486
2.5029812
2.6468161
2.7807774
2.9972938
3.1076292
3.2593611
3.3342805
3.4997678
3.5683462
4.4718942
3.6569057
3.1997051
2.895975
2.6624518
2.474697
2.3484846
2.2746091
2.2208203
2.2084474
2.213983
2.2301858
2.2469627
2.2601192
2.2666875
2.2729183
2.2694886
2.2859307
2.3050687
2.3142289
2.3254951
2.3486687
2.3891059
2.4514125
2.5042925
2.6022079
2.6940534
2.7501439
2.8102587
2.8827381
2.9480699
3.0034509
3.0463616
3.114498
3.1556399
3.219325
3.2575904
3.3262736
3.4022649
3.4740048
3.5566119
3.5852473
3.6017074
3.6487642
3.6805814
3.752664
3.8303241
3.9342771
3.9952358
4.1144473
4.1794273
4.2986632
4.3555552
4.5119782
4.5353399
4.6015372
4.0688344
3.8303967
3.7117049
3.6561115
3.6588732
3.7115262
3.8580329
3.9941003
4.163258
4.2954827
4.444153
4.5513533
4.6222758
4.6747489
4.731552
4.7630829
4.8481961
4.9311271
4.9837711
5.0391086
5.0994372
5.1891029
5.2974781
5.3662217
5.5157957
5.6825094
5.7900301
5.916082
6.0431763
6.1838767
6.2841893
6.3618629
6.4797872
6.5386617
6.6471297
6.7323225
6.8714687
7.0131705
7.1422696
7.30344
7.3783921
7.3830234
7.416707
7.4853706
7.5391898
7.5979072
7.6548232
7.679596
7.6765045
7.6708734
7.69737
7.7138593
7.7878975
7.760534
8.1911127
10.298515
10.78027
10.836534
10.854473
10.880937
11.01272
11.345308
11.501716
11.736773
11.887969
12.065005
12.362407
12.497023
12.717529
12.825607
12.93684
13.209015
13.349277
13.428122
13.495799
13.636786
13.712028
13.76399
13.78645
13.914338
14.152695
14.29327
14.437318
14.660386
14.940117
15.041491
15.174378
15.35497
15.417783
15.463963
15.660588
15.889346
16.199902
16.450408
16.727799
16.898512
16.897397
16.940552
17.190759
17.347498
17.461965
17.554679
17.575883
17.635387
17.697548
17.699826
17.822869
17.823835
17.512628
55.514203
55.996301
55.836227
55.639756
55.470956
55.209087
55.022829
55.021217
55.117873
55.142113
55.021852
54.819893
54.643123
54.672892
54.618784
54.687082
54.729526
54.843972
54.964255
55.0458
55.253109
55.444552
55.19645
55.029517
54.807389
54.607418
54.438674
54.346104
54.543916
54.711364
55.031674
55.18353
55.037666
55.04462
55.359241
55.574454
55.362832
55.078746
55.159339
55.659458
55.996174
55.919543
55.544685
55.090827
54.977823
55.305885
55.849072
56.199507
56.110871
55.651265
54.987278
54.618029
54.762227
55.221853
55.788631
57.880079
18.438518
8.0951507
4.8125268
3.7925473
3.3286644
3.0515133
2.8334981
2.7047502
2.629386
2.4949723
2.3621478
2.3646687
2.4736122
2.7593439
2.9746483
3.097475
3.0940022
3.0678375
3.1547072
3.4705686
3.8060061
3.955741
4.3616222
4.9834767
5.0198638
5.8397695
61.095105
19.672103
8.6705475
5.1714282
4.0174676
3.4945296
3.2127478
3.0087461
2.8793618
2.7912394
2.6627488
2.4991184
2.5014164
2.6128686
2.92697
3.1748026
3.3110968
3.3404133
3.295112
3.3252752
3.6200949
4.0095026
4.1202346
4.4239022
5.067644
5.3222678
6.2886833
63.66626
21.077727
9.3478899
5.4812667
4.2126032
3.6789311
3.3874151
3.1866985
3.0720534
2.9888871
2.87587
2.7132497
2.6881086
2.7686217
3.0165854
3.3005666
3.504232
3.5356144
3.4505158
3.491684
3.8641925
4.2847271
4.3389761
4.5325235
5.1786007
5.6011284
6.5864205
66.086677
22.061349
9.9014805
5.8719828
4.5084936
3.9100005
3.5588049
3.3525969
3.2601202
3.2038142
3.127489
2.9712153
2.8956795
2.9341884
3.1521185
3.5467286
3.761189
3.747511
3.6432745
3.7082885
4.0449525
4.5156959
4.629733
4.7431251
5.3404011
5.8676484
6.7062514
70.294213
23.055034
10.411282
6.2307012
4.7324653
4.0753032
3.7556468
3.6206869
3.5920072
3.5665369
3.4640704
3.2175369
3.1165931
3.1526141
3.3772237
3.7880279
4.0197776
4.0545116
3.9858859
3.9905336
4.1996357
4.7543614
4.9450844
4.9523249
5.6443945
6.1861503
6.8009454
76.339305
24.950894
11.112941
6.5373207
4.9510639
4.3556956
4.1549993
4.0777631
4.0634102
4.0124367
3.8283577
3.4911285
3.3583178
3.3977608
3.5484602
3.9231386
4.2587259
4.4364562
4.3981698
4.3220986
4.5093712
5.1755677
5.2869217
5.2039607
5.9820615
6.6671969
7.0301863
82.781002
26.748094
11.861242
7.1104581
5.4977941
4.8877711
4.6299975
4.4752305
4.3901484
4.2936692
4.1281268
3.8104482
3.6154499
3.6149515
3.7195981
4.1236622
4.6661203
4.9306584
4.824342
4.6588498
4.866545
5.6159352
5.6756528
5.5850118
6.2451557
6.9758259
7.3763232
88.072338
28.075258
12.601652
7.7099601
6.0261051
5.3079463
4.9202351
4.7280485
4.6264324
4.5479636
4.4479419
4.1883378
3.8752615
3.8431848
3.9728534
4.4352037
5.1468576
5.4027155
5.2835253
5.0493851
5.2106611
5.9501516
6.2188699
6.142306
6.5252953
7.3634224
7.7652727
91.50695
29.584705
13.111924
8.0006209
6.2602908
5.5524765
5.2728755
5.1869746
5.1473218
5.065137
4.9130653
4.5668455
4.2223932
4.2173137
4.3562064
4.7677265
5.4717382
5.6912073
5.6916617
5.5272254
5.6045155
6.2951818
6.8508628
6.7335959
6.907387
7.9150807
8.304569
93.564644
30.979465
13.492958
8.3199901
6.6617081
6.128399
5.9751386
5.8988004
5.7635885
5.5780365
5.3380229
4.9563575
4.6676921
4.6889662
4.7976838
5.1235953
5.7385409
5.9784471
6.0382742
5.9063535
5.9803368
6.706667
7.5283513
7.3233
7.4557816
8.4352028
8.9961238
98.455808
31.827303
14.054275
9.0266955
7.3546774
6.7606988
6.5123119
6.3237088
6.1487266
5.9903867
5.8270987
5.5260459
5.1687298
5.1010365
5.1551554
5.4581818
6.1297603
6.3993049
6.4278455
6.2922856
6.4258321
7.1864571
8.0960835
7.880477
8.0015426
8.8158361
9.8833702
107.32144
34.329494
15.244078
9.639177
7.6883279
6.9822825
6.7342753
6.653035
6.6417358
6.6564725
6.5961216
6.3389088
5.8146375
5.6562651
5.7269876
5.9942033
6.6211201
6.8102726
6.8527678
6.8387962
6.9828182
7.701496
8.5742316
8.511865
8.5056377
9.4013955
11.013741
117.9535
38.337265
16.718023
10.370246
8.1235172
7.4143268
7.3067133
7.4042869
7.5209198
7.4644139
7.2493756
6.9192831
6.4468945
6.3903619
6.5162613
6.7488918
7.1651257
7.2965822
7.4148558
7.4995669
7.6336349
8.1258478
9.0510778
9.2043411
9.0733524
10.082006
12.428765
127.03311
41.70576
18.305857
11.401923
9.0157288
8.3691198
8.3001558
8.3796046
8.2829698
7.8962208
7.4903079
7.1798038
6.886226
6.9113724
7.0648784
7.2723595
7.6505152
7.9457966
8.1659817
8.16155
8.1292839
8.4852549
9.4662302
9.8394205
9.8069417
10.985104
13.599175
133.44266
43.46745
19.6195
12.302431
9.7727233
9.0564764
8.8559876
8.7898676
8.5067646
8.1444636
7.8640077
7.6519715
7.3511991
7.2077928
7.2639306
7.4780503
8.0632415
8.6415324
8.910162
8.7732124
8.6345589
8.9150323
9.7182638
10.308511
10.64363
11.928144
14.181067
135.24383
45.859677
20.851082
13.018372
10.237542
9.3556907
9.0928144
8.9842294
8.8703227
8.6848756
8.4908627
8.2172174
7.7807005
7.5749485
7.6297801
7.8987503
8.6018897
9.1924579
9.3883054
9.3215691
9.2638402
9.4014902
9.8949163
10.699569
11.423618
12.532815
14.442371
134.42685
48.370526
22.088815
13.502852
10.634607
9.7796954
9.5587493
9.4925968
9.4236854
9.2437978
8.9094867
8.4274766
7.9955254
7.9194266
8.0929082
8.53777
9.1987699
9.5816702
9.7008213
9.8063524
9.8506991
9.8650568
10.2482
11.261685
12.006358
12.832396
14.688525
137.55553
50.272088
22.516317
13.649845
10.982606
10.264533
10.077436
10.005039
9.8570306
9.5122149
9.0782894
8.6170504
8.3011555
8.352231
8.6201038
9.1286543
9.6137649
9.8618543
10.066184
10.296784
10.342734
10.320406
10.776976
11.838685
12.395444
13.003873
14.711657
146.75802
52.911412
23.296955
14.127712
11.411212
10.668848
10.443043
10.328183
10.129907
9.7881707
9.3847268
9.0693901
8.9702573
9.0711168
9.3110357
9.6304796
9.929709
10.180466
10.502583
10.767053
10.769316
10.760262
11.30359
12.32638
12.658002
13.106935
14.581099
160.88697
57.529213
25.512198
15.679061
12.453995
11.377931
10.931757
10.706038
10.512018
10.238138
9.991201
9.9024432
9.9121143
10.016454
10.139289
10.253437
10.353735
10.595484
10.958275
11.151387
11.129387
11.197956
11.814638
12.780743
12.944404
13.158227
14.381845
175.55072
64.492668
30.012935
18.371283
14.060244
12.531641
11.84921
11.485164
11.19982
11.035456
10.972866
10.971709
11.05766
11.149799
11.104444
11.008891
11.061103
11.292087
11.507621
11.578285
11.514154
11.654976
12.341786
13.253695
13.301054
13.277553
14.25349
186.02824
71.454794
33.956702
20.224196
14.983331
13.066969
12.304575
12.088372
12.010579
12.018286
12.116574
12.27947
12.456822
12.432832
12.166558
11.894234
11.900783
12.126632
12.207112
12.185939
12.046919
12.130615
12.773695
13.684363
13.771051
13.561563
14.274056
190.89022
76.280703
36.484314
21.332279
15.444272
13.199142
12.381013
12.273455
12.452994
12.841745
13.408082
13.879159
14.09169
13.691461
13.083838
12.639229
12.60955
12.924093
13.011578
13.002414
12.72031
12.62275
13.083434
13.996884
14.289092
14.136774
14.48929
190.44671
80.328072
39.3514
23.113001
16.446512
13.611271
12.488138
12.339554
12.643164
13.530619
14.653063
15.389564
15.652648
14.911472
13.78252
13.216884
13.176218
13.687235
13.911254
13.880647
13.424565
13.129627
13.396431
14.307435
14.893768
14.898283
14.95877
186.00768
83.054363
41.391481
24.463352
17.40106
14.111355
12.755869
12.491406
12.80568
14.043798
15.70307
16.638108
16.926565
15.98163
14.391655
13.718813
13.79331
14.601668
15.017701
14.82344
14.117192
13.667946
13.843055
14.793866
15.51957
15.64027
15.677737
181.62968
84.346424
41.167541
24.381
17.601148
14.471397
13.24674
12.99862
13.363133
14.788713
16.779349
17.87322
18.147916
16.928654
15.089896
14.346973
14.666602
15.909363
16.385432
15.831619
14.783093
14.314079
14.476998
15.583407
16.282648
16.355765
16.438781
180.62856
82.590072
39.148663
23.762086
17.866365
15.101949
14.084905
13.919216
14.527665
16.389106
18.614844
19.493378
19.568283
17.954004
15.999888
15.286655
15.836333
17.689942
17.992685
17.004395
15.603925
15.130157
15.349578
16.565675
17.190363
17.188552
17.174839
181.65511
79.124354
37.606534
24.00725
18.415527
15.922875
15.231883
15.248454
16.58696
19.283523
21.304522
21.889844
21.705891
19.456646
17.445836
16.817602
17.730784
19.999299
20.003683
18.523871
16.775363
16.252037
16.497113
17.629924
18.251553
18.273253
18.165361
179.6357
73.939954
37.000698
24.978491
19.541691
17.442709
17.030544
17.5928
19.93293
23.446345
25.012413
25.338153
24.810248
22.085944
19.867558
19.161761
20.137168
22.686213
22.664464
20.914003
18.610233
17.756111
17.773055
18.620467
19.357892
19.580019
19.67013
170.2801
71.934733
39.094987
27.624078
22.141848
20.077163
19.751438
20.825756
24.095787
28.314354
30.0414
30.314592
29.943368
26.666182
23.458463
22.042156
22.540305
25.345226
25.958849
24.134358
21.183834
19.525687
19.234036
19.649638
20.46476
20.909454
21.28551
153.46125
73.466102
44.464854
32.629019
26.173181
24.130301
23.770333
24.788169
28.724933
33.839918
36.580422
37.031016
36.578332
33.480023
28.03866
25.104388
24.758367
27.195268
29.46314
27.892704
24.272283
21.486285
20.800015
20.843472
21.568899
22.144699
22.624964
133.67497
78.272563
52.663753
41.212188
32.728235
29.63161
28.963475
29.665469
33.347412
39.231138
43.25347
43.883904
43.084632
40.39436
33.975154
28.646084
26.824573
28.90259
32.212353
30.96264
27.122659
23.516185
22.237247
22.1092
22.629538
23.129719
23.658946
121.51938
84.565478
60.513234
48.940393
39.859455
36.195249
35.211288
35.749959
39.227043
45.222728
48.809616
49.217211
48.09191
45.075179
37.944152
31.419359
29.130062
31.440112
34.68949
32.650387
28.471831
24.762681
23.408293
23.288844
23.639205
23.906061
24.445702
124.59603
84.314648
63.76167
53.081537
44.546929
41.795819
41.296225
42.761132
46.209858
50.546227
52.880328
52.567343
50.781425
47.587774
38.874861
32.988003
31.880195
34.887411
35.970181
32.23481
27.949515
24.989531
24.212765
24.370079
24.559681
24.495771
24.814637
125.54475
82.773537
63.979573
53.592621
45.750527
43.804357
43.769485
45.830756
49.887518
53.252621
54.159963
53.730775
52.141886
47.172872
38.670985
34.009818
33.912066
36.297442
35.053717
30.74659
26.887609
25.140689
24.920784
25.364463
25.423224
24.920815
24.848131
114.74868
78.784944
61.837045
52.573404
44.554626
43.041304
43.40232
44.908991
49.580001
53.286281
53.829435
53.234985
50.789777
45.137831
37.576379
34.135737
35.031096
36.553218
33.594056
29.427552
26.066806
24.884831
24.847166
25.452219
25.839537
25.07415
24.487062
92.101415
77.21793
63.10186
51.549417
43.548457
40.96228
40.358565
41.075367
44.63673
49.349189
50.555279
49.857942
48.0915
43.743133
35.294678
32.280181
34.204583
36.31125
33.58063
29.61891
26.099921
24.303175
24.133384
24.542846
24.763671
24.023959
23.161089
83.493821
73.694592
65.786526
53.902603
44.866853
41.966844
41.214739
41.524222
44.579902
47.968413
48.09628
47.305837
44.7876
39.025333
32.509082
30.857642
32.664468
33.989522
32.397785
29.518416
26.432503
23.829834
23.050239
22.953734
22.808558
22.080202
21.403557
83.492717
72.091379
59.122297
43.730464
35.817919
33.764042
34.09404
36.204598
39.385263
41.282395
41.349749
39.778828
35.191999
30.852135
29.350774
29.383425
29.643356
29.280618
28.478544
27.134967
24.862609
23.038607
22.483496
22.345531
21.993957
21.041095
20.269266
100.22094
61.228842
44.044841
35.018813
30.131336
27.950963
27.497491
27.948748
28.796324
28.933922
27.955704
25.858577
23.563433
22.373352
22.092891
22.835638
24.14163
24.650587
24.587346
23.605461
21.863261
21.033438
20.96622
21.356349
21.183623
20.293298
19.366641
109.20339
63.85442
45.952963
37.056258
31.537084
27.757365
25.288157
23.785278
22.940052
22.150484
20.977903
19.794046
19.142909
18.965396
19.165361
19.67876
20.33154
20.677208
20.579352
19.880799
19.042896
18.769365
19.279097
20.08144
20.009827
18.992351
17.847279
110.64863
65.354009
43.677512
32.64034
25.457067
21.409067
19.936169
19.669295
20.295923
20.958321
21.069241
20.267909
19.196101
18.595841
18.451527
18.537633
18.735853
18.802146
18.580615
18.045133
17.621931
17.809091
18.633021
19.159571
18.510327
17.046718
16.181159
101.09086
57.3315
36.06042
26.075396
21.260332
19.531452
19.238352
20.107066
21.692374
22.494823
21.967037
20.351456
18.764257
17.873524
17.578756
17.548121
17.623364
17.578692
17.146016
16.518517
16.251646
16.601772
17.345574
17.548433
16.89684
15.853067
15.479303
88.441225
52.429828
32.851322
24.215541
20.543876
19.510569
19.736831
21.286879
22.595772
22.721708
21.619552
19.533965
17.905998
17.087697
16.804398
16.69795
16.582626
16.283134
15.663263
15.062265
14.877281
15.274256
16.083448
16.402772
16.181197
15.692443
15.61663
92.477779
51.184787
31.973893
23.842723
20.488194
19.58448
19.951236
21.582461
22.605463
22.635236
21.265892
19.134339
17.624402
16.885944
16.569223
16.348765
16.033193
15.544682
14.954641
14.589984
14.473109
14.837796
15.606534
16.046546
16.084892
15.947004
16.321957
112.20297
54.004615
32.870807
24.449977
20.966627
19.947181
20.057644
21.32466
22.291346
22.378513
20.990312
19.056883
17.723016
17.084287
16.742625
16.353945
15.839488
15.315694
14.837013
14.605655
14.665468
15.056422
15.716497
16.179768
16.395118
16.713121
17.493736
125.56181
57.960731
34.552738
25.632077
21.860923
20.603885
20.494414
21.370003
22.090172
22.015105
20.763999
19.140114
18.036835
17.471165
17.111974
16.565352
15.82905
15.284574
15.107483
15.221021
15.659399
16.240594
16.7613
17.119537
17.441075
18.021289
18.912041
129.02537
60.618137
35.696955
26.548377
22.639237
21.15452
20.969475
21.504449
22.048986
21.813497
20.606896
19.191977
18.245457
17.729284
17.381127
16.873694
16.138867
15.681564
15.645652
15.963946
16.614262
17.330443
17.813716
17.997952
18.177289
18.677613
19.412405
130.04946
61.53487
35.856641
26.793189
22.905411
21.313215
20.954564
21.227088
21.499046
21.163886
20.141894
18.978983
18.174238
17.680258
17.331837
16.895238
16.285792
15.897911
15.842727
16.092094
16.640794
17.324405
17.862881
17.973194
17.945579
18.255545
18.575477
131.62613
56.465223
33.665985
26.002812
22.67197
21.160356
20.530884
20.281859
20.034068
19.574361
18.920561
18.298378
17.813506
17.429198
17.079643
16.664151
16.15866
15.816801
15.724417
15.884903
16.310551
16.831246
17.109572
16.998864
16.868607
17.009523
17.086657
128.58267
48.101323
31.29823
25.072405
22.096773
20.540202
19.654826
19.055575
18.507057
17.941787
17.507954
17.292925
17.186347
17.099894
16.888339
16.491985
16.013242
15.66756
15.569037
15.688623
15.937831
16.104667
16.111086
15.982716
15.913619
15.999287
16.051609
117.85887
46.410793
30.71384
24.640621
21.702776
20.079645
19.066279
18.338074
17.713626
17.157063
16.77089
16.633084
16.648001
16.681532
16.575254
16.262147
15.823349
15.462031
15.292748
15.239617
15.220704
15.162192
15.112465
15.114904
15.19787
15.327539
15.396956
109.2361
45.906302
30.151408
24.21977
21.420475
19.903765
18.958372
18.272915
17.68871
17.163663
16.749141
16.51146
16.429756
16.407855
16.313279
16.056391
15.645501
15.189132
14.820084
14.570863
14.42018
14.352404
14.374371
14.510833
14.712249
14.85641
14.890736
106.89532
45.644294