/*--------------------------------*- C++ -*----------------------------------*\
| =========                 |                                                 |
| \\      /  F ield         | OpenFOAM: The Open Source CFD Toolbox           |
|  \\    /   O peration     | Version:  2406                                  |
|   \\  /    A nd           | Website:  www.openfoam.com                      |
|    \\/     M anipulation  |                                                 |
\*---------------------------------------------------------------------------*/
FoamFile
{
    version     2.0;
    format      ascii;
    arch        "LSB;label=32;scalar=64";
    class       volScalarField;
    location    "12";
    object      p;
}
// * * * * * * * * * * * * * * * * * * * * * * * * * * * * * * * * * * * * * //

dimensions      [1 -1 -2 0 0 0 0];

internalField   nonuniform List<scalar> 
62344
(
1.0136541
1.0221109
1.0212045
1.0236122
1.0254359
1.0328175
1.0346887
1.0306587
1.0239227
1.0273571
1.0311186
1.0345686
1.0407433
1.0433498
1.0420983
1.0391291
1.0306056
1.0321444
1.0344763
1.0346016
1.0346202
1.0382695
1.0424564
1.0379237
1.04756
1.0577478
1.0522451
1.0637349
1.0591439
1.0453488
1.0442891
1.0405602
1.0437163
1.0588051
1.0465754
1.0231972
1.0237183
1.0452439
1.0666957
1.0745751
1.0705999
1.0448818
1.0201905
1.0116007
1.0155588
1.021054
1.0400529
1.0753308
1.1187389
1.1344844
1.0901585
1.0107088
0.95335003
0.9466539
0.99167693
1.0128957
1.022139
1.0215045
1.0243024
1.0260176
1.0314116
1.0334443
1.0313231
1.023807
1.0252363
1.0316555
1.0363724
1.0415841
1.0464393
1.043775
1.0435918
1.0357462
1.0363252
1.0319755
1.0345057
1.0352673
1.0319921
1.0450601
1.0449697
1.048296
1.0572928
1.0580227
1.0645081
1.0552843
1.0487016
1.0458635
1.0338306
1.0396505
1.0620624
1.0545308
1.0295455
1.0262787
1.0406141
1.0543236
1.0678069
1.0639256
1.0317648
1.0025603
1.0072242
1.0406595
1.0714231
1.077534
1.0668875
1.0551136
1.0536531
1.0622406
1.0528785
1.0162776
0.98368538
0.97121847
1.012548
1.0214117
1.0220364
1.0230754
1.0266736
1.0313396
1.0332729
1.0306151
1.0249428
1.0232536
1.0283069
1.0338806
1.0404026
1.0423687
1.040788
1.0386944
1.0363403
1.0357839
1.0276346
1.0315132
1.0346255
1.026434
1.0367319
1.0487585
1.0552741
1.0540862
1.0602916
1.0662569
1.052544
1.0501418
1.0497663
1.0320642
1.0378523
1.0596868
1.0536011
1.0319423
1.0281013
1.0444237
1.0571732
1.056363
1.0508021
1.0338308
1.0132411
1.0146877
1.043657
1.0757003
1.080495
1.0517614
1.0151569
1.0017756
1.023791
1.0614557
1.0749614
1.062404
1.0372393
1.0127519
1.0205396
1.0220875
1.0226507
1.0263657
1.0323696
1.0345811
1.0310425
1.0257632
1.0247879
1.0282269
1.033863
1.0402684
1.0392476
1.0393785
1.038621
1.0364465
1.0307827
1.0275992
1.0317163
1.0343309
1.0287007
1.0299057
1.047125
1.0618892
1.0521488
1.0586432
1.0673062
1.0524865
1.0506731
1.0513728
1.0357618
1.0427566
1.0586078
1.0474875
1.0268387
1.0277582
1.0473481
1.0641232
1.0560016
1.0371189
1.03059
1.0308725
1.0393204
1.0460902
1.0521939
1.0551201
1.0435253
1.021729
1.0092675
1.0115669
1.0368574
1.0722658
1.0918207
1.0879088
1.0131467
1.0203807
1.0214204
1.0236019
1.0262437
1.0327745
1.0351205
1.031685
1.0258529
1.0260913
1.0301524
1.0367064
1.0414893
1.042728
1.0404779
1.0430506
1.0385805
1.0293716
1.0313799
1.032406
1.0323241
1.0328962
1.0297806
1.0452619
1.0643513
1.0526143
1.0577061
1.067128
1.0532891
1.0502414
1.0469014
1.037759
1.0505997
1.0619607
1.0452091
1.0221056
1.0229342
1.0452673
1.0664502
1.0578792
1.0304419
1.0226276
1.0370125
1.0521255
1.0479518
1.0306286
1.0236811
1.029974
1.0428262
1.044354
1.0355988
1.0328117
1.0449884
1.0669643
1.0842134
1.0133126
1.0208615
1.020907
1.0240925
1.0266417
1.0327613
1.0346589
1.0314673
1.0259445
1.0255415
1.0307955
1.038091
1.0419806
1.0469684
1.0420822
1.0449692
1.0396979
1.0327144
1.0342645
1.0318001
1.0299607
1.033521
1.0339135
1.0461434
1.0622112
1.0546149
1.0601403
1.0667056
1.0551147
1.0508289
1.0411325
1.0354756
1.0546481
1.0643133
1.046526
1.0239231
1.021847
1.0407532
1.0627646
1.0571163
1.029294
1.018347
1.034804
1.0538391
1.0559803
1.0346179
1.0166519
1.0200082
1.042754
1.0636817
1.0634788
1.052404
1.0409481
1.0363433
1.0486104
1.0130526
1.0213744
1.0211335
1.0236566
1.0270748
1.0331885
1.0348121
1.0312418
1.0258073
1.0248044
1.0299058
1.0371194
1.0419519
1.047055
1.043247
1.0436701
1.0366496
1.0358751
1.0339551
1.0307035
1.0290198
1.0310496
1.0381143
1.0499714
1.05817
1.05666
1.0646204
1.0661133
1.0572662
1.054902
1.0394569
1.0329004
1.0531031
1.0614274
1.045958
1.0301364
1.0281665
1.0399815
1.0555585
1.0525095
1.0314286
1.0194327
1.0299816
1.0471319
1.0542843
1.0439108
1.0264833
1.019413
1.0295331
1.0505347
1.0708125
1.0715226
1.0587597
1.0387842
1.0272272
1.0126507
1.0215558
1.0216444
1.0227097
1.027029
1.0337691
1.0360045
1.0320415
1.0255477
1.0253024
1.0295952
1.0360923
1.042183
1.0440006
1.0433669
1.0425349
1.0334755
1.0368036
1.0319813
1.029527
1.0291937
1.0278639
1.040005
1.0537024
1.0558595
1.0583921
1.0688645
1.0651971
1.0576899
1.0594796
1.0424667
1.0345717
1.0514917
1.0558102
1.0415008
1.0344335
1.03798
1.0454816
1.0502624
1.0443095
1.032982
1.0254267
1.0286484
1.036913
1.04252
1.0450173
1.0413661
1.0318203
1.0253687
1.0316117
1.0495999
1.0678808
1.0719179
1.0597725
1.0379283
1.0123996
1.0212435
1.0218207
1.0222854
1.0269433
1.034182
1.0372004
1.0333777
1.0255531
1.0261633
1.0302694
1.0366259
1.0427705
1.0421761
1.0432704
1.0426486
1.0340746
1.036949
1.0303571
1.0284675
1.0293624
1.0257928
1.0390978
1.0547693
1.055121
1.0598167
1.0715786
1.0638721
1.0563838
1.0602642
1.0454959
1.0405405
1.0537022
1.0511826
1.0352085
1.0345758
1.0459661
1.0530445
1.0479845
1.0362174
1.0309783
1.0333405
1.0342029
1.0311421
1.0286861
1.0353417
1.046636
1.0498044
1.0370458
1.0243729
1.0257139
1.0417267
1.061036
1.0690808
1.0568997
1.0123793
1.0206488
1.021422
1.0225994
1.0269843
1.0341061
1.0375157
1.0344067
1.026141
1.026581
1.031432
1.0379467
1.0429983
1.0429968
1.0440501
1.0426312
1.0370264
1.0377867
1.0307093
1.0285991
1.0291199
1.0253464
1.0366508
1.0526194
1.0549076
1.0605911
1.0724132
1.0633961
1.0547453
1.0563254
1.0450241
1.0461967
1.0583731
1.0499268
1.0312837
1.0314271
1.0484752
1.059345
1.0497674
1.03049
1.0248844
1.0360876
1.0429387
1.0341104
1.0211317
1.0237969
1.0415854
1.0569482
1.0515649
1.0315515
1.0156453
1.0184164
1.0355966
1.0566093
1.0645189
1.0124848
1.0201978
1.0207445
1.0232416
1.0272698
1.0337867
1.0370087
1.0345686
1.027151
1.0268432
1.0322438
1.0385981
1.0429329
1.0445897
1.0453497
1.0423114
1.0393832
1.0387849
1.0326182
1.0302339
1.0283083
1.026113
1.0349607
1.0493728
1.0544374
1.0612474
1.0720489
1.0641732
1.0549072
1.0518127
1.0414399
1.0482436
1.0627761
1.0524066
1.0307333
1.0276555
1.0464817
1.063339
1.054319
1.0281795
1.0173329
1.0315854
1.047379
1.0430793
1.0241159
1.0176874
1.031682
1.0497081
1.0587949
1.046299
1.0245042
1.0117089
1.016085
1.0329255
1.0518691
1.0125771
1.0200223
1.0202626
1.0238331
1.0275739
1.0336219
1.03649
1.034315
1.0280876
1.0273452
1.032215
1.0380377
1.0429373
1.044927
1.0463946
1.0422177
1.0401947
1.0388964
1.0345894
1.0324669
1.0271282
1.02727
1.0350667
1.0473489
1.0543195
1.0621345
1.0717968
1.0663769
1.0578844
1.0502885
1.037636
1.047024
1.0641311
1.0555989
1.0328861
1.0253028
1.0425756
1.063752
1.0587637
1.0298106
1.0118841
1.0230846
1.0444339
1.0506608
1.0352227
1.0208882
1.023644
1.0365686
1.0513708
1.0559666
1.0437794
1.0238062
1.0128826
1.016378
1.0287568
1.0126064
1.020098
1.0202956
1.0239985
1.0277061
1.0338258
1.0365723
1.0342276
1.028644
1.0279982
1.0317654
1.0369648
1.0433569
1.0445331
1.0464842
1.0429948
1.0407979
1.0380624
1.0354375
1.0338436
1.0259294
1.0281005
1.0363744
1.0468907
1.0551106
1.0634955
1.0720825
1.0686728
1.0618176
1.051998
1.0365142
1.0451527
1.062496
1.0573182
1.0363383
1.025181
1.0389402
1.0611785
1.0619722
1.0341544
1.0105643
1.0154199
1.0365447
1.0518647
1.0477943
1.0324035
1.0219016
1.0239606
1.035975
1.0520446
1.0566106
1.0451813
1.0263117
1.0125101
1.0108359
1.012594
1.0202904
1.0208393
1.0237908
1.0277001
1.0342175
1.0372365
1.0345688
1.0286481
1.028266
1.0314171
1.036377
1.0439627
1.0446346
1.0456425
1.0443662
1.0421784
1.0374143
1.0349346
1.0336745
1.0249099
1.0281129
1.0375122
1.0468971
1.0556326
1.0651072
1.0730229
1.0697944
1.0642637
1.0546939
1.0387175
1.0445027
1.0594667
1.0571043
1.0397968
1.0270841
1.0368541
1.0572156
1.0627701
1.0393035
1.0135523
1.0112844
1.027566
1.04708
1.0551883
1.0466998
1.0273998
1.0167273
1.020855
1.0378141
1.0572998
1.0616125
1.0478494
1.024132
1.0048599
1.0125799
1.0205022
1.0215322
1.0235011
1.0276129
1.0345613
1.038001
1.0352173
1.0284356
1.0282218
1.0315111
1.0367126
1.0443711
1.0455875
1.0445857
1.0458818
1.0439552
1.0378457
1.0338094
1.0323428
1.0243434
1.0276
1.0377837
1.0464567
1.0550966
1.066059
1.0743067
1.0698513
1.0643577
1.0563605
1.0426538
1.0458025
1.0567492
1.0552995
1.0418056
1.0301173
1.0365368
1.0534087
1.061239
1.0435176
1.0196454
1.0113396
1.0204265
1.0385725
1.0559942
1.0572115
1.0379706
1.0163633
1.0095072
1.0215422
1.0458319
1.0665232
1.0647392
1.0430529
1.0130883
1.0125797
1.020722
1.0219971
1.0233481
1.0275309
1.0347459
1.0384666
1.0358765
1.0283869
1.0279475
1.0318031
1.0374611
1.0444355
1.0469026
1.0439286
1.0470772
1.0452497
1.0392557
1.0331924
1.0308794
1.0243886
1.0267741
1.0370352
1.0450958
1.0535715
1.0664481
1.0756661
1.0695909
1.0626193
1.056074
1.0462078
1.048428
1.055415
1.0529808
1.0420723
1.0331083
1.0377278
1.0506381
1.0579553
1.0458753
1.026772
1.0155549
1.017062
1.0290632
1.0514883
1.0611842
1.048465
1.022195
1.0050612
1.0087716
1.0301697
1.0577323
1.0710837
1.0580773
1.0292955
1.0125782
1.020927
1.0221248
1.0233514
1.0276226
1.0347361
1.0384985
1.0362496
1.0286041
1.0278193
1.0321484
1.0382231
1.0442749
1.0478187
1.0438132
1.0475455
1.045288
1.0409848
1.0336477
1.030213
1.0249412
1.0259611
1.0353675
1.0430585
1.0512121
1.0664702
1.0767407
1.0698277
1.0604987
1.0543706
1.0482401
1.0512247
1.0555888
1.0510829
1.0411929
1.0353587
1.0396948
1.0493989
1.0541091
1.0461932
1.0327448
1.0226608
1.0177197
1.0227231
1.0428532
1.0591953
1.0543385
1.0312759
1.0079348
1.0025123
1.0175481
1.0431881
1.0633811
1.064093
1.0431453
1.0125657
1.0211022
1.0219651
1.0234419
1.0278627
1.0346135
1.0382361
1.0362409
1.0290489
1.0280466
1.032389
1.0386363
1.0440654
1.0479354
1.0441181
1.0475457
1.0439074
1.0423988
1.0350678
1.0305207
1.0256852
1.025379
1.0335604
1.0408588
1.0487735
1.0661885
1.0775371
1.0709294
1.0593013
1.0525978
1.049108
1.0533568
1.0568492
1.049883
1.0397638
1.0365954
1.0417166
1.049194
1.0504778
1.0444535
1.0361495
1.0302752
1.0222221
1.0207372
1.0341121
1.0514401
1.0540232
1.039292
1.016502
1.0037013
1.0100325
1.0289357
1.0497216
1.05832
1.049849
1.0125523
1.0211646
1.0216487
1.0235299
1.0281161
1.0344444
1.0379247
1.0360144
1.0295522
1.0285078
1.0324749
1.0386364
1.043971
1.0472407
1.0445545
1.0474835
1.0418499
1.0430871
1.037131
1.031562
1.0262005
1.0249498
1.0319614
1.0390961
1.046974
1.0655239
1.0779932
1.0726061
1.0592131
1.0516349
1.0492353
1.0548003
1.0586377
1.049541
1.0384727
1.0368032
1.0436611
1.049762
1.0475218
1.0411538
1.037188
1.0360023
1.0293214
1.0231055
1.0282614
1.0405224
1.0479748
1.042714
1.0271236
1.0111358
1.0091643
1.0186416
1.0335947
1.0456349
1.0466516
1.0125397
1.0210732
1.0212939
1.0235584
1.0282558
1.0343055
1.0377131
1.0357759
1.030021
1.02905
1.0324648
1.0383787
1.04399
1.0461701
1.0450713
1.0475445
1.0400505
1.0431108
1.0392572
1.0331114
1.0264795
1.0245947
1.0308148
1.0380996
1.0460511
1.0645404
1.0778034
1.074292
1.0600383
1.0517863
1.0489125
1.0554576
1.0603752
1.0500248
1.0378751
1.0364164
1.0455358
1.0511984
1.0460082
1.0372131
1.0361391
1.0390471
1.0367531
1.029133
1.0261933
1.0304967
1.0381238
1.0411753
1.0344268
1.0234597
1.0147137
1.0144221
1.0207136
1.0297892
1.0360465
1.012518
1.0208814
1.0209855
1.0234916
1.0282172
1.0342173
1.0377053
1.0356697
1.0303793
1.0294857
1.032403
1.0381365
1.0442047
1.0451733
1.0456444
1.0477732
1.0392997
1.0426894
1.0408297
1.0345851
1.0266019
1.0242085
1.030221
1.0377655
1.0459222
1.0635082
1.0768998
1.0755899
1.06174
1.0528974
1.0486293
1.0553806
1.0617013
1.051169
1.0378974
1.0362317
1.047208
1.0533645
1.045502
1.0332566
1.0327931
1.0400573
1.0431231
1.0372638
1.0278809
1.0232004
1.0271513
1.034658
1.0375115
1.0343599
1.025989
1.017059
1.0136419
1.0153545
1.0209022
1.0125018
1.0206411
1.0207661
1.0233371
1.028004
1.0341582
1.0378724
1.0357765
1.0306884
1.0296152
1.0322565
1.0380256
1.0445682
1.0445599
1.0463476
1.0479896
1.0397558
1.0422735
1.0416066
1.0356857
1.0266966
1.0237288
1.0300463
1.0377411
1.0463451
1.062489
1.0755679
1.0763422
1.0636831
1.0545688
1.048611
1.0547
1.0622455
1.0527634
1.0384056
1.0363923
1.0484557
1.0560508
1.0460547
1.0301352
1.0284798
1.0391182
1.0476069
1.0454726
1.0329177
1.0194593
1.0173572
1.0254038
1.0365159
1.0423031
1.0380375
1.025441
1.0125649
1.005117
1.0053918
1.012491
1.0203781
1.0206378
1.0231433
1.0277575
1.034101
1.0381438
1.0360103
1.0309467
1.0294638
1.0320063
1.0380647
1.0449611
1.0443849
1.0471389
1.0480478
1.0413358
1.0421302
1.0415467
1.0363937
1.0268969
1.0231892
1.0302196
1.0378388
1.0470732
1.0615887
1.0741001
1.0766748
1.0653645
1.0565422
1.0486247
1.0534688
1.0618922
1.0543716
1.0392265
1.0364918
1.0490234
1.0587692
1.0478006
1.028363
1.0238937
1.0362204
1.0494974
1.0523245
1.0400523
1.0200061
1.0099485
1.0151442
1.0310891
1.0464011
1.0482671
1.0367281
1.0174033
1.0004013
0.9936058
1.012486
1.0201478
1.0205757
1.0229807
1.0275136
1.034089
1.0384599
1.0363243
1.0311617
1.02921
1.0317547
1.0381962
1.0452634
1.0444932
1.0480652
1.0480703
1.0433734
1.0424022
1.041016
1.0367898
1.0272212
1.0227219
1.0305548
1.0379547
1.0476386
1.0607336
1.0726942
1.0767426
1.0671486
1.0586648
1.0489643
1.0521481
1.0611237
1.0557008
1.0401663
1.0365365
1.0494421
1.0611811
1.0505038
1.0280232
1.0198348
1.0319136
1.0488394
1.0573653
1.0476047
1.024122
1.0058034
1.0055378
1.0228078
1.0458651
1.0555075
1.0481594
1.0261123
1.0017102
0.98692485
1.0124898
1.0199477
1.0205245
1.0228318
1.0272158
1.0339866
1.0386618
1.0365649
1.0313818
1.0289131
1.0315349
1.0383427
1.0455156
1.0447424
1.0487496
1.0479721
1.0454253
1.0430046
1.0402993
1.0369064
1.0276664
1.0224261
1.0308855
1.0379833
1.0481045
1.0600255
1.0711825
1.0762148
1.0677645
1.060323
1.0493687
1.0508997
1.0602107
1.0568024
1.041066
1.0365035
1.0497025
1.0629686
1.0535555
1.0291162
1.0169925
1.027201
1.0463905
1.0608604
1.0545344
1.030443
1.0053016
0.99838977
1.0145039
1.0408163
1.0595412
1.0589056
1.0369192
1.0078501
0.98554932
1.0125679
1.0198312
1.0205037
1.0227276
1.0270726
1.0339603
1.0389359
1.0368841
1.0315965
1.0286719
1.0313697
1.0384541
1.0456529
1.0450195
1.0494593
1.0479286
1.0470031
1.0435656
1.039711
1.0368025
1.0279439
1.0220603
1.0310892
1.0379362
1.0482718
1.0595987
1.070327
1.0762366
1.0690389
1.0618307
1.0497258
1.0496828
1.0592122
1.0578512
1.042212
1.0354582
1.0488235
1.0638299
1.0569141
1.0319071
1.0157977
1.0213952
1.0424287
1.0618017
1.0608631
1.0376308
1.0085343
0.99471182
1.0047525
1.0319887
1.0588006
1.0658125
1.0485568
1.0181793
0.98958108
1.0125122
1.0197647
1.0204876
1.0226662
1.0269269
1.0338752
1.0389633
1.0370628
1.0317509
1.0285913
1.0311892
1.0382389
1.0456708
1.0451169
1.0495911
1.0478842
1.0478428
1.0439478
1.0395915
1.0372001
1.0288638
1.0220706
1.0308856
1.0375598
1.0472071
1.0582747
1.0689336
1.0756168
1.0697174
1.0634019
1.0511481
1.0490304
1.057895
1.0585765
1.0445782
1.0357271
1.0472956
1.0624181
1.0596465
1.0368207
1.0182946
1.0195086
1.0373733
1.058213
1.0623434
1.044207
1.0166439
0.99870987
1.0017065
1.0229425
1.0507532
1.0637736
1.0546862
1.0297013
1.0014192
0.97741308
0.97167495
0.97630195
0.98598411
0.99960011
1.0147326
1.0276143
1.034157
1.0330631
1.0236018
1.0072397
0.99247658
0.9870613
0.99634355
1.018135
1.0429575
1.056485
1.0512178
1.0301972
1.0159817
1.0295001
1.0643512
1.0843473
1.0615471
1.0124133
1.0033164
1.0755207
0.9842412
0.98960039
1.0035249
1.015191
1.0259096
1.0311576
1.0290228
1.0207188
1.0080838
0.99202496
0.97755432
0.97463058
0.98450255
1.0061004
1.0297774
1.0425465
1.0348966
1.0119854
0.9941676
1.0029785
1.0383587
1.0705962
1.0650207
1.0168139
0.99513587
1.0538505
1.153029
1.0272736
1.039611
1.0484375
1.0517281
1.049039
1.0407317
1.0283463
1.0133174
0.99826426
0.98777663
0.98794597
0.99815662
1.016731
1.0363316
1.0435968
1.0293878
1.0011367
0.97378004
0.97416041
1.0060832
1.0475771
1.0665732
1.0329766
0.97619594
0.98806357
1.1011606
1.1939192
1.0738296
1.0795705
1.0751759
1.065526
1.0543483
1.0418083
1.0298704
1.0203316
1.0169695
1.0230296
1.0359017
1.0536309
1.0696752
1.0702154
1.0502878
1.016579
0.98191515
0.97077298
0.98752673
1.024594
1.0552745
1.045899
0.99419034
0.95920849
1.0067508
1.1224709
1.1670275
1.069754
1.0644837
1.0544418
1.0454323
1.037593
1.032334
1.0330525
1.0408473
1.0558967
1.0748068
1.0935387
1.1052241
1.1037109
1.0817598
1.0489499
1.0161159
1.0008067
1.0114538
1.0359194
1.0609995
1.0559124
1.0115464
0.96237408
0.96808813
1.0428141
1.1221048
1.085197
1.0204677
1.0114292
1.0038081
1.0011981
1.0049486
1.0159832
1.0345249
1.057747
1.0805209
1.0983653
1.1083952
1.104798
1.0845944
1.0597738
1.039936
1.036059
1.0551059
1.0825422
1.1039479
1.0957269
1.0429493
0.97696509
0.95369583
0.99793816
1.0811316
1.1029435
0.99627537
0.97770571
0.96989714
0.97205819
0.98102164
0.99628635
1.0157595
1.0368595
1.05494
1.0680881
1.0704144
1.0631437
1.0457511
1.0279604
1.0198441
1.0322713
1.0667314
1.1114006
1.1443975
1.1469465
1.0962206
1.0158038
0.96491612
0.97783276
1.0476161
1.1151848
1.0586842
0.94029192
0.97355457
0.97840751
0.99228143
1.0077225
1.0245715
1.0375301
1.043643
1.0405016
1.0292067
1.012228
0.99269658
0.9770294
0.97542576
0.99373759
1.0335305
1.0854924
1.1287603
1.1473652
1.1174134
1.0528201
0.99510869
0.98471495
1.0351693
1.1111141
1.1253672
1.0060258
0.91963614
1.0268326
1.0407394
1.0533452
1.0612975
1.0619533
1.0549589
1.0404378
1.0203648
0.99806269
0.9770337
0.95950886
0.95552421
0.96924653
1.0019794
1.0457231
1.0819496
1.0952803
1.0770048
1.0305975
0.99062609
0.98432951
1.0320535
1.1111267
1.1705878
1.1080965
0.96041057
0.92988333
1.1036198
1.1128448
1.1095614
1.0982317
1.0810153
1.0599208
1.0379315
1.0170509
0.99902054
0.98772701
0.98828926
1.0029718
1.0275811
1.0520914
1.0643243
1.0535325
1.0183555
0.97407411
0.94110747
0.94038803
0.98864853
1.0817272
1.1753603
1.189938
1.0663101
0.93850519
0.97170536
1.1192026
1.1171443
1.1044218
1.090733
1.0751012
1.0593443
1.046703
1.0395948
1.0399945
1.0491386
1.0679981
1.0910739
1.1081567
1.1045488
1.0711854
1.0165573
0.95860658
0.91095785
0.89785068
0.92773134
1.0073161
1.1168082
1.1873999
1.1440251
1.01445
0.95491515
1.0470817
1.0618179
1.0514437
1.0420473
1.0362861
1.034783
1.0387196
1.0490396
1.0668351
1.092135
1.1216427
1.1463363
1.1625041
1.1526348
1.1175872
1.0649759
1.0056557
0.94994456
0.91578884
0.91900111
0.96413439
1.0436274
1.1198723
1.1279018
1.0468835
0.9809814
1.0134885
1.147398
0.99096688
0.98138974
0.97809474
0.98056404
0.99016709
1.0093544
1.0386758
1.075651
1.1135502
1.1437737
1.1612363
1.1596989
1.136234
1.0993112
1.0592293
1.0204043
0.98933688
0.98260987
1.0002231
1.0440633
1.0858285
1.0813524
1.0241222
0.95670631
0.96896956
1.0932405
1.2420466
0.95503904
0.95229923
0.95855079
0.97205312
0.9925839
1.0183565
1.044761
1.066502
1.081097
1.088294
1.0870597
1.0757516
1.0615887
1.0501333
1.0415403
1.0397137
1.0490053
1.0770969
1.1127157
1.1284229
1.0984939
1.0218676
0.94469297
0.91545358
0.98858527
1.1698284
1.2912511
0.97175842
0.98264682
1.0015215
1.0197436
1.0367285
1.0490111
1.0523846
1.0455348
1.030235
1.0089569
0.98722859
0.97222241
0.9674328
0.97573484
0.99606161
1.0336844
1.0892078
1.1501761
1.1904102
1.1735003
1.0932083
0.99402574
0.92101362
0.92612298
1.034925
1.2214301
1.2579919
1.0609161
1.073771
1.0843117
1.0886341
1.0841048
1.0696242
1.0466398
1.0180055
0.98631318
0.95503689
0.92765451
0.90882314
0.90143443
0.91182251
0.94635906
1.0057299
1.0843024
1.157289
1.1935942
1.167844
1.0923369
1.0109819
0.95720163
0.98617667
1.0932749
1.2036137
1.1525027
1.170769
1.1763198
1.16748
1.1470498
1.1165732
1.0798916
1.0409131
1.0020305
0.9667862
0.93659134
0.91246322
0.89412205
0.88783293
0.8981518
0.92997209
0.98552048
1.0514526
1.1059138
1.1374386
1.1261131
1.09292
1.0499949
1.0336162
1.0703106
1.1242193
1.1204895
1.0283731
1.214353
1.214871
1.1969993
1.1688079
1.1331063
1.0939896
1.0537114
1.0159801
0.98332167
0.95474052
0.93119128
0.91578848
0.91557225
0.93199947
0.96089852
0.99886104
1.0324026
1.0545983
1.0636571
1.0664321
1.072515
1.086087
1.1088869
1.1355142
1.1195549
1.0318541
0.94523899
1.1741678
1.1644516
1.1500636
1.1347202
1.11657
1.0958408
1.0730283
1.0497194
1.0264946
1.0056316
0.98846611
0.97928087
0.98327839
0.99961684
1.0227283
1.0389559
1.0405014
1.0287529
1.0100893
1.0043602
1.0292389
1.0882451
1.1556825
1.1720083
1.1009399
0.98129966
0.91246188
1.0739397
1.0649351
1.0572427
1.0534408
1.0522095
1.0533186
1.0561598
1.059216
1.0621075
1.0652969
1.0707891
1.0793072
1.0895474
1.099424
1.1028409
1.0895534
1.0580925
1.0141
0.97256967
0.95589336
0.9850076
1.0666255
1.1604888
1.1868414
1.0989912
0.9759524
0.91669148
0.97919864
0.96967435
0.96539295
0.96505725
0.9706215
0.98229762
1.0004084
1.0252492
1.0571413
1.0958871
1.1386179
1.1794135
1.2075217
1.2123063
1.1876116
1.1343889
1.0658607
0.9989835
0.9502635
0.93270589
0.95920011
1.041517
1.1407489
1.1855547
1.1158781
1.0072688
0.95171934
0.91517677
0.90809467
0.90713788
0.90962144
0.91688025
0.9310093
0.95376518
0.98703122
1.032383
1.0923777
1.1617429
1.229326
1.2754665
1.2812932
1.2410622
1.1644542
1.0744607
0.99669223
0.94723775
0.93470082
0.95953057
1.0218346
1.1049688
1.1627663
1.1370824
1.0599054
1.0047161
0.88591595
0.88605613
0.89100887
0.89749663
0.90834462
0.92588845
0.95141155
0.98600384
1.0282078
1.0807713
1.1406941
1.2035441
1.2555413
1.2697033
1.2424095
1.1794201
1.0992952
1.0219173
0.96894795
0.95527534
0.97310571
1.0053292
1.0528047
1.1145949
1.1441669
1.1225187
1.0726048
0.89296523
0.89942038
0.91109794
0.92517325
0.94228653
0.96248342
0.98604374
1.0130743
1.0422046
1.0713196
1.1000767
1.1306581
1.1681198
1.1937444
1.2005309
1.1821118
1.1352802
1.069667
1.0121701
0.98462496
0.97933799
0.97981965
0.99713561
1.047918
1.1272953
1.1763724
1.1541466
0.93877468
0.94712224
0.95928877
0.97475499
0.99338149
1.0138477
1.0332481
1.0481953
1.0586341
1.0628988
1.0639216
1.0692413
1.0843857
1.1145251
1.1540243
1.1782855
1.1722673
1.126554
1.0609015
1.0047853
0.96649175
0.94679255
0.9407869
0.98390854
1.0907701
1.2060418
1.2310225
1.0059925
1.0124003
1.0213188
1.0327424
1.0448691
1.0553488
1.0624949
1.0653588
1.0626053
1.0555444
1.0461687
1.0396868
1.0440735
1.0742693
1.1231788
1.178683
1.2043552
1.1789675
1.1029568
1.0156315
0.94950638
0.91700826
0.90565003
0.93282615
1.0431589
1.1940211
1.2744426
1.0616217
1.0649288
1.0689842
1.0731641
1.0764119
1.0773221
1.0753388
1.0698527
1.0625716
1.0524156
1.0401494
1.0319195
1.0354831
1.0609086
1.1160233
1.1825895
1.2303024
1.223667
1.1437667
1.0340708
0.94900458
0.90275206
0.89461016
0.9096536
0.98833269
1.1408228
1.2648123
1.0874254
1.0887026
1.0898539
1.0903587
1.0893608
1.0860203
1.0801854
1.0714429
1.0608701
1.0497646
1.0383625
1.0303469
1.0310878
1.0504952
1.1088592
1.1815716
1.2481069
1.2640644
1.1912768
1.0697471
0.96629457
0.9090238
0.90086195
0.90266589
0.9463326
1.0635521
1.2060994
1.0964207
1.0971962
1.0975718
1.0969264
1.0947453
1.0905415
1.0832515
1.0725885
1.0592273
1.0454834
1.031255
1.0186514
1.0119788
1.0235983
1.0711789
1.1639677
1.2598653
1.3093153
1.255526
1.1275562
1.0006746
0.92621996
0.90279341
0.90126589
0.9174437
0.9951093
1.1266732
1.1146259
1.115537
1.1159294
1.1148319
1.1117288
1.1068296
1.0999688
1.0882988
1.0679587
1.0417789
1.013498
0.98464909
0.96207967
0.9632783
1.0111047
1.118714
1.2493682
1.3448869
1.3290908
1.1945235
1.0412048
0.94336617
0.9023018
0.89383712
0.89981792
0.95664205
1.0715255
1.1621058
1.1629968
1.1625919
1.1598816
1.1547875
1.1473298
1.136644
1.1175681
1.0860734
1.0430611
0.99446332
0.94744562
0.90747
0.89073839
0.92875217
1.0439279
1.2118076
1.359756
1.3851469
1.255161
1.0720419
0.94813417
0.89076277
0.87902449
0.88156256
0.93926236
1.0603726
1.2324201
1.2333593
1.232747
1.2281807
1.2185283
1.2034407
1.1838792
1.1551003
1.1128947
1.0551636
0.98803642
0.92283199
0.86845151
0.83087025
0.85723834
0.98085168
1.177992
1.3582639
1.3994085
1.2649972
1.0613712
0.92155507
0.85199277
0.8403097
0.84881892
0.9211995
1.0762216
1.2759176
1.2790181
1.282472
1.2806965
1.2716703
1.2541719
1.2303022
1.1977173
1.1433075
1.0703553
0.98675318
0.90740604
0.84755986
0.80566698
0.83662316
0.98023521
1.1928418
1.371556
1.3855055
1.212256
0.99508915
0.85818713
0.79371895
0.7858156
0.78647117
0.88093301
1.0831474
1.2437493
1.2480387
1.2569607
1.2642554
1.2659182
1.2589915
1.2430938
1.2140517
1.1596195
1.0832582
0.99895704
0.91191093
0.84842417
0.81353825
0.87340799
1.0577971
1.2795186
1.4267145
1.3608736
1.1244261
0.90743817
0.78529706
0.73076303
0.72878425
0.72966402
0.84107959
1.0725186
1.180982
1.1875103
1.1992975
1.2109896
1.2199795
1.2239571
1.2201392
1.1984033
1.1526149
1.0844306
1.0086159
0.92623261
0.86430823
0.85266254
0.95213341
1.1656899
1.3854719
1.470489
1.3150442
1.0493398
0.84857004
0.74637787
0.70199255
0.6997763
0.69758021
0.80792392
1.0509238
1.1402679
1.1464674
1.157058
1.1673875
1.1759809
1.1810929
1.1763142
1.1518206
1.1028455
1.0315634
0.95392976
0.89940582
0.8582771
0.9006285
1.0639769
1.3048193
1.4801018
1.478503
1.2695897
1.0122337
0.83677399
0.74880078
0.71066747
0.70035473
0.70311043
0.80296378
1.0220465
1.1209363
1.1240426
1.1303868
1.1361411
1.1400434
1.1357496
1.1155195
1.0716607
1.0016559
0.92998674
0.87174866
0.83351145
0.83488561
0.93683856
1.152853
1.3882343
1.5269491
1.4885095
1.281198
1.0436772
0.88000655
0.78855783
0.74024659
0.71235535
0.71053888
0.79595079
0.98112494
1.000491
1.0058396
1.0169411
1.0272792
1.0290897
1.0151722
0.98115461
0.93688606
0.89566734
0.8660763
0.84428594
0.85922806
0.92434133
1.0688633
1.253051
1.4151304
1.4835725
1.4161545
1.2512597
1.0846374
0.96296039
0.88176184
0.81959953
0.77670418
0.76373955
0.84262267
0.9826141
0.86224874
0.86088921
0.86511319
0.86988685
0.87318197
0.87602859
0.89067283
0.91611795
0.96252953
1.0465836
1.1293689
1.2135983
1.2940028
1.3432502
1.3484274
1.3033811
1.2199356
1.1295307
1.0542572
1.0034064
0.96749019
0.93584752
0.90602808
0.87893584
0.87416275
0.94312375
1.0733587
0.88301416
0.88638985
0.89491289
0.91184609
0.94024618
0.98686647
1.0453514
1.1168888
1.1822899
1.2238208
1.2318197
1.2019834
1.1409629
1.0631894
0.98406073
0.91810261
0.88189729
0.87151237
0.883157
0.90895065
0.93054171
0.94002014
0.93788465
0.93647583
0.98751452
1.0804936
1.1716557
1.038321
1.0419048
1.0500654
1.061466
1.0743974
1.0845086
1.0887328
1.0846273
1.0738164
1.0577009
1.0322612
1.0039177
0.9694701
0.9296661
0.88694586
0.85445599
0.84071511
0.84720521
0.86954004
0.90051736
0.93391689
0.96529738
0.99920344
1.0505842
1.1053402
1.1517048
1.1464021
1.0491391
1.0527928
1.0595574
1.066108
1.0661418
1.0549439
1.0316329
1.0020295
0.97323097
0.95524415
0.95405898
0.96753965
0.98116024
0.98468187
0.97653595
0.96660699
0.96308768
0.97491866
1.0011687
1.0366697
1.074228
1.10341
1.1252183
1.1361253
1.1250958
1.0832171
1.0217734
1.0399549
1.0397565
1.038482
1.0327598
1.0192969
0.99690583
0.96847494
0.9396926
0.92113299
0.92274075
0.94387671
0.97902904
1.0166903
1.0431712
1.0527822
1.0533008
1.0559332
1.0696388
1.0973344
1.1319507
1.1586315
1.1632226
1.1411652
1.0954555
1.0382274
0.97709954
0.92555447
1.0844108
1.0847824
1.0827005
1.072024
1.0497686
1.0169254
0.97731076
0.94051385
0.92096915
0.92307288
0.94886233
0.98313789
1.0122106
1.0258557
1.0243205
1.0149037
1.0089684
1.0186349
1.0468728
1.0833902
1.1061286
1.09806
1.0638414
1.008884
0.95615763
0.91829097
0.89333055
1.1264079
1.1274633
1.1265734
1.1165963
1.0938336
1.0588853
1.0150297
0.97220857
0.94607352
0.94138202
0.95343354
0.97605194
0.989012
0.9874342
0.9737128
0.95605892
0.94372228
0.94654
0.96983668
1.0051449
1.0309023
1.0297242
1.0036183
0.95864235
0.91675641
0.89448483
0.887684
1.0687423
1.0747441
1.0841769
1.0909506
1.088806
1.0760786
1.0526365
1.0224841
0.99795749
0.98966964
0.98768666
0.995176
0.99580502
0.98308447
0.95830232
0.93129465
0.91345952
0.91190647
0.93006959
0.96602341
1.0016335
1.0191431
1.0122396
0.98126937
0.94281326
0.91843754
0.91450826
0.97341834
0.98218483
0.99649281
1.0149348
1.0338296
1.0497823
1.0623582
1.0717376
1.0756287
1.0783599
1.0764625
1.0613415
1.042887
1.0134131
0.97635627
0.94037382
0.91583862
0.91210812
0.93186522
0.97424427
1.0295578
1.0790771
1.1040805
1.0922725
1.048117
1.0008109
0.98290622
0.89859026
0.90422053
0.91502233
0.93436894
0.96416396
1.0065475
1.0620389
1.1217524
1.16852
1.1875706
1.1755136
1.1345786
1.0837627
1.029981
0.98016326
0.93965194
0.91375326
0.90870306
0.92990103
0.97919869
1.0569262
1.1437223
1.2141184
1.2370603
1.1885732
1.1009705
1.035693
0.87880612
0.88054463
0.89468433
0.92225489
0.96612085
1.0266288
1.0964991
1.1628113
1.2112027
1.2274811
1.2038351
1.1499649
1.0837467
1.0182166
0.96139724
0.91708253
0.88781129
0.87916172
0.89925153
0.9516627
1.0334365
1.1342111
1.2284012
1.2663247
1.2070033
1.0917389
0.99831959
0.95785755
0.96582684
0.98458436
1.0126385
1.0454244
1.0778604
1.1068197
1.1310164
1.1455772
1.1451213
1.1271892
1.091521
1.0436092
0.99164821
0.94221093
0.90128419
0.87539671
0.86978979
0.88732354
0.93180841
0.99866412
1.0778899
1.1403446
1.1538927
1.1020311
1.0127227
0.93717959
1.1267823
1.1214473
1.1085642
1.0924428
1.0754685
1.0598031
1.0476592
1.0382374
1.0303072
1.0226174
1.0131143
1.0004665
0.98413002
0.96642935
0.95032582
0.93770338
0.93126984
0.93358644
0.94766765
0.97086797
1.0004715
1.0256976
1.0478235
1.0551393
1.0346866
0.98190816
0.92963905
1.1201866
1.1166789
1.1023857
1.0822943
1.0582169
1.0324877
1.0077206
0.98538369
0.96736961
0.95552079
0.95180098
0.95811465
0.97286851
0.99169562
1.0098486
1.0244061
1.0338988
1.0377305
1.033402
1.019521
1.0031282
0.99272977
1.0005184
1.0227714
1.0382269
1.0208338
0.98470997
0.98552176
0.99269064
0.99855949
1.0017489
1.002892
1.0017044