/*--------------------------------*- C++ -*----------------------------------*\
| =========                 |                                                 |
| \\      /  F ield         | OpenFOAM: The Open Source CFD Toolbox           |
|  \\    /   O peration     | Version:  2406                                  |
|   \\  /    A nd           | Website:  www.openfoam.com                      |
|    \\/     M anipulation  |                                                 |
\*---------------------------------------------------------------------------*/
FoamFile
{
    version     2.0;
    format      ascii;
    arch        "LSB;label=32;scalar=64";
    class       volScalarField;
    location    "12";
    object      p;
}
// * * * * * * * * * * * * * * * * * * * * * * * * * * * * * * * * * * * * * //

dimensions      [1 -1 -2 0 0 0 0];

internalField   nonuniform List<scalar> 
96472
(
1.0058553
1.0098372
1.0113811
1.0134453
1.0140383
1.0143359
1.0147616
1.014818
1.0142339
1.0133935
1.0129051
1.0133006
1.014346
1.0160522
1.0177557
1.0189169
1.0198389
1.0203415
1.0210277
1.0220059
1.0226603
1.022907
1.0233102
1.0239178
1.0248005
1.0258833
1.0270042
1.0281656
1.0289963
1.0295525
1.0297825
1.0298562
1.029985
1.0302736
1.0306497
1.0310324
1.031313
1.0314968
1.0315932
1.0316331
1.0314523
1.0314174
1.0311366
1.0306976
1.0307937
1.0305457
1.0300925
1.0303388
1.0298113
1.0301001
1.0300669
1.030054
1.0300506
1.0297264
1.0300439
1.0058607
1.0098922
1.0114444
1.0135269
1.0141012
1.0143304
1.0146696
1.0146757
1.0140096
1.0131125
1.0125861
1.0128994
1.0139822
1.0155205
1.0173835
1.0186644
1.0194501
1.0202463
1.0208019
1.0215802
1.0224744
1.0229438
1.0230882
1.0235473
1.0244461
1.0256682
1.0268364
1.0278103
1.0285014
1.0288951
1.029198
1.0294354
1.0296574
1.0299031
1.0302365
1.0306137
1.0309231
1.031179
1.0313625
1.0313456
1.0314485
1.0311861
1.0310421
1.0310128
1.0305721
1.0303116
1.0302915
1.0299862
1.0300605
1.029858
1.0296179
1.0298437
1.0298454
1.0298567
1.0297883
1.0058749
1.0099352
1.0115015
1.0136022
1.0141529
1.0143381
1.0145702
1.0145212
1.0137735
1.0128393
1.0123097
1.0125498
1.0136216
1.0151488
1.0169025
1.0184386
1.0192143
1.0199297
1.0207603
1.0213963
1.0221147
1.0228746
1.0231843
1.0234653
1.0241147
1.0251761
1.0264709
1.0275469
1.0282823
1.0286173
1.0287423
1.0289162
1.0291751
1.0295092
1.0298297
1.0301937
1.0305672
1.0308605
1.0310291
1.0312973
1.0311443
1.0312597
1.031075
1.0307938
1.0305404
1.03059
1.03016
1.0300027
1.0297842
1.0296238
1.0299292
1.0296659
1.0293263
1.0293516
1.0296354
1.0058669
1.0099506
1.0115201
1.0136399
1.0141777
1.0143054
1.0145104
1.0143673
1.0135738
1.0126242
1.0120548
1.0122563
1.0132
1.0148306
1.0165565
1.0180694
1.0191654
1.0196922
1.0204497
1.0213525
1.0220255
1.0225246
1.0230195
1.0234879
1.0241327
1.0249807
1.0260287
1.0270669
1.0278515
1.028351
1.0285983
1.0287004
1.0288404
1.029116
1.029477
1.029859
1.0302318
1.0305539
1.0309058
1.0309381
1.0312244
1.0310729
1.0310311
1.0308091
1.0308698
1.0302574
1.0301188
1.0300714
1.0298206
1.0298537
1.0293539
1.0291492
1.0294774
1.029857
1.029194
1.0058784
1.0099634
1.0115212
1.0136248
1.0141849
1.0142941
1.0143974
1.0141769
1.0133884
1.0124135
1.0117926
1.0120044
1.0128798
1.0143917
1.0162976
1.017772
1.0189013
1.0196699
1.0201627
1.0210011
1.0219456
1.0224765
1.0227782
1.023199
1.0239542
1.0249247
1.0258903
1.0267797
1.0274098
1.0278646
1.0281703
1.0284237
1.0286031
1.0288412
1.0291503
1.029555
1.0299404
1.0303302
1.0305655
1.0309493
1.0309768
1.0310964
1.0310363
1.0310296
1.0305041
1.0305587
1.0304554
1.0299336
1.0298144
1.0295109
1.0294801
1.0298057
1.0295093
1.0286305
1.0289743
1.005864
1.009949
1.0114852
1.0135869
1.0141465
1.0142485
1.014327
1.0140776
1.0132529
1.012246
1.0116217
1.0117333
1.0126791
1.0140526
1.0159145
1.0176203
1.0185898
1.0194632
1.0201714
1.0207555
1.0215842
1.0224856
1.0228546
1.0231334
1.0236447
1.0245725
1.0256479
1.0265935
1.0273187
1.0276667
1.0278857
1.0280578
1.0283381
1.0285751
1.0289233
1.0293008
1.0296856
1.0300708
1.0304651
1.0306994
1.0309324
1.0311018
1.0310465
1.0308337
1.0309455
1.030626
1.0301192
1.0301463
1.029985
1.02976
1.0297613
1.0289067
1.0290728
1.029226
1.0297458
1.0058702
1.0099201
1.0114309
1.0135327
1.0140728
1.0141656
1.0142097
1.0139012
1.0130587
1.0120765
1.0114521
1.0115403
1.0123991
1.0138511
1.0155521
1.0173452
1.0185598
1.0191998
1.0199969
1.0207656
1.0214053
1.0221301
1.0227885
1.0232425
1.0237533
1.0243799
1.0252984
1.0261977
1.0269527
1.0275152
1.0278056
1.0279825
1.0281585
1.0284297
1.028726
1.0290995
1.0294941
1.0298764
1.0302608
1.0305869
1.0309397
1.0309224
1.0310662
1.0311709
1.0307928
1.0306011
1.0306341
1.0303105
1.0298974
1.0297391
1.0291855
1.0299489
1.0291405
1.0294707
1.0284729
1.0058537
1.0098545
1.0113248
1.0134065
1.0139682
1.0140743
1.014072
1.0137333
1.0128917
1.011911
1.0112696
1.0113862
1.0121174
1.0135797
1.015373
1.0170122
1.018454
1.0192271
1.0197091
1.0205314
1.0214228
1.0220236
1.0225181
1.0230356
1.0236967
1.0244885
1.0252202
1.0260076
1.0266214
1.0271335
1.0275403
1.0278452
1.0280712
1.028283
1.0285996
1.0289408
1.0293351
1.0297558
1.0300997
1.0305752
1.03067
1.0311071
1.0311353
1.0309157
1.0310795
1.0309391
1.0305388
1.0302067
1.0300885
1.0300283
1.0299812
1.0291724
1.0292465
1.0291285
1.028986
1.0058445
1.0097963
1.0112023
1.0132784
1.0138411
1.0139467
1.0139283
1.0135682
1.0127447
1.0117596
1.0111361
1.0112175
1.0119928
1.0132615
1.015133
1.016884
1.0181425
1.0191487
1.0197191
1.0202488
1.0211189
1.0220342
1.0225453
1.0229033
1.0234082
1.0242128
1.0251195
1.0258935
1.0265955
1.0270487
1.0273929
1.027682
1.0279536
1.0282477
1.0285264
1.0289039
1.0292507
1.0296105
1.0301184
1.0303448
1.0308912
1.0309181
1.0310387
1.0313635
1.0310817
1.0308396
1.0307699
1.0305952
1.0306063
1.0296147
1.029914
1.0292838
1.0298601
1.0290739
1.0292465
1.0058208
1.0097036
1.0110547
1.0130925
1.0136787
1.013815
1.0137712
1.0133656
1.0125306
1.0115843
1.0109855
1.0110223
1.0118501
1.0131228
1.0147789
1.0167311
1.018054
1.0188919
1.0196845
1.0202821
1.0208674
1.0217387
1.0225238
1.0230483
1.0235154
1.0240612
1.0248103
1.0255976
1.0263002
1.0269507
1.0273539
1.0277106
1.0279756
1.0282084
1.0285452
1.0288375
1.029209
1.0296291
1.0299698
1.030479
1.0306441
1.0310161
1.0312936
1.03112
1.0311853
1.0312263
1.0309736
1.0308168
1.0299221
1.0307242
1.0296797
1.0302219
1.0294201
1.0289321
1.0292755
1.0057916
1.0095946
1.0108784
1.0128983
1.0134926
1.0136432
1.0135739
1.0131603
1.01233
1.0114026
1.0108417
1.0109242
1.0116209
1.012988
1.0146181
1.0164324
1.0180804
1.0189175
1.0194535
1.0201889
1.0208963
1.0215429
1.0222445
1.0228924
1.0235501
1.0241953
1.0248203
1.0254767
1.0261067
1.0266642
1.0272241
1.0276225
1.0279794
1.0282697
1.0285449
1.0289129
1.0292326
1.0296151
1.03004
1.0303373
1.0307622
1.0310434
1.0311563
1.0313841
1.0314111
1.0312308
1.0310041
1.0306988
1.0310886
1.030297
1.0301346
1.0299074
1.0291833
1.0301017
1.0293866
1.0057532
1.0094522
1.0106758
1.0126725
1.0132991
1.0134648
1.0133802
1.0129317
1.0121119
1.0112215
1.0106821
1.010816
1.0114912
1.0127558
1.014523
1.0162699
1.0178432
1.0189715
1.0194657
1.0199237
1.0207208
1.0215532
1.0222018
1.0227172
1.0233021
1.0240326
1.0247521
1.0254141
1.0260323
1.0266
1.0271219
1.0276011
1.0280108
1.0283313
1.028666
1.0289658
1.0293184
1.0296691
1.0300357
1.0304391
1.0307944
1.0310168
1.0313468
1.0314527
1.031459
1.0313206
1.0313919
1.0313122
1.030895
1.0302211
1.0307297
1.0300828
1.0301953
1.0298734
1.0289038
1.005706
1.009302
1.0104613
1.0124391
1.013096
1.013295
1.0131591
1.0126646
1.0118714
1.0110158
1.0105167
1.0106453
1.0114511
1.012587
1.0142626
1.0162221
1.0176821
1.0187726
1.0195463
1.0199649
1.0204685
1.0213274
1.0221917
1.0228322
1.0233252
1.0238796
1.0245174
1.0252075
1.0258667
1.0265294
1.0270905
1.027638
1.028038
1.0284127
1.0287431
1.0290946
1.0294167
1.0297836
1.03015
1.0305094
1.0308028
1.0311919
1.0313934
1.0315378
1.0315245
1.0317663
1.0314438
1.0312696
1.0307146
1.0314574
1.0306181
1.0300138
1.0305607
1.0292398
1.0300426
1.0056457
1.0091475
1.0102466
1.0122071
1.0128805
1.0130949
1.012953
1.0124359
1.0116364
1.0108256
1.0103674
1.0104919
1.01128
1.0125616
1.0140658
1.0159897
1.0177141
1.0187303
1.0194133
1.0200361
1.020503
1.0211118
1.0219217
1.0227
1.0234097
1.0239744
1.0245588
1.0250837
1.0256941
1.0263018
1.0269861
1.027602
1.0281297
1.0285553
1.028914
1.0292198
1.0295983
1.0299261
1.0302721
1.0305778
1.030954
1.0312292
1.0314541
1.0316015
1.0318877
1.031588
1.0316738
1.0314205
1.0318807
1.0308696
1.0305331
1.0311689
1.0300884
1.0302783
1.0303642
1.0055846
1.0089684
1.0100083
1.0119683
1.0126991
1.0129247
1.0127186
1.0121593
1.0113759
1.0106087
1.0102135
1.0104245
1.0111186
1.01239
1.01402
1.0157593
1.0175927
1.0188745
1.0194105
1.0198649
1.0204884
1.0211482
1.0218545
1.0225345
1.0232037
1.0239094
1.0244922
1.025061
1.0256109
1.0261923
1.026886
1.0275564
1.0281458
1.0286539
1.0290578
1.0294259
1.029744
1.0301111
1.0304187
1.0307652
1.0310687
1.0313376
1.0315939
1.0318677
1.0317392
1.0319654
1.031891
1.0320113
1.0312056
1.0313984
1.0314774
1.0309543
1.030466
1.0309177
1.0296271
1.0055139
1.0087834
1.0097906
1.0117498
1.0124929
1.0127322
1.012515
1.01192
1.011129
1.0104055
1.0100436
1.0102799
1.0110745
1.0121972
1.0138483
1.0157342
1.0173885
1.0187587
1.019564
1.019876
1.0203168
1.0210181
1.0218477
1.022587
1.0231736
1.0237543
1.0243289
1.0249078
1.0254559
1.0261092
1.0268
1.0275173
1.0281638
1.0287175
1.0291698
1.0295715
1.0299532
1.0302915
1.0306118
1.0309435
1.0311954
1.0315084
1.0317821
1.0318244
1.032077
1.0321296
1.0320908
1.0317368
1.0320432
1.0317684
1.0316063
1.0308048
1.031353
1.030581
1.0304492
1.0054518
1.0086028
1.0095651
1.0115404
1.0123234
1.0125688
1.012302
1.0116599
1.0109157
1.0102199
1.0098964
1.0101277
1.0109797
1.0121382
1.0136202
1.0156012
1.017372
1.0186238
1.0195163
1.0200553
1.0203427
1.0208524
1.0216569
1.0225183
1.0232684
1.023823
1.024327
1.0247969
1.0253174
1.0259309
1.0266888
1.0274654
1.02819
1.0288117
1.0293237
1.0297605
1.0301398
1.0304878
1.0308435
1.0311136
1.0314203
1.0316728
1.031825
1.0320686
1.0322516
1.0321572
1.0322364
1.0323479
1.0321791
1.031892
1.0315194
1.031907
1.0312526
1.0308548
1.0312263
1.0053856
1.0084422
1.0093675
1.0113677
1.0121797
1.0124341
1.0121061
1.0114534
1.0106834
1.0100113
1.0097502
1.0100164
1.0107772
1.0120586
1.0135448
1.0153194
1.0172835
1.0187494
1.0194855
1.0200316
1.0204421
1.0208837
1.0215291
1.0223387
1.0231369
1.0238097
1.0242983
1.0247388
1.0252377
1.0257993
1.0265236
1.0273272
1.0281542
1.0288547
1.0294246
1.0299062
1.0303232
1.0306998
1.0310322
1.0313421
1.0316035
1.0318177
1.0320593
1.0323148
1.0322042
1.0325601
1.0324095
1.0325718
1.0320053
1.0325264
1.0320598
1.0317865
1.0317773
1.0312918
1.031082
1.0053344
1.0082936
1.0092066
1.0112123
1.012058
1.0123164
1.0119657
1.0112462
1.010498
1.0098779
1.0096043
1.0099242
1.0106839
1.0118292
1.0134375
1.0152054
1.0170443
1.0187133
1.0196594
1.0200067
1.0203811
1.0208886
1.0215761
1.0223416
1.0230311
1.0237003
1.0242106
1.024645
1.0251029
1.0256653
1.0264292
1.0272663
1.0280683
1.0288183
1.0294834
1.0300309
1.0304639
1.0308783
1.0312427
1.0315482
1.031804
1.0320421
1.0322853
1.0322579
1.0326997
1.0324945
1.0328075
1.0323649
1.0330476
1.0321425
1.0325393
1.0322141
1.0317483
1.0319934
1.0313504
1.0052823
1.0081766
1.009073
1.0111019
1.0119515
1.01221
1.0118289
1.0110908
1.0103289
1.009722
1.0094972
1.0097702
1.0106261
1.0116987
1.0131908
1.0151104
1.0169397
1.0184985
1.0196666
1.0201859
1.0203936
1.020775
1.0214468
1.0223164
1.0231185
1.0236922
1.0241929
1.0245836
1.0249986
1.0255149
1.0262408
1.0271122
1.0280109
1.0288382
1.0295495
1.0301337
1.0306319
1.0310501
1.0314273
1.0317398
1.0320074
1.0322152
1.0323345
1.0327018
1.0326152
1.0328464
1.0327638
1.0329934
1.0326634
1.0328457
1.0326119
1.0325347
1.0320696
1.0323428
1.0316925
1.0052551
1.0080684
1.0089495
1.0110243
1.011881
1.0121364
1.0117287
1.0109596
1.0102134
1.0096071
1.0093946
1.009649
1.0104565
1.0116488
1.0130288
1.0148496
1.0168529
1.0184958
1.0195725
1.0202638
1.0205493
1.020784
1.0213197
1.0221489
1.0230296
1.023718
1.0241545
1.0245268
1.0249298
1.0253934
1.0260774
1.0269468
1.0278804
1.0287829
1.0295578
1.0301794
1.0307384
1.0311933
1.0315905
1.0319207
1.0321761
1.0323953
1.0326689
1.0327279
1.0328443
1.0330316
1.0329257
1.0331337
1.0328942
1.0332546
1.0327478
1.0325146
1.0332096
1.0318349
1.0323012
1.0052217
1.0080098
1.0088578
1.0109487
1.0118454
1.0120895
1.0116482
1.0108623
1.0101071
1.0095098
1.0092915
1.0095938
1.0102931
1.011458
1.0129628
1.0146372
1.0166052
1.0184784
1.0196624
1.0202263
1.0205593
1.0208726
1.0213552
1.0221012
1.0229183
1.0236642
1.0241193
1.0244654
1.0248233
1.0252985
1.025976
1.026805
1.0277314
1.0286506
1.0294775
1.0301989
1.030793
1.0312944
1.0317123
1.0320354
1.0323243
1.0325992
1.0327543
1.0328508
1.0331333
1.0329719
1.0333471
1.0330637
1.0335221
1.0328014
1.0332943
1.0331851
1.0326588
1.0325629
1.0327322
1.0052215
1.0079403
1.0087953
1.0109594
1.0118281
1.0120656
1.0116085
1.0108138
1.0100506
1.00946
1.0092192
1.0094749
1.0102444
1.0112729
1.0127552
1.0145248
1.0164202
1.0182545
1.0196768
1.0203205
1.0205601
1.0208328
1.0213347
1.0220786
1.0229215
1.0236077
1.0241098
1.0244347
1.0247348
1.025144
1.0257819
1.0266412
1.0275872
1.0285495
1.029435
1.0301859
1.0308213
1.0313655
1.0317815
1.0321535
1.0324593
1.0327152
1.0328728
1.0331307
1.0330818
1.0333444
1.0332974
1.0333855
1.033243
1.0335186
1.0332622
1.0333427
1.0326082
1.0335849
1.0324815
1.005197
1.0079364
1.0087436
1.0109138
1.0118136
1.0120595
1.0116009
1.0107661
1.0100106
1.0094127
1.0091739
1.009382
1.0101327
1.0112068
1.0125303
1.0143176
1.0163197
1.0181145
1.0195152
1.0203823
1.0206736
1.0208074
1.0212104
1.0219329
1.0228424
1.0235899
1.0240744
1.0244141
1.0246974
1.025067
1.0256479
1.0264383
1.027386
1.0283964
1.0293263
1.030115
1.030807
1.0313454
1.0318241
1.0322305
1.032528
1.0327604
1.0330145
1.0331121
1.0332676
1.033429
1.0333125
1.0336214
1.0334572
1.0336781
1.0332942
1.033339
1.0335899
1.0330803
1.0329093
1.0052233
1.0078834
1.0086934
1.0109414
1.0118177
1.0120648
1.0115744
1.0107771
1.0100087
1.0093996
1.0091438
1.0093329
1.0099895
1.0110801
1.012461
1.0140926
1.0160933
1.0180575
1.0194894
1.0203323
1.0207046
1.0208711
1.0211937
1.0218707
1.0227328
1.0235447
1.0240674
1.0243576
1.0246338
1.0249907
1.0255304
1.0262851
1.02721
1.0281903
1.0291279
1.0299899
1.0307264
1.0313185
1.0318349
1.0322255
1.032551
1.0328414
1.0330507
1.0332059
1.0333962
1.033411
1.0336469
1.0335133
1.0337454
1.0333792
1.0338122
1.0334689
1.0335585
1.0331911
1.0332641
1.005201
1.0079158
1.008645
1.0109031
1.0118123
1.0120785
1.0116122
1.0107582
1.0100095
1.0093828
1.0091179
1.0092921
1.0099338
1.0109164
1.0123412
1.0139544
1.015874
1.0178674
1.0194563
1.0203028
1.0206703
1.0208817
1.0211962
1.021818
1.0226402
1.0234621
1.0240069
1.0243251
1.024586
1.024881
1.0253795
1.0261247
1.0270178
1.0279798
1.0289422
1.0298402
1.0306191
1.0312075
1.0317529
1.0321813
1.0325337
1.0328384
1.0330175
1.0332067
1.0333606
1.0335253
1.0336077
1.0335189
1.0337069
1.0337846
1.0336074
1.0337337
1.0334421
1.033695
1.033184
1.0052345
1.0078607
1.0086086
1.0109553
1.0118072
1.0120807
1.0115742
1.0108009
1.0100206
1.0093907
1.009101
1.0092345
1.009866
1.0108636
1.0121491
1.0138021
1.0157659
1.0176848
1.0192724
1.0202926
1.020686
1.0208407
1.0211116
1.021691
1.0225502
1.0233769
1.0239658
1.0243031
1.0245486
1.0248266
1.0252637
1.0259459
1.0267927
1.0277671
1.0287554
1.0296447
1.0304646
1.031159
1.0316602
1.0321137
1.0324851
1.0327741
1.0331086
1.0332034
1.0333096
1.0335935
1.0335032
1.0337448
1.0337378
1.0337083
1.0337015
1.0336441
1.0337808
1.0333751
1.0337104
1.0332597
1.0333241
1.0330374
1.0328087
1.032454
1.0321986
1.0318895
1.0315259
1.031298
1.0308757
1.0303805
1.0303117
1.0301704
1.0294266
1.0295259
1.0294445
1.0289695
1.0291371
1.0287229
1.0290867
1.028954
1.0287178
1.0292759
1.0290965
1.0295119
1.0296453
1.0300188
1.0331068
1.0328119
1.0326432
1.0324462
1.0322369
1.031746
1.0315576
1.0312742
1.0307676
1.0306034
1.0303168
1.029865
1.0296595
1.0295715
1.0291346
1.0291045
1.028975
1.0287322
1.0289511
1.0285222
1.0289156
1.0288003
1.028851
1.0291267
1.0291646
1.0295585
1.0296451
1.0326506
1.032533
1.0323498
1.031959
1.0317797
1.0315074
1.0310774
1.0308094
1.0305844
1.030155
1.0299074
1.0297282
1.0293246
1.0291926
1.0290351
1.0287684
1.0287931
1.0286086
1.0285715
1.0286698
1.0284881
1.0287627
1.0287245
1.0289083
1.0290756
1.0292115
1.0296083
1.0323078
1.0319943
1.0319362
1.0316471
1.031149
1.0311335
1.0307061
1.0303573
1.0301677
1.0298052
1.0296066
1.0292816
1.0291297
1.028869
1.0287387
1.0286755
1.0283973
1.0285881
1.0282728
1.0285496
1.028381
1.0285337
1.0286547
1.0287166
1.0289072
1.0290805
1.0292131
1.0318155
1.0315708
1.0311516
1.0311486
1.0308472
1.0303525
1.0303493
1.0299565
1.0295725
1.0295571
1.0290957
1.0290123
1.0287805
1.0285834
1.028509
1.0283412
1.0283489
1.0281408
1.0283635
1.0281036
1.0284229
1.0283002
1.0285177
1.0285785
1.0287347
1.0288579
1.0290031
1.0311575
1.0310713
1.0307359
1.0304049
1.0302867
1.0300058
1.0296154
1.0295198
1.0292225
1.028908
1.0288667
1.0285037
1.0284427
1.0283063
1.028146
1.0281803
1.028052
1.0280149
1.0280287
1.0281122
1.0281208
1.0282019
1.0283302
1.0284366
1.0285426
1.0286338
1.0288282
1.0306394
1.0304253
1.0301563
1.0298557
1.0296232
1.0294446
1.0290942
1.0289695
1.0287251
1.0284342
1.0284298
1.0281305
1.0281037
1.0278555
1.0279916
1.0277253
1.0278457
1.0278592
1.0277641
1.0279569
1.0278783
1.02817
1.0280162
1.0283582
1.028271
1.0285062
1.0284897
1.0298099
1.0296904
1.0295983
1.0291317
1.0290263
1.0289086
1.0284421
1.0284166
1.0282813
1.0279286
1.0278957
1.0278129
1.0276106
1.0276657
1.0274964
1.0275714
1.0274962
1.0275491
1.0277164
1.0275655
1.0278739
1.0277586
1.0280504
1.0279614
1.0282182
1.028128
1.0282941
1.029211
1.0288275
1.0288935
1.0286629
1.0281472
1.0283249
1.0280748
1.027558
1.0278992
1.0274909
1.0272502
1.0275499
1.0270672
1.0273945
1.0270936
1.0272975
1.027215
1.0272781
1.027391
1.027438
1.0276061
1.0275433
1.0278548
1.0276731
1.0280204
1.0278313
1.0280091
1.0285677
1.0282024
1.0282743
1.0280055
1.027524
1.0277095
1.0274175
1.0270849
1.0272241
1.0270256
1.0268889
1.0268486
1.0268956
1.0267946
1.0268146
1.0270006
1.0267641
1.0271375
1.0269997
1.0272809
1.0271988
1.0274296
1.027466
1.0275599
1.0276008
1.0276428
1.0276554
1.0278967
1.0275876
1.0272878
1.0274796
1.0269932
1.0266679
1.0271011
1.0265405
1.0263307
1.0268434
1.026206
1.0263618
1.0266643
1.0261975
1.0265566
1.0265464
1.0265087
1.0268331
1.0266404
1.0269675
1.026989
1.0270569
1.0272421
1.0271711
1.0273429
1.0272116
1.02741
1.0271214
1.026771
1.0265954
1.0266829
1.026344
1.0261602
1.0262906
1.0260613
1.0258548
1.0261776
1.025904
1.0257829
1.0262662
1.0257516
1.0262422
1.0261767
1.0260755
1.0266487
1.0260916
1.0269172
1.0263917
1.0269336
1.0267203
1.0270041
1.0268882
1.0268706
1.0269242
1.0263726
1.0261281
1.0259776
1.0259364
1.0258623
1.0255144
1.0257506
1.0256253
1.0253188
1.0256143
1.0254817
1.0254833
1.0255301
1.0256514
1.0256722
1.0256912
1.0260297
1.0258924
1.0261584
1.0261901
1.0262214
1.0265221
1.0263163
1.0266271
1.0264298
1.0264864
1.0265059
1.0258319
1.0253718
1.0254711
1.0254539
1.0250901
1.0251963
1.025046
1.0249842
1.0251226
1.0247891
1.0252313
1.0249103
1.0250683
1.0254344
1.0249297
1.0256957
1.0252325
1.0257294
1.0257033
1.0257279
1.0260503
1.0258384
1.0260639
1.0260863
1.0260458
1.0259993
1.0260015
1.025046
1.0248056
1.0249242
1.0246466
1.0245419
1.0246833
1.0244475
1.0245002
1.0244497
1.0245145
1.0246343
1.0244419
1.0248006
1.0246736
1.024877
1.0250775
1.0248474
1.0254126
1.025189
1.0253794
1.0255165
1.0255354
1.0255624
1.0255983
1.025535
1.0255574
1.0254508
1.0244642
1.0241893
1.0242381
1.0241669
1.0239486
1.0241565
1.0239706
1.0238779
1.024314
1.0237829
1.0242005
1.0243677
1.0239418
1.0246041
1.0243586
1.0245884
1.0247332
1.0246371
1.0249828
1.0248775
1.0251065
1.0249972
1.0250963
1.0251681
1.0249446
1.0251126
1.0248502
1.0239578
1.0237658
1.0236895
1.0237493
1.0235532
1.0235452
1.0236895
1.0235844
1.02354
1.0237929
1.0237211
1.0237539
1.0239282
1.0239543
1.0241719
1.0239752
1.024467
1.0242906
1.024422
1.0245554
1.0244927
1.0246544
1.0245254
1.0247175
1.024254
1.0247812
1.0242085
1.0234568
1.0234281
1.0232394
1.0233104
1.0232785
1.0230345
1.0234892
1.0231868
1.0230282
1.0236516
1.0232373
1.0233768
1.0236639
1.0234945
1.0238146
1.0236103
1.024124
1.0237163
1.0241046
1.0240704
1.024088
1.0241391
1.023991
1.0242505
1.0236642
1.0242409
1.0236543
1.0228872
1.0230193
1.0228648
1.0226917
1.0230019
1.0227512
1.0228093
1.0229621
1.0227992
1.0231966
1.0228036
1.0231132
1.0234164
1.022959
1.0234853
1.0232935
1.0236176
1.0233794
1.023679
1.023605
1.0235163
1.0237973
1.0234079
1.0237673
1.0231255
1.0236428
1.0231831
1.0225573
1.0223851
1.0224698
1.0224962
1.0223792
1.0226217
1.0223683
1.0223549
1.0229307
1.0224246
1.0226744
1.0229255
1.0226687
1.0230781
1.0227402
1.023277
1.0229335
1.0230253
1.0234623
1.0229247
1.0232409
1.0230093
1.0233187
1.02284
1.0230081
1.0227645
1.0227552
1.022191
1.0222133
1.0220216
1.0222584
1.0221427
1.0221057
1.0223345
1.0221502
1.0223329
1.0222754
1.0224877
1.0225257
1.0222981
1.0227295
1.0225863
1.0228245
1.0224829
1.0228423
1.0227945
1.0227632
1.0225366
1.0227427
1.0226346
1.0224231
1.0225354
1.0221683
1.0221843
1.0219236
1.0221013
1.0218637
1.0219258
1.0220687
1.0217438
1.0221149
1.0221666
1.0217895
1.0223084
1.0221282
1.0221823
1.022297
1.0220322
1.0227219
1.0220346
1.0225001
1.0223301
1.0222444
1.0225556
1.0218326
1.0226726
1.0218125
1.0222335
1.0216616
1.0219002
1.0216742
1.0217786
1.0218912
1.0216674
1.021754
1.0218481
1.0215827
1.021981
1.0217786
1.02165
1.0221577
1.0217495
1.0220526
1.0218273
1.0219787
1.0222767
1.021649
1.0222704
1.021684
1.0222168
1.0218003
1.0216282
1.0220322
1.0214797
1.0217516
1.0210762
1.0214465
1.0211856
1.0216651
1.0215613
1.0214821
1.0216284
1.0214998
1.0216038
1.0215834
1.0213748
1.0217559
1.0215724
1.0217027
1.021571
1.0215125
1.0219866
1.0214419
1.0217794
1.0214074
1.021647
1.0216867
1.0212111
1.0214891
1.0211745
1.0213866
1.0209643
1.0208757
1.0207297
1.0207048
1.0214306
1.0213084
1.0213062
1.0212984
1.0214352
1.0213036
1.0212378
1.0213695
1.021247
1.0214551
1.0212411
1.0212713
1.0214731
1.0212103
1.0213707
1.0211842
1.0212044
1.0212555
1.0209933
1.0210212
1.0209139
1.0208207
1.0207113
1.0206043
1.0204173
1.0202634
1.0201098
1.0212092
1.0210301
1.0211554
1.0211089
1.021067
1.0212233
1.0209293
1.0211571
1.0211214
1.0208438
1.0212679
1.0208367
1.0211538
1.0209612
1.0207118
1.021161
1.0205
1.0211077
1.0203075
1.0207763
1.0204316
1.0203039
1.0203939
1.0199397
1.020113
1.0196278
1.0197118
1.0210012
1.0207808
1.0210035
1.0208619
1.0208189
1.0210018
1.0206295
1.0210064
1.0208193
1.0206174
1.0209406
1.0204141
1.020969
1.0205223
1.020481
1.0205973
1.0200968
1.0207959
1.0198684
1.020441
1.0197159
1.0200337
1.0199206
1.0195686
1.0195922
1.0191339
1.0192526
1.0206491
1.0206695
1.0207718
1.020715
1.0205434
1.0204396
1.0205581
1.0207094
1.0206062
1.0203021
1.0203096
1.0202925
1.0205319
1.0202664
1.0200174
1.0200338
1.01987
1.0202955
1.0195738
1.0198352
1.0193435
1.0195814
1.0195369
1.01901
1.0191151
1.0187573
1.0188763
1.0203713
1.0203759
1.0205686
1.0203046
1.0202609
1.0201661
1.0202264
1.0204576
1.0200701
1.0201069
1.0198381
1.0200409
1.020137
1.0196684
1.019874
1.0193526
1.0198457
1.0195212
1.0193252
1.019323
1.0189129
1.0193396
1.0188103
1.0188726
1.0184293
1.0185097
1.0183202
1.0200473
1.0200814
1.0202222
1.0199666
1.0199831
1.0198151
1.019931
1.0200218
1.0196731
1.0198479
1.0194231
1.0197703
1.0195577
1.0193509
1.0195144
1.0189361
1.0195218
1.018824
1.0192059
1.0187712
1.0186892
1.0187462
1.0182983
1.0186261
1.0180338
1.0181902
1.0177908
1.0196868
1.0197743
1.0197607
1.0197565
1.0195524
1.0194822
1.0196151
1.0194617
1.0195321
1.0193513
1.0191492
1.0192909
1.0190495
1.0192247
1.0190106
1.0187576
1.0188259
1.0184887
1.0188534
1.0184537
1.0183282
1.0181474
1.017953
1.0181969
1.0178557
1.0176963
1.0173798
1.0192835
1.0193609
1.0194995
1.0193464
1.0191881
1.0191269
1.0190884
1.019173
1.0192202
1.0189394
1.0188049
1.0187813
1.0186343
1.0189469
1.0185953
1.0184919
1.018317
1.0181093
1.0185075
1.0180295
1.0181385
1.0175918
1.0177442
1.0176023
1.0175972
1.0173019
1.0171044
1.0188971
1.0189767
1.0190575
1.0189616
1.0188392
1.0186919
1.0187595
1.0186875
1.0188185
1.0185625
1.0184901
1.0184523
1.0182661
1.0185483
1.0180899
1.0182593
1.0178833
1.0179281
1.0179822
1.0175755
1.0177904
1.0172075
1.0176315
1.017164
1.0172754
1.0168319
1.016776
1.0186436
1.0185393
1.0185001
1.0184893
1.0184697
1.0184877
1.0184071
1.0182634
1.0182952
1.0181182
1.0182223
1.0181581
1.018008
1.0180515
1.0176419
1.0178708
1.0175849
1.0177826
1.0175537
1.0172373
1.0172902
1.016918
1.0173688
1.0169542
1.0169499
1.0164679
1.0164229
1.0183173
1.0181514
1.0180245
1.0180165
1.0181114
1.0181743
1.018084
1.0179603
1.0178467
1.0177464
1.017854
1.0177831
1.0177723
1.0176337
1.0173542
1.017468
1.0172613
1.0174961
1.0172327
1.0170179
1.0169497
1.0166875
1.0170147
1.0166781
1.0166786
1.0162378
1.0162036
1.0178701
1.0178148
1.0177428
1.0177333
1.017764
1.0177489
1.0176811
1.0176174
1.017569
1.0175444
1.0175329
1.0174155
1.0174136
1.017268
1.0171588
1.0171771
1.0170224
1.0171296
1.0169053
1.01682
1.016652
1.0165513
1.0166334
1.0164586
1.0164002
1.0161133
1.0160375
1.0175805
1.0175086
1.0175202
1.0174728
1.0174446
1.0173993
1.0173516
1.017349
1.0173393
1.0172787
1.0172245
1.0171065
1.0170482
1.0170287
1.0169954
1.0169536
1.0168404
1.0167435
1.0166375
1.0166125
1.0164875
1.0164389
1.0163452
1.0162454
1.0161254
1.0160006
1.0159015
1.0172548
1.0172476
1.0172702
1.017241
1.0172073
1.0171519
1.0170922
1.0170933
1.0170936
1.0170427
1.0169889
1.0169068
1.016858
1.0168344
1.0167747
1.0167366
1.0165967
1.0165368
1.0164515
1.0164444
1.016383
1.0162663
1.016186
1.0160484
1.0159778
1.0158918
1.0158191
1.0170417
1.0170039
1.0169831
1.0170057
1.017013
1.0169903
1.016965
1.0168738
1.0168848
1.0168367
1.016809
1.0168228
1.0166909
1.0167466
1.0165391
1.016608
1.0164017
1.0164577
1.0163466
1.0163213
1.0162712
1.0161501
1.0160894
1.0159657
1.0159074
1.0158277
1.0157391
1.0169793
1.0168654
1.0167173
1.0167411
1.0168797
1.0168994
1.0169677
1.0167496
1.0167474
1.0166316
1.0166806
1.0167428
1.016601
1.016688
1.0163866
1.0165605
1.0163047
1.0164759
1.0162707
1.0163096
1.0161491
1.016113
1.0160061
1.0159644
1.0158855
1.0158225
1.0157216
1.0168713
1.0167995
1.0166887
1.016662
1.0168342
1.0167835
1.0169035
1.0166246
1.0166775
1.0165614
1.0166691
1.0167268
1.0165573
1.0166386
1.0162808
1.0165899
1.0162637
1.0165933
1.0162012
1.0163827
1.0160575
1.0161637
1.0160263
1.0160183
1.0159372
1.015833
1.0157541
1.0167782
1.0167682
1.0167694
1.0166954
1.0168308
1.0167078
1.016818
1.0166103
1.0166921
1.0166092
1.0166793
1.0167043
1.0165005
1.0166638
1.016263
1.0167327
1.0162574
1.0167155
1.0161793
1.0163878
1.0161453
1.0161552
1.0162716
1.016008
1.0161186
1.015789
1.0158324
1.0168181
1.0168018
1.0168409
1.0167421
1.0168333
1.0167387
1.0168031
1.0167241
1.0167117
1.0167734
1.0165779
1.0168746
1.0163874
1.0169144
1.0162835
1.0168639
1.0163561
1.0166355
1.0164231
1.0162626
1.0164904
1.0161183
1.0165423
1.0160393
1.0162574
1.0158613
1.0159494
1.0168902
1.0168678
1.0169453
1.0168221
1.0168948
1.0168156
1.0168578
1.0168894
1.0167168
1.0170084
1.0165007
1.0171295
1.0163792
1.0171157
1.0164325
1.0168482
1.0166522
1.0164327
1.0168917
1.0161212
1.0169475
1.0160344
1.0167651
1.016063
1.0164403
1.016085
1.0161858
1.0170014
1.0170204
1.0168914
1.0170803
1.0168229
1.0171791
1.0167748
1.0171185
1.0167994
1.0169563
1.0170245
1.0166983
1.0172434
1.0163952
1.0173407
1.0163163
1.0172052
1.0164976
1.0168054
1.0168124
1.0163576
1.0169798
1.0161098
1.0169129
1.0161435
1.0166455
1.0162705
1.0171298
1.0170818
1.0172234
1.0170059
1.0171982
1.0170461
1.0170792
1.0171672
1.0169982
1.0171724
1.0169935
1.0170036
1.0171032
1.0168808
1.017154
1.0168604
1.0169762
1.0169209
1.0167674
1.0170359
1.0166922
1.0168923
1.0166241
1.0166741
1.0167105
1.0166488
1.0166276
1.0173163
1.0172576
1.0173521
1.0173604
1.0170533
1.0175045
1.0169436
1.0176262
1.0170355
1.0173389
1.0171989
1.0169319
1.0176012
1.0167709
1.017647
1.0167182
1.0172978
1.0170016
1.0169952
1.0172889
1.0167292
1.017272
1.0166387
1.0171221
1.0167287
1.0169705
1.0167696
1.0175452
1.0174658
1.0176063
1.0173682
1.0173719
1.0176623
1.0174111
1.0174125
1.0176835
1.0169112
1.0179137
1.0168461
1.0179318
1.0171444
1.0173751
1.0174832
1.0167612
1.0179977
1.0166155
1.0180741
1.0165253
1.0176396
1.0167716
1.0174222
1.0170774
1.0171355
1.0170038
1.0179365
1.0175482
1.0177185
1.0176068
1.0175622
1.0181579
1.017481
1.0177096
1.0174818
1.0174047
1.0179911
1.0175637
1.0177542
1.017465
1.0173072
1.0178037
1.0174349
1.0178751
1.0173605
1.0174514
1.0174202
1.0173897
1.0176494
1.0173715
1.0174557
1.0171817
1.0172325
1.0179188
1.0180716
1.0178459
1.0180578
1.017847
1.0177248
1.0183082
1.0174555
1.0182205
1.0175426
1.0178336
1.0182567
1.0174242
1.018396
1.0171161
1.0182063
1.017721
1.017905
1.0180253
1.0172609
1.0180204
1.0174082
1.0181763
1.0175197
1.0177247
1.0173327
1.0175567
1.0181081
1.0183685
1.0180457
1.018408
1.0181103
1.0177778
1.0184738
1.0178341
1.0183456
1.0181803
1.0176452
1.0185636
1.0175734
1.0186703
1.0178235
1.017986
1.0182968
1.0175301
1.0188328
1.0173753
1.0185675
1.0175061
1.0182185
1.0179007
1.0179612
1.0178698
1.0178079
1.0183856
1.0186979
1.0181988
1.0184342
1.018661
1.0178917
1.018883
1.0179856
1.0183724
1.018629
1.0178134
1.0190187
1.0176712
1.0187685
1.0182002
1.0181573
1.0187709
1.0176885
1.0190097
1.01767
1.0187945
1.017927
1.0183734
1.0181929
1.0182178
1.0181787
1.0180642
1.0186885
1.0186515
1.0188268
1.0187844
1.0183851
1.0188185
1.0183884
1.0188489
1.0185851
1.0184611
1.0188066
1.0182666
1.018984
1.0182707
1.0188866
1.0183031
1.0187445
1.0186437
1.0183607
1.0188278
1.0181226
1.0189883
1.0181553
1.0188231
1.0180979
1.0185162
1.0182625
1.0188843
1.0192493
1.0186226
1.0191433
1.0190402
1.0184141
1.019394
1.0184582
1.0191734
1.0189824
1.0183466
1.01941
1.0182556
1.0194664
1.0187005
1.0186508
1.0190636
1.0184426
1.0193631
1.018481
1.0190526
1.018476
1.0188999
1.0186535
1.0187346