/*--------------------------------*- C++ -*----------------------------------*\
| =========                 |                                                 |
| \\      /  F ield         | OpenFOAM: The Open Source CFD Toolbox           |
|  \\    /   O peration     | Version:  2406                                  |
|   \\  /    A nd           | Website:  www.openfoam.com                      |
|    \\/     M anipulation  |                                                 |
\*---------------------------------------------------------------------------*/
FoamFile
{
    version     2.0;
    format      ascii;
    arch        "LSB;label=32;scalar=64";
    class       volScalarField;
    location    "12";
    object      p_0;
}
// * * * * * * * * * * * * * * * * * * * * * * * * * * * * * * * * * * * * * //

dimensions      [1 -1 -2 0 0 0 0];

internalField   nonuniform List<scalar> 
96472
(
1.0058533
1.009848
1.0114122
1.0135067
1.0141216
1.0144287
1.0148601
1.0149219
1.0143456
1.013487
1.0129752
1.0133393
1.0143664
1.0160475
1.0177751
1.0189321
1.0198593
1.0203889
1.0210363
1.0220183
1.0227101
1.0229523
1.0233246
1.0239356
1.0248264
1.0259182
1.0270195
1.0281644
1.0289943
1.0295629
1.0298244
1.029907
1.0300204
1.030287
1.0306532
1.0310322
1.0313101
1.0315001
1.0315861
1.0316383
1.0314535
1.0313847
1.0311883
1.030676
1.0307542
1.0305823
1.0300511
1.0303299
1.0297476
1.0301292
1.0300158
1.0300397
1.0299643
1.0297273
1.0299911
1.005859
1.0099018
1.0114715
1.013582
1.0141799
1.0144199
1.0147634
1.0147771
1.0141109
1.0132028
1.0126517
1.0129324
1.0140018
1.0155227
1.017384
1.0186976
1.0194665
1.020277
1.0208511
1.021598
1.0224938
1.0230032
1.0231371
1.0235648
1.0244397
1.0256627
1.0268555
1.0278407
1.0285411
1.0289215
1.0292088
1.0294483
1.0296796
1.0299232
1.0302457
1.0306171
1.0309233
1.0311738
1.0313677
1.0313387
1.0314479
1.0312138
1.030999
1.0310583
1.0305593
1.0302968
1.0303057
1.0299592
1.0300654
1.0297806
1.0296199
1.0298461
1.0298
1.0297866
1.0297449
1.0058724
1.0099423
1.0115282
1.0136567
1.0142309
1.0144251
1.0146663
1.0146238
1.0138773
1.0129288
1.012373
1.0125861
1.0136354
1.0151643
1.0169041
1.0184585
1.0192643
1.0199524
1.0207987
1.0214491
1.0221409
1.0228969
1.0232397
1.0235171
1.0241411
1.0251698
1.0264582
1.0275517
1.0283126
1.0286747
1.0287968
1.0289509
1.0291931
1.0295218
1.0298404
1.0301967
1.030569
1.0308634
1.0310217
1.0313083
1.0311452
1.0312485
1.0311311
1.0307424
1.030579
1.0306048
1.0301287
1.0300192
1.0297526
1.0296713
1.029925
1.0295593
1.0292846
1.029412
1.029623
1.0058649
1.0099571
1.0115429
1.0136902
1.0142537
1.0143935
1.0146025
1.0144682
1.0136735
1.0127102
1.012114
1.0122967
1.0132135
1.0148362
1.0165768
1.0180832
1.0192093
1.0197456
1.0204679
1.021385
1.0220808
1.0225557
1.023039
1.0235155
1.0241694
1.0250144
1.02604
1.0270721
1.0278553
1.0283677
1.0286369
1.0287479
1.028875
1.0291351
1.0294875
1.0298652
1.0302367
1.0305508
1.0309175
1.0309234
1.0312404
1.0310862
1.0309977
1.030874
1.0308651
1.0302354
1.030169
1.0300592
1.029838
1.0298151
1.0292682
1.0292221
1.0295397
1.0297676
1.0290835
1.0058756
1.0099683
1.011541
1.0136739
1.0142572
1.0143811
1.0144912
1.0142761
1.0134881
1.012499
1.0118575
1.0120396
1.0129046
1.0143923
1.0163108
1.0178063
1.0189195
1.01972
1.0202142
1.0210193
1.0219717
1.0225365
1.0228212
1.0232145
1.0239513
1.0249343
1.0259125
1.0268103
1.02745
1.0278934
1.0281874
1.028442
1.0286305
1.0288624
1.0291656
1.0295631
1.0299441
1.0303403
1.0305519
1.0309787
1.03096
1.0311112
1.0310792
1.0310134
1.0305152
1.030627
1.0304422
1.0299363
1.029817
1.029516
1.0295845
1.0297535
1.0294319
1.0285476
1.0291134
1.005861
1.0099527
1.0115048
1.0136335
1.0142191
1.0143326
1.0144202
1.0141763
1.0133482
1.0123263
1.01168
1.0117654
1.0127014
1.0140695
1.0159137
1.0176515
1.0186345
1.0194915
1.0202277
1.0208082
1.0216025
1.0225168
1.0229146
1.0231884
1.0236721
1.0245636
1.0256442
1.0266001
1.027347
1.0277163
1.0279398
1.0280935
1.028364
1.0286015
1.0289415
1.0293148
1.029697
1.0300672
1.0304902
1.0306745
1.0309704
1.0311007
1.0310415
1.030877
1.0309914
1.0306059
1.030136
1.0301948
1.0300092
1.0297736
1.0296824
1.0289187
1.0290509
1.0293957
1.0296339
1.0058673
1.0099213
1.0114466
1.0135776
1.0141435
1.0142518
1.0143045
1.0140035
1.0131556
1.0121599
1.0115137
1.0115811
1.0124133
1.0138706
1.0155672
1.0173565
1.0186162
1.0192514
1.0200235
1.0208151
1.0214611
1.02215
1.022811
1.0232807
1.0238014
1.0244202
1.0253115
1.0262094
1.026957
1.0275327
1.0278351
1.0280293
1.0281957
1.0284561
1.0287449
1.0291105
1.0295044
1.0298936
1.0302478
1.030626
1.0309202
1.0309434
1.0311127
1.0311763
1.030797
1.0306573
1.0306927
1.0303095
1.0298859
1.0297821
1.0292267
1.0300104
1.0291669
1.02939
1.0283868
1.0058497
1.0098562
1.0113404
1.0134522
1.0140416
1.0141627
1.0141688
1.0138323
1.0129883
1.0119953
1.01133
1.0114288
1.0121422
1.0135823
1.0153949
1.0170357
1.0184793
1.0192893
1.0197555
1.0205509
1.02146
1.0220793
1.0225538
1.0230496
1.023703
1.0245109
1.0252539
1.02604
1.0266599
1.0271618
1.027568
1.0278659
1.0280987
1.028311
1.028622
1.0289645
1.0293512
1.0297598
1.0301264
1.030561
1.0306982
1.0311308
1.0311274
1.0309558
1.0311361
1.0309591
1.030533
1.0302403
1.0301984
1.0299921
1.0300799
1.0290211
1.0293437
1.0290917
1.0291391
1.0058409
1.0097987
1.0112179
1.0133209
1.0139117
1.0140343
1.0140263
1.0136705
1.0128438
1.0118424
1.0112004
1.0112528
1.0120262
1.0132744
1.0151348
1.0169169
1.018168
1.0191807
1.0197844
1.0202966
1.0211351
1.022072
1.0226061
1.0229593
1.0234369
1.0242167
1.0251283
1.0259119
1.026625
1.0270934
1.027431
1.0277229
1.0279877
1.0282777
1.0285537
1.0289244
1.0292682
1.0296271
1.0301254
1.0303681
1.0309078
1.0309151
1.0310886
1.0314036
1.0310873
1.0308801
1.0308467
1.0306718
1.0305544
1.0297067
1.0298313
1.0294965
1.0298449
1.0290536
1.0292058
1.0058157
1.0097046
1.01107
1.013138
1.0137517
1.0139054
1.0138722
1.0134709
1.0126278
1.0116688
1.0110509
1.0110665
1.0118753
1.0131516
1.014785
1.0167414
1.018103
1.0189314
1.0197198
1.0203422
1.0209166
1.0217552
1.02255
1.0230957
1.0235734
1.0241057
1.0248334
1.0256162
1.026316
1.0269733
1.0273912
1.0277442
1.0280148
1.0282402
1.0285706
1.0288637
1.0292285
1.0296496
1.0299818
1.0304958
1.0306426
1.0310645
1.0313095
1.0311246
1.0312507
1.031287
1.0309842
1.0308117
1.02998
1.0308157
1.0297275
1.0302321
1.0292996
1.0290878
1.0293045
1.0057866
1.0095955
1.0108938
1.0129415
1.013563
1.0137311
1.0136726
1.0132648
1.0124326
1.0114912
1.0109098
1.010977
1.0116438
1.0130019
1.0146397
1.0164365
1.0181092
1.018978
1.019491
1.0202157
1.0209461
1.0215955
1.0222763
1.0229136
1.0235729
1.0242382
1.0248704
1.0255204
1.0261431
1.0266913
1.0272535
1.0276534
1.0280125
1.0283079
1.0285783
1.0289411
1.0292587
1.0296337
1.0300661
1.0303467
1.0308043
1.0310437
1.0311825
1.0314525
1.0314453
1.0312325
1.0310689
1.0307626
1.0312433
1.0301694
1.0302655
1.0298808
1.0293253
1.0301788
1.0293019
1.0057476
1.0094519
1.0106904
1.0127159
1.0133705
1.0135542
1.0134818
1.0130364
1.0122116
1.0113076
1.0107506
1.0108615
1.0115369
1.0127667
1.0145311
1.0162949
1.0178508
1.0190034
1.0195267
1.0199606
1.0207412
1.0215931
1.0222603
1.0227697
1.0233336
1.0240509
1.0247745
1.0254503
1.0260753
1.0266499
1.02716
1.0276424
1.0280467
1.0283625
1.0287033
1.0289964
1.0293426
1.0296987
1.0300552
1.0304734
1.0308006
1.0310602
1.031391
1.0314677
1.0314829
1.031405
1.0314392
1.0314011
1.0307679
1.0304288
1.03077
1.0300641
1.0303576
1.0296908
1.029012
1.0056999
1.0093034
1.0104751
1.0124802
1.0131613
1.0133789
1.0132582
1.0127712
1.0119766
1.0111094
1.0105924
1.0106962
1.0114877
1.0126176
1.0142632
1.0162352
1.0177118
1.0187907
1.0195837
1.0200262
1.0205061
1.0213472
1.0222235
1.0228866
1.0233902
1.0239307
1.0245593
1.0252401
1.0258999
1.0265624
1.027129
1.0276767
1.0280752
1.0284546
1.028778
1.0291269
1.0294522
1.0298121
1.0301818
1.0305257
1.0308392
1.0312176
1.0314145
1.0315764
1.0315884
1.0317993
1.0314803
1.0312534
1.0308994
1.0314983
1.0305468
1.0301788
1.0304867
1.0293204
1.0302149
1.0056394
1.009147
1.0102588
1.0122454
1.0129465
1.0131818
1.0130526
1.0125416
1.0117357
1.0109145
1.0104415
1.0105507
1.0113134
1.0125921
1.0140856
1.0159836
1.0177407
1.0187772
1.0194401
1.0200709
1.0205583
1.0211562
1.0219504
1.022726
1.0234496
1.0240332
1.0246206
1.02514
1.0257445
1.0263374
1.0270235
1.0276398
1.0281756
1.028597
1.0289582
1.0292592
1.0296351
1.0299627
1.0303004
1.0306099
1.0309874
1.0312569
1.0314911
1.0316461
1.031925
1.0316107
1.0317375
1.031538
1.0318995
1.0308373
1.0306603
1.0312696
1.0300345
1.0304985
1.0302181
1.0055783
1.0089657
1.0100193
1.0120026
1.0127574
1.0130026
1.0128138
1.0122632
1.0114804
1.0107036
1.0102931
1.0104893
1.0111652
1.0124068
1.0140401
1.015771
1.0175899
1.0189059
1.0194609
1.0198909
1.0205163
1.0211935
1.0219054
1.0225841
1.0232396
1.0239472
1.0245348
1.0251174
1.0256639
1.0262485
1.0269299
1.027596
1.0281836
1.0286972
1.0290968
1.029469
1.0297838
1.0301467
1.0304533
1.0308064
1.0310992
1.0313734
1.0316378
1.0319116
1.0317559
1.0320544
1.0319378
1.0320226
1.0312212
1.0315291
1.0315922
1.0308209
1.0306673
1.0308802
1.0296397
1.0055077
1.0087791
1.0097992
1.0117802
1.0125482
1.0128097
1.0126121
1.0120243
1.0112324
1.0105002
1.0101231
1.0103383
1.0111315
1.0122279
1.013854
1.0157514
1.0173977
1.0187617
1.0196023
1.0199303
1.0203486
1.0210415
1.0218883
1.0226429
1.0232381
1.02381
1.0243869
1.0249609
1.0255112
1.0261597
1.0268482
1.0275664
1.0282126
1.0287629
1.0292183
1.029617
1.0299984
1.030332
1.0306557
1.0309788
1.0312352
1.0315542
1.0318176
1.0318406
1.0321669
1.0321361
1.0321389
1.0317745
1.0321923
1.0317603
1.0315815
1.0309465
1.0314193
1.030522
1.0306616
1.005446
1.0085975
1.009568
1.011566
1.012372
1.0126394
1.0123905
1.0117618
1.0110214
1.0103173
1.0099828
1.0101945
1.011024
1.0121828
1.0136381
1.0155957
1.0173916
1.0186488
1.0195317
1.0200978
1.0203956
1.0208912
1.0216811
1.0225506
1.0233209
1.0238911
1.0243975
1.0248648
1.0253853
1.0259868
1.0267362
1.0275079
1.0282389
1.028865
1.0293747
1.0298123
1.0301883
1.0305347
1.0308869
1.0311588
1.0314696
1.0317094
1.031856
1.0321509
1.0322471
1.0322309
1.0322643
1.0324706
1.0320963
1.0320184
1.0315625
1.0319952
1.0312527
1.0309284
1.0312551
1.00538
1.0084349
1.009368
1.0113882
1.0122261
1.0125046
1.0121998
1.0115574
1.0107862
1.0101091
1.009834
1.0100896
1.0108267
1.0120904
1.0135744
1.0153226
1.0172822
1.018779
1.0195219
1.0200559
1.0204834
1.0209338
1.0215783
1.0223812
1.0231761
1.0238634
1.0243629
1.0248112
1.025307
1.0258632
1.0265804
1.0273822
1.0282033
1.0288998
1.0294764
1.0299571
1.0303743
1.030752
1.0310798
1.0313956
1.0316487
1.0318655
1.0321263
1.0323234
1.0322787
1.0325891
1.0324905
1.0325295
1.0321497
1.0325263
1.0321454
1.0317991
1.0318066
1.0314205
1.0310486
1.005329
1.0082847
1.0092047
1.0112279
1.0120967
1.0123812
1.0120545
1.0113466
1.0106029
1.0099799
1.0096922
1.0099959
1.0107477
1.0118591
1.0134559
1.0152266
1.0170414
1.0187113
1.0196973
1.0200497
1.0204129
1.0209249
1.0216218
1.0223975
1.0230932
1.0237616
1.0242794
1.0247188
1.0251748
1.0257342
1.0264926
1.0273245
1.0281212
1.0288748
1.0295413
1.0300906
1.0305207
1.0309322
1.031299
1.0316008
1.0318567
1.0320957
1.0323137
1.0323191
1.0327458
1.0325327
1.0328416
1.0324327
1.0331069
1.0321456
1.0325853
1.0323132
1.0317017
1.0321265
1.0313584
1.0052773
1.0081655
1.0090668
1.0111145
1.0119896
1.0122752
1.0119191
1.0111943
1.0104338
1.0098192
1.0095858
1.0098383
1.0106827
1.0117485
1.0132082
1.0151156
1.0169533
1.0185062
1.0196787
1.0202367
1.0204472
1.0208127
1.0214776
1.0223556
1.0231771
1.0237625
1.0242697
1.0246635
1.0250802
1.0255865
1.0262987
1.0271682
1.0280708
1.0289005
1.0296137
1.0301942
1.0306959
1.0311126
1.0314872
1.0318001
1.0320624
1.0322626
1.0323914
1.0327664
1.0326327
1.0329238
1.0327739
1.0330853
1.0326065
1.0329963
1.032625
1.0324946
1.0322706
1.0322531
1.0317686
1.0052502
1.008056
1.0089408
1.0110333
1.0119157
1.0121987
1.0118168
1.0110614
1.0103192
1.0097069
1.0094815
1.0097261
1.0105062
1.0116933
1.0130616
1.0148496
1.0168553
1.0185214
1.0195966
1.0202933
1.0206014
1.0208397
1.021365
1.0221858
1.0230705
1.0237854
1.0242303
1.0246105
1.0250159
1.0254766
1.0261541
1.0270135
1.0279377
1.0288395
1.0296164
1.0302447
1.0308022
1.0312566
1.0316579
1.031981
1.0322353
1.0324546
1.0327372
1.0327496
1.0329316
1.0330405
1.0330121
1.0331195
1.0330306
1.0332076
1.0328051
1.0325896
1.0332446
1.0318046
1.0324097
1.0052167
1.0079962
1.0088484
1.0109568
1.0118807
1.0121547
1.0117391
1.0109668
1.0102119
1.0096085
1.009379
1.0096677
1.0103545
1.0114898
1.0129918
1.0146567
1.0166011
1.0184811
1.0197
1.020263
1.0205994
1.0209243
1.0214116
1.0221568
1.0229782
1.023727
1.0242016
1.024552
1.0249092
1.0253814
1.02605
1.026873
1.027797
1.0287132
1.0295438
1.0302674
1.0308623
1.0313664
1.0317792
1.0321029
1.0323913
1.0326644
1.0327981
1.0329307
1.0331676
1.0330282
1.0333896
1.033112
1.0335334
1.0328362
1.0333407
1.0332723
1.0325136
1.0327935
1.0326887
1.0052163
1.007926
1.0087857
1.0109674
1.0118621
1.0121311
1.0117014
1.0109187
1.0101568
1.0095603
1.0093071
1.0095449
1.0103069
1.0113172
1.0127741
1.0145421
1.0164297
1.0182532
1.0196932
1.0203712
1.0206155
1.0208791
1.0213787
1.0221248
1.0229775
1.023675
1.0241881
1.0245268
1.0248294
1.0252302
1.0258585
1.0267119
1.0276544
1.0286188
1.029508
1.0302567
1.0308959
1.031439
1.0318533
1.0322297
1.0325311
1.0327755
1.0329427
1.033186
1.0331253
1.0334201
1.0333031
1.0334641
1.0332343
1.0336332
1.0332451
1.0333197
1.0327574
1.0335752
1.0324701
1.0051915
1.0079215
1.0087325
1.0109209
1.0118503
1.0121269
1.0116945
1.0108722
1.0101172
1.0095108
1.0092615
1.0094553
1.0101831
1.0112578
1.0125607
1.0143213
1.0163264
1.0181332
1.0195321
1.0204223
1.0207324
1.0208685
1.0212565
1.0219765
1.0228902
1.0236594
1.0241586
1.0245044
1.0247933
1.0251636
1.0257354
1.0265129
1.0274563
1.0284638
1.0293921
1.0301858
1.0308806
1.0314206
1.0319038
1.0323055
1.0325982
1.0328366
1.0330851
1.033166
1.0333439
1.0334538
1.0333899
1.0336373
1.0335449
1.0336324
1.0333835
1.0333313
1.0337131
1.032946
1.033024
1.0052176
1.0078682
1.0086816
1.0109487
1.0118562
1.0121335
1.0116701
1.0108847
1.0101153
1.0094977
1.0092295
1.0094069
1.0100464
1.0111182
1.0124938
1.0141072
1.0160937
1.0180665
1.0195207
1.0203701
1.0207563
1.0209338
1.0212537
1.0219224
1.022785
1.0236088
1.0241501
1.024449
1.0247296
1.025085
1.0256174
1.0263677
1.0272851
1.0282594
1.0291978
1.0300659
1.0308027
1.0314004
1.0319155
1.0323023
1.03263
1.0329189
1.0331144
1.033278
1.0334471
1.0334723
1.0337037
1.0335446
1.0337695
1.0334212
1.0338482
1.0335251
1.0334942
1.0332904
1.0332773
1.0051951
1.0079005
1.0086336
1.0109127
1.0118514
1.0121488
1.011709
1.0108668
1.010116
1.0094817
1.009204
1.0093639
1.0099948
1.0109572
1.012365
1.013977
1.0158836
1.0178653
1.0194778
1.0203474
1.0207259
1.0209412
1.0212566
1.0218693
1.0226963
1.0235241
1.024084
1.0244212
1.0246853
1.0249784
1.02547
1.0262067
1.0270929
1.028051
1.0290191
1.0299183
1.0307004
1.0312894
1.0318336
1.0322639
1.0326149
1.0329112
1.0330906
1.033277
1.033422
1.0335957
1.0336266
1.0335873
1.033736
1.0338598
1.0335771
1.0338061
1.0334383
1.0337384
1.0331901
1.0052284
1.0078452
1.0085984
1.010965
1.011847
1.0121521
1.0116714
1.0109102
1.0101274
1.0094897
1.0091887
1.0093067
1.0099212
1.0109117
1.0121801
1.0138142
1.0157728
1.0176963
1.0192904
1.0203329
1.020745
1.0209042
1.0211673
1.0217426
1.0225983
1.0234412
1.0240468
1.0243946
1.0246467
1.024928
1.0253564
1.0260307
1.0268706
1.0278421
1.028828
1.0297178
1.0305415
1.0312402
1.0317439
1.0321969
1.0325645
1.0328544
1.0331859
1.0332732
1.0333794
1.0336423
1.0335701
1.0337865
1.0337859
1.0337245
1.0337669
1.0336407
1.0338242
1.0333953
1.033728
1.0332787
1.0333394
1.0330472
1.0328404
1.0324858
1.0322235
1.0319275
1.0315558
1.0313413
1.0309517
1.0304223
1.0302852
1.0302572
1.0295113
1.0294717
1.0295091
1.0289929
1.0291503
1.0287542
1.0290116
1.0290342
1.028668
1.0292409
1.0290949
1.0294604
1.0296281
1.0299492
1.0331248
1.0328314
1.0326672
1.0324437
1.0322843
1.0317844
1.0315634
1.0313286
1.0308087
1.0306155
1.0303708
1.029925
1.0296582
1.0296096
1.0292
1.0290827
1.029024
1.0287185
1.0289638
1.0285399
1.0288575
1.0288411
1.02878
1.0291299
1.0291186
1.0295218
1.0296311
1.0326677
1.0325391
1.032382
1.0319906
1.0317792
1.0315454
1.031124
1.0308175
1.0306243
1.0302078
1.0299181
1.0297649
1.0293728
1.0291935
1.0290712
1.0287942
1.0287875
1.0286391
1.0285473
1.0286788
1.028481
1.0287178
1.0287402
1.0288328
1.0290815
1.0291573
1.0295737
1.0323306
1.0320123
1.0319261
1.0316966
1.0311791
1.0311327
1.0307545
1.0303859
1.0301878
1.0298362
1.029642
1.0293058
1.0291455
1.0289174
1.0287255
1.0287163
1.028388
1.0285903
1.0282891
1.0285118
1.0283857
1.0285009
1.02863
1.0286911
1.0288604
1.0290674
1.0291409
1.0318213
1.0316156
1.0311736
1.0311223
1.0309089
1.0303791
1.0303407
1.0300203
1.029578
1.0295892
1.0291245
1.0290233
1.0288201
1.0285765
1.0285459
1.0283288
1.0283695
1.0281256
1.0283532
1.028102
1.0283838
1.0282987
1.0284567
1.028578
1.0286763
1.0288293
1.028973
1.0311704
1.0310777
1.0307831
1.0304271
1.0302705
1.0300585
1.0296326
1.029524
1.0292735
1.0289093
1.0288895
1.0285374
1.0284319
1.0283459
1.0281348
1.0281936
1.0280471
1.0280012
1.0280298
1.0280778
1.0281029
1.0281655
1.0283159
1.0283744
1.0285298
1.0285846
1.0287954
1.0306731
1.0304162
1.0301751
1.0298972
1.0296201
1.029476
1.0291056
1.0289878
1.0287514
1.0284427
1.0284546
1.028137
1.0281135
1.0278692
1.0279783
1.0277427
1.0278127
1.0278807
1.0277057
1.0279772
1.0278137
1.0281614
1.0279681
1.0283284
1.0282266
1.0284775
1.0284289
1.029831
1.029687
1.0296341
1.0291595
1.0290098
1.0289518
1.0284623
1.0284046
1.02831
1.0279593
1.027867
1.0278487
1.0276154
1.0276444
1.0275234
1.027529
1.027516
1.0275071
1.0277095
1.0275327
1.0278453
1.0277239
1.0280086
1.027934
1.0281656
1.0280989
1.0282542
1.0292326
1.0288462
1.0288713
1.0287102
1.0281695
1.0282828
1.028148
1.0275569
1.027854
1.0275872
1.0271908
1.0275688
1.0270888
1.0273606
1.0271088
1.0272578
1.0272339
1.0272046
1.0274204
1.0273537
1.0276284
1.0274487
1.0278679
1.0275898
1.0280196
1.0277649
1.0280006
1.0285944
1.0282095
1.0282493
1.0280689
1.0275216
1.0276771
1.0274766
1.0270763
1.027202
1.0270552
1.026888
1.0268366
1.0268714
1.0268354
1.0267508
1.0270092
1.0267382
1.0271053
1.0269952
1.0271996
1.0272147
1.0273437
1.0274751
1.0274818
1.0275851
1.0275956
1.0276152
1.0278909
1.0276399
1.027267
1.027446
1.0270854
1.0266328
1.0270539
1.0266464
1.0262568
1.0268221
1.026286
1.0262735
1.026679
1.0262044
1.0264792
1.0265888
1.026443
1.0268185
1.0266167
1.0269077
1.0269874
1.026986
1.0272163
1.0271411
1.0272832
1.0272027
1.0273405
1.0271258
1.0267927
1.0265738
1.0266798
1.0263845
1.0261357
1.0262558
1.0261168
1.0258334
1.0261231
1.0259652
1.0257254
1.0262422
1.0257851
1.0261378
1.0262369
1.0259576
1.0266845
1.0260378
1.0268508
1.0264209
1.0268085
1.026771
1.0268977
1.0268992
1.0268001
1.0269115
1.02637
1.0261467
1.0259828
1.02589
1.0258875
1.0255487
1.0256755
1.0256484
1.0253116
1.025575
1.0254921
1.0254437
1.0255238
1.0256048
1.0256741
1.0256455
1.0259829
1.0258946
1.0260697
1.0261915
1.0261604
1.0264971
1.0262783
1.0265707
1.0264173
1.0264404
1.0264892
1.025825
1.0253796
1.0254454
1.0254761
1.0250656
1.0251603
1.0250829
1.0249176
1.0251337
1.0247664
1.0251564
1.0249883
1.0249315
1.0254659
1.0248991
1.0256118
1.0252816
1.0255788
1.0257785
1.0256098
1.0260469
1.0257746
1.0260679
1.0259989
1.0260662
1.0259049
1.0260383
1.0250599
1.0247561
1.0249132
1.0246688
1.0244844
1.0246836
1.0244381
1.0244462
1.0244551
1.0244707
1.0246178
1.0244026
1.0247598
1.0246679
1.0247922
1.0250913
1.0247852
1.0253574
1.0251957
1.0252784
1.0255315
1.0254559
1.0255567
1.0255175
1.0255766
1.0254397
1.0255001
1.0244504
1.0241741
1.0242047
1.0241668
1.023918
1.024092
1.0240108
1.0238063
1.02428
1.0238067
1.0240678
1.0244235
1.0238819
1.0245123
1.0243921
1.0244967
1.0247049
1.0245858
1.0249597
1.024835
1.0250345
1.0250065
1.0250013
1.0251775
1.0249019
1.0250671
1.0248537
1.023937
1.0237517
1.0236401
1.0237216
1.0235606
1.0234785
1.0236439
1.0235849
1.0235022
1.0237136
1.0237116
1.0237152
1.0238762
1.0239041
1.0241358
1.0239393
1.0243818
1.0243186
1.0243005
1.0245579
1.0244221
1.0246792
1.0243931
1.0247514
1.0242056
1.0247284
1.0242328
1.0234168
1.0234019
1.0232175
1.0232411
1.0232927
1.0229712
1.0234016
1.0232374
1.0229066
1.0236079
1.0232717
1.0232304
1.0236583
1.0234524
1.0237632
1.0235606
1.0240379
1.0237557
1.0239552
1.0241254
1.0239594
1.0241867
1.0238527
1.0243068
1.0235877
1.0241982
1.0236631
1.0228522
1.0229453
1.022876
1.0226201
1.0229234
1.0227663
1.0227168
1.0229606
1.0226982
1.023142
1.0228449
1.0229342
1.0234363
1.0229085
1.0233885
1.02329
1.0235113
1.0234153
1.0235205
1.0236647
1.0234038
1.0238112
1.0233092
1.0237736
1.0230978
1.0235976
1.0231447
1.0224888
1.0223905
1.0223663
1.022482
1.0223283
1.0225012
1.0224117
1.0222339
1.0228644
1.0224694
1.0224968
1.0229317
1.0226088
1.0230153
1.0227102
1.0231254
1.0230364
1.0228465
1.0234641
1.0228747
1.0232098
1.0229474
1.0232821
1.0228298
1.0229373
1.022759
1.0227191
1.0221237
1.0222035
1.0219274
1.0221908
1.0221312
1.0220184
1.0222608
1.0221024
1.0222799
1.0222347
1.0223626
1.0225301
1.0222221
1.0226515
1.0225541
1.0227485
1.0224857
1.0227077
1.0227958
1.0227011
1.0225237
1.0226195
1.0226993
1.0223339
1.0225013
1.0221244
1.0221944
1.0218736
1.022016
1.021845
1.0218146
1.0220249
1.0217212
1.0219514
1.0221993
1.02172
1.0221617
1.0221618
1.0220494
1.0223125
1.0219162
1.0226348
1.0221015
1.0223083
1.0224005
1.0220579
1.0226236
1.0217696
1.022577
1.0218465
1.0221244
1.021704
1.0217952
1.021694
1.0217053
1.021825
1.0216406
1.0216298
1.0218169
1.0215222
1.0218493
1.0218276
1.0215018
1.0220751
1.021752
1.0219251
1.0218773
1.0217771
1.0223032
1.0215969
1.0221717
1.0217184
1.0220223
1.0219342
1.0214521
1.0220505
1.0214077
1.0217423
1.0210623
1.0213664
1.021167
1.0215804
1.0215244
1.0213932
1.0215491
1.021461
1.0214806
1.0215735
1.0212953
1.021644
1.0215555
1.0215804
1.0216046
1.0213662
1.0219483
1.0214322
1.0216514
1.0214466
1.0214681
1.0217625
1.0211316
1.0214324
1.0211405
1.02133
1.0209788
1.0208165
1.0206845
1.0206762
1.0213693
1.021218
1.0212398
1.021224
1.0213493
1.0212769
1.021127
1.0213074
1.0211933
1.0213563
1.0212471
1.0211337
1.0214339
1.0211871
1.0212873
1.0211739
1.021081
1.021237
1.0209837
1.0209605
1.0208677
1.0207745
1.0206747
1.020602
1.020382
1.0202042
1.0200772
1.0211443
1.0209665
1.0210375
1.0210712
1.0209928
1.0211468
1.0208991
1.0209961
1.0211422
1.0207617
1.021176
1.0208522
1.0209631
1.0210436
1.0205798
1.0211501
1.0204608
1.0209711
1.0204154
1.0205725
1.0205772
1.0200991
1.0204606
1.0198471
1.0201388
1.0195692
1.0196797
1.0209433
1.02072
1.0208725
1.0208409
1.0207147
1.0209685
1.0205944
1.020828
1.0208641
1.020488
1.0209258
1.0203922
1.0207788
1.0206162
1.0203001
1.0206809
1.0199747
1.0207198
1.0199269
1.0202749
1.0198677
1.0197748
1.0200523
1.0194379
1.0196607
1.0190324
1.0192178
1.0205968
1.0205927
1.0206835
1.020634
1.020508
1.0203825
1.0204645
1.0206295
1.0205732
1.0202649
1.0202437
1.0202265
1.0204267
1.020304
1.0199294
1.0200214
1.0197663
1.0202398
1.0196375
1.0196967
1.0194341
1.0193585
1.0196332
1.0189362
1.0191457
1.0186838
1.0188251
1.0203139
1.0202784
1.0205121
1.0202725
1.0201795
1.0201336
1.0200877
1.0204178
1.0200587
1.0200256
1.0198457
1.0198581
1.0201646
1.0196192
1.0198342
1.0193566
1.0196526
1.0196225
1.0191933
1.019385
1.0188227
1.0192919
1.0187942
1.0188177
1.0184368
1.0184653
1.0183093
1.019991
1.0199789
1.0201894
1.0199286
1.0198974
1.0197982
1.0197912
1.0200234
1.0196167
1.0197788
1.0194284
1.0195998
1.0196428
1.0192007
1.0195427
1.0188772
1.0194243
1.0189091
1.0189948
1.0189087
1.0185039
1.0188645
1.0181656
1.0186078
1.0179838
1.0181959
1.0178027
1.0196192
1.019712
1.0197204
1.0196884
1.0195289
1.0193891
1.0195673
1.0194332
1.0194363
1.0193505
1.0190753
1.0192512
1.0190325
1.0190954
1.0190381
1.0186841
1.0188366
1.0184454
1.0187128
1.0184959
1.0182483
1.0182309
1.0178646
1.0181206
1.0178095
1.0177013
1.0174127
1.0192367
1.0192885
1.0194459
1.0193176
1.0191325
1.0190791
1.0190412
1.0190913
1.0191605
1.0189339
1.0187387
1.0187733
1.0185613
1.0188382
1.0186368
1.0183991
1.018385
1.0179904
1.0184374
1.0180171
1.0180852
1.0176669
1.0176305
1.0175909
1.0175038
1.0173359
1.0170978
1.0188691
1.0189018
1.0189966
1.0189036
1.01881
1.0186658
1.0187052
1.0186321
1.0187181
1.0185896
1.018402
1.0184802
1.0181605
1.0184803
1.0180989
1.0181613
1.0179724
1.0177551
1.0180125
1.0174817
1.0177998
1.0172199
1.0175255
1.0171882
1.0171652
1.0168861
1.016745
1.0186206
1.0184857
1.018421
1.0184336
1.0184418
1.0184477
1.0183845
1.0181872
1.0182328
1.0181187
1.0181468
1.0181687
1.0178989
1.0180228
1.0176249
1.0178018
1.0176225
1.0176223
1.0176093
1.0171337
1.0173373
1.0168785
1.0172813
1.0169531
1.0168695
1.0165112
1.0164021
1.0182828
1.0181033
1.0179689
1.0179621
1.0180666
1.018135
1.01805
1.0179033
1.0178185
1.0177084
1.0178037
1.0177532
1.0176777
1.0176393
1.0173205
1.017432
1.0172458
1.0173557
1.0172753
1.0169357
1.0170134
1.0166225
1.0169458
1.0166362
1.016623
1.0162712
1.016197
1.0177936
1.017777
1.0177283
1.01771
1.0177069
1.0176725
1.0176237
1.0175831
1.0175574
1.0175112
1.0174843
1.0173498
1.017331
1.0172661
1.0171301
1.0171696
1.0169733
1.0170295
1.0168956
1.0167596
1.0167002
1.0164895
1.016604
1.0163904
1.0163696
1.0161034
1.0160338
1.0175244
1.0174659
1.017485
1.0174344
1.0173913
1.0173452
1.0172995
1.0172985
1.0173128
1.0172414
1.0171743
1.0170557
1.0169875
1.0169932
1.0169744
1.0169233
1.0167972
1.0166858
1.0165988
1.0165781
1.0164869
1.0163858
1.016313
1.0161783
1.0161057
1.0159794
1.0158968
1.0172178
1.0171975
1.0172109
1.0171888
1.0171659
1.0171167
1.0170507
1.0170282
1.0170357
1.0169969
1.0169483
1.0168739
1.0168076
1.0167916
1.0167341
1.0166956
1.0165552
1.0164797
1.0164281
1.0163927
1.0163732
1.0162207
1.0161484
1.0159996
1.0159479
1.0158669
1.0157982
1.0170191
1.0169562
1.0169062
1.0169242
1.0169657
1.0169573
1.016941
1.0168374
1.0168021
1.016796
1.0167325
1.0168032
1.0166354
1.0167034
1.0165028
1.0165341
1.0163986
1.0163737
1.0163515
1.0162403
1.0162616
1.0160819
1.0160683
1.0159076
1.015894
1.0157867
1.0157195
1.0169335
1.0168145
1.0166616
1.0166646
1.0168366
1.0168584
1.0169141
1.0167241
1.016645
1.0166181
1.0165792
1.0167418
1.0165199
1.0166519
1.0163353
1.0164878
1.0163052
1.0163855
1.0162821
1.01621
1.016151
1.0160207
1.0160056
1.015896
1.0158775
1.015773
1.0157005
1.0168022
1.0167455
1.0166542
1.0166141
1.016777
1.0167296
1.0168092
1.0166076
1.0165684
1.016589
1.016544
1.0167418
1.0164327
1.0166215
1.0162093
1.0165434
1.0162491
1.0165
1.0162148
1.0162513
1.0160943
1.016033
1.0160764
1.0159151
1.0159527
1.0157546
1.0157307
1.016706
1.0167163
1.016732
1.016655
1.0167485
1.0166659
1.0167023
1.0166192
1.0165784
1.0166495
1.0165245
1.0167256
1.0163496
1.0166792
1.0161995
1.0166769
1.0162592
1.0165511
1.0162533
1.016187
1.0162583
1.0159857
1.0163398
1.0158948
1.0161188
1.0157218
1.0157993
1.0167461
1.0167478
1.0167831
1.016723
1.0167231
1.0167232
1.0166629
1.0167605
1.0165705
1.0168267
1.0164201
1.0168713
1.0162979
1.0168444
1.0163292
1.0166848
1.0164588
1.0163804
1.0165438
1.0160786
1.0165673
1.0160195
1.0165062
1.015989
1.0161922
1.015851
1.0159183
1.0168158
1.0168153
1.016867
1.0168102
1.0167773
1.0168227
1.016692
1.0169346
1.0165624
1.0170421
1.0164057
1.01704
1.0164108
1.0168913
1.016615
1.0165394
1.0168531
1.0161521
1.0169811
1.0160238
1.0168842
1.0160835
1.0165663
1.0161538
1.0162646
1.0161628
1.0161237
1.0169182
1.0169777
1.0168146
1.0170289
1.0167832
1.0170427
1.0168004
1.016922
1.0169265
1.0167173
1.0171446
1.0164725
1.0172637
1.0163392
1.0172076
1.0164617
1.016869
1.0167488
1.0164179
1.0170623
1.0161026
1.0170692
1.0159974
1.0168399
1.0161506
1.0165707
1.016276
1.017051
1.0170012
1.017187
1.0169793
1.0170673
1.0170163
1.0169477
1.0171597
1.016963
1.0170795
1.0169604
1.016863
1.0170809
1.0168462
1.0170831
1.016865
1.0168199
1.0169111
1.0166795
1.0169919
1.0167109
1.0167645
1.0166519
1.0165389
1.0167254
1.0165864
1.0166146
1.0172416
1.0172347
1.0171868
1.0173897
1.0169199
1.0174539
1.0169375
1.0174301
1.017161
1.0170472
1.0173498
1.0166958
1.0176318
1.0167447
1.0174635
1.0168493
1.0169768
1.017198
1.0167404
1.0174137
1.0165754
1.0172383
1.0165973
1.017056
1.0167335
1.0168998
1.0167385
1.0175315
1.0173227
1.01752
1.017336
1.0172906
1.0175582
1.0174783
1.0171715
1.0177176
1.0168113
1.0177931
1.0169919
1.017566
1.0174279
1.0169186
1.017766
1.0164815
1.0180527
1.0165925
1.0178511
1.0167199
1.0172857
1.0170408
1.0171029
1.0172687
1.0169404
1.0170193
1.0178354
1.0175433
1.0175441
1.0176711
1.017387
1.0180772
1.0175117
1.0175023
1.0175464
1.0172629
1.0179142
1.0175866
1.017565
1.0175127
1.0171483
1.0177767
1.0174301
1.0177434
1.0174034
1.0172569
1.0174628
1.0172896
1.0176542
1.0173283
1.0173744
1.0171392
1.0171759
1.0177783
1.0180165
1.0178944
1.0178904
1.0179037
1.0174579
1.0182641
1.0174988
1.018018
1.0177453
1.017443
1.018338
1.0172838
1.0183322
1.0172809
1.0178485
1.0179143
1.0175274
1.0182161
1.0171385
1.0180242
1.0173477
1.0180235
1.0175291
1.0176475
1.0173742
1.0175027
1.0180224
1.0183245
1.0179677
1.0182272
1.0181987
1.0176142
1.0183642
1.0178879
1.0180648
1.0183395
1.017441
1.0184937
1.0176111
1.0183619
1.0181145
1.0176054
1.0184811
1.0172892
1.0187993
1.0174688
1.0183342
1.0176783
1.0178875
1.0180482
1.0177996
1.0179687
1.0177169
1.0183189
1.0185438
1.0182684
1.0181789
1.0187086
1.0178101
1.0186565
1.0181703
1.0180137
1.0187738
1.01765
1.0188916
1.0178102
1.0183826
1.0184831
1.0177904
1.018941
1.0175343
1.0189137
1.0177556
1.0185253
1.0181099
1.0181293
1.0183087
1.0180767
1.0181839
1.0179863
1.0185803
1.0186357
1.0186455
1.0188017
1.0182749
1.0186897
1.0183839
1.018652
1.0186819
1.0182557
1.0187994
1.0181544
1.0188824
1.0183212
1.0187035
1.0184198
1.0184116
1.018822
1.0181279
1.0189381
1.0179741
1.0189566
1.0181185
1.0187339
1.0181409
1.0184038
1.0182546
1.0188074
1.0191593
1.0185995
1.0188676
1.0191668
1.0182627
1.0192674
1.0185458
1.0188086
1.0191865
1.0181229
1.0193721
1.0182988
1.0191453
1.0189435
1.0183239
1.019188
1.0182776
1.0193305
1.0184967
1.0189142
1.018482
1.018779
1.0186811
1.018691
1.0185206
1.0184727
1.0191794