/*--------------------------------*- C++ -*----------------------------------*\
| =========                 |                                                 |
| \\      /  F ield         | OpenFOAM: The Open Source CFD Toolbox           |
|  \\    /   O peration     | Version:  2406                                  |
|   \\  /    A nd           | Website:  www.openfoam.com                      |
|    \\/     M anipulation  |                                                 |
\*---------------------------------------------------------------------------*/
FoamFile
{
    version     2.0;
    format      ascii;
    arch        "LSB;label=32;scalar=64";
    class       surfaceScalarField;
    location    "12";
    object      phi;
}
// * * * * * * * * * * * * * * * * * * * * * * * * * * * * * * * * * * * * * //

dimensions      [1 0 -1 0 0 0 0];

oriented        oriented;

internalField   nonuniform List<scalar> 
192068
(
0.00086086211
-6.541649e-05
5.9966664e-05
0.00086028862
-0.0001531328
0.00016104338
0.00085863791
-0.00018240373
0.00020332266
0.00087125458
-0.00026261737
0.00028602605
0.0008936259
-0.00033991241
0.00036457597
0.00091945652
-0.00040697494
0.00043149595
0.00094716203
-0.00044582548
0.0004694752
0.00097723457
-0.00045156309
0.00047343
0.0010070388
-0.00043320392
0.00045757558
0.001029989
-0.0004071308
0.00042792563
0.0010420802
-0.00038438718
0.00040341276
0.0010426232
-0.00037487961
0.00039113332
0.0010337315
-0.00038413335
0.00040083075
0.0010171476
-0.00040796648
0.00042269623
0.0009977436
-0.00044542678
0.00047236868
0.00097888352
-0.00050382194
0.00052753854
0.00096059745
-0.00055468127
0.00058092084
0.00094315172
-0.00059211768
0.00062531339
0.00092618537
-0.00061207266
0.00063106889
0.00091147625
-0.0006000525
0.00061938939
0.0009003588
-0.0005748072
0.00060154316
0.00089322068
-0.00055037492
0.00056949292
0.00088741852
-0.00051801329
0.00052744011
0.00088045291
-0.00048216253
0.00049452995
0.00087164728
-0.00044437408
0.00046065764
0.00086265354
-0.00040929843
0.00042712427
0.00085525138
-0.00037353207
0.00038374467
0.00085127681
-0.00033535823
0.00033849408
0.00085168716
-0.0002912026
0.00029026811
0.00085480729
-0.00024630148
0.00024617232
0.00086046709
-0.00019794348
0.00020172526
0.00086668023
-0.00015548549
0.00015953359
0.00087353763
-0.00011257363
0.00011214948
0.00088062525
-7.1729575e-05
6.6730907e-05
0.00088841909
-2.8441395e-05
2.109063e-05
0.00089698796
1.3240385e-05
-2.1897485e-05
0.00090621425
5.4068033e-05
-6.3766599e-05
0.0009172841
9.2732929e-05
-0.0001033348
0.00092929349
0.00012953833
-0.0001427229
0.0009439373
0.00016571736
-0.0001794227
0.00096135793
0.00019758871
-0.00021522699
0.00098015671
0.00022925157
-0.00025198184
0.0010046288
0.00026173263
-0.00027950974
0.0010285203
0.00028890494
-0.00031646482
0.0010541111
0.00031610235
-0.00034589294
0.0010830913
0.00034558798
-0.00036964717
0.001110431
0.00036547765
-0.00039863659
0.0011413601
0.00039265672
-0.00042319304
0.0011690085
0.00040996841
-0.00044568099
0.0012019263
0.0004339038
-0.00046339961
0.001231605
0.00044735017
-0.00048151659
0.0012668949
0.00046454873
-0.00050076187
0.0012977788
0.0004786616
-0.00051671001
0.001336861
0.00048685956
-0.00052735382
0.00051048449
0.0013694825
-0.00054715753
0.00086258559
-6.8482141e-05
0.00085960326
-0.00014366684
0.00085794413
-0.00016419146
0.00086983681
-0.00024233973
0.00089213085
-0.00031798783
0.00091836135
-0.00038496095
0.00094689427
-0.00042549773
0.00097754289
-0.00043118046
0.0010076841
-0.00041416753
0.0010311374
-0.00038839496
0.0010435023
-0.00036746561
0.001044134
-0.00036142345
0.0010355809
-0.00036760973
0.0010200413
-0.00039228705
0.0010012823
-0.00042636038
0.00098352964
-0.00047415648
0.00096613701
-0.00053216955
0.00094920674
-0.00056427926
0.00093310009
-0.00058049767
0.00091822766
-0.00058028443
0.00090624942
-0.00055661259
0.0008985237
-0.00052523665
0.00089249032
-0.00049913402
0.00088555835
-0.00047124739
0.00087713954
-0.00043773974
0.00086808944
-0.00040106163
0.00086053974
-0.00036106882
0.00085578522
-0.00032381097
0.00085523291
-0.00028241507
0.00085751275
-0.00024372066
0.00086198268
-0.00020052466
0.00086708813
-0.00015800767
0.00087346629
-0.00011462007
0.00088000109
-7.4644531e-05
0.00088792934
-3.4840893e-05
0.00089771456
4.0013677e-06
0.00090926738
4.2446932e-05
0.00092138602
7.9765047e-05
0.00093618782
0.0001156592
0.00095156392
0.00014892224
0.00096862786
0.00018086022
0.00098808905
0.00021303431
0.001007011
0.00023688129
0.0010318075
0.00027052562
0.0010553023
0.00029084092
0.00108102
0.00031742348
0.0011086438
0.00033995664
0.0011368083
0.00036115532
0.00116701
0.00038097494
0.0011967051
0.00039663398
0.0012276221
0.00041569399
0.0012628629
0.00042994442
0.0012927193
0.00044520853
0.0013260213
0.0004480102
0.00047165838
0.001361317
0.00086321603
-7.1044665e-05
0.00085941513
-0.00013485962
0.00085772557
-0.00014591908
0.00086933976
-0.00022200897
0.00089158188
-0.00029648428
0.00091800303
-0.00036439201
0.00094676614
-0.00040455245
0.00097745237
-0.00041043275
0.0010073769
-0.00039408332
0.0010307943
-0.00037032949
0.0010432805
-0.00035162246
0.0010444813
-0.00034714398
0.0010364338
-0.00035374051
0.0010215514
-0.00037156903
0.0010031658
-0.00040812361
0.00098542304
-0.00044890546
0.0009687988
-0.00049866705
0.00095234121
-0.00054058424
0.00093653418
-0.00055147539
0.00092199729
-0.00054959355
0.00090995872
-0.00053748361
0.00090167333
-0.00050985183
0.00089578219
-0.00047721352
0.00088894545
-0.00045076872
0.00088095185
-0.00042375038
0.00087244324
-0.00039481839
0.0008655808
-0.00035709469
0.0008613712
-0.00031808063
0.00086104063
-0.00027503205
0.00086366122
-0.00023424927
0.00086825395
-0.0001946636
0.00087368717
-0.00015726604
0.00087987874
-0.00011777153
0.00088651889
-7.9053205e-05
0.00089440353
-4.0969684e-05
0.00090272629
-3.9383934e-06
0.00091340148
3.2037946e-05
0.00092599603
6.761629e-05
0.00094025523
9.9906243e-05
0.00095688709
0.00013443137
0.00097482923
0.00016239125
0.00099414979
0.0001925464
0.0010172102
0.00022127239
0.0010376114
0.00024339648
0.0010622764
0.00027013976
0.0010882288
0.0002942028
0.0011116921
0.00031277774
0.0011406568
0.00033395842
0.00116564
0.00035241869
0.0011975342
0.00036876467
0.0012270777
0.00038720577
0.0012553934
0.00039235225
0.0012851072
0.00041072681
0.0013195753
0.00041784441
0.00043734242
0.001353634
0.00086333861
-7.3303913e-05
0.00085944117
-0.00012649109
0.00085767641
-0.00013019199
0.00086903526
-0.00020394991
0.00089113563
-0.00027613423
0.00091768543
-0.00034383159
0.00094656985
-0.00038557592
0.00097715696
-0.00039041949
0.0010068229
-0.00037577059
0.0010302147
-0.00035375874
0.001043001
-0.00033796049
0.0010448463
-0.00033169887
0.0010376327
-0.00034144664
0.0010234202
-0.00035488932
0.0010057058
-0.00038317252
0.00098823463
-0.00042693014
0.00097191315
-0.00046641677
0.00095631287
-0.00050769194
0.00094076408
-0.0005302593
0.00092634373
-0.00052425513
0.00091419965
-0.00050870932
0.00090541309
-0.00049292288
0.0008992488
-0.00046558626
0.000892629
-0.00043612835
0.00088489783
-0.00040614148
0.00087675179
-0.00037862614
0.00086979719
-0.00034806875
0.0008656669
-0.00031317472
0.00086530281
-0.00027388456
0.00086761732
-0.00023275229
0.00087227482
-0.00019104502
0.00087776992
-0.00015345178
0.00088397457
-0.00011771164
0.0008906123
-8.2505421e-05
0.00089809373
-4.6726264e-05
0.00090686976
-1.1815721e-05
0.00091719947
2.2393418e-05
0.00092870847
5.5430917e-05
0.0009426013
8.8177512e-05
0.0009575979
0.00011661838
0.00097535234
0.00014739376
0.00099549781
0.00017386949
0.0010146517
0.00019764796
0.0010402573
0.00022539818
0.0010633847
0.00024759734
0.0010881168
0.00026589213
0.001115109
0.00029088468
0.0011419153
0.0003062525
0.0011694602
0.00032660049
0.0011977245
0.00033775428
0.0012224034
0.00035345969
0.0012538378
0.00036599882
0.0012869407
0.00038353475
0.0013148957
0.00038486141
0.00039920829
0.0013433758
0.00086364243
-7.5553483e-05
0.0008595669
-0.00011886638
0.00085763959
-0.00011600864
0.00086873315
-0.00018653731
0.00089063582
-0.00025766393
0.00091721827
-0.00032375213
0.0009461882
-0.00036640891
0.00097667678
-0.00037195342
0.0010061652
-0.00035753476
0.0010295041
-0.00033763126
0.0010427443
-0.00032260636
0.00104507
-0.00031880512
0.0010387426
-0.00032546261
0.0010253127
-0.00034178124
0.0010079849
-0.00036063346
0.00099108879
-0.00039824156
0.0009748699
-0.00044397185
0.00095972522
-0.00047526069
0.00094485796
-0.00049964562
0.0009306208
-0.00050479355
0.00091803504
-0.00048763785
0.0009090064
-0.00046679283
0.00090252633
-0.00044802792
0.00089604331
-0.00042617609
0.00088864964
-0.00039931618
0.00088096568
-0.00036797453
0.00087449356
-0.0003361125
0.00087036764
-0.00030227249
0.0008700775
-0.00026551844
0.00087255549
-0.00022977267
0.00087714458
-0.00019257988
0.00088261729
-0.00015533767
0.00088929457
-0.00011932996
0.00089612781
-8.5590453e-05
0.00090397918
-5.2157987e-05
0.00091267515
-1.9257751e-05
0.00092254917
1.3019135e-05
0.000934481
4.5158559e-05
0.00094659122
7.3554932e-05
0.00096263174
0.00010526773
0.00097780134
0.00012951064
0.00099687299
0.00015671657
0.0010176199
0.00018238212
0.0010396377
0.00020200984
0.0010619357
0.00022525161
0.0010895778
0.0002463606
0.0011138966
0.00026609551
0.0011403753
0.0002794281
0.0011673836
0.000299788
0.00119372
0.00031103306
0.0012255707
0.00033119859
0.0012527918
0.00033606375
0.001280128
0.00035047139
0.0013047485
0.00035059628
0.00037374055
0.0013407308
0.00086386308
-7.8043713e-05
0.00085972306
-0.00011201648
0.0008575985
-0.00010188448
0.00086838816
-0.00017042479
0.00089006082
-0.00023894072
0.00091662292
-0.0003053695
0.00094573561
-0.00034744226
0.000976169
-0.00035307773
0.0010054408
-0.00034087753
0.0010287929
-0.00032386097
0.0010423854
-0.00031025395
0.0010454078
-0.00030839027
0.0010398353
-0.00031052666
0.0010274408
-0.00032332378
0.0010105128
-0.00034435406
0.00099370868
-0.00036993371
0.00097810447
-0.0004138903
0.00096321133
-0.00045097931
0.00094881042
-0.00046664287
0.00093492254
-0.00047526004
0.00092219798
-0.00047004697
0.00091261389
-0.00044737451
0.00090580562
-0.0004243825
0.0008991924
-0.00040538986
0.00089214848
-0.00038626141
0.00088459921
-0.00036302572
0.0008787494
-0.00033098059
0.00087491427
-0.00029656011
0.00087443354
-0.00025834059
0.00087643036
-0.00022154051
0.00088089187
-0.00018658101
0.00088618806
-0.00015436234
0.00089252959
-0.00012108841
0.00089974869
-8.8371541e-05
0.00090747003
-5.6826246e-05
0.00091630328
-2.5880554e-05
0.00092645131
4.5743306e-06
0.00093750329
3.3371052e-05
0.00095089801
6.4085996e-05
0.00096440184
8.7895615e-05
0.00098125452
0.0001177868
0.00099901562
0.00013910382
0.0010177734
0.00016284642
0.0010397926
0.00018440765
0.0010636641
0.00020764084
0.0010864325
0.00022147126
0.0011109702
0.00024203492
0.0011380464
0.00025754712
0.0011647268
0.00027588701
0.0011926917
0.00028465116
0.0012178939
0.00029985002
0.001246014
0.00030679206
0.0012715972
0.00032220605
0.001307278
0.00032929694
0.00034253299
0.0013323873
0.00086423544
-7.9970116e-05
0.00085983857
-0.00010630633
0.00085743287
-8.9687939e-05
0.00086791184
-0.00015477705
0.0008892751
-0.00022111653
0.00091584727
-0.00028615324
0.00094512705
-0.00032804488
0.0009755346
-0.00033288403
0.0010046343
-0.0003237728
0.0010280252
-0.00030881862
0.0010419425
-0.00029679033
0.0010457336
-0.00029491847
0.001040932
-0.00030001709
0.0010293692
-0.00030398365
0.001013203
-0.00032330471
0.00099644443
-0.00034923949
0.00098122892
-0.00037900734
0.000966953
-0.00042047577
0.00095275512
-0.0004437403
0.00093907767
-0.00044564763
0.00092649858
-0.00044134371
0.00091626626
-0.00043218601
0.00090917906
-0.0004107193
0.00090256358
-0.00038799872
0.00089557513
-0.00036668237
0.00088852125
-0.00034676497
0.00088268309
-0.00032263994
0.00087931294
-0.0002909995
0.0008787537
-0.00025701552
0.00088093493
-0.00021973203
0.00088500267
-0.00018452748
0.00089048461
-0.00015076617
0.00089688226
-0.00012080137
0.00090401031
-9.0843392e-05
0.00091179369
-6.1523329e-05
0.00092058862
-3.2971511e-05
0.0009302531
-3.5467217e-06
0.00094188872
2.4267189e-05
0.00095344605
5.0472542e-05
0.00096877189
7.7960701e-05
0.00098311216
0.00010122727
0.0010005231
0.00012377769
0.0010203817
0.00014879653
0.0010406845
0.00016556516
0.0010618399
0.00018621866
0.0010855542
0.00020342414
0.0011110382
0.00022375401
0.0011350694
0.00023380875
0.0011596849
0.00024951273
0.0011864487
0.00026188723
0.0012128316
0.00027527573
0.0012414676
0.00028614781
0.0012697437
0.00029560728
0.0012958649
0.00029813704
0.00030927771
0.0013197843
0.00086457571
-8.2595308e-05
0.00085991488
-0.00010036474
0.00085719211
-7.7463481e-05
0.00086735267
-0.00013882619
0.0008884068
-0.00020161232
0.0009149765
-0.00026571823
0.00094447352
-0.0003081024
0.00097484101
-0.00031453579
0.0010038323
-0.00030686902
0.0010272504
-0.00029358372
0.0010415756
-0.00028460908
0.0010459372
-0.00028107176
0.0010421461
-0.00028673324
0.0010313243
-0.00029218899
0.0010158654
-0.00029956499
0.00099961406
-0.00032544215
0.00098429668
-0.00035454831
0.00097037221
-0.00038563725
0.00095666386
-0.00041611435
0.00094310166
-0.0004261015
0.00093031432
-0.00041672877
0.00091984345
-0.00040613228
0.00091225395
-0.00039412773
0.00090568091
-0.00037802925
0.00089888286
-0.00035789191
0.00089223681
-0.00033386065
0.00088680414
-0.00030926206
0.00088343522
-0.00028049796
0.00088287557
-0.00024875831
0.00088464187
-0.00021626998
0.0008885377
-0.00018321781
0.00089358409
-0.00015191927
0.00089981329
-0.00012199281
0.00090701604
-9.3360232e-05
0.0009146555
-6.5485219e-05
0.00092364176
-3.8307606e-05
0.00093354377
-1.1047188e-05
0.00094415701
1.4258327e-05
0.00095700459
4.1232386e-05
0.00096983056
6.3492021e-05
0.00098529806
8.8716974e-05
0.001002586
0.00011023395
0.001019996
0.00013052011
0.0010402449
0.00014899834
0.0010626176
0.00017084938
0.0010849554
0.00018391528
0.0011071491
0.00020041984
0.0011307457
0.00021272975
0.0011587274
0.00023233509
0.0011806439
0.00023694078
0.0012114894
0.0002550813
0.0012298888
0.00025278899
0.0012616331
0.00027187004
0.0012836051
0.00027278563
0.00028828627
0.0013168054
0.00086491194
-8.4613182e-05
0.0008600087
-9.347641e-05
0.00085691875
-6.486251e-05
0.00086672509
-0.00012407463
0.00088739656
-0.00018338963
0.00091394917
-0.00024602544
0.0009436633
-0.00028787907
0.00097410746
-0.00029453978
0.0010030345
-0.00028843971
0.0010264097
-0.00027894736
0.0010411945
-0.0002710087
0.0010460927
-0.00027094317
0.0010432215
-0.00027023939
0.0010334842
-0.00027817601
0.0010185382
-0.00028379213
0.0010026091
-0.00029779956
0.00098740653
-0.00033152262
0.00097346841
-0.00036082437
0.00096026369
-0.00038203564
0.00094704581
-0.00039912026
0.00093416902
-0.00039931405
0.00092340114
-0.00038390073
0.00091535974
-0.0003693832
0.00090852766
-0.0003571713
0.00090192074
-0.0003449912
0.00089564138
-0.00032701999
0.00089080267
-0.00030199849
0.00088782469
-0.00027309433
0.00088704342
-0.00024113869
0.00088886051
-0.00020886067
0.0008921307
-0.00017917585
0.00089707413
-0.00014943976
0.0009031637
-0.00012213044
0.00091026836
-9.5205169e-05
0.00091813339
-6.8906541e-05
0.0009268986
-4.3685434e-05
0.00093651072
-1.8011704e-05
0.00094732934
5.6309532e-06
0.00095908269
3.07794e-05
0.0009724676
5.2718407e-05
0.00098739859
7.6843896e-05
0.0010025246
9.4159686e-05
0.0010211666
0.00011747206
0.0010411002
0.00013495123
0.0010606878
0.00015164729
0.0010822105
0.00016605531
0.0011057227
0.00018506533
0.0011307993
0.00019587248
0.0011512519
0.00020819901
0.0011787564
0.00021617989
0.0011978333
0.00022868406
0.0012299006
0.00023800986
0.0012533754
0.00024928762
0.0012775239
0.0002462902
0.00026010877
0.0013029037
0.0008652441
-8.739065e-05
0.00086005516
-8.728371e-05
0.00085659237
-5.2063789e-05
0.00086608093
-0.00010763268
0.00088634275
-0.00016360753
0.00091287037
-0.00022479324
0.00094281685
-0.00026636382
0.00097334194
-0.00027348582
0.0010021464
-0.00027135149
0.0010255686
-0.00026380189
0.0010406769
-0.0002574491
0.0010464288
-0.0002583948
0.0010443155
-0.00025766185
0.0010355946
-0.00025837456
0.0010213665
-0.0002681427
0.0010053269
-0.00027788465
0.00099037757
-0.00030026569
0.00097668813
-0.00033512908
0.0009635659
-0.00035730086
0.00095061957
-0.00036745257
0.00093809188
-0.00037301595
0.00092690952
-0.00036840969
0.00091851285
-0.00035333167
0.0009116621
-0.00033729256
0.00090508956
-0.00032368111
0.00089907413
-0.000310874
0.00089428396
-0.00029259136
0.00089180302
-0.00026688239
0.00089113125
-0.00023739852
0.00089250045
-0.00020531862
0.00089580632
-0.00017502453
0.00090011463
-0.00014721547
0.00090612666
-0.0001209908
0.00091293638
-9.666268e-05
0.0009205847
-7.2268671e-05
0.00092936339
-4.8474981e-05
0.0009388374
-2.4594221e-05
0.00094957915
-1.9840797e-06
0.00096108927
2.0612086e-05
0.00097429369
4.235893e-05
0.00098759931
6.2649215e-05
0.001004327
8.3745833e-05
0.0010214823
0.00010294047
0.0010389161
0.00011716982
0.0010600097
0.00013780841
0.0010818215
0.00015155613
0.0011030842
0.00016507869
0.0011242656
0.00017462199
0.0011473415
0.00018786405
0.0011733086
0.00020139183
0.0011965046
0.00020834849
0.0012226583
0.00021498619
0.001239805
0.00022115265
0.0012700434
0.00022684695
0.00023897479
0.0012940643
0.00086550863
-9.0041859e-05
0.00086015779
-8.0874693e-05
0.00085624461
-3.8792802e-05
0.00086535204
-9.2144923e-05
0.00088513528
-0.00014506199
0.00091159937
-0.00020519414
0.00094181185
-0.00024672664
0.00097244319
-0.00025299177
0.0010012494
-0.00025168877
0.0010247151
-0.00024697464
0.0010401952
-0.00024310811
0.0010466361
-0.00024251624
0.0010454112
-0.00024766326
0.0010374769
-0.00024488116
0.0010241149
-0.00024710067
0.0010082902
-0.00026133529
0.00099319692
-0.0002746879
0.00097969217
-0.0003018375
0.00096688487
-0.00033345727
0.00095410394
-0.00034615558
0.00094169565
-0.00034544765
0.00093040331
-0.00034277748
0.00092155912
-0.00033649595
0.00091460501
-0.00032489716
0.00090809532
-0.00031093758
0.00090250592
-0.00029435905
0.00089825081
-0.00027655719
0.00089576474
-0.00025481063
0.00089514643
-0.00022927237
0.00089628446
-0.0002014374
0.00089910129
-0.00017218284
0.00090345348
-0.00014593797
0.0009088851
-0.00012052843
0.0009157178
-9.6842929e-05
0.00092331163
-7.4491048e-05
0.00093180007
-5.2376469e-05
0.00094123137
-3.0078942e-05
0.00095147613
-9.5549624e-06
0.00096318352
1.2816455e-05
0.00097512537
3.1244181e-05
0.00098982864
5.374794e-05
0.0010042237
6.9467387e-05
0.0010205354
8.9231517e-05
0.0010396739
0.00010645185
0.0010590154
0.00012272075
0.0010775855
0.00013289647
0.0010993384
0.00014964592
0.0011203634
0.00015872333
0.0011483081
0.00017752652
0.0011629247
0.00017371498
0.0011917455
0.00019128161
0.0012101729
0.00019408237
0.0012369676
0.00020382991
0.0012633075
0.00020952346
0.00021343077
0.0012824862
0.00086584138
-9.2870935e-05
0.00086018139
-7.5033343e-05
0.00085586449
-2.5722603e-05
0.0008646277
-7.6392773e-05
0.00088394092
-0.00012554039
0.00091034288
-0.00018489841
0.00094083641
-0.00022588481
0.00097156963
-0.00023261196
0.0010003415
-0.00023351168
0.0010238321
-0.00023137502
0.0010397459
-0.00022915167
0.0010466902
-0.0002302016
0.0010465458
-0.00022949674
0.0010394118
-0.0002339184
0.0010265864
-0.00023088452
0.0010112741
-0.00023765377
0.00099599938
-0.00025732904
0.00098231814
-0.00027711326
0.0009698818
-0.00030200131
0.00095749128
-0.00032347389
0.00094522226
-0.00032712476
0.00093387003
-0.00031964421
0.00092459248
-0.00031150294
0.00091728489
-0.00030468136
0.00091100035
-0.00029749978
0.00090572509
-0.00028482702
0.00090178384
-0.00026723556
0.00089969929
-0.00024450576
0.00089908992
-0.00021938373
0.00090022895
-0.00019239402
0.00090246744
-0.00016713959
0.00090636897
-0.00014222209
0.00091168811
-0.00011936184
0.00091791527
-9.7754257e-05
0.00092561168
-7.5887605e-05
0.0009338433
-5.5833888e-05
0.00094292092
-3.5471761e-05
0.00095337755
-1.5699997e-05
0.00096434724
4.4118654e-06
0.00097698629
2.3424875e-05
0.00098970044
4.1841004e-05
0.0010047229
5.9611952e-05
0.0010213948
7.8283793e-05
0.0010380522
9.1549189e-05
0.0010557722
0.00010752057
0.0010763772
0.00012097334
0.0010964014
0.00013492444
0.0011204062
0.00014496327
0.001134374
0.00015073967
0.001162562
0.0001629414
0.0011847683
0.00017440521
0.001203079
0.00017332247
0.0012338041
0.0001881122
0.0012463876
0.00018291477
0.00019272979
0.0012727458
0.00086602607
-9.6279509e-05
0.00086035661
-6.8134672e-05
0.00085542961
-1.2565334e-05
0.00086374794
-6.1575981e-05
0.00088250318
-0.00010890769
0.00090883468
-0.00016745658
0.00093959249
-0.00020697688
0.00097050217
-0.00021203819
0.00099934906
-0.00021309064
0.0010229362
-0.000212774
0.0010392042
-0.0002125824
0.001046931
-0.00021671822
0.0010474006
-0.00021490942
0.0010412521
-0.00021662261
0.0010291689
-0.00021900077
0.0010139563
-0.00021740911
0.00099879845
-0.00023284689
0.00098507512
-0.00025816526
0.00097275916
-0.00027746573
0.00096087249
-0.00029311109
0.00094882646
-0.00030490685
0.00093742104
-0.00030280359
0.00092788576
-0.0002928471
0.00092027126
-0.00028243369
0.00091386904
-0.00027509314
0.00090865873
-0.00026798647
0.00090522383
-0.00025483712
0.00090334561
-0.00023570477
0.00090319893
-0.00021228214
0.0009040237
-0.00018630482
0.00090604307
-0.00016159081
0.00090953671
-0.00013837604
0.00091423045
-0.0001175453
0.0009205238
-9.6922184e-05
0.00092774813
-7.7485518e-05
0.00093574594
-5.8689479e-05
0.00094493248
-3.9342509e-05
0.00095482
-2.1438043e-05
0.00096600047
-2.2256483e-06
0.00097743164
1.420296e-05
0.00099085759
3.2960256e-05
0.0010050818
4.8871252e-05
0.0010201927
6.5696826e-05
0.0010365469
7.9693928e-05
0.001055166
9.5672023e-05
0.0010736023
0.00010704322
0.0010932444
0.00011888318
0.0011101559
0.00012588584
0.0011353037
0.00014146566
0.0011575315
0.00014751123
0.001172857
0.00015206458
0.0012004457
0.0001583521
0.0012175334
0.00016675369
0.0012383377
0.00016516681
0.00017939724
0.0012668111
0.00086641865
-9.9517734e-05
0.00086035296
-6.1945298e-05
0.00085499602
1.2933114e-08
0.00086291322
-4.7957766e-05
0.00088117522
-9.1765925e-05
0.00090747549
-0.00014877447
0.00093852696
-0.00018807661
0.00096957551
-0.00019177683
0.00099842664
-0.00019549789
0.001022084
-0.00019634842
0.0010386116
-0.00019706821
0.001047082
-0.00020109736
0.0010483476
-0.00020297202
0.0010429719
-0.00019911616
0.001031832
-0.00020121366
0.0010167377
-0.00020474999
0.001001526
-0.0002083112
0.00098795474
-0.0002299567
0.00097567995
-0.0002573224
0.00096395909
-0.00027033298
0.00095230744
-0.00027706052
0.00094092804
-0.0002796484
0.00093103902
-0.00027584227
0.00092320095
-0.00026797574
0.00091682593
-0.0002583031
0.00091198661
-0.00024886436
0.00090871889
-0.0002371976
0.00090708876
-0.00022193253
0.00090696961
-0.00020172865
0.00090757683
-0.00018002044
0.00090937781
-0.00015621605
0.0009123886
-0.00013436797
0.00091696313
-0.00011378892
0.00092274328
-9.5484827e-05
0.00092970318
-7.7060698e-05
0.00093749372
-6.0361317e-05
0.00094642752
-4.2584352e-05
0.00095617781
-2.5840121e-05
0.00096669326
-8.7574315e-06
0.00097828551
6.759707e-06
0.00099125339
2.4461747e-05
0.0010046427
3.8879252e-05
0.001019576
5.5118988e-05
0.0010357348
6.8429585e-05
0.0010529376
8.3512789e-05
0.0010694747
9.2005844e-05
0.001088502
0.0001064212
0.0011097337
0.00011579262
0.0011298508
0.00012591772
0.0011457246
0.00012685516
0.0011688157
0.00013856279
0.0011926179
0.00014589467
0.0012062932
0.00014647104
0.0012367626
0.00015316243
0.00015655292
0.0012499163
0.00086650916
-0.00010340503
0.00086060875
-5.7263046e-05
0.00085443912
1.274512e-05
0.00086182562
-3.6283933e-05
0.00087948712
-7.7991833e-05
0.00090568072
-0.000134604
0.00093701943
-0.00017211087
0.00096828742
-0.00017317344
0.00099737736
-0.00017601399
0.0010212254
-0.00017769367
0.0010381398
-0.00017960159
0.0010471776
-0.0001829609
0.0010493148
-0.00018703857
0.0010445645
-0.00018806923
0.0010341553
-0.00018311655
0.001019709
-0.00018699316
0.0010043593
-0.00019391935
0.00099060898
-0.00020535155
0.00097861766
-0.00023008992
0.00096715898
-0.00025167998
0.00095581296
-0.00025734565
0.00094451601
-0.00025532271
0.00093427771
-0.00025213158
0.0009261354
-0.00024764247
0.00091965995
-0.00024348592
0.00091502128
-0.00023519192
0.00091195656
-0.00022435256
0.00091074785
-0.00020819869
0.0009106299
-0.00019039117
0.00091148732
-0.00016964194
0.00091291409
-0.00014920933
0.00091543671
-0.0001295911
0.00091959215
-0.00011126749
0.00092503896
-9.3458422e-05
0.00093163973
-7.7222456e-05
0.00093932476
-6.1129882e-05
0.00094789333
-4.5199742e-05
0.00095731075
-3.0032055e-05
0.00096751963
-1.4191621e-05
0.0009790989
7.956752e-07
0.00099124965
1.6272783e-05
0.0010044539
3.0051355e-05
0.001019041
4.5778049e-05
0.0010344903
5.8674478e-05
0.001049338
6.9602353e-05
0.0010680069
8.3294145e-05
0.0010860057
9.3269951e-05
0.001103513
0.00010071345
0.0011206032
0.00010795023
0.0011419801
0.00011758102
0.0011658301
0.00012663369
0.0011765859
0.00012313179
0.0012039362
0.00013471728
0.0012212466
0.00013504725
0.00013720161
0.0012388903
0.00086704746
-0.00010671974
0.00086053907
-5.3046758e-05
0.00085389664
2.4485921e-05
0.00086085352
-2.6418238e-05
0.00087800381
-6.5782464e-05
0.00090416488
-0.00012097391
0.00093586762
-0.00015548784
0.00096730802
-0.00015447554
0.00099650774
-0.00015745078
0.0010204419
-0.00015942934
0.0010376763
-0.00016277312
0.0010472342
-0.00016842331
0.0010501257
-0.00016714979
0.0010462395
-0.00017308002
0.0010364974
-0.00017130343
0.0010225188
-0.00016675475
0.0010072686
-0.00017632956
0.00099326884
-0.00019058595
0.00098125181
-0.00020569591
0.00097029836
-0.00022495621
0.00095923175
-0.00023767134
0.0009480999
-0.00023767481
0.00093782035
-0.00023063121
0.00092919153
-0.00022445888
0.00092251845
-0.00022125834
0.00091771486
-0.00021778719
0.00091513919
-0.00020901106
0.00091411888
-0.00019577764
0.0009143782
-0.00017920613
0.00091514446
-0.00016015457
0.00091625775
-0.00014102512
0.00091852945
-0.00012278288
0.00092208406
-0.0001061796
0.00092711919
-9.080713e-05
0.00093338873
-7.5590178e-05
0.00094069909
-6.133949e-05
0.0009491236
-4.670941e-05
0.00095806183
-3.3090266e-05
0.00096840144
-1.8418734e-05
0.00097921605
-5.1997373e-06
0.00099124968
9.2356923e-06
0.0010043774
2.2709551e-05
0.0010181929
3.6543919e-05
0.0010315709
4.6535759e-05
0.0010492148
6.2372381e-05
0.001063917
6.9403679e-05
0.0010812424
8.104611e-05
0.0010970995
8.7040191e-05
0.0011192614
0.00010122001
0.0011358139
0.00010063975
0.0011515844
0.00010880023
0.0011728381
0.000111899
0.0011946031
0.00012043845
0.0012060861
0.00011738931
0.00012631635
0.0012332907
0.00086699482
-0.00011084183
0.00086094687
-4.9965402e-05
0.00085317005
3.3917766e-05
0.00085947669
-1.8765493e-05
0.00087594599
-5.652318e-05
0.00090205409
-0.00011107546
0.00093399622
-0.00014375256
0.00096583953
-0.00013783202
0.00099552125
-0.00013819172
0.0010197247
-0.00014016781
0.0010372409
-0.00014329621
0.0010474979
-0.00015131103
0.0010508603
-0.00015271359
0.0010477893
-0.00015313484
0.0010388928
-0.00015650094
0.0010251315
-0.00015463439
0.0010100039
-0.00015454619
0.00099609388
-0.00016955604
0.00098395735
-0.00018903116
0.0009733158
-0.00020112012
0.00096270749
-0.00021204038
0.00095175926
-0.000216492
0.00094128624
-0.0002139443
0.00093237874
-0.000207184
0.0009254963
-0.00020108471
0.00092087177
-0.00019699962
0.00091838262
-0.00019054931
0.0009174635
-0.00018026508
0.00091801503
-0.00016575099
0.00091877307
-0.00014985323
0.00091982054
-0.00013292738
0.00092156348
-0.00011661999
0.00092482702
-0.00010071942
0.00092938463
-8.6193619e-05
0.00093530195
-7.3073304e-05
0.00094233596
-6.0156482e-05
0.00095030418
-4.7332865e-05
0.00095913063
-3.5138795e-05
0.00096877062
-2.1913776e-05
0.0009794853
-9.9312825e-06
0.00099144856
3.7665727e-06
0.0010036706
1.5126465e-05
0.0010162875
2.7235484e-05
0.0010319512
4.0521505e-05
0.0010448605
4.9232312e-05
0.0010613906
6.024465e-05
0.0010762754
6.8708127e-05
0.0010966159
7.9738125e-05
0.0011082886
8.1777893e-05
0.0011290733
9.0937199e-05
0.0011450097
9.5544246e-05
0.0011658902
0.0001002835
0.0011812675
0.0001043861
0.0012001097
0.00010356478
0.00011104805
0.0012190409
0.00086786184
-0.00011394594
0.00086074217
-4.6965309e-05
0.00085238941
4.2363776e-05
0.000858256
-1.3509633e-05
0.00087425644
-4.8099873e-05
0.00090035291
-0.00010121869
0.00093280963
-0.00013024251
0.00096493349
-0.00012034502
0.0009947252
-0.00012087014
0.0010190362
-0.00012143444
0.0010367521
-0.0001252921
0.0010475568
-0.00013216334
0.001051627
-0.00013772132
0.0010491579
-0.00013824048
0.0010410045
-0.00013757528
0.0010279025
-0.00014110918
0.0010128698
-0.00013973151
0.00099886044
-0.00014565874
0.00098683854
-0.00016642817
0.00097628783
-0.00018345794
0.00096616735
-0.00018971542
0.00095544792
-0.00019190603
0.00094481836
-0.00019070665
0.00093559071
-0.00018763989
0.00092843872
-0.00018454268
0.00092383535
-0.00017970148
0.00092142946
-0.00017356651
0.00092090764
-0.00016407934
0.00092145444
-0.00015184923
0.00092221906
-0.00013792249
0.00092302242
-0.00012303873
0.00092476296
-0.00010841517
0.00092742747
-9.4628212e-05
0.00093132904
-8.2354567e-05
0.00093693017
-7.0200795e-05
0.00094351121
-5.8736196e-05
0.00095113655
-4.7195584e-05
0.00095966174
-3.6043999e-05
0.00096909532
-2.4755188e-05
0.00097977819
-1.3385051e-05
0.00099088914
-1.4945071e-06
0.0010026104
9.1714015e-06
0.0010164121
2.1538207e-05
0.0010282644
3.009111e-05
0.001043552
4.1366558e-05
0.0010574382
5.0055816e-05
0.0010749016
5.937137e-05
0.0010863956
6.4517538e-05
0.0011066979
7.3469937e-05
0.0011207
7.8263199e-05
0.0011395785
8.4193621e-05
0.0011553326
8.4968149e-05
0.0011705501
9.2016274e-05
0.0011924825
9.1536303e-05
9.5357552e-05
0.0012053233
0.00086761366
-0.00011851808
0.0008612687
-4.5771797e-05
0.00085151486
5.0956623e-05
0.00085657949
-1.0250481e-05
0.00087181957
-4.3022972e-05
0.00089792104
-9.4434449e-05
0.00093060836
-0.00011929966
0.00096319342
-0.00010546745
0.00099379623
-0.00010341559
0.0010185891
-0.0001009991
0.001036646
-0.00010612244
0.0010477922
-0.00011376018
0.0010524029
-0.00011743935
0.0010505004
-0.00012557661
0.0010429156
-0.0001230242
0.0010305302
-0.00012154574
0.0010156938
-0.00012647893
0.0010015125