/*--------------------------------*- C++ -*----------------------------------*\
| =========                 |                                                 |
| \\      /  F ield         | OpenFOAM: The Open Source CFD Toolbox           |
|  \\    /   O peration     | Version:  2406                                  |
|   \\  /    A nd           | Website:  www.openfoam.com                      |
|    \\/     M anipulation  |                                                 |
\*---------------------------------------------------------------------------*/
FoamFile
{
    version     2.0;
    format      ascii;
    arch        "LSB;label=32;scalar=64";
    class       surfaceScalarField;
    location    "12";
    object      phi_0;
}
// * * * * * * * * * * * * * * * * * * * * * * * * * * * * * * * * * * * * * //

dimensions      [1 0 -1 0 0 0 0];

oriented        oriented;

internalField   nonuniform List<scalar> 
123996
(
0.0017503875
-8.724819e-05
3.3176249e-05
0.001797721
-9.2114549e-05
0.00019581985
0.0017940727
-0.0002445726
0.00028834813
0.0017685974
-0.00030126007
0.0003972687
0.0016845082
-0.00039434181
0.00042679502
0.0016113031
-0.00042633267
0.0004346163
0.0016324487
-0.00044714558
0.00052565688
0.0017421494
-0.00043525754
0.00057237408
0.0018234613
-0.00054507292
0.00050873582
0.001801895
-0.00046133022
0.00047688336
0.0017575494
-0.00043981039
0.00064991774
0.0017029671
-0.00057090234
0.00077675059
0.0016320454
-0.0006422313
0.00075824443
0.0016431676
-0.00071102888
0.00092879102
0.0016480673
-0.00070376498
0.00079654634
0.001704299
-0.0006702272
0.00099704809
0.0017742387
-0.00066255035
0.00083743274
0.0017679011
-0.00073316297
0.00083285186
0.0017775608
-0.00068434742
0.00075372035
0.0017213617
-0.00051637678
0.00067501044
0.0017304117
-0.00069138515
0.00063749088
0.0016517691
-0.00052575515
0.00040064656
0.0015238111
-0.00041851386
0.00063599883
0.0014521216
-0.00058834223
0.00087460137
0.001208985
-0.00082000639
0.00083601265
0.0011703521
-0.00080906337
0.00088509176
0.001111061
-0.00087924768
0.00099661649
0.00089557803
-0.001108454
0.0011019829
0.0010878772
-0.00093837695
0.000982127
0.0011858097
-0.00076260033
0.00085331836
0.0011675826
-0.0008137156
0.00082635119
0.0012732955
-0.00069893297
0.00067356393
0.0010936712
-0.00053616902
0.00051486661
0.00093523048
-0.00059202794
0.00065009006
0.0012433232
-0.00062703734
0.00074170132
0.0015384061
-0.00053573711
0.00054645782
0.0014646941
-0.00044332692
0.00034056369
0.0011624239
-0.00049922736
0.0003371587
0.00092084297
-0.000511323
0.00048038385
0.00086219906
-0.00052258056
0.00053775242
0.0010783905
-0.00047738874
0.00048591792
0.0016212188
-0.00026638551
0.00032102036
0.0020818813
0.00010701808
-1.1669711e-05
0.002304931
0.00042002621
-0.00036890403
0.0024303072
0.00049052102
-0.00060254035
0.0024776051
0.00025666009
-0.00061028583
0.0022401734
6.5543433e-05
-0.00047794789
0.001692967
-4.8336072e-05
-0.00029728428
0.0010113808
-4.0124799e-05
-8.6302184e-05
0.0008755154
0.00011930574
8.4728848e-06
0.001656911
0.0003613509
9.5036518e-05
0.0027311154
0.00048811214
8.96363e-05
0.0033760905
0.00038273694
-1.8573933e-05
0.0033157091
0.0003765156
-0.00019943461
0.00034441523
0.0026489104
-0.00041104012
0.0016714873
-9.7540325e-05
0.0017061931
-0.00010753579
0.0017089962
-0.00021017226
0.001687203
-0.00031245052
0.0016092134
-0.00029481672
0.0015367638
-0.00041617577
0.0015564405
-0.00051021382
0.0016483963
-0.00054130388
0.0017391963
-0.00052121464
0.0017241706
-0.00055112421
0.0016784236
-0.0004979646
0.0016336297
-0.00053645089
0.001568301
-0.00069568741
0.001575318
-0.00072219155
0.0015921574
-0.00073917574
0.0016338208
-0.00063067886
0.0016815124
-0.00063115594
0.0016867202
-0.00066048876
0.0017221863
-0.0006607785
0.0016078352
-0.00058892442
0.0016626427
-0.00061039761
0.0015981859
-0.00063940269
0.0014563292
-0.00046863553
0.0013793084
-0.00041304729
0.0012100486
-0.00080774622
0.0011280194
-0.00087124052
0.001047962
-0.00079765925
0.00094134375
-0.0009919706
0.0010934127
-0.00087545272
0.0011063936
-0.00069728059
0.0011296639
-0.00071025134
0.001264275
-0.00064057609
0.0010263379
-0.00058818957
0.00084089227
-0.00068627702
0.0011015943
-0.00060262903
0.0013518019
-0.00041167309
0.0012197568
-0.0003496955
0.00097977433
-0.00042083141
0.00082243774
-0.00059250548
0.0007355762
-0.00063567767
0.00097458504
-0.00040162423
0.0015861125
-0.00011087504
0.0020235008
6.5410769e-05
0.0020185729
0.00012582158
0.0016716305
4.9531864e-05
0.0014057714
-9.5732701e-05
0.0014461869
-0.00021444742
0.0017083115
-0.00022088464
0.0019464753
-2.2284421e-05
0.0020535995
0.00030263131
0.0020229371
0.0005719288
0.002260581
0.00070475017
0.0027223478
0.00059456013
0.0031031394
0.00037805019
0.00014009716
0.0032146308
0.0015893169
-6.2051133e-05
0.0016172872
-0.00016650068
0.0016210432
-0.00014858136
0.0016062662
-0.00025436507
0.001526433
-0.00027327587
0.00145515
-0.00033604933
0.001471881
-0.00043853724
0.0015630321
-0.00049488129
0.0016478537
-0.00038489253
0.0016376546
-0.00040952529
0.0015892785
-0.00045725222
0.0015363051
-0.0005166329
0.0014790685
-0.00069580078
0.0014874343
-0.00071873345
0.0015110557
-0.00067064601
0.001535691
-0.00064340511
0.0015823764
-0.00076778559
0.001597724
-0.00068684459
0.0016451803
-0.00058211792
0.0015318959
-0.00067651381
0.0015753086
-0.00050659571
0.0015589289
-0.00053213101
0.0014277897
-0.00052036833
0.0012498572
-0.00043348383
0.0011478556
-0.00074374564
0.0011048467
-0.00090430692
0.00095946072
-0.00078205185
0.00093617821
-0.00087916378
0.001088403
-0.00080209436
0.0010339843
-0.00069288791
0.0010919938
-0.00062565087
0.0012479171
-0.00050004555
0.00099701772
-0.00057542696
0.00084342353
-0.00075754449
0.0010968882
-0.00066529319
0.0013478993
-0.00040387656
0.0012546089
-0.00027681607
0.00096580599
-0.00036137006
0.00081653721
-0.00050928153
0.00084721845
-0.00058933447
0.0010041109
-0.0003968196
0.0013555265
-7.0235069e-05
0.0016471265
2.3308206e-05
0.0015656387
-7.3606118e-05
0.0011879694
-0.00027103324
0.00083374458
-0.00031355223
0.00091555101
-0.00015329161
0.0013691872
-3.6368714e-06
0.0019258914
0.00013888677
0.002222211
0.00022629805
0.0021057766
0.00026423792
0.0018553749
0.00034967325
0.0018402441
0.00040769261
0.0019927442
0.0003413674
0.00019924091
0.002199551
0.0015118133
-2.2311749e-05
0.001540115
-0.00016109478
0.0015410298
-0.00011883314
0.0015321185
-0.00014540206
0.0014558113
-0.00024273508
0.0013873423
-0.00027222192
0.0014036239
-0.00032725603
0.0014983724
-0.00034142295
0.0015769703
-0.00027785288
0.0015694863
-0.00026427078
0.001522129
-0.00031793426
0.0014620704
-0.0004207539
0.0014147802
-0.00053694576
0.0014255502
-0.00058454415
0.0014475493
-0.0005884414
0.0014496049
-0.00055733573
0.001512058
-0.00069316629
0.0015442974
-0.00060439449
0.0015657873
-0.00048673167
0.0014993423
-0.00063976334
0.0015082735
-0.00043034963
0.0015091594
-0.00035924101
0.0014092612
-0.00044726103
0.0011533865
-0.00049342231
0.0010849123
-0.00063947271
0.0011038635
-0.00076353115
0.00090077955
-0.00076616643
0.0009056046
-0.00083160933
0.0010513379
-0.00075784425
0.00099736263
-0.00073413539
0.0010718182
-0.00063560346
0.0011747268
-0.000404451
0.00090724162
-0.00051099301
0.00079920533
-0.0007144975
0.0010606305
-0.00065355828
0.0012881565
-0.00042700939
0.0011808873
-0.00030151252
0.0008771925
-0.00034640643
0.00072365388
-0.00046415673
0.00089967144
-0.00050048712
0.0011590479
-0.00034720902
0.0012910992
-9.3629949e-05
0.0012981205
-2.1116471e-05
0.0011618677
-0.00015510725
0.0010541069
-0.00032328417
0.0010064311
-0.00028555013
0.0010698448
-4.5256904e-05
0.0013446353
0.00015473786
0.0016759419
0.00027306154
0.001864051
0.00018028142
0.0018804709
0.00010548254
0.00163727
7.0984516e-05
0.0013467344
0.00010760509
0.0012267623
0.00016936722
0.00023618482
0.0012890992
0.0014350716
-1.3965947e-05
0.001466348
-0.00010050353
0.0014673212
-0.00012208962
0.0014569312
-7.6379889e-05
0.0013859995
-0.00014870197
0.0013190039
-0.00022330909
0.0013343822
-0.00027359232
0.001428142
-0.00026881826
0.0015006095
-0.00023626518
0.0014934875
-0.0002682585
0.0014475034
-0.00029026865
0.0013900024
-0.00037730147
0.00135285
-0.00042130807
0.0013600469
-0.00047742021
0.0013839769
-0.00057355594
0.0013685991
-0.000549492
0.0014527838
-0.00050672286
0.0014889081
-0.00045849575
0.0014790036
-0.00049144824
0.0014653817
-0.00052120246
0.0014626501
-0.00038389797
0.0014483198
-0.00025135206
0.0013622197
-0.0003148359
0.0010943073
-0.00053929288
0.0010261152
-0.00060549048
0.0010755097
-0.00057473143
0.00085974425
-0.00071483283
0.00086730258
-0.00079003964
0.00098783868
-0.00068212825
0.00096640894
-0.00071571063
0.0010847546
-0.00063493099
0.001115965
-0.00041537786
0.00085205128
-0.00049979361
0.0007923475
-0.00064690927
0.0010550392
-0.00054704071
0.0012667743
-0.00037412721
0.0011631048
-0.00034310753
0.00086427521
-0.00040798294
0.00068393227
-0.00047221454
0.0009021125
-0.00042383476
0.0012285196
-0.00026115074
0.0012585392
-0.00011080849
0.0010777719
-6.3125705e-05
0.0008938485
-0.00013426505
0.00096280218
-0.00019881372
0.0011831262
-0.00018863349
0.0013245203
-6.5584967e-05
0.0013300383
0.00010873443
0.001255036
0.00020055825
0.0012766631
0.00016774422
0.001369788
4.743757e-05
0.0014045398
-2.5729886e-05
0.0013131138
-5.8883631e-05
0.001165202
-1.5351418e-05
0.00013577555
0.0010987823
0.0013653576
-2.9737882e-05
0.0013955946
-4.046003e-05
0.0013996924
-0.00011597794
0.0013879824
-6.4863418e-05
0.0013218192
-5.6195565e-05
0.0012568542
-0.00015027187
0.0012699661
-0.00023374431
0.0013593293
-0.00027902373
0.0014263357
-0.00025070284
0.0014231086
-0.00031767295
0.0013779404
-0.0003473575
0.0013281955
-0.000400837
0.0012938259
-0.00043731208
0.0012902679
-0.00048505432
0.0013193382
-0.00053733573
0.0013105519
-0.00064729505
0.001397546
-0.00045493128
0.0014208193
-0.00037518798
0.0014109616
-0.00056644103
0.0014235409
-0.00041312184
0.0014251395
-0.00036367691
0.0014009626
-0.00020872837
0.0012987122
-0.00019521689
0.0010667449
-0.00051809068
0.00099379953
-0.00059717721
0.0010210859
-0.00046396508
0.00083100892
-0.00068010158
0.00084612954
-0.00075547978
0.00092526001
-0.00057995602
0.00092838853
-0.00059618435
0.0010811892
-0.00056067397
0.0010464073
-0.00043778697
0.00079304896
-0.00053382361
0.00077810153
-0.00059932092
0.0010178419
-0.00042401056
0.0011897162
-0.00026731754
0.0011084469
-0.00033441124
0.00085286642
-0.00047796925
0.00067254369
-0.00053599391
0.00088401165
-0.00039359346
0.0012153993
-0.00021016664
0.0012442956
-0.00013810685
0.0010446334
-0.00015370716
0.00084742203
-0.00017585796
0.00089133068
-0.00014818076
0.0011605684
-9.2230771e-05
0.0013635481
-5.914084e-05
0.0013492315
-2.5689045e-06
0.001146711
3.4387851e-05
0.00095924382
7.1116843e-05
0.00095722134
6.7117408e-05
0.0010318597
-3.385693e-06
0.0011463589
-3.6822266e-05
0.0012374475
-6.5894083e-05
2.379762e-05
0.0012022492
0.0013001073
-5.2513535e-05
0.0013263193
-2.9871789e-05
0.0013338936
-8.6404607e-05
0.0013234251
-8.3454965e-05
0.0012575664
-3.1843219e-05
0.0011951225
-9.5367763e-05
0.0012051427
-0.00017619173
0.0012901528
-0.00027608605
0.0013498224
-0.00027321682
0.0013510798
-0.0002732951
0.0013065197
-0.00035283882
0.0012589435
-0.00040857257
0.0012247123
-0.00048725232
0.0012213597
-0.00053999397
0.0012419404
-0.00046274105
0.0012550834
-0.0006390295
0.0013323023
-0.00045786959
0.0013267085
-0.00039405811
0.001359626
-0.00057551512
0.001363458
-0.00035803346
0.0013753259
-0.00034681213
0.0013502346
-0.00021967169
0.0012211508
-0.00015758303
0.0010277597
-0.0004341611
0.00097277182
-0.00053634408
0.0009420856
-0.00042191511
0.0007881535
-0.00066534981
0.00083938686
-0.00073664969
0.00087939949
-0.00054056675
0.00088750278
-0.00049875386
0.001054434
-0.00044601029
0.00098655133
-0.00041564352
0.00076305877
-0.00056240749
0.00079330789
-0.00058683024
0.001001814
-0.00035020657
0.0011024817
-0.00017575379
0.0010277249
-0.00027219175
0.00082992247
-0.00048324542
0.00069595846
-0.00057541049
0.00084478614
-0.00039858964
0.0010988613
-0.00017662837
0.0011502384
-0.00015081893
0.00099682786
-0.0002270047
0.00083935104
-0.00024227667
0.00082656465
-0.00014784802
0.00097986193
-4.4482745e-05
0.0011646055
-4.0878403e-05
0.001235076
-8.6956411e-05
0.0011518611
-0.00012289209
0.00095663054
-7.8130338e-05
0.00080448983
-1.8086924e-05
0.00082260888
2.8050426e-05
0.00094508104
2.8137457e-05
0.0011460515
6.9591612e-06
1.1238595e-05
0.0012875338
0.0012388925
-6.4477586e-05
0.0012610859
-6.9787638e-05
0.0012699127
-5.4960119e-05
0.0012626081
-8.0192002e-05
0.0011975102
-7.125977e-05
0.0011376668
-9.5463485e-05
0.0011443554
-0.00013275053
0.0012263298
-0.00022089071
0.0012852514
-0.00025851515
0.0012869963
-0.00018145442
0.0012460284
-0.00027578481
0.0011982371
-0.00034193829
0.001164073
-0.0004524865
0.0011690231
-0.00049681076
0.0011715246
-0.00039389303
0.0012068073
-0.00050637501
0.001266645
-0.00038771097
0.0012402014
-0.00045149872
0.0013205739
-0.00047558824
0.0013031455
-0.00035499188
0.0013250347
-0.00033568713
0.0013024493
-0.0002456194
0.0011512317
-0.00020919186
0.00099600651
-0.00036443013
0.00096926387
-0.00044501672
0.00087304517
-0.00040732325
0.00074630611
-0.00064648518
0.00083723698
-0.00071144492
0.00084332064
-0.00056624788
0.0008494667
-0.00049665437
0.0010092019
-0.00036086279
0.00092536072
-0.00035638868
0.00073658926
-0.0005639387
0.00080637073
-0.00059304837
0.00099410532
-0.00033943567
0.0010260825
-0.00013628014
0.0009280713
-0.00021164785
0.00078802137
-0.00044474379
0.00075099198
-0.00055945105
0.00087089267
-0.00039177656
0.0010112851
-0.00015498964
0.001040679
-0.00011677488
0.00096105532
-0.0002395099
0.00089602215
-0.00029255676
0.00089166889
-0.000192033
0.00089725713
-4.3840588e-05
0.00093741752
-7.6189678e-06
0.0010190787
-8.452898e-05
0.0010678015
-0.00019040073
0.0010320066
-0.00021835769
0.00090527477
-0.00013629777
0.00076751982
-1.1891718e-05
0.00077749065
4.9151998e-05
0.00091739171
6.8209881e-05
4.9155885e-05
0.0011563402
0.001179352
-6.2169365e-05
0.0012002332
-0.00011876932
0.0012086598
-3.8115673e-05
0.0012024313
-5.5680892e-05
0.0011399198
-0.00014210622
0.0010822477
-0.00014821608
0.0010862202
-0.00012960809
0.0011648884
-0.0001504315
0.0012274482
-0.00019685495
0.0012251883
-0.00012238972
0.0011892732
-0.00019488013
0.0011412981
-0.00026794275
0.0011100698
-0.00035686735
0.0011225818
-0.00037928066
0.0011115774
-0.00035712846
0.0011610486
-0.00036813446
0.0011983281
-0.00028361207
0.001173197
-0.00047520759
0.0012644992
-0.00033591701
0.0012413554
-0.00036866447
0.001270347
-0.00033514395
0.0012445857
-0.00025447013
0.0010897923
-0.00029547441
0.00096169158
-0.00033379583
0.00094867671
-0.00035425656
0.00080848578
-0.00040266728
0.00070257177
-0.00060762258
0.00081282871
-0.00064480372
0.00080197541
-0.00059628496
0.0008205688
-0.00053871711
0.00095984649
-0.00032658817
0.00085761299
-0.00030156727
0.00070513182
-0.00052215715
0.00081320488
-0.00056756787
0.00098759077
-0.00035439224
0.00096318982
-0.0001685566
0.00081925732
-0.00017899018
0.00071111838
-0.0003625503
0.0007645087
-0.00049461014
0.0009114058
-0.00037676366
0.00097057479
-0.00015312521
0.00092109229
-6.3691347e-05
0.00086317417
-0.00016530967
0.00088772144
-0.00026864841
0.00093475036
-0.00022300065
0.00090245342
-9.788148e-05
0.00079997039
-2.8828118e-05
0.00077588236
-5.3765237e-05
0.00087237249
-0.00014640368
0.00097330152
-0.00020216619
0.00098219683
-0.0001876178
0.00089568559
-9.2120454e-05
0.00076448938
1.0324838e-05
0.00075003891
7.5709716e-05
0.0001188894
0.00088205373
0.0011218502
-5.3143921e-05
0.0011436047
-0.00013558784
0.0011509085
-4.8458218e-05
0.0011436892
-4.0796976e-05
0.0010852883
-0.00017099071
0.0010306201
-0.00019975245
0.0010336871
-0.00015926152
0.0011078185
-0.00011296867
0.0011724087
-0.00012220515
0.00116702
-0.000128574
0.0011354983
-0.00017781038
0.0010897774
-0.00023925441
0.0010637912
-0.00028175207
0.0010750239
-0.00029843049
0.0010597324
-0.00034676366
0.0011148664
-0.00030835524
0.0011307925
-0.00026003391
0.0011330179
-0.00045483537
0.0012024326
-0.00024034011
0.001182336
-0.00036721872
0.0012191679
-0.00031867806
0.0011874802
-0.00022409875
0.0010502105
-0.00032708251
0.00093070605
-0.00031482534
0.00091220839
-0.00029561404
0.00075930385
-0.00039523994
0.00067218173
-0.00054740126
0.00077800095
-0.00053607969
0.00076952082
-0.00055682033
0.00080906221
-0.00054054637
0.00092187076
-0.00032191581
0.0007994682
-0.00026400544
0.00067607962
-0.0004420944
0.00080857429
-0.00049670661
0.00097122239
-0.00036389753
0.00092658795
-0.00022266857
0.0007499872
-0.00018885142
0.00065331022
-0.00030174558
0.00076344482
-0.00040902151
0.00095800276
-0.00034429313
0.00099516121
-0.00015741523
0.00088491858
-3.0626788e-05
0.00079294805
-7.0633861e-05
0.00086138669
-0.00016666659
0.00096610191
-0.00019846636
0.00093464327
-0.00014883454
0.00078866724
-8.2018088e-05
0.00065416969
-5.3659486e-05
0.00070215853
-5.0388627e-05
0.00085834301
-9.8520298e-05
0.00098455346
-0.00012371096
0.00097687326
-0.00012062839
0.00087108478
-4.9878301e-05
0.00072931525
2.1841707e-05
0.00011890491
0.00070410598
0.0010669541
-4.341926e-05
0.0010900008
-0.00011107627
0.0010965449
-7.3384717e-05
0.0010874771
-5.7636253e-05
0.0010333776
-0.00013848844
0.0009814996
-0.00020261907
0.0009836974
-0.00018505435
0.0010534079
-0.00012451245
0.0011158253
-8.7389749e-05
0.0011096039
-0.00015997324
0.0010803686
-0.00021828572
0.0010376248
-0.00025734371
0.0010142267
-0.00026897293
0.0010241683
-0.0003046432
0.0010102426
-0.00034347556
0.0010620699
-0.00030894225
0.0010622894
-0.00032018352
0.0010964036
-0.00042117574
0.0011367236
-0.00022039927
0.0011298488
-0.00034557574
0.0011735398
-0.00026610755
0.0011329376
-0.00015446684
0.0010182909
-0.00026854843
0.00089957163
-0.00027099904
0.00086666751
-0.00024628171
0.00072325127
-0.00037155622
0.00065106033
-0.00048020874
0.00073719277
-0.00042767051
0.00073715258
-0.0004606328
0.00079781492
-0.00047336401
0.00088799562
-0.00030737722
0.00075019249
-0.00025867769
0.00064563052
-0.00037849806
0.00077945616
-0.00040857041
0.00094235036
-0.00033506469
0.00090517133
-0.00025385912
0.00070819444
-0.00022447307
0.00059046924
-0.00028169777
0.00071726218
-0.00033566906
0.00095575265
-0.00028756468
0.0010068373
-0.00015356063
0.00087004575
-3.3426097e-05
0.00073447283
-2.1346634e-05
0.00078560951
-5.7788378e-05
0.0009185397
-0.00012958172
0.00093789154
-0.000163146
0.00081868756
-0.00014936626
0.0006818889
-8.3233668e-05
0.00062129375
-1.1511869e-05
0.00072930897
1.6707636e-05
0.00087542752
-1.2903725e-05
0.0009623301
-7.4146014e-05
0.00093357129
-9.0688544e-05
0.00083213827
-4.1822628e-05
4.601321e-05
0.00071823173
0.0010152734
-3.3662997e-05
0.0010382088
-6.6545949e-05
0.0010444298
-8.7674483e-05
0.0010350142
-9.5892938e-05
0.00098461837
-9.3609572e-05
0.00093531542
-0.00016379945
0.00093669942
-0.00018356727
0.0010021377
-0.00016360035
0.0010594153
-0.00010560558
0.0010544101
-0.00018150977
0.001027579
-0.0002493814
0.00098831927
-0.00028595002
0.00096272388
-0.00028703707
0.00097269239
-0.00033682111
0.00096315614
-0.00034289488
0.0010062626
-0.00029853005
0.0010025832
-0.00038325976
0.0010549916
-0.00037753153
0.0010730622
-0.00025948928
0.0010839771
-0.00030825025
0.0011343345
-0.00019539664
0.0010854711
-7.4264017e-05
0.00098969918
-0.00016824892
0.00087523315
-0.00020880725
0.00082621617
-0.00019778531
0.00069725164
-0.00032231488
0.00063726372
-0.00042851059
0.00070313752
-0.00036971426
0.00070706375
-0.00036764558
0.00078245233
-0.00037383203
0.00085751462
-0.00026906568
0.00071588835
-0.00027560265
0.00061987717
-0.00034996475
0.00073850004
-0.00032553137
0.00090333612
-0.00026544714
0.00088968551
-0.00023936819
0.00069834842
-0.00025517664
0.00055668395
-0.00029000921
0.00066993105
-0.00028872053
0.00093039164
-0.00023170013
0.0010178974
-0.00014329751
0.00089895771
-6.6124082e-05
0.00072956072
-2.0131526e-05
0.00071701766
-9.3723999e-06
0.00083161824
-5.1709728e-05
0.00090940575
-0.00014412661
0.00086814936
-0.00018715962
0.00077999982
-0.00012934828
0.00067427929
-1.43566e-05
0.00065339154
6.9477844e-05
0.00073925833
8.4670127e-05
0.00086952682
1.6069087e-06
0.00092897502
-7.3485849e-05
0.0009112842
-9.3605152e-05
-3.2592675e-05
0.00085359335
0.00096669908
-2.3120458e-05
0.00098815494
-3.0096756e-05
0.00099442889
-8.4871137e-05
0.00098658963
-0.00012412568
0.00093835993
-6.1129488e-05
0.00089132764
-0.00012136889
0.00089124395
-0.00015946855
0.00095298095
-0.0001946561
0.001005367
-0.00015422399
0.0010024976
-0.00018195081
0.00097761018
-0.00023315511
0.00094139228
-0.00028232292
0.00091318056
-0.0002976376
0.00092419038
-0.00035488769
0.00091904861
-0.00033616447
0.00095131352
-0.00025691804
0.0009525419
-0.00038641128
0.0010061304
-0.00031592224
0.001015552
-0.00031530783
0.0010415457
-0.00026700415
0.0010960107
-0.00013842252
0.0010413594
-2.941567e-05
0.00095946076
-9.0929514e-05
0.00085253325
-0.00015301585
0.00079065888
-0.00015908187
0.00066986989
-0.00026249113
0.00061750148
-0.00039044313
0.00067095847
-0.00036641163
0.0006755044
-0.00032364165
0.00075727169
-0.00028225243
0.00081820268
-0.0002186396
0.00068757733
-0.00029516548
0.00059870127
-0.00035984836
0.00069384199
-0.00027644096
0.00085018729
-0.0001890555
0.0008611502
-0.00018652521
0.00069391215
-0.00025574748
0.00053330429
-0.00030185821
0.00061573261
-0.00027131392
0.00086496668
-0.00018545268
0.00098617766
-0.00012517032
0.0009033256
-0.00010292417
0.00074514205
-6.8510633e-05
0.00066456184
-1.9609661e-05
0.00071170204
-1.4728898e-05
0.00081063686
-0.00010401156
0.00086617404
-0.00019256065
0.00085758698
-0.00016770597
0.00078486331
-6.1482994e-05
0.00067847012
4.4344415e-05
0.00065545915
0.00011772543
0.00071627297
8.1270895e-05
0.00083725189
-1.8664913e-05
0.00092273107
-9.1898471e-05
-9.3152129e-05
0.00096570349
0.00092074371
-1.3814835e-05
0.00094019482
-1.4472976e-05
0.00094659488
-7.5755204e-05
0.00094122973
-0.00012292844
0.00089400819
-5.5558232e-05
0.00084929747
-9.8266298e-05
0.00084748795
-0.00013442371
0.00090589663
-0.00019863091
0.00095529465
-0.00018904138
0.00095466611
-0.00016860432
0.00093137178
-0.00018586497
0.00089760697
-0.00024886211
0.00086837883
-0.00028206304
0.00088018611
-0.00033391614
0.00087940555
-0.00031140763
0.00089985201
-0.00020437073
0.00091134942
-0.00033489027
0.00095466046
-0.00023932538
0.00096670967
-0.0003539412
0.00099948806
-0.00023492138
0.0010546832
-0.00011066406
0.00099776647
-3.6105553e-05
0.00092378996
-6.3456623e-05
0.00082744246
-0.00012405602
0.00075997108
-0.00012729718
0.00064080423
-0.000206736
0.00059145235
-0.00035646307
0.00063979212
-0.00038022087
0.00064878746
-0.00032440036
0.00072899392
-0.00022196087
0.00077483519
-0.0001703197
0.00066149544
-0.00029478993
0.00058572109
-0.00037575287
0.00065831059
-0.00026792863
0.00079699875
-0.00013630952
0.00082388953
-0.00012486256
0.00069129746
-0.00022909869
0.00053428965
-0.00030317884
0.00057952313
-0.00026275377
0.0007945496
-0.00015017234
0.00093828247
-0.00010207731
0.00089702145
-0.00013057504
0.00077311919
-0.00013716067
0.00066124483
-7.1290432e-05
0.00062682404
-2.8010592e-05
0.00069317307
-7.2816129e-05
0.00081697142
-0.00015875851
0.0008858019
-0.00017905592
0.00086455771
-0.00010789848
0.00076055675
-3.2970185e-06
0.00064268196
7.7869122e-05
0.00061340567
0.00010331928
0.00069030914
3.5918176e-05
0.00083713553
-3.8146865e-05
-8.0600264e-05
0.0009750858
0.00087705626
-8.8974579e-06
0.0008945312
-1.5665979e-05
0.00090118615
-6.8503572e-05
0.00089802919
-9.6653909e-05
0.00085156869
-7.3082476e-05
0.00080902426
-9.8326831e-05
0.00080556288
-0.000121999
0.00086119314
-0.0001768609
0.00090925327
-0.00018353661
0.00091027671
-0.00015635865
0.00088840478
-0.00013849619
0.00085668227
-0.00020501833
0.00082692254
-0.0002474277
0.0008398203
-0.00027806544
0.00084351172
-0.00026643958
0.00085386059
-0.0001725057
0.00087579723
-0.00026211185
0.00090429692
-0.00015523619
0.00092406744
-0.00034266871
0.00095453996
-0.00020836185
0.001006201
-0.0001064139
0.00095260609
-8.5929592e-05
0.0008849817
-8.3063165e-05
0.00079923459
-0.00012283926
0.00073208877
-0.0001006621
0.00061029054
-0.00015190407
0.00056183725
-0.00031459557
0.00060927427
-0.00037580766
0.00062533411
-0.0003350407
0.00069692646
-0.00019076863
0.00072767697
-0.00013291481
0.00063158484
-0.0002687479
0.00057298324
-0.00036870149
0.00063058097
-0.00027714966
0.00074645004
-0.00011487088
0.0007762806
-7.6930242e-05
0.00067302644
-0.00019062338
0.00053625287
-0.00029091615
0.00055168163
-0.00025463588
0.00071960372
-0.00011853342
0.0008601348
-6.9530049e-05
0.00085580188
-0.00013467893
0.00077610308
-0.00018933266
0.00066993752
-0.00015203024
0.00057623271
-7.3731866e-05
0.00059209058
-7.3212339e-05
0.00072069016
-0.00011066772
0.00085434626
-0.00015342355
0.0008929209
-0.00012971616
0.00082173769
-6.2328888e-05
0.00067398947
7.4756392e-06
0.00055483875
5.2164255e-05
0.00057149748
5.0300393e-05
0.00070581011
9.8335647e-06
-1.4822703e-05
0.000892042
0.00083529708
-9.4872891e-06
0.00085108291
-2.632263e-05
0.00085834389
-6.4873116e-05
0.00085615762
-6.2118506e-05
0.00081113466
-9.4707113e-05
0.00077054877
-0.00011108491
0.00076610787
-0.00012047148
0.00081941378
-0.00014312396
0.00086615246
-0.00014545492
0.00086874381
-0.00014390471
0.00084733559
-0.00010582074
0.00081785878
-0.00016069923
0.00078935837
-0.00020816703
0.00080206328
-0.00021595145
0.00080765996
-0.00020980227
0.00081132457
-0.00017436136
0.00084198375
-0.00020421789
0.0008549491
-8.7886064e-05
0.00088524337
-0.00028499318
0.00091085189
-0.00019372918
0.00095613112
-0.00011267176
0.00090845594
-0.00014187027
0.00084554061
-0.00012784068
0.00077208096
-0.00013757694
0.00070847506
-8.4110581e-05
0.000582963
-0.00010503554
0.00053431948
-0.00026237004
0.00058049918
-0.00034000546
0.00060708622
-0.00032366222
0.00066909642
-0.00017361864
0.00068553306
-0.0001054093
0.00060271435
-0.00022789664
0.00055934837
-0.00033674854
0.00061130135
-0.00028017762
0.00070610986
-0.00011373524
0.00072993657
-5.0246902e-05
0.00064937066
-0.00015833499
0.0005399794
-0.00027362926
0.00054347979
-0.00024613651
0.00066802459
-9.5186108e-05
0.00078143966
-2.9593755e-05
0.00079996024
-0.00010853444
0.00076376815
-0.00020922233
0.00068576951
-0.00021653484
0.00056473951
-0.0001531719
0.00053258106
-9.4465792e-05
0.00062835459
-7.7206781e-05
0.00078498952
-9.4399993e-05
0.00087396799
-0.0001131636
0.00084338979
-9.8977783e-05
0.00071490793
-6.9676743e-05
0.00055474846
-2.9494311e-05
0.00049611521
4.8619726e-06
0.00058968036
3.7471224e-05
4.2437103e-05
0.0007666624
0.00079540816
-1.4071983e-05
0.00080990416
-3.9981839e-05
0.00081785195
-6.0909936e-05
0.00081571136
-3.4677678e-05
0.0007731475
-0.00011130441
0.00073393924
-0.00012283159
0.00072864472
-0.00012243619
0.00077980409
-0.00011109673
0.00082491673
-9.6380978e-05
0.00082908253
-0.0001311052
0.00080802045
-9.5536418e-05
0.00078051174
-0.00012445103
0.00075418378
-0.00017825496
0.0007658856
-0.0001662664
0.0007706882
-0.00015451004
0.00077141035
-0.00019176373
0.00080798014
-0.00017418966
0.00080889976
-5.1162601e-05
0.00084658175
-0.00020504603
0.00086769353
-0.00019063701
0.00090692255
-0.00012605928
0.00086691379
-0.00016808717
0.00080723726
-0.00015467022
0.00074443369
-0.00014585775
0.00068548776
-7.5332315e-05
0.00055741277
-7.9097856e-05
0.00050844746
-0.00020649695
0.00055250137
-0.00028188881
0.00058861218
-0.00028711617
0.00064213772
-0.00016277473
0.0006479137
-8.5132306e-05
0.00057315968
-0.00017839461
0.00054010319
-0.00028309556
0.0005931687
-0.00026496681
0.00067050952
-0.00011576511
0.00068029837
-3.9234047e-05
0.00061323493
-0.00013258016
0.00053135444
-0.00026385318
0.00053759728
-0.00024386685
0.00062846988
-8.3887399e-05
0.00070723201
1.0007522e-05
0.00072801019
-4.936143e-05
0.00072203305
-0.0001815275
0.0006739592
-0.00024673891
0.00056363513
-0.00023028067
0.00050155754
-0.00014412242
0.00055669453
-6.1601121e-05
0.00069236172
-2.822155e-05
0.00080719265
-6.0005339e-05
0.00081346031
-0.00010046315
0.00071643432
-0.00012530683
0.00057661653
-0.00011548076
0.00047686787
-5.656695e-05
0.00050257843
1.2860034e-05
7.6014431e-05
0.00064036776
0.00075728093
-2.012162e-05
0.00077088551
-5.5049566e-05
0.00077939311
-5.6187865e-05
0.00077671091
-2.1997778e-05
0.00073717833
-0.00011453584
0.00069935752
-0.00012331384
0.00069373569
-0.00011997051
0.00074253536
-8.5533086e-05
0.00078502953
-5.8885328e-05
0.00079093128
-0.00011779881
0.00077057789
-0.00010140988
0.00074431388
-0.00010048712
0.0007202403
-0.00016108185
0.00073155607
-0.00013803946
0.000733574
-0.00010996518
0.00073441242
-0.00020655088
0.00077379035
-0.00015854728
0.00076616202
-4.9376148e-05
0.00080742348
-0.00012682546
0.00082691474
-0.00018213026
0.00086150788
-0.00014043585
0.00082948426
-0.00015379148
0.00077381993
-0.00014819423
0.00072003766
-0.00013000684
0.00066354233
-6.5687763e-05
0.00053608347
-7.7525124e-05
0.00048606743
-0.00016069284
0.00052654063
-0.00021803166
0.00056958333
-0.00023751147
0.0006175102
-0.00015184042
0.00061629352
-7.5298066e-05
0.0005485235
-0.00012775647
0.0005222163
-0.00022221495
0.00057950256
-0.00023184352
0.00064451527
-0.00011004721
0.00063963369
-3.600893e-05
0.00057550068
-0.00011173162
0.00051695706
-0.00025470748
0.00053641631
-0.0002495256
0.00061002183
-8.6906707e-05
0.00066008871
4.1450176e-05
0.00066617115
9.4470174e-06
0.00067335688
-0.00011348897
0.00064994589
-0.00023512368
0.00056910229
-0.00027334127
0.00050287617
-0.00020026831
0.00052085339
-6.0348655e-05
0.00061205951
1.6919893e-05
0.00071988696
1.0241404e-05
0.00075254119
-6.7029923e-05
0.00068946044
-0.00014035514
0.00058260489
-0.00017208399
0.00048798263
-0.00012789995
0.00047108176
-2.3331327e-05
6.9256132e-05
0.00054829035
0.00072097697
-2.7315466e-05
0.00073398511
-6.5710777e-05
0.00074281494
-5.1689856e-05
0.00073936525
-2.1346659e-05
0.00070277364
-0.00010164204
0.00066647354
-0.00011060297
0.00066081546
-0.00011001185
0.00070706296
-6.9048993e-05
0.00074652079
-3.8738199e-05
0.00075394062
-0.0001018457
0.00073477