/*--------------------------------*- C++ -*----------------------------------*\
| =========                 |                                                 |
| \\      /  F ield         | OpenFOAM: The Open Source CFD Toolbox           |
|  \\    /   O peration     | Version:  2406                                  |
|   \\  /    A nd           | Website:  www.openfoam.com                      |
|    \\/     M anipulation  |                                                 |
\*---------------------------------------------------------------------------*/
FoamFile
{
    version     2.0;
    format      ascii;
    arch        "LSB;label=32;scalar=64";
    class       volScalarField;
    location    "12";
    object      rho_0;
}
// * * * * * * * * * * * * * * * * * * * * * * * * * * * * * * * * * * * * * //

dimensions      [1 -3 0 0 0 0 0];

internalField   nonuniform List<scalar> 
96472
(
1.002926
1.0069039
1.0079715
1.0094949
1.0096359
1.0094997
1.0096171
1.0098211
1.0096609
1.009365
1.0092551
1.0096517
1.0103841
1.0115006
1.0126012
1.0133054
1.0138853
1.014216
1.0146792
1.0154232
1.015985
1.0162413
1.0165804
1.0170505
1.0176982
1.0184777
1.0192704
1.0200924
1.0206897
1.0210974
1.0212898
1.0213498
1.0214437
1.0216416
1.0219188
1.0221921
1.0223993
1.0225338
1.0226065
1.0226428
1.0225265
1.0224771
1.0223489
1.0219932
1.0220723
1.0219217
1.0215647
1.0217413
1.0213374
1.021558
1.0214907
1.0214766
1.0214333
1.02124
1.0214268
1.0029308
1.0069396
1.0080162
1.0095573
1.0096895
1.0095039
1.0095524
1.0097098
1.0094795
1.0091478
1.0090163
1.0093624
1.0101322
1.0111351
1.0123391
1.0131528
1.0136255
1.0141542
1.0145471
1.0151195
1.0158317
1.0162697
1.0164319
1.0167788
1.0174255
1.0183006
1.0191475
1.0198441
1.0203468
1.0206245
1.0208413
1.021015
1.021191
1.0213722
1.0216192
1.0218904
1.0221232
1.0223004
1.0224532
1.022436
1.0225359
1.0223602
1.0222391
1.0222734
1.0219421
1.0217415
1.0217576
1.0215035
1.0215762
1.0213556
1.0212218
1.0213769
1.0213266
1.0213197
1.0212835
1.0029437
1.00697
1.0080568
1.0096168
1.0097368
1.0095177
1.0094859
1.0095948
1.0093
1.0089401
1.0088097
1.0091133
1.009876
1.0108867
1.0120061
1.0129926
1.0134793
1.0139241
1.0145085
1.0150015
1.015569
1.0161907
1.0164964
1.0167336
1.0172032
1.0179474
1.0188686
1.0196425
1.0201829
1.0204401
1.0205353
1.0206505
1.0208373
1.0210792
1.0213217
1.0215806
1.0218626
1.0220721
1.0222033
1.022406
1.0223155
1.0223891
1.0223214
1.022063
1.0219574
1.0219798
1.0216593
1.0215805
1.0213876
1.0213154
1.021477
1.0212302
1.0209914
1.0210811
1.0212337
1.0029413
1.0069822
1.0080671
1.0096464
1.0097633
1.0095042
1.0094483
1.0094759
1.0091447
1.008775
1.0086187
1.0089049
1.0095789
1.0106635
1.0117801
1.0127345
1.0134474
1.0137743
1.0142748
1.0149541
1.0155142
1.0159384
1.0163535
1.0167328
1.0172189
1.0178284
1.0185647
1.0192998
1.0198599
1.020227
1.0204226
1.0205025
1.0206049
1.0207995
1.0210665
1.0213416
1.0216218
1.0218466
1.0221193
1.0221297
1.0223704
1.0222631
1.0222225
1.0221344
1.0221487
1.02172
1.0216707
1.0216233
1.021462
1.0214632
1.0210567
1.0210085
1.0212058
1.0214018
1.0209085
1.002952
1.0069925
1.0080654
1.0096392
1.009776
1.0095051
1.0093757
1.0093304
1.0090028
1.008615
1.0084276
1.0087204
1.0093604
1.0103565
1.0116027
1.0125443
1.0132508
1.0137602
1.0140883
1.0146904
1.0154336
1.0159113
1.0161875
1.0165155
1.0170664
1.0177731
1.01847
1.0191065
1.0195615
1.0198834
1.0201014
1.0202854
1.0204275
1.0206007
1.0208311
1.0211229
1.021409
1.021694
1.0218575
1.022163
1.0221685
1.0222819
1.0222602
1.0222356
1.0218815
1.0219709
1.0218525
1.0215211
1.0214399
1.0212478
1.021279
1.0214227
1.0211835
1.0205801
1.0209502
1.002944
1.0069837
1.0080389
1.0096148
1.0097573
1.0094802
1.0093324
1.0092514
1.0088948
1.0084832
1.0082948
1.0085227
1.0092191
1.0101321
1.0113328
1.0124451
1.0130495
1.0136024
1.0140959
1.0145297
1.0151635
1.0158934
1.0162443
1.0164862
1.0168592
1.0175097
1.0182819
1.0189603
1.0194887
1.019751
1.0199149
1.0200317
1.020233
1.020412
1.0206662
1.0209431
1.021225
1.0215001
1.0218014
1.0219531
1.0221611
1.0222762
1.0222337
1.0221249
1.0222053
1.021954
1.0216161
1.0216743
1.0215505
1.0214142
1.021366
1.0208351
1.0209219
1.0211741
1.0213653
1.0029506
1.0069643
1.0079976
1.0095789
1.0097113
1.0094309
1.0092562
1.00912
1.0087479
1.0083535
1.0081673
1.0083869
1.0090175
1.0099983
1.0110943
1.012249
1.0130421
1.0134298
1.0139542
1.0145314
1.0150495
1.0156251
1.0161698
1.0165508
1.0169451
1.0173974
1.0180394
1.0186797
1.0192126
1.019623
1.0198409
1.0199813
1.0201059
1.0203046
1.0205196
1.0207953
1.0210815
1.0213703
1.021629
1.0219049
1.0221269
1.0221565
1.0222729
1.0223385
1.0220665
1.021972
1.0219987
1.0217488
1.0214504
1.0213921
1.0210133
1.021595
1.0210009
1.0211887
1.0204743
1.0029396
1.0069202
1.0079215
1.0094923
1.0096456
1.0093758
1.0091643
1.0089908
1.0086189
1.0082244
1.0080281
1.008275
1.0088249
1.009804
1.0109814
1.0120295
1.0129562
1.0134585
1.0137598
1.0143435
1.0150448
1.0155613
1.015977
1.0163861
1.0168802
1.0174643
1.0179939
1.0185538
1.0189939
1.0193539
1.0196477
1.0198661
1.0200347
1.0201974
1.0204267
1.020685
1.0209665
1.0212719
1.0215314
1.0218598
1.0219547
1.0222818
1.0222847
1.0221696
1.0222931
1.0221871
1.0218882
1.0216874
1.0216502
1.0215351
1.0216022
1.0208993
1.0211047
1.0209512
1.0209656
1.0029345
1.0068815
1.007834
1.0094014
1.0095615
1.0092934
1.0090653
1.0088665
1.0085053
1.0081038
1.0079266
1.0081477
1.0087446
1.009591
1.0108104
1.0119554
1.0127416
1.0133891
1.0137779
1.014154
1.0148096
1.0155513
1.0160032
1.0163105
1.0166845
1.0172562
1.017908
1.018464
1.0189688
1.0192998
1.0195448
1.0197563
1.01995
1.0201685
1.0203729
1.0206522
1.0209027
1.0211702
1.0215281
1.0217111
1.0220987
1.022123
1.02224
1.0224802
1.0222582
1.022124
1.0220937
1.0219836
1.0219179
1.0213172
1.0214283
1.0211849
1.0214553
1.0209139
1.0210189
1.0029179
1.0068169
1.0077285
1.0092725
1.0094545
1.0092094
1.008957
1.0087155
1.0083411
1.0079675
1.0078112
1.0080105
1.0086423
1.0095096
1.0105712
1.0118454
1.0126989
1.0132135
1.0137371
1.0141808
1.0146417
1.0153209
1.0159627
1.0164055
1.0167755
1.0171697
1.017694
1.0182516
1.0187493
1.0192154
1.0195135
1.0197693
1.0199655
1.020138
1.0203813
1.0206035
1.0208691
1.0211802
1.02142
1.0217976
1.0219064
1.0222119
1.0223925
1.0222759
1.02236
1.0224064
1.0221956
1.022085
1.0214877
1.0220973
1.0213413
1.0217228
1.0210721
1.0209086
1.0210689
1.002899
1.0067409
1.0076016
1.0091346
1.0093269
1.0090932
1.0088168
1.008561
1.0081906
1.0078276
1.0077013
1.0079424
1.0084815
1.009414
1.0104769
1.0116397
1.0127143
1.0132476
1.0135741
1.0140921
1.0146558
1.0151938
1.0157599
1.0162756
1.0167795
1.0172645
1.0177157
1.0181774
1.0186206
1.0190115
1.0194127
1.0197021
1.0199619
1.0201811
1.0203818
1.0206536
1.0208842
1.0211641
1.0214734
1.0216855
1.022008
1.0221947
1.0222898
1.0224903
1.022498
1.0223687
1.0222378
1.0220291
1.0223699
1.021661
1.0217112
1.0214605
1.0210496
1.0216812
1.0210762
1.0028732
1.0066409
1.0074542
1.0089756
1.0091958
1.0089742
1.0086825
1.0083907
1.0080235
1.0076848
1.0075787
1.0078584
1.0084056
1.0092543
1.0104126
1.0115465
1.0125411
1.0132744
1.0135961
1.0139047
1.0145075
1.0151868
1.0157371
1.0161629
1.0166056
1.017135
1.0176522
1.0181281
1.0185697
1.0189763
1.0193411
1.0196895
1.0199834
1.0202175
1.0204665
1.0206883
1.0209394
1.0212042
1.0214617
1.021766
1.0220034
1.0221907
1.0224267
1.0225017
1.0225179
1.0224685
1.0224915
1.0224775
1.0220582
1.0218
1.0220654
1.0215784
1.0217748
1.0213498
1.0208417
1.0028418
1.0065363
1.0072967
1.0088089
1.0090529
1.008857
1.0085259
1.0081939
1.0078448
1.0075295
1.0074552
1.0077366
1.0083757
1.0091526
1.0102328
1.0115166
1.012447
1.0131294
1.0136415
1.013944
1.0143298
1.0150062
1.0157086
1.0162416
1.016638
1.017043
1.0174955
1.0179781
1.0184455
1.0189152
1.0193168
1.0197116
1.0200006
1.0202776
1.0205164
1.0207759
1.0210117
1.0212803
1.0215467
1.0218001
1.0220196
1.0222975
1.0224408
1.0225664
1.022578
1.0227459
1.0225157
1.0223736
1.0221049
1.0225693
1.0219039
1.0216268
1.021877
1.0210454
1.0216762
1.0027999
1.0064277
1.007139
1.0086437
1.0089049
1.0087224
1.0083821
1.0080234
1.0076644
1.0073791
1.0073384
1.0076282
1.0082557
1.0091411
1.0101133
1.0113498
1.0124769
1.0131202
1.0135412
1.0139769
1.0143575
1.0148574
1.0155066
1.0161267
1.0166825
1.0171151
1.0175364
1.0179024
1.0183302
1.0187526
1.0192404
1.0196823
1.0200682
1.0203761
1.0206395
1.0208642
1.021138
1.021382
1.0216276
1.0218521
1.0221193
1.0223185
1.0224868
1.0226075
1.0228134
1.022602
1.0226842
1.0225513
1.0228286
1.0220941
1.0219403
1.0223922
1.0215409
1.021858
1.0217029
1.0027593
1.0062995
1.0069626
1.0084719
1.0087757
1.0086015
1.008215
1.0078183
1.0074715
1.0072153
1.0072223
1.0075798
1.0081509
1.0090171
1.0100903
1.0112048
1.0123833
1.0132205
1.0135533
1.0138472
1.0143256
1.0148755
1.0154627
1.0160156
1.0165304
1.017057
1.0174795
1.017887
1.0182711
1.0186843
1.019171
1.0196477
1.0200724
1.0204444
1.0207358
1.0210094
1.0212393
1.0215082
1.0217305
1.0219852
1.0221945
1.0223951
1.0225855
1.0227893
1.0226877
1.0228984
1.0228225
1.0228989
1.022332
1.0225449
1.0225988
1.0220915
1.0219537
1.0221329
1.0212576
1.0027094
1.00617
1.0068017
1.0083159
1.0086318
1.0084692
1.0080743
1.0076428
1.007284
1.0070579
1.0070922
1.0074698
1.008127
1.0088935
1.0099679
1.0111996
1.0122536
1.0131282
1.0136573
1.0138679
1.0141989
1.0147622
1.0154441
1.0160503
1.0165214
1.016955
1.0173722
1.017777
1.0181616
1.0186204
1.0191102
1.0196232
1.0200875
1.0204871
1.0208179
1.0211101
1.0213879
1.0216345
1.021868
1.0221041
1.0222871
1.0225187
1.0227099
1.0227357
1.0229643
1.0229603
1.0229575
1.0227037
1.0229932
1.0227184
1.0225934
1.0221353
1.0224909
1.0218591
1.0219536
1.0026692
1.0060409
1.00663
1.0081639
1.0085097
1.0083522
1.0079199
1.0074505
1.007122
1.0069154
1.0069826
1.0073625
1.0080534
1.0088653
1.0098198
1.0111012
1.0122569
1.0130497
1.0136118
1.0139864
1.0142229
1.014644
1.0152907
1.0159822
1.016579
1.0170099
1.0173783
1.0177073
1.0180698
1.0184952
1.0190288
1.0195806
1.0201025
1.0205552
1.020926
1.0212448
1.0215192
1.021774
1.0220281
1.0222274
1.0224504
1.0226272
1.0227325
1.0229418
1.0230283
1.0230121
1.0230397
1.0231798
1.0229428
1.0228719
1.0225563
1.0228753
1.0223582
1.0221259
1.0223841
1.0026217
1.0059302
1.0064829
1.0080401
1.00841
1.0082598
1.0077868
1.0072991
1.0069436
1.0067549
1.0068684
1.0072824
1.0079126
1.0088069
1.0097813
1.0109137
1.0121909
1.0131478
1.0136023
1.0139566
1.0142818
1.0146648
1.0152046
1.0158524
1.0164737
1.0169915
1.0173555
1.0176703
1.0180146
1.0184051
1.0189142
1.0194867
1.0200744
1.0205781
1.0209952
1.0213445
1.0216481
1.0219239
1.0221618
1.0223924
1.0225765
1.022733
1.0229157
1.0230696
1.023035
1.0232656
1.0231896
1.02323
1.0229414
1.0232321
1.0229587
1.0227298
1.022742
1.022471
1.0222259
1.0025902
1.0058228
1.0063568
1.0079259
1.0083194
1.0081742
1.0076851
1.0071426
1.0068021
1.0066515
1.0067584
1.0072114
1.0078545
1.0086472
1.0097062
1.010851
1.0120277
1.0131108
1.013729
1.0139466
1.0142272
1.0146529
1.0152279
1.0158545
1.0164059
1.0169154
1.0172953
1.0176057
1.0179212
1.0183125
1.0188496
1.0194431
1.020013
1.0205559
1.0210374
1.0214347
1.0217487
1.0220489
1.0223138
1.0225357
1.0227214
1.0228928
1.0230511
1.0230548
1.0233657
1.0232202
1.0234374
1.0231415
1.0236229
1.0229516
1.0232649
1.023074
1.0226662
1.0229563
1.0224303
1.002551
1.0057451
1.0062549
1.007848
1.0082476
1.008101
1.0075916
1.0070262
1.0066699
1.0065255
1.0066728
1.0070951
1.0078093
1.0085705
1.0095366
1.0107822
1.0119701
1.0129689
1.0137228
1.0140774
1.0142423
1.0145642
1.0151189
1.0158206
1.0164617
1.0169123
1.0172869
1.0175663
1.0178536
1.0182076
1.0187125
1.0193314
1.0199746
1.0205712
1.021085
1.0215053
1.0218686
1.0221722
1.022445
1.0226741
1.0228637
1.0230082
1.0230995
1.0233695
1.0232851
1.0234884
1.0233882
1.0236003
1.0232748
1.0235328
1.0232877
1.0232064
1.0230356
1.0230625
1.0227047
1.0025375
1.0056656
1.0061535
1.0077894
1.008194
1.0080482
1.007516
1.0069216
1.0065786
1.0064356
1.0065903
1.0070087
1.0076836
1.0085371
1.0094367
1.0106009
1.0119101
1.0129834
1.0136655
1.0141206
1.0143474
1.0145725
1.015027
1.0156921
1.0163832
1.0169262
1.0172584
1.017529
1.0178088
1.0181285
1.0186071
1.0192195
1.0198799
1.0205277
1.0210858
1.0215377
1.0219412
1.022271
1.022562
1.0227993
1.022982
1.0231404
1.0233426
1.0233609
1.023485
1.023576
1.0235467
1.0236304
1.0235527
1.0237031
1.0234081
1.0232499
1.023737
1.0227241
1.0231392
1.0025084
1.0056325
1.0060846
1.0077381
1.0081742
1.0080161
1.0074646
1.0068447
1.0064886
1.0063521
1.0065069
1.0069618
1.0075723
1.0083975
1.0093941
1.0104677
1.0117377
1.0129656
1.0137409
1.0140969
1.0143429
1.0146255
1.015049
1.0156601
1.0163084
1.0168817
1.017236
1.0174878
1.0177352
1.0180627
1.018535
1.0191201
1.0197783
1.0204353
1.0210306
1.0215503
1.0219798
1.0223448
1.0226458
1.0228814
1.0230882
1.0232856
1.0233882
1.0234794
1.0236571
1.02356
1.0238175
1.0236168
1.0239246
1.0234287
1.0237861
1.0237356
1.0232302
1.0233865
1.0233442
1.0025154
1.00558
1.0060266
1.0077472
1.0081558
1.0080016
1.0074281
1.0067988
1.0064416
1.0063092
1.0064468
1.0068682
1.0075357
1.0082757
1.0092481
1.0103955
1.0116228
1.0128127
1.0137458
1.014173
1.014348
1.0145875
1.0150203
1.0156326
1.0163045
1.0168429
1.0172287
1.0174728
1.0176823
1.0179595
1.0184024
1.0190091
1.0196797
1.0203685
1.0210048
1.0215429
1.0220032
1.022395
1.0226962
1.0229696
1.0231871
1.023366
1.0234873
1.0236612
1.0236236
1.0238356
1.0237583
1.0238619
1.0237126
1.023985
1.0237261
1.0237792
1.0233628
1.0239595
1.0231801
1.0024872
1.0055903
1.0059903
1.0077224
1.0081613
1.0080013
1.0074419
1.0067567
1.0063989
1.0062593
1.0064039
1.006798
1.0074482
1.008238
1.0091062
1.0102548
1.0115657
1.0127384
1.0136419
1.0142179
1.0144326
1.0145767
1.0149311
1.0155281
1.016248
1.0168401
1.0172185
1.0174713
1.0176726
1.017927
1.0183288
1.0188815
1.0195523
1.0202718
1.0209346
1.021502
1.022004
1.0223925
1.0227418
1.0230327
1.0232428
1.0234173
1.0235992
1.0236553
1.0237814
1.0238737
1.0238181
1.0239954
1.0239291
1.0240078
1.0238144
1.02379
1.0240469
1.0235252
1.0235582
1.0025163
1.0055504
1.0059499
1.0077722
1.0081905
1.0080562
1.0074422
1.0067852
1.006412
1.0062545
1.0063795
1.0067654
1.0073626
1.0081707
1.0091058
1.010155
1.011455
1.0127407
1.0136719
1.0142134
1.0144771
1.0146454
1.0149489
1.0155123
1.0162028
1.0168423
1.0172572
1.0174822
1.0176813
1.0179265
1.0182983
1.0188289
1.0194798
1.020176
1.0208455
1.0214638
1.0219953
1.0224239
1.0227981
1.023079
1.0233107
1.0235231
1.0236663
1.0237782
1.023901
1.0239295
1.024085
1.0239673
1.0241368
1.0238806
1.0241814
1.0239573
1.0239394
1.0237723
1.0237831
1.0025002
1.0056017
1.0059312
1.0078162
1.0083057
1.0082236
1.0077262
1.0069428
1.0065094
1.0062898
1.0064048
1.0067776
1.0074033
1.0081878
1.0091892
1.0102369
1.0114592
1.012737
1.0137719
1.014319
1.0145636
1.0147372
1.0150181
1.0155339
1.0162053
1.0168663
1.0173143
1.0175784
1.0177722
1.0179749
1.0183168
1.0188388
1.0194668
1.0201516
1.0208384
1.0214763
1.0220487
1.0224545
1.0228602
1.0231704
1.0234157
1.0236394
1.0237912
1.0238745
1.0239849
1.0241436
1.024148
1.0241026
1.0242333
1.0243067
1.0241086
1.0242775
1.0240116
1.024218
1.0238344
1.0025914
1.0059329
1.0060023
1.0082875
1.0084127
1.0085841
1.0083794
1.0075581
1.0064924
1.0062575
1.0064599
1.0065959
1.0075599
1.0084915
1.0094099
1.0103132
1.0114524
1.0127399
1.0138578
1.01461
1.014821
1.0148202
1.0149884
1.0154624
1.0161799
1.016914
1.0174478
1.0177298
1.0178956
1.0180695
1.0183718
1.0188733
1.0194734
1.0201885
1.0208871
1.0215077
1.022096
1.0225986
1.0229502
1.0233113
1.023527
1.0237405
1.0240119
1.0240763
1.0240889
1.0243512
1.0242947
1.0243932
1.0244614
1.0244139
1.0243996
1.0243398
1.0244757
1.0241859
1.0244069
1.024105
1.0239854
1.0236517
1.0234675
1.0232134
1.0230301
1.0228267
1.0225729
1.0224294
1.0221603
1.0218015
1.0217274
1.0217077
1.0211902
1.0211835
1.0212041
1.020849
1.0209682
1.0206872
1.0208841
1.0209055
1.0206681
1.0210591
1.0209124
1.0211301
1.0212116
1.0213908
1.0240011
1.0235938
1.0233769
1.0231912
1.0230752
1.0227182
1.0225689
1.0224012
1.0220386
1.021911
1.021746
1.0214457
1.0212783
1.0212549
1.0209772
1.0209141
1.0208707
1.0206599
1.0208311
1.0205367
1.0207776
1.0207656
1.0207244
1.0209285
1.02087
1.0211146
1.0211367
1.0236558
1.0234149
1.023183
1.0228644
1.0227222
1.022553
1.022252
1.0220396
1.0219021
1.0216103
1.0214196
1.0213202
1.0210589
1.0209559
1.020879
1.0206995
1.0207042
1.0205962
1.0205376
1.0206354
1.0205023
1.0206735
1.0206788
1.0207215
1.0208401
1.0208543
1.0210965
1.0234278
1.0230703
1.0228748
1.0226598
1.022293
1.022272
1.0219969
1.021741
1.021608
1.0213607
1.0212329
1.0210086
1.0209102
1.0207644
1.0206491
1.0206492
1.0204321
1.0205781
1.0203688
1.0205399
1.0204467
1.0205316
1.0206134
1.0206356
1.0207135
1.0208131
1.0208128
1.0230692
1.0227634
1.0223375
1.0222675
1.0220958
1.0217349
1.0217207
1.0214902
1.0211944
1.0212076
1.0208851
1.0208281
1.0206957
1.0205417
1.0205289
1.0203898
1.0204269
1.0202672
1.0204359
1.0202681
1.020473
1.0204077
1.0205185
1.0205809
1.0206233
1.0206849
1.0207156
1.02256
1.0224272
1.0220918
1.0217878
1.0216679
1.0215075
1.021221
1.0211541
1.0209797
1.0207367
1.0207304
1.0204915
1.020433
1.0203777
1.020244
1.0202917
1.0202005
1.0201823
1.0202135
1.0202617
1.0202892
1.0203367
1.0204337
1.020462
1.0205407
1.0205489
1.0206184
1.022268
1.0220514
1.0217041
1.0214292
1.0212183
1.0211039
1.0208507
1.0207767
1.0206157
1.0204122
1.0204332
1.0202182
1.0202111
1.0200425
1.0201311
1.019967
1.0200318
1.0200863
1.0199834
1.0201829
1.0200911
1.0203403
1.0201978
1.0204353
1.0203379
1.0204956
1.0203889
1.021758
1.0214667
1.0212986
1.0208961
1.0207735
1.0207278
1.0203847
1.0203589
1.0203
1.0200618
1.0200211
1.0200094
1.0198536
1.0198872
1.0198025
1.0198208
1.0198054
1.0198088
1.0199571
1.0198481
1.0200895
1.020016
1.0202132
1.0201448
1.0202884
1.0202306
1.0202782
1.0213415
1.0208078
1.0207548
1.0205548
1.0201689
1.0202626
1.0201529
1.0197525
1.0199827
1.0197832
1.0195373
1.0198039
1.0194707
1.0196808
1.019499
1.0196194
1.0195937
1.019587
1.0197269
1.0197023
1.0199006
1.0198022
1.0200865
1.0198884
1.0201637
1.0199939
1.0201048
1.0208369
1.0204752
1.0203562
1.020131
1.0197313
1.0198469
1.0196901
1.0194147
1.0195174
1.0194095
1.0193039
1.0192808
1.0193152
1.0192923
1.0192526
1.0194332
1.0192465
1.0195069
1.0194184
1.0195813
1.0195848
1.019703
1.0197819
1.0197907
1.0198332
1.0198578
1.0198322
1.0203554
1.0200812
1.0196411
1.0197098
1.0194016
1.019101
1.0194077
1.0190944
1.0188535
1.0192599
1.0188684
1.0188998
1.0191861
1.0188504
1.0190735
1.0191396
1.0190542
1.0193104
1.0191637
1.0193794
1.0194261
1.0194446
1.0195954
1.0195399
1.0196158
1.019568
1.0196401
1.0198022
1.0194038
1.0191198
1.0191483
1.0189016
1.0187437
1.0188392
1.0187283
1.0185484
1.0187707
1.0186457
1.01851
1.0188835
1.0185564
1.0188398
1.018891
1.0187233
1.0192184
1.0187678
1.0193496
1.0190303
1.0193317
1.0192747
1.0193763
1.0193334
1.0192789
1.0193236
1.0192808
1.0188744
1.0187168
1.0185935
1.0185824
1.0183421
1.0184574
1.0184315
1.0182031
1.0184038
1.0183431
1.0183247
1.0183874
1.0184549
1.0185071
1.0184955
1.0187384
1.0186689
1.0188043
1.0188819
1.0188658
1.0191097
1.0189412
1.0191524
1.018996
1.0190189
1.0190187
1.0188698
1.0184813
1.0184129
1.0183535
1.0180508
1.0181131
1.0180497
1.0179525
1.0181003
1.017846
1.0181403
1.0180029
1.0180006
1.0183644
1.0179703
1.0184913
1.018235
1.0184779
1.0185857
1.0184902
1.0187928
1.018609
1.0188022
1.0187602
1.0187517
1.0186477
1.0186994
1.0182866
1.0180688
1.0180583
1.0177895
1.0176518
1.0177742
1.017598
1.0176194
1.0176209
1.0176436
1.0177568
1.0176057
1.0178743
1.017806
1.0179081
1.0181119
1.0178971
1.0183084
1.0181717
1.0182542
1.0184215
1.018384
1.0184434
1.018425
1.0184106
1.0183259
1.0183183
1.0178151
1.0176555
1.0175175
1.0174186
1.0172164
1.0173469
1.0172774
1.0171571
1.0175037
1.0171669
1.0173881
1.0176229
1.0172625
1.0177279
1.0176245
1.0177142
1.017855
1.0177637
1.0180254
1.0179388
1.0180845
1.0180594
1.0180636
1.0181739
1.0179471
1.0180598
1.0178713
1.0175526
1.017362
1.0171027
1.0171159
1.0169521
1.0169173
1.017034
1.0169931
1.0169535
1.0171234
1.0171194
1.0171356
1.0172608
1.0172895
1.0174549
1.0173189
1.0176406
1.0175675
1.0175796
1.0177387
1.0176533
1.0178232
1.0176357
1.0178672
1.0174579
1.0178221
1.017432
1.0173123
1.0170675
1.0168354
1.016783
1.016793
1.0165732
1.0168938
1.0167568
1.0165578
1.0170598
1.0168093
1.0168229
1.01711
1.0169693
1.0172027
1.0170555
1.0174044
1.017175
1.0173492
1.017429
1.0173341
1.017473
1.017255
1.0175543
1.0170296
1.0174524
1.0170379
1.0168188
1.0167451
1.0166283
1.0163677
1.0165782
1.0164437
1.0164266
1.016588
1.0164174
1.0167373
1.0165164
1.0166247
1.0169569
1.0165915
1.0169505
1.0168649
1.0170388
1.0169448
1.0170479
1.0171066
1.0169443
1.0172172
1.0168664
1.0171876
1.0166878
1.0170332
1.0166876
1.0163676
1.0163533
1.0163059
1.0162797
1.0161561
1.0162833
1.0161897
1.0160892
1.0165432
1.0162455
1.016315
1.0166061
1.0163871
1.0166856
1.0164604
1.0167814
1.0166769
1.0165832
1.0169969
1.0165717
1.0168064
1.0166212
1.0168479
1.0165233
1.0165903
1.0164355
1.0163946
1.0160303
1.0162192
1.0159626
1.0160666
1.015984
1.015902
1.0160771
1.0159558
1.0160967
1.0160675
1.0161859
1.0162971
1.0160982
1.0164193
1.0163431
1.0164929
1.0162871
1.0164706
1.0165097
1.0164463
1.0163073
1.0163981
1.0164169
1.0161844
1.0162848
1.015996
1.0160277
1.0160045
1.0161189
1.0158768
1.0158111
1.0159144
1.0156824
1.015877
1.0160229
1.0157005
1.0160464
1.0160232
1.0159814
1.0161562
1.0159026
1.0164235
1.0160143
1.0162112
1.0162313
1.0160183
1.0163843
1.0157833
1.0163775
1.0158146
1.0160495
1.0157082
1.0157792
1.0156758
1.0160539
1.0160035
1.0157335
1.0156984
1.0157784
1.0155653
1.0158158
1.0157697
1.0155733
1.0159876
1.0157422
1.0159038
1.0158463
1.0158241
1.0161731
1.0156738
1.016105
1.0157463
1.016004
1.015882
1.0155774
1.0159855
1.0155216
1.0157633
1.0152605
1.0154755
1.015312
1.0159288
1.015768
1.0155754
1.0156334
1.01553
1.0155572
1.0156071
1.0154172
1.0156832
1.0156078
1.0156505
1.0156536
1.0155166
1.0159335
1.0155556
1.0157406
1.0155649
1.0156114
1.0157824
1.0153426
1.0155548
1.0153387
1.0154731
1.0152098
1.0150986
1.0149829
1.0149695
1.015675
1.0155164
1.015468
1.0153806
1.0154584
1.0153924
1.0153017
1.0154284
1.0153492
1.0154817
1.015396
1.0153436
1.0155593
1.0153815
1.0154745
1.0153866
1.0153336
1.0154348
1.015238
1.0152328
1.0151542
1.0150896
1.0150098
1.0149492
1.0147918
1.0146451
1.0145451
1.0153584
1.0152939
1.0153399
1.0152612
1.0151995
1.0153091
1.0151233
1.0152245
1.0153009
1.0150505
1.0153626
1.0151127
1.0152421
1.0152548
1.0149671
1.0153661
1.0148701
1.0152637
1.0148071
1.0149813
1.0149148
1.0146338
1.0148423
1.0144223
1.0146135
1.0141938
1.0142676
1.0148975
1.0150925
1.0152417
1.0151132
1.0150166
1.0151873
1.0149109
1.0151161
1.0151021
1.0148642
1.015176
1.0147879
1.0151139
1.0149447
1.0147732
1.0150134
1.0145304
1.0150761
1.0144612
1.0147675
1.0143993
1.0144137
1.0145377
1.0141345
1.0142635
1.0138151
1.013939
1.0147117
1.0150152
1.0151132
1.0150059
1.0148771
1.0147836
1.0148437
1.0149671
1.0149168
1.0147016
1.014697
1.0146901
1.0148507
1.0147379
1.0144967
1.0145539
1.0143855
1.0147256
1.0142595
1.0143452
1.0141015
1.0141084
1.0142414
1.0137654
1.0138982
1.0135629
1.0136642
1.0147124
1.0148154
1.0149841
1.0147483
1.0146551
1.0145999
1.0145795
1.0148058
1.0145387
1.014537
1.0143924
1.014444
1.0146345
1.0142551
1.01442
1.0140626
1.0143224
1.0142442
1.0139726
1.0140806
1.0136878
1.0140301
1.0136505
1.0136767
1.0133879
1.0134024
1.0132823
1.0142525
1.0145947
1.0147349
1.014501
1.0144527
1.014355
1.0143662
1.0145132
1.0142259
1.0143586
1.0140895
1.0142589
1.0142453
1.013971
1.0141974
1.0137236
1.0141422
1.0137218
1.0138445
1.0137135
1.0134717
1.013686
1.0132107
1.0135169
1.0130632
1.013198
1.012908
1.0140068
1.0143819
1.0143799
1.0143277
1.0141717
1.0140699
1.0141925
1.0140912
1.0141117
1.0140386
1.0138552
1.0139888
1.0138244
1.0138992
1.0138297
1.0135918
1.0136928
1.0134095
1.0136274
1.0134274
1.0132711
1.0132264
1.0129874
1.0131705
1.0129377
1.0128383
1.0126222
1.0137772
1.0140695
1.0141761
1.0140468
1.0138859
1.0138391
1.0138087
1.0138538
1.0139093
1.0137386
1.0136184
1.0136413
1.0135
1.0137182
1.0135409
1.0133972
1.0133579
1.0131016
1.0134208
1.013095
1.0131553
1.0128211
1.0128329
1.0127771
1.0127303
1.0125686
1.0124031
1.0133549
1.0137676
1.0138487
1.0137425
1.0136468
1.0135307
1.0135661
1.0135149
1.0135948
1.0134834
1.0133809
1.0134264
1.0132232
1.0134605
1.0131627
1.0132375
1.0130586
1.0129494
1.0130982
1.0127229
1.0129395
1.0125037
1.0127559
1.0124725
1.012488
1.0122354
1.0121479
1.0130739
1.0134378
1.013431
1.0133999
1.0133757
1.0133735
1.0133244
1.0131929
1.0132328
1.01314
1.0131867
1.0131942
1.0130268
1.0131139
1.0128199
1.0129677
1.0128101
1.0128525
1.012798
1.0124781
1.0126008
1.0122709
1.0125813
1.0123113
1.0122717
1.0119699
1.0119022
1.0127756
1.013128
1.0131031
1.0130533
1.0131046
1.0131446
1.0130802
1.0129817
1.0129217
1.0128505
1.0129329
1.0128986
1.0128648
1.0128248
1.0125996
1.0126885
1.0125415
1.0126492
1.0125502
1.0123249
1.0123549
1.0120872
1.0123294
1.0120865
1.0120857
1.0117962
1.0117526
1.0123217
1.0128654
1.0129117
1.012863
1.0128456
1.0128128
1.0127752
1.0127407
1.0127228
1.0126978
1.0126893
1.0126003
1.0126002
1.0125426
1.0124523
1.0124832
1.0123438
1.0123981
1.0122776
1.0121883
1.0121231
1.0119882
1.0120673
1.0119116
1.0118919
1.0116793
1.0116267
1.0120511
1.0125974
1.0127346
1.0126631
1.0126123
1.0125705
1.0125367
1.0125379
1.0125503
1.0125067
1.0124687
1.0123881
1.0123445
1.0123455
1.0123305
1.0122956
1.0122062
1.0121294
1.0120587
1.0120442
1.0119688
1.0119052
1.0118489
1.0117556
1.0116925
1.0115903
1.0115241
1.0117182
1.0123602
1.0125354
1.0124862
1.0124472
1.0124
1.0123506
1.0123395
1.0123473
1.0123217
1.0122931
1.0122444
1.0122045
1.0121959
1.0121537
1.0121264
1.0120212
1.0119678
1.0119197
1.0118983
1.0118741
1.011769
1.0117173
1.0116084
1.0115693
1.0114986
1.0114542
1.0114294
1.0121168
1.0122981
1.0122957
1.0122989
1.0122796
1.0122687
1.0121969
1.0121868
1.0121797
1.0121444
1.0121913
1.0120766
1.0121298
1.0119788
1.0120119
1.0118942
1.0118904
1.0118531
1.0117866
1.0117861
1.0116647
1.0116477
1.0115337
1.0115178
1.0114355
1.0113826
1.0113139
1.0119549
1.0120946
1.0121013
1.0122021
1.0122074
1.0122529
1.0121081
1.0120733
1.0120412
1.0120365
1.0121446
1.0119992
1.0120948
1.0118602
1.0119795
1.0118214
1.0118964
1.0117919
1.011758
1.0116891
1.0116114
1.0115799
1.01151
1.0114854
1.011408
1.0113536
1.011187
1.011866
1.0120726
1.0120604
1.0121632
1.0121142
1.0121833
1.0120215
1.0120193
1.0120113
1.0120142
1.012139
1.0119398
1.0120663
1.0117672
1.0120126
1.0117755
1.0119761
1.0117306
1.0117851
1.0116286
1.0116146
1.0116113
1.0115194
1.0115264
1.0113902
1.0113701
1.0111768
1.0118082
1.0121129
1.0120824
1.012148
1.0120693
1.0121115
1.0120235
1.0120221
1.0120474
1.0119987
1.0121234
1.01188
1.012102
1.0117539
1.0121106
1.0117756
1.0120267
1.0117481
1.0117516
1.0117393
1.011584
1.0118003
1.011497
1.0116442
1.0113511
1.0114108
1.0110626
1.0117974
1.0121337
1.0121178
1.0121262
1.0120996
1.0120825
1.0121245
1.0120227
1.0121818
1.0119229
1.0122393
1.0118283
1.0122415
1.0118275
1.012139
1.0119049
1.011912
1.0119531
1.0116576
1.0119684
1.0115829
1.0119329
1.0115406
1.0116979
1.011425
1.0114861
1.0111686
1.0118198
1.012182
1.0121722
1.0121584
1.0121617
1.0120972
1.0122441
1.0120065
1.0123379
1.0118899
1.0123691
1.0118758
1.0122867
1.0120008
1.0120357
1.0121725
1.0117316
1.0122801
1.0115883
1.0122212
1.0115943
1.0119971
1.0116296
1.0117536
1.0116266
1.011629
1.0112028
1.0119104
1.012125
1.012332
1.0121381
1.0123442
1.0121328
1.0122702
1.0122146
1.0121325
1.0123858
1.011952
1.0124972
1.0118214
1.0124817
1.0118703
1.0122594
1.0120575
1.0119229
1.0122808
1.0116529
1.0123052
1.0115387
1.01215
1.0116171
1.0119398
1.0117159
1.0111521
1.0118981
1.0123749
1.0122776
1.0123575
1.0122998
1.012265
1.0124096
1.0122672
1.0123748
1.0122723
1.0122246
1.0123665
1.012187
1.0123756
1.0121862
1.0121862
1.0122133
1.0120554
1.012269
1.0120461
1.0121093
1.0119903
1.0119311
1.0120312
1.0119454
1.0119589
1.0114828
1.0120323
1.0123752
1.0125521
1.0122325
1.0126118
1.0122181
1.0126303
1.0123738
1.0123759
1.0125239
1.0121075
1.0127588
1.0121021
1.0126695
1.0121474
1.012325
1.0123901
1.0121233
1.0125552
1.0119692
1.0124454
1.0119552
1.0122992
1.0120368
1.0121732
1.0120457
1.0114461
1.0120879
1.0125901
1.0125115
1.0124853
1.0126876
1.0125934
1.0124362
1.0127919
1.0121525
1.0128881
1.0122414
1.0127609
1.0125304
1.0122916
1.0127791
1.011928
1.0130246
1.0119503
1.0129172
1.0119992
1.0125128
1.0122122
1.0123555
1.0123851
1.0122146
1.0122402
1.0118532
1.0121963
1.0126057
1.0127281
1.0125602
1.013055
1.0126193
1.0126668
1.012661
1.0124854
1.0129637
1.01269
1.012718
1.0126287
1.0123909
1.0128238
1.0125531
1.0128075
1.0125159
1.0124554
1.0125565
1.0124541
1.0126936
1.0124628
1.0125024
1.0123328
1.0123629
1.0116153
1.0125197
1.0128023
1.0129204
1.0128924
1.0126237
1.013184
1.0126122
1.0130543
1.0127829
1.0126666
1.0132385
1.0124952
1.013256
1.012427
1.0129325
1.0128693
1.01268
1.0130895
1.0123445
1.0129742
1.0124748
1.0129892
1.0125962
1.0127089
1.0124921
1.0126021
1.0119491
1.0127373
1.012875
1.0131755
1.0131097
1.0127257
1.0132767
1.0128899
1.0130964
1.0132192
1.0126319
1.0133798
1.0126954
1.0133085
1.0130033
1.0127549
1.0132863
1.0124759
1.0135453
1.0125372
1.0132341
1.0126761
1.0129212
1.0129532
1.0128294
1.0129172
1.0127662
1.0119778
1.0129077
1.0130714
1.0131552
1.0134907
1.0128548
1.0135093
1.0130799
1.0130705
1.0135396
1.0127685
1.0136766
1.0128222
1.0133272
1.013275
1.0128721
1.0136228
1.012634
1.0136325
1.012743
1.0133684
1.0129833
1.0130719
1.0131448
1.0130216
1.0130875
1.0129633
1.0122992
1.0129435
1.0133874
1.0135606
1.0131929
1.013502
1.0132626
1.0134902
1.0134781
1.0132085
1.0135771
1.01312
1.0136353
1.0132035
1.0134994
1.0132447
1.0132957
1.0135127
1.013067
1.0135933
1.0129333
1.0136206
1.0130142
1.0134723
1.0130348
1.0132612
1.0131494
1.0123926
1.0133508
1.0133412
1.0136713
1.0138203
1.0132031
1.0139381
1.0133746
1.0136467
1.0138346
1.0131186
1.0140001
1.0131893
1.0138584
1.013612
1.0132389
1.013799
1.0131625
1.0139116
1.0132849
1.0136118
1.0132687
1.0135051
1.0134207
1.0134457
1.0133381