/*--------------------------------*- C++ -*----------------------------------*\
| =========                 |                                                 |
| \\      /  F ield         | OpenFOAM: The Open Source CFD Toolbox           |
|  \\    /   O peration     | Version:  2406                                  |
|   \\  /    A nd           | Website:  www.openfoam.com                      |
|    \\/     M anipulation  |                                                 |
\*---------------------------------------------------------------------------*/
FoamFile
{
    version     2.0;
    format      ascii;
    arch        "LSB;label=32;scalar=64";
    class       volScalarField;
    location    "12";
    object      T;
}
// * * * * * * * * * * * * * * * * * * * * * * * * * * * * * * * * * * * * * //

dimensions      [0 0 0 1 0 0 0];

internalField   nonuniform List<scalar> 
62344
(
1.0055553
1.0062448
1.0061205
1.0067129
1.007272
1.0097672
1.010761
1.0097404
1.0075211
1.0082708
1.00923
1.0098956
1.0112615
1.0121226
1.0117115
1.0112352
1.0086211
1.0092866
1.0098157
1.0098682
1.0098277
1.0100263
1.011319
1.0106258
1.0121601
1.0150944
1.0138257
1.0160575
1.0161449
1.0114974
1.0098975
1.0100195
1.0102088
1.014018
1.0121824
1.0048459
0.99975951
0.99969748
1.0033804
1.007465
1.007791
0.99908961
0.98649114
0.9746461
0.96731648
0.9631888
0.96573122
0.9738486
0.98449699
0.99023621
0.98205325
0.96399142
0.95070325
0.94946653
0.96331376
1.0054278
1.0060672
1.0061207
1.0069573
1.0075517
1.0092292
1.0101219
1.0096842
1.007601
1.0075845
1.0092237
1.0104301
1.0116497
1.0130245
1.0121818
1.0120937
1.009875
1.0103909
1.009068
1.0093724
1.0101609
1.0082702
1.0114041
1.012189
1.0124917
1.0149024
1.0152249
1.0167078
1.0150771
1.012259
1.0110829
1.0086778
1.0085291
1.0139834
1.0141619
1.0077619
1.0038502
1.0055345
1.0097128
1.0138701
1.0140498
1.0037603
0.98818493
0.97944895
0.98096735
0.9859618
0.98673729
0.98219305
0.97500993
0.96861258
0.96474197
0.95930204
0.948058
0.93711181
0.9344633
1.0053961
1.0058653
1.0063016
1.0066336
1.007752
1.0092873
1.0101145
1.0095414
1.0080488
1.0074812
1.0084765
1.0096368
1.011234
1.0117191
1.0112725
1.0106607
1.0100237
1.0098627
1.0078481
1.0086516
1.0098447
1.0071557
1.009551
1.0128185
1.0145547
1.0142017
1.0154192
1.0172559
1.0141021
1.0119029
1.012274
1.0086831
1.0084324
1.0139962
1.0143557
1.0083701
1.0042793
1.0068452
1.0115286
1.0129468
1.0101001
1.0022704
0.99098408
0.98593392
0.99156068
0.99996955
1.002253
0.9937342
0.97934828
0.96814527
0.96552917
0.96747619
0.96642314
0.9615104
0.9540999
1.0054407
1.0057937
1.0063305
1.0064531
1.0077237
1.0097388
1.0106654
1.0098265
1.0083092
1.0079861
1.0085292
1.0095322
1.0111343
1.0108238
1.0107315
1.0107116
1.0104575
1.0086731
1.007775
1.0091096
1.0098058
1.007974
1.0081311
1.0123084
1.0165015
1.014186
1.0149318
1.0175934
1.0138954
1.0117611
1.0125761
1.0094499
1.0100552
1.0147202
1.0130158
1.0060038
1.0026228
1.006749
1.0131162
1.0132357
1.0067138
1.0004039
0.99612357
0.99627507
0.99829947
0.99973367
0.99905095
0.99452279
0.98526923
0.97614577
0.96988929
0.96982814
0.975276
0.97928173
0.97880387
1.0055211
1.0058356
1.0060993
1.0066037
1.007675
1.0098818
1.0107518
1.0098688
1.0082064
1.0080074
1.0088429
1.0102821
1.0114271
1.0116562
1.0108684
1.0117642
1.0110913
1.0084698
1.0087909
1.0095515
1.0093145
1.0091529
1.008332
1.0119261
1.0172288
1.0144892
1.0146836
1.0177297
1.0142502
1.0120858
1.0117642
1.0092039
1.0115135
1.0156715
1.0125061
1.0044268
1.0010874
1.0061553
1.0138749
1.0143941
1.0056135
0.9984376
0.99882614
1.002499
1.0024367
0.99693407
0.99150304
0.98884899
0.98816424
0.98448678
0.97867686
0.97533363
0.97555656
0.97897276
0.98121024
1.0055563
1.0059117
1.0059283
1.0067586
1.0077032
1.0097402
1.0104653
1.0095526
1.0079813
1.007563
1.008882
1.0107691
1.0116503
1.0128331
1.0114688
1.0121137
1.0109611
1.0093644
1.0095239
1.0093
1.008643
1.0092108
1.0092258
1.0121783
1.0167783
1.0148637
1.0152139
1.0176672
1.0147508
1.0126551
1.0105424
1.0080675
1.0120312
1.016159
1.0128639
1.0050293
1.0014779
1.0059522
1.0135084
1.0141505
1.004948
0.99733999
0.99914609
1.0050532
1.0070097
1.0008864
0.99268663
0.9879078
0.98874501
0.99183302
0.99192336
0.98932649
0.9850508
0.98073813
0.97813697
1.0055
1.0059059
1.0059918
1.0067432
1.0077577
1.0097227
1.0103916
1.0094816
1.007876
1.0075332
1.0087711
1.0105656
1.0116853
1.0129164
1.012034
1.01195
1.0098226
1.0100872
1.0097056
1.0087509
1.0083423
1.0084623
1.0099758
1.0131438
1.0157705
1.0151373
1.0162375
1.0174724
1.0149283
1.0135618
1.0101633
1.0072267
1.0117138
1.0155575
1.0125328
1.0064517
1.003624
1.0068445
1.012524
1.0124563
1.004529
0.99746601
0.99862571
1.0042534
1.0071151
1.003657
0.99656675
0.98987366
0.98742228
0.99070952
0.99677748
0.99928811
0.99632852
0.98975857
0.98244448
1.0054002
1.0059047
1.0061832
1.0065271
1.0076864
1.00975
1.0106996
1.0099607
1.0080549
1.0080704
1.0089473
1.0103827
1.0118279
1.0121649
1.0120986
1.0119384
1.0091893
1.0103177
1.0095039
1.0082964
1.008393
1.0077767
1.0104451
1.0142145
1.0152747
1.0153951
1.017405
1.017337
1.014621
1.0145242
1.0108823
1.0076734
1.0116108
1.0143779
1.0109069
1.0067435
1.005875
1.008702
1.0118219
1.010159
1.0044092
0.99928216
0.99931123
1.0024629
1.0041726
1.0034158
1.0000355
0.9939486
0.98826354
0.98734938
0.99145858
0.99663835
0.99872442
0.9946951
0.98759669
1.0053464
1.0058594
1.0062514
1.0063331
1.0076191
1.0098911
1.0111569
1.0105284
1.0083092
1.0084554
1.0092361
1.0105131
1.0119268
1.0116396
1.0120057
1.0120623
1.0096393
1.0104368
1.0091732
1.0080659
1.0083651
1.0073072
1.0104205
1.0147474
1.0151116
1.0156029
1.0183264
1.0172422
1.0142699
1.0147755
1.011568
1.0091618
1.0125626
1.0135479
1.0090006
1.005857
1.0074112
1.010852
1.011791
1.0083087
1.003777
1.0016906
1.0020094
1.002166
1.001201
1.0010863
1.0010942
0.99958116
0.9943192
0.98951849
0.98805306
0.99041934
0.99365429
0.99461699
0.99007252
1.0053388
1.0058205
1.0061006
1.0062426
1.0076473
1.0099532
1.0113186
1.0107838
1.0084941
1.0084232
1.0094457
1.0107855
1.0117955
1.0116589
1.0119939
1.01182
1.0104012
1.0107319
1.0091154
1.0082574
1.0082844
1.0070653
1.0099719
1.0143651
1.0149343
1.0157039
1.0187922
1.0172707
1.0140637
1.0140758
1.0113514
1.0105391
1.0141441
1.0136678
1.0079999
1.0047962
1.0079592
1.0126893
1.0127016
1.007113
1.0023528
1.0030732
1.0053437
1.0041995
1.0005481
0.99879628
1.0007509
1.0035007
1.0026007
0.99733378
0.99153738
0.98881482
0.98969278
0.99201458
0.99220511
1.0053709
1.0057662
1.0058269
1.0062679
1.0077753
1.0099637
1.0111856
1.0106551
1.0086328
1.0083043
1.0095099
1.0109301
1.011774
1.0119605
1.012162
1.0114807
1.010801
1.0109149
1.0092496
1.0088298
1.0081266
1.0070191
1.0095654
1.0135318
1.0147428
1.0159332
1.0189284
1.0175511
1.0143642
1.0131391
1.0102098
1.0109018
1.0155068
1.0145649
1.0080813
1.0041384
1.0077474
1.013923
1.0140902
1.0067185
1.0006095
1.0023334
1.0069562
1.007218
1.0021588
0.99817522
0.99891646
1.0029992
1.0070137
1.0054174
0.99899341
0.99262399
0.98950068
0.99025048
0.99192314
1.0054177
1.0056919
1.0056563
1.0064556
1.0079003
1.0099645
1.0109949
1.0103165
1.0086355
1.0082769
1.0094298
1.0107988
1.0118555
1.0121839
1.0124891
1.0113571
1.0108028
1.0107972
1.0093653
1.0094108
1.0078203
1.0071553
1.0094756
1.0129101
1.0146868
1.0162619
1.0189336
1.0180014
1.0151541
1.0127549
1.0091431
1.0105615
1.0158283
1.0154024
1.0089295
1.004079
1.0072279
1.0141181
1.0150839
1.0070716
0.99907259
1.0001135
1.0061016
1.0089415
1.0048456
0.99914686
0.99695702
0.99935675
1.0046542
1.0078843
1.0047625
0.99774463
0.99105123
0.98773805
0.98760731
1.0054578
1.0056229
1.0056615
1.0066263
1.0079594
1.0099716
1.0109378
1.0101815
1.0086504
1.0083927
1.009348
1.0105805
1.012108
1.012347
1.0126551
1.0116415
1.0109997
1.0105516
1.0094274
1.0096695
1.0075219
1.007356
1.0097028
1.0126668
1.0148409
1.0166581
1.0190384
1.0183792
1.0159575
1.0131488
1.0088052
1.0101783
1.0154572
1.0156608
1.0097494
1.0042196
1.0065409
1.0135499
1.0156692
1.0076768
0.99818531
0.99759542
1.0036543
1.0086018
1.0069691
1.0012294
0.99578699
0.99473043
0.99834174
1.0036131
1.0056153
1.0014426
0.99415133
0.98589811
0.98179133
1.0054668
1.0055981
1.0058375
1.0067336
1.0079386
1.0099874
1.0110604
1.0103557
1.0087315
1.0086021
1.0093884
1.0105104
1.0124137
1.012542
1.0125986
1.0122186
1.0115765
1.0105268
1.0094476
1.0095964
1.0073749
1.0074914
1.009961
1.0125326
1.0150077
1.0171936
1.0192974
1.0184862
1.0163923
1.0137589
1.0093677
1.0102094
1.0148758
1.015337
1.01018
1.0045452
1.0061208
1.0125876
1.0154712
1.0082764
0.99839184
0.99599122
1.0009587
1.0067385
1.007692
1.0035675
0.99628202
0.99133874
0.99170568
0.99642669
1.0019335
1.002758
0.9972891
0.98773285
0.97854846
1.0054584
1.0056232
1.006057
1.006771
1.0078791
1.0099978
1.0111973
1.0106512
1.0088264
1.0087304
1.0095013
1.0106637
1.0125898
1.0128381
1.0124093
1.0126995
1.0122132
1.0107986
1.0094111
1.0092294
1.0072288
1.0074453
1.010082
1.0123184
1.0148626
1.017591
1.0196508
1.0184781
1.0163772
1.0141304
1.0103454
1.0107878
1.0144643
1.0147895
1.0103945
1.0050677
1.00613
1.0117916
1.0148532
1.0088574
0.99975108
0.99590432
0.99906047
1.0042367
1.0072721
1.0053643
0.99846379
0.99089916
0.98766077
0.99023068
0.99609342
1.0013722
0.9998861
0.99188838
0.98080766
1.0054456
1.0056907
1.0062209
1.0067352
1.007818
1.010018
1.0113165
1.0109647
1.0089597
1.0087411
1.0095974
1.0108371
1.0125605
1.0131385
1.0122105
1.0130081
1.0126977
1.0112875
1.00948
1.008738
1.0070632
1.0072461
1.0099842
1.0119585
1.0144209
1.0177441
1.0201152
1.0184844
1.0161053
1.0140637
1.0112245
1.0116304
1.0143517
1.0142842
1.0104
1.0057516
1.0066084
1.0112228
1.0140064
1.0094098
1.0017356
0.99733973
0.99875528
1.0021677
1.006412
1.006765
1.0018342
0.99348621
0.98751501
0.98738965
0.99189301
0.99811395
1.0012925
0.99685515
0.9872141
1.0054215
1.0057872
1.0062901
1.0066355
1.0078173
1.0100332
1.0113918
1.0111883
1.0091328
1.0087891
1.0096986
1.0110286
1.0124195
1.0132323
1.0120595
1.0130733
1.0127147
1.0116869
1.00979
1.0085414
1.0070259
1.0070821
1.0096805
1.0115379
1.0137611
1.0177346
1.0205072
1.0186297
1.0157589
1.0136621
1.0117152
1.0124326
1.0144907
1.0139408
1.010256
1.0065189
1.0073597
1.0111051
1.0131629
1.0097216
1.0036902
1.0000532
0.99988175
1.0015616
1.0052824
1.007965
1.0051739
0.99804689
0.99081573
0.98817098
0.99079312
0.99611663
1.0011243
1.0016312
0.99557707
1.0053933
1.0058822
1.0062599
1.0065285
1.007868
1.0100569
1.0114152
1.0112635
1.0092709
1.0089037
1.0097868
1.0111253
1.0122365
1.0130848
1.0120087
1.0130426
1.0122866
1.0119229
1.0102849
1.0086897
1.0071066
1.0069503
1.0093196
1.0111292
1.0131126
1.0175629
1.0207286
1.0189715
1.015586
1.0133632
1.0119868
1.0130502
1.0148082
1.0136873
1.0100343
1.0072258
1.0082953
1.0114313
1.0125262
1.0096845
1.00524
1.0030811
1.0021302
1.0021873
1.0046665
1.0079185
1.0077038
1.0031377
0.99675781
0.9921777
0.99236456
0.9959235
1.0008628
1.0040172
1.0022552
1.0053717
1.0059454
1.0061708
1.0064553
1.0079496
1.0100704
1.011415
1.0111841
1.0093414
1.0090163
1.0098171
1.0110939
1.0121173
1.0128101
1.0120516
1.012985
1.0116898
1.0119858
1.0108485
1.0090703
1.007168
1.006782
1.00896
1.0107982
1.0126109
1.0172115
1.0207328
1.0194461
1.0157017
1.013274
1.0121325
1.013495
1.0152412
1.013667
1.0098298
1.0076758
1.0091806
1.0119511
1.0120718
1.0091979
1.0062248
1.0055377
1.0049128
1.0038532
1.0046236
1.006931
1.0082094
1.0065543
1.0024835
0.99757436
0.99533581
0.99662537
0.99994162
1.0037697
1.0046616
1.0053664
1.0059441
1.0060588
1.0064129
1.0080093
1.0100766
1.0113913
1.0110721
1.0093794
1.009109
1.0098187
1.0109887
1.0120595
1.0125207
1.0121707
1.0129322
1.0111314
1.0118929
1.0113453
1.009598
1.0072548
1.0066309
1.0086873
1.0105712
1.0122973
1.0168294
1.0205999
1.0199157
1.0159192
1.0133307
1.0120779
1.0137118
1.0156582
1.0137926
1.0097933
1.0079142
1.0099706
1.0125294
1.0118301
1.0083628
1.0063563
1.0069885
1.0073557
1.0058826
1.0048691
1.0053762
1.0065323
1.0074465
1.0059442
1.002513
0.99886344
0.99727497
0.99827067
1.0004452
1.0024316
1.0053749
1.0058956
1.0059633
1.0063938
1.0080198
1.0100791
1.0113952
1.0109858
1.0094178
1.0091799
1.0097962
1.0109239
1.0121461
1.0123053
1.0123626
1.0129433
1.0108682
1.0117618
1.0116486
1.0100847
1.0074392
1.0064986
1.0085261
1.0105078
1.0122415
1.0165778
1.0203429
1.0202841
1.016327
1.0135236
1.0119547
1.0137204
1.0160168
1.0139433
1.0097708
1.0080669
1.0107182
1.0132168
1.0115912
1.0071633
1.005402
1.0074167
1.0091215
1.0078775
1.0053228
1.0034374
1.0034801
1.0053943
1.00655
1.005432
1.0020997
0.99813459
0.99605362
0.99562593
0.99648976
1.0053933
1.0058173
1.0058899
1.0063974
1.0079788
1.0100542
1.0114053
1.0109528
1.009476
1.0091749
1.0097644
1.0109348
1.012326
1.0122326
1.0126394
1.0130523
1.0109544
1.0116373
1.0117325
1.0104005
1.0076835
1.0064181
1.0084041
1.010464
1.0123441
1.0164355
1.0200868
1.0205064
1.0167734
1.0138047
1.0118917
1.0135433
1.0161243
1.0141301
1.0097234
1.0081459
1.0112497
1.0139608
1.0115318
1.0059306
1.003829
1.0068834
1.0099779
1.0093616
1.00585
1.0014789
0.99989832
1.0015545
1.0047261
1.0062003
1.0040303
0.99916666
0.99414864
0.99047976
0.98887816
1.0054266
1.0057193
1.0058367
1.0064196
1.0079479
1.0100249
1.0114243
1.0109473
1.0095494
1.0090985
1.0096863
1.0109839
1.0125667
1.0122758
1.0129545
1.0131683
1.0113625
1.0116166
1.01155
1.0105319
1.0079099
1.0062865
1.0082685
1.0103606
1.0125561
1.0163446
1.0198206
1.020622
1.0171154
1.0141043
1.0117409
1.0131792
1.0159571
1.0143264
1.0097106
1.0080455
1.0114272
1.014637
1.0116292
1.0050127
1.0020508
1.0055926
1.0097454
1.0101843
1.0063709
1.0001189
0.99627663
0.99704539
1.0012513
1.0050625
1.0045803
0.99997457
0.99317001
0.98621749
0.98201929
1.0054477
1.0056306
1.0057999
1.0064564
1.0078964
1.0099552
1.01142
1.0109339
1.0095607
1.0089343
1.0095163
1.0110022
1.0127181
1.012282
1.0132012
1.0131884
1.0118049
1.0115982
1.0111525
1.0103754
1.0079725
1.0060619
1.0080909
1.0101781
1.012652
1.0162179
1.019569
1.0206313
1.0174956
1.0145146
1.0115728
1.0126653
1.0156199
1.0144548
1.0096796
1.0078054
1.0114126
1.0151641
1.0122009
1.0045133
1.0003207
1.0036673
1.0087601
1.0105642
1.0071094
0.99970877
0.99333695
0.9925501
0.99682939
1.0026897
1.0041548
1.000872
0.99330959
0.98413422
0.97730656
1.005465
1.0055513
1.0057605
1.0064809
1.0077772
1.0097952
1.0112949
1.0107877
1.0094624
1.0086946
1.0092909
1.0109357
1.0127835
1.0122297
1.0132659
1.0130409
1.0121555
1.0115913
1.0106491
1.0099597
1.00779
1.0057451
1.0078208
1.0098287
1.0126147
1.0160154
1.0192109
1.0205211
1.0175903
1.0148167
1.011392
1.0120886
1.015218
1.0145364
1.0095921
1.0073915
1.0111836
1.0156419
1.0131191
1.0047131
0.9989941
1.0015547
1.0071534
1.0109625
1.008426
1.0005105
0.99184015
0.98885743
0.99294221
0.99966315
1.0038839
1.0026024
0.99516901
0.98465479
0.97558299
1.0054491
1.005441
1.0056294
1.0063576
1.0075416
1.0094955
1.0110022
1.010487
1.0092008
1.0083667
1.0090452
1.0108057
1.0127223
1.0121639
1.0132965
1.0128488
1.0122509
1.0114613
1.0100478
1.0093195
1.0073321
1.0052008
1.0074525
1.0093538
1.0123172
1.0157559
1.0189049
1.0204645
1.0180025
1.0153316
1.0114537
1.0116306
1.0147869
1.0147276
1.0097958
1.0067074
1.0105887
1.0158742
1.0145632
1.0062485
0.99883073
0.99925561
1.0053284
1.011305
1.0113243
1.0036633
0.99323464
0.98710061
0.98952747
0.99666161
1.0044291
1.0066314
1.0011668
0.99097701
0.97963715
1.0051151
1.005095
1.0052183
1.0059113
1.0070267
1.0089653
1.0104965
1.0100166
1.0088386
1.0080502
1.0088097
1.0106212
1.012664
1.0121184
1.0132487
1.01272
1.0122937
1.0113779
1.0097065
1.0088823
1.0070642
1.004914
1.0070627
1.0088558
1.0116556
1.0150711
1.0182819
1.0201702
1.0182264
1.0160763
1.0121043
1.0113835
1.0142742
1.0148674
1.0106166
1.0068905
1.0098206
1.0149637
1.0157481
1.0087846
1.0010952
0.9990224
1.0034204
1.0101213
1.012749
1.0079555
0.99846624
0.9904622
0.98915537
0.99405299
1.0022722
1.0077566
1.0065098
0.99952607
0.98947255
0.97784677
0.97000016
0.96906628
0.9733733
0.98062464
0.9897163
0.9980387
1.0025095
1.0015592
0.99504492
0.98435625
0.97377167
0.96826307
0.96999888
0.97835865
0.9885551
0.99229755
0.98740074
0.98009143
0.97703016
0.97886161
0.98018503
0.98025883
0.97340042
0.95068147
0.93797243
0.97310073
0.97521565
0.97202483
0.97374312
0.97944235
0.98749054
0.99518737
0.9996592
0.99917513
0.99361545
0.9835875
0.97115497
0.96247002
0.96078698
0.96685354
0.97884085
0.98840759
0.98742205
0.97454918
0.96471199
0.96636589
0.97547375
0.9794015
0.97387551
0.95927451
0.9465588
0.94795695
0.9859824
0.98443147
0.98406913
0.98569076
0.99006252
0.99513523
0.99906137
0.9995144
0.99590342
0.98871596
0.97907536
0.97023147
0.96407457
0.96514965
0.97239316
0.98234336
0.98621893
0.97897311
0.96084306
0.95229593
0.95872078
0.97280165
0.97745879
0.96378789
0.94387993
0.94136841
0.95695882
0.99126382
0.99785478
0.99733354
0.99519417
0.99574525
0.99728002
0.99807947
0.99727002
0.99492559
0.99155141
0.98774884
0.98279013
0.97805675
0.97882315
0.98224552
0.98512107
0.98254134
0.97237824
0.95698371
0.94885838
0.95607841
0.97158316
0.97351013
0.95102556
0.93393111
0.94136025
0.95996443
0.97781811
1.0003868
0.99661579
0.99186947
0.99072187
0.99082663
0.9919031
0.99432578
0.99780465
1.0010141
1.0022983
1.0004732
0.9954675
0.99181669
0.98815171
0.98496684
0.98013853
0.97426461
0.96567905
0.95655253
0.96057947
0.97075918
0.96589536
0.94093372
0.93172298
0.94635427
0.95762847
0.95004985
0.987493
0.98170973
0.97629199
0.97536869
0.97753954
0.98303776
0.99175313
1.0017459
1.0090719
1.0118452
1.0090834
1.0006231
0.99007975
0.98278962
0.97930908
0.97999943
0.98398582
0.98198681
0.97202865
0.9681446
0.96616929
0.95506745
0.93727053
0.93545454
0.95257195
0.95333627
0.91865971
0.97186234
0.965082
0.96131821
0.96246703
0.96801706
0.97756836
0.98990189
1.0008444
1.0066475
1.0052988
0.99772521
0.98417598
0.97181456
0.96656238
0.96988646
0.98038335
0.99285625
0.99799714
0.98708805
0.97010016
0.95599349
0.947425
0.94038909
0.94230008
0.95879213
0.94433353
0.89814069
0.9641899
0.96035073
0.95836051
0.96215928
0.97000199
0.98047406
0.99076413
0.99599232
0.99396209
0.98464206
0.97032338
0.955289
0.94620192
0.94773203
0.95872284
0.97629498
0.99345994
1.0006008
0.98578197
0.9598418
0.9452752
0.94561218
0.94894929
0.95060949
0.95920137
0.9315245
0.8890473
0.97302732
0.97139073
0.96998782
0.97314053
0.97889491
0.98603781
0.99061458
0.98932018
0.98191422
0.96934725
0.95378898
0.93911807
0.93120779
0.93631889
0.9503342
0.96778872
0.98237281
0.98462588
0.96495371
0.94049737
0.93375982
0.9478498
0.96058846
0.95807119
0.94947134
0.91638798
0.88930212
0.99140946
0.98897249
0.98455996
0.98454311
0.98624755
0.9884137
0.98828268
0.98502943
0.97833885
0.9689709
0.95743015
0.9465668
0.93869638
0.94069548
0.94876841
0.95665506
0.95920135
0.95239128
0.93501259
0.91856537
0.92362421
0.94816505
0.97059071
0.96069596
0.93124927
0.90239384
0.8960293
0.99865566
0.99422299
0.98686523
0.98517282
0.98457542
0.9844877
0.98497635
0.98492772
0.98416272
0.98143143
0.97605664
0.96748433
0.95779481
0.95302635
0.94916045
0.94375805
0.93651379
0.92627798
0.91296219
0.90306978
0.9143464
0.94488008
0.97028584
0.9502853
0.90962278
0.89631061
0.90655205
0.98601129
0.97752707
0.97026194
0.96752585
0.96769063
0.97079445
0.97660981
0.98505859
0.99359971
0.99835154
0.99682579
0.98882214
0.97398544
0.95867391
0.9461992
0.93575491
0.92589979
0.91687983
0.9080191
0.90007647
0.90954387
0.93536424
0.95234536
0.92669302
0.89376724
0.89945573
0.92103786
0.96242935
0.95354189
0.94492408
0.94126226
0.94371908
0.95144692
0.96514606
0.9827673
0.99802847
1.0055902
1.0033544
0.99217221
0.97200303
0.95194939
0.93911688
0.9313197
0.92579729
0.92398223
0.9195034
0.91210325
0.91155942
0.91902996
0.91980635
0.90042605
0.88527739
0.90755211
0.93597578
0.94422334
0.93414916
0.92540128
0.92423116
0.93114764
0.94386696
0.96115943
0.9783873
0.98862455
0.98918547
0.97993078
0.96213627
0.94234806
0.92833611
0.9233417
0.92353739
0.92817722
0.93512587
0.9384712
0.9300922
0.91291847
0.89901026
0.8894434
0.8826915
0.88306752
0.91468512
0.9432019
0.93698331
0.92813721
0.92178085
0.92372894
0.93232242
0.94524442
0.95953937
0.9691799
0.96904055
0.95798031
0.93913368
0.91700285
0.89821902
0.89018692
0.8931886
0.90416931
0.92155855
0.93938879
0.95111931
0.94200485
0.91257415
0.88746054
0.8731666
0.87482566
0.88231878
0.91670151
0.93010678
0.94736574
0.93858805
0.93220279
0.93360402
0.93894553
0.94657088
0.95400348
0.95628169
0.94983702
0.93342031
0.91139318
0.88734803
0.86674204
0.8569132
0.86229128
0.87900892
0.90432632
0.93035048
0.94746787
0.94204608
0.91321904
0.88724589
0.8719382
0.87691279
0.88328906
0.90275032
0.89575852
0.96552139
0.95534407
0.94602905
0.9431006
0.94344869
0.94585393
0.94771388
0.94516435
0.93560512
0.9185783
0.89668082
0.87201101
0.85040866
0.83907931
0.84358554
0.86111349
0.88609016
0.91155704
0.92996665
0.93049332
0.91293953
0.89193785
0.88161202
0.88591183
0.88169952
0.87274453
0.85327594
0.97302666
0.96163487
0.94846696
0.94066764
0.93824897
0.93873389
0.93914934
0.93627637
0.92620013
0.90872667
0.88564406
0.86088113
0.84127913
0.83338583
0.83892872
0.85410622
0.8741425
0.89254583
0.90530192
0.90975416
0.90293462
0.89456508
0.89161118
0.89224803
0.87415046
0.84114128
0.82115204
0.96202878
0.94609294
0.92616825
0.91573545
0.91379212
0.91655154
0.92176951
0.92450098
0.92062526
0.90795054
0.88802735
0.86562716
0.84686558
0.83825999
0.84313155
0.85447032
0.8677053
0.87724418
0.88033544
0.88092
0.88058609
0.88511564
0.89271004
0.89149548
0.86321449
0.82203234
0.80420143
0.93381361
0.90976753
0.88379918
0.8722986
0.87323434
0.88081836
0.89496547
0.91003728
0.91835296
0.91728628
0.90605085
0.88764894
0.86774722
0.8547016
0.8530713
0.85760726
0.86239899
0.86156728
0.85465047
0.84879964
0.85091334
0.86567361
0.8826502
0.88515128
0.85677755
0.81658386
0.79854173
0.89607133
0.86870309
0.84304456
0.83433818
0.83955748
0.85288884
0.87406983
0.89717267
0.91509941
0.92311182
0.91965349
0.90473549
0.88419666
0.86938938
0.8638377
0.86056211
0.85469983
0.84348417
0.82968677
0.82078593
0.82360303
0.84294721
0.86561288
0.87458184
0.85420603
0.82043053
0.80146795
0.85963917
0.8315428
0.8084933
0.80316109
0.81021779
0.8295257
0.85594461
0.88239695
0.90063904
0.90744215
0.90193236
0.88547236
0.87017113
0.86597758
0.86607066
0.86078773
0.84599339
0.826159
0.80728239
0.79831173
0.80303303
0.82236374
0.84522554
0.858856
0.85007672
0.82602494
0.80818282
0.82506236
0.79808049
0.77435539
0.77177131
0.78124791
0.80630119
0.83882128
0.86462316
0.87439908
0.87007719
0.8523814
0.83515309
0.83250701
0.84529429
0.85771257
0.85618943
0.83884001
0.81255776
0.79001589
0.78151693
0.78890404
0.80519143
0.8217417
0.8370508
0.84047565
0.82983382
0.81500591
0.79528562
0.7676203
0.74514502
0.74763553
0.76295337
0.79199795
0.82520793
0.84729579
0.84933768
0.83402837
0.80889734
0.79305966
0.79893292
0.82132116
0.8423644
0.84748926
0.83185914
0.80363103
0.78030394
0.77167011
0.77821018
0.7885812
0.797526
0.81010407
0.82554722
0.83001019
0.82165898
0.77587113
0.75159306
0.73904125
0.74659261
0.76762889
0.79746517
0.8246481
0.83754682
0.83367374
0.81265558
0.78702931
0.77195822
0.77660759
0.80062159
0.8272223
0.83787636
0.82652457
0.80054068
0.77781056
0.76671105
0.76719019
0.77197053
0.7722662
0.78231499
0.8058396
0.82500416
0.82507515
0.76836097
0.75307647
0.74980333
0.76049458
0.7829115
0.80765026
0.82353156
0.82622082
0.81446032
0.79320564
0.77196382
0.75998899
0.76378528
0.7879715
0.81467096
0.82957117
0.82245445
0.80078024
0.77757671
0.7620491
0.75508796
0.75421477
0.75038887
0.75511674
0.78212759
0.81040738
0.82098891
0.76644199
0.75580896
0.75581331
0.76751965
0.78735706
0.80286152
0.80776811
0.80230982
0.78757489
0.76977725
0.75507467
0.74758858
0.75504752
0.77786034
0.80479315
0.82040051
0.81714909
0.79928437
0.77500834
0.75555509
0.74366114
0.73605659
0.73255224
0.73289567
0.7527986
0.78491854
0.80604497
0.75725092
0.74565603
0.7462847
0.75850913
0.77388133
0.78149216
0.78037018
0.77026132
0.75629626
0.74245224
0.73333798
0.73078939
0.74115808
0.76216342
0.78976235
0.80514498
0.80554571
0.79178335
0.76867044
0.74635555
0.72986475
0.71854838
0.71555578
0.71386297
0.72395327
0.75024791
0.77998501
0.73501634
0.72099943
0.72341323
0.73680036
0.74930296
0.75379228
0.75050137
0.73950606
0.72561761
0.71293359
0.70572889
0.70501953
0.71449231
0.73413924
0.75956991
0.78053589
0.78713556
0.77840466
0.75703981
0.73366917
0.71425326
0.70088376
0.69595656
0.69491095
0.6981601
0.71542463
0.74641849
0.69869123
0.68503568
0.69058652
0.7066182
0.72047564
0.72600045
0.7242549
0.71310789
0.69774313
0.6825777
0.6724804
0.66688738
0.67050282
0.68745289
0.71662536
0.74716038
0.76353695
0.75998523
0.74148885
0.71617141
0.69544639
0.68247478
0.67592654
0.67446523
0.67466392
0.68639197
0.71375717
0.65244794
0.64312533
0.65274681
0.67313185
0.68971539
0.69852002
0.69862887
0.68845557
0.67140301
0.65263846
0.63486411
0.62334844
0.61827547
0.62878173
0.66166078
0.70613131
0.73590639
0.73906011
0.72124867
0.69451361
0.67234083
0.65968559
0.65282053
0.65055742
0.6484639
0.66016095
0.68614146
0.59876496
0.59510979
0.61165435
0.63615597
0.65524884
0.66609645
0.66894047
0.66252836
0.64605227
0.62570975
0.60335723
0.58441015
0.5712666
0.57288908
0.60746508
0.66622851
0.70874618
0.71612652
0.69656241
0.66594302
0.64175555
0.62981893
0.62212426
0.61948713
0.61679313
0.6314614
0.66081225
0.54505224
0.55146088
0.57610806
0.60286985
0.62278148
0.63364805
0.63745966
0.63621589
0.62570507
0.60822116
0.58292928
0.55857288
0.54263833
0.54104342
0.57880551
0.64616811
0.6893359
0.69248564
0.66701561
0.63226051
0.60649142
0.59456779
0.58663857
0.58323937
0.57965275
0.59910173
0.63646719
0.5086822
0.52472316
0.55625215
0.58477105
0.60228741
0.60968234
0.61156388
0.61167139
0.60811604
0.59879054
0.57593801
0.55301965
0.53362435
0.54118422
0.58199619
0.64582696
0.67793456
0.66919545
0.63658978
0.60077508
0.5771184
0.5641112
0.55334989
0.55037098
0.54892949
0.57495173
0.61821874
0.48244387
0.50271089
0.53670077
0.56308243
0.57707549
0.58221696
0.58524192
0.5883985
0.58892056
0.58172837
0.56652572
0.54976178
0.53478804
0.54910643
0.59637017
0.65251652
0.67012573
0.65382825
0.61934982
0.58616674
0.56327671
0.54717445
0.53461923
0.53088495
0.53207069
0.55727991
0.59252727
0.44544316
0.46644433
0.50157911
0.53014696
0.54835469
0.55852589
0.56431977
0.56656303
0.56171108
0.54757316
0.53091467
0.52027972
0.51375914
0.54557729
0.60814775
0.66127493
0.66977575
0.64979775
0.61694457
0.587158
0.56501396
0.54824474
0.53318672
0.52521337
0.52111959
0.53740402
0.54783842
0.39329892
0.41300667
0.44811915
0.48396748
0.5176556
0.5465884
0.56714746
0.57351719
0.56102889
0.53356135
0.50723801
0.4875183
0.48632371
0.53031329
0.59939372
0.65258804
0.66446783
0.64821872
0.62168609
0.59813304
0.57910745
0.56389026
0.54698804
0.53059394
0.51778023
0.5212301
0.5131583
0.34526767
0.35720809
0.38231667
0.41773552
0.46175437
0.50602614
0.5435272
0.56712468
0.57118228
0.558314
0.53960553
0.52710097
0.53538462
0.56869036
0.60781896
0.63681643
0.64542094
0.63644681
0.6192142
0.60464968
0.59679191
0.5892647
0.57606558
0.55718346
0.5383744
0.53259383
0.51324471
0.31470806
0.31976746
0.33242689
0.3466784
0.36062704
0.37379949
0.38790305
0.40249
0.41738252
0.44039934
0.4625248
0.48560715
0.51057765
0.53560269
0.55915408
0.5781056
0.58895347
0.59402638
0.59502998
0.59561723
0.59806467
0.60089439
0.59947775
0.58970345
0.5766917
0.56526752
0.53890039
0.3596031
0.35457686
0.34636929
0.33662064
0.32839233
0.32382945
0.32237295
0.32424765
0.32878938
0.33581512
0.34628734
0.35943553
0.37439259
0.39189064
0.41399597
0.44215537
0.47643415
0.51191396
0.54469164
0.57331379
0.59383817
0.60625174
0.61003819
0.60895559
0.61109298
0.60476133
0.569888
0.41726595
0.39172083
0.36336613
0.34064222
0.32476948
0.31642776
0.31381849
0.31457746
0.31760536
0.3218832
0.32590234
0.32985173
0.33439381
0.34116649
0.35383212
0.37779828
0.41546429
0.46378756
0.51558089
0.56116109
0.59504621
0.6162094
0.62839077
0.63703125
0.63857723
0.62270218
0.57985897
0.40421312
0.36380999
0.32946282
0.31187931
0.3070704
0.308806
0.31309531
0.31783972
0.32332532
0.33035962
0.33940743
0.34956322
0.35951387
0.36943408
0.38244645
0.40382771
0.43711728
0.48130316
0.53151603
0.58011203
0.61878674
0.64254188
0.65362635
0.65559396
0.64442243
0.61692037
0.57510912
0.3416371
0.30268861
0.28824823
0.29073682
0.30047754
0.31090862
0.32024028
0.32962971
0.34112134
0.35563662
0.37386682
0.39392698
0.41253864
0.42818557
0.4430673
0.46191586
0.48847736
0.52411079
0.56587168
0.60587535
0.63660043
0.65532843
0.66056028
0.65481246
0.63656499
0.60710181
0.56952747
0.26657373
0.26615073
0.28009671
0.29834238
0.31445967
0.32712302
0.33783269
0.34896602
0.36340943
0.38287911
0.40796142
0.43399945
0.45650587
0.47505272
0.4929552
0.51310499
0.53533102
0.56054256
0.58904067
0.61792604
0.64202201
0.65592285
0.65883974
0.64993889
0.62964194
0.60003493
0.5624076
0.25811523
0.27588397
0.29982977
0.32230101
0.33975534
0.35240955
0.36270671
0.37343487
0.38830583
0.40846662
0.43313999
0.45898994
0.48060386
0.49895333
0.51730951
0.53765509
0.55801886
0.57854103
0.60057497
0.62388526
0.64468598
0.6570585
0.65783583
0.64620617
0.62104068
0.58752488
0.54946389
0.28194246
0.30540726
0.32910555
0.34944339
0.36625033
0.37909636
0.38951629
0.40066864
0.41493528
0.43405534
0.45670148
0.47991311
0.4998104
0.51616532
0.53202809
0.54973256
0.56833568
0.58774641
0.60801133
0.62994403
0.64895269
0.65947049
0.65820913
0.64234034
0.61182711
0.5734101
0.53302231
0.3085586
0.3283714
0.34813758
0.36576791
0.38190608
0.39596272
0.40943126
0.42456143
0.44132043
0.46055211
0.48176547
0.50083491
0.5175251
0.53108439
0.54383181
0.55738037
0.57195145
0.58847591
0.60707758
0.62719096
0.64546705
0.65605944
0.65424143
0.63451318
0.59869676
0.55494593
0.5140701
0.31929787
0.33678965
0.35467595
0.37067638
0.38656713
0.40324024
0.42122813
0.44096717
0.46130202
0.48099385
0.4994617
0.51523731
0.52737056
0.5367825
0.5451763
0.5541863
0.56440952
0.57658838
0.59152143
0.60844088
0.62398971
0.63151787
0.62517691
0.60294697
0.56767401
0.52545557
0.48686013
0.32679889
0.34363479
0.36113745
0.37749487
0.39452332
0.41197433
0.42949708
0.44784505
0.46696095
0.48548282