/*--------------------------------*- C++ -*----------------------------------*\
| =========                 |                                                 |
| \\      /  F ield         | OpenFOAM: The Open Source CFD Toolbox           |
|  \\    /   O peration     | Version:  2406                                  |
|   \\  /    A nd           | Website:  www.openfoam.com                      |
|    \\/     M anipulation  |                                                 |
\*---------------------------------------------------------------------------*/
FoamFile
{
    version     2.0;
    format      ascii;
    arch        "LSB;label=32;scalar=64";
    class       volVectorField;
    location    "12";
    object      U_0;
}
// * * * * * * * * * * * * * * * * * * * * * * * * * * * * * * * * * * * * * //

dimensions      [0 1 -1 0 0 0 0];

internalField   nonuniform List<vector> 
62344
(
(0.095941878 0.00061179899 -1.4281297e-21)
(0.090285044 0.0015348457 -7.4325783e-22)
(0.098724395 0.0031769313 -1.5464721e-21)
(0.097285769 0.0043892786 8.0405476e-22)
(0.093559216 0.0056712297 0)
(0.089529895 0.0063831803 3.5055358e-21)
(0.088337625 0.0074275544 -3.6351126e-21)
(0.092111296 0.0076237112 1.8910055e-21)
(0.097781081 0.0081157866 0)
(0.099949955 0.0073175218 0)
(0.098599854 0.0088905484 8.5321943e-21)
(0.096263132 0.01167061 -1.8323158e-20)
(0.093249629 0.013087961 5.3534194e-22)
(0.092045256 0.015434616 1.9813452e-20)
(0.092898496 0.01491851 -9.9974597e-21)
(0.094973455 0.015929279 9.7280321e-21)
(0.098804634 0.014749002 -1.0870167e-20)
(0.10113113 0.015826187 0)
(0.10121068 0.015150924 0)
(0.10008597 0.012899227 -7.5590664e-22)
(0.098703527 0.015035178 -3.9311518e-22)
(0.095971913 0.010949953 4.1048018e-22)
(0.091555451 0.012691974 8.5599702e-22)
(0.088401176 0.019257008 -2.8706992e-20)
(0.081799348 0.023953805 2.9667973e-20)
(0.075455739 0.026030566 0)
(0.07440833 0.0292001 0)
(0.069259689 0.035875905 -2.6275051e-22)
(0.067841398 0.033042751 -3.4609807e-20)
(0.073658198 0.027562009 3.6715943e-20)
(0.075978795 0.027995542 3.7940116e-20)
(0.077327936 0.024104729 -3.9267356e-20)
(0.075067498 0.019402205 -3.170809e-22)
(0.067402964 0.024750016 4.2311929e-20)
(0.07021769 0.026888895 -4.3760843e-20)
(0.082663728 0.019005857 -3.5643813e-22)
(0.088053305 0.012848897 -4.7652952e-20)
(0.080317482 0.01750543 9.7753737e-20)
(0.069332652 0.025795306 -1.0205887e-19)
(0.062608714 0.02884907 -3.0400748e-22)
(0.064302294 0.026353492 2.727682e-22)
(0.076695312 0.015114276 1.1388533e-19)
(0.092253989 -0.0056226651 -5.9771486e-20)
(0.10058216 -0.027840525 0)
(0.10327328 -0.040769936 -6.2668972e-20)
(0.10751938 -0.039266956 1.2823111e-19)
(0.10634787 -0.025500391 1.4070665e-21)
(0.093959974 -0.0076088744 -1.4220588e-19)
(0.070001838 0.0077293096 7.2799344e-20)
(0.051150245 0.011616945 0)
(0.057926914 0.0015210621 0)
(0.092310392 -0.018650923 7.8491935e-20)
(0.13136786 -0.034975824 -8.7824547e-20)
(0.15569332 -0.04405283 -1.7128522e-22)
(0.13105844 -0.042541172 -9.0924339e-20)
(0.096052235 0.00080175255 -7.5347831e-22)
(0.09019709 0.00074176356 7.8472969e-22)
(0.098504801 0.0022591218 2.4481309e-21)
(0.09726531 0.0033269917 -2.5469636e-21)
(0.09361829 0.0037807558 0)
(0.089548873 0.0048339432 3.6982469e-21)
(0.088294986 0.0057838812 -4.7964988e-21)
(0.091632947 0.0062026875 -4.9780276e-21)
(0.097372675 0.0071912179 5.2132193e-21)
(0.10018781 0.0074440314 0)
(0.098571378 0.0071699791 0)
(0.096043788 0.0086662496 5.8588227e-22)
(0.09318816 0.010823357 -6.1014538e-22)
(0.091806618 0.011956812 8.8671443e-21)
(0.09276776 0.012682972 -1.0561909e-20)
(0.09471029 0.012056386 0)
(0.097787422 0.012456101 0)
(0.10030399 0.014321111 0)
(0.10186989 0.014510115 1.2325312e-20)
(0.099996877 0.01261944 4.2490667e-22)
(0.098705729 0.015302108 -1.8943495e-23)
(0.097968408 0.014712998 -4.2242975e-20)
(0.092052593 0.01179623 2.8317726e-20)
(0.086800479 0.01289115 0)
(0.081739294 0.021692425 3.1620163e-20)
(0.07610842 0.023478461 1.7421318e-22)
(0.072816097 0.024358062 -6.8118384e-20)
(0.068972326 0.031200085 3.5649055e-20)
(0.069581543 0.028314577 -2.8721558e-22)
(0.073187373 0.023812149 -3.8396955e-20)
(0.075117987 0.025830717 3.9679799e-20)
(0.079502294 0.023857314 3.2283399e-22)
(0.077030457 0.021414566 -4.2921053e-20)
(0.06613035 0.025823343 8.8861606e-20)
(0.066283018 0.025866773 -4.6488488e-20)
(0.078616398 0.020920189 3.7374414e-22)
(0.083792399 0.019703031 0)
(0.076834419 0.02455402 0)
(0.067697202 0.030139727 2.1267747e-22)
(0.060465282 0.031261891 5.676331e-20)
(0.060452606 0.024441439 -1.1695051e-19)
(0.075341391 0.010345526 6.1974162e-20)
(0.096019845 -0.0058686709 6.19993e-20)
(0.10396086 -0.016437819 -1.2885521e-19)
(0.094374463 -0.015364226 6.554129e-20)
(0.082857507 -0.0041624416 0)
(0.081643112 0.009592425 0)
(0.090499979 0.014657304 0)
(0.098220476 0.0053849451 1.488657e-22)
(0.096411461 -0.016857948 -1.5206364e-22)
(0.087039937 -0.038524915 0)
(0.085997893 -0.051454309 3.7312904e-25)
(0.10206362 -0.04887771 -1.7457943e-22)
(0.12960897 -0.042955626 2.6646649e-22)
(0.14288313 -0.028011474 -9.5815588e-23)
(0.095719959 0.0007550512 7.9542785e-22)
(0.089934455 0.0015800095 -8.2771571e-22)
(0.098138618 0.0021267702 -8.6018525e-22)
(0.097103836 0.003607605 8.9737417e-22)
(0.093434321 0.0038265616 -9.3581849e-22)
(0.089201106 0.0051961527 9.7567232e-22)
(0.087851548 0.006836677 2.0281276e-21)
(0.091274994 0.0077880123 0)
(0.096940763 0.0071037513 3.2893338e-21)
(0.099892592 0.0077544989 -5.1293432e-21)
(0.098484784 0.0080873783 0)
(0.095581093 0.009209957 -6.1885582e-22)
(0.092660332 0.012410933 -2.9440606e-26)
(0.091665102 0.013564657 2.0856243e-24)
(0.092696864 0.013657936 1.1120287e-20)
(0.094597478 0.012928707 -1.0894708e-20)
(0.097291778 0.014537602 0)
(0.099735766 0.014718148 0)
(0.10202489 0.014054379 0)
(0.10052382 0.014698488 0)
(0.098618935 0.013313898 0)
(0.099102372 0.01443603 1.509716e-20)
(0.094391881 0.012879094 -1.51935e-20)
(0.08577081 0.011330226 -4.9789311e-22)
(0.079266807 0.021069111 5.2196559e-22)
(0.076543368 0.025314005 0)
(0.072211811 0.023714221 0)
(0.068113582 0.028777102 2.9281858e-22)
(0.070909434 0.026736683 3.0401753e-22)
(0.073485379 0.023391119 0)
(0.074214312 0.023585377 0)
(0.080082774 0.020768879 -4.3825081e-20)
(0.078912513 0.021579706 9.0435078e-20)
(0.06862177 0.027531303 -4.6537551e-20)
(0.068692288 0.025271473 -1.9115693e-22)
(0.079706775 0.016773816 5.0487866e-20)
(0.084475649 0.012957889 -5.2767064e-20)
(0.076261549 0.016325247 0)
(0.066380817 0.023239609 1.3360592e-24)
(0.06268253 0.026885699 0)
(0.064126945 0.018197743 6.1507254e-20)
(0.072093244 0.0032490215 -6.4834363e-20)
(0.085850995 -0.0050890695 -6.5807929e-20)
(0.093170547 -0.0020126366 6.786809e-20)
(0.084922634 0.0089712602 -1.2461161e-24)
(0.068073158 0.017038589 0)
(0.058995651 0.016689398 0)
(0.068502416 0.0091933277 -1.553881e-22)
(0.089640219 -0.0036360213 -8.183573e-20)
(0.10679644 -0.019474211 8.6232535e-20)
(0.10649966 -0.029923079 0)
(0.092230944 -0.037023418 9.2695977e-20)
(0.083450646 -0.036592454 -9.2460166e-20)
(0.089694105 -0.029187512 9.6418648e-20)
(0.10369298 -0.016121448 -1.0263844e-19)
(0.095644872 0.00019642765 -4.1816404e-22)
(0.089860516 0.0016296025 -1.3094614e-21)
(0.098019802 0.0013282156 2.7235793e-21)
(0.096978657 0.0020974412 -1.8925341e-21)
(0.093465256 0.0029154611 -2.9758977e-21)
(0.089066668 0.0036139431 3.0780127e-21)
(0.087578679 0.0048186844 -5.3473533e-21)
(0.091141195 0.0055588679 8.8999325e-21)
(0.096858028 0.0045715484 -5.2263587e-21)
(0.099728708 0.0046888338 1.2016396e-21)
(0.098414853 0.0056525335 6.2629863e-22)
(0.095245717 0.0072559278 1.048874e-20)
(0.092239343 0.010206416 -9.4951037e-21)
(0.091437623 0.011243841 1.2012218e-20)
(0.092705059 0.011384473 -5.2595298e-24)
(0.09404302 0.011194146 -2.5223256e-20)
(0.096781546 0.01430269 1.2345259e-20)
(0.10016357 0.013426307 -4.1372781e-22)
(0.10215587 0.011419453 1.3732757e-20)
(0.10124809 0.014806013 -1.3780979e-20)
(0.099217542 0.010930273 0)
(0.099220483 0.010630546 0)
(0.096403924 0.012328372 -1.5686584e-20)
(0.086297248 0.012436353 1.7239266e-20)
(0.077208151 0.018928339 1.6944354e-20)
(0.076511524 0.023716924 -1.8339535e-20)
(0.072912544 0.023004857 -1.9118923e-20)
(0.067550546 0.026451546 1.9360171e-20)
(0.070946275 0.025290218 0)
(0.074132296 0.024102072 0)
(0.07475754 0.022327442 0)
(0.079447543 0.016713704 0)
(0.076609234 0.02068647 0)
(0.067575728 0.028978502 0)
(0.069814003 0.027420416 2.0240205e-22)
(0.08129234 0.018718633 -5.3342452e-20)
(0.085048688 0.014146996 5.5484919e-20)
(0.075388921 0.017702573 2.2540981e-22)
(0.063858392 0.024401487 -4.7311069e-22)
(0.063518581 0.027913944 6.2236474e-20)
(0.072268875 0.020010741 -6.5669136e-20)
(0.079206859 0.0054926455 6.7335541e-20)
(0.081254938 -0.00024509793 -6.9864992e-20)
(0.08044436 0.0076801893 7.2656028e-20)
(0.077571779 0.020083533 -1.5177304e-19)
(0.073665679 0.021979486 -6.0525927e-22)
(0.068708073 0.010290511 7.2130141e-23)
(0.070440088 -0.0072192622 1.2628851e-21)
(0.080607384 -0.020367509 1.8065944e-21)
(0.093671097 -0.022743851 1.3521167e-21)
(0.10012534 -0.018853644 9.3851737e-20)
(0.093654144 -0.016941508 0)
(0.078114133 -0.016951191 1.0154136e-19)
(0.065066359 -0.016217541 1.8233812e-21)
(0.066313916 -0.016135609 -1.0908688e-19)
(0.095454098 -2.7827998e-05 8.854435e-22)
(0.089665019 0.0013825099 9.2177387e-22)
(0.097986127 0.001432253 9.5746213e-22)
(0.096860924 0.0012040043 0)
(0.093298335 0.0025106488 0)
(0.088897512 0.0033686621 0)
(0.087314093 0.0042704681 -5.6476105e-22)
(0.090899664 0.0045099266 4.6837942e-21)
(0.096700735 0.0039622281 -4.2909929e-21)
(0.099452276 0.0043249585 -6.3414993e-22)
(0.098051062 0.0051085033 -5.2981808e-21)
(0.094788946 0.0068926156 5.496283e-21)
(0.091809808 0.0086672138 -1.2212832e-20)
(0.091184944 0.0095592878 1.1917689e-20)
(0.092685424 0.011096535 0)
(0.093494455 0.010988739 0)
(0.096189897 0.012389873 8.399481e-22)
(0.10052931 0.011362894 4.3644736e-22)
(0.10189544 0.010940725 -1.4493615e-20)
(0.10164363 0.013525429 1.4551071e-20)
(0.10057741 0.0098588443 0)
(0.099450644 0.0075631298 0)
(0.096784781 0.0096763524 -5.298594e-22)
(0.086720937 0.013938615 0)
(0.076111184 0.017486857 -1.8172877e-20)
(0.075615227 0.019385415 1.9358284e-20)
(0.072798562 0.022234271 0)
(0.067266561 0.025228787 0)
(0.070455036 0.023415714 0)
(0.074036258 0.024275736 0)
(0.076820476 0.022196441 0)
(0.080615645 0.015053727 0)
(0.075305251 0.019050957 -1.9704235e-22)
(0.066642585 0.026447979 -2.0577218e-22)
(0.070719545 0.024101243 0)
(0.083134225 0.016542413 -2.2081465e-22)
(0.087125738 0.014010513 2.9434177e-20)
(0.077156966 0.017454885 -3.0423332e-20)
(0.063179116 0.022580026 2.5038459e-22)
(0.062090624 0.022888489 2.5944947e-22)
(0.074492926 0.01541861 0)
(0.083255136 0.0052497866 2.797486e-22)
(0.078738417 0.0026094971 1.2274462e-25)
(0.070042731 0.0091324704 7.7115958e-20)
(0.068565494 0.015837446 -4.5134033e-22)
(0.075871818 0.0145994 -8.3372068e-20)
(0.082131369 0.0036685226 -1.7079526e-22)
(0.080615277 -0.010439823 0)
(0.074920619 -0.01725232 -1.8033917e-22)
(0.073811508 -0.014276845 -1.8723755e-22)
(0.08008485 -0.0062220755 9.8107752e-20)
(0.086420681 0.00078008333 -1.03364e-19)
(0.085689131 0.0018664177 1.0459838e-22)
(0.074058678 -0.00081708878 -2.4315574e-24)
(0.067711151 -0.012174893 -1.140705e-22)
(0.095447756 5.7164676e-05 0)
(0.089526696 0.00053660094 0)
(0.097989279 0.0012067073 -1.0103489e-21)
(0.096879006 0.00060777655 0)
(0.093240424 0.0010151257 2.2050828e-21)
(0.088795546 0.0021857076 -1.7126547e-21)
(0.087171152 0.003243449 5.9589195e-22)
(0.09068567 0.0037410671 0)
(0.096482036 0.0034099209 6.4395267e-22)
(0.099380756 0.0043425108 0)
(0.097916866 0.0048732956 -6.9592814e-22)
(0.094708789 0.0061982015 -5.1001635e-21)
(0.091710786 0.0071377312 1.2114703e-20)
(0.090729948 0.0082703915 -6.2744214e-21)
(0.092233926 0.010166161 0)
(0.09346562 0.011494881 0)
(0.096157147 0.0097318713 -7.6956945e-25)
(0.10031813 0.0085205455 -4.5956638e-22)
(0.10153568 0.011555016 0)
(0.10200425 0.010688899 0)
(0.10197305 0.0088572078 5.1736024e-22)
(0.10037981 0.0055667813 1.6732418e-20)
(0.096306423 0.0058877668 -3.6287561e-20)
(0.086743298 0.013576875 1.8954242e-20)
(0.07683433 0.016528158 1.9225037e-20)
(0.074988307 0.014843895 -2.0332408e-20)
(0.071785175 0.020677135 -2.1194468e-20)
(0.067407458 0.023866383 2.1911592e-20)
(0.069929753 0.020480994 -2.2776699e-20)
(0.073187674 0.022157378 4.7483406e-20)
(0.078132027 0.020985582 -2.5148369e-20)
(0.081900846 0.015790812 1.9865097e-22)
(0.074567289 0.020156856 4.1451088e-22)
(0.066109087 0.025187825 4.330207e-22)
(0.070692669 0.020646543 0)
(0.082360776 0.014020617 -2.9531278e-20)
(0.086985431 0.015243847 6.1979012e-20)
(0.079040783 0.021042543 -3.1901043e-20)
(0.065923853 0.0249814 -2.6383908e-22)
(0.063598431 0.021044328 -2.7458258e-22)
(0.076005225 0.012246156 0)
(0.086557925 0.006141096 -3.7744602e-20)
(0.082054838 0.0060758402 -4.4025327e-22)
(0.070745112 0.0091027902 4.0080823e-20)
(0.065018412 0.0097372007 0)
(0.072533938 0.0067128176 0)
(0.085005207 0.001416658 -4.5382962e-20)
(0.088715301 -0.0042787746 4.6984026e-20)
(0.080125347 -0.0076188459 1.5957013e-24)
(0.066980492 -0.0078791299 1.0273625e-19)
(0.061552094 -0.0055904885 -2.0989999e-19)
(0.065987613 0.00083620872 2.1873698e-19)
(0.074538753 0.0053061591 -1.1478702e-19)
(0.079996391 0.0062192564 -1.1625377e-22)
(0.080148881 -0.0030371929 1.1799138e-22)
(0.095415223 0.00032842553 4.9458884e-22)
(0.089384378 0.00023049481 -5.1055129e-22)
(0.097910608 0.0010546317 -2.1318404e-21)
(0.096989691 0.00086716541 2.2203088e-21)
(0.093197022 0.00039498368 2.9052987e-21)
(0.088571381 0.0015792583 -6.0381303e-21)
(0.086864991 0.0027851498 1.8814993e-21)
(0.090428603 0.0039608777 -6.5340434e-22)
(0.096077461 0.003973531 -6.7940202e-22)
(0.099076873 0.004681709 -5.6520693e-21)
(0.097841052 0.0058124136 5.861206e-21)
(0.094480013 0.0069789329 0)
(0.091631223 0.0083029566 0)
(0.09044776 0.0095390138 -4.1446936e-22)
(0.091563629 0.0096281171 -4.3074267e-22)
(0.093390341 0.01283101 7.13586e-21)
(0.096499622 0.0096389655 -2.2830712e-20)
(0.099509078 0.0083672549 1.6497953e-20)
(0.10116457 0.012834924 -1.6039554e-20)
(0.10255 0.0090973062 3.3529561e-20)
(0.10273028 0.0086562608 -5.5215394e-22)
(0.10128487 0.0055037786 -3.6161884e-20)
(0.095864318 0.0044288233 1.9488176e-20)
(0.086059362 0.012604573 1.9861004e-20)
(0.077814822 0.016013303 -2.0544307e-20)
(0.074578917 0.01296841 0)
(0.070146396 0.020404841 -2.2318777e-20)
(0.067698149 0.023381819 2.3155166e-20)
(0.070096929 0.018454093 3.7601686e-22)
(0.071872008 0.018673069 3.918416e-22)
(0.077912511 0.017848669 6.0999536e-22)
(0.082229995 0.015752231 -2.1019865e-22)
(0.07458405 0.021112228 -4.3752465e-22)
(0.067499369 0.023763082 -2.2930189e-22)
(0.072123664 0.01620991 0)
(0.080788807 0.0093814833 0)
(0.083857968 0.012929386 -3.2699157e-20)
(0.078296723 0.021831165 6.8353562e-20)
(0.068744571 0.026725479 -3.4765899e-20)
(0.066476613 0.020335827 -1.4382272e-22)
(0.075330773 0.010377998 0)
(0.084578592 0.0077756269 0)
(0.083008033 0.011375211 -4.1484037e-20)
(0.073764303 0.013897556 4.2406367e-20)
(0.066269483 0.010833324 -4.4835697e-20)
(0.067989075 0.0042983549 4.6615325e-20)
(0.077648035 0.0023896587 1.8898862e-22)
(0.086959098 0.0043892012 -5.0275369e-20)
(0.086689308 0.0056050267 5.1264659e-20)
(0.075883087 0.0031355392 0)
(0.062220026 -0.0011734412 -1.2222543e-24)
(0.056106213 -0.0029853562 -5.7958472e-20)
(0.060966939 -0.0017531793 1.2007637e-19)
(0.071924133 0.00071402155 -1.2524446e-19)
(0.082424902 -0.00094950134 6.5466193e-20)
(0.095427107 0.00052765319 0)
(0.089318627 0.00038705385 1.0812884e-21)
(0.097803631 0.00064719931 -9.387288e-26)
(0.097082897 0.00089806562 -1.1717487e-21)
(0.093286776 0.00049089808 -2.1813819e-25)
(0.088463931 0.0010681373 6.3706296e-22)
(0.086553998 0.0018958232 -1.3203522e-21)
(0.090079985 0.0033490957 3.4482225e-21)
(0.095859715 0.0038687108 0)
(0.09886099 0.0034265869 0)
(0.09769504 0.0049442056 -5.4421858e-21)
(0.094375581 0.0062202921 6.4532657e-21)
(0.091464735 0.0080486329 0)
(0.090454272 0.0093446489 4.3811756e-22)
(0.091063403 0.008058875 4.5411623e-22)
(0.092975442 0.011216913 0)
(0.096654102 0.0085798763 -7.8662342e-21)
(0.098549976 0.0089821867 -5.0934586e-22)
(0.10113898 0.011688664 9.0438232e-21)
(0.10348079 0.008095565 0)
(0.10324191 0.0081230511 1.8423672e-20)
(0.10245499 0.0056923968 -3.8479351e-20)
(0.096145684 0.0046754639 1.9589453e-20)
(0.085647761 0.010687446 -2.1225565e-20)
(0.078950963 0.013532656 2.2050014e-20)
(0.074606989 0.011824297 0)
(0.068507646 0.019588727 0)
(0.068145323 0.022465644 0)
(0.071008323 0.018091692 -3.9589106e-22)
(0.071445827 0.017004159 -4.121447e-22)
(0.076990354 0.014338137 -2.7484682e-20)
(0.081059507 0.014203269 2.8519915e-20)
(0.074186722 0.021573041 2.3119677e-22)
(0.069518923 0.023565526 0)
(0.074732315 0.014534775 0)
(0.080501249 0.0067814918 2.5970066e-22)
(0.079921411 0.010541089 0)
(0.075769984 0.020947168 -2.7943355e-22)
(0.071428812 0.027028981 -3.7601015e-20)
(0.072015645 0.019911723 3.9113466e-20)
(0.077191441 0.0089315724 4.0065149e-20)
(0.082303197 0.0068226394 -4.1759051e-20)
(0.082404799 0.012680827 4.3564793e-20)
(0.07822794 0.015924131 -4.5142398e-20)
(0.073451484 0.011413194 -4.7290467e-20)
(0.070142729 0.0031063363 -2.4234432e-22)
(0.070330821 8.3447964e-05 1.0079333e-19)
(0.076295132 0.0047050004 -5.232948e-20)
(0.083128174 0.010926081 0)
(0.083744028 0.012273687 -5.6516271e-20)
(0.075662109 0.0064812107 1.1695314e-19)
(0.062933137 0.00022387357 -6.1253457e-20)
(0.055573417 -0.0045389298 0)
(0.059134415 -0.004750335 -1.2923724e-22)
(0.072288034 -0.0042255594 6.735571e-20)
(0.095359573 0.00058124624 0)
(0.089279939 0.0010220986 0)
(0.097756926 0.00048389016 0)
(0.097066918 0.00075699454 1.8561211e-21)
(0.093366934 0.0013185799 -3.2161759e-21)
(0.088444006 0.0015882798 2.6923559e-21)
(0.086288324 0.0017641355 -3.4878192e-21)
(0.089685766 0.0026051732 -7.2666827e-22)
(0.095692091 0.0034255008 -7.5599887e-22)
(0.098754699 0.0024036244 -7.0720542e-21)
(0.097470641 0.0038564411 5.7043581e-21)
(0.094182034 0.0051608282 0)
(0.091178169 0.0071978164 7.108822e-21)
(0.090521774 0.0080910172 4.9427236e-25)
(0.090870995 0.0072153859 -1.5799371e-20)
(0.092667844 0.0087312776 7.971807e-21)
(0.096406966 0.0068655754 -5.1746204e-22)
(0.097771128 0.010127398 -5.3908154e-22)
(0.10067931 0.0092013642 -3.5343268e-25)
(0.10369919 0.0085361181 2.9175774e-22)
(0.10383281 0.0082458872 3.038416e-22)
(0.10349329 0.0063522236 3.1490362e-22)
(0.096475374 0.0068428395 0)
(0.085765232 0.0096681563 0)
(0.079777076 0.011280993 -2.330127e-20)
(0.074303397 0.011872232 2.4213233e-20)
(0.067086614 0.018994288 0)
(0.067718811 0.021426406 0)
(0.071675124 0.019232873 0)
(0.072025426 0.018007446 2.1719689e-22)
(0.076830199 0.012435582 0)
(0.079211554 0.012192052 3.0077095e-20)
(0.072641921 0.020718337 -3.1034696e-20)
(0.070904167 0.023040442 2.5406496e-22)
(0.077879725 0.014484121 -3.3866396e-20)
(0.0814519 0.0068056118 3.4686814e-20)
(0.076721882 0.0088994761 0)
(0.071106168 0.018684777 3.7870702e-20)
(0.071108202 0.025178574 -3.9531106e-20)
(0.076409786 0.019427432 1.5964236e-22)
(0.080368757 0.0085801037 4.2951096e-20)
(0.079630427 0.0051256242 -4.3886718e-20)
(0.07760395 0.011021831 0)
(0.078305007 0.016438794 4.7744802e-20)
(0.079538276 0.013308203 -4.939331e-20)
(0.076786456 0.005830052 4.0083559e-22)
(0.069707511 0.0011889177 0)
(0.065777671 0.0040140842 5.5094103e-20)
(0.070713364 0.010785944 -5.7464043e-20)
(0.079982832 0.01536325 5.9676489e-20)
(0.083286017 0.013800337 -6.1610689e-20)
(0.077464524 0.0063462085 -6.46456e-20)
(0.064869455 -0.0011936062 1.3480445e-19)
(0.055628699 -0.0065180787 5.0930768e-22)
(0.05949635 -0.0088692471 -7.505679e-22)
(0.095271966 0.0005099622 -5.7678185e-22)
(0.089253117 0.001392807 -6.0064787e-22)
(0.097783665 0.00044452434 -1.2486869e-21)
(0.097001201 0.00043454529 -3.4216e-24)
(0.093340808 0.0018789542 1.3550909e-21)
(0.088488474 0.0022628645 2.8372599e-21)
(0.086265461 0.0019363961 -2.9400657e-21)
(0.089444404 0.0018041927 7.6544006e-22)
(0.095529808 0.0023077843 3.9818808e-21)
(0.09867616 0.0018744592 -9.1109758e-21)
(0.097358657 0.0029402345 3.9257033e-22)
(0.094070195 0.0042270078 7.1684155e-21)
(0.091074337 0.0056232774 4.6812626e-22)
(0.090510602 0.006077027 0)
(0.090662221 0.0066703378 5.05667e-22)
(0.092473828 0.0066523427 -5.2713176e-22)
(0.095772723 0.0054957073 -9.0697516e-25)
(0.097547852 0.010005399 1.1335764e-21)
(0.10069934 0.0064040364 -5.9017694e-22)
(0.10320495 0.0086089832 9.5504341e-21)
(0.10406595 0.0079254508 -2.0781524e-20)
(0.10399331 0.0059360347 1.0631801e-20)
(0.097241755 0.0081370555 0)
(0.086641156 0.0087545495 -1.1626344e-20)
(0.080163449 0.0090407493 1.1679077e-20)
(0.073882495 0.011681238 -3.9288029e-22)
(0.066065962 0.017561398 -4.0986663e-22)
(0.067010456 0.018603204 0)
(0.071612179 0.018922391 0)
(0.073274034 0.018478009 -2.2904128e-22)
(0.077956327 0.01167515 0)
(0.078076395 0.010493802 0)
(0.07091848 0.018369789 -3.2891452e-20)
(0.07120948 0.021099938 1.2318095e-22)
(0.080246113 0.014932502 7.1457566e-20)
(0.083711539 0.0087450503 -3.7085704e-20)
(0.076181435 0.0087362509 0)
(0.067845659 0.015610831 1.5642436e-22)
(0.069390211 0.021637263 -1.6316214e-22)
(0.07942557 0.0179068 -1.6872099e-22)
(0.085805451 0.0080892433 -4.5033184e-20)
(0.081630521 0.0024733743 4.6358036e-20)
(0.074782819 0.0055038734 0)
(0.075254784 0.011257489 0)
(0.082036411 0.011766475 -2.0440838e-22)
(0.083415068 0.0074893894 -2.1167218e-22)
(0.074888485 0.0041825596 -5.6713074e-20)
(0.06355656 0.0039835617 5.864621e-20)
(0.060263123 0.0061109726 6.0333958e-20)
(0.06904734 0.0096482539 -6.3580255e-20)
(0.081105015 0.011318311 -1.2922466e-22)
(0.085345055 0.008960611 6.7846446e-20)
(0.078055312 0.0029155373 -6.9581215e-20)
(0.064371193 -0.0034130788 0)
(0.05659112 -0.010161999 -7.6557512e-20)
(0.09516945 0.00041653276 9.1287327e-22)
(0.089217889 0.001362598 -3.1519904e-22)
(0.097860395 0.00068537179 6.5755408e-22)
(0.096949007 0.00047961577 6.853365e-22)
(0.093253157 0.0019084694 2.8707035e-21)
(0.08852171 0.002651214 -5.2182648e-21)
(0.086296871 0.0023849664 3.097667e-21)
(0.089291154 0.001705083 0)
(0.095331173 0.0015154976 3.7754528e-21)
(0.098531298 0.0022706695 -3.051942e-21)
(0.097281325 0.0032689982 -9.0747085e-22)
(0.094003622 0.0042806748 0)
(0.090927736 0.0048980534 -9.8644602e-22)
(0.090417835 0.0055595791 5.1317888e-22)
(0.090552484 0.0066473538 -5.3370279e-22)
(0.092398481 0.0061618023 2.793675e-25)
(0.09509119 0.0060515394 -8.6682728e-21)
(0.097404558 0.0095696737 1.8539738e-20)
(0.10074605 0.0051287814 -9.9468364e-21)
(0.10266405 0.0083550161 0)
(0.10439875 0.0071831302 -3.3674531e-22)
(0.10423957 0.0047517119 0)
(0.097886237 0.00775587 -3.6443322e-22)
(0.087642242 0.0080493836 0)
(0.080367374 0.0077455385 2.3011681e-25)
(0.0735734 0.011411493 4.1450722e-22)
(0.065769506 0.015774487 4.3207466e-22)
(0.066164385 0.015332946 1.4249864e-20)
(0.070682693 0.016843342 -9.1923104e-23)
(0.073989932 0.017514941 -1.5488279e-20)
(0.079355067 0.011479128 3.2138376e-20)
(0.077803469 0.010039981 -6.682274e-20)
(0.069438208 0.016104096 3.4708973e-20)
(0.070244003 0.01824504 -2.8284754e-22)
(0.080902403 0.014680505 -2.9250774e-22)
(0.085944684 0.010578116 3.0235845e-22)
(0.077494923 0.0098724638 0)
(0.065609975 0.014322043 1.6539348e-22)
(0.065815745 0.018516814 1.7134765e-22)
(0.078993835 0.016139123 0)
(0.089542019 0.0083320651 -3.6836645e-22)
(0.085119075 0.00231476 0)
(0.074052368 0.0024863237 1.9948022e-22)
(0.070708072 0.0060080785 -5.2581814e-20)
(0.078520548 0.0092717316 5.5671452e-20)
(0.085725562 0.0099402013 0)
(0.081276159 0.0084895451 -1.1431912e-22)
(0.069471804 0.0060384703 0)
(0.059466621 0.0019574387 6.4805461e-20)
(0.0599218 0.0011953392 -6.693381e-20)
(0.070968322 0.0037998705 1.3455746e-22)
(0.082097562 0.0073883386 0)
(0.085113987 0.0063601834 -7.2333713e-23)
(0.077151542 0.001179842 0)
(0.065928963 -0.0069856349 7.9723733e-23)
(0.095102374 0.00031510367 -3.2147982e-22)
(0.089155254 0.00093610296 9.9879261e-22)
(0.09788313 0.00091217731 -6.9248275e-22)
(0.096917301 0.00088474171 1.4476003e-21)
(0.09322273 0.0014808733 -2.2593748e-21)
(0.088540085 0.0024401408 1.5000647e-25)
(0.086334227 0.0025505122 -3.266032e-21)
(0.089257045 0.0020513922 3.4034465e-21)
(0.095104608 0.0013819149 3.0934837e-21)
(0.098303726 0.002661944 -7.8139941e-21)
(0.097200991 0.0038407591 4.5864675e-22)
(0.094090893 0.0046397927 3.9806883e-21)
(0.090888188 0.0048893396 -7.7996192e-21)
(0.090146449 0.0058832714 8.1018978e-21)
(0.090416249 0.0065720649 5.6102112e-22)
(0.092293113 0.006041253 -8.7424833e-21)
(0.094644639 0.0072784919 9.7499205e-21)
(0.097288829 0.00864937 0)
(0.10062531 0.0053336202 1.0799945e-20)
(0.10229931 0.0076773888 -2.1809644e-20)
(0.10492343 0.0056323259 3.0717471e-23)
(0.1045854 0.0028015613 1.1416589e-20)
(0.09833453 0.005626303 1.3116516e-20)
(0.088615939 0.0065652291 -2.5313539e-20)
(0.080798201 0.0062577538 1.3781078e-20)
(0.073458075 0.010187526 -2.1781927e-22)
(0.066020227 0.013765299 2.2765221e-22)
(0.065900011 0.012568086 1.4776703e-20)
(0.069535171 0.013667136 -1.5970913e-20)
(0.073821205 0.014501503 2.5497564e-22)
(0.080345392 0.010312585 0)
(0.078265157 0.010152109 1.7679436e-20)
(0.06888772 0.014357122 1.4243981e-22)
(0.069110618 0.014904195 -1.8933467e-20)
(0.080002615 0.012533209 4.6162763e-22)
(0.08724142 0.010694733 -2.0482442e-20)
(0.079842557 0.011074208 2.1097739e-20)
(0.066187495 0.013781451 -1.7475084e-22)
(0.063635697 0.015428174 1.8096787e-22)
(0.077388918 0.013108769 0)
(0.092011827 0.0074872912 -4.9680037e-20)
(0.09046554 0.0026168328 5.1190095e-20)
(0.07781022 0.00074805231 -1.058342e-22)
(0.068770337 0.00095060448 -5.5593772e-20)
(0.07309276 0.0040612167 5.8038486e-20)
(0.083097536 0.0085740353 1.1846405e-22)
(0.08607555 0.010818263 1.2154694e-22)
(0.079389989 0.0078246951 6.5192526e-20)
(0.068210705 0.0014331843 -6.7774332e-20)
(0.059935906 -0.0043614043 -2.7720492e-22)
(0.061995059 -0.0039678827 0)
(0.073105844 0.0011155317 0)
(0.08376826 0.0064986473 -8.8312485e-25)
(0.086518629 0.0064787125 0)
(0.080288289 -2.1243045e-05 -8.131688e-23)
(0.09507513 0.00021773685 -6.747435e-22)
(0.089078808 0.0004718609 -7.0217768e-22)
(0.097833908 0.00095883871 2.920687e-21)
(0.096950693 0.0013329348 -1.519378e-21)
(0.09327225 0.00098010959 1.5936684e-21)
(0.088524893 0.0018946218 -2.4800271e-21)
(0.086276624 0.0023735646 -3.4411179e-21)
(0.089185718 0.0025824728 3.5855075e-21)
(0.094933203 0.0019577505 3.726473e-21)
(0.098053052 0.0029025215 -7.2605123e-21)
(0.097131058 0.0039728311 3.516251e-21)
(0.09410083 0.0049004615 0)
(0.090864186 0.0052355903 5.4783056e-22)
(0.089976567 0.0064139498 0)
(0.090416883 0.0065743382 0)
(0.091996508 0.0055291072 9.4957849e-21)
(0.094260722 0.0079614202 -1.0243906e-20)
(0.097114889 0.007545391 -3.3334025e-22)
(0.1002989 0.006581489 3.740855e-26)
(0.10224458 0.0068474298 0)
(0.1055946 0.0041199657 1.2355186e-20)
(0.10500323 0.0012235262 -1.1631337e-20)
(0.09877035 0.0033236408 3.3823629e-25)
(0.089624191 0.004970435 1.2974535e-20)
(0.08130806 0.0050917036 -2.8252767e-20)
(0.07344141 0.0086447759 1.4210874e-20)
(0.066212933 0.012516636 -1.5575779e-20)
(0.0658955 0.011667017 3.1519435e-22)
(0.068597942 0.011501163 1.6795946e-20)
(0.073203438 0.011347637 1.6500486e-20)
(0.080269582 0.0088253627 -1.7670594e-20)
(0.07864959 0.010935363 0)
(0.069399955 0.014111004 -3.0185839e-22)
(0.068434166 0.012433826 8.4054736e-26)
(0.078203988 0.0096857108 -1.6201024e-22)
(0.086722097 0.0093288588 2.1712666e-20)
(0.081738816 0.0117719 3.3248702e-22)
(0.06784101 0.014428936 -2.3284194e-20)
(0.062523594 0.014175413 2.3750352e-20)
(0.074619782 0.010886482 -5.0583025e-20)
(0.091071303 0.00715962 6.1060166e-22)
(0.094029682 0.00486358 5.4136175e-20)
(0.08290226 0.0030797225 -2.8032651e-20)
(0.070759447 0.00061375139 -1.1605472e-22)
(0.068127185 0.0011281988 -3.0296027e-20)
(0.076413717 0.0069922954 3.1762322e-20)
(0.085517421 0.012338451 0)
(0.087489887 0.010570761 -3.4205154e-20)
(0.080778078 0.0035267182 3.5284117e-20)
(0.068763989 -0.0046483503 2.9166211e-22)
(0.060676954 -0.0085022369 0)
(0.063504045 -0.0047936156 -7.9326727e-20)
(0.074541712 0.0029065157 1.5830135e-21)
(0.086766548 0.007858497 8.6810829e-20)
(0.091390092 0.0063057767 8.7212945e-23)
(0.095083425 0.00010650854 2.3121299e-26)
(0.088997624 0.00016400373 -1.479343e-21)
(0.097742091 0.00084806797 0)
(0.097027452 0.0014993694 8.014532e-22)
(0.093349881 0.00074510761 1.2548909e-21)
(0.088487888 0.001455418 1.3114086e-21)
(0.086166543 0.0020202836 -5.4359413e-21)
(0.089039509 0.0028427105 -4.5597398e-22)
(0.094792195 0.0026245 -4.7819355e-22)
(0.097925916 0.00279848 7.6476243e-21)
(0.097075297 0.0034991025 -3.7068901e-21)
(0.094076041 0.0045844435 -4.4475978e-21)
(0.090820609 0.0051654877 3.4475724e-21)
(0.08990333 0.0063614471 0)
(0.09052823 0.0062943367 0)
(0.0916424 0.004598424 -1.0334744e-20)
(0.093796476 0.0074904898 3.2563695e-23)
(0.096917547 0.0060191805 1.161213e-20)
(0.1000662 0.0076528325 -3.645968e-22)
(0.10247322 0.0060089224 1.2098681e-20)
(0.1062461 0.0030085245 -1.2668282e-20)
(0.10555821 0.0006833145 -4.0866241e-22)
(0.099162302 0.0018665867 -2.1287107e-22)
(0.090425686 0.0037643047 -1.4337227e-20)
(0.081857672 0.0039881523 1.4819476e-20)
(0.073312409 0.0068534222 2.4225705e-22)
(0.066015247 0.011300685 0)
(0.065817505 0.011835475 0)
(0.068264114 0.010785091 0)
(0.072838409 0.0087189428 5.6566265e-22)
(0.079574075 0.0069295447 -2.9228564e-22)
(0.078457795 0.011116691 0)
(0.070437649 0.014468742 1.5884706e-22)
(0.068824893 0.011176084 3.3035879e-22)
(0.076741135 0.0068663496 0)
(0.085336428 0.0067401066 2.2487276e-20)
(0.08256831 0.011044425 -2.3252497e-20)
(0.070390628 0.014408253 0)
(0.063375462 0.013393793 2.0111232e-22)
(0.072407672 0.0086501924 2.0735924e-22)
(0.088933672 0.0055835079 0)
(0.095797552 0.0061679223 0)
(0.088527462 0.0060861112 2.9873096e-20)
(0.07601278 0.0028210001 -3.1009697e-20)
(0.067430515 0.00049937733 0)
(0.06955587 0.0044398879 0)
(0.080454624 0.010260329 -1.3567443e-22)