/*--------------------------------*- C++ -*----------------------------------*\
| =========                 |                                                 |
| \\      /  F ield         | OpenFOAM: The Open Source CFD Toolbox           |
|  \\    /   O peration     | Version:  2406                                  |
|   \\  /    A nd           | Website:  www.openfoam.com                      |
|    \\/     M anipulation  |                                                 |
\*---------------------------------------------------------------------------*/
FoamFile
{
    version     2.0;
    format      ascii;
    arch        "LSB;label=32;scalar=64";
    class       volScalarField;
    location    "150";
    object      alphat;
}
// * * * * * * * * * * * * * * * * * * * * * * * * * * * * * * * * * * * * * //

dimensions      [1 -1 -1 0 0 0 0];

internalField   nonuniform List<scalar> 
20580
(
8.9018976e-07
8.8086472e-07
8.5737654e-07
8.4111538e-07
8.3092681e-07
8.1913048e-07
8.0631034e-07
7.9622912e-07
7.8906457e-07
7.8113405e-07
7.7586346e-07
7.7083517e-07
7.7008977e-07
7.6454925e-07
7.6539006e-07
7.6124772e-07
7.612895e-07
7.6269189e-07
7.6861797e-07
7.6717405e-07
7.7947313e-07
7.8382361e-07
7.9292485e-07
8.0567655e-07
8.2876652e-07
8.5146633e-07
8.6923684e-07
9.093191e-07
9.5927262e-07
1.0132182e-06
1.1390225e-06
8.9114946e-07
8.8943519e-07
8.683959e-07
8.5338756e-07
8.3869729e-07
8.2337227e-07
8.0841708e-07
7.9750408e-07
7.8892574e-07
7.8063057e-07
7.7541181e-07
7.715225e-07
7.7026338e-07
7.6557787e-07
7.6762307e-07
7.6212361e-07
7.6159136e-07
7.6798194e-07
7.6823811e-07
7.698244e-07
7.8548912e-07
7.9109084e-07
7.9339962e-07
8.0949066e-07
8.3283865e-07
8.5412233e-07
8.6702407e-07
8.9832373e-07
9.5556779e-07
9.9272782e-07
1.0902828e-06
8.9013122e-07
8.9162348e-07
8.7671602e-07
8.6952837e-07
8.5746462e-07
8.4032262e-07
8.1947589e-07
8.0542675e-07
7.9390523e-07
7.8385783e-07
7.7784873e-07
7.7330496e-07
7.7065092e-07
7.6703235e-07
7.6814003e-07
7.6539276e-07
7.6196979e-07
7.7127924e-07
7.6919151e-07
7.702814e-07
7.8714289e-07
7.9112909e-07
7.9087442e-07
8.1033981e-07
8.3080032e-07
8.5073982e-07
8.6029164e-07
8.7869138e-07
9.3884578e-07
9.793115e-07
1.0646043e-06
8.8887991e-07
8.9260774e-07
8.8004052e-07
8.7613143e-07
8.7158085e-07
8.6074267e-07
8.4628478e-07
8.2959885e-07
8.1198349e-07
7.9635053e-07
7.8746811e-07
7.7983923e-07
7.7544436e-07
7.7076328e-07
7.7097167e-07
7.6638588e-07
7.6524872e-07
7.7071201e-07
7.7112279e-07
7.7326984e-07
7.8729474e-07
7.920869e-07
7.899666e-07
8.1024009e-07
8.2707269e-07
8.4741475e-07
8.647199e-07
8.7655759e-07
9.218846e-07
9.6005e-07
1.0080627e-06
8.8777506e-07
8.9468884e-07
8.8440346e-07
8.8321362e-07
8.7942583e-07
8.7604595e-07
8.6456814e-07
8.5717826e-07
8.3921535e-07
8.2786429e-07
8.1473141e-07
8.0273183e-07
7.9288511e-07
7.831309e-07
7.7779298e-07
7.7188741e-07
7.6868885e-07
7.7247927e-07
7.6925689e-07
7.7775587e-07
7.8532102e-07
7.9154929e-07
7.9704231e-07
8.1327894e-07
8.2648036e-07
8.4662961e-07
8.8147184e-07
8.9673167e-07
9.2885738e-07
9.731538e-07
1.0003371e-06
8.8607013e-07
9.0144635e-07
8.8955177e-07
8.8985986e-07
8.8547054e-07
8.8083908e-07
8.6934111e-07
8.6392434e-07
8.5139822e-07
8.4512918e-07
8.3752854e-07
8.288276e-07
8.2054951e-07
8.1196222e-07
8.0127968e-07
7.8959627e-07
7.7982225e-07
7.7752491e-07
7.7255651e-07
7.8127573e-07
7.8660961e-07
7.880957e-07
8.0053088e-07
8.1668361e-07
8.2415336e-07
8.4279129e-07
8.7881205e-07
9.2830251e-07
9.5497198e-07
1.0284313e-06
1.0462678e-06
8.8558524e-07
9.0273406e-07
8.913665e-07
8.9062622e-07
8.8575983e-07
8.7962636e-07
8.696974e-07
8.6561487e-07
8.5388172e-07
8.4877829e-07
8.4323218e-07
8.3718614e-07
8.3437903e-07
8.3056081e-07
8.2269451e-07
8.1478056e-07
8.0688215e-07
7.9374481e-07
7.8574315e-07
7.8817822e-07
7.8971496e-07
7.8755202e-07
8.0080404e-07
8.1609281e-07
8.2038664e-07
8.3161482e-07
8.6913009e-07
9.2686469e-07
9.502608e-07
1.0108775e-06
1.0707561e-06
8.8728707e-07
9.0731942e-07
8.9688315e-07
8.9149938e-07
8.842151e-07
8.7541731e-07
8.6338444e-07
8.5464098e-07
8.4712859e-07
8.461429e-07
8.4476072e-07
8.3942188e-07
8.3820519e-07
8.3353507e-07
8.3013947e-07
8.2648779e-07
8.2735814e-07
8.1801912e-07
8.1185308e-07
8.0602916e-07
7.9896725e-07
7.9269909e-07
8.0467566e-07
8.1819585e-07
8.1995039e-07
8.25355e-07
8.5299287e-07
8.9081867e-07
9.2130531e-07
9.5316746e-07
1.0366061e-06
8.8730156e-07
9.7147028e-07
9.4582156e-07
9.2274317e-07
9.0442307e-07
8.8886664e-07
8.7042132e-07
8.5637613e-07
8.4615796e-07
8.3826043e-07
8.3427395e-07
8.3200886e-07
8.3505417e-07
8.3559461e-07
8.3254723e-07
8.2938773e-07
8.3248155e-07
8.2736803e-07
8.3190612e-07
8.3371112e-07
8.2066761e-07
8.086871e-07
8.1719523e-07
8.2624561e-07
8.278906e-07
8.3314787e-07
8.5452339e-07
8.88664e-07
9.1895987e-07
9.2504966e-07
9.7505067e-07
8.7987707e-07
1.0061972e-06
1.0230263e-06
1.0188685e-06
1.0045169e-06
9.6244964e-07
9.2050966e-07
8.8862252e-07
8.6567752e-07
8.4757274e-07
8.3744477e-07
8.3182763e-07
8.2970036e-07
8.2801209e-07
8.2943051e-07
8.3074664e-07
8.3428253e-07
8.2965051e-07
8.4030969e-07
8.4734443e-07
8.4943476e-07
8.512119e-07
8.5158119e-07
8.523958e-07
8.4809831e-07
8.5504468e-07
8.6760023e-07
8.9573268e-07
9.4305739e-07
9.5408142e-07
9.9526888e-07
8.5145673e-07
9.2716285e-07
9.8338953e-07
1.0258869e-06
1.0464629e-06
1.0623967e-06
1.0511332e-06
1.0284516e-06
9.7158227e-07
9.1628253e-07
8.8156709e-07
8.5916707e-07
8.4620665e-07
8.3634963e-07
8.3368568e-07
8.3293584e-07
8.355422e-07
8.3627286e-07
8.4887481e-07
8.5531076e-07
8.5868127e-07
8.7998431e-07
8.9191293e-07
8.9561056e-07
9.0705481e-07
9.1587315e-07
9.2038565e-07
9.385879e-07
9.7723639e-07
1.0359076e-06
1.047577e-06
8.6876816e-07
8.6241519e-07
8.8578305e-07
9.3552113e-07
9.7429699e-07
1.015577e-06
1.0397675e-06
1.0637521e-06
1.0878433e-06
1.0804646e-06
1.051515e-06
1.0089327e-06
9.5397676e-07
9.1339864e-07
8.8755895e-07
8.7007616e-07
8.6015728e-07
8.5587139e-07
8.6173906e-07
8.6922987e-07
8.7406749e-07
8.9978292e-07
9.1373848e-07
9.1426179e-07
9.3053248e-07
9.5358406e-07
9.5843048e-07
9.6163811e-07
9.8997174e-07
1.0525927e-06
1.1154574e-06
8.7658795e-07
9.1609929e-07
8.9326517e-07
8.9346731e-07
8.937448e-07
9.0521129e-07
9.3269847e-07
9.6051333e-07
1.0152339e-06
1.0544537e-06
1.0779869e-06
1.1015717e-06
1.1126782e-06
1.1268502e-06
1.1035472e-06
1.0802772e-06
1.037346e-06
9.9689909e-07
9.7331733e-07
9.5549164e-07
9.4350953e-07
9.5452677e-07
9.643333e-07
9.5874507e-07
9.7039618e-07
9.9646745e-07
1.0020192e-06
9.9458123e-07
1.0050707e-06
1.0612951e-06
1.1172772e-06
8.8015806e-07
9.478432e-07
9.4704387e-07
9.4591274e-07
9.4314381e-07
9.25334e-07
9.2118172e-07
9.2987755e-07
9.0787486e-07
9.369673e-07
9.7749257e-07
1.0171196e-06
1.0649157e-06
1.101606e-06
1.1426172e-06
1.1783984e-06
1.2060913e-06
1.248182e-06
1.2785005e-06
1.3041451e-06
1.2867182e-06
1.3054145e-06
1.2696259e-06
1.209639e-06
1.1771328e-06
1.1708253e-06
1.1495701e-06
1.1193804e-06
1.1067077e-06
1.1386843e-06
1.1484249e-06
8.8140186e-07
9.0197233e-07
9.1833919e-07
9.4674819e-07
9.6153684e-07
9.6100458e-07
9.5505612e-07
9.5361079e-07
9.2511821e-07
9.2035816e-07
9.1977415e-07
9.0723965e-07
9.3128713e-07
9.6737117e-07
1.0189783e-06
1.0650694e-06
1.1409304e-06
1.2030185e-06
1.279584e-06
1.3359315e-06
1.444137e-06
1.5251444e-06
1.633821e-06
1.7154223e-06
1.7613149e-06
1.7931044e-06
1.8143748e-06
1.7744736e-06
1.699566e-06
1.658724e-06
1.5490918e-06
8.7640724e-07
9.4794342e-07
9.2579727e-07
9.2313232e-07
9.256772e-07
9.1907282e-07
9.2630958e-07
9.3192654e-07
9.1930282e-07
9.1667901e-07
9.1020809e-07
9.0032613e-07
9.0552003e-07
9.0545856e-07
9.1018294e-07
9.4134519e-07
9.7130451e-07
1.0155559e-06
1.0844563e-06
1.1482263e-06
1.281274e-06
1.4032489e-06
1.5299924e-06
1.6800802e-06
1.7850036e-06
1.9205903e-06
2.0060705e-06
2.1558337e-06
2.2150163e-06
2.3496586e-06
2.3405896e-06
8.6803242e-07
9.3078443e-07
9.0299375e-07
8.8202306e-07
8.6655226e-07
8.6002364e-07
8.5609341e-07
8.5606749e-07
8.6088909e-07
8.7366309e-07
8.7834276e-07
8.7782893e-07
8.7930936e-07
8.7564114e-07
8.7842242e-07
8.8276301e-07
8.8598033e-07
9.1081679e-07
9.283313e-07
9.612465e-07
1.007803e-06
1.0713724e-06
1.1364616e-06
1.3011409e-06
1.4485094e-06
1.6101343e-06
1.7229302e-06
1.926039e-06
2.0804923e-06
2.2371027e-06
2.309361e-06
8.6156261e-07
8.5942532e-07
8.5022495e-07
8.4814917e-07
8.4429689e-07
8.4233163e-07
8.3512453e-07
8.3069409e-07
8.2430534e-07
8.2492378e-07
8.2944526e-07
8.2940813e-07
8.2880658e-07
8.302991e-07
8.29777e-07
8.3076066e-07
8.3621801e-07
8.4291606e-07
8.4926067e-07
8.692341e-07
8.9992166e-07
9.1800795e-07
9.408265e-07
9.920569e-07
1.0756333e-06
1.1289737e-06
1.2030485e-06
1.2827315e-06
1.4710157e-06
1.5858142e-06
1.8171313e-06
8.6736688e-07
8.7082634e-07
8.5875961e-07
8.5961056e-07
8.5442192e-07
8.4747639e-07
8.3873673e-07
8.3236412e-07
8.2635148e-07
8.2098173e-07
8.179334e-07
8.1312195e-07
8.1033028e-07
8.0921384e-07
8.0652335e-07
8.0491051e-07
8.0702292e-07
8.1231724e-07
8.1232941e-07
8.2421093e-07
8.4786508e-07
8.6002949e-07
8.7027142e-07
8.9850501e-07
9.4332769e-07
9.6534953e-07
1.0001642e-06
1.0308582e-06
1.1137685e-06
1.1704176e-06
1.2583375e-06
8.7059054e-07
8.9126743e-07
8.6414049e-07
8.6200194e-07
8.6475618e-07
8.7016919e-07
8.7159663e-07
8.7523345e-07
8.7370501e-07
8.6172357e-07
8.5076777e-07
8.4446898e-07
8.4048932e-07
8.3727089e-07
8.3417632e-07
8.3178541e-07
8.3355187e-07
8.3848995e-07
8.4172801e-07
8.5721823e-07
8.7772534e-07
8.9596309e-07
9.1201042e-07
9.385084e-07
9.6982845e-07
8.5690272e-07
1.0266921e-06
8.5852097e-07
1.0925354e-06
7.9582075e-07
1.1062914e-06
8.5562393e-07
8.9339921e-07
8.5183437e-07
9.1341134e-07
9.925658e-07
1.1194703e-06
1.1918134e-06
1.2865924e-06
1.3358454e-06
1.2616063e-06
1.2451009e-06
1.2493053e-06
1.2496557e-06
1.2527434e-06
1.2562551e-06
1.2604545e-06
1.2693026e-06
1.2880611e-06
1.3090954e-06
1.3441006e-06
1.20322e-06
1.4197857e-06
1.4446916e-06
1.4723726e-06
1.0507561e-06
8.8584989e-07
1.5424043e-06
1.1362843e-06
1.5685145e-06
8.6062762e-07
7.6758534e-07
8.9015126e-07
1.2117887e-06
1.2452366e-06
1.7195314e-06
1.7985685e-06
2.3196418e-06
2.6522718e-06
2.8073889e-06
2.8515248e-06
3.0887873e-06
2.9764019e-06
2.9992725e-06
2.8945403e-06
2.7970851e-06
2.8712971e-06
2.9229177e-06
2.841607e-06
2.7121627e-06
2.9629515e-06
2.9761419e-06
2.5554841e-06
2.7573491e-06
3.0185793e-06
3.0253972e-06
2.4653634e-06
2.2587429e-06
3.009322e-06
3.015099e-06
2.9677752e-06
2.2614842e-06
1.9329773e-06
6.6109562e-07
1.5311456e-06
1.7125686e-06
2.1459889e-06
1.6943646e-06
2.542769e-06
1.7240387e-06
3.1991493e-06
1.6229963e-06
3.3994503e-06
2.7032451e-06
2.3762248e-06
2.3754716e-06
2.2957957e-06
2.1788616e-06
2.1107446e-06
2.1162594e-06
2.1718627e-06
2.0218275e-06
1.9968414e-06
2.2508695e-06
2.2188143e-06
1.9648276e-06
1.9945755e-06
2.2856676e-06
2.7182169e-06
2.2165546e-06
1.8692618e-06
1.9225197e-06
2.7978875e-06
3.2568288e-06
2.4504188e-06
2.9253103e-06
1.6748277e-06
1.2348825e-06
1.2895055e-06
1.7386302e-06
2.3619239e-06
2.4482788e-06
1.7972481e-06
1.2818791e-06
1.1823305e-06
1.1682224e-06
1.1186433e-06
1.0506018e-06
1.0475427e-06
1.1109397e-06
1.1450235e-06
1.1012054e-06
1.0380057e-06
1.0334639e-06
1.09614e-06
1.1662491e-06
1.2391789e-06
1.7450889e-06
2.9128339e-06
1.329959e-06
9.1947374e-07
1.3355197e-06
1.687526e-06
2.4497477e-06
2.6987462e-06
2.1592618e-06
1.4219031e-06
1.2183894e-06
1.236697e-06
1.2261372e-06
1.2004794e-06
1.1704637e-06
1.2000548e-06
1.2498552e-06
1.2118274e-06
1.1406943e-06
1.1145807e-06
1.158313e-06
1.2476087e-06
1.2696081e-06
2.139992e-06
2.1905573e-06
1.3960143e-06
1.1036914e-06
1.4296631e-06
1.7717021e-06
2.5754038e-06
2.9319375e-06
2.5958154e-06
1.722687e-06
1.3171606e-06
1.3260761e-06
1.3554101e-06
1.3518901e-06
1.2796892e-06
1.2617286e-06
1.3153118e-06
1.3035884e-06
1.2720244e-06
1.2459978e-06
1.274809e-06
1.3216592e-06
1.3424683e-06
1.6684277e-06
1.826025e-06
7.8032527e-07
8.8779533e-07
1.4645835e-06
1.8116392e-06
2.6010012e-06
3.1089224e-06
2.9433893e-06
2.1482514e-06
1.5505772e-06
1.5048588e-06
1.4911263e-06
1.4554416e-06
1.3531893e-06
1.2843979e-06
1.324037e-06
1.3813229e-06
1.4133876e-06
1.3845925e-06
1.3760263e-06
1.3863923e-06
1.3830057e-06
1.4162658e-06
1.6672057e-06
1.7136847e-06
1.3936126e-06
1.2224064e-06
1.8151e-06
2.557457e-06
3.2196813e-06
3.2166878e-06
2.6284146e-06
1.8893493e-06
1.6810605e-06
1.6510361e-06
1.5675247e-06
1.4956832e-06
1.4245741e-06
1.4490739e-06
1.522709e-06
1.5584049e-06
1.5473184e-06
1.4505014e-06
1.4505041e-06
1.4699727e-06
1.2206669e-06
2.2104806e-06
9.6602644e-07
6.7336081e-07
1.2679017e-06
1.9185014e-06
2.2363393e-06
3.4537701e-06
3.6838627e-06
3.3165298e-06
2.2716463e-06
1.8207246e-06
1.8155804e-06
1.778801e-06
1.7404817e-06
1.7403034e-06
1.7251759e-06
1.8233964e-06
1.7969389e-06
1.7132819e-06
1.5951701e-06
1.5176101e-06
1.5544527e-06
9.4345677e-07
1.1888574e-06
1.4412713e-06
1.7753319e-06
1.5726417e-06
1.303151e-06
1.7946887e-06
4.297953e-06
4.3605054e-06
3.9427955e-06
2.8529418e-06
2.0291771e-06
1.9854494e-06
1.9885659e-06
1.9787717e-06
2.0169536e-06
2.0041943e-06
2.0343798e-06
2.0440422e-06
1.9198305e-06
1.8004674e-06
1.70282e-06
1.7230944e-06
4.9478699e-07
1.0292107e-06
6.3334349e-07
7.9284514e-07
1.5178351e-06
2.4370227e-06
2.967336e-06
4.726336e-06
4.0875605e-06
4.2064384e-06
3.3950937e-06
2.4320212e-06
2.2100747e-06
2.2119491e-06
2.1631165e-06
2.121284e-06
2.073321e-06
2.0674578e-06
2.1160307e-06
2.0807813e-06
2.0071486e-06
1.9620692e-06
1.9698977e-06
5.3884389e-07
7.2608163e-07
7.7449217e-07
1.8958359e-06
1.9358678e-06
1.3521466e-06
1.4452152e-06
2.5496826e-06
4.9938932e-06
4.9766667e-06
4.1610381e-06
3.0969177e-06
2.6480448e-06
2.6022835e-06
2.4650046e-06
2.2525668e-06
2.1102594e-06
2.0560184e-06
2.1084719e-06
2.1559078e-06
2.1789475e-06
2.1961197e-06
2.2476091e-06
8.5147691e-07
8.9953138e-07
1.6138784e-06
1.5352069e-06
1.9390908e-06
2.6001462e-06
2.8717093e-06
4.5356905e-06
5.4756354e-06
4.9644409e-06
5.2405227e-06
4.0234913e-06
3.2668571e-06
3.1976458e-06
3.0342853e-06
2.6835088e-06
2.4794036e-06
2.2957052e-06
2.3034894e-06
2.3882136e-06
2.4401149e-06
2.4068638e-06
2.3730126e-06
9.0412417e-07
1.1752149e-06
1.3589774e-06
1.6216813e-06
1.9817877e-06
3.0387761e-06
3.2537616e-06
4.5677325e-06
5.3140791e-06
6.2835313e-06
6.8486416e-06
5.2492791e-06
4.0922743e-06
3.9312757e-06
3.7782783e-06
3.4782008e-06
3.2271148e-06
3.0093037e-06
2.9733408e-06
3.104488e-06
3.1112407e-06
2.9207864e-06
2.6665937e-06
6.148859e-07
5.8547128e-07
1.5702765e-06
2.5020177e-06
2.6589417e-06
1.9584761e-06
1.9429582e-06
3.2681706e-06
5.7419856e-06
8.4651757e-06
7.8664658e-06
6.0823829e-06
4.0763063e-06
4.1053617e-06
4.078102e-06
3.9682829e-06
3.7651576e-06
3.7893771e-06
3.8111061e-06
3.9170242e-06
3.8638586e-06
3.6179733e-06
3.1861594e-06
3.798091e-07
6.834606e-07
1.252275e-06
2.6202648e-06
3.6591184e-06
3.2189096e-06
3.0220583e-06
5.2369954e-06
8.3763479e-06
9.2738645e-06
7.3293072e-06
6.7335148e-06
5.0155563e-06
4.2977533e-06
4.2597221e-06
4.2115977e-06
4.047635e-06
4.2456376e-06
4.466948e-06
4.6427925e-06
4.5752158e-06
4.1586272e-06
3.5193736e-06
3.8433818e-07
9.4427525e-07
1.6629051e-06
2.5879014e-06
3.614115e-06
5.0530609e-06
5.6504477e-06
9.0091806e-06
1.1751338e-05
1.0388971e-05
7.1521202e-06
7.9522312e-06
5.8068402e-06
4.9281044e-06
4.8515329e-06
4.7963194e-06
4.5598776e-06
4.5887456e-06
4.8126371e-06
5.0374502e-06
5.0662396e-06
4.6708356e-06
3.9795375e-06
5.1412765e-07
9.4389508e-07
2.009705e-06
3.2979098e-06
5.3397677e-06
6.0662879e-06
6.9051102e-06
1.023142e-05
1.4963735e-05
1.6177648e-05
1.3108389e-05
8.3335524e-06
7.1194754e-06
6.3215373e-06
6.359557e-06
6.249446e-06
5.6693907e-06
5.1999296e-06
5.1895224e-06
5.2753412e-06
5.3739067e-06
5.1734375e-06
4.5655691e-06
7.1751719e-07
8.773574e-07
2.5129247e-06
4.1467613e-06
6.090198e-06
5.9855208e-06
7.7111619e-06
1.0768535e-05
1.4736176e-05
2.1016337e-05
2.0276763e-05
1.5015575e-05
8.8841726e-06
7.5874856e-06
8.4408965e-06
9.2827708e-06
8.4116738e-06
6.5728195e-06
5.9942106e-06
5.9319049e-06
6.4494348e-06
6.3183778e-06
5.673064e-06
8.5641577e-07
1.0489402e-06
3.0720195e-06
4.3649561e-06
6.3089486e-06
7.381371e-06
1.1595913e-05
1.6057103e-05
1.9373821e-05
2.0293436e-05
2.1380444e-05
2.0901475e-05
1.3183589e-05
9.6898527e-06
1.0189329e-05
1.1576185e-05
1.0428194e-05
8.8792241e-06
8.6084799e-06
8.3482826e-06
8.5719613e-06
8.4660369e-06
7.7376959e-06
9.6934437e-07
1.5019308e-06
3.5175498e-06
4.5229215e-06
6.4875437e-06
1.0079886e-05
1.650094e-05
2.3514846e-05
2.5107995e-05
2.4320308e-05
2.4271606e-05
2.2415754e-05
1.870263e-05
1.3548451e-05
1.3377869e-05
1.3894054e-05
1.1585731e-05
1.0082501e-05
1.0061029e-05
9.8480046e-06
9.8678888e-06
9.8515381e-06
9.5464968e-06
1.0635027e-06
2.072849e-06
3.87064e-06
4.9951988e-06
7.8428499e-06
1.4015096e-05
2.4771279e-05
3.2060861e-05
3.2950454e-05
2.9224553e-05
2.6426142e-05
2.4362008e-05
2.4498899e-05
2.0180891e-05
1.9900063e-05
1.6577065e-05
1.2211087e-05
1.0650676e-05
1.0877531e-05
1.0879373e-05
1.0916817e-05
1.0923849e-05
1.0298772e-05
1.100722e-06
2.4703828e-06
4.2646876e-06
5.5346803e-06
9.2272611e-06
1.7144258e-05
3.1242027e-05
3.9348708e-05
3.9758985e-05
3.3400396e-05
2.8708297e-05
2.815244e-05
3.140589e-05
3.2105551e-05
2.9243707e-05
2.1950381e-05
1.3586238e-05
1.1789e-05
1.2389151e-05
1.2664314e-05
1.2688005e-05
1.1965315e-05
1.0197599e-05
1.0283412e-06
2.5948074e-06
4.5465827e-06
6.4096267e-06
1.1305484e-05
2.1811042e-05
3.9557627e-05
4.8149298e-05
4.7297037e-05
3.7019707e-05
3.4449082e-05
3.8440593e-05
5.1802313e-05
5.9738445e-05
4.933691e-05
2.6076932e-05
1.5954103e-05
1.4282201e-05
1.5712258e-05
1.637076e-05
1.6282594e-05
1.4507569e-05
1.1017103e-05
1.1785863e-06
2.662863e-06
4.6249389e-06
6.7591766e-06
1.2405672e-05
2.2057653e-05
4.291663e-05
5.4750511e-05
5.2309512e-05
4.1377586e-05
4.1945889e-05
4.8507502e-05
6.5637449e-05
7.2039519e-05
5.5401956e-05
3.0266838e-05
2.1520845e-05
2.1980127e-05
2.8479276e-05
3.0385349e-05
2.5424655e-05
1.6849655e-05
1.2580925e-05
1.3902107e-06
2.822888e-06
4.7679225e-06
7.2573044e-06
1.4419987e-05
2.1603591e-05
3.6832107e-05
4.7530602e-05
5.3108666e-05
5.3792657e-05
4.9930061e-05
5.8090644e-05
7.714828e-05
8.2539946e-05
6.0878474e-05
3.6288438e-05
2.9213278e-05
3.37283e-05
3.9685715e-05
4.0047617e-05
3.2067459e-05
1.9249909e-05
1.5828821e-05
9.7524864e-07
3.2879171e-06
5.0094075e-06
7.7962342e-06
1.5414008e-05
2.4291802e-05
3.8778224e-05
5.1769029e-05
7.2354717e-05
7.0003325e-05
7.0159317e-05
7.8505113e-05
9.7923306e-05
0.0001091052
7.5230906e-05
4.4474538e-05
3.7287537e-05
4.3892746e-05
5.330598e-05
5.5789168e-05
3.4518655e-05
2.2635044e-05
2.1811579e-05
7.7863426e-07
4.440052e-06
5.7533372e-06
8.9219125e-06
1.7102986e-05
4.3536819e-05
7.7490085e-05
0.00010119171
9.7639115e-05
9.0339382e-05
9.2848107e-05
0.00010953578
0.00012272924
0.00012102461
8.3435191e-05
5.4216729e-05
5.0702239e-05
6.640687e-05
8.3643352e-05
5.6621531e-05
3.4408604e-05
2.8203677e-05
2.7439063e-05
1.1261927e-06
5.0003371e-06
7.8639543e-06
1.0724124e-05
1.8749406e-05
4.951175e-05
9.939371e-05
0.00011250685
0.00010606747
9.3741972e-05
0.00010531022
0.00012844963
0.00013798068
0.00012295469
8.6679971e-05
7.0144398e-05
8.2119794e-05
0.00010898763
8.8163942e-05
4.9731092e-05
3.7362239e-05
3.4246022e-05
3.3621933e-05
2.9110058e-06
8.1182645e-06
1.4174435e-05
1.6847599e-05
2.3806879e-05
3.9763915e-05
6.8991088e-05
0.00011134702
0.00011660492
0.0001168319
0.00013690743
0.00014908692
0.00014918883
0.00012639533
0.00010269862
0.00011353659
0.00013927868
0.00012767277
7.3624298e-05
4.9210383e-05
4.377278e-05
4.2297797e-05
3.6201914e-05
6.6245314e-06
2.3241133e-05
2.0043191e-05
2.0631634e-05
2.5488998e-05
4.2802443e-05
6.845478e-05
0.00011181432
0.00013412204
0.00015739428
0.00014856418
0.0001541056
0.00016965882
0.00014533759
0.00014394581
0.00014937452
0.00014114724
0.00010554236
6.3922855e-05
5.4050323e-05
5.1047418e-05
4.6851468e-05
4.5886608e-05
8.6140129e-06
3.3809041e-05
3.0336187e-05
2.7964839e-05
2.86835e-05
4.8359226e-05
9.2621391e-05
0.00012502857
0.00015537352
0.00018745497
0.00021218511
0.00021280459
0.00018661982
0.00016091307
0.00014866346
0.00013587875
0.00011558537
7.8427617e-05
6.3249902e-05
6.0344319e-05
6.051185e-05
6.1315432e-05
7.8097572e-05
6.4433091e-06
3.6088053e-05
3.5715109e-05
3.5983025e-05
3.5887227e-05
5.547641e-05
0.00010309795
0.0001418062
0.00017634367
0.00020872748
0.00022400527
0.00021640831
0.00017975914
0.0001542813
0.00013724673
0.00012020478
9.431831e-05
7.1488914e-05
6.756765e-05
7.1176481e-05
7.7223767e-05
9.3344032e-05
9.4189666e-05
5.7481976e-06
3.2797817e-05
2.789552e-05
3.9897026e-05
4.4748939e-05
6.6709683e-05
0.00011808353
0.00015763409
0.00018635051
0.00020130198
0.0002031951
0.00019000326
0.00016711281
0.0001507762
0.00013611359
0.0001132932
8.5501712e-05
7.5790406e-05
7.6639307e-05
8.0547769e-05
8.8534563e-05
9.4430311e-05
9.0503238e-05
6.2717291e-06
4.3905933e-05
4.3699692e-05
4.8568994e-05
5.3063822e-05
7.1389433e-05
0.00012156239
0.00016306843
0.00018476281
0.00018950193
0.00018748004
0.00017725139
0.00016430579
0.0001539458
0.00013761349
0.00010577511
8.8398317e-05
8.2028226e-05
8.0087873e-05
7.9615845e-05
8.4723754e-05
8.5096046e-05
8.5410549e-05
8.2368785e-06
5.4851334e-05
7.0426644e-05
6.943041e-05
5.7774135e-05
7.2475421e-05
0.00011923805
0.00016740058
0.00018875486
0.00019104057
0.00018390102
0.00017337417
0.00016046678
0.00014386073
0.00011592413
9.4555337e-05
8.6146261e-05
8.2320439e-05
8.0376787e-05
7.9839747e-05
8.1914148e-05
8.3326895e-05
8.7370876e-05
8.7077059e-06
5.1670493e-05
8.0127239e-05
8.631278e-05
6.6819509e-05
7.4967916e-05
0.00011587883
0.00016560889
0.00019343405
0.00020104518
0.00019441149
0.00017975543
0.00015846955
0.00012702891
9.4129979e-05
8.4396414e-05
8.1966665e-05
8.4367931e-05
8.6005209e-05
8.6971553e-05
9.0836619e-05
9.6740332e-05
0.0001137291
9.4413345e-06
5.8278955e-05
6.4382274e-05
8.0133223e-05
9.4808102e-05
8.1872194e-05
0.00012165358
0.0001702153
0.00018812058
0.00019199174
0.00018141108
0.00016477388
0.0001349647
9.7546381e-05
8.1577632e-05
7.8421725e-05
8.0847528e-05
8.7586065e-05
9.4593244e-05
0.0001057689
0.00012586049
0.00016124533
0.00022381366
1.156865e-05
5.7232048e-05
8.1888148e-05
8.2791473e-05
0.00010727993
8.9089241e-05
0.00011179998
0.00015289806
0.000180196
0.00018096973
0.00017574718
0.00016483679
0.00014352996
0.00010962652
8.6577438e-05
7.9970758e-05
7.9708212e-05
8.4599253e-05
9.027974e-05
9.9741931e-05
0.00011951128
0.0001615766
0.00024296707
1.2545553e-05
7.8327445e-05
0.00010922655
0.00012206786
0.00011043249
0.0001166015
0.00011032798
0.00013057543
0.00016488557
0.00017876231
0.00017407662
0.00016429586
0.00014848599
0.00011969635
9.4533038e-05
8.3598814e-05
8.1840153e-05
8.4157329e-05
8.7676231e-05
9.4467293e-05
0.00011147846
0.00015262134
0.0002430364
1.305151e-05
8.6063249e-05
0.00013226313
0.00016513709
0.00014649025
0.00012461364
0.00011349608
0.00012562032
0.00014780767
0.00017402627
0.00017794391
0.00016981173
0.00015390085
0.00012519148
9.8157995e-05
8.2364445e-05
7.9850487e-05
8.1090091e-05
8.5774497e-05
9.3195278e-05
0.00011048157
0.00015449915
0.00025232283
1.0594465e-05
0.00010152388
0.00014372748
0.00019190224
0.0001926795
0.00016738624
0.00015302676
0.00012496414
0.00013676936
0.00015862761
0.00017809554
0.00017541934
0.00016260662
0.00013569727
0.00010352396
8.3127674e-05
7.6693746e-05
7.6200857e-05
8.0096987e-05
8.8861646e-05
0.00010743774
0.00015494318
0.00025679143
1.0629259e-05
0.00011992518
0.0001495006
0.00018822327
0.00023507777
0.00023862421
0.00021741357
0.0001449845
0.00013409391
0.00014331087
0.00015969417
0.00017035888
0.00016556114
0.00014801289
0.00011373846
8.9378439e-05
7.7066271e-05
7.5310392e-05
7.6698302e-05
8.3793541e-05
0.00010018116
0.00014477959
0.00023918548
1.012462e-05
0.00013289382
0.00020838329
0.00023008185
0.00024930868
0.00026265802
0.00027097441
0.00021161221
0.00014409816
0.00014100344
0.00015039762
0.00016018091
0.00016154553
0.00015230658
0.00012638566
9.7656948e-05
8.1265237e-05
7.7272865e-05
7.6639071e-05
8.0286475e-05
9.2535969e-05
0.00012881341
0.00020418807
9.419264e-06
0.00015468252
0.00022783281
0.00027483018
0.00028635053
0.00027302207
0.00025449932
0.00025161801
0.00018825116
0.00014863267
0.00014879691
0.00015691037
0.0001608716
0.000155784
0.00013830441
0.00010570107
8.5244091e-05
7.6180706e-05
7.479181e-05
7.5807372e-05
8.39019e-05
0.00011007643
0.000169731
8.6148342e-06
0.00015359948
0.00022147523
0.00023041965
0.00025736548
0.00027454686
0.00027706773
0.00027849451
0.00021804336
0.00016440376
0.00014901547
0.00015421184
0.00015926692
0.000157115
0.00014461012
0.00011631512
8.9758735e-05
7.5993501e-05
7.3113733e-05
7.2025773e-05
7.5827215e-05
9.2756818e-05
0.00014292449
8.0614623e-06
0.00015326397
0.00020764182
0.00020791978
0.0002331431
0.00026904451
0.00031086355
0.00029606264
0.00022080484
0.00016391564
0.0001456954
0.00014843902
0.00015384573
0.00015415567
0.00014785331
0.00012643762
9.7754287e-05
7.9732786e-05
7.2292997e-05
7.1258736e-05
7.2450054e-05
8.2225705e-05
0.00011781137
7.9366327e-06
0.00014999477
0.00019427916
0.00021260021
0.00021005286
0.00022108554
0.00024799764
0.00027831142
0.00021577814
0.00016276915
0.00014291536
0.0001445935
0.00015000124
0.00015167205
0.00014786056
0.0001322924
0.00010601573
8.462464e-05
7.3545477e-05
7.0672243e-05
7.0441696e-05
7.5568808e-05
0.00010133209
7.3383496e-06
0.00014260434
0.00018655323
0.00017959611
0.00017865185
0.00018290615
0.00018916968
0.00020220553
0.00018473449
0.00015314477
0.00014135209
0.00014344838
0.00014902014
0.00015093631
0.00014842258
0.00013755014
0.00011425865
9.1014566e-05
7.673664e-05
6.9626387e-05
6.8559015e-05
6.9973228e-05
8.8196812e-05
6.7580888e-06
0.00012865086
0.00015844199
0.00015089752
0.00015150717
0.00015974237
0.00016953409
0.00017862053
0.00016345428
0.00014901733
0.00014449709
0.00014610245
0.0001501086
0.00015086277
0.00014849619
0.00014002645
0.00012100188
9.8642048e-05
8.1487741e-05
7.2560002e-05
6.79208e-05
6.7688115e-05
7.4572487e-05
6.4533768e-06
0.00010818176
0.00016776498
0.00016462076
0.00015956064
0.00015700698
0.00016013784
0.00016829298
0.00015935444
0.00015218391
0.00015056014
0.0001518943
0.00015468444
0.00015437178
0.00015158258
0.00014402583
0.00012834525
0.00010925245
8.8990104e-05
7.6884364e-05
7.0931545e-05
6.7636423e-05
6.8531057e-05
6.2552141e-06
8.771143e-05
0.00015267834
0.00018035906
0.00017850487
0.00017025028
0.00016165102
0.00015665056
0.00015635068
0.00015843101
0.00015690554
0.00015810438
0.0001600952
0.00015936494
0.00015641197
0.00014948469
0.00013631122
0.00012012955
0.00010253366
8.4269064e-05
7.4688511e-05
6.9567966e-05
6.7502375e-05
6.0942736e-06
7.7788966e-05
0.00013580429
0.00017108072
0.0001738789
0.00016961445
0.00016517047
0.00016351419
0.0001663947
0.00016589548
0.00016526032
0.00016568618
0.00016566558
0.00016374197
0.00016024517
0.00015382293
0.00014372318
0.00012910947
0.00011372068
9.7247409e-05
8.2618857e-05
7.3544867e-05
7.0375807e-05
6.0200909e-06
7.4165897e-05
0.00013107527
0.00016724045
0.00018342086
0.00017983743
0.00017595897
0.00017734758
0.00016901268
0.00016574917
0.00016795641
0.00017081044
0.00017118997
0.0001696386
0.00016662838
0.00016108624
0.00015137279
0.00013967935
0.00012495337
0.0001086256
9.4011299e-05
8.0522208e-05
7.5297348e-05
5.7808211e-06
6.3892814e-05
0.00012016003
0.00016287718
0.00018568431
0.00019530467
0.00019627445
0.0001901605
0.00018131294
0.00017213037
0.00016758209
0.0001667928
0.00016725204
0.00016854088
0.0001691367
0.00016757602
0.00016095766
0.00014995911
0.00013844966
0.00012248781
0.00010790739
9.1977695e-05
8.0685619e-05
5.5050113e-06
5.2319078e-05
9.6266988e-05
0.00014599263
0.00017829401
0.00019709499
0.00020604222
0.00020605505
0.00019926118
0.00019048925
0.00018111477
0.00017443844
0.00016986607
0.00016729351
0.00016590192
0.00016527361
0.00016468478
0.00015887848
0.00014966555
0.00013862707
0.00012487709
0.00011193176
9.4754325e-05
5.6529028e-06
4.1982066e-05
7.2026987e-05
0.00011641902
0.00015538018
0.00018400845
0.00020271161
0.00021338536
0.00021319768
0.00020748635
0.00020051829
0.00019301097
0.00018663254
0.00018077321
0.00017572046
0.00017136573
0.00016820337
0.00016505807
0.00016017346
0.00015282299
0.00014174271
0.00013296952
0.00011508628
6.0275067e-06
3.3241273e-05
5.9524472e-05
9.7342464e-05
0.00013570411
0.00016748354
0.00019268325
0.0002107018
0.0002235026
0.00022339324
0.00021794526
0.00021159652
0.00020556698
0.00019930078
0.00019407551
0.00018918706
0.00018414441
0.00017940257
0.00017425034
0.00016871899
0.00015938339
0.0001518989
0.00013587934
6.1159696e-06
3.0884787e-05
5.5547062e-05
9.6133104e-05
0.00013877032
0.00017242113
0.00019762839
0.00021560222
0.00022939261
0.00024198262
0.00024335918
0.00023603317
0.0002277541
0.00022164579
0.00021560441
0.00020946397
0.00020411672
0.00019945064
0.00019474552
0.0001896278
0.00018059964
0.00017339306
0.00015779531
6.6038547e-06
3.752328e-05
7.1458521e-05
0.00011463857
0.00016290426
0.00020475761
0.00023240612
0.00024962382
0.00025749408
0.00026295282
0.00026924876
0.00027197433
0.00026510439
0.00025445251
0.00024461387
0.000237194
0.00023086723
0.00022456476
0.00021841489
0.00021295397
0.00020679226
0.00020141518
0.00018830857
6.499635e-06
5.4772816e-05
0.00010918841
0.00017018372
0.0002228485
0.00026000075
0.00028693253
0.00030651692
0.00031451538
0.00031240243
0.00030779613
0.00030380403
0.00030270181
0.00029906717
0.00029032825
0.00027844953
0.00026707961
0.00025809888
0.00025073796
0.00024468416
0.00023906209
0.0002341148
0.00022285686
6.4909288e-06
7.324402e-05
0.00014805024
0.00022450746
0.00028848069
0.00033387778
0.00035998858
0.00037155918
0.00037851598
0.00037809339
0.00036987933
0.0003583542
0.00034740802
0.00033825656
0.00033126722
0.00032435282
0.00031565803
0.00030482765
0.00029355592
0.00028366896
0.00027578355
0.00027001298
0.0002598331
6.3721722e-06
8.2496171e-05
0.0001699749
0.00025845334
0.00033309802
0.00038838995
0.0004243796
0.00044335451
0.00044799102
0.00044330378
0.00043516829
0.00042418448
0.0004103737
0.00039634474
0.00038379889
0.00037253876
0.00036164981
0.00035132066
0.00034139252
0.00033146237
0.00032136701
0.00031343878
0.00030223472
6.2556935e-06