/*--------------------------------*- C++ -*----------------------------------*\
| =========                 |                                                 |
| \\      /  F ield         | OpenFOAM: The Open Source CFD Toolbox           |
|  \\    /   O peration     | Version:  2406                                  |
|   \\  /    A nd           | Website:  www.openfoam.com                      |
|    \\/     M anipulation  |                                                 |
\*---------------------------------------------------------------------------*/
FoamFile
{
    version     2.0;
    format      ascii;
    arch        "LSB;label=32;scalar=64";
    class       volScalarField;
    location    "150";
    object      TMean;
}
// * * * * * * * * * * * * * * * * * * * * * * * * * * * * * * * * * * * * * //

dimensions      [0 0 0 1 0 0 0];

internalField   nonuniform List<scalar> 
20580
(
1.0022115
1.0019255
1.0019068
1.0019079
1.0019061
1.0018918
1.00189
1.0018947
1.0019029
1.001912
1.0019231
1.0019347
1.0019421
1.0019544
1.0019576
1.0019677
1.0019672
1.0019472
1.0019266
1.0018929
1.001856
1.0018288
1.0018136
1.0017493
1.001598
1.0014808
1.0014785
1.0014983
1.0013096
1.0009798
0.99980787
1.0021519
1.0019024
1.0018889
1.0018901
1.001883
1.0018765
1.0018812
1.0018873
1.0018976
1.0019074
1.0019176
1.0019281
1.0019368
1.001941
1.0019496
1.0019548
1.0019493
1.001926
1.0018979
1.0018636
1.0018173
1.0017899
1.001775
1.001726
1.0015908
1.0013818
1.0012189
1.001194
1.0011742
1.0011537
1.0003403
1.0021761
1.0018881
1.0018885
1.0018982
1.0018863
1.0018783
1.0018827
1.0018893
1.001899
1.0019077
1.0019171
1.0019251
1.0019294
1.0019332
1.0019388
1.0019385
1.0019216
1.0018949
1.0018587
1.0018157
1.001763
1.0017249
1.0017035
1.0016577
1.0015431
1.0013349
1.0010785
1.000899
1.0008012
1.0008746
1.0006121
1.0022691
1.0018963
1.0018886
1.0019105
1.0018993
1.0018903
1.0018912
1.0018955
1.0019033
1.0019114
1.0019181
1.0019244
1.0019295
1.0019311
1.0019335
1.0019295
1.00191
1.0018804
1.001838
1.0017901
1.0017378
1.0016812
1.0016471
1.0016121
1.0015004
1.0013105
1.0010667
1.0008252
1.000587
1.0003974
1.0004137
1.0022951
1.0019535
1.0019005
1.0019175
1.0019041
1.001892
1.0018938
1.0018955
1.0019018
1.0019103
1.0019183
1.0019248
1.0019295
1.0019332
1.0019317
1.0019257
1.0019079
1.0018793
1.0018335
1.0017807
1.0017137
1.0016463
1.0015973
1.001561
1.0014825
1.0013252
1.0011225
1.0008543
1.0005458
1.0001704
0.99993471
1.0021995
1.0019526
1.0019114
1.0019066
1.0018902
1.0018803
1.0018855
1.0018904
1.001899
1.0019089
1.0019176
1.0019242
1.0019292
1.0019315
1.0019333
1.0019284
1.0019132
1.0018842
1.0018389
1.001787
1.0017193
1.0016325
1.0015688
1.0015227
1.0014341
1.0013079
1.0011681
1.0009541
1.000655
1.000273
0.99971318
1.0021546
1.0019111
1.0019204
1.0019124
1.001892
1.0018829
1.0018864
1.0018904
1.0018989
1.0019079
1.0019146
1.0019214
1.0019252
1.0019269
1.0019259
1.001925
1.0019142
1.0018877
1.0018436
1.001796
1.0017294
1.0016366
1.0015527
1.0014748
1.0013549
1.0012083
1.0010614
1.0009331
1.0007584
1.0005614
1.0000489
1.0021765
1.0018695
1.0018946
1.0019244
1.0019078
1.0018964
1.0018944
1.0018953
1.0018998
1.0019075
1.0019139
1.0019185
1.0019203
1.0019208
1.0019189
1.0019133
1.0018947
1.0018629
1.0018211
1.0017749
1.001723
1.0016379
1.0015292
1.0013979
1.0012569
1.0011165
1.0009591
1.0007767
1.0005787
1.0003543
1.0002007
1.0021423
1.0018328
1.0018327
1.0018995
1.0019021
1.0018937
1.0018929
1.0018929
1.0018987
1.0019062
1.0019117
1.001917
1.0019183
1.0019181
1.0019151
1.0019073
1.0018902
1.0018563
1.0018112
1.0017639
1.0017088
1.0016319
1.0015178
1.0013708
1.0012163
1.0010668
1.0008833
1.0006533
1.0003841
1.0000377
0.99983187
1.001897
1.0017025
1.0017481
1.0018176
1.0018418
1.0018529
1.0018684
1.0018806
1.0018913
1.0019026
1.0019104
1.0019153
1.0019177
1.0019172
1.0019123
1.001904
1.0018882
1.0018577
1.0018142
1.0017606
1.0017052
1.0016333
1.0015545
1.0014331
1.0012816
1.0011365
1.000948
1.0006937
1.0003698
1.000004
0.99955827
1.0017646
1.0015362
1.0016289
1.0016831
1.0017179
1.0017624
1.0018011
1.0018301
1.001853
1.0018728
1.0018885
1.0019001
1.0019087
1.0019106
1.0019089
1.0019014
1.0018916
1.001864
1.0018241
1.0017702
1.0017065
1.0016356
1.0015693
1.0014855
1.0013826
1.0012716
1.001133
1.0009542
1.0007004
1.0004426
0.99992491
1.0018286
1.0015333
1.0015514
1.0016131
1.0016373
1.0016599
1.0016952
1.0017303
1.0017626
1.0017945
1.0018206
1.0018419
1.0018583
1.0018682
1.0018752
1.0018783
1.0018783
1.0018596
1.0018266
1.0017667
1.0016897
1.0016172
1.0015273
1.0014073
1.0013011
1.0012224
1.0011393
1.0010033
1.0007955
1.0005411
1.000284
1.0020402
1.0016564
1.0015842
1.0016138
1.0016104
1.0016098
1.0016229
1.0016445
1.0016726
1.001702
1.0017282
1.0017516
1.0017697
1.0017806
1.0017905
1.0017998
1.0018029
1.0017882
1.0017665
1.0017252
1.0016477
1.001547
1.0014143
1.0012416
1.0010744
1.0009669
1.0008852
1.0007501
1.000542
1.0002071
1.0000083
1.0021381
1.0017802
1.0017335
1.0017076
1.0016752
1.001656
1.0016494
1.0016492
1.0016552
1.0016684
1.0016826
1.0016982
1.001713
1.0017248
1.0017294
1.0017286
1.0017252
1.001715
1.0016966
1.0016592
1.0015878
1.0014854
1.0013439
1.0011649
1.0009834
1.0008209
1.0006684
1.0004959
1.0002692
0.99996091
0.99967609
1.0020198
1.0017478
1.0017826
1.0017531
1.001718
1.0017074
1.0017031
1.0016986
1.0016972
1.0016994
1.0017011
1.0017035
1.0017078
1.0017108
1.0017091
1.0017029
1.0016982
1.0016802
1.0016558
1.0016329
1.0015577
1.001475
1.0013661
1.0012293
1.0010743
1.0008898
1.0006875
1.0005201
1.0003404
1.0001257
0.99980413
1.001899
1.0016514
1.0016901
1.0017039
1.001691
1.0016847
1.0016837
1.0016854
1.0016922
1.0017027
1.0017089
1.0017116
1.0017136
1.0017134
1.0017109
1.0017048
1.0016987
1.0016794
1.0016516
1.0016127
1.0015682
1.0015152
1.0014474
1.0013592
1.0012523
1.0011336
1.0010092
1.0008705
1.0006866
1.0004938
1.0002255
1.002044
1.0017037
1.0016933
1.0017107
1.0016977
1.0016862
1.0016806
1.0016777
1.0016794
1.0016903
1.0016955
1.0016982
1.0017005
1.001699
1.0016943
1.0016907
1.0016866
1.0016696
1.0016389
1.0015933
1.0015469
1.0014895
1.0014232
1.0013237
1.0012123
1.0011131
1.0010283
1.0009082
1.000742
1.0004992
1.0003199
1.0021253
1.0017586
1.0017831
1.0017879
1.0017678
1.0017565
1.0017476
1.0017414
1.0017325
1.0017349
1.0017327
1.0017291
1.0017259
1.0017196
1.0017101
1.0017015
1.0016926
1.0016712
1.0016327
1.001578
1.0015102
1.0014132
1.0012935
1.0011544
1.0010016
1.0008438
1.0006865
1.0005179
1.0003363
1.0001027
0.9999766
1.0019535
1.0016871
1.001763
1.0017458
1.0017289
1.0017351
1.00174
1.0017429
1.0017442
1.0017556
1.0017553
1.0017519
1.0017481
1.0017422
1.0017349
1.0017276
1.0017109
1.0016891
1.001647
1.0015855
1.0015081
1.001403
1.0012577
1.0010911
1.0009142
1.0007298
1.0005217
1.0002946
1.0000621
0.99983586
0.99968818
1.0019179
1.0016234
1.0016717
1.0016529
1.001641
1.0016409
1.0016383
1.0016486
1.0016481
1.0016738
1.0016817
1.0016873
1.0016934
1.0016953
1.0016951
1.001693
1.0016811
1.0016672
1.0016358
1.0015874
1.0015256
1.0014369
1.0013238
1.0012005
1.0010655
1.0009003
1.0007088
1.0005132
1.0003284
1.0001618
1.0000181
1.001959
1.001635
1.0016854
1.001682
1.0016684
1.001661
1.0016516
1.0016433
1.0016385
1.0016524
1.00165
1.0016482
1.0016482
1.0016463
1.001645
1.0016409
1.0016296
1.0016158
1.0015901
1.0015645
1.0015266
1.0014755
1.0014191
1.0013607
1.0012816
1.0011738
1.001072
1.0009645
1.0008717
1.0007447
1.0005947
1.0019517
1.0015465
1.001684
1.001611
1.001572
1.0015574
1.001539
1.0015325
1.0014986
1.0015237
1.0015094
1.001499
1.0014905
1.0014762
1.0014688
1.0014641
1.0014468
1.0014266
1.0013958
1.0013639
1.0013186
1.0012625
1.0012013
1.0011257
1.0010391
1.0009241
1.0007984
1.0006599
1.0005261
1.0003654
1.0002563
1.0018753
1.0009248
1.0012415
1.0009075
1.0010003
1.0010609
1.0010298
1.0009791
1.0011073
1.0010763
1.0010983
1.0010472
1.0010422
1.0009951
1.0010974
1.0011246
1.0009559
1.0009941
1.0010283
1.0009375
1.0008695
1.0007876
1.00068
1.0005841
1.0004699
1.0003342
1.0001383
0.99990199
0.99965778
0.99942353
0.99928716
0.99892427
0.99995959
1.0004275
0.9999302
0.9993616
0.99936143
0.99974231
1.0000351
0.99973035
0.99909853
0.99902804
0.99964742
0.99985881
0.99920111
0.99883167
0.99926154
0.99972346
0.99944111
0.99906153
0.99935789
1.0000211
1.0000278
0.99925361
0.99865518
0.99967562
1.0002651
0.999884
0.99914573
0.99878645
0.99911832
0.99975371
0.99976261
0.99881394
0.99820602
0.99884506
0.99964105
0.99917851
0.99819418
0.99821649
0.99897313
0.99928611
0.99851844
0.99802937
0.99856496
0.99932352
0.99908758
0.99808503
0.99929057
1.0000302
0.99961828
0.9986032
0.99795247
0.99851721
0.99944096
0.9996013
0.99837219
0.99728584
0.99789866
0.99913813
0.99912821
0.99769131
0.99702824
0.99779521
0.99873959
0.99829735
0.99700101
0.9971133
0.99821313
0.99871811
0.99710291
0.99860848
0.99966194
0.9992935
0.9978388
0.99664533
0.99738806
0.99878053
0.99939778
0.99805199
0.99611119
0.99631009
0.99798963
0.99893621
0.9975046
0.99567372
0.99602394
0.99757306
0.99805153
0.99617609
0.99522586
0.99623948
0.99750548
0.9960049
0.99777973
0.99915985
0.99895783
0.99713241
0.99528348
0.99589034
0.99775494
0.99899815
0.99783434
0.99492917
0.99416179
0.99614956
0.99820804
0.99748515
0.99426966
0.99339132
0.99528032
0.99716406
0.99602672
0.9932858
0.99350391
0.99536411
0.99471649
0.99676344
0.99847932
0.99851427
0.99632233
0.99370992
0.99372193
0.9960353
0.9981763
0.99763574
0.99402674
0.99144291
0.99324613
0.99640951
0.99739332
0.9939454
0.9907078
0.99203001
0.99512309
0.99595407
0.99248982
0.99048664
0.99211312
0.99297463
0.9954091
0.99756259
0.99788669
0.99535677
0.991901
0.99098264
0.99362564
0.99679486
0.99740493
0.99352245
0.98879009
0.98962985
0.99343454
0.99637425
0.99428351
0.98852734
0.98785193
0.99128845
0.994477
0.99292758
0.98786214
0.98774147
0.9906266
0.99359148
0.99630132
0.99702958
0.99422405
0.98976634
0.98755858
0.99035535
0.99456515
0.99661962
0.9931159
0.98635135
0.9848504
0.98886991
0.99401174
0.99447911
0.98801276
0.98328379
0.98583559
0.99093699
0.99284399
0.9877684
0.98341865
0.98749553
0.9911179
0.99461524
0.99576635
0.9926455
0.98686842
0.98296995
0.98576212
0.99103918
0.99497665
0.99263249
0.98452431
0.97929977
0.98273827
0.98954809
0.99332469
0.9884933
0.97984769
0.97951392
0.98483029
0.9902724
0.98865681
0.98114675
0.98330652
0.98778015
0.99237325
0.99405128
0.9906412
0.98328226
0.97743632
0.97995607
0.98621318
0.99228926
0.99178288
0.9830369
0.97398123
0.97555552
0.98290295
0.99014389
0.98862449
0.97838989
0.97269387
0.97678113
0.98474984
0.9879447
0.98148286
0.97830789
0.98370276
0.98962046
0.99187005
0.98798887
0.97871699
0.97079193
0.97267942
0.97988498
0.98821652
0.98995103
0.98120867
0.96915032
0.96695261
0.9741412
0.9843967
0.98728175
0.97793053
0.96672356
0.96753805
0.97604009
0.9841848
0.98190657
0.97206179
0.97844219
0.98596155
0.98890894
0.98428055
0.97270797
0.96257557
0.96330908
0.97166528
0.98252143
0.98671898
0.97862433
0.96441719
0.9570177
0.96364869
0.9762724
0.983716
0.97692326
0.96263452
0.95740392
0.96497523
0.97693916
0.98057853
0.96457003
0.97197014
0.9813988
0.98519884
0.97942529
0.9653335
0.95274811
0.95172627
0.96157206
0.97529265
0.98201903
0.97503932
0.95891271
0.94645123
0.95182755
0.9661717
0.97791952
0.97476709
0.95947054
0.94732413
0.95268879
0.96684842
0.97652403
0.95599457
0.96450904
0.97591997
0.98047335
0.9734144
0.95673242
0.94156251
0.93867211
0.95016448
0.96679263
0.97598657
0.96988722
0.95205554
0.93606736
0.93951491
0.95479506
0.97022009
0.97095845
0.95543866
0.9386459
0.94033496
0.95518873
0.97000447
0.94673796
0.95629528
0.96952669
0.97480634
0.96620736
0.94698071
0.92943407
0.92495148
0.93797514
0.95718631
0.96848721
0.9630573
0.94401216
0.92616992
0.9275175
0.94312124
0.9613437
0.96535237
0.95022965
0.93094747
0.92815818
0.9431127
0.96167025
0.93652709
0.94728711
0.96215676
0.96795123
0.95799571
0.93644078
0.91677852
0.91107042
0.92543171
0.94672534
0.95957919
0.9544471
0.93465828
0.9161475
0.91589854
0.93166242
0.95178011
0.95812109
0.94360727
0.92305353
0.91602327
0.93129213
0.95253523
0.9259468
0.93780271
0.95407114
0.96007838
0.94855227
0.92479917
0.90337716
0.89692634
0.91258297
0.93557797
0.94946292
0.94427846
0.92409374
0.90556705
0.90438895
0.92058226
0.94194346
0.94964157
0.93547621
0.91409962
0.90438931
0.92037039
0.94345084
0.91458304
0.92748437
0.94496268
0.95128587
0.93861006
0.91279951
0.88951692
0.88230706
0.89900598
0.92348303
0.93823462
0.93315514
0.91278175
0.89432931
0.89280108
0.90979332
0.9320613
0.94014814
0.92583018
0.90397124
0.89336757
0.91067369
0.93496295
0.9022284
0.91620423
0.93482505
0.94176432
0.92838405
0.90069838
0.87544296
0.86748106
0.88500896
0.91069634
0.92611483
0.92109386
0.90063787
0.88239343
0.88140943
0.89962915
0.92225257
0.92955548
0.91453111
0.89273245
0.88316344
0.90259139
0.92730605
0.8886849
0.90398115
0.923918
0.93170607
0.91796697
0.88855324
0.86128418
0.85268258
0.87075712
0.89735597
0.91327681
0.90814295
0.88752584
0.86973523
0.87041658
0.88999447
0.91247712
0.91806651
0.90191758
0.88082565
0.87410554
0.8961812
0.92025094
0.87291587
0.88988283
0.91182392
0.92121963
0.90775527
0.87679346
0.84750763
0.83846255
0.85677224
0.88375948
0.89980623
0.89414905
0.87337228
0.85666814
0.86038143
0.88138365
0.90282733
0.90539797
0.88759439
0.86831966
0.86691079
0.89155317
0.91299541
0.8554696
0.87348285
0.89772462
0.90973201
0.89783943
0.86602569
0.83452749
0.82496399
0.84312903
0.86998477
0.88561201
0.8790761
0.85836816
0.84353302
0.8516172
0.87377966
0.89285664
0.89102132
0.87166525
0.85585518
0.86261624
0.88819231
0.90410963
0.83029125
0.85020341
0.87855055
0.89571482
0.88860947
0.85864562
0.82488079
0.81296695
0.82986488
0.85566313
0.87057636
0.86335216
0.84355096
0.83169899
0.84415494
0.86674688
0.88200526
0.87523567
0.85540419
0.84488987
0.86094526
0.88510457
0.89217107
0.79532536
0.81557955
0.84720864
0.8708103
0.87254984
0.85021381
0.81881408
0.80567354
0.81965903
0.84229546
0.85532418
0.8474965
0.82953255
0.82213781
0.8380639
0.85980814
0.86974004
0.85823828
0.84046485
0.83841525
0.86110473
0.88019327
0.87637154
0.75646856
0.77761305
0.81262152
0.84105882
0.84915195
0.83512303
0.81053955
0.79965284
0.81151
0.83026638
0.84015335
0.8318321
0.81701097
0.81553882
0.8332518
0.8522542
0.85555211
0.84126475
0.82890641
0.83780748
0.86117052
0.87081653
0.85827168
0.72296091
0.74140778
0.77382443
0.80557993
0.82255775
0.81949747
0.80299003
0.79640534
0.80565984
0.8194033
0.82515142
0.81721484
0.8072243
0.81212966
0.82946882
0.8433859
0.84021002
0.82646826
0.82287019
0.8411282
0.85878028
0.85621409
0.84143043
0.71910938
0.73235809
0.75384736
0.77425112
0.78809713
0.79450337
0.79424314
0.79614382
0.80331554
0.81080205
0.81216983
0.80572721
0.8017738
0.81125177
0.82590344
0.83313735
0.82600583
0.81696971
0.82414018
0.84379643
0.85081033
0.84014935
0.83150182
0.7221453
0.73081174
0.74504528
0.75867222
0.76750168
0.77157417
0.77755086
0.78985071
0.79889591
0.80328384
0.802314
0.79854783
0.80030542
0.81102837
0.82149727
0.82290683
0.81551812
0.81455265
0.82921107
0.8422954
0.83863895
0.8285196
0.83125111
0.73419299
0.73763457
0.74227075
0.74780038
0.75338921
0.76048496
0.76828302
0.78189934
0.79298829
0.79670107
0.79554461
0.7952093
0.80073997
0.81032726
0.8161879
0.81451925
0.81074056
0.81798131
0.83219437
0.83563105
0.82790446
0.82534772
0.83855866
0.74377889
0.74331232
0.74229546
0.74139444
0.74460201
0.75338733
0.7652362
0.77812396
0.78837882
0.79188065
0.79203098
0.79479866
0.80166087
0.80870493
0.81101282
0.80930929
0.81133243
0.82243909
0.83047809
0.82737177
0.82277923
0.82962972
0.8424942
0.75152169
0.75009323
0.74576625
0.74167264
0.74315945
0.75188174
0.76474387
0.77751023
0.78618276
0.78931811
0.7910475
0.79571548
0.80218351
0.80671765
0.80755973
0.80819157
0.81487349
0.82433716
0.82603152
0.82238746
0.82400315
0.83435083
0.83778863
0.75507798
0.75389294
0.74933464
0.74492827
0.74627177
0.75460553
0.76668085
0.77833036
0.78537883
0.78840047
0.79154399
0.79669329
0.80183944
0.80457572
0.80578733
0.80965453
0.81780562
0.82296414
0.82161694
0.82083876
0.82690466
0.83313474
0.82840366
0.75845095
0.75763069
0.75356615
0.74973405
0.75122153
0.75885477
0.76975605
0.78001537
0.78569651
0.78883556
0.79265714
0.79734003
0.80142253
0.80380596
0.80652103
0.81222886
0.81880671
0.82046173
0.8192808
0.8215248
0.82739326
0.82738875
0.82054384
0.75965052
0.75972411
0.75679692
0.75419469
0.75646336
0.76370129
0.77306563
0.78136665
0.78600617
0.78929371
0.79319954
0.79738392
0.80069713
0.80353534
0.80784023
0.81390342
0.8180321
0.81797789
0.81837057
0.8224566
0.82517254
0.82127117
0.81656676
0.76103681
0.76204773
0.76057911
0.75906382
0.76182462
0.76855548
0.77646786
0.78309144
0.78709934
0.79046456
0.79429853
0.79811393
0.80150873
0.80535403
0.81023436
0.81465917
0.81639418
0.81661426
0.8185627
0.82104529
0.82017197
0.8168396
0.81680795
0.76073204
0.76266339
0.76267681
0.76221682
0.76463965
0.77015737
0.77665337
0.78251551
0.78633471
0.78950044
0.79305581
0.79679836
0.80016681
0.80389782
0.80852463
0.81282123
0.81482534
0.81517928
0.81681096
0.8192049
0.81947031
0.81762721
0.81797268
0.75990039
0.76240996
0.76354703
0.76401754
0.76625663
0.77068328
0.77603216
0.78128003
0.78505477
0.78807213
0.79137474
0.79493265
0.79827733
0.80186984
0.80612969
0.8103788
0.81298149
0.81382897
0.81515161
0.81740903
0.81880401
0.81847163
0.81929571
0.75882836
0.7615801
0.76350091
0.76485118
0.76725395
0.77100769
0.77543845
0.78006396
0.78374582
0.78663773
0.78973514
0.79315199
0.79643299
0.79990622
0.80386134
0.80795971
0.81097393
0.81233153
0.8135642
0.81559197
0.81764314
0.8186521
0.82028163
0.75738581
0.76020825
0.76268308
0.76476564
0.76747969
0.77097384
0.7748095
0.77884136
0.78237448
0.78518331
0.78808867
0.79134266
0.79458047
0.79791423
0.80161007
0.80551898
0.80877872
0.81060403
0.81193251
0.81382383
0.81626664
0.81834511
0.82084334
0.75589317
0.75851635
0.76122088
0.76383194
0.76692387
0.77045962
0.77408253
0.77763453
0.78095676
0.78371296
0.78644264
0.78951368
0.79268889
0.79590241
0.7993229
0.80298759
0.8063878
0.80866546
0.81025872
0.81212529
0.81477291
0.81759184
0.82091065
0.75422341
0.75653828
0.7593471
0.7622984
0.76568744
0.76940161
0.77307945
0.77641383
0.77951447
0.78220494
0.78478072
0.78764477
0.7907221
0.79385105
0.79704395
0.80039344
0.80373101
0.80644361
0.80845969
0.81054438
0.81329514
0.81644374
0.82035175
0.75302011
0.75458052
0.75720446
0.76031105
0.76389773
0.76780547
0.77166259
0.775054
0.77803076
0.78064752
0.78309259
0.78574655
0.78868439
0.79171217
0.79475597
0.79781379
0.80094225
0.80390761
0.80646093
0.80896101
0.81188292
0.8151226
0.81927243
0.75291978
0.75314763
0.75514489
0.75809925
0.76170971
0.76572919
0.76975197
0.77336615
0.77642197
0.77901387
0.78136058
0.78382989
0.78659017
0.78950496
0.79240802
0.79526605
0.79818042
0.80121687
0.80423199
0.80722856
0.81041927
0.81371569
0.81789676
0.75443025
0.7529562
0.75374497
0.75605213
0.75937929
0.76332149
0.76740482
0.77123458
0.77450974
0.77722285
0.77955639
0.78189382
0.78446947
0.78723486
0.79001264
0.79273683
0.7955186
0.79856733
0.80187598
0.80527471
0.80874759
0.81217669
0.8164175
0.75667061
0.75394565
0.753448
0.75466609
0.7572926
0.76084746
0.76479241
0.76870274
0.77219362
0.77513172
0.77760042
0.7799073
0.7823425
0.78494181
0.7875936
0.79025368
0.79299952
0.79607868
0.79952495
0.80314951
0.8068456
0.81047796
0.81489101
0.75910109
0.75609937
0.75451916
0.75438664
0.7558937
0.75866744
0.76217728
0.76593873
0.76952274
0.77268523
0.77539056
0.7778088
0.78019656
0.78267028
0.7852154
0.78784878
0.79064904
0.79377466
0.79726136
0.80098063
0.80484247
0.80870464
0.8133549
0.76187024
0.75892748
0.75664288
0.75531848
0.75551824
0.75717144
0.75990161
0.76322475
0.76668586
0.76995644
0.77289601
0.7755324
0.77800852
0.78045795
0.78296222
0.7856094
0.78848414
0.79166349
0.79516752
0.79894336
0.80293222
0.80700218
0.81188857
0.76423712
0.76143044
0.75883023
0.75688338
0.75606581
0.75657902
0.75830711
0.7609161
0.76398888
0.7671655
0.77023033
0.77309335
0.77576282
0.77832602
0.78090633
0.78362581
0.78657286
0.78980853
0.79335745
0.79719748
0.8012873
0.80551812
0.81060766
0.766604
0.76328759
0.76039292
0.75821634
0.75692848
0.75666362
0.75749186
0.75928315
0.76175609
0.76461353
0.76761693
0.77061002
0.77350649
0.77630685
0.77909086
0.78196379
0.78502101
0.7883393
0.7919544
0.79586709
0.80005138
0.80440947
0.80966848
0.76832603
0.76463462
0.76149805
0.75918079
0.75768816
0.75702096
0.75724137
0.75833835
0.76018911
0.76259015
0.76535797
0.76833924
0.77141653
0.77450888
0.77759233
0.78070915
0.78394298
0.7873843
0.7910892
0.79507999
0.79935196
0.80382952
0.80923129
0.77013259
0.76593451
0.76259895
0.76015626
0.75849588
0.7575614
0.7573905
0.75799806
0.75934022
0.76131119
0.76377887
0.76665045
0.76982655
0.7731775
0.77658365
0.7800043
0.78348003
0.78708999
0.79090805
0.7949845
0.79934699
0.80394511
0.80947501
0.77133192
0.76731213
0.76396146
0.76145915
0.75966537
0.75851403
0.75805338
0.75831873
0.75930328
0.76095798
0.763201
0.76596582
0.76918675
0.77271949
0.77640106
0.78012615
0.78387938
0.78770828
0.79168455
0.79587595
0.80033751
0.80504151
0.81063293
0.7733458
0.76919945
0.76594399
0.76343855
0.76156495
0.76027523
0.75962552
0.75966819
0.76043246
0.76190818
0.76405481
0.76681278
0.77008676
0.77374794
0.77763866
0.78162765
0.78565851
0.789738
0.79391726
0.79825914
0.80282745
0.80760899
0.81315141
0.77537743
0.77173865
0.76878927
0.76639846
0.76455804
0.76326454
0.76258244
0.76257835
0.76330519
0.76478176
0.76698942
0.76985749
0.7732654
0.77706928
0.78113705
0.78535177
0.78964043
0.79397531
0.7983773
0.80289274
0.80757519
0.81240359
0.81777881
0.77798423
0.77487989
0.77252302
0.77050327
0.76891264
0.7678181
0.76731053
0.7674843
0.7684025
0.77009615
0.77254453
0.77565741
0.77929844
0.78332571
0.78760992
0.79204946
0.79658019
0.80116586
0.80580187
0.81051161
0.81532245
0.82016512
0.82527237
0.78052568
0.77838524
0.77685466
0.77550121
0.77448693
0.77391545
0.77388838
0.77450612
0.77585016
0.77795432
0.78078685
0.78425235
0.78821878
0.79254607
0.7971094
0.80181984
0.80661645
0.81146684
0.81635715
0.82128711
0.82625438
0.83113863
0.83594495
0.78333392
0.78216055
0.78156599
0.78105815
0.78085967
0.78110952
0.78188423
0.78325954
0.78529376
0.78800217
0.79134539
0.79524002
0.79957423
0.80423253
0.80911532
0.81413892
0.819242
0.8243851
0.8295471
0.8347108
0.8398308
0.84476849
0.8493
0.78643619
0.78616697
0.78662213
0.78705342
0.78776995
0.78895224
0.7906904
0.79303278
0.79598431
0.79951159
0.80354267
0.80798264
0.81275424
0.8177818
0.82299347
0.82832472
0.83371923
0.83912391
0.84447957
0.84975216
0.85487246
0.85967854
0.8638527
0.78970715
0.79045481
0.79203307
0.79346936
0.79513698
0.79727525
0.79999444
0.80333044
0.80725509
0.81169593
0.81654365
0.82169593
0.8270588
0.83256401
0.83815315
0.8437692
0.84933361
0.85479176
0.86013971
0.8653756
0.87038728
0.87491694
0.87839692
0.79304463
0.79504805
0.79779871
0.80026778
0.80290394
0.80600197
0.80968423
0.81397168
0.81881086
0.82410854
0.82976534
0.83566906
0.84171353
0.84780331
0.85383925
0.85969606
0.86533961
0.87082087
0.87615957
0.88131665
0.88609192
0.88990696
0.89211764
0.79650266
0.79992534
0.80383994
0.80735809
0.8109708
0.81501252
0.81961488
0.82478728
0.83045886
0.83654289
0.84293554
0.84952435
0.85618465
0.86277113
0.86911943
0.87520368
0.88107982
0.88677266
0.89223877
0.89732459
0.90143907
0.90392214
0.90481629
0.8001847
0.80506144
0.81010251
0.81465661
0.81922625
0.82416733
0.82961893
0.83558117
0.84199416
0.84876925
0.85580423
0.86297189
0.87009607
0.87695879
0.88352726
0.88989691
0.89609844
0.90208598
0.9076767
0.91226879
0.91506693
0.9163908
0.91655625
0.80413396
0.81046842
0.81658228
0.82212055
0.82758739
0.83334944
0.83954636
0.84619371
0.85323505
0.86058515
0.86813008
0.87570102
0.88304281
0.89007465
0.89691993
0.90363002
0.91015469
0.91631486
0.92149399
0.92478955
0.92648508
0.92734995
0.92728648
0.80832604
0.81613249
0.82326044
0.8297086
0.83598633
0.84246647
0.84930154
0.85651751
0.86406496
0.87185438
0.87973601
0.88745276
0.89484638
0.90205687
0.90917275
0.91616664
0.92286772
0.92871064
0.93267617
0.93490486
0.93622564
0.93697553
0.93689849
0.81283209
0.82208404
0.83014497
0.83739951
0.8443812
0.85146933
0.85883322
0.86650542
0.87443767
0.88251427
0.890509
0.89816897
0.90559279
0.91293924
0.92023063
0.92733215
0.93376858
0.9384689
0.94128138
0.94310634
0.94434238
0.94511581
0.94514988
0.81762291
0.82824992
0.83717239
0.84513261
0.85270974
0.86030722
0.86810132
0.87612955
0.88433068
0.89253877
0.90044791
0.90800339
0.91543669
0.92284872
0.93016846
0.93703978
0.94241164
0.9457658
0.94797492
0.94958683
0.95075443
0.95154928
0.95170055
0.82270759
0.83462519
0.8442873
0.8528381
0.8609124
0.8689278
0.87706615
0.88536408
0.89372993
0.9019007
0.90962529
0.9171046
0.92454051
0.93194463
0.93907358
0.94505019
0.94895498
0.95143893
0.95323562
0.95459718
0.95560659
0.95632733
0.9565206
0.82804804
0.84114949
0.85144189
0.86047485
0.86894604
0.87729156
0.88569251
0.89417168
0.90258191
0.91058271
0.91814232
0.92557394
0.93299158
0.94026753
0.94676659
0.95133283
0.95410556
0.9560101
0.957423
0.9584795
0.95924107
0.95976445
0.9598901
0.83357637
0.84773219
0.85853939
0.86794818
0.87672928
0.88532982
0.89392457
0.902505
0.91083018
0.9186009
0.92604971
0.93344702
0.94078554
0.94769454
0.95302564
0.95624083
0.95827269
0.95971701
0.96075877
0.96148784
0.96195224
0.96220406
0.96217485
0.83924784
0.85430367
0.86551933
0.87520875
0.88421786
0.89300259
0.90172
0.91030917
0.91843864
0.92600267
0.93337745
0.94072618
0.94786864
0.95395208
0.95786052
0.96012769
0.96161451
0.96264456
0.96331926
0.96372048
0.96391144
0.96394986
0.96380251
0.84502154
0.86086192
0.87237556
0.88224988
0.89140316
0.90029674
0.90905623
0.917544
0.92541785
0.93282856
0.9401394
0.94737428
0.95404136
0.95887205
0.96157003
0.96316568
0.9641937
0.96483223
0.96519653
0.965382
0.96543886
0.96538751
0.96517896
0.85076319
0.86720094
0.8789459
0.88894964
0.89820358
0.90715636
0.91588637
0.92417691
0.93179568
0.9390845
0.94631343
0.95331665
0.95907936
0.96253368
0.96437056
0.96544309
0.96609265
0.96648515
0.96671609
0.96682344
0.96682391
0.96672416
0.96646446
0.85654572
0.87348166
0.88534274
0.89540502
0.90468915
0.91361843
0.92222564
0.93025212
0.93764647
0.9448247
0.95190696
0.95838189
0.96288062
0.96519212
0.96640078
0.96712151
0.96759416
0.96790713
0.96808854
0.96815764
0.96812092
0.96798493
0.96768258
0.86220008
0.87944329
0.89139157
0.90147286
0.9107446
0.91959695
0.92802564
0.93577258
0.94298425
0.95004219
0.95686143
0.96240958
0.96556304
0.96706549
0.96791136
0.96849879
0.96891115
0.96918455
0.96933417
0.96937315
0.9693098
0.9691488
0.96881489
0.86779686
0.8852696
0.89720256
0.90724221
0.91643742
0.92515193
0.93333711
0.94080677
0.94786073
0.9547461
0.96104439
0.96535162
0.96740457
0.96845458
0.96917353
0.9697013
0.97007365
0.97031296
0.9704347
0.97044939
0.9703643
0.9701859
0.96983245
0.87317459
0.89072261
0.90262778
0.9125992
0.92168777
0.93022503
0.93813848
0.94536406
0.95226488
0.95887545
0.96428588
0.96730759
0.96871221
0.96958776
0.97024184
0.97072
0.97105285
0.97126035
0.97135403
0.97134614
0.97124187
0.97105086
0.97068282
0.87846499
0.89598076
0.90776949
0.91762169
0.92654702
0.9348482
0.94246148
0.94945334
0.95615613
0.96229669
0.96654617
0.96857896
0.96968854
0.97048139
0.9710756
0.97150683
0.97179993
0.97197322
0.97203645
0.97200672
0.97188232
0.97168064
0.97129992
0.88360743
0.90095997
0.91260483
0.92230029
0.93101544
0.93904081
0.94634443
0.9531093
0.95953156
0.96487198
0.96793734
0.96942827
0.97039586
0.97111636
0.9716514
0.97203217
0.9722808
0.97241789
0.97244724
0.97238802
0.97223911
0.9720176
0.97162072
0.88855687
0.90568348
0.9171193
0.92660332
0.93506433
0.94278228
0.9497743
0.95629139
0.96228424
0.96658085
0.96875347
0.96998188
0.970855
0.97150659
0.97198016
0.97230872
0.97251182
0.97260677
0.9725986
0.97250333
0.97232312
0.97207309
0.97164906
0.89322911
0.910168
0.92137546
0.93059853
0.93876465
0.94614357
0.9528174
0.95902897
0.96433095
0.96756527
0.96923443
0.97031701
0.97111467
0.97169922
0.97211619
0.97239662
0.97255234
0.97260504
0.97255457
0.97242118
0.97220373
0.97192057
0.97146659
0.89771752
0.91438712
0.92533181
0.93426907
0.94211971
0.94914138
0.95548885
0.96128783
0.96568361
0.96810231
0.96951471
0.97050272
0.9712336
0.97175819
0.97212295
0.97235306
0.97246136
0.97246631
0.97236941
0.97219264
0.97193378
0.97161632
0.97113265
0.90200585
0.91835353
0.92899972
0.93761383
0.9451299
0.9517954
0.9577986
0.9630061
0.96647593
0.96841185
0.96967597
0.97058848
0.97125357
0.97171918
0.97202761
0.97220383
0.97225713
0.97220989
0.97206236
0.9718397
0.97154101
0.9711941
0.97068974
0.90609606
0.92202554
0.93236503
0.94064914
0.94780659
0.95410379
0.95970954
0.96416876
0.96690354
0.96857033
0.96973245
0.97057619
0.97117753
0.97158564
0.97183521
0.97195342
0.97195041
0.9718508
0.97165443
0.97139086
0.97105775
0.97069028
0.9701664
0.90990756
0.92546625
0.93546504
0.94340664
0.9502104
0.95614572
0.96125736
0.96494489
0.96719047
0.96867121
0.96973771
0.97050305
0.97103606
0.97137758
0.97156335
0.97161719
0.97155429
0.97139921
0.97115625
0.97085637
0.97049875
0.97011399
0.96958
0.91343432
0.9284956
0.93815215
0.94575539
0.95221376
0.95779055
0.96233852
0.96540724
0.96735426
0.96869314
0.9696671
0.97035122
0.97081031
0.97108005
0.97119501
0.9711804
0.97105653
0.97084747
0.97056436
0.97023503
0.96985771
0.96945672
0.96891629
0.91684003
0.93131546
0.94057722
0.94782596
0.9539191
0.95909262
0.96309482
0.96573009
0.96746344
0.96867601
0.96954534
0.97013407
0.97050533
0.97069045
0.97072485
0.97063308
0.97043973
0.97016972
0.96984384
0.96947812
0.96907639
0.96865766
0.96811465
0.92000748
0.93384623
0.94271464
0.94959521
0.95531189
0.96006756
0.9636248
0.96597775
0.9675591
0.96866065
0.96942225
0.96990527
0.9701687
0.97024862
0.97018061
0.96999233
0.96971506
0.96937181
0.9689868
0.96856806
0.96812853
0.96767987
0.96712492
0.92281399
0.93599703
0.94447591
0.95100417
0.95635084
0.96072094
0.96394561
0.96609627
0.96755816
0.96856137
0.96922345
0.96960482
0.9697637
0.9697375
0.96956508
0.96927617
0.96890925
0.96848569
0.9680289
0.96754594
0.96705552
0.96656415
0.96598619
0.92541976