/*--------------------------------*- C++ -*----------------------------------*\
| =========                 |                                                 |
| \\      /  F ield         | OpenFOAM: The Open Source CFD Toolbox           |
|  \\    /   O peration     | Version:  2406                                  |
|   \\  /    A nd           | Website:  www.openfoam.com                      |
|    \\/     M anipulation  |                                                 |
\*---------------------------------------------------------------------------*/
FoamFile
{
    version     2.0;
    format      ascii;
    arch        "LSB;label=32;scalar=64";
    class       volVectorField;
    location    "150";
    object      U_0;
}
// * * * * * * * * * * * * * * * * * * * * * * * * * * * * * * * * * * * * * //

dimensions      [0 1 -1 0 0 0 0];

internalField   nonuniform List<vector> 
20580
(
(0.092697565 -0.0014512096 4.245106e-22)
(0.092876052 -2.6130237e-05 1.2255452e-20)
(0.099626727 0.0010766382 2.8174867e-22)
(0.099985345 0.00014062182 -1.0745784e-20)
(0.099138665 0.0017418784 -7.3524785e-23)
(0.09954768 0.00067042364 2.6534221e-21)
(0.099369934 0.0011357501 6.793485e-21)
(0.099218817 0.00075946443 6.7348715e-21)
(0.098233133 0.0015838251 1.8817611e-21)
(0.09811407 0.0012616737 0)
(0.097800605 0.00053384533 -5.5976721e-21)
(0.097151353 0.0011644456 6.7484796e-20)
(0.096843437 0.001272869 -5.3320485e-21)
(0.096837909 -0.00033724748 4.9766458e-21)
(0.096350276 -0.00040856337 -1.0232121e-20)
(0.095709177 -0.00022007171 1.24903e-20)
(0.096658081 -0.0042615877 5.3002983e-20)
(0.095849921 -0.0040774518 3.9163419e-21)
(0.094394482 -0.0020607546 2.5878926e-20)
(0.096878125 -0.0094138156 -3.3522348e-21)
(0.096782097 -0.010719782 -4.4976218e-22)
(0.094859798 -0.0086592258 -3.7490375e-22)
(0.096938929 -0.015170561 -2.7390117e-20)
(0.10066743 -0.021262849 -2.6323323e-20)
(0.098583824 -0.020430751 1.2856827e-19)
(0.096744659 -0.017951235 1.3445857e-20)
(0.10134825 -0.021095784 6.0236963e-20)
(0.10191676 -0.032134588 -1.4779048e-20)
(0.10225616 -0.041009332 -2.933121e-20)
(0.11195992 -0.040739274 -4.9892622e-20)
(0.11718194 -0.037988052 -6.1105824e-20)
(0.091851363 0.00028117112 0)
(0.091705497 0.0006775431 2.5346233e-20)
(0.099182728 9.887853e-05 -2.4790427e-20)
(0.099331187 0.00069789618 3.1821392e-20)
(0.09918093 0.0011138111 3.0029897e-20)
(0.099422117 0.00081926438 3.394143e-22)
(0.099301114 0.0011750019 6.6718724e-20)
(0.098876233 0.0014783231 2.6471952e-20)
(0.098496246 0.0011345472 -1.7409882e-20)
(0.0982021 0.0012358529 -1.9622244e-20)
(0.097729425 0.00082182582 -2.5344722e-20)
(0.097198736 0.00099262801 5.7179648e-21)
(0.097045481 0.0010037637 -9.6220429e-21)
(0.097026258 -0.00043113207 -1.5898986e-22)
(0.096256245 -0.0002342875 1.6960237e-20)
(0.096249859 -0.00059189349 6.9836707e-22)
(0.096916723 -0.0038877567 -1.139154e-20)
(0.095013667 -0.0026677228 7.1614308e-20)
(0.095448736 -0.0028690664 0)
(0.097845142 -0.0090332186 -2.3625104e-20)
(0.095705231 -0.008162137 0)
(0.095160569 -0.0074558028 -5.0275471e-21)
(0.098342808 -0.01413526 3.9273688e-20)
(0.099788758 -0.017126089 9.7552e-22)
(0.096513289 -0.016007543 5.3751356e-20)
(0.096380355 -0.017452472 -4.2490161e-20)
(0.10508417 -0.02248926 -1.5330072e-20)
(0.10851492 -0.032080659 -7.7274125e-20)
(0.10390717 -0.039388044 -2.2467414e-20)
(0.10771237 -0.035233139 6.3196432e-20)
(0.11813214 -0.03022327 -3.4299059e-20)
(0.091223503 0.0024357586 0)
(0.091166201 0.00164444 0)
(0.098169535 -0.0007972274 1.4004088e-20)
(0.098423664 0.0014857438 -2.7859746e-19)
(0.098647494 0.00038725573 7.801468e-20)
(0.098932222 0.0011760692 2.9373017e-22)
(0.098968078 0.0011800814 -7.9991033e-20)
(0.09861836 0.0020352706 5.3723879e-20)
(0.09834373 0.00078207126 0)
(0.098061531 0.0012158641 -6.2022434e-20)
(0.0976112 0.0011118058 2.767451e-20)
(0.097087932 0.00082845286 1.5577481e-20)
(0.097139024 0.00049458312 0)
(0.097036113 -0.00051876738 5.1767012e-22)
(0.096186311 -0.0002734968 5.7402757e-21)
(0.096506104 -0.0012210575 3.8066285e-21)
(0.096807876 -0.0032430945 2.8750298e-21)
(0.094648576 -0.001824221 1.0590319e-21)
(0.096037058 -0.0041876885 4.9019437e-20)
(0.097963501 -0.0080944827 0)
(0.095061524 -0.0058833924 0)
(0.095730656 -0.0072020231 3.5603388e-20)
(0.098991937 -0.013175724 -1.404648e-20)
(0.099225159 -0.013586454 4.054381e-20)
(0.096158759 -0.013328128 1.5457901e-20)
(0.096265238 -0.018780131 9.6968884e-21)
(0.10585749 -0.024516125 1.390948e-20)
(0.11198801 -0.029781177 -9.2563219e-21)
(0.10535551 -0.035566546 -1.2050746e-20)
(0.10275545 -0.034107087 7.3792863e-20)
(0.11543167 -0.027887259 4.0490005e-20)
(0.090275939 0.0034618493 0)
(0.090555397 0.0022205303 1.4393586e-22)
(0.097080364 -0.0012347378 -7.5018997e-22)
(0.097122166 0.001756947 -3.237923e-21)
(0.097574781 -0.00012412949 1.859171e-19)
(0.097905889 0.0014921299 -2.5123725e-20)
(0.098163744 0.001032588 -7.1764203e-20)
(0.098100544 0.0018995816 0)
(0.097895403 0.00071442963 -3.3422473e-22)
(0.097608308 0.0010332352 7.2462014e-21)
(0.09730411 0.0011619611 6.0606879e-20)
(0.096845275 0.00078208781 1.5180239e-20)
(0.096961526 -5.8420006e-05 1.8676681e-22)
(0.096771101 -0.00032696353 -9.3664961e-21)
(0.096008754 -0.00030197747 1.0604993e-20)
(0.096571764 -0.0019549748 1.6820224e-21)
(0.096518361 -0.0023810106 3.4331072e-20)
(0.094649109 -0.0010452948 -1.6413695e-22)
(0.096570728 -0.0056612018 -1.1407011e-21)
(0.097603168 -0.007066596 4.6791722e-21)
(0.094627021 -0.0042874667 -4.0192195e-21)
(0.096475848 -0.0076269049 3.7586706e-20)
(0.099085421 -0.013064758 -1.3240888e-21)
(0.098636253 -0.011086016 3.5796303e-20)
(0.097532097 -0.01089266 0)
(0.097427908 -0.020333471 5.8126107e-21)
(0.10476695 -0.027084762 1.9337977e-20)
(0.11240794 -0.02638942 1.9673481e-20)
(0.10679474 -0.028589955 -9.2969438e-20)
(0.099065604 -0.032798648 1.540306e-20)
(0.10735338 -0.032066915 1.6030078e-19)
(0.089534891 0.0028510777 0)
(0.09001969 0.0023546696 -9.7602162e-23)
(0.095993882 -0.00085820211 1.4886091e-19)
(0.095779964 0.0014204867 2.1318662e-19)
(0.096127081 -0.00011552538 6.6966598e-22)
(0.096466004 0.0017060001 1.1205977e-20)
(0.096860327 0.00094900791 0)
(0.097129571 0.0011923112 -7.0350691e-21)
(0.0969955 0.00088745325 7.4013607e-22)
(0.096726088 0.00064135901 -2.7187408e-20)
(0.096549786 0.0010074959 4.2965589e-21)
(0.096279399 0.00088582139 -1.0467926e-22)
(0.096437388 -0.00052162569 -1.8540282e-21)
(0.096174083 3.5083805e-05 1.481632e-20)
(0.095714188 -0.00024520379 1.3260151e-20)
(0.096288834 -0.0024844195 -1.6153822e-21)
(0.095905535 -0.0016605479 5.9042076e-20)
(0.094900884 -0.00073305165 4.3147812e-20)
(0.096992759 -0.0067558811 -3.5700599e-20)
(0.096902328 -0.005931605 0)
(0.094566116 -0.003394951 -4.0056277e-22)
(0.097585548 -0.0087297274 7.6452942e-21)
(0.099103388 -0.01331629 4.4537207e-22)
(0.097704533 -0.010285494 1.2839256e-21)
(0.099532574 -0.0096567943 0)
(0.10059289 -0.020029885 1.4366956e-19)
(0.10319627 -0.0274263 2.2963845e-20)
(0.10963769 -0.022570171 -1.3322022e-19)
(0.10898736 -0.020170332 -4.0647281e-20)
(0.10065979 -0.028098516 6.3569604e-20)
(0.1008492 -0.037124414 -1.9943515e-20)
(0.089565846 0.0010746103 -5.9362908e-20)
(0.089526833 0.0018532526 -2.5830457e-22)
(0.094872851 0.00012423922 -8.6615196e-24)
(0.094513143 0.00073235495 -2.7165295e-20)
(0.094519635 0.00038940944 -6.7185588e-21)
(0.094766998 0.0015622572 2.7696563e-22)
(0.09531537 0.00088084703 -3.9921367e-20)
(0.095622116 0.00042558868 -1.9066727e-23)
(0.095587769 0.0010804836 -8.2787301e-21)
(0.095416238 0.00023737789 7.5578966e-20)
(0.095281197 0.00075120218 -2.0189e-20)
(0.095318448 0.00092316883 -6.0523907e-21)
(0.095478816 -0.00068211022 -2.4320905e-21)
(0.095192521 0.00033355557 1.5011374e-20)
(0.095238164 -0.00023240678 1.0057284e-20)
(0.09570471 -0.0025347711 1.1018242e-22)
(0.095025244 -0.0012060569 6.3138631e-20)
(0.09516764 -0.00098292295 5.7531431e-20)
(0.09714489 -0.0070463569 -8.0977459e-22)
(0.095984604 -0.0047468712 0)
(0.094890961 -0.0034052526 4.1334356e-21)
(0.098987813 -0.0098129328 -1.2937277e-19)
(0.099185342 -0.012941767 1.3930384e-20)
(0.096703796 -0.010585293 0)
(0.10140302 -0.010085005 2.602742e-20)
(0.10448403 -0.018580317 -1.2291413e-19)
(0.10229475 -0.02589943 -8.9824213e-21)
(0.10468307 -0.019657469 -3.928608e-19)
(0.10961657 -0.012453943 -1.7588803e-20)
(0.10709047 -0.020014651 2.9051409e-20)
(0.10257552 -0.036382332 8.8316989e-20)
(0.090149014 -0.0010703393 -1.7377133e-21)
(0.088822418 0.00095587551 2.9167393e-20)
(0.093918983 0.0011990791 -4.3086045e-23)
(0.093463441 2.9500668e-07 -1.8813887e-19)
(0.093102332 0.0010648028 5.0602153e-20)
(0.093353575 0.0010554148 -9.6672106e-20)
(0.093819322 0.00091718896 1.0799127e-19)
(0.094005056 0.00010195191 2.5269936e-23)
(0.094005856 0.0010970164 1.2999013e-22)
(0.093898692 3.6201406e-05 -1.7008255e-20)
(0.093687934 0.00061195412 2.7444914e-22)
(0.094012903 0.00077845022 2.1611293e-22)
(0.094154034 -0.00044451532 2.160959e-21)
(0.093920466 0.00050706196 2.5886879e-24)
(0.094469577 -0.00026644031 -7.0718339e-21)
(0.09481366 -0.0021113974 1.8453156e-21)
(0.094025418 -0.0010169743 -4.980322e-22)
(0.095256872 -0.0016935937 -1.0865297e-19)
(0.096850459 -0.0063929246 0)
(0.094975547 -0.0033911524 5.275027e-20)
(0.095341046 -0.0042636355 -7.6014841e-21)
(0.099992757 -0.010305961 -3.1614499e-20)
(0.099153365 -0.011336038 -1.4364057e-20)
(0.095753125 -0.010974747 8.7557955e-22)
(0.10175308 -0.011707761 -5.5270181e-20)
(0.10760367 -0.016216 3.2094462e-21)
(0.10318217 -0.021694375 -1.0780132e-19)
(0.10038662 -0.018924181 1.56244e-21)
(0.10767369 -0.010942885 -2.2258698e-19)
(0.114793 -0.013872703 -1.3459926e-19)
(0.11251296 -0.029453605 1.4076421e-20)
(0.091757864 -0.0025761824 1.8300725e-19)
(0.088748066 0.00025120627 0)
(0.093823299 0.0018757797 2.7140608e-20)
(0.093215333 -0.00039034843 2.2636544e-19)
(0.092510819 0.0016277088 -1.4799199e-19)
(0.092669779 0.00038950516 2.2111463e-22)
(0.092852844 0.00094357963 3.6973324e-20)
(0.092703617 0.00033297063 2.7152893e-22)
(0.092629248 0.00083598197 -9.073877e-22)
(0.092459433 0.00017215043 1.0052811e-20)
(0.09212373 0.0006258757 1.0040825e-20)
(0.092602753 0.00032748344 3.0087991e-23)
(0.092622057 0.00014724567 3.8596965e-21)
(0.092481039 0.00044911226 -1.3994421e-21)
(0.093361365 -0.00031625716 9.358958e-21)
(0.093609236 -0.0013209396 1.2877983e-20)
(0.092923613 -0.00090369513 -2.181671e-20)
(0.094934349 -0.0027063487 -3.7655513e-20)
(0.096026127 -0.0051567812 3.5408796e-22)
(0.094186505 -0.0021626446 -7.5202236e-22)
(0.095718056 -0.0053040206 8.0715078e-21)
(0.099981311 -0.010271383 1.1171353e-22)
(0.098924759 -0.0083776937 0)
(0.095451668 -0.01007928 -1.441686e-21)
(0.10103722 -0.013662701 5.8943392e-20)
(0.10840603 -0.014027082 -6.0835988e-20)
(0.10428925 -0.015361401 -2.2893837e-20)
(0.097701819 -0.01742415 2.872797e-20)
(0.10383439 -0.01504961 3.1731026e-21)
(0.11755546 -0.01425152 -4.9708572e-21)
(0.12317565 -0.022283369 1.5833474e-19)
(0.096214374 -0.0027601267 -1.0297004e-19)
(0.089544656 7.4839853e-05 -1.1459972e-23)
(0.094493445 0.0017982727 6.3653069e-20)
(0.09366552 -0.00025309135 2.4068631e-19)
(0.092780083 0.0017846324 -9.7302739e-22)
(0.092826692 -8.5359231e-05 1.6278245e-22)
(0.092724763 0.00091268186 2.1047028e-20)
(0.092332333 0.00094011185 1.380974e-23)
(0.092099626 0.00045277084 -1.1241183e-21)
(0.091444447 0.00055536795 -1.9157139e-20)
(0.09090413 0.00062452552 -2.0052284e-20)
(0.091275264 -0.00016891943 0)
(0.091148596 0.00078772077 4.7427711e-22)
(0.091151984 0.00010695827 6.2739149e-22)
(0.092049605 -0.00069288326 -7.5189528e-21)
(0.092220633 -0.00046410712 5.6400816e-22)
(0.091825074 -0.00075437917 -1.5044465e-21)
(0.094090979 -0.00375915 2.1034037e-20)
(0.094627313 -0.0036932351 -6.0212384e-20)
(0.093443075 -0.0012492445 -5.8743611e-22)
(0.096009227 -0.0060427561 6.2230595e-20)
(0.099175773 -0.009729225 -5.8161061e-22)
(0.098460753 -0.0046025734 -1.1934102e-20)
(0.096377243 -0.0077255627 -2.6056141e-21)
(0.10012598 -0.015199963 9.6809016e-21)
(0.10697468 -0.013186268 1.0775725e-19)
(0.10583004 -0.0095345157 1.7281473e-20)
(0.098976182 -0.014032482 -1.0799672e-19)
(0.10093657 -0.020678371 8.7485389e-20)
(0.11420723 -0.020133381 2.3810734e-19)
(0.12627008 -0.019581533 -1.3649996e-20)
(0.10506637 -0.0015523066 -2.0311055e-19)
(0.092908592 0.00046012006 -2.4711351e-23)
(0.097072877 0.001134851 -2.6269111e-19)
(0.095633512 0.00036223608 -2.2181122e-19)
(0.094286724 0.0014455827 5.7280305e-22)
(0.093945907 -3.5681903e-05 0)
(0.093293456 0.00083421854 5.8899502e-20)
(0.092720035 0.0013900097 8.3631781e-20)
(0.092313246 7.5070224e-05 -5.6692098e-21)
(0.091434824 0.00082212791 -1.8817294e-20)
(0.090732082 0.00040903424 3.1551512e-23)
(0.090555155 -0.00036441917 1.1085884e-23)
(0.090213334 0.0011144549 0)
(0.090248645 -0.00026905696 3.4837391e-20)
(0.090818719 -0.001088043 1.0128672e-20)
(0.09090149 0.00010233752 1.0974579e-21)
(0.090952232 -0.00059737848 4.231576e-20)
(0.092917422 -0.004243294 1.2456089e-20)
(0.092792869 -0.0021609196 -6.5026116e-20)
(0.092672692 -0.0007722351 2.4924774e-20)
(0.096023447 -0.006488252 7.0200273e-20)
(0.097388147 -0.0088189308 -8.0864611e-20)
(0.097289144 -0.0016910027 -7.2707044e-20)
(0.098206559 -0.0047490576 1.263597e-19)
(0.099974413 -0.014982154 -8.2346796e-20)
(0.10385045 -0.012822228 3.8269016e-21)
(0.10606271 -0.0053451187 1.4639927e-21)
(0.10368429 -0.0094847781 -5.8835834e-20)
(0.1025276 -0.022857945 -1.3987075e-19)
(0.10926268 -0.027391113 1.2061224e-19)
(0.12060134 -0.021341107 3.5467111e-19)
(0.11247339 0.00056258224 -1.8923294e-20)
(0.098730995 0.0012589403 1.0335457e-22)
(0.10203232 0.00024681347 -6.7277908e-20)
(0.10028213 0.0010579694 -5.1037406e-22)
(0.098273194 0.00069044901 4.9561046e-22)
(0.0969894 0.00058162074 2.1860151e-19)
(0.095493688 0.00086074905 7.2697684e-20)
(0.094322312 0.0012708052 5.8398237e-24)
(0.093437149 -8.8403164e-05 -8.3719939e-21)
(0.092190105 0.00079752994 4.0922966e-21)
(0.091266425 -6.8714224e-05 -2.0242042e-21)
(0.090561649 -0.0002354456 -6.8120313e-21)
(0.090196076 0.0010020859 0)
(0.090188661 -0.00041107782 1.1818858e-22)
(0.090089671 -0.0012809632 1.6458088e-20)
(0.089929586 0.00021019218 2.7947307e-22)
(0.090370182 -0.00057344922 -1.918189e-21)
(0.091635885 -0.0039796933 -7.9490533e-23)
(0.09077393 -0.00090527088 -3.129099e-21)
(0.091905851 -0.00099629499 -3.7732458e-22)
(0.095755101 -0.0063576168 -6.5232951e-20)
(0.095002299 -0.007494797 -7.1146461e-20)
(0.095244601 -0.00095145858 6.3545989e-21)
(0.10000381 -0.0030304577 -1.3540037e-20)
(0.10106505 -0.012962846 -4.9803039e-20)
(0.10020933 -0.012999658 -1.3906062e-22)
(0.10371188 -0.0044674701 8.377705e-20)
(0.10834931 -0.0059971887 1.2432201e-19)
(0.10839189 -0.019334106 -1.9578588e-20)
(0.10739975 -0.029427907 -3.2697471e-23)
(0.11111276 -0.023783978 -3.9366371e-20)
(0.11038804 0.0027009391 -1.0862177e-19)
(0.10298962 0.0023571471 0)
(0.10687668 -0.00032816915 1.1156326e-20)
(0.10529157 0.001602387 -2.9168686e-19)
(0.10353304 6.3134248e-05 -1.5927105e-19)
(0.102182 0.0014112353 3.7853537e-20)
(0.10035217 0.00083263622 5.2098997e-22)
(0.098565753 0.00060219438 3.1133043e-23)
(0.096710148 6.3882621e-05 3.6827551e-21)
(0.094665184 0.00047198164 -1.4227038e-20)
(0.093105485 -0.00042990999 1.635419e-20)
(0.091572264 6.4201117e-06 8.3786409e-23)
(0.090908885 0.00041439313 3.8825023e-21)
(0.090799185 -0.00041232635 0)
(0.090195052 -0.0011565689 1.0512837e-20)
(0.089816575 -7.4807241e-05 4.1096227e-20)
(0.090552905 -0.00073690698 -4.4514269e-20)
(0.090944275 -0.0033069987 -2.4561018e-20)
(0.089435781 -0.00020854886 2.4891128e-22)
(0.091289887 -0.0020520292 -3.7058867e-20)
(0.094975971 -0.0054799482 -3.3130663e-20)
(0.092464701 -0.0055133745 1.7498977e-21)
(0.092437364 -0.0020616166 6.5093222e-20)
(0.1002139 -0.0033193131 -4.1584382e-20)
(0.10224622 -0.010216935 1.1093488e-19)
(0.097493865 -0.012079386 8.2595523e-21)
(0.099915148 -0.0067225157 -8.9444531e-20)
(0.10967157 -0.0058811826 -3.6260569e-21)
(0.11465748 -0.013681537 3.5000812e-19)
(0.11021601 -0.024141329 -6.2968416e-20)
(0.1052398 -0.023961174 -4.9962568e-20)
(0.10363713 0.0038852634 8.4741509e-20)
(0.10316 0.003234792 4.9561383e-22)
(0.10779873 -0.00042180362 -8.6064317e-22)
(0.10680091 0.0014868966 -3.8075633e-21)
(0.10590755 -0.00032911102 -1.5752025e-22)
(0.10517772 0.0019296444 1.9349798e-20)
(0.10446077 0.00076797924 5.7270524e-20)
(0.10352486 -0.00021898522 3.4413001e-23)
(0.10177063 0.00026336354 2.6759515e-22)
(0.099503364 -0.00028122944 2.0703483e-20)
(0.097340584 -0.0004975462 -3.0832196e-23)
(0.095020795 0.00033531298 8.7952957e-21)
(0.093678882 -0.00016386242 1.7822903e-22)
(0.092965209 -0.00034905586 -4.9932604e-23)
(0.091537119 -0.00088462106 0)
(0.09060575 -0.00055264016 0)
(0.091400931 -0.0011025023 2.4513248e-20)
(0.091103998 -0.0023222894 -2.6338374e-21)
(0.089440677 0.00014171982 -6.9057588e-21)
(0.091427142 -0.0035107129 -8.0209292e-21)
(0.094480421 -0.0045808409 1.759445e-20)
(0.091117008 -0.0030411859 -4.7667924e-21)
(0.090058252 -0.0039144889 0)
(0.0985662 -0.0057050573 0)
(0.1021238 -0.0075872773 0)
(0.095771463 -0.0088018987 -7.966278e-21)
(0.09552154 -0.0095518745 -1.2014995e-21)
(0.10636556 -0.0088129462 4.618478e-20)
(0.11595209 -0.0099855475 1.6079017e-21)
(0.11306796 -0.013416197 3.3203325e-20)
(0.10451832 -0.017414216 -3.0595374e-20)
(0.097486728 0.0035830023 5.0999289e-20)
(0.099020871 0.0033304552 -5.0696056e-22)
(0.10571364 6.82897e-05 1.7615476e-21)
(0.10540558 0.00098005558 3.1608358e-19)
(0.10495352 -0.00022264802 0)
(0.10469899 0.0018507721 1.7186827e-22)
(0.10452796 0.00080326946 7.3636228e-20)
(0.10402934 -0.00043072924 8.1150911e-20)
(0.1032934 0.0005944058 4.6064469e-23)
(0.10233173 -0.0011233012 -1.6567426e-20)
(0.10113249 -0.00036688176 -5.8328706e-21)
(0.09953256 0.00043750761 0)
(0.098390935 -0.00063751246 4.7287786e-20)
(0.097368359 -0.00048046302 -1.9112682e-20)
(0.095598589 -0.0003551379 8.4380459e-21)
(0.093959615 -0.00087634896 1.2584242e-21)
(0.093977794 -0.0015205993 2.9679943e-21)
(0.092856996 -0.0010398669 2.1771155e-21)
(0.091349007 0.00042231115 -4.0694446e-20)
(0.092925635 -0.0045373247 -6.9991947e-21)
(0.094851303 -0.003640619 -1.1817088e-21)
(0.091998652 -0.00020748142 1.6154107e-20)
(0.090553011 -0.0051418129 3.6663328e-20)
(0.097382201 -0.0092667022 0)
(0.10127521 -0.0056844191 -5.4304089e-21)
(0.096252371 -0.0040615362 3.2504313e-20)
(0.09406482 -0.010249498 -5.5640803e-20)
(0.10184561 -0.013434774 -5.8881282e-20)
(0.11203036 -0.0098572883 1.2320821e-19)
(0.11349321 -0.0043903428 4.9287411e-21)
(0.10726568 -0.006669644 -7.2559039e-20)
(0.093536587 0.0015437047 -6.5474838e-20)
(0.094381267 0.0024424292 4.00015e-20)
(0.10096547 0.00069852652 -1.4459537e-21)
(0.10135874 0.00010050238 -9.6597538e-20)
(0.10141938 0.00021958833 2.8974609e-20)
(0.1017597 0.0010118494 -2.3845272e-22)
(0.10260224 0.00051517292 -1.6475234e-19)
(0.10254376 -0.00026877805 -2.7344583e-20)
(0.10234603 0.00060486407 -4.2535972e-22)
(0.10187198 -0.0015275386 -1.3650116e-22)
(0.10086904 0.00010398453 -1.6212325e-20)
(0.10034273 0.00038765603 -2.0334947e-22)
(0.10018762 -0.00077406804 2.1697213e-22)
(0.099936091 -0.00065216342 3.296558e-22)
(0.099053769 0.00019455813 2.5676994e-20)
(0.098189882 -0.0011378304 9.3870561e-23)
(0.098136969 -0.002180693 1.3204316e-20)
(0.096715791 -0.00040626304 2.3690411e-21)
(0.095882613 1.4220729e-05 -1.3553375e-21)
(0.096785595 -0.0054174023 0)
(0.09694709 -0.0030367015 -1.1410445e-19)
(0.095490089 0.0022243234 -2.8791278e-21)
(0.094856167 -0.0047028831 1.4336983e-19)
(0.098308798 -0.011451877 -5.7645422e-21)
(0.10083574 -0.0042536943 -7.9125168e-20)
(0.099290898 0.00070351379 -3.3310113e-20)
(0.097810931 -0.0072310569 7.7232852e-20)
(0.10042466 -0.016320111 -9.0911103e-22)
(0.10657774 -0.01195975 -1.2347927e-20)
(0.11071199 -0.0014317453 -7.2510295e-20)
(0.11043233 0.0015051216 -1.291727e-20)
(0.09701804 -0.0005965245 2.9516248e-20)
(0.094740867 0.0012149588 7.174584e-23)
(0.099792699 0.0010152367 -3.84222e-20)
(0.099080619 -0.00010682748 2.6404905e-21)
(0.098492221 0.0012259465 -9.9863993e-22)
(0.098669813 0.00028261695 3.1179852e-20)
(0.099411699 0.00031144033 0)
(0.099566185 0.00071571843 2.0491265e-22)
(0.10001704 0.00017434439 2.18303e-23)
(0.099831733 -0.0021067088 -6.874187e-20)
(0.099209185 -0.00021220234 1.2020858e-22)
(0.099498141 6.4558301e-05 -5.4997024e-23)
(0.099708752 -0.00065645447 -1.445938e-20)
(0.099569642 -0.00058838477 5.4960928e-20)
(0.099421751 0.00084012452 -1.9032193e-20)
(0.099387115 -0.00082704748 -3.6533543e-22)
(0.099712713 -0.002146384 -1.8220791e-22)
(0.098932546 6.7664835e-05 -5.0358643e-22)
(0.099828923 -0.00035901861 0)
(0.10073896 -0.005172044 4.0017106e-20)
(0.099435725 -0.0025575161 -1.1817227e-19)
(0.099960187 0.0029996039 9.343141e-21)
(0.10178746 -0.0033908258 7.9772282e-20)
(0.101879 -0.011196116 1.8577296e-21)
(0.10119433 -0.0040391652 -8.7097708e-20)
(0.10288053 0.0031492295 -2.0690305e-20)
(0.10544935 -0.0025755683 -5.2746495e-21)
(0.10485922 -0.014254381 -5.3433088e-20)
(0.10369739 -0.013911361 -6.5092029e-20)
(0.10684654 -0.0035151071 -9.6293981e-20)
(0.11213852 0.0026692338 -2.7103634e-21)
(0.10749809 -0.0020720489 8.730223e-20)
(0.097585224 -0.00011828693 -2.4193897e-23)
(0.10152846 0.001123101 3.8255953e-21)
(0.10001739 -0.00013423322 -4.3740256e-19)
(0.098776461 0.0017304586 1.2604737e-21)
(0.098566676 -0.00031998094 -2.0704269e-20)
(0.098528998 0.00010258657 0)
(0.098339159 0.0012111519 0)
(0.098622404 0.00017070296 1.1910658e-20)
(0.097900886 -0.0013854564 0)
(0.097067596 -0.00032660857 6.8718885e-20)
(0.097676022 -8.7088649e-05 2.2777102e-20)
(0.098155789 -0.00072741606 0)
(0.098094433 -0.00070919794 6.4910753e-20)
(0.098479997 0.00047420662 -4.8223499e-22)
(0.099075567 -0.00082153436 -3.6498737e-20)
(0.099198349 -0.002059275 -1.5637212e-21)
(0.098574125 -2.9179072e-05 -7.4633037e-22)
(0.10071218 -0.0010919147 3.7202427e-20)
(0.10172432 -0.0038105092 2.5896885e-20)
(0.099350118 -0.0021723178 8.3255029e-20)
(0.10147906 0.0017450064 7.9586778e-22)
(0.10631504 -0.002339694 -5.4105027e-20)
(0.10501368 -0.0081190125 3.3998122e-20)
(0.10123962 -0.0040386419 -6.5718565e-21)
(0.10469953 0.0023974232 -1.3814192e-19)
(0.11230358 -0.00030539575 -5.3373657e-20)
(0.11238897 -0.0086122829 -1.5640345e-20)
(0.10566046 -0.012493406 -4.9505233e-20)
(0.1046003 -0.0075534235 1.789809e-19)
(0.1120346 -0.0023973216 1.2636612e-19)
(0.11295153 -0.0026878171 -8.8546431e-20)
(0.098977179 -0.00060320955 2.3670125e-23)
(0.10248883 0.00097019491 -5.1871258e-19)
(0.10055472 0.00021819148 3.9972823e-19)
(0.09896222 0.0017446484 -1.5551608e-19)
(0.098532556 -3.0467633e-05 -4.2604431e-22)
(0.098098352 0.00041321002 7.9271279e-23)
(0.097755839 0.0018011126 6.8152581e-20)
(0.098365126 -0.0013129914 -1.8917031e-20)
(0.097135007 -0.0018916785 -2.0052915e-21)
(0.095957969 -0.00089992 -1.0726012e-21)
(0.096566709 0.00026524231 3.8893415e-22)
(0.096985554 -0.0002144253 3.1162111e-21)
(0.096723472 -1.6656634e-05 5.3052133e-22)
(0.097268292 0.00028700323 1.5170982e-20)
(0.098246753 -0.00032705494 -3.0178123e-20)
(0.098160574 -0.001108111 1.3427199e-21)
(0.09759408 0.00016101605 -8.5683167e-21)
(0.10021239 -0.0018830899 4.4487094e-21)
(0.10125124 -0.0017146273 1.8689002e-20)
(0.098183993 -0.0012613458 1.8346264e-20)
(0.10058584 -0.00047682498 4.7901444e-21)
(0.1071275 -0.0023110259 -8.1048337e-21)
(0.10594918 -0.0034666419 -2.7645776e-22)
(0.10009176 -0.0026419707 3.2508882e-21)
(0.10333073 -0.00053783596 4.8276741e-20)
(0.11373919 -0.0021405236 1.6431769e-21)
(0.11722206 -0.0035177194 6.2324003e-20)
(0.10984804 -0.005945639 8.6754717e-20)
(0.10460278 -0.0077102232 -1.0302568e-20)
(0.11042837 -0.0076519283 1.417271e-19)
(0.11347498 -0.0011449901 -1.4299103e-19)
(0.098551789 -6.8133697e-05 -7.7223817e-23)
(0.10219883 0.00022995045 5.7073574e-22)
(0.10054644 0.00038020153 1.0428369e-21)
(0.098828331 0.00066624039 5.3110024e-20)
(0.098387114 0.00029430422 1.1215295e-19)
(0.0978139 0.00043029624 8.1751459e-20)
(0.098084533 0.00085571032 -1.5555667e-20)
(0.098433209 0.00036134329 7.108116e-21)
(0.096848614 -0.0012615298 2.0632031e-22)
(0.095407923 -0.00097906224 3.218902e-20)
(0.096025442 -0.00034768363 1.4323127e-20)
(0.096557899 -0.00056738711 9.0239256e-22)
(0.096274016 -0.0002562949 2.3693976e-20)
(0.096760045 -0.00086468697 -1.1434953e-22)
(0.097684492 -0.00059467508 6.7015713e-21)
(0.097478862 -0.00058489785 -1.2580732e-20)
(0.097142624 -0.00024246019 0)
(0.099563216 -0.0030968018 -2.1066492e-22)
(0.10059191 -7.3717664e-05 -5.2930205e-22)
(0.097788176 6.0453778e-05 1.0650416e-19)
(0.099589986 -0.003389884 -5.2597676e-22)
(0.10581195 -0.0034923126 2.380285e-20)
(0.10578928 0.00031540104 7.9626888e-21)
(0.10014075 0.00053649325 -4.2488601e-20)
(0.10199459 -0.0045311634 1.2694955e-20)
(0.11134875 -0.0064336068 1.9094371e-20)
(0.11655081 -0.0023699365 2.7463849e-20)
(0.11260241 0.00097191051 1.5329066e-19)
(0.10704555 -0.0037943676 4.080455e-20)
(0.1092757 -0.010127462 4.4546174e-20)
(0.10922185 0.00057304311 -2.570409e-21)
(0.096291579 0.001088334 1.3876196e-20)
(0.10082645 -0.00034271558 1.3244894e-20)
(0.099583076 0.00066193003 2.7826806e-19)
(0.098651686 -0.00022272109 -3.7842622e-22)
(0.098548553 0.0011611353 1.4516212e-23)
(0.098216921 0.00057410247 5.3217436e-23)
(0.098180397 0.00054312373 1.8223609e-20)
(0.099184389 -0.0018941258 -3.2940054e-20)
(0.097697714 -0.0021310833 1.4981082e-20)
(0.095824462 2.6679032e-05 1.6952081e-20)
(0.096390194 -8.8297121e-05 -8.5570458e-23)
(0.096846545 0.00025971723 -1.2461947e-20)
(0.096600034 0.00056198294 -2.4903831e-23)
(0.09695979 -0.00097553106 -2.4641258e-20)
(0.097580387 -0.00036346461 2.2722156e-20)
(0.097562753 0.00048295559 3.6413604e-22)
(0.097600906 6.1645946e-05 6.9143005e-23)
(0.099175017 -0.0035432848 -3.5360277e-20)
(0.099973402 0.0015333683 -7.4011713e-20)
(0.098815092 0.0021701806 1.0665454e-21)
(0.099864544 -0.0048373983 -7.6452665e-20)
(0.10413072 -0.0043770123 -3.493992e-21)
(0.10501435 0.002738961 8.4294805e-20)
(0.10225972 0.0040498545 -1.2049418e-20)
(0.10333669 -0.005763447 6.633659e-20)
(0.10907034 -0.010006617 -1.9251066e-19)
(0.11327566 -0.0027617284 7.8256533e-20)
(0.11324168 0.0052172737 3.8235634e-20)
(0.11154752 0.0020502633 -1.5547123e-19)
(0.11161471 -0.0080701513 -4.5786048e-21)
(0.10454645 0.0028138109 -1.7063839e-19)
(0.097181926 0.0022542635 -5.4727138e-22)
(0.101986 -0.00045128245 3.9634199e-21)
(0.10092209 0.00086307269 2.0830563e-21)
(0.10016389 -0.0014202427 8.717719e-22)
(0.1002228 0.001417658 -3.848775e-22)
(0.099930714 0.00051066032 2.4711469e-22)
(0.1005832 -0.00091906417 -1.4648471e-22)
(0.10073658 0.0024904495 -1.2358146e-24)
(0.098272652 -0.0037838861 -5.3401085e-23)
(0.096628845 -0.00038746742 -4.6708124e-23)
(0.097517776 -0.0014495583 -2.8342717e-20)
(0.097897845 -0.00022394119 3.3435476e-20)
(0.09789494 -5.1753011e-05 4.5985734e-23)
(0.098106256 -0.0018076483 -1.6593489e-22)
(0.098340442 -0.00094187002 -4.9575374e-22)
(0.098495741 0.00043187648 -1.0269399e-22)
(0.09920822 -0.00010326294 2.546843e-22)
(0.099670052 -0.0038127731 2.3737109e-20)
(0.099820335 0.0018257795 1.0087868e-19)
(0.10101915 0.0029487539 -8.4611974e-20)
(0.10179112 -0.0047652109 7.5069647e-22)
(0.10282267 -0.0054510609 1.0062433e-22)
(0.10365959 0.00291314 -1.8104061e-21)
(0.10488947 0.0051011534 3.9028425e-20)
(0.10722578 -0.0045466136 -8.8481951e-20)
(0.10818389 -0.011866889 2.9023682e-21)
(0.1086131 -0.0048166895 -2.7784492e-21)
(0.11114645 0.0047810458 5.293353e-20)
(0.11528401 0.0049125209 5.0282757e-20)
(0.11649695 -0.0045404788 -8.426862e-20)
(0.099023714 0.0026676878 -2.0698484e-21)
(0.10008823 0.0024461599 3.8815326e-20)
(0.10511667 -0.00072615648 -3.9113194e-19)
(0.10457996 0.0005255969 -4.539819e-19)
(0.10308161 -0.0012721288 -1.8542377e-19)
(0.10343683 0.0015755056 -2.9776912e-20)
(0.10251364 0.00038856373 1.9950494e-19)
(0.10188476 -0.0002290699 6.0245912e-23)
(0.10285291 -0.0021813515 1.2033198e-20)
(0.10116591 -0.0020580088 -5.1950118e-21)
(0.098308429 0.0012661824 8.2954088e-21)
(0.099111059 -0.00035892574 3.3732278e-22)
(0.099912383 0.00062559046 6.0075817e-20)
(0.10063413 0.00060727664 5.8533627e-20)
(0.10095687 -0.00099831868 -3.0622203e-22)
(0.10106224 -0.00037255249 -4.1282875e-20)
(0.10158839 0.00078057061 2.2842741e-22)
(0.10326743 0.00041789381 5.0321249e-20)
(0.10300184 -0.0025709177 4.8643609e-23)
(0.10240646 0.0013180346 9.7846734e-20)
(0.10566156 0.0028584355 4.6011567e-20)
(0.10718561 -0.0027014327 -4.4297882e-22)
(0.10531081 -0.0044954532 4.5234267e-21)
(0.10494942 0.0017525989 -1.9276165e-19)
(0.10931393 0.0043788152 9.1840965e-21)
(0.11430871 -0.0016167995 6.1565959e-20)
(0.11256434 -0.0083192994 -1.5605213e-19)
(0.10797741 -0.0053251699 0)
(0.11044786 0.0026532836 -7.9363088e-20)
(0.11901728 0.004694077 -7.1430766e-20)
(0.12368592 -0.00047200997 8.2054603e-20)
(0.10136158 0.0011284474 6.3577537e-20)
(0.10585415 0.001242018 0)
(0.094820052 -0.00035216001 6.5199138e-22)
(0.11514713 0.0001472602 -5.1762638e-20)
(0.092225119 -0.00068748937 -2.012693e-20)
(0.11802698 0.00075256182 -2.9483596e-23)
(0.081102867 -0.00035058495 1.1886943e-19)
(0.12203286 -0.0001157049 -1.0631832e-20)
(0.067845975 0.003746601 -2.5641597e-22)
(0.11988621 -0.0079090751 3.8715596e-21)
(0.11935949 -0.00043947452 4.7619348e-22)
(0.11657419 -0.00067930224 -9.7766745e-21)
(0.11949337 -0.00025284909 -1.8125473e-20)
(0.11950144 -0.0001729679 9.880581e-21)
(0.11933561 -0.00036112477 1.4348979e-20)
(0.11870266 -0.00022414146 7.0261707e-22)
(0.11909074 4.9026262e-05 2.6988187e-20)
(0.12029277 8.9696129e-05 1.0218498e-20)
(0.11867061 -0.00050308892 3.1157811e-20)
(0.11682119 0.00019713352 5.4543424e-22)
(0.12137782 0.00056757319 -1.6059527e-20)
(0.12214306 -0.00041769173 -1.3306249e-20)
(0.11839879 -0.0010912792 -8.2166171e-21)
(0.11701129 6.3268794e-05 -2.426935e-20)
(0.12258368 0.00080541845 4.0238936e-20)
(0.12837695 -0.00022903301 6.7794616e-21)
(0.12575785 -0.0018487498 3.9602512e-20)
(0.1178305 -0.0017956108 -1.5268427e-20)
(0.11920416 -0.00017425696 -2.1459296e-20)
(0.12966588 0.00057307723 -7.2040711e-20)