/*--------------------------------*- C++ -*----------------------------------*\
| =========                 |                                                 |
| \\      /  F ield         | OpenFOAM: The Open Source CFD Toolbox           |
|  \\    /   O peration     | Version:  2406                                  |
|   \\  /    A nd           | Website:  www.openfoam.com                      |
|    \\/     M anipulation  |                                                 |
\*---------------------------------------------------------------------------*/
FoamFile
{
    version     2.0;
    format      ascii;
    arch        "LSB;label=32;scalar=64";
    class       volVectorField;
    location    "150";
    object      UMean;
}
// * * * * * * * * * * * * * * * * * * * * * * * * * * * * * * * * * * * * * //

dimensions      [0 1 -1 0 0 0 0];

internalField   nonuniform List<vector> 
20580
(
(0.088772656 0.00055381075 6.4380993e-22)
(0.089986153 0.00011447038 4.5345558e-22)
(0.097054176 -0.00011172103 9.0756608e-23)
(0.09651021 0.0002698418 -1.3775873e-22)
(0.096253753 0.00054802636 -8.8113058e-25)
(0.096398947 0.00057967241 -2.8330692e-23)
(0.096422804 0.00061069469 1.5931035e-22)
(0.096260118 0.0006593565 -2.6876245e-23)
(0.096019233 0.00065967235 -8.7413172e-23)
(0.095731759 0.0005665578 0)
(0.095420007 0.00037174916 -4.3764421e-23)
(0.095097301 7.8736607e-05 -7.7313782e-22)
(0.094757338 -0.00033681579 -1.5566752e-22)
(0.094423568 -0.00090564278 1.8035274e-22)
(0.094109055 -0.0016063061 3.76737e-22)
(0.093848394 -0.002564398 4.306321e-22)
(0.093628858 -0.0036800545 1.1528147e-21)
(0.093424061 -0.0049523081 -4.7767695e-23)
(0.0933038 -0.0064387911 9.8062007e-22)
(0.093282053 -0.0081552471 -1.2052302e-22)
(0.09344783 -0.010197727 1.2989285e-23)
(0.093634119 -0.012444613 9.0749443e-23)
(0.094010485 -0.014973971 -8.9190228e-22)
(0.094967567 -0.01787682 2.5468452e-21)
(0.096334984 -0.021097588 -2.6963793e-21)
(0.097686211 -0.024568002 -2.4499694e-21)
(0.098797779 -0.028076503 4.7195998e-21)
(0.099919259 -0.031627577 7.0183684e-22)
(0.10178949 -0.03562356 -2.5649066e-21)
(0.10396161 -0.039979623 3.3830024e-21)
(0.10696004 -0.044926953 1.3980099e-21)
(0.087787415 0.00047932606 0)
(0.088608612 0.00018209862 1.1427803e-22)
(0.095641691 -0.00013555192 3.2112406e-22)
(0.095531676 0.00016459417 1.2995614e-22)
(0.095543795 0.00044455983 -6.2448817e-23)
(0.095857844 0.00051055096 -8.4613462e-24)
(0.096025627 0.00055443518 7.9156109e-23)
(0.095983447 0.00059833796 -1.1845241e-23)
(0.095832929 0.00061004286 -6.6453991e-23)
(0.095630955 0.00053699094 -1.3260359e-22)
(0.095399815 0.00036806522 3.344555e-22)
(0.095168669 9.9535452e-05 -1.8456659e-22)
(0.094931964 -0.00028062691 -2.5792627e-22)
(0.094711428 -0.00080182945 -9.0498362e-24)
(0.094483197 -0.0014644778 -6.4933491e-22)
(0.094297093 -0.0023228344 -6.9914415e-24)
(0.094172173 -0.0033560498 -3.8448792e-22)
(0.094098239 -0.0045865903 -8.2987712e-22)
(0.094084603 -0.0060050783 0)
(0.094147712 -0.0076208234 -1.0351099e-21)
(0.094347592 -0.0094924153 0)
(0.094670974 -0.011607088 -1.1027089e-21)
(0.09505604 -0.013900643 1.3119514e-21)
(0.095720046 -0.016414229 -2.5268974e-23)
(0.096886711 -0.019317832 -1.0041723e-21)
(0.098401452 -0.022671436 3.9219552e-22)
(0.10031822 -0.026213422 -4.4287023e-22)
(0.10218119 -0.029649488 6.9190841e-22)
(0.10388577 -0.033156214 1.5617839e-21)
(0.10562681 -0.036440796 -7.760381e-22)
(0.10794612 -0.040650531 -1.0225171e-21)
(0.087013525 0.00066003564 0)
(0.087646075 0.00045299239 0)
(0.094141626 -9.2236016e-05 5.4472608e-23)
(0.094190006 0.00016726486 -4.9097624e-22)
(0.094453136 0.00045575163 -8.4519429e-24)
(0.094960616 0.00051003854 -4.7776115e-24)
(0.095314162 0.00053817641 -1.2593662e-22)
(0.095408565 0.00057556721 -3.5350466e-23)
(0.09537926 0.00057675223 0)
(0.09529259 0.00049866037 -4.3427948e-22)
(0.095173869 0.00033335378 -1.5262135e-22)
(0.095052651 8.0221301e-05 4.3363582e-22)
(0.094937384 -0.00028586983 0)
(0.094840539 -0.00078004311 1.557571e-23)
(0.094742342 -0.0014137034 -3.2625486e-22)
(0.094638273 -0.0022539921 -4.7711317e-24)
(0.094590552 -0.0032385991 -7.2445561e-25)
(0.094628219 -0.0043782851 9.0699405e-25)
(0.09473715 -0.0057163673 1.0165699e-21)
(0.094913205 -0.007229979 0)
(0.095226583 -0.0089919502 0)
(0.095683775 -0.01098474 1.287731e-21)
(0.096164657 -0.013158503 -9.7660189e-22)
(0.096685548 -0.015525717 -1.2679859e-21)
(0.097585531 -0.01808193 -3.3927595e-22)
(0.09900233 -0.020909894 2.4024244e-22)
(0.10090193 -0.024097673 1.9280157e-21)
(0.10305927 -0.027608923 3.8370104e-22)
(0.10556282 -0.031050853 -6.209568e-22)
(0.10787117 -0.034309733 -2.6436242e-22)
(0.10977037 -0.037577501 8.4548095e-22)
(0.08625239 0.00081308211 0)
(0.086705767 0.00066017846 4.0280558e-24)
(0.092753221 -0.00017820025 7.2838358e-23)
(0.09264247 0.0001059874 2.662952e-23)
(0.093004428 0.00038425635 5.0861023e-23)
(0.093666144 0.00042413744 -3.076831e-23)
(0.094221666 0.0004505816 -1.1557743e-22)
(0.094516276 0.00048960919 0)
(0.094649512 0.00049528919 1.3857124e-23)
(0.094702268 0.00043416348 1.2211479e-22)
(0.094704784 0.00028914751 -4.4714192e-22)
(0.094698141 5.1382964e-05 1.9317727e-22)
(0.094690269 -0.00029451547 -6.5288648e-24)
(0.094696547 -0.00076273461 2.5332661e-22)
(0.094740208 -0.0013597508 6.1276828e-22)
(0.094803735 -0.0021332678 -4.135752e-24)
(0.094887117 -0.0030697254 -7.2867294e-22)
(0.095030442 -0.004147327 -6.6413444e-24)
(0.095263297 -0.0054186228 -1.4960063e-23)
(0.095574346 -0.0068404047 -5.6534793e-23)
(0.095992927 -0.0085056174 9.0876209e-23)
(0.096545344 -0.010396559 8.8345403e-22)
(0.097145313 -0.012462707 -1.4907719e-22)
(0.097811423 -0.014615696 -6.206878e-22)
(0.098711962 -0.016854818 0)
(0.09976206 -0.01947294 2.5779763e-22)
(0.10116802 -0.022467214 -3.6577702e-22)
(0.10327403 -0.02550698 -6.4538405e-22)
(0.1056828 -0.028648182 -4.147384e-22)
(0.10849093 -0.031891452 -4.0694191e-22)
(0.11093643 -0.035349112 4.6294736e-24)
(0.085799509 0.00089602749 0)
(0.086064722 0.00084179644 -7.1681012e-23)
(0.091764614 -0.00022525499 -7.0695389e-22)
(0.09131015 8.7067124e-05 3.4981671e-22)
(0.091540073 0.00035714134 4.9299448e-24)
(0.092195614 0.00037998696 -2.5707373e-23)
(0.09278843 0.00040715235 0)
(0.093260295 0.00044272501 4.5839034e-23)
(0.093578348 0.0004496984 7.0286422e-23)
(0.093797331 0.00038915966 2.1563825e-22)
(0.093947069 0.00025547689 -2.7080197e-22)
(0.094076474 3.6270389e-05 -4.5013312e-26)
(0.094181925 -0.00028092741 2.020909e-22)
(0.094299602 -0.00071946114 -2.2602471e-22)
(0.094462504 -0.0012811001 2.8046645e-22)
(0.094670942 -0.0020114776 3.2885718e-22)
(0.094912016 -0.0028774134 -6.4716537e-22)
(0.095204809 -0.0038908249 7.4418921e-22)
(0.09559437 -0.0050918961 -7.8755647e-22)
(0.096057666 -0.0064361508 0)
(0.096600316 -0.0079890833 9.6738169e-23)
(0.097282162 -0.0097620845 1.4223148e-22)
(0.098095887 -0.011715653 8.4566411e-22)
(0.098964069 -0.013772526 -2.6909132e-22)
(0.099929856 -0.015837068 0)
(0.10112993 -0.01796386 7.2192562e-22)
(0.10242626 -0.020363331 -2.7429558e-22)
(0.10392662 -0.023305133 2.6116118e-22)
(0.105963 -0.026445457 -1.7406019e-22)
(0.10835446 -0.029346897 1.130378e-22)
(0.11148894 -0.032893999 -2.5833444e-22)
(0.085656975 0.0010778098 -1.7935531e-21)
(0.085552747 0.0009830515 -1.0589484e-24)
(0.091034978 -0.00027018652 4.4113114e-24)
(0.090323557 -6.6679431e-06 -8.5101273e-23)
(0.090295925 0.00029214289 1.2970847e-22)
(0.090807723 0.00032155492 8.0344519e-25)
(0.091346256 0.00035093397 2.5989958e-23)
(0.091801436 0.00039296134 -4.4645266e-24)
(0.092174416 0.00039821721 8.8323038e-23)
(0.092501976 0.00034432938 -2.8165831e-22)
(0.092798777 0.00022172379 -2.6359474e-22)
(0.093083937 1.9097933e-05 -1.7578289e-22)
(0.093350232 -0.00028201479 1.8928493e-22)
(0.09361135 -0.00068430823 -2.0453329e-22)
(0.093908885 -0.0011946287 2.4671268e-22)
(0.094267224 -0.001857059 -8.3347946e-24)
(0.09465776 -0.0026551611 -5.4823089e-22)
(0.095098001 -0.0036049834 6.6344153e-22)
(0.095657059 -0.0047189474 -5.1970214e-23)
(0.096294108 -0.0059843751 0)
(0.096994552 -0.007432936 1.0523827e-22)
(0.097873148 -0.0090771102 -1.963672e-21)
(0.098928222 -0.010865593 -1.2987792e-21)
(0.10002102 -0.012825646 0)
(0.10123106 -0.014885964 1.3195169e-21)
(0.10248199 -0.017067871 -9.2835818e-22)
(0.10384657 -0.019254193 4.0630522e-22)
(0.10529567 -0.021320164 -3.788077e-22)
(0.10709474 -0.023634399 1.8445327e-22)
(0.10890088 -0.026069324 1.5159795e-21)
(0.11146826 -0.029486642 -5.4395805e-22)
(0.086541131 0.0011991454 -8.2750358e-22)
(0.085362616 0.0012020217 3.8549513e-23)
(0.090433035 -0.00024038839 3.5834005e-23)
(0.089487649 -1.4814012e-05 -4.7024043e-23)
(0.089235563 0.00028936432 9.9429611e-23)
(0.089595918 0.00032027911 3.9998899e-23)
(0.089986737 0.00033808653 -8.9690494e-23)
(0.090330794 0.00036503308 -1.1547349e-24)
(0.090644776 0.00035723476 1.3832111e-23)
(0.090965937 0.00030046306 1.1657009e-22)
(0.0913155 0.00019437344 -1.3708992e-23)
(0.091702232 9.3271422e-06 -1.6991931e-23)
(0.092113621 -0.00027400134 -1.7423691e-22)
(0.092533291 -0.00064457527 -3.1417418e-25)
(0.092997523 -0.0011148606 -2.2912773e-22)
(0.09353786 -0.0017396046 -3.4457412e-24)
(0.094078766 -0.0024912923 6.3296029e-24)
(0.094652856 -0.0033587991 -1.1241805e-21)
(0.095339105 -0.0043844113 0)
(0.096128765 -0.0055498075 -6.1037684e-22)
(0.096991337 -0.0068724595 -1.149096e-22)
(0.098024013 -0.0083648778 -7.3637462e-22)
(0.09921189 -0.010061995 1.8099102e-22)
(0.10046491 -0.01191404 2.4621876e-22)
(0.10181595 -0.013859735 1.9223286e-23)
(0.10334388 -0.015944711 -1.2821185e-22)
(0.10517474 -0.018074562 1.7323578e-21)
(0.1070446 -0.020172151 -1.1976766e-22)
(0.10890658 -0.022218264 -9.1026323e-22)
(0.11078948 -0.024049325 -5.6710203e-23)
(0.11262981 -0.026429572 -7.4158634e-22)
(0.090300108 0.0017393697 3.3670432e-21)
(0.085885191 0.0013318103 0)
(0.090441406 -0.00032448357 2.6779115e-21)
(0.089140293 -4.6557293e-05 1.7804832e-23)
(0.088552421 0.00024245275 -2.0517085e-22)
(0.08866053 0.00025427038 4.7834442e-24)
(0.088806467 0.00026753946 -4.8801715e-23)
(0.088969585 0.00029588765 -1.4254448e-23)
(0.089164643 0.00029485859 -6.8637388e-23)
(0.089396219 0.00025057047 3.0267933e-22)
(0.089693032 0.00016618201 2.1885812e-22)
(0.090067483 1.0119157e-05 -1.0295623e-23)
(0.090516722 -0.000245801 -1.5042812e-22)
(0.091025785 -0.00057266075 -3.6008522e-22)
(0.091601729 -0.00099363273 4.1884185e-22)
(0.092321249 -0.0015703669 4.4203383e-22)
(0.093071978 -0.0022923858 4.1191422e-22)
(0.093807832 -0.0030892397 -4.8869638e-22)
(0.094638508 -0.0040314496 -6.054802e-24)
(0.095577389 -0.0051137513 1.4702501e-23)
(0.096567672 -0.0063479407 1.1186933e-22)
(0.097634113 -0.0077507965 -7.6147505e-24)
(0.098885585 -0.0093317592 0)
(0.10035515 -0.011019215 1.3342555e-22)
(0.10190506 -0.01271432 9.258846e-23)
(0.10352253 -0.014493466 4.6403316e-22)
(0.10526584 -0.016484516 -2.6742319e-22)
(0.10723516 -0.018661832 -6.6233239e-22)
(0.10947159 -0.020783599 -1.0696664e-21)
(0.11201518 -0.022812997 3.3255419e-22)
(0.11405888 -0.024985765 6.0456886e-22)
(0.10019684 0.0021401455 5.9400563e-22)
(0.088009399 0.0015257584 4.4183285e-25)
(0.091481608 -0.00029334814 1.0699388e-21)
(0.089697368 -2.8977102e-06 -7.0143056e-23)
(0.088692803 0.0002580283 2.4059275e-23)
(0.088480441 0.000226353 6.1136699e-24)
(0.088316779 0.00024142945 6.856453e-23)
(0.088170309 0.00026777775 -5.3158553e-25)
(0.088090325 0.00026058327 -6.7780748e-23)
(0.088101753 0.00021523252 -8.8231824e-23)
(0.088214034 0.00013579723 2.8277188e-22)
(0.088454925 -7.2231792e-06 0)
(0.088820557 -0.00023177896 8.1190319e-24)
(0.089291202 -0.00054387956 -2.8852481e-24)
(0.089871692 -0.00091285727 3.4127636e-22)
(0.090562119 -0.001389723 -4.2330531e-22)
(0.091452302 -0.0020487352 -3.4289831e-23)
(0.092410699 -0.0028074643 4.4698013e-22)
(0.093439924 -0.0036643383 4.812897e-22)
(0.094580938 -0.0046473177 4.2105522e-22)
(0.095774219 -0.0057785641 3.8287906e-22)
(0.097035197 -0.0070646008 2.3935934e-23)
(0.098415921 -0.0084486438 2.0952036e-22)
(0.10000283 -0.010003801 1.4786937e-22)
(0.10171304 -0.011680561 1.8279941e-22)
(0.1034674 -0.013375201 -3.1877904e-22)
(0.10529477 -0.015145818 -3.4198456e-23)
(0.10723435 -0.017013444 -1.4666276e-22)
(0.10939649 -0.018979686 1.1939419e-21)
(0.1116905 -0.02090912 1.3263154e-21)
(0.1144338 -0.023377972 -2.297214e-21)
(0.11266853 0.0024222231 -5.2566503e-21)
(0.093917071 0.00089886801 4.0237157e-24)
(0.09519239 -0.00034487459 -1.9242725e-21)
(0.092443178 -6.6827956e-05 4.1334295e-22)
(0.090275186 0.00023239278 -1.2372581e-24)
(0.089368418 0.00021607465 0)
(0.088755319 0.00021261194 3.4569526e-23)
(0.088272842 0.00022913618 -7.7963036e-23)
(0.087917084 0.00022384723 6.4136608e-23)
(0.087648818 0.00018237013 -9.2747086e-23)
(0.087489237 0.00012853592 6.5860839e-25)
(0.087478818 1.0621613e-05 4.6231138e-24)
(0.087611946 -0.00018984886 0)
(0.087886714 -0.00046202091 2.5516399e-22)
(0.088313371 -0.00080369015 -1.3103273e-22)
(0.088864726 -0.0012343022 -6.2358542e-24)
(0.089653891 -0.0017758898 3.3909397e-22)
(0.090619897 -0.0024594132 4.0902327e-22)
(0.091732802 -0.0032606197 3.1941848e-22)
(0.093026748 -0.004165566 3.7389924e-22)
(0.094443554 -0.0052089765 4.1620425e-22)
(0.095953123 -0.0063359835 1.9767329e-22)
(0.097543368 -0.0075019191 2.4838432e-22)
(0.099241264 -0.0088274616 5.5052626e-22)
(0.10105111 -0.010334664 -6.9906038e-22)
(0.10303927 -0.0119132 2.7073994e-22)
(0.10516447 -0.013431286 -5.7159897e-23)
(0.1072862 -0.015042736 -6.0307437e-22)
(0.10953848 -0.016854518 -8.4113659e-22)
(0.11157081 -0.018577707 2.7602186e-22)
(0.11414658 -0.020874003 1.8018669e-21)
(0.11459025 0.0016925291 5.7225069e-22)
(0.099998422 0.0005548397 4.579148e-24)
(0.10069122 -0.00034987455 -2.335075e-22)
(0.097663054 -1.195764e-05 -4.8062162e-23)
(0.094536472 0.00023903444 5.0809561e-24)
(0.092356938 0.00024258751 1.6510355e-22)
(0.090791084 0.00024419059 2.5342428e-23)
(0.089661579 0.00024356244 -3.4110051e-24)
(0.088890932 0.00021057946 6.6937419e-23)
(0.088302605 0.00014617943 1.0381426e-22)
(0.087845063 9.2487464e-05 -7.9508952e-23)
(0.087561507 -4.1646854e-06 8.3138406e-23)
(0.087434975 -0.00018130456 0)
(0.087440925 -0.00041735008 -1.7115295e-24)
(0.087608196 -0.00071433359 -2.3733206e-22)
(0.087927846 -0.001086041 -2.2807418e-24)
(0.088437376 -0.0015539547 -2.6775952e-23)
(0.089171674 -0.0021216839 4.1761136e-24)
(0.090125268 -0.0028202366 5.7807566e-23)
(0.09136451 -0.0036127562 -4.3511145e-24)
(0.092871809 -0.0045499778 -5.5542658e-22)
(0.094529808 -0.0055962671 3.645024e-22)
(0.096330683 -0.0066698775 2.1490493e-22)
(0.098223727 -0.007832911 -6.3589445e-22)
(0.10018249 -0.0091601663 -3.6551905e-22)
(0.10219887 -0.010614055 3.7691922e-22)
(0.10439226 -0.0120441 -3.3068377e-22)
(0.10672745 -0.013364701 -9.2143692e-22)
(0.10922181 -0.014787183 1.0740439e-21)
(0.1116282 -0.016145588 8.3429556e-22)
(0.11394619 -0.01787283 -1.0978526e-21)
(0.10998453 0.0015852099 8.8043142e-21)
(0.10274663 -4.4805603e-05 0)
(0.10511938 -0.000572399 7.9340322e-23)
(0.10291893 -1.1076894e-05 -1.1760118e-21)
(0.1003781 0.00016544932 -2.3244637e-22)
(0.098108788 0.00012766899 4.6707509e-23)
(0.095825613 0.0001675184 1.0298781e-23)
(0.093751019 0.00021905697 1.5404802e-24)
(0.092093048 0.00022406975 -6.7290561e-23)
(0.090780078 0.000173159 8.6438386e-23)
(0.089759654 0.00012772776 6.7214069e-23)
(0.089033174 3.459722e-05 3.4937258e-25)
(0.08855698 -0.00013772345 -1.7655259e-22)
(0.088295302 -0.00035143978 0)
(0.08818823 -0.00059761482 -1.9105101e-22)
(0.08826463 -0.00091966041 -1.7006378e-22)
(0.088485285 -0.0013586542 -2.6122795e-22)
(0.088884051 -0.0018743658 2.7713636e-22)
(0.089504158 -0.0024599509 -6.2044804e-24)
(0.090380527 -0.0031265552 -3.0893264e-22)
(0.091553264 -0.0039272103 -2.2026545e-22)
(0.093028483 -0.0048507575 -1.9809245e-23)
(0.094772084 -0.0058894641 -4.9622275e-22)
(0.096738403 -0.0070073385 -2.973992e-22)
(0.098847525 -0.0082166276 4.1436359e-22)
(0.10097332 -0.0094913492 -2.5366958e-22)
(0.10318408 -0.01081866 9.3155877e-22)
(0.10555214 -0.012132022 -6.9678787e-23)
(0.10813419 -0.013477471 -4.2867617e-22)
(0.11090979 -0.014811022 -7.4991924e-23)
(0.1137936 -0.016340621 -1.4226036e-22)
(0.10001834 0.0010496481 -5.4344782e-22)
(0.10071162 0.00027502525 8.0685111e-22)
(0.10506518 -0.00065488291 1.0508174e-22)
(0.10367695 -4.3475851e-06 1.2217116e-23)
(0.10268386 0.00013125843 1.1266852e-23)
(0.10197878 4.0224079e-05 -3.3074855e-22)
(0.10092407 6.6156959e-05 -6.4249337e-23)
(0.099426805 9.4521244e-05 1.9344001e-24)
(0.097737458 0.00010102947 -1.6547623e-23)
(0.096024415 5.125697e-05 -9.9642437e-23)
(0.094448908 5.0473605e-05 6.3806079e-24)
(0.093106522 -3.0330758e-07 -6.1956751e-23)
(0.092011425 -0.0001408191 4.266159e-25)
(0.091215234 -0.0003283521 -9.7534736e-25)
(0.090618159 -0.00057225753 0)
(0.090222786 -0.00084570791 0)
(0.090081155 -0.0012127764 2.564065e-22)
(0.090156688 -0.0016687139 3.5645312e-23)
(0.090455546 -0.0021919631 -2.0813574e-22)
(0.09096592 -0.0027886053 -9.055086e-23)
(0.091678915 -0.0034964935 -1.4383386e-22)
(0.092648953 -0.0042896799 -1.5449386e-22)
(0.093894208 -0.0051835508 0)
(0.095453914 -0.0061695091 0)
(0.097343119 -0.0072358989 0)
(0.099400681 -0.0083246838 4.5502221e-22)
(0.1015701 -0.0095015218 -4.9405602e-23)
(0.10381841 -0.010785369 7.4337508e-23)
(0.10626464 -0.012146885 3.3569906e-22)
(0.10873568 -0.013340878 -4.0133962e-22)
(0.1118567 -0.01506813 4.6560925e-22)
(0.092945499 0.0013844523 -1.4113098e-21)
(0.094410615 0.00012407431 1.9166768e-23)
(0.10173009 -0.00084787872 -3.0158039e-23)
(0.10144933 -0.000152605 1.4927263e-21)
(0.10148721 6.1955991e-05 0)
(0.10156476 1.1735644e-05 3.9736287e-24)
(0.10133113 4.9291946e-05 -2.1125486e-23)
(0.10089711 7.2684452e-05 6.2233112e-23)
(0.10036293 6.1476019e-05 6.1139004e-24)
(0.099686368 -7.5433414e-06 2.2484395e-22)
(0.098857358 2.029513e-07 -6.7363689e-23)
(0.097926733 -4.6122858e-05 0)
(0.096946941 -0.00016294985 4.0795271e-22)
(0.095994811 -0.000313826 1.7112568e-22)
(0.095199267 -0.00051196202 1.7792142e-22)
(0.094517882 -0.0007740957 1.5194363e-23)
(0.093956331 -0.0010659921 1.5046839e-22)
(0.093642473 -0.0014335252 -3.8281249e-23)
(0.093548885 -0.0018887569 -1.1813438e-22)
(0.09364285 -0.0024047386 -1.0233334e-22)
(0.093913323 -0.0030215791 1.3585626e-23)
(0.094433095 -0.0037407482 1.4008209e-22)
(0.095215474 -0.0045207379 -1.2082265e-23)
(0.096261953 -0.0053627181 0)
(0.097600826 -0.0062966478 1.9274831e-22)
(0.099198396 -0.0073080758 -2.158675e-22)
(0.10104277 -0.0082883921 4.3335936e-22)
(0.10302239 -0.0092645833 -3.0879199e-22)
(0.10532332 -0.010360664 2.3988855e-22)
(0.10746449 -0.011311587 3.8445351e-22)
(0.11019334 -0.012897856 2.7737018e-22)
(0.092412158 0.0011887408 2.4039295e-21)
(0.092227634 0.00063322776 -2.6378469e-22)
(0.097815402 -0.00068007976 -3.264672e-24)
(0.097398412 -0.00016493945 -9.4372336e-22)
(0.097869415 -2.6429347e-05 5.1810216e-24)
(0.09873295 -8.2045645e-05 8.1043089e-25)
(0.099275535 -5.397e-05 6.9958612e-23)
(0.099504838 -4.2837414e-05 -6.9251284e-23)
(0.09951579 -3.9547384e-05 -1.6766887e-23)
(0.09939265 -0.00011364428 2.4995404e-24)
(0.099201348 -9.9934176e-05 6.199002e-23)
(0.099013663 -0.00015496385 -8.3030016e-24)
(0.098805294 -0.00027466289 -5.4010466e-24)
(0.098555888 -0.00041714137 -1.0830259e-24)
(0.098291824 -0.00059548353 1.7981227e-22)
(0.098066886 -0.00079944603 1.4907995e-24)
(0.097851384 -0.0010896562 -1.0755155e-22)
(0.097706556 -0.001401763 -4.5491152e-23)
(0.09767966 -0.0017623936 -6.6851526e-23)
(0.097774826 -0.0021768543 0)
(0.09796306 -0.0026441488 1.1281212e-22)
(0.098272245 -0.003175021 6.8114003e-23)
(0.098770173 -0.0037591104 -2.1714023e-22)
(0.099489384 -0.0043900164 -1.3502685e-22)
(0.10043459 -0.0051307015 2.5816583e-23)
(0.10158948 -0.0060065648 4.834448e-22)
(0.10294417 -0.0069535605 -9.6286092e-23)
(0.10447554 -0.0078314068 -3.1341085e-23)
(0.10631039 -0.0087491974 -3.8743076e-22)
(0.10825785 -0.0095005124 -4.0033509e-22)
(0.10996912 -0.010704656 3.6487645e-22)
(0.10477774 0.0018968624 3.2330547e-21)
(0.095122757 0.00041304513 -2.7655485e-25)
(0.098552985 -0.00093950428 1.8279053e-21)
(0.097071816 -9.04441e-05 -5.5520018e-23)
(0.096702139 8.7579306e-05 1.9417738e-23)
(0.096860082 -8.854555e-06 -7.7253618e-23)
(0.097025358 1.3149894e-05 0)
(0.09721541 2.6461977e-05 -4.9145989e-24)
(0.097396369 -7.4182792e-06 9.3028717e-25)
(0.097510061 -0.00011131988 -4.106567e-22)
(0.097605217 -5.9917753e-05 1.0362635e-24)
(0.097760268 -8.5364907e-05 3.4766745e-24)
(0.097907721 -0.00019087266 -1.6011174e-22)
(0.09804362 -0.00030264842 -1.0111901e-22)
(0.098208431 -0.00045238402 -1.2943063e-22)
(0.098410853 -0.00065478904 -1.3605779e-23)
(0.098682592 -0.00088027012 1.596357e-24)
(0.099020956 -0.001146313 1.1224407e-24)
(0.0994658 -0.0014844645 0)
(0.10003691 -0.0018784057 1.2576669e-22)
(0.10064103 -0.0022644921 -5.1486207e-23)
(0.10127405 -0.0026987207 2.1439799e-22)
(0.10199804 -0.003220179 1.1613931e-23)
(0.10283677 -0.0037991603 -1.1905505e-22)
(0.10382026 -0.004410557 -4.5480069e-22)
(0.10490048 -0.0050797531 -2.0566657e-23)
(0.10609461 -0.0058306382 7.4592714e-22)
(0.10744246 -0.0065671644 -2.7176087e-22)
(0.10893321 -0.007281543 -1.5421805e-22)
(0.11079161 -0.0079603362 -4.1309413e-22)
(0.11209966 -0.008810129 -7.3776853e-23)
(0.10047851 0.0012127968 3.4754247e-21)
(0.096290482 0.00040069824 -1.9630106e-26)
(0.099734099 -0.0010254609 6.5562836e-24)
(0.098068575 -8.8167854e-05 1.8188404e-21)
(0.097468356 -2.4674502e-05 -4.5895219e-24)
(0.097284222 -0.00016517247 -3.2611055e-22)
(0.097044915 -0.00012035203 0)
(0.096843599 -0.00012639832 0)
(0.096720285 -7.2885745e-05 -1.6658289e-23)
(0.096569045 -0.00019861287 0)
(0.096458895 -0.00013318233 -1.4364514e-23)
(0.096514117 -0.00017157015 1.2940401e-22)
(0.096642181 -0.00028327258 0)
(0.096805122 -0.00039244021 -2.4764912e-22)
(0.09703606 -0.0005097488 -8.9357695e-23)
(0.097372172 -0.00063644143 -7.7845312e-23)
(0.09779342 -0.00083622036 1.9356106e-23)
(0.098304268 -0.0010785819 -4.1174338e-23)
(0.0989459 -0.0013415312 9.552672e-23)
(0.099780734 -0.0016654254 1.9551613e-22)
(0.10074044 -0.0020271415 -3.2780705e-23)
(0.10175082 -0.0023885937 7.8388378e-24)
(0.10286101 -0.0028225884 -1.4660284e-22)
(0.10406979 -0.0033384541 -3.5360332e-23)
(0.10541853 -0.0038753259 3.3035359e-22)
(0.10685508 -0.0043923058 -4.6585226e-22)
(0.10830133 -0.0049601505 -4.9957288e-22)
(0.10972525 -0.0056594237 2.9483012e-22)
(0.11120407 -0.0064158906 1.4702881e-22)
(0.11300371 -0.0072179616 -1.5635886e-22)
(0.11462321 -0.0079132218 9.6250392e-22)
(0.094968938 0.0016964869 1.9106758e-21)
(0.094172254 0.00028656429 -9.7604864e-25)
(0.098771205 -0.0011026509 -2.1187463e-21)
(0.097404076 3.8680186e-05 -2.5756389e-21)
(0.097128863 0.00010064211 1.6126858e-22)
(0.097074029 1.9833016e-06 4.4187894e-24)
(0.096911137 4.6491747e-05 -7.5543564e-24)
(0.096709837 3.3112486e-05 -6.2359033e-23)
(0.096578838 -6.4686009e-05 3.7823228e-22)
(0.096372543 -0.00019524445 1.5361148e-22)
(0.096177399 -4.5026772e-05 -7.1639362e-23)
(0.096135792 -5.9446331e-05 -5.0353811e-24)
(0.096154632 -0.00014843487 1.3831916e-22)
(0.096227583 -0.00024425155 -1.2483351e-22)
(0.096378849 -0.00035677614 -7.9082762e-23)
(0.096669293 -0.0004637105 -5.2373281e-24)
(0.097007787 -0.00060554192 2.3220547e-24)
(0.097408979 -0.00079705829 5.8912856e-23)
(0.097968351 -0.0010412152 6.0932165e-23)
(0.098702827 -0.001300328 -1.5155756e-22)
(0.099585823 -0.0016155963 -3.5972543e-23)
(0.10059791 -0.0019626078 1.62742e-22)
(0.10177934 -0.0023580587 2.2335994e-22)
(0.10307761 -0.002838076 2.4791759e-26)
(0.10449402 -0.0033542154 5.6633634e-23)
(0.10610847 -0.0038464237 1.2693209e-22)
(0.10791088 -0.0043421834 2.6358886e-23)
(0.10979108 -0.0048862432 -9.443364e-22)
(0.1116535 -0.0054404449 -9.666055e-22)
(0.11349604 -0.0060693517 1.4658069e-22)
(0.11546102 -0.0068756627 1.6941506e-21)
(0.097575251 0.001365926 -3.220917e-21)
(0.094170956 0.00068348657 -4.8543965e-25)
(0.097984146 -0.0012394133 1.0498163e-22)
(0.096566679 -0.00020772766 -6.6910564e-23)
(0.096418929 -0.00014657497 -1.0606096e-22)
(0.0964576 -0.00023418325 3.7629554e-22)
(0.096386399 -0.00013639474 -1.2982204e-23)
(0.096306741 -0.00018808214 6.4194243e-23)
(0.096240636 -4.1026396e-05 -6.8661735e-23)
(0.096050885 -0.00035091362 1.5232513e-23)
(0.095886344 -0.00021304507 -2.0621025e-23)
(0.095898744 -0.00024310589 -2.1798612e-22)
(0.095951816 -0.00031790882 4.1026164e-24)
(0.096038627 -0.00037066095 8.375161e-23)
(0.096172625 -0.00045196153 8.0145899e-25)
(0.096403516 -0.00051388124 4.7925531e-23)
(0.096710724 -0.00066637663 3.4953902e-23)
(0.097135418 -0.00083148568 0)
(0.09769487 -0.00099318892 -1.8852275e-26)
(0.098336535 -0.0012269451 -9.2228343e-25)
(0.09910089 -0.001540035 -1.82742e-22)
(0.10001222 -0.0018563722 -1.1058191e-22)
(0.10108103 -0.0021818613 -4.5398848e-23)
(0.10231778 -0.0025189565 2.1275742e-22)
(0.10367441 -0.0029151245 2.0442005e-22)
(0.10516736 -0.0033933739 -2.2453626e-22)
(0.10682353 -0.0038775486 2.6643877e-22)
(0.10867176 -0.0043071852 7.5284388e-22)
(0.1106705 -0.0046788596 -1.8507444e-21)
(0.11269264 -0.00505996 -1.2730012e-21)
(0.11485522 -0.005562281 -1.5405219e-21)
(0.099520418 0.0019657849 -2.4559132e-21)
(0.096605582 -7.494549e-05 4.2136146e-22)
(0.099654708 -0.0014443699 -1.5766218e-21)
(0.097890254 3.7868219e-05 5.7969529e-21)
(0.097509743 2.1428617e-05 -6.2836859e-24)
(0.097289046 -8.1779044e-05 6.3032499e-25)
(0.097061638 -2.2058303e-05 3.2680869e-25)
(0.096826469 2.5716054e-06 9.8695729e-24)
(0.096719921 -0.00014816592 -3.485482e-22)
(0.096460223 -0.00021942052 -9.6696304e-23)
(0.096189558 4.2444618e-05 -9.4488803e-23)
(0.096175613 8.1748104e-06 -3.9405065e-25)
(0.096193051 -5.9492594e-05 3.1248098e-23)
(0.096253908 -0.00013645394 -1.716617e-25)
(0.096381922 -0.00021516757 8.8778445e-23)
(0.096522996 -0.00027173796 8.3937171e-23)
(0.096884916 -0.00032219764 -2.0265143e-24)
(0.097310743 -0.0003974214 3.8812969e-24)
(0.097873328 -0.00050667024 -6.1278351e-23)
(0.098542159 -0.00063928048 -2.7780799e-22)
(0.099333753 -0.00081823921 -5.5147417e-23)
(0.10027254 -0.0010062707 8.1870607e-23)
(0.1013469 -0.0012289482 -9.7428045e-23)
(0.10256828 -0.0014567761 6.1035444e-22)
(0.10389581 -0.0017268024 3.111956e-22)
(0.10538668 -0.0020433357 -3.2195795e-22)
(0.10701057 -0.0024046688 -1.7450962e-21)
(0.10878952 -0.0027417541 6.9707118e-22)
(0.11064578 -0.0030778409 -2.9274747e-22)
(0.11256677 -0.0033918164 1.0097702e-21)
(0.11438771 -0.0037234217 8.6605518e-22)
(0.10547424 0.001452415 2.0460394e-21)
(0.099851555 0.0010595241 -1.2382109e-24)
(0.10246238 -0.0018695466 -1.4793523e-22)
(0.10061931 -0.00016324497 -7.5466437e-23)
(0.10029009 -0.00018905342 4.0514192e-24)
(0.099917157 -0.00034518106 7.0296081e-24)
(0.099488779 -0.00019665414 -3.2264708e-25)
(0.099163884 -0.00031815115 -3.6339544e-24)
(0.098890451 8.317685e-05 4.1840289e-25)
(0.098431284 -0.00066135734 -1.133017e-23)
(0.098094651 -0.00022954232 3.7415758e-24)
(0.098038458 -0.0002530446 2.8164018e-22)
(0.097985207 -0.00026808967 -3.7280943e-23)
(0.097959759 -0.00024987483 3.8318862e-25)
(0.0979777 -0.00032932542 -3.9520799e-24)
(0.098036234 -0.000329682 -9.088463e-24)
(0.098332707 -0.00040743719 4.3610854e-23)
(0.098697641 -0.0004460041 4.1642041e-23)
(0.099215391 -0.000480987 1.9850237e-22)
(0.099852999 -0.00053931793 1.7423514e-22)
(0.10059872 -0.00066188869 8.3741988e-23)
(0.1014681 -0.00077887298 -4.30365e-25)
(0.10247448 -0.00093031675 -2.0276178e-22)
(0.10361172 -0.0010791825 1.7535223e-23)
(0.10487634 -0.0012609853 1.9847326e-22)
(0.10630253 -0.0014793237 9.9021954e-22)
(0.10785237 -0.0017760457 -3.0722879e-22)
(0.10951015 -0.0020527784 -1.0502354e-21)
(0.11120979 -0.0023188874 -4.0849783e-22)
(0.11316606 -0.0025807094 -1.4578722e-21)
(0.11480471 -0.0029430812 1.478691e-21)
(0.11129124 0.0019807496 1.5296916e-21)
(0.098188454 -0.0006279194 -1.2231072e-21)
(0.10194955 -0.0014371168 1.2188404e-21)
(0.10065435 0.00014752134 -2.8502584e-21)
(0.100857 -8.6484639e-05 -2.3583906e-21)
(0.10118823 -6.1374534e-05 1.9022534e-22)
(0.10125767 1.4026554e-05 -5.3145491e-22)
(0.10133414 4.0938483e-05 1.0808416e-24)
(0.10162449 -0.00027984663 -4.4865163e-22)
(0.10155104 -0.00013104031 -9.2712583e-23)
(0.10141592 0.00011056258 -1.6657365e-22)
(0.10161873 2.6390962e-05 -4.8173874e-25)
(0.10181154 -2.9807914e-05 -3.3384166e-22)
(0.10199222 -9.9604944e-05 5.1712667e-22)
(0.10214639 -0.00015835091 5.3164963e-24)
(0.10234927 -4.9486297e-05 -1.5557027e-22)
(0.10274993 -6.5113392e-05 -2.3405171e-24)
(0.10314809 -6.8767709e-05 -7.0151223e-23)
(0.10368429 -0.00010742726 2.1068291e-25)
(0.1043341 -0.00014947847 1.9584117e-22)
(0.10503504 -0.00018606558 -1.6352595e-22)
(0.10585276 -0.00022784981 -6.5895292e-24)
(0.10677427 -0.00028188023 -8.5684667e-23)
(0.10779875 -0.0003319233 -5.0538549e-22)
(0.10895621 -0.00038341367 1.4780251e-22)
(0.11023109 -0.00046363944 -3.9250341e-22)
(0.11167288 -0.00060539732 3.6158191e-22)
(0.11326604 -0.00078313005 0)
(0.11491572 -0.00093340561 -2.5079119e-22)
(0.11665791 -0.0011235717 -9.812433e-22)
(0.11822797 -0.0011777264 -3.8750978e-22)
(0.10241465 0.00064026111 -4.020087e-21)
(0.068012129 0.00023302056 0)
(0.10843572 -0.0024346041 4.6837489e-23)
(0.11139901 -4.5608092e-07 -3.7742436e-22)
(0.10420117 -0.00019124894 -3.6583837e-22)
(0.11497011 -0.0002719678 6.6228565e-24)
(0.10743101 -8.1684681e-05 -6.2541534e-22)
(0.11589209 -0.00027644468 -1.0227697e-23)
(0.10927062 0.00041593779 -8.155515e-22)
(0.1155521 -0.0010336077 1.0832163e-21)
(0.11573697 1.5466229e-05 -1.7409903e-23)
(0.114324 -0.00016682439 -9.923004e-23)
(0.11678224 -8.4630863e-05 1.1207018e-22)
(0.11490175 -3.5773871e-05 4.0558449e-22)
(0.11756129 -0.00021133711 3.2472862e-23)
(0.1169749 -5.834514e-05 -1.810758e-23)
(0.11810011 -0.00011116435 2.453557e-22)
(0.11796553 -7.2618933e-05 -1.6346833e-22)
(0.11843894 -4.7774554e-05 -2.5307744e-22)
(0.11851871 -6.7479616e-05 1.0241715e-23)
(0.1192166 -0.00016016635 -4.6424723e-22)
(0.11970164 -0.00016908253 6.7037335e-23)
(0.12052807 -0.00025603873 1.3240757e-22)
(0.12133342 -0.00026037681 -3.8020065e-22)