/*--------------------------------*- C++ -*----------------------------------*\
| =========                 |                                                 |
| \\      /  F ield         | OpenFOAM: The Open Source CFD Toolbox           |
|  \\    /   O peration     | Version:  2406                                  |
|   \\  /    A nd           | Website:  www.openfoam.com                      |
|    \\/     M anipulation  |                                                 |
\*---------------------------------------------------------------------------*/
FoamFile
{
    version     2.0;
    format      ascii;
    arch        "LSB;label=32;scalar=64";
    class       volScalarField;
    location    "175";
    object      nutMean;
}
// * * * * * * * * * * * * * * * * * * * * * * * * * * * * * * * * * * * * * //

dimensions      [0 2 -1 0 0 0 0];

internalField   nonuniform List<scalar> 
20580
(
8.902043e-07
9.0534212e-07
8.8190751e-07
8.5844863e-07
8.4092228e-07
8.2831012e-07
8.1864976e-07
8.1144763e-07
8.0536938e-07
7.9983759e-07
7.9562431e-07
7.9138331e-07
7.8925712e-07
7.8646176e-07
7.8572969e-07
7.8503938e-07
7.876258e-07
7.9193393e-07
7.9800271e-07
8.0578193e-07
8.137242e-07
8.1929595e-07
8.275462e-07
8.4736926e-07
8.7647987e-07
9.0227043e-07
9.3018598e-07
9.501408e-07
9.7371914e-07
1.0181407e-06
1.09206e-06
8.9124005e-07
9.1481852e-07
8.9894359e-07
8.7948434e-07
8.5904055e-07
8.406403e-07
8.2615167e-07
8.1611838e-07
8.0853961e-07
8.0182475e-07
7.9701295e-07
7.9220001e-07
7.8938795e-07
7.8678819e-07
7.8466076e-07
7.8404289e-07
7.8600639e-07
7.9116253e-07
7.972563e-07
8.0620638e-07
8.171933e-07
8.2581553e-07
8.3219312e-07
8.5124313e-07
8.7852809e-07
9.1937263e-07
9.5869532e-07
1.0030835e-06
1.0375567e-06
1.0786945e-06
1.1123094e-06
8.9092329e-07
9.1883217e-07
9.0567478e-07
8.9439573e-07
8.7972247e-07
8.6229373e-07
8.4380964e-07
8.2877974e-07
8.1738312e-07
8.0788759e-07
8.0106654e-07
7.9508142e-07
7.9071446e-07
7.876538e-07
7.8444161e-07
7.8304429e-07
7.8386161e-07
7.8794237e-07
7.9349134e-07
8.0145557e-07
8.1272652e-07
8.2261784e-07
8.3128324e-07
8.4690877e-07
8.7016247e-07
9.108833e-07
9.4938396e-07
9.9241615e-07
1.0380212e-06
1.0911507e-06
1.1639143e-06
8.9067541e-07
9.2120496e-07
9.0877623e-07
9.009285e-07
8.9150953e-07
8.8013841e-07
8.6705362e-07
8.5113327e-07
8.368131e-07
8.2361188e-07
8.1283283e-07
8.0417305e-07
7.9679438e-07
7.919288e-07
7.8712939e-07
7.83867e-07
7.8316974e-07
7.8555062e-07
7.9058082e-07
7.9703318e-07
8.0694033e-07
8.1772214e-07
8.2676595e-07
8.4163049e-07
8.6297468e-07
8.9587961e-07
9.424335e-07
9.8421097e-07
1.0220802e-06
1.0643081e-06
1.1408044e-06
8.9065368e-07
9.2537998e-07
9.111892e-07
9.0426126e-07
8.9914282e-07
8.9252381e-07
8.8451149e-07
8.753345e-07
8.6339783e-07
8.5036734e-07
8.368153e-07
8.2520351e-07
8.139525e-07
8.0477044e-07
7.9738292e-07
7.9064804e-07
7.8721962e-07
7.8640004e-07
7.8985434e-07
7.9439287e-07
8.0318859e-07
8.143839e-07
8.2552039e-07
8.3991758e-07
8.6091469e-07
8.9525149e-07
9.4250005e-07
9.97409e-07
1.0387794e-06
1.0949842e-06
1.1395599e-06
8.9105052e-07
9.3253406e-07
9.1534426e-07
9.0781813e-07
9.0319687e-07
8.9984062e-07
8.9505301e-07
8.9024108e-07
8.836583e-07
8.7591843e-07
8.6597043e-07
8.5412447e-07
8.426084e-07
8.3015252e-07
8.2017781e-07
8.0930677e-07
8.0202292e-07
7.9666677e-07
7.9599366e-07
7.9709165e-07
8.0263527e-07
8.124177e-07
8.2191861e-07
8.3582919e-07
8.5321953e-07
8.8541676e-07
9.275303e-07
1.0023046e-06
1.0498984e-06
1.145255e-06
1.1758481e-06
8.9403389e-07
9.3691752e-07
9.1847506e-07
9.0992894e-07
9.044259e-07
9.0024551e-07
8.977875e-07
8.9633046e-07
8.9422815e-07
8.9017636e-07
8.8614129e-07
8.7953355e-07
8.7242577e-07
8.6205379e-07
8.512502e-07
8.3929853e-07
8.2943192e-07
8.2151289e-07
8.158239e-07
8.1325568e-07
8.1155481e-07
8.172372e-07
8.210396e-07
8.3012818e-07
8.4362078e-07
8.6249309e-07
8.9313719e-07
9.6512126e-07
1.0226848e-06
1.121514e-06
1.2033209e-06
9.0739393e-07
9.6839029e-07
9.3381649e-07
9.1613029e-07
9.0580559e-07
8.9927385e-07
8.9538102e-07
8.9343304e-07
8.9322271e-07
8.9256732e-07
8.9237354e-07
8.9105394e-07
8.8810739e-07
8.8495239e-07
8.7852328e-07
8.7132537e-07
8.6106159e-07
8.5392485e-07
8.459076e-07
8.4285279e-07
8.3723334e-07
8.3724676e-07
8.37525e-07
8.3806664e-07
8.450714e-07
8.571693e-07
8.7406974e-07
9.0732814e-07
9.5983065e-07
1.0283819e-06
1.1622124e-06
9.9633153e-07
1.0735768e-06
1.0098636e-06
9.587314e-07
9.2906876e-07
9.1096138e-07
8.9985311e-07
8.9338208e-07
8.8943406e-07
8.8714925e-07
8.853252e-07
8.8594362e-07
8.8588619e-07
8.8721699e-07
8.8628275e-07
8.8599252e-07
8.8291155e-07
8.804551e-07
8.7610547e-07
8.7173144e-07
8.6786645e-07
8.6616967e-07
8.7016532e-07
8.7371118e-07
8.761152e-07
8.8320812e-07
8.9527492e-07
9.1756864e-07
9.6155362e-07
1.0031455e-06
1.0851924e-06
9.6055587e-07
1.0723465e-06
1.1010662e-06
1.0870488e-06
1.040674e-06
9.9042848e-07
9.5143312e-07
9.2585988e-07
9.077451e-07
8.9674823e-07
8.8847742e-07
8.8448128e-07
8.8112672e-07
8.8076943e-07
8.7999137e-07
8.8127747e-07
8.8181831e-07
8.846849e-07
8.885993e-07
8.921307e-07
8.9511344e-07
8.9745531e-07
9.0180494e-07
9.1241294e-07
9.2084057e-07
9.361921e-07
9.5803945e-07
9.8870489e-07
1.0261376e-06
1.0745058e-06
1.1170361e-06
9.0694928e-07
9.9086949e-07
1.0848895e-06
1.1447656e-06
1.1772586e-06
1.1796768e-06
1.1491272e-06
1.0997877e-06
1.0462576e-06
1.0017532e-06
9.6558239e-07
9.4048896e-07
9.2136435e-07
9.0851555e-07
8.9895987e-07
8.9340567e-07
8.8930224e-07
8.8898502e-07
8.9173993e-07
8.9657142e-07
9.0376971e-07
9.150588e-07
9.2562281e-07
9.4226379e-07
9.5451412e-07
9.7195384e-07
9.9337216e-07
1.0431611e-06
1.0828647e-06
1.164482e-06
1.1938324e-06
8.9425749e-07
9.5106452e-07
9.9988078e-07
1.0773789e-06
1.1525248e-06
1.2198576e-06
1.2659039e-06
1.2972691e-06
1.3047446e-06
1.2893243e-06
1.2527439e-06
1.205996e-06
1.1552126e-06
1.1060801e-06
1.0612141e-06
1.0221752e-06
9.9016605e-07
9.658777e-07
9.4873168e-07
9.4077693e-07
9.3603184e-07
9.3784018e-07
9.4681174e-07
9.5954295e-07
9.7370495e-07
9.867481e-07
1.0029187e-06
1.0373227e-06
1.0824157e-06
1.1622661e-06
1.246635e-06
9.0419622e-07
9.7983766e-07
9.7594775e-07
9.9957769e-07
1.0367068e-06
1.0932849e-06
1.1639608e-06
1.2328737e-06
1.2928764e-06
1.3411684e-06
1.3760593e-06
1.3988089e-06
1.4078322e-06
1.4035349e-06
1.3843432e-06
1.3541627e-06
1.3108462e-06
1.2648827e-06
1.2164079e-06
1.1728854e-06
1.1344239e-06
1.099726e-06
1.0758878e-06
1.0630439e-06
1.0536848e-06
1.0450332e-06
1.0439964e-06
1.0574776e-06
1.0872482e-06
1.1354301e-06
1.1965512e-06
8.8614858e-07
9.5377493e-07
9.6399822e-07
9.7876358e-07
9.9110585e-07
1.010252e-06
1.032808e-06
1.0658616e-06
1.1033201e-06
1.15083e-06
1.2034648e-06
1.2535596e-06
1.2995631e-06
1.3402868e-06
1.3745259e-06
1.4031481e-06
1.4237535e-06
1.4353698e-06
1.4405024e-06
1.4347284e-06
1.4227492e-06
1.4000158e-06
1.3745788e-06
1.347799e-06
1.3229754e-06
1.2957846e-06
1.2696828e-06
1.2554767e-06
1.2572417e-06
1.2871058e-06
1.285343e-06
8.9912345e-07
9.5510767e-07
9.5608296e-07
9.6992085e-07
9.7625491e-07
9.8334506e-07
9.898963e-07
9.9885781e-07
1.0085324e-06
1.0223381e-06
1.0387432e-06
1.0597773e-06
1.0865641e-06
1.119533e-06
1.1568906e-06
1.1978889e-06
1.2398876e-06
1.2806855e-06
1.320227e-06
1.3587073e-06
1.3959404e-06
1.4366343e-06
1.4747612e-06
1.5184003e-06
1.5530405e-06
1.5847708e-06
1.5937501e-06
1.6154655e-06
1.6129117e-06
1.6504943e-06
1.6284526e-06
8.8004219e-07
9.3020816e-07
9.3326083e-07
9.4063316e-07
9.4705619e-07
9.5424787e-07
9.6107813e-07
9.6841486e-07
9.7397283e-07
9.8002871e-07
9.8742296e-07
9.9487597e-07
1.003737e-06
1.0139714e-06
1.0261323e-06
1.0418544e-06
1.0608895e-06
1.0873154e-06
1.1196999e-06
1.1606806e-06
1.2066862e-06
1.2621599e-06
1.3166901e-06
1.3888287e-06
1.4520734e-06
1.5351253e-06
1.6020572e-06
1.6856795e-06
1.7607649e-06
1.8479837e-06
1.9264029e-06
8.8520645e-07
9.3908389e-07
9.3211859e-07
9.2914973e-07
9.2679684e-07
9.2835729e-07
9.3063563e-07
9.3581876e-07
9.3985838e-07
9.4564364e-07
9.5170356e-07
9.5732212e-07
9.6284061e-07
9.682104e-07
9.7369294e-07
9.7866996e-07
9.8451891e-07
9.9215004e-07
1.003607e-06
1.0204371e-06
1.0420501e-06
1.0725495e-06
1.1093255e-06
1.1635232e-06
1.2285251e-06
1.3055847e-06
1.3865547e-06
1.4649557e-06
1.5648573e-06
1.6476591e-06
1.7908856e-06
8.9247655e-07
9.2769058e-07
9.2318922e-07
9.2196912e-07
9.1952071e-07
9.1913439e-07
9.1945528e-07
9.2083068e-07
9.210112e-07
9.2251863e-07
9.2370419e-07
9.2350874e-07
9.2333626e-07
9.2316208e-07
9.23851e-07
9.2419776e-07
9.2536001e-07
9.2707809e-07
9.3127235e-07
9.3924659e-07
9.5109744e-07
9.6606947e-07
9.8534868e-07
1.0081626e-06
1.0407088e-06
1.0730274e-06
1.1254444e-06
1.1649983e-06
1.2404636e-06
1.2913014e-06
1.4181541e-06
8.8541201e-07
9.1910701e-07
9.1358677e-07
9.1546357e-07
9.1488749e-07
9.1275466e-07
9.1069993e-07
9.084479e-07
9.0496127e-07
9.0143309e-07
8.9810922e-07
8.9452856e-07
8.9254584e-07
8.8991908e-07
8.8981681e-07
8.8838433e-07
8.8904782e-07
8.8825103e-07
8.9095569e-07
8.9531378e-07
9.036348e-07
9.1591737e-07
9.3072544e-07
9.4818591e-07
9.7049029e-07
9.9617558e-07
1.0340635e-06
1.0696278e-06
1.1194461e-06
1.1593628e-06
1.2176e-06
8.9135509e-07
9.3649914e-07
9.2933008e-07
9.3411695e-07
9.3699121e-07
9.3795383e-07
9.3871437e-07
9.3883284e-07
9.391634e-07
9.3663324e-07
9.3433183e-07
9.3357988e-07
9.3332218e-07
9.3392788e-07
9.3483281e-07
9.3471838e-07
9.3586736e-07
9.3712042e-07
9.4355212e-07
9.5677024e-07
9.7391693e-07
9.943022e-07
1.0063898e-06
1.0155051e-06
1.0004212e-06
9.8031054e-07
9.5846559e-07
1.003225e-06
1.0391342e-06
1.1249906e-06
1.136238e-06
8.722892e-07
9.5031069e-07
9.9166906e-07
1.0563282e-06
1.1111496e-06
1.1603677e-06
1.2074779e-06
1.2465583e-06
1.2980721e-06
1.3088155e-06
1.3361166e-06
1.3631819e-06
1.3878073e-06
1.4176663e-06
1.4380905e-06
1.458061e-06
1.4811682e-06
1.5063277e-06
1.5335702e-06
1.5560115e-06
1.5600077e-06
1.5854575e-06
1.604729e-06
1.6318678e-06
1.6349065e-06
1.6184343e-06
1.5894351e-06
1.6036165e-06
1.6005367e-06
1.6150382e-06
1.5874055e-06
9.9714257e-07
1.618262e-06
1.8599707e-06
2.1078063e-06
2.2102626e-06
2.2623394e-06
2.3672306e-06
2.4606093e-06
2.5400185e-06
2.5692815e-06
2.6421056e-06
2.6937206e-06
2.7601892e-06
2.8395435e-06
2.8826439e-06
2.9500908e-06
2.9979883e-06
3.0616645e-06
3.1204259e-06
3.1883392e-06
3.2152729e-06
3.2628486e-06
3.2901854e-06
3.3134156e-06
3.3136443e-06
3.2818356e-06
3.2446388e-06
3.209601e-06
3.2065551e-06
3.2038111e-06
3.1560079e-06
9.2488076e-07
1.9515683e-06
2.3608706e-06
2.2436976e-06
1.9548187e-06
2.2544292e-06
1.8941649e-06
2.2976542e-06
1.8797164e-06
2.2853484e-06
2.1471343e-06
2.1086242e-06
2.1600809e-06
2.0769445e-06
2.1662285e-06
2.1543041e-06
2.1772618e-06
2.1773891e-06
2.1849202e-06
2.1844465e-06
2.2152515e-06
2.2269853e-06
2.2667591e-06
2.2924124e-06
2.3305959e-06
2.3606692e-06
2.3954385e-06
2.4340589e-06
2.4740333e-06
2.5306778e-06
2.5514294e-06
2.4572427e-06
3.3222345e-06
1.9187508e-06
1.2729196e-06
1.2810841e-06
1.4352281e-06
1.8260492e-06
2.0323908e-06
1.791092e-06
1.4320248e-06
1.2880328e-06
1.336502e-06
1.298291e-06
1.2110729e-06
1.1634643e-06
1.2248415e-06
1.2895499e-06
1.2912917e-06
1.2466161e-06
1.2233523e-06
1.240679e-06
1.2191321e-06
1.1665931e-06
2.2193698e-06
3.2552257e-06
1.889934e-06
1.3019602e-06
1.3687844e-06
1.4532994e-06
1.8615974e-06
2.2087074e-06
2.0447984e-06
1.6697469e-06
1.4096013e-06
1.4693805e-06
1.4570839e-06
1.3886861e-06
1.2822385e-06
1.3025187e-06
1.3949923e-06
1.4157401e-06
1.4021786e-06
1.3523624e-06
1.361175e-06
1.3559677e-06
1.2889707e-06
2.0570088e-06
2.92845e-06
1.9071965e-06
1.3384687e-06
1.3820044e-06
1.5281405e-06
1.9210029e-06
2.3726594e-06
2.3464197e-06
1.99113e-06
1.5958702e-06
1.6079479e-06
1.6078481e-06
1.5701315e-06
1.4574162e-06
1.4093156e-06
1.5034914e-06
1.5551285e-06
1.5566518e-06
1.4967279e-06
1.5030697e-06
1.5105967e-06
1.4724511e-06
1.7847143e-06
2.6489837e-06
1.8957851e-06
1.5116397e-06
1.4542922e-06
1.5772405e-06
2.0320937e-06
2.5687474e-06
2.6413115e-06
2.376491e-06
1.8833436e-06
1.8009401e-06
1.8090879e-06
1.7798889e-06
1.6923699e-06
1.5770926e-06
1.6293337e-06
1.7101063e-06
1.7568884e-06
1.7111467e-06
1.6539828e-06
1.6666949e-06
1.6459978e-06
1.6007801e-06
2.3652784e-06
1.8574098e-06
1.6216583e-06
1.6083719e-06
1.6479797e-06
2.1205151e-06
2.8537861e-06
2.987306e-06
2.8304379e-06
2.3282621e-06
2.0418403e-06
2.0681338e-06
2.0231347e-06
1.9658379e-06
1.8323525e-06
1.8006211e-06
1.8902405e-06
1.934957e-06
1.9595563e-06
1.8798891e-06
1.8787842e-06
1.8639233e-06
1.3595281e-06
2.2024712e-06
1.9305358e-06
1.8109955e-06
1.794551e-06
1.7427131e-06
2.1295711e-06
3.1799051e-06
3.4130201e-06
3.3220788e-06
2.8963881e-06
2.4024212e-06
2.4235643e-06
2.3824962e-06
2.2735432e-06
2.151555e-06
2.0370096e-06
2.1385929e-06
2.1896246e-06
2.2150397e-06
2.1659794e-06
2.1100791e-06
2.1292087e-06
1.210299e-06
1.9209438e-06
1.9675685e-06
1.9934887e-06
2.0212729e-06
1.9265635e-06
2.1935531e-06
3.4391005e-06
3.9504465e-06
3.9320519e-06
3.5923464e-06
2.9730354e-06
2.8971096e-06
2.8688076e-06
2.7014621e-06
2.570866e-06
2.3854736e-06
2.4170549e-06
2.5261196e-06
2.5239679e-06
2.5135193e-06
2.4267117e-06
2.4349586e-06
1.056976e-06
1.7388904e-06
2.0517773e-06
2.248731e-06
2.3293792e-06
2.2004602e-06
2.3422678e-06
3.6328333e-06
4.6063089e-06
4.6452067e-06
4.458147e-06
3.8215608e-06
3.5050923e-06
3.5405695e-06
3.3745372e-06
3.1098794e-06
2.8688646e-06
2.7953879e-06
2.9980048e-06
3.0055142e-06
2.9350069e-06
2.8387841e-06
2.7856226e-06
9.4875952e-07
1.5709668e-06
2.218397e-06
2.6063818e-06
2.8295338e-06
2.6059648e-06
2.6936131e-06
4.0771138e-06
5.5021522e-06
5.612184e-06
5.5707376e-06
4.9556924e-06
4.4051994e-06
4.5326047e-06
4.4238934e-06
3.9714697e-06
3.5783347e-06
3.3321628e-06
3.4721178e-06
3.6879244e-06
3.5716743e-06
3.4192328e-06
3.2546981e-06
8.8733808e-07
1.4967128e-06
2.398814e-06
3.0096902e-06
3.4750135e-06
3.2644151e-06
3.3904734e-06
5.0415508e-06
6.8176686e-06
7.1177896e-06
7.1010183e-06
6.5227524e-06
5.7745247e-06
6.0054746e-06
6.0148095e-06
5.4540837e-06
4.7025846e-06
4.2119493e-06
4.1960532e-06
4.5791315e-06
4.5424765e-06
4.2584987e-06
3.9793444e-06
8.727394e-07
1.5109845e-06
2.6535544e-06
3.5562624e-06
4.3499534e-06
4.2978542e-06
4.5642764e-06
6.7095244e-06
8.9957554e-06
9.5813323e-06
9.3183047e-06
8.7728802e-06
7.8375056e-06
8.3571185e-06
8.5421202e-06
7.9307784e-06
6.5530864e-06
5.6731224e-06
5.354816e-06
5.8325627e-06
5.9580907e-06
5.5793223e-06
5.0829046e-06
8.7726429e-07
1.5521084e-06
2.9728406e-06
4.253934e-06
5.4674092e-06
5.8049265e-06
6.5393256e-06
9.3936327e-06
1.2404933e-05
1.3518917e-05
1.2788368e-05
1.2120587e-05
1.1108213e-05
1.2147276e-05
1.2804082e-05
1.1957522e-05
9.6015459e-06
7.9852883e-06
7.2702427e-06
7.7345323e-06
8.147428e-06
7.6247757e-06
6.6606938e-06
9.4587151e-07
1.6927079e-06
3.3677238e-06
5.0971617e-06
6.882233e-06
7.9136337e-06
9.6411902e-06
1.3476582e-05
1.7043373e-05
1.9086428e-05
1.7839056e-05
1.697848e-05
1.6374236e-05
1.8197311e-05
1.9541907e-05
1.8135158e-05
1.4000094e-05
1.1430415e-05
1.0384643e-05
1.0820129e-05
1.1492459e-05
1.0651112e-05
8.955413e-06
1.014604e-06
1.83883e-06
3.7960802e-06
6.0091165e-06
8.5251559e-06
1.0541242e-05
1.3994955e-05
1.8818199e-05
2.2895008e-05
2.6052835e-05
2.4591702e-05
2.3871458e-05
2.4357592e-05
2.7689617e-05
2.9786933e-05
2.7222503e-05
2.0066135e-05
1.6116225e-05
1.4994127e-05
1.5617903e-05
1.6810948e-05
1.5323777e-05
1.235152e-05
1.1510938e-06
2.0816695e-06
4.3385799e-06
7.0951217e-06
1.0485033e-05
1.3661705e-05
1.9129367e-05
2.4671837e-05
2.9047932e-05
3.3064637e-05
3.285747e-05
3.2861965e-05
3.4849491e-05
3.9857239e-05
4.2991679e-05
3.9911083e-05
2.8626302e-05
2.2889582e-05
2.1891559e-05
2.3134128e-05
2.5057929e-05
2.2311326e-05
1.6844627e-05
1.274586e-06
2.3062745e-06
4.9501607e-06
8.3835932e-06
1.2559227e-05
1.7174392e-05
2.4490555e-05
3.0695971e-05
3.5265455e-05
4.018926e-05
4.2234888e-05
4.3375716e-05
4.6886344e-05
5.2981715e-05
5.6986551e-05
5.4266247e-05
3.9371224e-05
3.198637e-05
3.1399437e-05
3.4005699e-05
3.6649085e-05
3.180388e-05
2.2734141e-05
1.4160687e-06
2.5888797e-06
5.5173465e-06
9.8738665e-06
1.4867815e-05
2.1068869e-05
2.9918113e-05
3.675478e-05
4.1454973e-05
4.7442428e-05
5.2252339e-05
5.4875743e-05
5.9658466e-05
6.6573682e-05
7.1042977e-05
6.8762296e-05
5.2121225e-05
4.3974346e-05
4.4795235e-05
4.9779635e-05
5.2620526e-05
4.4250073e-05
3.028992e-05
1.6365258e-06
2.9109299e-06
6.1256049e-06
1.1536371e-05
1.7446291e-05
2.5039427e-05
3.5592865e-05
4.3233782e-05
4.8269855e-05
5.5422525e-05
6.2980957e-05
6.6783673e-05
7.2481519e-05
8.0319961e-05
8.5263968e-05
8.3320812e-05
6.7002747e-05
5.913308e-05
6.1938362e-05
6.9009593e-05
7.1911782e-05
5.9294987e-05
4.018049e-05
1.8340252e-06
3.1312575e-06
6.6019772e-06
1.2704906e-05
1.9900756e-05
2.8977107e-05
4.1423788e-05
5.021685e-05
5.6000645e-05
6.4728136e-05
7.483778e-05
7.9367276e-05
8.5601437e-05
9.4445825e-05
9.9885987e-05
9.8828826e-05
8.501627e-05
7.8982065e-05
8.3881265e-05
9.2498482e-05
9.3995216e-05
7.6239033e-05
5.2719418e-05
1.9242252e-06
3.3028596e-06
7.0648815e-06
1.3668818e-05
2.2433558e-05
3.3185684e-05
4.7433862e-05
5.776285e-05
6.4966762e-05
7.6239082e-05
8.8653668e-05
9.3062594e-05
9.9963151e-05
0.00010981608
0.00011585367
0.0001166973
0.00010662474
0.00010355377
0.00010867158
0.00011716464
0.00011717838
9.3722288e-05
6.8460203e-05
1.8952113e-06
3.4341753e-06
7.461376e-06
1.4489953e-05
2.4822608e-05
3.7427479e-05
5.3551056e-05
6.5840526e-05
7.5586606e-05
9.0667093e-05
0.0001041367
0.00010741106
0.00011609911
0.00012719157
0.00013455036
0.00013949221
0.00013318013
0.00013251217
0.00013484691
0.00014246009
0.00013951892
0.00011084547
8.8148292e-05
1.8706024e-06
3.6422448e-06
7.9443928e-06
1.5321931e-05
2.7165209e-05
4.1497309e-05
5.9453278e-05
7.4429055e-05
8.8364257e-05
0.00010839637
0.00012182546
0.00012366868
0.00013460715
0.00014768279
0.00015845099
0.0001688286
0.00016421581
0.00016031233
0.0001607686
0.00016695937
0.00016052157
0.0001297945
0.0001131066
1.8707509e-06
4.1740044e-06
8.8165233e-06
1.6627214e-05
2.95953e-05
4.5033793e-05
6.5048068e-05
8.3987696e-05
0.00010459164
0.0001290703
0.00014283345
0.00014299803
0.0001551446
0.00017122249
0.00018909124
0.00020035234
0.00019590303
0.0001855552
0.0001865595
0.00019176685
0.00018163176
0.00015287461
0.00014172583
2.1943569e-06
5.9496002e-06
1.088303e-05
1.9246639e-05
3.3025682e-05
4.8558686e-05
6.9900558e-05
9.5166267e-05
0.00012504665
0.00015173348
0.00016505149
0.000162958
0.00017833645
0.00020059799
0.00022897541
0.00023119377
0.00022494485
0.00021088215
0.00021371994
0.00021950604
0.0002017536
0.00017851374
0.00016797978
2.8796701e-06
9.7271426e-06
1.5522893e-05
2.4502959e-05
3.8877157e-05
5.3957575e-05
7.665331e-05
0.00010777415
0.00014625912
0.00017345769
0.00018562991
0.00018584265
0.00020588581
0.00023812324
0.00026851453
0.00026311655
0.0002480688
0.00023695375
0.00024288368
0.00024865489
0.00022073824
0.00020205125
0.00018424863
3.5811237e-06
1.5077352e-05
2.1876733e-05
3.2739168e-05
4.7781259e-05
6.3073251e-05
8.7128684e-05
0.00012435039
0.00016866068
0.00019556583
0.00020648015
0.00021263104
0.00024065615
0.00028379089
0.00030041062
0.00029296553
0.00027134417
0.00026571579
0.00027530839
0.00026609713
0.00023895388
0.00021836284
0.00019234644
4.5701033e-06
2.220017e-05
3.1241584e-05
4.4201829e-05
6.1013003e-05
7.6102668e-05
0.00010245846
0.00014499522
0.00019156769
0.00022258138
0.00023223271
0.0002454937
0.00028514454
0.00032713035
0.00033015289
0.00031915145
0.00029695872
0.00029544425
0.00030188104
0.00027656048
0.00025150355
0.00022078835
0.00019600654
5.5524291e-06
3.0076089e-05
4.2491389e-05
5.9120135e-05
7.9416804e-05
9.7762367e-05
0.00012479997
0.00017271944
0.00021550944
0.00025249919
0.00026272119
0.00028490591
0.00033377745
0.0003610607
0.00036146232
0.00033976066
0.00031791281
0.00032034539
0.00031054212
0.00028279146
0.0002524384
0.00021933522
0.00019866572
5.6628162e-06
3.763438e-05
5.5264787e-05
7.6101322e-05
0.00010047113
0.00012175297
0.0001545274
0.00020402767
0.00024484755
0.0002841954
0.00029622912
0.00032847136
0.00037368272
0.00038621356
0.00038549306
0.0003494222
0.00033428782
0.00033382979
0.00031006463
0.00028235075
0.00024661422
0.00021940489
0.00019873126
6.1072961e-06
4.7971814e-05
7.0758326e-05
9.3660203e-05
0.00012079537
0.00014601189
0.00018502636
0.00023367317
0.00027379603
0.00030897141
0.00032699651
0.00036798979
0.00040104427
0.0004028519
0.00039025102
0.00035398536
0.00034533833
0.00033472795
0.00030816159
0.00027695806
0.00024207393
0.00022012407
0.00019919484
6.6391361e-06
5.5794421e-05
8.3405501e-05
0.00011066852
0.00014233211
0.00017197366
0.00021305401
0.00025816832
0.00030003145
0.00033337349
0.00035618008
0.00039421355
0.00041168994
0.00041080726
0.00038463042
0.0003573863
0.00035100455
0.00033056464
0.0003044082
0.00026980234
0.00024261114
0.00022311386
0.00020167359
7.0277021e-06
6.5371973e-05
9.7330065e-05
0.0001261233
0.00016011803
0.00019472272
0.00023809179
0.00028157284
0.00032213071
0.00035120873
0.00038011061
0.00041185214
0.00041886393
0.00041057846
0.00037641994
0.00035937263
0.00034968737
0.00032743409
0.00029854744
0.00026793635
0.00024660676
0.00022719359
0.00020484183
7.6439029e-06
7.3610611e-05
0.0001091224
0.00014100735
0.00017777394
0.00021458654
0.00025665886
0.00030000892
0.00033939005
0.00037203204
0.00040028879
0.00041772487
0.00041679382
0.00040224167
0.00037599505
0.00036243676
0.00034507165
0.00032352038
0.00029600031
0.00027087137
0.00025232705
0.00023287715
0.00021079053
8.0099655e-06
8.2001127e-05
0.00011998219
0.00015317723
0.00019039278
0.00022853641
0.00027144946
0.00031444568
0.00035283101
0.00038505307
0.00040924216
0.00042161537
0.00041639403
0.00039619738
0.00037490483
0.00036282969
0.00034706803
0.00032569886
0.00030060789
0.00027912887
0.00026260704
0.00024252142
0.00021936091
8.9071573e-06
9.1416263e-05
0.00013188959
0.00016787825
0.00020571945
0.00024621173
0.00028991282
0.00033149486
0.00036768548
0.0003946033
0.00041099444
0.0004153019
0.00040397263
0.00038561835
0.00037051547
0.0003586595
0.00034244384
0.00032039629
0.00029947604
0.00028343916
0.00026902269
0.00024903133
0.00022657529
8.8835492e-06
9.4652636e-05
0.00013755189
0.00017404082
0.0002100377
0.00024859689
0.00028936592
0.00032822386
0.00036341453
0.00038931702
0.00040564596
0.00041043223
0.00040270155
0.00038772757
0.0003761543
0.00036642894
0.00035361742
0.00033457751
0.00031513438
0.00029963834
0.0002854024
0.00026815689
0.0002511338
8.8467456e-06
9.5123382e-05
0.00013973871
0.00017635083
0.00021062125
0.00024717189
0.0002855289
0.00032182781
0.00035518343
0.00038034863
0.00039737381
0.00040400966
0.00039977378
0.00038851133
0.00037867562
0.00037076112
0.00036123364
0.00034656343
0.000329877
0.00031514979
0.000302316
0.00028953788
0.00027322267
8.5190654e-06
9.5620845e-05
0.00014186356
0.00017865541
0.00021174258
0.00024587728
0.00028150272
0.00031514351
0.00034644742
0.00037093666
0.00038834663
0.00039657447
0.00039534474
0.00038774348
0.00038015426
0.00037422214
0.00036744932
0.00035639493
0.00034312581
0.00033058416
0.0003196747
0.00031064143
0.00029829568
8.3436618e-06
9.4633657e-05
0.00014325206
0.00018039212
0.00021262504
0.00024467924
0.00027737029
0.00030828444
0.00033731216
0.00036114447
0.00037872606
0.00038838477
0.00038978882
0.0003856829
0.00038044646
0.00037643363
0.00037194509
0.0003645198
0.00035493975
0.00034612464
0.0003386606
0.00033332092
0.00032315656
8.0621441e-06
9.4006345e-05
0.00014484092
0.00018226509
0.00021382957
0.00024352837
0.00027313741
0.00030134129
0.00032800067
0.00035100208
0.00036869382
0.00037964504
0.00038348193
0.000382698
0.00038006932
0.00037812478
0.00037597779
0.00037239155
0.00036735101
0.00036281631
0.00035968411
0.00035771098
0.00034987691
7.8652944e-06
9.2712333e-05
0.00014597354
0.00018390332
0.00021495577
0.0002423465
0.00026926305
0.00029476875
0.00031881336
0.00034075392
0.00035846132
0.00037048022
0.00037660674
0.00037892621
0.00037916334
0.00037941353
0.00037974899
0.00038001391
0.00038017132
0.00038056382
0.00038161095
0.00038300254
0.00037774457
7.6577245e-06
9.1344732e-05
0.00014666628
0.00018555111
0.0002163065
0.00024164897
0.00026603718
0.00028899102
0.00031017111
0.00033070936
0.00034822727
0.00036114341
0.00036941869
0.00037459344
0.00037784457
0.00038049547
0.00038363978
0.00038785868
0.00039276195
0.00039775224
0.00040214916
0.00040725446
0.00040632425
7.4814798e-06
8.9513148e-05
0.00014626424
0.00018647481
0.00021733429
0.00024143089
0.00026360084
0.00028429136
0.00030276903
0.00032136607
0.00033836461
0.00035202687
0.00036215323
0.00036988272
0.00037599436
0.00038107311
0.00038703386
0.00039458022
0.00040349429
0.00041265288
0.00042117468
0.00043057715
0.00043080326
7.3695344e-06
8.7222189e-05
0.00014460347
0.00018641807
0.000217863
0.00024164257
0.00026210867
0.00028081474
0.00029699543
0.000313177
0.00032933289
0.00034341321
0.00035507719
0.00036493833
0.00037362625
0.00038122201
0.00038983065
0.00040017238
0.00041251098
0.00042569589
0.000439073
0.00045191196
0.00045240436
7.1902746e-06
8.5358452e-05
0.00014282374
0.00018583753
0.00021775138
0.00024185178
0.00026126964
0.00027852034
0.00029299611
0.00030677325
0.00032148125
0.00033567718
0.00034851684
0.00036023173
0.00037114921
0.00038150965
0.00039265634
0.00040629447
0.0004216475
0.00043829727
0.00045498932
0.00046986985
0.00047009363
7.0865826e-06
8.2757382e-05
0.00014063484
0.00018501173
0.00021747624
0.00024205826
0.00026096234
0.00027716321
0.00029058105
0.00030235182
0.00031531441
0.00032917541
0.00034277615
0.00035609522
0.00036905113
0.00038214132
0.00039660077
0.00041317252
0.00043103476
0.00044947935
0.00046706693
0.0004844364
0.00048464077
6.8998136e-06
8.0260028e-05
0.00013870984
0.00018414183
0.00021719826
0.00024207396
0.00026089914
0.00027639491
0.00028942196
0.00029989847
0.00031121004
0.00032420058
0.00033840865
0.0003529643
0.00036803219
0.00038404628
0.00040175019
0.00042046838
0.00043929668
0.00045795766
0.00047652521
0.00049584241
0.00049581561
6.8135411e-06
7.7894923e-05
0.00013684287
0.00018351028
0.00021754107
0.0002426328
0.00026152452
0.00027651679
0.00028917837
0.000299218
0.00030944118
0.00032145996
0.00033574269
0.00035172882
0.00036878406
0.00038764972
0.00040757128
0.00042749668
0.00044692676
0.00046596085
0.00048489977
0.00050495977
0.00050332287
6.6080746e-06
7.6134258e-05
0.00013555326
0.00018351283
0.0002182559
0.00024351997
0.00026269792
0.000277729
0.00029026163
0.00030060069
0.00030994587
0.0003213498
0.00033567539
0.00035287794
0.00037213898
0.00039295434
0.00041427053
0.00043525561
0.00045550118
0.00047424614
0.00049279307
0.00051252829
0.00050819703
6.5495368e-06
7.4547844e-05
0.00013457095
0.00018396735
0.00021970589
0.00024529204
0.00026483738
0.00028008776
0.0002929166
0.000303826
0.00031322164
0.00032441193
0.0003390686
0.0003572572
0.00037809611
0.00040011319
0.00042254547
0.00044420041
0.00046440015
0.000482478
0.00049989329
0.00051814101
0.00051130025
6.3590447e-06
7.3149119e-05
0.0001340113
0.00018470122
0.00022152039
0.00024767953
0.00026769371
0.00028343643
0.00029667142
0.00030877307
0.00031943061
0.00033098767
0.00034609618
0.00036529862
0.00038664311
0.00040913273
0.00043188861
0.00045355225
0.00047270753
0.0004891942
0.00050437146
0.00052034636
0.0005114424
6.3005779e-06
7.1870378e-05
0.00013355088
0.00018559852
0.00022363804
0.00025089325
0.00027162917
0.00028811402
0.00030211846
0.00031541794
0.00032834604
0.00034091646
0.00035679868
0.00037650632
0.00039765847
0.00041957096
0.00044133334
0.00046141542
0.00047885581
0.00049343289
0.00050585563
0.0005181507
0.00050815387
6.1423709e-06
7.1087648e-05
0.00013371343
0.00018694843
0.00022598528
0.00025456381
0.0002764405
0.00029414749
0.00030943123
0.00032414229
0.00033931589
0.00035404692
0.00037068071
0.00039019268
0.00041050283
0.00043087741
0.00045044112
0.00046778348
0.00048236236
0.00049403411
0.00050314314
0.00051021024
0.00049922764
6.0793571e-06
7.0312497e-05
0.00013406142
0.00018869632
0.00022903301
0.00025920621
0.00028250698
0.00030172695
0.00031875479
0.00033507343
0.00035211491
0.00036948842
0.00038684356
0.00040561816
0.00042423591
0.00044210872
0.0004586347
0.00047284779
0.00048379362
0.00049149039
0.00049611897
0.00049692548
0.00048427253
5.9513504e-06
6.9677706e-05
0.00013424351
0.00019044675
0.00023232759
0.00026418692
0.00028914743
0.00031026131
0.00032925539
0.00034753142
0.00036626898
0.00038576806
0.00040378313
0.00042145302
0.0004376143
0.00045211545
0.00046467765
0.00047494386
0.00048196182
0.00048490789
0.00048389406
0.00047880553
0.00046156819
5.8632132e-06
6.8703091e-05
0.00013415016
0.00019201322
0.00023581763
0.00026949876
0.00029628893
0.000319192
0.00034019787
0.000360352
0.00038042504
0.00040060263
0.00041903271
0.00043524442
0.00044814148
0.0004584139
0.00046612008
0.00047126988
0.00047367015
0.00047154262
0.00046455755
0.00045409408
0.00043036633
5.7772742e-06
6.7960747e-05
0.00013387791
0.00019329028
0.00023904747
0.00027466697
0.00030321798
0.00032777647
0.00035038446
0.00037179368
0.00039247487
0.00041214056
0.00043028667
0.00044421936
0.00045304327
0.00045806729
0.0004602167
0.00045992854
0.00045677152
0.00044847872
0.00043617698
0.00042019915
0.00039166473
5.6695497e-06
6.6745774e-05
0.00013317783
0.00019427062
0.00024220652
0.00027964175
0.00030965978
0.00033550327
0.00035890007
0.00038071189
0.00040088069
0.00041937049
0.00043562879
0.000446611
0.00045112778
0.00045081844
0.0004472254
0.00044097111
0.00043170184
0.00041814413
0.00040161146
0.00038099393
0.00035127005
5.6255328e-06
6.590557e-05
0.00013275413
0.00019516916
0.00024486077
0.00028378707
0.00031491744
0.00034148264
0.00036502731
0.00038628228
0.00040517819
0.00042174618
0.00043495679
0.00044236487
0.00044246297
0.00043732613
0.00042856814
0.00041738729
0.00040328247
0.00038603859
0.00036650679
0.00034315267
0.00031648392
5.5169613e-06
6.4933498e-05
0.00013243153
0.00019591758
0.00024698038
0.00028713349
0.00031902972
0.00034570656
0.00036873403
0.00038858167
0.00040543225
0.0004191423
0.00042839029
0.00043148899
0.00042794346
0.00041950954
0.00040759183
0.00039246052
0.0003744461
0.00035409105
0.00033248624
0.00031228518
0.00029188098
5.4904449e-06