/*--------------------------------*- C++ -*----------------------------------*\
| =========                 |                                                 |
| \\      /  F ield         | OpenFOAM: The Open Source CFD Toolbox           |
|  \\    /   O peration     | Version:  2406                                  |
|   \\  /    A nd           | Website:  www.openfoam.com                      |
|    \\/     M anipulation  |                                                 |
\*---------------------------------------------------------------------------*/
FoamFile
{
    version     2.0;
    format      ascii;
    arch        "LSB;label=32;scalar=64";
    class       volScalarField;
    location    "175";
    object      p_0;
}
// * * * * * * * * * * * * * * * * * * * * * * * * * * * * * * * * * * * * * //

dimensions      [1 -1 -2 0 0 0 0];

internalField   nonuniform List<scalar> 
20580
(
1.0070805
1.0074945
1.0038569
1.0040315
1.0044844
1.0029028
1.0030577
1.0051947
1.0028334
1.0037603
1.0032099
1.0038439
1.0022172
1.002828
1.0033492
1.0017285
1.0012716
1.0067559
1.0011392
0.999551
1.0068942
1.0048025
0.99942011
1.0012053
1.0116547
1.0045468
0.99424768
1.0004241
0.99758028
0.98688199
1.0052777
1.0074808
1.0074525
1.0037522
1.0038791
1.0048406
1.0026262
1.003109
1.0052135
1.002507
1.0036678
1.0037677
1.003245
1.0020791
1.0036024
1.0034479
1.0007583
1.0034532
1.0069256
0.99805645
1.001132
1.0089015
1.002208
0.99954578
1.0046412
1.0129633
1.0013088
0.98543762
0.99602191
1.0070424
0.99527098
0.99185069
1.0064226
1.0065038
1.0036627
1.0036352
1.0046335
1.0031668
1.0036929
1.0044366
1.002549
1.0032223
1.0041923
1.0026387
1.0021385
1.0042375
1.0034081
1.0002382
1.0048029
1.0063838
0.99635446
1.0028552
1.0094056
0.99931327
0.99905027
1.0048512
1.0113322
1.0000034
0.98209826
0.99281825
1.0147577
1.0065565
0.98320036
1.004378
1.0049731
1.0036321
1.0034971
1.0040479
1.0040905
1.0045388
1.003253
1.0032102
1.0029037
1.0041097
1.0024604
1.0024088
1.004402
1.0031874
1.000391
1.005304
1.0049153
0.99649409
1.0044318
1.0079085
0.99664649
0.9996474
1.0032652
1.0060465
1.000831
0.98592437
0.99237513
1.0171635
1.0191721
0.9866945
1.0021607
1.0033853
1.0037257
1.0037279
1.0035566
1.0047669
1.0049325
1.0022823
1.0041022
1.0031112
1.0035671
1.0026509
1.0030013
1.0040821
1.002941
1.0011721
1.0051916
1.0027784
0.9983398
1.0058191
1.0051889
0.99481236
1.0018052
1.002246
0.99848865
1.001324
0.99544776
0.99482446
1.0119527
1.0238264
1.0015264
1.0006774
1.0024121
1.003816
1.0040724
1.0032962
1.0049509
1.0044899
1.0020663
1.0042787
1.0036005
1.0029846
1.0029117
1.0038399
1.0033677
1.0025342
1.0024588
1.0044832
1.0003047
1.0010204
1.0070486
1.0023827
0.99433572
1.0051582
1.0032853
0.99202861
0.99952763
1.0069103
1.0002755
1.0016421
1.0136035
1.014203
1.0006283
1.0025718
1.0037658
1.0042341
1.0033001
1.0044818
1.0035529
1.0027646
1.0036164
1.0037089
1.0026253
1.0030169
1.0044139
1.0025526
1.0019086
1.0037431
1.0036583
0.99834723
1.003622
1.0074757
0.9997286
0.99486732
1.0085142
1.0063956
0.98908448
0.99592512
1.0149864
1.0084421
0.99234998
0.99331676
1.0106007
1.002078
1.0038289
1.0036715
1.0042865
1.0036861
1.0034587
1.0025183
1.0039705
1.0030193
1.0035283
1.0024502
1.0031543
1.0045214
1.0019248
1.0014784
1.0046136
1.0031807
0.99759344
1.0057101
1.0066452
0.99803288
0.9964486
1.0098118
1.0091965
0.99040433
0.99297236
1.0154579
1.01599
0.99015076
0.97645157
0.99290198
1.0043088
1.0056985
1.0036498
1.0041985
1.0042154
1.0025607
1.0020764
1.0049924
1.0029826
1.0034179
1.0025016
1.0033235
1.0041095
1.0016453
1.0016185
1.0048322
1.0028826
0.99810978
1.0068281
1.0046455
0.99772632
0.99957656
1.008231
1.0087934
0.99547584
0.99291512
1.0093995
1.0175091
0.9958301
0.97373217
0.97726976
1.0063518
1.0072908
1.0036741
1.0038131
1.0045578
1.002429
1.0027127
1.0050423
1.0034854
1.0034091
1.0027551
1.0035091
1.003319
1.0019861
1.0021863
1.0042083
1.0023854
0.99980697
1.0069399
1.0017933
0.9979581
1.0033678
1.004633
1.004192
1.0013504
0.99674548
1.0016864
1.0096984
1.0039367
0.985281
0.9779095
1.0072924
1.0078105
1.0038038
1.003455
1.0046319
1.0030663
1.0038527
1.00399
1.0039986
1.0033319
1.0030935
1.0035434
1.0024638
1.0027447
1.0027187
1.0031408
1.0017811
1.002293
1.0063903
0.99901401
0.99854362
1.0073357
1.0010884
0.99667667
1.0043985
1.003929
0.99663705
0.99632735
1.0056794
1.0042908
0.99401123
1.006512
1.0070579
1.0040247
1.0035211
1.0043554
1.0040625
1.0049392
1.0027316
1.0038195
1.0029805
1.0036175
1.00357
1.0017025
1.0033661
1.0035117
1.0022235
1.0012138
1.004558
1.0054521
0.99700766
0.99940224
1.0111865
0.99940472
0.98966296
1.0036999
1.0118242
0.99653678
0.98565627
0.9979988
1.0165436
1.0161256
1.0044445
1.0053181
1.0040891
1.0037716
1.0037691
1.0049158
1.0054551
1.0022657
1.0032624
1.0026054
1.0040391
1.003734
1.0015283
1.003506
1.00431
1.0018444
1.0007137
1.0057734
1.0041302
0.9964945
0.9999903
1.0129128
0.99995345
0.98615668
1.0011553
1.0162889
1.000993
0.98311876
0.98757656
1.0146843
1.0277357
1.002142
1.0034546
1.0038815
1.0040062
1.0032052
1.0050462
1.004758
1.0028871
1.0030324
1.0026883
1.0041319
1.0037085
1.0018553
1.0032575
1.0044951
1.0018614
1.0004707
1.0060322
1.0024617
0.99790604
1.0007935
1.0110627
1.0016662
0.98778863
0.99938539
1.0146966
1.0068507
0.9879024
0.98523235
1.0023569
1.0223035
1.0006468
1.0022641
1.0036199
1.0043665
1.0030427
1.0043245
1.0035007
1.0040786
1.0031827
1.0033354
1.0038559
1.0034005
1.0024897
1.003075
1.0038718
1.0021843
1.0009903
1.0055344
1.0005582
1.0006489
1.0024003
1.006606
1.0024096
0.99444462
1.0001051
1.0080306
1.0085575
0.99741803
0.99194108
0.99408954
1.0046328
1.0006024
1.0024045
1.0034368
1.004425
1.0032593
1.0033187
1.0025096
1.0050125
1.0034372
1.003814
1.0033293
1.0029565
1.003341
1.0029988
1.0029068
1.0027304
1.0022595
1.0045513
0.99858234
1.0034358
1.0044459
1.0010373
1.0002815
1.0032306
1.0037835
1.0007426
1.0019273
1.006222
1.0038067
0.9958776
0.98889774
1.0023482
1.0039259
1.0033561
1.0039305
1.0037431
1.0026872
1.0021527
1.0050302
1.0034973
1.0036531
1.0029938
1.0026297
1.0041716
1.0028854
1.001959
1.0030547
1.0035805
1.0035652
0.99711527
1.0055449
1.006771
0.99668245
0.99615069
1.0094484
1.0093527
0.99632812
0.99075389
1.0069379
1.0153227
1.0039237
0.9855079
1.0049302
1.0061313
1.0034999
1.0035687
1.0044233
1.0027798
1.0029651
1.0039637
1.0032661
1.0032829
1.0029406
1.0024979
1.0046302
1.002863
1.0011905
1.0028708
1.0044738
1.003034
0.9968127
1.0062184
1.0085933
0.99474472
0.9926602
1.0107366
1.0141913
0.99500883
0.98382109
0.99983173
1.0187121
1.0132815
0.99094886
1.0068668
1.0077917
1.0038992
1.0033976
1.004876
1.0035006
1.0043555
1.002342
1.0032534
1.0034178
1.0030157
1.0025172
1.004346
1.0031247
1.0009681
1.0025212
1.0048115
1.0028507
0.99800995
1.005223
1.0084068
0.99563641
0.99232096
1.007556
1.0149664
0.99617824
0.98502302
0.99315943
1.0122986
1.0157657
1.0000396
1.0068938
1.0080055
1.0041958
1.0032388
1.0046484
1.0042235
1.0051576
1.0016672
1.0036192
1.0039281
1.0029672
1.0028083
1.0037137
1.0032383
1.0015038
1.0024127
1.0044883
1.0022951
1.0005301
1.0036558
1.0056164
0.99862231
0.99541051
1.0040786
1.0092267
0.9997129
0.99142857
0.9944912
1.0022351
1.0084348
1.0045366
1.0051726
1.0063343
1.0041141
1.0036732
1.0041537
1.0043721
1.0048335
1.0022702
1.0038172
1.0039499
1.0030546
1.0033488
1.0031576
1.002946
1.0026779
1.0025304
1.0033143
1.001445
1.003621
1.0023712
1.0006975
1.0022038
1.000844
1.0026857
1.0006829
1.0004854
1.0008581
1.0019247
0.99721831
0.99595443
1.0013981
1.0024795
1.0038605
1.0038137
1.0042118
1.0033804
1.0039389
1.0036732
1.0040148
1.0036556
1.0030554
1.0032254
1.004044
1.0025521
1.0025972
1.0039076
1.0028077
1.002249
1.0003683
1.0066617
1.0019344
0.99632746
1.0034354
1.0074841
1.0031979
0.9940179
0.99653452
1.0094023
1.0118461
0.99871101
0.98658182
0.99351182
1.0005135
1.0020795
1.0033881
1.004329
1.0028645
1.0032877
1.002522
1.0058186
1.0031013
1.0017332
1.0035902
1.0046059
1.0020849
1.0022472
1.0047445
1.0032869
1.0018641
0.99929662
1.0084834
1.0026935
0.99378825
1.0019738
1.0119273
1.0056706
0.99181891
0.99120474
1.0104834
1.0198647
1.0043754
0.98511937
0.98701454
1.0076292
1.0088884
1.0048087
0.99508975
0.98278128
0.97544051
0.97964079
0.9933378
1.0092624
1.0175592
1.0134489
0.9997532
0.98988609
0.99371784
1.0080611
1.0188864
1.0136919
0.99067867
0.96764076
0.96462712
0.9844374
1.0147602
1.0383579
1.0139507
1.0083263
1.0024215
0.99887862
0.99973822
1.0029131
1.0046007
1.0031144
0.99408513
0.98143733
0.97194188
0.9744695
0.9905588
1.0142739
1.0308652
1.028981
1.0094387
0.98561786
0.97340935
0.98015743
0.99883186
1.0134404
1.0122784
0.976776
0.97996824
0.99239969
1.0101723
1.0255956
1.0326277
1.026052
1.0090656
0.98775231
0.97379816
0.97438134
0.98665983
1.0010387
1.0083055
1.0031058
0.98904565
0.97933371
0.98457185
1.0044482
1.0273723
1.0356074
1.0187143
0.98507413
0.96877946
0.98094097
0.9948072
1.0047938
1.009395
1.0049107
0.99418877
0.9871167
0.99115774
1.0056562
1.0223956
1.0310766
1.0259718
1.0011405
0.96852818
0.9486399
0.95210456
0.97632695
1.0120779
1.0401124
1.0410218
1.015987
0.9845395
1.0183796
1.0184907
1.0090862
0.99174955
0.97204524
0.95657908
0.95380288
0.96679902
0.99218379
1.0196558
1.0391899
1.0411741
1.0224817
0.99658936
0.97563146
0.97145661
0.98170592
0.99779977
1.0077264
1.0039478
0.98407615
0.96770771
0.97005061
1.037468
1.0253942
1.0082103
0.99072172
0.97608128
0.97313094
0.98057996
0.99307341
1.0014524
1.0006518
0.99139896
0.97741379
0.96952651
0.97395272
0.99520931
1.0242642
1.0475295
1.049782
1.0261281
0.98149566
0.93959849
0.92516725
0.94010575
0.97883447
0.97722538
0.98353659
0.99818472
1.0186751
1.0375943
1.0468279
1.0404973
1.01731
0.98481668
0.95227918
0.93045143
0.9306085
0.95358708
0.99133902
1.0322138
1.0597778
1.0584799
1.0292247
0.99179652
0.96234645
0.95185074
0.96064934
0.93755791
0.94781632
0.9711698
1.0005397
1.0288177
1.0492038
1.0513634
1.0368258
1.0139535
0.98964354
0.97072545
0.96500739
0.97101274
0.98434057
0.99507704
0.99888263
0.99253762
0.98021109
0.97398345
0.97926078
0.99736875
1.0192325
1.0399733
0.97800737
0.99187867
1.0011405
1.0010627
0.98962611
0.97446669
0.96513295
0.96530751
0.97516219
0.99274408
1.0166862
1.0408035
1.0549461
1.0539245
1.0272947
0.98428945
0.94109832
0.91027325
0.90869641
0.93313458
0.98047934
1.0403452
1.0916812
1.0731148
1.0545692
1.0208955
0.98426091
0.95195717
0.9293276
0.91369184
0.91347288
0.93330249
0.97278756
1.024511
1.0720774
1.0964874
1.0837221
1.0452724
0.9986877
0.9522032
0.92183615
0.91352339
0.92866826
0.96233874
1.0052189
1.0439654
1.0728158
1.0530118
1.0262599
0.99535895
0.96339171
0.94132559
0.93396288
0.94273713
0.96211704
0.98483244
1.0029456
1.0130796
1.0185117
1.0192468
1.0172904
1.0092905
0.99749862
0.98703736
0.98612889
0.9944281
0.99805785
0.99134568
0.97518285
0.97587158
0.98075061
0.99297309
1.0039505
1.0113153
1.0163735
1.021769
1.0285076
1.0283405
1.0138705
0.98561067
0.95181776
0.9259762
0.91915523
0.93245284
0.96287185
1.0080232
1.0541901
1.0880295
1.0908605
1.0626552
1.0132523
0.95298005
0.90439513
0.91478008
0.93894909
0.97918088
1.031185
1.0848343
1.1218343
1.1229267
1.0853307
1.0288636
0.97124459
0.92375327
0.89136307
0.87692895
0.88230189
0.913801
0.97144489
1.049464
1.1223457
1.151644
1.1221297
1.0511841
0.97123757
0.88636702
0.90027226
0.92953955
0.97303187
1.0288713
1.0867771
1.1288009
1.1336888
1.0989999
1.0414147
0.98247864
0.93229088
0.9007472
0.88709907
0.89133401
0.91455011
0.95905449
1.017843
1.0762451
1.1128856
1.1113595
1.070902
1.0096614
0.91562628
0.93419026
0.96200922
0.99397162
1.02153
1.0423265
1.0549399
1.0595547
1.0530679
1.0348134
1.0061501
0.97337795
0.94662295
0.93276223
0.93589089
0.95421242
0.97679336
0.9984694
1.0143437
1.0283929
1.0355578
1.0376481
1.0263344
0.98116394
0.99252398
1.0054925
1.0091348
1.00153
0.98537699
0.9728451
0.97145047
0.9842109
1.002676
1.0156595
1.0155729
1.005333
0.99648968
0.99855521
1.0041943
1.0016864
0.98645835
0.96786629
0.95435061
0.95985306
0.97661485
1.0022787
1.0507868
1.047995
1.0353786
1.0128423
0.97888864
0.94409681
0.91939838
0.91308845
0.92910362
0.96229024
1.0029845
1.0359164
1.0539668
1.0615718
1.0616349
1.0481559
1.0209271
0.98083038
0.9374131
0.90904241
0.90675275
0.92901203
0.9703066
1.1063385
1.0887775
1.052727
1.0081341
0.95812151
0.91575434
0.88820161
0.88141129
0.89949233
0.93725677
0.98972485
1.0432315
1.0852363
1.1083465
1.1063398
1.0761319
1.0273294
0.97126977
0.92145208
0.88742253
0.87841166
0.89873681
0.94625303
1.1357123
1.1083369
1.0585176
1.0021482
0.94633425
0.90258861
0.87472388
0.86874644
0.88749669
0.92603
0.98219594
1.0474688
1.1041142
1.1372608
1.1302473
1.0854796
1.0251358
0.96266376
0.90769163
0.87228995
0.86379458
0.88700461
0.94102172
1.1367593
1.1100836
1.0603653
1.0021961
0.94303424
0.89693771
0.8687208
0.86379506
0.88606081
0.92911001
0.9891426
1.05671
1.1145319
1.1464055
1.1336026
1.0823079
1.0170122
0.95211804
0.89841279
0.86443034
0.85890734
0.88842238
0.94903314
1.1074845
1.091542
1.0544846
1.0059265
0.95157526
0.90640544
0.87793521
0.87394378
0.89755529
0.94436532
1.0063596
1.0654767
1.1094103
1.127952
1.1124606
1.0655978
1.0059103
0.94480411
0.89417953
0.86408922
0.86634005
0.90604425
0.97216972
1.0411373
1.0464672
1.0390187
1.0148597
0.97487313
0.93327526
0.90564498
0.90432912
0.93026632
0.97699751
1.025653
1.0582982
1.075161
1.0821122
1.0742567
1.0429353
0.99438485
0.94034891
0.89756982
0.87917637
0.89517047
0.94293506
1.0073396
0.95505479
0.97504654
0.99827855
1.0089456
1.0056505
0.98586235
0.96913648
0.97414395
0.99517269
1.0188745
1.0275763
1.0214093
1.0101734
1.0101854
1.0186326
1.0153566
0.99140741
0.95499898
0.92422051
0.91920574
0.94912815
0.99265128
1.0306804
0.87393868
0.90011748
0.93996044
0.9921856
1.0347619
1.0669625
1.0881481
1.0864154
1.066998
1.0322631
0.98842482
0.94944793
0.92983869
0.93265779
0.95444894
0.98064165
0.99445167
0.99663939
1.0007264
1.0086846
1.0177583
1.0176972
1.0056948
0.84013732
0.86408018
0.90942377
0.97918049
1.0688968
1.1541712
1.1994865
1.1692548
1.0866486
0.99832529
0.92742894
0.88058783
0.86043511
0.86679494
0.90195014
0.96056603
1.0356942
1.1002386
1.1247865
1.0930821
1.0389536
0.97646412
0.9248734
0.88863171
0.90621722
0.94778325
1.006655
1.0718507
1.1341085
1.1633182
1.1316473
1.0549723
0.96929146
0.89352854
0.84494585
0.82941771
0.84948059
0.90926904
1.0097853
1.1233323
1.1984816
1.1793415
1.0866005
0.98019026
0.89643845
0.84576072
1.0296108
1.0142743
1.0092481
1.0016014
0.99451669
0.99358594
1.0014345
1.0124558
1.0057376
0.97230183
0.92416671
0.8933518
0.89636141
0.9352485
0.99340121
1.0591873
1.1203528
1.1410721
1.0981629
1.0125619
0.92319176
0.86024672
0.83622329
1.1348862
1.0805968
1.013046
0.95342498
0.91104267
0.88715187
0.88741814
0.91202395
0.95695642
1.0053875
1.0448397
1.0555425
1.0436296
1.0283054
1.0052902
0.98439031
0.97613446
0.98544773
0.99706174
0.98432894
0.95066503
0.92219929
0.92805341
1.0410031
1.0402487
1.0085686
0.96428244
0.9170905
0.88566266
0.88377871
0.91376731
0.97436339
1.0547754
1.1271935
1.1430443
1.0884745
1.0066124
0.93140615
0.88339255
0.87178642
0.90055088
0.96489394
1.0397584
1.0822291
1.0669885
1.0276936
0.92766421
0.95299281
0.9839673
1.0031326
1.0108081
1.0044954
0.99356131
0.99315128
0.99868827
1.012969
1.0315545
1.0436102
1.028767
0.97950742
0.92052941
0.88806162
0.88720286
0.930059
1.0033897
1.0929523
1.142183
1.1034237
1.0124412
0.93109917
0.94045958
0.97052823
1.0158169
1.0593281
1.0840796
1.0663752
1.0202446
0.97121382
0.93206131
0.91666364
0.93459764
0.97054542
1.0070101
1.0178703
1.0044458
0.98721392
0.97956513
0.98518899
1.0054842
1.0362522
1.0423234
1.0069899
1.0155842
0.99894083
0.98915963
0.98659242
0.99454972
1.0093409
1.0192927
1.0065693
0.96973995
0.93132417
0.91544337
0.92634305
0.97194361
1.04009
1.0927368
1.0842856
1.0251837
0.96005434
0.91646322
0.90868307
0.94001934
0.99703538
1.0509243
1.0363015
1.0242176
0.99609466
0.96629579
0.94510722
0.9402938
0.95590137
0.98498261
1.0116334
1.0159705
1.0028245
0.98565793
0.98264299
0.9946055
1.0184931
1.0353267
1.0166841
0.96519105
0.92116166
0.91189136
0.93426625
0.99200166
1.0588321
0.97681529
0.98962725
0.99581983
0.98940341
0.97458795
0.96483544
0.96566704
0.98501599
1.0177463
1.0468799
1.0453033
1.0118905
0.96758007
0.93775472
0.93495516
0.96468719
1.0092264
1.0358199
1.019383
0.98233705
0.95902865
0.95397572
0.97527367
0.96523963
0.97017634
0.9867141
1.0081394
1.0231804
1.0191127
1.0017853
0.98444379
0.97705953
0.98434761
1.0029745
1.0078218
0.98671935
0.95716048
0.94382468
0.95568562
0.99943671
1.0518448
1.0691538
1.0254471
0.95701526
0.91654221
0.91672745
1.0008986
0.99126133
0.98670246
0.99225347
1.0052786
1.0141767
1.0130164
0.99331774
0.96645847
0.95242449
0.95928727
0.986129
1.0156476
1.0252322
1.0079147
0.97794547
0.96136278
0.96938728
0.9977942
1.0230096
1.0205397
0.99184487
0.96571188
1.0158538
1.0093126
0.99522389
0.97982607
0.9717868
0.97640479
0.98827421
0.99767309
0.99609695
0.98295865
0.97098912
0.97306699
0.99177335
1.0175884
1.0311419
1.0196901
0.98869999
0.95959643
0.95206411
0.96505366
0.98767093
1.0037057
1.0096955
0.98784934
0.99507729
0.99579362
0.98846673
0.97734275
0.97021565
0.97424565
0.98978315
1.0081112
1.0169439
1.0111539
0.99487181
0.98107983
0.97976827
0.98917391
1.0007741
1.0021559
0.99121039
0.97661549
0.97069762
0.97543791
0.98586119
0.99610745
0.97302471
0.97915248
0.99127333
1.0019874
1.0062144
1.0017127
0.99254421
0.98787459
0.99244804
1.0026659
1.009773
1.0060686
0.99191465
0.97542932
0.96792121
0.97177704
0.98403446
0.99639205
1.003147
1.0047421
1.0025883
0.99718618
0.98986077
0.9948567
0.99009891
0.9908584
0.99889275
1.0070853
1.0101406
1.0051279
0.99303291
0.98134217
0.97697405
0.98079409
0.98922555
0.99478599
0.99431935
0.99003776
0.98678163
0.98719638
0.99130849
0.99666151
1.0004117
1.0014957
0.99880951
0.99185001
1.0089508
1.0035569
0.99477855
0.98614128
0.98391757
0.98704834
0.99200071
0.99360119
0.99021747
0.98499223
0.9823315
0.98444699
0.99114058
0.99879206
1.0038177
1.0051585
1.0027706
0.9975141
0.99088068
0.98502561
0.98201762
0.98224294
0.98406204
0.99315659
0.9955388
0.99335284
0.98778526
0.98241825
0.98117449
0.98524946
0.99303108
1.0004316
1.0039006
1.0030258
0.99951724
0.99553046
0.99290543
0.9919801
0.99216304
0.99294473
0.99284625
0.99077558
0.98731216
0.98458979
0.98485632
0.98814229
0.98329682
0.98718523
0.99343009
0.99836211
1.0004451
0.99956937
0.99732912
0.99626622
0.99659452
0.99747385
0.99784165
0.99690053
0.99448942
0.99089049
0.98716827
0.98467073
0.98437968
0.98664135
0.99037171
0.99382747
0.99581262
0.99669992
0.99748843
0.9955827
0.99398606
0.99517541
0.99828499
1.0006872
1.0010341
0.99909994
0.99506197
0.99033333
0.98654091
0.9847737
0.98560401
0.98857178
0.99244093
0.99548959
0.99677358
0.99640161
0.99561894
0.99555138
0.99615546
0.99638119
0.99540271
0.99341782
1.0009371
0.99912454
0.99570872
0.99203412
0.98942556
0.98830987
0.9887892
0.99031151
0.99227185
0.99379864
0.99460019
0.9948739
0.99533659
0.99652349
0.99803772
0.99864684
0.99775625
0.99559869
0.99312979
0.99121546
0.99000602
0.98911992
0.98833666
0.99211488
0.99320714
0.99391183
0.9938826
0.9932656
0.99270779
0.99263021
0.99383139
0.99618111
0.99878857
1.0003798
0.99997072
0.99765491
0.99447143
0.99160559
0.98985292
0.98904718
0.98889261
0.98935808
0.99047913
0.9920093
0.99342868
0.99430257
0.99294553
0.99263946
0.99384025
0.99591129
0.99812778
0.99947544
0.99922928
0.99771735
0.99542561
0.99346472
0.99211019
0.99132871
0.99086045
0.99056302
0.99087256
0.99198868
0.9936779
0.99528245
0.99636889
0.99695769
0.99719291
0.99699014
0.99621992
0.99915994
0.99781473
0.99586905
0.99415146
0.99341806
0.99337632
0.99368445
0.99372882
0.99340389
0.99301307
0.99301661
0.99363115
0.99463512
0.99581025
0.99681618
0.99755476
0.99784689
0.99742797
0.99608596
0.99405157
0.992024
0.9906698
0.99018126
0.99400228
0.99483348
0.99496685
0.99477726
0.99450802
0.99437798
0.9948018
0.9953118
0.99596284
0.99650707
0.99685486
0.99699334
0.99677655
0.99620371
0.99517913
0.993929
0.99275305
0.99203871
0.99185397
0.99206435
0.99251841
0.99324897
0.99421144
0.99494376
0.99506451
0.99579922
0.99653464
0.99691449
0.99704487
0.99677302
0.996248
0.99547207
0.99465098
0.99414685
0.99392047
0.99399837
0.99417161
0.99437401
0.99453653
0.99466909
0.99484256
0.99524214
0.99585537
0.9963736
0.99654385
0.99627289
0.99701585
0.99665844
0.99631188
0.99579177
0.99529413
0.99484177
0.99460672
0.99472777
0.99506084
0.99550284
0.99586563
0.99608914
0.99613949
0.99602203
0.99590275
0.99582678
0.99581934
0.99571959
0.99545803
0.99513651
0.99473227
0.99420902
0.99361304
0.99575811
0.99590334
0.99596834
0.99618686
0.99638388
0.9964727
0.99634038
0.99614837
0.99607817
0.99617635
0.99624052
0.99614624
0.995857
0.99550368
0.99520027
0.99510026
0.99520868
0.99538642
0.99547855
0.99543911
0.99530284
0.9950933
0.99484856
0.99685194
0.99686587
0.9966354
0.99646698
0.99638436
0.99638922
0.99644129
0.99635851
0.9962413
0.99610551
0.99597361
0.99586766
0.99587271
0.99598134
0.99618404
0.99632293
0.99638403
0.99631851
0.99604927
0.99565745
0.99542049
0.99543027
0.99551378
0.99718475
0.99713556
0.99716808
0.99701374
0.99683073
0.99673445
0.99665836
0.99662724
0.99660886
0.99664334
0.99666204
0.99663855
0.99655027
0.99647835
0.99640998
0.99629553
0.99617194
0.99611658
0.99602083
0.99577757
0.99554324
0.99556883
0.99579269
0.99728111
0.99727765
0.99719338
0.9971595
0.99721906
0.9973395
0.99733389
0.99705783
0.99672165
0.99655173
0.99663923
0.99677022
0.99683012
0.99676793
0.99666543
0.99649075
0.99624938
0.99608265
0.99608518
0.99615899
0.99611032
0.99596518
0.99588276
0.99793613
0.99772351
0.99747301
0.99723829
0.99711223
0.99724918
0.99745915
0.9975089
0.99732258
0.99710837
0.99705961
0.99710943
0.99707909
0.99690487
0.99669826
0.9965937
0.99661591
0.99665832
0.99665419
0.99657907
0.99635829
0.99599579
0.99571503
0.99806804
0.99768311
0.99753449
0.9977176
0.99799738
0.99804878
0.99787891
0.99766053
0.9974186
0.99722305
0.99716583
0.99727091
0.99740903
0.99740165
0.99720225
0.99701995
0.99699976
0.99700404
0.99683716
0.99653121
0.99632239
0.99628907
0.99632188
0.99879553
0.99803332
0.99763733
0.99776706
0.99815579
0.99826115
0.9979452
0.99755321
0.99746588
0.99758254
0.99769248
0.99766146
0.99758114
0.99752203
0.99746388
0.99738066
0.99726018
0.99708498
0.99688269
0.99671192
0.99663253
0.99662247
0.99664665
0.99864271
0.99820642
0.99810156
0.99823152
0.99836319
0.99828634
0.99803882
0.99786273
0.99786289
0.99795838
0.99793703
0.9978056
0.99768496
0.99764388
0.9976198
0.99755087
0.9974267
0.99728209
0.99718612
0.99715815
0.99712932
0.99690472
0.99661248
0.9988508
0.99856498
0.99861678
0.99877483
0.99879857
0.99858629
0.99829745
0.99818643
0.99821816
0.99826293
0.99815054
0.99793447
0.99787605
0.99796825
0.99804092
0.99792792
0.99766942
0.99743231
0.99743176
0.99750586
0.99759466
0.99742386
0.99707345
0.99955894
0.99895901
0.99886907
0.99910635
0.99928281
0.99909756
0.99869148
0.99841927
0.99844985
0.99861821
0.99862472
0.99842701
0.99828634
0.99824556
0.99829517
0.99828626
0.99807424
0.99787191
0.99778209
0.99775265
0.99772813
0.99745915
0.99726558
0.99950682
0.9993026
0.99958028
0.99971361
0.99957552
0.99917064
0.99883893
0.99881864
0.99903273
0.99921279
0.99916271
0.99891902
0.99862728
0.99833044
0.99821963
0.99838321
0.9986265
0.99858229
0.99811901
0.99767153
0.99770121
0.99796178
0.99814244
0.99946916
0.99968654
1.0000369
1.0000227
0.99974761
0.99944459
0.99933282
0.99934537
0.99936404
0.99928256
0.99906085
0.99887957
0.99889963
0.99897497
0.9989353
0.99885126
0.99877692
0.99876437
0.99852617
0.99815664
0.99790203
0.99791469
0.99788503
0.99966458
0.99988763
1.0004023
1.0003054
0.99984528
0.99949695
0.99945344
0.99954804
0.99959396
0.99949123
0.99937986
0.99943734
0.99956355
0.99955478
0.99929968
0.99882494
0.99844223
0.99844941
0.99870208
0.99877019
0.99851522
0.99829095
0.99826369
0.99941903
1.0000878
1.001053
1.00089
0.99988957
0.99908698
0.99929157
1.0001235
1.0004624
0.99998725
0.99931111
0.99913126
0.99949602
0.9998215
0.99965038
0.99927971
0.99908322
0.99896593
0.99879568
0.99867305
0.9986383
0.99869877
0.99864472
0.99980395
1.0000853
1.0008579
1.0010539
1.0004687
0.99952263
0.99906424
0.99959965
1.0005492
1.0008959
1.0002994
0.99946013
0.99914748
0.99941683
0.99964108
0.99945684
0.99935757
0.99949455
0.9995686
0.99907287
0.99831298
0.99806809
0.99851288
0.999495
0.99988138
1.0011802
1.0017376
1.0012805
1.0001454
0.99918587
0.99903791
0.99963392
1.0003808
1.0006424
1.0004405
1.0001046
0.99975758
0.99951591
0.99929387
0.99921216
0.9993527
0.99954675
0.99949918
0.99900721
0.99856676
0.99838837
1.0006157
1.0001911
1.0004726
1.0008012
1.00087
1.0004141
0.99974656
0.99943538
0.99966629
1.0001824
1.0005372
1.0005489
1.0003814
1.0000806
0.9996374
0.99920513
0.9991432
0.99957091
0.99987001
0.99963534
0.99896784
0.99845993
0.99843938
1.0009548
1.0003416
1.0000013
1.0000033
1.0001913
1.0001491
0.99991311
0.99985487
1.0001656
1.0005648
1.0005919
1.000229
0.99981859
0.99968956
0.99966986
0.99951072
0.99932983
0.99942784
0.99967486
0.99965644
0.99923597
0.99871841
0.99844722
1.0008459
1.0000676
0.99948213
0.99942147
0.99990542
1.0004041
1.0004592
1.0001276
0.99986611
0.99990162
0.99997675
0.99987441
0.99969167
0.99962817
0.9995256
0.99938688
0.99944342
0.99974779
0.99998389
0.99954575
0.99864109
0.99812131
0.99822933
1.0009
0.9998646
0.99895348
0.99873631
0.99936093
1.0002523
1.0005706
1.0000893
0.99936968
0.9990749
0.99934073
0.99972053
0.99979862
0.99968159
0.99949607
0.99927856
0.99902668
0.99901977
0.99935069
0.99938719
0.99887347
0.99837365
0.99840154
1.00056
0.99954386
0.99838917
0.99795468
0.99856737
0.99969369
1.0004715
1.0003142
0.99938731
0.99840436
0.99812442
0.99869194
0.99948552
0.99983709
0.99960898
0.99918332
0.99870425
0.99844838
0.99860795
0.99892488
0.99896419
0.9986309
0.9984469
0.99912992
0.99897311
0.9985615
0.99813894
0.99807878
0.99851478
0.9991303
0.99949005
0.99932633
0.99872237
0.99810655
0.99791524
0.99832527
0.99901856
0.99943051
0.99922423
0.99854832
0.99791784
0.99774554
0.99820547
0.99891428
0.99911771
0.9986602
0.99805312
0.99838704
0.99861206
0.99840465
0.9979918
0.99782986
0.9981406
0.99863168
0.99880604
0.99849941
0.99793789
0.99758059
0.99769244
0.99813442
0.99858185
0.99871971
0.99846911
0.99795862
0.99746189
0.99733964
0.99778141
0.99850785
0.99889122
0.99777676
0.99793576
0.9981486
0.99831395
0.99831324
0.99802633
0.99778627
0.99780696
0.99796716
0.99801843
0.99783652
0.99760178
0.99755683
0.99775668
0.99794189
0.99788516
0.99762767
0.99735618
0.99726501
0.99738429
0.99760424
0.99783039
0.99792262
0.9980132
0.99800132
0.99797412
0.99806765
0.99817143
0.99817329
0.99799669
0.99773849
0.99758545
0.99756868
0.99763866
0.99763351
0.99754729
0.99749086
0.99750377
0.99743006
0.99723099
0.99700019
0.99693817
0.99713512
0.99743782
0.99753544
0.99731515
0.99820855
0.99847458
0.9986869
0.99876813
0.99862224
0.99831801
0.99794082
0.99763856
0.99759062
0.99780007
0.99810143
0.99816275
0.99784414
0.99731416
0.9968837
0.99678628
0.99700989
0.99731754
0.99739427
0.99725147
0.99703157
0.99680096
0.99657416
0.99959993
0.9994027
0.9991977
0.9989947
0.99886569
0.99887089
0.99890276
0.99881384
0.99863904
0.99846257
0.99834686
0.9982642
0.99808986
0.99782258
0.9975421
0.99737902
0.99736237
0.9974301
0.99743734
0.9973016
0.9970666
0.99687464
0.99646969
0.99987161
0.99989846
0.99970756
0.99950573
0.99942532
0.99948814
0.99967102
0.99970396
0.99954264
0.99919142
0.99883777
0.99862381
0.99853092
0.99850528
0.9985353
0.99844889
0.99822175
0.99794469
0.99772049
0.99756896
0.99747821
0.99738378
0.99717574
0.9997284
1.0000152
1.0001324
1.0000882
1.0000117
0.99991445
0.99981815
0.99969022
0.99963122
0.99960831
0.99949306
0.99941915
0.99932642
0.99911614
0.99902859
0.99895461
0.99876377
0.99850011
0.9982815
0.99813104
0.99815356
0.99809643
0.99803021
1.0000074
1.0003495
1.0004141
1.0000579
1.000049
1.0002767
1.0002603
1.0000736
0.99999186
1.0000644
0.99998509
0.99988124
0.99989817
0.99967868
0.99954013
0.9993934
0.99920736
0.99904918
0.99908921
0.99897471
0.99886391
0.99867395
0.99863333
0.99986243
1.0004203
1.0004743
0.99986675
0.99969248
1.0001753
1.0004188
1.0000997
0.99979174
1.0000024
1.0001496
0.99988192
0.999921
0.99975604
0.99974835
0.99967451
0.99972932
0.99953757
0.9994898
0.99919924
0.99926154
0.99915255
0.99897885
0.99992732
1.0002828
1.0004652
1.0001198
0.99983706
1.0000495
1.0003165
1.0001832
0.99993704
1.0000584
1.0002001
0.99996345
0.99995418
0.999965
1.0000293
0.99984657
0.99981383
0.99980673
0.99979881
0.99951739
0.99954894
0.99954353
0.99949207
0.99996312
0.99992703
0.99991535
0.99988834
0.99988905
1.0000088
1.0000875
0.9999831
0.99984826
0.99985991
1.0000045
1.0000367
0.99995066
0.99988222
0.99989687
0.99983284
0.99982555
0.99982547
0.99976582
0.99966893
0.99967838
0.999764
0.99968535
0.99967638
0.99976953
0.9998058
0.99983164
0.99980761
0.99978357
0.99980177
0.9998234
0.99981643
0.99980142
0.99980293
0.99982912
0.99983215
0.99985573
0.99980326
0.99967043
0.99963856
0.99968975
0.99978277
0.99976622
0.99960741
0.99952718
0.99953577
0.99957257
0.99963862
0.99967887
0.99972918
0.99969712
0.9996527
0.99964983
0.99963613
0.9996983
0.99976476
0.99973946
0.99973625
0.99964468
0.99958091
0.99966432
0.99966019
0.999678
0.99957311
0.99954398
0.999532
0.99953863
0.99951215
0.99946493
0.99960148
0.99951017
0.99952102
0.99956047
0.99960638
0.99963518
0.99958397
0.99961638
0.99965538
0.99966458
0.99965894
0.9995717
0.99956646
0.99957358
0.99961576
0.99968739
0.99962608
0.99955682
0.9994294
0.99939345
0.99953375
0.99963778
0.99954704
0.99946817
0.9994115
0.99944236
0.99956614
0.99947742
0.99944782
0.99935493
0.99946068
0.99966263
0.99966705
0.99947767
0.99924393
0.99931919
0.99954236
0.99974088
0.99958619
0.999222
0.99916576
0.99928972
0.99966362
0.99952245
0.99922359
0.99893462
0.99961882
0.99933423
0.99908133
0.99913976
0.99951253
0.99973381
0.99957775
0.99945153
0.99921488
0.99914612
0.99960443
0.99980199
0.9997078
0.99943209
0.99901733
0.99929474
0.99968661
0.99972583
0.99944229
0.99895816
0.9991187
0.99951195
0.99966965
0.99889139
0.99923554
0.99937513
0.99933792
0.99906842
0.99894952
0.9991416
0.99947886
0.99925637
0.999531