/*--------------------------------*- C++ -*----------------------------------*\
| =========                 |                                                 |
| \\      /  F ield         | OpenFOAM: The Open Source CFD Toolbox           |
|  \\    /   O peration     | Version:  2406                                  |
|   \\  /    A nd           | Website:  www.openfoam.com                      |
|    \\/     M anipulation  |                                                 |
\*---------------------------------------------------------------------------*/
FoamFile
{
    version     2.0;
    format      ascii;
    arch        "LSB;label=32;scalar=64";
    class       volScalarField;
    location    "100";
    object      nut;
}
// * * * * * * * * * * * * * * * * * * * * * * * * * * * * * * * * * * * * * //

dimensions      [0 2 -1 0 0 0 0];

internalField   nonuniform List<scalar> 
20580
(
8.851519e-07
8.8782797e-07
8.8888318e-07
8.662361e-07
8.4269571e-07
8.2723109e-07
8.1768237e-07
8.121048e-07
8.0574356e-07
8.0153801e-07
7.9939499e-07
8.0048559e-07
8.0018228e-07
8.0404842e-07
8.0512326e-07
8.0628092e-07
8.0852734e-07
8.0925517e-07
8.1609738e-07
8.1822963e-07
8.229447e-07
8.225493e-07
8.2276927e-07
8.3819659e-07
8.5180732e-07
8.7468751e-07
9.008847e-07
9.2811992e-07
9.5767817e-07
1.0061686e-06
1.0882815e-06
8.8566217e-07
8.9347045e-07
8.9872397e-07
8.8159447e-07
8.5126223e-07
8.3151408e-07
8.1950938e-07
8.1258404e-07
8.0543239e-07
7.9976765e-07
7.966363e-07
7.9655548e-07
7.9487372e-07
7.9831092e-07
7.9750113e-07
7.9941004e-07
8.0182805e-07
8.0185308e-07
8.1299416e-07
8.1472422e-07
8.2635563e-07
8.3283079e-07
8.27349e-07
8.460233e-07
8.5544254e-07
8.8206061e-07
9.1898855e-07
9.5785058e-07
9.740572e-07
1.0093155e-06
1.0719465e-06
8.853359e-07
8.9603704e-07
9.0043498e-07
8.8952348e-07
8.6941066e-07
8.4382607e-07
8.2801406e-07
8.1812119e-07
8.0926713e-07
8.0173706e-07
7.9727177e-07
7.9600303e-07
7.922765e-07
7.951896e-07
7.9307839e-07
7.926963e-07
7.9509253e-07
7.9436736e-07
8.0694966e-07
8.10753e-07
8.18297e-07
8.3218943e-07
8.3156891e-07
8.4495105e-07
8.5677697e-07
8.7818829e-07
9.1387801e-07
9.4805259e-07
9.8437282e-07
1.0163827e-06
1.0805817e-06
8.8516059e-07
8.9809144e-07
9.0318684e-07
8.9198678e-07
8.7770019e-07
8.6869629e-07
8.547074e-07
8.3702525e-07
8.2361848e-07
8.1152376e-07
8.0416454e-07
7.9985018e-07
7.9441106e-07
7.9464814e-07
7.930988e-07
7.9050278e-07
7.9167759e-07
7.9151843e-07
7.9904843e-07
8.0519845e-07
8.1101815e-07
8.2796061e-07
8.308601e-07
8.4436047e-07
8.5957764e-07
8.7768122e-07
9.1205336e-07
9.4242745e-07
9.7606643e-07
1.0021942e-06
1.0684489e-06
8.845897e-07
9.024412e-07
9.0657916e-07
8.9664099e-07
8.8664299e-07
8.8635685e-07
8.8924316e-07
8.8680372e-07
8.7081073e-07
8.4820768e-07
8.2848465e-07
8.1607799e-07
8.0720619e-07
8.0102207e-07
7.9862213e-07
7.9335739e-07
7.911118e-07
7.9258151e-07
7.9465452e-07
8.0263758e-07
8.0518504e-07
8.2216651e-07
8.2865056e-07
8.4334343e-07
8.5897372e-07
8.7834613e-07
9.2287354e-07
9.4912571e-07
9.8971586e-07
1.0133495e-06
1.0641869e-06
8.8470792e-07
9.1039046e-07
9.1267477e-07
9.0196454e-07
8.9372876e-07
8.9697522e-07
9.0635612e-07
9.158754e-07
9.187159e-07
9.0757248e-07
8.95567e-07
8.7110762e-07
8.5416986e-07
8.3180861e-07
8.222255e-07
8.1053286e-07
7.9988844e-07
7.9955732e-07
7.9560175e-07
8.0245201e-07
8.0441844e-07
8.188803e-07
8.2543571e-07
8.3990859e-07
8.5580375e-07
8.7383367e-07
9.0866137e-07
9.669781e-07
1.0025405e-06
1.0722781e-06
1.0911425e-06
8.8739175e-07
9.1031831e-07
9.1151107e-07
9.0297194e-07
8.9757202e-07
9.0193845e-07
9.1301418e-07
9.2197092e-07
9.3320933e-07
9.345614e-07
9.4187861e-07
9.3577418e-07
9.2982432e-07
9.1283322e-07
8.9386717e-07
8.7301581e-07
8.4426903e-07
8.2989242e-07
8.1256332e-07
8.1139979e-07
8.088631e-07
8.1911389e-07
8.21632e-07
8.3151808e-07
8.4856629e-07
8.6172077e-07
8.8334061e-07
9.4663353e-07
9.9396916e-07
1.070357e-06
1.1174331e-06
8.9757601e-07
9.392579e-07
9.2140482e-07
9.0496952e-07
8.9666007e-07
9.021535e-07
9.1676044e-07
9.2617803e-07
9.3659747e-07
9.3942784e-07
9.4939339e-07
9.55548e-07
9.6014645e-07
9.6217265e-07
9.4804675e-07
9.4018109e-07
9.1308125e-07
9.0158311e-07
8.696241e-07
8.54972e-07
8.3391651e-07
8.3059432e-07
8.2771773e-07
8.3211901e-07
8.4652596e-07
8.5776649e-07
8.6530829e-07
8.9061923e-07
9.4688814e-07
1.0118874e-06
1.1038656e-06
9.5373664e-07
1.0280721e-06
9.6615674e-07
9.2330172e-07
9.0197702e-07
8.9890263e-07
9.0143704e-07
9.0079266e-07
9.1302193e-07
9.2305764e-07
9.4217873e-07
9.5496097e-07
9.6123321e-07
9.6743364e-07
9.5701562e-07
9.5303557e-07
9.3935909e-07
9.3060922e-07
9.1547027e-07
9.0342181e-07
8.953513e-07
8.7748372e-07
8.6581509e-07
8.5427811e-07
8.5772247e-07
8.6838049e-07
8.7325775e-07
8.8939009e-07
9.350314e-07
9.7787754e-07
1.0437681e-06
9.1957142e-07
1.0474266e-06
1.0852977e-06
1.0047376e-06
9.5258999e-07
9.2594348e-07
9.1354845e-07
9.0443111e-07
9.023928e-07
9.0518921e-07
9.1090348e-07
9.2145806e-07
9.2844908e-07
9.3904239e-07
9.3706971e-07
9.3824867e-07
9.3276873e-07
9.2814798e-07
9.1976405e-07
9.1359224e-07
9.1561368e-07
9.0813011e-07
9.0910556e-07
9.1308665e-07
9.1058732e-07
9.1513376e-07
9.1780611e-07
9.2563004e-07
9.5611198e-07
9.9311087e-07
1.0512394e-06
8.3256728e-07
9.5265674e-07
1.0768421e-06
1.131708e-06
1.1371361e-06
1.0951563e-06
1.0317065e-06
9.8725069e-07
9.5733334e-07
9.4232209e-07
9.3388978e-07
9.3204698e-07
9.3203051e-07
9.3187398e-07
9.2694148e-07
9.2152446e-07
9.1524785e-07
9.112258e-07
9.0922068e-07
9.1013653e-07
9.1289361e-07
9.1106933e-07
9.200515e-07
9.3185332e-07
9.4058707e-07
9.5317406e-07
9.7060504e-07
1.0035715e-06
1.0299378e-06
1.0809157e-06
1.0962125e-06
8.7929115e-07
8.849775e-07
9.7768526e-07
1.084757e-06
1.1514683e-06
1.2313616e-06
1.2787956e-06
1.2919355e-06
1.2601144e-06
1.217774e-06
1.1511502e-06
1.1083665e-06
1.0744819e-06
1.0476592e-06
1.0204482e-06
9.9254943e-07
9.6659179e-07
9.4599076e-07
9.2705333e-07
9.2324092e-07
9.2020806e-07
9.1736555e-07
9.2758404e-07
9.3952376e-07
9.4661386e-07
9.5465591e-07
9.7104657e-07
1.001633e-06
1.0336274e-06
1.0801446e-06
1.1365928e-06
9.5616452e-07
1.0187636e-06
1.0009181e-06
9.9972435e-07
1.0440715e-06
1.1304701e-06
1.2272493e-06
1.2921689e-06
1.3631634e-06
1.422322e-06
1.4870984e-06
1.5345838e-06
1.5592571e-06
1.5520125e-06
1.5125268e-06
1.4467626e-06
1.366756e-06
1.2750159e-06
1.1774392e-06
1.0934527e-06
1.0301486e-06
9.8489379e-07
9.6410563e-07
9.6430114e-07
9.6466925e-07
9.6767806e-07
9.7780723e-07
9.9593113e-07
1.0209849e-06
1.0516677e-06
1.0998704e-06
8.8682883e-07
1.0040506e-06
1.028965e-06
1.017997e-06
1.0076156e-06
1.022162e-06
1.0435644e-06
1.1200187e-06
1.1972333e-06
1.2811652e-06
1.3859218e-06
1.4851664e-06
1.5471957e-06
1.6010212e-06
1.6357301e-06
1.6292109e-06
1.5925033e-06
1.549976e-06
1.4929241e-06
1.4453507e-06
1.3784992e-06
1.3140332e-06
1.2386318e-06
1.1944246e-06
1.1245258e-06
1.0748946e-06
1.0461874e-06
1.0485984e-06
1.0609783e-06
1.0791791e-06
1.1071151e-06
8.7557545e-07
9.860023e-07
1.0148636e-06
1.0135509e-06
9.9700586e-07
9.9885875e-07
1.0001862e-06
1.0156779e-06
1.0405787e-06
1.0809888e-06
1.1345804e-06
1.2030828e-06
1.2791825e-06
1.3463951e-06
1.3926385e-06
1.4336489e-06
1.4414324e-06
1.4357488e-06
1.4207645e-06
1.4110217e-06
1.3930777e-06
1.3770228e-06
1.3638566e-06
1.3624157e-06
1.3707675e-06
1.3589501e-06
1.3449399e-06
1.3306937e-06
1.3149749e-06
1.3083929e-06
1.2693424e-06
8.6118103e-07
9.1676891e-07
9.5312266e-07
9.6901944e-07
9.689034e-07
9.7822372e-07
9.8288374e-07
9.8597903e-07
9.9219163e-07
1.0082579e-06
1.0379875e-06
1.0766798e-06
1.1138485e-06
1.1478622e-06
1.1785984e-06
1.1989724e-06
1.2069636e-06
1.2090789e-06
1.2139958e-06
1.2198682e-06
1.2390686e-06
1.2628114e-06
1.2852844e-06
1.3084213e-06
1.3378304e-06
1.3751125e-06
1.3997539e-06
1.4415849e-06
1.4714002e-06
1.5265721e-06
1.5568157e-06
8.6694363e-07
9.14188e-07
9.2996756e-07
9.3393613e-07
9.3801154e-07
9.5924331e-07
9.7269784e-07
9.7865991e-07
9.8258163e-07
9.9779634e-07
1.0194789e-06
1.0489867e-06
1.0751764e-06
1.0993766e-06
1.108868e-06
1.1077912e-06
1.1086654e-06
1.1013472e-06
1.0975657e-06
1.0955826e-06
1.0931461e-06
1.1101188e-06
1.1274525e-06
1.1444225e-06
1.1767795e-06
1.2380053e-06
1.2912523e-06
1.3444859e-06
1.3980899e-06
1.450172e-06
1.532352e-06
8.7349922e-07
9.1689374e-07
9.3615355e-07
9.40946e-07
9.386272e-07
9.4706461e-07
9.5541044e-07
9.584599e-07
9.6184277e-07
9.7408155e-07
9.9615648e-07
1.0285729e-06
1.0633027e-06
1.093328e-06
1.1097339e-06
1.1108951e-06
1.1072097e-06
1.1022423e-06
1.0915766e-06
1.0730962e-06
1.0615296e-06
1.0607467e-06
1.0577821e-06
1.0617536e-06
1.0729523e-06
1.0945544e-06
1.1245022e-06
1.1436499e-06
1.1856505e-06
1.2158276e-06
1.3076244e-06
8.7439488e-07
8.9221169e-07
9.0983876e-07
9.2084452e-07
9.2636795e-07
9.2731109e-07
9.2637902e-07
9.1846909e-07
9.1420984e-07
9.1788858e-07
9.3505436e-07
9.652982e-07
9.9971938e-07
1.0295521e-06
1.0490233e-06
1.0619867e-06
1.0691128e-06
1.0698663e-06
1.0659171e-06
1.0586881e-06
1.0510314e-06
1.0557751e-06
1.0568148e-06
1.0559904e-06
1.0653079e-06
1.0826014e-06
1.1035797e-06
1.1218683e-06
1.1469814e-06
1.1722083e-06
1.2120657e-06
8.6533723e-07
9.0668832e-07
9.2164562e-07
9.3506642e-07
9.3949244e-07
9.4562122e-07
9.4363965e-07
9.3626223e-07
9.3065096e-07
9.337976e-07
9.4678233e-07
9.6652558e-07
9.8482533e-07
1.0012562e-06
1.0127481e-06
1.0241932e-06
1.0280231e-06
1.0315137e-06
1.0363128e-06
1.0426109e-06
1.0524309e-06
1.0717206e-06
1.049405e-06
1.1053279e-06
1.1181587e-06
1.1378794e-06
7.8735994e-07
8.398419e-07
1.1924252e-06
1.0343466e-06
1.2283839e-06
8.5746941e-07
9.429721e-07
1.0074671e-06
1.0736292e-06
1.1232067e-06
1.1593726e-06
1.1838551e-06
1.2057988e-06
1.2301599e-06
1.263537e-06
1.2914318e-06
1.3242711e-06
1.3482275e-06
1.3754688e-06
1.3963419e-06
1.4133855e-06
1.4277136e-06
1.4466481e-06
1.4742949e-06
1.5023365e-06
1.5272239e-06
1.5765143e-06
1.0270588e-06
1.6572364e-06
1.6749239e-06
1.7091403e-06
9.4343204e-07
7.9523354e-07
1.7612437e-06
1.4041046e-06
1.7062769e-06
1.0300128e-06
1.7494502e-06
2.0050087e-06
2.1904676e-06
2.1760313e-06
2.2890971e-06
2.2588364e-06
2.2993664e-06
2.2659501e-06
2.4440483e-06
2.4137467e-06
2.5888393e-06
2.5897232e-06
2.7091236e-06
2.7624901e-06
2.8257201e-06
2.8864453e-06
2.9312555e-06
2.7816463e-06
3.042427e-06
3.0908723e-06
3.1317897e-06
2.5033594e-06
3.0364136e-06
3.1862935e-06
3.1861511e-06
2.3935783e-06
2.1201998e-06
2.6463413e-06
3.1107241e-06
3.0788542e-06
1.0548435e-06
2.1661224e-06
2.756034e-06
2.1478067e-06
2.4641622e-06
2.1514657e-06
1.9853557e-06
2.1354071e-06
1.9186763e-06
2.1173136e-06
1.9312835e-06
2.1932128e-06
1.9227712e-06
2.2553078e-06
2.1577328e-06
2.2863176e-06
2.2112426e-06
2.2613014e-06
2.5215804e-06
2.3282316e-06
2.1762763e-06
2.4806523e-06
3.0580827e-06
2.7739579e-06
2.2654906e-06
2.2907952e-06
3.2305173e-06
3.1339418e-06
3.0390867e-06
2.4821917e-06
2.5922759e-06
2.5928591e-06
2.631424e-06
1.3801186e-06
1.0216008e-06
1.2681604e-06
1.3405125e-06
1.580818e-06
1.6387587e-06
1.3871338e-06
1.211009e-06
1.1750012e-06
1.2162912e-06
1.1840446e-06
1.1255385e-06
1.1052123e-06
1.1584397e-06
1.1895836e-06
1.1813867e-06
1.1342065e-06
1.1302252e-06
1.1332673e-06
1.1339865e-06
1.1360516e-06
2.1381985e-06
2.0314609e-06
1.1168205e-06
1.304238e-06
1.3194385e-06
1.3563398e-06
1.6045867e-06
1.7511908e-06
1.5425025e-06
1.3143453e-06
1.2518907e-06
1.3087401e-06
1.2916878e-06
1.2159021e-06
1.1739918e-06
1.202766e-06
1.2856921e-06
1.3000137e-06
1.2764151e-06
1.2243538e-06
1.2263487e-06
1.2228949e-06
1.2190252e-06
1.8302595e-06
2.9944662e-06
1.7004231e-06
1.0419575e-06
1.4130597e-06
1.4073699e-06
1.6288442e-06
1.876886e-06
1.7807934e-06
1.4730862e-06
1.3337971e-06
1.3946956e-06
1.3786911e-06
1.3302563e-06
1.2601885e-06
1.2774834e-06
1.3622109e-06
1.3690583e-06
1.3514213e-06
1.298685e-06
1.3045347e-06
1.3160313e-06
1.3282396e-06
1.5587971e-06
2.7719099e-06
1.6009943e-06
1.1360052e-06
1.1043943e-06
1.3207484e-06
1.7159098e-06
2.0630016e-06
2.0332203e-06
1.7904593e-06
1.4803775e-06
1.501692e-06
1.5345655e-06
1.517764e-06
1.4462021e-06
1.4031732e-06
1.4666397e-06
1.5077286e-06
1.481291e-06
1.4021617e-06
1.3743096e-06
1.386436e-06
1.3900533e-06
1.1973735e-06
1.5452024e-06
1.233508e-06
1.1327296e-06
1.2161908e-06
1.6496237e-06
1.8548121e-06
2.3074114e-06
2.2791202e-06
2.0728314e-06
1.7093517e-06
1.6478851e-06
1.7191767e-06
1.7187265e-06
1.6871876e-06
1.6135243e-06
1.6118991e-06
1.6629597e-06
1.6572847e-06
1.6199366e-06
1.5206377e-06
1.5176865e-06
1.4969698e-06
6.5061296e-07
1.3887091e-06
8.3314917e-07
1.1426756e-06
1.784486e-06
1.8120102e-06
2.0167849e-06
2.4924622e-06
2.4810494e-06
2.3099798e-06
1.9391442e-06
1.8083141e-06
1.8916966e-06
1.8912064e-06
1.8046478e-06
1.7620052e-06
1.7328558e-06
1.8277843e-06
1.8537578e-06
1.8705561e-06
1.8105122e-06
1.7378252e-06
1.7085918e-06
1.1203466e-06
1.336825e-06
2.054377e-06
2.0771752e-06
1.9579828e-06
1.549188e-06
2.0240773e-06
2.6857427e-06
2.695191e-06
2.582151e-06
2.2200076e-06
2.0287224e-06
2.0663898e-06
2.0487186e-06
1.9423649e-06
1.8800451e-06
1.8606936e-06
1.910938e-06
2.0228788e-06
2.0345504e-06
2.0389539e-06
1.9613097e-06
1.918667e-06
1.1305408e-06
1.9272093e-06
1.3273464e-06
1.1958912e-06
1.6117849e-06
2.2245658e-06
2.3233416e-06
3.0256194e-06
3.2371947e-06
3.1519545e-06
2.7328766e-06
2.3386133e-06
2.2956551e-06
2.3001692e-06
2.2021227e-06
2.0709413e-06
2.0359497e-06
2.06846e-06
2.1705138e-06
2.1785845e-06
2.1484674e-06
2.0794441e-06
2.0276136e-06
8.2033623e-07
1.0681506e-06
2.0728238e-06
2.5106535e-06
2.0849992e-06
1.3125942e-06
1.2714335e-06
2.2546201e-06
4.0404213e-06
3.9255871e-06
3.6125549e-06
2.9339608e-06
2.6955971e-06
2.7804411e-06
2.7487438e-06
2.5568373e-06
2.3626672e-06
2.3298558e-06
2.4114092e-06
2.421176e-06
2.3329233e-06
2.220922e-06
2.1414494e-06
4.3072396e-07
1.1008177e-06
1.3161551e-06
2.0578692e-06
2.1113844e-06
2.2045984e-06
2.8637735e-06
3.9085934e-06
3.8578923e-06
3.5527869e-06
4.196872e-06
3.5936626e-06
3.1646597e-06
3.2657572e-06
3.295272e-06
3.1765034e-06
3.0198922e-06
2.8515313e-06
2.8819518e-06
2.913719e-06
2.789024e-06
2.5283219e-06
2.3652955e-06
4.2342513e-07
1.1418947e-06
1.3315402e-06
1.9962889e-06
2.4199132e-06
2.079203e-06
1.9812689e-06
2.7994975e-06
4.0461724e-06
4.8194064e-06
4.7479664e-06
4.115142e-06
3.6361889e-06
3.6969978e-06
3.7344423e-06
3.6398248e-06
3.4427061e-06
3.358835e-06
3.3641586e-06
3.5437718e-06
3.5277192e-06
3.3084669e-06
2.8808255e-06
6.8547242e-07
8.1243119e-07
2.3702858e-06
3.6244322e-06
4.2411246e-06
2.6010372e-06
2.2036078e-06
2.7873204e-06
3.8836634e-06
5.9619743e-06
5.7127828e-06
4.9412657e-06
3.3166671e-06
3.7351973e-06
4.2448403e-06
4.0858409e-06
3.7631933e-06
3.6781897e-06
3.6489157e-06
3.8466586e-06
4.0271959e-06
4.0368069e-06
3.8499361e-06
1.298622e-06
1.3001411e-06
3.0247577e-06
4.0189872e-06
4.1253563e-06
4.7083032e-06
4.2873443e-06
5.4495207e-06
6.8117785e-06
7.3612757e-06
7.4147017e-06
6.2833305e-06
5.3385845e-06
5.0562582e-06
5.075777e-06
4.8612359e-06
4.3250458e-06
4.0717e-06
3.9675993e-06
4.0898732e-06
4.3899715e-06
4.4430079e-06
4.3006849e-06
1.8211431e-06
2.0462442e-06
3.7171955e-06
3.7976205e-06
5.9939741e-06
6.0542336e-06
5.66729e-06
6.7135356e-06
8.8025468e-06
9.6410862e-06
1.0195159e-05
8.6544384e-06
7.113676e-06
6.5485826e-06
6.703348e-06
6.3756726e-06
5.4964876e-06
4.8115039e-06
4.5492076e-06
4.5415552e-06
4.8293358e-06
4.8991366e-06
4.8054009e-06
1.219789e-06
1.84929e-06
4.1118604e-06
5.5471311e-06
5.7065933e-06
7.5127311e-06
7.764877e-06
9.4069439e-06
1.194249e-05
1.3705941e-05
1.3021163e-05
1.1779178e-05
8.7852211e-06
7.755394e-06
9.7131342e-06
9.5396909e-06
8.4392881e-06
6.3960896e-06
5.5348585e-06
5.2847383e-06
5.5660275e-06
5.6346174e-06
5.5653556e-06
9.7405058e-07
1.6389373e-06
3.9999855e-06
6.0959635e-06
7.835098e-06
7.8619092e-06
1.0420693e-05
1.3081584e-05
1.560485e-05
1.7396431e-05
1.6206251e-05
1.6240332e-05
1.1715912e-05
9.8526594e-06
1.0601584e-05
1.1667563e-05
1.0942508e-05
8.5388119e-06
7.2551447e-06
6.8098766e-06
7.2289577e-06
7.2441773e-06
6.942494e-06
9.8605107e-07
2.0758346e-06
3.6172614e-06
6.4290503e-06
8.6933525e-06
9.8246113e-06
1.3664603e-05
1.8502943e-05
2.2942656e-05
2.5120688e-05
2.0983873e-05
1.8504363e-05
1.6582583e-05
1.5018488e-05
1.4906455e-05
1.4954037e-05
1.3686319e-05
1.1814407e-05
1.1173335e-05
1.0802116e-05
1.1576975e-05
1.1167861e-05
9.7148612e-06
1.2438487e-06
2.8249756e-06
3.9304993e-06
7.0690925e-06
9.7357533e-06
1.3366954e-05
1.918963e-05
2.6681719e-05
3.4563914e-05
3.2542173e-05
2.4505731e-05
2.2605097e-05
2.214676e-05
2.1578948e-05
2.1727906e-05
2.1189207e-05
1.7262783e-05
1.4019431e-05
1.3769375e-05
1.3711242e-05
1.5540128e-05
1.6263064e-05
1.4534339e-05
1.7635882e-06
3.3837203e-06
4.7933168e-06
7.5396242e-06
1.0735038e-05
1.760277e-05
2.5519101e-05
3.5174381e-05
4.6759178e-05
3.9872563e-05
2.9550869e-05
2.8038702e-05
3.1187867e-05
3.4416805e-05
3.5292719e-05
3.2386189e-05
2.2907031e-05
1.6961313e-05
1.6346628e-05
1.6308489e-05
1.8632609e-05
1.9016087e-05
1.6836577e-05
2.3973522e-06
3.2820189e-06
5.0802823e-06
8.5720587e-06
1.309685e-05
2.075989e-05
3.0617695e-05
4.1951451e-05
5.7029854e-05
5.1070406e-05
4.2625778e-05
4.3269362e-05
5.4828749e-05
6.8478177e-05
7.0651261e-05
5.9111398e-05
3.6033188e-05
2.3377641e-05
2.1697883e-05
2.2113978e-05
2.4477959e-05
2.295143e-05
1.7469462e-05
1.7218335e-06
2.6327143e-06
4.9436211e-06
9.5352118e-06
1.5869311e-05
2.1357145e-05
3.328022e-05
4.6312991e-05
6.4033612e-05
6.4998833e-05
5.9670843e-05
6.7076882e-05
9.0235484e-05
0.00010973617
0.00010821555
8.5970018e-05
5.2837062e-05
3.490689e-05
3.2552609e-05
3.3667224e-05
3.5185057e-05
2.8776205e-05
1.949593e-05
1.2003591e-06
2.2833473e-06
5.7969446e-06
1.1048864e-05
2.0162279e-05
2.2847539e-05
3.7831529e-05
5.2027386e-05
7.0145275e-05
7.9815464e-05
7.5504844e-05
8.8985977e-05
0.00011837863
0.00014641384
0.00014134628
0.00010633249
6.656943e-05
5.0425092e-05
5.2062485e-05
5.8692721e-05
5.9151811e-05
4.3228107e-05
2.5443076e-05
1.3565759e-06
2.5487428e-06
7.8500447e-06
1.2951247e-05
1.83297e-05
2.9276533e-05
5.0849865e-05
6.5051003e-05
7.7143159e-05
0.00010357282
0.00010577471
0.00011146352
0.0001201614
0.00014023318
0.00016964395
0.00012928523
9.9967611e-05
9.9030152e-05
0.00012011687
0.00013086342
0.0001062546
5.937341e-05
3.7338204e-05
2.9755895e-06
6.3018303e-06
9.5461089e-06
1.5079526e-05
2.5710661e-05
4.9100647e-05
8.4921956e-05
0.00010224905
0.00010798584
0.00012772951
0.00014191335
0.00012713544
0.000149305
0.00019194293
0.00021173316
0.00015622078
0.00013596795
0.00013586544
0.00014928253
0.00015322138
0.00012065837
7.3437019e-05
5.3885709e-05
3.5901671e-06
9.7392838e-06
1.1614314e-05
1.6545231e-05
2.7116169e-05
5.0811457e-05
8.9841623e-05
0.00011951474
0.00014127595
0.00013727559
0.00016656841
0.00023246088
0.00026692574
0.0002712322
0.00023774956
0.0001810079
0.00016420027
0.00016478213
0.00017635568
0.00016214406
0.00012097303
8.9722657e-05
7.6020622e-05
3.3210168e-06
9.6067287e-06
1.6337313e-05
2.0674232e-05
2.8649904e-05
4.5948256e-05
8.1751258e-05
0.00011119101
0.00016217288
0.00020425076
0.00025048248
0.0002261046
0.00030675866
0.00030882843
0.00027482086
0.00025477226
0.00024920048
0.00024606358
0.00021603032
0.00016884513
0.00013393736
0.00012496174
0.00013686058
2.8609941e-06
1.2824823e-05
1.319491e-05
2.1213945e-05
3.4888244e-05
4.6934707e-05
7.7056883e-05
0.00014225702
0.00021986752
0.00026137497
0.00018928174
0.00017950344
0.00023776235
0.00036933576
0.00036794371
0.0003638251
0.00034332051
0.00030393731
0.00024007546
0.0001929607
0.00018010091
0.00018024934
0.00016029125
2.9478152e-06
1.3783133e-05
1.4767949e-05
2.2866782e-05
4.9462221e-05
8.8849847e-05
0.00015589386
0.00015702074
0.000170314
0.00024734667
0.00033059165
0.00036074766
0.00037948798
0.00044113505
0.00045550939
0.0004326551
0.00040164769
0.00034795737
0.00028192195
0.00023883285
0.00020796365
0.0001854417
0.00015353698
3.8123904e-06
1.8586459e-05
3.0424016e-05
4.4253129e-05
5.153227e-05
7.3232823e-05
0.00014643615
0.00025873453
0.00030915231
0.00031978038
0.00035834699
0.00041761087
0.00046486621
0.0004951172
0.00050755569
0.00048730902
0.00044448738
0.00038521074
0.00031679286
0.00025657463
0.00021140941
0.00018032422
0.00014523148
5.3060592e-06
2.8774797e-05
3.9524802e-05
5.9584818e-05
9.5016868e-05
0.00015207137
0.00022552023
0.00029489845
0.00035298505
0.00030004382
0.00028885053
0.00041824802
0.00052257679
0.0005376297
0.00046343905
0.00044066983
0.0004690852
0.00041231904
0.00033967286
0.00026903294
0.00021485214
0.00017429663
0.00012777638
4.4755998e-06
3.2101688e-05
5.2569976e-05
8.371516e-05
0.00012607386
0.0001883932
0.00026283581
0.00033062994
0.00036108519
0.0004451644
0.0004937653
0.00054102075
0.00050527866
0.00055893177
0.0005329814
0.00050871361
0.00048568125
0.00044203945
0.00036489095
0.00027730276
0.00021162843
0.00016163848
0.00011541568
3.7561834e-06
2.6773014e-05
3.4900593e-05
7.4155757e-05
0.00015223385
0.000210629
0.00030211704
0.00037025468
0.0004259611
0.00036399987
0.00047606361
0.0005769548
0.00059032324
0.00058092804
0.00055354693
0.00052776474
0.00050395677
0.00045602881
0.00037233772
0.00027901042
0.00020551925
0.0001441157
0.00011829706
4.4956787e-06
3.4918249e-05
5.2784129e-05
9.0976061e-05
0.00017980716
0.0002518567
0.00033093881
0.00040060537
0.0004546871
0.00050160548
0.00055407571
0.00056485123
0.00062321714
0.00061227079
0.00058252414
0.00055281818
0.00050961703
0.00043368886
0.00034053633
0.00025745659
0.00019129513
0.00014283974
0.00012920775
5.369911e-06
3.7668386e-05
6.9801633e-05
0.00013068615
0.00019386671
0.00026751757
0.00034764691
0.00042137588
0.00048491071
0.00053825359
0.00058728996
0.00062362985
0.00059801432
0.00063901363
0.00061561324
0.00058037436
0.0005186633
0.00042572406
0.00032953532
0.00025340924
0.00019036943
0.00015205559
0.00014206231
5.5108248e-06
4.5190097e-05
8.0627082e-05
0.00014796256
0.00021638073
0.00029337898
0.0003755286
0.00045270356
0.00052061246
0.00057694856
0.00062269538
0.00064602902
0.00064825076
0.0006395185
0.00062029362
0.00057607495
0.00049177585
0.00038321056
0.00028518109
0.00021398062
0.00016545838
0.000149962
0.00014522006
5.5797235e-06
5.0789639e-05
6.8482595e-05
0.00015027608
0.00021946775
0.00029519076
0.00037209255
0.00044361332
0.00051157158
0.00057386714
0.00062339258
0.00065230677
0.00065964417
0.00065128636
0.00063552384
0.00060628378
0.00054607818
0.00044814614
0.00033960166
0.00024974609
0.00018498817
0.00015545583
0.00014756173
6.090948e-06
7.1389876e-05
0.00011114404
0.0001533212
0.00021859658
0.00028947353
0.00036365844
0.00043194772
0.0004950403
0.00055430382
0.00060794284
0.0006473651
0.00066610992
0.00066646533
0.00065303706
0.00062925048
0.00058644217
0.00050830341
0.00041070982
0.00031186705
0.00022819206
0.00017651416
0.00015507314
6.4793897e-06
8.1327293e-05
0.00012993957
0.0001712043
0.00022086663
0.00028278492
0.00035191427
0.00041918501
0.00048127032
0.00053809386
0.00058892471
0.00063104466
0.00065941639
0.00067073239
0.00066523465
0.00064510353
0.00061166547
0.00055026227
0.00046600514
0.00037243819
0.0002808598
0.00020914192
0.00016994172
5.9821506e-06
8.3241592e-05
0.00014384681
0.00018671323
0.00022864858
0.00027986809
0.00034009039
0.00040344907
0.00046497644
0.00052221741
0.00057228777
0.00061275702
0.00064225743
0.00066022607
0.00066496952
0.00065368677
0.00062935863
0.00058653436
0.00051360423
0.00042787404
0.00033623443
0.00025233156
0.00019297808
5.6022815e-06
7.8366677e-05
0.00014329838
0.00019914814
0.00023901383
0.00028232762
0.00033262996
0.00038716176
0.00044359451
0.00049965359
0.00055093112
0.00059341249
0.00062486502
0.00064552497
0.00065564687
0.00065333826
0.00063833546
0.00061126032
0.00055829851
0.00048299724
0.00039585546
0.00030648326
0.00022698794
5.6256804e-06
6.7470211e-05
0.00014003059
0.00020152962
0.00024666343
0.00028756042
0.00033075705
0.00037642562
0.00042481866
0.00047519526
0.00052490829
0.0005696199
0.00060557665
0.00063128684
0.00064624931
0.00064959661
0.00064038849
0.00062224758
0.00058930994
0.00052863709
0.00045268729
0.00036763407
0.00027392568
5.7205815e-06
5.3440946e-05
0.00011302357
0.00018402306
0.0002403974
0.00028612012
0.00032915583
0.0003705695
0.00041333274
0.00045770548
0.00050226559
0.00054448882
0.00058157148
0.00061130671
0.00063194183
0.00064196432
0.00064005274
0.00062684046
0.00060490367
0.00056489593
0.00050219678
0.00042853792
0.00033114101
5.8303347e-06
4.2941473e-05
8.6316778e-05
0.00015471577
0.00021904292
0.00027333301
0.0003201415
0.00036333182
0.00040400408
0.00044469502
0.00048499199
0.00052336287
0.00055818028
0.00058804714
0.00061155383
0.00062708586
0.00063295777
0.00062793022
0.00061380268
0.00058977417
0.00054348922
0.00048435028
0.00039369463
5.9495507e-06
3.8424774e-05
6.9679205e-05
0.00012497404
0.0001879408
0.00024781564
0.00030069724
0.00034755946
0.00039037594
0.00042993729
0.00046809363
0.00050446749
0.00053807772
0.00056786991
0.00059266623
0.0006111496
0.00062192478
0.00062368602
0.00061574439
0.00060062813
0.00057447557
0.00052819916
0.00045161365
6.0566194e-06
3.6469909e-05
6.3321085e-05
0.00010731833
0.00016053213
0.00021729417
0.00027255438
0.00032307054
0.00036942749
0.00041162484
0.00044993684
0.00048566725
0.00051865187
0.00054831004
0.00057385932
0.00059423716
0.00060823912
0.00061472215
0.00061287537
0.00060262445
0.0005863996
0.00055993335
0.00050198869
6.1623613e-06
2.583197e-05
5.5891404e-05
9.5624788e-05
0.00013965628
0.00018873963
0.00024061839
0.00029182359
0.0003401475
0.00038582631
0.00042707376
0.0004640387
0.00049734929
0.00052697389
0.0005527231
0.0005741286
0.0005904627
0.00060088242
0.00060457
0.00060098449
0.00059015705
0.00057576128
0.00054091941
6.0985183e-06
2.0511844e-05
5.277149e-05
8.9761551e-05
0.00012644253
0.0001672601
0.00021244919
0.00025978655
0.00030692597
0.00035264296
0.00039607555
0.0004350519
0.00047014977
0.00050132731
0.00052862735
0.00055185836
0.00057061661
0.0005842882
0.00059219979
0.00059378717
0.0005887721
0.00057910505
0.00055998138
6.004762e-06
2.0448976e-05
5.6079404e-05
9.0697345e-05
0.00012125843
0.00015443378
0.00019181632
0.00023277488
0.00027541554
0.00031846848
0.0003610102
0.00040076256
0.00043731896
0.00047043317
0.0004999011
0.00052549736
0.00054688497
0.0005636248
0.00057521799
0.00058119048
0.00058121274
0.00057667265
0.00056560191
5.8005619e-06
2.2784779e-05
6.1947719e-05
9.5868472e-05
0.00012246766
0.00014974288
0.0001802912
0.00021428458
0.0002508471
0.00028902054
0.00032778717
0.00036574597
0.00040195981
0.0004357566
0.00046661692
0.00049420561
0.00051818772
0.00053824599
0.00055400634
0.00056502953
0.00057093275
0.00057238415
0.00056668013
5.5438723e-06
2.5219708e-05
6.7543602e-05
0.0001014469
0.00012657016
0.0001501664
0.00017570853
0.00020391658
0.00023447199
0.00026686824
0.00030046058
0.00033439138
0.00036791615
0.00040035503
0.00043112251
0.00045978037
0.00048593956
0.00050924723
0.00052935334
0.00054585351
0.00055837656
0.00056719093
0.00056961614
5.3411552e-06
2.7026373e-05
7.1566376e-05
0.00010575922
0.00012950007
0.00015105069
0.0001731466
0.00019691815
0.00022253446
0.0002497711
0.0002782279
0.0003074341
0.0003369456
0.00036630888
0.0003950986
0.00042297026
0.00044958468
0.00047461244
0.00049773432
0.00051862393
0.00053702789
0.00055323322
0.00056737516
5.1784253e-06
2.7748377e-05
7.2947126e-05
0.00010700383
0.00012904126
0.00014885874
0.00016834038
0.00018885689
0.00021066953
0.00023376208
0.00025798204
0.00028296767
0.00030838696
0.00033401502
0.00035961117
0.00038500859
0.00041003682
0.00043449936
0.00045819214
0.00048093992
0.00050265578
0.00052377838
0.00054783034
5.0648457e-06
2.7114504e-05
7.1384177e-05
0.00010545374
0.00012684798
0.00014559372
0.00016399663
0.0001829282
0.00020262938
0.00022315666
0.000244498
0.00026648685
0.00028889416
0.00031149275
0.0003341522
0.00035676726
0.00037931192
0.00040173103
0.00042399287
0.00044608516
0.00046804571
0.00049031619
0.00051905382
4.9648754e-06
2.6629997e-05
7.0197714e-05
0.00010486334
0.00012728771
0.0001468342
0.00016616523
0.00018550218
0.00020497597
0.00022467518
0.00024469885
0.00026495531
0.00028525169
0.00030538372
0.00032519321
0.00034456999
0.00036352024
0.00038205687
0.00040031405
0.00041849265
0.00043683632
0.00045575358
0.0004796595
4.8574969e-06
2.6704849e-05
7.0457929e-05
0.00010652735
0.00013086333
0.0001522347
0.0001729174
0.00019343769
0.00021387915
0.00023381759
0.00025290564
0.00027110926
0.0002879788
0.00030333164
0.00031712819
0.00032940291
0.00034030224
0.00034998449
0.00034997353
0.00035276622
0.00036428253
0.00038408969
0.00038559932
4.7442359e-06
2.7172802e-05
7.1601959e-05
0.00010949258
0.00013581454
0.00015942763
0.0001823944
0.0002050139
0.00022641736
0.00024565022
0.0002619749
0.00027479934
0.00028388888
0.0002892451
0.00029105407
0.00028961774
0.00028541613
0.00027855557
0.00026948307
0.00025855524
0.00024599596
0.00023097333
0.00024518958
4.6308069e-06
2.8123898e-05
7.4058655e-05
0.00011498545
0.00014590895
0.00017491691
0.00020138439
0.00022446619
0.00024328191
0.00025725342
0.00026579282
0.00026900009
0.00026601183
0.0002568675
0.00024203041
0.00022217524
0.00019787926
0.00016958466
0.00013754402
0.00010448636
7.7869865e-05
5.6251078e-05
6.1081286e-05
4.5117175e-06
3.0915457e-05
8.1153066e-05
0.00012850224
0.00016573802
0.00019647839
0.00022139918
0.00024083489
0.00025384119
0.00026001879
0.0002596565
0.00025064995
0.00023326525
0.00020803084
0.0001758281
0.00013755174
9.4707162e-05
5.6395611e-05
3.4106436e-05
2.5356041e-05
2.4317346e-05
2.5663443e-05
3.3759822e-05
4.3890103e-06
3.9240583e-05
9.6602171e-05
0.00014793713
0.00018627137
0.00021553194
0.0002371327
0.00025081072
0.0002565883
0.00025476939
0.00024273385
0.00022058087
0.00018875362
0.00014855126
0.00010149885
5.4002637e-05
2.7429465e-05
1.9292376e-05
1.7602057e-05
1.8720594e-05
2.1309199e-05
2.2634311e-05
2.5541138e-05
4.2700293e-06
5.1371261e-05
0.00011418911
0.00016682537
0.00020443212
0.00023078932
0.00024726416
0.0002544018
0.00025284697
0.00024041141
0.00021656238
0.00018144963
0.00013672986
8.4449208e-05
3.9105047e-05
1.9688622e-05
1.5546512e-05
1.4756673e-05
1.5375133e-05
1.6585937e-05
1.739563e-05
1.7537555e-05
1.9488556e-05
4.1690646e-06
5.9080703e-05