-0.5 	1.0152739
-0.48412699 	1.0089255
-0.46825397 	1.0066312
-0.45238095 	1.0049643
-0.43650794 	1.0040272
-0.42063492 	1.0032209
-0.40476191 	1.0025557
-0.3888889 	1.0020538
-0.37301588 	1.0016171
-0.35714287 	1.0011894
-0.34126985 	1.0007836
-0.32539684 	1.0002063
-0.30952379 	0.9996528
-0.29365078 	0.99897183
-0.27777776 	0.99819331
-0.26190475 	0.9972664
-0.24603173 	0.99617691
-0.23015872 	0.99494405
-0.2142857 	0.99360256
-0.19841269 	0.99212958
-0.18253967 	0.99060876
-0.16666666 	0.98907413
-0.15079364 	0.98754324
-0.13492063 	0.98605657
-0.11904758 	0.98467094
-0.10317457 	0.98339332
-0.087301552 	0.98227165
-0.071428537 	0.9813226
-0.055555522 	0.98054048
-0.039682507 	0.97994476
-0.023809493 	0.97956006
-0.0079364777 	0.97939478
0.0079365373 	0.97942624
0.023809552 	0.9796559
0.039682567 	0.98020669
0.055555582 	0.9810229
0.071428597 	0.98199458
0.087301612 	0.983058
0.10317463 	0.98400281
0.11904764 	0.98445934
0.13492066 	0.98462773
0.15079367 	0.98492127
0.16666669 	0.98530087
0.1825397 	0.98548597
0.19841272 	0.98533204
0.21428573 	0.98477067
0.23015875 	0.98402837
0.24603176 	0.98294766
0.26190484 	0.98195585
0.27777785 	0.98156917
0.29365087 	0.98258993
0.30952388 	0.98441542
0.3253969 	0.98549136
0.34126991 	0.9854304
0.35714292 	0.9851474
0.37301594 	0.98462612
0.38888895 	0.98344815
0.40476197 	0.98143397
0.42063499 	0.97852331
0.436508 	0.97629613
0.45238101 	0.97632934
0.46825403 	0.97929373
0.48412704 	0.9836596
0.5 	0.98095609
