-0.5 	1.0152739
-0.48412699 	1.0173916
-0.46825397 	1.0152062
-0.45238095 	1.0126201
-0.43650794 	1.0102494
-0.42063492 	1.0082496
-0.40476191 	1.0064962
-0.3888889 	1.0048571
-0.37301588 	1.0034224
-0.35714287 	1.0021511
-0.34126985 	1.0008924
-0.32539684 	0.99973953
-0.30952379 	0.99874854
-0.29365078 	0.99769663
-0.27777776 	0.996875
-0.26190475 	0.99599782
-0.24603173 	0.99525962
-0.23015872 	0.99457349
-0.2142857 	0.99395502
-0.19841269 	0.99337907
-0.18253967 	0.99291078
-0.16666666 	0.9924958
-0.15079364 	0.99212922
-0.13492063 	0.99185382
-0.11904758 	0.99165725
-0.10317457 	0.99144348
-0.087301552 	0.99144767
-0.071428537 	0.99154315
-0.055555522 	0.99174705
-0.039682507 	0.99213677
-0.023809493 	0.99267282
-0.0079364777 	0.9932236
0.0079365373 	0.99363297
0.023809552 	0.99385781
0.039682567 	0.99410939
0.055555582 	0.99460677
0.071428597 	0.99516147
0.087301612 	0.99587445
0.10317463 	0.99616308
0.11904764 	0.99527206
0.13492066 	0.99346376
0.15079367 	0.99144522
0.16666669 	0.99116449
0.1825397 	0.99279196
0.19841272 	0.99517206
0.21428573 	0.99688735
0.23015875 	0.99787873
0.24603176 	0.99814227
0.26190484 	0.99761871
0.27777785 	0.99647677
0.29365087 	0.99503285
0.30952388 	0.99351606
0.3253969 	0.99265321
0.34126991 	0.99301118
0.35714292 	0.99469278
0.37301594 	0.99655332
0.38888895 	0.99622908
0.40476197 	0.99215393
0.42063499 	0.98665433
0.436508 	0.98434889
0.45238101 	0.98420127
0.46825403 	0.98179121
0.48412704 	0.9803824
0.5 	0.98095609
