-0.5 	1.0032236
-0.48412699 	1.0009827
-0.46825397 	0.99861547
-0.45238095 	0.99696111
-0.43650794 	0.99565082
-0.42063492 	0.99420526
-0.40476191 	0.99253706
-0.3888889 	0.99090425
-0.37301588 	0.98933244
-0.35714287 	0.9877426
-0.34126985 	0.98628796
-0.32539684 	0.9847932
-0.30952379 	0.98352245
-0.29365078 	0.9821518
-0.27777776 	0.98082295
-0.26190475 	0.97956932
-0.24603173 	0.97837985
-0.23015872 	0.97737534
-0.2142857 	0.97648023
-0.19841269 	0.97559158
-0.18253967 	0.9748247
-0.16666666 	0.97416754
-0.15079364 	0.97360974
-0.13492063 	0.97315244
-0.11904758 	0.97279233
-0.10317457 	0.97252816
-0.087301552 	0.97238287
-0.071428537 	0.97231469
-0.055555522 	0.97231904
-0.039682507 	0.97242145
-0.023809493 	0.97261159
-0.0079364777 	0.97292443
0.0079365373 	0.97335375
0.023809552 	0.97393818
0.039682567 	0.97470587
0.055555582 	0.97553328
0.071428597 	0.97638183
0.087301612 	0.97715588
0.10317463 	0.97757953
0.11904764 	0.97785274
0.13492066 	0.97802069
0.15079367 	0.97812237
0.16666669 	0.9782851
0.1825397 	0.97785001
0.19841272 	0.97682585
0.21428573 	0.97546328
0.23015875 	0.97496654
0.24603176 	0.97505051
0.26190484 	0.97530093
0.27777785 	0.97529245
0.29365087 	0.97512655
0.30952388 	0.97497295
0.3253969 	0.97491905
0.34126991 	0.97455077
0.35714292 	0.97370566
0.37301594 	0.97285431
0.38888895 	0.97259593
0.40476197 	0.97385425
0.42063499 	0.97639811
0.436508 	0.97932473
0.45238101 	0.98166709
0.46825403 	0.98248543
0.48412704 	0.98044012
0.5 	0.96678931
