# y+ ()         
# Time          	patch           	min             	max             	average         
0               	Wall	0.00000000e+00	0.00000000e+00	0.00000000e+00
0               	Cylinder	2.89412632e+00	2.89412684e+00	2.89412653e+00
