/*--------------------------------*- C++ -*----------------------------------*\
| =========                 |                                                 |
| \\      /  F ield         | OpenFOAM: The Open Source CFD Toolbox           |
|  \\    /   O peration     | Version:  2406                                  |
|   \\  /    A nd           | Website:  www.openfoam.com                      |
|    \\/     M anipulation  |                                                 |
\*---------------------------------------------------------------------------*/
FoamFile
{
    version     2.0;
    format      ascii;
    arch        "LSB;label=32;scalar=64";
    class       volScalarField;
    location    "1700";
    object      kMean;
}
// * * * * * * * * * * * * * * * * * * * * * * * * * * * * * * * * * * * * * //

dimensions      [0 2 -2 0 0 0 0];

internalField   nonuniform List<scalar> 
132739
(
3.3722132e-06
2.7046544e-06
2.2440213e-06
1.9176767e-06
1.6770497e-06
1.4928582e-06
1.3474173e-06
1.229668e-06
1.1323929e-06
1.0506893e-06
9.8110903e-07
9.2115414e-07
8.6896926e-07
8.2314723e-07
7.8260158e-07
7.4647909e-07
7.141009e-07
6.8492038e-07
6.5849221e-07
6.3445072e-07
6.1249124e-07
5.9235951e-07
5.7384159e-07
5.5675488e-07
5.4094335e-07
5.2627155e-07
5.1262295e-07
4.9989811e-07
4.8801465e-07
4.7690758e-07
4.6651772e-07
4.5678734e-07
4.4767329e-07
4.3913848e-07
4.3114711e-07
4.2366367e-07
4.1665338e-07
4.1008363e-07
4.0392281e-07
3.9814249e-07
3.9271789e-07
3.8762658e-07
3.828484e-07
3.7836572e-07
3.7416293e-07
3.7022576e-07
3.6653904e-07
3.6308993e-07
3.5986416e-07
3.5684615e-07
3.5402263e-07
3.5137014e-07
3.4887806e-07
3.465107e-07
3.4426644e-07
3.4210052e-07
3.4002857e-07
3.3804137e-07
3.3614249e-07
3.3437064e-07
3.327466e-07
3.3130196e-07
3.3004249e-07
3.2896119e-07
3.280442e-07
3.2728388e-07
3.2672034e-07
3.2632626e-07
3.2608033e-07
3.259688e-07
3.2598236e-07
3.2611429e-07
3.2635992e-07
3.2662601e-07
3.2713849e-07
3.2765537e-07
3.2865372e-07
3.2999782e-07
3.3178904e-07
3.3418673e-07
3.3735768e-07
3.4148721e-07
3.4674469e-07
3.532892e-07
3.6131285e-07
3.709474e-07
3.8204671e-07
3.9451137e-07
4.0837449e-07
4.2395761e-07
4.4176314e-07
4.6226857e-07
4.8558372e-07
5.1172365e-07
5.407641e-07
5.7284938e-07
6.082443e-07
6.4731655e-07
6.9060007e-07
7.3854948e-07
7.9233901e-07
8.5150423e-07
9.2089205e-07
9.9269042e-07
3.3723034e-06
2.7050848e-06
2.2446056e-06
1.9183215e-06
1.6777103e-06
1.4935142e-06
1.3480604e-06
1.2302947e-06
1.1330022e-06
1.0512823e-06
9.8168722e-07
9.2171918e-07
8.6952307e-07
8.2369196e-07
7.8313933e-07
7.4701189e-07
7.1463071e-07
6.854492e-07
6.5902183e-07
6.3498223e-07
6.1302606e-07
5.9289901e-07
5.7438694e-07
5.5730699e-07
5.4150268e-07
5.2683876e-07
5.1319835e-07
5.0048202e-07
4.8860691e-07
4.7750686e-07
4.6712354e-07
4.5739981e-07
4.4829163e-07
4.3976132e-07
4.3177294e-07
4.242915e-07
4.1728197e-07
4.1071152e-07
4.0454949e-07
3.9876735e-07
3.9333944e-07
3.8824407e-07
3.8346109e-07
3.7897235e-07
3.7476246e-07
3.7081546e-07
3.6711643e-07
3.6365001e-07
3.603976e-07
3.5734227e-07
3.5447006e-07
3.5176516e-07
3.4921334e-07
3.4680077e-07
3.4450837e-07
3.4232944e-07
3.4029523e-07
3.3843163e-07
3.367389e-07
3.352159e-07
3.3387253e-07
3.3271429e-07
3.3173879e-07
3.3092042e-07
3.3023026e-07
3.296468e-07
3.2915495e-07
3.2875117e-07
3.2843892e-07
3.2822111e-07
3.2811821e-07
3.2812013e-07
3.2821086e-07
3.2841667e-07
3.2877163e-07
3.2931267e-07
3.3006578e-07
3.3105745e-07
3.3233665e-07
3.3397872e-07
3.3608966e-07
3.3882773e-07
3.4238258e-07
3.4698815e-07
3.5294075e-07
3.6054703e-07
3.6997212e-07
3.8119331e-07
3.9405766e-07
4.0859084e-07
4.2501254e-07
4.4374841e-07
4.6512578e-07
4.8906417e-07
5.1556854e-07
5.4478697e-07
5.7688221e-07
6.1209926e-07
6.5069414e-07
6.9298923e-07
7.3944359e-07
7.9058068e-07
8.4614775e-07
9.1672433e-07
3.3724079e-06
2.7055033e-06
2.2451608e-06
1.918925e-06
1.6783212e-06
1.4941141e-06
1.3486412e-06
1.2308526e-06
1.1335362e-06
1.0517916e-06
9.8217205e-07
9.2218028e-07
8.6996069e-07
8.2410613e-07
7.8353008e-07
7.4737925e-07
7.1497438e-07
6.8576892e-07
6.5931714e-07
6.3525255e-07
6.1327115e-07
5.9311805e-07
5.7457902e-07
5.5747145e-07
5.4163884e-07
5.2694594e-07
5.132761e-07
5.0052992e-07
4.8862423e-07
4.7749271e-07
4.6707719e-07
4.57321e-07
4.481799e-07
4.3961656e-07
4.3159489e-07
4.2407978e-07
4.1703695e-07
4.1043342e-07
4.0423879e-07
3.9842458e-07
3.929657e-07
3.8784006e-07
3.8302708e-07
3.7850878e-07
3.7426959e-07
3.7029488e-07
3.665712e-07
3.6308667e-07
3.5982978e-07
3.5678748e-07
3.539511e-07
3.513002e-07
3.4882242e-07
3.4650903e-07
3.4434375e-07
3.4233684e-07
3.4048867e-07
3.3878449e-07
3.3721859e-07
3.3578547e-07
3.344822e-07
3.3331978e-07
3.3228769e-07
3.3135712e-07
3.3051681e-07
3.2975815e-07
3.2907244e-07
3.2845421e-07
3.2790531e-07
3.2742758e-07
3.2703235e-07
3.2673075e-07
3.2653507e-07
3.2645992e-07
3.2656052e-07
3.2690499e-07
3.2747217e-07
3.2826917e-07
3.2936307e-07
3.3085185e-07
3.3278147e-07
3.3519688e-07
3.3817516e-07
3.4184367e-07
3.4641111e-07
3.5218489e-07
3.5953386e-07
3.6871499e-07
3.797869e-07
3.9263374e-07
4.0730407e-07
4.2399506e-07
4.4301642e-07
4.6460144e-07
4.8869291e-07
5.1516451e-07
5.4407331e-07
5.7558217e-07
6.0990544e-07
6.4730679e-07
6.8794047e-07
7.3272315e-07
7.7879514e-07
8.4191496e-07
3.3725336e-06
2.7059322e-06
2.2457192e-06
1.9195261e-06
1.6789258e-06
1.4947059e-06
1.3492131e-06
1.2314027e-06
1.1340646e-06
1.0523e-06
9.8266235e-07
9.2265367e-07
8.7041912e-07
8.2455186e-07
7.8396485e-07
7.4780456e-07
7.1539203e-07
6.8618059e-07
6.5972441e-07
6.3565681e-07
6.1367374e-07
5.9352046e-07
5.7498248e-07
5.5787723e-07
5.4204809e-07
5.2736007e-07
5.1369601e-07
5.0095679e-07
4.8905944e-07
4.7793706e-07
4.6753121e-07
4.5778559e-07
4.4865634e-07
4.4010543e-07
4.3209687e-07
4.2459533e-07
4.175665e-07
4.1097766e-07
4.0479816e-07
3.9899992e-07
3.9355713e-07
3.8844756e-07
3.8365127e-07
3.7914958e-07
3.7492652e-07
3.7096737e-07
3.6725881e-07
3.637883e-07
3.605438e-07
3.5751457e-07
3.5468868e-07
3.520588e-07
3.4961487e-07
3.4734598e-07
3.4524509e-07
3.4330221e-07
3.4150807e-07
3.3985567e-07
3.3833532e-07
3.3693746e-07
3.3565381e-07
3.3447455e-07
3.3338848e-07
3.3239037e-07
3.3147555e-07
3.3063864e-07
3.2987561e-07
3.2918428e-07
3.2856497e-07
3.2802145e-07
3.2755687e-07
3.2718512e-07
3.2691573e-07
3.2676508e-07
3.26754e-07
3.2689837e-07
3.2729724e-07
3.2792007e-07
3.2874961e-07
3.299234e-07
3.3150185e-07
3.3353903e-07
3.3609835e-07
3.3924419e-07
3.4307289e-07
3.4775816e-07
3.5357254e-07
3.6085213e-07
3.6986746e-07
3.8067336e-07
3.9319735e-07
4.0757438e-07
4.2404702e-07
4.4293961e-07
4.6434919e-07
4.8812474e-07
5.1419908e-07
5.4258096e-07
5.7335209e-07
6.06681e-07
6.4261054e-07
6.8207043e-07
7.2208376e-07
7.7583204e-07
3.3726705e-06
2.7063519e-06
2.2462594e-06
1.9201071e-06
1.6795108e-06
1.4952784e-06
1.3497664e-06
1.2319343e-06
1.1345742e-06
1.0527881e-06
9.8312941e-07
9.2310088e-07
8.7084754e-07
8.2496225e-07
7.8435776e-07
7.4818061e-07
7.1575179e-07
6.8652448e-07
6.6005288e-07
6.3597001e-07
6.1397183e-07
5.9380383e-07
5.7525101e-07
5.5813095e-07
5.4228696e-07
5.275838e-07
5.1390486e-07
5.011508e-07
4.8923856e-07
4.7810118e-07
4.6768041e-07
4.5792007e-07
4.4877632e-07
4.4021078e-07
4.321873e-07
4.2467086e-07
4.1762707e-07
4.1102357e-07
4.0482933e-07
3.9901684e-07
3.9356083e-07
3.8843703e-07
3.8362655e-07
3.7911159e-07
3.748747e-07
3.7090161e-07
3.6717888e-07
3.6369394e-07
3.6043519e-07
3.5739146e-07
3.5455229e-07
3.5190709e-07
3.4944552e-07
3.4715865e-07
3.4503673e-07
3.4307167e-07
3.4125413e-07
3.3957351e-07
3.3802079e-07
3.3658716e-07
3.3526388e-07
3.340432e-07
3.3291707e-07
3.3187738e-07
3.3091872e-07
3.3003517e-07
3.2922218e-07
3.284763e-07
3.2779642e-07
3.2718383e-07
3.2664183e-07
3.2617781e-07
3.2579787e-07
3.2551793e-07
3.253569e-07
3.25367e-07
3.2560176e-07
3.2604488e-07
3.267623e-07
3.2780194e-07
3.2920758e-07
3.3103176e-07
3.3333347e-07
3.3617029e-07
3.3960596e-07
3.4373642e-07
3.4874006e-07
3.5489388e-07
3.6251327e-07
3.7179281e-07
3.8271013e-07
3.9519191e-07
4.0939312e-07
4.2560383e-07
4.4411373e-07
4.6490111e-07
4.8793461e-07
5.1321285e-07
5.4074498e-07
5.7059254e-07
6.026937e-07
6.3777111e-07
6.7340222e-07
7.1995407e-07
3.3728241e-06
2.7067789e-06
2.2468009e-06
1.9206845e-06
1.6800885e-06
1.4958412e-06
1.3503089e-06
1.2324549e-06
1.1350731e-06
1.0532661e-06
9.8358814e-07
9.2354207e-07
8.7127281e-07
8.2537308e-07
7.8475547e-07
7.4856673e-07
7.1612753e-07
6.8689078e-07
6.6041103e-07
6.3632115e-07
6.1431669e-07
5.9414343e-07
5.755862e-07
5.5846214e-07
5.4261487e-07
5.27909e-07
5.14228e-07
5.0147297e-07
4.8956109e-07
4.7842478e-07
4.6800506e-07
4.5824653e-07
4.4910575e-07
4.4054393e-07
4.325242e-07
4.2501162e-07
4.1797228e-07
4.1137333e-07
4.0518422e-07
3.9937682e-07
3.9392574e-07
3.8880867e-07
3.8400453e-07
3.7949465e-07
3.7526359e-07
3.7129661e-07
3.6757917e-07
3.6409912e-07
3.6084458e-07
3.5780438e-07
3.549674e-07
3.5232394e-07
3.4986422e-07
3.4757816e-07
3.4545706e-07
3.4349129e-07
3.4167085e-07
3.3998644e-07
3.3843036e-07
3.3699326e-07
3.3566411e-07
3.3443526e-07
3.3329836e-07
3.3224527e-07
3.3126968e-07
3.3036596e-07
3.2952848e-07
3.287539e-07
3.2804033e-07
3.2738771e-07
3.2679903e-07
3.2627912e-07
3.2583685e-07
3.2548708e-07
3.2524858e-07
3.2515585e-07
3.2523761e-07
3.2552278e-07
3.2604734e-07
3.2685447e-07
3.2799311e-07
3.2951845e-07
3.3149072e-07
3.3396979e-07
3.3701345e-07
3.4068472e-07
3.4508516e-07
3.5040447e-07
3.5692571e-07
3.6492896e-07
3.7452445e-07
3.8564339e-07
3.9823161e-07
4.1241936e-07
4.2848354e-07
4.4653382e-07
4.6656103e-07
4.8863199e-07
5.1281397e-07
5.391839e-07
5.676769e-07
5.9883132e-07
6.3064415e-07
6.7169117e-07
3.3729873e-06
2.7071975e-06
2.2473254e-06
1.9212428e-06
1.6806485e-06
1.4963884e-06
1.3508369e-06
1.2329617e-06
1.1355586e-06
1.053731e-06
9.8403363e-07
9.2396955e-07
8.7168311e-07
8.2576733e-07
7.8513469e-07
7.4893167e-07
7.1647919e-07
6.8722995e-07
6.6073825e-07
6.3663677e-07
6.1462127e-07
5.9443718e-07
5.758694e-07
5.5873507e-07
5.4287764e-07
5.2816194e-07
5.1447172e-07
5.0170817e-07
4.8978814e-07
4.7864368e-07
4.6821583e-07
4.5845028e-07
4.493032e-07
4.4073529e-07
4.3270928e-07
4.2519055e-07
4.1814521e-07
4.1154047e-07
4.0534577e-07
3.995336e-07
3.9407807e-07
3.8895586e-07
3.8414718e-07
3.7963325e-07
3.7539779e-07
3.7142615e-07
3.6770397e-07
3.6421882e-07
3.6095906e-07
3.5791296e-07
3.5507013e-07
3.5242043e-07
3.4995326e-07
3.4765926e-07
3.4552908e-07
3.4355281e-07
3.4172112e-07
3.4002469e-07
3.3845348e-07
3.3699869e-07
3.3565146e-07
3.3440245e-07
3.3324295e-07
3.3216483e-07
3.3116128e-07
3.3022598e-07
3.2935317e-07
3.2853871e-07
3.2778017e-07
3.2707674e-07
3.2643036e-07
3.2584428e-07
3.2532625e-07
3.2489023e-07
3.2455452e-07
3.2435555e-07
3.2432307e-07
3.2448681e-07
3.2487981e-07
3.2553879e-07
3.2650472e-07
3.2782496e-07
3.295539e-07
3.3174985e-07
3.3447099e-07
3.3777664e-07
3.4174448e-07
3.4650234e-07
3.522594e-07
3.5928001e-07
3.6777329e-07
3.7777739e-07
3.8921236e-07
4.0205154e-07
4.1641763e-07
4.3245627e-07
4.5012496e-07
4.6945599e-07
4.9055248e-07
5.1355115e-07
5.3846672e-07
5.657904e-07
5.9387504e-07
6.2995358e-07
3.3731635e-06
2.7076201e-06
2.2478493e-06
1.9217962e-06
1.6811995e-06
1.4969241e-06
1.3513524e-06
1.2334556e-06
1.1360313e-06
1.0541838e-06
9.8446801e-07
9.2438649e-07
8.7208416e-07
8.2615376e-07
7.8550753e-07
7.492923e-07
7.1682862e-07
6.8756884e-07
6.6106747e-07
6.3695724e-07
6.1493389e-07
5.9474252e-07
5.7616825e-07
5.59028e-07
5.4316496e-07
5.2844426e-07
5.1474967e-07
5.0198261e-07
4.9005974e-07
4.7891306e-07
4.6848366e-07
4.587174e-07
4.4957061e-07
4.4100331e-07
4.3297846e-07
4.2546111e-07
4.184172e-07
4.1181429e-07
4.0562194e-07
3.9981234e-07
3.9435951e-07
3.8924037e-07
3.8443479e-07
3.7992391e-07
3.756914e-07
3.717226e-07
3.6800289e-07
3.6451964e-07
3.6126181e-07
3.5821757e-07
3.5537557e-07
3.5272603e-07
3.5025865e-07
3.4796346e-07
3.4583139e-07
3.4385254e-07
3.4201728e-07
3.4031659e-07
3.3874021e-07
3.3727888e-07
3.3592368e-07
3.3466507e-07
3.3349472e-07
3.3240377e-07
3.3138484e-07
3.3043132e-07
3.2953765e-07
3.2869849e-07
3.2791138e-07
3.271757e-07
3.2649094e-07
3.2586054e-07
3.2529263e-07
3.2479933e-07
3.2439781e-07
3.2411924e-07
3.2398849e-07
3.2403224e-07
3.2428161e-07
3.2477293e-07
3.2554666e-07
3.2664871e-07
3.2813074e-07
3.3004856e-07
3.3245797e-07
3.3541531e-07
3.3898665e-07
3.4327029e-07
3.4842021e-07
3.54646e-07
3.6216694e-07
3.711194e-07
3.8150395e-07
3.9326399e-07
4.063964e-07
4.2101793e-07
4.3707074e-07
4.5447795e-07
4.7327129e-07
4.9355801e-07
5.1538644e-07
5.3920951e-07
5.6376373e-07
5.9501842e-07
3.373346e-06
2.7080333e-06
2.2483575e-06
1.9223335e-06
1.6817352e-06
1.4974455e-06
1.3518547e-06
1.233937e-06
1.1364919e-06
1.0546248e-06
9.8489041e-07
9.2479158e-07
8.7247315e-07
8.2652752e-07
7.8586743e-07
7.4963947e-07
7.1716387e-07
6.8789313e-07
6.6138124e-07
6.3726111e-07
6.1522841e-07
5.9502818e-07
5.7644532e-07
5.5929682e-07
5.4342595e-07
5.2869765e-07
5.1499563e-07
5.0222173e-07
4.9029308e-07
4.7914137e-07
4.687075e-07
4.5893787e-07
4.4978848e-07
4.4121895e-07
4.3319233e-07
4.2567355e-07
4.1862802e-07
4.1202378e-07
4.0583048e-07
4.0001993e-07
3.9456675e-07
3.8944772e-07
3.8464237e-07
3.8013169e-07
3.7589928e-07
3.7193016e-07
3.6821006e-07
3.6472672e-07
3.6146838e-07
3.5842251e-07
3.5557871e-07
3.5292732e-07
3.5045736e-07
3.4815892e-07
3.4602306e-07
3.4403939e-07
3.4219842e-07
3.4049108e-07
3.3890674e-07
3.3743629e-07
3.3607096e-07
3.3480054e-07
3.3361589e-07
3.3250903e-07
3.31472e-07
3.3049816e-07
3.2958062e-07
3.2871406e-07
3.2789545e-07
3.2712313e-07
3.2639798e-07
3.2572105e-07
3.2509978e-07
3.2454502e-07
3.2407411e-07
3.237178e-07
3.2350084e-07
3.2344874e-07
3.2359031e-07
3.2395843e-07
3.2458942e-07
3.2552476e-07
3.268114e-07
3.2850076e-07
3.306473e-07
3.333058e-07
3.3653929e-07
3.4043751e-07
3.451303e-07
3.5078172e-07
3.5756408e-07
3.6561981e-07
3.7501891e-07
3.8576213e-07
3.9782651e-07
4.1126633e-07
4.2607792e-07
4.4211405e-07
4.5932365e-07
4.7772669e-07
4.9732478e-07
5.184494e-07
5.4014293e-07
5.6711058e-07
3.3735366e-06
2.7084463e-06
2.2488601e-06
1.9228606e-06
1.6822586e-06
1.4979536e-06
1.3523432e-06
1.2344049e-06
1.1369396e-06
1.0550533e-06
9.8530075e-07
9.2518505e-07
8.7285133e-07
8.2689155e-07
7.8621838e-07
7.4997835e-07
7.1749146e-07
6.8821032e-07
6.6168872e-07
6.3755969e-07
6.1551866e-07
5.9531074e-07
5.7672092e-07
5.5956583e-07
5.4368849e-07
5.2895408e-07
5.1524671e-07
5.0246824e-07
4.9053624e-07
4.7938202e-07
4.6894619e-07
4.5917603e-07
4.5002689e-07
4.414583e-07
4.3343302e-07
4.2591563e-07
4.1887195e-07
4.1226993e-07
4.0607943e-07
4.0027195e-07
3.9482201e-07
3.8970625e-07
3.8490402e-07
3.8039671e-07
3.7616775e-07
3.7220169e-07
3.6848464e-07
3.650038e-07
3.6174706e-07
3.587031e-07
3.5586118e-07
3.5321067e-07
3.5074152e-07
3.4844348e-07
3.4630715e-07
3.4432247e-07
3.4247979e-07
3.4076945e-07
3.3918146e-07
3.3770685e-07
3.3633569e-07
3.3505867e-07
3.3386635e-07
3.3275012e-07
3.3170231e-07
3.3071463e-07
3.29781e-07
3.2889624e-07
3.2805623e-07
3.272584e-07
3.2650314e-07
3.2579132e-07
3.2513037e-07
3.2452936e-07
3.2400576e-07
3.2358708e-07
3.2329463e-07
3.2315292e-07
3.2318772e-07
3.2343317e-07
3.2392396e-07
3.2469626e-07
3.2579658e-07
3.2727419e-07
3.291813e-07
3.3156987e-07
3.3449604e-07
3.3803992e-07
3.423267e-07
3.4751543e-07
3.5375257e-07
3.6113876e-07
3.697298e-07
3.7955285e-07
3.9062151e-07
4.0296991e-07
4.1666083e-07
4.3155031e-07
4.4752404e-07
4.6454849e-07
4.8259072e-07
5.0184618e-07
5.215768e-07
5.4529445e-07
3.3737298e-06
2.70885e-06
2.2493482e-06
1.9233726e-06
1.6827681e-06
1.4984481e-06
1.3528185e-06
1.2348601e-06
1.1373747e-06
1.0554694e-06
9.8569909e-07
9.2556681e-07
8.732177e-07
8.2724387e-07
7.8655764e-07
7.5030534e-07
7.1780719e-07
6.8851569e-07
6.6198447e-07
6.3784632e-07
6.1579694e-07
5.9558123e-07
5.7698368e-07
5.5982108e-07
5.4393658e-07
5.2919534e-07
5.1548178e-07
5.0269803e-07
4.9076175e-07
4.7960453e-07
4.6916638e-07
4.593951e-07
4.5024573e-07
4.4167764e-07
4.3365324e-07
4.261368e-07
4.1909466e-07
4.1249487e-07
4.0630662e-07
4.0050156e-07
3.9505447e-07
3.8994183e-07
3.8514274e-07
3.806385e-07
3.7641223e-07
3.7244891e-07
3.6873445e-07
3.6525592e-07
3.6200137e-07
3.5895942e-07
3.5611944e-07
3.5347021e-07
3.5100146e-07
3.4870389e-07
3.4656733e-07
3.4458161e-07
3.4273768e-07
3.4102495e-07
3.3943439e-07
3.3795679e-07
3.365805e-07
3.3529702e-07
3.3409733e-07
3.3297208e-07
3.3191367e-07
3.3091297e-07
3.2996596e-07
3.29065e-07
3.2820404e-07
3.2738265e-07
3.2659821e-07
3.2585242e-07
3.2515302e-07
3.2450759e-07
3.2393295e-07
3.2345603e-07
3.2309797e-07
3.2288085e-07
3.2282993e-07
3.2297496e-07
3.2334953e-07
3.239906e-07
3.2493724e-07
3.2623501e-07
3.2793468e-07
3.3008847e-07
3.327499e-07
3.3598762e-07
3.3991481e-07
3.4469741e-07
3.5050248e-07
3.5742454e-07
3.6547278e-07
3.7462399e-07
3.8487863e-07
3.9626845e-07
4.0888928e-07
4.2269609e-07
4.3755662e-07
4.5340789e-07
4.702059e-07
4.880565e-07
5.0639752e-07
5.2790458e-07
3.3739248e-06
2.7092466e-06
2.2498255e-06
1.9238716e-06
1.6832627e-06
1.4989275e-06
1.3532786e-06
1.2353003e-06
1.1377959e-06
1.0558722e-06
9.8608472e-07
9.2593651e-07
8.7357261e-07
8.2758507e-07
7.8688612e-07
7.5062234e-07
7.181136e-07
6.8881193e-07
6.6227136e-07
6.3812467e-07
6.1606731e-07
5.9584396e-07
5.7723908e-07
5.6006967e-07
5.4417879e-07
5.2943158e-07
5.1571268e-07
5.0292473e-07
4.9098553e-07
4.7982614e-07
4.6938695e-07
4.5961629e-07
4.5046849e-07
4.4190233e-07
4.3388066e-07
4.2636763e-07
4.1932946e-07
4.1273391e-07
4.0655003e-07
4.0074975e-07
3.9530768e-07
3.9019998e-07
3.8540571e-07
3.8090643e-07
3.7668506e-07
3.7272634e-07
3.6901642e-07
3.6554217e-07
3.6229186e-07
3.5925365e-07
3.5641665e-07
3.537709e-07
3.5130541e-07
3.4901014e-07
3.4687571e-07
3.4489178e-07
3.4304877e-07
3.4133688e-07
3.3974593e-07
3.3826678e-07
3.368889e-07
3.356035e-07
3.3440083e-07
3.3327104e-07
3.3220553e-07
3.3119718e-07
3.3023943e-07
3.2932459e-07
3.2844838e-07
3.2760839e-07
3.2680314e-07
3.2603307e-07
3.2530438e-07
3.2462428e-07
3.2400962e-07
3.2348431e-07
3.2306815e-07
3.2278266e-07
3.22652e-07
3.227036e-07
3.2296941e-07
3.2348572e-07
3.2429069e-07
3.2542635e-07
3.2694022e-07
3.2888386e-07
3.3131077e-07
3.3428073e-07
3.378861e-07
3.4228195e-07
3.4766406e-07
3.5418177e-07
3.61862e-07
3.7063e-07
3.8040126e-07
3.911451e-07
4.0292108e-07
4.1578147e-07
4.2962421e-07
4.4438808e-07
4.6005317e-07
4.7669128e-07
4.9385571e-07
5.137031e-07
3.3741194e-06
2.7096337e-06
2.2502891e-06
1.9243554e-06
1.6837422e-06
1.4993924e-06
1.353725e-06
1.2357274e-06
1.1382038e-06
1.056262e-06
9.8645747e-07
9.2629367e-07
8.7391536e-07
8.2791465e-07
7.8720359e-07
7.5092826e-07
7.1840884e-07
6.8909739e-07
6.6254781e-07
6.3839287e-07
6.1632764e-07
5.960967e-07
5.7748479e-07
5.603085e-07
5.4441092e-07
5.2965757e-07
5.1593317e-07
5.0314077e-07
4.9119832e-07
4.8003737e-07
4.6959793e-07
4.5982782e-07
4.5068189e-07
4.4211898e-07
4.3410088e-07
4.2659198e-07
4.1955836e-07
4.1296773e-07
4.0678934e-07
4.0099499e-07
3.9555871e-07
3.904567e-07
3.8566824e-07
3.8117461e-07
3.7695896e-07
3.7300591e-07
3.6930115e-07
3.6583233e-07
3.6258697e-07
3.5955333e-07
3.5672113e-07
3.5407946e-07
3.5161751e-07
3.4932611e-07
3.4719509e-07
3.4521398e-07
3.4337366e-07
3.4166405e-07
3.4007468e-07
3.385961e-07
3.3721794e-07
3.3593082e-07
3.3472541e-07
3.3359181e-07
3.3252226e-07
3.3150757e-07
3.3054084e-07
3.2961596e-07
3.2872817e-07
3.2787372e-07
3.2704972e-07
3.262566e-07
3.2550196e-07
3.2479256e-07
3.2414229e-07
3.235747e-07
3.2310919e-07
3.2276546e-07
3.2256715e-07
3.2254042e-07
3.227153e-07
3.2312529e-07
3.2380732e-07
3.2480139e-07
3.2615187e-07
3.2790859e-07
3.3012695e-07
3.328665e-07
3.3620107e-07
3.4025252e-07
3.4520918e-07
3.5127268e-07
3.5856093e-07
3.6704307e-07
3.7658723e-07
3.870634e-07
3.9841123e-07
4.1067781e-07
4.2378279e-07
4.3766179e-07
4.5232492e-07
4.6785755e-07
4.8391967e-07
5.0229534e-07
3.374314e-06
2.710012e-06
2.2507401e-06
1.9248252e-06
1.6842068e-06
1.4998427e-06
1.354157e-06
1.2361402e-06
1.1385982e-06
1.0566389e-06
9.8681802e-07
9.2663907e-07
8.7424697e-07
8.282334e-07
7.8751043e-07
7.5122417e-07
7.1869464e-07
6.8937374e-07
6.6281539e-07
6.386522e-07
6.1657918e-07
5.96341e-07
5.7772221e-07
5.6053939e-07
5.4463546e-07
5.2987603e-07
5.1614673e-07
5.0335071e-07
4.9140621e-07
4.8024411e-07
4.6980503e-07
4.6003732e-07
4.5089478e-07
4.4233617e-07
4.3432339e-07
4.2682053e-07
4.1979371e-07
4.1321017e-07
4.0703932e-07
4.0125261e-07
3.9582378e-07
3.9072923e-07
3.8594818e-07
3.814622e-07
3.7725374e-07
3.7330742e-07
3.696096e-07
3.6614764e-07
3.6290874e-07
3.598817e-07
3.5705608e-07
3.5442029e-07
3.5196418e-07
3.496782e-07
3.4755251e-07
3.4557649e-07
3.4374037e-07
3.4203466e-07
3.4044857e-07
3.3897311e-07
3.3759748e-07
3.3631184e-07
3.3510767e-07
3.3397353e-07
3.3290191e-07
3.3188475e-07
3.3091324e-07
3.2998201e-07
3.2908464e-07
3.2821789e-07
3.2737991e-07
3.2657088e-07
3.2579565e-07
3.2506004e-07
3.243808e-07
3.237781e-07
3.2327111e-07
3.2287812e-07
3.226189e-07
3.2252133e-07
3.226134e-07
3.2292763e-07
3.2349938e-07
3.2436672e-07
3.255718e-07
3.2716154e-07
3.2919088e-07
3.3172241e-07
3.3482416e-07
3.3858719e-07
3.4315603e-07
3.4872758e-07
3.5548988e-07
3.6352918e-07
3.7279048e-07
3.8312512e-07
3.9436863e-07
4.0644883e-07
4.1926201e-07
4.3268393e-07
4.4669403e-07
4.6138103e-07
4.7649192e-07
4.9354207e-07
3.3745089e-06
2.7103828e-06
2.2511799e-06
1.9252821e-06
1.6846581e-06
1.5002793e-06
1.3545756e-06
1.2365401e-06
1.13898e-06
1.0570036e-06
9.8716685e-07
9.2697331e-07
8.745676e-07
8.2854153e-07
7.8780699e-07
7.5150988e-07
7.1897029e-07
6.8964023e-07
6.6307317e-07
6.3890195e-07
6.1682158e-07
5.9657645e-07
5.7795095e-07
5.607615e-07
5.4485112e-07
5.3008582e-07
5.1635152e-07
5.0355186e-07
4.9160559e-07
4.8044387e-07
4.7000645e-07
4.6024166e-07
4.5110382e-07
4.4255068e-07
4.3454443e-07
4.2704932e-07
4.200308e-07
4.1345642e-07
4.0729491e-07
4.0151738e-07
3.9609754e-07
3.9101207e-07
3.8623994e-07
3.817621e-07
3.7756189e-07
3.7362399e-07
3.6993454e-07
3.6648066e-07
3.6324971e-07
3.6023042e-07
3.574122e-07
3.5478393e-07
3.5233567e-07
3.5005708e-07
3.4793809e-07
3.4596856e-07
3.4413866e-07
3.4243899e-07
3.4085817e-07
3.3938712e-07
3.3801562e-07
3.3673335e-07
3.3553101e-07
3.3439884e-07
3.333279e-07
3.3230988e-07
3.3133651e-07
3.3040133e-07
3.2949882e-07
3.2862418e-07
3.2777466e-07
3.2695146e-07
3.2615919e-07
3.254027e-07
3.246983e-07
3.2406549e-07
3.2352187e-07
3.2308525e-07
3.2277617e-07
3.2261798e-07
3.2263978e-07
3.2287113e-07
3.2334625e-07
3.2410213e-07
3.2517884e-07
3.2662119e-07
3.2848179e-07
3.3082396e-07
3.3371805e-07
3.3724118e-07
3.4149452e-07
3.4662427e-07
3.5281172e-07
3.602168e-07
3.6890932e-07
3.7884528e-07
3.8988813e-07
4.0188985e-07
4.1469517e-07
4.2806865e-07
4.4188848e-07
4.5619025e-07
4.7073641e-07
4.868378e-07
3.3747057e-06
2.7107457e-06
2.2516077e-06
1.9257259e-06
1.6850962e-06
1.5007025e-06
1.3549812e-06
1.2369275e-06
1.1393498e-06
1.0573567e-06
9.8750451e-07
9.2729674e-07
8.7487773e-07
8.2883935e-07
7.8809348e-07
7.5178596e-07
7.1923659e-07
6.898976e-07
6.6332232e-07
6.391431e-07
6.1705532e-07
5.9680332e-07
5.7817104e-07
5.6097503e-07
5.4505839e-07
5.3028754e-07
5.1654887e-07
5.0374664e-07
4.9179962e-07
4.8063844e-07
4.7020389e-07
4.6044372e-07
4.5131152e-07
4.4276591e-07
4.3476845e-07
4.2728329e-07
4.2027581e-07
4.1371245e-07
4.0756202e-07
4.0179576e-07
3.9638687e-07
3.9131204e-07
3.8655051e-07
3.8208291e-07
3.7789279e-07
3.7396487e-07
3.7028498e-07
3.6684068e-07
3.6361944e-07
3.6060996e-07
3.5780136e-07
3.5518235e-07
3.5274312e-07
3.5047355e-07
3.4836308e-07
3.4640213e-07
3.4458023e-07
3.4288747e-07
3.4131444e-07
3.3985052e-07
3.3848515e-07
3.3720869e-07
3.3601145e-07
3.3488375e-07
3.3381616e-07
3.3279977e-07
3.3182666e-07
3.308903e-07
3.2998471e-07
3.2910498e-07
3.282485e-07
3.2741542e-07
3.2661016e-07
3.2583743e-07
3.2511291e-07
3.2445522e-07
3.2388026e-07
3.2340565e-07
3.2305162e-07
3.2284083e-07
3.2279934e-07
3.2295856e-07
3.2334894e-07
3.2400602e-07
3.2496897e-07
3.2628083e-07
3.2799137e-07
3.3016134e-07
3.3286283e-07
3.3617271e-07
3.4017163e-07
3.4495596e-07
3.5065244e-07
3.5740916e-07
3.6535466e-07
3.7455587e-07
3.8499825e-07
3.9658969e-07
4.0921776e-07
4.2259277e-07
4.3646333e-07
4.5075736e-07
4.6516146e-07
4.808985e-07
3.3749003e-06
2.7111009e-06
2.2520248e-06
1.9261571e-06
1.6855209e-06
1.5011128e-06
1.3553742e-06
1.2373028e-06
1.1397078e-06
1.0576984e-06
9.8783115e-07
9.276093e-07
8.7517712e-07
8.2912675e-07
7.8836997e-07
7.5205221e-07
7.1949345e-07
6.9014552e-07
6.6356192e-07
6.3937526e-07
6.1728037e-07
5.9702154e-07
5.7838259e-07
5.6118005e-07
5.4525741e-07
5.3048129e-07
5.1673863e-07
5.0393425e-07
4.9198716e-07
4.8082793e-07
4.7039748e-07
4.6064315e-07
4.5151859e-07
4.4298242e-07
4.3499592e-07
4.2752297e-07
4.2052851e-07
4.1397878e-07
4.0784213e-07
4.0208882e-07
3.9669254e-07
3.9163007e-07
3.8688043e-07
3.824245e-07
3.7824603e-07
3.7432981e-07
3.706614e-07
3.6722838e-07
3.6401856e-07
3.6102037e-07
3.5822279e-07
3.5561503e-07
3.5318684e-07
3.5092795e-07
3.4882802e-07
3.4687704e-07
3.4506575e-07
3.4338302e-07
3.4181833e-07
3.4036331e-07
3.390068e-07
3.3773782e-07
3.3654753e-07
3.3542545e-07
3.3436288e-07
3.3335079e-07
3.3238077e-07
3.3144635e-07
3.3054014e-07
3.2965789e-07
3.2879658e-07
3.2795653e-07
3.2714128e-07
3.2635539e-07
3.2561429e-07
3.2493552e-07
3.2433468e-07
3.2382765e-07
3.2343426e-07
3.2317709e-07
3.2308127e-07
3.2317527e-07
3.2349183e-07
3.2406324e-07
3.249269e-07
3.2612453e-07
3.2770352e-07
3.2972111e-07
3.3224695e-07
3.3535929e-07
3.3913614e-07
3.4365181e-07
3.489854e-07
3.5523177e-07
3.6249887e-07
3.7088622e-07
3.8046427e-07
3.912446e-07
4.0321793e-07
4.1619588e-07
4.2989878e-07
4.4418741e-07
4.5861316e-07
4.7441349e-07
3.3750976e-06
2.7114493e-06
2.2524308e-06
1.9265764e-06
1.6859339e-06
1.5015112e-06
1.3557552e-06
1.2376663e-06
1.1400543e-06
1.058029e-06
9.8814678e-07
9.2791111e-07
8.7546634e-07
8.2940425e-07
7.886365e-07
7.5230863e-07
7.197407e-07
6.9038433e-07
6.637928e-07
6.3959873e-07
6.1749668e-07
5.9723111e-07
5.7858575e-07
5.613769e-07
5.454485e-07
5.3066734e-07
5.1692133e-07
5.0411561e-07
4.9216931e-07
4.8101336e-07
4.7058814e-07
4.6084111e-07
4.5172639e-07
4.4320213e-07
4.3522945e-07
4.2777195e-07
4.2079369e-07
4.1426021e-07
4.0813929e-07
4.0240131e-07
3.9701966e-07
3.919712e-07
3.872352e-07
3.8279284e-07
3.7862779e-07
3.7472458e-07
3.7106951e-07
3.6765013e-07
3.6445353e-07
3.6146848e-07
3.5868398e-07
3.5608911e-07
3.536739e-07
3.5142743e-07
3.4934023e-07
3.4740176e-07
3.4560171e-07
3.4393105e-07
3.4237817e-07
3.4093363e-07
3.3958775e-07
3.3832869e-07
3.3714726e-07
3.3603398e-07
3.3497853e-07
3.3397202e-07
3.3300665e-07
3.320754e-07
3.3117082e-07
3.302879e-07
3.2942369e-07
3.2857871e-07
3.2775611e-07
3.2695994e-07
3.2620562e-07
3.2550969e-07
3.2488695e-07
3.2435277e-07
3.2392552e-07
3.2362743e-07
3.2348312e-07
3.2352003e-07
3.237692e-07
3.2426351e-07
3.2503874e-07
3.2613571e-07
3.2759975e-07
3.2948464e-07
3.3185522e-07
3.3478658e-07
3.3835724e-07
3.4263973e-07
3.4769533e-07
3.5358033e-07
3.6035801e-07
3.680976e-07
3.7687351e-07
3.8674741e-07
3.9777896e-07
4.0993267e-07
4.2299806e-07
4.3687079e-07
4.5105205e-07
4.6685846e-07
3.3752908e-06
2.7117881e-06
2.2528251e-06
1.9269828e-06
1.6863335e-06
1.5018966e-06
1.3561241e-06
1.2380178e-06
1.140389e-06
1.0583483e-06
9.8845169e-07
9.2820246e-07
8.7574531e-07
8.296719e-07
7.8889364e-07
7.5255605e-07
7.1997901e-07
6.9061411e-07
6.640147e-07
6.3981324e-07
6.1770432e-07
5.9743205e-07
5.7878025e-07
5.6156533e-07
5.4563114e-07
5.3084549e-07
5.1709668e-07
5.0429051e-07
4.9234633e-07
4.8119481e-07
4.7077652e-07
4.6103912e-07
4.5193646e-07
4.4342704e-07
4.3547163e-07
4.2803281e-07
4.2107395e-07
4.1455932e-07
4.0845649e-07
4.027361e-07
3.9737124e-07
3.9233878e-07
3.8761846e-07
3.8319142e-07
3.7904155e-07
3.7515363e-07
3.715137e-07
3.6810955e-07
3.6492817e-07
3.6195796e-07
3.5918847e-07
3.5660879e-07
3.5420826e-07
3.5197651e-07
3.4990365e-07
3.4797945e-07
3.461937e-07
3.4453614e-07
3.4299654e-07
3.4156488e-07
3.4023021e-07
3.3898273e-07
3.3781248e-07
3.3670857e-07
3.3566122e-07
3.3466214e-07
3.3370272e-07
3.3277512e-07
3.3187325e-07
3.3099129e-07
3.3012611e-07
3.2927776e-07
3.2844989e-07
3.2764612e-07
3.2688093e-07
3.2617031e-07
3.2552842e-07
3.2497091e-07
3.2451534e-07
3.2418254e-07
3.2399639e-07
3.2398397e-07
3.2417379e-07
3.2460036e-07
3.252965e-07
3.2630274e-07
3.2766373e-07
3.2943087e-07
3.3166479e-07
3.3443532e-07
3.3781729e-07
3.4188345e-07
3.4669469e-07
3.5229754e-07
3.5872917e-07
3.6602405e-07
3.7422526e-07
3.8338013e-07
3.9354812e-07
4.0478303e-07
4.1695134e-07
4.300181e-07
4.4352801e-07
4.5885347e-07
3.3754846e-06
2.7121197e-06
2.2532087e-06
1.9273771e-06
1.6867208e-06
1.5022699e-06
1.3564806e-06
1.2383576e-06
1.1407126e-06
1.0586564e-06
9.8874561e-07
9.2848361e-07
8.7601461e-07
8.2992996e-07
7.8914137e-07
7.5279419e-07
7.2020804e-07
6.9083472e-07
6.6422759e-07
6.4001896e-07
6.1790318e-07
5.9762419e-07
5.7896589e-07
5.6174478e-07
5.4580523e-07
5.3101572e-07
5.1726514e-07
5.0445955e-07
4.9251856e-07
4.8137319e-07
4.7096374e-07
4.6123845e-07
4.5215124e-07
4.4366048e-07
4.3572638e-07
4.2830989e-07
4.2137351e-07
4.1488099e-07
4.0879913e-07
4.0309832e-07
3.977523e-07
3.9273764e-07
3.8803475e-07
3.8362565e-07
3.7949294e-07
3.7562232e-07
3.7199978e-07
3.6861238e-07
3.6544796e-07
3.6249514e-07
3.5974303e-07
3.5718014e-07
3.5479649e-07
3.5258134e-07
3.5052471e-07
3.4861634e-07
3.4684631e-07
3.4520419e-07
3.4367877e-07
3.4226081e-07
3.4093934e-07
3.3970357e-07
3.3854392e-07
3.3745026e-07
3.3641245e-07
3.3542116e-07
3.3446802e-07
3.3354517e-07
3.3264644e-07
3.31766e-07
3.3090006e-07
3.3004967e-07
3.2921754e-07
3.2840653e-07
3.2763295e-07
3.2691115e-07
3.2625397e-07
3.2567648e-07
3.2519631e-07
3.2483362e-07
3.2461145e-07
3.2455638e-07
3.2469653e-07
3.2506282e-07
3.2569055e-07
3.2661696e-07
3.2788591e-07
3.2954755e-07
3.3165962e-07
3.3428663e-07
3.3749864e-07
3.4136464e-07
3.4594654e-07
3.5129357e-07
3.574389e-07
3.644044e-07
3.722092e-07
3.8087409e-07
3.9042528e-07
4.0092689e-07
4.1228513e-07
4.2448552e-07
4.3714567e-07
4.5155901e-07
3.3756743e-06
2.7124425e-06
2.2535809e-06
1.9277589e-06
1.6870952e-06
1.5026304e-06
1.356825e-06
1.2386855e-06
1.1410249e-06
1.0589538e-06
9.8902915e-07
9.2875425e-07
8.7627343e-07