/*--------------------------------*- C++ -*----------------------------------*\
| =========                 |                                                 |
| \\      /  F ield         | OpenFOAM: The Open Source CFD Toolbox           |
|  \\    /   O peration     | Version:  2406                                  |
|   \\  /    A nd           | Website:  www.openfoam.com                      |
|    \\/     M anipulation  |                                                 |
\*---------------------------------------------------------------------------*/
FoamFile
{
    version     2.0;
    format      ascii;
    arch        "LSB;label=32;scalar=64";
    class       volScalarField;
    location    "1700";
    object      nut;
}
// * * * * * * * * * * * * * * * * * * * * * * * * * * * * * * * * * * * * * //

dimensions      [0 2 -1 0 0 0 0];

internalField   nonuniform List<scalar> 
132739
(
8.7505996e-07
8.6000087e-07
8.4711589e-07
8.3636638e-07
8.2733507e-07
8.1961835e-07
8.1291177e-07
8.0699889e-07
8.0172521e-07
7.9697758e-07
7.9267081e-07
7.8873914e-07
7.8513085e-07
7.8180427e-07
7.787256e-07
7.7586686e-07
7.7320476e-07
7.7071965e-07
7.6839495e-07
7.6621653e-07
7.6417231e-07
7.6225199e-07
7.604467e-07
7.5874883e-07
7.5715182e-07
7.5564999e-07
7.5423846e-07
7.5291301e-07
7.5167006e-07
7.505065e-07
7.4941977e-07
7.4840766e-07
7.4746837e-07
7.4660041e-07
7.458026e-07
7.4507396e-07
7.4441375e-07
7.438214e-07
7.4329648e-07
7.4283868e-07
7.4244778e-07
7.421236e-07
7.4186596e-07
7.4167465e-07
7.4154943e-07
7.4148989e-07
7.4149542e-07
7.4156716e-07
7.4169612e-07
7.4187027e-07
7.4207832e-07
7.4232129e-07
7.4243723e-07
7.42654e-07
7.4302036e-07
7.4270191e-07
7.4262736e-07
7.426491e-07
7.4261986e-07
7.4261229e-07
7.4277563e-07
7.4312149e-07
7.4378079e-07
7.4469978e-07
7.4574863e-07
7.4687728e-07
7.4805628e-07
7.4927092e-07
7.5052081e-07
7.5181351e-07
7.5317086e-07
7.5458821e-07
7.5617397e-07
7.5767221e-07
7.5983827e-07
7.6064708e-07
7.633e-07
7.6658934e-07
7.7005563e-07
7.7434423e-07
7.7917555e-07
7.8550093e-07
7.9334324e-07
8.0267729e-07
8.1369014e-07
8.2644761e-07
8.4096756e-07
8.5728778e-07
8.7553385e-07
8.9595933e-07
9.1894675e-07
9.4491191e-07
9.7454769e-07
1.0070253e-06
1.042301e-06
1.0803405e-06
1.1211941e-06
1.1650434e-06
1.2121707e-06
1.2629372e-06
1.3178065e-06
1.3773321e-06
1.4423352e-06
1.513135e-06
8.75043e-07
8.5999219e-07
8.4711475e-07
8.3637117e-07
8.273444e-07
8.1963142e-07
8.1292809e-07
8.0701819e-07
8.0174739e-07
7.9700274e-07
7.9269921e-07
7.8877121e-07
7.8516706e-07
7.8184525e-07
7.7877201e-07
7.7591945e-07
7.7326432e-07
7.7078702e-07
7.6847098e-07
7.6630206e-07
7.6426818e-07
7.6235898e-07
7.6056552e-07
7.5888011e-07
7.5729606e-07
7.5580759e-07
7.5440966e-07
7.5309791e-07
7.5186857e-07
7.5071837e-07
7.4964454e-07
7.4864471e-07
7.4771688e-07
7.468594e-07
7.460709e-07
7.4535028e-07
7.4469666e-07
7.4410936e-07
7.4358789e-07
7.4313189e-07
7.4274111e-07
7.4241539e-07
7.4215459e-07
7.4195857e-07
7.4182716e-07
7.4176007e-07
7.4175695e-07
7.4181779e-07
7.4190478e-07
7.4199439e-07
7.4210384e-07
7.4218686e-07
7.4221058e-07
7.4235925e-07
7.4243131e-07
7.4244509e-07
7.4257235e-07
7.4279456e-07
7.4307081e-07
7.4338534e-07
7.4380099e-07
7.4440627e-07
7.4531737e-07
7.4653553e-07
7.4783948e-07
7.4915097e-07
7.5044887e-07
7.5173504e-07
7.5302592e-07
7.543476e-07
7.557317e-07
7.5721283e-07
7.5882946e-07
7.6062386e-07
7.6264212e-07
7.6494994e-07
7.6757624e-07
7.7048615e-07
7.736973e-07
7.7728318e-07
7.812803e-07
7.8587194e-07
7.913454e-07
7.9796364e-07
8.0605798e-07
8.1597762e-07
8.2803286e-07
8.4245054e-07
8.5936589e-07
8.7885223e-07
9.0099515e-07
9.2587191e-07
9.5386712e-07
9.8482689e-07
1.0173163e-06
1.0513808e-06
1.0873869e-06
1.1257224e-06
1.1667461e-06
1.2108144e-06
1.2581777e-06
1.3096688e-06
1.3632592e-06
1.4319916e-06
8.7502857e-07
8.5998665e-07
8.4711618e-07
8.3637767e-07
8.2735454e-07
8.1964418e-07
8.1294266e-07
8.0703391e-07
8.0176362e-07
7.9701881e-07
7.927144e-07
7.8878474e-07
7.8517806e-07
7.8185277e-07
7.78775e-07
7.7591677e-07
7.7325473e-07
7.7076921e-07
7.6844355e-07
7.6626354e-07
7.6421705e-07
7.6229364e-07
7.6048436e-07
7.5878146e-07
7.5717824e-07
7.5566891e-07
7.5424844e-07
7.5291247e-07
7.5165727e-07
7.5047963e-07
7.4937681e-07
7.4834654e-07
7.4738689e-07
7.464963e-07
7.4567349e-07
7.4491747e-07
7.4422746e-07
7.4360289e-07
7.4304335e-07
7.4254858e-07
7.4211841e-07
7.4175273e-07
7.4145144e-07
7.4121442e-07
7.4104147e-07
7.409323e-07
7.4088638e-07
7.4090219e-07
7.4098237e-07
7.4112194e-07
7.4134296e-07
7.4161583e-07
7.4167145e-07
7.4212601e-07
7.4247176e-07
7.4268912e-07
7.4305423e-07
7.4348721e-07
7.4396273e-07
7.4448802e-07
7.4506184e-07
7.456564e-07
7.4652231e-07
7.4741765e-07
7.4830404e-07
7.4918077e-07
7.5005197e-07
7.5092549e-07
7.5181553e-07
7.5274259e-07
7.5373276e-07
7.5481237e-07
7.5602489e-07
7.5735618e-07
7.5907642e-07
7.6122643e-07
7.6363421e-07
7.6623e-07
7.6919264e-07
7.7264158e-07
7.7719454e-07
7.8250844e-07
7.8855669e-07
7.9536504e-07
8.0302006e-07
8.1169489e-07
8.2165974e-07
8.3326339e-07
8.4689008e-07
8.629046e-07
8.8162241e-07
9.0326428e-07
9.2803397e-07
9.5613041e-07
9.8733188e-07
1.0205541e-06
1.0548689e-06
1.0903141e-06
1.127208e-06
1.1660219e-06
1.2069732e-06
1.2514678e-06
1.2957949e-06
1.3565359e-06
8.7501737e-07
8.5998405e-07
8.471204e-07
8.3638684e-07
8.2736735e-07
8.1965978e-07
8.1296058e-07
8.0705388e-07
8.0178554e-07
7.970427e-07
7.9274041e-07
7.8881309e-07
7.8520906e-07
7.8188682e-07
7.7881256e-07
7.7595837e-07
7.7330096e-07
7.7082073e-07
7.6850106e-07
7.6632781e-07
7.6428888e-07
7.6237387e-07
7.6057387e-07
7.5888114e-07
7.5728902e-07
7.5579171e-07
7.5438419e-07
7.530621e-07
7.518217e-07
7.5065974e-07
7.4957348e-07
7.485606e-07
7.4761913e-07
7.4674746e-07
7.4594425e-07
7.4520844e-07
7.4453919e-07
7.4393584e-07
7.433979e-07
7.4292503e-07
7.4251695e-07
7.4217346e-07
7.4189436e-07
7.4167942e-07
7.4152832e-07
7.4144068e-07
7.4141581e-07
7.4145278e-07
7.4154996e-07
7.4170497e-07
7.4191011e-07
7.4218166e-07
7.4253802e-07
7.4285036e-07
7.4328835e-07
7.4383101e-07
7.4434519e-07
7.4487571e-07
7.4547439e-07
7.4612692e-07
7.4679032e-07
7.4746935e-07
7.4813371e-07
7.4880626e-07
7.494954e-07
7.5020505e-07
7.5093612e-07
7.5169095e-07
7.5247726e-07
7.5330907e-07
7.5420606e-07
7.5519234e-07
7.5629778e-07
7.5755206e-07
7.590173e-07
7.6065224e-07
7.6291647e-07
7.654463e-07
7.6796856e-07
7.7080249e-07
7.7443225e-07
7.7884937e-07
7.8415446e-07
7.9045112e-07
7.9781502e-07
8.0629607e-07
8.1594404e-07
8.2684596e-07
8.3916021e-07
8.5313079e-07
8.6907972e-07
8.8737043e-07
9.0836288e-07
9.3237883e-07
9.5989458e-07
9.9037724e-07
1.0226124e-06
1.0561466e-06
1.0907908e-06
1.12664e-06
1.1636015e-06
1.2030455e-06
1.2414329e-06
1.2928848e-06
8.7500927e-07
8.599843e-07
8.4712711e-07
8.3639828e-07
8.2738224e-07
8.1967724e-07
8.1297999e-07
8.0707482e-07
8.0180764e-07
7.9706564e-07
7.9276386e-07
7.8883671e-07
7.8523251e-07
7.819097e-07
7.7883447e-07
7.7597887e-07
7.7331956e-07
7.708369e-07
7.6851426e-07
7.6633743e-07
7.6429431e-07
7.6237448e-07
7.6056898e-07
7.5887008e-07
7.5727109e-07
7.5576619e-07
7.5435036e-07
7.5301922e-07
7.5176902e-07
7.5059653e-07
7.4949901e-07
7.4847412e-07
7.4751993e-07
7.4663482e-07
7.4581747e-07
7.4506682e-07
7.4438205e-07
7.437625e-07
7.4320772e-07
7.4271734e-07
7.4229111e-07
7.4192881e-07
7.4163024e-07
7.4139515e-07
7.4122321e-07
7.4111398e-07
7.4106679e-07
7.4108043e-07
7.4115481e-07
7.4128779e-07
7.4148023e-07
7.4172471e-07
7.4202144e-07
7.4237081e-07
7.4275811e-07
7.4320011e-07
7.4367169e-07
7.4416944e-07
7.4470293e-07
7.4527152e-07
7.4586227e-07
7.4646521e-07
7.4707922e-07
7.4769559e-07
7.4831813e-07
7.4895196e-07
7.4959828e-07
7.502586e-07
7.5093864e-07
7.5164962e-07
7.5240782e-07
7.532343e-07
7.5415314e-07
7.5519918e-07
7.5638839e-07
7.5784834e-07
7.596733e-07
7.6170643e-07
7.6407514e-07
7.6702306e-07
7.705533e-07
7.7472977e-07
7.7964434e-07
7.8541186e-07
7.9216206e-07
8.0002371e-07
8.0910759e-07
8.1949861e-07
8.3126433e-07
8.4447957e-07
8.5925912e-07
8.7578489e-07
8.9431806e-07
9.1515965e-07
9.3871378e-07
9.6557639e-07
9.9441793e-07
1.0249136e-06
1.056873e-06
1.0901994e-06
1.1245228e-06
1.1606933e-06
1.1957232e-06
1.2405186e-06
8.7500415e-07
8.599871e-07
8.471362e-07
8.3641194e-07
8.2739923e-07
8.1969675e-07
8.1300153e-07
8.0709803e-07
8.0183234e-07
7.970917e-07
7.9279124e-07
7.8886541e-07
7.8526259e-07
7.8194125e-07
7.7886762e-07
7.7601377e-07
7.7335642e-07
7.7087595e-07
7.6855574e-07
7.6638163e-07
7.6434152e-07
7.6242501e-07
7.6062317e-07
7.5892825e-07
7.5733359e-07
7.5583335e-07
7.5442251e-07
7.5309669e-07
7.5185213e-07
7.5068557e-07
7.4959425e-07
7.4857583e-07
7.4762833e-07
7.467501e-07
7.459398e-07
7.4519633e-07
7.4451882e-07
7.4390659e-07
7.4335913e-07
7.4287603e-07
7.4245698e-07
7.4210172e-07
7.4180997e-07
7.4158144e-07
7.4141572e-07
7.413123e-07
7.4127043e-07
7.4128902e-07
7.413672e-07
7.4150299e-07
7.4169218e-07
7.4194209e-07
7.4224069e-07
7.4257128e-07
7.4296724e-07
7.4342163e-07
7.4389008e-07
7.4437964e-07
7.4490979e-07
7.4547643e-07
7.4605757e-07
7.4664607e-07
7.472331e-07
7.4781953e-07
7.4841142e-07
7.4901133e-07
7.4961883e-07
7.5023464e-07
7.5086361e-07
7.515157e-07
7.5220583e-07
7.5295352e-07
7.5378288e-07
7.5472308e-07
7.5580923e-07
7.570848e-07
7.5859038e-07
7.6036631e-07
7.6245554e-07
7.6494641e-07
7.679325e-07
7.7151415e-07
7.7579633e-07
7.8088831e-07
7.8690592e-07
7.9397315e-07
8.0221907e-07
8.1176882e-07
8.2273171e-07
8.3519295e-07
8.492161e-07
8.6485964e-07
8.8220459e-07
9.01389e-07
9.2255011e-07
9.4625263e-07
9.7206814e-07
9.9930922e-07
1.0279284e-06
1.0580103e-06
1.0893255e-06
1.122465e-06
1.1548787e-06
1.1953759e-06
8.7500171e-07
8.5999237e-07
8.4714742e-07
8.3642754e-07
8.2741804e-07
8.1971799e-07
8.1302465e-07
8.071227e-07
8.0185828e-07
7.971187e-07
7.9281911e-07
7.8889397e-07
7.8529166e-07
7.8197067e-07
7.788972e-07
7.7604333e-07
7.7338575e-07
7.7090482e-07
7.6858392e-07
7.6640888e-07
7.6436758e-07
7.6244963e-07
7.6064605e-07
7.5894913e-07
7.5735216e-07
7.5584931e-07
7.5443556e-07
7.531065e-07
7.5185838e-07
7.5068793e-07
7.495924e-07
7.4856942e-07
7.4761702e-07
7.4673355e-07
7.4591767e-07
7.4516827e-07
7.4448448e-07
7.4386561e-07
7.4331114e-07
7.4282065e-07
7.4239382e-07
7.4203035e-07
7.4172995e-07
7.414923e-07
7.4131696e-07
7.4120336e-07
7.4115073e-07
7.4115792e-07
7.4122398e-07
7.4134727e-07
7.4152521e-07
7.4175836e-07
7.4204304e-07
7.4236605e-07
7.4273789e-07
7.4315927e-07
7.4360692e-07
7.4407802e-07
7.4457909e-07
7.4510746e-07
7.4565076e-07
7.4620139e-07
7.4675298e-07
7.4730277e-07
7.4785094e-07
7.4839809e-07
7.489442e-07
7.4949021e-07
7.5004028e-07
7.5060289e-07
7.5119102e-07
7.5182196e-07
7.5251738e-07
7.5330359e-07
7.5421269e-07
7.5528093e-07
7.565632e-07
7.5812157e-07
7.6001866e-07
7.6231743e-07
7.6508502e-07
7.683947e-07
7.7232824e-07
7.7697715e-07
7.8244309e-07
7.8883819e-07
7.9628504e-07
8.0491532e-07
8.1486507e-07
8.2626571e-07
8.3923206e-07
8.5385324e-07
8.7018817e-07
8.8829323e-07
9.0818832e-07
9.3001158e-07
9.540307e-07
9.7905369e-07
1.0049495e-06
1.0318945e-06
1.0598889e-06
1.0895874e-06
1.1189297e-06
1.1555165e-06
8.7500183e-07
8.5999977e-07
8.4716062e-07
8.3644495e-07
8.2743852e-07
8.1974078e-07
8.1304929e-07
8.0714885e-07
8.0188574e-07
7.9714731e-07
7.9284875e-07
7.8892459e-07
7.8532322e-07
7.8200315e-07
7.789306e-07
7.7607768e-07
7.7342108e-07
7.7094119e-07
7.686214e-07
7.6644754e-07
7.6440751e-07
7.6249093e-07
7.6068883e-07
7.5899349e-07
7.5739821e-07
7.5589715e-07
7.5448527e-07
7.5315819e-07
7.519121e-07
7.5074374e-07
7.4965035e-07
7.4862953e-07
7.476793e-07
7.4679799e-07
7.4598423e-07
7.4523689e-07
7.4455507e-07
7.4393805e-07
7.4338527e-07
7.428963e-07
7.4247076e-07
7.4210834e-07
7.418087e-07
7.4157147e-07
7.4139617e-07
7.4128219e-07
7.4122871e-07
7.4123456e-07
7.4129866e-07
7.4141924e-07
7.4159344e-07
7.4182195e-07
7.4209942e-07
7.4241629e-07
7.4278236e-07
7.4319581e-07
7.4363488e-07
7.4409591e-07
7.4458504e-07
7.4509977e-07
7.4562749e-07
7.4615941e-07
7.4668879e-07
7.4721218e-07
7.4772967e-07
7.4824197e-07
7.4874884e-07
7.4925081e-07
7.4975128e-07
7.5025769e-07
7.5078177e-07
7.5133954e-07
7.5195138e-07
7.5264244e-07
7.5344305e-07
7.5439115e-07
7.5552177e-07
7.5687778e-07
7.5851429e-07
7.6049682e-07
7.6290002e-07
7.658056e-07
7.6930043e-07
7.7347518e-07
7.7842358e-07
7.8424265e-07
7.9103376e-07
7.9890429e-07
8.0796944e-07
8.1835263e-07
8.3018206e-07
8.4358314e-07
8.5866486e-07
8.7551266e-07
8.9418819e-07
9.1466441e-07
9.3723586e-07
9.6111958e-07
9.8558523e-07
1.0105965e-06
1.0361454e-06
1.0628751e-06
1.0891996e-06
1.1216415e-06
8.7500385e-07
8.6000891e-07
8.4717525e-07
8.3646363e-07
8.2746019e-07
8.1976472e-07
8.13075e-07
8.0717605e-07
8.0191419e-07
7.9717684e-07
7.9287922e-07
7.8895586e-07
7.8535519e-07
7.8203572e-07
7.7896368e-07
7.7611116e-07
7.7345486e-07
7.7097517e-07
7.6865545e-07
7.6648156e-07
7.6444138e-07
7.6252452e-07
7.6072203e-07
7.5902616e-07
7.574302e-07
7.5592832e-07
7.5451546e-07
7.5318722e-07
7.5193981e-07
7.5076996e-07
7.4967488e-07
7.4865218e-07
7.4769988e-07
7.4681628e-07
7.4600001e-07
7.4524993e-07
7.4456512e-07
7.4394487e-07
7.4338859e-07
7.4289583e-07
7.4246622e-07
7.420994e-07
7.4179503e-07
7.4155269e-07
7.4137188e-07
7.4125194e-07
7.4119203e-07
7.4119096e-07
7.4124749e-07
7.4135998e-07
7.415256e-07
7.4174433e-07
7.4201188e-07
7.4231954e-07
7.4267201e-07
7.4306817e-07
7.4349211e-07
7.4393806e-07
7.444079e-07
7.4489874e-07
7.4540064e-07
7.4590541e-07
7.4640642e-07
7.4689946e-07
7.4738298e-07
7.4785621e-07
7.4831826e-07
7.4876923e-07
7.4921188e-07
7.496526e-07
7.5010179e-07
7.505739e-07
7.5108762e-07
7.5166612e-07
7.5233775e-07
7.5313579e-07
7.5410443e-07
7.5529321e-07
7.5675582e-07
7.5855037e-07
7.6073972e-07
7.6339241e-07
7.665834e-07
7.703944e-07
7.749134e-07
7.8023359e-07
7.8645189e-07
7.9366781e-07
8.019831e-07
8.1150276e-07
8.2233661e-07
8.3459992e-07
8.4841138e-07
8.6388164e-07
8.8112194e-07
9.0016549e-07
9.21144e-07
9.4400735e-07
9.6755507e-07
9.9151349e-07
1.0157243e-06
1.0406242e-06
1.064906e-06
1.0938924e-06
8.750075e-07
8.6001937e-07
8.4719115e-07
8.3648348e-07
8.2748292e-07
8.1978964e-07
8.1310169e-07
8.0720418e-07
8.0194355e-07
7.9720727e-07
7.929106e-07
7.8898811e-07
7.8538824e-07
7.8206951e-07
7.7899818e-07
7.7614633e-07
7.7349068e-07
7.7101162e-07
7.6869254e-07
7.6651928e-07
7.6447974e-07
7.6256353e-07
7.607617e-07
7.5906651e-07
7.5747125e-07
7.5597006e-07
7.5455789e-07
7.5323034e-07
7.5198359e-07
7.5081437e-07
7.4971986e-07
7.486977e-07
7.4774584e-07
7.4686261e-07
7.460466e-07
7.4529666e-07
7.4461185e-07
7.4399142e-07
7.4343479e-07
7.4294148e-07
7.4251107e-07
7.4214319e-07
7.4183747e-07
7.4159346e-07
7.4141062e-07
7.4128825e-07
7.4122548e-07
7.412211e-07
7.4127377e-07
7.4138183e-07
7.4154249e-07
7.4175509e-07
7.4201546e-07
7.4231638e-07
7.4266056e-07
7.430461e-07
7.4345949e-07
7.4389455e-07
7.443516e-07
7.448274e-07
7.4531263e-07
7.4579884e-07
7.4627928e-07
7.4674922e-07
7.4720625e-07
7.4764904e-07
7.4807647e-07
7.4848842e-07
7.4888714e-07
7.4927825e-07
7.4967114e-07
7.5007915e-07
7.5051975e-07
7.5101486e-07
7.5159136e-07
7.5228193e-07
7.5312152e-07
7.5415188e-07
7.5542239e-07
7.5699046e-07
7.5892017e-07
7.6128152e-07
7.641494e-07
7.6760279e-07
7.7172426e-07
7.7659961e-07
7.8231749e-07
7.8896879e-07
7.9664582e-07
8.0544169e-07
8.1545038e-07
8.2676751e-07
8.3949267e-07
8.5372697e-07
8.6957714e-07
8.8714224e-07
9.0646336e-07
9.2784116e-07
9.5033714e-07
9.7336979e-07
9.9667205e-07
1.0204895e-06
1.0436484e-06
1.0704814e-06
8.7501305e-07
8.6003147e-07
8.472083e-07
8.3650437e-07
8.2750658e-07
8.1981542e-07
8.1312913e-07
8.0723303e-07
8.019736e-07
7.9723835e-07
7.929426e-07
7.8902093e-07
7.8542178e-07
7.8210371e-07
7.7903297e-07
7.7618165e-07
7.7352646e-07
7.7104779e-07
7.6872902e-07
7.6655601e-07
7.6451666e-07
7.6260057e-07
7.6079879e-07
7.5910356e-07
7.5750819e-07
7.560068e-07
7.5459433e-07
7.5326636e-07
7.5201909e-07
7.5084921e-07
7.4975394e-07
7.4873085e-07
7.4777792e-07
7.4689346e-07
7.4607604e-07
7.4532451e-07
7.4463791e-07
7.4401549e-07
7.4345664e-07
7.4296087e-07
7.4252775e-07
7.4215689e-07
7.4184787e-07
7.4160025e-07
7.4141343e-07
7.4128671e-07
7.4121916e-07
7.4120954e-07
7.4125647e-07
7.4135823e-07
7.4151209e-07
7.4171698e-07
7.4196901e-07
7.4226168e-07
7.4259573e-07
7.4296898e-07
7.4337018e-07
7.4379261e-07
7.4423471e-07
7.4469281e-07
7.4515857e-07
7.4562378e-07
7.4608162e-07
7.4652689e-07
7.4695645e-07
7.4736823e-07
7.4776061e-07
7.4813304e-07
7.4848716e-07
7.4882779e-07
7.4916332e-07
7.4950594e-07
7.4987186e-07
7.5028157e-07
7.5076045e-07
7.5133861e-07
7.5205342e-07
7.5294777e-07
7.5406935e-07
7.5547117e-07
7.5721129e-07
7.5935292e-07
7.6196448e-07
7.6511944e-07
7.688958e-07
7.7337537e-07
7.7864285e-07
7.847848e-07
7.9188864e-07
8.0004168e-07
8.0933022e-07
8.1983895e-07
8.3165141e-07
8.4485126e-07
8.5952051e-07
8.757587e-07
8.9360203e-07
9.1328017e-07
9.3450949e-07
9.5641163e-07
9.7868187e-07
1.0014947e-06
1.0237754e-06
1.0492976e-06
8.7501957e-07
8.600443e-07
8.4722616e-07
8.365259e-07
8.2753081e-07
8.198417e-07
8.1315708e-07
8.0726236e-07
8.0200411e-07
7.9726991e-07
7.9297508e-07
7.8905424e-07
7.8545586e-07
7.8213849e-07
7.7906839e-07
7.7621766e-07
7.7356302e-07
7.7108485e-07
7.6876656e-07
7.6659401e-07
7.6455508e-07
7.626394e-07
7.60838e-07
7.5914315e-07
7.5754811e-07
7.5604702e-07
7.5463481e-07
7.5330705e-07
7.5205993e-07
7.5089014e-07
7.4979487e-07
7.487717e-07
7.4781858e-07
7.4693381e-07
7.4611596e-07
7.4536384e-07
7.4467649e-07
7.4405315e-07
7.4349318e-07
7.4299607e-07
7.4256138e-07
7.4218868e-07
7.4187755e-07
7.416275e-07
7.4143792e-07
7.4130805e-07
7.4123695e-07
7.4122336e-07
7.4126582e-07
7.4136258e-07
7.4151096e-07
7.417095e-07
7.4195446e-07
7.4223998e-07
7.4256554e-07
7.4292853e-07
7.4331919e-07
7.4373069e-07
7.4416037e-07
7.4460412e-07
7.4505401e-07
7.4550196e-07
7.45941e-07
7.4636562e-07
7.4677203e-07
7.4715761e-07
7.4752036e-07
7.4785944e-07
7.481761e-07
7.4847453e-07
7.4876235e-07
7.4905083e-07
7.4935513e-07
7.4969465e-07
7.500934e-07
7.5058059e-07
7.5118897e-07
7.5195755e-07
7.5293151e-07
7.5416215e-07
7.5570648e-07
7.5762663e-07
7.5998917e-07
7.6286472e-07
7.6632722e-07
7.7045347e-07
7.7532252e-07
7.8101504e-07
7.8761252e-07
7.9519655e-07
8.0384782e-07
8.136452e-07
8.2466465e-07
8.3697962e-07
8.5065807e-07
8.6577371e-07
8.8238637e-07
9.005471e-07
9.2053505e-07
9.4126632e-07
9.6236757e-07
9.8401095e-07
1.0052408e-06
1.0295365e-06
8.7502713e-07
8.6005802e-07
8.4724466e-07
8.3654797e-07
8.2755554e-07
8.1986848e-07
8.131855e-07
8.0729216e-07
8.020351e-07
7.9730194e-07
7.9300803e-07
7.8908802e-07
7.8549038e-07
7.8217369e-07
7.7910422e-07
7.7625405e-07
7.735999e-07
7.7112219e-07
7.6880428e-07
7.6663206e-07
7.6459342e-07
7.6267798e-07
7.6087677e-07
7.5918204e-07
7.5758707e-07
7.5608598e-07
7.5467368e-07
7.5334575e-07
7.5209835e-07
7.5092819e-07
7.4983242e-07
7.4880864e-07
7.4785477e-07
7.469691e-07
7.4615018e-07
7.4539681e-07
7.4470804e-07
7.4408307e-07
7.4352126e-07
7.4302208e-07
7.4258507e-07
7.4220978e-07
7.4189577e-07
7.4164252e-07
7.4144939e-07
7.4131562e-07
7.4124021e-07
7.4122187e-07
7.4125912e-07
7.4135014e-07
7.4149229e-07
7.4168383e-07
7.4192115e-07
7.4219879e-07
7.4251531e-07
7.4286773e-07
7.4324738e-07
7.4364734e-07
7.4406401e-07
7.4449287e-07
7.4492639e-07
7.4535661e-07
7.4577648e-07
7.4618024e-07
7.4656357e-07
7.4692338e-07
7.4725733e-07
7.4756421e-07
7.4784485e-07
7.4810282e-07
7.4834497e-07
7.485817e-07
7.488272e-07
7.4909976e-07
7.4942218e-07
7.4982206e-07
7.5033216e-07
7.5099076e-07
7.5184133e-07
7.5293237e-07
7.5431731e-07
7.5605428e-07
7.5820596e-07
7.6083913e-07
7.6402412e-07
7.6783431e-07
7.7234519e-07
7.7763347e-07
7.837763e-07
7.9085045e-07
7.9893156e-07
8.0809339e-07
8.1840686e-07
8.299394e-07
8.4275404e-07
8.5690695e-07
8.7246597e-07
8.8942124e-07
9.080461e-07
9.2774093e-07
9.4781311e-07
9.6834988e-07
9.884932e-07
1.0114305e-06
8.7503582e-07
8.6007263e-07
8.47264e-07
8.3657077e-07
8.2758091e-07
8.1989583e-07
8.1321446e-07
8.0732247e-07
8.0206658e-07
7.9733445e-07
7.9304146e-07
7.8912228e-07
7.855254e-07
7.822094e-07
7.7914054e-07
7.7629094e-07
7.736373e-07
7.7116004e-07
7.6884255e-07
7.666707e-07
7.646324e-07
7.6271726e-07
7.6091632e-07
7.5922182e-07
7.5762702e-07
7.5612605e-07
7.5471381e-07
7.5338586e-07
7.5213837e-07
7.5096801e-07
7.4987196e-07
7.4884778e-07
7.4789341e-07
7.4700708e-07
7.4618735e-07
7.4543301e-07
7.4474308e-07
7.4411675e-07
7.4355337e-07
7.4305239e-07
7.4261333e-07
7.4223573e-07
7.419191e-07
7.4166291e-07
7.4146651e-07
7.4132907e-07
7.4124959e-07
7.4122676e-07
7.4125903e-07
7.4134456e-07
7.4148072e-07
7.4166554e-07
7.4189548e-07
7.4216541e-07
7.4247319e-07
7.4281554e-07
7.4318456e-07
7.4357338e-07
7.4397772e-07
7.4439272e-07
7.4481105e-07
7.4522488e-07
7.4562709e-07
7.4601169e-07
7.4637402e-07
7.467105e-07
7.4701846e-07
7.4729645e-07
7.475449e-07
7.4776695e-07
7.479688e-07
7.4816013e-07
7.4835428e-07
7.4856867e-07
7.488247e-07
7.4914921e-07
7.495728e-07
7.5013109e-07
7.5086574e-07
7.5182352e-07
7.5305622e-07
7.5462021e-07
7.5657606e-07
7.5898793e-07
7.6192307e-07
7.6545102e-07
7.6964333e-07
7.7457255e-07
7.8031146e-07
7.8693238e-07
7.9450633e-07
8.031023e-07
8.1278659e-07
8.2362172e-07
8.3566712e-07
8.4897261e-07
8.6359831e-07
8.7955128e-07
8.9695159e-07
9.1571457e-07
9.3488609e-07
9.5445501e-07
9.7363834e-07
9.9524584e-07
8.7504566e-07
8.6008818e-07
8.4728403e-07
8.3659417e-07
8.2760684e-07
8.1992371e-07
8.1324392e-07
8.0735327e-07
8.0209855e-07
7.9736743e-07
7.9307534e-07
7.8915697e-07
7.8556082e-07
7.8224548e-07
7.7917723e-07
7.7632816e-07
7.7367501e-07
7.7119816e-07
7.6888104e-07
7.667095e-07
7.6467147e-07
7.6275655e-07
7.6095578e-07
7.5926139e-07
7.5766664e-07
7.5616564e-07
7.5475328e-07
7.5342513e-07
7.5217733e-07
7.5100656e-07
7.4990997e-07
7.4888511e-07
7.4792991e-07
7.4704262e-07
7.4622175e-07
7.4546607e-07
7.447746e-07
7.4414651e-07
7.4358114e-07
7.4307792e-07
7.4263634e-07
7.4225593e-07
7.4193618e-07
7.4167653e-07
7.4147629e-07
7.4133463e-07
7.4125049e-07
7.4122255e-07
7.4124922e-07
7.4132861e-07
7.4145811e-07
7.4163555e-07
7.4185745e-07
7.4211892e-07
7.4241729e-07
7.4274901e-07
7.4310676e-07
7.4348372e-07
7.4387507e-07
7.4427564e-07
7.4467828e-07
7.4507525e-07
7.4545938e-07
7.4582452e-07
7.4616568e-07
7.4647899e-07
7.4676153e-07
7.4701146e-07
7.4722896e-07
7.4741672e-07
7.4758041e-07
7.4772903e-07
7.4787516e-07
7.4803539e-07
7.4823017e-07
7.4848501e-07
7.4882988e-07
7.4929938e-07
7.4993355e-07
7.507771e-07
7.5187938e-07
7.5329413e-07
7.5507912e-07
7.572957e-07
7.6000831e-07
7.632837e-07
7.6719034e-07
7.7179728e-07
7.7717398e-07
7.8338906e-07
7.9050961e-07
7.9860044e-07
8.0772354e-07
8.1793698e-07
8.2929565e-07
8.4184709e-07
8.5563891e-07
8.7070752e-07
8.8705557e-07
9.0491429e-07
9.2332636e-07
9.4209506e-07
9.6049084e-07
9.8094624e-07
8.7505638e-07
8.6010441e-07
8.4730465e-07
8.3661803e-07
8.2763312e-07
8.1995189e-07
8.1327367e-07
8.0738434e-07
8.0213075e-07
7.9740065e-07
7.9310947e-07
7.891919e-07
7.8559649e-07
7.8228181e-07
7.7921414e-07
7.7636559e-07
7.7371288e-07
7.7123643e-07
7.6891964e-07
7.6674838e-07
7.6471058e-07
7.6279584e-07
7.609952e-07
7.5930088e-07
7.5770613e-07
7.5620505e-07
7.5479253e-07
7.5346411e-07
7.5221594e-07
7.5104468e-07
7.4994747e-07
7.4892186e-07
7.4796574e-07
7.4707737e-07
7.4625526e-07
7.4549813e-07
7.4480497e-07
7.4417497e-07
7.4360743e-07
7.4310176e-07
7.4265744e-07
7.4227396e-07
7.419508e-07
7.4168736e-07
7.4148294e-07
7.4133665e-07
7.4124743e-07
7.412139e-07
7.4123444e-07
7.4130713e-07
7.4142935e-07
7.4159878e-07
7.4181196e-07
7.4206418e-07
7.4235238e-07
7.4267277e-07
7.4301845e-07
7.4338268e-07
7.4376026e-07
7.4414576e-07
7.4453213e-07
7.4491174e-07
7.4527739e-07
7.456228e-07
7.4594276e-07
7.4623312e-07
7.464907e-07
7.4671358e-07
7.4690152e-07
7.4705693e-07
7.4718503e-07
7.4729426e-07
7.4739658e-07
7.4750781e-07
7.4764757e-07
7.4784036e-07
7.4811471e-07
7.485038e-07
7.4904608e-07
7.4978468e-07
7.5076729e-07
7.5204583e-07
7.5367606e-07
7.5571706e-07
7.5823065e-07
7.612808e-07
7.6493292e-07
7.6925315e-07
7.7430719e-07
7.8016045e-07
7.8687659e-07
7.9451689e-07
8.031396e-07
8.1279906e-07
8.2354583e-07
8.3542504e-07
8.4847594e-07
8.6274295e-07
8.7820898e-07
8.9506924e-07
9.1278609e-07
9.3088491e-07
9.4864701e-07
9.6818258e-07
8.7506741e-07
8.6012085e-07
8.4732538e-07
8.3664203e-07
8.2765959e-07
8.1998027e-07
8.133036e-07
8.074156e-07
8.0216317e-07
7.9743407e-07
7.9314377e-07
7.8922699e-07
7.8563227e-07
7.8231822e-07
7.792511e-07
7.7640303e-07
7.7375072e-07
7.7127459e-07
7.6895806e-07
7.66787e-07
7.6474933e-07
7.6283466e-07
7.6103402e-07
7.5933962e-07
7.5774471e-07
7.5624338e-07
7.5483049e-07
7.5350158e-07
7.5225279e-07
7.5108077e-07
7.4998265e-07
7.4895594e-07
7.4799856e-07
7.4710871e-07
7.462849e-07
7.455259e-07
7.448306e-07
7.4419816e-07
7.4362788e-07
7.4311916e-07
7.4267143e-07
7.4228418e-07
7.4195684e-07
7.4168879e-07
7.4147929e-07
7.4132743e-07
7.4123209e-07
7.4119188e-07
7.4120512e-07
7.4126984e-07
7.4138343e-07
7.4154344e-07
7.4174639e-07
7.4198773e-07
7.4226407e-07
7.4257144e-07
7.4290324e-07
7.432528e-07
7.4361463e-07
7.439831e-07
7.4435123e-07
7.4471147e-07
7.4505665e-07
7.4538039e-07
7.4567731e-07
7.4594309e-07
7.4617439e-07
7.463691e-07
7.4652695e-07
7.4665002e-07
7.46743e-07
7.4681397e-07
7.4687436e-07
7.469394e-07
7.4702797e-07
7.4716361e-07
7.4737404e-07
7.4769144e-07
7.481529e-07
7.4879993e-07
7.4967834e-07
7.50838e-07
7.5233252e-07
7.5421869e-07
7.5655598e-07
7.5940588e-07
7.628312e-07
7.6689541e-07
7.7166166e-07
7.7719233e-07
7.8354741e-07
7.9078535e-07
7.989613e-07
8.0812642e-07
8.1832771e-07
8.296072e-07
8.4200069e-07
8.5554516e-07
8.7024608e-07
8.8618219e-07
9.0323171e-07
9.2069571e-07
9.3787414e-07
9.5662624e-07
8.7507929e-07
8.6013793e-07
8.4734662e-07
8.3666637e-07
8.2768626e-07
8.2000879e-07
8.1333365e-07
8.0744696e-07
8.0219564e-07
7.9746753e-07
7.931781e-07
7.8926209e-07
7.8566805e-07
7.8235457e-07
7.7928795e-07
7.7644027e-07
7.7378827e-07
7.7131237e-07
7.6899598e-07
7.6682499e-07
7.6478732e-07
7.6287257e-07
7.6107176e-07
7.5937711e-07
7.5778182e-07
7.5628e-07
7.5486649e-07
7.5353682e-07
7.522871e-07
7.5111398e-07
7.5001457e-07
7.4898639e-07
7.4802729e-07
7.471355e-07
7.4630949e-07
7.45548e-07
7.4485e-07
7.4421449e-07
7.4364078e-07
7.4312823e-07
7.4267626e-07
7.4228431e-07
7.4195178e-07
7.4167802e-07
7.4146223e-07
7.4130348e-07
7.412006e-07
7.4115215e-07
7.4115641e-07
7.4121135e-07
7.4131435e-07
7.4146283e-07
7.416533e-07
7.418813e-07
7.4214319e-07
7.4243482e-07
7.4274985e-07
7.4308164e-07
7.4342453e-07
7.4377268e-07
7.441192e-07
7.4445665e-07
7.4477789e-07
7.4507651e-07
7.4534707e-07
7.4558511e-07
7.4578722e-07
7.4595124e-07
7.4607681e-07
7.4616583e-07
7.4622298e-07
7.462557e-07
7.4627515e-07
7.4629602e-07
7.4633663e-07
7.4641972e-07
7.4657204e-07
7.4682473e-07
7.4721359e-07
7.4777876e-07
7.4856447e-07
7.4961887e-07
7.509937e-07
7.5274371e-07
7.5492611e-07
7.576e-07
7.6082572e-07
7.646641e-07
7.6917568e-07
7.7442006e-07
7.8045496e-07
7.8733588e-07
7.9511406e-07
8.0383848e-07
8.1355352e-07
8.2429802e-07
8.3610665e-07
8.4900582e-07
8.6302681e-07
8.7814594e-07
8.9456449e-07
9.1147122e-07
9.2812165e-07
9.4616366e-07
8.750915e-07
8.6015519e-07
8.4736792e-07
8.3669076e-07
8.2771302e-07
8.2003739e-07
8.1336377e-07
8.0747835e-07
8.0222816e-07
7.9750099e-07
7.9321238e-07
7.8929707e-07
7.8570362e-07
7.8239064e-07
7.793244e-07
7.76477e-07
7.7382518e-07
7.7134935e-07
7.6903293e-07
7.668618e-07
7.648239e-07
7.6290881e-07
7.6110756e-07
7.5941232e-07
7.5781632e-07
7.5631362e-07
7.5489906e-07
7.5356815e-07
7.52317e-07
7.5114222e-07
7.5004092e-07
7.4901057e-07
7.4804904e-07
7.471545e-07
7.4632543e-07
7.4556052e-07
7.4485871e-07
7.4421912e-07
7.4364081e-07
7.4312316e-07
7.4266555e-07
7.4226738e-07
7.41928e-07
7.4164671e-07
7.4142268e-07
7.412549e-07
7.4114215e-07
7.4108295e-07
7.410755e-07
7.411177e-07
7.412069e-07
7.4134038e-07
7.4151464e-07
7.4172526e-07
7.419684e-07
7.4223974e-07
7.425331e-07
7.4284194e-07
7.4316041e-07
7.4348256e-07
7.4380157e-07
7.4411013e-07
7.4440117e-07
7.4466835e-07
7.4490623e-07
7.4511034e-07
7.4527732e-07
7.4540507e-07
7.4549328e-07
7.4554386e-07
7.4556137e-07
7.4555334e-07
7.4553062e-07
7.4550715e-07
7.4550101e-07
7.4553432e-07
7.4563315e-07
7.458278e-07
7.4615294e-07
7.4664732e-07
7.4735358e-07
7.483181e-07
7.4959068e-07
7.5122411e-07
7.532731e-07
7.5579585e-07
7.5884623e-07
7.6248723e-07
7.6677651e-07
7.717705e-07
7.775241e-07
7.8408976e-07
7.9151709e-07
7.9985047e-07
8.0913282e-07
8.1940064e-07
8.306877e-07
8.43014e-07
8.5641906e-07
8.7085688e-07
8.865207e-07
9.0291953e-07
9.1913507e-07
9.3659037e-07
8.7510409e-07
8.6017274e-07
8.4738945e-07
8.3671528e-07
8.2773979e-07
8.2006597e-07
8.1339383e-07
8.0750967e-07
8.0226052e-07
7.9753426e-07
7.932464e-07
7.893317e-07
7.8573874e-07
7.8242612e-07
7.793601e-07
7.7651279e-07
7.7386092e-07
7.713849e-07
7.6906817e-07
7.668966e-07
7.6485811e-07
7.629423e-07
7.6114016e-07
7.5944387e-07
7.5784662e-07
7.5634246e-07
7.5492621e-07
7.5359337e-07
7.5234001e-07
7.5116273e-07
7.5005861e-07
7.490251e-07
7.4806004e-07
7.4716158e-07
7.4632815e-07
7.4555842e-07
7.448513e-07
7.4420584e-07
7.4362127e-07
7.4309663e-07
7.4263129e-07
7.4222461e-07
7.4187589e-07
7.4158436e-07
7.4134911e-07
7.4116905e-07
7.4104289e-07
7.4096905e-07
7.4094566e-07
7.4097052e-07
7.410409e-07
7.4115396e-07
7.4130614e-07
7.4149302e-07
7.4171057e-07
7.4195432e-07
7.4221823e-07
7.4249579e-07
7.4278106e-07
7.4306803e-07
7.4334995e-07
7.436197e-07
7.4387038e-07
7.440958e-07
7.4429065e-07
7.4445064e-07
7.4457258e-07
7.4465464e-07
7.4469672e-07
7.4470094e-07
7.4467199e-07
7.4461749e-07
7.4454814e-07
7.4447825e-07
7.4442486e-07
7.4440985e-07
7.4445869e-07
7.4460089e-07
7.4487008e-07
7.4530376e-07
7.4594305e-07
7.468326e-07
7.4802068e-07
7.4955636e-07
7.5150137e-07
7.538643e-07
7.5692937e-07
7.602848e-07
7.6435347e-07
7.6912522e-07
7.7463528e-07
7.8092956e-07
7.8805427e-07
7.9605124e-07
8.0495923e-07
8.148092e-07
8.2563468e-07
8.3745437e-07
8.5030419e-07
8.6415563e-07
8.7910873e-07
8.9501073e-07
9.1080973e-07
9.2774523e-07
8.7511697e-07
8.6019036e-07
8.4741091e-07
8.3673969e-07
8.2776647e-07
8.2009442e-07
8.1342372e-07
8.0754075e-07
8.0229261e-07
7.9756714e-07
7.9327991e-07
7.8936568e-07
7.8577302e-07
7.8246053e-07
7.7939448e-07
7.7654696e-07