/*--------------------------------*- C++ -*----------------------------------*\
| =========                 |                                                 |
| \\      /  F ield         | OpenFOAM: The Open Source CFD Toolbox           |
|  \\    /   O peration     | Version:  2406                                  |
|   \\  /    A nd           | Website:  www.openfoam.com                      |
|    \\/     M anipulation  |                                                 |
\*---------------------------------------------------------------------------*/
FoamFile
{
    version     2.0;
    format      ascii;
    arch        "LSB;label=32;scalar=64";
    class       volScalarField;
    location    "1700";
    object      p;
}
// * * * * * * * * * * * * * * * * * * * * * * * * * * * * * * * * * * * * * //

dimensions      [1 -1 -2 0 0 0 0];

internalField   nonuniform List<scalar> 
132739
(
1.0029585
1.00297
1.002987
1.0030048
1.0030276
1.0030554
1.0030872
1.003123
1.0031628
1.0032066
1.0032541
1.0033054
1.0033602
1.0034187
1.0034808
1.0035463
1.0036153
1.0036876
1.0037634
1.0038424
1.0039248
1.0040103
1.0040991
1.0041911
1.0042861
1.0043842
1.0044854
1.0045894
1.0046964
1.0048062
1.0049188
1.0050341
1.0051519
1.0052723
1.0053951
1.0055202
1.0056475
1.0057769
1.0059082
1.0060414
1.0061762
1.0063127
1.0064505
1.0065896
1.0067298
1.0068709
1.0070127
1.0071552
1.0072982
1.0074415
1.0075847
1.007728
1.007871
1.0080125
1.008155
1.0082956
1.0084341
1.0085725
1.0087086
1.0088437
1.0089751
1.0091036
1.0092327
1.0093589
1.0094823
1.0096023
1.009719
1.0098321
1.0099413
1.0100463
1.0101469
1.0102426
1.010333
1.0104177
1.0104963
1.0105681
1.0106328
1.0106895
1.010738
1.0107774
1.0108071
1.0108264
1.0108344
1.0108303
1.0108133
1.0107823
1.0107365
1.0106749
1.0105964
1.0105002
1.0103852
1.0102504
1.0100949
1.0099177
1.0097179
1.0094947
1.0092473
1.0089748
1.0086771
1.0083531
1.0080044
1.0076288
1.007237
1.006819
1.0029591
1.0029711
1.0029883
1.003006
1.0030287
1.0030566
1.0030883
1.0031241
1.0031639
1.0032076
1.003255
1.0033062
1.0033611
1.0034195
1.0034814
1.0035469
1.0036157
1.003688
1.0037637
1.0038426
1.0039248
1.0040103
1.0040989
1.0041907
1.0042857
1.0043836
1.0044846
1.0045885
1.0046954
1.004805
1.0049174
1.0050325
1.0051501
1.0052703
1.0053928
1.0055177
1.0056447
1.0057738
1.0059049
1.0060378
1.0061723
1.0063084
1.0064458
1.0065845
1.0067242
1.0068648
1.0070061
1.0071479
1.0072901
1.0074325
1.0075747
1.0077172
1.007859
1.0079993
1.008141
1.0082775
1.0084177
1.0085528
1.0086881
1.0088215
1.008952
1.0090796
1.0092058
1.009329
1.0094487
1.0095654
1.0096787
1.0097883
1.0098938
1.0099949
1.0100912
1.0101825
1.0102683
1.0103483
1.0104219
1.0104887
1.0105482
1.0106003
1.0106446
1.0106805
1.0107073
1.0107243
1.0107308
1.0107259
1.0107088
1.0106789
1.0106351
1.0105768
1.010503
1.010413
1.0103058
1.0101806
1.0100366
1.009873
1.0096891
1.009484
1.0092572
1.009008
1.008736
1.0084402
1.0081205
1.0077746
1.0074002
1.0069975
1.0029596
1.0029722
1.0029895
1.0030071
1.0030299
1.0030578
1.0030896
1.0031254
1.0031652
1.0032089
1.0032564
1.0033077
1.0033625
1.003421
1.003483
1.0035486
1.0036175
1.0036899
1.0037656
1.0038446
1.0039269
1.0040125
1.0041013
1.0041932
1.0042882
1.0043863
1.0044874
1.0045915
1.0046985
1.0048083
1.0049208
1.005036
1.0051538
1.0052741
1.0053968
1.0055218
1.005649
1.0057782
1.0059094
1.0060424
1.006177
1.0063131
1.0064506
1.0065893
1.006729
1.0068695
1.0070107
1.0071523
1.0072941
1.007436
1.0075779
1.0077195
1.0078602
1.0080008
1.0081404
1.0082773
1.0084162
1.0085506
1.0086844
1.0088162
1.0089455
1.0090719
1.0091963
1.0093171
1.0094341
1.009548
1.0096584
1.0097647
1.0098668
1.0099641
1.0100566
1.0101436
1.010225
1.0103003
1.0103691
1.0104308
1.0104851
1.0105313
1.0105691
1.010598
1.0106175
1.0106269
1.0106257
1.0106132
1.0105886
1.0105513
1.0105005
1.0104355
1.0103554
1.0102595
1.0101471
1.0100173
1.0098694
1.0097027
1.0095165
1.0093101
1.009083
1.0088345
1.0085642
1.0082718
1.0079567
1.0076209
1.0072575
1.0068917
1.0029601
1.0029731
1.0029906
1.0030082
1.0030309
1.0030588
1.0030906
1.0031264
1.0031662
1.0032099
1.0032574
1.0033086
1.0033635
1.0034219
1.0034839
1.0035494
1.0036183
1.0036907
1.0037664
1.0038454
1.0039276
1.0040132
1.0041019
1.0041938
1.0042888
1.0043868
1.0044879
1.0045919
1.0046988
1.0048085
1.004921
1.0050361
1.0051539
1.0052741
1.0053967
1.0055216
1.0056487
1.0057778
1.0059088
1.0060417
1.0061761
1.0063121
1.0064494
1.0065878
1.0067272
1.0068674
1.0070083
1.0071495
1.007291
1.0074324
1.0075738
1.0077146
1.0078542
1.0079951
1.0081323
1.0082689
1.0084063
1.0085396
1.0086717
1.0088019
1.0089298
1.0090544
1.0091771
1.0092953
1.0094099
1.0095212
1.0096287
1.009732
1.0098307
1.0099246
1.0100133
1.0100965
1.0101737
1.0102447
1.0103089
1.010366
1.0104155
1.0104571
1.0104906
1.0105153
1.0105307
1.0105361
1.0105308
1.0105142
1.0104856
1.0104443
1.0103896
1.0103208
1.0102371
1.0101379
1.0100225
1.0098902
1.0097404
1.0095724
1.0093856
1.0091795
1.0089536
1.0087073
1.0084403
1.0081525
1.0078428
1.0075132
1.0071583
1.0067883
1.0029604
1.002974
1.0029917
1.0030091
1.0030319
1.0030598
1.0030916
1.0031274
1.0031672
1.0032109
1.0032584
1.0033097
1.0033645
1.003423
1.003485
1.0035505
1.0036195
1.0036918
1.0037675
1.0038466
1.0039289
1.0040144
1.0041032
1.0041951
1.0042901
1.0043882
1.0044893
1.0045934
1.0047003
1.0048101
1.0049226
1.0050378
1.0051555
1.0052758
1.0053984
1.0055233
1.0056504
1.0057796
1.0059106
1.0060434
1.0061778
1.0063137
1.0064509
1.0065892
1.0067285
1.0068686
1.0070092
1.0071502
1.0072914
1.0074324
1.0075733
1.0077138
1.007853
1.0079926
1.0081298
1.0082658
1.0084016
1.0085342
1.0086652
1.0087941
1.0089203
1.0090433
1.0091638
1.0092803
1.009393
1.009502
1.0096071
1.0097077
1.0098036
1.0098944
1.0099799
1.0100597
1.0101334
1.0102006
1.010261
1.0103141
1.0103594
1.0103967
1.0104254
1.0104451
1.0104553
1.0104555
1.0104452
1.0104238
1.0103906
1.0103451
1.0102865
1.0102143
1.0101277
1.0100262
1.009909
1.0097756
1.0096253
1.0094577
1.009272
1.009068
1.0088451
1.0086029
1.008341
1.0080593
1.0077571
1.0074352
1.0070912
1.0067266
1.0029607
1.0029749
1.0029926
1.00301
1.0030328
1.0030607
1.0030925
1.0031283
1.0031681
1.0032118
1.0032593
1.0033105
1.0033654
1.0034238
1.0034858
1.0035513
1.0036203
1.0036926
1.0037683
1.0038473
1.0039296
1.0040151
1.0041039
1.0041958
1.0042908
1.0043888
1.0044899
1.0045939
1.0047008
1.0048106
1.004923
1.0050382
1.0051559
1.0052761
1.0053987
1.0055235
1.0056506
1.0057796
1.0059105
1.0060432
1.0061776
1.0063133
1.0064504
1.0065885
1.0067276
1.0068674
1.0070077
1.0071484
1.0072892
1.0074299
1.0075704
1.0077102
1.007849
1.0079878
1.0081243
1.0082595
1.0083941
1.0085258
1.0086555
1.008783
1.0089078
1.0090294
1.009148
1.0092628
1.0093736
1.0094804
1.0095831
1.0096811
1.0097743
1.0098622
1.0099446
1.0100211
1.0100914
1.010155
1.0102116
1.0102608
1.0103022
1.0103355
1.0103603
1.0103763
1.0103828
1.0103793
1.0103653
1.0103402
1.0103035
1.0102544
1.0101925
1.0101172
1.0100278
1.0099238
1.0098046
1.0096697
1.0095185
1.0093505
1.0091653
1.0089625
1.0087415
1.0085022
1.0082441
1.0079673
1.007671
1.0073561
1.0070209
1.0066675
1.0029608
1.0029757
1.0029935
1.0030108
1.0030336
1.0030616
1.0030933
1.0031291
1.0031689
1.0032126
1.0032601
1.0033113
1.0033662
1.0034247
1.0034867
1.0035521
1.0036211
1.0036934
1.0037691
1.0038481
1.0039304
1.0040159
1.0041047
1.0041966
1.0042916
1.0043896
1.0044907
1.0045947
1.0047016
1.0048113
1.0049238
1.0050389
1.0051566
1.0052768
1.0053994
1.0055242
1.0056512
1.0057802
1.0059111
1.0060437
1.0061779
1.0063136
1.0064505
1.0065885
1.0067274
1.006867
1.0070072
1.0071476
1.0072881
1.0074284
1.0075685
1.0077079
1.0078462
1.0079842
1.0081203
1.0082548
1.0083883
1.0085192
1.0086479
1.0087743
1.0088978
1.009018
1.009135
1.0092482
1.0093572
1.0094621
1.0095627
1.0096585
1.0097493
1.0098347
1.0099144
1.0099881
1.0100554
1.010116
1.0101694
1.0102153
1.0102533
1.0102831
1.0103042
1.0103164
1.010319
1.0103116
1.0102938
1.010265
1.0102247
1.0101723
1.0101074
1.0100293
1.0099376
1.0098316
1.0097108
1.0095749
1.0094231
1.0092552
1.0090707
1.0088693
1.0086505
1.0084141
1.0081598
1.0078876
1.0075971
1.0072887
1.0069611
1.0066173
1.0029609
1.0029765
1.0029944
1.0030115
1.0030344
1.0030623
1.0030941
1.0031299
1.0031697
1.0032134
1.0032609
1.0033121
1.0033669
1.0034253
1.0034873
1.0035528
1.0036217
1.003694
1.0037697
1.0038487
1.003931
1.0040165
1.0041052
1.0041971
1.004292
1.0043901
1.0044911
1.0045951
1.004702
1.0048116
1.0049241
1.0050392
1.0051568
1.005277
1.0053995
1.0055242
1.0056511
1.0057801
1.0059109
1.0060434
1.0061775
1.006313
1.0064498
1.0065877
1.0067264
1.0068658
1.0070057
1.0071458
1.007286
1.007426
1.0075656
1.0077046
1.0078425
1.0079798
1.0081153
1.0082492
1.0083818
1.0085118
1.0086396
1.0087648
1.0088871
1.009006
1.0091215
1.0092332
1.0093406
1.0094437
1.0095423
1.0096361
1.0097246
1.0098077
1.0098849
1.0099559
1.0100204
1.010078
1.0101284
1.0101711
1.0102059
1.0102325
1.0102504
1.0102593
1.0102588
1.0102483
1.0102274
1.0101956
1.0101524
1.0100973
1.0100298
1.0099494
1.0098556
1.009748
1.0096259
1.0094891
1.009337
1.0091693
1.0089855
1.0087855
1.0085688
1.0083353
1.0080847
1.0078169
1.0075317
1.0072296
1.0069089
1.0065739
1.002961
1.0029772
1.0029951
1.0030122
1.0030351
1.003063
1.0030948
1.0031305
1.0031704
1.003214
1.0032615
1.0033127
1.0033675
1.003426
1.0034879
1.0035534
1.0036223
1.0036946
1.0037703
1.0038492
1.0039315
1.004017
1.0041057
1.0041975
1.0042925
1.0043905
1.0044915
1.0045955
1.0047023
1.004812
1.0049244
1.0050394
1.005157
1.0052771
1.0053996
1.0055243
1.0056511
1.00578
1.0059107
1.0060432
1.0061772
1.0063126
1.0064492
1.0065869
1.0067255
1.0068647
1.0070043
1.0071442
1.0072841
1.0074238
1.0075631
1.0077016
1.0078391
1.0079758
1.0081108
1.0082441
1.0083758
1.0085051
1.008632
1.0087562
1.0088774
1.0089951
1.0091093
1.0092196
1.0093256
1.0094271
1.009524
1.0096159
1.0097024
1.0097834
1.0098583
1.009927
1.0099891
1.0100442
1.0100919
1.010132
1.010164
1.0101877
1.0102027
1.0102086
1.010205
1.0101915
1.0101677
1.010133
1.0100871
1.0100295
1.0099597
1.0098772
1.0097816
1.0096724
1.0095493
1.0094117
1.0092594
1.009092
1.008909
1.0087104
1.0084957
1.0082649
1.0080176
1.0077541
1.0074737
1.0071775
1.0068632
1.0065362
1.002961
1.0029779
1.0029958
1.0030128
1.0030357
1.0030637
1.0030954
1.0031312
1.003171
1.0032146
1.0032621
1.0033133
1.0033681
1.0034265
1.0034885
1.0035539
1.0036228
1.0036951
1.0037707
1.0038497
1.0039319
1.0040174
1.004106
1.0041978
1.0042928
1.0043907
1.0044917
1.0045956
1.0047024
1.0048121
1.0049244
1.0050394
1.005157
1.005277
1.0053994
1.0055241
1.0056508
1.0057796
1.0059102
1.0060426
1.0061765
1.0063118
1.0064483
1.0065858
1.0067242
1.0068632
1.0070026
1.0071422
1.0072819
1.0074212
1.0075602
1.0076983
1.0078354
1.0079716
1.008106
1.0082387
1.0083697
1.0084983
1.0086243
1.0087476
1.0088677
1.0089844
1.0090974
1.0092064
1.0093111
1.0094111
1.0095064
1.0095966
1.0096813
1.0097603
1.0098332
1.0098997
1.0099595
1.0100123
1.0100576
1.0100951
1.0101245
1.0101456
1.010158
1.0101613
1.0101551
1.0101391
1.0101128
1.0100757
1.0100275
1.0099677
1.0098959
1.0098117
1.0097146
1.0096042
1.0094802
1.0093421
1.0091897
1.0090226
1.0088405
1.0086433
1.0084306
1.0082023
1.0079583
1.0076986
1.0074229
1.0071321
1.0068238
1.006504
1.0029609
1.0029785
1.0029965
1.0030134
1.0030363
1.0030643
1.003096
1.0031317
1.0031715
1.0032152
1.0032626
1.0033138
1.0033686
1.003427
1.0034889
1.0035544
1.0036232
1.0036955
1.0037711
1.00385
1.0039322
1.0040177
1.0041063
1.0041981
1.004293
1.0043909
1.0044919
1.0045957
1.0047025
1.0048121
1.0049244
1.0050393
1.0051568
1.0052768
1.0053991
1.0055237
1.0056504
1.0057791
1.0059096
1.0060419
1.0061757
1.0063108
1.0064472
1.0065846
1.0067228
1.0068616
1.0070008
1.0071402
1.0072796
1.0074187
1.0075573
1.007695
1.0078318
1.0079674
1.0081014
1.0082336
1.0083639
1.0084918
1.008617
1.0087395
1.0088587
1.0089744
1.0090863
1.0091942
1.0092976
1.0093963
1.0094901
1.0095788
1.0096619
1.0097391
1.0098102
1.0098748
1.0099326
1.0099833
1.0100264
1.0100617
1.0100889
1.0101077
1.0101177
1.0101187
1.0101102
1.0100918
1.0100632
1.0100239
1.0099736
1.0099119
1.0098383
1.0097525
1.0096541
1.0095427
1.009418
1.0092796
1.0091272
1.0089605
1.0087793
1.0085834
1.0083726
1.0081468
1.0079058
1.0076498
1.0073784
1.0070926
1.0067899
1.0064769
1.0029609
1.002979
1.0029971
1.0030139
1.0030369
1.0030648
1.0030966
1.0031323
1.003172
1.0032157
1.0032631
1.0033143
1.003369
1.0034274
1.0034893
1.0035547
1.0036236
1.0036958
1.0037714
1.0038503
1.0039325
1.0040179
1.0041065
1.0041982
1.0042931
1.004391
1.0044919
1.0045957
1.0047024
1.0048119
1.0049242
1.0050391
1.0051565
1.0052765
1.0053987
1.0055232
1.0056498
1.0057784
1.0059089
1.006041
1.0061747
1.0063097
1.0064459
1.0065832
1.0067212
1.0068598
1.0069989
1.007138
1.0072771
1.0074159
1.0075542
1.0076916
1.007828
1.0079632
1.0080967
1.0082284
1.0083581
1.0084853
1.0086099
1.0087316
1.00885
1.0089648
1.0090757
1.0091825
1.0092847
1.0093823
1.0094748
1.009562
1.0096436
1.0097193
1.0097887
1.0098516
1.0099075
1.0099563
1.0099975
1.0100308
1.0100559
1.0100726
1.0100806
1.0100794
1.0100688
1.0100484
1.0100179
1.0099767
1.0099246
1.0098613
1.0097862
1.0096991
1.0095996
1.0094873
1.009362
1.0092234
1.0090711
1.008905
1.0087247
1.0085302
1.0083212
1.0080977
1.0078596
1.0076071
1.0073396
1.0070585
1.006761
1.0064543
1.0029608
1.0029795
1.0029976
1.0030144
1.0030374
1.0030653
1.003097
1.0031327
1.0031725
1.0032161
1.0032635
1.0033147
1.0033694
1.0034278
1.0034897
1.0035551
1.0036239
1.0036961
1.0037716
1.0038505
1.0039326
1.004018
1.0041066
1.0041983
1.0042931
1.004391
1.0044918
1.0045956
1.0047023
1.0048117
1.0049239
1.0050388
1.0051562
1.005276
1.0053982
1.0055226
1.0056491
1.0057776
1.005908
1.00604
1.0061736
1.0063085
1.0064446
1.0065817
1.0067195
1.006858
1.0069968
1.0071357
1.0072746
1.0074131
1.0075511
1.0076882
1.0078242
1.007959
1.0080921
1.0082233
1.0083525
1.0084791
1.0086031
1.008724
1.0088416
1.0089556
1.0090656
1.0091715
1.0092727
1.0093691
1.0094605
1.0095464
1.0096267
1.0097009
1.0097689
1.0098302
1.0098845
1.0099316
1.0099711
1.0100026
1.0100259
1.0100408
1.0100469
1.0100439
1.0100314
1.0100092
1.0099769
1.009934
1.0098804
1.0098155
1.0097392
1.0096509
1.0095505
1.0094376
1.0093119
1.0091731
1.009021
1.0088554
1.0086761
1.0084829
1.0082757
1.0080545
1.0078191
1.0075698
1.0073061
1.0070294
1.0067366
1.0064357
1.0029607
1.00298
1.0029981
1.0030149
1.0030379
1.0030658
1.0030975
1.0031332
1.0031729
1.0032165
1.0032639
1.003315
1.0033698
1.0034281
1.00349
1.0035553
1.0036241
1.0036963
1.0037718
1.0038506
1.0039328
1.0040181
1.0041066
1.0041983
1.004293
1.0043909
1.0044917
1.0045954
1.004702
1.0048114
1.0049236
1.0050383
1.0051557
1.0052754
1.0053975
1.0055219
1.0056483
1.0057767
1.005907
1.0060389
1.0061724
1.0063071
1.0064431
1.00658
1.0067177
1.006856
1.0069946
1.0071334
1.007272
1.0074103
1.007548
1.0076848
1.0078205
1.0079548
1.0080875
1.0082183
1.0083469
1.0084731
1.0085964
1.0087167
1.0088336
1.0089468
1.0090561
1.009161
1.0092613
1.0093568
1.009447
1.0095318
1.0096109
1.0096839
1.0097505
1.0098104
1.0098633
1.0099088
1.0099467
1.0099766
1.0099983
1.0100115
1.010016
1.0100113
1.0099973
1.0099735
1.0099396
1.0098953
1.0098403
1.0097742
1.0096967
1.0096075
1.0095064
1.0093929
1.0092669
1.0091281
1.0089763
1.0088113
1.0086329
1.0084411
1.0082356
1.0080165
1.0077837
1.0075375
1.0072772
1.0070046
1.0067163
1.0064207
1.0029605
1.0029804
1.0029986
1.0030153
1.0030383
1.0030662
1.0030979
1.0031336
1.0031733
1.0032169
1.0032643
1.0033153
1.0033701
1.0034284
1.0034902
1.0035555
1.0036243
1.0036964
1.0037719
1.0038507
1.0039328
1.0040181
1.0041066
1.0041982
1.0042929
1.0043907
1.0044915
1.0045951
1.0047017
1.0048111
1.0049231
1.0050378
1.0051551
1.0052748
1.0053968
1.0055211
1.0056474
1.0057757
1.0059059
1.0060377
1.006171
1.0063057
1.0064415
1.0065783
1.0067158
1.0068539
1.0069924
1.0071309
1.0072693
1.0074073
1.0075448
1.0076813
1.0078167
1.0079507
1.008083
1.0082134
1.0083416
1.0084672
1.00859
1.0087097
1.008826
1.0089385
1.009047
1.0091511
1.0092506
1.0093451
1.0094344
1.0095182
1.0095962
1.009668
1.0097334
1.0097921
1.0098437
1.0098879
1.0099244
1.0099529
1.0099731
1.0099849
1.0099879
1.0099818
1.0099663
1.0099411
1.0099058
1.0098603
1.0098041
1.0097369
1.0096585
1.0095685
1.0094668
1.0093529
1.0092267
1.009088
1.0089365
1.0087722
1.0085947
1.0084042
1.0082004
1.0079833
1.007753
1.0075096
1.0072527
1.0069839
1.0066997
1.006409
1.0029603
1.0029809
1.002999
1.0030157
1.0030387
1.0030666
1.0030983
1.0031339
1.0031736
1.0032172
1.0032646
1.0033156
1.0033703
1.0034286
1.0034904
1.0035557
1.0036244
1.0036966
1.003772
1.0038508
1.0039328
1.0040181
1.0041065
1.0041981
1.0042928
1.0043905
1.0044912
1.0045948
1.0047013
1.0048106
1.0049226
1.0050372
1.0051544
1.005274
1.005396
1.0055202
1.0056464
1.0057747
1.0059047
1.0060364
1.0061696
1.0063042
1.0064398
1.0065765
1.0067139
1.0068518
1.0069901
1.0071284
1.0072666
1.0074044
1.0075416
1.0076778
1.0078129
1.0079466
1.0080786
1.0082085
1.0083363
1.0084615
1.0085838
1.0087029
1.0088186
1.0089305
1.0090384
1.0091418
1.0092405
1.0093342
1.0094226
1.0095055
1.0095825
1.0096533
1.0097176
1.0097751
1.0098256
1.0098686
1.0099039
1.0099311
1.00995
1.0099605
1.0099622
1.0099548
1.0099381
1.0099117
1.0098753
1.0098286
1.0097714
1.0097033
1.0096241
1.0095335
1.0094313
1.0093171
1.0091909
1.0090523
1.0089012
1.0087375
1.0085611
1.0083718
1.0081696
1.0079545
1.0077265
1.0074858
1.007232
1.0069667
1.0066864
1.0064002
1.0029601
1.0029813
1.0029994
1.003016
1.003039
1.003067
1.0030986
1.0031342
1.0031739
1.0032175
1.0032648
1.0033159
1.0033705
1.0034288
1.0034906
1.0035559
1.0036246
1.0036966
1.0037721
1.0038508
1.0039328
1.004018
1.0041064
1.0041979
1.0042925
1.0043902
1.0044909
1.0045944
1.0047009
1.0048101
1.004922
1.0050366
1.0051537
1.0052732
1.0053951
1.0055192
1.0056454
1.0057735
1.0059034
1.006035
1.0061681
1.0063025
1.0064381
1.0065746
1.0067118
1.0068496
1.0069877
1.0071258
1.0072638
1.0074014
1.0075384
1.0076744
1.0078092
1.0079426
1.0080742
1.0082038
1.0083312
1.0084559
1.0085778
1.0086965
1.0088116
1.008923
1.0090302
1.0091329
1.0092309
1.0093239
1.0094116
1.0094936
1.0095697
1.0096396
1.009703
1.0097595
1.0098089
1.0098508
1.009885
1.0099111
1.009929
1.0099383
1.0099389
1.0099304
1.0099125
1.0098851
1.0098477
1.0098001
1.009742
1.0096731
1.0095933
1.0095022
1.0093996
1.0092852
1.009159
1.0090206
1.00887
1.008707
1.0085315
1.0083435
1.0081428
1.0079296
1.0077038
1.0074657
1.0072148
1.0069528
1.0066762
1.0063941
1.0029599
1.0029817
1.0029998
1.0030163
1.0030394
1.0030673
1.0030989
1.0031345
1.0031742
1.0032177
1.0032651
1.0033161
1.0033707
1.003429
1.0034907
1.003556
1.0036246
1.0036967
1.0037721
1.0038507
1.0039327
1.0040179
1.0041062
1.0041977
1.0042923
1.0043899
1.0044905
1.004594
1.0047004
1.0048095
1.0049214
1.0050359
1.0051529
1.0052724
1.0053942
1.0055182
1.0056442
1.0057723
1.0059021
1.0060336
1.0061666
1.0063009
1.0064363
1.0065727
1.0067098
1.0068474
1.0069853
1.0071232
1.0072611
1.0073984
1.0075351
1.0076709
1.0078055
1.0079386
1.0080699
1.0081992
1.0083262
1.0084506
1.008572
1.0086902
1.0088049
1.0089157
1.0090224
1.0091245
1.0092219
1.0093143
1.0094012
1.0094825
1.0095578
1.0096269
1.0096894
1.009745
1.0097935
1.0098345
1.0098677
1.0098929
1.0099097
1.009918
1.0099176
1.0099081
1.0098894
1.009861
1.0098227
1.0097743
1.0097155
1.009646
1.0095656
1.0094741
1.0093713
1.0092568
1.0091307
1.0089926
1.0088424
1.0086802
1.0085056
1.0083188
1.0081197
1.0079083
1.0076845
1.0074489
1.0072007
1.0069418
1.0066687
1.0063903
1.0029596
1.002982
1.0030001
1.0030166
1.0030397
1.0030676
1.0030992
1.0031348
1.0031745
1.003218
1.0032653
1.0033163
1.0033709
1.0034291
1.0034908
1.003556
1.0036247
1.0036967
1.003772
1.0038507
1.0039326
1.0040177
1.004106
1.0041974
1.004292
1.0043895
1.0044901
1.0045935
1.0046998
1.0048089
1.0049207
1.0050351
1.0051521
1.0052715
1.0053932
1.0055171
1.0056431
1.005771
1.0059007
1.0060321
1.006165
1.0062992
1.0064345
1.0065707
1.0067076
1.0068451
1.0069828
1.0071206
1.0072583
1.0073954
1.0075319
1.0076675
1.0078018
1.0079346
1.0080657
1.0081947
1.0083213
1.0084453
1.0085664
1.0086842
1.0087984
1.0089088
1.0090149
1.0091166
1.0092134
1.0093051
1.0093915
1.0094721
1.0095467
1.0096151
1.0096768
1.0097316
1.0097793
1.0098195
1.0098519
1.0098761
1.0098921
1.0098996
1.0098983
1.009888
1.0098684
1.0098392
1.0098002
1.0097511
1.0096917
1.0096217
1.0095409
1.0094491
1.0093461
1.0092316
1.0091056
1.0089679
1.0088183
1.0086567
1.0084831
1.0082975
1.0080998
1.0078901
1.0076684
1.007435
1.0071895
1.0069335
1.0066636
1.0063887
1.0029594
1.0029824
1.0030004
1.0030169
1.00304
1.0030678
1.0030994
1.003135
1.0031747
1.0032182
1.0032654
1.0033164
1.003371
1.0034292
1.0034909
1.0035561
1.0036247
1.0036966
1.003772
1.0038506
1.0039324
1.0040175
1.0041058
1.0041972
1.0042916
1.0043891
1.0044896
1.004593
1.0046992
1.0048083
1.00492
1.0050343
1.0051512
1.0052705
1.0053921
1.005516
1.0056419
1.0057697
1.0058993
1.0060306
1.0061634
1.0062974
1.0064326
1.0065687
1.0067055
1.0068428
1.0069804
1.007118
1.0072555
1.0073924
1.0075287
1.0076641
1.0077981
1.0079307
1.0080615
1.0081902
1.0083166
1.0084403
1.008561
1.0086784
1.0087922
1.0089022
1.0090079
1.009109
1.0092054
1.0092966
1.0093823
1.0094624
1.0095364
1.0096041
1.0096651
1.0097193
1.0097662
1.0098056
1.0098373
1.0098608
1.0098761
1.0098828
1.0098807
1.0098697
1.0098494
1.0098195
1.0097799
1.0097303
1.0096704
1.0096
1.0095189
1.0094269
1.0093238
1.0092094
1.0090835
1.0089462
1.0087971
1.0086363
1.0084637
1.0082792
1.0080829
1.0078749
1.0076551
1.0074239
1.0071808
1.0069276
1.0066607
1.0063891
1.0029591
1.0029827
1.0030007
1.0030171
1.0030402
1.0030681
1.0030996
1.0031352
1.0031749
1.0032183
1.0032656
1.0033165
1.0033711
1.0034293
1.0034909
1.0035561
1.0036247
1.0036966
1.0037719
1.0038504
1.0039323
1.0040173
1.0041055
1.0041968
1.0042913
1.0043887
1.0044891
1.0045925
1.0046986
1.0048076
1.0049193
1.0050335
1.0051503
1.0052695
1.0053911
1.0055148
1.0056406
1.0057684
1.0058979
1.0060291
1.0061617
1.0062956
1.0064307
1.0065666
1.0067033
1.0068405
1.0069779
1.0071154
1.0072527
1.0073895
1.0075256
1.0076607
1.0077946
1.0079269
1.0080575
1.0081859
1.008312
1.0084354
1.0085558
1.0086728
1.0087863
1.0088959
1.0090012
1.0091019
1.0091978
1.0092885
1.0093738
1.0094533
1.0095267
1.0095938
1.0096543
1.0097078
1.0097541
1.0097929
1.0098239
1.0098468
1.0098614
1.0098675
1.0098648
1.0098531
1.0098322
1.0098018
1.0097617
1.0097116
1.0096513
1.0095806
1.0094993
1.0094071
1.009304
1.0091897
1.0090642
1.0089272
1.0087787
1.0086186
1.008447
1.0082637
1.0080688
1.0078623
1.0076443
1.0074152
1.0071744
1.0069238
1.0066597
1.0063912
1.0029588
1.002983
1.0030009
1.0030173
1.0030405
1.0030683
1.0030999
1.0031354
1.003175
1.0032185
1.0032657
1.0033166
1.0033712
1.0034293
1.003491
1.0035561
1.0036246
1.0036965
1.0037717
1.0038503
1.0039321
1.004017
1.0041052
1.0041965
1.0042909
1.0043882
1.0044886
1.0045919
1.004698
1.0048069
1.0049185
1.0050327
1.0051494
1.0052685
1.00539
1.0055136
1.0056393
1.005767
1.0058964
1.0060275
1.00616
1.0062938
1.0064288
1.0065646
1.0067011
1.0068382
1.0069754
1.0071128
1.0072499
1.0073865
1.0075224
1.0076574
1.007791
1.0079232
1.0080535
1.0081817
1.0083075
1.0084306
1.0085507
1.0086675
1.0087806
1.0088898
1.0089948
1.0090951
1.0091906
1.0092809
1.0093657
1.0094447
1.0095177
1.0095843
1.0096442
1.0096972
1.009743
1.0097812
1.0098117
1.009834
1.009848
1.0098535
1.0098503
1.0098381
1.0098167
1.0097859
1.0097453
1.0096948
1.0096343
1.0095633
1.0094818
1.0093896
1.0092866
1.0091725
1.0090472
1.0089107
1.0087628
1.0086035
1.0084328
1.0082506
1.008057
1.0078521
1.0076359
1.0074087
1.0071701
1.0069218
1.0066606
1.0063948
1.0029585
1.0029832
1.0030012
1.0030175
1.0030407
1.0030685
1.0031
1.0031356
1.0031752
1.0032186
1.0032658
1.0033167
1.0033713
1.0034294
1.003491
1.0035561
1.0036245
1.0036964
1.0037716
1.0038501
1.0039318
1.0040168
1.0041049
1.0041961
1.0042904
1.0043878
1.0044881
1.0045913
1.0046973
1.0048062
1.0049177
1.0050318
1.0051484
1.0052675
1.0053889
1.0055124
1.005638
1.0057656
1.0058949
1.0060259
1.0061583
1.006292
1.0064268
1.0065625
1.0066989
1.0068358
1.006973
1.0071102
1.0072471
1.0073836
1.0075193
1.0076541
1.0077876
1.0079195
1.0080496
1.0081776
1.0083032
1.008426
1.0085459
1.0086623
1.0087752
1.0088841
1.0089887
1.0090887
1.0091838
1.0092737
1.0093581
1.0094367
1.0095093
1.0095754
1.0096349
1.0096875
1.0097327
1.0097705
1.0098005
1.0098223
1.0098358
1.0098409
1.0098372
1.0098246
1.0098027
1.0097715
1.0097306
1.0096799
1.0096191
1.009548
1.0094664
1.0093742
1.0092713
1.0091574
1.0090325
1.0088964
1.0087492
1.0085906
1.0084208
1.0082398
1.0080474
1.007844
1.0076294
1.0074041
1.0071676
1.0069216
1.0066629
1.0063998
1.0029583
1.0029835
1.0030014
1.0030177
1.0030409
1.0030687
1.0031002
1.0031357
1.0031753
1.0032187
1.0032659
1.0033168
1.0033713
1.0034294
1.003491
1.003556
1.0036245
1.0036963
1.0037715
1.0038499
1.0039316
1.0040165
1.0041046
1.0041957
1.00429
1.0043873
1.0044875
1.0045907
1.0046967
1.0048054
1.0049169
1.0050309
1.0051475
1.0052665
1.0053877
1.0055112
1.0056367
1.0057642
1.0058934
1.0060243
1.0061566
1.0062902
1.0064249
1.0065605
1.0066968
1.0068335
1.0069705
1.0071076
1.0072444
1.0073807
1.0075163
1.0076509
1.0077842
1.0079159
1.0080458
1.0081736
1.0082989
1.0084216
1.0085411
1.0086574
1.0087699
1.0088785
1.0089828
1.0090825
1.0091773
1.0092669
1.009351
1.0094292
1.0095014
1.0095672
1.0096263
1.0096784
1.0097233
1.0097606
1.0097901
1.0098116
1.0098247
1.0098294
1.0098253
1.0098123
1.0097902
1.0097586
1.0097175
1.0096665
1.0096056
1.0095344
1.0094528
1.0093607
1.0092579
1.0091443
1.0090198
1.0088842
1.0087376
1.0085798
1.0084109
1.0082309
1.0080398
1.0078378
1.0076248
1.0074013
1.0071668
1.006923
1.0066667
1.006406
1.002958
1.0029837
1.0030016
1.0030179
1.0030411
1.0030689
1.0031004
1.0031359
1.0031754
1.0032188
1.003266
1.0033168
1.0033713
1.0034294
1.0034909
1.0035559
1.0036244
1.0036962
1.0037713
1.0038497
1.0039313
1.0040162
1.0041042
1.0041953
1.0042896
1.0043868
1.004487
1.00459
1.004696
1.0048047
1.004916
1.00503
1.0051465
1.0052654
1.0053866
1.00551
1.0056354
1.0057628
1.0058919
1.0060227
1.0061549
1.0062884
1.0064229
1.0065584
1.0066946
1.0068312
1.0069681
1.007105
1.0072417
1.0073778
1.0075133
1.0076477
1.0077808
1.0079124
1.0080421
1.0081697
1.0082948
1.0084172
1.0085366
1.0086526
1.0087649
1.0088733
1.0089773
1.0090767
1.0091712
1.0092605
1.0093442
1.0094222
1.009494
1.0095595
1.0096182
1.00967
1.0097145
1.0097515
1.0097807
1.0098018
1.0098146
1.0098189
1.0098146
1.0098013
1.0097788
1.0097471
1.0097058
1.0096547
1.0095936
1.0095224
1.0094409
1.0093489
1.0092463
1.009133
1.0090088
1.0088738
1.0087278
1.0085708
1.0084029
1.0082239
1.008034
1.0078334
1.0076219
1.0074001
1.0071675
1.0069257
1.0066717
1.0064133
1.0029577
1.0029839
1.0030017
1.0030181
1.0030412
1.003069
1.0031005
1.003136
1.0031755
1.0032189
1.003266
1.0033169
1.0033713
1.0034294
1.0034909
1.0035559
1.0036243
1.003696
1.0037711
1.0038495
1.0039311
1.0040159
1.0041039
1.0041949
1.0042891
1.0043863
1.0044864
1.0045894
1.0046953
1.0048039
1.0049152
1.0050291
1.0051455
1.0052643
1.0053854
1.0055087
1.0056341
1.0057614
1.0058904
1.0060211
1.0061532
1.0062865
1.006421
1.0065564
1.0066924
1.0068289
1.0069657
1.0071025
1.007239
1.007375
1.0075103
1.0076446
1.0077775
1.0079089
1.0080385
1.0081659
1.0082909
1.0084131
1.0085322
1.008648
1.0087601
1.0088682
1.008972
1.0090712
1.0091654
1.0092544
1.0093379
1.0094156
1.0094871
1.0095523
1.0096107
1.0096622
1.0097064
1.0097431
1.009772
1.0097929
1.0098054
1.0098095
1.0098048
1.0097913
1.0097687
1.0097368
1.0096953
1.0096442
1.0095831
1.0095119
1.0094305
1.0093386
1.0092363
1.0091233
1.0089996
1.0088651
1.0087197
1.0085635
1.0083964
1.0082185
1.0080298
1.0078305
1.0076205
1.0074003
1.0071695
1.0069296
1.0066778
1.0064216
1.0029574
1.0029842
1.0030019
1.0030182
1.0030414
1.0030691
1.0031006
1.0031361
1.0031756
1.003219
1.0032661
1.0033169
1.0033713
1.0034293
1.0034908
1.0035558
1.0036241
1.0036959
1.0037709
1.0038492
1.0039308
1.0040156
1.0041035
1.0041945
1.0042886
1.0043857
1.0044858
1.0045888
1.0046945
1.0048031
1.0049143
1.0050282
1.0051445
1.0052633
1.0053843
1.0055075
1.0056328
1.0057599
1.0058889
1.0060194
1.0061515
1.0062847
1.0064191
1.0065543
1.0066903
1.0068267
1.0069633
1.0070999
1.0072363
1.0073722
1.0075074
1.0076415
1.0077743
1.0079056
1.008035
1.0081622
1.008287
1.008409
1.008528
1.0086436
1.0087555
1.0088634
1.008967
1.0090659
1.0091599
1.0092487
1.009332
1.0094094
1.0094807
1.0095456
1.0096038
1.009655
1.009699
1.0097354
1.0097641
1.0097847
1.009797
1.0098009
1.0097961
1.0097823
1.0097596
1.0097276
1.0096861
1.0096349
1.0095738
1.0095027
1.0094214
1.0093298
1.0092277
1.0091151
1.0089918
1.0088578
1.0087132
1.0085577
1.0083915
1.0082146
1.008027
1.0078289
1.0076204
1.0074017
1.0071726
1.0069346
1.0066849
1.0064306
1.0029571
1.0029844
1.003002
1.0030184
1.0030415
1.0030693
1.0031007
1.0031362
1.0031757
1.003219
1.0032661
1.0033169
1.0033713
1.0034293
1.0034908
1.0035557
1.003624
1.0036957
1.0037707
1.003849
1.0039305
1.0040152
1.0041031
1.0041941
1.0042881
1.0043852
1.0044852
1.0045881
1.0046938
1.0048023
1.0049135
1.0050273
1.0051435
1.0052622
1.0053831
1.0055063
1.0056314
1.0057585
1.0058874
1.0060178
1.0061498
1.0062829
1.0064172
1.0065523
1.0066881
1.0068244
1.0069609
1.0070975
1.0072337
1.0073695
1.0075045
1.0076385
1.0077712
1.0079023
1.0080315
1.0081586
1.0082832
1.0084051
1.0085239
1.0086393
1.008751
1.0088587
1.0089621
1.0090609
1.0091547
1.0092433
1.0093263
1.0094035
1.0094746
1.0095393
1.0095973
1.0096483
1.0096921
1.0097284
1.0097568
1.0097772
1.0097894
1.0097931
1.0097881
1.0097743
1.0097514
1.0097194
1.0096779
1.0096267
1.0095657
1.0094947
1.0094135
1.0093222
1.0092204
1.0091082
1.0089854
1.008852
1.0087079
1.0085532
1.0083879
1.008212
1.0080255
1.0078286
1.0076214
1.0074042
1.0071768
1.0069405
1.0066928
1.0064404
1.0029568
1.0029845
1.0030022
1.0030185
1.0030417
1.0030694
1.0031008
1.0031363
1.0031758
1.0032191
1.0032661
1.0033169
1.0033713
1.0034292
1.0034907
1.0035556
1.0036239
1.0036955
1.0037705
1.0038487
1.0039302
1.0040149
1.0041027
1.0041937
1.0042876
1.0043846
1.0044846