/*--------------------------------*- C++ -*----------------------------------*\
| =========                 |                                                 |
| \\      /  F ield         | OpenFOAM: The Open Source CFD Toolbox           |
|  \\    /   O peration     | Version:  2406                                  |
|   \\  /    A nd           | Website:  www.openfoam.com                      |
|    \\/     M anipulation  |                                                 |
\*---------------------------------------------------------------------------*/
FoamFile
{
    version     2.0;
    format      ascii;
    arch        "LSB;label=32;scalar=64";
    class       volScalarField;
    location    "1700";
    object      rho;
}
// * * * * * * * * * * * * * * * * * * * * * * * * * * * * * * * * * * * * * //

dimensions      [1 -3 0 0 0 0 0];

internalField   nonuniform List<scalar> 
132739
(
1.0020901
1.002101
1.0021152
1.002129
1.0021466
1.0021679
1.002192
1.0022189
1.0022487
1.0022812
1.0023165
1.0023544
1.0023949
1.0024379
1.0024835
1.0025316
1.0025821
1.0026351
1.0026905
1.0027482
1.0028083
1.0028707
1.0029355
1.0030025
1.0030718
1.0031432
1.0032169
1.0032927
1.0033705
1.0034504
1.0035323
1.0036161
1.0037018
1.0037894
1.0038786
1.0039696
1.0040621
1.0041562
1.0042517
1.0043485
1.0044465
1.0045457
1.0046459
1.0047471
1.004849
1.0049516
1.0050548
1.0051584
1.0052625
1.0053666
1.0054708
1.005575
1.0056788
1.0057823
1.0058851
1.005988
1.0060889
1.0061894
1.0062887
1.0063867
1.0064819
1.0065768
1.0066703
1.0067623
1.0068519
1.0069391
1.0070239
1.0071061
1.0071854
1.0072618
1.0073349
1.0074044
1.0074701
1.0075316
1.0075886
1.0076406
1.0076874
1.0077285
1.0077637
1.0077927
1.0078133
1.0078271
1.0078325
1.0078292
1.0078161
1.0077926
1.007758
1.0077115
1.0076525
1.0075801
1.0074936
1.0073924
1.0072756
1.0071427
1.0069929
1.0068257
1.0066405
1.0064365
1.006214
1.0059714
1.0057116
1.0054294
1.0051391
1.004829
1.0020905
1.0021018
1.0021162
1.0021299
1.0021475
1.0021688
1.0021929
1.0022197
1.0022495
1.002282
1.0023172
1.002355
1.0023955
1.0024385
1.002484
1.002532
1.0025824
1.0026353
1.0026906
1.0027482
1.0028083
1.0028706
1.0029352
1.0030021
1.0030713
1.0031426
1.0032161
1.0032917
1.0033694
1.0034491
1.0035308
1.0036144
1.0036999
1.0037872
1.0038763
1.003967
1.0040592
1.004153
1.0042482
1.0043447
1.0044424
1.0045413
1.0046411
1.0047418
1.0048432
1.0049453
1.0050478
1.0051507
1.0052539
1.0053574
1.0054608
1.0055644
1.0056675
1.0057698
1.0058722
1.0059729
1.0060737
1.0061721
1.0062707
1.0063676
1.0064623
1.0065558
1.0066473
1.0067367
1.006824
1.006909
1.0069916
1.0070714
1.0071482
1.0072218
1.007292
1.0073584
1.0074208
1.0074789
1.0075324
1.0075809
1.0076241
1.007662
1.0076943
1.0077208
1.0077396
1.0077517
1.0077566
1.0077535
1.0077418
1.0077208
1.0076898
1.0076483
1.0075956
1.0075308
1.0074535
1.0073629
1.0072584
1.0071394
1.0070054
1.0068558
1.0066903
1.0065082
1.0063095
1.0060931
1.0058594
1.005606
1.0053301
1.0050388
1.0020909
1.0021026
1.0021172
1.0021308
1.0021484
1.0021698
1.0021939
1.0022208
1.0022506
1.0022831
1.0023183
1.0023562
1.0023967
1.0024398
1.0024854
1.0025335
1.002584
1.002637
1.0026923
1.0027501
1.0028102
1.0028726
1.0029374
1.0030044
1.0030736
1.003145
1.0032186
1.0032944
1.0033722
1.003452
1.0035338
1.0036176
1.0037032
1.0037906
1.0038798
1.0039706
1.004063
1.0041569
1.0042522
1.0043488
1.0044466
1.0045455
1.0046453
1.0047461
1.0048476
1.0049496
1.0050523
1.0051552
1.0052582
1.0053614
1.0054645
1.0055674
1.00567
1.0057719
1.0058736
1.0059739
1.006074
1.006172
1.0062696
1.0063655
1.0064595
1.0065518
1.0066422
1.00673
1.0068152
1.0068983
1.0069787
1.0070561
1.0071304
1.0072013
1.0072685
1.0073318
1.007391
1.0074456
1.0074955
1.0075402
1.0075794
1.0076129
1.0076405
1.0076601
1.0076742
1.0076805
1.0076792
1.0076697
1.0076515
1.007624
1.0075869
1.0075395
1.0074812
1.0074117
1.0073301
1.0072359
1.0071285
1.0070073
1.0068716
1.0067211
1.0065552
1.0063735
1.0061757
1.0059618
1.0057306
1.0054858
1.0052167
1.0049565
1.0020912
1.0021034
1.0021181
1.0021317
1.0021493
1.0021707
1.0021947
1.0022216
1.0022514
1.0022839
1.0023192
1.0023571
1.0023975
1.0024406
1.0024861
1.0025342
1.0025847
1.0026377
1.002693
1.0027507
1.0028108
1.0028732
1.0029379
1.0030049
1.0030741
1.0031454
1.003219
1.0032947
1.0033724
1.0034522
1.0035339
1.0036176
1.0037032
1.0037905
1.0038796
1.0039703
1.0040626
1.0041564
1.0042515
1.004348
1.0044456
1.0045443
1.004644
1.0047445
1.0048457
1.0049475
1.0050498
1.0051525
1.0052552
1.0053581
1.0054608
1.005563
1.0056651
1.0057663
1.0058672
1.0059666
1.0060658
1.0061628
1.0062592
1.006354
1.0064469
1.0065376
1.0066269
1.0067128
1.0067963
1.0068774
1.0069557
1.0070309
1.0071028
1.0071711
1.0072357
1.0072961
1.0073523
1.0074038
1.0074504
1.0074918
1.0075277
1.0075581
1.0075829
1.0076
1.0076106
1.0076144
1.0076104
1.0075982
1.007577
1.0075466
1.0075064
1.0074558
1.0073945
1.007322
1.0072378
1.0071413
1.0070322
1.0069098
1.0067738
1.0066237
1.0064589
1.0062792
1.006084
1.0058736
1.0056465
1.005406
1.0051446
1.0048746
1.0020914
1.0021042
1.002119
1.0021325
1.0021501
1.0021715
1.0021956
1.0022225
1.0022523
1.0022848
1.0023201
1.002358
1.0023985
1.0024415
1.0024871
1.0025352
1.0025858
1.0026387
1.0026941
1.0027519
1.002812
1.0028744
1.0029391
1.003006
1.0030753
1.0031467
1.0032202
1.0032959
1.0033737
1.0034535
1.0035353
1.003619
1.0037046
1.0037919
1.003881
1.0039718
1.0040641
1.0041578
1.004253
1.0043494
1.004447
1.0045457
1.0046453
1.0047458
1.0048469
1.0049487
1.0050509
1.0051534
1.005256
1.0053585
1.005461
1.0055629
1.0056646
1.0057654
1.0058658
1.0059648
1.0060631
1.0061596
1.0062551
1.0063489
1.0064406
1.0065303
1.0066179
1.0067026
1.0067847
1.0068641
1.0069406
1.0070139
1.0070837
1.0071498
1.007212
1.00727
1.0073235
1.0073724
1.0074162
1.0074546
1.0074875
1.0075148
1.0075343
1.0075488
1.0075558
1.0075559
1.0075482
1.0075325
1.0075081
1.0074747
1.0074317
1.0073787
1.0073152
1.0072408
1.007155
1.0070575
1.0069477
1.0068254
1.0066901
1.0065415
1.0063791
1.0062027
1.0060118
1.0058066
1.0055858
1.0053509
1.0050995
1.0048324
1.0020916
1.0021049
1.0021198
1.0021332
1.0021509
1.0021723
1.0021964
1.0022233
1.002253
1.0022856
1.0023208
1.0023588
1.0023993
1.0024423
1.0024879
1.002536
1.0025865
1.0026395
1.0026948
1.0027526
1.0028126
1.0028751
1.0029398
1.0030067
1.0030759
1.0031473
1.0032209
1.0032965
1.0033743
1.0034541
1.0035358
1.0036195
1.0037051
1.0037924
1.0038814
1.0039721
1.0040643
1.004158
1.004253
1.0043494
1.0044469
1.0045455
1.004645
1.0047453
1.0048463
1.0049479
1.0050498
1.005152
1.0052543
1.0053566
1.0054586
1.0055602
1.0056614
1.0057617
1.0058614
1.0059599
1.0060574
1.0061532
1.0062477
1.0063405
1.0064312
1.0065197
1.006606
1.0066895
1.0067701
1.0068479
1.0069226
1.006994
1.0070618
1.0071258
1.0071858
1.0072414
1.0072924
1.0073386
1.0073797
1.0074153
1.0074454
1.0074699
1.007487
1.0074982
1.0075027
1.0075001
1.0074898
1.0074714
1.0074445
1.0074086
1.0073633
1.0073082
1.0072427
1.0071666
1.0070793
1.0069805
1.0068698
1.0067469
1.0066115
1.0064633
1.006302
1.0061274
1.0059392
1.0057374
1.0055214
1.0052918
1.0050472
1.0047897
1.0020917
1.0021056
1.0021205
1.0021339
1.0021516
1.002173
1.0021971
1.002224
1.0022538
1.0022864
1.0023216
1.0023595
1.0024
1.0024431
1.0024887
1.0025368
1.0025873
1.0026403
1.0026957
1.0027534
1.0028135
1.0028759
1.0029406
1.0030076
1.0030768
1.0031482
1.0032218
1.0032975
1.0033752
1.003455
1.0035368
1.0036204
1.0037059
1.0037932
1.0038822
1.0039728
1.004065
1.0041587
1.0042537
1.00435
1.0044474
1.0045459
1.0046454
1.0047456
1.0048465
1.0049479
1.0050497
1.0051517
1.0052537
1.0053557
1.0054575
1.0055588
1.0056596
1.0057595
1.0058587
1.0059566
1.0060535
1.0061487
1.0062424
1.0063343
1.0064242
1.0065116
1.0065968
1.0066791
1.0067585
1.0068349
1.0069081
1.0069778
1.0070439
1.0071061
1.007164
1.0072176
1.0072665
1.0073105
1.0073492
1.0073825
1.0074103
1.0074304
1.0074464
1.0074546
1.0074564
1.007451
1.0074379
1.0074168
1.0073873
1.007349
1.0073015
1.0072444
1.0071773
1.0070998
1.0070115
1.0069121
1.006801
1.0066781
1.0065431
1.0063957
1.0062357
1.0060629
1.0058772
1.0056785
1.0054665
1.0052417
1.0050025
1.0047528
1.0020918
1.0021062
1.0021212
1.0021345
1.0021522
1.0021737
1.0021978
1.0022247
1.0022545
1.002287
1.0023223
1.0023602
1.0024007
1.0024438
1.0024894
1.0025375
1.002588
1.002641
1.0026963
1.0027541
1.0028142
1.0028766
1.0029413
1.0030082
1.0030774
1.0031488
1.0032223
1.003298
1.0033757
1.0034554
1.0035371
1.0036208
1.0037062
1.0037934
1.0038823
1.0039729
1.0040651
1.0041587
1.0042536
1.0043499
1.0044472
1.0045457
1.004645
1.0047451
1.0048458
1.0049471
1.0050487
1.0051505
1.0052523
1.005354
1.0054555
1.0055565
1.0056569
1.0057564
1.0058551
1.0059525
1.0060488
1.0061434
1.0062363
1.0063274
1.0064163
1.0065028
1.0065869
1.0066681
1.0067463
1.0068214
1.0068932
1.0069614
1.0070258
1.0070862
1.0071423
1.007194
1.0072408
1.0072827
1.0073192
1.0073502
1.0073757
1.0073938
1.0074068
1.0074129
1.0074125
1.0074048
1.0073895
1.0073662
1.0073346
1.0072944
1.0072451
1.0071863
1.0071178
1.0070392
1.00695
1.00685
1.0067388
1.0066162
1.0064818
1.0063355
1.0061769
1.0060061
1.0058228
1.0056272
1.0054187
1.0051983
1.0049638
1.0047208
1.0020918
1.0021069
1.0021219
1.0021351
1.0021529
1.0021743
1.0021984
1.0022253
1.0022551
1.0022877
1.0023229
1.0023608
1.0024013
1.0024444
1.00249
1.002538
1.0025885
1.0026415
1.0026968
1.0027545
1.0028146
1.002877
1.0029417
1.0030086
1.0030778
1.0031491
1.0032226
1.0032982
1.0033759
1.0034556
1.0035373
1.0036209
1.0037064
1.0037936
1.0038826
1.0039731
1.0040653
1.0041588
1.0042537
1.0043499
1.0044472
1.0045455
1.0046448
1.0047448
1.0048454
1.0049465
1.005048
1.0051496
1.0052512
1.0053527
1.0054539
1.0055546
1.0056546
1.0057538
1.0058521
1.005949
1.0060447
1.0061387
1.006231
1.0063214
1.0064095
1.0064952
1.0065783
1.0066585
1.0067356
1.0068095
1.00688
1.0069469
1.0070098
1.0070687
1.0071232
1.0071731
1.0072182
1.0072582
1.0072929
1.007322
1.0073455
1.0073619
1.0073723
1.0073764
1.0073736
1.0073637
1.0073462
1.0073208
1.0072873
1.0072451
1.0071941
1.0071339
1.0070641
1.0069844
1.0068944
1.006794
1.0066827
1.0065604
1.0064267
1.0062815
1.0061245
1.0059558
1.0057749
1.0055822
1.0053771
1.0051609
1.0049306
1.0046934
1.0020918
1.0021075
1.0021225
1.0021357
1.0021535
1.0021749
1.002199
1.0022259
1.0022557
1.0022883
1.0023235
1.0023614
1.0024019
1.0024449
1.0024905
1.0025385
1.002589
1.002642
1.0026973
1.002755
1.0028151
1.0028774
1.0029421
1.003009
1.0030781
1.0031495
1.0032229
1.0032985
1.0033762
1.0034559
1.0035376
1.0036211
1.0037066
1.0037938
1.0038827
1.0039732
1.0040652
1.0041588
1.0042536
1.0043497
1.0044469
1.0045452
1.0046443
1.0047442
1.0048447
1.0049457
1.0050469
1.0051484
1.0052498
1.0053511
1.005452
1.0055524
1.0056521
1.005751
1.0058488
1.0059453
1.0060405
1.006134
1.0062256
1.0063153
1.0064027
1.0064875
1.0065698
1.006649
1.0067252
1.006798
1.0068673
1.0069329
1.0069945
1.007052
1.007105
1.0071533
1.0071968
1.007235
1.0072679
1.0072954
1.0073151
1.0073312
1.0073396
1.0073419
1.0073373
1.0073255
1.0073062
1.0072792
1.0072439
1.0072003
1.0071479
1.0070864
1.0070155
1.0069349
1.0068444
1.0067436
1.0066323
1.0065103
1.0063773
1.0062332
1.0060778
1.005911
1.0057327
1.0055429
1.0053412
1.0051289
1.0049028
1.0046709
1.0020918
1.002108
1.0021231
1.0021362
1.002154
1.0021755
1.0021996
1.0022265
1.0022563
1.0022888
1.0023241
1.0023619
1.0024024
1.0024455
1.002491
1.0025391
1.0025896
1.0026425
1.0026978
1.0027555
1.0028156
1.0028779
1.0029426
1.0030095
1.0030786
1.0031499
1.0032234
1.003299
1.0033766
1.0034563
1.0035379
1.0036214
1.0037068
1.0037939
1.0038828
1.0039733
1.0040653
1.0041587
1.0042535
1.0043496
1.0044467
1.0045449
1.0046439
1.0047437
1.004844
1.0049449
1.005046
1.0051473
1.0052485
1.0053495
1.0054502
1.0055504
1.0056498
1.0057483
1.0058457
1.0059419
1.0060365
1.0061295
1.0062206
1.0063097
1.0063964
1.0064805
1.006562
1.0066404
1.0067156
1.0067875
1.0068557
1.0069202
1.0069806
1.0070368
1.0070885
1.0071354
1.0071774
1.0072142
1.0072455
1.0072714
1.0072897
1.0073036
1.0073104
1.007311
1.0073046
1.0072912
1.0072702
1.0072415
1.0072048
1.0071597
1.007106
1.0070434
1.0069716
1.0068903
1.0067993
1.0066982
1.006587
1.0064653
1.0063331
1.0061901
1.0060361
1.0058713
1.0056952
1.0055083
1.0053098
1.0051014
1.0048793
1.0046525
1.0020918
1.0021085
1.0021236
1.0021367
1.0021545
1.002176
1.0022001
1.002227
1.0022568
1.0022893
1.0023246
1.0023625
1.0024029
1.002446
1.0024915
1.0025396
1.0025901
1.002643
1.0026983
1.002756
1.002816
1.0028784
1.002943
1.0030099
1.003079
1.0031503
1.0032238
1.0032993
1.0033769
1.0034566
1.0035381
1.0036216
1.003707
1.0037941
1.0038829
1.0039733
1.0040653
1.0041586
1.0042534
1.0043493
1.0044464
1.0045445
1.0046434
1.004743
1.0048433
1.004944
1.005045
1.005146
1.0052471
1.0053479
1.0054484
1.0055483
1.0056474
1.0057456
1.0058427
1.0059384
1.0060327
1.0061252
1.0062158
1.0063042
1.0063903
1.0064738
1.0065545
1.0066322
1.0067066
1.0067775
1.0068448
1.0069082
1.0069676
1.0070226
1.007073
1.0071187
1.0071594
1.0071948
1.0072247
1.0072491
1.0072663
1.0072782
1.0072837
1.0072827
1.0072748
1.0072598
1.0072374
1.0072073
1.0071692
1.0071229
1.0070681
1.0070046
1.006932
1.0068501
1.0067587
1.0066575
1.0065464
1.0064251
1.0062936
1.0061516
1.0059991
1.005836
1.0056621
1.0054778
1.0052824
1.0050776
1.0048593
1.0046374
1.0020917
1.002109
1.0021242
1.0021372
1.002155
1.0021765
1.0022006
1.0022275
1.0022573
1.0022898
1.0023251
1.0023629
1.0024034
1.0024465
1.002492
1.0025401
1.0025905
1.0026435
1.0026988
1.0027565
1.0028165
1.0028788
1.0029434
1.0030103
1.0030794
1.0031507
1.0032241
1.0032996
1.0033772
1.0034568
1.0035384
1.0036218
1.0037071
1.0037942
1.003883
1.0039733
1.0040652
1.0041585
1.0042532
1.0043491
1.0044461
1.004544
1.0046429
1.0047424
1.0048425
1.0049431
1.0050439
1.0051449
1.0052457
1.0053464
1.0054466
1.0055462
1.0056451
1.005743
1.0058398
1.0059351
1.006029
1.0061211
1.0062112
1.0062991
1.0063847
1.0064675
1.0065476
1.0066245
1.0066982
1.0067683
1.0068347
1.0068973
1.0069556
1.0070096
1.0070589
1.0071035
1.007143
1.0071771
1.0072058
1.007229
1.007245
1.0072553
1.0072595
1.0072572
1.0072479
1.0072316
1.0072079
1.0071765
1.0071373
1.0070899
1.0070341
1.0069697
1.0068964
1.006814
1.0067223
1.006621
1.0065101
1.0063892
1.0062584
1.0061174
1.0059662
1.0058048
1.005633
1.0054512
1.0052585
1.0050571
1.0048424
1.0046249
1.0020917
1.0021094
1.0021246
1.0021376
1.0021555
1.002177
1.002201
1.0022279
1.0022577
1.0022903
1.0023255
1.0023634
1.0024039
1.0024469
1.0024925
1.0025405
1.002591
1.0026439
1.0026992
1.0027569
1.0028169
1.0028792
1.0029438
1.0030106
1.0030797
1.003151
1.0032244
1.0032999
1.0033774
1.003457
1.0035386
1.003622
1.0037072
1.0037943
1.003883
1.0039733
1.0040651
1.0041584
1.004253
1.0043488
1.0044457
1.0045436
1.0046423
1.0047417
1.0048417
1.0049422
1.0050428
1.0051436
1.0052443
1.0053448
1.0054448
1.0055442
1.0056428
1.0057405
1.0058369
1.005932
1.0060255
1.0061171
1.0062068
1.0062943
1.0063793
1.0064616
1.006541
1.0066174
1.0066903
1.0067597
1.0068254
1.006887
1.0069445
1.0069975
1.0070459
1.0070894
1.0071278
1.0071609
1.0071886
1.0072086
1.0072251
1.0072342
1.0072372
1.0072337
1.0072232
1.0072057
1.0071809
1.0071485
1.0071083
1.00706
1.0070034
1.0069383
1.0068645
1.0067817
1.0066897
1.0065884
1.0064777
1.0063573
1.0062271
1.0060871
1.0059372
1.0057774
1.0056075
1.005428
1.0052379
1.0050395
1.0048281
1.0046148
1.0020916
1.0021099
1.0021251
1.002138
1.0021559
1.0021774
1.0022015
1.0022284
1.0022582
1.0022907
1.002326
1.0023639
1.0024043
1.0024474
1.0024929
1.0025409
1.0025914
1.0026443
1.0026996
1.0027573
1.0028173
1.0028796
1.0029441
1.003011
1.00308
1.0031513
1.0032246
1.0033001
1.0033777
1.0034572
1.0035387
1.0036221
1.0037073
1.0037943
1.003883
1.0039733
1.004065
1.0041582
1.0042528
1.0043485
1.0044453
1.0045431
1.0046417
1.0047411
1.004841
1.0049412
1.0050418
1.0051424
1.005243
1.0053432
1.0054431
1.0055423
1.0056406
1.005738
1.0058342
1.0059289
1.0060221
1.0061134
1.0062027
1.0062897
1.0063742
1.0064561
1.0065349
1.0066107
1.006683
1.0067517
1.0068167
1.0068776
1.0069342
1.0069864
1.0070339
1.0070765
1.007114
1.0071461
1.0071728
1.0071919
1.0072072
1.0072151
1.0072171
1.0072125
1.007201
1.0071824
1.0071566
1.0071232
1.0070821
1.007033
1.0069757
1.00691
1.0068357
1.0067527
1.0066606
1.0065593
1.0064488
1.0063289
1.0061995
1.0060604
1.0059118
1.0057534
1.0055854
1.0054079
1.0052203
1.0050248
1.0048164
1.0046068
1.0020914
1.0021103
1.0021255
1.0021384
1.0021563
1.0021778
1.0022019
1.0022288
1.0022586
1.0022912
1.0023264
1.0023643
1.0024048
1.0024478
1.0024933
1.0025414
1.0025918
1.0026447
1.0027
1.0027576
1.0028176
1.0028799
1.0029445
1.0030113
1.0030803
1.0031515
1.0032249
1.0033004
1.0033779
1.0034574
1.0035388
1.0036222
1.0037074
1.0037943
1.003883
1.0039732
1.0040649
1.0041581
1.0042525
1.0043482
1.0044449
1.0045426
1.0046412
1.0047404
1.0048402
1.0049403
1.0050408
1.0051412
1.0052416
1.0053417
1.0054414
1.0055404
1.0056385
1.0057356
1.0058316
1.005926
1.0060189
1.0061098
1.0061987
1.0062854
1.0063695
1.0064508
1.0065292
1.0066044
1.0066762
1.0067443
1.0068086
1.0068688
1.0069248
1.0069762
1.007023
1.0070647
1.0071014
1.0071325
1.0071584
1.0071767
1.0071908
1.0071978
1.0071989
1.0071933
1.0071809
1.0071614
1.0071347
1.0071005
1.0070586
1.0070088
1.0069509
1.0068847
1.0068101
1.0067267
1.0066346
1.0065334
1.0064232
1.0063038
1.006175
1.0060369
1.0058894
1.0057326
1.0055662
1.0053908
1.0052054
1.0050125
1.0048069
1.0046009
1.0020913
1.0021107
1.0021259
1.0021388
1.0021567
1.0021783
1.0022023
1.0022292
1.0022591
1.0022916
1.0023268
1.0023647
1.0024052
1.0024482
1.0024938
1.0025418
1.0025922
1.0026451
1.0027004
1.002758
1.002818
1.0028803
1.0029448
1.0030116
1.0030806
1.0031518
1.0032251
1.0033006
1.0033781
1.0034575
1.003539
1.0036223
1.0037074
1.0037943
1.0038829
1.0039731
1.0040648
1.0041579
1.0042523
1.0043479
1.0044445
1.0045422
1.0046406
1.0047397
1.0048394
1.0049395
1.0050397
1.0051401
1.0052403
1.0053403
1.0054397
1.0055385
1.0056365
1.0057334
1.0058291
1.0059233
1.0060158
1.0061065
1.006195
1.0062813
1.006365
1.006446
1.0065239
1.0065986
1.0066699
1.0067375
1.0068012
1.0068608
1.0069161
1.0069669
1.0070129
1.007054
1.0070898
1.0071202
1.0071453
1.007163
1.0071759
1.0071822
1.0071824
1.007176
1.0071628
1.0071425
1.007115
1.00708
1.0070375
1.0069871
1.0069287
1.0068621
1.0067871
1.0067036
1.0066115
1.0065105
1.0064005
1.0062816
1.0061535
1.0060163
1.00587
1.0057145
1.0055497
1.0053762
1.005193
1.0050025
1.0047998
1.0045965
1.0020912
1.0021111
1.0021263
1.0021391
1.0021571
1.0021787
1.0022027
1.0022297
1.0022595
1.002292
1.0023273
1.0023651
1.0024056
1.0024486
1.0024942
1.0025422
1.0025926
1.0026455
1.0027008
1.0027584
1.0028183
1.0028806
1.0029451
1.0030119
1.0030809
1.0031521
1.0032254
1.0033008
1.0033782
1.0034577
1.0035391
1.0036224
1.0037075
1.0037944
1.0038829
1.003973
1.0040646
1.0041577
1.004252
1.0043475
1.0044441
1.0045417
1.0046401
1.0047391
1.0048387
1.0049386
1.0050388
1.005139
1.0052391
1.0053389
1.0054382
1.0055368
1.0056346
1.0057313
1.0058267
1.0059207
1.0060129
1.0061033
1.0061916
1.0062775
1.0063609
1.0064414
1.006519
1.0065932
1.006664
1.0067311
1.0067944
1.0068534
1.0069082
1.0069584
1.0070038
1.0070441
1.0070793
1.007109
1.0071333
1.0071505
1.0071625
1.0071681
1.0071675
1.0071604
1.0071464
1.0071255
1.0070973
1.0070617
1.0070186
1.0069677
1.0069089
1.006842
1.0067668
1.0066832
1.006591
1.0064901
1.0063805
1.0062621
1.0061347
1.0059984
1.0058531
1.0056989
1.0055357
1.0053639
1.0051828
1.0049946
1.0047943
1.0045937
1.002091
1.0021115
1.0021267
1.0021395
1.0021575
1.002179
1.0022031
1.00223
1.0022599
1.0022924
1.0023277
1.0023655
1.002406
1.002449
1.0024946
1.0025426
1.002593
1.0026459
1.0027011
1.0027588
1.0028187
1.0028809
1.0029455
1.0030122
1.0030812
1.0031523
1.0032256
1.003301
1.0033784
1.0034579
1.0035392
1.0036225
1.0037075
1.0037944
1.0038829
1.0039729
1.0040645
1.0041575
1.0042518
1.0043472
1.0044438
1.0045412
1.0046395
1.0047385
1.004838
1.0049378
1.0050379
1.005138
1.0052379
1.0053376
1.0054367
1.0055352
1.0056328
1.0057293
1.0058245
1.0059182
1.0060103
1.0061004
1.0061884
1.006274
1.006357
1.0064372
1.0065144
1.0065883
1.0066587
1.0067254
1.0067881
1.0068467
1.006901
1.0069506
1.0069954
1.0070352
1.0070698
1.0070989
1.0071225
1.0071391
1.0071503
1.0071554
1.0071541
1.0071463
1.0071317
1.0071101
1.0070813
1.0070452
1.0070016
1.0069503
1.0068911
1.0068239
1.0067486
1.0066649
1.0065728
1.0064722
1.0063629
1.006245
1.0061182
1.0059828
1.0058385
1.0056856
1.0055238
1.0053538
1.0051745
1.0049885
1.0047902
1.0045924
1.0020908
1.0021119
1.002127
1.0021398
1.0021579
1.0021794
1.0022035
1.0022304
1.0022602
1.0022928
1.0023281
1.0023659
1.0024064
1.0024494
1.002495
1.002543
1.0025934
1.0026463
1.0027015
1.0027591
1.0028191
1.0028813
1.0029458
1.0030125
1.0030815
1.0031526
1.0032259
1.0033012
1.0033786
1.003458
1.0035394
1.0036226
1.0037076
1.0037944
1.0038828
1.0039729
1.0040644
1.0041573
1.0042515
1.0043469
1.0044434
1.0045408
1.004639
1.0047379
1.0048373
1.004937
1.005037
1.005137
1.0052368
1.0053363
1.0054353
1.0055336
1.0056311
1.0057274
1.0058224
1.005916
1.0060078
1.0060977
1.0061854
1.0062707
1.0063535
1.0064334
1.0065102
1.0065838
1.0066538
1.0067201
1.0067824
1.0068406
1.0068943
1.0069435
1.0069878
1.007027
1.007061
1.0070896
1.0071127
1.0071288
1.0071394
1.0071439
1.007142
1.0071337
1.0071185
1.0070964
1.0070671
1.0070305
1.0069864
1.0069348
1.0068753
1.0068079
1.0067324
1.0066487
1.0065568
1.0064563
1.0063474
1.00623
1.006104
1.0059693
1.0058261
1.0056743
1.0055139
1.0053454
1.0051679
1.0049839
1.0047881
1.0045925
1.0020906
1.0021122
1.0021273
1.0021401
1.0021582
1.0021798
1.0022039
1.0022308
1.0022606
1.0022932
1.0023284
1.0023663
1.0024068
1.0024498
1.0024954
1.0025434
1.0025938
1.0026467
1.0027019
1.0027595
1.0028194
1.0028816
1.0029461
1.0030129
1.0030818
1.0031529
1.0032262
1.0033015
1.0033789
1.0034582
1.0035395
1.0036227
1.0037077
1.0037944
1.0038829
1.0039728
1.0040643
1.0041572
1.0042514
1.0043467
1.0044431
1.0045404
1.0046386
1.0047374
1.0048367
1.0049363
1.0050362
1.005136
1.0052358
1.0053352
1.005434
1.0055322
1.0056295
1.0057256
1.0058205
1.0059139
1.0060055
1.0060951
1.0061826
1.0062677
1.0063502
1.0064298
1.0065064
1.0065796
1.0066493
1.0067152
1.0067771
1.0068349
1.0068882
1.0069369
1.0069808
1.0070196
1.007053
1.0070811
1.0071037
1.0071194
1.0071294
1.0071334
1.0071311
1.0071222
1.0071065
1.007084
1.0070543
1.0070173
1.0069729
1.0069209
1.0068612
1.0067937
1.0067181
1.0066345
1.0065426
1.0064425
1.0063339
1.006217
1.0060916
1.0059577
1.0058155
1.0056648
1.0055058
1.0053387
1.0051629
1.0049806
1.0047869
1.0045936
1.0020905
1.0021125
1.0021276
1.0021404
1.0021586
1.0021801
1.0022042
1.0022312
1.002261
1.0022936
1.0023288
1.0023667
1.0024072
1.0024502
1.0024958
1.0025438
1.0025942
1.0026471
1.0027023
1.0027599
1.0028198
1.002882
1.0029465
1.0030132
1.0030821
1.0031532
1.0032264
1.0033017
1.0033791
1.0034584
1.0035397
1.0036229
1.0037078
1.0037945
1.0038829
1.0039728
1.0040643
1.0041571
1.0042512
1.0043465
1.0044428
1.0045401
1.0046381
1.0047368
1.0048361
1.0049356
1.0050354
1.0051352
1.0052348
1.0053341
1.0054328
1.0055309
1.005628
1.005724
1.0058187
1.0059119
1.0060033
1.0060928
1.0061801
1.0062649
1.0063472
1.0064265
1.0065028
1.0065757
1.0066451
1.0067107
1.0067723
1.0068297
1.0068826
1.0069309
1.0069743
1.0070127
1.0070457
1.0070733
1.0070955
1.0071108
1.0071203
1.0071238
1.007121
1.0071117
1.0070957
1.0070728
1.0070427
1.0070055
1.0069608
1.0069087
1.0068488
1.0067811
1.0067055
1.0066219
1.0065302
1.0064303
1.0063222
1.0062057
1.006081
1.0059479
1.0058065
1.005657
1.0054991
1.0053335
1.0051593
1.0049787
1.004787
1.0045957
1.0020903
1.0021129
1.0021279
1.0021407
1.0021589
1.0021805
1.0022046
1.0022315
1.0022614
1.002294
1.0023292
1.0023671
1.0024076
1.0024506
1.0024962
1.0025442
1.0025946
1.0026475
1.0027027
1.0027603
1.0028202
1.0028824
1.0029469
1.0030136
1.0030825
1.0031536
1.0032268
1.003302
1.0033794
1.0034587
1.0035399
1.0036231
1.003708
1.0037946
1.003883
1.0039729
1.0040643
1.004157
1.0042511
1.0043463
1.0044426
1.0045398
1.0046378
1.0047364
1.0048355
1.004935
1.0050347
1.0051344
1.0052339
1.005333
1.0054317
1.0055296
1.0056266
1.0057225
1.005817
1.00591
1.0060013
1.0060906
1.0061777
1.0062623
1.0063443
1.0064235
1.0064995
1.0065721
1.0066412
1.0067065
1.0067677
1.0068248
1.0068774
1.0069253
1.0069683
1.0070063
1.0070389
1.0070661
1.0070879
1.0071029
1.0071119
1.0071151
1.0071119
1.0071022
1.0070858
1.0070625
1.0070322
1.0069947
1.0069498
1.0068974
1.0068375
1.0067698
1.0066942
1.0066108
1.0065193
1.0064197
1.0063119
1.006196
1.0060718
1.0059395
1.005799
1.0056505
1.0054938
1.0053295
1.0051567
1.0049777
1.0047879
1.0045985
1.0020901
1.0021132
1.0021282
1.002141
1.0021592
1.0021808
1.0022049
1.0022319
1.0022618
1.0022944
1.0023296
1.0023675
1.002408
1.0024511
1.0024966
1.0025446
1.0025951
1.0026479
1.0027031
1.0027607
1.0028206
1.0028828
1.0029473
1.003014
1.0030829
1.0031539
1.0032271
1.0033024
1.0033797
1.003459
1.0035402
1.0036233
1.0037082
1.0037948
1.0038831
1.003973
1.0040643
1.004157
1.004251
1.0043462
1.0044424
1.0045395
1.0046375
1.004736
1.0048351
1.0049345
1.005034
1.0051336
1.005233
1.0053321
1.0054306
1.0055284
1.0056253
1.0057211
1.0058155
1.0059083
1.0059994
1.0060885
1.0061754
1.0062599
1.0063417
1.0064206
1.0064964
1.0065688
1.0066376
1.0067026
1.0067635
1.0068203
1.0068725
1.0069201
1.0069628
1.0070004
1.0070327
1.0070595
1.0070809
1.0070956
1.0071043
1.0071071
1.0071036
1.0070935
1.0070768
1.0070532
1.0070226
1.0069849
1.0069398
1.0068873
1.0068272
1.0067595
1.0066841
1.0066007
1.0065095
1.0064102
1.0063029
1.0061875
1.006064
1.0059324
1.0057928
1.0056452
1.0054897
1.0053266
1.0051552
1.0049777
1.0047897
1.004602
1.0020899
1.0021135
1.0021285
1.0021413
1.0021595
1.0021811
1.0022053
1.0022323
1.0022621
1.0022947
1.00233
1.0023679
1.0024085
1.0024515
1.002497
1.0025451
1.0025955
1.0026484
1.0027036
1.0027612
1.0028211
1.0028833
1.0029477
1.0030144
1.0030833
1.0031543
1.0032275
1.0033028
1.00338
1.0034593
1.0035405
1.0036236
1.0037084
1.003795
1.0038833
1.0039731
1.0040644
1.0041571
1.004251
1.0043461
1.0044423
1.0045394
1.0046372
1.0047357
1.0048347
1.004934
1.0050335
1.005133
1.0052323
1.0053313
1.0054297
1.0055274
1.0056242
1.0057198
1.0058141
1.0059068
1.0059977
1.0060867
1.0061734
1.0062577
1.0063392
1.0064179
1.0064935
1.0065656
1.0066342
1.0066989
1.0067596
1.006816
1.006868
1.0069153
1.0069576
1.0069949
1.0070269
1.0070533
1.0070744
1.0070889
1.0070972
1.0070997
1.0070959
1.0070856
1.0070686
1.0070448
1.007014
1.0069761
1.0069309
1.0068783
1.0068182
1.0067505
1.0066751
1.0065919
1.0065009
1.0064019
1.006295
1.0061801
1.0060572
1.0059264
1.0057876
1.005641
1.0054865
1.0053246
1.0051546
1.0049786
1.0047923
1.0046061
1.0020897
1.0021138
1.0021287
1.0021416
1.0021598
1.0021815
1.0022056
1.0022326
1.0022625
1.0022951
1.0023304
1.0023684
1.0024089
1.0024519
1.0024975
1.0025455
1.002596
1.0026489
1.0027041
1.0027617
1.0028216
1.0028838
1.0029482
1.0030149
1.0030838
1.0031548
1.003228
1.0033032
1.0033805
1.0034597
1.0035409
1.0036239
1.0037087
1.0037953
1.0038835
1.0039733
1.0040646
1.0041572
1.0042511
1.0043462
1.0044422
1.0045393
1.004637
1.0047355
1.0048344
1.0049336
1.005033
1.0051324
1.0052317
1.0053305
1.0054289
1.0055265
1.0056231
1.0057186
1.0058128
1.0059053
1.0059961
1.0060849
1.0061715
1.0062556
1.006337
1.0064154
1.0064908
1.0065627
1.006631
1.0066955
1.0067559
1.0068121
1.0068638
1.0069108
1.0069529
1.0069898
1.0070215
1.0070477
1.0070684
1.0070826
1.0070907
1.007093
1.0070889
1.0070783
1.0070611
1.0070371
1.0070061
1.006968
1.0069227
1.0068701
1.00681
1.0067423
1.006667
1.006584
1.0064932
1.0063946
1.0062881
1.0061737
1.0060514
1.0059213
1.0057833
1.0056376
1.0054842
1.0053234
1.0051547
1.0049801
1.0047953
1.0046107
1.0020895
1.002114
1.002129
1.0021419
1.0021602
1.0021818
1.002206
1.002233
1.0022629
1.0022956
1.0023309
1.0023688
1.0024094
1.0024524
1.002498
1.002546
1.0025965
1.0026494
1.0027046
1.0027622
1.0028221
1.0028843
1.0029487
1.0030154
1.0030843
1.0031553
1.0032285
1.0033037
1.0033809
1.0034601
1.0035413
1.0036243
1.0037091
1.0037957
1.0038838
1.0039736
1.0040648
1.0041574
1.0042512
1.0043462
1.0044423
1.0045392
1.004637
1.0047353
1.0048342
1.0049333
1.0050327
1.005132
1.0052311
1.0053299
1.0054282
1.0055256
1.0056222
1.0057176
1.0058116
1.005904
1.0059947
1.0060833
1.0061697
1.0062536
1.0063349
1.0064131
1.0064883
1.00656
1.0066281
1.0066924
1.0067526
1.0068085
1.0068599
1.0069066
1.0069484
1.0069852
1.0070165
1.0070424
1.0070629
1.0070769
1.0070848
1.0070868
1.0070825
1.0070717
1.0070543
1.0070301
1.006999
1.0069608
1.0069154
1.0068627
1.0068026
1.006735
1.0066599
1.006577
1.0064865
1.0063882
1.0062821
1.0061682
1.0060464
1.005917
1.0057797
1.0056349
1.0054824
1.0053227
1.0051553
1.004982
1.0047987
1.0046156
1.0020894
1.0021143
1.0021292
1.0021421
1.0021605
1.0021821
1.0022063
1.0022334
1.0022633
1.002296
1.0023313
1.0023693
1.0024098
1.0024529
1.0024985
1.0025466
1.002597
1.0026499
1.0027052
1.0027628
1.0028227
1.0028849
1.0029493
1.003016
1.0030849
1.0031559
1.003229
1.0033042
1.0033815
1.0034607
1.0035418
1.0036248
1.0037096
1.0037961
1.0038842
1.0039739
1.0040651
1.0041577
1.0042515
1.0043464
1.0044424
1.0045393
1.004637
1.0047353
1.004834
1.0049331
1.0050324
1.0051317
1.0052307
1.0053294
1.0054276
1.005525
1.0056214
1.0057167
1.0058106
1.0059029
1.0059934
1.0060819
1.0061682
1.0062519
1.006333
1.0064111
1.006486
1.0065575
1.0066254
1.0066895
1.0067495
1.0068052
1.0068564
1.0069029
1.0069444
1.0069809
1.007012
1.0070377
1.0070579
1.0070717
1.0070794
1.0070812
1.0070767
1.0070657
1.0070482
1.0070238
1.0069926
1.0069543
1.0069089
1.0068562
1.0067962
1.0067286
1.0066536
1.0065709
1.0064806
1.0063826
1.0062769
1.0061634
1.0060422
1.0059134
1.0057769
1.0056329
1.0054813
1.0053226
1.0051563
1.0049842
1.0048024
1.0046205
1.0020892
1.0021146
1.0021295
1.0021424
1.0021608
1.0021825
1.0022067
1.0022338
1.0022637
1.0022964
1.0023318
1.0023698
1.0024103
1.0024535
1.0024991
1.0025471
1.0025976
1.0026505
1.0027058
1.0027634
1.0028233
1.0028855
1.00295
1.0030166
1.0030855
1.0031565
1.0032296
1.0033048
1.0033821
1.0034613
1.0035424