/*--------------------------------*- C++ -*----------------------------------*\
| =========                 |                                                 |
| \\      /  F ield         | OpenFOAM: The Open Source CFD Toolbox           |
|  \\    /   O peration     | Version:  2406                                  |
|   \\  /    A nd           | Website:  www.openfoam.com                      |
|    \\/     M anipulation  |                                                 |
\*---------------------------------------------------------------------------*/
FoamFile
{
    version     2.0;
    format      ascii;
    arch        "LSB;label=32;scalar=64";
    class       volScalarField;
    location    "1700";
    object      TMean;
}
// * * * * * * * * * * * * * * * * * * * * * * * * * * * * * * * * * * * * * //

dimensions      [0 0 0 1 0 0 0];

internalField   nonuniform List<scalar> 
132739
(
1.0008021
1.0007967
1.0007981
1.0008034
1.000809
1.0008153
1.0008228
1.0008319
1.0008414
1.0008525
1.0008642
1.0008774
1.0008912
1.0009058
1.0009217
1.0009387
1.0009558
1.0009729
1.0009923
1.0010131
1.0010332
1.0010546
1.0010784
1.0011008
1.0011262
1.0011508
1.0011779
1.0012054
1.0012348
1.0012662
1.0012994
1.0013335
1.0013693
1.0014062
1.0014434
1.0014822
1.0015199
1.0015616
1.0016022
1.0016406
1.0016815
1.001724
1.0017654
1.0018078
1.0018499
1.0018935
1.0019366
1.0019801
1.0020222
1.0020658
1.0021082
1.0021518
1.0021918
1.0022352
1.0022759
1.0023176
1.0023562
1.0023962
1.0024339
1.0024733
1.0025119
1.0025457
1.0025828
1.0026181
1.0026512
1.0026862
1.0027182
1.0027505
1.0027837
1.0028114
1.0028421
1.0028683
1.0028942
1.0029164
1.0029411
1.0029617
1.0029809
1.0029969
1.0030132
1.0030257
1.0030355
1.0030428
1.0030444
1.003042
1.0030322
1.0030165
1.0029948
1.0029671
1.0029341
1.002897
1.0028546
1.0028063
1.0027514
1.0026899
1.0026217
1.0025481
1.0024687
1.002387
1.0023039
1.0022161
1.0021178
1.0020146
1.0019049
1.0017878
1.0008025
1.0007968
1.0007982
1.0008035
1.0008092
1.0008155
1.0008234
1.0008326
1.0008422
1.0008529
1.000865
1.0008781
1.0008912
1.0009063
1.000923
1.0009387
1.0009559
1.0009748
1.0009937
1.0010133
1.0010339
1.0010551
1.0010792
1.0011018
1.0011268
1.0011514
1.0011785
1.0012064
1.0012354
1.0012664
1.0013001
1.0013336
1.0013698
1.0014056
1.0014433
1.0014825
1.00152
1.0015603
1.0015992
1.0016411
1.0016805
1.0017235
1.0017651
1.0018068
1.0018495
1.0018927
1.0019347
1.0019787
1.0020201
1.0020637
1.0021049
1.0021467
1.0021895
1.0022308
1.0022699
1.0023112
1.0023498
1.0023882
1.0024255
1.0024657
1.002501
1.0025377
1.0025722
1.0026087
1.0026401
1.0026752
1.0027067
1.0027353
1.0027704
1.0027954
1.0028215
1.0028492
1.0028711
1.0028956
1.0029159
1.0029368
1.0029567
1.0029722
1.0029876
1.0029995
1.0030089
1.0030155
1.0030165
1.003014
1.0030066
1.0029932
1.0029735
1.0029476
1.0029153
1.0028775
1.0028333
1.0027839
1.002729
1.0026676
1.0026002
1.0025276
1.0024491
1.0023673
1.0022811
1.0021914
1.0020937
1.0019944
1.0018856
1.0017673
1.0008031
1.0007967
1.0007987
1.0008038
1.0008093
1.0008161
1.0008238
1.0008329
1.0008432
1.0008535
1.0008654
1.0008788
1.000892
1.0009071
1.0009235
1.0009392
1.0009562
1.0009753
1.000994
1.0010135
1.0010353
1.0010561
1.0010796
1.0011023
1.0011268
1.0011516
1.0011777
1.0012069
1.0012358
1.0012667
1.0012986
1.0013326
1.0013686
1.0014046
1.0014425
1.0014816
1.0015188
1.001559
1.0015973
1.0016399
1.001679
1.0017227
1.0017642
1.0018053
1.0018492
1.0018908
1.0019334
1.0019764
1.0020174
1.0020599
1.0021021
1.0021425
1.0021856
1.0022253
1.0022631
1.0023042
1.0023439
1.0023809
1.0024187
1.0024576
1.0024932
1.0025284
1.0025641
1.0025985
1.0026325
1.0026642
1.0026951
1.0027232
1.0027528
1.0027807
1.0028062
1.0028362
1.0028567
1.0028797
1.0028995
1.0029182
1.0029336
1.0029475
1.00296
1.0029713
1.002979
1.002984
1.0029856
1.002981
1.0029734
1.0029598
1.0029407
1.0029154
1.0028844
1.0028473
1.0028049
1.0027559
1.0027007
1.0026403
1.0025733
1.0025015
1.0024242
1.0023431
1.0022579
1.002169
1.0020747
1.001973
1.0018651
1.001746
1.0008033
1.0007969
1.0007987
1.000804
1.0008093
1.0008165
1.000824
1.0008329
1.0008428
1.0008536
1.000866
1.0008786
1.0008919
1.0009072
1.0009226
1.0009387
1.0009556
1.0009747
1.0009932
1.001013
1.0010339
1.001055
1.0010778
1.0011008
1.0011255
1.0011507
1.0011767
1.0012051
1.0012346
1.0012651
1.0012987
1.0013319
1.0013683
1.0014041
1.0014415
1.0014803
1.0015174
1.001557
1.001597
1.0016372
1.0016782
1.001719
1.0017622
1.0018045
1.0018457
1.0018873
1.0019288
1.0019718
1.0020122
1.0020553
1.0020953
1.0021354
1.0021813
1.0022195
1.0022565
1.002297
1.0023369
1.0023736
1.002411
1.0024497
1.0024851
1.0025191
1.002554
1.0025874
1.0026206
1.002651
1.0026831
1.0027109
1.0027384
1.0027661
1.0027905
1.0028148
1.0028388
1.0028621
1.0028806
1.0028978
1.0029138
1.0029268
1.0029367
1.0029488
1.0029544
1.0029585
1.0029581
1.0029533
1.0029449
1.0029311
1.002912
1.0028865
1.0028559
1.0028189
1.0027762
1.0027284
1.0026751
1.0026159
1.0025505
1.0024802
1.0024029
1.0023229
1.0022375
1.0021501
1.0020572
1.0019597
1.001857
1.0017413
1.0008034
1.0007971
1.0007991
1.0008041
1.0008094
1.0008163
1.0008241
1.000833
1.0008426
1.0008536
1.0008656
1.0008785
1.0008921
1.000907
1.0009224
1.0009391
1.0009556
1.0009745
1.000993
1.001012
1.0010336
1.0010552
1.0010771
1.0011013
1.0011256
1.0011504
1.0011764
1.0012047
1.001234
1.0012657
1.0012979
1.0013312
1.0013674
1.0014031
1.00144
1.001479
1.0015164
1.0015568
1.0015958
1.0016351
1.0016786
1.0017179
1.0017587
1.0018039
1.0018442
1.0018845
1.0019258
1.0019681
1.002008
1.0020503
1.00209
1.0021312
1.0021702
1.0022121
1.0022506
1.0022912
1.0023305
1.0023673
1.002406
1.0024434
1.0024775
1.0025142
1.0025464
1.0025814
1.0026131
1.0026431
1.0026732
1.0027019
1.0027274
1.0027547
1.0027772
1.0028011
1.0028213
1.0028448
1.00286
1.0028768
1.0028922
1.0029026
1.0029144
1.0029223
1.0029262
1.0029287
1.0029272
1.0029238
1.002914
1.002901
1.0028827
1.0028579
1.0028271
1.00279
1.0027479
1.0026996
1.0026469
1.0025901
1.002527
1.0024592
1.0023848
1.0023055
1.0022229
1.0021357
1.0020451
1.0019501
1.0018479
1.0017379
1.0008035
1.0007971
1.0007991
1.0008046
1.0008098
1.0008167
1.0008244
1.0008335
1.0008433
1.000854
1.0008661
1.0008783
1.0008924
1.0009066
1.0009223
1.0009393
1.0009551
1.0009735
1.0009933
1.0010121
1.0010332
1.0010549
1.0010764
1.0011002
1.0011248
1.0011498
1.0011753
1.0012034
1.0012336
1.0012654
1.0012973
1.0013308
1.0013659
1.0014024
1.0014382
1.0014771
1.0015152
1.0015546
1.0015934
1.0016339
1.0016739
1.0017148
1.0017578
1.0017973
1.0018387
1.001881
1.0019213
1.0019624
1.0020028
1.0020441
1.0020845
1.0021247
1.0021662
1.0022059
1.002246
1.0022853
1.002324
1.0023628
1.0023993
1.0024411
1.002474
1.002507
1.0025424
1.0025732
1.0026075
1.0026356
1.0026658
1.0026915
1.0027222
1.0027454
1.002767
1.0027883
1.0028109
1.0028272
1.0028461
1.0028597
1.0028746
1.0028834
1.0028938
1.0028995
1.0029026
1.0029038
1.0029023
1.0028976
1.0028869
1.0028744
1.0028559
1.0028311
1.0028014
1.0027659
1.0027233
1.0026747
1.0026207
1.0025627
1.0025011
1.0024336
1.0023626
1.0022863
1.0022064
1.0021208
1.0020324
1.0019408
1.0018414
1.0017345
1.0008033
1.0007977
1.0007993
1.0008044
1.0008101
1.0008168
1.0008245
1.0008334
1.0008433
1.000854
1.0008659
1.0008788
1.0008921
1.0009073
1.0009221
1.0009391
1.0009554
1.0009742
1.0009928
1.0010121
1.0010322
1.0010541
1.0010769
1.0010995
1.0011242
1.0011487
1.0011751
1.0012034
1.0012326
1.0012645
1.0012959
1.0013305
1.0013649
1.0014024
1.0014374
1.0014753
1.0015143
1.0015527
1.0015909
1.0016318
1.0016721
1.0017113
1.0017531
1.0017941
1.0018347
1.0018767
1.0019162
1.0019581
1.0019984
1.0020401
1.0020806
1.0021223
1.0021614
1.0022018
1.0022426
1.0022816
1.0023212
1.0023589
1.0023944
1.0024317
1.0024673
1.0025014
1.0025344
1.0025656
1.002598
1.0026267
1.0026564
1.0026824
1.0027084
1.0027336
1.0027552
1.0027743
1.0027962
1.0028119
1.0028275
1.0028415
1.0028524
1.0028606
1.0028702
1.0028746
1.002876
1.0028773
1.002874
1.0028682
1.0028577
1.0028445
1.0028259
1.0028034
1.0027746
1.0027394
1.0026986
1.0026517
1.0025993
1.0025416
1.0024802
1.0024141
1.0023421
1.002266
1.002187
1.0021045
1.0020179
1.0019299
1.0018346
1.0017323
1.0008036
1.0007975
1.0007996
1.0008046
1.0008101
1.0008168
1.0008243
1.000833
1.0008429
1.0008536
1.0008661
1.0008783
1.0008925
1.000907
1.0009216
1.0009382
1.0009547
1.0009732
1.0009918
1.0010108
1.001032
1.0010529
1.0010759
1.0010983
1.001123
1.0011478
1.0011739
1.001203
1.0012318
1.0012626
1.0012945
1.0013287
1.0013626
1.0013988
1.0014344
1.0014725
1.0015106
1.0015488
1.0015886
1.0016285
1.0016689
1.0017085
1.0017495
1.0017904
1.0018312
1.0018719
1.0019136
1.0019536
1.0019948
1.0020362
1.002077
1.0021176
1.0021588
1.0021982
1.0022383
1.0022769
1.0023149
1.0023548
1.0023896
1.0024262
1.0024628
1.0024946
1.0025286
1.0025593
1.0025911
1.0026192
1.0026474
1.0026748
1.0026987
1.0027285
1.0027484
1.0027674
1.0027861
1.0028017
1.0028179
1.0028303
1.0028413
1.0028475
1.0028537
1.0028558
1.0028568
1.0028536
1.0028487
1.0028426
1.0028312
1.0028159
1.0027974
1.0027736
1.0027464
1.0027136
1.0026731
1.0026272
1.0025755
1.0025195
1.0024592
1.0023962
1.0023264
1.0022535
1.0021727
1.002091
1.0020042
1.0019177
1.0018257
1.0017278
1.0008036
1.0007977
1.0007998
1.0008047
1.0008101
1.0008166
1.0008249
1.000833
1.0008433
1.0008538
1.0008662
1.0008786
1.0008927
1.0009063
1.0009222
1.0009378
1.000955
1.0009728
1.0009915
1.0010098
1.0010308
1.0010519
1.0010748
1.0010974
1.0011219
1.0011465
1.001173
1.0012008
1.0012301
1.0012602
1.0012933
1.0013264
1.0013605
1.0013958
1.0014318
1.0014709
1.0015086
1.0015465
1.0015871
1.0016257
1.0016661
1.0017061
1.0017464
1.001787
1.001828
1.0018685
1.00191
1.0019502
1.0019933
1.0020338
1.0020739
1.0021156
1.0021552
1.0021949
1.0022344
1.0022727
1.0023111
1.0023488
1.0023836
1.0024189
1.0024559
1.0024872
1.0025203
1.0025517
1.0025824
1.0026123
1.0026388
1.0026654
1.0026897
1.0027128
1.0027363
1.0027569
1.0027754
1.0027905
1.0028063
1.0028171
1.002829
1.0028354
1.0028396
1.0028412
1.0028402
1.0028356
1.0028316
1.0028201
1.0028089
1.0027922
1.0027724
1.0027479
1.0027194
1.0026861
1.002648
1.0026023
1.0025517
1.0024959
1.0024366
1.0023753
1.0023078
1.0022368
1.0021611
1.0020826
1.0019969
1.0019111
1.0018211
1.0017267
1.0008037
1.0007977
1.0008003
1.0008048
1.0008101
1.0008167
1.0008247
1.0008329
1.0008429
1.0008537
1.0008652
1.0008777
1.000892
1.0009055
1.0009214
1.0009375
1.0009535
1.0009716
1.0009898
1.001009
1.0010289
1.0010501
1.0010735
1.0010961
1.0011198
1.0011459
1.0011716
1.0011997
1.0012288
1.0012602
1.0012918
1.001326
1.00136
1.0013941
1.0014309
1.001468
1.0015055
1.0015435
1.0015841
1.0016226
1.0016626
1.0017032
1.0017426
1.0017836
1.0018237
1.0018655
1.0019064
1.0019473
1.0019879
1.0020285
1.0020693
1.0021103
1.0021503
1.0021902
1.0022289
1.0022681
1.0023054
1.0023416
1.002377
1.0024138
1.0024475
1.0024821
1.0025132
1.0025459
1.0025752
1.002604
1.0026304
1.0026576
1.0026811
1.0027039
1.0027256
1.0027438
1.0027622
1.0027777
1.0027908
1.0028022
1.0028114
1.0028178
1.0028235
1.002823
1.0028313
1.0028246
1.0028158
1.0028045
1.0027899
1.0027727
1.0027521
1.0027264
1.0026972
1.0026629
1.002624
1.0025801
1.0025295
1.0024752
1.0024145
1.0023531
1.002287
1.0022185
1.0021429
1.0020673
1.0019835
1.0018999
1.0018117
1.0017197
1.0008038
1.0007978
1.0008001
1.0008049
1.0008102
1.0008168
1.0008245
1.0008327
1.0008425
1.0008535
1.0008649
1.0008771
1.0008912
1.0009043
1.0009204
1.0009355
1.0009524
1.0009703
1.0009883
1.0010073
1.0010274
1.00105
1.0010716
1.0010941
1.0011183
1.0011441
1.0011696
1.0011988
1.0012282
1.001259
1.0012913
1.0013244
1.0013579
1.0013938
1.0014291
1.0014662
1.001503
1.0015415
1.0015809
1.0016194
1.0016583
1.0016997
1.0017389
1.0017806
1.0018206
1.0018611
1.0019029
1.0019435
1.0019847
1.0020247
1.0020668
1.002107
1.0021463
1.0021864
1.0022243
1.0022624
1.0023008
1.0023366
1.0023724
1.0024117
1.0024441
1.0024779
1.0025091
1.0025408
1.0025701
1.0025964
1.0026226
1.0026548
1.0026745
1.0027019
1.0027191
1.002737
1.0027535
1.0027679
1.0027811
1.00279
1.002801
1.0028057
1.0028087
1.0028084
1.0028081
1.0028039
1.0027971
1.0027858
1.0027712
1.0027535
1.0027314
1.0027075
1.002677
1.0026433
1.0026037
1.0025609
1.0025093
1.0024558
1.002397
1.0023354
1.0022699
1.002201
1.0021298
1.002054
1.0019738
1.001891
1.0018048
1.001713
1.0008037
1.0007979
1.0007999
1.0008049
1.0008103
1.0008165
1.0008244
1.0008327
1.000843
1.0008535
1.0008647
1.0008778
1.0008906
1.0009041
1.0009191
1.0009342
1.0009517
1.0009687
1.0009876
1.001006
1.0010276
1.0010474
1.0010697
1.0010919
1.001116
1.001142
1.0011675
1.001197
1.0012266
1.0012575
1.001289
1.0013234
1.001356
1.0013919
1.0014261
1.0014646
1.0015002
1.0015394
1.0015784
1.0016164
1.0016548
1.0016968
1.0017353
1.0017772
1.0018173
1.0018578
1.0018989
1.0019398
1.0019799
1.0020211
1.0020608
1.0021022
1.0021425
1.0021808
1.0022205
1.0022582
1.0022964
1.0023326
1.0023695
1.0024036
1.002437
1.0024698
1.0025057
1.002535
1.002561
1.0025887
1.0026197
1.0026422
1.0026656
1.0026887
1.002708
1.0027297
1.0027439
1.0027593
1.0027719
1.00278
1.0027875
1.0027931
1.0027943
1.0027947
1.002791
1.0027856
1.0027779
1.0027666
1.0027513
1.0027333
1.002711
1.0026848
1.0026565
1.0026211
1.0025826
1.0025393
1.002491
1.0024377
1.0023777
1.0023155
1.0022503
1.0021814
1.0021105
1.0020353
1.001957
1.0018755
1.00179
1.0017041
1.0008036
1.0007981
1.0007996
1.0008044
1.0008103
1.0008162
1.0008239
1.0008322
1.0008419
1.0008526
1.0008639
1.000877
1.0008893
1.0009036
1.0009184
1.0009331
1.0009499
1.0009673
1.0009854
1.001004
1.0010252
1.0010451
1.0010676
1.0010896
1.0011134
1.0011397
1.0011655
1.0011953
1.0012241
1.0012561
1.0012874
1.0013212
1.0013542
1.0013894
1.0014246
1.0014614
1.0014972
1.0015358
1.0015741
1.0016122
1.0016533
1.001692
1.0017319
1.0017729
1.0018136
1.0018543
1.0018953
1.0019356
1.0019764
1.0020166
1.0020564
1.0020976
1.0021357
1.0021757
1.0022144
1.002252
1.0022903
1.0023278
1.0023634
1.0023977
1.0024306
1.0024641
1.0024948
1.0025246
1.0025552
1.0025819
1.0026068
1.0026353
1.0026572
1.0026844
1.0027022
1.0027177
1.0027338
1.002755
1.0027647
1.0027724
1.00278
1.0027855
1.0027869
1.0027845
1.0027808
1.0027733
1.0027632
1.0027502
1.0027342
1.0027159
1.0026926
1.0026653
1.0026356
1.0026018
1.0025628
1.0025203
1.0024703
1.0024238
1.002367
1.0023039
1.0022365
1.0021668
1.0020945
1.0020197
1.0019424
1.0018613
1.0017759
1.0016906
1.0008037
1.000798
1.0007997
1.0008043
1.0008099
1.0008163
1.0008233
1.0008324
1.0008414
1.0008526
1.0008635
1.0008764
1.0008889
1.000903
1.0009172
1.0009323
1.0009488
1.0009664
1.000984
1.0010027
1.0010228
1.0010429
1.0010649
1.001087
1.0011122
1.001137
1.0011644
1.0011941
1.0012228
1.0012545
1.0012858
1.0013189
1.0013526
1.0013865
1.0014231
1.0014577
1.0014957
1.0015327
1.0015712
1.0016094
1.0016498
1.0016883
1.0017278
1.0017691
1.0018096
1.0018497
1.0018899
1.0019306
1.0019713
1.0020114
1.0020527
1.0020924
1.0021308
1.0021707
1.0022103
1.0022473
1.0022845
1.002322
1.0023567
1.0023916
1.0024246
1.0024559
1.0024903
1.0025179
1.0025464
1.0025782
1.0026013
1.0026287
1.0026495
1.0026706
1.0026928
1.0027089
1.0027235
1.0027388
1.002751
1.0027602
1.0027666
1.0027782
1.0027784
1.0027757
1.0027724
1.0027636
1.002754
1.0027398
1.0027232
1.0027033
1.0026791
1.0026505
1.0026187
1.0025848
1.0025436
1.0025008
1.0024525
1.0024007
1.0023461
1.0022859
1.00222
1.0021511
1.0020777
1.0020018
1.0019242
1.0018456
1.0017603
1.0016752
1.0008038
1.0007979
1.0007998
1.0008043
1.00081
1.0008162
1.0008233
1.000832
1.0008414
1.0008514
1.0008627
1.0008757
1.0008881
1.0009025
1.0009162
1.0009314
1.0009474
1.0009648
1.0009822
1.0010014
1.0010211
1.001041
1.0010632
1.0010852
1.0011106
1.0011353
1.0011638
1.0011915
1.0012218
1.0012533
1.0012846
1.0013171
1.0013513
1.0013844
1.0014201
1.0014552
1.0014932
1.00153
1.0015691
1.0016068
1.0016462
1.0016847
1.001725
1.0017649
1.0018047
1.0018449
1.0018854
1.0019265
1.0019666
1.0020066
1.0020476
1.0020871
1.0021263
1.002166
1.0022044
1.0022425
1.0022777
1.0023164
1.0023505
1.0023844
1.0024183
1.0024489
1.0024827
1.0025105
1.002542
1.0025683
1.0025925
1.0026174
1.0026426
1.0026621
1.0026827
1.0026981
1.0027129
1.0027273
1.0027375
1.0027481
1.0027557
1.0027615
1.0027638
1.0027626
1.0027603
1.0027528
1.0027426
1.0027292
1.0027123
1.0026914
1.0026667
1.0026371
1.0026038
1.0025687
1.0025279
1.0024848
1.002436
1.0023843
1.0023287
1.0022689
1.0022031
1.0021365
1.0020625
1.0019874
1.0019097
1.0018294
1.001744
1.0016599
1.0008038
1.000798
1.0007996
1.0008042
1.0008098
1.0008159
1.0008237
1.0008317
1.0008414
1.0008511
1.0008631
1.000875
1.0008876
1.0009014
1.0009148
1.0009306
1.0009461
1.0009633
1.000981
1.0009997
1.0010191
1.0010396
1.0010614
1.0010837
1.0011086
1.0011339
1.0011621
1.0011898
1.0012204
1.0012513
1.0012821
1.001316
1.0013486
1.0013827
1.0014177
1.0014528
1.0014904
1.0015272
1.0015648
1.0016027
1.0016418
1.0016806
1.001721
1.0017613
1.0018006
1.0018415
1.0018814
1.0019215
1.0019623
1.0020015
1.0020429
1.0020815
1.002121
1.0021594
1.0021978
1.0022355
1.0022709
1.0023064
1.0023431
1.0023772
1.0024094
1.0024428
1.0024732
1.0025043
1.0025322
1.0025596
1.0025847
1.0026101
1.0026318
1.0026533
1.0026746
1.0026888
1.0027049
1.0027203
1.0027299
1.0027405
1.0027483
1.0027524
1.0027572
1.0027554
1.0027529
1.002745
1.002735
1.0027209
1.0027042
1.0026835
1.002657
1.0026267
1.0025907
1.0025538
1.0025113
1.0024684
1.0024191
1.0023682
1.0023122
1.0022532
1.0021879
1.0021209
1.002049
1.001972
1.0018947
1.0018148
1.0017289
1.0016449
1.000804
1.0007979
1.0007997
1.0008041
1.0008097
1.0008158
1.0008235
1.0008315
1.0008412
1.0008508
1.0008625
1.000874
1.0008873
1.0009001
1.0009145
1.0009295
1.000945
1.0009626
1.0009796
1.0009988
1.0010181
1.0010383
1.0010594
1.0010824
1.0011064
1.0011326
1.0011598
1.001188
1.0012184
1.0012489
1.00128
1.0013139
1.0013457
1.0013805
1.0014152
1.00145
1.0014865
1.0015235
1.0015611
1.0015996
1.0016369
1.0016772
1.0017165
1.0017566
1.0017958
1.0018371
1.0018768
1.0019168
1.0019573
1.0019973
1.0020368
1.0020761
1.0021156
1.0021541
1.0021911
1.0022282
1.0022659
1.0023008
1.0023352
1.0023703
1.0024033
1.0024347
1.0024666
1.0024949
1.002524
1.0025503
1.0025762
1.0026036
1.002624
1.0026453
1.0026665
1.0026822
1.0026977
1.0027115
1.0027216
1.0027311
1.002739
1.0027426
1.0027456
1.0027446
1.0027436
1.0027365
1.0027255
1.0027124
1.0026955
1.0026747
1.0026478
1.0026167
1.0025803
1.002542
1.002498
1.0024536
1.0024031
1.002352
1.0022956
1.0022374
1.0021721
1.0021058
1.0020359
1.00196
1.0018819
1.0018028
1.0017162
1.001632
1.000804
1.0007978
1.0007998
1.000804
1.0008096
1.0008156
1.0008232
1.0008313
1.0008407
1.0008505
1.0008612
1.0008741
1.0008862
1.0008999
1.0009133
1.0009282
1.0009441
1.0009615
1.0009785
1.0009973
1.0010162
1.0010365
1.001058
1.0010808
1.001105
1.0011314
1.001158
1.0011871
1.0012166
1.0012467
1.0012785
1.0013109
1.0013429
1.0013778
1.0014118
1.0014474
1.0014832
1.0015204
1.001557
1.0015962
1.0016336
1.0016729
1.0017121
1.0017518
1.0017921
1.0018319
1.0018718
1.0019128
1.0019531
1.0019923
1.0020317
1.0020702
1.00211
1.0021477
1.0021852
1.0022224
1.0022581
1.0022953
1.0023292
1.0023623
1.002398
1.0024284
1.0024599
1.0024885
1.0025157
1.0025438
1.0025681
1.0025953
1.0026155
1.0026352
1.002656
1.002671
1.0026861
1.0027007
1.002711
1.002719
1.0027263
1.0027303
1.0027327
1.0027305
1.0027285
1.0027217
1.0027108
1.0026999
1.0026834
1.0026645
1.0026394
1.0026095
1.0025715
1.0025306
1.0024845
1.0024395
1.0023871
1.0023364
1.002279
1.0022234
1.0021589
1.0020928
1.002022
1.0019473
1.0018696
1.0017914
1.0017049
1.0016205
1.0008037
1.0007979
1.0007997
1.0008042
1.0008094
1.0008153
1.000823
1.0008308
1.0008398
1.0008502
1.0008607
1.0008734
1.0008852
1.000899
1.0009123
1.0009269
1.0009427
1.0009598
1.0009764
1.0009952
1.001014
1.0010346
1.0010555
1.0010793
1.0011031
1.0011298
1.0011562
1.0011849
1.0012146
1.0012448
1.0012755
1.0013085
1.0013404
1.0013744
1.0014088
1.001444
1.0014802
1.0015169
1.0015533
1.0015925
1.0016304
1.0016691
1.0017085
1.0017483
1.0017879
1.0018278
1.0018672
1.001908
1.0019479
1.0019868
1.002026
1.0020657
1.0021036
1.002142
1.0021789
1.0022168
1.0022522
1.002288
1.0023226
1.0023565
1.0023884
1.0024202
1.0024532
1.0024811
1.0025082
1.0025355
1.0025599
1.0025839
1.0026064
1.0026255
1.0026464
1.0026605
1.0026757
1.0026919
1.0027005
1.002707
1.0027129
1.0027162
1.0027195
1.0027179
1.0027149
1.0027076
1.0026967
1.0026839
1.0026685
1.0026486
1.0026241
1.002595
1.0025589
1.0025196
1.0024728
1.0024255
1.0023729
1.0023202
1.0022626
1.0022046
1.0021407
1.0020773
1.0020072
1.0019341
1.0018564
1.001778
1.0016946
1.0016119
1.0008037
1.0007978
1.0007997
1.000804
1.0008092
1.0008152
1.0008223
1.0008307
1.0008391
1.0008496
1.00086
1.0008727
1.0008845
1.0008977
1.0009107
1.0009257
1.0009407
1.0009575
1.0009742
1.0009928
1.0010119
1.0010317
1.0010535
1.0010769
1.0011011
1.001128
1.0011542
1.0011838
1.0012121
1.0012431
1.001273
1.0013059
1.0013377
1.0013716
1.0014059
1.0014412
1.0014765
1.0015138
1.0015506
1.0015889
1.0016268
1.0016653
1.0017038
1.0017449
1.0017842
1.0018235
1.0018635
1.0019026
1.0019423
1.0019811
1.0020219
1.0020604
1.0020988
1.0021369
1.0021738
1.0022109
1.0022464
1.002282
1.0023161
1.0023503
1.0023816
1.0024134
1.0024434
1.0024736
1.0025004
1.0025281
1.0025519
1.0025735
1.002597
1.0026163
1.0026339
1.0026496
1.0026647
1.0026767
1.0026883
1.0026962
1.0027006
1.0027034
1.002706
1.0027036
1.0027007
1.0026926
1.0026823
1.0026693
1.0026535
1.0026341
1.0026099
1.0025818
1.0025454
1.0025072
1.0024601
1.0024138
1.0023593
1.0023072
1.0022478
1.0021905
1.0021247
1.0020612
1.0019909
1.0019192
1.0018415
1.0017648
1.0016808
1.0015989
1.0008038
1.0007977
1.0007998
1.0008037
1.0008091
1.000815
1.0008219
1.0008303
1.0008384
1.0008491
1.0008594
1.0008715
1.000883
1.0008962
1.0009091
1.000924
1.0009389
1.0009553
1.0009721
1.0009909
1.0010091
1.0010298
1.0010513
1.0010752
1.0010993
1.0011259
1.0011522
1.0011819
1.0012102
1.0012407
1.0012708
1.0013031
1.0013349
1.0013688
1.0014027
1.0014379
1.0014738
1.0015105
1.0015475
1.001585
1.0016228
1.0016614
1.0017005
1.0017395
1.0017793
1.0018186
1.0018581
1.0018979
1.0019368
1.0019761
1.0020156
1.0020544
1.0020932
1.0021306
1.0021682
1.0022046
1.0022406
1.0022756
1.0023101
1.0023443
1.0023753
1.0024071
1.0024376
1.0024646
1.0024918
1.0025186
1.0025427
1.0025642
1.0025855
1.0026073
1.0026231
1.0026405
1.0026529
1.0026683
1.0026763
1.0026838
1.0026885
1.0026897
1.0026921
1.002689
1.0026858
1.002678
1.0026668
1.0026563
1.0026395
1.0026186
1.0025962
1.0025677
1.0025324
1.0024936
1.0024472
1.0024003
1.0023463
1.0022931
1.0022315
1.002173
1.0021066
1.0020417
1.0019733
1.0019028
1.0018273
1.0017504
1.0016676
1.0015883
1.0008038
1.0007976
1.0007996
1.0008037
1.0008088
1.0008147
1.0008215
1.0008295
1.0008376
1.0008479
1.0008587
1.0008698
1.0008823
1.0008939
1.0009079
1.000922
1.0009368
1.0009531
1.0009697
1.0009881
1.0010067
1.0010278
1.0010493
1.0010725
1.0010974
1.001124
1.0011502
1.0011794
1.0012076
1.0012379
1.0012681
1.0013004
1.0013321
1.0013655
1.0014003
1.0014347
1.0014707
1.0015066
1.0015439
1.0015812
1.0016188
1.001658
1.0016956
1.0017357
1.0017745
1.0018141
1.0018522
1.0018932
1.0019311
1.0019714
1.0020091
1.0020494
1.0020867
1.0021249
1.0021616
1.0021979
1.0022355
1.0022695
1.0023048
1.0023381
1.0023694
1.0024
1.0024303
1.0024576
1.0024848
1.0025125
1.0025352
1.0025588
1.0025778
1.0025976
1.0026156
1.0026302
1.0026452
1.0026555
1.0026677
1.0026728
1.0026778
1.0026794
1.0026791
1.0026769
1.0026703
1.0026639
1.0026507
1.0026399
1.0026232
1.0026037
1.0025814
1.0025533
1.0025211
1.0024829
1.0024383
1.0023908
1.0023378
1.0022837
1.0022225
1.0021616
1.0020944
1.0020266
1.0019554
1.0018839
1.0018083
1.0017328
1.0016526
1.001574
1.0008039
1.0007974
1.0007995
1.0008036
1.0008085
1.0008142
1.0008212
1.0008285
1.0008376
1.0008468
1.0008582
1.0008687
1.0008811
1.0008924
1.000906
1.0009203
1.0009343
1.000951
1.0009674
1.0009851
1.0010049
1.0010245
1.0010474
1.0010702
1.0010958
1.0011211
1.001148
1.0011767
1.0012048
1.0012351
1.0012652
1.0012972
1.0013292
1.0013623
1.0013972
1.0014307
1.0014677
1.001503
1.0015399
1.0015775
1.0016146
1.0016541
1.0016912
1.0017315
1.001769
1.0018085
1.0018475
1.0018873
1.0019254
1.0019652
1.0020036
1.002042
1.0020807
1.0021179
1.0021556
1.0021919
1.002228
1.0022633
1.0022971
1.0023298
1.0023617
1.0023939
1.002422
1.0024505
1.0024781
1.0025026
1.0025265
1.0025513
1.0025704
1.0025903
1.0026071
1.0026233
1.002636
1.0026486
1.0026567
1.0026637
1.0026672
1.0026684
1.0026665
1.0026642
1.0026563
1.0026508
1.002638
1.0026234
1.0026069
1.0025862
1.0025638
1.0025371
1.0025051
1.0024688
1.0024257
1.0023798
1.002328
1.0022738
1.0022141
1.0021532
1.0020866
1.0020187
1.0019474
1.0018735
1.0017961
1.001719
1.0016369
1.0015589
1.0008041
1.0007973
1.0007996
1.0008035
1.0008082
1.0008138
1.0008209
1.0008278
1.000837
1.0008459
1.0008572
1.0008674
1.0008794
1.0008908
1.0009041
1.000918
1.0009318
1.0009487
1.0009648
1.0009825
1.0010019
1.0010219
1.0010448
1.0010679
1.0010935
1.0011187
1.0011455
1.0011739
1.001202
1.0012321
1.0012626
1.0012933
1.0013265
1.0013587
1.0013927
1.0014271
1.0014631
1.0014984
1.0015354
1.0015727
1.0016104
1.0016483
1.0016865
1.0017256
1.0017637
1.0018036
1.0018414
1.0018815
1.0019197
1.0019591
1.001998
1.0020361
1.0020738
1.0021122
1.0021489
1.0021846
1.0022228
1.0022562
1.0022895
1.0023221
1.0023538
1.0023855
1.0024148
1.0024417
1.0024701
1.0024942
1.0025173
1.0025408
1.0025603
1.0025815
1.002597
1.0026132
1.0026273
1.0026375
1.0026453
1.0026527
1.0026554
1.0026575
1.0026563
1.0026517
1.0026444
1.0026371
1.0026241
1.0026091
1.0025908
1.0025694
1.0025462
1.0025191
1.0024873
1.0024527
1.002412
1.0023673
1.0023185
1.0022646
1.0022061
1.002145
1.0020795
1.0020111
1.0019401
1.0018664
1.0017891
1.0017112
1.001627
1.0015475
1.0008041
1.0007972
1.0007995
1.0008034
1.0008077
1.0008135
1.0008201
1.0008272
1.0008361
1.000845
1.000856
1.0008661
1.0008777
1.0008889
1.000902
1.0009156
1.0009292
1.0009458
1.0009618
1.0009798
1.0009988
1.0010193
1.0010423
1.0010651
1.0010909
1.0011157
1.0011432
1.0011705
1.0011994
1.001228
1.0012593
1.0012898
1.0013222
1.0013549
1.0013888
1.0014229
1.0014586
1.001494
1.0015305
1.0015684
1.0016054
1.0016433
1.0016818
1.0017203
1.0017585
1.0017977
1.0018361
1.0018755
1.0019141
1.0019528
1.0019914
1.0020296
1.0020671
1.0021047
1.0021411
1.002177
1.0022134
1.002247
1.0022807
1.0023143
1.0023451
1.0023762
1.0024055
1.0024322
1.0024587
1.0024859
1.0025081
1.0025306
1.0025496
1.0025691
1.0025859
1.0026003
1.0026154
1.0026254
1.0026334
1.002641
1.0026452
1.0026453
1.0026452
1.0026393
1.0026329
1.0026238
1.0026098
1.0025961
1.0025764
1.0025561
1.0025298
1.002503
1.0024708
1.0024363
1.0023963
1.0023535
1.002306
1.0022538
1.0021977
1.0021369
1.0020734
1.0020057
1.0019342
1.0018606
1.0017833
1.0017049
1.0016214
1.0015411
1.0008041
1.0007971
1.0007992
1.0008033
1.0008075
1.0008131
1.0008196
1.0008267
1.0008353
1.0008441
1.000855
1.0008647
1.0008761
1.0008871
1.0008998
1.0009128
1.0009272
1.0009428
1.0009588
1.0009768
1.0009959
1.0010169
1.0010394
1.0010627
1.0010878
1.0011126
1.0011404
1.001167
1.0011963
1.0012245
1.0012553
1.0012859
1.0013182
1.0013502
1.0013849
1.0014186
1.0014542
1.0014897
1.0015263
1.0015628
1.0016008
1.0016383
1.0016761
1.0017149
1.0017534
1.0017921
1.0018301
1.00187
1.0019078
1.0019467
1.0019844
1.0020222
1.0020595
1.0020965
1.0021332
1.0021688
1.0022038
1.0022386
1.002272
1.002305
1.0023369
1.002367
1.0023953
1.0024225
1.0024508
1.0024739
1.0024988
1.00252
1.0025392
1.002558
1.0025745
1.0025883
1.0026011
1.0026131
1.0026205
1.0026296
1.0026325
1.0026335
1.0026329
1.0026287
1.0026209
1.0026122
1.002598
1.0025832
1.0025635
1.0025417
1.002516
1.0024881
1.0024559
1.0024212
1.0023824
1.0023394
1.0022939
1.0022432
1.002189
1.0021301
1.0020674
1.002001
1.0019307
1.0018577
1.0017802
1.0017015
1.0016185
1.001536
1.000804
1.000797
1.000799
1.0008031
1.0008073
1.0008129
1.0008192
1.0008261
1.0008346
1.0008432
1.0008537
1.0008632
1.0008744
1.0008849
1.0008975
1.0009104
1.0009245
1.0009399
1.0009559
1.0009738
1.0009934
1.0010142
1.0010368
1.0010602
1.0010845
1.00111
1.0011366
1.0011634
1.0011922
1.0012208
1.0012511
1.0012816
1.0013139
1.0013462
1.0013798
1.0014142
1.0014493
1.0014848
1.0015216
1.0015576
1.0015954
1.0016327
1.0016709
1.0017089
1.0017474
1.001786
1.0018245
1.0018629
1.0019011
1.0019396
1.0019777
1.0020148
1.0020522
1.0020888
1.0021257
1.0021608
1.0021961
1.0022296
1.0022631
1.0022962
1.0023268
1.0023575
1.0023852
1.0024126
1.0024408
1.0024636
1.0024888
1.0025096
1.0025282
1.0025479
1.0025633
1.0025773
1.002591
1.0026003
1.0026084
1.0026161
1.0026188
1.0026212
1.0026198
1.0026159
1.0026079
1.0025991
1.0025858
1.0025701
1.0025499
1.0025285
1.0025019
1.0024735
1.0024411
1.002406
1.002367
1.0023253
1.002279
1.0022303
1.0021775
1.0021207
1.00206
1.0019966
1.0019273
1.0018564
1.0017801
1.0017021
1.0016178
1.0015358
1.0008038
1.0007971
1.0007988
1.0008029
1.0008071
1.0008125
1.0008187
1.0008257
1.0008339
1.0008423
1.0008523
1.0008616
1.0008723
1.0008828
1.000895
1.000908
1.0009214
1.000937
1.0009529
1.0009711
1.000991
1.0010115
1.001034
1.0010574
1.0010816
1.0011068
1.0011333
1.0011597
1.0011882
1.001217
1.0012474
1.0012772
1.0013096
1.0013419
1.0013754
1.0014095
1.0014445
1.0014797
1.001516
1.0015527
1.0015894
1.0016273
1.001665
1.0017029
1.001741
1.0017798
1.0018175
1.0018563
1.0018946
1.0019317
1.0019707
1.0020072
1.0020447
1.0020819
1.0021178
1.0021526
1.0021879
1.0022213
1.0022548
1.0022861
1.002318
1.0023469
1.002377
1.002403
1.0024298
1.0024528
1.0024758
1.0024988
1.0025171
1.0025353
1.002551
1.0025665
1.0025777
1.0025888
1.002596
1.0026027
1.0026059
1.0026069
1.0026046
1.0026015
1.0025929
1.0025838
1.0025699
1.0025543
1.0025352
1.0025125
1.0024879
1.0024587
1.0024263
1.0023921
1.002352
1.0023096
1.0022636
1.0022153
1.0021625
1.0021076
1.0020477
1.0019859
1.0019189
1.0018499
1.0017753
1.0017001
1.0016174
1.0015358
1.0008037
1.0007971
1.0007985
1.0008027
1.0008069
1.0008119
1.0008182
1.000825
1.000833
1.0008413
1.0008509
1.0008597
1.0008701
1.0008804
1.0008922
1.0009052
1.0009186
1.000934
1.0009503
1.0009685
1.0009881
1.0010091
1.0010312
1.0010544
1.0010787
1.0011035
1.0011297
1.0011562