-0.5 	1.0007087
-0.48412699 	1.0067528
-0.46825397 	1.0138263
-0.45238095 	1.0106219
-0.43650794 	1.008484
-0.42063492 	1.0053066
-0.40476191 	1.0012649
-0.3888889 	0.99843094
-0.37301588 	0.99746394
-0.35714287 	0.99729457
-0.34126985 	0.99654203
-0.32539684 	0.99465792
-0.30952379 	0.99232296
-0.29365078 	0.99008182
-0.27777776 	0.98830054
-0.26190475 	0.98726208
-0.24603173 	0.98711815
-0.23015872 	0.98764202
-0.2142857 	0.98714013
-0.19841269 	0.98586536
-0.18253967 	0.98433729
-0.16666666 	0.98349861
-0.15079364 	0.9832389
-0.13492063 	0.98313705
-0.11904758 	0.9831672
-0.10317457 	0.98343667
-0.087301552 	0.98354596
-0.071428537 	0.98348771
-0.055555522 	0.98327797
-0.039682507 	0.98357163
-0.023809493 	0.98416199
-0.0079364777 	0.98490915
0.0079365373 	0.98555325
0.023809552 	0.9855475
0.039682567 	0.98477568
0.055555582 	0.98301767
0.071428597 	0.98143
0.087301612 	0.98095758
0.10317463 	0.98155153
0.11904764 	0.98327943
0.13492066 	0.98537992
0.15079367 	0.98696131
0.16666669 	0.98764472
0.1825397 	0.98700997
0.19841272 	0.98655543
0.21428573 	0.98633185
0.23015875 	0.98633486
0.24603176 	0.98646344
0.26190484 	0.98660633
0.27777785 	0.98657788
0.29365087 	0.98652636
0.30952388 	0.98668572
0.3253969 	0.98708861
0.34126991 	0.98732564
0.35714292 	0.98707437
0.37301594 	0.98661762
0.38888895 	0.98632547
0.40476197 	0.98653446
0.42063499 	0.98692036
0.436508 	0.98756041
0.45238101 	0.9882846
0.46825403 	0.9886984
0.48412704 	0.9948314
0.5 	0.9928923
