# Force and moment coefficients
# dragDir       : (1.00000000e+00 0.00000000e+00 0.00000000e+00)
# sideDir       : (0.00000000e+00 0.00000000e+00 -1.00000000e+00)
# liftDir       : (0.00000000e+00 1.00000000e+00 0.00000000e+00)
# rollAxis      : (1.00000000e+00 0.00000000e+00 0.00000000e+00)
# pitchAxis     : (0.00000000e+00 0.00000000e+00 -1.00000000e+00)
# yawAxis       : (0.00000000e+00 1.00000000e+00 0.00000000e+00)
# magUInf       : 1.77482393e-01
# lRef          : 1.00000000e+00
# Aref          : 1.00000000e-02
# CofR          : (0.00000000e+00 0.00000000e+00 0.00000000e+00)
#
# Time          	Cd              	Cd(f)           	Cd(r)           	Cl              	Cl(f)           	Cl(r)           	CmPitch         	CmRoll          	CmYaw           	Cs              	Cs(f)           	Cs(r)           
0.998           	8.28147518e-01	4.05311056e-01	4.22836462e-01	1.75254054e+00	8.78316825e-01	8.74223719e-01	2.04655335e-03	-8.76270272e-03	4.14073759e-03	3.18492709e-17	4.14073759e-03	-4.14073759e-03
1.003           	8.28478400e-01	4.05486085e-01	4.22992315e-01	1.75062298e+00	8.77358098e-01	8.73264886e-01	2.04660600e-03	-8.75311492e-03	4.14239200e-03	3.18527303e-17	4.14239200e-03	-4.14239200e-03
1.008           	8.28727434e-01	4.05620315e-01	4.23107119e-01	1.74868034e+00	8.76386745e-01	8.72293596e-01	2.04657408e-03	-8.74340170e-03	4.14363717e-03	3.18542679e-17	4.14363717e-03	-4.14363717e-03
1.013           	8.28963485e-01	4.05748223e-01	4.23215262e-01	1.74670390e+00	8.75398404e-01	8.71305492e-01	2.04645567e-03	-8.73351948e-03	4.14481743e-03	3.18543861e-17	4.14481743e-03	-4.14481743e-03
1.018           	8.29219408e-01	4.05886097e-01	4.23333312e-01	1.74472151e+00	8.74407009e-01	8.70314503e-01	2.04625281e-03	-8.72360756e-03	4.14609704e-03	3.18539081e-17	4.14609704e-03	-4.14609704e-03
1.023           	8.29518821e-01	4.06045792e-01	4.23473029e-01	1.74272362e+00	8.73407776e-01	8.69315841e-01	2.04596706e-03	-8.71361809e-03	4.14759411e-03	3.18535653e-17	4.14759411e-03	-4.14759411e-03
1.028           	8.29866509e-01	4.06229723e-01	4.23636786e-01	1.74070627e+00	8.72398731e-01	8.68307535e-01	2.04559820e-03	-8.70353133e-03	4.14933255e-03	3.18530296e-17	4.14933255e-03	-4.14933255e-03
1.033           	8.30245329e-01	4.06429312e-01	4.23816017e-01	1.73867044e+00	8.71380364e-01	8.67290072e-01	2.04514619e-03	-8.69335218e-03	4.15122665e-03	3.18526568e-17	4.15122665e-03	-4.15122665e-03
1.038           	8.30647125e-01	4.06640543e-01	4.24006581e-01	1.73660380e+00	8.70346513e-01	8.66257288e-01	2.04461277e-03	-8.68301901e-03	4.15323562e-03	3.18522732e-17	4.15323562e-03	-4.15323562e-03
1.043           	8.31075484e-01	4.06865247e-01	4.24210238e-01	1.73449913e+00	8.69293561e-01	8.65205564e-01	2.04399871e-03	-8.67249563e-03	4.15537742e-03	3.18517157e-17	4.15537742e-03	-4.15537742e-03
1.048           	8.31528451e-01	4.07102351e-01	4.24426100e-01	1.73237486e+00	8.68230733e-01	8.64144123e-01	2.04330492e-03	-8.66187428e-03	4.15764226e-03	3.18511157e-17	4.15764226e-03	-4.15764226e-03
1.053           	8.32013653e-01	4.07355672e-01	4.24657980e-01	1.73023083e+00	8.67157949e-01	8.63072885e-01	2.04253178e-03	-8.65115417e-03	4.16006826e-03	3.18505492e-17	4.16006826e-03	-4.16006826e-03
1.058           	8.32521630e-01	4.07620478e-01	4.24901152e-01	1.72806735e+00	8.66075355e-01	8.61991996e-01	2.04167980e-03	-8.64033675e-03	4.16260815e-03	3.18503947e-17	4.16260815e-03	-4.16260815e-03
1.063           	8.33054856e-01	4.07898053e-01	4.25156803e-01	1.72587500e+00	8.64978251e-01	8.60896752e-01	2.04074948e-03	-8.62937502e-03	4.16527428e-03	3.18503584e-17	4.16527428e-03	-4.16527428e-03
1.068           	8.33618021e-01	4.08190746e-01	4.25427276e-01	1.72365301e+00	8.63866246e-01	8.59786763e-01	2.03974153e-03	-8.61826505e-03	4.16809011e-03	3.18500041e-17	4.16809011e-03	-4.16809011e-03
1.073           	8.34208427e-01	4.08497175e-01	4.25711252e-01	1.72140765e+00	8.62742484e-01	8.58665171e-01	2.03865675e-03	-8.60703827e-03	4.17104213e-03	3.18495343e-17	4.17104213e-03	-4.17104213e-03
1.078           	8.34822808e-01	4.08815722e-01	4.26007085e-01	1.71913630e+00	8.61605647e-01	8.57530655e-01	2.03749576e-03	-8.59568151e-03	4.17411404e-03	3.18491328e-17	4.17411404e-03	-4.17411404e-03
1.083           	8.35458329e-01	4.09144977e-01	4.26313352e-01	1.71683753e+00	8.60455024e-01	8.56382506e-01	2.03625905e-03	-8.58418765e-03	4.17729165e-03	3.18486990e-17	4.17729165e-03	-4.17729165e-03
1.088           	8.36111888e-01	4.09483428e-01	4.26628460e-01	1.71450327e+00	8.59286580e-01	8.55216686e-01	2.03494712e-03	-8.57251633e-03	4.18055944e-03	3.18483829e-17	4.18055944e-03	-4.18055944e-03
1.093           	8.36797459e-01	4.09838047e-01	4.26959412e-01	1.71213656e+00	8.58101840e-01	8.54034719e-01	2.03356035e-03	-8.56068279e-03	4.18398729e-03	3.18478542e-17	4.18398729e-03	-4.18398729e-03
1.098           	8.37512252e-01	4.10207452e-01	4.27304800e-01	1.70973478e+00	8.56899488e-01	8.52835290e-01	2.03209921e-03	-8.54867389e-03	4.18756126e-03	3.18466349e-17	4.18756126e-03	-4.18756126e-03
1.103           	8.38251270e-01	4.10589114e-01	4.27662156e-01	1.70730414e+00	8.55682634e-01	8.51621505e-01	2.03056441e-03	-8.53652069e-03	4.19125635e-03	3.18452891e-17	4.19125635e-03	-4.19125635e-03
1.108           	8.39009040e-01	4.10980321e-01	4.28028719e-01	1.70483979e+00	8.54448853e-01	8.50390940e-01	2.02895647e-03	-8.52419897e-03	4.19504520e-03	3.18438977e-17	4.19504520e-03	-4.19504520e-03
1.113           	8.39788035e-01	4.11382355e-01	4.28405680e-01	1.70233249e+00	8.53193521e-01	8.49138970e-01	2.02727577e-03	-8.51166246e-03	4.19894017e-03	3.18424435e-17	4.19894017e-03	-4.19894017e-03
1.118           	8.40583204e-01	4.11792651e-01	4.28790553e-01	1.69979023e+00	8.51920640e-01	8.47869595e-01	2.02552246e-03	-8.49895117e-03	4.20291602e-03	3.18410298e-17	4.20291602e-03	-4.20291602e-03
1.123           	8.41396782e-01	4.12212295e-01	4.29184487e-01	1.69721919e+00	8.50633293e-01	8.46585899e-01	2.02369682e-03	-8.48609596e-03	4.20698391e-03	3.18395790e-17	4.20698391e-03	-4.20698391e-03
1.128           	8.42230089e-01	4.12641981e-01	4.29588109e-01	1.69461282e+00	8.49328210e-01	8.45284611e-01	2.02179924e-03	-8.47306410e-03	4.21115045e-03	3.18382062e-17	4.21115045e-03	-4.21115045e-03
1.133           	8.43093660e-01	4.13086999e-01	4.30006661e-01	1.69196621e+00	8.48002932e-01	8.43963273e-01	2.01982999e-03	-8.45983103e-03	4.21546830e-03	3.18368811e-17	4.21546830e-03	-4.21546830e-03
1.138           	8.43979526e-01	4.13543365e-01	4.30436162e-01	1.68927969e+00	8.46657635e-01	8.42622057e-01	2.01778919e-03	-8.44639846e-03	4.21989763e-03	3.18356486e-17	4.21989763e-03	-4.21989763e-03
1.143           	8.44884649e-01	4.14009512e-01	4.30875137e-01	1.68656252e+00	8.45296939e-01	8.41265585e-01	2.01567680e-03	-8.43281262e-03	4.22442325e-03	3.18344682e-17	4.22442325e-03	-4.22442325e-03
1.148           	8.45801525e-01	4.14481675e-01	4.31319850e-01	1.68381757e+00	8.43922278e-01	8.39895293e-01	2.01349265e-03	-8.41908786e-03	4.22900762e-03	3.18335038e-17	4.22900762e-03	-4.22900762e-03
1.153           	8.46736623e-01	4.14963116e-01	4.31773507e-01	1.68103916e+00	8.42530814e-01	8.38508341e-01	2.01123655e-03	-8.40519578e-03	4.23368311e-03	3.18325841e-17	4.23368311e-03	-4.23368311e-03
1.158           	8.47696727e-01	4.15457272e-01	4.32239455e-01	1.67821831e+00	8.41118061e-01	8.37100245e-01	2.00890827e-03	-8.39109153e-03	4.23848363e-03	3.18322126e-17	4.23848363e-03	-4.23848363e-03
1.163           	8.48682844e-01	4.15964638e-01	4.32718206e-01	1.67535682e+00	8.39684917e-01	8.35671902e-01	2.00650762e-03	-8.37678409e-03	4.24341422e-03	3.18318101e-17	4.24341422e-03	-4.24341422e-03
1.168           	8.49689572e-01	4.16482490e-01	4.33207082e-01	1.67245913e+00	8.38233597e-01	8.34225529e-01	2.00403429e-03	-8.36229563e-03	4.24844786e-03	3.18314703e-17	4.24844786e-03	-4.24844786e-03
1.173           	8.50713162e-01	4.17008951e-01	4.33704210e-01	1.66952590e+00	8.36764440e-01	8.32761464e-01	2.00148790e-03	-8.34762952e-03	4.25356581e-03	3.18311282e-17	4.25356581e-03	-4.25356581e-03
1.178           	8.51761961e-01	4.17548228e-01	4.34213733e-01	1.66655051e+00	8.35274121e-01	8.31276385e-01	1.99886805e-03	-8.33275253e-03	4.25880980e-03	3.18307653e-17	4.25880980e-03	-4.25880980e-03
1.183           	8.52830642e-01	4.18097640e-01	4.34733002e-01	1.66353617e+00	8.33764258e-01	8.29771910e-01	1.99617416e-03	-8.31768084e-03	4.26415321e-03	3.18307854e-17	4.26415321e-03	-4.26415321e-03
1.188           	8.53928497e-01	4.18661850e-01	4.35266647e-01	1.66047977e+00	8.32233291e-01	8.28246480e-01	1.99340567e-03	-8.30239886e-03	4.26964249e-03	3.18308604e-17	4.26964249e-03	-4.26964249e-03
1.193           	8.55051541e-01	4.19238841e-01	4.35812700e-01	1.65738594e+00	8.30683531e-01	8.26702407e-01	1.99056199e-03	-8.28692969e-03	4.27525770e-03	3.18309900e-17	4.27525770e-03	-4.27525770e-03
1.198           	8.56197232e-01	4.19827334e-01	4.36369899e-01	1.65425648e+00	8.29115881e-01	8.25140597e-01	1.98764237e-03	-8.27128239e-03	4.28098616e-03	3.18310542e-17	4.28098616e-03	-4.28098616e-03
1.203           	8.57358437e-01	4.20423751e-01	4.36934686e-01	1.65109352e+00	8.27531408e-01	8.23562116e-01	1.98464584e-03	-8.25546762e-03	4.28679218e-03	3.18311430e-17	4.28679218e-03	-4.28679218e-03
1.208           	8.58545055e-01	4.21033083e-01	4.37511972e-01	1.64788891e+00	8.25926027e-01	8.21962884e-01	1.98157141e-03	-8.23944456e-03	4.29272527e-03	3.18312533e-17	4.29272527e-03	-4.29272527e-03
1.213           	8.59757014e-01	4.21655269e-01	4.38101745e-01	1.64464760e+00	8.24302217e-01	8.20345381e-01	1.97841792e-03	-8.22323799e-03	4.29878507e-03	3.18313455e-17	4.29878507e-03	-4.29878507e-03
1.218           	8.60996077e-01	4.22291197e-01	4.38704880e-01	1.64136826e+00	8.22659313e-01	8.18708945e-01	1.97518430e-03	-8.20684129e-03	4.30498038e-03	3.18314256e-17	4.30498038e-03	-4.30498038e-03
1.223           	8.62253552e-01	4.22936501e-01	4.39317051e-01	1.63805501e+00	8.20999374e-01	8.17055635e-01	1.97186919e-03	-8.19027504e-03	4.31126776e-03	3.18314724e-17	4.31126776e-03	-4.31126776e-03
1.228           	8.63534440e-01	4.23593718e-01	4.39940722e-01	1.63470047e+00	8.19318706e-01	8.15381764e-01	1.96847095e-03	-8.17350235e-03	4.31767220e-03	3.18320470e-17	4.31767220e-03	-4.31767220e-03
1.233           	8.64833845e-01	4.24260352e-01	4.40573493e-01	1.63131410e+00	8.17622036e-01	8.13692060e-01	1.96498820e-03	-8.15657048e-03	4.32416923e-03	3.18325785e-17	4.32416923e-03	-4.32416923e-03
1.238           	8.66157753e-01	4.24939420e-01	4.41218333e-01	1.62789124e+00	8.15907040e-01	8.11984201e-01	1.96141959e-03	-8.13945620e-03	4.33078876e-03	3.18330981e-17	4.33078876e-03	-4.33078876e-03
1.243           	8.67496275e-01	4.25625940e-01	4.41870335e-01	1.62443948e+00	8.14177503e-01	8.10261975e-01	1.95776370e-03	-8.12219739e-03	4.33748138e-03	3.18336639e-17	4.33748138e-03	-4.33748138e-03
1.248           	8.68857203e-01	4.26323858e-01	4.42533345e-01	1.62094873e+00	8.12428384e-01	8.08520345e-01	1.95401913e-03	-8.10474364e-03	4.34428601e-03	3.18342214e-17	4.34428601e-03	-4.34428601e-03
1.253           	8.70226712e-01	4.27026223e-01	4.43200489e-01	1.61742666e+00	8.10663513e-01	8.06763144e-01	1.95018452e-03	-8.08713328e-03	4.35113356e-03	3.18348312e-17	4.35113356e-03	-4.35113356e-03
1.258           	8.71607495e-01	4.27734379e-01	4.43873116e-01	1.61387368e+00	8.08883097e-01	8.04990580e-01	1.94625867e-03	-8.06936839e-03	4.35803748e-03	3.18354253e-17	4.35803748e-03	-4.35803748e-03
1.263           	8.72999146e-01	4.28448127e-01	4.44551020e-01	1.61028933e+00	8.07086904e-01	8.03202424e-01	1.94224029e-03	-8.05144664e-03	4.36499573e-03	3.18359563e-17	4.36499573e-03	-4.36499573e-03
1.268           	8.74404454e-01	4.29168862e-01	4.45235592e-01	1.60667296e+00	8.05274607e-01	8.01398351e-01	1.93812834e-03	-8.03336479e-03	4.37202227e-03	3.18366475e-17	4.37202227e-03	-4.37202227e-03
1.273           	8.75816226e-01	4.29892971e-01	4.45923254e-01	1.60302829e+00	8.03448065e-01	7.99580222e-01	1.93392177e-03	-8.01514144e-03	4.37908113e-03	3.18374123e-17	4.37908113e-03	-4.37908113e-03
1.278           	8.77240704e-01	4.30623600e-01	4.46617104e-01	1.59935036e+00	8.01604799e-01	7.97745559e-01	1.92961968e-03	-7.99675179e-03	4.38620352e-03	3.18381881e-17	4.38620352e-03	-4.38620352e-03
1.283           	8.78671334e-01	4.31357434e-01	4.47313899e-01	1.59564650e+00	7.99748474e-01	7.95898031e-01	1.92522121e-03	-7.97823252e-03	4.39335667e-03	3.18388161e-17	4.39335667e-03	-4.39335667e-03
1.288           	8.80112522e-01	4.32096702e-01	4.48015820e-01	1.59191185e+00	7.97876649e-01	7.94035197e-01	1.92072581e-03	-7.95955923e-03	4.40056261e-03	3.18394150e-17	4.40056261e-03	-4.40056261e-03
1.293           	8.81562073e-01	4.32840284e-01	4.48721788e-01	1.58815040e+00	7.95991335e-01	7.92159069e-01	1.91613303e-03	-7.94075202e-03	4.40781036e-03	3.18401516e-17	4.40781036e-03	-4.40781036e-03
1.298           	8.83020636e-01	4.33588502e-01	4.49432134e-01	1.58436326e+00	7.94093072e-01	7.90270188e-01	1.91144247e-03	-7.92181630e-03	4.41510318e-03	3.18409392e-17	4.41510318e-03	-4.41510318e-03
1.303           	8.84482394e-01	4.34338448e-01	4.50143947e-01	1.58054988e+00	7.92181595e-01	7.88368287e-01	1.90665399e-03	-7.90274941e-03	4.42241197e-03	3.18417000e-17	4.42241197e-03	-4.42241197e-03
1.308           	8.85949022e-01	4.35090968e-01	4.50858053e-01	1.57670852e+00	7.90256030e-01	7.86452495e-01	1.90176741e-03	-7.88354262e-03	4.42974511e-03	3.18423726e-17	4.42974511e-03	-4.42974511e-03
1.313           	8.87418687e-01	4.35845118e-01	4.51573569e-01	1.57284508e+00	7.88319323e-01	7.84525757e-01	1.89678288e-03	-7.86422540e-03	4.43709344e-03	3.18429755e-17	4.43709344e-03	-4.43709344e-03
1.318           	8.88888890e-01	4.36599653e-01	4.52289237e-01	1.56895836e+00	7.86370882e-01	7.82587480e-01	1.89170066e-03	-7.84479181e-03	4.44444445e-03	3.18435903e-17	4.44444445e-03	-4.44444445e-03
1.323           	8.90365230e-01	4.37357368e-01	4.53007862e-01	1.56504944e+00	7.84411242e-01	7.80638200e-01	1.88652108e-03	-7.82524721e-03	4.45182615e-03	3.18442017e-17	4.45182615e-03	-4.45182615e-03
1.328           	8.91846443e-01	4.38117648e-01	4.53728795e-01	1.56111473e+00	7.82438611e-01	7.78676121e-01	1.88124472e-03	-7.80557366e-03	4.45923221e-03	3.18446673e-17	4.45923221e-03	-4.45923221e-03
1.333           	8.93326084e-01	4.38877224e-01	4.54448860e-01	1.55716354e+00	7.80457642e-01	7.76705898e-01	1.87587217e-03	-7.78581770e-03	4.46663042e-03	3.18450985e-17	4.46663042e-03	-4.46663042e-03
1.338           	8.94807800e-01	4.39637944e-01	4.55169856e-01	1.55319119e+00	7.78465999e-01	7.74725190e-01	1.87040416e-03	-7.76595595e-03	4.47403900e-03	3.18454803e-17	4.47403900e-03	-4.47403900e-03
1.343           	8.96292083e-01	4.40400047e-01	4.55892036e-01	1.54919889e+00	7.76464288e-01	7.72734605e-01	1.86484154e-03	-7.74599447e-03	4.48146042e-03	3.18458289e-17	4.48146042e-03	-4.48146042e-03
1.348           	8.97779585e-01	4.41163861e-01	4.56615724e-01	1.54518636e+00	7.74452365e-01	7.70733995e-01	1.85918521e-03	-7.72593180e-03	4.48889793e-03	3.18462286e-17	4.48889793e-03	-4.48889793e-03
1.353           	8.99269090e-01	4.41928759e-01	4.57340331e-01	1.54115713e+00	7.72432001e-01	7.68725129e-01	1.85343625e-03	-7.70578565e-03	4.49634545e-03	3.18466317e-17	4.49634545e-03	-4.49634545e-03
1.358           	9.00758956e-01	4.42693927e-01	4.58065029e-01	1.53711011e+00	7.70402650e-01	7.66707459e-01	1.84759573e-03	-7.68555055e-03	4.50379478e-03	3.18469728e-17	4.50379478e-03	-4.50379478e-03
1.363           	9.02250143e-01	4.43459835e-01	4.58790308e-01	1.53304726e+00	7.68365296e-01	7.64681966e-01	1.84166492e-03	-7.66523631e-03	4.51125072e-03	3.18472596e-17	4.51125072e-03	-4.51125072e-03
1.368           	9.03745145e-01	4.44227737e-01	4.59517408e-01	1.52896713e+00	7.66319211e-01	7.62647921e-01	1.83564517e-03	-7.64483566e-03	4.51872572e-03	3.18475384e-17	4.51872572e-03	-4.51872572e-03
1.373           	9.05241737e-01	4.44996522e-01	4.60245216e-01	1.52486942e+00	7.64264247e-01	7.60605171e-01	1.82953793e-03	-7.62434709e-03	4.52620869e-03	3.18478017e-17	4.52620869e-03	-4.52620869e-03
1.378           	9.06736959e-01	4.45764696e-01	4.60972263e-01	1.52075669e+00	7.62201688e-01	7.58554999e-01	1.82334470e-03	-7.60378343e-03	4.53368480e-03	3.18480360e-17	4.53368480e-03	-4.53368480e-03
1.383           	9.08226071e-01	4.46529876e-01	4.61696194e-01	1.51663179e+00	7.60132964e-01	7.56498830e-01	1.81706701e-03	-7.58315897e-03	4.54113035e-03	3.18482510e-17	4.54113035e-03	-4.54113035e-03
1.388           	9.09713543e-01	4.47294315e-01	4.62419228e-01	1.51249135e+00	7.58056382e-01	7.54434969e-01	1.81070655e-03	-7.56245676e-03	4.54856772e-03	3.18484592e-17	4.54856772e-03	-4.54856772e-03
1.393           	9.11199118e-01	4.48057876e-01	4.63141242e-01	1.50833661e+00	7.55972569e-01	7.52364039e-01	1.80426505e-03	-7.54168304e-03	4.55599559e-03	3.18486515e-17	4.55599559e-03	-4.55599559e-03
1.398           	9.12685309e-01	4.48821824e-01	4.63863485e-01	1.50416618e+00	7.53880834e-01	7.50285345e-01	1.79774433e-03	-7.52083089e-03	4.56342655e-03	3.18488326e-17	4.56342655e-03	-4.56342655e-03
1.403           	9.14163314e-01	4.49581720e-01	4.64581594e-01	1.49998744e+00	7.51784865e-01	7.48202573e-01	1.79114616e-03	-7.49993719e-03	4.57081657e-03	3.18489660e-17	4.57081657e-03	-4.57081657e-03
1.408           	9.15633461e-01	4.50337763e-01	4.65295698e-01	1.49579355e+00	7.49681249e-01	7.46112304e-01	1.78447251e-03	-7.47896777e-03	4.57816730e-03	3.18490633e-17	4.57816730e-03	-4.57816730e-03
1.413           	9.17100617e-01	4.51092395e-01	4.66008222e-01	1.49158267e+00	7.47569058e-01	7.44013607e-01	1.77772537e-03	-7.45791333e-03	4.58550308e-03	3.18491479e-17	4.58550308e-03	-4.58550308e-03
1.418           	9.18562887e-01	4.51844659e-01	4.66718228e-01	1.48735696e+00	7.45449387e-01	7.41907574e-01	1.77090680e-03	-7.43678480e-03	4.59281443e-03	3.18492144e-17	4.59281443e-03	-4.59281443e-03
1.423           	9.20014616e-01	4.52591691e-01	4.67422925e-01	1.48312341e+00	7.43325722e-01	7.39797685e-01	1.76401881e-03	-7.41561704e-03	4.60007308e-03	3.18490659e-17	4.60007308e-03	-4.60007308e-03
1.428           	9.21455549e-01	4.53333378e-01	4.68122170e-01	1.47887924e+00	7.41196682e-01	7.37682555e-01	1.75706355e-03	-7.39439619e-03	4.60727774e-03	3.18488929e-17	4.60727774e-03	-4.60727774e-03
1.433           	9.22884759e-01	4.54069251e-01	4.68815508e-01	1.47462568e+00	7.39062885e-01	7.35562799e-01	1.75004308e-03	-7.37312842e-03	4.61442380e-03	3.18486996e-17	4.61442380e-03	-4.61442380e-03
1.438           	9.24305588e-01	4.54801009e-01	4.69504580e-01	1.47035707e+00	7.36921494e-01	7.33435575e-01	1.74295961e-03	-7.35178535e-03	4.62152794e-03	3.18485034e-17	4.62152794e-03	-4.62152794e-03
1.443           	9.25714181e-01	4.55526706e-01	4.70187475e-01	1.46607698e+00	7.34774305e-01	7.31302674e-01	1.73581532e-03	-7.33038490e-03	4.62857091e-03	3.18483049e-17	4.62857091e-03	-4.62857091e-03
1.448           	9.27110689e-01	4.56246410e-01	4.70864279e-01	1.46178685e+00	7.32622037e-01	7.29164812e-01	1.72861244e-03	-7.30893424e-03	4.63555345e-03	3.18480822e-17	4.63555345e-03	-4.63555345e-03
1.453           	9.28491753e-01	4.56958448e-01	4.71533305e-01	1.45748569e+00	7.30464200e-01	7.27021494e-01	1.72135321e-03	-7.28742847e-03	4.64245876e-03	3.18478390e-17	4.64245876e-03	-4.64245876e-03
1.458           	9.29860647e-01	4.57664492e-01	4.72196155e-01	1.45316637e+00	7.28297225e-01	7.24869145e-01	1.71404009e-03	-7.26583185e-03	4.64930323e-03	3.18475978e-17	4.64930323e-03	-4.64930323e-03
1.463           	9.31215579e-01	4.58363627e-01	4.72851952e-01	1.44883251e+00	7.26122929e-01	7.22709578e-01	1.70667533e-03	-7.24416253e-03	4.65607789e-03	3.18471275e-17	4.65607789e-03	-4.65607789e-03
1.468           	9.32556863e-01	4.59056000e-01	4.73500863e-01	1.44448628e+00	7.23942402e-01	7.20543879e-01	1.69926126e-03	-7.22243140e-03	4.66278431e-03	3.18463213e-17	4.66278431e-03	-4.66278431e-03
1.473           	9.33882115e-01	4.59740416e-01	4.74141698e-01	1.44012816e+00	7.21755879e-01	7.18372278e-01	1.69180021e-03	-7.20064079e-03	4.66941057e-03	3.18455059e-17	4.66941057e-03	-4.66941057e-03
1.478           	9.35187019e-01	4.60414718e-01	4.74772301e-01	1.43575825e+00	7.19563419e-01	7.16194830e-01	1.68429448e-03	-7.17879124e-03	4.67593509e-03	3.18446850e-17	4.67593509e-03	-4.67593509e-03
1.483           	9.36472946e-01	4.61079601e-01	4.75393345e-01	1.43137437e+00	7.17363931e-01	7.14010438e-01	1.67674648e-03	-7.15687185e-03	4.68236473e-03	3.18438458e-17	4.68236473e-03	-4.68236473e-03
1.488           	9.37745649e-01	4.61737936e-01	4.76007713e-01	1.42697763e+00	7.15157973e-01	7.11819656e-01	1.66915856e-03	-7.13488815e-03	4.68872824e-03	3.18430377e-17	4.68872824e-03	-4.68872824e-03
1.493           	9.39001719e-01	4.62388011e-01	4.76613708e-01	1.42256971e+00	7.12946387e-01	7.09623321e-01	1.66153309e-03	-7.11284854e-03	4.69500860e-03	3.18422270e-17	4.69500860e-03	-4.69500860e-03
1.498           	9.40240585e-01	4.63029546e-01	4.77211039e-01	1.41814922e+00	7.10728484e-01	7.07420739e-01	1.65387248e-03	-7.09074611e-03	4.70120293e-03	3.18412497e-17	4.70120293e-03	-4.70120293e-03
1.503           	9.41461419e-01	4.63662128e-01	4.77799291e-01	1.41371634e+00	7.08504347e-01	7.05211989e-01	1.64617903e-03	-7.06858168e-03	4.70730709e-03	3.18403837e-17	4.70730709e-03	-4.70730709e-03
1.508           	9.42661274e-01	4.64284262e-01	4.78377012e-01	1.40927496e+00	7.06275935e-01	7.02999024e-01	1.63845530e-03	-7.04637480e-03	4.71330637e-03	3.18395012e-17	4.71330637e-03	-4.71330637e-03
1.513           	9.43844563e-01	4.64898163e-01	4.78946400e-01	1.40482364e+00	7.04042525e-01	7.00781118e-01	1.63070362e-03	-7.02411821e-03	4.71922282e-03	3.18385904e-17	4.71922282e-03	-4.71922282e-03
1.518           	9.45010774e-01	4.65503571e-01	4.79507204e-01	1.40036330e+00	7.01804576e-01	6.98558723e-01	1.62292644e-03	-7.00181650e-03	4.72505387e-03	3.18376642e-17	4.72505387e-03	-4.72505387e-03
1.523           	9.46158525e-01	4.66099809e-01	4.80058716e-01	1.39589070e+00	6.99560476e-01	6.96330224e-01	1.61512611e-03	-6.97945350e-03	4.73079262e-03	3.18367492e-17	4.73079262e-03	-4.73079262e-03
1.528           	9.47285767e-01	4.66685852e-01	4.80599915e-01	1.39140626e+00	6.97310433e-01	6.94095823e-01	1.60730513e-03	-6.95703128e-03	4.73642883e-03	3.18358272e-17	4.73642883e-03	-4.73642883e-03
1.533           	9.48393180e-01	4.67262031e-01	4.81131149e-01	1.38691187e+00	6.95055401e-01	6.91856469e-01	1.59946586e-03	-6.93455935e-03	4.74196590e-03	3.18349095e-17	4.74196590e-03	-4.74196590e-03
1.538           	9.49479945e-01	4.67827917e-01	4.81652028e-01	1.38241108e+00	6.92797150e-01	6.89613928e-01	1.59161069e-03	-6.91205539e-03	4.74739973e-03	3.18339850e-17	4.74739973e-03	-4.74739973e-03
1.543           	9.50548726e-01	4.68384844e-01	4.82163883e-01	1.37790390e+00	6.90535692e-01	6.87368208e-01	1.58374194e-03	-6.88951950e-03	4.75274363e-03	3.18330504e-17	4.75274363e-03	-4.75274363e-03
1.548           	9.51599107e-01	4.68932607e-01	4.82666500e-01	1.37338925e+00	6.88270485e-01	6.85118761e-01	1.57586204e-03	-6.86694623e-03	4.75799554e-03	3.18320845e-17	4.75799554e-03	-4.75799554e-03
1.553           	9.52629301e-01	4.69470313e-01	4.83158989e-01	1.36886761e+00	6.86001780e-01	6.82865834e-01	1.56797323e-03	-6.84433807e-03	4.76314651e-03	3.18311057e-17	4.76314651e-03	-4.76314651e-03
1.558           	9.53641538e-01	4.69999078e-01	4.83642460e-01	1.36433827e+00	6.83729215e-01	6.80609059e-01	1.56007786e-03	-6.82169137e-03	4.76820769e-03	3.18301106e-17	4.76820769e-03	-4.76820769e-03
1.563           	9.54639199e-01	4.70520593e-01	4.84118607e-01	1.35980141e+00	6.81452883e-01	6.78348527e-01	1.55217802e-03	-6.79900705e-03	4.77319600e-03	3.18291239e-17	4.77319600e-03	-4.77319600e-03
1.568           	9.55617824e-01	4.71032618e-01	4.84585206e-01	1.35525873e+00	6.79173640e-01	6.76085088e-01	1.54427589e-03	-6.77629364e-03	4.77808912e-03	3.18281296e-17	4.77808912e-03	-4.77808912e-03
1.573           	9.56574984e-01	4.71533931e-01	4.85041054e-01	1.35071232e+00	6.76892532e-01	6.73819784e-01	1.53637353e-03	-6.75356158e-03	4.78287492e-03	3.18271140e-17	4.78287492e-03	-4.78287492e-03
1.578           	9.57515463e-01	4.72026930e-01	4.85488533e-01	1.34616030e+00	6.74608624e-01	6.71551678e-01	1.52847295e-03	-6.73080151e-03	4.78757731e-03	3.18260832e-17	4.78757731e-03	-4.78757731e-03
1.583           	9.58441980e-01	4.72512985e-01	4.85928995e-01	1.34160102e+00	6.72321086e-01	6.69279934e-01	1.52057606e-03	-6.70800510e-03	4.79220990e-03	3.18250347e-17	4.79220990e-03	-4.79220990e-03
1.588           	9.59350488e-01	4.72990066e-01	4.86360422e-01	1.33703562e+00	6.70030493e-01	6.67005124e-01	1.51268464e-03	-6.68517809e-03	4.79675244e-03	3.18240343e-17	4.79675244e-03	-4.79675244e-03
1.593           	9.60241708e-01	4.73458535e-01	4.86783172e-01	1.33246371e+00	6.67736654e-01	6.64727053e-01	1.50480048e-03	-6.66231853e-03	4.80120854e-03	3.18230048e-17	4.80120854e-03	-4.80120854e-03
1.598           	9.61116658e-01	4.73918903e-01	4.87197755e-01	1.32788524e+00	6.65439547e-01	6.62445696e-01	1.49692523e-03	-6.63942622e-03	4.80558329e-03	3.18219760e-17	4.80558329e-03	-4.80558329e-03
1.603           	9.61978420e-01	4.74372711e-01	4.87605709e-01	1.32329987e+00	6.63138995e-01	6.60160874e-01	1.48906032e-03	-6.61649935e-03	4.80989210e-03	3.18209166e-17	4.80989210e-03	-4.80989210e-03
1.608           	9.62828352e-01	4.74820639e-01	4.88007713e-01	1.31870737e+00	6.60834891e-01	6.57872477e-01	1.48120731e-03	-6.59353684e-03	4.81414176e-03	3.18198470e-17	4.81414176e-03	-4.81414176e-03
1.613           	9.63662941e-01	4.75260916e-01	4.88402025e-01	1.31411089e+00	6.58528814e-01	6.55582079e-01	1.47336748e-03	-6.57055447e-03	4.81831471e-03	3.18187423e-17	4.81831471e-03	-4.81831471e-03
1.618           	9.64482440e-01	4.75693666e-01	4.88788774e-01	1.30951080e+00	6.56220943e-01	6.53289858e-01	1.46554224e-03	-6.54755400e-03	4.82241220e-03	3.18176108e-17	4.82241220e-03	-4.82241220e-03
1.623           	9.65288034e-01	4.76119485e-01	4.89168549e-01	1.30490634e+00	6.53910904e-01	6.50995438e-01	1.45773271e-03	-6.52453171e-03	4.82644017e-03	3.18165003e-17	4.82644017e-03	-4.82644017e-03
1.628           	9.66081987e-01	4.76539508e-01	4.89542479e-01	1.30029709e+00	6.51598485e-01	6.48698605e-01	1.44994004e-03	-6.50148545e-03	4.83040993e-03	3.18153617e-17	4.83040993e-03	-4.83040993e-03
1.633           	9.66861676e-01	4.76952416e-01	4.89909259e-01	1.29568429e+00	6.49284310e-01	6.46399980e-01	1.44216534e-03	-6.47842145e-03	4.83430838e-03	3.18142328e-17	4.83430838e-03	-4.83430838e-03
1.638           	9.67629931e-01	4.77359644e-01	4.90270287e-01	1.29106430e+00	6.46966561e-01	6.44097742e-01	1.43440950e-03	-6.45532152e-03	4.83814966e-03	3.18131095e-17	4.83814966e-03	-4.83814966e-03
1.643           	9.68387785e-01	4.77761710e-01	4.90626075e-01	1.28643650e+00	6.44644923e-01	6.41791576e-01	1.42667339e-03	-6.43218250e-03	4.84193892e-03	3.18120221e-17	4.84193892e-03	-4.84193892e-03
1.648           	9.69138051e-01	4.78160025e-01	4.90978026e-01	1.28180015e+00	6.42319034e-01	6.39481118e-01	1.41895790e-03	-6.40900076e-03	4.84569026e-03	3.18110347e-17	4.84569026e-03	-4.84569026e-03
1.653           	9.69875634e-01	4.78552029e-01	4.91323606e-01	1.27715768e+00	6.39990102e-01	6.37167575e-01	1.41126380e-03	-6.38578838e-03	4.84937817e-03	3.18100360e-17	4.84937817e-03	-4.84937817e-03
1.658           	9.70606851e-01	4.78940901e-01	4.91665949e-01	1.27250482e+00	6.37656003e-01	6.34848819e-01	1.40359188e-03	-6.36252411e-03	4.85303425e-03	3.18090006e-17	4.85303425e-03	-4.85303425e-03
1.663           	9.71327736e-01	4.79324644e-01	4.92003093e-01	1.26784494e+00	6.35318410e-01	6.32526525e-01	1.39594277e-03	-6.33922468e-03	4.85663868e-03	3.18079802e-17	4.85663868e-03	-4.85663868e-03
1.668           	9.72038837e-01	4.79703516e-01	4.92335321e-01	1.26318048e+00	6.32978555e-01	6.30201921e-01	1.38831708e-03	-6.31590238e-03	4.86019418e-03	3.18069220e-17	4.86019418e-03	-4.86019418e-03
1.673           	9.72740694e-01	4.80077798e-01	4.92662897e-01	1.25850993e+00	6.30635682e-01	6.27874251e-01	1.38071533e-03	-6.29254967e-03	4.86370347e-03	3.18058009e-17	4.86370347e-03	-4.86370347e-03
1.678           	9.73433579e-01	4.80447642e-01	4.92985937e-01	1.25382950e+00	6.28287888e-01	6.25541612e-01	1.37313801e-03	-6.26914750e-03	4.86716790e-03	3.18047379e-17	4.86716790e-03	-4.86716790e-03
1.683           	9.74118576e-01	4.80813597e-01	4.93304979e-01	1.24913822e+00	6.25934695e-01	6.23203523e-01	1.36558557e-03	-6.24569109e-03	4.87059288e-03	3.18036482e-17	4.87059288e-03	-4.87059288e-03
1.688           	9.74795911e-01	4.81175763e-01	4.93620149e-01	1.24443859e+00	6.23577352e-01	6.20861235e-01	1.35805836e-03	-6.22219293e-03	4.87397956e-03	3.18025393e-17	4.87397956e-03	-4.87397956e-03
1.693           	9.75461879e-01	4.81532276e-01	4.93929603e-01	1.23973269e+00	6.21216904e-01	6.18515791e-01	1.35055673e-03	-6.19866347e-03	4.87730940e-03	3.18014062e-17	4.87730940e-03	-4.87730940e-03
1.698           	9.76122930e-01	4.81886398e-01	4.94236533e-01	1.23501353e+00	6.18849845e-01	6.16163683e-01	1.34308092e-03	-6.17506764e-03	4.88061465e-03	3.18002342e-17	4.88061465e-03	-4.88061465e-03
1.703           	9.76777903e-01	4.82237537e-01	4.94540367e-01	1.23028301e+00	6.16477135e-01	6.13805873e-01	1.33563124e-03	-6.15141504e-03	4.88388952e-03	3.17991253e-17	4.88388952e-03	-4.88388952e-03
1.708           	9.77428887e-01	4.82586728e-01	4.94842159e-01	1.22554307e+00	6.14099741e-01	6.11443325e-01	1.32820780e-03	-6.12771533e-03	4.88714444e-03	3.17980188e-17	4.88714444e-03	-4.88714444e-03
1.713           	9.78066982e-01	4.82929504e-01	4.95137478e-01	1.22079740e+00	6.11719509e-01	6.09077888e-01	1.32081068e-03	-6.10398699e-03	4.89033491e-03	3.17969512e-17	4.89033491e-03	-4.89033491e-03
1.718           	9.78695738e-01	4.83267647e-01	4.95428091e-01	1.21604435e+00	6.09335613e-01	6.06708733e-01	1.31343989e-03	-6.08022173e-03	4.89347869e-03	3.17959049e-17	4.89347869e-03	-4.89347869e-03
1.723           	9.79316647e-01	4.83601896e-01	4.95714751e-01	1.21128542e+00	6.06948806e-01	6.04336615e-01	1.30609549e-03	-6.05642711e-03	4.89658323e-03	3.17949134e-17	4.89658323e-03	-4.89658323e-03