/*--------------------------------*- C++ -*----------------------------------*\
| =========                 |                                                 |
| \\      /  F ield         | OpenFOAM: The Open Source CFD Toolbox           |
|  \\    /   O peration     | Version:  2406                                  |
|   \\  /    A nd           | Website:  www.openfoam.com                      |
|    \\/     M anipulation  |                                                 |
\*---------------------------------------------------------------------------*/
FoamFile
{
    version     2.0;
    format      ascii;
    arch        "LSB;label=32;scalar=64";
    class       volScalarField;
    location    "28";
    object      k_0;
}
// * * * * * * * * * * * * * * * * * * * * * * * * * * * * * * * * * * * * * //

dimensions      [0 2 -2 0 0 0 0];

internalField   nonuniform List<scalar> 
62344
(
4.5767297e-06
3.5681359e-06
2.8500229e-06
2.4440852e-06
2.1573938e-06
1.9179995e-06
1.6915256e-06
1.5015339e-06
1.3544095e-06
1.2605432e-06
1.1849518e-06
1.1139021e-06
1.064331e-06
1.0038633e-06
9.5705398e-07
9.0944566e-07
8.7252001e-07
8.6189578e-07
8.5897748e-07
8.6120588e-07
8.6548608e-07
8.7255006e-07
8.6809158e-07
8.5282692e-07
8.4981319e-07
8.5740168e-07
8.8675494e-07
9.4049774e-07
1.0019767e-06
1.0522481e-06
1.0901377e-06
1.1562551e-06
1.2896624e-06
1.61678e-06
1.856928e-06
2.0926263e-06
2.6050581e-06
3.0102278e-06
3.7110907e-06
5.0741373e-06
6.2621799e-06
8.2025685e-06
1.1016251e-05
1.3997283e-05
1.6269859e-05
2.0575726e-05
2.7278884e-05
3.2503546e-05
3.9933922e-05
4.7759392e-05
6.2588416e-05
7.3349217e-05
9.3992468e-05
0.00011097057
0.00014311978
4.580845e-06
3.5816005e-06
2.8425547e-06
2.4512114e-06
2.1756875e-06
1.9245266e-06
1.6863333e-06
1.4947463e-06
1.3485844e-06
1.2573728e-06
1.1839314e-06
1.1153612e-06
1.0638635e-06
1.0012426e-06
9.550787e-07
9.0808285e-07
8.6985012e-07
8.536366e-07
8.4709014e-07
8.4867005e-07
8.5373791e-07
8.6089466e-07
8.6026486e-07
8.4478618e-07
8.284467e-07
8.2946919e-07
8.4200581e-07
8.6631395e-07
9.1549376e-07
9.6885981e-07
1.0076172e-06
1.0495474e-06
1.1523079e-06
1.3838044e-06
1.5694628e-06
1.7800191e-06
2.2227595e-06
2.661381e-06
3.1140251e-06
4.0931438e-06
5.3302891e-06
6.356032e-06
8.2462981e-06
1.2311917e-05
1.5622998e-05
1.8899261e-05
2.6107848e-05
3.1207569e-05
3.9001991e-05
4.5089056e-05
5.7966461e-05
6.9209924e-05
9.088571e-05
0.00010876195
0.00014430695
4.5846226e-06
3.5840822e-06
2.8637351e-06
2.4595648e-06
2.1858173e-06
1.9283025e-06
1.6967499e-06
1.5060014e-06
1.3595243e-06
1.2614706e-06
1.1927559e-06
1.1214706e-06
1.0760924e-06
1.0150574e-06
9.7142459e-07
9.1473169e-07
8.7437091e-07
8.5728115e-07
8.5065532e-07
8.5194611e-07
8.5718942e-07
8.6178651e-07
8.6163011e-07
8.462537e-07
8.2626104e-07
8.2621292e-07
8.3552137e-07
8.5244901e-07
8.9603136e-07
9.6347735e-07
1.0177028e-06
1.0591794e-06
1.1612906e-06
1.2786313e-06
1.4650623e-06
1.6218655e-06
1.9471038e-06
2.3209196e-06
2.6385415e-06
3.284628e-06
3.9029993e-06
5.0583803e-06
6.1749322e-06
8.8104526e-06
1.1989357e-05
1.6371002e-05
2.2487849e-05
2.8219747e-05
3.6720875e-05
4.1729494e-05
4.7890877e-05
5.5589412e-05
7.2731181e-05
8.8839681e-05
0.00011954594
4.5883431e-06
3.5962533e-06
2.8774254e-06
2.463405e-06
2.1874141e-06
1.9508278e-06
1.7139741e-06
1.5210422e-06
1.3714488e-06
1.2718947e-06
1.1992241e-06
1.1326585e-06
1.0816482e-06
1.0077138e-06
9.6085623e-07
9.1980704e-07
8.8035179e-07
8.6528075e-07
8.5994375e-07
8.5808873e-07
8.5938512e-07
8.6472745e-07
8.695609e-07
8.6851104e-07
8.457407e-07
8.3924448e-07
8.4338123e-07
8.5381613e-07
8.8630351e-07
9.5787008e-07
1.0138704e-06
1.0758625e-06
1.1769118e-06
1.2767121e-06
1.4146234e-06
1.5867609e-06
1.8474055e-06
2.2875387e-06
2.5732282e-06
3.079536e-06
3.5037272e-06
4.417554e-06
5.2072036e-06
7.0270952e-06
8.786956e-06
1.2068371e-05
1.6995965e-05
2.0564776e-05
2.7832584e-05
3.2695388e-05
4.1447128e-05
4.7869159e-05
6.3012661e-05
7.2078292e-05
9.0338911e-05
4.5929926e-06
3.6092564e-06
2.8671453e-06
2.4656439e-06
2.2066812e-06
1.9668232e-06
1.7190431e-06
1.5203179e-06
1.3731527e-06
1.2801981e-06
1.2089091e-06
1.1395698e-06
1.0935051e-06
1.0256976e-06
9.794063e-07
9.2879885e-07
8.8776394e-07
8.6811976e-07
8.6306977e-07
8.6290449e-07
8.6808322e-07
8.7678307e-07
8.8341388e-07
8.8391026e-07
8.5823613e-07
8.4441847e-07
8.455138e-07
8.5211895e-07
8.7242488e-07
9.2950068e-07
9.7547335e-07
1.0673642e-06
1.1575115e-06
1.3034609e-06
1.4016393e-06
1.5862225e-06
1.7590672e-06
2.1592515e-06
2.4542719e-06
2.9313824e-06
3.3892694e-06
4.0591859e-06
4.7145005e-06
6.2389718e-06
8.1831546e-06
9.7122648e-06
1.2876065e-05
1.55745e-05
2.1691558e-05
2.6022683e-05
3.4140226e-05
4.1245749e-05
5.194074e-05
6.2185197e-05
8.4778232e-05
4.5960308e-06
3.6140284e-06
2.8811015e-06
2.4766263e-06
2.2139181e-06
1.963121e-06
1.7253116e-06
1.5247951e-06
1.3827753e-06
1.2863432e-06
1.2118082e-06
1.1425374e-06
1.1012716e-06
1.0400154e-06
9.8731337e-07
9.3500082e-07
8.9247585e-07
8.7049605e-07
8.6552432e-07
8.6539512e-07
8.6873713e-07
8.7712063e-07
8.8568601e-07
8.9172828e-07
8.7561203e-07
8.558439e-07
8.5155143e-07
8.5227513e-07
8.6602521e-07
8.9981807e-07
9.3988243e-07
1.0387094e-06
1.1405473e-06
1.3286566e-06
1.4286729e-06
1.6140133e-06
1.7628629e-06
2.0872425e-06
2.3892045e-06
2.6712393e-06
3.2908926e-06
3.7252182e-06
4.5521669e-06
5.4029404e-06
7.1986265e-06
8.4544019e-06
1.0971867e-05
1.301964e-05
1.7671573e-05
2.1529484e-05
2.8870887e-05
3.3611948e-05
4.2896978e-05
5.3156444e-05
7.2249163e-05
4.6014927e-06
3.6269296e-06
2.9069016e-06
2.4855155e-06
2.2151045e-06
1.9766208e-06
1.739186e-06
1.5423438e-06
1.3913674e-06
1.2860783e-06
1.2102371e-06
1.1473007e-06
1.1023534e-06
1.0318588e-06
9.7549379e-07
9.3720123e-07
8.946026e-07
8.7588769e-07
8.690825e-07
8.6617349e-07
8.6689785e-07
8.7249836e-07
8.8397502e-07
8.9429621e-07
8.9103834e-07
8.7440527e-07
8.6288224e-07
8.5921783e-07
8.6834176e-07
8.8991e-07
9.2348315e-07
1.0133769e-06
1.1258108e-06
1.3262217e-06
1.4296074e-06
1.6208442e-06
1.7700148e-06
2.0326059e-06
2.3511206e-06
2.5768502e-06
3.1068525e-06
3.5475479e-06
4.4269471e-06
5.1358144e-06
6.5171666e-06
7.646125e-06
1.0064122e-05
1.1960295e-05
1.5673214e-05
2.036273e-05
2.4393308e-05
3.0255072e-05
4.108126e-05
4.8862886e-05
6.3981926e-05
4.6058977e-06
3.6411843e-06
2.9082829e-06
2.4844215e-06
2.2254201e-06
2.0010544e-06
1.7535231e-06
1.5499992e-06
1.396458e-06
1.2963556e-06
1.2252056e-06
1.1618184e-06
1.1050645e-06
1.0405219e-06
9.9195489e-07
9.499956e-07
9.0567895e-07
8.8253226e-07
8.7082966e-07
8.6871351e-07
8.7155507e-07
8.7686167e-07
8.843158e-07
8.9378035e-07
8.9341188e-07
8.7803286e-07
8.6473923e-07
8.5966616e-07
8.672226e-07
8.87078e-07
9.1975499e-07
9.9463175e-07
1.1250921e-06
1.2935543e-06
1.4020032e-06
1.6181074e-06
1.7584688e-06
1.9806006e-06
2.2949722e-06
2.5476849e-06
3.0153274e-06
3.5666454e-06
4.2376154e-06
4.8261856e-06
5.8050346e-06
7.0979547e-06
9.7269928e-06
1.1580165e-05
1.4251518e-05
1.6880542e-05
2.059358e-05
2.9216965e-05
3.9774066e-05
4.7658463e-05
5.8115235e-05
4.6078995e-06
3.644464e-06
2.8994263e-06
2.4868324e-06
2.2328152e-06
1.9982662e-06
1.7543335e-06
1.5453048e-06
1.4010682e-06
1.3056812e-06
1.2317152e-06
1.1674779e-06
1.1111483e-06
1.060182e-06
1.0081712e-06
9.5686388e-07
9.1088793e-07
8.8028489e-07
8.6951e-07
8.6880995e-07
8.7439184e-07
8.813898e-07
8.8943623e-07
8.9948078e-07
9.0277499e-07
8.8937472e-07
8.6942902e-07
8.6198967e-07
8.6747819e-07
8.8585592e-07
9.1954475e-07
9.8155891e-07
1.1188162e-06
1.2456597e-06
1.3786662e-06
1.5713284e-06
1.7155995e-06
1.9503958e-06
2.2419818e-06
2.5893674e-06
3.0868204e-06
3.5875999e-06
4.0149663e-06
4.5156091e-06
5.3747277e-06
7.0474236e-06
9.0548911e-06
1.076569e-05
1.2393415e-05
1.4477451e-05
1.8515693e-05
2.8225752e-05
3.9328887e-05
4.748145e-05
5.4993981e-05
4.6089984e-06
3.6457735e-06
2.9064137e-06
2.498298e-06
2.2353471e-06
1.9846833e-06
1.7507094e-06
1.5426562e-06
1.4018917e-06
1.3010094e-06
1.2207013e-06
1.1590689e-06
1.1128155e-06
1.0613745e-06
9.9901648e-07
9.5419728e-07
9.0854718e-07
8.7859905e-07
8.6883324e-07
8.6622434e-07
8.7038392e-07
8.7661816e-07
8.9033797e-07
9.0250832e-07
9.1230296e-07
9.1115848e-07
8.9144942e-07
8.8049209e-07
8.8249224e-07
8.9587728e-07
9.2227358e-07
9.7265483e-07
1.0936992e-06
1.2045664e-06
1.3298367e-06
1.5106895e-06
1.7159726e-06
1.9444492e-06
2.1816382e-06
2.5482329e-06
3.0767725e-06
3.5530475e-06
3.9403995e-06
4.395801e-06
5.2114518e-06
6.79559e-06
8.3763792e-06
9.7607121e-06
1.1011579e-05
1.282054e-05
1.6578714e-05
2.5388659e-05
3.6698043e-05
4.4410231e-05
5.082872e-05
4.6111003e-06
3.6543747e-06
2.9272469e-06
2.5091692e-06
2.2398812e-06
1.9973502e-06
1.7613776e-06
1.5544428e-06
1.4048876e-06
1.2966303e-06
1.2172126e-06
1.1575157e-06
1.1127304e-06
1.0536548e-06
9.8936685e-07
9.5319172e-07
9.1248172e-07
8.8757047e-07
8.7710396e-07
8.704398e-07
8.7121927e-07
8.7465538e-07
8.8689714e-07
8.9996428e-07
9.1193326e-07
9.1691432e-07
9.0251221e-07
8.9097306e-07
8.9125852e-07
9.0290778e-07
9.2375861e-07
9.5913308e-07
1.0493505e-06
1.1763906e-06
1.2769044e-06
1.4808566e-06
1.7069171e-06
1.9651428e-06
2.1555295e-06
2.5008651e-06
2.9685789e-06
3.3902994e-06
3.9173893e-06
4.3746033e-06
5.2125741e-06
6.3044201e-06
7.7935659e-06
9.2052961e-06
1.0518736e-05
1.1956051e-05
1.4726792e-05
2.0281346e-05
3.0090063e-05
3.7540551e-05
4.4214746e-05
4.6134832e-06
3.6674393e-06
2.9397285e-06
2.5095593e-06
2.2478e-06
2.0337522e-06
1.7883863e-06
1.5749373e-06
1.4192481e-06
1.3085719e-06
1.233281e-06
1.1832632e-06
1.1217559e-06
1.0662392e-06
1.0074777e-06
9.6804315e-07
9.3050044e-07
9.0138555e-07
8.8450629e-07
8.7801665e-07
8.7768412e-07
8.7964779e-07
8.871353e-07
8.9759352e-07
9.1034851e-07
9.2017603e-07
9.0544404e-07
8.9162706e-07
8.8939811e-07
8.9784411e-07
9.1165882e-07
9.3808661e-07
1.0081332e-06
1.1521951e-06
1.2591208e-06
1.48795e-06
1.6944299e-06
1.987478e-06
2.1751007e-06
2.4731958e-06
2.8787765e-06
3.1452497e-06
3.7480563e-06
4.2485207e-06
5.1532913e-06
5.7966514e-06
7.0846188e-06
8.0358662e-06
9.8031671e-06
1.1098918e-05
1.3774918e-05
1.6674151e-05
2.2942834e-05
3.0010564e-05
3.5639946e-05
4.6148601e-06
3.6743044e-06
2.9369131e-06
2.5071706e-06
2.2536659e-06
2.0468134e-06
1.8005397e-06
1.5827036e-06
1.4288406e-06
1.3246294e-06
1.2461481e-06
1.2033582e-06
1.1293303e-06
1.0879619e-06
1.0292007e-06
9.8009212e-07
9.4107069e-07
9.0464728e-07
8.8384648e-07
8.8048923e-07
8.8123623e-07
8.8269881e-07
8.8850403e-07
8.9868972e-07
9.1427485e-07
9.2979118e-07
9.1977957e-07
9.0039725e-07
8.9251115e-07
8.9584059e-07
9.0378245e-07
9.2601162e-07
9.8786175e-07
1.1210117e-06
1.2486285e-06
1.4842763e-06
1.7268085e-06
1.9587759e-06
2.1649042e-06
2.4694321e-06
2.7944541e-06
3.0000769e-06
3.4603994e-06
3.9573962e-06
4.9063768e-06
5.4905103e-06
6.5701416e-06
7.3714609e-06
8.9733526e-06
1.0164089e-05
1.2600465e-05
1.4893428e-05
1.9185886e-05
2.3050189e-05
2.7475247e-05
4.6158877e-06
3.6756743e-06
2.9293095e-06
2.5092757e-06
2.2533383e-06
2.0305448e-06
1.7940226e-06
1.5783432e-06
1.4249539e-06
1.3262691e-06
1.2434673e-06
1.199118e-06
1.1269886e-06
1.0906805e-06
1.0314704e-06
9.787537e-07
9.3852656e-07
8.9609852e-07
8.74728e-07
8.7283131e-07
8.7500504e-07
8.7675492e-07
8.8319763e-07
8.9669933e-07
9.1666657e-07
9.3550326e-07
9.3362668e-07
9.1529775e-07
9.0474816e-07
9.0369435e-07
9.0801895e-07
9.2696073e-07
9.8192358e-07
1.0995836e-06
1.2396586e-06
1.4574696e-06
1.7294009e-06
1.9370671e-06
2.1207622e-06
2.3995123e-06
2.7258296e-06
2.9196335e-06
3.3192329e-06
3.7679973e-06
4.6868765e-06
5.2699619e-06
6.3010485e-06
7.0452722e-06
8.5565998e-06
9.718344e-06
1.1718565e-05
1.456733e-05
1.6915455e-05
2.0288525e-05
2.3994686e-05
4.6169546e-06
3.6770673e-06
2.9294557e-06
2.5170445e-06
2.2513525e-06
2.0141078e-06
1.7851194e-06
1.5731838e-06
1.4163774e-06
1.3129322e-06
1.2290484e-06
1.174059e-06
1.1170971e-06
1.0719755e-06
1.0160872e-06
9.6513931e-07
9.2421495e-07
8.8657648e-07
8.6718889e-07
8.6298896e-07
8.63171e-07
8.6459622e-07
8.7186741e-07
8.8901734e-07
9.0973168e-07
9.2952686e-07
9.3056355e-07
9.172965e-07
9.1039444e-07
9.1139362e-07
9.1646205e-07
9.3587035e-07
9.8572254e-07
1.0892538e-06
1.2222224e-06
1.4034845e-06
1.6758097e-06
1.9143618e-06
2.0723354e-06
2.3104046e-06
2.6720173e-06
2.8836393e-06
3.2926258e-06
3.7011794e-06
4.5513203e-06
5.1410613e-06
6.2161584e-06
6.9451348e-06
8.3510401e-06
9.6466262e-06
1.1618496e-05
1.4333566e-05
1.6428473e-05
2.0093532e-05
2.3436028e-05
4.6186031e-06
3.6822941e-06
2.9407589e-06
2.5257944e-06
2.2545465e-06
2.0194259e-06
1.7907184e-06
1.5774437e-06
1.4167941e-06
1.3066782e-06
1.2231979e-06
1.1644848e-06
1.1131099e-06
1.0592786e-06
1.0076961e-06
9.5945503e-07
9.1944383e-07
8.8680337e-07
8.6778008e-07
8.5982253e-07
8.5827503e-07
8.5958285e-07
8.6680682e-07
8.8266332e-07
9.0058956e-07
9.1816311e-07
9.1455575e-07
9.0460392e-07
9.0251714e-07
9.0871424e-07
9.1821336e-07
9.399621e-07
9.8898558e-07
1.0782826e-06
1.2178932e-06
1.340017e-06
1.5878159e-06
1.8449331e-06
2.0531347e-06
2.2517338e-06
2.6406968e-06
2.8753294e-06
3.3446907e-06
3.7277032e-06
4.4693947e-06
5.0243502e-06
6.1085923e-06
6.9351989e-06
8.0844389e-06
9.7870284e-06
1.1412478e-05
1.3705032e-05
1.6746204e-05
2.067848e-05
2.3512071e-05
4.6205359e-06
3.6910767e-06
2.958389e-06
2.5333849e-06
2.2630414e-06
2.0460568e-06
1.8143742e-06
1.5940549e-06
1.4334139e-06
1.3180534e-06
1.2307764e-06
1.1817226e-06
1.122782e-06
1.0671789e-06
1.0202584e-06
9.7205702e-07
9.3094276e-07
9.014225e-07
8.7945707e-07
8.6689824e-07
8.6424686e-07
8.6544766e-07
8.7067247e-07
8.8277713e-07
8.9946763e-07
9.1601799e-07
9.1026802e-07
8.9728741e-07
8.9073637e-07
8.9531312e-07
9.0830732e-07
9.3121981e-07
9.8585432e-07
1.0575466e-06
1.197358e-06
1.3084483e-06
1.5234387e-06
1.704258e-06
1.9936026e-06
2.1851228e-06
2.5507736e-06
2.78647e-06
3.2856252e-06
3.6450789e-06
4.263799e-06
4.8110411e-06
5.533738e-06
6.4777497e-06
7.4647501e-06
9.0159182e-06
1.0344929e-05
1.210655e-05
1.5717847e-05
1.9829743e-05
2.2518816e-05
4.6216343e-06
3.6988146e-06
2.9706939e-06
2.5344752e-06
2.2751987e-06
2.0754405e-06
1.8421617e-06
1.6140222e-06
1.45618e-06
1.3425704e-06
1.2510157e-06
1.2138029e-06
1.1463165e-06
1.0968507e-06
1.0514464e-06
1.00112e-06
9.6055433e-07
9.2584135e-07
8.9511371e-07
8.8016977e-07
8.7847879e-07
8.7973283e-07
8.8277587e-07
8.9163228e-07
9.0777811e-07
9.2415029e-07
9.2252226e-07
9.0204276e-07
8.8757459e-07
8.8667765e-07
8.966783e-07
9.1594285e-07
9.6523107e-07
1.0242258e-06
1.141256e-06
1.227288e-06
1.4045605e-06
1.5350813e-06
1.7923107e-06
1.9794956e-06
2.3584748e-06
2.5952292e-06
3.1134929e-06
3.4860944e-06
4.1257265e-06
4.6713781e-06
5.2664591e-06
6.3292332e-06
7.0688867e-06
8.3952185e-06
9.9817783e-06
1.1368382e-05
1.3913138e-05
1.7480786e-05
1.9838102e-05
4.6218278e-06
3.7027248e-06
2.9729181e-06
2.5337519e-06
2.2811807e-06
2.0842151e-06
1.8522409e-06
1.6217893e-06
1.4643966e-06
1.3540603e-06
1.2627167e-06
1.2259174e-06
1.1568978e-06
1.1130593e-06
1.0666571e-06
1.0149698e-06
9.7496678e-07
9.3602525e-07
9.0073527e-07
8.8692018e-07
8.8683782e-07
8.8839902e-07
8.9100863e-07
9.0054819e-07
9.2015178e-07
9.3825151e-07
9.448431e-07
9.2863781e-07
9.126765e-07
9.077315e-07
9.1408127e-07
9.2889074e-07
9.6860571e-07
1.0160608e-06
1.107027e-06
1.1784774e-06
1.3182459e-06
1.4302747e-06
1.6463185e-06
1.8226566e-06
2.2064799e-06
2.4737366e-06
3.0482029e-06
3.4506409e-06
4.1607526e-06
4.7356378e-06
5.332488e-06
6.4877444e-06
7.1753597e-06
8.3935892e-06
9.9220782e-06
1.1299113e-05
1.3400525e-05
1.6186762e-05
1.831611e-05
4.6197714e-06
3.7006701e-06
2.9661059e-06
2.5328505e-06
2.2784761e-06
2.07105e-06
1.8426611e-06
1.6175971e-06
1.456399e-06
1.3473488e-06
1.2561424e-06
1.2187225e-06
1.1487119e-06
1.1071256e-06
1.0650196e-06
1.0148213e-06
9.7636991e-07
9.3826366e-07
9.0849447e-07
8.9850795e-07
8.998156e-07
9.0347912e-07
9.0869199e-07
9.2398364e-07
9.5852152e-07
9.8714595e-07
1.0039699e-06
1.0073827e-06
1.0064906e-06
1.0113884e-06
1.0273529e-06
1.0455473e-06
1.0899015e-06
1.1406255e-06
1.234126e-06
1.3038515e-06
1.431113e-06
1.5318991e-06
1.7236432e-06
1.880373e-06
2.2295944e-06
2.5011809e-06
3.1051509e-06
3.5682701e-06
4.3847726e-06
5.0897235e-06
5.7562152e-06
7.0523928e-06
7.7560558e-06
9.052995e-06
1.0411964e-05
1.1838969e-05
1.3516225e-05
1.6012972e-05
1.7978416e-05
4.6188918e-06
3.6993627e-06
2.9559079e-06
2.5312749e-06
2.2663031e-06
2.0416363e-06
1.8215664e-06
1.6050963e-06
1.4441474e-06
1.3348656e-06
1.2471628e-06
1.2116429e-06
1.147347e-06
1.1110843e-06
1.0795748e-06
1.0444135e-06
1.0180229e-06
9.9440882e-07
9.8798396e-07
9.8848251e-07
1.0000132e-06
1.0148705e-06
1.032936e-06
1.0724662e-06
1.1553521e-06
1.2070762e-06
1.268011e-06
1.3075208e-06
1.3617257e-06
1.4022966e-06
1.4789549e-06
1.523689e-06
1.6155498e-06
1.7135102e-06
1.8814941e-06
1.9878891e-06
2.1471364e-06
2.2954414e-06
2.5320691e-06
2.6795171e-06
2.9506028e-06
3.1845153e-06
3.7621052e-06
4.374958e-06
5.2102482e-06
6.2003403e-06
6.9643965e-06
8.4752477e-06
9.304981e-06
1.0803811e-05
1.2013648e-05
1.3682532e-05
1.4928806e-05
1.710689e-05
1.8749369e-05
4.6122562e-06
3.6883671e-06
2.9413087e-06
2.5164341e-06
2.2443032e-06
2.0261684e-06
1.8231401e-06
1.6221717e-06
1.4867015e-06
1.395402e-06
1.3300183e-06
1.3123391e-06
1.2802449e-06
1.2787353e-06
1.2856555e-06
1.297885e-06
1.3231886e-06
1.3488921e-06
1.3932051e-06
1.4539685e-06
1.5248792e-06
1.58012e-06
1.6537832e-06
1.7480704e-06
1.9550828e-06
2.083119e-06
2.2814283e-06
2.4114685e-06
2.62245e-06
2.756706e-06
3.0207289e-06
3.1740615e-06
3.4340136e-06
3.6745957e-06
4.0470751e-06
4.3001634e-06
4.616792e-06
4.992939e-06
5.4256056e-06
5.6476262e-06
5.8963298e-06
6.0826069e-06
6.6274032e-06
7.528903e-06
8.2261288e-06
9.4373003e-06
1.0327796e-05
1.1960935e-05
1.2991198e-05
1.4631754e-05
1.5708799e-05
1.7761044e-05
1.8884465e-05
2.1128981e-05
2.2289868e-05
4.6055552e-06
3.6710844e-06
2.9265427e-06
2.5028969e-06
2.2637298e-06
2.1066728e-06
1.9778192e-06
1.8692068e-06
1.8549125e-06
1.8698501e-06
1.8933411e-06
1.9646633e-06
2.0385257e-06
2.1675817e-06
2.3134117e-06
2.4691047e-06
2.6699587e-06
2.8017871e-06
3.0407699e-06
3.2637998e-06
3.5044661e-06
3.7282008e-06
3.998111e-06
4.1773949e-06
4.6060651e-06
4.9663968e-06
5.5657866e-06
5.9174643e-06
6.4823876e-06
6.8559533e-06
7.5498625e-06
8.0631011e-06
8.811378e-06
9.393133e-06
1.0139558e-05
1.0725588e-05
1.1367594e-05
1.2215299e-05
1.3051932e-05
1.3508512e-05
1.3928414e-05
1.4097215e-05
1.4597958e-05
1.5824119e-05
1.6598852e-05
1.7672527e-05
1.8817301e-05
2.0436432e-05
2.1767688e-05
2.3206938e-05
2.4141464e-05
2.6321657e-05
2.7742801e-05
3.0765025e-05
3.1830865e-05
4.5833613e-06
3.6461953e-06
3.013113e-06
2.6752154e-06
2.6507714e-06
2.7083733e-06
2.8873895e-06
3.2167972e-06
3.6518719e-06
3.9901667e-06
4.2532323e-06
4.7132533e-06
4.9958161e-06
5.4771593e-06
5.9312315e-06
6.4419022e-06
7.0142985e-06
7.3993277e-06
7.9878178e-06
8.5136901e-06
9.1243781e-06
9.7883939e-06
1.0516313e-05
1.0875374e-05
1.1584755e-05
1.2385025e-05
1.365597e-05
1.4492878e-05
1.5552475e-05
1.6309303e-05
1.7610602e-05
1.890997e-05
2.0455228e-05
2.1690779e-05
2.3078554e-05
2.4388208e-05
2.5585633e-05
2.7094803e-05
2.8517053e-05
2.9336561e-05
3.0199257e-05
3.073994e-05
3.1528106e-05
3.2949115e-05
3.3703011e-05
3.4225297e-05
3.501149e-05
3.6099658e-05
3.7217929e-05
3.8199893e-05
3.9111746e-05
4.027368e-05
4.1320386e-05
4.2822771e-05
4.3765056e-05
4.670222e-06
4.2366526e-06
4.254619e-06
4.399593e-06
4.8323145e-06
5.6638496e-06
6.7639633e-06
8.2150827e-06
9.4886721e-06
1.0402854e-05
1.1138518e-05
1.2008229e-05
1.2558325e-05
1.3457235e-05
1.4250589e-05
1.5028409e-05
1.5814371e-05
1.6392858e-05
1.6997074e-05
1.7789351e-05
1.8389133e-05
1.8960189e-05
2.0057491e-05
2.1054473e-05
2.1753848e-05
2.2608029e-05
2.3917833e-05
2.472926e-05
2.5383754e-05
2.5881965e-05
2.6546504e-05
2.7712046e-05
2.931288e-05
3.0470565e-05
3.1514293e-05
3.2963759e-05
3.4317449e-05
3.5659516e-05
3.676597e-05
3.7395532e-05
3.8379545e-05
3.9530484e-05
4.0611172e-05
4.1158369e-05
4.1016476e-05
4.0630014e-05
4.0404028e-05
4.0517202e-05
4.0865917e-05
4.1462371e-05
4.2211609e-05
4.2860085e-05
4.3585392e-05
4.3753214e-05
4.4169322e-05
7.920055e-06
1.2778349e-05
1.4196632e-05
1.4401304e-05
1.5016835e-05
1.5976329e-05
1.7145963e-05
1.8436398e-05
1.8560846e-05
1.8325306e-05
1.8292658e-05
1.8243171e-05
1.8141115e-05
1.8167625e-05
1.8246652e-05
1.8424502e-05
1.8597699e-05
1.8727523e-05
1.8822276e-05
1.919481e-05
1.9341103e-05
1.9261635e-05
1.9418276e-05
2.0241342e-05
2.1035726e-05
2.1510065e-05
2.1991349e-05
2.2285544e-05
2.2529802e-05
2.2527729e-05
2.2497934e-05
2.261573e-05
2.3043579e-05
2.35184e-05
2.3953403e-05
2.4605785e-05
2.5942448e-05
2.7081509e-05
2.7384421e-05
2.7426138e-05
2.7879935e-05
2.9032035e-05
3.0108454e-05
3.0478772e-05
3.0169732e-05
2.9898345e-05
2.9805619e-05
2.9744777e-05
2.9834603e-05
3.0383065e-05
3.1176226e-05
3.1897981e-05
3.2373737e-05
3.2260318e-05
3.2289628e-05
6.636082e-05
9.4021394e-05
7.9649786e-05
6.6404529e-05
5.8454799e-05
5.0512216e-05
4.2892164e-05
3.6790845e-05
3.2133673e-05
2.8756865e-05
2.6658485e-05
2.5169334e-05
2.3686679e-05
2.196897e-05
1.9958469e-05
1.8113276e-05
1.6479759e-05
1.4909725e-05
1.385803e-05
1.2635044e-05
1.0982014e-05
9.6152969e-06
8.5196489e-06
7.7731273e-06
7.3406515e-06
7.6334983e-06
8.8834719e-06
1.0974089e-05
1.283134e-05
1.3243187e-05
1.2340298e-05
1.1464308e-05
1.0903642e-05
1.0730661e-05
1.0658286e-05
1.071964e-05
1.1550442e-05
1.2998658e-05
1.448211e-05
1.5281193e-05
1.5403806e-05
1.5989342e-05
1.6964527e-05
1.8481111e-05
1.9798419e-05
2.0892503e-05
2.1485646e-05
2.2040339e-05
2.2725731e-05
2.3498347e-05
2.4371175e-05
2.4993885e-05
2.5004775e-05
2.4628725e-05
2.4636927e-05
2.4488431e-05
3.1606854e-05
4.4321209e-05
4.5052588e-05
3.5381562e-05
2.4813402e-05
2.0739947e-05
2.0006632e-05
2.0484071e-05
2.2531356e-05
2.5385679e-05
2.7758391e-05
2.8323115e-05
2.9972203e-05
3.4857264e-05
4.3045161e-05
4.9242375e-05
5.6937177e-05
6.2705471e-05
6.8033957e-05
7.8272327e-05
9.2818348e-05
9.8637123e-05
0.00010932181
0.00014685242
0.0001758054
0.00017792562
2.3673885e-05
3.115936e-05
4.5025654e-05
4.667147e-05
3.8325127e-05
2.7464655e-05
2.3830011e-05
2.3588881e-05
2.4759648e-05
2.8201657e-05
3.1446924e-05
3.492269e-05
3.6636584e-05
3.8885334e-05
4.4052726e-05
5.3184197e-05
6.1143142e-05
7.2465431e-05
8.1382735e-05
8.2940006e-05
9.0372584e-05
0.00011040362
0.00012782782
0.00014118557
0.00017039699
0.00018869824
0.00020671537
2.3547942e-05
3.125674e-05
4.5994871e-05
4.8112363e-05
4.0608115e-05
3.0857051e-05
2.7862177e-05
2.7975849e-05
2.9570404e-05
3.3576236e-05
3.9102013e-05
4.3453557e-05
4.5194703e-05
4.8106087e-05
5.5308041e-05
6.596937e-05
7.9881982e-05
9.6502558e-05
0.00010852762
0.00011053597
0.00011590187
0.00013184684
0.00016183549
0.00016723636
0.00018703314
0.00021690072
0.0002455808
2.4924834e-05
3.0964551e-05
4.6555581e-05
4.9156138e-05
4.3175312e-05
3.3792912e-05
3.0845056e-05
3.1326594e-05
3.3809707e-05
4.0063584e-05
4.8508614e-05
5.3264542e-05
5.493633e-05
5.840626e-05
6.7628398e-05
8.3408129e-05
0.00010404257
0.0001297461
0.0001393279
0.00013937616
0.0001447289
0.00016222215
0.0001892772
0.00018903936
0.00020553869
0.00025725518
0.00028709565
2.6011037e-05
3.0073016e-05
4.6010959e-05
4.9837352e-05
4.6147628e-05
3.8018717e-05
3.5854759e-05
3.7170264e-05
4.136302e-05
5.091303e-05
6.078499e-05
6.5023157e-05
6.6166651e-05
6.9937704e-05
8.1549218e-05
0.00010551402
0.00013629778
0.00016840083
0.0001817297
0.00018032016
0.00018789451
0.00021276421
0.00022961405
0.00022838109
0.00024164045
0.00030603114
0.00033316023
2.5976783e-05
2.8684979e-05
4.4615808e-05
5.0435174e-05
4.9098234e-05
4.3287911e-05
4.1504913e-05
4.3428725e-05
4.8820342e-05
6.0033406e-05
7.0218098e-05
7.4477776e-05
7.5154085e-05
7.9440304e-05
9.4351709e-05
0.00012840266
0.000169054
0.00021474062
0.00024333646
0.0002433645
0.00024881831
0.00027432052
0.00028963483
0.00027493802
0.00027849685
0.00033584457
0.00039167091
2.5135655e-05
2.6942105e-05
4.2930075e-05
5.1551714e-05
5.1810266e-05
4.8623899e-05
4.7646639e-05
4.987772e-05
5.5960456e-05
6.7647291e-05
7.8212766e-05
8.2461082e-05
8.2995447e-05
8.8094915e-05
0.00010601404
0.00014957063
0.00020437914
0.0002702021
0.00032195252
0.00032789586
0.00032975965
0.00035405049
0.00037614163
0.00034132465
0.00031264303
0.00036189099
0.00049122559
2.5006461e-05
2.5166687e-05
4.191154e-05
5.3173499e-05
5.4535286e-05
5.3886134e-05
5.4534472e-05
5.7717779e-05
6.559144e-05
7.9953031e-05
9.1042904e-05
9.4841058e-05
9.4131515e-05
9.834759e-05
0.00011680332
0.00016602722
0.00023879692
0.00033677605
0.00041839364
0.00042739299
0.00042897608
0.00046837268
0.00051372311
0.00046601913
0.00037786219
0.00042149345
0.00063857193
2.4831563e-05
2.4102051e-05
4.1405595e-05
5.5235771e-05
5.8159606e-05
5.8835868e-05
6.0710454e-05
6.6256139e-05
7.7544853e-05
9.4413358e-05
0.00010715321
0.00011146847
0.00011058211
0.00011413008
0.00013331082
0.00018660722
0.00028144591
0.00041224387
0.000517544
0.00052803284
0.00053075666
0.00059699116
0.00070202359
0.00066690869
0.00050611123
0.0005426998
0.00078838674
2.6265201e-05
2.3721569e-05
4.1335486e-05
5.7050453e-05
6.160702e-05
6.4113659e-05
6.8936002e-05
7.7463997e-05
9.1386245e-05
0.00010961355
0.00012313569
0.00012770219
0.00012727728
0.00013108299
0.00015218224
0.00021264167
0.00033310869
0.00049030084
0.00061068647
0.00062272063
0.00062113685
0.00069994306
0.00088338997
0.00090221041
0.0007210828
0.00069503663
0.00092065229
2.9172104e-05
2.3092114e-05
4.0214427e-05
5.7797282e-05
6.4032982e-05
6.9359876e-05
7.6190329e-05
8.5862247e-05
0.00010071249
0.00012219044
0.00013772695
0.00014298173
0.0001427232
0.00014679864
0.00016961531
0.00023603821
0.00038052848
0.00056620714
0.00071607906
0.00074202018
0.00072504474
0.00079518189
0.0010228202
0.001153192
0.0010088023
0.00085683423
0.0010701805
3.2876045e-05
2.2086955e-05
3.7692095e-05
5.746067e-05
6.5823129e-05
7.2319e-05
8.053535e-05
9.3329109e-05
0.00011342025
0.00013961942
0.00015610376
0.00016222921
0.00016314618
0.00016780682
0.00018936841
0.00025594239
0.0004149755
0.00063202971
0.0008212491
0.00087724782
0.00085894842
0.00091591577
0.0011681014
0.0014048228
0.0013095443
0.0010160571
0.0012168807
3.491988e-05
2.1053926e-05
3.3725684e-05
5.5779017e-05
6.6732776e-05
7.459014e-05
8.4762899e-05
9.9919218e-05
0.00012316456
0.00015516511
0.00017545601
0.00018338464
0.00018469169
0.00018917592
0.0002110207
0.00028146414
0.00045297595
0.0006926907
0.00090624485
0.00098918067
0.00098368472
0.0010552988
0.001358196
0.0016878642
0.0016046033
0.0011640738
0.0013292503
3.4263695e-05
1.9954826e-05
2.9488772e-05
5.2517936e-05
6.6419296e-05
7.7208078e-05
9.0912837e-05
0.00010978455
0.00014292694
0.0001828348
0.00020720735
0.00021528988
0.00021454666
0.00021732006
0.00023950749
0.00031561124
0.00049784794
0.0007548523
0.00098628359
0.0010893681
0.0010976134
0.0011975598
0.0015777799
0.0020031594
0.0019134513
0.0013452218
0.0014469523
3.3704901e-05
1.9074689e-05
2.6707234e-05
4.9183459e-05
6.6192279e-05
8.0839139e-05
9.7851e-05
0.00012103206
0.00016163293
0.00020758272
0.00023499836
0.00024360116
0.0002432112
0.00024759839
0.00027162461
0.00034836233
0.00052955065
0.00079510588
0.0010553018
0.0011986528
0.0012406765
0.0013672736
0.0017683864
0.0022705155
0.0022813448
0.0016479937
0.0016176015
3.214316e-05
1.866214e-05
2.5440974e-05
4.7466789e-05
6.7308594e-05
8.484613e-05
0.00010516163
0.00013296404
0.00017948683
0.00023337646
0.0002652437
0.00027516355
0.00027744211
0.00028434261
0.0003078334
0.0003788503
0.00055496515
0.00083416375
0.0011293904
0.001328463
0.0014180616
0.0015612955
0.0019189203
0.0024557316
0.0026297182
0.0020755994
0.0018211387
3.1063502e-05
1.8408005e-05
2.4944482e-05
4.6600734e-05
6.9472284e-05
8.9941112e-05
0.0001130063
0.00014452827
0.00020055738
0.00026414806
0.00030079634
0.00031429263
0.00031764146
0.00032573028
0.00035088226
0.00042289076
0.00060204455
0.00090083815
0.0012384948
0.0014972174
0.0016187645
0.0017488002
0.0020661538
0.0026408386
0.0029380045
0.0025573693
0.0021054664
3.0101915e-05
1.8459367e-05
2.4802784e-05
4.4846148e-05
7.2448311e-05
9.5632665e-05
0.00012118834
0.00016330201
0.00023566231
0.00030435517
0.00034067373
0.00035373845
0.00035854036
0.00037038549
0.0004026838
0.00048476281
0.00068261548
0.00099911963
0.0013678307
0.0016675012
0.0018151192
0.0019353773
0.0022444289
0.0028618897
0.0032640476
0.0030280694
0.0024331756
3.0321005e-05
1.9104216e-05
2.5552892e-05
4.4005899e-05
7.5579967e-05
0.00010139537
0.00013507898
0.00019492614
0.00027515634
0.00034606619
0.00038484918
0.00040232103
0.0004112466
0.00043203049
0.00047998269
0.0005850452
0.00079922637
0.0011248989
0.0014952333
0.0017876977
0.0019677172
0.0021262135
0.0024429989
0.0030981448
0.0036016509
0.0034505269
0.0027882942
3.5424434e-05
1.9851482e-05
2.5878321e-05
4.3458175e-05
7.7278146e-05
0.00010962643
0.00015683799
0.00022745536
0.00031009396
0.00038158325
0.00042776777
0.00045542291
0.00047688775
0.00051201163
0.00058084361
0.00070732278
0.0009377618
0.0012716265
0.0016235026
0.0018964972
0.0020905103
0.0022793792
0.0026367982
0.0033307102
0.0039069833
0.003820921
0.0031881015
4.3694248e-05
2.0206421e-05
2.5067942e-05
4.0832389e-05
7.5534712e-05
0.00011718963
0.00017547087
0.00025578724
0.00034509113
0.00042516222
0.00048486186
0.00052531399
0.00056076917
0.00060875488
0.00069079334
0.0008345409
0.00107901
0.001414669
0.0017607991
0.0020296736
0.0022339982
0.0024515124
0.0028442561
0.0035660113
0.0041855089
0.0041746094
0.0036620507
5.0348981e-05
2.1313414e-05
2.4352369e-05
3.7362047e-05
6.9680021e-05
0.0001170532
0.00018101966
0.00026894148
0.00037050585
0.0004709666
0.00055756779
0.00062344517
0.00067835463
0.00073949393
0.00084016044
0.0010098533
0.0012676599
0.0015976667
0.0019347689
0.0022063261
0.0024320431
0.002679069
0.0030896533
0.0037996926
0.0044607386
0.0045590734
0.0041700851
5.1847689e-05
2.3220527e-05
2.4776536e-05
3.4826621e-05
6.2327304e-05
0.00011225183
0.00017936866
0.00027260713
0.00038771356
0.00051426644
0.00063572356
0.00074110657
0.0008337395
0.00093073938
0.0010637239
0.0012517232
0.0014991215
0.0018026884
0.0021241447
0.0024144584
0.0026845381
0.0029608871
0.0033622137