/*--------------------------------*- C++ -*----------------------------------*\
| =========                 |                                                 |
| \\      /  F ield         | OpenFOAM: The Open Source CFD Toolbox           |
|  \\    /   O peration     | Version:  2406                                  |
|   \\  /    A nd           | Website:  www.openfoam.com                      |
|    \\/     M anipulation  |                                                 |
\*---------------------------------------------------------------------------*/
FoamFile
{
    version     2.0;
    format      ascii;
    arch        "LSB;label=32;scalar=64";
    class       volScalarField;
    location    "28";
    object      omega_0;
}
// * * * * * * * * * * * * * * * * * * * * * * * * * * * * * * * * * * * * * //

dimensions      [0 0 -1 0 0 0 0];

internalField   nonuniform List<scalar> 
62344
(
4.3579711
3.3245661
2.7214992
2.3018511
1.9889788
1.7557564
1.5729857
1.4332679
1.3222225
1.2350164
1.1586293
1.0944087
1.0457524
0.99680151
0.95929338
0.92728638
0.88720525
0.86018433
0.84536731
0.82621608
0.81190805
0.80112705
0.78127702
0.76174332
0.75205265
0.75229199
0.75818586
0.76858022
0.78193348
0.78981558
0.79296239
0.80138142
0.82036503
0.86529794
0.92381028
0.98783187
1.0423802
1.1049482
1.1890368
1.3319061
1.4927766
1.6687539
1.7968804
1.9455517
2.1025128
2.3056755
2.5104307
2.7500998
2.960384
3.1369759
3.3170195
3.4623493
3.6896377
3.8861962
4.2571
4.3648731
3.3343737
2.7252428
2.3110248
2.0008641
1.7620997
1.5737284
1.4330603
1.3226134
1.2367242
1.1615222
1.0974337
1.0483578
0.99774137
0.9603965
0.9278392
0.89000972
0.86165199
0.84204328
0.82337111
0.81092171
0.79839819
0.78079584
0.76293293
0.7465098
0.74134039
0.74295706
0.74545316
0.75431764
0.76383484
0.76864169
0.77341041
0.78910809
0.82055051
0.86574841
0.92070761
0.9835902
1.0341846
1.1054574
1.2399773
1.3506163
1.5402137
1.7039436
1.8890026
2.0543288
2.2599497
2.4824751
2.7052937
2.9271345
3.1146176
3.3585156
3.5666022
3.8350068
4.0302231
4.3586064
4.3696441
3.3380535
2.7373369
2.3182256
2.0080463
1.7654808
1.5791158
1.4385003
1.3283956
1.2411084
1.16638
1.1012272
1.0547418
1.0039211
0.96849227
0.93076724
0.89479606
0.86324628
0.84545076
0.82932695
0.81341491
0.79810862
0.7823327
0.76411283
0.74765673
0.74058365
0.74103405
0.74187708
0.74837501
0.76173592
0.77345621
0.78201349
0.79441345
0.81499664
0.84549513
0.87709073
0.93491904
0.98495199
1.0394615
1.1318066
1.2124422
1.3529123
1.492655
1.6878319
1.857563
2.0942667
2.3536267
2.5938346
2.8427163
3.0288513
3.2579135
3.4754357
3.7086584
3.8558974
4.1363813
4.3741916
3.3455721
2.7467041
2.3247802
2.0123072
1.7766337
1.5877224
1.4462961
1.3350347
1.2476845
1.1715924
1.106267
1.0580221
1.0021738
0.96299651
0.9355319
0.89787406
0.86849408
0.8530733
0.83092122
0.81299304
0.80141531
0.7893469
0.77445562
0.75806609
0.74565332
0.74276218
0.74231114
0.74669221
0.76043687
0.7754567
0.78805259
0.80307281
0.82102992
0.84154388
0.86709793
0.92062768
0.9792773
1.0291312
1.1036865
1.1623897
1.2847084
1.3625009
1.5237926
1.6463964
1.8503588
2.0905434
2.2905345
2.5418786
2.8077063
3.0354885
3.2818085
3.5412369
3.6626855
3.9074741
4.3808863
3.3518527
2.7451518
2.3285997
2.022057
1.7845178
1.5910016
1.4471717
1.3368907
1.2528654
1.1775086
1.1105416
1.0632725
1.0117932
0.97142704
0.9396949
0.90232667
0.87419585
0.85189083
0.83415794
0.8201725
0.80833681
0.79535662
0.78072902
0.76382794
0.74969444
0.74278962
0.7414501
0.74349121
0.75282682
0.7676729
0.78224601
0.80552408
0.82771588
0.84392755
0.86664999
0.91292159
0.9590713
1.0119393
1.0793134
1.1406455
1.2422732
1.321281
1.4423257
1.5795671
1.7003261
1.9310207
2.0781961
2.3017307
2.5327887
2.7815597
3.0580419
3.2746242
3.4904322
3.8219706
4.3866844
3.3558211
2.7530571
2.3361949
2.028293
1.785582
1.5956558
1.4504389
1.3424163
1.2577276
1.1807146
1.1133097
1.0679826
1.0181471
0.97641666
0.9415805
0.9072627
0.87690972
0.85356723
0.83880253
0.82275601
0.80742519
0.79648169
0.7859759
0.77160994
0.75714722
0.74439735
0.74042387
0.74178044
0.74645418
0.75716774
0.77331876
0.80619496
0.83580721
0.85466702
0.8790658
0.91626153
0.94628093
1.0040396
1.044888
1.1292881
1.1866473
1.2934868
1.3713685
1.5175471
1.6146599
1.8121656
1.9405908
2.1514717
2.3335206
2.570277
2.7377978
2.9982176
3.2902842
3.6137875
4.3909864
3.3619946
2.7652822
2.3425466
2.0311859
1.7919444
1.6020493
1.4587031
1.3471054
1.2586587
1.1829431
1.1158259
1.0693428
1.0154799
0.97225512
0.94270812
0.90946915
0.88088987
0.85936372
0.83989182
0.82061084
0.80735733
0.79895346
0.79056763
0.77763694
0.76407668
0.75025449
0.74271131
0.74292719
0.74606938
0.7525434
0.76755883
0.80352814
0.83633637
0.8649609
0.88735259
0.916331
0.94413705
0.99544212
1.0340339
1.1128688
1.1620905
1.2630494
1.3397503
1.4828063
1.5745267
1.7495555
1.8545433
2.0658216
2.2280628
2.4478411
2.6528554
2.9006069
3.1444032
3.4387879
4.3960975
3.369761
2.7691763
2.3456775
2.0379855
1.8032323
1.609491
1.4631412
1.3506118
1.2645829
1.1918712
1.1238302
1.0697992
1.021579
0.98015248
0.94837765
0.91514703
0.88651812
0.86363743
0.84149953
0.82292855
0.81154837
0.80142582
0.79254597
0.77971593
0.76496014
0.75169523
0.74375281
0.74321986
0.74600819
0.75190441
0.76665151
0.79931721
0.83485752
0.86526903
0.89070524
0.90931288
0.94063017
0.99283518
1.041585
1.0985865
1.1429984
1.2249244
1.3245742
1.4538251
1.5499322
1.6756505
1.7902625
1.9994551
2.1564683
2.3615401
2.6141868
2.8151537
3.0280139
3.2936022
4.4015232
3.3731926
2.7691922
2.3507733
2.0446752
1.8046677
1.6119475
1.4630813
1.3539357
1.2709742
1.1953574
1.1282205
1.0729204
1.0315506
0.98865405
0.95106361
0.91793528
0.88933228
0.8628835
0.84380349
0.82884296
0.81332755
0.80321369
0.79691974
0.78567638
0.77075174
0.75485463
0.74514205
0.7438629
0.74638581
0.75258808
0.76851359
0.7942926
0.82784758
0.8597149
0.88639181
0.9054724
0.93867252
0.99554739
1.0517596
1.0988373
1.1406641
1.2119899
1.3274183
1.4056817
1.5233787
1.6038606
1.7472053
1.9377544
2.1056743
2.3040246
2.566645
2.7529165
2.9722268
3.2204962
4.4055329
3.3762085
2.7752202
2.3593298
2.0500174
1.8027754
1.6130022
1.4640363
1.3554606
1.2718254
1.1934287
1.1265267
1.0760583
1.0322288
0.98658301
0.95063241
0.91764517
0.8914353
0.86363433
0.84419674
0.82941569
0.81137709
0.80271819
0.79886405
0.79036935
0.78051762
0.7664731
0.75283947
0.74892543
0.75032076
0.75468717
0.76744613
0.79032051
0.81599324
0.84846996
0.88034737
0.90333287
0.94020607
0.99834654
1.053692
1.0968779
1.1314716
1.2062143
1.318351
1.3910743
1.485056
1.5549049
1.6896202
1.8682226
2.0386486
2.2278488
2.4642528
2.6485989
2.869964
3.1115007
4.4079542
3.3817844
2.7862003
2.3674417
2.0551638
1.8100437
1.618557
1.4703284
1.358428
1.2710314
1.1941454
1.1273202
1.0778734
1.0289016
0.98296494
0.95255345
0.92007454
0.89607456
0.87147241
0.84782989
0.82872657
0.81118736
0.8045367
0.80026447
0.79133529
0.78206145
0.77194513
0.75977001
0.75253582
0.75244707
0.75498257
0.7622753
0.78301445
0.8075274
0.84071573
0.87773563
0.90528478
0.94621126
1.0009941
1.0489474
1.0862468
1.1219641
1.200421
1.3060021
1.3897475
1.4657633
1.5344547
1.649155
1.800407
1.9552806
2.1434479
2.3277589
2.5186013
2.7238228
2.9366256
4.4106652
3.3892896
2.7941834
2.371152
2.0611172
1.8265025
1.6299649
1.4798596
1.3667043
1.2762281
1.20281
1.1406275
1.0815076
1.0343444
0.99131375
0.95986425
0.92983569
0.9018287
0.87814144
0.85464385
0.83117994
0.81435787
0.8071853
0.80202185
0.79264098
0.78313368
0.77300383
0.76196251
0.75300178
0.75116397
0.75222171
0.75743792
0.77509097
0.80256679
0.8374646
0.87943293
0.91301859
0.95604173
1.0017618
1.0451727
1.0759167
1.1096646
1.1846092
1.2719344
1.369193
1.4259404
1.5103079
1.5936914
1.7277418
1.8345048
2.0129396
2.1723967
2.367039
2.5437786
2.7541848
4.4144191
3.3945873
2.7969025
2.3742447
2.0676675
1.8337348
1.6370431
1.4844902
1.3727371
1.2851836
1.2098889
1.1516687
1.0855099
1.0448731
1.0022908
0.96524421
0.93526344
0.90475255
0.87901279
0.85723503
0.83463343
0.81880574
0.80832515
0.8040221
0.79675714
0.79054403
0.77848358
0.76526038
0.75441544
0.7507702
0.75100882
0.75549818
0.77166903
0.80033633
0.83628043
0.8816638
0.92108812
0.96410145
1.0013939
1.0388935
1.0672328
1.0972379
1.1681971
1.233294
1.3316172
1.3888367
1.4839404
1.5616628
1.6791244
1.7760414
1.9145436
2.0876143
2.2223891
2.3854786
2.5764464
4.418777
3.3977381
2.7979785
2.3792975
2.0721763
1.8321747
1.6379299
1.4853579
1.3735724
1.2882198
1.2107116
1.1523164
1.086492
1.0470725
1.0048178
0.96547627
0.93443728
0.90492299
0.87699441
0.85586328
0.83538629
0.81918117
0.80794838
0.80368375
0.79830134
0.796915
0.78746011
0.77286755
0.75999928
0.75441759
0.75394116
0.75781064
0.77278275
0.79990645
0.8350561
0.88028219
0.9233412
0.96557181
0.99777708
1.0323221
1.0617011
1.0926694
1.1647623
1.2207519
1.3136416
1.3744464
1.4703806
1.5535716
1.6664633
1.7632761
1.8853398
2.0618384
2.1685635
2.3431295
2.4909038
4.4222249
3.401354
2.8021842
2.3870721
2.0766049
1.830361
1.6378766
1.485762
1.3720613
1.2857863
1.2083182
1.1449252
1.0859973
1.0410116
1.0004574
0.96232828
0.92897936
0.90343029
0.87638666
0.85423411
0.83394463
0.81717162
0.80655104
0.80271332
0.79870301
0.79611581
0.78856123
0.77707824
0.76622262
0.76159733
0.76106883
0.764554
0.77822578
0.80264033
0.83290832
0.87674631
0.92088987
0.96291038
0.99665417
1.0314275
1.0644108
1.1020674
1.1713933
1.2356276
1.3157352
1.3923332
1.4837411
1.5858263
1.6898613
1.8024178
1.9275963
2.1043595
2.2121403
2.4033977
2.537863
4.4245023
3.4066063
2.810927
2.3957564
2.0827026
1.8362992
1.6428451
1.4898104
1.3741507
1.2851843
1.2083796
1.142305
1.086581
1.0372124
0.9979254
0.96173579
0.92743333
0.9045376
0.87957583
0.85624009
0.83450236
0.81716091
0.80707396
0.80251661
0.79892189
0.79430608
0.78707284
0.7773218
0.76880243
0.7672473
0.76806845
0.77273256
0.78679028
0.81125423
0.83586973
0.87569053
0.92116541
0.96563035
1.0044414
1.0425943
1.0799539
1.1300789
1.1960719
1.2730954
1.3399746
1.4352729
1.5143162
1.6377169
1.7285417
1.8694442
1.9903095
2.172987
2.3115187
2.5219897
2.6426328
4.4261349
3.4138256
2.8219465
2.4042534
2.0910696
1.8508598
1.6546284
1.4989527
1.3830521
1.2920831
1.2142267
1.1515467
1.0921192
1.0426311
1.0045354
0.96866052
0.93505801
0.91131393
0.88782628
0.8643584
0.84166904
0.82355786
0.81371932
0.80758045
0.80416508
0.80002558
0.79185788
0.78104323
0.77451484
0.77678464
0.78090524
0.78844962
0.80421304
0.83173255
0.85654374
0.89157947
0.93605765
0.98422606
1.0279355
1.0701506
1.1133382
1.1676531
1.2366546
1.3169848
1.3769026
1.4793827
1.5460295
1.6715447
1.7572552
1.8979132
2.0096121
2.2051451
2.3583167
2.5819995
2.69587
4.4274117
3.4203171
2.831322
2.4105252
2.1003205
1.8659263
1.6676605
1.5092554
1.3945144
1.3053947
1.2246556
1.1711699
1.1029301
1.0581975
1.0211169
0.98401646
0.95264787
0.92586449
0.90118827
0.8774695
0.85615015
0.83864917
0.82901455
0.82215565
0.82115374
0.82083485
0.81303425
0.79961144
0.79396905
0.79746313
0.80329657
0.8125426
0.83066503
0.85928065
0.89306087
0.924795
0.97125437
1.0317985
1.0887334
1.1447385
1.1983646
1.2493582
1.3219086
1.404817
1.4649646
1.5660343
1.6310102
1.7547915
1.8355002
1.9673719
2.0804952
2.2631767
2.4089032
2.6287333
2.7323363
4.4294755
3.4258582
2.837626
2.4164167
2.1092399
1.8752335
1.6771032
1.5175673
1.4036225
1.3176332
1.2355595
1.1895982
1.1158117
1.075769
1.0399003
1.0024986
0.97325611
0.94730344
0.91792728
0.89503941
0.87749677
0.8609562
0.85075662
0.8477941
0.85075965
0.8564808
0.85463501
0.84169184
0.83648812
0.8407792
0.84751697
0.85959794
0.88080321
0.90711359
0.94803064
0.9828264
1.022969
1.0899819
1.1628066
1.2411631
1.3226017
1.4040106
1.4988148
1.5865219
1.660242
1.7544289
1.823804
1.9486757
2.0199755
2.1392424
2.2452226
2.4150099
2.5438402
2.7480501
2.8280768
4.4310152
3.4292179
2.8408906
2.4230527
2.1171108
1.8800638
1.6844409
1.5273882
1.4141423
1.3306211
1.2506617
1.2063612
1.134184
1.0956544
1.0615385
1.0259404
0.99947589
0.97543945
0.94523013
0.92504222
0.91126232
0.89662795
0.88844371
0.88883849
0.89541882
0.90640355
0.91219887
0.90643996
0.90516755
0.91207775
0.92119577
0.93788008
0.96316527
0.99075785
1.0364014
1.083335
1.1218252
1.1926929
1.2684223
1.3617363
1.4491848
1.5555204
1.6768121
1.8184463
1.9212163
2.0355911
2.1181727
2.2587792
2.3353921
2.4669471
2.5545763
2.7116113
2.8139209
3.0042219
3.0501519
4.4355828
3.4350761
2.8476679
2.4361583
2.1329468
1.8940382
1.7038203
1.5511217
1.4398458
1.3579292
1.2824359
1.2353856
1.1696908
1.1310817
1.1003668
1.0692071
1.0477703
1.0290069
1.0050162
0.99102955
0.9847183
0.97805993
0.97623014
0.97921267
0.99183226
1.0098938
1.0222571
1.0290736
1.0388595
1.0578065
1.074083
1.098876
1.1279099
1.1638983
1.2135397
1.2748384
1.3155023
1.392839
1.472394
1.5629115
1.6443336
1.7596104
1.8917328
2.0537176
2.1901624
2.3551163
2.4678989
2.6393586
2.7382545
2.890704
2.9758263
3.1366508
3.2250765
3.4067873
3.4419122
4.4426706
3.4496718
2.8707366
2.4710759
2.175394
1.9400587
1.7580412
1.6070117
1.5047877
1.4279087
1.3614598
1.3195513
1.2714366
1.2422874
1.2243267
1.2083333
1.2014846
1.1992945
1.2010143
1.2056698
1.2197274
1.2337066
1.2467304
1.2666121
1.3082198
1.3471853
1.3916931
1.419184
1.4581259
1.5023265
1.5404638
1.5794089
1.6316845
1.6925509
1.7527166
1.8244919
1.8733116
1.9617027
2.0408785
2.1134597
2.1799318
2.2708758
2.3984571
2.5531517
2.6981202
2.846886
2.9960286
3.1666036
3.3185206
3.4599037
3.5539865
3.7287674
3.8195466
4.0139639
4.0594291
4.4892444
3.5077306
2.9466132
2.5564231
2.2731958
2.0642593
1.9153092
1.7898956
1.7343492
1.6995842
1.6693837
1.668375
1.6728198
1.6846217
1.7110899
1.7422563
1.7827533
1.8142728
1.8608462
1.9149369
1.9732321
2.0205543
2.0745512
2.1197375
2.1820335
2.2609517
2.3568838
2.4114528
2.4833817
2.5602166
2.6169527
2.675348
2.7672304
2.8606161
2.9360625
3.0058406
3.0618104
3.1559206
3.2416276
3.3074848
3.3788302
3.4141206
3.5019247
3.6140063
3.7514522
3.8498054
4.0231651
4.1871482
4.3664289
4.4493936
4.5306354
4.6830882
4.773186
4.9803537
5.0395252
4.5786609
3.6275141
3.1382265
2.831024
2.6407882
2.5607351
2.557729
2.5877025
2.6765771
2.774683
2.8378565
2.9332236
2.9944984
3.0815505
3.1761677
3.2714546
3.3617384
3.443334
3.5302475
3.6165655
3.7275995
3.823177
3.9115925
3.9793726
4.0523345
4.1522705
4.2741595
4.3528507
4.4297421
4.5139824
4.5627544
4.6080576
4.6929626
4.8009633
4.8757187
4.9265265
4.9582757
5.0451187
5.1449238
5.2183242
5.284837
5.307304
5.3635229
5.5304955
5.6623362
5.7579512
5.9159257
6.0805622
6.2473039
6.3007971
6.3738008
6.4432694
6.5550365
6.7899463
6.8185793
4.767076
4.4179798
4.4111821
4.4478488
4.5751758
4.8313007
5.0738368
5.3383566
5.6500351
5.8901359
6.0326926
6.2069143
6.3177571
6.4606791
6.6035023
6.7403573
6.8817987
7.0308744
7.1433161
7.2518523
7.4453408
7.5866555
7.6906014
7.7641038
7.8652566
7.9886439
8.1179571
8.1965347
8.2510955
8.3064679
8.3473486
8.3910196
8.4400788
8.5457962
8.6197897
8.660838
8.6733842
8.7284668
8.8279206
8.84019
8.86659
8.8700943
8.8991756
9.0073701
9.1083395
9.1130287
9.1681772
9.3329495
9.454196
9.4894041
9.5548695
9.5925155
9.6715255
9.8461073
9.8417123
9.4245769
12.061476
12.715382
12.819115
13.068288
13.340687
13.545329
13.809571
14.313517
14.783711
15.000816
15.135215
15.307817
15.533851
15.608838
15.613119
15.538421
15.55543
15.565439
15.525351
15.539268
15.663389
15.75975
15.746591
15.753014
15.819064
15.928738
16.058506
16.100501
16.099827
16.08588
16.15806
16.244936
16.416969
16.51152
16.574591
16.677315
16.807355
16.976677
16.944947
16.907704
16.869693
16.94049
17.137924
17.275166
17.22736
17.184457
17.278175
17.437753
17.448191
17.441055
17.370812
17.348617
17.354692
17.086103
55.955629
56.571078
56.21081
55.792741
55.703756
55.675813
55.641328
55.566159
55.493599
55.404163
55.222239
55.218009
55.265419
55.226753
55.3247
55.284302
55.214858
55.222976
55.19925
55.268112
55.368603
55.389667
55.273757
55.112984
54.922757
54.450756
53.781564
53.730012
54.328242
55.224282
55.812653
55.909871
55.599061
55.54992
55.650123
55.631037
54.971822
54.441316
54.695129
55.454526
56.032138
55.819047
55.093899
54.412853
54.476151
55.019834
55.812549
56.248677
56.210155
55.665701
55.037639
54.602947
54.569565
54.822116
55.061105
56.889495
18.012552
10.117547
7.0833388
5.303997
4.2503414
3.601116
3.2304687
3.0302471
2.9352134
2.882503
2.8333332
2.7361806
2.7041278
2.787679
2.9886123
3.1602923
3.322113
3.4208648
3.4968416
3.6454653
3.8315495
3.9833649
4.0817378
4.4049817
4.6468545
4.7527904
59.678025
19.180296
10.445164
7.3126839
5.5662203
4.469064
3.8056673
3.4478834
3.2746056
3.1994579
3.1463738
3.0894967
3.0049514
2.9594653
3.0307021
3.2210379
3.4378288
3.6070685
3.6675663
3.6911686
3.8031797
4.061695
4.2744425
4.3695107
4.5697915
4.7305258
5.0277046
61.966975
19.866469
10.637526
7.497603
5.7552664
4.6935219
4.0314476
3.6799137
3.5252606
3.4705137
3.4320707
3.3803479
3.2803975
3.2335676
3.2976167
3.4597723
3.6829723
3.886232
3.9543557
3.9584159
4.0540882
4.3189477
4.63264
4.6348268
4.7321371
4.9361385
5.3108713
65.339317
20.487379
10.928569
7.7194499
5.9569902
4.9206907
4.2639013
3.9357974
3.8147638
3.7845294
3.7552829
3.6948245
3.580618
3.5358454
3.5942055
3.7369069
3.9571562
4.1678759
4.2487584
4.2488164
4.3437517
4.6212423
4.9815827
4.8986238
4.9244037
5.2540953
5.6484366
70.423397
21.494827
11.320234
7.9952658
6.2581541
5.2046757
4.5671986
4.265486
4.1550526
4.1311029
4.1007028
4.0104559
3.8524099
3.7941496
3.8644977
4.045509
4.2895673
4.4746392
4.5504828
4.545341
4.6565422
4.9714307
5.3199293
5.2230888
5.1895144
5.5155583
5.98881
76.250046
22.842901
11.842342
8.3842803
6.6887442
5.628669
4.9629164
4.6445041
4.5203031
4.4818282
4.4216893
4.282319
4.0631604
3.9925406
4.0817254
4.3237353
4.6041476
4.8106689
4.8956122
4.8859792
4.9905072
5.2971979
5.6437829
5.5637556
5.462509
5.7333391
6.3518629
82.237998
24.366039
12.516484
8.8291534
7.111864
6.108819
5.4178988
5.0663168
4.8969358
4.8002698
4.6914358
4.4953713
4.2418301
4.1642051
4.2577154
4.5253023
4.8728056
5.1585954
5.2767465
5.2704566
5.3458867
5.6326884
6.0329395
5.9581108
5.7193589
5.9641375
6.8959302
87.187999
25.784342
13.23686
9.3046995
7.4894256
6.5297648
5.8562469
5.4759847
5.2626396
5.1368895
4.9837758
4.7589037
4.4738952
4.3494885
4.4302053
4.7044501
5.1619403
5.5584846
5.7158351
5.6747716
5.6920882
5.9901589
6.507578
6.4637249
6.0429118
6.2674512
7.5892451
91.01816
27.290049
13.857301
9.7280495
7.8544687
6.8289222
6.2033879
5.8409332
5.6305952
5.4867152
5.3201691
5.0806903
4.7624465
4.5902968
4.6674842
4.9773126
5.5575369
6.0252145
6.1589534
6.0436832
5.9852218
6.2924303
6.9468828
7.0351622
6.4911705
6.6881838
8.1266972
94.439065
28.181767
14.241434
9.9795941
8.1314615
7.1816
6.6486559
6.3031191
6.0786364
5.8961724
5.6798539
5.3844675
5.0170015
4.8373769
4.9298848
5.3048323
5.9967408
6.4951996
6.5895284
6.4015539
6.2376061
6.5101036
7.2365883
7.5382881
7.0760173
7.1916797
8.4942925
99.858101
29.121602
14.67944
10.259006
8.450797
7.6273149
7.1638171
6.8205655
6.5494075
6.3327042
6.0781777
5.7244441
5.3071428
5.0848495
5.1753148
5.566327
6.3545317
6.9292738
7.0760448
6.8750044
6.5750462
6.7465016
7.4489579
7.9864641
7.7389878
7.6471446
8.9665245
107.45076
30.335002
15.133956
10.629221
8.8108952
7.9693961
7.5295623
7.2260705
6.9653054
6.7504126
6.4942767
6.1484278
5.7304611
5.4449111
5.4951832
5.8266086
6.6564972
7.3177372
7.5466865
7.3990769
7.0346371
7.1023102
7.7321279
8.455009
8.3717182
8.0181728
9.3278418
115.89943
32.089856
15.906568
11.125886
9.2698367
8.3975168
7.9468021
7.6589827
7.4248983
7.2300433
6.9807337
6.6137474
6.1349647
5.8193214
5.8545951
6.1985913
7.0637406
7.7256033
7.9553405
7.8411374
7.4586418
7.5282832
8.1781062
8.9903224
8.936765
8.3165548
9.5286053
124.24917
35.466928
17.302339
11.85384
9.7926755
8.8920771
8.4431795
8.1462662
7.9710337
7.7950291
7.5140776
7.0619947
6.4987861
6.1698707
6.2135286
6.6167728
7.5141632
8.166964
8.3912417
8.2875679
7.8692039
7.9650457
8.679655
9.5810702
9.5313679
8.7303612
9.7450161
133.18809
38.539082
18.364926
12.408446
10.181337
9.2908274
8.8834121
8.6664107
8.5243449
8.3232205
7.9805077
7.4657293
6.8882888
6.5733185
6.618116
6.9969581
7.8751213
8.5640262
8.8440269
8.7925964
8.4436971
8.5098561
9.0963338
10.064791
10.240323
9.4122275
10.035812
142.97867
40.44288
18.845128
12.742536
10.449605
9.6048014
9.3187148
9.2092693
9.0698171
8.8430112
8.4726172
7.9356092
7.3611865
7.0416263
7.0775235
7.3758312
8.1873986
8.9383059
9.2995001
9.3373761
9.1439236
9.1010299
9.4819135
10.416229
10.884046
10.268563
10.447631
152.28207
42.099829
19.549417
13.222107
10.882037
10.162516
9.976716
9.8776002
9.6914588
9.4160561
9.027893
8.4714136
7.8437597
7.483334
7.5082344
7.7692759
8.5467947
9.3454332
9.8164382
9.9720815
9.8324179
9.6395615
9.8949642
10.79944
11.403441
11.065704
11.038062
158.89434
43.725206
20.560337
13.907282
11.537862
10.823499
10.576736
10.408124
10.182342
9.8728066
9.4385786
8.8292135
8.211177
7.8971482
7.9442793
8.2339483
9.0220378
9.8306096
10.380089
10.60017
10.452236
10.178641
10.401386
11.280715
11.941161
11.770019
11.628334
161.85759
44.980059
21.362415
14.428209
12.003995
11.227227
10.934564
10.753956
10.509246
10.177499
9.7246481
9.1020497
8.5485354
8.3415702
8.4468952
8.8323483
9.6641606
10.462905
10.960115
11.103485
10.977612
10.759566
10.954142
11.772501
12.489689
12.448392
12.163435
166.76084
46.432019
22.042173
14.93197
12.452459
11.655432
11.349199
11.158721
10.89777
10.540365
10.072835
9.5017286
9.0537787
8.9263084
9.0910799
9.5374045
10.362343
11.102832
11.478692
11.552401
11.441083
11.280836
11.485392
12.234441
12.988362
13.071122
12.768705
177.86704
48.834334
23.066674
15.612763
12.945155
12.107604
11.841205
11.697505
11.501455
11.203986
10.7776
10.290136
9.8800179
9.7446955
9.9059763
10.309139
11.016568
11.654811
11.963015
12.028527
11.933781
11.815115
12.032034
12.696645
13.419067
13.641614
13.459182
192.74089
53.784588
24.650657
16.300694
13.31655
12.394814
12.189397
12.184242
12.179507
12.084785
11.860936
11.493129
11.070186
10.839618
10.891726
11.151437
11.711938
12.226025
12.488436
12.54921
12.481353
12.435065
12.630611
13.184834
13.855221
14.17333
14.171548
205.71895
59.318157
26.46145
17.072745
13.768287
12.775473
12.597012
12.641891
12.766328
12.837288
12.804268
12.606689
12.288759
12.056777
11.98854
12.097659
12.427508
12.754392
12.975873
13.060102
13.067381
13.068671
13.228204
13.714148
14.342351
14.725518
14.820589
214.52356
63.498672
28.321533
18.227831
14.613802
13.44299
13.171182
13.187845
13.27773
13.373577
13.397059
13.332423
13.211978
13.074198
12.96252
12.950455
13.070519
13.240639
13.433222
13.564094
13.627123
13.636322
13.778662
14.246601
14.856885
15.272996
15.346804
219.92637
65.458339
29.781399
19.353073
15.373002
13.978502
13.628927
13.62314
13.703853
13.810903
13.882017
13.919994
13.904629
13.788201
13.640651
13.574319
13.618222
13.758243
13.947825
14.082823
14.13258
14.129849
14.282182
14.749712
15.315447
15.711376
15.766083
222.34818
65.183438
30.541965
19.8786
15.64717
14.210646
13.919289
13.952957
14.122466
14.344363
14.502309
14.574194
14.502315
14.290087
14.128412
14.092979
14.197003
14.386315
14.560721
14.633944
14.611172
14.585531
14.737409
15.166009
15.61957
15.978763
16.096524
223.48056
64.079414
30.836779
20.068967
15.793404
14.54707
14.3678
14.470857
14.780161
15.091151
15.251608
15.28367
15.104365
14.794238
14.631462
14.65734
14.856704
15.114301
15.232405
15.19432
15.068564
15.016688
15.133972
15.44891
15.764944
16.07898
16.301933
226.12079
63.628531
30.825642
20.121404
16.104028
15.162505
15.061901
15.198194
15.525778
15.797023
15.917793
15.916108
15.718397
15.396019
15.232248
15.312235
15.607779
15.91189
15.93086
15.745591
15.49793
15.382177
15.464276
15.661358
15.851271
16.091042
16.408874
232.24539
63.556442
30.23059
20.093036
16.793165
16.145238
16.041839
16.127191
16.345218
16.52093
16.63135
16.665156
16.517055
16.222113
16.046755
16.105452
16.407725
16.730407
16.69634
16.373251
15.966359
15.763964
15.792068
15.921465
15.956928
16.078771
16.447254
237.76439
64.713302
30.022447
20.67348
18.052248
17.398724
17.236005
17.231984
17.385295
17.601906
17.798959
17.872225
17.76696
17.436633
17.150825
17.119167
17.31076
17.57698
17.586665
17.19966
16.614581
16.268082
16.210894
16.258607
16.12595
16.059062
16.432805
236.95325
65.632317
30.688627
21.990541
19.539228
18.730388
18.525662
18.553478
18.825046
19.258315
19.601916
19.699187
19.609803
19.061399
18.512712
18.342662
18.406323
18.510675
18.527364
18.232991
17.576376
17.019414
16.777669
16.667511
16.350829
16.099409
16.376313
226.36245
65.298816
32.344693
23.724534
21.068834
20.240083
20.023753
20.142109
20.700772
21.444364
21.909476
22.00089
21.785825
21.020018
20.15958
19.739703
19.705171
19.632137
19.535167
19.34893
18.818347
18.096388
17.531286
17.163144
16.648476
16.26405
16.414879
208.95637
64.355026
33.997582
25.464758
22.710354
21.900591
21.727453
22.05289
22.879442
23.884014
24.333785
24.39889
24.061259
23.047344
21.929699
21.2413
20.999556
20.859962
20.630943
20.433466
20.124476
19.395827
18.534616
17.827835
17.101969
16.648634
16.593455
193.23604
63.624591
35.705582
27.132141
24.208221
23.332019
23.182508
23.742982
24.936679
26.115041
26.520613
26.542837
26.053674
24.860168
23.608917
22.6746
22.142787
21.892736
21.637095
21.424311
21.24874
20.677907
19.689441
18.729211
17.931241
17.317731
17.032145
182.43813
63.045393
36.862612
28.259323
25.240926
24.365848
24.281422
25.092287
26.621495
27.810501
28.091666
27.945484
27.210909
25.959684
24.762978
23.826301
23.054823
22.618856
22.412471
22.282135
22.193831
21.748268
20.820735
19.796352
19.078261
18.434613
17.955515
174.80902
62.483824
37.405416
28.812961
25.800669
25.023892
25.037732
26.113152
27.916364
28.914454
29.037836
28.640971
27.687605
26.492795
25.575307
24.745431
23.710587
23.111945
22.960127
22.921752
22.933463
22.694888
21.850315
20.869107
20.298106
19.829621
19.256545
168.70279
61.616927
37.301821
28.810775
25.899781
25.203525
25.390784
26.765626
28.678814
29.383298
29.353792
28.657438
27.627616
26.601172
26.03966
25.449501
24.332516
23.481857
23.284421
23.414822
23.557228
23.435866
22.747682
21.757806
21.316889
21.158165
20.661507
164.2195
60.894842
37.065487
28.607509
25.763416
25.135957
25.515995
27.076238
28.915299
29.449008
29.280812
28.427017
27.352159
26.661594
26.460518
26.003918
24.676171
23.649848
23.442893
23.772486
24.044709
23.925732
23.234
22.254532
21.87398
21.875982
21.588904
161.61436
59.830719
36.590444
28.441304
25.765542
25.207923
25.728556
27.438063
29.000109
29.328898
28.990316
28.007415
27.116239
26.730742
26.588967
25.904188
24.562146
23.660277
23.582641
24.007519
24.257603
23.970176
23.089418
22.140762
21.840292
21.883343
21.788591
159.52304
57.396441
35.479562
28.2071
25.918523
25.486937
26.14369
27.710262
28.844999
29.005413
28.60795
27.846465
27.153533
26.715869
26.381137
25.51375
24.314562
23.673244
23.682343
24.132932
24.352754
23.813655
22.657406
21.777859
21.496625
21.501911
21.501977
153.13909
54.429333
34.298453
27.971487
26.092455
25.793082
26.367517
27.600479
28.479022
28.629557
28.410199
27.850495
27.188357
26.573478
25.93831
25.011806
24.184543
23.790477
23.845965
24.18729
24.034281
22.98463
21.727793
21.049357
20.760009
20.656281
20.740791
141.37246
52.131265
33.466247
27.729726
25.96431
25.637932
26.044871
27.028053
27.842788
28.089441
28.011816
27.620519
26.889699
25.989331
25.183602
24.530328
24.106616
23.938022
24.056825
23.993737
23.131737
21.876951
20.928853
20.416047
20.08862
19.943531
20.081085
129.90173
50.994209
32.874823
27.252727
25.445625
25.000895
25.037536
25.610776
26.318839
26.77619
26.86327
26.712702
26.07281
25.032429
24.208964
23.790465
23.6864
23.899367
24.023182
23.27682
21.927822
20.840317
20.264363
19.981118
19.757497
19.640179
19.800834
123.02013
50.053261
31.690898
25.905498
23.825345
23.183476
23.067188
23.378834
24.043684
24.575549
24.769362
24.774137
24.384472
23.506331
22.764329
22.442585
22.648627
23.083716
22.961887
21.975216
20.778669
19.988207
19.617109
19.472532
19.35934
19.258745
19.459479
122.20154
47.702594
29.07964
23.614181
21.745226
21.190598
21.123577
21.47337
21.993334
22.308018
22.392882
22.272801
21.889229
21.240744
20.727079
20.710708
21.062417
21.290428
20.909599
20.114818
19.424776
19.073403
18.935041
18.906155
18.793641
18.544344
18.73753
125.15346
44.180296
25.540861
20.893339
19.700838
19.557086
19.754997
20.050331
20.20291
20.181604
19.973943
19.671484
19.272351
18.858396
18.699694
18.892636
19.252711
19.31648
18.912594
18.38126
18.062431
17.974126
18.183157
18.297308
18.22475
17.999034
18.290818
128.95687
41.175113
23.297266
19.367582
18.52705
18.414398
18.41253
18.344389
18.13963
17.930476
17.743311
17.541334
17.315696
17.125561
17.136747
17.327165
17.550217
17.619812
17.474701
17.245808
17.106743
17.189607
17.578081
17.87773
17.939126
17.918567
18.360773
130.7136
40.188394
22.878175
19.011032
17.824053
17.255836
16.802228
16.415705
16.137548
16.001897
15.975814
16.010275
16.038391
16.052652
16.111989
16.222371
16.360358
16.499765
16.583365
16.595626
16.622391
16.831957
17.278151
17.679449
17.870295
17.993056
18.402029
133.08139
41.426013
23.469128
19.191577
17.211537
15.982706
15.187159
14.725441
14.530493
14.539349
14.711762
14.992191
15.252574
15.424769
15.510674
15.562779
15.645231
15.806084
16.001127
16.181977
16.386873
16.713321
17.187269
17.569675
17.771115
17.839454
17.940272
138.68576
45.291146
25.129781
19.688138
17.201559
15.586323
14.502255
13.903005
13.691906
13.744741
13.997499
14.410176
14.80538
15.031358
15.092378
15.078974
15.092178
15.229901
15.484868
15.775383
16.107234
16.525493
17.027519
17.398478
17.540242
17.477717
17.40836
144.92474
50.157551
28.353472
21.110782
17.631753
15.743348
14.566012
13.905655
13.618495
13.607461
13.790093
14.175649
14.571716
14.78988
14.806173
14.73614
14.696975
14.789239
15.019338
15.341217
15.716745
16.166995
16.659549
17.007701
17.094597
16.993141
16.914693
143.89685
52.534983
30.225428
22.671686
18.800256
16.505541
15.179669
14.403007
14.010394
13.886786
13.967938
14.21358
14.55262
14.788332
14.860817
14.810017
14.714449
14.665614
14.715998
14.908195
15.238901
15.711726
16.205459
16.521417
16.59137
16.518484
16.551383
131.12433
47.05837