/*--------------------------------*- C++ -*----------------------------------*\
| =========                 |                                                 |
| \\      /  F ield         | OpenFOAM: The Open Source CFD Toolbox           |
|  \\    /   O peration     | Version:  2406                                  |
|   \\  /    A nd           | Website:  www.openfoam.com                      |
|    \\/     M anipulation  |                                                 |
\*---------------------------------------------------------------------------*/
FoamFile
{
    version     2.0;
    format      ascii;
    arch        "LSB;label=32;scalar=64";
    class       surfaceScalarField;
    location    "28";
    object      phi;
}
// * * * * * * * * * * * * * * * * * * * * * * * * * * * * * * * * * * * * * //

dimensions      [1 0 -1 0 0 0 0];

oriented        oriented;

internalField   nonuniform List<scalar> 
123996
(
0.0016501383
9.4057623e-06
-3.5102184e-05
0.0016096423
-0.00011246409
0.00013570805
0.0015807378
-0.00016601618
0.00025419788
0.0016102587
-0.00032495513
0.00037359492
0.0016887211
-0.00047881744
0.00042033907
0.0017478307
-0.00038554835
0.00027882563
0.0017612618
-0.00034052408
0.00038343646
0.0017133794
-0.00032827936
0.00046018991
0.0016257822
-0.00028240397
0.00043357871
0.0015551006
-0.00043520825
0.00055263137
0.0015716895
-0.0004837423
0.00060167575
0.0015948236
-0.00052169019
0.0005004698
0.0016053278
-0.00037677986
0.00040188811
0.0016271598
-0.00037425619
0.00056236797
0.0016432844
-0.00046869442
0.00065034398
0.0016493522
-0.00060705314
0.00065239552
0.0016386855
-0.00053480707
0.00053387204
0.0016971229
-0.00046910464
0.00049662913
0.001649783
-0.00040643747
0.00041774571
0.0016638976
-0.00035000562
0.00041774488
0.0015566852
-0.00034196619
0.00037666616
0.0014739221
-0.00023904402
0.00029845666
0.0014186855
-0.00022999287
0.00035611022
0.0013289765
-0.00046960423
0.00051161388
0.0013210088
-0.00058064905
0.00049945503
0.0011436712
-0.00060146701
0.00052642428
0.0010546728
-0.00073359092
0.00072937371
0.0011389112
-0.00071087302
0.00074913952
0.0012690117
-0.00048586021
0.00054422115
0.0016721499
-0.00025537325
0.0003322055
0.0020075201
6.0899243e-05
2.5494509e-05
0.0018998864
0.00018226007
-0.00031484782
0.0016047199
0.00016596271
-0.00033594159
0.0012021615
-5.6709561e-05
-5.1635676e-05
0.0012990698
-0.00016946713
0.0002576018
0.0017829553
-0.00010071357
0.00013850593
0.0018425807
9.3559368e-05
-0.0002121106
0.0014402442
6.2769859e-05
-0.00030881121
0.00090886433
-9.6208615e-05
-6.4840677e-05
0.0009409079
-0.00011227454
0.00013171798
0.0017715159
0.00018045656
0.00010053123
0.0026256192
0.00058377187
-0.00035277799
0.0028071436
0.00064383224
-0.00077612239
0.002526198
0.00058443813
-0.00089269303
0.0019921011
0.00047217503
-0.00077895763
0.0012752343
0.00031025248
-0.00058605368
0.00086357212
2.5433006e-05
-0.00033652201
0.0010388047
-0.00011420531
-0.00011367646
0.001725264
2.5473954e-05
-1.5982333e-05
0.0024899884
0.00031754292
-7.0223166e-05
0.0028101107
0.00056408091
-0.00029388378
0.0024553499
0.00071654101
-0.00061244429
0.0019149838
0.00087119907
-0.00083499638
0.0022494058
0.00098646879
-0.00094564311
0.0010817727
0.0030991969
-0.00086006228
0.0015752295
-8.0171292e-05
0.0015366383
-0.00011092143
0.0015046277
-0.00015835323
0.0015271836
-0.00028054459
0.0016066535
-0.00042311516
0.0016587684
-0.00047135086
0.0016757608
-0.00031597806
0.0016408265
-0.00025467305
0.0015491749
-0.0003293941
0.0014895206
-0.00033387821
0.001496777
-0.00034197162
0.0015249655
-0.00052482312
0.0015282257
-0.00057336298
0.0015468607
-0.00043322183
0.0015432526
-0.00042040855
0.0015663918
-0.00046440033
0.0015463345
-0.00055339983
0.0016021712
-0.00053875116
0.0015674323
-0.00053830541
0.0015792915
-0.00044288895
0.0015188513
-0.00036881653
0.0014336798
-0.00030170344
0.0013287324
-0.00023461285
0.00126245
-0.00038855907
0.0012639301
-0.00052949035
0.0010739798
-0.00066683047
0.0010286491
-0.00076701768
0.0011643575
-0.00065793492
0.0012564304
-0.00044887211
0.0015674694
-0.00015088816
0.0018317863
0.00013411001
0.0017759755
0.00018131226
0.001500047
3.7759596e-05
0.0011982718
-0.00016285882
0.0012232638
-0.00026541703
0.0015597808
-6.9444068e-05
0.0016215542
8.3005142e-05
0.0013777734
-1.6236237e-05
0.0010966937
-0.00017168998
0.0012906909
-8.8195018e-05
0.0018897205
0.00024894029
0.0022637616
0.00050518
0.0023193835
0.00052796128
0.0022474621
0.0003917855
0.0019225812
0.00019441211
0.001245227
-2.163014e-05
0.00080484274
-0.0001124177
0.001145352
-3.6571302e-06
0.0019993782
0.00026874032
0.0028109267
0.00053764263
0.0032456099
0.00065199923
0.0033317086
0.00068202481
0.0029744544
0.00071770461
0.0024322002
0.00079833118
0.00098663306
0.0022896251
0.0014982431
-0.00010916793
0.0014604181
-0.00010334891
0.0014262034
-0.00017613408
0.0014447032
-0.00024753734
0.001523584
-0.00028800065
0.0015837554
-0.00042523169
0.0015981163
-0.00034491207
0.0015554649
-0.00031078922
0.0014725211
-0.00044580121
0.0014200651
-0.00036510671
0.0014123854
-0.00037199614
0.0014379758
-0.0005056644
0.001454309
-0.00067492395
0.0014661897
-0.00058706714
0.0014701889
-0.00050337105
0.0014897221
-0.00039527245
0.0014760428
-0.0005095591
0.001522121
-0.00048523877
0.0015027824
-0.00054202233
0.0015169414
-0.00051054581
0.0014672412
-0.00038085852
0.0013968212
-0.00032087838
0.0012499775
-0.00026657724
0.0011787855
-0.00035603966
0.0011864136
-0.0004545061
0.0010142767
-0.00065886362
0.00099736421
-0.00076709438
0.0011430079
-0.00061569426
0.0012539418
-0.00046495862
0.0015599024
-0.00015865274
0.0017791466
0.00014778549
0.0017189959
0.000213357
0.0014285795
1.8962392e-05
0.0011095347
-0.00023301333
0.0011681129
-0.00030909905
0.0014783191
-7.2868941e-05
0.0015073874
8.8041654e-05
0.0012650405
-2.3393586e-05
0.0010709806
-0.00016207646
0.0012251392
-5.3927218e-05
0.0016720026
0.0002497328
0.0018665465
0.00041410622
0.0018404247
0.00035201627
0.0017768875
0.00023653797
0.0014965983
7.2704602e-06
0.001076323
-0.00022723534
0.00086023593
-0.00019547597
0.0012304699
8.9799419e-05
0.001953096
0.00043158664
0.002564261
0.00060622262
0.0029788088
0.00065838328
0.0032080839
0.00065122863
0.0031905375
0.00061055711
0.0028836967
0.00055125584
0.00055617588
0.0024551111
0.0014276624
-4.8747853e-05
0.0013888122
-7.2628579e-05
0.0013559827
-0.00015486153
0.0013764528
-0.00022975211
0.0014473497
-0.00017517249
0.0015116055
-0.00028420383
0.0015215849
-0.00035064725
0.0014729261
-0.00040458605
0.0014085395
-0.0004486545
0.0013516683
-0.00043313478
0.0013343653
-0.00050457126
0.0013561923
-0.00052922815
0.0013861566
-0.0005858605
0.0013941751
-0.00056949368
0.0014055652
-0.00058775062
0.0014037929
-0.00044968221
0.0014083651
-0.00046871825
0.001442823
-0.00037521476
0.001429922
-0.00042027159
0.0014603318
-0.00043509111
0.0014066729
-0.00034622056
0.0013470118
-0.00027652389
0.0011852837
-0.00026068061
0.0011100758
-0.00033744477
0.001097875
-0.00041511914
0.00095521613
-0.00062981655
0.00096993233
-0.00072760273
0.0010926432
-0.00057552527
0.0012326135
-0.0004684788
0.0015272149
-0.00020350981
0.0016808438
0.00012352729
0.0015913882
0.0002013742
0.0013010021
1.9880646e-05
0.0010427486
-0.00023277566
0.0011735444
-0.00030671793
0.00144907
-8.1330972e-05
0.0014007855
6.188974e-05
0.0011856959
-4.5715869e-05
0.0011250652
-0.00015810812
0.0013517193
-4.1314042e-05
0.0016154407
0.00022149596
0.0016467456
0.00035597064
0.001576881
0.00027822319
0.0014013191
8.3881402e-05
0.0011156925
-0.00014973928
0.0010401799
-0.00027989858
0.0011587635
-0.0001261482
0.0014175176
0.00019514335
0.0017865986
0.00050625476
0.0021843991
0.00062846667
0.0025408418
0.00062695548
0.0027621541
0.00056651206
0.0028336322
0.00048235458
0.0027058337
0.00035146563
0.00024987208
0.0023583749
0.0013591994
3.1723478e-05
0.0013188362
-1.4250074e-05
0.0012876896
-8.5412349e-05
0.0013116919
-0.00018536724
0.0013737276
-0.00014690538
0.0014379204
-0.00016894943
0.0014468869
-0.00029144172
0.0014024379
-0.00040123749
0.001345406
-0.00033174167
0.0012810587
-0.00042362148
0.0012637098
-0.00056372347
0.0012842638
-0.00053769111
0.0013233938
-0.00043095955
0.001324969
-0.00043657382
0.0013445897
-0.00053556902
0.0013270612
-0.00051323659
0.0013549896
-0.00045793584
0.0013794913
-0.00033302814
0.0013734863
-0.0003210305
0.0014208586
-0.00029125733
0.001375439
-0.00027062425
0.0013159075
-0.00022980632
0.0011464508
-0.00022356008
0.0010563406
-0.00028978037
0.0010188836
-0.00037731809
0.0009091758
-0.00059390058
0.00095314968
-0.00067454539
0.0010457569
-0.00052998755
0.0012049179
-0.00042247171
0.0014999197
-0.00019031227
0.0016170681
9.8853229e-05
0.0015078508
0.00014571123
0.0012330552
-8.9906653e-06
0.0010023569
-0.00023604203
0.0011821245
-0.00025666226
0.001393026
-5.7678069e-05
0.0012910378
3.4482449e-05
0.0010746772
-8.3226655e-05
0.001095239
-0.00017608585
0.0013799063
-4.7725901e-05
0.001552702
0.00019723022
0.0014676334
0.00031923856
0.0012871187
0.00022449012
0.001035
-4.3726775e-06
0.00082976352
-0.0002095695
0.0010038656
-0.00023035531
0.0013819939
-3.4772403e-05
0.0016012827
0.00023036424
0.001669311
0.00046461573
0.0018030275
0.00058923105
0.002019083
0.00060228183
0.0021850084
0.00050539878
0.002241794
0.0003680078
0.0021851914
0.0001908271
4.2227671e-05
0.0019904531
0.0012954412
7.1796847e-05
0.0012547008
2.3984855e-05
0.0012249893
-4.8349057e-06
0.001251646
-0.00010628705
0.0013080621
-0.00017018443
0.0013668676
-0.00012177132
0.0013756623
-0.00019167137
0.0013429535
-0.00027545646
0.001281779
-0.00019249524
0.0012133971
-0.00033959332
0.0012025985
-0.00048246451
0.0012318284
-0.00047888683
0.0012647961
-0.00033653379
0.0012582471
-0.00034953097
0.0012833267
-0.0003878012
0.0012635578
-0.00048417051
0.0012959841
-0.00043391785
0.0013120944
-0.00036587158
0.0013159348
-0.00031347702
0.0013655196
-0.00019379023
0.0013268969
-0.00018824538
0.0012696069
-0.00017589159
0.0011036719
-0.00019159865
0.0010010859
-0.00023835746
0.00093878637
-0.00030620922
0.00085381495
-0.00053142253
0.00092579007
-0.00062328551
0.00099455093
-0.00050842269
0.0011630109
-0.00036919856
0.0014531154
-0.00012319371
0.0015387403
9.714685e-05
0.0014162044
9.1372664e-05
0.0011429943
-5.6022518e-05
0.00095621762
-0.00025492894
0.0011635197
-0.0002267796
0.0013404774
-3.1566718e-05
0.0012118725
3.5415314e-06
0.00099921413
-0.00012968165
0.0010777551
-0.00020659021
0.0014034797
-6.0644597e-05
0.0015433631
0.00016250561
0.0013811363
0.00025635964
0.0011122759
0.00018733005
0.00083936492
-2.3694731e-05
0.00075565291
-0.00018996057
0.0010378611
-0.00016244974
0.0014984698
3.6972045e-05
0.0017212013
0.00023280386
0.0016983585
0.00036208059
0.0016395321
0.00045561626
0.0016357849
0.00051224358
0.0016739003
0.00044809557
0.0016476905
0.00031019211
0.0015878763
9.9400823e-05
-4.7286906e-05
0.0015216058
0.0012313524
5.850013e-05
0.0011940484
3.7359947e-05
0.0011640725
3.6905509e-05
0.0011887478
-2.2066356e-05
0.0012442847
-0.00018415177
0.0012972784
-0.00013715268
0.0013100105
-0.00010313555
0.0012895682
-0.00011332564
0.0012213152
-0.00010406859
0.0011548875
-0.00023640681
0.0011480725
-0.0003389682
0.0011819702
-0.00036839052
0.0012035918
-0.00031334877
0.0011992835
-0.00036548748
0.0012209375
-0.00027250776
0.0012097597
-0.00039998076
0.0012379227
-0.00038889663
0.0012512531
-0.00040190841
0.0012671795
-0.00036428264
0.0013083573
-0.0001831882
0.0012792645
-0.00014542838
0.0012294127
-0.00013063818
0.0010769797
-0.00017039101
0.00096746298
-0.0002002084
0.00087985566
-0.00023323315
0.0008096691
-0.00045894977
0.00089823335
-0.00057733932
0.00095961149
-0.00051289079
0.0011344893
-0.00034015226
0.0014101422
-6.2427449e-05
0.0014662571
0.00011546188
0.0013436256
7.3398915e-05
0.0010774069
-9.1087009e-05
0.00093045128
-0.00028727283
0.0011462098
-0.00020886134
0.0012796013
-1.2180984e-05
0.0011334273
-9.291842e-06
0.00092642944
-0.00015833342
0.0010287507
-0.00022096002
0.0013671578
-7.1642387e-05
0.0014986728
0.00012041748
0.0013312376
0.0001832507
0.0010007284
0.00013484741
0.00072711044
-3.8500831e-06
0.0007039864
-0.00014023823
0.0010258644
-9.9864206e-05
0.0014680366
8.1634446e-05
0.0016744516
0.000216955
0.0016830767
0.00028781761
0.0015662039
0.00032815833
0.0014124197
0.00036158395
0.0012663198
0.00032168421
0.0011246837
0.00021286618
0.0010665429
3.8272911e-05
-7.7901248e-05
0.0011167266
0.0011738837
1.6625707e-05
0.001138127
3.6888423e-05
0.0011085357
3.8654867e-05
0.0011275026
2.161818e-05
0.0011837837
-0.00015520659
0.001233538
-0.00015034282
0.0012495505
-5.4644907e-05
0.0012335764
-1.0034706e-05
0.0011638834
-7.6193225e-05
0.0011022739
-0.0001769808
0.0010961174
-0.00024140316
0.0011284851
-0.00027517356
0.0011389362
-0.00033257129
0.0011487825
-0.00043387313
0.0011558154
-0.00025901682
0.0011540644
-0.00032935551
0.0011765198
-0.00033888471
0.0011889264
-0.0003933116
0.0012153391
-0.00039369381
0.0012450592
-0.00022411302
0.0012232421
-0.00015029161
0.001180058
-0.00010705045
0.0010423408
-0.00014482018
0.00093315233
-0.00016882757
0.00081881648
-0.00019464385
0.00075450203
-0.00040086763
0.00085068806
-0.00053524022
0.00092335404
-0.00051417777
0.0011007843
-0.00034198283
0.0013495205
-4.527031e-05
0.0013848902
0.00012778554
0.0012623881
8.261409e-05
0.0010079037
-0.00010699518
0.00090294052
-0.00029512267
0.0011150897
-0.00019744992
0.0012140561
-1.1398477e-05
0.0010597131
-1.9943193e-05
0.00087281521
-0.00018138606
0.00098790768
-0.00023268448
0.0013218504
-8.4894611e-05
0.001449643
8.9696362e-05
0.0013203224
0.00012727378
0.0010115116
7.2065989e-05
0.00069465693
-2.4618706e-05
0.00068943335
-9.1000394e-05
0.00099882933
-2.898876e-05
0.0013768365
0.00013885329
0.0015823044
0.00022907386
0.0016195798
0.0002558034
0.0015218308
0.00023863923
0.0013159521
0.00022061165
0.0010453294
0.00017256159
0.00079390297
9.5933735e-05
0.00069013772
-1.9419417e-05
-4.9950145e-05
0.00079482991
0.0011200614
-1.7111668e-05
0.0010848874
3.4167493e-05
0.0010566077
2.2616493e-05
0.0010697274
2.6940365e-05
0.0011263796
-9.3611017e-05
0.0011768474
-0.00012620391
0.0011925828
-3.956644e-05
0.0011735064
2.6390657e-05
0.0011072906
-8.8758648e-05
0.0010509174
-0.00016325687
0.0010443491
-0.00020305796
0.0010707698
-0.00024903739
0.0010744086
-0.00036590934
0.001098747
-0.00047228314
0.0010944146
-0.00032270924
0.0010996049
-0.00030971705
0.0011156166
-0.00030462364
0.001129245
-0.00035992101
0.0011689373
-0.00036648025
0.0011931492
-0.0002766099
0.0011778116
-0.00018295573
0.001136165
-0.00010103444
0.0010125183
-0.00012039047
0.00090781649
-0.00014176962
0.00077114371
-0.00018260531
0.00070537925
-0.00037720122
0.00080274245
-0.00049176055
0.00089200572
-0.0005020175
0.0010739309
-0.00035886992
0.0012962526
-6.1603916e-05
0.0013199683
0.00011987751
0.0011961153
9.8974245e-05
0.00095309901
-9.7324608e-05
0.00088196467
-0.0002849174
0.0010818808
-0.0001928577
0.0011547369
-1.6175042e-05
0.00098787962
-3.443755e-05
0.00082166972
-0.00019602508
0.00093569567
-0.00023424171
0.0012485428
-7.254759e-05
0.0013724028
8.7550524e-05
0.0012683511
9.5055517e-05
0.0010176154
9.8278065e-06
0.00069093227
-8.1077851e-05
0.00066915993
-9.4614447e-05
0.00096345667
3.9606484e-05
0.001292726
0.00020953221
0.0014772853
0.00026251584
0.0015206691
0.00022897959
0.001456262
0.0001845458
0.0012716685
0.00013125093
0.0009737225
5.0513779e-05
0.00068271856
-8.6478577e-06
0.00056459237
-5.3455408e-05
-2.9191771e-06
0.00065999159
0.0010683635
-3.18262e-05
0.0010340315
3.394152e-05
0.0010075866
6.7058095e-06
0.0010173836
8.6917937e-06
0.0010735885
-1.8381277e-05
0.0011240898
-6.3819935e-05
0.0011389305
-3.4249477e-05
0.0011136408
1.839501e-05
0.0010522428
-0.00011533525
0.00099992538
-0.00016616754
0.00099298216
-0.00020277973
0.0010137021
-0.00024742562
0.0010162855
-0.0003873209
0.0010499628
-0.00045208093
0.001038784
-0.00039753657
0.0010474321
-0.00033704667
0.0010588674
-0.00029301363
0.0010742757
-0.00031430857
0.0011183418
-0.00030682778
0.0011403904
-0.00029462818
0.0011304735
-0.00021820896
0.0010894209
-0.00011075393
0.00097604458
-9.5511243e-05
0.00087483256
-0.00011071425
0.00072315462
-0.00018068013
0.00065675463
-0.0003715152
0.00074717612
-0.00045515001
0.00084991633
-0.00047415287
0.0010395047
-0.00035600911
0.0012380733
-9.2769889e-05
0.0012585731
9.5974381e-05
0.0011307722
9.8845731e-05
0.00089873653
-8.5337152e-05
0.00085381742
-0.0002594421
0.0010434284
-0.00017938969
0.0010928649
-1.6781292e-05
0.00092171596
-5.433525e-05
0.00078048408
-0.00020914897
0.00090742182
-0.00023249969
0.0011988818
-5.7915169e-05
0.0013054278
0.00010062456
0.0012090709
8.7694915e-05
0.0010004651
-2.1129572e-05
0.00070977784
-0.00014854819
0.00069718348
-0.00011874467
0.00095716521
7.0772633e-05
0.0012016263
0.00025670134
0.0013422613
0.0002953057
0.0014054674
0.00024720425
0.0013680767
0.00016074587
0.0012082686
6.5476824e-05
0.00096340476
-3.3387906e-05
0.0007174115
-8.7363382e-05
0.00061166331
-8.0820887e-05
1.6985773e-05
0.00068310004
0.0010178195
-2.6161353e-05
0.00098445318
3.2766576e-05
0.00095996579
1.6289283e-06
0.00096871686
-1.4510321e-05
0.0010218626
3.9631928e-05
0.0010721573
8.0601081e-06
0.0010874908
-3.3648692e-05
0.0010578314
-2.4813185e-05
0.0010020408
-0.00013098042
0.00095206966
-0.00016682694
0.00094310489
-0.00021188855
0.00095812144
-0.00025409075
0.00096655903
-0.00039803128
0.0010035673
-0.00038062998
0.0009910326
-0.0004249963
0.00099935321
-0.00037316404
0.0010092037
-0.00030602389
0.0010262256
-0.00027225942
0.0010667818
-0.0002373355
0.0010913454
-0.00027184639
0.0010872757
-0.0002269825
0.001048803
-0.00012483636
0.00094606554
-7.8005503e-05
0.00084710254
-7.4356306e-05
0.00068460732
-0.00017195068
0.00061786527
-0.00035730823
0.00069663111
-0.00042382892
0.00080785198
-0.00043945733
0.0010022106
-0.00033569655
0.0011876362
-0.00010142398
0.0012068346
6.6712641e-05
0.0010759814
7.885055e-05
0.0008551911
-7.8681395e-05
0.00082905289
-0.00022621072
0.0010112301
-0.0001526648
0.0010335247
-1.8384553e-05
0.00086402299
-7.2031982e-05
0.00074238207
-0.00021375425
0.00087932876
-0.00022178552
0.001150152
-3.9585514e-05
0.0012326703
0.00011439942
0.0011369077
8.6652642e-05
0.00095418824
-3.6687904e-05
0.00073979524
-0.00017896117
0.00075039901
-0.000149767
0.00095239744
5.7414017e-05
0.0011138388
0.0002567292
0.0012066085
0.00031928434
0.0012595743
0.00026382296
0.0012366519
0.00016463424
0.0011127388
3.5137769e-05
0.00093904145
-8.6373212e-05
0.00078229804
-0.00014264234
0.00073290872
-0.00011047666
1.728374e-05
0.0008000387
0.00097076148
-4.0981544e-06
0.00093763977
2.9696502e-05
0.00091413952
6.3805426e-06
0.00092417119
-3.6184508e-05
0.00097360681
7.0306766e-05
0.0010210987
6.715694e-05
0.0010369076
-1.6909241e-05
0.0010059398
-6.1943837e-05
0.00095612696
-0.00011790409
0.00090767841
-0.00015545054
0.00089629927
-0.00021479723
0.00090536689
-0.00025635947
0.00092226522
-0.00038100178
0.00095616449
-0.00029224955
0.00094678015
-0.00038583678
0.00095518116
-0.0003734624
0.00096505143
-0.00031015258
0.00098231679
-0.00025247523
0.0010143469
-0.00017918637
0.0010419473
-0.00022322394
0.0010432448
-0.00020265911
0.0010092229
-0.0001283576
0.00091749147
-6.6181018e-05
0.00081826539
-3.6880125e-05
0.0006508246
-0.00014843081
0.00058247111
-0.00032486807
0.00064822894
-0.00039121221
0.00076334632
-0.0004093729
0.00096018543
-0.00030022676
0.0011347778
-8.654137e-05
0.0011557899
4.5667007e-05
0.0010247107
4.6992343e-05
0.00081252832
-8.3667774e-05
0.00079714326
-0.00020566467
0.00097118419
-0.00012720067
0.00097521607
-1.9400086e-05
0.00081276186
-8.1879466e-05
0.00070544493
-0.00020719978
0.00085508477
-0.00019827579
0.0011067156
-1.9712572e-05
0.0011632559
0.00011545969
0.001072393
8.1369037e-05
0.00090253721
-4.1968377e-05
0.00075443651
-0.00017763725
0.00080352779
-0.00016509572
0.00097398029
1.754555e-05
0.0010642604
0.00021345575
0.0010963124
0.00030701408
0.0011264981
0.00028848749
0.0010934751
0.00017754707
0.0009850488
3.7471924e-05
0.00088174918
-9.894841e-05
0.00082565185
-0.00016030776
0.00084732202
-0.00012052281
2.1986101e-06
0.00092689706
0.00092716129
2.4293188e-05
0.000894185
2.7400939e-05
0.00087138442
2.1296101e-05
0.00088335065
-3.9125702e-05
0.00092810929
7.0901319e-05
0.00097211235
9.6963577e-05
0.00098772199
1.3559737e-06
0.00095903622
-7.6542388e-05
0.00091300499
-7.4379685e-05
0.00086530517
-0.0001390466
0.00085345714
-0.00020453782
0.00085757249
-0.00024175314
0.00088180906
-0.00034337251
0.0009087097
-0.00019454213
0.00090374697
-0.00030197349
0.00091207208
-0.00033412731
0.00092222814
-0.00029967195
0.00094154555
-0.00024636702
0.00096449559
-0.00015398879
0.00099701233
-0.00016641305
0.0010032002
-0.00015496236
0.00097556261
-0.00011536554
0.00089422176
-5.6740689e-05
0.00079230416
-6.1597595e-06
0.00062398633
-0.00011036414
0.00055257097
-0.00027049402
0.00060476277
-0.00035497555
0.00072374877
-0.00038187429
0.00092041194
-0.00025990706
0.0010847257
-5.2444616e-05
0.0011102718
4.50647e-05
0.00098277876
2.153553e-05
0.00077675196
-9.8651759e-05
0.00076932268
-0.00019004438
0.00093031483
-0.00010314597
0.00092403471
-9.6946627e-06
0.00077227872
-8.6052017e-05
0.00067383482
-0.00019537322
0.00082475171
-0.00016459615
0.001054294
-9.5649017e-08
0.0010930038
0.00010524519
0.0010073427
7.0388822e-05
0.00084518129
-4.36343e-05
0.00073745486
-0.0001589737
0.00081729661
-0.00016983662
0.00098142329
-2.222127e-05
0.0010417132
0.00014409469
0.0010347421
0.00025257633
0.0010159
0.00028457806
0.00096963346
0.00021674351
0.00086323125
5.5671167e-05
0.00079826918
-7.1786961e-05
0.00083567059
-0.00014369514
0.00091527782
-0.00011212722
-5.2428471e-06
0.0010211717
0.00088580432
4.2341446e-05
0.00085370954
2.8221765e-05
0.00083130624
4.1269062e-05
0.00084482291
-2.1633543e-05
0.00088582953
5.8151125e-05
0.00092622617
9.6516622e-05
0.00094107021
3.1156025e-05
0.00091610697
-4.6873357e-05
0.00087096626
-2.4615106e-05
0.00082497331
-0.00011156123
0.00081420433
-0.00018088858
0.00081435883
-0.00021792657
0.00084587945
-0.00029456818
0.00086371095
-0.00012307473
0.00086166642
-0.00020518347
0.00087025197
-0.00026741276
0.00087960005
-0.00026209922
0.00089987038
-0.00023629849
0.00091796422
-0.00015885298
0.00095423046
-0.00012938028
0.00096368121
-0.00010748217
0.00094262601
-8.828684e-05
0.00086974364
-4.7880877e-05
0.00076633641
1.4561882e-05
0.00060117418
-6.709619e-05
0.00052368856
-0.00020710638
0.00056231002
-0.00031268057
0.00068507456
-0.00036227226
0.00087905963
-0.00023114291
0.0010316496
-2.1212188e-05
0.0010612526
5.9390596e-05
0.00094172171
3.6262396e-06
0.00074580119
-0.00011935788
0.00073966128
-0.00017215771
0.00088603713
-6.5777586e-05
0.00087175937
3.6575171e-06
0.00073639699
-9.23146e-05
0.00065007463
-0.00018707964
0.00079460823
-0.00013966121
0.00099877429
2.2887042e-05
0.0010299737
0.00010475562
0.00095271613
5.3916256e-05
0.00080149873
-4.9558307e-05
0.00070557245
-0.00015458547
0.00080696219
-0.00015465106
0.00096610826
-3.6076197e-05
0.0010220119
8.9574579e-05
0.0010054129
0.00018054003
0.00095389652
0.00024107371
0.00085271676
0.00021535671
0.00075531225
9.1817939e-05
0.0007080339
-3.4876203e-05
0.00078994976
-9.5124679e-05
0.00092338445
-7.7076486e-05
-4.2655068e-06
0.0010406548
0.00084634378
5.1540122e-05
0.00081574309
3.6723338e-05
0.00079362774
5.9554105e-05
0.00080818668
1.5506242e-05
0.00084531993
4.2122136e-05
0.0008826395
8.1723416e-05
0.00089748964
6.4368464e-05
0.00087591146
5.5408535e-07
0.00083046915
2.0211017e-05
0.00078636405
-8.8141953e-05
0.00077551099
-0.00015802571
0.00077415934
-0.00019850651
0.00081368657
-0.00024107538
0.00082324059
-8.2076659e-05
0.00082193486
-0.00012528584
0.00083130747
-0.00019034688
0.00083870393
-0.00021489335
0.00085843302
-0.00021535001
0.00087417299
-0.00017842536
0.00091171746
-0.00011080893
0.00092401018
-6.8255987e-05
0.00090957749
-6.0921466e-05
0.00084527096
-3.588782e-05
0.00074263999
2.2434672e-05
0.0005828609
-3.183621e-05
0.00049775562
-0.00014462592
0.00052214504
-0.0002672987
0.00064836361
-0.00034783858
0.00083868777
-0.00021232917
0.00097922896
-1.6083087e-06
0.0010103614
7.2772477e-05
0.00090287202
-3.5114704e-06
0.0007231958
-0.00013131339
0.00071565946
-0.00015197869
0.00084554438
-2.605058e-05
0.00082210799
2.0097316e-05
0.00070403383
-9.8312113e-05
0.00062891565
-0.00018726693
0.00076436248
-0.00011181493
0.00094341046
4.8226274e-05
0.00096844014
0.00010878777
0.00090284805
3.9699468e-05
0.00075655769
-5.9370289e-05
0.00066977395
-0.00016090674
0.00077979875
-0.00013120922
0.00092332152
-3.1618156e-05
0.00099441048
5.4949456e-05
0.00098239549
0.00011524522
0.00091273345
0.00017204313
0.00076968537
0.0001695342
0.00066087824
0.00010367125
0.00062199822
1.2890262e-05
0.00072094313
-2.7264621e-05
0.0008725846
-2.0061086e-05
1.9091893e-05
0.00099848033
0.00080826176
5.2944248e-05
0.00077931335
5.0915416e-05
0.00075783456
7.6079685e-05
0.0007723627
5.2185431e-05
0.00080691605
2.7806198e-05
0.00084139169
5.7428104e-05
0.00085588932
8.8548504e-05
0.00083768546
4.0338317e-05
0.00079178818
5.3782612e-05
0.00074957656
-6.1041542e-05
0.00073808095
-0.00012650777
0.00073665352
-0.00017183637
0.00078120496
-0.00018194749
0.0007855976
-7.0013759e-05
0.00078423399
-7.551248e-05
0.00079370815
-0.00012887613
0.00080050438
-0.00016667378
0.00081786183
-0.00018741412
0.00083269731
-0.00019132016
0.00086950769
-0.0001124329
0.00088336871
-4.8146832e-05
0.00087512468
-3.183582e-05
0.00081870983
-2.6537918e-05
0.00071949931
2.0838668e-05
0.00056561845
-9.813543e-06
0.0004726193
-9.0943289e-05
0.00048319951
-0.00022262309
0.00061079435
-0.00032990764
0.00079649795
-0.00020360823
0.00092619608
5.6214688e-06
0.00095703512
8.2582241e-05
0.00086293632
-3.5706007e-06
0.0007043345
-0.00013324991
0.00069347776
-0.00013540719
0.00080294472
8.99221e-06
0.00077228354
4.0380099e-05
0.00067181992
-9.7075983e-05
0.00061144659
-0.0001911178
0.00073721394
-8.4343724e-05
0.00088832182
7.4492467e-05
0.00090322729
0.0001117248
0.00085063111
3.5503897e-05
0.0007115816
-7.7227315e-05
0.00064402661
-0.00017079805
0.00074483686
-0.00011315421
0.00087066034
-1.7905112e-05
0.00094141452
4.4104123e-05
0.00095282346
7.6545541e-05
0.00088209937
0.00010840179
0.00072704114
0.00010662896
0.00059684603
8.7778214e-05
0.0005524475
4.1713129e-05
0.0006398284
3.2182427e-05
0.00078548025
4.1429816e-05
5.1600452e-05
0.00091456723
0.00077237778
4.7089629e-05
0.00074490542
6.3678385e-05
0.0007241263
8.7965818e-05
0.0007375705
8.6371008e-05
0.00077011571
2.1993711e-05
0.00080261436
3.303047e-05
0.0008161767
9.9905615e-05
0.0008006566
7.3166831e-05
0.00075484478
6.6652475e-05
0.00071494849
-3.5358388e-05
0.00070308366
-8.7858011e-05
0.00070204257
-0.00014463065
0.00074730445
-0.00012385129
0.00074917019
-8.6713165e-05
0.00074774677
-6.61966e-05
0.00075795254
-8.67027e-05
0.00076470592
-0.00013328448
0.00077910674
-0.0001572265
0.00079360983
-0.0001914753
0.00082859065
-0.00012073091
0.00084306341
-4.4041108e-05
0.0008388206
-1.3312295e-05
0.00079080793
-1.825084e-05
0.00069782176
1.0713445e-05
0.00055134715
1.8036231e-06
0.00044971855
-4.983564e-05
0.00044721826
-0.00018297219
0.00057506268
-0.00030452499
0.00075615193
-0.00019967084
0.00087642658
-5.0291468e-06
0.00090577943
8.2045524e-05
0.00082451871
-3.1157522e-07
0.00068813732
-0.00013342616
0.00067670121
-0.00011579736
0.00076351008
3.8866442e-05
0.00072419704
5.7587731e-05
0.00063824855
-8.5021776e-05
0.00060090178
-0.00019577048
0.00071463203
-7.6370703e-05
0.00083502328
9.3619629e-05
0.0008439917
0.00012529615
0.00079267037
4.3653759e-05
0.00066710555
-9.1891278e-05
0.00062235785
-0.00018583925
0.00071172317
-0.00011017296
0.00081496243
-1.0559967e-06
0.00088221499
5.6540655e-05
0.00090784587
6.931615e-05
0.00084604963
6.8913687e-05
0.00071132844
4.6557431e-05
0.00057162439
4.3696088e-05
0.00051368098
3.9867448e-05
0.00057183309
6.7998813e-05
0.00069641261
9.4483359e-05
9.8704077e-05
0.00080716842
0.0007379038
3.9748492e-05
0.00071183739
7.2867499e-05
0.0006920584
9.0928042e-05
0.00070389033
0.00011349133
0.00073443729
2.7238081e-05
0.00076529034
1.3924601e-05
0.0007781285
9.3395694e-05
0.00076521022
8.6157339e-05
0.00072043762
5.6334453e-05
0.00068240878
-1.0009657e-05
0.00066980756
-5.1431725e-05
0.00067007938
-0.00012269311
0.00071244496
-6.5459785e-05
0.00071354766
-0.00011441721
0.00071295294
-9.3025881e-05
0.00072293736
-7.3298812e-05
0.00072933969
-0.00011156709
0.00074128529
-0.00013018195
0.00075690046
-0.00017908099
0.00079025739
-0.00012549947
0.00080445356
-4.6511911e-05
0.00080200995
-5.6026211e-07
0.00076125912
-1.1687424e-05
0.00067630075
-1.5934635e-06
0.00053824271
4.3000358e-06
0.00042761592
-1.985364e-05
0.00041344839
-0.00014977401
0.00054031162
-0.00027728267
0.00071624866
-0.00020027849
0.00082876832
-2.4348656e-05
0.00085566861
7.4522353e-05
0.00078469769
-5.397139e-08
0.00067200644
-0.00012900349
0.00066099972
-9.8166187e-05
0.00072602816
6.7356733e-05
0.00067835125
7.3425512e-05
0.00059921097
-7.5142694e-05
0.00058656877
-0.00019678456
0.00069482336
-7.8801953e-05
0.00078863983
9.8449555e-05
0.00078974487
0.00014519206
0.00073616474
5.6279952e-05
0.00062427663
-0.00010129443
0.00060649269
-0.00019656919
0.00068944836
-0.0001193817
0.00077536353
1.1408049e-05
0.00082712414
7.9693944e-05
0.00085586967
8.6636004e-05
0.00080128186
5.1783612e-05
0.00069451227
8.2783445e-06
0.00056268877
-1.1429589e-05
0.00049916384
6.9155079e-06
0.00052830049
7.3007021e-05
0.00062065209
0.0001308711
0.00015263685
0.00070117296
0.00070561269
3.2727574e-05
0.00068070437
8.2305488e-05
0.00066179556
9.0167572e-05
0.00067177288
0.0001329027
0.00070104779
3.8210971e-05
0.00073074749
1.2006027e-06
0.00074197742
7.4961306e-05
0.0007295845
8.5060997e-05
0.00068708539
2.1596504e-05
0.00065154655
7.9604281e-06
0.00063841315
-2.0234489e-05
0.00064051769
-9.7601288e-05
0.0006772308
-1.8104835e-05
0.00067958065
-0.00014424958
0.00067990215
-0.00013111772
0.00068822733
-8.4037925e-05
0.00069524769
-0.00010093714
0.00070549368
-0.00010421982
0.00072245978
-0.00015303438
0.00075427047
-0.00012135897
0.00076851255
-5.2618809e-05
0.00076665706
6.7381076e-06