/*--------------------------------*- C++ -*----------------------------------*\
| =========                 |                                                 |
| \\      /  F ield         | OpenFOAM: The Open Source CFD Toolbox           |
|  \\    /   O peration     | Version:  2406                                  |
|   \\  /    A nd           | Website:  www.openfoam.com                      |
|    \\/     M anipulation  |                                                 |
\*---------------------------------------------------------------------------*/
FoamFile
{
    version     2.0;
    format      ascii;
    arch        "LSB;label=32;scalar=64";
    class       volScalarField;
    location    "28";
    object      T;
}
// * * * * * * * * * * * * * * * * * * * * * * * * * * * * * * * * * * * * * //

dimensions      [0 0 0 1 0 0 0];

internalField   nonuniform List<scalar> 
62344
(
1.0027348
1.0023646
1.0033285
1.003573
1.0031695
1.002399
1.0018517
1.0015226
1.0022594
1.0024895
1.0028233
1.0016779
1.0017092
1.0014275
1.0001398
0.99992422
1.0007809
1.0006328
0.99988567
1.0005174
1.0006275
1.0030964
1.0032795
1.0036372
1.0036368
1.0052664
1.0077868
1.0074504
1.0060003
1.001844
0.99282529
0.99032449
0.99542717
1.0023213
1.0068197
1.0001029
0.99253609
0.99566215
1.003803
1.0099539
1.0037112
0.9847825
0.97130354
0.97134949
0.97831221
0.98879679
0.99904063
1.0017837
0.99483435
0.98188107
0.97029375
0.97015473
0.98221505
0.99098765
0.98430699
1.0028132
1.0024512
1.0035535
1.0041599
1.0032458
1.0018735
1.0014988
1.0010938
1.0019247
1.0029612
1.0027668
1.0013133
1.0012406
1.0016166
1.0012042
1.0000653
0.99984299
1.0000327
0.99948027
1.0003422
1.000589
1.0025032
1.0036828
1.0051735
1.0042293
1.005585
1.0085436
1.0073821
1.0053835
1.0020516
0.99424387
0.99118835
0.99495881
1.001721
1.0057897
1.0025184
0.99681838
0.99779276
1.002632
1.0049993
0.99725861
0.98565312
0.97948069
0.97673656
0.97716671
0.98539537
0.99799144
1.0009006
0.99016579
0.97318706
0.95949211
0.95380636
0.95725361
0.96760354
0.97895842
1.0031489
1.0023048
1.0033758
1.0045128
1.0035435
1.0016156
1.0008281
1.0006732
1.0016054
1.0028885
1.0028009
1.002011
1.0010165
1.0006257
1.0013167
1.0008348
1.0004345
1.0001435
0.9997258
0.99994515
1.0003367
1.0019474
1.0040845
1.0067742
1.0063174
1.0071302
1.0092567
1.0073119
1.0047264
1.0011434
0.99389021
0.99206702
0.99521577
1.0019984
1.005522
1.0019834
0.99794523
0.99965539
1.0033917
1.0034574
0.9973539
0.98935721
0.98748525
0.98666678
0.98615076
0.9904376
0.9968519
0.99816244
0.98838928
0.97369622
0.96171642
0.95244772
0.94719607
0.94830396
0.95769377
1.0032577
1.0022233
1.0030823
1.0042876
1.0034689
1.0016616
1.0004246
1.0007301
1.0015742
1.0024146
1.0027183
1.0025852
1.001444
1.000235
1.0005698
1.0007965
1.0013273
1.0004363
1.0005225
0.99993022
0.9998163
1.0013197
1.0038948
1.0075902
1.0078698
1.0084769
1.0097538
1.0073716
1.0048103
0.99999934
0.99366648
0.99273509
0.99632604
1.0026202
1.0046819
1.0002298
0.99758752
1.0010223
1.0037282
1.0013041
0.99532312
0.99244921
0.99354714
0.99441894
0.99663953
0.99830029
0.99541921
0.99225836
0.98644863
0.97802192
0.96751274
0.95810328
0.95102123
0.9477766
0.95120461
1.0032264
1.0022061
1.0029635
1.0038359
1.0029841
1.0018854
1.000686
1.0011983
1.0018374
1.0024039
1.0028541
1.0026505
1.0015497
1.0004833
1.0001508
1.0001922
1.0013464
1.0003253
1.0009119
1.0000792
0.9994096
1.0008218
1.0036289
1.0077544
1.0084779
1.0093489
1.0097424
1.0076271
1.0055146
0.99944832
0.99334519
0.99301746
0.99736101
1.0032776
1.0045509
0.99869472
0.99741591
1.0014507
1.0041281
1.0002095
0.99365192
0.99275021
0.99585442
0.99957983
1.0026559
1.0009472
0.99182233
0.98359444
0.98110335
0.9800802
0.97504679
0.96736939
0.96076961
0.95713337
0.95616003
1.0031259
1.0022797
1.0030068
1.0035551
1.0025065
1.0020179
1.0011406
1.0015281
1.0018217
1.0028276
1.0033245
1.0026271
1.0014458
1.001087
1.0005462
1.0001221
1.000812
0.99990441
1.0006135
1.0000638
0.9995629
1.000693
1.0034552
1.0076983
1.0088938
1.0100043
1.0094988
1.0076192
1.0060012
0.99936585
0.99317264
0.99338592
0.99808128
1.0039823
1.0042558
0.99815796
0.99751315
1.0018697
1.0045237
0.99930303
0.99200058
0.99180523
0.99683342
1.0023929
1.005636
1.0019563
0.9903212
0.97903716
0.97566129
0.9779429
0.97934026
0.97815685
0.97542197
0.97300817
0.97015227
1.0030531
1.0023307
1.0031698
1.0035231
1.0024153
1.0018683
1.0012883
1.0012647
1.001546
1.0030861
1.0036134
1.0026069
1.0013715
1.0015603
1.0011185
1.0006135
1.0004813
0.99980775
1.0000443
0.99981911
0.99999253
1.0008555
1.003401
1.0073876
1.0091778
1.0107837
1.0095609
1.0074253
1.0058355
0.99896065
0.99320112
0.99380256
0.99828153
1.0041429
1.0037108
0.99784288
0.99778448
1.0022521
1.0043663
0.99838546
0.99093392
0.99057405
0.99627644
1.0034514
1.0068327
1.003109
0.99133864
0.97965968
0.97492356
0.9755423
0.97954958
0.98398724
0.98763496
0.98899075
0.9863138
1.0030418
1.0023503
1.0032492
1.0035914
1.0027038
1.0015582
1.0010947
1.0007554
1.0014104
1.0031125
1.003672
1.0025356
1.0015543
1.0016718
1.0013155
1.0013122
1.000657
1.0002122
0.9998117
0.99935017
1.0001602
1.0009356
1.003274
1.006793
1.009122
1.0114526
1.0100173
1.0073229
1.0050058
0.99837212
0.99340084
0.99417235
0.99840156
1.0040804
1.0026425
0.99717954
0.99765255
1.0022641
1.003795
0.99765549
0.99054015
0.98988513
0.99476592
1.0022242
1.0072908
1.0041467
0.99362215
0.98318792
0.97715263
0.97561069
0.97865001
0.98519784
0.99295402
0.99868859
0.99854061
1.0030185
1.0023602
1.0033142
1.0038955
1.0032376
1.0014049
1.0008194
1.0003516
1.0015012
1.0029949
1.0035755
1.0024026
1.0016922
1.0014502
1.0010494
1.001667
1.0009824
1.000782
1.0000219
0.99889088
1.0000024
1.0008628
1.0031913
1.0060447
1.0088219
1.0118996
1.0107024
1.0076243
1.0042488
0.99762464
0.99345505
0.99456003
0.99874677
1.0037212
1.0015532
0.99648095
0.99734098
1.0021109
1.003102
0.99731343
0.99054289
0.98977879
0.99341163
0.99999564
1.0061982
1.0039348
0.99532925
0.98639002
0.9803146
0.97756062
0.97864068
0.98400989
0.99245137
0.99975014
1.0014953
1.0029833
1.0022739
1.0031824
1.0040454
1.00357
1.0013783
1.0005418
1.000118
1.00154
1.0027086
1.0033318
1.0024234
1.0017025
1.0010304
1.0005111
1.0014903
1.001098
1.0011054
1.0003928
0.99877585
0.99953144
1.0003842
1.0029824
1.0055341
1.0086762
1.0123123
1.0113617
1.0082511
1.0038946
0.99692347
0.99327447
0.99482562
0.99945493
1.00365
1.0010916
0.99608189
0.99742179
1.0022194
1.0027434
0.99673271
0.99014752
0.99012399
0.99331317
0.99856121
1.0037323
1.0009914
0.99433663
0.98873221
0.98405548
0.98018814
0.97929315
0.98266744
0.98857916
0.99421392
0.99639994
1.0028927
1.0022534
1.0030165
1.0040287
1.0036054
1.0013815
1.0002606
1.000069
1.0015497
1.0025631
1.0030956
1.0022666
1.0016121
1.0006455
0.99999616
1.0009193
1.0009462
1.0009544
1.0006746
0.99888176
0.99901952
0.99975565
1.0026834
1.0053886
1.0089349
1.0128106
1.0120955
1.009123
1.0041594
0.99675384
0.99304152
0.99501303
1.000332
1.0041007
1.0011403
0.99612356
0.99810308
1.002831
1.0027859
0.99622671
0.98999638
0.99058561
0.99377853
0.9978326
1.0003581
0.99694391
0.99224925
0.98963875
0.986585
0.98343484
0.98149396
0.98239822
0.98482044
0.98701512
0.98759965
1.0028424
1.0022746
1.002979
1.0039667
1.0033401
1.0013661
1.0001491
1.0002923
1.0015086
1.0024724
1.0028668
1.0021463
1.0014263
1.0002467
0.9996738
1.0003863
1.0007972
1.0005449
1.0006653
0.99908627
0.99865571
0.9992663
1.0022641
1.005359
1.0093246
1.0132995
1.012712
1.0098186
1.0046433
0.99683515
0.99287232
0.99506236
1.0010081
1.0048292
1.0014617
0.99678978
0.99915079
1.0034988
1.003183
0.99588257
0.98990009
0.99088392
0.99412439
0.99789623
0.99797278
0.99345816
0.98925596
0.98864195
0.98754641
0.98554926
0.98502471
0.98500128
0.98406999
0.98164784
0.97904227
1.002918
1.0023225
1.0030624
1.0039771
1.00302
1.0015073
1.0002921
1.0006178
1.0014108
1.0023336
1.0026768
1.0021274
1.0013563
0.99999586
0.99973675
1.0001164
1.0006646
1.0002523
1.0005631
0.99932838
0.99859437
0.99898862
1.0017648
1.0052323
1.0096454
1.0136924
1.01315
1.0101472
1.0047669
0.99693541
0.99284558
0.99499107
1.0011485
1.0053376
1.0018311
0.99780792
1.000166
1.0042287
1.0032367
0.9956454
0.98999909
0.99104202
0.99455106
0.99847549
0.99707532
0.99127646
0.98676237
0.98651474
0.9874051
0.98762967
0.98831496
0.98903169
0.98610991
0.98001235
0.97378287
1.0030294
1.0024165
1.0031717
1.0039569
1.0028102
1.0017501
1.0005932
1.0008725
1.001268
1.002288
1.0025462
1.0022556
1.0014181
1.0000243
1.0002363
1.0002814
1.0007564
1.0002555
1.0004192
0.9995534
0.99876298
0.99899863
1.0013332
1.004956
1.0098061
1.0139526
1.0135763
1.0103844
1.0045788
0.99701134
0.9928622
0.99462109
1.0007477
1.0053206
1.0019112
0.99837536
1.0008648
1.0047496
1.0032809
0.99560448
0.99048948
0.9912819
0.99504472
0.99937232
0.99772104
0.99107225
0.98571101
0.98472143
0.98620012
0.98877371
0.99213002
0.99362269
0.9901219
0.9819318
0.972508
1.0031421
1.0025156
1.0033447
1.003907
1.0026868
1.0019398
1.0008639
1.0008563
1.0011991
1.002314
1.002504
1.0024898
1.0016794
1.0003099
1.0008915
1.0007326
1.0009298
1.0004916
1.000403
0.99975576
0.99900741
0.99913916
1.0009581
1.0044856
1.009706
1.0141374
1.0141008
1.0107763
1.00443
0.9970973
0.99294063
0.99435763
1.0002008
1.0047788
1.0015785
0.99846912
1.001178
1.0048218
1.0033032
0.99576441
0.99123914
0.99189177
0.99562009
1.000221
0.99893476
0.99215414
0.98655555
0.98426909
0.98526246
0.98932859
0.99499663
0.99799043
0.99538294
0.98686791
0.97592955
1.0032475
1.0025823
1.0035126
1.0038747
1.0026497
1.0019556
1.000939
1.0006338
1.0010746
1.0023718
1.0025572
1.0026915
1.001889
1.0005647
1.0014004
1.0011451
1.0010975
1.0007709
1.0004701
0.99983147
0.99924359
0.99940166
1.0006518
1.0039505
1.009336
1.0141724
1.0147609
1.0114259
1.0043979
0.99723821
0.99329148
0.99435337
0.99970158
1.0039135
1.0010532
0.99840492
1.0013538
1.0045491
1.0029896
0.99607427
0.99230212
0.99302168
0.99646515
1.0009737
1.0001214
0.99422808
0.98871351
0.98566174
0.98538177
0.98967644
0.99614563
1.0007975
1.0000459
0.99330104
0.98285944
1.0033172
1.0026233
1.0036056
1.0038457
1.002716
1.0018174
1.0007834
1.000258
1.0009203
1.0023196
1.002532
1.0027226
1.0019182
1.0005853
1.0015343
1.0013682
1.0011401
1.0010181
1.0006039
0.99983757
0.99943382
0.9996268
1.0004621
1.0033901
1.0087872
1.0139943
1.0154338
1.0122491
1.0045809
0.99739221
0.9937641
0.99462478
0.99926044
1.0030287
1.0006587
0.99830279
1.0013219
1.0040172
1.0022728
0.99633589
0.99361711
0.99437787
0.99754536
1.001542
1.0007658
0.99648238
0.99183341
0.98830552
0.98666092
0.99031282
0.99615384
1.0018608
1.003062
0.99894168
0.99068546
1.0033395
1.0026392
1.0036548
1.0038413
1.0028233
1.0016359
1.0005542
0.99989836
1.0007646
1.0022259
1.0024805
1.0026249
1.0017697
1.0004617
1.0013747
1.0013589
1.0011173
1.0011877
1.0007542
0.99982284
0.99958709
0.99982099
1.0003311
1.0029043
1.0081286
1.0136611
1.0160433
1.0132248
1.0050598
0.99771616
0.99430416
0.99507594
0.99902049
1.0020909
1.0002225
0.99852087
1.0014657
1.0033886
1.0015177
0.99650542
0.99469127
0.99562676
0.99883206
1.00192
1.0007266
0.99774652
0.99454502
0.99119698
0.98882547
0.99120599
0.99564198
1.0012684
1.0037902
1.0022775
0.99731021
1.0033231
1.002661
1.003661
1.0038532
1.0029574
1.00149
1.0003498
0.99966587
1.0006914
1.0021439
1.0024705
1.0025011
1.0016242
1.0003036
1.0011025
1.0012531
1.0010213
1.0012896
1.0009394
0.99984995
0.99962484
0.9999207
1.0003284
1.0025763
1.0074881
1.0133017
1.0165703
1.0141862
1.0057495
0.99816149
0.99480204
0.995649
0.99892053
1.0012459
0.99968745
0.99895666
1.0019663
1.0032538
1.0006154
0.99645068
0.99531686
0.99673541
1.0000554
1.0021508
1.0000244
0.9974995
0.99588562
0.9934264
0.99135417
0.99235191
0.99538163
0.99952293
1.0018818
1.0020636
1.0000335
1.0032912
1.0026398
1.0036008
1.0038758
1.0031076
1.0014664
1.0002566
0.99956769
1.0006836
1.0020519
1.0024965
1.0023703
1.0014851
1.0002525
1.0007749
1.0011057
1.0009757
1.0013412
1.0011005
0.99993341
0.99961125
0.99989902
1.0003893
1.0024637
1.0069901
1.0129896
1.0170863
1.015095
1.0065165
0.9986261
0.99515303
0.99609898
0.99885863
1.0005808
0.99917414
0.99959961
1.0026802
1.0035637
0.99982391
0.99599394
0.99565081
0.99751423
1.000901
1.0024385
0.99885956
0.99575215
0.99540748
0.99442264
0.99323555
0.99351478
0.99538585
0.99768683
0.99850553
0.99859361
0.99872549
1.003235
1.0026062
1.0035103
1.0039131
1.0032367
1.001503
1.0002216
0.99963781
1.0007119
1.0019434
1.0025227
1.0022574
1.0013424
1.0002883
1.0004756
1.0009407
1.0009495
1.0013447
1.0012446
1.0000484
0.9995657
0.999755
1.0004007
1.0024389
1.0066035
1.0127102
1.0175245
1.0159685
1.0073382
0.99910996
0.99539455
0.99639423
0.99877435
0.99986837
0.99873816
1.0003061
1.0035276
1.0042195
0.99941956
0.99528288
0.99543383
0.99800269
1.0013849
1.0023082
0.99758368
0.99329809
0.99318591
0.99366516
0.99410886
0.99423465
0.99538417
0.99599089
0.99487502
0.99394868
0.99471671
1.0031447
1.0025679
1.0034049
1.0039527
1.0033186
1.0015465
1.000192
0.999761
1.0007111
1.0018045
1.0025216
1.0021184
1.0011908
1.000361
1.0002035
1.0006884
1.0008692
1.0012191
1.0012657
1.0001051
0.99941618
0.99944807
1.0002412
1.0022912
1.0061718
1.01233
1.0177725
1.0166825
1.0081077
0.99942304
0.99541898
0.99645618
0.99872725
0.99931294
0.99812342
1.0005893
1.004406
1.0050521
0.99932716
0.99446246
0.99482005
0.99790334
1.0016652
1.0020356
0.99656246
0.99099577
0.99007674
0.99101475
0.99313325
0.99418475
0.99530263
0.99453853
0.9920365
0.98980867
0.98974782
1.0030274
1.0025345
1.0032881
1.0039466
1.0033499
1.001546
1.0001463
0.99989681
1.0006264
1.0015644
1.0023892
1.0018872
1.0009643
1.0003941
0.99991152
1.000329
1.0006701
1.0008977
1.0011097
1.0000373
0.99915942
0.99895962
0.99981727
1.0019153
1.0055332
1.0117336
1.017711
1.0170172
1.0086146
0.99952072
0.99501931
0.99621822
0.99852593
0.99871073
0.99742035
1.00039
1.0049212
1.0060251
0.99988741
0.99360945
0.99386452
0.99725706
1.0018462
1.0018592
0.99622146
0.98942518
0.98717001
0.98760211
0.99063103
0.99314783
0.9947616
0.99352981
0.99009739
0.98681963
0.98565028
1.0028992
1.0025007
1.0031554
1.0038931
1.003308
1.001439
0.99998173
0.99992992
1.0004323
1.0011716
1.0020913
1.0015082
1.0005542
1.0002714
0.99951764
0.99981952
1.0003237
1.0004036
1.0007629
0.99983069
0.99880847
0.99834634
0.99919119
1.0012642
1.0047314
1.0109198
1.0174975
1.0172469
1.0090821
0.99964534
0.99464976
0.99570756
0.99825247
0.99800079
0.99644139
0.99965921
1.005158
1.006866
1.0008886
0.9931407
0.9928633
0.9965976
1.0018402
1.0019533
0.99642387
0.9887894
0.98498846
0.98467243
0.98755561
0.99133971
0.99371596
0.99259096
0.9889345
0.98489761
0.98294299
1.0027744
1.0024297
1.0029829
1.0037605
1.0031181
1.0011973
0.99968749
0.99974242
1.0000749
1.0006457
1.0016607
1.0010308
1.0000374
0.99989358
0.99901916
0.99923476
0.99983338
0.99981441
1.0002957
0.9995615
0.99850204
0.99784992
0.99858497
1.0005641
1.0037923
1.0099009
1.0167044
1.0172229
1.0094743
0.99975679
0.99463879
0.99542878
0.99823103
0.9975864
0.99560321
0.99827265
1.0048318
1.0071799
1.0018596
0.99319872
0.99165848
0.99578407
1.0017356
1.002571
0.99709782
0.98912099
0.98395391
0.98277357
0.9851878
0.98957582
0.99254973
0.99184549
0.98818403
0.98428229
0.98210121
1.0025497
1.0022415
1.0026575
1.0034048
1.0027032
1.0007798
0.99923082
0.99938418
0.99964241
1.000151
1.0012564
1.0006737
0.99960516
0.99946098
0.9985596
0.9987154
0.99939093
0.99930676
0.99984827
0.99927554
0.99831197
0.99762917
0.99823741
1.000027
1.0030697
1.0092243
1.0166513
1.0171427
1.0099509
0.99983974
0.99414106
0.99497154
0.99828976
0.99770617
0.99541267
0.99707447
1.0043859
1.0080386
1.0028563
0.99398826
0.99057092
0.99538016
1.0021548
1.0043907
0.99878845
0.99133155
0.98503498
0.98303047
0.98579487
0.99037369
0.99397202
0.99368992
0.99001385
0.98607179
0.98360391
1.001986
1.0018257
1.0021131
1.0028188
1.0021012
1.000303
0.9988002
0.99899281
0.99929313
0.99979862
1.0010195
1.000509
0.9994126
0.99922665
0.99828156
0.99840268
0.99912376
0.99904174
0.99958537
0.99911551
0.99830914
0.99775715
0.99827408
0.99975342
1.0024308
1.0082331
1.0159175
1.0172072
1.0108984
1.0011226
0.99476278
0.99485768
0.99843495
0.99821547
0.99618806
0.99657825
1.0035843
1.0081523
1.0042127
0.99621345
0.99093258
0.9946804
1.0015701
1.0054361
1.0009827
0.99418353
0.98753335
0.98528236
0.98712561
0.99190793
0.99553848
0.99601854
0.99281586
0.98815389
0.98516288
0.98566193
0.98429475
0.98237108
0.98417469
0.98794391
0.99258846
0.99652374
0.99807833
0.99612404
0.99020143
0.98156952
0.97326959
0.96734793
0.965442
0.96783251
0.97458116
0.9835937
0.99125697
0.99389414
0.99008679
0.98159661
0.97258506
0.96434255
0.96151633
0.96590964
0.97379922
0.96645393
0.99247001
0.99100354
0.98871314
0.99086541
0.99411499
0.99718512
0.998734
0.99746014
0.99334534
0.986333
0.97858296
0.97142795
0.96693267
0.9654195
0.9668852
0.97137076
0.97688756
0.97952026
0.97605255
0.97004892
0.96694153
0.96908743
0.9743231
0.97842526
0.9773706
0.96703282
0.95434522
1.0018807
0.99917243
0.99618434
0.99756291
0.99932676
1.000096
0.99921337
0.99671778
0.99289543
0.98803348
0.98248028
0.97710739
0.97329321
0.97139927
0.97194579
0.97371859
0.9744881
0.97111581
0.9627282
0.95337934
0.95098611
0.95892938
0.97453366
0.98686235
0.9821172
0.96337218
0.95590813
1.004541
1.0005764
0.99735544
0.99818042
0.99891225
0.9987856
0.9981716
0.9975563
0.99663795
0.99444759
0.99080828
0.98664467
0.98304084
0.98032892
0.9791376
0.97782246
0.97453104
0.9680765
0.95886462
0.94925474
0.94584063
0.95247816
0.9656459
0.97576413
0.96921477
0.96036904
0.96225572
0.9973024
0.99379368
0.99055418
0.9896132
0.98907723
0.98971301
0.99169847
0.99441173
0.99735455
0.99911807
0.99844098
0.99556977
0.99132252
0.98704756
0.98311165
0.97906028
0.97423889
0.96858102
0.96241814
0.95569191
0.95203453
0.9545635
0.95779592
0.95471352
0.94578889
0.94899419
0.96258944
0.98813907
0.98395366
0.97994008
0.97765528
0.97767197
0.97973202
0.9833645
0.98813193
0.99294677
0.99618898
0.99600834
0.99252788
0.98646596
0.98014134
0.97545917
0.97202764
0.97045943
0.97003754
0.96953075
0.96824953
0.96465757
0.96119095
0.95343164
0.93945414
0.92871643
0.93394076
0.95404068
0.97945131
0.97629772
0.97260338
0.97136827
0.97325677
0.9771774
0.98272834
0.98843365
0.99247156
0.99248932
0.98749656
0.97867459
0.96786366
0.95862111
0.9543223
0.9552622
0.95986596
0.9667029
0.97479741
0.98057943
0.97855692
0.96839705
0.95213449
0.93431531
0.92221297
0.92678276
0.94942665
0.97811299
0.9755492
0.97255049
0.9731235
0.9766052
0.98205236
0.98824274
0.99301241
0.99422161
0.99010091
0.98041739
0.96682248
0.95209425
0.94074896
0.93615429
0.93837329
0.94625291
0.9578434
0.97105667
0.98113064
0.98106742
0.96981977
0.95376203
0.93736724
0.92518367
0.92989002
0.9553877
0.98453036
0.98331979
0.98027867
0.98154093
0.98504435
0.98929078
0.99281975
0.99418743
0.99211788
0.98541193
0.9746013
0.96051031
0.94644213
0.93552697
0.93231349
0.93537905
0.94313326
0.95317822
0.96108543
0.96535685
0.9634561
0.95719038
0.95022258
0.9439638
0.93514335
0.94367061
0.9609323
0.99518694
0.99374853
0.99013224
0.99031031
0.99177833
0.99352592
0.99450805
0.99350665
0.98950996
0.98114429
0.96936965
0.95687577
0.94545618
0.93820956
0.93744896
0.94272125
0.95102113
0.95708391
0.95559786
0.94718893
0.93795762
0.93427143
0.93662371
0.94372438
0.94928724
0.96099646
0.95800418
0.99985763
0.99778259
0.99280611
0.99188456
0.99170291
0.99181445
0.99144786
0.9897744
0.98551627
0.97762686
0.96724148
0.95615091
0.94717775
0.9420287
0.94375809
0.95050282
0.95705114
0.95977967
0.95364507
0.93846038
0.92326966
0.91694329
0.91994741
0.93425131
0.95605217
0.9675704
0.95173096
0.99702411
0.99336825
0.98820618
0.98515379
0.98358554
0.98297943
0.98284956
0.98204173
0.97917908
0.97302839
0.9646365
0.95589547
0.94928336
0.94626001
0.94743547
0.951308
0.9548951
0.95399976
0.94701472
0.93419048
0.92098031
0.91338302
0.91545882
0.92860874
0.9475705
0.95319159
0.93908179
0.98870087
0.98407904
0.97790954
0.97413603
0.97260025
0.97242805
0.9730082
0.97343523
0.97266079
0.96949072
0.96417391
0.95717027
0.95026456
0.94473205
0.94365559
0.9454189
0.94576016
0.94281936
0.93657677
0.92803101
0.91935926
0.91666811
0.92307204
0.93466871
0.93769824
0.92387543
0.92201859
0.97626756
0.97113523
0.96505036
0.96163221
0.96102491
0.96238693
0.964887
0.96769644
0.9699319
0.96989658
0.96638915
0.95915251
0.94974628
0.94054665
0.93521919
0.93267909
0.93150037
0.93024328
0.92733401
0.92214902
0.91578605
0.91893642
0.93209881
0.94289959
0.93353394
0.90215289
0.90305384
0.96116999
0.95676934
0.95189803
0.95006387
0.95124079
0.95440939
0.95922451
0.96464791
0.96927193
0.97071088
0.96679348
0.95706207
0.94405567
0.93159989
0.92326528
0.91910383
0.91808123
0.91904596
0.91981177
0.91813676
0.91644952
0.92152069
0.93424874
0.94140096
0.92911203
0.89829112
0.89159938
0.9489217
0.94565235
0.94211527
0.9415557
0.94418327
0.94916432
0.9562023
0.96384618
0.96913855
0.96868248
0.96136248
0.94728662
0.93028157
0.91382955
0.9039073
0.90201869
0.90579156
0.91096341
0.91502264
0.91837101
0.92151975
0.92552976
0.92963174
0.92687571
0.91853387
0.90242499
0.89050998
0.94468617
0.94261566
0.94052834
0.94094865
0.94456512
0.95004136
0.95656748
0.96219879
0.96404867
0.95937973
0.94717412
0.92844863
0.9073922
0.88977921
0.88051783
0.88123478
0.88823356
0.89970954
0.91242352
0.9231789
0.92727318
0.92540669
0.91856218
0.90788445
0.90516512
0.90237746
0.89365858
0.95083459
0.95001229
0.94764588
0.94795587
0.95094405
0.95448287
0.95770345
0.95844732
0.95425388
0.94276219
0.92441917
0.90185555
0.87984713
0.86394291
0.85751106
0.86064966
0.87117688
0.88803278
0.90794424
0.92390191
0.92703995
0.91642434
0.90275185
0.89348158
0.89554549
0.89689902
0.89293356
0.9650865
0.96380963
0.95964221
0.95707232
0.95619091
0.955943
0.95473034
0.95011592
0.93964488
0.92289702
0.9014957
0.8782762
0.85693022
0.84272772
0.83849383
0.84460997
0.85886657
0.87926427
0.89903308
0.91122992
0.91111798
0.89964983
0.8874649
0.88464253
0.88802179
0.88987625
0.88871432
0.97653069
0.97423312
0.96764354
0.96270404
0.95914689
0.9553665
0.95007178
0.94115604
0.92729109
0.90855998
0.88607366
0.86273618
0.84282341
0.83038731
0.82888836
0.83679499
0.85178064
0.86870547
0.88094337
0.88568123
0.88243433
0.87686748
0.87470439
0.87759655
0.88055436
0.88303241
0.88366409
0.97043964
0.96692398
0.96080546
0.95677396
0.95407405
0.9512289
0.94661541
0.9382946
0.92490595
0.90656111
0.88445802
0.86153674
0.84102479
0.82809225
0.8255701
0.83231985
0.84257871
0.85222215
0.85708757
0.85646195
0.85417278
0.85559407
0.86078645
0.86743787
0.87266312
0.87662701
0.8794529
0.94968189
0.9453811
0.94035155
0.93727404
0.93652903
0.93688624
0.9363472
0.9328428
0.92478902
0.91161562
0.8938063
0.87236629
0.85034205
0.83260432
0.82347036
0.82191966
0.82455721
0.82916388
0.83329245
0.83463249
0.83531916
0.83850371
0.8445659
0.85376338
0.86498734
0.87280725
0.87641718
0.92757814
0.92193159
0.91736237
0.91474052
0.91465662
0.9158669
0.9173645
0.91784223
0.91563214
0.90883475
0.89613892
0.87704461
0.85332176
0.8300875
0.81342662
0.80417016
0.80137479
0.80527514
0.81232072
0.81820084
0.8222864
0.82468959
0.82931385
0.84069062
0.85768994
0.87170122
0.87403735
0.91272569
0.90639711
0.90063279
0.89676865
0.89579572
0.89714146
0.89939876
0.90071824
0.89884524
0.89180513
0.87822469
0.85774976
0.83238443
0.80781299
0.79000763
0.78047851
0.77899847
0.78510389
0.79467006
0.80352471
0.8099772
0.81291239
0.81766609
0.83004783
0.85093457
0.86972636
0.87049554
0.9025013
0.89590416
0.88949061
0.88517625
0.88407744
0.88536693
0.88694399
0.88583638
0.87905051
0.86489182
0.84343364
0.81701231
0.79051792
0.77004454
0.75841244
0.75450437
0.75849509
0.76836625
0.78036117
0.79088539
0.79807963
0.80220001
0.80846334
0.8220162
0.84416096
0.86394298
0.8642849
0.89191284
0.88444273
0.87801475
0.87515499
0.87576448
0.87728349
0.87633274
0.86945783
0.85439035
0.83130633
0.80262651
0.7729369
0.74821344
0.73344573
0.72901012
0.7326384
0.74286876
0.75670258
0.7706371
0.78165803
0.7891469
0.79351426
0.79959628
0.81394197
0.83472608
0.85315995
0.85362119
0.87529022
0.86826459
0.86414003
0.86456082
0.8671018
0.86803602
0.86308323
0.84941872
0.82687548
0.79765529
0.76610147
0.73739446
0.71647
0.70735644
0.7089054
0.71854855
0.73437119
0.75185919
0.76722938
0.77770548
0.78350656
0.78725471
0.79154214
0.80294535
0.82143972
0.83789697
0.83973662
0.86113855
0.85738313
0.85632481
0.85806639
0.85964504
0.85657351
0.84541085
0.82543481
0.79832254
0.76743151
0.73695982
0.71084484
0.69415154
0.68914985
0.69565607
0.71146883
0.73278745
0.75389754
0.76916763
0.77706087
0.77999988
0.78171296
0.78551836
0.79356006
0.80723308
0.8195739
0.82283667
0.85724558
0.85528359
0.85441425
0.85434523
0.85115802
0.840653
0.82199085
0.79661195
0.7671113
0.73694258
0.70953445
0.68801746
0.6758761
0.67568667
0.68653006
0.70716853
0.73255327
0.75587972
0.77112594
0.77665805
0.77722104
0.77787369
0.78172422
0.78866407
0.79591321
0.80082258
0.80239186
0.85631703
0.85282802
0.84946706
0.84524772
0.83440165
0.81555435
0.79083182
0.76279175
0.73383762
0.70672563
0.68404207
0.66822351
0.6608325
0.66281841
0.67533315
0.69779699
0.72501587
0.75151952
0.77002398
0.77711678
0.77670625
0.77620137
0.77889626
0.78425344
0.78752251
0.78499182
0.78148953
0.84989074
0.84141394
0.8329019
0.82227595
0.80466018
0.78143955
0.75513477
0.72811341
0.70221869
0.67927083
0.66179436
0.65116986
0.64784433
0.65175164
0.66242588
0.68084821
0.70776372
0.73707157
0.76238427
0.77689497
0.77888404
0.77577297
0.77469121
0.77751418
0.77992121
0.7742669
0.76637022
0.83205548
0.81784437
0.80339053
0.78747678
0.76740603
0.74425721
0.71957254
0.69527324
0.67323615
0.6552322
0.64269524
0.63659301
0.63651052
0.64354501
0.65346513
0.66526021
0.68677777
0.71508972
0.74632893
0.7697999
0.77850841
0.77477773
0.76899794
0.76935412
0.77166793
0.76739761
0.75987018
0.80154788
0.78534301
0.76790508
0.7503964
0.73090827
0.70975354
0.68804255
0.66733283
0.64927643
0.63549525
0.62686817
0.62412306
0.62747787
0.63721879
0.64868162
0.65789281
0.67060802
0.69304141
0.72338576
0.75309077
0.77017796
0.77083321
0.76346086
0.76125359
0.76334088
0.76327345
0.75873405
0.76266979
0.74913888
0.7333109
0.71752419
0.70050212
0.68249743
0.66429671
0.64702122
0.63214122
0.62102764
0.61485618
0.61431612
0.62057788
0.63181761
0.64389015
0.65262417
0.65931934
0.67552687
0.6999806
0.73029778
0.75431361
0.7617431
0.75724492
0.75317813
0.7557281
0.75847361
0.7557972
0.7250956
0.71594883
0.70365357
0.69085173
0.67701843
0.66229632
0.64720108
0.63262374
0.61976962
0.61041506
0.60632746
0.60729813
0.61495549
0.62608903
0.63728557
0.64654296
0.65142538
0.66167255
0.68189432
0.70870292
0.73533725
0.74834391
0.74768205
0.743253
0.74507109
0.74947
0.7480127
0.69657877
0.69191077
0.68288939
0.67216085
0.65991809
0.646726
0.63345019
0.62074766
0.60960651
0.60163167
0.5983588
0.60088037
0.60877311
0.61939441
0.62992654
0.63896377
0.64356465
0.6520532
0.6681175
0.69194142
0.71773632
0.73237904
0.73281675
0.72781092
0.72851102
0.73332917
0.73279519
0.67656513
0.67596629
0.669629
0.65968683
0.6477922
0.63466337
0.62146234
0.60919421
0.59893517
0.59240975
0.59039266
0.59401115
0.60165326
0.61138718
0.62125997
0.62986288
0.63564606
0.64388662
0.65868594
0.67940482
0.70187909
0.71454039
0.71359988
0.70695171
0.70594089
0.71067662
0.71223103
0.66052602
0.66301584
0.65937393
0.65002502
0.63816541
0.62469691
0.61105874
0.59868299
0.58880446
0.58296761
0.58187904
0.58595967
0.59342518
0.60199468
0.61084082
0.61935033
0.62678862
0.63604018
0.65052534
0.66973797
0.68768375
0.6964917
0.69295089
0.68524304
0.6826121
0.68530301
0.68819659
0.64671867
0.65067499
0.64779373
0.638145
0.62586228
0.61212585
0.59846627
0.58648969
0.5775711
0.57277884
0.5725439
0.57670369
0.58315641
0.59023642
0.59762184
0.60571683
0.61433691
0.62589107
0.64379839
0.66361361
0.67837606
0.68197724
0.67404684
0.66544076
0.662564
0.66388926
0.66698512
0.62926776
0.63374884
0.62968672
0.61913564
0.60619922
0.59248279
0.57965934
0.56909351
0.56166044
0.55803474
0.55858737
0.56236285
0.56773448
0.57334363
0.57959794
0.58698401
0.59591325
0.61188056
0.63517789
0.65774413
0.67131887
0.66967415
0.65838684
0.64996489
0.64663548
0.64689456
0.64822623
0.60585901
0.61197982
0.60724474
0.59528742
0.58107063
0.56650238
0.55322043
0.54264788
0.53578785
0.53294453
0.53360799
0.53740608
0.54253492
0.54835317
0.5539287
0.56064858
0.57385856
0.59759495
0.62544196
0.64732206
0.65627619
0.6508825
0.64197962
0.63655244
0.63437719
0.6334689
0.63274088
0.57475662
0.58801772
0.58781998
0.57813792
0.56434124
0.54870304
0.5335551
0.52066756
0.51092802
0.50500535
0.50272373
0.50390322
0.50842939
0.51469254
0.52214856
0.53507591
0.55865749
0.58747479
0.61191314
0.62622713
0.62809684
0.6241508
0.62159706
0.62088607
0.62034913
0.61908027
0.61955357
0.54325473
0.56579988
0.57414596
0.57171841
0.56233914
0.54894005
0.53382158
0.51856504
0.5045258
0.49312228
0.48520853
0.48147388
0.48183404
0.48724065
0.50000868
0.52318377
0.55050847
0.57420051
0.58984553
0.59583154
0.5953484
0.59490101
0.59708947
0.60008739
0.60212894
0.60359118
0.6074272
0.5219172
0.54652601
0.56480274
0.56988053
0.56676562
0.55785912
0.54556423
0.53136325
0.51666394
0.50313569
0.49206309
0.48496226
0.4822419
0.4877098
0.50243477
0.52300236
0.54294446
0.55721431
0.56446283
0.56754605
0.56928396
0.57104926
0.57306615
0.57535189
0.57966593
0.58894086
0.60217351
0.5191625
0.53975364
0.56238562
0.57409423
0.5780116
0.57662802
0.57083067
0.56204476
0.5513907
0.53928395
0.52759705
0.51780203
0.5123453
0.5138827
0.5218766
0.53230967
0.54025304
0.54312069
0.54389094
0.54616458
0.55069246
0.5553124
0.55779392
0.55971384
0.56580235
0.58130357
0.60063881
0.52991695
0.54724906
0.57228158
0.59024257
0.60104598
0.60689279
0.60846553
0.60586894
0.59966606
0.58970454
0.57737414
0.56493132
0.55414264
0.54758759
0.54508837
0.54399764
0.54121937
0.53684725
0.53444322
0.53558734
0.539868
0.54533968
0.55012537
0.55612404
0.56742623
0.58646651
0.59998633
0.55197548
0.56813193
0.5968932
0.62072809
0.63631797
0.64406604
0.64536072
0.64131986
0.63191385
0.61864898
0.60341553
0.58797202
0.57424115
0.56336461
0.55468049
0.54684067
0.53985405
0.53492352
0.53379641
0.53583333
0.5398403
0.54403173
0.54904003
0.55798336