/*--------------------------------*- C++ -*----------------------------------*\
| =========                 |                                                 |
| \\      /  F ield         | OpenFOAM: The Open Source CFD Toolbox           |
|  \\    /   O peration     | Version:  2406                                  |
|   \\  /    A nd           | Website:  www.openfoam.com                      |
|    \\/     M anipulation  |                                                 |
\*---------------------------------------------------------------------------*/
FoamFile
{
    version     2.0;
    format      ascii;
    arch        "LSB;label=32;scalar=64";
    class       volVectorField;
    location    "28";
    object      U;
}
// * * * * * * * * * * * * * * * * * * * * * * * * * * * * * * * * * * * * * //

dimensions      [0 1 -1 0 0 0 0];

internalField   nonuniform List<vector> 
62344
(
(0.090987875 -0.00066764141 -9.867573e-22)
(0.085491164 0.0011514754 -5.134191e-22)
(0.089052262 0.0021565042 -1.0689317e-21)
(0.087460511 0.0040851169 5.5519492e-22)
(0.090173887 0.0057122836 0)
(0.094478974 0.0041825137 2.4061705e-21)
(0.097171451 0.0045903377 -2.5042544e-21)
(0.096594354 0.0053926327 1.3003663e-21)
(0.093151244 0.00512019 0)
(0.089177788 0.0078610312 0)
(0.08801334 0.0091773955 5.8586608e-21)
(0.089224067 0.0090834892 -1.2583712e-20)
(0.090189232 0.0068179005 3.9536419e-22)
(0.091409535 0.0080175804 1.358982e-20)
(0.093515337 0.010008512 -6.8800553e-21)
(0.094746822 0.012118936 6.6991877e-21)
(0.094669807 0.010744115 -7.4073288e-21)
(0.095618074 0.0098790573 0)
(0.095869617 0.0086477793 0)
(0.0948464 0.008225021 -5.226622e-22)
(0.09217579 0.0085905472 -2.720608e-22)
(0.086744702 0.0070658511 2.834691e-22)
(0.083321583 0.007777825 5.9013881e-22)
(0.080702503 0.013845669 -1.9689658e-20)
(0.079256163 0.016103434 2.0452625e-20)
(0.075990352 0.017960624 0)
(0.070332203 0.024330578 0)
(0.070172601 0.02503444 -1.7988016e-22)
(0.073672343 0.018154318 -2.3780053e-20)
(0.083215147 0.0088825237 2.5231394e-20)
(0.099046312 -0.004400635 2.5746694e-20)
(0.10411996 -0.013066828 -2.6602885e-20)
(0.093672258 -0.011012258 -2.1604e-22)
(0.077767111 0.00096862292 2.9417283e-20)
(0.069816274 0.010566576 -2.9856459e-20)
(0.080964967 0.0032672491 -2.4581055e-22)
(0.093662221 -0.0105754 -3.2858871e-20)
(0.087392552 -0.0091302037 6.7767374e-20)
(0.066945451 0.0050594645 -7.0804832e-20)
(0.052680619 0.015065456 -1.0303111e-22)
(0.064636492 0.0017884766 1.3700278e-21)
(0.096050501 -0.031172103 7.8407579e-20)
(0.11949275 -0.053715627 -4.0830376e-20)
(0.11849209 -0.052390007 0)
(0.10072698 -0.038965294 -4.4721113e-20)
(0.074124097 -0.021401458 9.230356e-20)
(0.052367014 -0.0015979726 1.3130282e-21)
(0.051048271 0.011690013 -9.9675667e-20)
(0.071066687 0.0092374901 5.2360581e-20)
(0.1007193 -0.0087117284 0)
(0.11991789 -0.031039423 0)
(0.11301102 -0.047283513 5.8313402e-20)
(0.082138687 -0.056237724 -5.9089212e-20)
(0.061733853 -0.068535166 -1.1853582e-22)
(0.087346976 -0.089646647 -6.2321113e-20)
(0.09153488 8.7398349e-05 -5.2107535e-22)
(0.085544885 0.0011632633 5.4180265e-22)
(0.089016821 0.0016594155 1.6929597e-21)
(0.087228888 0.0033490907 -1.7594023e-21)
(0.090080569 0.0056711979 0)
(0.094505706 0.0059057604 2.5403699e-21)
(0.097206089 0.0047734011 -3.3012931e-21)
(0.096711834 0.0042703158 -3.4372174e-21)
(0.093374648 0.0045304949 3.5730085e-21)
(0.088965431 0.0057296255 0)
(0.08783347 0.0062247767 0)
(0.089313646 0.008398337 4.0291639e-22)
(0.090464093 0.0082436349 -4.1919108e-22)
(0.091227507 0.0072771122 6.1055379e-21)
(0.092329913 0.0082027564 -7.2590562e-21)
(0.093545035 0.010514499 0)
(0.09434663 0.011470119 0)
(0.095481135 0.011188822 0)
(0.09608297 0.011062272 8.4809698e-21)
(0.09527178 0.0096690377 2.9161363e-22)
(0.093241298 0.0088513188 3.7216852e-23)
(0.088424104 0.006788033 -2.9085032e-20)
(0.082967095 0.0055346626 1.9608742e-20)
(0.078978683 0.010995157 0)
(0.078614062 0.015003004 2.1684516e-20)
(0.075299691 0.018127425 1.9425279e-22)
(0.069537576 0.022241931 -4.6677964e-20)
(0.071277616 0.020971043 2.4598271e-20)
(0.075695521 0.014748782 -1.9758634e-22)
(0.083646065 0.006398707 -2.6145499e-20)
(0.097205738 -0.0025299141 2.7424902e-20)
(0.10388986 -0.0043312072 2.1920832e-22)
(0.095878754 -0.0014535764 -2.9441763e-20)
(0.080580606 0.0048170084 6.1446731e-20)
(0.071234442 0.0069527894 -3.1759382e-20)
(0.077948355 0.0016002341 2.5817389e-22)
(0.0891587 -0.0023586299 0)
(0.087438266 0.001688028 0)
(0.07395146 0.0073502444 1.4570902e-22)
(0.065702777 0.0019710162 3.8473821e-20)
(0.07606261 -0.017785986 -7.997514e-20)
(0.095543297 -0.036349735 4.2366853e-20)
(0.10846225 -0.038520638 4.2712707e-20)
(0.11152897 -0.030579301 -8.8962139e-20)
(0.10393318 -0.021114417 4.607039e-20)
(0.081202709 -0.0087763361 0)
(0.053977789 0.0025914169 0)
(0.047598181 0.0029675582 0)
(0.069732146 -0.011653584 1.0529049e-22)
(0.10625214 -0.033185241 -1.0873088e-22)
(0.13667812 -0.050255623 0)
(0.1489035 -0.061271367 2.727208e-24)
(0.13498591 -0.070326579 -1.1807547e-22)
(0.10471434 -0.076376302 1.9313281e-22)
(0.086062306 -0.088640155 -6.5413958e-23)
(0.091236956 0.0011261143 5.499557e-22)
(0.085444223 0.0011940959 -5.7168603e-22)
(0.088790208 0.0019944384 -5.952982e-22)
(0.086746794 0.0032627079 6.1973098e-22)
(0.089568048 0.0045710847 -6.4503834e-22)
(0.094584982 0.0060059651 6.7109767e-22)
(0.097421188 0.0045734193 1.3934905e-21)
(0.096749766 0.0039665048 0)
(0.093207964 0.0058002545 2.2700842e-21)
(0.088893438 0.0054518058 -3.5343018e-21)
(0.087245935 0.0055185317 0)
(0.088505794 0.0082682042 -4.2599608e-22)
(0.090342108 0.010933498 -7.6509152e-25)
(0.091521545 0.0095909789 5.5570401e-25)
(0.092162282 0.0088270428 7.6615035e-21)
(0.093093401 0.0081762159 -7.456858e-21)
(0.093949455 0.010610317 0)
(0.095455752 0.010720917 0)
(0.096534695 0.01168702 0)
(0.096282519 0.010833688 0)
(0.094572437 0.0087697093 0)
(0.090304477 0.0074452831 1.0476577e-20)
(0.083446185 0.0061538541 -1.0499883e-20)
(0.077117003 0.0098753775 -3.4394409e-22)
(0.076636937 0.013534688 3.5820808e-22)
(0.074302836 0.019014575 0)
(0.069827421 0.022963185 0)
(0.072573723 0.019854861 2.0091708e-22)
(0.078196337 0.014992009 2.0916431e-22)
(0.086877588 0.0053546405 0)
(0.099013393 -0.0062850686 0)
(0.10391024 -0.0090464507 -2.9970347e-20)
(0.095771565 -0.0027439029 6.1821114e-20)
(0.080442287 0.0072519739 -3.2067818e-20)
(0.071947117 0.011753861 -1.316919e-22)
(0.078866597 0.0036066489 3.4744943e-20)
(0.087745182 -0.0040524893 -3.6498684e-20)
(0.084406967 9.7803932e-05 0)
(0.073692398 0.0076451734 -3.7093565e-25)
(0.068809744 0.0042408462 0)
(0.077857754 -0.011512109 4.1839941e-20)
(0.091423077 -0.024019634 -4.4483426e-20)
(0.097416009 -0.023721845 -4.5540858e-20)
(0.097696169 -0.017053514 4.6760475e-20)
(0.092358872 -0.0052778617 -1.539415e-24)
(0.0776426 0.0098686916 0)
(0.060135805 0.013600536 0)
(0.055308914 -0.00052248855 -1.0721334e-22)
(0.071590198 -0.024051625 -5.6337777e-20)
(0.10024221 -0.043273026 6.0404526e-20)
(0.12749611 -0.053612457 0)
(0.14781008 -0.057983249 6.2332271e-20)
(0.15234034 -0.060783785 -6.3679965e-20)
(0.14068882 -0.062158531 6.8170514e-20)
(0.11857155 -0.067559946 -6.9443813e-20)
(0.091061203 0.00090869921 -2.8995299e-22)
(0.085450837 0.00098376534 -9.0535364e-22)
(0.088743161 0.001989924 1.8850995e-21)
(0.086673298 0.0029278097 -1.3059026e-21)
(0.089385109 0.0027826206 -2.0344348e-21)
(0.094264262 0.004455161 2.1308237e-21)
(0.097497585 0.0046860428 -3.6747196e-21)
(0.09660507 0.0050863459 6.1181678e-21)
(0.093355374 0.0067723428 -3.5821482e-21)
(0.08933855 0.0062551366 8.3026414e-22)
(0.087006434 0.0070326903 4.315516e-22)
(0.087572548 0.0085282024 7.1598122e-21)
(0.089841231 0.010834298 -6.554261e-21)
(0.091654456 0.010484492 8.2504216e-21)
(0.092518448 0.010488718 9.0004497e-24)
(0.092846539 0.008516221 -1.7284911e-20)
(0.093240509 0.010246273 8.4373078e-21)
(0.094826015 0.0093856776 -2.8370852e-22)
(0.096009059 0.010872309 9.4593345e-21)
(0.096756122 0.011211651 -9.5123097e-21)
(0.095535315 0.0091338213 0)
(0.091415865 0.0078971647 0)
(0.084003062 0.0073475725 -1.0850115e-20)
(0.076529138 0.0097149682 1.1898725e-20)
(0.074640196 0.012265111 1.1729777e-20)
(0.072312753 0.018937991 -1.2561455e-20)
(0.069733671 0.022845019 -1.3002841e-20)
(0.073333695 0.019052999 1.3411164e-20)
(0.079828649 0.015495738 0)
(0.089977691 0.0063926427 0)
(0.10084892 -0.0049698247 0)
(0.10291523 -0.0073918066 0)
(0.093420041 -0.00032084114 0)
(0.079122052 0.010269658 0)
(0.074001766 0.013591309 1.3923858e-22)
(0.082688931 0.003976576 -3.6693428e-20)
(0.089129461 -0.003299381 3.8427074e-20)
(0.083552995 0.0013465239 1.5607513e-22)
(0.076001266 0.0072892125 -3.2537392e-22)
(0.076932269 0.0016350899 4.2774607e-20)
(0.085053557 -0.014004686 -4.5152195e-20)
(0.090530313 -0.023050283 4.6081306e-20)
(0.090077808 -0.019902876 -4.8080607e-20)
(0.086428312 -0.011154261 5.0962684e-20)
(0.07856978 0.0038264475 -1.051504e-19)
(0.071522629 0.01572986 -5.8538865e-22)
(0.069229755 0.010638927 1.8239888e-22)
(0.070263732 -0.010599285 7.1333042e-22)
(0.077455591 -0.034121406 1.1641154e-21)
(0.092489968 -0.048239175 1.6756503e-21)
(0.11225626 -0.054041882 6.5498353e-20)
(0.13052144 -0.055010566 0)
(0.14171287 -0.051907297 6.8591947e-20)
(0.14251992 -0.044508853 1.2055199e-21)
(0.13049283 -0.038526794 -7.2100432e-20)
(0.091029892 -3.6413532e-05 6.1246775e-22)
(0.085293553 0.00032629788 6.36625e-22)
(0.08844302 0.001341117 6.6237679e-22)
(0.086609047 0.0025748501 0)
(0.08899393 0.0019938698 0)
(0.093827719 0.00281634 0)
(0.09720584 0.0043559045 -3.878188e-22)
(0.096441541 0.0057497672 3.2303061e-21)
(0.093376256 0.0057977633 -2.9411776e-21)
(0.089387411 0.0066616688 -4.3776144e-22)
(0.086821547 0.0087524576 -3.6452523e-21)
(0.087054267 0.009254821 3.786929e-21)
(0.089402781 0.0092510906 -8.3513973e-21)
(0.091499564 0.009343593 8.2077867e-21)
(0.092723734 0.010852474 0)
(0.092928549 0.0097397131 0)
(0.093250652 0.0097345204 5.7617203e-22)
(0.094794309 0.0075641344 2.9931724e-22)
(0.095473619 0.0081354188 -9.9720539e-21)
(0.097036446 0.0082344517 1.0049691e-20)
(0.096839383 0.0071769407 0)
(0.093026867 0.0059973582 0)
(0.085134563 0.005968263 -3.6690982e-22)
(0.076432259 0.0081943112 0)
(0.073163462 0.011039835 -1.2589076e-20)
(0.070593862 0.017680276 1.3256218e-20)
(0.069601734 0.020981278 0)
(0.073729857 0.017190336 0)
(0.08055211 0.014284864 0)
(0.092331643 0.0063278281 0)
(0.10336082 -0.0041015958 0)
(0.10348075 -0.0068503332 0)
(0.092724285 -0.00080919987 -1.3481585e-22)
(0.078251771 0.0086481899 -1.4153827e-22)
(0.074865411 0.011194775 0)
(0.084787492 0.002496798 -1.5153128e-22)
(0.089111366 -0.0022553308 2.0338923e-20)
(0.081511834 0.003050293 -2.1087949e-20)
(0.075440382 0.0083159902 1.7170102e-22)
(0.08105214 0.0024348474 1.7722346e-22)
(0.090406932 -0.011171339 0)
(0.091203166 -0.018700786 1.9061947e-22)
(0.084067811 -0.014105422 -6.5926224e-25)
(0.075095105 -0.0014088029 5.4198203e-20)
(0.066680343 0.013719369 7.1966217e-22)
(0.06682803 0.018802449 -5.7367051e-20)
(0.077688121 0.0070230701 -1.1717912e-22)
(0.086889838 -0.014653554 0)
(0.086968085 -0.033780434 -1.2328832e-22)
(0.087747113 -0.043837561 -1.283638e-22)
(0.096310315 -0.047264912 6.7955662e-20)
(0.10955512 -0.04416409 -7.1272639e-20)
(0.12148402 -0.037040543 7.0599865e-23)
(0.12580442 -0.024514783 2.0906958e-24)
(0.12139667 -0.013063223 -7.6602077e-23)
(0.091258919 -0.00090179391 0)
(0.085185755 -0.00031375982 0)
(0.088233003 0.00027237419 -6.9841733e-22)
(0.08654617 0.0016586732 0)
(0.089007215 0.0019230673 1.5114348e-21)
(0.093629082 0.0017639898 -1.1833504e-21)
(0.096787024 0.0032186902 4.0928253e-22)
(0.096335032 0.0048792806 0)
(0.093307052 0.0039548727 4.4295283e-22)
(0.088942846 0.0059665772 0)
(0.086480926 0.0086062075 -4.8088615e-22)
(0.087217092 0.0088075407 -3.4864977e-21)
(0.089533127 0.0069058583 8.3112291e-21)
(0.090881068 0.0072516533 -4.3229292e-21)
(0.092224979 0.0088778524 0)
(0.093049465 0.010102123 0)
(0.093536455 0.0094399361 -5.5513807e-25)
(0.094785168 0.0077094323 -3.1622317e-22)
(0.095353868 0.0073253152 0)
(0.097042762 0.0057355803 0)
(0.097212464 0.0057309315 3.5511398e-22)
(0.0939738 0.0053820886 1.1525911e-20)
(0.086004143 0.0057935666 -2.4981498e-20)
(0.076573968 0.0075664652 1.303999e-20)
(0.071641567 0.0099852445 1.329055e-20)
(0.068606622 0.016866747 -1.3984956e-20)
(0.069289747 0.020157019 -1.4498841e-20)
(0.073896172 0.016902622 1.5133031e-20)
(0.080668723 0.013527677 -1.5528777e-20)
(0.09345758 0.0057058394 3.2479789e-20)
(0.10481307 -0.0031552665 -1.7207474e-20)
(0.10396002 -0.0043995593 1.3613008e-22)
(0.092211448 0.0016776118 2.8436579e-22)
(0.077696359 0.010413365 2.9855611e-22)
(0.075902922 0.010540393 0)
(0.086695599 0.0020996316 -2.0283317e-20)
(0.089968363 -0.00084216022 4.2798233e-20)
(0.081080086 0.0050986575 -2.2065472e-20)
(0.07605089 0.0091718702 -1.8107955e-22)
(0.084960757 0.0022653729 -1.8774976e-22)
(0.096646346 -0.010068827 0)
(0.094731076 -0.016156173 -2.6013853e-20)
(0.081636257 -0.011937244 -4.6209985e-22)
(0.067653905 0.00058322317 2.7896485e-20)
(0.059859959 0.012458998 0)
(0.065312182 0.012401436 0)
(0.083073061 -0.00043375303 -3.0799572e-20)
(0.098807652 -0.018198883 3.2858718e-20)
(0.099817262 -0.031261746 2.3533929e-24)
(0.092445537 -0.03926942 7.0333465e-20)
(0.087538477 -0.042719766 -1.4390085e-19)
(0.089490135 -0.038665981 1.4959581e-19)
(0.095145336 -0.029654734 -7.8429633e-20)
(0.098623611 -0.014242917 -7.8210173e-23)
(0.10021231 0.0013627426 8.354563e-23)
(0.091194324 -0.00098625796 3.4080645e-22)
(0.085001134 -0.00052741154 -3.5381123e-22)
(0.088032082 -0.00047004257 -1.474263e-21)
(0.086201503 0.00059681831 1.5334451e-21)
(0.088886677 0.0022451864 1.9923412e-21)
(0.093396086 0.0017681796 -4.1528398e-21)
(0.096438599 0.0020581218 1.2984468e-21)
(0.096459375 0.0028979036 -4.4839296e-22)
(0.093371267 0.002182632 -4.6719874e-22)
(0.088522537 0.0045488387 -3.9022589e-21)
(0.086137974 0.0068119668 4.0507619e-21)
(0.087455496 0.0073198064 0)
(0.089680242 0.0058578942 0)
(0.090500958 0.0066940336 -2.848989e-22)
(0.091601267 0.0063780843 -2.9599499e-22)
(0.092730623 0.008855606 4.9276963e-21)
(0.093781847 0.0085948959 -1.5716217e-20)
(0.095119972 0.0083376274 1.1334145e-20)
(0.096018162 0.0077299592 -1.108585e-20)
(0.097478094 0.0043125298 2.309388e-20)
(0.097449309 0.0037306162 -3.5757564e-22)
(0.094597373 0.003581198 -2.4816337e-20)
(0.087064003 0.004460944 1.3401492e-20)
(0.077292106 0.0056962915 1.3667922e-20)
(0.07076627 0.007395072 -1.416687e-20)
(0.066808367 0.014246167 0)
(0.068593812 0.018029318 -1.5284093e-20)
(0.074130619 0.016133424 1.5943444e-20)
(0.081168391 0.011687779 2.5824972e-22)
(0.094350644 0.0028207749 2.671614e-22)
(0.10530965 -0.0045531695 4.1507117e-22)
(0.10400647 -0.0037491973 -1.4346849e-22)
(0.092047152 0.0028869976 -3.0007686e-22)
(0.078042817 0.010999238 -1.5734699e-22)
(0.077473691 0.0090423699 0)
(0.087845357 0.00070027084 0)
(0.089717224 -0.00015685788 -2.2665633e-20)
(0.080045492 0.0068467825 4.7034237e-20)
(0.075637761 0.010591072 -2.394737e-20)
(0.086606033 0.0033261457 -9.8504555e-23)
(0.1003175 -0.0076926457 0)
(0.098720074 -0.011735201 0)
(0.082318772 -0.008263183 -2.8900115e-20)
(0.06349252 0.0013157208 2.9465313e-20)
(0.054847859 0.010084721 -3.0852018e-20)
(0.063351174 0.0083890851 3.2267518e-20)
(0.084235684 -0.0040253826 1.2928627e-22)
(0.10278819 -0.016621362 -3.4227618e-20)
(0.10785442 -0.024750415 3.5563274e-20)
(0.10055977 -0.029827338 0)
(0.087962006 -0.032940129 -5.7658842e-25)
(0.078044246 -0.029513588 -4.0380357e-20)
(0.072255687 -0.020801739 8.3665952e-20)
(0.072125397 -0.0058611587 -8.6960086e-20)
(0.076248188 0.0059522287 4.5090624e-20)
(0.09145995 -0.00060078538 0)
(0.085036705 -0.00055624922 7.4742129e-22)
(0.088017096 -0.00064979219 5.2930413e-25)
(0.085938089 -0.00028502868 -8.0836128e-22)
(0.088683471 0.0020737534 2.5318918e-25)
(0.093248831 0.0019391662 4.3813864e-22)
(0.096379521 0.0010504048 -9.1041752e-22)
(0.09652959 0.00072596234 2.3656288e-21)
(0.093421515 0.0012078257 0)
(0.088353985 0.0032466508 0)
(0.085934584 0.0047762622 -3.7296462e-21)
(0.087364616 0.0055508533 4.4522319e-21)
(0.089491581 0.0057967087 0)
(0.090608888 0.0075180437 3.0034735e-22)
(0.091361528 0.0051082653 3.1161019e-22)
(0.092022804 0.0073472115 0)
(0.093457582 0.0077004617 -5.4123121e-21)
(0.095131148 0.0087412273 -3.4767575e-22)
(0.096611931 0.0087653209 6.209054e-21)
(0.098079497 0.0049961448 0)
(0.097653223 0.0037464369 1.2688336e-20)
(0.095059099 0.0030911594 -2.6437387e-20)
(0.087945049 0.00432898 1.3486825e-20)
(0.078242895 0.0053483787 -1.4648347e-20)
(0.070248847 0.0063236388 1.514735e-20)
(0.064782248 0.012925239 0)
(0.067164909 0.017230325 0)
(0.074004434 0.016703886 0)
(0.082278164 0.011812445 -2.7308503e-22)
(0.095283031 0.0020188017 -2.8198457e-22)
(0.10515265 -0.0047432492 -1.8777871e-20)
(0.10316857 -0.0029871449 1.9288091e-20)
(0.091266166 0.0043815972 1.5826461e-22)
(0.078287125 0.012147701 0)
(0.079057892 0.0087716484 0)
(0.088822071 0.00051571732 1.7763408e-22)
(0.089112939 0.00060713031 0)
(0.079281605 0.0080834125 -1.9312016e-22)
(0.07575496 0.011132675 -2.5669057e-20)
(0.08804267 0.0038714497 2.6954684e-20)
(0.10287413 -0.0060263156 2.7523892e-20)
(0.10307822 -0.0090843595 -2.8540646e-20)
(0.087361564 -0.0059600313 3.0504764e-20)
(0.065202428 6.0880653e-05 -3.0966638e-20)
(0.052858794 0.005563282 -3.2504099e-20)
(0.060511917 0.0023384657 6.7577101e-22)
(0.08151544 -0.0081555535 6.9907536e-20)
(0.10143218 -0.016615045 -3.6389384e-20)
(0.11049101 -0.02083783 0)
(0.10703652 -0.022188774 -3.8932071e-20)
(0.094590323 -0.022292828 8.0572954e-20)
(0.077289954 -0.018166385 -4.1915646e-20)
(0.061291783 -0.010665189 0)
(0.052711933 0.00035604082 -9.0706674e-23)
(0.056192503 0.0057691617 4.742752e-20)
(0.091735671 -3.9054615e-05 0)
(0.085169071 -0.00047562479 0)
(0.088091277 -0.00045502804 0)
(0.085822986 -0.00048962466 1.2763827e-21)
(0.088412486 0.0015183356 -2.2212611e-21)
(0.093334246 0.0019274243 1.8440559e-21)
(0.096649228 0.00063181704 -2.4017378e-21)
(0.096498717 -0.00039793562 -4.9812908e-22)
(0.093301978 0.0011504907 -5.1919024e-22)
(0.088326681 0.0026916578 -4.8791749e-21)
(0.085824811 0.0036745178 3.9383081e-21)
(0.086969959 0.0044547113 0)
(0.088923903 0.0062694153 4.8727606e-21)
(0.090641867 0.0085868518 -4.2109224e-24)
(0.091574698 0.0057438958 -1.085061e-20)
(0.091640607 0.0064351212 5.4633736e-21)
(0.092854671 0.0067118509 -3.5642383e-22)
(0.094571771 0.0082338773 -3.7125639e-22)
(0.096939314 0.0086242586 2.0778513e-25)
(0.09910106 0.0059201578 2.0030489e-22)
(0.098730439 0.0040488803 2.0864043e-22)
(0.095827113 0.0024650666 2.1736281e-22)
(0.088848613 0.0032862101 0)
(0.079344402 0.004011559 0)
(0.070157919 0.0051267063 -1.6115968e-20)
(0.062998518 0.011230663 1.6631591e-20)
(0.065382204 0.015556014 0)
(0.073518351 0.016082787 0)
(0.083262211 0.011628532 0)
(0.096748802 0.0016726404 1.4823217e-22)
(0.10557223 -0.005045612 0)
(0.10260809 -0.0037994394 2.0567505e-20)
(0.090402458 0.0038072597 -2.1228438e-20)
(0.078555073 0.011660201 1.744888e-22)
(0.080490103 0.0080305947 -2.3099856e-20)
(0.089734847 0.00033898377 2.4020134e-20)
(0.088516026 0.0011004394 0)
(0.07827703 0.0089377449 2.6048263e-20)
(0.07531285 0.01158456 -2.7013767e-20)
(0.087916883 0.0042811427 1.0944712e-22)
(0.10315234 -0.004481108 2.9307242e-20)
(0.10487147 -0.0063721094 -3.0113923e-20)
(0.091851248 -0.0021559607 0)
(0.070165016 0.0031458835 3.3548662e-20)
(0.054651371 0.0056139308 -3.4067676e-20)
(0.059517508 -0.00090213734 2.7811423e-22)
(0.078917943 -0.01217659 0)
(0.098099949 -0.01856875 3.781953e-20)
(0.10893145 -0.019070881 -3.9577359e-20)
(0.10963892 -0.0167516 4.0879636e-20)
(0.10061265 -0.014008287 -4.1980889e-20)
(0.083239482 -0.0080559792 -4.5471511e-20)
(0.062541856 -0.001994429 9.3384895e-20)
(0.048396148 0.0040094943 7.9085491e-22)
(0.048068993 0.0027151717 -2.4919971e-22)
(0.091896014 0.00024561811 -3.9871038e-22)
(0.085312209 -0.00044962742 -4.1520771e-22)
(0.088215575 -0.00021529624 -8.6474463e-22)
(0.08582842 -0.00034723917 -4.8489523e-26)
(0.088321769 0.00062389107 9.370226e-22)
(0.093503663 0.0011951305 1.9429853e-21)
(0.096891858 0.00044646245 -2.0226558e-21)
(0.096556129 -0.00056934158 5.248549e-22)
(0.093079479 0.0015171929 2.7412911e-21)
(0.088208301 0.0026363702 -6.2797154e-21)
(0.085648524 0.0033291492 2.9911882e-22)
(0.086601643 0.0042204723 4.9421908e-21)
(0.088310998 0.0068362396 3.2138991e-22)
(0.090573198 0.0088022188 0)
(0.091859515 0.0071626813 3.4662909e-22)
(0.091592382 0.0066659887 -3.6116047e-22)
(0.092586438 0.0063918135 -3.6979034e-25)
(0.093966975 0.0075240989 7.8212116e-22)
(0.096902905 0.0077234857 -4.0638824e-22)
(0.099717867 0.0068745001 6.5556397e-21)
(0.099566646 0.0050632673 -1.4293711e-20)
(0.096721248 0.0028467339 7.3175963e-21)
(0.089673927 0.0029091297 0)
(0.080180308 0.0034977577 -8.0195556e-21)
(0.070090542 0.0052908185 8.0079457e-21)
(0.061758164 0.011262462 -2.7102282e-22)
(0.063609688 0.014825101 -2.8215084e-22)
(0.072474719 0.015915479 0)
(0.083817193 0.012134992 0)
(0.098037868 0.0028296383 -1.5654663e-22)
(0.10649013 -0.0038984247 0)
(0.10243878 -0.0037757692 0)
(0.089601356 0.0035941811 -2.2792654e-20)
(0.0784989 0.01112143 -2.8577926e-22)
(0.081594858 0.0079603257 4.8864432e-20)
(0.090379717 0.00074918396 -2.5745259e-20)
(0.088001327 0.0020684678 0)
(0.077674041 0.0097692192 1.0728522e-22)
(0.075802762 0.011615713 -1.1154171e-22)
(0.088716905 0.0032953187 -1.1535643e-22)
(0.10333268 -0.005478129 -3.0643982e-20)
(0.10548355 -0.0056627729 3.1725561e-20)
(0.094639196 0.00023464719 0)
(0.075620696 0.0073738211 0)
(0.060382826 0.007253776 -1.4120063e-22)
(0.062959846 -0.0042793227 -1.474955e-22)
(0.077634148 -0.017119215 -3.8525653e-20)
(0.092508435 -0.021781421 4.0797596e-20)
(0.10345117 -0.019652188 4.1578553e-20)
(0.10763023 -0.014776042 -4.3348323e-20)
(0.10281786 -0.008203489 -8.8158736e-23)
(0.08905522 -0.00021624934 4.7722299e-20)
(0.070623743 0.0048767458 -4.8348026e-20)
(0.056047187 0.0066784334 0)
(0.052247523 -0.00056480809 -5.3122203e-20)
(0.091876561 0.00034003169 6.3075458e-22)
(0.08536663 -0.00046651642 -2.1834841e-22)
(0.088262436 -8.7643107e-05 4.5484187e-22)
(0.085850066 -7.2179321e-06 4.7363672e-22)
(0.088229081 -0.00025068632 1.9647049e-21)
(0.093385378 0.00022967129 -3.5915341e-21)
(0.097037901 0.00039385271 2.1314937e-21)
(0.096640985 -0.00010808255 0)
(0.093022864 0.001849764 2.5992792e-21)
(0.088226442 0.0026645663 -2.1011147e-21)
(0.085502988 0.0034544703 -6.2536635e-22)
(0.086103959 0.0043169237 0)
(0.08779027 0.0071242888 -6.7674117e-22)
(0.090575938 0.0078662116 3.5171496e-22)
(0.092166729 0.0081479544 -3.649187e-22)
(0.091796392 0.0073139238 3.6515172e-25)
(0.092556254 0.0063666774 -5.9414462e-21)
(0.093734558 0.0065249331 1.2774866e-20)
(0.096682854 0.0062449892 -6.8625519e-21)
(0.09979409 0.0066918896 0)
(0.10025147 0.0054923607 -2.3116957e-22)
(0.09771372 0.0029925898 0)
(0.090743944 0.0021861616 -2.5151363e-22)
(0.081235326 0.0023119459 0)
(0.070252721 0.0048645201 -1.5538902e-25)
(0.060854322 0.010708291 2.8620427e-22)
(0.061956279 0.013486613 2.9658388e-22)
(0.070994715 0.014681367 9.7677649e-21)
(0.083693633 0.011555107 -2.0206112e-22)
(0.098980615 0.0032678366 -1.0660622e-20)
(0.10769419 -0.0030143267 2.1864439e-20)
(0.10301044 -0.0035120536 -4.5573308e-20)
(0.089280742 0.0029797945 2.3774543e-20)
(0.078428336 0.0096397153 -1.9387182e-22)
(0.082483094 0.0068948856 -2.0076172e-22)
(0.090886292 0.0005496697 2.0786319e-22)
(0.087469505 0.0028333914 0)
(0.077175034 0.010029399 1.1353948e-22)
(0.076079534 0.011233493 1.1765178e-22)
(0.089180638 0.0024723679 0)
(0.10307572 -0.006070232 -2.5243276e-22)
(0.10466098 -0.0051022714 0)
(0.095164239 0.0019193459 1.3650386e-22)
(0.080033753 0.010336448 -3.7016601e-20)
(0.068584274 0.0089297187 3.7874713e-20)
(0.069985972 -0.0045213758 0)
(0.07909147 -0.018225064 -7.9820876e-23)
(0.088288817 -0.022927942 0)
(0.096369627 -0.020430144 4.3991341e-20)
(0.10166701 -0.013943623 -4.5769183e-20)
(0.10008181 -0.0047643485 9.2615404e-23)
(0.091806972 0.0057572934 0)
(0.079304941 0.01106609 -5.0169969e-23)
(0.069082125 0.0097574847 0)
(0.065183897 -0.001405632 5.491442e-23)
(0.091998029 0.00011899394 -2.2167862e-22)
(0.085442135 -0.00046233958 6.9062937e-22)
(0.088275194 -0.00013337578 -4.791467e-22)
(0.085891787 0.00028756732 9.9642178e-22)
(0.088280418 -0.00088110429 -1.5596235e-21)
(0.093237654 -0.00075999614 6.6408786e-25)
(0.096954357 0.00025555619 -2.2415266e-21)
(0.096637619 0.0005693093 2.3315143e-21)
(0.093046983 0.0018869788 2.1322159e-21)
(0.088407922 0.0025801482 -5.3858143e-21)
(0.085381596 0.0035612591 3.2761932e-22)
(0.085641051 0.0044591401 2.7446969e-21)
(0.087401288 0.0071786015 -5.3352773e-21)
(0.09038313 0.0064646415 5.5680957e-21)
(0.092108264 0.0080514626 3.8516333e-22)
(0.092154721 0.0077544096 -6.0057985e-21)
(0.092957227 0.0066593302 6.6604282e-21)
(0.093959537 0.0059260158 0)
(0.096442744 0.004826837 7.4353852e-21)
(0.099421851 0.0059507216 -1.5025621e-20)
(0.10056746 0.0054070441 -3.5344939e-24)
(0.098534585 0.0033088917 7.8464579e-21)
(0.09195903 0.0019845751 9.055527e-21)
(0.082391705 0.001479435 -1.7441352e-20)
(0.070521175 0.004617568 9.469288e-21)
(0.060197186 0.010130739 -1.5060995e-22)
(0.060513973 0.012647533 1.5652877e-22)
(0.069438845 0.013850607 1.0125949e-20)
(0.083086516 0.010858799 -1.1023486e-20)
(0.099221421 0.003308961 1.7363272e-22)
(0.10860868 -0.0018793006 0)
(0.10394507 -0.00225518 1.2110043e-20)
(0.089545684 0.0032702964 2.5204854e-22)
(0.078210927 0.0088824627 -1.2869373e-20)
(0.082694872 0.005919445 3.1750897e-22)
(0.090925945 0.0007893512 -1.4087315e-20)
(0.087055187 0.0037591321 1.4563636e-20)
(0.076688086 0.010226778 -1.1970035e-22)
(0.076277463 0.010419233 1.239208e-22)
(0.089815225 0.0012219184 0)
(0.10283141 -0.0065898281 -3.4073542e-20)
(0.10360234 -0.0048990148 3.5221705e-20)
(0.094684101 0.0022021886 -7.1725532e-23)
(0.082569469 0.010555163 -3.8741952e-20)
(0.075904754 0.0096039426 3.9693092e-20)
(0.078842294 -0.0028198073 8.0368704e-23)
(0.084062139 -0.01628409 8.4343043e-23)
(0.086977133 -0.022404872 4.4554412e-20)
(0.090394749 -0.021049063 -4.6631506e-20)
(0.094066683 -0.014105031 -1.8878202e-22)
(0.093191891 -0.0034709099 0)
(0.089685288 0.0083657442 0)
(0.084025319 0.013896856 1.524923e-25)
(0.081104134 0.011507716 0)
(0.080149199 -0.00010897246 -5.5975966e-23)
(0.092273661 -0.00020875354 -4.6660034e-22)
(0.085593794 -0.00041163085 -4.854293e-22)
(0.088340392 -0.00023890663 2.0200231e-21)
(0.08610892 0.0004520481 -1.0497798e-21)
(0.088404253 -0.0010426194 1.0919029e-21)
(0.093170198 -0.0013053507 -1.7089104e-21)
(0.096826486 2.8055334e-05 -2.3654529e-21)
(0.096622378 0.0010252873 2.4603975e-21)
(0.093193401 0.0014530003 2.5676376e-21)
(0.088511836 0.0023550194 -5.0050105e-21)
(0.085389183 0.003525997 2.4272231e-21)
(0.085347421 0.0043816631 0)
(0.087175973 0.0066687684 3.7487419e-22)
(0.090080564 0.0046327215 0)
(0.09173809 0.0068340342 0)
(0.09237221 0.0073487538 6.5426476e-21)
(0.093146945 0.0065688397 -7.0133544e-21)
(0.094367926 0.0055727119 -2.2855903e-22)
(0.096322252 0.0038439693 -5.3763946e-26)
(0.09906456 0.0046610501 0)
(0.10091215 0.004449462 8.4625175e-21)
(0.099519907 0.0031417701 -7.9995681e-21)
(0.093474495 0.0016346098 -4.7386854e-25)
(0.083663949 0.00043489851 8.9572832e-21)
(0.070779148 0.0036063709 -1.9485372e-20)
(0.059653271 0.0087356561 9.7781555e-21)
(0.059170345 0.011412716 -1.0654381e-20)
(0.067904862 0.01279481 3.3448691e-22)
(0.082335932 0.0094709244 1.1617675e-20)
(0.099006475 0.0022675038 1.1262343e-20)
(0.10906806 -0.0018513526 -1.1969358e-20)
(0.10509091 -0.0014072614 0)
(0.090237095 0.0036564846 -2.0693407e-22)
(0.078576066 0.0080789433 5.6195708e-26)
(0.082920995 0.004802103 -1.1155366e-22)
(0.090725675 0.00041747508 1.4973038e-20)
(0.086574605 0.0038975209 2.1306037e-22)
(0.076297295 0.0096987472 -1.6013907e-20)
(0.076128489 0.0090060981 1.6250459e-20)
(0.089890776 0.00031410347 -3.4693996e-20)
(0.10221488 -0.0062251184 2.6899049e-22)
(0.10231498 -0.0041986368 3.7263048e-20)
(0.093437117 0.0026457592 -1.934035e-20)
(0.082997375 0.010215819 -7.9472313e-23)
(0.080075982 0.010182363 -2.0828261e-20)
(0.085874871 8.130272e-05 2.1765508e-20)
(0.090574361 -0.011946284 0)
(0.089580386 -0.019263914 -2.3686082e-20)
(0.08746977 -0.020891997 2.4225911e-20)
(0.086924721 -0.015447098 1.9745338e-22)
(0.085300588 -0.0043161983 0)
(0.083529642 0.007397953 -5.5199492e-20)
(0.084580696 0.013300669 1.9361776e-22)
(0.088490349 0.01046151 5.8970573e-20)
(0.092125881 0.00078896772 5.9840542e-23)
(0.092598675 -0.00050088867 -2.6611313e-25)
(0.085773989 -0.00042038456 -1.0222579e-21)
(0.088478388 -0.00047613745 0)
(0.086355095 0.00036089116 5.5364785e-22)
(0.088621538 -0.00096172541 8.6416627e-22)
(0.093256796 -0.0015081398 8.9650034e-22)
(0.096812833 -0.00032823413 -3.7410263e-21)
(0.096652127 0.00094566409 -3.2563982e-22)
(0.093326306 0.00075121117 -3.4519332e-22)
(0.088461052 0.0020108679 5.2699952e-21)
(0.085548925 0.003277105 -2.5578634e-21)
(0.085212949 0.0040603282 -3.0379374e-21)
(0.087099078 0.0059050279 2.3722222e-21)
(0.089970454 0.0030318568 0)
(0.091385226 0.005082048 0)
(0.09228219 0.0062810426 -7.127149e-21)
(0.093232208 0.0060960611 -1.8128184e-24)
(0.094548219 0.0054357637 7.9531258e-21)
(0.096306819 0.0036620156 -2.5054819e-22)
(0.098968492 0.0035973701 8.3219637e-21)
(0.10123135 0.0032793825 -8.6520832e-21)
(0.10039812 0.0026496726 -2.8085037e-22)
(0.094936271 0.0014335134 -1.4720592e-22)
(0.084881432 -0.00019158689 -9.8994349e-21)
(0.071183347 0.0025406293 1.0180472e-20)
(0.059269424 0.0071381478 1.6738176e-22)
(0.057835611 0.010361299 0)
(0.06638103 0.012095984 0)
(0.081520982 0.0084142461 0)
(0.098447958 0.0012353043 3.8531255e-22)
(0.10888708 -0.0021398572 -1.9875791e-22)
(0.10581976 -0.00050185814 0)
(0.091215837 0.0046155226 1.0870625e-22)
(0.079324196 0.0077199046 2.2673552e-22)
(0.082973156 0.0037079578 0)
(0.090134497 0.00019747984 1.553804e-20)
(0.086010234 0.0043404368 -1.6061115e-20)
(0.076484422 0.0094984088 0)