/*--------------------------------*- C++ -*----------------------------------*\
| =========                 |                                                 |
| \\      /  F ield         | OpenFOAM: The Open Source CFD Toolbox           |
|  \\    /   O peration     | Version:  2406                                  |
|   \\  /    A nd           | Website:  www.openfoam.com                      |
|    \\/     M anipulation  |                                                 |
\*---------------------------------------------------------------------------*/
FoamFile
{
    version     2.0;
    format      ascii;
    arch        "LSB;label=32;scalar=64";
    class       volScalarField;
    location    "23";
    object      alphat;
}
// * * * * * * * * * * * * * * * * * * * * * * * * * * * * * * * * * * * * * //

dimensions      [1 -1 -1 0 0 0 0];

internalField   nonuniform List<scalar> 
96472
(
8.6982849e-07
9.3440624e-07
9.3174317e-07
9.3034747e-07
9.3489022e-07
9.274526e-07
8.9870825e-07
8.6140642e-07
8.3436321e-07
8.2506471e-07
8.2876964e-07
8.3375844e-07
8.3194197e-07
8.1924713e-07
8.0013109e-07
7.789571e-07
7.6401942e-07
7.5638867e-07
7.6065766e-07
7.7091549e-07
7.8814634e-07
8.0384023e-07
8.1728281e-07
8.2149348e-07
8.1986019e-07
8.1079618e-07
7.986266e-07
7.8384877e-07
7.6786731e-07
7.553314e-07
7.4364352e-07
7.3661408e-07
7.3730245e-07
7.3998361e-07
7.5027134e-07
7.5326221e-07
7.6636508e-07
7.7237397e-07
7.8622962e-07
7.9673009e-07
8.1126262e-07
8.2532167e-07
8.4073617e-07
8.562618e-07
8.8182293e-07
8.9744116e-07
9.1926175e-07
9.397045e-07
9.6523499e-07
9.9085679e-07
1.0209408e-06
1.0595879e-06
1.0939354e-06
1.1362683e-06
1.2038587e-06
8.6933916e-07
9.2941971e-07
9.286081e-07
9.2810462e-07
9.33048e-07
9.2645902e-07
8.9874325e-07
8.6156079e-07
8.3366795e-07
8.232928e-07
8.2652583e-07
8.3195985e-07
8.3116978e-07
8.1981393e-07
8.0158009e-07
7.8046725e-07
7.6486947e-07
7.5603094e-07
7.5918676e-07
7.6834629e-07
7.8515124e-07
8.0090715e-07
8.1524112e-07
8.206188e-07
8.2089629e-07
8.1287188e-07
8.0194327e-07
7.8642809e-07
7.6997404e-07
7.5556946e-07
7.4291139e-07
7.3252654e-07
7.2843925e-07
7.2898799e-07
7.3426271e-07
7.4020655e-07
7.4951862e-07
7.5933215e-07
7.7566625e-07
7.8907519e-07
8.0513544e-07
8.2153886e-07
8.3559879e-07
8.5440289e-07
8.729414e-07
8.9444397e-07
9.0745206e-07
9.3269874e-07
9.4630014e-07
9.7440253e-07
9.898659e-07
1.0194832e-06
1.0521143e-06
1.0784036e-06
1.1462032e-06
8.6887306e-07
9.2634764e-07
9.2611286e-07
9.2559052e-07
9.3088752e-07
9.2556375e-07
8.9903062e-07
8.619089e-07
8.3309903e-07
8.2180397e-07
8.246714e-07
8.3069799e-07
8.3080494e-07
8.206646e-07
8.0297222e-07
7.8223481e-07
7.6589132e-07
7.564976e-07
7.5825121e-07
7.6697835e-07
7.8340339e-07
7.991799e-07
8.1484094e-07
8.2052577e-07
8.2192543e-07
8.1466703e-07
8.0420123e-07
7.8930964e-07
7.7394485e-07
7.5874744e-07
7.4571095e-07
7.3468742e-07
7.289865e-07
7.2794666e-07
7.315455e-07
7.360139e-07
7.4193123e-07
7.4946818e-07
7.5861361e-07
7.7363987e-07
7.8561566e-07
8.0714018e-07
8.1851919e-07
8.4341943e-07
8.5652582e-07
8.8473774e-07
8.9732165e-07
9.2393447e-07
9.3624255e-07
9.596972e-07
9.8148949e-07
9.9637582e-07
1.0251144e-06
1.0425307e-06
1.086733e-06
8.6853102e-07
9.2455558e-07
9.2416975e-07
9.231941e-07
9.2883416e-07
9.2478545e-07
8.9937299e-07
8.6239167e-07
8.328374e-07
8.2074289e-07
8.2328047e-07
8.2972615e-07
8.3078169e-07
8.2178189e-07
8.045137e-07
7.8399227e-07
7.6690895e-07
7.5688262e-07
7.5713854e-07
7.656106e-07
7.8077794e-07
7.9753027e-07
8.1301762e-07
8.2041883e-07
8.2263709e-07
8.1660647e-07
8.071004e-07
7.9264931e-07
7.7745354e-07
7.6162659e-07
7.4901341e-07
7.3675888e-07
7.302214e-07
7.2665607e-07
7.3035698e-07
7.3356312e-07
7.3983484e-07
7.4568348e-07
7.5390532e-07
7.648779e-07
7.7500403e-07
7.9173133e-07
8.0229476e-07
8.2331378e-07
8.3422402e-07
8.6045399e-07
8.7415857e-07
9.0174642e-07
9.2316856e-07
9.4289854e-07
9.6997622e-07
9.8382497e-07
1.0118347e-06
1.0257828e-06
1.0584003e-06
8.68278e-07
9.2328816e-07
9.2273897e-07
9.2123293e-07
9.2698601e-07
9.2399023e-07
8.9963461e-07
8.6286618e-07
8.3261312e-07
8.1979339e-07
8.2189142e-07
8.2880711e-07
8.306837e-07
8.2279968e-07
8.0605257e-07
7.8583162e-07
7.6801966e-07
7.574159e-07
7.5635661e-07
7.6435701e-07
7.7865612e-07
7.957599e-07
8.1140417e-07
8.2040083e-07
8.2287711e-07
8.1853601e-07
8.0929174e-07
7.9587138e-07
7.8079704e-07
7.6480748e-07
7.5182879e-07
7.3911616e-07
7.3186916e-07
7.2598811e-07
7.287161e-07
7.3144713e-07
7.373937e-07
7.4186798e-07
7.4988459e-07
7.5986347e-07
7.6887191e-07
7.8360805e-07
7.9285955e-07
8.0995074e-07
8.2304407e-07
8.3733294e-07
8.5753566e-07
8.7095809e-07
8.9791663e-07
9.1204618e-07
9.4165212e-07
9.5660346e-07
9.865236e-07
1.0018373e-06
1.0358105e-06
8.6816567e-07
9.2247312e-07
9.2155706e-07
9.1946762e-07
9.2532808e-07
9.233152e-07
8.9993242e-07
8.6337861e-07
8.3250184e-07
8.1890483e-07
8.2060955e-07
8.2790918e-07
8.3053141e-07
8.2362207e-07
8.0757616e-07
7.8767885e-07
7.6931281e-07
7.5803214e-07
7.5573855e-07
7.6307838e-07
7.7665316e-07
7.9394581e-07
8.0973711e-07
8.2012368e-07
8.2319911e-07
8.2022532e-07
8.1156368e-07
7.9882868e-07
7.8403777e-07
7.682398e-07
7.5428017e-07
7.4152637e-07
7.3340721e-07
7.257709e-07
7.2737134e-07
7.2879505e-07
7.3473709e-07
7.3843023e-07
7.459484e-07
7.5408301e-07
7.6268413e-07
7.7405898e-07
7.8731949e-07
7.973064e-07
8.1457874e-07
8.2425994e-07
8.4357362e-07
8.5407184e-07
8.7569572e-07
8.8732151e-07
9.1209994e-07
9.2480514e-07
9.5142445e-07
9.6553882e-07
9.9951496e-07
8.6815672e-07
9.2162231e-07
9.206228e-07
9.1777108e-07
9.2300046e-07
9.217509e-07
8.9950974e-07
8.6341414e-07
8.3214859e-07
8.1789643e-07
8.1937239e-07
8.2691199e-07
8.3035041e-07
8.2444376e-07
8.0905513e-07
7.8937431e-07
7.7076759e-07
7.5872036e-07
7.5542763e-07
7.6184685e-07
7.7489133e-07
7.9194676e-07
8.0826525e-07
8.1960609e-07
8.2349695e-07
8.2166706e-07
8.1387017e-07
8.0191854e-07
7.873478e-07
7.7190103e-07
7.5713996e-07
7.4447231e-07
7.3484361e-07
7.2733083e-07
7.2569806e-07
7.2679038e-07
7.3218645e-07
7.3578313e-07
7.416507e-07
7.4803024e-07
7.581876e-07
7.6632332e-07
7.8045851e-07
7.8925046e-07
8.0538029e-07
8.1412971e-07
8.3195193e-07
8.4123337e-07
8.606924e-07
8.7105235e-07
8.9131442e-07
9.0237051e-07
9.2358404e-07
9.3569343e-07
9.6185329e-07
8.6799392e-07
9.1943642e-07
9.1794176e-07
9.1421277e-07
9.1876735e-07
9.183649e-07
8.9776109e-07
8.6271097e-07
8.3148441e-07
8.1686138e-07
8.1813332e-07
8.2594041e-07
8.3021187e-07
8.252935e-07
8.1059403e-07
7.9113975e-07
7.7223619e-07
7.5953804e-07
7.5527612e-07
7.6080004e-07
7.7329185e-07
7.9002992e-07
8.0674927e-07
8.1902364e-07
8.2373455e-07
8.2298006e-07
8.1590613e-07
8.0483354e-07
7.9055235e-07
7.7533813e-07
7.6018091e-07
7.4738016e-07
7.3637439e-07
7.2910572e-07
7.2493378e-07
7.2554783e-07
7.2928956e-07
7.337316e-07
7.3806775e-07
7.4430805e-07
7.527465e-07
7.6035042e-07
7.7268188e-07
7.8164737e-07
7.9616819e-07
8.0506841e-07
8.2113044e-07
8.2986377e-07
8.4803465e-07
8.5681467e-07
8.7580364e-07
8.8492828e-07
9.0422986e-07
9.1396998e-07
9.3605943e-07
8.6692258e-07
9.128446e-07
9.1114554e-07
9.0784529e-07
9.1333518e-07
9.1469602e-07
8.9598937e-07
8.6205767e-07
8.3095333e-07
8.1594363e-07
8.1694464e-07
8.2505464e-07
8.3004472e-07
8.2601964e-07
8.1216768e-07
7.9302909e-07
7.738448e-07
7.6046625e-07
7.5526361e-07
7.5986301e-07
7.7180221e-07
7.8821014e-07
8.0518102e-07
8.1827766e-07
8.2397279e-07
8.2406234e-07
8.1799212e-07
8.0754312e-07
7.9391831e-07
7.7880779e-07
7.6345845e-07
7.5039636e-07
7.3848093e-07
7.3093755e-07
7.2468192e-07
7.2492015e-07
7.2657032e-07
7.3166828e-07
7.3526998e-07
7.4105356e-07
7.4823169e-07
7.5498373e-07
7.6614469e-07
7.7417843e-07
7.8826131e-07
7.9621552e-07
8.1151349e-07
8.1941224e-07
8.3634489e-07
8.4442899e-07
8.6248332e-07
8.7054329e-07
8.8834229e-07
8.9608485e-07
9.1616734e-07
8.6583049e-07
9.0228953e-07
9.0080025e-07
8.9968987e-07
9.0770664e-07
9.1146139e-07
8.9464803e-07
8.6171695e-07
8.3065745e-07
8.1519716e-07
8.1593757e-07
8.2426323e-07
8.2992797e-07
8.2676302e-07
8.1371211e-07
7.9491607e-07
7.75574e-07
7.6154439e-07
7.554362e-07
7.5908902e-07
7.7038298e-07
7.8650161e-07
8.0359756e-07
8.1738081e-07
8.2412996e-07
8.249304e-07
8.1989716e-07
8.1014649e-07
7.9705908e-07
7.8234099e-07
7.6687816e-07
7.5339871e-07
7.4103901e-07
7.3272468e-07
7.2539912e-07
7.2416448e-07
7.2486535e-07
7.2921414e-07
7.3257718e-07
7.383605e-07
7.4381823e-07
7.5046749e-07
7.5994017e-07
7.6762528e-07
7.8023797e-07
7.8853302e-07
8.0223721e-07
8.1036857e-07
8.2519575e-07
8.336416e-07
8.4918178e-07
8.574861e-07
8.739221e-07
8.8212877e-07
8.9922426e-07
8.6571911e-07
9.0200199e-07
9.0004393e-07
8.9871785e-07
9.067781e-07
9.1120781e-07
8.9519494e-07
8.6251791e-07
8.31044e-07
8.1487962e-07
8.1520686e-07
8.2358901e-07
8.2987516e-07
8.2760951e-07
8.1527355e-07
7.9674905e-07
7.7731625e-07
7.6270642e-07
7.5575558e-07
7.5846815e-07
7.69062e-07
7.8482661e-07
8.0201066e-07
8.1639164e-07
8.2414181e-07
8.257894e-07
8.2153027e-07
8.128284e-07
8.0004353e-07
7.858675e-07
7.7046694e-07
7.5645944e-07
7.4377477e-07
7.3479007e-07
7.2679404e-07
7.2382452e-07
7.2350374e-07
7.2721341e-07
7.3025203e-07
7.3521269e-07
7.4045369e-07
7.4632102e-07
7.5442599e-07
7.6168322e-07
7.734954e-07
7.8081446e-07
7.9420942e-07
8.0160524e-07
8.1580539e-07
8.2272725e-07
8.3826438e-07
8.461973e-07
8.6112269e-07
8.6884602e-07
8.848123e-07
8.6556115e-07
9.0318406e-07
9.0060422e-07
8.9887114e-07
9.067069e-07
9.1140481e-07
8.9588498e-07
8.6338302e-07
8.3151021e-07
8.1468804e-07
8.1453083e-07
8.2296194e-07
8.2987446e-07
8.2842618e-07
8.1690832e-07
7.9873269e-07
7.7917177e-07
7.6398479e-07
7.5623251e-07
7.5801604e-07
7.6789192e-07
7.8325521e-07
8.0043814e-07
8.1538398e-07
8.2405925e-07
8.2657192e-07
8.2307984e-07
8.1524962e-07
8.0311629e-07
7.8920609e-07
7.7408883e-07
7.5973971e-07
7.4661159e-07
7.3690385e-07
7.2857556e-07
7.2413798e-07
7.2247565e-07
7.2534329e-07
7.2813635e-07
7.330697e-07
7.3684878e-07
7.4267483e-07
7.4990912e-07
7.5651461e-07
7.6684583e-07
7.7419265e-07
7.8675115e-07
7.936761e-07
8.0717101e-07
8.1393711e-07
8.2825118e-07
8.3528942e-07
8.4916426e-07
8.5696022e-07
8.7162858e-07
8.6642583e-07
9.1303716e-07
9.1020767e-07
9.0633866e-07
9.1198501e-07
9.1533128e-07
8.9901117e-07
8.6575929e-07
8.3289804e-07
8.1501688e-07
8.1414511e-07
8.2252115e-07
8.299141e-07
8.2916546e-07
8.1849214e-07
8.0072384e-07
7.8108746e-07
7.6533563e-07
7.5678313e-07
7.5763235e-07
7.6675748e-07
7.8172675e-07
7.9885e-07
8.1430423e-07
8.2390722e-07
8.2719402e-07
8.2458641e-07
8.1743499e-07
8.0610541e-07
7.9249412e-07
7.7761478e-07
7.631703e-07
7.495754e-07
7.3925178e-07
7.3023483e-07
7.2505021e-07
7.2196019e-07
7.2369886e-07
7.2611863e-07
7.3079435e-07
7.3402701e-07
7.3952275e-07
7.4556378e-07
7.5175991e-07
7.6126303e-07
7.6823828e-07
7.7938993e-07
7.8697297e-07
7.9875621e-07
8.0620602e-07
8.1921199e-07
8.2515312e-07
8.3943414e-07
8.4631595e-07
8.6023302e-07
8.6655186e-07
9.1512314e-07
9.1375016e-07
9.1048951e-07
9.158138e-07
9.1846964e-07
9.0153615e-07
8.6768941e-07
8.3404562e-07
8.1527683e-07
8.1380429e-07
8.2213298e-07
8.299624e-07
8.3002797e-07
8.201069e-07
8.0273267e-07
7.8309891e-07
7.6684014e-07
7.5753168e-07
7.5749136e-07
7.6581955e-07
7.8034155e-07
7.9734331e-07
8.132418e-07
8.2366496e-07
8.2781278e-07
8.2591386e-07
8.1963303e-07
8.0892193e-07
7.9583111e-07
7.8116401e-07
7.6672383e-07
7.5277714e-07
7.4202952e-07
7.3207694e-07
7.2650511e-07
7.2175013e-07
7.22798e-07
7.2402576e-07
7.2871399e-07
7.3158938e-07
7.3663507e-07
7.4184619e-07
7.478619e-07
7.5588428e-07
7.6220518e-07
7.7367343e-07
7.7978302e-07
7.9200809e-07
7.983288e-07
8.1068875e-07
8.1714686e-07
8.3032972e-07
8.3538262e-07
8.498937e-07
8.6649209e-07
9.2032446e-07
9.2114354e-07
9.1791991e-07
9.2271598e-07
9.2443963e-07
9.0625575e-07
8.7107504e-07
8.3609198e-07
8.1612087e-07
8.138212e-07
8.2191301e-07
8.301143e-07
8.3092196e-07
8.2168873e-07
8.0468129e-07
7.8504095e-07
7.6832338e-07
7.5831044e-07
7.5737909e-07
7.649385e-07
7.789991e-07
7.9582176e-07
8.1210531e-07
8.2333243e-07
8.2834381e-07
8.2713468e-07
8.215751e-07
8.1166509e-07
7.9887164e-07
7.8457316e-07
7.7018551e-07
7.5594488e-07
7.4471303e-07
7.3409192e-07
7.2808578e-07
7.2220905e-07
7.22008e-07
7.2246432e-07
7.2684934e-07
7.2928997e-07
7.3407662e-07
7.3884292e-07
7.4414564e-07
7.5105475e-07
7.5751796e-07
7.6739764e-07
7.7392085e-07
7.8498677e-07
7.9178674e-07
8.0321816e-07
8.0962757e-07
8.2076471e-07
8.2768378e-07
8.401005e-07
8.6611098e-07
9.2109959e-07
9.2208125e-07
9.1888754e-07
9.2415884e-07
9.2636518e-07
9.0842214e-07
8.7304591e-07
8.3744695e-07
8.166926e-07
8.1371979e-07
8.2167427e-07
8.302364e-07
8.317114e-07
8.2326418e-07
8.0676226e-07
7.8714169e-07
7.7000723e-07
7.5931173e-07
7.5752403e-07
7.6428667e-07
7.7786051e-07
7.945186e-07
8.1108132e-07
8.2296544e-07
8.2883576e-07
8.283802e-07
8.2346672e-07
8.1434459e-07
8.0210303e-07
7.8798042e-07
7.7382137e-07
7.5940553e-07
7.4765292e-07
7.3648137e-07
7.2983764e-07
7.2318454e-07
7.2167651e-07
7.2122505e-07
7.2487232e-07
7.2724225e-07
7.318038e-07
7.3559169e-07
7.4077942e-07
7.4716927e-07
7.5278031e-07
7.6152812e-07
7.6808175e-07
7.7855803e-07
7.8520928e-07
7.9618812e-07
8.0206371e-07
8.133391e-07
8.200787e-07
8.3009569e-07
8.6566128e-07
9.198434e-07
9.2262322e-07
9.2081552e-07
9.2682416e-07
9.2902894e-07
9.1079339e-07
8.7503233e-07
8.3885607e-07
8.1735686e-07
8.1378583e-07
8.2157567e-07
8.30419e-07
8.324678e-07
8.246991e-07
8.0866987e-07
7.8905832e-07
7.7156715e-07
7.6022413e-07
7.5761694e-07
7.6361338e-07
7.7664529e-07
7.9318601e-07
8.1001054e-07
8.2254357e-07
8.2925955e-07
8.2943717e-07
8.2516371e-07
8.1657469e-07
8.0514238e-07
7.9115683e-07
7.7713227e-07
7.6289509e-07
7.5046694e-07
7.3894511e-07
7.3159053e-07
7.2446978e-07
7.2174221e-07
7.2027078e-07
7.2320679e-07
7.25451e-07
7.2963325e-07
7.3300359e-07
7.3787236e-07
7.432318e-07
7.4844982e-07
7.5682473e-07
7.6232701e-07
7.7290144e-07
7.7870805e-07
7.8992795e-07
7.9578292e-07
8.070484e-07
8.1121221e-07
8.2261368e-07
8.6544938e-07
9.2098332e-07
9.2408651e-07
9.2210933e-07
9.2776652e-07
9.298788e-07
9.1182392e-07
8.7618547e-07
8.3983022e-07
8.1785794e-07
8.1384272e-07
8.2150794e-07
8.3061536e-07
8.3330613e-07
8.2619147e-07
8.1062684e-07
7.9110348e-07
7.7331408e-07
7.6143972e-07
7.5802261e-07
7.6327235e-07
7.7574726e-07
7.9203807e-07
8.0903811e-07
8.2217941e-07
8.2961295e-07
8.3053148e-07
8.2684026e-07
8.1889643e-07
8.0801042e-07
7.943859e-07
7.8050538e-07
7.6639418e-07
7.5361279e-07
7.4164358e-07
7.3350733e-07
7.2609102e-07
7.2233177e-07
7.1963899e-07
7.2170709e-07
7.2339561e-07
7.277158e-07
7.3043781e-07
7.3467602e-07
7.3980063e-07
7.4485591e-07
7.5166186e-07
7.5755804e-07
7.6639766e-07
7.7302668e-07
7.8374288e-07
7.8943166e-07
7.9932264e-07
8.0492772e-07
8.154045e-07
8.6535569e-07
9.2056339e-07
9.2454201e-07
9.2326746e-07
9.2916847e-07
9.3127854e-07
9.1320824e-07
8.7750755e-07
8.4085393e-07
8.184223e-07
8.1400338e-07
8.2158161e-07
8.3093353e-07
8.3411169e-07
8.2755078e-07
8.1236528e-07
7.9289646e-07
7.7478111e-07
7.6235031e-07
7.5812234e-07
7.6266952e-07
7.7454492e-07
7.9067321e-07
8.0781939e-07
8.2151559e-07
8.2971539e-07
8.3127604e-07
8.280776e-07
8.2067172e-07
8.1031461e-07
7.9706857e-07
7.8338608e-07
7.6935297e-07
7.5630207e-07
7.4409694e-07
7.3540211e-07
7.2723982e-07
7.2299945e-07
7.1928618e-07
7.2042262e-07
7.2147181e-07
7.2543877e-07
7.2817923e-07
7.3188505e-07
7.3669366e-07
7.4110569e-07
7.4711162e-07
7.5233627e-07
7.6095053e-07
7.6766142e-07
7.773906e-07
7.8329027e-07
7.9298128e-07
7.9924293e-07
8.073398e-07
8.6528592e-07
9.2265234e-07
9.2643416e-07
9.2463501e-07
9.3002955e-07
9.3204532e-07
9.1421103e-07
8.7870856e-07
8.419564e-07
8.1919507e-07
8.1443194e-07
8.2190445e-07
8.3144295e-07
8.3498116e-07
8.2898181e-07
8.1422826e-07
7.9480699e-07
7.764204e-07
7.6343057e-07
7.5843937e-07
7.6216396e-07
7.7341259e-07
7.8916003e-07
8.0637646e-07
8.2056046e-07
8.2936706e-07
8.3164491e-07
8.2895395e-07
8.2202251e-07
8.1207071e-07
7.9919307e-07
7.8572485e-07
7.7201335e-07
7.5872524e-07
7.4617699e-07
7.3670572e-07
7.2827382e-07
7.2314049e-07
7.1874496e-07
7.1847196e-07
7.1919964e-07
7.2244685e-07
7.2546843e-07
7.2845345e-07
7.3291442e-07
7.3667037e-07
7.4243346e-07
7.4685518e-07
7.5491644e-07
7.6047931e-07
7.7019778e-07
7.7596277e-07
7.8616705e-07
7.9026994e-07
7.9989873e-07
8.6541379e-07
9.2272601e-07
9.2694734e-07
9.2534388e-07
9.3069879e-07
9.3270511e-07
9.1498798e-07
8.7953007e-07
8.4268999e-07
8.1970193e-07
8.1479342e-07
8.2229393e-07
8.3195722e-07
8.357839e-07
8.3007773e-07
8.1543331e-07
7.9589954e-07
7.7705683e-07
7.6332437e-07
7.5753752e-07
7.6041817e-07
7.7088454e-07
7.8635196e-07
8.0368145e-07
8.1863445e-07
8.2851595e-07
8.3196396e-07
8.2965737e-07
8.2308012e-07
8.1301158e-07
8.0013433e-07
7.8635883e-07
7.7263128e-07
7.5891343e-07
7.46573e-07
7.3566913e-07
7.2730523e-07
7.2095033e-07
7.1702842e-07
7.1499153e-07
7.1562758e-07
7.1789884e-07
7.2106768e-07
7.2372734e-07
7.275414e-07
7.3122397e-07
7.3593958e-07
7.4056057e-07
7.4719674e-07
7.5416214e-07
7.6245067e-07
7.6798872e-07
7.7701871e-07
7.8279742e-07
7.9036881e-07
8.6546267e-07
9.2561732e-07
9.2923001e-07
9.2679711e-07
9.3139254e-07
9.3325475e-07
9.1580873e-07
8.8050972e-07
8.4357375e-07
8.1992834e-07
8.1444438e-07
8.2180258e-07
8.3208092e-07
8.3687533e-07
8.3184615e-07
8.1735289e-07
7.9721973e-07
7.7740202e-07
7.6266399e-07
7.5623852e-07
7.5861827e-07
7.687863e-07
7.8446761e-07
8.0214783e-07
8.1908016e-07
8.3158132e-07
8.4075701e-07
8.4190532e-07
8.360536e-07
8.2467278e-07
8.0974725e-07
7.9394056e-07
7.7787736e-07
7.6107602e-07
7.4752733e-07
7.3496626e-07
7.2638558e-07
7.1856779e-07
7.1451676e-07
7.1087191e-07
7.1139393e-07
7.1268441e-07
7.1603698e-07
7.180982e-07
7.2085564e-07
7.2432014e-07
7.2851568e-07
7.3385356e-07
7.3994807e-07
7.4777879e-07
7.5403931e-07
7.6113658e-07
7.6736883e-07
7.769386e-07
7.5921576e-07
8.6619728e-07
9.2648447e-07
9.3125779e-07
9.2883529e-07
9.3328311e-07
9.3579121e-07
9.1931917e-07
8.8345763e-07
8.4441488e-07
8.1851464e-07
8.1233517e-07
8.2038134e-07
8.3607119e-07
8.4803137e-07
8.4915084e-07
8.3770542e-07
8.1587681e-07
7.9232627e-07
7.7574086e-07
7.7021556e-07
7.7797593e-07
7.9376657e-07
8.0945701e-07
8.3798326e-07
8.7034519e-07
8.9452202e-07
9.1381891e-07
9.2476919e-07
9.3249278e-07
9.4004901e-07
9.2084349e-07
8.9544375e-07
8.5943558e-07
8.2223151e-07
7.9890158e-07
7.8201996e-07
7.6690493e-07
7.5571193e-07
7.5054895e-07
7.4764967e-07
7.4753072e-07
7.4858163e-07
7.5061284e-07
7.5252542e-07
7.5448141e-07
7.5820162e-07
7.6399002e-07
7.7304576e-07
7.8345346e-07
7.9361793e-07
8.00989e-07
8.0954459e-07
8.1498655e-07
7.1961437e-07
8.1550351e-07
8.6974743e-07
9.3673668e-07
9.4775989e-07
9.4825083e-07
9.5590769e-07
9.6546212e-07
9.5635024e-07
9.210389e-07
8.7319496e-07
8.4357253e-07
8.4938863e-07
8.7284042e-07
9.142368e-07
9.7074844e-07
1.0093602e-06
1.0382466e-06
1.0331742e-06
9.934759e-07
9.7656147e-07
9.8136387e-07
9.9155103e-07
1.0067247e-06
1.0624568e-06
1.1552912e-06
1.2454374e-06
1.3051839e-06
1.3457972e-06
1.38231e-06
1.40468e-06
1.4059848e-06
1.4079349e-06
1.3982141e-06
1.3583831e-06
1.2422715e-06
1.1762692e-06
1.1573127e-06
1.127489e-06
1.0917486e-06
1.0751715e-06
1.0735815e-06
1.0758983e-06
1.080593e-06
1.083836e-06
1.0884056e-06
1.0994675e-06
1.1239938e-06
1.1337482e-06
1.148324e-06
1.1782573e-06
1.204068e-06
1.2249722e-06
1.2392541e-06
1.2464278e-06
1.2051053e-06
1.2119619e-06
8.7176181e-07
9.4406153e-07
9.8808679e-07
9.8709142e-07
1.0039063e-06
1.0843822e-06
1.164973e-06
1.2063297e-06
1.1867727e-06
1.2066522e-06
1.2269119e-06
1.3026743e-06
1.496102e-06
1.6610487e-06
1.7504339e-06
1.78583e-06
1.8039176e-06
1.809147e-06
1.7763271e-06
1.774859e-06
1.7877994e-06
1.8344443e-06
1.9771655e-06
2.1296559e-06
2.2750088e-06
2.3745524e-06
2.4335713e-06
2.4878938e-06
2.5334565e-06
2.5364004e-06
2.5168845e-06
2.5033321e-06
2.4825808e-06
2.3769053e-06
2.2472063e-06
2.2093822e-06
2.1862923e-06
2.1424789e-06
2.1147169e-06
2.113732e-06
2.1308593e-06
2.1743647e-06
2.192147e-06
2.1851875e-06
2.2289042e-06
2.265356e-06
2.2663471e-06
2.2767349e-06
2.3196677e-06
2.40239e-06
2.5088961e-06
2.5188854e-06
2.358339e-06
2.4523875e-06
2.5145264e-06
5.9944901e-07
9.5364914e-07
1.0956916e-06
1.2194367e-06
1.3289952e-06
1.5948463e-06
1.9449418e-06
2.0034623e-06
2.0611747e-06
2.1048078e-06
2.2253893e-06
2.3965037e-06
2.6335621e-06
2.8272836e-06
2.9438733e-06
2.9931189e-06
2.9982369e-06
3.0155325e-06
3.0213328e-06
3.053046e-06
3.0911261e-06
3.1496666e-06
3.2772744e-06
3.394337e-06
3.5476509e-06
3.6407905e-06
3.6598573e-06
3.712787e-06
3.8176178e-06
3.8609327e-06
3.850879e-06
3.8026616e-06
3.7594092e-06
3.6409501e-06
3.6476228e-06
3.6495444e-06
3.646096e-06
3.5944684e-06
3.582793e-06
3.4929588e-06
3.6856155e-06
3.4971981e-06
3.622382e-06
3.7072326e-06
3.4937769e-06
3.6484255e-06
3.4004102e-06
3.7529937e-06
3.4070018e-06
3.9111061e-06
3.5607234e-06
3.8924034e-06
3.7340588e-06
3.8147758e-06
4.0099386e-06
3.9396893e-07
9.1637226e-07
1.3581514e-06
1.446903e-06
1.6622181e-06
1.8558285e-06
2.0955313e-06
2.178602e-06
2.3987235e-06
2.563903e-06
2.4824985e-06
2.3783599e-06
2.3230529e-06
2.3029962e-06
2.3149214e-06
2.3338755e-06
2.2691314e-06
2.1673142e-06
1.9929151e-06
1.9145533e-06
1.7916288e-06
1.6775743e-06
1.5710475e-06
1.4775567e-06
1.4145547e-06
1.414771e-06
1.4684376e-06
1.5493977e-06
1.645943e-06
1.7014295e-06
1.7911728e-06
1.8283267e-06
1.8472777e-06
1.7885675e-06
1.8826985e-06
1.8619541e-06
1.8675211e-06
1.7819862e-06
1.8198287e-06
1.8147098e-06
1.7629258e-06
1.8110388e-06
1.7715765e-06
1.7471424e-06
1.8164839e-06
1.7471942e-06
1.809857e-06
1.7209177e-06
1.8096906e-06
1.734725e-06
1.81939e-06
1.7497812e-06
1.8094105e-06
1.8275609e-06
1.7500483e-06
1.7866069e-06
3.875509e-06
2.663834e-06
1.302372e-06
7.2304272e-07
7.8974925e-07
7.9755285e-07
8.072226e-07
8.1426084e-07
8.2136018e-07
8.2910084e-07
8.3745473e-07
8.4637721e-07
8.565167e-07
8.6750895e-07
8.7949644e-07
8.9185484e-07
9.0672421e-07
9.2302811e-07
9.4303196e-07
9.7111151e-07
1.0063892e-06
1.0469467e-06
1.0708246e-06
1.0991521e-06
1.1523775e-06
1.218568e-06
1.7947556e-06
3.9325479e-06
2.5094011e-06
1.2665463e-06
7.2786331e-07
7.2040567e-07
8.0463137e-07
8.1356397e-07
8.2247469e-07
8.3029023e-07
8.3821832e-07
8.4627597e-07
8.5437635e-07
8.6377132e-07
8.7415304e-07
8.8553026e-07
8.9848184e-07
9.1231562e-07
9.2938177e-07
9.4825613e-07
9.7366533e-07
1.0093051e-06
1.0557391e-06
1.084801e-06
1.1056752e-06
1.1537213e-06
1.2254741e-06
1.5839462e-06
3.9497551e-06
2.6165554e-06
1.4013095e-06
7.690774e-07
6.9198593e-07
8.1264034e-07
8.2337633e-07
8.3499357e-07
8.4318766e-07
8.511292e-07
8.5987581e-07
8.6881881e-07
8.7814776e-07
8.8863285e-07
8.9882029e-07
9.1079417e-07
9.2415133e-07
9.3961098e-07
9.5789388e-07
9.8008343e-07
1.012328e-06
1.0633193e-06
1.1018522e-06
1.120926e-06
1.1580203e-06
1.2302069e-06
1.7587817e-06
3.7970373e-06
2.8690448e-06
1.5747539e-06
7.5884278e-07
6.4397097e-07
8.0988069e-07
8.3778212e-07
8.469456e-07
8.5437653e-07
8.620683e-07
8.695211e-07
8.7869103e-07
8.8773094e-07
8.9775352e-07
9.0920557e-07
9.2067595e-07
9.3515417e-07
9.5118364e-07
9.6966119e-07
9.919031e-07
1.0203821e-06
1.069688e-06
1.1186746e-06
1.1410749e-06
1.1705121e-06
1.2341823e-06
1.7218283e-06
3.5553424e-06
2.9485841e-06
1.5653412e-06
7.7968161e-07
6.1675741e-07
7.3483356e-07
8.4870588e-07
8.5768904e-07
8.6615159e-07
8.7438133e-07
8.8157804e-07
8.8973272e-07
8.9839304e-07
9.0702883e-07
9.1689182e-07
9.2837455e-07
9.4189823e-07
9.5890129e-07
9.7817639e-07
1.001018e-06
1.0267227e-06
1.0735035e-06
1.1308736e-06
1.1641093e-06
1.189961e-06
1.2478505e-06
1.50905e-06
3.4555058e-06
2.9002756e-06
1.7354228e-06
8.5359602e-07
6.0232475e-07
7.0299574e-07
8.5317063e-07
8.6285382e-07
8.7303138e-07
8.8164255e-07
8.9013646e-07
8.9819149e-07
9.0721329e-07
9.1695468e-07
9.2649951e-07
9.390688e-07
9.5197302e-07
9.689243e-07
9.8655677e-07
1.0095094e-06
1.0324758e-06
1.0753828e-06
1.1369525e-06
1.1816667e-06
1.2067002e-06
1.2681454e-06
1.358574e-06
3.3998796e-06
3.0573738e-06
1.8604525e-06
8.3362474e-07
5.593291e-07
6.2181352e-07
8.6154406e-07
8.7163902e-07
8.8060653e-07
8.8799786e-07
8.9587334e-07
9.0401282e-07
9.1273956e-07
9.2282989e-07
9.3380642e-07
9.4655498e-07
9.6133472e-07
9.7813742e-07
9.9762927e-07
1.0208197e-06
1.0443216e-06
1.0798915e-06
1.1422993e-06
1.1961942e-06
1.2232277e-06
1.2871487e-06
1.2848147e-06
3.0556023e-06
3.0667815e-06
1.7995872e-06
8.5114209e-07
5.3368305e-07
5.4380852e-07
7.6859313e-07
8.8585237e-07
8.9470941e-07
9.0115135e-07
9.0784573e-07
9.1527689e-07
9.2265331e-07
9.318825e-07
9.4263519e-07
9.5451793e-07
9.692029e-07
9.8549268e-07
1.0050174e-06
1.0281486e-06
1.0550085e-06
1.0849408e-06
1.1437184e-06
1.2048328e-06
1.2382681e-06
1.3056236e-06
1.0401855e-06
2.8550943e-06
3.1157613e-06
1.7901359e-06
9.0218058e-07
5.4788137e-07
5.1880783e-07
6.8921545e-07
8.9269419e-07
9.0463786e-07
9.1379779e-07
9.2111776e-07
9.2899497e-07
9.3635582e-07
9.4530226e-07
9.5610096e-07
9.6792888e-07
9.8235125e-07
9.9742115e-07
1.016074e-06
1.0379521e-06
1.0654372e-06
1.0918893e-06
1.1473564e-06
1.2067968e-06
1.2521537e-06
1.3235943e-06
9.7627771e-07
2.7519992e-06
3.0254992e-06
1.8443513e-06
9.4331724e-07
5.53616e-07
5.1240339e-07
6.2551548e-07
8.9248922e-07
9.0973464e-07
9.2007908e-07
9.2809529e-07
9.3696341e-07
9.4583142e-07
9.558437e-07
9.6753722e-07
9.8035136e-07
9.9553242e-07
1.0116182e-06
1.0323784e-06
1.0537743e-06
1.0814553e-06
1.1049835e-06
1.1544708e-06
1.2105103e-06
1.2624772e-06
1.3414765e-06
8.5758964e-07
2.7882634e-06
3.1009188e-06
2.0703064e-06
9.4395571e-07
5.5703084e-07
4.8571085e-07
5.5159074e-07
7.7527029e-07
9.1902124e-07
9.297946e-07
9.3746432e-07
9.4528292e-07
9.5410321e-07
9.6425477e-07
9.7608621e-07
9.8957608e-07
1.0043029e-06
1.0221324e-06
1.0423632e-06
1.0651843e-06
1.094846e-06
1.1169005e-06
1.1614943e-06
1.2146001e-06
1.267152e-06
1.3507737e-06
6.6051754e-07
2.6853849e-06
3.2107896e-06
2.0836348e-06
9.5973349e-07
5.2595869e-07
4.5670511e-07
5.1043598e-07
6.7456904e-07
9.311676e-07
9.423483e-07
9.5323315e-07
9.6219716e-07
9.7053601e-07
9.8038128e-07
9.9132695e-07
1.0048399e-06
1.0189594e-06
1.0364093e-06
1.0554036e-06
1.077388e-06
1.1094518e-06
1.1320405e-06
1.1747026e-06
1.2255124e-06
1.2771658e-06
1.3594674e-06
4.7902841e-07
2.3732068e-06
3.3001601e-06
2.2301749e-06
1.0439747e-06
5.5719725e-07
4.3834511e-07
4.6988927e-07
6.0820861e-07
8.7195306e-07
9.5691017e-07
9.6654552e-07
9.7611942e-07
9.8604277e-07
9.9687327e-07
1.0092151e-06
1.0229112e-06
1.0375913e-06
1.0550671e-06
1.0741512e-06
1.0933968e-06
1.124998e-06
1.1471568e-06
1.1879036e-06
1.2404202e-06
1.289864e-06
1.3731081e-06
3.7086898e-07
2.1106777e-06
3.2670215e-06
2.3064361e-06
1.2023279e-06
5.8063938e-07
4.5310017e-07
4.6562002e-07
5.5956401e-07
7.9539527e-07
9.6405798e-07
9.7588058e-07
9.8545736e-07
9.9551293e-07
1.0073517e-06
1.0202704e-06
1.0353944e-06
1.0512812e-06
1.0695115e-06
1.0908586e-06
1.1101681e-06
1.1416801e-06
1.1613888e-06
1.197975e-06
1.2483268e-06
1.2974653e-06
1.3838747e-06
2.7898109e-07
1.834353e-06
3.1916841e-06
2.4894368e-06
1.2241306e-06
6.1550642e-07
4.3761706e-07
4.4058987e-07
5.1704365e-07
6.959536e-07
9.7429195e-07
9.8808393e-07
9.9859958e-07
1.0078846e-06
1.0187082e-06
1.0311892e-06
1.0447761e-06
1.0613185e-06
1.0786346e-06
1.1005653e-06
1.1191865e-06
1.153009e-06
1.17365e-06
1.2063853e-06
1.2540224e-06
1.2994172e-06
1.3875765e-06
2.1065617e-07
1.6644809e-06
3.1499379e-06
2.249765e-06
1.317989e-06
6.340424e-07
4.3224313e-07
4.2146255e-07
4.7314981e-07
6.1496966e-07
8.8390328e-07
9.9657964e-07
1.0101281e-06
1.0203807e-06
1.0316777e-06
1.0442646e-06
1.0583455e-06
1.0751073e-06
1.0926496e-06
1.1147983e-06
1.1342327e-06
1.1680716e-06
1.1926108e-06
1.2227728e-06
1.2655154e-06
1.3070102e-06
1.393175e-06
1.2740644e-07
1.6598056e-06
2.8698516e-06
2.6453824e-06
1.4207475e-06
6.4145771e-07
4.6155801e-07
4.0415716e-07
4.5418112e-07
5.6583759e-07
7.8447862e-07
1.0053096e-06
1.019091e-06
1.0305924e-06
1.0430501e-06
1.057348e-06
1.0716659e-06
1.088692e-06
1.1067746e-06
1.1295414e-06
1.148543e-06
1.1796239e-06
1.2068019e-06
1.235322e-06
1.2766419e-06
1.3121856e-06
1.4010209e-06
2.3570298e-07
1.385292e-06
3.0603031e-06
2.6671739e-06
1.0990121e-06
5.7378093e-07
3.8161355e-07
3.6083903e-07
3.937273e-07
5.0176602e-07
6.8746649e-07
9.7063264e-07
1.033315e-06
1.0448306e-06
1.0576366e-06
1.0712173e-06
1.0863697e-06
1.1024944e-06
1.1204137e-06
1.1428015e-06
1.1595975e-06
1.190523e-06
1.2178423e-06
1.2457941e-06
1.2853719e-06
1.3180282e-06
1.4051547e-06
2.1358264e-07
9.9392417e-07
2.5891055e-06
2.1636596e-06
9.9828393e-07
5.7466717e-07
3.4122521e-07
3.3338279e-07
3.6047717e-07
4.4539238e-07
6.1197417e-07
8.6076164e-07
1.0529204e-06
1.0648875e-06
1.0762975e-06
1.0877052e-06
1.1023391e-06
1.1181202e-06
1.1340484e-06
1.1581135e-06
1.1730923e-06
1.2063131e-06
1.2308199e-06
1.2591809e-06
1.2957566e-06
1.3248222e-06
1.40297e-06
1.455972e-07
7.6326759e-07
2.3738442e-06
1.9353935e-06
1.1688946e-06
6.3922007e-07
3.9790081e-07
3.5506465e-07
3.7184257e-07
4.5251026e-07
5.8778976e-07
8.2768513e-07
1.062269e-06
1.0783847e-06
1.0904777e-06
1.1027825e-06
1.117821e-06
1.1342998e-06
1.1501847e-06
1.1754287e-06
1.1907243e-06
1.2222235e-06
1.2446174e-06
1.2749428e-06
1.3071484e-06
1.3331595e-06
1.4025808e-06
6.7391195e-08
7.629258e-07
2.4440997e-06
1.9354901e-06
1.3477463e-06
6.8560935e-07
4.8872901e-07
4.4781337e-07
4.421324e-07
5.0398103e-07
6.2920819e-07
8.3441429e-07
1.0652044e-06
1.0836688e-06
1.0997198e-06
1.1151688e-06
1.1328119e-06
1.1510969e-06
1.1684136e-06
1.1936972e-06
1.2084391e-06
1.2380554e-06
1.2585284e-06
1.2888712e-06
1.3202991e-06
1.3441268e-06
1.4030667e-06
1.4887835e-08
1.0633712e-06
2.7387563e-06
2.6859572e-06
1.931303e-06
8.9700881e-07
6.432938e-07
5.1702796e-07
5.2155431e-07
5.0096899e-07
6.0783257e-07
7.7239238e-07
1.0004236e-06
1.0886156e-06
1.1060595e-06
1.1249744e-06
1.143035e-06
1.16362e-06
1.1806397e-06
1.2053312e-06
1.2200476e-06
1.2500586e-06
1.2714231e-06
1.3021072e-06
1.3359208e-06
1.355258e-06
1.4059677e-06
4.6123372e-07
1.247637e-06
2.9169836e-06
2.5269131e-06
1.9131473e-06
1.1954232e-06
5.9869938e-07
4.4027741e-07
4.1615137e-07
4.1571032e-07
5.0850249e-07
6.5181003e-07
8.4287465e-07
1.0965628e-06
1.1149266e-06
1.1334938e-06
1.1502412e-06