/*--------------------------------*- C++ -*----------------------------------*\
| =========                 |                                                 |
| \\      /  F ield         | OpenFOAM: The Open Source CFD Toolbox           |
|  \\    /   O peration     | Version:  2406                                  |
|   \\  /    A nd           | Website:  www.openfoam.com                      |
|    \\/     M anipulation  |                                                 |
\*---------------------------------------------------------------------------*/
FoamFile
{
    version     2.0;
    format      ascii;
    arch        "LSB;label=32;scalar=64";
    class       volScalarField;
    location    "23";
    object      k;
}
// * * * * * * * * * * * * * * * * * * * * * * * * * * * * * * * * * * * * * //

dimensions      [0 2 -2 0 0 0 0];

internalField   nonuniform List<scalar> 
62344
(
4.6724415e-06
3.6644026e-06
2.7730764e-06
2.3044774e-06
2.0289915e-06
1.8107157e-06
1.6176698e-06
1.4464015e-06
1.3165346e-06
1.2387781e-06
1.1872521e-06
1.1287138e-06
1.0888093e-06
1.0654293e-06
1.016904e-06
9.7361002e-07
9.3893825e-07
9.3953358e-07
9.5237549e-07
9.7016357e-07
1.000442e-06
1.0213735e-06
1.0280789e-06
1.0373569e-06
1.0579029e-06
1.0770406e-06
1.1073905e-06
1.1686169e-06
1.2441259e-06
1.2996652e-06
1.4014201e-06
1.592311e-06
2.0130012e-06
2.5315274e-06
3.4004305e-06
4.3587351e-06
6.7017589e-06
9.0917689e-06
1.3878497e-05
1.8910925e-05
2.4735264e-05
3.6160579e-05
5.0592953e-05
6.2243602e-05
7.8098052e-05
9.9110158e-05
0.00012562021
0.00014832162
0.00016608229
0.00018010201
0.00019463593
0.00021023255
0.00023990068
0.00027313968
0.00032340235
4.6772447e-06
3.6790226e-06
2.7783117e-06
2.3187163e-06
2.0381135e-06
1.8194916e-06
1.6247928e-06
1.4560832e-06
1.3199902e-06
1.2369736e-06
1.187736e-06
1.1337382e-06
1.0927861e-06
1.0678285e-06
1.0231009e-06
9.7532255e-07
9.3814579e-07
9.2608513e-07
9.3452426e-07
9.3931696e-07
9.6374063e-07
9.9504221e-07
1.0047189e-06
1.009047e-06
1.024327e-06
1.0346673e-06
1.050502e-06
1.0860606e-06
1.1399157e-06
1.1937681e-06
1.2675971e-06
1.3717818e-06
1.6057935e-06
2.013296e-06
2.4184168e-06
3.1954061e-06
5.0046343e-06
6.5122258e-06
9.3488556e-06
1.2940308e-05
1.7441293e-05
2.5223989e-05
4.067186e-05
5.3971162e-05
6.8673307e-05
8.7085437e-05
0.00011554541
0.0001375449
0.00016007511
0.0001748378
0.00019074771
0.00020041991
0.00022003919
0.00024382793
0.00028098624
4.6855376e-06
3.6928462e-06
2.7858017e-06
2.3224447e-06
2.0448164e-06
1.8296452e-06
1.636839e-06
1.4607812e-06
1.3390382e-06
1.2427922e-06
1.1882003e-06
1.1418669e-06
1.1078247e-06
1.0789895e-06
1.044903e-06
9.8442336e-07
9.4977446e-07
9.2896827e-07
9.328969e-07
9.4437792e-07
9.6017881e-07
9.9233559e-07
1.0078914e-06
1.015487e-06
1.0244533e-06
1.0283531e-06
1.0411791e-06
1.0723646e-06
1.1177371e-06
1.1759911e-06
1.2547402e-06
1.3481426e-06
1.5469792e-06
1.9100431e-06
2.2626511e-06
2.9988981e-06
4.5413818e-06
5.6954765e-06
7.485907e-06
1.0781042e-05
1.5163485e-05
1.9093134e-05
2.7999229e-05
3.6411538e-05
5.2933299e-05
7.0696943e-05
0.00010516477
0.00013204382
0.00016165243
0.00018140899
0.00019906029
0.00020872779
0.00022548093
0.00024838862
0.00027416191
4.6898809e-06
3.7080028e-06
2.7959684e-06
2.327343e-06
2.0499698e-06
1.8365838e-06
1.6434748e-06
1.464099e-06
1.3377485e-06
1.2441908e-06
1.198779e-06
1.1572943e-06
1.1213188e-06
1.0799237e-06
1.031447e-06
9.8315322e-07
9.4085816e-07
9.3009865e-07
9.2932307e-07
9.426147e-07
9.6521351e-07
9.9218977e-07
1.0044685e-06
1.0208336e-06
1.0330878e-06
1.0348961e-06
1.0436887e-06
1.0632915e-06
1.0974353e-06
1.1682782e-06
1.2671123e-06
1.3614056e-06
1.5352659e-06
1.8516435e-06
2.1973926e-06
2.95467e-06
4.2474469e-06
5.2624551e-06
6.657116e-06
1.0149641e-05
1.3561772e-05
1.7048847e-05
2.3770413e-05
3.0720307e-05
4.3106584e-05
5.60692e-05
8.3066167e-05
0.00011682654
0.00015130898
0.00017984773
0.00020765159
0.00023437385
0.00026026249
0.00029125001
0.00030532525
4.6953364e-06
3.7332762e-06
2.8072853e-06
2.3315537e-06
2.0660443e-06
1.8535499e-06
1.66038e-06
1.4822299e-06
1.3468484e-06
1.2496202e-06
1.2057436e-06
1.1586159e-06
1.1204607e-06
1.0944825e-06
1.06395e-06
1.004282e-06
9.5617754e-07
9.2708136e-07
9.2639888e-07
9.329273e-07
9.5758554e-07
9.97527e-07
1.0099981e-06
1.0226722e-06
1.0329275e-06
1.0340146e-06
1.0409751e-06
1.0539347e-06
1.0845665e-06
1.1657295e-06
1.2707418e-06
1.3655344e-06
1.4873429e-06
1.7157693e-06
1.9892095e-06
2.5450017e-06
3.5083022e-06
4.3022581e-06
5.6356823e-06
8.6593647e-06
1.0922212e-05
1.596389e-05
2.0506311e-05
2.9006413e-05
3.6138626e-05
4.9471266e-05
6.2473392e-05
8.5813375e-05
0.0001204835
0.00016281639
0.00019628239
0.00024177667
0.00027894655
0.00034379022
0.00037340359
4.6988278e-06
3.7451122e-06
2.8188036e-06
2.340245e-06
2.070474e-06
1.858561e-06
1.6719037e-06
1.486929e-06
1.355224e-06
1.2564209e-06
1.2062206e-06
1.1616592e-06
1.1356646e-06
1.100809e-06
1.0755251e-06
1.0105408e-06
9.668466e-07
9.4409233e-07
9.3249293e-07
9.3503885e-07
9.4548673e-07
9.8217192e-07
1.0123659e-06
1.0277367e-06
1.038522e-06
1.0365293e-06
1.0385515e-06
1.0480011e-06
1.0760813e-06
1.1532071e-06
1.2388094e-06
1.3571528e-06
1.4583009e-06
1.6569919e-06
1.9105962e-06
2.3887222e-06
3.2408073e-06
3.9805464e-06
5.3743198e-06
7.7198382e-06
9.5603232e-06
1.4039038e-05
1.8757673e-05
2.7324392e-05
3.3267502e-05
4.3443419e-05
5.3002063e-05
7.2526568e-05
9.0578811e-05
0.00012654989
0.00016222402
0.00022648539
0.00027465415
0.00035316851
0.000408902
4.7036949e-06
3.7530313e-06
2.8280845e-06
2.3492496e-06
2.0690765e-06
1.8586534e-06
1.6749327e-06
1.4846796e-06
1.3511616e-06
1.2505209e-06
1.203596e-06
1.1762454e-06
1.1517529e-06
1.1103081e-06
1.0702071e-06
1.0232854e-06
9.621578e-07
9.4603969e-07
9.383704e-07
9.4120868e-07
9.4974407e-07
9.7603993e-07
1.0077589e-06
1.0267506e-06
1.0405476e-06
1.0374117e-06
1.0378965e-06
1.0456478e-06
1.0685076e-06
1.1313043e-06
1.2073243e-06
1.3324788e-06
1.422185e-06
1.5967896e-06
1.8414775e-06
2.3496142e-06
2.9681149e-06
3.7201424e-06
5.2424927e-06
7.2407319e-06
9.0703446e-06
1.3646801e-05
1.8536987e-05
2.6722639e-05
3.2645211e-05
4.1007167e-05
4.9536095e-05
6.7999432e-05
8.1735372e-05
0.00010697489
0.00013191346
0.00018081602
0.00023201373
0.00031047766
0.00037603235
4.7084674e-06
3.7691089e-06
2.8383619e-06
2.3511928e-06
2.0777963e-06
1.86881e-06
1.6827942e-06
1.5007713e-06
1.3613329e-06
1.2563097e-06
1.2119663e-06
1.1870528e-06
1.1376966e-06
1.1129153e-06
1.0826894e-06
1.0413533e-06
9.7892911e-07
9.4078314e-07
9.3620355e-07
9.3919075e-07
9.5437296e-07
9.8505253e-07
1.0040871e-06
1.0232501e-06
1.040255e-06
1.0464633e-06
1.0557129e-06
1.0613465e-06
1.071305e-06
1.1156725e-06
1.1924103e-06
1.306739e-06
1.4055804e-06
1.5993704e-06
1.8378804e-06
2.3453149e-06
2.8471492e-06
3.6067021e-06
5.0871554e-06
6.8258082e-06
8.8584523e-06
1.3877853e-05
1.8262587e-05
2.542704e-05
3.1791376e-05
4.0944341e-05
5.119152e-05
6.6000821e-05
7.7731476e-05
0.00010053898
0.00012317637
0.00016286219
0.00020555876
0.00026311841
0.00031018893
4.7132413e-06
3.7816129e-06
2.8446823e-06
2.3589613e-06
2.0846812e-06
1.8714428e-06
1.69138e-06
1.5129255e-06
1.3703953e-06
1.264904e-06
1.2209518e-06
1.1813568e-06
1.1419863e-06
1.1190653e-06
1.0892811e-06
1.0328269e-06
9.8466815e-07
9.4446659e-07
9.3450742e-07
9.3657898e-07
9.4498932e-07
9.7754029e-07
1.0032448e-06
1.0225748e-06
1.0456833e-06
1.0675391e-06
1.0824827e-06
1.0843143e-06
1.0855131e-06
1.1131602e-06
1.167704e-06
1.2618842e-06
1.375355e-06
1.608759e-06
1.830345e-06
2.2516044e-06
2.6646443e-06
3.437799e-06
4.7950499e-06
6.1312267e-06
8.5136165e-06
1.4037871e-05
1.8190551e-05
2.3571266e-05
3.1535216e-05
4.2259538e-05
5.2256122e-05
6.455269e-05
7.6706007e-05
0.00010161812
0.00012651617
0.00016817572
0.00020792351
0.00026118433
0.00030107576
4.7171741e-06
3.7868125e-06
2.8462523e-06
2.3726083e-06
2.0888216e-06
1.8734959e-06
1.6940858e-06
1.5083573e-06
1.371033e-06
1.2623855e-06
1.2148726e-06
1.171833e-06
1.1632397e-06
1.1385525e-06
1.0905559e-06
1.0407412e-06
9.8617882e-07
9.508889e-07
9.3607412e-07
9.4105466e-07
9.453791e-07
9.667921e-07
1.004044e-06
1.0251537e-06
1.0485088e-06
1.074366e-06
1.0844528e-06
1.0836873e-06
1.085119e-06
1.1042584e-06
1.1459001e-06
1.2218196e-06
1.3310777e-06
1.5799906e-06
1.8010697e-06
2.1435962e-06
2.4714656e-06
3.0701828e-06
4.4091285e-06
5.6517788e-06
8.0158523e-06
1.2971426e-05
1.676624e-05
2.0790495e-05
2.9692741e-05
4.121726e-05
5.018693e-05
6.172446e-05
7.593409e-05
0.00010087705
0.00012894721
0.00017638212
0.00022154507
0.00028492915
0.00033821604
4.7214368e-06
3.7951779e-06
2.8509174e-06
2.3747207e-06
2.0928124e-06
1.8826011e-06
1.7009208e-06
1.5075756e-06
1.3715057e-06
1.2627517e-06
1.2093221e-06
1.1740364e-06
1.163048e-06
1.1367323e-06
1.0946779e-06
1.0666215e-06
1.0063476e-06
9.5511704e-07
9.3591106e-07
9.4320289e-07
9.5194108e-07
9.640866e-07
9.965346e-07
1.0222725e-06
1.0461459e-06
1.0681229e-06
1.0705182e-06
1.066735e-06
1.0657934e-06
1.0796906e-06
1.1183079e-06
1.2038315e-06
1.2990886e-06
1.4918829e-06
1.7538961e-06
2.0089795e-06
2.3481817e-06
2.9003221e-06
4.0291633e-06
5.1390473e-06
7.2514452e-06
1.1585449e-05
1.5072922e-05
1.836008e-05
2.5902414e-05
3.6089704e-05
4.481399e-05
5.6639007e-05
7.1606691e-05
9.4331139e-05
0.00012327266
0.00017013002
0.00022351475
0.00030401252
0.00037221735
4.7250022e-06
3.8077101e-06
2.8598276e-06
2.3720638e-06
2.0956282e-06
1.8903378e-06
1.7143997e-06
1.5283165e-06
1.3813063e-06
1.2746845e-06
1.2182495e-06
1.1927682e-06
1.156441e-06
1.1304306e-06
1.0912633e-06
1.0700609e-06
1.0213362e-06
9.6203074e-07
9.3626048e-07
9.4108224e-07
9.5185292e-07
9.6522944e-07
9.869488e-07
1.0162246e-06
1.0407566e-06
1.0572218e-06
1.0640924e-06
1.0648265e-06
1.0622747e-06
1.0726812e-06
1.1074012e-06
1.1934083e-06
1.2954653e-06
1.4083676e-06
1.668762e-06
1.8957398e-06
2.3123307e-06
2.7643129e-06
3.7266799e-06
4.7049527e-06
6.5670045e-06
9.8151861e-06
1.3140843e-05
1.595984e-05
2.2172428e-05
2.9895925e-05
3.8631754e-05
5.0175558e-05
6.4232399e-05
8.2863224e-05
0.00010621114
0.00014250898
0.00019190125
0.00026799537
0.00034436657
4.7275269e-06
3.8184653e-06
2.8677475e-06
2.3770065e-06
2.1028559e-06
1.8931568e-06
1.7227817e-06
1.5451605e-06
1.3893377e-06
1.2828416e-06
1.2302356e-06
1.2013711e-06
1.1613805e-06
1.1419004e-06
1.0998689e-06
1.066751e-06
1.0137561e-06
9.6883767e-07
9.4170039e-07
9.3956554e-07
9.4675305e-07
9.6264969e-07
9.8240572e-07
1.0157743e-06
1.0416517e-06
1.0554058e-06
1.0712606e-06
1.0781333e-06
1.076147e-06
1.0846892e-06
1.1089561e-06
1.1717238e-06
1.282235e-06
1.3846941e-06
1.6195689e-06
1.8446638e-06
2.2569158e-06
2.6769389e-06
3.589457e-06
4.4565857e-06
6.2084653e-06
8.1794557e-06
1.1745359e-05
1.4470318e-05
1.987705e-05
2.5800212e-05
3.423181e-05
4.4939795e-05
5.7371638e-05
7.3660788e-05
9.31036e-05
0.00011797922
0.00015313813
0.00020823536
0.00027562837
4.7286029e-06
3.8233908e-06
2.872515e-06
2.3855443e-06
2.1116795e-06
1.8985638e-06
1.7212817e-06
1.5446212e-06
1.3896349e-06
1.2788876e-06
1.2305025e-06
1.1916167e-06
1.1735012e-06
1.1455675e-06
1.1194577e-06
1.0714475e-06
1.0157053e-06
9.7241031e-07
9.4436554e-07
9.3950398e-07
9.4266354e-07
9.5128717e-07
9.7614207e-07
1.0140888e-06
1.0403655e-06
1.0581401e-06
1.0805237e-06
1.0861337e-06
1.0854675e-06
1.095827e-06
1.1141178e-06
1.1519743e-06
1.2573981e-06
1.3706428e-06
1.6183326e-06
1.8405375e-06
2.2393985e-06
2.596504e-06
3.3770028e-06
4.1772875e-06
5.9700528e-06
7.5707601e-06
1.0727925e-05
1.3477925e-05
1.8558581e-05
2.3750762e-05
3.142902e-05
4.1683421e-05
5.3258124e-05
6.7510058e-05
8.4126608e-05
0.00010349631
0.00012967997
0.00016840294
0.00022058873
4.7293576e-06
3.8275132e-06
2.8791287e-06
2.3886884e-06
2.1130639e-06
1.9038168e-06
1.7191303e-06
1.5356485e-06
1.3841153e-06
1.2739968e-06
1.2175399e-06
1.1748095e-06
1.1661867e-06
1.1384902e-06
1.1183311e-06
1.0762835e-06
1.0200557e-06
9.6931765e-07
9.3868832e-07
9.3388009e-07
9.3513699e-07
9.4109362e-07
9.6627694e-07
1.0052275e-06
1.0244946e-06
1.050932e-06
1.0749965e-06
1.0786047e-06
1.0829641e-06
1.0980606e-06
1.1145903e-06
1.1421578e-06
1.2244528e-06
1.3410493e-06
1.6119025e-06
1.8471904e-06
2.24489e-06
2.5604388e-06
3.2203153e-06
3.9399763e-06
5.594227e-06
7.14915e-06
1.0262769e-05
1.2933917e-05
1.7855937e-05
2.3050857e-05
2.9979543e-05
3.9763942e-05
5.1234348e-05
6.4701494e-05
7.9915464e-05
9.725417e-05
0.00011929565
0.00014877165
0.00019175382
4.7295277e-06
3.834676e-06
2.888525e-06
2.3890848e-06
2.1074547e-06
1.9058943e-06
1.7224258e-06
1.5345589e-06
1.3838466e-06
1.2775331e-06
1.2077471e-06
1.1739431e-06
1.1582423e-06
1.1268106e-06
1.1011614e-06
1.0688921e-06
1.0128739e-06
9.60395e-07
9.3266666e-07
9.2998814e-07
9.3203475e-07
9.3838428e-07
9.6283914e-07
9.9852048e-07
1.0133455e-06
1.0375216e-06
1.0612631e-06
1.0681967e-06
1.0771481e-06
1.0937589e-06
1.1053992e-06
1.1284661e-06
1.1956663e-06
1.3035255e-06
1.5724007e-06
1.8124891e-06
2.2090062e-06
2.5037709e-06
3.0843785e-06
3.7140791e-06
5.1268107e-06
6.4800945e-06
9.3150885e-06
1.1906138e-05
1.663429e-05
2.2076908e-05
2.8569242e-05
3.8195521e-05
5.0130878e-05
6.3735473e-05
7.9133818e-05
9.6000375e-05
0.00011640847
0.00014189369
0.0001797272
4.730634e-06
3.8463745e-06
2.8984387e-06
2.3935297e-06
2.1042715e-06
1.9084636e-06
1.7327085e-06
1.5488636e-06
1.3949831e-06
1.2888994e-06
1.2108971e-06
1.185613e-06
1.1580753e-06
1.1340744e-06
1.0960115e-06
1.0641438e-06
1.0070069e-06
9.6229772e-07
9.3830429e-07
9.3207358e-07
9.3422653e-07
9.426506e-07
9.6874414e-07
9.9874824e-07
1.0167502e-06
1.0341481e-06
1.0507974e-06
1.0646515e-06
1.0813634e-06
1.0918902e-06
1.0979651e-06
1.1189069e-06
1.1811485e-06
1.2703779e-06
1.4953051e-06
1.7091385e-06
2.0779376e-06
2.3833242e-06
2.885534e-06
3.4304133e-06
4.5631993e-06
5.5793346e-06
7.7999168e-06
1.0054914e-05
1.4028472e-05
1.9726842e-05
2.5861751e-05
3.5012446e-05
4.7128706e-05
6.1052098e-05
7.7249342e-05
9.4691824e-05
0.00011415131
0.00013773715
0.00017273844
4.7308704e-06
3.8571763e-06
2.9059198e-06
2.403221e-06
2.1099542e-06
1.9133103e-06
1.7479291e-06
1.5727018e-06
1.4116268e-06
1.3009127e-06
1.2290801e-06
1.2042236e-06
1.1722287e-06
1.1607471e-06
1.1220218e-06
1.08546e-06
1.0223353e-06
9.8182218e-07
9.564421e-07
9.4230029e-07
9.439235e-07
9.5183959e-07
9.7365548e-07
9.9889467e-07
1.0246459e-06
1.0343666e-06
1.0436505e-06
1.0653229e-06
1.0866226e-06
1.0936702e-06
1.0968397e-06
1.1151273e-06
1.1681262e-06
1.2348721e-06
1.3848094e-06
1.5550629e-06
1.7953976e-06
2.2280517e-06
2.6073305e-06
3.1062323e-06
4.0579283e-06
4.8501882e-06
6.3136484e-06
8.4656032e-06
1.0658871e-05
1.5350153e-05
2.1292809e-05
2.8841942e-05
3.9711945e-05
5.2922655e-05
6.8487504e-05
8.5877946e-05
0.00010466077
0.00012595911
0.00015764988
4.7323968e-06
3.864487e-06
2.9114704e-06
2.4112564e-06
2.1223284e-06
1.9205159e-06
1.7562208e-06
1.5842587e-06
1.4207113e-06
1.3048446e-06
1.2446401e-06
1.2097132e-06
1.1825993e-06
1.1762241e-06
1.1494505e-06
1.107976e-06
1.0401073e-06
9.994176e-07
9.6906459e-07
9.4994547e-07
9.5126665e-07
9.5779755e-07
9.7535949e-07
1.0010968e-06
1.03138e-06
1.0406253e-06
1.0475369e-06
1.068718e-06
1.0929395e-06
1.106159e-06
1.1150294e-06
1.1314725e-06
1.1733112e-06
1.2292112e-06
1.3416364e-06
1.4886922e-06
1.6863809e-06
2.113057e-06
2.5438493e-06
2.9671102e-06
3.8725885e-06
4.6851988e-06
5.793363e-06
7.9131755e-06
9.6009701e-06
1.251408e-05
1.6949468e-05
2.2882317e-05
2.9704514e-05
3.9755528e-05
5.3314217e-05
6.8304763e-05
8.710362e-05
0.00010408805
0.00013126274
4.7309531e-06
3.8624478e-06
2.9127775e-06
2.412641e-06
2.1287619e-06
1.92269e-06
1.754601e-06
1.5809964e-06
1.4182597e-06
1.2979991e-06
1.2436804e-06
1.1960543e-06
1.1791454e-06
1.1654086e-06
1.1431458e-06
1.1092244e-06
1.0483001e-06
1.005425e-06
9.7640821e-07
9.6093602e-07
9.6286421e-07
9.6992275e-07
9.9372916e-07
1.0257097e-06
1.0621763e-06
1.081391e-06
1.0958155e-06
1.1229363e-06
1.1563703e-06
1.1878461e-06
1.2298462e-06
1.2633344e-06
1.3241634e-06
1.3817364e-06
1.4500534e-06
1.5805529e-06
1.7488434e-06
2.1046886e-06
2.6013968e-06
3.0187761e-06
3.8832389e-06
4.8301323e-06
5.8309894e-06
7.8218399e-06
9.4490753e-06
1.1632581e-05
1.5211756e-05
1.9256389e-05
2.4550389e-05
2.9819649e-05
3.8591367e-05
4.6920949e-05
6.3104772e-05
7.6939159e-05
9.9023704e-05
4.7330487e-06
3.8616621e-06
2.913062e-06
2.407904e-06
2.1231439e-06
1.9160076e-06
1.7382076e-06
1.5640969e-06
1.4073578e-06
1.287377e-06
1.2287186e-06
1.1817807e-06
1.1696553e-06
1.1542615e-06
1.1439327e-06
1.1254032e-06
1.0867838e-06
1.0593046e-06
1.0473281e-06
1.0508217e-06
1.0618044e-06
1.082641e-06
1.1319004e-06
1.1864056e-06
1.2468818e-06
1.3055723e-06
1.3420414e-06
1.4037032e-06
1.4831378e-06
1.5864644e-06
1.7010517e-06
1.8135256e-06
1.9769174e-06
2.0899283e-06
2.1564058e-06
2.2939016e-06
2.483077e-06
2.7575492e-06
3.3156104e-06
3.7428598e-06
4.5923785e-06
5.7685752e-06
7.0707439e-06
8.7809763e-06
1.0430351e-05
1.2048119e-05
1.508274e-05
1.7908058e-05
2.2693539e-05
2.6161512e-05
3.2062304e-05
3.6582657e-05
4.5350535e-05
5.2818521e-05
6.6655639e-05
4.726322e-06
3.8448788e-06
2.9023918e-06
2.3912922e-06
2.1018283e-06
1.899747e-06
1.7253247e-06
1.5642071e-06
1.4199472e-06
1.3145112e-06
1.2645837e-06
1.2356221e-06
1.2334705e-06
1.2437791e-06
1.2717163e-06
1.3046733e-06
1.3230061e-06
1.3451091e-06
1.3773749e-06
1.4269103e-06
1.5137202e-06
1.5759604e-06
1.6927032e-06
1.8012848e-06
1.9254113e-06
2.0841305e-06
2.1827112e-06
2.3618019e-06
2.5898585e-06
2.8648379e-06
3.1575414e-06
3.4708423e-06
3.9184652e-06
4.3025904e-06
4.506776e-06
4.7629023e-06
5.1506556e-06
5.4365636e-06
6.0970421e-06
6.6392832e-06
7.637804e-06
9.0533603e-06
1.1084377e-05
1.259744e-05
1.4378711e-05
1.5401068e-05
1.756972e-05
1.95336e-05
2.335438e-05
2.5897367e-05
3.0313884e-05
3.3318631e-05
3.9101966e-05
4.3976177e-05
5.1124689e-05
4.7170767e-06
3.8110565e-06
2.8805142e-06
2.3797748e-06
2.1031329e-06
1.933749e-06
1.8065911e-06
1.7078585e-06
1.6226054e-06
1.5857956e-06
1.5946026e-06
1.6309398e-06
1.6771253e-06
1.7800205e-06
1.9271881e-06
2.1105902e-06
2.2722398e-06
2.4076887e-06
2.558654e-06
2.7788434e-06
3.0438333e-06
3.2182926e-06
3.4824701e-06
3.7483451e-06
4.015279e-06
4.4156615e-06
4.6812379e-06
5.1013414e-06
5.7552058e-06
6.4219274e-06
7.1894646e-06
7.9651475e-06
8.9613945e-06
1.0126306e-05
1.0956728e-05
1.1552512e-05
1.2407486e-05
1.2904645e-05
1.3849679e-05
1.4587902e-05
1.6061484e-05
1.7462631e-05
2.0138098e-05
2.1889861e-05
2.4055768e-05
2.5042434e-05
2.6637821e-05
2.7643955e-05
2.9797566e-05
3.1236675e-05
3.405935e-05
3.6041572e-05
3.9712281e-05
4.3577917e-05
4.7076444e-05
4.6544296e-06
3.78442e-06
2.9864843e-06
2.5925198e-06
2.423671e-06
2.411088e-06
2.4613539e-06
2.6001929e-06
2.7756663e-06
2.9704515e-06
3.166707e-06
3.4056257e-06
3.6080983e-06
3.9149875e-06
4.2964066e-06
4.7707528e-06
5.2503518e-06
5.6298886e-06
6.0719321e-06
6.6520905e-06
7.2401331e-06
7.6942473e-06
8.1946643e-06
8.8453706e-06
9.3555567e-06
1.01711e-05
1.0791718e-05
1.1532157e-05
1.3160561e-05
1.4564696e-05
1.6039053e-05
1.7622682e-05
1.9589392e-05
2.20163e-05
2.3889586e-05
2.5211556e-05
2.6772909e-05
2.8114922e-05
2.9666312e-05
3.0978351e-05
3.3069402e-05
3.4492562e-05
3.647192e-05
3.8340868e-05
4.0861411e-05
4.2889351e-05
4.5333482e-05
4.6658716e-05
4.7786417e-05
4.8124052e-05
4.8652504e-05
4.897219e-05
4.9704238e-05
5.0948506e-05
5.2079556e-05
4.9236965e-06
5.0148192e-06
4.9208081e-06
4.9244816e-06
5.192155e-06
5.5897252e-06
6.246888e-06
6.9456099e-06
7.7559107e-06
8.5811308e-06
9.0440552e-06
9.574989e-06
9.9061189e-06
1.0354097e-05
1.093614e-05
1.1716162e-05
1.2511257e-05
1.3192725e-05
1.4007105e-05
1.5012867e-05
1.599049e-05
1.6822782e-05
1.7503224e-05
1.8449128e-05
1.9195029e-05
2.0135505e-05
2.097161e-05
2.1870085e-05
2.3831398e-05
2.5556081e-05
2.6811017e-05
2.8310456e-05
2.9994184e-05
3.2323635e-05
3.4778868e-05
3.6524052e-05
3.7799325e-05
3.9112628e-05
4.1186637e-05
4.3276072e-05
4.5152842e-05
4.5761955e-05
4.6019631e-05
4.6943604e-05
4.8672936e-05
5.071328e-05
5.3097369e-05
5.5043899e-05
5.5996166e-05
5.5661365e-05
5.5239687e-05
5.4639156e-05
5.4929104e-05
5.5797443e-05
5.7056765e-05
9.3943779e-06
1.8933065e-05
2.0296838e-05
2.0372785e-05
2.1156425e-05
2.1757357e-05
2.2431455e-05
2.294585e-05
2.3638829e-05
2.4500113e-05
2.4632177e-05
2.4806038e-05
2.4763899e-05
2.4588281e-05
2.4565833e-05
2.4768608e-05
2.5037657e-05
2.5200207e-05
2.5370855e-05
2.5866357e-05
2.650021e-05
2.6738949e-05
2.6933999e-05
2.7431389e-05
2.7975382e-05
2.8313036e-05
2.8486116e-05
2.8580378e-05
2.8911005e-05
2.9545091e-05
3.0405923e-05
3.1109755e-05
3.1866723e-05
3.3196346e-05
3.4984544e-05
3.6504959e-05
3.7438365e-05
3.7952547e-05
3.9078033e-05
4.0880248e-05
4.2610749e-05
4.3221261e-05
4.3057105e-05
4.2800205e-05
4.3139146e-05
4.4260533e-05
4.5963041e-05
4.7894598e-05
4.942768e-05
4.9683474e-05
4.9319857e-05
4.8906693e-05
4.8909412e-05
4.9162531e-05
5.0578882e-05
7.6153289e-05
0.00011310197
9.8100938e-05
8.3765698e-05
7.2397084e-05
6.3869596e-05
5.694845e-05
5.1983433e-05
4.8972621e-05
4.7078488e-05
4.6575442e-05
4.6526664e-05
4.6444601e-05
4.6018758e-05
4.4645282e-05
4.2447191e-05
4.0508155e-05
3.9067328e-05
3.7729147e-05
3.7155063e-05
3.7882715e-05
3.9041916e-05
4.0190528e-05
4.1684547e-05
4.3439081e-05
4.4440562e-05
4.441421e-05
4.3878629e-05
4.3715895e-05
4.4563905e-05
4.5568199e-05
4.5757668e-05
4.4673865e-05
4.382553e-05
4.439679e-05
4.5518577e-05
4.5814446e-05
4.4880741e-05
4.3765804e-05
4.3353503e-05
4.3924767e-05
4.4384922e-05
4.3766998e-05
4.2062834e-05
3.9964812e-05
3.8442584e-05
3.7910699e-05
3.8895582e-05
4.0600315e-05
4.2241099e-05
4.2956901e-05
4.2214425e-05
4.1017398e-05
3.9934578e-05
3.9920261e-05
4.1033228e-05
5.2007812e-05
5.8729763e-05
5.4322293e-05
5.158155e-05
5.8095285e-05
7.9597084e-05
0.00012179984
0.00016425375
0.00019746248
0.00021828402
0.00023180008
0.00025325647
0.00029360999
0.00036426716
0.00044040328
0.00046119643
0.00042723308
0.00038434099
0.00039604765
0.00044828776
0.00047661805
0.00045343219
0.00036793405
0.00031338781
0.00033866094
0.00039827531
4.408365e-05
5.2462969e-05
5.9733057e-05
5.7436399e-05
5.7725733e-05
6.7620193e-05
9.8165922e-05
0.00015250487
0.00020228374
0.00024160778
0.00026968452
0.0002908311
0.0003220072
0.00037621665
0.0004660065
0.00054827526
0.00056377202
0.00052826076
0.00047950282
0.00048534045
0.0005264569
0.00054270691
0.00051961594
0.00044641642
0.00040702845
0.00043860281
0.00048422237
4.7735522e-05
5.0522799e-05
5.955285e-05
5.994572e-05
6.3112067e-05
7.802512e-05
0.00011889446
0.00018029487
0.00023636119
0.00028687697
0.0003262734
0.00035608365
0.00039538766
0.00046438409
0.00057473992
0.00066707971
0.00067900202
0.00062990745
0.00057464604
0.00057293467
0.00060826454
0.00061199171
0.00058594645
0.00053143723
0.00048993615
0.00052739051
0.00059623158
4.9700915e-05
4.8024036e-05
5.8064065e-05
6.0906822e-05
6.7105939e-05
8.7016817e-05
0.00013805339
0.00020565134
0.00027366442
0.0003392177
0.0003908937
0.00042798518
0.00047500555
0.00056079579
0.00069521793
0.00080615012
0.00081846139
0.00075399606
0.00068604166
0.00066731414
0.0007002584
0.00072645012
0.00070350683
0.00063828289
0.0005539592
0.00057782458
0.0006959681
4.8901028e-05
4.5376709e-05
5.6457163e-05
6.1890701e-05
7.1677744e-05
9.7460036e-05
0.00015848807
0.00023344293
0.00031733052
0.00039706528
0.0004555979
0.00049278632
0.00055038259
0.00065720146
0.00082509181
0.00096241474
0.00098406412
0.00091188078
0.00082643593
0.00079273456
0.00082018038
0.00086667011
0.00085398946
0.00077062606
0.00063921482
0.00062870429
0.00076982599
4.7165811e-05
4.3192274e-05
5.6236827e-05
6.4718451e-05
7.9673431e-05
0.00011437174
0.00018172032
0.00026923619
0.00037015027
0.00045761675
0.00051326062
0.00055158672
0.00062093201
0.00074605556
0.00093695513
0.0010983853
0.0011435715
0.0010885128
0.00099556271
0.00094993536
0.00097536704
0.0010265081
0.0010149076
0.00091669182
0.00074355492
0.00069392298
0.0008303123
4.5936615e-05
4.1407111e-05
5.7312131e-05
6.9593147e-05
8.9172477e-05
0.00013100762
0.00020787893
0.00031789255
0.0004342771
0.00052027824
0.00057116147
0.00061221859
0.0006897988
0.00082634364
0.0010266671
0.0012012056
0.0012628278
0.0012365498
0.0011622358
0.0011275617
0.0011580235
0.0012050774
0.0012056177
0.0010993529
0.00087028549
0.00077224507
0.00089274003
4.8794384e-05
4.0378846e-05
5.8287262e-05
7.4909295e-05
9.8682899e-05
0.0001494229
0.00024854482
0.00038380834
0.00050442902
0.00058557027
0.00063665438
0.00068115696
0.00076099244
0.00090103173
0.0011103771
0.0012968096
0.001360604
0.001341704
0.0013062989
0.0013065161
0.0013498739
0.0014026771
0.0014274159
0.0013505199
0.0010685408
0.00087735167
0.00096475195
5.7330576e-05
3.8598601e-05
5.7430757e-05
7.873285e-05
0.00010697452
0.00016948669
0.00029292079
0.00043798535
0.00055999809
0.00064695583
0.00070999932
0.00076320715
0.00085519526
0.0010162756
0.0012487067
0.0014361837
0.0014803264
0.0014452801
0.0014258606
0.0014656144
0.0015330829
0.0016001157
0.0016461266
0.0016180625
0.0013524829
0.0010402075
0.0010575178
6.7412262e-05
3.6277555e-05
5.4506503e-05
7.8689088e-05
0.00011270288
0.00018759969
0.00032609549
0.00047865552
0.0006115814
0.00071297317
0.00079002142
0.00085913848
0.00098084976
0.0011854499
0.0014547732
0.0016334691
0.0016558527
0.0015939039
0.0015521273
0.0015854165
0.0016746096
0.0017627975
0.0018127946
0.0018080246
0.0016198389
0.0012581589
0.0011764077
7.2752348e-05
3.3898526e-05
4.9741974e-05
7.5876036e-05
0.00011517512
0.00020312376
0.00036090203
0.00053325177
0.00068373752
0.00079693104
0.00088430544
0.00097172812
0.0011248203
0.0013703015
0.0016731842
0.0018654392
0.0018842853
0.0018005051
0.0017230932
0.0017248
0.0017979571
0.0018683291
0.0019087138
0.0019358207
0.0018217869
0.0014506916
0.0012849787
7.4841137e-05
3.1144232e-05
4.4055608e-05
7.3842252e-05
0.00012348376
0.00023616768
0.00042046498
0.00061281733
0.00077506912
0.00089617529
0.00099082655
0.0010904469
0.0012597383
0.0015288216
0.0018633635
0.0020892784
0.0021275946
0.0020327434
0.0019437547
0.0019447215
0.0019942023
0.0019963602
0.0019864767
0.0020440032
0.0020033688
0.0016489738
0.0013480453
7.8350976e-05
2.9337355e-05
4.1717723e-05
7.7618195e-05
0.00014649918
0.00029827849
0.00050965298
0.00071027948
0.0008691891
0.00098604158
0.001073662
0.0011786226
0.0013693302
0.0016685554
0.0020292654
0.0022703549
0.0023325007
0.0022658393
0.0022026191
0.0022229423
0.0022781723
0.0022531848
0.0021611865
0.0022025217
0.0021988383
0.0018641495
0.0014111971
8.4337684e-05
2.9575856e-05
4.4157456e-05
8.9826591e-05
0.00019525124
0.00039989536
0.00062725011
0.00081821995
0.00095856807
0.0010488638
0.0011210599
0.0012320892
0.0014460461
0.0017768651
0.0021612979
0.0024166398
0.0024829809
0.0024520323
0.0024381839
0.0025057967
0.0026212965
0.0026188903
0.0024917744
0.0024729522
0.0024409518
0.0021047261
0.0015345813
9.3776129e-05
3.1105326e-05
4.9737906e-05
0.00012045145
0.00029280878
0.00054258322
0.00076413564
0.00092811742
0.0010296059
0.001092037
0.0011577019
0.0012797373
0.0015110607
0.0018554089
0.0022490007
0.0025217491
0.0025994558
0.0025848439
0.0025950942
0.0027073368
0.0029037294
0.003008837
0.0029205326
0.0028124761
0.0027414701
0.0023828299
0.0017219903
0.00010309504
3.2344953e-05
6.2309993e-05
0.00018041228
0.00041829864
0.00066354366
0.00085936001
0.00098229795
0.0010520424
0.0010994901
0.0011567526
0.00129211
0.0015577008
0.0019332087
0.0023371758
0.0026280076
0.0027125504
0.0026915742
0.0026971665
0.0028155195
0.0030861871
0.0032852389
0.0032846538
0.0031364347
0.0030421223
0.0027258878
0.0020026709
0.00010319005
3.5963953e-05
8.8621894e-05
0.00025734589
0.00050178992
0.00072628613
0.00088620024
0.00098132189
0.0010340329
0.0010598552
0.0011040412
0.0012568418
0.0015672891
0.0020003806
0.0024525953
0.0027892869
0.0028980735
0.0028711565
0.0028448615
0.0029415874
0.0032275667
0.0035123108
0.0035813189
0.00337976
0.0032696855
0.0031019804
0.0024353521
9.2802674e-05
4.7108807e-05
0.00012036666
0.00031547724
0.00054592789
0.00074486261
0.00087971521
0.00095270903
0.00098380488
0.00099647492
0.0010400099
0.0012096629
0.0015415029
0.0020008334
0.0024997588
0.0029147307
0.003110031
0.0031374179
0.0031235213
0.0032084989
0.0034841911
0.00375734
0.0038343515
0.0035859662
0.003407195
0.0033779578
0.0029960892
7.6248709e-05
5.5591353e-05
0.00013971216
0.00034902686
0.00057176764
0.00075340804
0.00086162363
0.00091400261
0.0009338256
0.00094229032
0.00098480341
0.0011499622
0.0014753911
0.0019284225
0.0024470155
0.0029284794
0.0032460294
0.0033858418
0.0034475138
0.00358172
0.0038858742
0.0041582912
0.004140427
0.003777675
0.003448651
0.0034596211
0.0033718683
6.2711806e-05
5.8474193e-05
0.00015596304
0.00037744703
0.00059380256
0.00076234379
0.00085397164
0.00088990689
0.00089731662
0.0008956627
0.00092246348
0.0010510501
0.0013284125
0.0017343639
0.0022472605
0.0027795375
0.0032247135
0.003524909
0.0037208838
0.0039055338
0.0042278412
0.0045654169
0.0045702326
0.0041618973
0.0035612061
0.0034298059
0.0034800703
6.2329987e-05
6.2290379e-05
0.00016919075
0.00039366513
0.00060628359
0.0007603995
0.00083338183
0.00085310943
0.00084985624
0.00084044557
0.00084501465
0.00091423812
0.0011121808
0.0014456483
0.0018936571
0.0024221721
0.0029784146
0.0034571609
0.0038555273
0.0041336736
0.0043821733
0.0047375323
0.0048743369
0.004630724
0.0039591408
0.0035395006
0.0035344559
7.442404e-05
6.2853906e-05
0.00016571283
0.00037715236
0.00058507136
0.0007258721
0.0007860266
0.00079909958
0.00079123653
0.00077124834
0.00076324255
0.00079217818
0.00092316148
0.0011903781
0.0015627513
0.0020350994
0.002590926
0.0031974398
0.0037533332
0.0041613892
0.0044297825
0.0046919774
0.0049481088
0.0049295258
0.0045192532
0.003947776
0.0037645341
9.1514144e-05
5.2399892e-05
0.00011729119
0.00027020098
0.000469347
0.00061529291
0.00067806467
0.00069363613
0.00068990632
0.00067693037
0.0006727055
0.00069802856
0.00078716996
0.00098954419
0.0013134198
0.0017598527
0.0023173055
0.0029423773
0.0035207791
0.0039950096
0.0043022644
0.004569417
0.0048867496
0.0050302011
0.0049301242
0.0045623093
0.0042620051
0.00010598416
4.3636429e-05
6.5208656e-05
0.00013385616
0.00026827818
0.00039969153
0.00047889998
0.0005158809
0.00053204133