/*--------------------------------*- C++ -*----------------------------------*\
| =========                 |                                                 |
| \\      /  F ield         | OpenFOAM: The Open Source CFD Toolbox           |
|  \\    /   O peration     | Version:  2406                                  |
|   \\  /    A nd           | Website:  www.openfoam.com                      |
|    \\/     M anipulation  |                                                 |
\*---------------------------------------------------------------------------*/
FoamFile
{
    version     2.0;
    format      ascii;
    arch        "LSB;label=32;scalar=64";
    class       volScalarField;
    location    "23";
    object      k;
}
// * * * * * * * * * * * * * * * * * * * * * * * * * * * * * * * * * * * * * //

dimensions      [0 2 -2 0 0 0 0];

internalField   nonuniform List<scalar> 
96472
(
3.2857843e-06
2.741898e-06
2.24891e-06
1.9106126e-06
1.6758073e-06
1.4782245e-06
1.293472e-06
1.1362234e-06
1.0218714e-06
9.4790201e-07
8.9909539e-07
8.5818078e-07
8.1493018e-07
7.6662319e-07
7.1735546e-07
6.7205864e-07
6.3579188e-07
6.097857e-07
5.9443248e-07
5.8608595e-07
5.8229339e-07
5.7905354e-07
5.7366718e-07
5.642308e-07
5.5087201e-07
5.348976e-07
5.1691463e-07
4.9960972e-07
4.8178619e-07
4.6818474e-07
4.5549078e-07
4.4729488e-07
4.4430087e-07
4.430169e-07
4.4692767e-07
4.4646458e-07
4.5230107e-07
4.5424873e-07
4.6116113e-07
4.6630656e-07
4.7405328e-07
4.8135206e-07
4.9014562e-07
4.9901164e-07
5.1497268e-07
5.2545782e-07
5.4098329e-07
5.5713337e-07
5.7865363e-07
6.0169037e-07
6.3068027e-07
6.6858103e-07
7.042692e-07
7.5093038e-07
8.263912e-07
3.2805289e-06
2.7301845e-06
2.2439366e-06
1.9078522e-06
1.6739713e-06
1.4780516e-06
1.2951662e-06
1.1384458e-06
1.0234228e-06
9.4865185e-07
8.9981684e-07
8.5970099e-07
8.1761831e-07
7.704387e-07
7.2157538e-07
6.7593223e-07
6.3875687e-07
6.1161259e-07
5.9531729e-07
5.8631546e-07
5.8231951e-07
5.7942885e-07
5.7471681e-07
5.6607552e-07
5.53931e-07
5.3842845e-07
5.208344e-07
5.0246007e-07
4.8391045e-07
4.6825855e-07
4.5426397e-07
4.4345795e-07
4.3627348e-07
4.3308666e-07
4.3345183e-07
4.3424172e-07
4.3829715e-07
4.42612e-07
4.513978e-07
4.5902368e-07
4.6855645e-07
4.7837384e-07
4.8678704e-07
4.9843216e-07
5.1011824e-07
5.2460086e-07
5.3394473e-07
5.5269454e-07
5.639518e-07
5.8786551e-07
6.0200788e-07
6.302619e-07
6.6178702e-07
6.8889577e-07
7.615259e-07
3.277898e-06
2.7253142e-06
2.2430364e-06
1.9080168e-06
1.6755983e-06
1.4820415e-06
1.3004535e-06
1.1430187e-06
1.0262594e-06
9.5015144e-07
9.0085812e-07
8.612346e-07
8.1997951e-07
7.7354322e-07
7.2490857e-07
6.7910728e-07
6.4125354e-07
6.1330777e-07
5.960619e-07
5.866204e-07
5.8238975e-07
5.7968356e-07
5.7563676e-07
5.6751516e-07
5.558717e-07
5.4085972e-07
5.2360185e-07
5.0562325e-07
4.8760307e-07
4.7147982e-07
4.5694095e-07
4.4570938e-07
4.3709068e-07
4.3305966e-07
4.3161743e-07
4.3166804e-07
4.3249506e-07
4.3503803e-07
4.3875137e-07
4.4652828e-07
4.5277594e-07
4.6562391e-07
4.7310272e-07
4.8947103e-07
4.9836916e-07
5.1763872e-07
5.2674333e-07
5.4653978e-07
5.5637857e-07
5.7571943e-07
5.9447987e-07
6.0844566e-07
6.3545637e-07
6.5242398e-07
6.9754665e-07
3.2772213e-06
2.7241631e-06
2.2434871e-06
1.908761e-06
1.6779397e-06
1.4865997e-06
1.3059281e-06
1.1477035e-06
1.029308e-06
9.5188145e-07
9.0213713e-07
8.6292514e-07
8.2250291e-07
7.7688883e-07
7.284603e-07
6.8247644e-07
6.4384785e-07
6.150795e-07
5.9684257e-07
5.8694378e-07
5.8238217e-07
5.799722e-07
5.7640163e-07
5.6911414e-07
5.5821244e-07
5.4390177e-07
5.2710378e-07
5.092032e-07
4.9102613e-07
4.7457202e-07
4.5984329e-07
4.48061e-07
4.3857417e-07
4.3339103e-07
4.3129062e-07
4.3118301e-07
4.315731e-07
4.3321463e-07
4.3552491e-07
4.4093447e-07
4.4509601e-07
4.5425673e-07
4.6001963e-07
4.7272283e-07
4.80038e-07
4.9810534e-07
5.0820677e-07
5.290343e-07
5.4547209e-07
5.6142188e-07
5.843241e-07
5.9677693e-07
6.2239405e-07
6.362638e-07
6.6843502e-07
3.2771526e-06
2.7242737e-06
2.2448905e-06
1.9100196e-06
1.680258e-06
1.4908543e-06
1.3111568e-06
1.1522873e-06
1.0323295e-06
9.5364519e-07
9.0336563e-07
8.6455779e-07
8.2492676e-07
7.8011529e-07
7.3195435e-07
6.858495e-07
6.4652446e-07
6.169614e-07
5.9779848e-07
5.8734737e-07
5.8244249e-07
5.8014311e-07
5.7702888e-07
5.7049863e-07
5.6013133e-07
5.4654058e-07
5.3015223e-07
5.1256736e-07
4.944622e-07
4.7759332e-07
4.626107e-07
4.5022331e-07
4.4021856e-07
4.3377556e-07
4.3088934e-07
4.3037129e-07
4.3052165e-07
4.3174999e-07
4.3364773e-07
4.3828522e-07
4.4159284e-07
4.4927841e-07
4.5376373e-07
4.6321219e-07
4.7102765e-07
4.8006864e-07
4.932929e-07
5.0310082e-07
5.2304974e-07
5.3449994e-07
5.5898268e-07
5.7207759e-07
5.9914507e-07
6.1372191e-07
6.46362e-07
3.2781465e-06
2.7257799e-06
2.2473681e-06
1.9124871e-06
1.6839294e-06
1.4962494e-06
1.3171138e-06
1.1573054e-06
1.0356419e-06
9.5554402e-07
9.0467008e-07
8.6617377e-07
8.2724064e-07
7.8318167e-07
7.3539841e-07
6.8922969e-07
6.4926911e-07
6.1894655e-07
5.9882823e-07
5.8777186e-07
5.8253755e-07
5.8027852e-07
5.7757067e-07
5.7177414e-07
5.6206184e-07
5.4909588e-07
5.3316862e-07
5.1577121e-07
4.9782342e-07
4.8063681e-07
4.653159e-07
4.522757e-07
4.4187634e-07
4.3420944e-07
4.3048758e-07
4.2926429e-07
4.2929208e-07
4.300015e-07
4.315687e-07
4.3528328e-07
4.3818709e-07
4.4380865e-07
4.5042074e-07
4.5556073e-07
4.6519953e-07
4.7100811e-07
4.8281457e-07
4.8985765e-07
5.0481051e-07
5.1354304e-07
5.3237472e-07
5.4302714e-07
5.6566407e-07
5.7848767e-07
6.1045721e-07
3.2787887e-06
2.7276178e-06
2.2518132e-06
1.9167346e-06
1.6876495e-06
1.5008965e-06
1.3222853e-06
1.1617488e-06
1.0386203e-06
9.5722938e-07
9.0587937e-07
8.6761779e-07
8.2945091e-07
7.8617556e-07
7.3880126e-07
6.9256905e-07
6.5212875e-07
6.2101697e-07
6.0001408e-07
5.8827942e-07
5.8268742e-07
5.8037135e-07
5.780662e-07
5.7292977e-07
5.6385958e-07
5.5153982e-07
5.3623262e-07
5.1910064e-07
5.0135327e-07
4.8396989e-07
4.6827502e-07
4.5475264e-07
4.4387508e-07
4.3532675e-07
4.3045133e-07
4.2841852e-07
4.2821321e-07
4.285388e-07
4.2966513e-07
4.3167043e-07
4.3599596e-07
4.3940817e-07
4.4651853e-07
4.5070913e-07
4.5954729e-07
4.6450047e-07
4.7501159e-07
4.8098131e-07
4.9359272e-07
5.0072885e-07
5.1543849e-07
5.2380566e-07
5.408713e-07
5.5095306e-07
5.7478014e-07
3.2784144e-06
2.7292635e-06
2.2558047e-06
1.9194344e-06
1.6885279e-06
1.5023018e-06
1.3251417e-06
1.1649624e-06
1.0410615e-06
9.5875613e-07
9.0701012e-07
8.6901257e-07
8.3163105e-07
7.8915379e-07
7.4222804e-07
6.959354e-07
6.5503493e-07
6.2319245e-07
6.0131869e-07
5.8888431e-07
5.829322e-07
5.8049752e-07
5.7852553e-07
5.7403285e-07
5.6557521e-07
5.5385166e-07
5.3911187e-07
5.2226271e-07
5.0471263e-07
4.8725729e-07
4.7119652e-07
4.5728522e-07
4.4580714e-07
4.3677038e-07
4.3073537e-07
4.2795211e-07
4.2722667e-07
4.2730566e-07
4.2810489e-07
4.295625e-07
4.3309847e-07
4.3596961e-07
4.4220758e-07
4.4613227e-07
4.5412391e-07
4.5866242e-07
4.6806801e-07
4.7339903e-07
4.8461715e-07
4.9062954e-07
5.0348836e-07
5.1028327e-07
5.2450424e-07
5.3236564e-07
5.5073451e-07
3.2728679e-06
2.7181239e-06
2.2489022e-06
1.9144703e-06
1.6851168e-06
1.501444e-06
1.3267302e-06
1.1675385e-06
1.0432935e-06
9.6023943e-07
9.0812693e-07
8.7043849e-07
8.3378801e-07
7.9207654e-07
7.4568919e-07
6.9939831e-07
6.5804575e-07
6.2547e-07
6.0273281e-07
5.895542e-07
5.8321057e-07
5.8062898e-07
5.7891693e-07
5.749976e-07
5.6723093e-07
5.5608202e-07
5.4193281e-07
5.2546772e-07
5.0812593e-07
4.9069521e-07
4.7434422e-07
4.6003598e-07
4.4795869e-07
4.3852342e-07
4.3136342e-07
4.2777795e-07
4.263894e-07
4.2633843e-07
4.2677417e-07
4.2787305e-07
4.3070031e-07
4.3301105e-07
4.3844502e-07
4.4191788e-07
4.4928446e-07
4.5336413e-07
4.6192802e-07
4.6664247e-07
4.7669225e-07
4.819895e-07
4.9356572e-07
4.994294e-07
5.1194023e-07
5.1829869e-07
5.3357087e-07
3.2605333e-06
2.6883705e-06
2.2268477e-06
1.9014843e-06
1.6793692e-06
1.5006311e-06
1.3287374e-06
1.1704409e-06
1.0457718e-06
9.6190124e-07
9.0940744e-07
8.7195212e-07
8.3599445e-07
7.9502432e-07
7.4917044e-07
7.0292022e-07
6.6116082e-07
6.2786171e-07
6.0428826e-07
5.9034837e-07
5.835455e-07
5.8080093e-07
5.7926076e-07
5.7583774e-07
5.6877267e-07
5.5815276e-07
5.4458076e-07
5.2858642e-07
5.1142655e-07
4.9411594e-07
4.775817e-07
4.6286656e-07
4.5033991e-07
4.403429e-07
4.32498e-07
4.2787141e-07
4.258012e-07
4.2544167e-07
4.2563198e-07
4.2642087e-07
4.2851212e-07
4.3053075e-07
4.3501299e-07
4.3813157e-07
4.4474732e-07
4.4858885e-07
4.5633625e-07
4.6066549e-07
4.6947102e-07
4.7447695e-07
4.8451964e-07
4.9000242e-07
5.0108467e-07
5.069762e-07
5.1981965e-07
3.2617362e-06
2.6898983e-06
2.2278689e-06
1.9025782e-06
1.6811897e-06
1.5040153e-06
1.3332454e-06
1.1748023e-06
1.0490679e-06
9.6402091e-07
9.1092668e-07
8.7355538e-07
8.3822698e-07
7.9802051e-07
7.526639e-07
7.0642944e-07
6.6432031e-07
6.3033305e-07
6.0594441e-07
5.9123666e-07
5.8392388e-07
5.8098364e-07
5.795562e-07
5.7659484e-07
5.7021105e-07
5.6016088e-07
5.4714119e-07
5.316758e-07
5.1471625e-07
4.9756661e-07
4.8091956e-07
4.6581013e-07
4.5291148e-07
4.4232283e-07
4.3402029e-07
4.2829014e-07
4.2553976e-07
4.2461423e-07
4.246834e-07
4.2510392e-07
4.2671889e-07
4.2831298e-07
4.3204282e-07
4.3479774e-07
4.4078763e-07
4.4423254e-07
4.5140337e-07
4.5530094e-07
4.6339932e-07
4.6764673e-07
4.7696482e-07
4.8194759e-07
4.9178548e-07
4.9711374e-07
5.0845236e-07
3.2654923e-06
2.6982013e-06
2.2341659e-06
1.9076144e-06
1.6854734e-06
1.5084981e-06
1.3380706e-06
1.1792666e-06
1.0524504e-06
9.6625038e-07
9.1250862e-07
8.7520919e-07
8.4051616e-07
8.0103985e-07
7.5624912e-07
7.1007668e-07
6.6761184e-07
6.3294089e-07
6.0774476e-07
5.9225364e-07
5.8440005e-07
5.812145e-07
5.7984064e-07
5.7730512e-07
5.7156465e-07
5.6209451e-07
5.4958904e-07
5.3466009e-07
5.1800088e-07
5.0097814e-07
4.8431692e-07
4.6888207e-07
4.5559916e-07
4.4444218e-07
4.3577959e-07
4.2910016e-07
4.2552288e-07
4.2400225e-07
4.2383843e-07
4.2413971e-07
4.2511344e-07
4.2641888e-07
4.2954519e-07
4.31935e-07
4.3713754e-07
4.4038328e-07
4.4703703e-07
4.5053711e-07
4.5809092e-07
4.6194138e-07
4.7035882e-07
4.7473869e-07
4.8355248e-07
4.8857954e-07
4.9870584e-07
3.2790196e-06
2.7294475e-06
2.2593348e-06
1.9249927e-06
1.6973985e-06
1.517844e-06
1.3459391e-06
1.1855704e-06
1.0569039e-06
9.6904921e-07
9.1437167e-07
8.770039e-07
8.4282965e-07
8.0401376e-07
7.598162e-07
7.1373106e-07
6.7095051e-07
6.3559166e-07
6.0960201e-07
5.9329534e-07
5.8487707e-07
5.8143662e-07
5.8006783e-07
5.7791348e-07
5.7282689e-07
5.639209e-07
5.5194775e-07
5.3749474e-07
5.2123176e-07
5.0431741e-07
4.8771181e-07
4.7208309e-07
4.5837137e-07
4.4674163e-07
4.3755717e-07
4.3029814e-07
4.258009e-07
4.2359079e-07
4.2313245e-07
4.2319464e-07
4.2380678e-07
4.2491037e-07
4.274087e-07
4.2939521e-07
4.340071e-07
4.3697948e-07
4.4294687e-07
4.4653455e-07
4.5322956e-07
4.5702039e-07
4.6467536e-07
4.6848351e-07
4.7684746e-07
4.8131968e-07
4.9049051e-07
3.2811038e-06
2.73714e-06
2.2700921e-06
1.9362528e-06
1.7072619e-06
1.5261541e-06
1.3529054e-06
1.1911562e-06
1.0609656e-06
9.7172933e-07
9.1625697e-07
8.7886257e-07
8.4518582e-07
8.0710051e-07
7.6347244e-07
7.1750854e-07
6.7444084e-07
6.384302e-07
6.1166457e-07
5.9455462e-07
5.8550808e-07
5.8177944e-07
5.8036532e-07
5.7854106e-07
5.7401818e-07
5.6572162e-07
5.5424121e-07
5.4027057e-07
5.2444208e-07
5.0769895e-07
4.9114287e-07
4.7543589e-07
4.6133403e-07
4.4932905e-07
4.3950897e-07
4.3190168e-07
4.2634444e-07
4.2358652e-07
4.2246768e-07
4.2243167e-07
4.2275879e-07
4.235514e-07
4.2556574e-07
4.2733185e-07
4.3114586e-07
4.337256e-07
4.3950037e-07
4.4258623e-07
4.4916464e-07
4.5241237e-07
4.5952605e-07
4.6321598e-07
4.7096111e-07
4.746629e-07
4.8327886e-07
3.2863622e-06
2.7534338e-06
2.2872718e-06
1.9504023e-06
1.7192028e-06
1.5364751e-06
1.3614721e-06
1.1978194e-06
1.0657264e-06
9.7488217e-07
9.1843398e-07
8.8084949e-07
8.4759355e-07
8.1018509e-07
7.6706435e-07
7.2122321e-07
6.7786741e-07
6.4124065e-07
6.1372108e-07
5.9581072e-07
5.861357e-07
5.8209035e-07
5.8059611e-07
5.7907699e-07
5.7508482e-07
5.6741529e-07
5.5639674e-07
5.4286636e-07
5.2749594e-07
5.109195e-07
4.9443863e-07
4.7871436e-07
4.6431563e-07
4.51894e-07
4.4153818e-07
4.3357993e-07
4.2730749e-07
4.2370877e-07
4.2205606e-07
4.2181402e-07
4.2192938e-07
4.2247371e-07
4.2409481e-07
4.2551504e-07
4.2873205e-07
4.3116875e-07
4.3619372e-07
4.3925174e-07
4.4529855e-07
4.4855179e-07
4.5512986e-07
4.5862574e-07
4.6543792e-07
4.6944222e-07
4.7687644e-07
3.2883974e-06
2.7584717e-06
2.2901109e-06
1.9514859e-06
1.7212257e-06
1.5401082e-06
1.3661868e-06
1.2024993e-06
1.0695422e-06
9.7762964e-07
9.2043044e-07
8.8277853e-07
8.4996427e-07
8.1324133e-07
7.7071314e-07
7.25112e-07
6.815128e-07
6.4430755e-07
6.1603965e-07
5.9733179e-07
5.8699733e-07
5.8259449e-07
5.8100867e-07
5.7969661e-07
5.7614181e-07
5.6908525e-07
5.585632e-07
5.4548533e-07
5.3054781e-07
5.1428143e-07
4.9784883e-07
4.8215127e-07
4.6756462e-07
4.5472173e-07
4.4390122e-07
4.3543891e-07
4.2866402e-07
4.2415348e-07
4.2191766e-07
4.2118509e-07
4.211925e-07
4.2153845e-07
4.2263056e-07
4.2387416e-07
4.2667673e-07
4.2869619e-07
4.3307954e-07
4.3600791e-07
4.4163259e-07
4.4482459e-07
4.5108902e-07
4.5425471e-07
4.6080517e-07
4.6453896e-07
4.7087672e-07
3.2864092e-06
2.7583112e-06
2.2943953e-06
1.9570384e-06
1.7265926e-06
1.5446357e-06
1.3701676e-06
1.2061451e-06
1.0726497e-06
9.8002576e-07
9.2232615e-07
8.8467932e-07
8.522745e-07
8.1615111e-07
7.7416054e-07
7.2878802e-07
6.8495849e-07
6.4722533e-07
6.1824275e-07
5.987623e-07
5.8779001e-07
5.8299305e-07
5.8135393e-07
5.8025157e-07
5.7711747e-07
5.7065457e-07
5.6056603e-07
5.4786282e-07
5.3329708e-07
5.174274e-07
5.0105243e-07
4.8539407e-07
4.7075728e-07
4.5746192e-07
4.4629896e-07
4.373315e-07
4.3024624e-07
4.2486267e-07
4.2203625e-07
4.2083975e-07
4.2070321e-07
4.2082787e-07
4.2155122e-07
4.2258996e-07
4.2486818e-07
4.266047e-07
4.3050499e-07
4.3304719e-07
4.3845139e-07
4.4140315e-07
4.4767931e-07
4.5067747e-07
4.569304e-07
4.5968671e-07
4.6609973e-07
3.2892145e-06
2.7661312e-06
2.3023397e-06
1.9631969e-06
1.7309359e-06
1.5482436e-06
1.3738449e-06
1.2098705e-06
1.075937e-06
9.8259861e-07
9.2435634e-07
8.866484e-07
8.546206e-07
8.1915296e-07
7.7773771e-07
7.3265649e-07
6.8866373e-07
6.5044579e-07
6.2082607e-07
6.0056583e-07
5.8891495e-07
5.8371179e-07
5.8188142e-07
5.8092209e-07
5.781525e-07
5.7223303e-07
5.6264247e-07
5.5035337e-07
5.3616634e-07
5.2065313e-07
5.043617e-07
4.8878443e-07
4.7418561e-07
4.6057413e-07
4.4895482e-07
4.394977e-07
4.3209e-07
4.2600501e-07
4.2234057e-07
4.2063165e-07
4.2010629e-07
4.2016057e-07
4.204869e-07
4.2126527e-07
4.2322812e-07
4.2478725e-07
4.2793839e-07
4.3041765e-07
4.350828e-07
4.3826161e-07
4.4420272e-07
4.4711382e-07
4.5277852e-07
4.5583206e-07
4.6173951e-07
3.2888284e-06
2.7674286e-06
2.3068471e-06
1.9685916e-06
1.7359536e-06
1.5526549e-06
1.3778533e-06
1.2134887e-06
1.0789252e-06
9.8490731e-07
9.2623424e-07
8.8853967e-07
8.5686713e-07
8.2193128e-07
7.8098635e-07
7.3613667e-07
6.9201329e-07
6.5333879e-07
6.2309961e-07
6.0208144e-07
5.898375e-07
5.8419568e-07
5.8230825e-07
5.8147995e-07
5.7906972e-07
5.7370567e-07
5.6453733e-07
5.5256952e-07
5.3871529e-07
5.235225e-07
5.0740874e-07
4.9188315e-07
4.7725634e-07
4.6345476e-07
4.5153728e-07
4.4180124e-07
4.3375347e-07
4.2735283e-07
4.2296422e-07
4.2085783e-07
4.1981853e-07
4.1963171e-07
4.197725e-07
4.2034326e-07
4.2191193e-07
4.2320198e-07
4.2582618e-07
4.2789447e-07
4.3222197e-07
4.3544651e-07
4.4095477e-07
4.4391844e-07
4.4936306e-07
4.5261367e-07
4.5748091e-07
3.2933367e-06
2.7782917e-06
2.3162605e-06
1.9757746e-06
1.7415535e-06
1.5578091e-06
1.3830035e-06
1.2183342e-06
1.0829666e-06
9.8802455e-07
9.2869974e-07
8.9088645e-07
8.5947542e-07
8.2503365e-07
7.8460103e-07
7.4004609e-07
6.9576977e-07
6.5668151e-07
6.2580899e-07
6.0405574e-07
5.9110045e-07
5.8506628e-07
5.8293604e-07
5.8226521e-07
5.8019348e-07
5.7535842e-07
5.6676746e-07
5.5518718e-07
5.4163392e-07
5.2665741e-07
5.1068766e-07
4.9528089e-07
4.8075658e-07
4.6672584e-07
4.5428927e-07
4.4427525e-07
4.3574687e-07
4.2890174e-07
4.2375588e-07
4.2099989e-07
4.1956897e-07
4.1906093e-07
4.1911324e-07
4.1942612e-07
4.2059813e-07
4.2162173e-07
4.238862e-07
4.2555319e-07
4.2939981e-07
4.3217253e-07
4.3740709e-07
4.4041385e-07
4.4600536e-07
4.4862154e-07
4.5345694e-07
3.2938406e-06
2.7803241e-06
2.3207752e-06
1.9803354e-06
1.7456554e-06
1.561666e-06
1.3867958e-06
1.2217766e-06
1.0858203e-06
9.9034449e-07
9.3079404e-07
8.9317283e-07
8.6214264e-07
8.2819066e-07
7.8809801e-07
7.436035e-07
6.9909291e-07
6.594526e-07
6.2788449e-07
6.0550803e-07
5.9206142e-07
5.8568074e-07
5.8382793e-07
5.8358109e-07
5.8235367e-07
5.7856005e-07
5.7088882e-07
5.597895e-07
5.4648933e-07
5.3126898e-07
5.1510697e-07
4.9946837e-07
4.8449564e-07
4.7010811e-07
4.5749293e-07
4.4694365e-07
4.3782667e-07
4.3048085e-07
4.2527897e-07
4.2194756e-07
4.2005992e-07
4.1911134e-07
4.1897804e-07
4.1920449e-07
4.2000457e-07
4.2097227e-07
4.2244186e-07
4.2415732e-07
4.2731065e-07
4.3079362e-07
4.3495811e-07
4.3812115e-07
4.432469e-07
4.4651309e-07
4.4993647e-07
3.2993201e-06
2.7941678e-06
2.3317372e-06
1.9885851e-06
1.7522925e-06
1.5682924e-06
1.3937306e-06
1.2281541e-06
1.090836e-06
9.9375821e-07
9.3327466e-07
8.9619276e-07
8.666617e-07
8.346733e-07
7.9568331e-07
7.5132481e-07
7.0587896e-07
6.650443e-07
6.3229956e-07
6.0960616e-07
5.963331e-07
5.9051244e-07
5.9021161e-07
5.9148796e-07
5.9298011e-07
5.9207182e-07
5.8894845e-07
5.8107459e-07
5.6842305e-07
5.5144731e-07
5.3305228e-07
5.1593392e-07
4.9823953e-07
4.8049672e-07
4.6620198e-07
4.5509122e-07
4.4515713e-07
4.3647395e-07
4.3067302e-07
4.2694536e-07
4.2482097e-07
4.2350691e-07
4.2320189e-07
4.2321618e-07
4.2359225e-07
4.2454715e-07
4.2550362e-07
4.2767027e-07
4.305188e-07
4.3455761e-07
4.378489e-07
4.4188895e-07
4.4553903e-07
4.5070893e-07
4.5139693e-07
3.3008314e-06
2.8002927e-06
2.3429415e-06
2.0010991e-06
1.766819e-06
1.5860458e-06
1.4135631e-06
1.2449472e-06
1.1017651e-06
1.000982e-06
9.4076124e-07
9.0845545e-07
8.8864259e-07
8.6793269e-07
8.3621892e-07
7.9386356e-07
7.4434454e-07
6.9811848e-07
6.6173002e-07
6.4001487e-07
6.3269111e-07
6.3316804e-07
6.3761804e-07
6.5139294e-07
6.6980854e-07
6.812855e-07
6.8715221e-07
6.8898079e-07
6.8793132e-07
6.7963687e-07
6.537517e-07
6.2742167e-07
5.9029251e-07
5.5139937e-07
5.2750997e-07
5.1170209e-07
4.9557814e-07
4.8217777e-07
4.750455e-07
4.7181995e-07
4.6961538e-07
4.680041e-07
4.6694965e-07
4.6675988e-07
4.6737144e-07
4.69217e-07
4.7132734e-07
4.7590637e-07
4.8177204e-07
4.875855e-07
4.91593e-07
4.9648727e-07
4.9988059e-07
5.0377814e-07
4.977979e-07
3.3141151e-06
2.8761811e-06
2.4328277e-06
2.1078186e-06
1.8935828e-06
1.7338812e-06
1.5705965e-06
1.3816224e-06
1.2040322e-06
1.0899147e-06
1.049468e-06
1.0502555e-06
1.0750147e-06
1.1198971e-06
1.1342799e-06
1.1290737e-06
1.0797397e-06
9.9853421e-07
9.4618558e-07
9.2852111e-07
9.2823532e-07
9.3908259e-07
9.92201e-07
1.0898786e-06
1.1917574e-06
1.260085e-06
1.3064893e-06
1.350262e-06
1.3770539e-06
1.3724369e-06
1.3489211e-06
1.3274469e-06
1.2625428e-06
1.084984e-06
9.883528e-07
9.6166197e-07
9.2011035e-07
8.6831574e-07
8.4440664e-07
8.4199522e-07
8.4321209e-07
8.463004e-07
8.4686148e-07
8.4707917e-07
8.5595062e-07
8.7667598e-07
8.8495031e-07
8.9750689e-07
9.2570035e-07
9.5184164e-07
9.7059617e-07
9.8264935e-07
9.8859427e-07
9.9045223e-07
9.5408126e-07
3.3958956e-06
3.1754964e-06
2.824136e-06
2.5370065e-06
2.4038513e-06
2.4102686e-06
2.4207907e-06
2.287887e-06
2.0474067e-06
1.9944442e-06
2.022315e-06
2.1704519e-06
2.5795614e-06
2.9586505e-06
3.1539619e-06
3.2174829e-06
3.2014567e-06
3.1116736e-06
2.9635721e-06
2.9231774e-06
2.9334291e-06
3.0136659e-06
3.3205899e-06
3.6736874e-06
4.0452106e-06
4.3099657e-06
4.4662597e-06
4.6510332e-06
4.8654504e-06
4.8894311e-06
4.8311439e-06
4.8238693e-06
4.7676616e-06
4.35877e-06
3.9152231e-06
3.8103413e-06
3.7222913e-06
3.523604e-06
3.4008336e-06
3.4008779e-06
3.4489905e-06
3.5328469e-06
3.5575647e-06
3.5466045e-06
3.5604132e-06
3.6426169e-06
3.6898991e-06
3.7280529e-06
3.8329968e-06
3.9816469e-06
4.0848993e-06
4.1514371e-06
4.181669e-06
4.2032678e-06
4.0919609e-06
3.6138718e-06
4.3677536e-06
4.2549114e-06
4.3974724e-06
4.7874028e-06
5.8396473e-06
7.3928302e-06
7.5568696e-06
7.5048276e-06
7.6552549e-06
8.1863545e-06
9.3257176e-06
1.0479047e-05
1.1436725e-05
1.1946322e-05
1.2313804e-05
1.2301995e-05
1.2366108e-05
1.2190423e-05
1.2230799e-05
1.230471e-05
1.2618819e-05
1.3242335e-05
1.38313e-05
1.4501484e-05
1.4982901e-05
1.5174357e-05
1.5592524e-05
1.6357212e-05
1.6328599e-05
1.6326377e-05
1.6657628e-05
1.6567677e-05
1.5338493e-05
1.5125791e-05
1.5332985e-05
1.5360519e-05
1.4708052e-05
1.4316198e-05
1.4455276e-05
1.4799238e-05
1.5352495e-05
1.5418971e-05
1.509171e-05
1.5070797e-05
1.5112663e-05
1.5187549e-05
1.5165256e-05
1.5393201e-05
1.5737014e-05
1.6284731e-05
1.6374874e-05
1.6462514e-05
1.6505755e-05
1.6348333e-05
6.4993618e-06
2.5671915e-05
2.5799506e-05
2.7956507e-05
2.8792437e-05
2.9893846e-05
3.1382845e-05
3.3682754e-05
3.3960542e-05
3.227442e-05
3.0489559e-05
2.9210355e-05
2.8555969e-05
2.8340078e-05
2.8516506e-05
2.876001e-05
2.9374164e-05
2.9795401e-05
3.0616242e-05
3.0665018e-05
3.1231015e-05
3.124601e-05
3.1653032e-05
3.2113486e-05
3.2756727e-05
3.3459603e-05
3.4217959e-05
3.4845591e-05
3.5457382e-05
3.6349313e-05
3.7099545e-05
3.7982969e-05
3.9375755e-05
4.0647359e-05
4.0319452e-05
4.0782113e-05
4.0930615e-05
4.1743629e-05
4.0585852e-05
4.0137749e-05
3.9673656e-05
3.8696803e-05
3.9075353e-05
3.8278351e-05
3.7783346e-05
3.7212496e-05
3.6596657e-05
3.6273826e-05
3.4846695e-05
3.4963479e-05
3.3558227e-05
3.3687075e-05
3.2675922e-05
3.2222704e-05
3.2265002e-05
3.1103701e-05
1.6923941e-05
4.5046208e-06
1.0774154e-06
5.2227421e-07
4.5898701e-07
4.5457594e-07
4.5767081e-07
4.6120096e-07
4.654062e-07
4.7001526e-07
4.7522018e-07
4.8094363e-07
4.8765794e-07
4.9530907e-07
5.0392067e-07
5.1366764e-07
5.2546695e-07
5.3927148e-07
5.5688983e-07
5.8213979e-07
6.167508e-07
6.5772451e-07
6.8106246e-07
7.1063203e-07
7.6843945e-07
8.4225926e-07
3.068614e-05
1.7842293e-05
5.0551799e-06
1.2195143e-06
5.4870023e-07
4.6587558e-07
4.5938595e-07
4.6164257e-07
4.6614024e-07
4.7078727e-07
4.7557583e-07
4.8068445e-07
4.8607289e-07
4.9242202e-07
4.9987717e-07
5.0839983e-07
5.184261e-07
5.3002172e-07
5.442844e-07
5.6119592e-07
5.8485465e-07
6.1905233e-07
6.6694901e-07
6.9607273e-07
7.1787055e-07
7.7005584e-07
8.4964633e-07
3.1916935e-05
1.7521966e-05
5.1982408e-06
1.2933429e-06
5.7030776e-07
4.7184696e-07
4.653183e-07
4.6802875e-07
4.7393718e-07
4.7873152e-07
4.8379348e-07
4.8941945e-07
4.9556334e-07
5.0224854e-07
5.0984953e-07
5.1804272e-07
5.2778844e-07
5.3915014e-07
5.5297909e-07
5.69428e-07
5.9075108e-07
6.221019e-07
6.7404912e-07
7.1432107e-07
7.3417795e-07
7.7515144e-07
8.54726e-07
2.8835559e-05
1.7714566e-05
5.4681073e-06
1.4441743e-06
6.1696917e-07
4.8538868e-07
4.7672307e-07
4.7817793e-07
4.8238585e-07
4.8661377e-07
4.9143649e-07
4.9652796e-07
5.0280301e-07
5.0951214e-07
5.1729497e-07
5.2631605e-07
5.3624789e-07
5.4859728e-07
5.6320534e-07
5.8062619e-07
6.0176162e-07
6.2991107e-07
6.802772e-07
7.31977e-07
7.5708539e-07
7.8896097e-07
8.5924442e-07
2.7413463e-05
1.8308448e-05
6.2871742e-06
1.8052707e-06
7.1123004e-07
5.0990897e-07
4.8619442e-07
4.8659623e-07
4.899772e-07
4.9478089e-07
4.998223e-07
5.0493569e-07
5.1088756e-07
5.1743324e-07
5.2459128e-07
5.3275635e-07
5.4256983e-07
5.5474421e-07
5.7025297e-07
5.885527e-07
6.105853e-07
6.362636e-07
6.8445339e-07
7.4499562e-07
7.8266394e-07
8.1143203e-07
8.7410994e-07
2.8505588e-05
1.7996211e-05
6.6292352e-06
1.9643691e-06
7.5828949e-07
5.2305441e-07
4.9030783e-07
4.9056528e-07
4.9390638e-07
4.9965523e-07
5.0517964e-07
5.1105585e-07
5.1732995e-07
5.2438879e-07
5.3232945e-07
5.4092497e-07
5.5170781e-07
5.6388762e-07
5.7949221e-07
5.9677095e-07
6.1906134e-07
6.4237434e-07
6.8633888e-07
7.5168635e-07
8.0129422e-07
8.3303413e-07
8.966565e-07
2.433821e-05
1.8255272e-05
6.9841317e-06
2.1059913e-06
7.9987959e-07
5.3421367e-07
4.9444714e-07
4.972374e-07
5.0021438e-07
5.0512516e-07
5.0993144e-07
5.1552526e-07
5.2187045e-07
5.289649e-07
5.3730063e-07
5.4686832e-07
5.5846178e-07
5.719816e-07
5.8825511e-07
6.0703578e-07
6.3009613e-07
6.54085e-07
6.9111118e-07
7.5753293e-07
8.1622315e-07
8.5416899e-07
9.2044192e-07
2.4515183e-05
1.809209e-05
7.5740469e-06
2.4190358e-06
8.8928106e-07
5.5783779e-07
5.0357113e-07
5.0642653e-07
5.1107754e-07
5.1550418e-07
5.1964537e-07
5.2463141e-07
5.3062937e-07
5.3724183e-07
5.452918e-07
5.5478748e-07
5.659409e-07
5.793424e-07
5.9521463e-07
6.1414932e-07
6.3751859e-07
6.6460194e-07
6.9606868e-07
7.5978535e-07
8.2476418e-07
8.7189857e-07
9.4410328e-07
2.1034297e-05
1.7959502e-05
8.1305711e-06
2.6797921e-06
9.7849245e-07
5.8296309e-07
5.1305949e-07
5.1276612e-07
5.1822877e-07
5.2428162e-07
5.3004324e-07
5.357035e-07
5.422179e-07
5.4911319e-07
5.5735564e-07
5.6718091e-07
5.7849813e-07
5.9190455e-07
6.0704598e-07
6.2540181e-07
6.4781238e-07
6.7584313e-07
7.0373323e-07
7.6367913e-07
8.277281e-07
8.8675983e-07
9.6659328e-07
2.1054029e-05
1.7322113e-05
8.2815961e-06
2.7820795e-06
1.0232161e-06
5.970018e-07
5.1818126e-07
5.1534224e-07
5.2304986e-07
5.2931336e-07
5.3579695e-07
5.42076e-07
5.4962726e-07
5.5775628e-07
5.6708197e-07
5.778043e-07
5.9023212e-07
6.0468229e-07
6.2109376e-07
6.4148236e-07
6.6387686e-07
6.9276094e-07
7.1795602e-07
7.7214736e-07
8.3316041e-07
8.9858299e-07
9.8739874e-07
1.9692837e-05
1.7153704e-05
8.4368033e-06
2.8870663e-06
1.070235e-06
6.1139374e-07
5.2264893e-07
5.1951565e-07
5.306092e-07
5.3838207e-07
5.4490147e-07
5.5071316e-07
5.5770881e-07
5.6574729e-07
5.7526279e-07
5.8624621e-07
5.9933331e-07
6.1378239e-07
6.3155506e-07
6.5216135e-07
6.7586544e-07
7.0710452e-07
7.3104037e-07
7.8100015e-07
8.3896708e-07
9.0539573e-07
9.9966267e-07
1.6112456e-05
1.6971496e-05
8.8276543e-06
3.1068913e-06
1.1581341e-06
6.379694e-07
5.3086954e-07
5.2620141e-07
5.376385e-07
5.5140873e-07
5.5823177e-07
5.6576711e-07
5.7356921e-07
5.8136548e-07
5.9070602e-07
6.0149115e-07
6.1458311e-07
6.2903284e-07
6.4649994e-07
6.6638217e-07
6.8955356e-07
7.233718e-07
7.4779782e-07
7.959942e-07
8.5209048e-07
9.1727602e-07
1.0112846e-06
1.2420631e-05
1.6399135e-05
9.8711603e-06
3.7233267e-06
1.3874056e-06
7.0386141e-07
5.4930709e-07
5.3369434e-07
5.4374769e-07
5.6395963e-07
5.7252743e-07
5.7913391e-07
5.8731846e-07
5.9649426e-07
6.0697326e-07
6.1900332e-07
6.3279601e-07
6.4794347e-07
6.6595662e-07
6.8612125e-07
7.0701981e-07
7.4097413e-07
7.6516972e-07
8.1150904e-07
8.6936777e-07
9.3231267e-07
1.0277015e-06
1.02485e-05
1.5301014e-05
1.0341895e-05
4.0860104e-06
1.5342942e-06
7.5593414e-07
5.6227936e-07
5.3804812e-07
5.4759328e-07
5.7025285e-07
5.8002406e-07
5.8780752e-07
5.9631746e-07
6.0610811e-07
6.1757727e-07
6.305134e-07
6.4561386e-07
6.6227034e-07
6.8114408e-07
7.0397376e-07
7.2517947e-07
7.5977527e-07
7.822017e-07
8.2436814e-07
8.8059345e-07
9.4267435e-07
1.041028e-06
8.2182398e-06
1.4484247e-05
1.0632205e-05
4.4087178e-06
1.6743877e-06
7.9941434e-07
5.7429588e-07
5.4151455e-07
5.5037031e-07
5.7257341e-07
5.9214594e-07
6.0109807e-07
6.0946902e-07
6.1866978e-07
6.2947815e-07
6.4191893e-07
6.5607104e-07
6.729364e-07
6.9160008e-07
7.1471537e-07
7.3566856e-07
7.727186e-07
7.9677186e-07
8.3522328e-07
8.8929658e-07
9.4767264e-07
1.0473647e-06
6.6191301e-06
1.379682e-05
1.0874285e-05
4.6745283e-06
1.7629661e-06
8.3183822e-07
5.8300293e-07
5.4361058e-07
5.5135323e-07
5.7413894e-07
6.0106822e-07
6.1199622e-07
6.2199801e-07
6.3179184e-07
6.4296555e-07
6.558976e-07
6.7058214e-07
6.8811139e-07
7.0711244e-07
7.309577e-07
7.5255065e-07
7.9028576e-07
8.1825254e-07
8.5413442e-07
9.0432169e-07
9.5798348e-07
1.0560095e-06
4.2713957e-06
1.3059909e-05
1.0838587e-05
4.722816e-06
1.8090094e-06
8.5301486e-07
5.8972527e-07
5.4540036e-07
5.5187158e-07
5.7798858e-07
6.0491891e-07
6.2115298e-07
6.3131412e-07
6.4274359e-07
6.5536779e-07
6.6962261e-07
6.8507294e-07
7.0305583e-07
7.2274171e-07
7.4786866e-07
7.6896839e-07
8.0506317e-07
8.3489768e-07
8.6951431e-07
9.1813861e-07
9.6638895e-07
1.066299e-06
8.4481129e-06
1.3446183e-05
1.1003346e-05
4.88707e-06
1.9256098e-06
8.9610664e-07
6.0385293e-07
5.4939001e-07
5.5370678e-07
5.8296166e-07
6.1288293e-07
6.366031e-07
6.4694892e-07
6.5795186e-07
6.7086492e-07
6.8501881e-07
7.010148e-07
7.1865308e-07
7.3807514e-07
7.6305637e-07
7.8227989e-07
8.1812663e-07
8.4878967e-07
8.8250123e-07
9.2981552e-07
9.7434254e-07
1.0724597e-06
8.173711e-06
1.2504102e-05
1.1390779e-05
5.9346774e-06
2.4075743e-06
1.0557015e-06
6.5325083e-07
5.6301492e-07
5.6091944e-07
5.8437105e-07
6.229183e-07
6.5447908e-07
6.7035726e-07
6.7981776e-07
6.9082679e-07
7.0339339e-07
7.187448e-07
7.3609707e-07
7.5415743e-07
7.8042909e-07
7.9878372e-07
8.3611613e-07
8.6574394e-07
8.9906966e-07
9.4394046e-07
9.8369981e-07
1.0739821e-06
5.9328512e-06
1.0013661e-05
1.1334655e-05
6.6999823e-06
2.7056945e-06
1.1740029e-06
6.9430679e-07
5.7339079e-07
5.6371728e-07
5.835738e-07
6.2442858e-07
6.6066634e-07
6.8176756e-07
6.9416388e-07
7.0644871e-07
7.2008233e-07
7.3613085e-07
7.545751e-07
7.7296896e-07
8.0101522e-07
8.195351e-07
8.5552063e-07
8.8394151e-07
9.1781908e-07
9.5926051e-07
9.9525057e-07
1.0773068e-06
2.9205375e-06
9.1592631e-06
1.1191867e-05
6.5628416e-06
2.6486313e-06
1.1631268e-06
6.9229136e-07
5.7247278e-07
5.6226165e-07
5.8063476e-07
6.2291785e-07
6.5989641e-07
6.8493872e-07
7.0010725e-07
7.1679101e-07
7.3409794e-07
7.5298738e-07
7.7392017e-07
7.9375335e-07
8.2251056e-07
8.4019326e-07
8.7427681e-07
9.0180844e-07
9.3532663e-07
9.7605896e-07
1.0088458e-06
1.0805453e-06
6.874144e-07
9.2837829e-06
1.0708076e-05
5.5832016e-06
2.3200801e-06
1.1027485e-06
6.8392003e-07
5.7118799e-07
5.6008247e-07
5.7642461e-07
6.2016401e-07
6.588225e-07
6.8740341e-07
7.0636613e-07
7.2504141e-07
7.4509055e-07
7.6524854e-07
7.8796512e-07
8.0776563e-07
8.3621346e-07
8.5402117e-07
8.8869681e-07
9.1796697e-07
9.5219211e-07
9.9477786e-07
1.0237575e-06
1.0873374e-06
2.2987102e-05
1.0594268e-05
1.0440819e-05
4.9421465e-06
2.2513866e-06
1.1098396e-06
6.9179237e-07
5.7435472e-07
5.6124457e-07
5.7631424e-07
6.1979912e-07
6.5988027e-07
6.9278596e-07
7.1766707e-07
7.3630748e-07
7.5562966e-07