/*--------------------------------*- C++ -*----------------------------------*\
| =========                 |                                                 |
| \\      /  F ield         | OpenFOAM: The Open Source CFD Toolbox           |
|  \\    /   O peration     | Version:  2406                                  |
|   \\  /    A nd           | Website:  www.openfoam.com                      |
|    \\/     M anipulation  |                                                 |
\*---------------------------------------------------------------------------*/
FoamFile
{
    version     2.0;
    format      ascii;
    arch        "LSB;label=32;scalar=64";
    class       volScalarField;
    location    "23";
    object      nut;
}
// * * * * * * * * * * * * * * * * * * * * * * * * * * * * * * * * * * * * * //

dimensions      [0 2 -1 0 0 0 0];

internalField   nonuniform List<scalar> 
96472
(
8.6713924e-07
9.2868015e-07
9.2636286e-07
9.2497282e-07
9.2983071e-07
9.230759e-07
8.9521158e-07
8.5903691e-07
8.3337957e-07
8.25629e-07
8.309059e-07
8.3731847e-07
8.365525e-07
8.2441352e-07
8.0534964e-07
7.8362677e-07
7.6765553e-07
7.5862062e-07
7.6110505e-07
7.6912318e-07
7.8366066e-07
7.9658831e-07
8.0799772e-07
8.1179667e-07
8.1070841e-07
8.0238402e-07
7.9094226e-07
7.7668555e-07
7.6105719e-07
7.4874087e-07
7.3721517e-07
7.3026535e-07
7.3096919e-07
7.3364819e-07
7.4393693e-07
7.4697884e-07
7.6012657e-07
7.6625636e-07
7.8025828e-07
7.9092e-07
8.0565607e-07
8.1984477e-07
8.3568847e-07
8.5130822e-07
8.7704876e-07
8.9306843e-07
9.1507724e-07
9.3576441e-07
9.6140458e-07
9.873756e-07
1.0175791e-06
1.0563644e-06
1.090795e-06
1.1333621e-06
1.2007589e-06
8.6667578e-07
9.2383242e-07
9.233539e-07
9.2278195e-07
9.279519e-07
9.2196145e-07
8.9511179e-07
8.5906116e-07
8.325797e-07
8.2378155e-07
8.2861962e-07
8.3546331e-07
8.3575699e-07
8.2497699e-07
8.0671894e-07
7.8506306e-07
7.6846226e-07
7.5822465e-07
7.5958046e-07
7.6648506e-07
7.805998e-07
7.9357876e-07
8.0582765e-07
8.1067551e-07
8.1147961e-07
8.0422738e-07
7.9407311e-07
7.7911947e-07
7.6301674e-07
7.4883277e-07
7.3633063e-07
7.2605315e-07
7.2200323e-07
7.2258144e-07
7.2785315e-07
7.338575e-07
7.4321768e-07
7.5316667e-07
7.6954549e-07
7.8313916e-07
7.9933287e-07
8.159845e-07
8.3013869e-07
8.4925233e-07
8.6805046e-07
8.8975762e-07
9.0305491e-07
9.2851401e-07
9.4238919e-07
9.7067894e-07
9.8628403e-07
1.0160156e-06
1.0489356e-06
1.0753232e-06
1.143176e-06
8.6623888e-07
9.2089418e-07
9.2096975e-07
9.2029781e-07
9.2573852e-07
9.2095885e-07
8.9527904e-07
8.5932166e-07
8.3194056e-07
8.2225268e-07
8.2670168e-07
8.3413925e-07
8.3537432e-07
8.2581974e-07
8.0808929e-07
7.8677554e-07
7.6941036e-07
7.5863158e-07
7.5862373e-07
7.6511921e-07
7.7885022e-07
7.9178835e-07
8.0526201e-07
8.1036488e-07
8.1224341e-07
8.0575843e-07
7.9610696e-07
7.8180264e-07
7.6679106e-07
7.5183897e-07
7.3896014e-07
7.280472e-07
7.2241145e-07
7.21382e-07
7.2503105e-07
7.295189e-07
7.3552867e-07
7.431688e-07
7.5248986e-07
7.6757647e-07
7.7978933e-07
8.0136399e-07
8.1307121e-07
8.3806814e-07
8.5146911e-07
8.798382e-07
8.9269995e-07
9.1949324e-07
9.3207526e-07
9.5572147e-07
9.777259e-07
9.9292772e-07
1.0218045e-06
1.0390934e-06
1.0835285e-06
8.6593547e-07
9.1923386e-07
9.1912574e-07
9.1792134e-07
9.2362812e-07
9.2007334e-07
8.9551914e-07
8.5974201e-07
8.3164959e-07
8.2115115e-07
8.2525966e-07
8.3315084e-07
8.3529075e-07
8.2684705e-07
8.0961497e-07
7.8851847e-07
7.7037785e-07
7.5894334e-07
7.574382e-07
7.6370448e-07
7.7621286e-07
7.9011151e-07
8.0329553e-07
8.1001666e-07
8.127196e-07
8.0744764e-07
7.9874931e-07
7.8490709e-07
7.7010488e-07
7.5452073e-07
7.4206149e-07
7.2991624e-07
7.2344165e-07
7.1996899e-07
7.2367598e-07
7.2697542e-07
7.3328927e-07
7.3928942e-07
7.4758004e-07
7.5879163e-07
7.6898689e-07
7.8595348e-07
7.9665305e-07
8.1790587e-07
8.2901585e-07
8.5546746e-07
8.6942547e-07
8.9718103e-07
9.1889214e-07
9.387249e-07
9.660281e-07
9.8005914e-07
1.0080191e-06
1.0225094e-06
1.0552506e-06
8.6572703e-07
9.180936e-07
9.1779853e-07
9.159753e-07
9.2171111e-07
9.1917048e-07
8.9569325e-07
8.601692e-07
8.3141302e-07
8.2018113e-07
8.2387087e-07
8.322006e-07
8.3513941e-07
8.2780376e-07
8.1106479e-07
7.9028502e-07
7.7144177e-07
7.5941935e-07
7.5657608e-07
7.6237296e-07
7.7402853e-07
7.8828611e-07
8.015535e-07
8.0971689e-07
8.1266279e-07
8.0909522e-07
8.0069858e-07
7.8791442e-07
7.7324378e-07
7.5750427e-07
7.4467206e-07
7.320702e-07
7.2490049e-07
7.1906829e-07
7.218791e-07
7.246403e-07
7.307072e-07
7.3529509e-07
7.4349944e-07
7.5350636e-07
7.628175e-07
7.7761289e-07
7.8712866e-07
8.0436402e-07
8.1772973e-07
8.3224576e-07
8.5260188e-07
8.663366e-07
8.9330441e-07
9.0778989e-07
9.3759857e-07
9.5268623e-07
9.828686e-07
9.9837352e-07
1.0321362e-06
8.6566357e-07
9.1740371e-07
9.1670391e-07
9.1420824e-07
9.1998294e-07
9.1839309e-07
8.9592052e-07
8.6065769e-07
8.3129611e-07
8.1931263e-07
8.226046e-07
8.3128116e-07
8.3497702e-07
8.2864163e-07
8.1252119e-07
7.9202854e-07
7.7264035e-07
7.5997165e-07
7.5591498e-07
7.6106251e-07
7.719943e-07
7.8641326e-07
7.9976327e-07
8.0918584e-07
8.1268333e-07
8.1047543e-07
8.0269875e-07
7.9064206e-07
7.7627061e-07
7.6073647e-07
7.4693364e-07
7.3429041e-07
7.2625397e-07
7.1873362e-07
7.2033445e-07
7.2187458e-07
7.2786531e-07
7.3174689e-07
7.3931951e-07
7.4772353e-07
7.5637264e-07
7.6798039e-07
7.8141381e-07
7.9159381e-07
8.0910228e-07
8.1895709e-07
8.3853971e-07
8.4917533e-07
8.7113242e-07
8.8303843e-07
9.0776012e-07
9.2080955e-07
9.4752156e-07
9.6178085e-07
9.9567787e-07
8.6570529e-07
9.166707e-07
9.1583599e-07
9.1248949e-07
9.1758321e-07
9.1674298e-07
8.954498e-07
8.6069603e-07
8.3097941e-07
8.1834421e-07
8.2135766e-07
8.3027642e-07
8.3477989e-07
8.2939438e-07
8.1396781e-07
7.9368614e-07
7.7401568e-07
7.6056587e-07
7.5553498e-07
7.5979424e-07
7.7022256e-07
7.8438138e-07
7.9815064e-07
8.0840416e-07
8.1267468e-07
8.1160859e-07
8.047156e-07
7.9346588e-07
7.7934886e-07
7.6417522e-07
7.4957726e-07
7.3702532e-07
7.2750007e-07
7.2005685e-07
7.1855624e-07
7.1969823e-07
7.2520959e-07
7.2889999e-07
7.3497576e-07
7.4141554e-07
7.5179921e-07
7.6011323e-07
7.7433304e-07
7.8344528e-07
7.996522e-07
8.0876521e-07
8.2669093e-07
8.3627761e-07
8.5593216e-07
8.6626292e-07
8.8709176e-07
8.9805163e-07
9.1980169e-07
9.3166802e-07
9.5861046e-07
8.6558313e-07
9.145889e-07
9.1322321e-07
9.0889951e-07
9.1328204e-07
9.1328085e-07
8.93678e-07
8.6002503e-07
8.3038255e-07
8.1735235e-07
8.2013926e-07
8.2932066e-07
8.3459814e-07
8.3015677e-07
8.1543403e-07
7.9539702e-07
7.7543513e-07
7.6131537e-07
7.5530576e-07
7.5867837e-07
7.6858308e-07
7.824401e-07
7.9652407e-07
8.0754575e-07
8.1258149e-07
8.1259861e-07
8.0645149e-07
7.9611007e-07
7.8231792e-07
7.6738792e-07
7.5240412e-07
7.3971571e-07
7.2880831e-07
7.216477e-07
7.1754873e-07
7.1829507e-07
7.2211422e-07
7.267328e-07
7.3116079e-07
7.3760613e-07
7.4621613e-07
7.5391415e-07
7.6654033e-07
7.7559256e-07
7.9040018e-07
7.9943983e-07
8.1574441e-07
8.2468428e-07
8.4298553e-07
8.5220604e-07
8.7122459e-07
8.8071304e-07
8.9996404e-07
9.0986488e-07
9.3211173e-07
8.6453861e-07
9.0811148e-07
9.0648878e-07
9.0251356e-07
9.0777695e-07
9.0954405e-07
8.9189572e-07
8.5941501e-07
8.2991459e-07
8.1649159e-07
8.1901449e-07
8.2844341e-07
8.3442281e-07
8.3088052e-07
8.169203e-07
7.9716859e-07
7.7696014e-07
7.6218486e-07
7.5523211e-07
7.5768533e-07
7.6704521e-07
7.8057291e-07
7.9485183e-07
8.0653609e-07
8.1247539e-07
8.133418e-07
8.0821683e-07
7.9854783e-07
7.8543678e-07
7.7064085e-07
7.5547135e-07
7.4253169e-07
7.3073077e-07
7.232552e-07
7.1715794e-07
7.1744016e-07
7.1923793e-07
7.2444772e-07
7.28235e-07
7.3420337e-07
7.4146242e-07
7.4853578e-07
7.5972739e-07
7.6805012e-07
7.8223932e-07
7.9050937e-07
8.0591161e-07
8.141408e-07
8.3114548e-07
8.396721e-07
8.5747155e-07
8.6608049e-07
8.8379386e-07
8.9238403e-07
9.1197196e-07
8.6347096e-07
8.9766684e-07
8.9621212e-07
8.9433349e-07
9.0208695e-07
9.0625596e-07
8.905568e-07
8.591252e-07
8.2969294e-07
8.1582764e-07
8.1806098e-07
8.2767073e-07
8.3430917e-07
8.3162012e-07
8.1842949e-07
7.9898354e-07
7.7859209e-07
7.6317653e-07
7.5534267e-07
7.5687138e-07
7.6560221e-07
7.7883141e-07
7.9316756e-07
8.053884e-07
8.1227992e-07
8.1385576e-07
8.0978643e-07
8.0086067e-07
7.8831835e-07
7.7393942e-07
7.5867371e-07
7.4531729e-07
7.3308096e-07
7.2487185e-07
7.1765656e-07
7.1654812e-07
7.1736802e-07
7.2185487e-07
7.2540353e-07
7.3126116e-07
7.3704684e-07
7.4374317e-07
7.5343169e-07
7.6130808e-07
7.7416172e-07
7.825551e-07
7.965527e-07
8.0477835e-07
8.2002463e-07
8.2821547e-07
8.4453982e-07
8.5287958e-07
8.6941303e-07
8.7763436e-07
8.9502236e-07
8.6339339e-07
8.9744426e-07
8.9547528e-07
8.9329447e-07
9.0107329e-07
9.0594199e-07
8.9111326e-07
8.5999751e-07
8.3017462e-07
8.1559339e-07
8.1736176e-07
8.2702104e-07
8.3425013e-07
8.3238591e-07
8.1994135e-07
8.0078909e-07
7.8027961e-07
7.6425908e-07
7.5559498e-07
7.5620118e-07
7.6425636e-07
7.7714386e-07
7.914978e-07
8.0415682e-07
8.1194266e-07
8.1436752e-07
8.1108028e-07
8.032342e-07
7.9104346e-07
7.7723004e-07
7.6204209e-07
7.4817897e-07
7.3559397e-07
7.2670584e-07
7.18868e-07
7.160105e-07
7.1583412e-07
7.1970247e-07
7.2284034e-07
7.2809261e-07
7.3337015e-07
7.3949408e-07
7.4781159e-07
7.5523615e-07
7.671329e-07
7.7480683e-07
7.8832414e-07
7.959461e-07
8.1025538e-07
8.176611e-07
8.3318575e-07
8.4105488e-07
8.5650239e-07
8.64272e-07
8.8038234e-07
8.6326365e-07
8.986734e-07
8.96034e-07
8.9337334e-07
9.0091158e-07
9.0608884e-07
8.9182172e-07
8.6093442e-07
8.3073621e-07
8.1546806e-07
8.1674911e-07
8.264378e-07
8.3424373e-07
8.3317334e-07
8.2151094e-07
8.0269697e-07
7.8208148e-07
7.6548699e-07
7.5601186e-07
7.5569816e-07
7.6305323e-07
7.7554651e-07
7.8985948e-07
8.0291517e-07
8.1149423e-07
8.1477899e-07
8.1228126e-07
8.0535263e-07
7.9384367e-07
7.8033904e-07
7.6545894e-07
7.5125429e-07
7.3825229e-07
7.2862885e-07
7.2044295e-07
7.1611696e-07
7.1463441e-07
7.1759036e-07
7.2064853e-07
7.2562881e-07
7.2971031e-07
7.3573596e-07
7.4305776e-07
7.4985335e-07
7.6052592e-07
7.6798139e-07
7.8057365e-07
7.8800745e-07
8.0139223e-07
8.0857076e-07
8.2294261e-07
8.3013743e-07
8.4452731e-07
8.5208913e-07
8.6727139e-07
8.6416487e-07
9.0852768e-07
9.0558432e-07
9.0072544e-07
9.0607635e-07
9.0995496e-07
8.949696e-07
8.6338297e-07
8.3221173e-07
8.1587648e-07
8.164357e-07
8.2602318e-07
8.3429072e-07
8.3394494e-07
8.2306235e-07
8.0460479e-07
7.839246e-07
7.6677681e-07
7.5651243e-07
7.5528243e-07
7.6190551e-07
7.7400709e-07
7.8820858e-07
8.0161982e-07
8.109789e-07
8.1502348e-07
8.1343083e-07
8.0722696e-07
7.9656182e-07
7.8339036e-07
7.6877787e-07
7.545046e-07
7.410263e-07
7.308242e-07
7.219243e-07
7.1688513e-07
7.1390373e-07
7.1586635e-07
7.1837638e-07
7.2331451e-07
7.2672082e-07
7.3232457e-07
7.3862282e-07
7.4512327e-07
7.5462324e-07
7.6175145e-07
7.7342793e-07
7.8074412e-07
7.9320252e-07
8.0045569e-07
8.1370806e-07
8.2028535e-07
8.3415026e-07
8.4118495e-07
8.5555665e-07
8.6430853e-07
9.1062637e-07
9.0908046e-07
9.0476852e-07
9.0980282e-07
9.1304543e-07
8.9751565e-07
8.6539001e-07
8.3344928e-07
8.1621962e-07
8.1614046e-07
8.2565793e-07
8.3436263e-07
8.347815e-07
8.2466428e-07
8.065996e-07
7.8589023e-07
7.6823955e-07
7.572203e-07
7.5510788e-07
7.6095642e-07
7.7263147e-07
7.8666793e-07
8.003672e-07
8.1038721e-07
8.1526935e-07
8.1439717e-07
8.0910933e-07
7.9910404e-07
7.8648905e-07
7.721187e-07
7.5785354e-07
7.4405021e-07
7.3337871e-07
7.236023e-07
7.1813677e-07
7.1359845e-07
7.147478e-07
7.1620414e-07
7.2103317e-07
7.2407875e-07
7.2938437e-07
7.3480734e-07
7.4085199e-07
7.4914819e-07
7.5588136e-07
7.6715256e-07
7.7380163e-07
7.8583133e-07
7.9271423e-07
8.0517964e-07
8.1163544e-07
8.2467176e-07
8.3094253e-07
8.4473547e-07
8.6425748e-07
9.1581161e-07
9.1640654e-07
9.1207714e-07
9.1659728e-07
9.1896134e-07
9.0225879e-07
8.6884804e-07
8.3558853e-07
8.1713232e-07
8.1619503e-07
8.2547623e-07
8.3451898e-07
8.3563422e-07
8.2621668e-07
8.0853703e-07
7.8781141e-07
7.6968883e-07
7.5796737e-07
7.5497699e-07
7.6006666e-07
7.7128647e-07
7.851363e-07
7.9906869e-07
8.0970865e-07
8.1541588e-07
8.1524915e-07
8.1072773e-07
8.0157471e-07
7.8930238e-07
7.7534163e-07
7.6117067e-07
7.470456e-07
7.3594084e-07
7.2542415e-07
7.1956586e-07
7.1382338e-07
7.1382937e-07
7.1443807e-07
7.1899137e-07
7.2169971e-07
7.2666227e-07
7.3152423e-07
7.3714576e-07
7.4431434e-07
7.5074762e-07
7.6092536e-07
7.6763718e-07
7.7897946e-07
7.8580674e-07
7.9748074e-07
8.0386275e-07
8.1574921e-07
8.2230507e-07
8.3473692e-07
8.6387683e-07
9.1654331e-07
9.1727481e-07
9.1295744e-07
9.1796415e-07
9.2086468e-07
9.0445827e-07
8.7088552e-07
8.37017e-07
8.1773904e-07
8.1613089e-07
8.2526249e-07
8.3465062e-07
8.3646072e-07
8.2778674e-07
8.1058253e-07
7.8988085e-07
7.7134679e-07
7.5895746e-07
7.5512053e-07
7.5943514e-07
7.7016965e-07
7.8382712e-07
7.9791135e-07
8.0902772e-07
8.1553249e-07
8.1612296e-07
8.1228891e-07
8.0396171e-07
7.9230083e-07
7.78551e-07
7.6461795e-07
7.5037082e-07
7.3870788e-07
7.2770036e-07
7.2114914e-07
7.1467367e-07
7.1331947e-07
7.1305992e-07
7.1691526e-07
7.1948993e-07
7.2418921e-07
7.2829458e-07
7.3364473e-07
7.4007921e-07
7.4597746e-07
7.5504959e-07
7.6156561e-07
7.723901e-07
7.7906864e-07
7.9027374e-07
7.9642952e-07
8.0786986e-07
8.1408506e-07
8.2520441e-07
8.6341348e-07
9.1524671e-07
9.1774235e-07
9.1478533e-07
9.2055766e-07
9.2350562e-07
9.0685359e-07
8.7291927e-07
8.3846776e-07
8.1844358e-07
8.1622397e-07
8.2518604e-07
8.348567e-07
8.3725537e-07
8.2925066e-07
8.1248824e-07
7.9179518e-07
7.7290706e-07
7.598719e-07
7.5522735e-07
7.587891e-07
7.6900887e-07
7.8251992e-07
7.9674184e-07
8.0830029e-07
8.1559174e-07
8.1681732e-07
8.1366782e-07
8.0592561e-07
7.9511111e-07
7.8154554e-07
7.6777128e-07
7.5368043e-07
7.4139244e-07
7.2998833e-07
7.2276597e-07
7.1583401e-07
7.1325781e-07
7.1199133e-07
7.1510082e-07
7.1753471e-07
7.2199881e-07
7.2548168e-07
7.3049448e-07
7.3616344e-07
7.4165227e-07
7.499347e-07
7.559456e-07
7.6630105e-07
7.7268377e-07
7.8387365e-07
7.8991159e-07
8.0086297e-07
8.0608154e-07
8.1706686e-07
8.6320039e-07
9.163059e-07
9.1910902e-07
9.1597552e-07
9.2144244e-07
9.2434268e-07
9.0790606e-07
8.7412006e-07
8.3947528e-07
8.1896405e-07
8.1627716e-07
8.251122e-07
8.3506714e-07
8.3807542e-07
8.3075669e-07
8.1448369e-07
7.9386884e-07
7.7467234e-07
7.6110653e-07
7.5566041e-07
7.5848482e-07
7.6816437e-07
7.8142603e-07
7.9570694e-07
8.0765375e-07
8.1558445e-07
8.1755208e-07
8.1502162e-07
8.0797431e-07
7.9776451e-07
7.8460315e-07
7.7100496e-07
7.5708319e-07
7.4441736e-07
7.3258219e-07
7.2457107e-07
7.1728013e-07
7.1371361e-07
7.1121391e-07
7.1344876e-07
7.1538823e-07
7.1983631e-07
7.2281827e-07
7.2731743e-07
7.325756e-07
7.3773559e-07
7.4490283e-07
7.5077679e-07
7.6008859e-07
7.6668027e-07
7.7739837e-07
7.8336032e-07
7.9363253e-07
7.9918992e-07
8.094967e-07
8.63091e-07
9.1583161e-07
9.1948276e-07
9.1703911e-07
9.2278926e-07
9.2573183e-07
9.0930893e-07
8.7546354e-07
8.4051254e-07
8.1952853e-07
8.1644272e-07
8.2519552e-07
8.3539417e-07
8.3889317e-07
8.3213277e-07
8.1624543e-07
7.9568503e-07
7.7617103e-07
7.620585e-07
7.5581021e-07
7.5795419e-07
7.6704535e-07
7.8014381e-07
7.9447548e-07
8.067673e-07
8.1533888e-07
8.1794065e-07
8.1593133e-07
8.0947979e-07
7.9985414e-07
7.871098e-07
7.7374535e-07
7.5991201e-07
7.4701959e-07
7.3493158e-07
7.2635321e-07
7.1835729e-07
7.1425018e-07
7.1072585e-07
7.1207629e-07
7.133098e-07
7.1752137e-07
7.2048077e-07
7.243331e-07
7.2935536e-07
7.339812e-07
7.401936e-07
7.4560092e-07
7.5436485e-07
7.6101745e-07
7.7120077e-07
7.7718618e-07
7.8702429e-07
7.9280659e-07
8.0204828e-07
8.6302318e-07
9.1782457e-07
9.2127791e-07
9.1831727e-07
9.2360835e-07
9.2649594e-07
9.1032551e-07
8.7668319e-07
8.4162194e-07
8.2028007e-07
8.168517e-07
8.2551976e-07
8.3590371e-07
8.398277e-07
8.336218e-07
8.1813986e-07
7.9763002e-07
7.7785667e-07
7.6319462e-07
7.5620082e-07
7.5753994e-07
7.6602858e-07
7.7874069e-07
7.9305663e-07
8.0562425e-07
8.1467375e-07
8.1799481e-07
8.1651361e-07
8.1057026e-07
8.0140166e-07
7.8907089e-07
7.7596483e-07
7.6247357e-07
7.4933146e-07
7.3692751e-07
7.2756001e-07
7.1927776e-07
7.1428445e-07
7.1012723e-07
7.1002356e-07
7.109845e-07
7.1441925e-07
7.1760576e-07
7.2085796e-07
7.2545431e-07
7.2951839e-07
7.3531455e-07
7.4006953e-07
7.4803978e-07
7.5409667e-07
7.6386093e-07
7.6965874e-07
7.7958568e-07
7.8482089e-07
7.9383113e-07
8.6313135e-07
9.1784239e-07
9.2171839e-07
9.1894275e-07
9.2424542e-07
9.2716352e-07
9.1110874e-07
8.7749997e-07
8.423303e-07
8.207615e-07
8.1718426e-07
8.2588448e-07
8.3642914e-07
8.4065232e-07
8.3476587e-07
8.1940796e-07
7.9879319e-07
7.7856529e-07
7.6316949e-07
7.5539149e-07
7.5590858e-07
7.6365069e-07
7.7609912e-07
7.9047029e-07
8.0356802e-07
8.1353823e-07
8.1799656e-07
8.1691298e-07
8.1138156e-07
8.0216287e-07
7.8987469e-07
7.7651042e-07
7.6303825e-07
7.4948526e-07
7.3726807e-07
7.2650075e-07
7.1824702e-07
7.1206329e-07
7.0830058e-07
7.0645707e-07
7.0730985e-07
7.0975915e-07
7.1319325e-07
7.159895e-07
7.200774e-07
7.2389163e-07
7.288474e-07
7.3358419e-07
7.4052838e-07
7.476491e-07
7.5569934e-07
7.6169083e-07
7.7084122e-07
7.7701995e-07
7.8377653e-07
8.6318429e-07
9.2063582e-07
9.2391671e-07
9.2031897e-07
9.2491694e-07
9.2772084e-07
9.1192785e-07
8.7847581e-07
8.431818e-07
8.2095051e-07
8.1678897e-07
8.2535587e-07
8.3654818e-07
8.4173772e-07
8.365687e-07
8.2139487e-07
8.0018579e-07
7.7898951e-07
7.6260205e-07
7.5421554e-07
7.542541e-07
7.6171461e-07
7.7439222e-07
7.8905352e-07
8.0390387e-07
8.1625995e-07
8.2633247e-07
8.2867524e-07
8.2392816e-07
8.134782e-07
7.9923946e-07
7.8391343e-07
7.6816095e-07
7.515859e-07
7.3819054e-07
7.2576267e-07
7.1731422e-07
7.0963764e-07
7.0572476e-07
7.0231901e-07
7.0299769e-07
7.0457546e-07
7.0803194e-07
7.1038053e-07
7.1333979e-07
7.1692274e-07
7.2142198e-07
7.2692853e-07
7.331303e-07
7.4089392e-07
7.4756626e-07
7.5476913e-07
7.6129649e-07
7.7007127e-07
7.5368646e-07
8.6389687e-07
9.2145748e-07
9.2588473e-07
9.2228188e-07
9.2677929e-07
9.3024645e-07
9.1541365e-07
8.8138622e-07
8.4398014e-07
8.1947997e-07
8.1461878e-07
8.2390135e-07
8.4053576e-07
8.5298034e-07
8.5400353e-07
8.418898e-07
8.1896871e-07
7.9402979e-07
7.7578642e-07
7.6828936e-07
7.7366444e-07
7.8664887e-07
7.9924416e-07
8.2443449e-07
8.5415284e-07
8.7775261e-07
8.9782836e-07
9.0990871e-07
9.1869944e-07
9.2705493e-07
9.0872295e-07
8.8400943e-07
8.4864128e-07
8.1193176e-07
7.8887767e-07
7.7219307e-07
7.5725983e-07
7.4622445e-07
7.4128366e-07
7.3854509e-07
7.386666e-07
7.3987186e-07
7.4219449e-07
7.4432939e-07
7.4637113e-07
7.5047552e-07
7.5637632e-07
7.6551567e-07
7.7602012e-07
7.8639613e-07
7.9416949e-07
8.0232456e-07
8.080572e-07
7.136906e-07
8.0935395e-07
8.6743153e-07
9.3158315e-07
9.4222285e-07
9.4150792e-07
9.4920943e-07
9.5971651e-07
9.5225138e-07
9.1883533e-07
8.7269253e-07
8.4449788e-07
8.5169972e-07
8.7651078e-07
9.1905475e-07
9.7639617e-07
1.0151367e-06
1.0434733e-06
1.0371567e-06
9.9571818e-07
9.7675533e-07
9.7909243e-07
9.862644e-07
9.9794525e-07
1.0493195e-06
1.1368392e-06
1.2221859e-06
1.2802763e-06
1.3217102e-06
1.359524e-06
1.3833905e-06
1.3861265e-06
1.3890925e-06
1.3801415e-06
1.3411695e-06
1.2266642e-06
1.1614775e-06
1.1427322e-06
1.1132494e-06
1.0780492e-06
1.0617576e-06
1.0604258e-06
1.0629186e-06
1.067915e-06
1.071461e-06
1.0762012e-06
1.0876766e-06
1.1122155e-06
1.1221502e-06
1.1369595e-06
1.1671286e-06
1.1930051e-06
1.2136262e-06
1.2281876e-06
1.2358514e-06
1.1954334e-06
1.2014701e-06
8.6935491e-07
9.3879094e-07
9.8221087e-07
9.7989185e-07
9.9677109e-07
1.0778139e-06
1.1598325e-06
1.2033016e-06
1.185959e-06
1.207838e-06
1.2300943e-06
1.3079465e-06
1.5037696e-06
1.6704174e-06
1.7602255e-06
1.7946878e-06
1.8108238e-06
1.8132936e-06
1.7768621e-06
1.7710343e-06
1.7786279e-06
1.8188625e-06
1.9531867e-06
2.096003e-06
2.2323432e-06
2.3282543e-06
2.3886697e-06
2.4453871e-06
2.4936572e-06
2.4993169e-06
2.4821876e-06
2.4702574e-06
2.4506955e-06
2.3467579e-06
2.2188364e-06
2.181467e-06
2.158663e-06
2.1154539e-06
2.0882554e-06
2.0875807e-06
2.1049784e-06
2.1485816e-06
2.1666443e-06
2.1606405e-06
2.2045147e-06
2.2409972e-06
2.2429122e-06
2.2540735e-06
2.2968093e-06
2.3793416e-06
2.4849726e-06
2.4968972e-06
2.3373016e-06
2.430506e-06
2.493092e-06
5.9773686e-07
9.4811398e-07
1.0889896e-06
1.2103676e-06
1.3192624e-06
1.5847518e-06
1.935747e-06
1.9978176e-06
2.0592791e-06
2.1064373e-06
2.2306573e-06
2.4056165e-06
2.6463553e-06
2.8424084e-06
2.9595255e-06
3.007238e-06
3.0091661e-06
3.0221284e-06
3.0222221e-06
3.0467702e-06
3.0758281e-06
3.1236186e-06
3.2383454e-06
3.3413673e-06
3.4810108e-06
3.5682427e-06
3.5899736e-06
3.6464698e-06
3.7545337e-06
3.8014135e-06
3.795506e-06
3.7505822e-06
3.7098287e-06
3.5941433e-06
3.6014127e-06
3.6035476e-06
3.6000604e-06
3.5491451e-06
3.538233e-06
3.4498501e-06
3.6409928e-06
3.4556081e-06
3.5802757e-06
3.6653833e-06
3.4549464e-06
3.6092795e-06
3.3646816e-06
3.7146724e-06
3.3725638e-06
3.8730067e-06
3.5271654e-06
3.8561467e-06
3.6987145e-06
3.7806206e-06
3.9752475e-06
3.92789e-07
9.1071918e-07
1.3495808e-06
1.4354378e-06
1.6493022e-06
1.8431792e-06
2.0845511e-06
2.1714335e-06
2.3953831e-06
2.5648027e-06
2.4874608e-06
2.3867094e-06
2.333739e-06
2.31485e-06
2.3266739e-06
2.3443089e-06
2.2769088e-06
2.17162e-06
1.9933907e-06
1.9109929e-06
1.7833666e-06
1.6643251e-06
1.5530371e-06
1.4550065e-06
1.388197e-06
1.3862259e-06
1.439756e-06
1.5204726e-06
1.6170624e-06
1.6735318e-06
1.763771e-06
1.8022428e-06
1.8223416e-06
1.7653804e-06
1.858796e-06
1.8385339e-06
1.8442292e-06
1.7599625e-06
1.7972925e-06
1.7925631e-06
1.7418782e-06
1.7899699e-06
1.7513416e-06
1.7275781e-06
1.796734e-06
1.7286365e-06
1.791147e-06
1.7034652e-06
1.791966e-06
1.7179044e-06
1.8021848e-06
1.7330404e-06
1.7931537e-06
1.8108147e-06
1.7342554e-06
1.770992e-06
3.8414979e-06
2.6419886e-06
1.2920802e-06
7.1726586e-07
7.8376929e-07
7.9186326e-07
8.0140808e-07
8.0857084e-07
8.1597911e-07
8.2375402e-07
8.3233165e-07
8.4147095e-07
8.517624e-07
8.6296887e-07
8.7489555e-07
8.8776886e-07
9.0258975e-07
9.1918861e-07
9.3941597e-07
9.6722954e-07
1.0031957e-06
1.0434875e-06
1.0676355e-06
1.0960996e-06
1.149398e-06
1.2158604e-06
1.7791645e-06
3.8996261e-06
2.4889198e-06
1.2568255e-06
7.2250544e-07
7.1511926e-07
7.9898314e-07
8.0802402e-07
8.1700226e-07
8.2508271e-07
8.3305479e-07
8.4129138e-07
8.4968626e-07
8.5907413e-07
8.6976103e-07
8.8134136e-07
8.9422621e-07
9.085442e-07
9.2551334e-07
9.4462859e-07
9.7036298e-07
1.0056898e-06
1.0526644e-06
1.0814711e-06
1.1028053e-06
1.1508022e-06
1.2226252e-06
1.5706705e-06
3.9176691e-06
2.596464e-06
1.3909271e-06
7.6362732e-07
6.8721514e-07
8.0710617e-07
8.180756e-07
8.2972459e-07
8.3797077e-07
8.4629941e-07
8.5497094e-07
8.6414382e-07
8.7379983e-07
8.8413702e-07
8.9478911e-07
9.0679812e-07
9.2021843e-07
9.3609866e-07
9.5428858e-07
9.7673707e-07
1.0091519e-06
1.0599688e-06
1.0989157e-06
1.1179203e-06
1.155278e-06
1.2274311e-06
1.7446572e-06
3.7673055e-06
2.8479142e-06
1.5636356e-06
7.536301e-07
6.3976789e-07
8.046534e-07
8.3252528e-07
8.4195647e-07
8.4939002e-07
8.572213e-07
8.6502448e-07
8.740963e-07
8.834229e-07
8.9370731e-07
9.050018e-07
9.1698657e-07
9.3137915e-07
9.475561e-07
9.6638663e-07
9.8844705e-07
1.0173644e-06
1.0665193e-06
1.115694e-06
1.1381936e-06
1.1678189e-06
1.2315841e-06
1.7081779e-06
3.5282358e-06
2.9273907e-06
1.5548854e-06
7.7457558e-07
6.1283221e-07
7.3046907e-07
8.4359545e-07
8.5277082e-07
8.6155553e-07
8.6960579e-07
8.7719302e-07
8.8550137e-07
8.9408364e-07
9.0318096e-07
9.1301522e-07
9.2463518e-07
9.3844534e-07
9.5544617e-07
9.7483758e-07
9.9798679e-07
1.023499e-06
1.0706786e-06
1.1277977e-06
1.1614311e-06
1.1872388e-06
1.2452329e-06
1.4976343e-06
3.4303796e-06
2.8804391e-06
1.724333e-06
8.4839018e-07
5.9870179e-07
6.9895215e-07
8.4848916e-07
8.5815589e-07
8.6851276e-07
8.7738071e-07
8.8572291e-07
8.9421653e-07
9.0325772e-07
9.1297362e-07
9.2303208e-07
9.3534754e-07
9.4866839e-07
9.6561541e-07
9.8340578e-07
1.0064754e-06
1.0295851e-06
1.0725175e-06
1.134157e-06
1.1789269e-06
1.2040876e-06
1.2656962e-06
1.3488034e-06
3.3766955e-06
3.0376163e-06
1.8490569e-06
8.2892437e-07
5.5618748e-07
6.1838863e-07
8.5718645e-07
8.6719998e-07
8.7629603e-07
8.8399221e-07
8.917916e-07
9.0010498e-07
9.0907552e-07
9.1917323e-07
9.3025406e-07
9.4327646e-07
9.5795948e-07
9.7507896e-07
9.9459511e-07
1.0178577e-06
1.0416321e-06
1.0771202e-06
1.1396896e-06
1.1935041e-06
1.2207917e-06
1.284773e-06
1.2759584e-06
3.0357363e-06
3.0484213e-06
1.7892389e-06
8.4655605e-07
5.3096319e-07
5.4104117e-07
7.6487598e-07
8.8183299e-07
8.9057395e-07
8.9728055e-07
9.0417135e-07
9.1145739e-07
9.1926235e-07
9.2846882e-07
9.392192e-07
9.5148987e-07
9.6601849e-07
9.8258513e-07
1.0021283e-06
1.0254234e-06
1.0523275e-06
1.0824151e-06
1.1412552e-06
1.2023426e-06
1.2359917e-06
1.3032814e-06
1.0334735e-06
2.8372731e-06
3.0985013e-06
1.7808442e-06
8.9757014e-07
5.4533759e-07
5.1644958e-07
6.8605474e-07
8.8904299e-07
9.0087036e-07
9.1011774e-07
9.1778476e-07
9.2544465e-07
9.3314392e-07
9.4218197e-07
9.5295154e-07
9.6510641e-07
9.7938333e-07
9.9475013e-07
1.0133836e-06
1.0354819e-06
1.0629054e-06
1.0895863e-06
1.145044e-06
1.2046005e-06
1.2499784e-06
1.3216007e-06
9.7040471e-07
2.7361086e-06
3.0099879e-06
1.8356683e-06
9.3899478e-07
5.5125315e-07
5.103139e-07
6.2294443e-07
8.8913723e-07
9.0637224e-07
9.166968e-07
9.2510109e-07
9.3376264e-07
9.4287541e-07
9.5306718e-07
9.6460225e-07
9.7785266e-07
9.9280255e-07
1.0092788e-06
1.0298485e-06
1.0515674e-06
1.0791995e-06
1.1029175e-06
1.1523952e-06
1.2086452e-06
1.2605067e-06
1.3398118e-06
8.5280437e-07
2.7740381e-06
3.0861876e-06
2.0614886e-06
9.4019009e-07
5.548488e-07
4.8393621e-07
5.495909e-07
7.7262333e-07
9.1604693e-07
9.2674176e-07
9.3470815e-07
9.4251581e-07
9.5143108e-07
9.6181404e-07
9.7348419e-07
9.8734399e-07
1.0019341e-06
1.0200483e-06
1.0401845e-06
1.0631986e-06
1.0929228e-06
1.1150695e-06
1.1597812e-06
1.2129481e-06
1.2656411e-06
1.3493886e-06
6.5714396e-07
2.6730153e-06
3.1972819e-06
2.0753924e-06
9.5632183e-07
5.242022e-07
4.5517555e-07
5.0884509e-07
6.7256047e-07
9.2843452e-07
9.3981177e-07
9.5066626e-07
9.5980224e-07
9.6825296e-07
9.7810512e-07
9.8926433e-07
1.0027465e-06
1.017055e-06
1.0345243e-06
1.0536155e-06
1.0757624e-06
1.1078279e-06
1.1305246e-06
1.1733314e-06
1.2241704e-06
1.2760021e-06
1.3584631e-06
4.7680742e-07
2.3635345e-06
3.2876602e-06
2.2225326e-06
1.0407633e-06
5.5554181e-07
4.3711963e-07
4.6861217e-07
6.0664136e-07
8.6988809e-07
9.5465716e-07
9.6439711e-07
9.7407942e-07
9.8405831e-07
9.9509066e-07
1.0073737e-06
1.0212074e-06
1.0360443e-06
1.0535493e-06
1.0727091e-06
1.0921536e-06
1.1236968e-06
1.1460585e-06
1.1869397e-06
1.2395118e-06
1.2890468e-06
1.3725397e-06
3.6936868e-07
2.1031107e-06
3.2566399e-06
2.2994043e-06
1.1992491e-06
5.7924569e-07
4.5197262e-07
4.6465189e-07
5.5834377e-07
7.9373393e-07
9.6242112e-07
9.7400712e-07
9.8389046e-07
9.9392891e-07
1.0058469e-06
1.0190098e-06
1.0339244e-06
1.0502489e-06
1.0682388e-06
1.0899351e-06
1.1092219e-06
1.1408596e-06
1.1607422e-06
1.1973328e-06
1.2479665e-06
1.2970875e-06
1.3838111e-06
2.7800543e-07
1.8286604e-06
3.1828854e-06
2.483371e-06
1.221502e-06
6.1428116e-07
4.3681648e-07
4.3980152e-07
5.161966e-07
6.9488092e-07
9.7283901e-07
9.8689307e-07
9.9727735e-07
1.0067599e-06
1.0177149e-06
1.0301885e-06
1.0439674e-06
1.0604467e-06
1.0780582e-06
1.0999049e-06
1.1187621e-06
1.1526181e-06
1.1735309e-06
1.206173e-06
1.2542525e-06
1.2994812e-06
1.3880813e-06
2.1004527e-07
1.6600281e-06
3.1426526e-06
2.2456799e-06
1.3156809e-06
6.3311175e-07
4.3165745e-07
4.2088139e-07
4.7265826e-07
6.142462e-07
8.8305351e-07
9.9581076e-07
1.0092433e-06
1.0197532e-06
1.031022e-06
1.0438184e-06
1.0579464e-06
1.0747585e-06
1.0924574e-06
1.1147028e-06
1.1343092e-06
1.168148e-06
1.1930645e-06
1.223039e-06
1.266342e-06
1.3075563e-06
1.3943453e-06
1.2715795e-07
1.6562057e-06
2.8649658e-06
2.6416447e-06
1.4192544e-06
6.4075208e-07
4.6116629e-07
4.0385535e-07
4.5384936e-07
5.6556786e-07
7.8399707e-07
1.0049991e-06
1.0188378e-06
1.0302626e-06
1.0430874e-06
1.0570898e-06
1.0719553e-06
1.0887345e-06
1.1070775e-06
1.1300538e-06
1.1489729e-06
1.1805456e-06
1.2074832e-06
1.236431e-06
1.2778464e-06
1.3135175e-06
1.4026338e-06
2.3511262e-07
1.3837763e-06
3.0562679e-06
2.6651037e-06
1.0983299e-06
5.7350141e-07
3.8145525e-07
3.6075178e-07
3.9369565e-07
5.0171169e-07
6.8749179e-07
9.7074773e-07
1.0335115e-06
1.0452238e-06
1.0579633e-06
1.0717075e-06
1.0870329e-06
1.1032523e-06
1.1211591e-06
1.1438661e-06
1.1606678e-06
1.1919884e-06
1.2192527e-06
1.2474529e-06
1.2873123e-06
1.3199452e-06
1.4074551e-06
2.1328887e-07
9.9230846e-07
2.5866851e-06
2.162794e-06
9.9799994e-07
5.7470313e-07
3.4123868e-07
3.3344642e-07
3.6067355e-07
4.4552114e-07
6.1237354e-07
8.6128201e-07
1.0536038e-06
1.0660065e-06
1.0769389e-06
1.0889677e-06
1.1035003e-06
1.1194113e-06
1.1356526e-06
1.1595097e-06
1.1750082e-06
1.2081107e-06
1.2331549e-06
1.2613385e-06
1.298429e-06
1.3274889e-06
1.4059888e-06
1.4550771e-07
7.6283421e-07
2.3735731e-06
1.9356771e-06
1.1693908e-06
6.395842e-07
3.9813286e-07
3.5536991e-07
3.7216868e-07
4.5297844e-07
5.8849531e-07
8.2853376e-07
1.0637358e-06
1.0799231e-06
1.0919025e-06
1.1046322e-06
1.1195084e-06
1.1363345e-06
1.1524367e-06
1.1775722e-06
1.1932729e-06
1.2246285e-06
1.2476658e-06
1.2778116e-06
1.3105003e-06
1.3365683e-06
1.4063702e-06
6.7411513e-08
7.6313372e-07
2.445321e-06
1.9371543e-06
1.3491064e-06
6.8653874e-07
4.8932592e-07
4.4840639e-07
4.4283002e-07
5.0471642e-07
6.3034055e-07
8.3577351e-07
1.0672452e-06
1.0858784e-06
1.1017188e-06
1.1177982e-06
1.1350019e-06
1.1539485e-06
1.1711562e-06
1.1967e-06
1.2116547e-06
1.2410812e-06
1.2623202e-06
1.2923921e-06
1.3245e-06
1.3481834e-06
1.4077129e-06
1.4914658e-08
1.064097e-06
2.7420525e-06
2.6895601e-06
1.9345188e-06
8.9861208e-07
6.4452616e-07
5.1802126e-07
5.2263363e-07
5.020835e-07
6.0906014e-07
7.7417941e-07
1.002874e-06
1.0912558e-06
1.1089847e-06
1.1279243e-06
1.14634e-06
1.1668132e-06
1.1841097e-06
1.209163e-06
1.2238362e-06
1.2539923e-06
1.2756736e-06
1.3066495e-06
1.3406156e-06
1.3602951e-06
1.4112919e-06
4.6253425e-07
1.2503385e-06
2.9227908e-06
2.5323291e-06
1.9174314e-06
1.1981453e-06
6.0017092e-07
4.4132024e-07
4.1722467e-07
4.1689787e-07
5.0979247e-07
6.5372908e-07
8.4529478e-07
1.0997802e-06
1.1185074e-06