/*--------------------------------*- C++ -*----------------------------------*\
| =========                 |                                                 |
| \\      /  F ield         | OpenFOAM: The Open Source CFD Toolbox           |
|  \\    /   O peration     | Version:  2406                                  |
|   \\  /    A nd           | Website:  www.openfoam.com                      |
|    \\/     M anipulation  |                                                 |
\*---------------------------------------------------------------------------*/
FoamFile
{
    version     2.0;
    format      ascii;
    arch        "LSB;label=32;scalar=64";
    class       volScalarField;
    location    "23";
    object      p_0;
}
// * * * * * * * * * * * * * * * * * * * * * * * * * * * * * * * * * * * * * //

dimensions      [1 -1 -2 0 0 0 0];

internalField   nonuniform List<scalar> 
62344
(
1.0057364
1.0041948
1.0056582
1.0027391
1.0031239
1.0041047
1.0076656
1.0123077
1.0082558
1.0125336
1.0138072
1.008653
1.0040549
1.0127604
1.0025005
1.0003869
1.0055496
1.0148009
1.0255099
1.0244919
1.0125764
1.0132517
1.0168718
1.0119079
1.0178231
1.0181866
1.0067127
1.0050011
1.0060941
0.9966256
1.0040374
1.0259559
1.0258321
0.99849502
0.97728245
0.98604098
1.0167764
1.0345987
1.030104
1.009639
0.98168417
0.97038421
0.97583158
0.98588519
0.99381046
1.0136699
1.0492467
1.0877794
1.1006192
1.0691597
1.008341
0.96193373
0.94494316
0.9454475
0.95042209
1.0066719
1.0015416
1.0021464
1.0058899
1.0027366
1.0009123
1.0050323
1.0087986
1.0101563
1.010878
1.0104505
1.0108512
1.0114052
1.0077116
0.99543177
1.0041655
1.0108648
1.008806
1.0178815
1.0279766
1.0184375
1.0144001
1.0138898
1.0066985
1.0147823
1.0139419
1.004728
1.0048943
1.0008579
0.99240925
1.003664
1.0230995
1.0216783
0.99716694
0.9812358
0.9942714
1.017912
1.0279052
1.0168854
0.99844978
0.97919243
0.96520319
0.97378715
0.99951012
1.0247885
1.0434803
1.0653252
1.0811666
1.0768477
1.0452944
0.99415116
0.94342897
0.91343716
0.91062167
0.92961796
1.0064902
1.003047
0.99979365
1.0054313
1.0027414
1.0015756
1.0049936
1.0066975
1.0162062
1.0112664
1.0093193
1.0134782
1.0183223
1.0046612
0.99393053
1.0059484
1.0133395
1.0047349
1.0072661
1.0237769
1.0245841
1.0192124
1.0139628
1.0059814
1.0136466
1.0132188
1.0081362
1.0102466
1.0010842
0.99290494
1.0045733
1.0197075
1.0143102
0.99264856
0.98309339
1.0011423
1.0248653
1.0234854
1.0015003
0.98212043
0.97388561
0.97084881
0.98012276
1.0041354
1.0401983
1.0648968
1.0672495
1.0536674
1.0294674
1.0073096
0.98667389
0.95756138
0.92971485
0.92156202
0.93534031
1.0056369
1.0058038
1.0006213
1.0025583
1.0034622
1.0053733
1.0066651
1.0083693
1.018528
1.013459
1.011369
1.0143951
1.0183259
1.0053296
0.99993429
1.0042001
1.01123
1.006655
1.0027196
1.0179943
1.0266509
1.023844
1.0157054
1.0092006
1.0141739
1.0118705
1.0110503
1.0149213
1.0046172
0.9983397
1.0095035
1.0190137
1.0076954
0.98740038
0.98473722
1.0048883
1.0266206
1.0205547
0.99089747
0.96842867
0.96850822
0.98244096
0.99455952
1.0112801
1.0392209
1.0574307
1.0508338
1.0231995
0.98972692
0.96931434
0.96675575
0.96901498
0.97027101
0.9773495
0.99095787
1.005009
1.0071749
1.0033366
0.99961758
1.0043469
1.0081803
1.0079758
1.0114291
1.0144378
1.0154124
1.0132346
1.0131414
1.012821
1.0053556
1.0083844
1.0021736
1.0064894
1.0113265
1.0073588
1.0151034
1.0253661
1.0259837
1.0168944
1.0118633
1.0148307
1.008751
1.0099981
1.0149754
1.0068491
1.0045457
1.0156193
1.0188431
1.0033752
0.98481302
0.98580175
1.0069672
1.0252602
1.0171013
0.98612323
0.96028785
0.962209
0.99006533
1.0155677
1.0255742
1.0304144
1.0305319
1.0242563
1.0070735
0.98304358
0.96141464
0.95363563
0.97001907
1.0004619
1.0319633
1.0587912
1.0047946
1.0065198
1.0050639
0.99940326
1.0043577
1.0079904
1.0081231
1.012931
1.0106614
1.0142658
1.0128901
1.0135508
1.0084105
1.003279
1.0100631
1.0012906
1.001644
1.0129074
1.0147196
1.0170383
1.0224163
1.0259904
1.0172374
1.0131778
1.015266
1.0070096
1.0081532
1.0114449
1.0053759
1.0069543
1.0186716
1.0184144
1.0005324
0.98485748
0.98784764
1.0079037
1.0223256
1.0130652
0.98449729
0.9573868
0.95950727
0.99104665
1.02765
1.0377338
1.02293
1.0026441
0.98971516
0.99201299
0.99380998
0.98281451
0.9742594
0.98372512
1.0164664
1.0583082
1.092335
1.0050083
1.0049773
1.0057088
1.0017086
1.0030683
1.0054209
1.0070856
1.0119214
1.0101111
1.0113679
1.0118199
1.0151864
1.0070378
1.0011758
1.0062968
1.0008345
0.99829799
1.0107148
1.0187562
1.0210114
1.0203988
1.0243833
1.0167638
1.0138674
1.0156216
1.0076147
1.0088334
1.0089645
1.0022544
1.0063994
1.0183036
1.0161162
0.99831867
0.98609222
0.99203168
1.0089065
1.0173911
1.0080649
0.98362783
0.95953927
0.96068134
0.98854567
1.0269443
1.0439287
1.0272998
0.99320731
0.96901304
0.97058728
0.9907579
1.0074881
1.0135789
1.0239126
1.0438016
1.0680533
1.0875342
1.0054417
1.0042385
1.0049132
1.0040106
1.0020381
1.0029873
1.0054457
1.0097537
1.0120836
1.0087741
1.0114054
1.015642
1.0070132
1.0020368
1.0016687
1.0000312
0.99794613
1.0065451
1.0171882
1.0235391
1.0206541
1.0228836
1.0158367
1.01449
1.0159387
1.0091537
1.0113441
1.0096923
1.0010802
1.0055828
1.01635
1.0123231
0.99592921
0.98816434
0.9978899
1.0118626
1.0130805
1.0016526
0.98080997
0.96555444
0.96773487
0.98805622
1.0188854
1.0376906
1.027606
0.99507287
0.96374082
0.9523401
0.97182198
1.0124
1.0511679
1.0743142
1.084064
1.0837754
1.0735043
1.0058636
1.0044948
1.0036461
1.004746
1.0021849
1.0019954
1.0042884
1.0078647
1.0140222
1.007646
1.0118971
1.013951
1.0071398
1.0060367
0.99952288
0.99917382
1.0001326
1.0021474
1.0125706
1.0230673
1.0222127
1.0220889
1.0149969
1.0153005
1.0163505
1.010497
1.0135788
1.0118816
1.0023837
1.0057275
1.0147272
1.0085489
0.99333107
0.98999139
1.0043975
1.0167366
1.0115071
0.99414793
0.97677566
0.97127804
0.97912391
0.99191654
1.0077758
1.0218612
1.0197507
0.99917624
0.96830838
0.95002625
0.95943533
1.0003602
1.0569417
1.0998959
1.1164303
1.1017608
1.0706991
1.006205
1.0053157
1.0020129
1.0039624
1.0029703
1.0019654
1.0041553
1.0070954
1.0138893
1.0083629
1.0129429
1.0109366
1.0074484
1.0105278
0.99985994
0.99841377
1.0029607
0.99970511
1.0066051
1.0203135
1.023466
1.0224824
1.0145534
1.0162298
1.0166994
1.0112795
1.0148967
1.0138261
1.0049257
1.0071291
1.0141332
1.0059925
0.99101652
0.99065241
1.0087871
1.0226272
1.0132195
0.98832893
0.9709792
0.97400812
0.98985268
0.9995866
1.0012293
1.004008
1.0040735
0.99546236
0.98004012
0.96432823
0.96467667
0.98866063
1.0360127
1.0855005
1.1157086
1.1138878
1.0819024
1.0064169
1.0059491
1.0006455
1.0024978
1.0037033
1.0026408
1.0046861
1.0077543
1.012013
1.0099844
1.0139289
1.008321
1.0083013
1.012702
1.001294
0.99806034
1.0055139
0.99961381
1.0019113
1.0164393
1.0236346
1.0233676
1.0150706
1.0172231
1.0166321
1.0110123
1.0149205
1.0146425
1.0074054
1.0092466
1.0146231
1.0048726
0.98925903
0.99004545
1.0109581
1.0276743
1.016754
0.98511964
0.96535893
0.97388898
0.99844622
1.0094898
1.0023138
0.98984814
0.98470992
0.98417266
0.98749951
0.98639163
0.98581335
0.99465821
1.0177881
1.0515649
1.0827399
1.0974992
1.0878071
1.0064882
1.0059457
1.0001144
1.0012053
1.003957
1.0033683
1.0052551
1.0090905
1.0096099
1.0116068
1.0141461
1.0066931
1.0094707
1.0118566
1.0020083
0.99812467
1.0069337
1.0006731
0.99971319
1.0134729
1.0230122
1.0240337
1.0165161
1.0186567
1.0163769
1.0100533
1.0132655
1.0137784
1.0089264
1.011339
1.0162723
1.0049433
0.98846149
0.98902546
1.0111641
1.029982
1.0209002
0.98520303
0.96120508
0.97116005
1.0025257
1.0191096
1.0091671
0.98365097
0.96562602
0.96780942
0.9864075
1.0054884
1.0113298
1.0120857
1.0141471
1.0228771
1.0395278
1.0548554
1.0670067
1.0063421
1.0054991
1.0004651
1.0005368
1.0036178
1.003808
1.0055325
1.0102793
1.0078279
1.0124181
1.0132049
1.0066208
1.0105971
1.0086468
1.0016655
0.99840416
1.0066797
1.0013049
1.0003998
1.0125915
1.0223452
1.0241931
1.018486
1.020883
1.0166409
1.0091137
1.0104081
1.0115956
1.0094056
1.013098
1.0183776
1.0064856
0.98908435
0.98831924
1.0097296
1.0297039
1.0229402
0.98719748
0.95935375
0.96731406
1.0017488
1.0248396
1.0182614
0.98454713
0.95383267
0.95123557
0.97801841
1.0128238
1.0331867
1.0347449
1.0257865
1.0135081
1.0068019
1.0130687
1.0288586
1.0060129
1.0049455
1.0014971
1.0005496
1.0027989
1.0037783
1.0055493
1.0103257
1.0071042
1.0124651
1.0112991
1.0074672
1.0114513
1.0048441
1.0007242
0.99900275
1.0050537
1.0011277
1.0025899
1.0138068
1.021783
1.0236719
1.0201965
1.0236037
1.0178744
1.0089647
1.0073258
1.0085974
1.0087962
1.0141121
1.0199997
1.009073
0.99152429
0.98885783
1.0077201
1.0272368
1.021994
0.98971105
0.96021818
0.96433133
0.99668307
1.0257227
1.0242551
0.9898899
0.95156576
0.94110503
0.96438445
1.0067348
1.0435325
1.0567849
1.0466972
1.0207325
0.99291624
0.98043819
0.9894516
1.0054755
1.0044512
1.0028832
1.001171
1.0017415
1.0033407
1.0052751
1.0093905
1.0076588
1.0121134
1.0089762
1.0088337
1.0119538
1.0018327
0.99986538
1.0000422
1.0026327
1.0002911
1.0049621
1.0163392
1.0213033
1.0221003
1.020836
1.0259694
1.0198791
1.009794
1.0050131
1.0054513
1.0075982
1.0145065
1.0209854
1.0117001
0.99516039
0.99089798
1.0055918
1.0233917
1.0191987
0.99175998
0.96334112
0.96390909
0.99074444
1.0210855
1.0250965
0.99563823
0.95565663
0.93857531
0.95306859
0.99268831
1.0396073
1.0670735
1.0661293
1.037899
0.99794467
0.96774006
0.96350484
1.0049036
1.0042131
1.0041181
1.0020255
1.0008092
1.0026596
1.0048101
1.0077448
1.0086733
1.0116552
1.0068955
1.0100464
1.0119441
0.99998295
0.99914409
1.001276
1.0001408
0.99884456
1.0065421
1.0188316
1.0210451
1.0198835
1.0204936
1.0270866
1.0218899
1.0111155
1.0037734
1.0025376
1.0063702
1.0147245
1.0213239
1.0136895
0.99862751
0.99437634
1.0046644
1.0188358
1.0150828
0.99280151
0.96812183
0.96621056
0.98544244
1.0135424
1.0204755
0.99824821
0.96250464
0.94381767
0.94937468
0.9782446
1.0245048
1.0618448
1.074763
1.0545723
1.013563
0.97554786
0.95675485
1.0044423
1.0042301
1.0050448
1.0027904
1.000292
1.0018965
1.0042288
1.0059778
1.0097857
1.0112036
1.0054648
1.0109831
1.0115016
0.99928249
0.99887453
1.0023244
0.99814479
0.99715379
1.0072788
1.0201635
1.021019
1.0175469
1.0193164
1.026961
1.0234217
1.0125653
1.0032469
1.0005455
1.0055881
1.0150527
1.0211869
1.0143592
1.0009147
0.99794322
1.0054541
1.0150311
1.0106692
0.9923082
0.97347049
0.97014079
0.98317622
1.0052111
1.0133648
0.99683691
0.96945976
0.95234413
0.95184821
0.97013942
1.0080009
1.0476289
1.0687661
1.0623774
1.0300785
0.99389176
0.96673235
1.0042151
1.0043609
1.0055517
1.0032193
1.0001536
1.0012849
1.0036673
1.0044049
1.0105722
1.0106598
1.0049355
1.0115777
1.0108312
0.99972762
0.99907011
1.0027555
0.99687008
0.99565244
1.0070881
1.020085
1.0211024
1.0159046
1.0180148
1.026
1.0243908
1.0139831
1.0031188
0.99965951
1.0056675
1.0156505
1.0207733
1.0137545
1.0017734
1.0008973
1.0074331
1.0126859
1.0067847
0.99057105
0.97786693
0.97544213
0.98470153
0.99850011
1.0051241
0.99207871
0.97337233
0.96132751
0.95833477
0.96952127
0.99624011
1.0295273
1.0524091
1.0555394
1.0388044
1.012141
0.98592698
1.004199
1.0045611
1.0054873
1.0032817
1.0003269
1.0009559
1.0032448
1.0034148
1.0108747
1.0100855
1.0051946
1.0116992
1.0099903
1.001042
0.9996826
1.0024776
0.99635379
0.99478485
1.0063444
1.018815
1.0211077
1.0153407
1.0172768
1.0248059
1.0246558
1.0151662
1.0033936
0.9994817
1.0064748
1.0167566
1.0201435
1.011742
1.0017846
1.0030377
1.0099568
1.0117186
1.0037144
0.98871232
0.98121902
0.98191164
0.98879779
0.9954887
0.99580823
0.98495395
0.97377343
0.96896209
0.96749183
0.97558391
0.99245676
1.0134719
1.0311541
1.0371989
1.0355492
1.0251404
1.006441
1.004442
1.0047475
1.0049201
1.003049
1.000704
1.0009586
1.0030113
1.0031888
1.0106368
1.0094907
1.0060958
1.0113872
1.0091501
1.0029271
1.0004048
1.0016388
0.99658986
0.99515829
1.0050369
1.0167898
1.0208869
1.015802
1.0173277
1.0236454
1.0243074
1.0160196
1.0039308
0.99975571
1.0076845
1.0184459
1.0194735
1.008954
1.0006569
1.004268
1.0125945
1.0120049
1.0015626
0.98692225
0.98339251
0.98864304
0.99452395
0.99621552
0.98774959
0.97609876
0.97116643
0.97349574
0.97782464
0.98568292
0.99582239
1.0038302
1.0093401
1.0149092
1.022699
1.0282412
1.0235672
1.004785
1.0049425
1.0040255
1.0026421
1.0011858
1.0012246
1.0029168
1.0036735
1.0101476
1.0088805
1.0074886
1.0108596
1.0084297
1.0050281
1.0011279
1.000235
0.99709562
0.99651028
1.0035156
1.0144826
1.0206468
1.0169478
1.0183132
1.0229556
1.0237788
1.0164187
1.0043997
1.0000943
1.0088536
1.0206587
1.0194899
1.0062873
0.99833276
1.0044907
1.0150734
1.0137213
1.0006652
0.98534285
0.98455638
0.99406559
1.0009189
0.99955793
0.98328374
0.96784342
0.96620434
0.97438886
0.98628961
0.99620984
1.0029074
1.0014932
0.99342852
0.99299601
1.0041784
1.020143
1.031317
1.0052322
1.0051081
1.0030054
1.0021591
1.0016972
1.0016723
1.0028265
1.004665
1.0095083
1.0082344
1.0090671
1.0103186
1.0077871
1.0069465
1.0018576
0.99851152
0.99773105
0.99856685
1.0021609
1.0121183
1.0202734
1.0185182
1.0198476
1.0227766
1.0232539
1.0165456
1.0048951
1.0003933
1.0097549
1.0230296
1.0204354
1.0042239
0.99550526
1.0036341
1.0167071
1.0165082
1.0012338
0.98423036
0.98486013
0.99724041
1.0075252
1.0045275
0.98301113
0.96184939
0.9593546
0.9719554
0.99058322
1.0061904
1.0129181
1.0050028
0.98665605
0.97696748
0.98514891
1.004879
1.0277416
1.0057038
1.0052456
1.0020085
1.0016896
1.0021875
1.0021819
1.0027742
1.0059434
1.0088214
1.0075385
1.0105734
1.009879
1.0072239
1.0085656
1.0025759
0.99665024
0.99832132
1.000781
1.0011678
1.0098953
1.0195904
1.0202408
1.0215215
1.0230763
1.0227146
1.016396
1.0053006
1.0004775
1.0106487
1.0249832
1.0218018
1.0028536
0.99287405
1.0019608
1.0174974
1.019469
1.0028033
0.9835781
0.98424859
0.99880044
1.0136196
1.0103998
0.98582424
0.95844796
0.95207794
0.96658274
0.99030715
1.0141494
1.0243738
1.0118585
0.98678762
0.96819613
0.96785559
0.98622528
1.0155947
1.0061633
1.0053448
1.0011403
1.0012818
1.0026116
1.0026636
1.0027397
1.0072178
1.0081728
1.0068165
1.011888
1.0095675
1.0067787
1.009985
1.0032248
0.99488118
0.99876096
1.0027016
1.000626
1.0076299
1.018843
1.0217795
1.0230199
1.0235986
1.0224068
1.0163465
1.0056924
1.000523
1.0112352
1.026568
1.0234041
1.0021422
0.99086876
0.99973459
1.0177689
1.0221867
1.0049865
0.98369735
0.98290492
0.99919885
1.018463
1.0165367
0.99065943
0.95788794
0.9457947
0.95939731
0.98676914
1.0189141
1.0343973
1.0210134
0.99166485
0.96549761
0.95529224
0.96783698
0.99789179
1.0065335
1.0054092
1.0004685
1.0009743
1.002953
1.0030782
1.0026904
1.0083044
1.0077959
1.0061864
1.0129297
1.0093996
1.0065311
1.0111271
1.0038366
0.99345195
0.99897869
1.0042036
1.0005034
1.0056491
1.0180414
1.0230451
1.0242704
1.0242064
1.0222777
1.0161786
1.0060191
1.0005405
1.0113053
1.0276471
1.0251845
1.0025768
0.98904258
0.9972283
1.0171966
1.0246755
1.0073445
0.98398864
0.98127277
0.99832563
1.0212839
1.0227165
0.9967356
0.95994928
0.94153571
0.95150887
0.98050695
1.01904
1.0431523
1.0316933
1.0003324
0.96751174
0.94867678
0.95260598
0.97881612
1.006791
1.0054326
1.0000283
1.0007729
1.0031999
1.0033707
1.0026649
1.009049
1.0075119
1.00567
1.0135617
1.0093962
1.0063693
1.0119091
1.0043328
0.99250937
0.99893371
1.0051028
1.0006761
1.0042579
1.0170729
1.0240685
1.0251385
1.0248033
1.0224109
1.0162696
1.0061753
1.000406
1.0108097
1.0282864
1.0268817
1.003956
0.98751737
0.99473838
1.0155789
1.0273988
1.010013
0.98534659
0.97904505
0.9957463
1.0217871
1.0287233
1.0033708
0.96452531
0.93944393
0.94197302
0.97167601
1.0139905
1.046512
1.0442913
1.0124609
0.9742179
0.9477038
0.943147
0.95977894
1.006874
1.005459
0.99980506
1.0006631
1.0033411
1.0035364
1.0026355
1.0093589
1.007396
1.0054009
1.0137728
1.0093917
1.0062439
1.0121926
1.0048076
0.99223811
0.99875947
1.005294
1.0008658
1.0032547
1.016294
1.024197
1.0253966
1.0251456
1.0227214
1.0169853
1.0067921
1.0002646
1.0096703
1.0270613
1.028526
1.0065062
0.98830523
0.99255332
1.0126356
1.0274107
1.0130212
0.98927242
0.97836216
0.99300631
1.0175769
1.0302038
1.0098853
0.97323925
0.94446987
0.93932886
0.96284885
1.0026809
1.0382324
1.0473149
1.0237779
0.98580324
0.9570394
0.94491656
0.95172749
0.98755681
1.0057903
1.0265288
1.0414762
1.0483623
1.0455745
1.0331781
1.0118878
0.98872825
0.9675184
0.95352616
0.95845432
0.97896909
1.0123028
1.0434293
1.0596247
1.0529957
1.0354863
1.0342367
1.0605858
1.096659
1.1119817
1.0837529
1.0245763
0.97628136
0.96540806
0.95172369
1.065878
1.0811577
1.0830984
1.0769063
1.0653545
1.0488157
1.0291771
1.0088101
0.99166111
0.98100695
0.98553994
1.0051391
1.0332495
1.0518155
1.0494099
1.026051
0.99607225
0.9823079
0.99332826
1.0256276
1.0680004
1.090965
1.0824862
1.0721103
1.0584817
1.0355874
0.98078938
1.1053423
1.1087145
1.0953482
1.0794856
1.0611328
1.0430607
1.0286572
1.0180607
1.015433
1.0268614
1.0494296
1.0766761
1.0942872
1.0865376
1.0550308
1.0130804
0.97711032
0.96436591
0.96812616
0.98238202
1.0006786
1.0136115
1.0376122
1.073512
1.1167026
1.110465
1.0436213
1.0764638
1.0654787
1.0507353
1.0390986
1.030438
1.0245788
1.0240479
1.0329118
1.0534342
1.0834784
1.1119345
1.1310833
1.1261075
1.1005192
1.06456
1.0298716
1.0019908
0.98731905
0.97635159
0.95886618
0.94428415
0.94577868
0.97949188
1.0359023
1.1008315
1.126706
1.0962173
1.011785
1.0000488
0.99280831
0.99056161
0.99297028
1.0027774
1.0219792
1.0491852
1.0810759
1.1098746
1.1276833
1.126798
1.1089071
1.0876845
1.0722155
1.0602709
1.0512905
1.0383134
1.0097152
0.96779461
0.93355456
0.9262829
0.95000083
0.99055643
1.0322821
1.0624287
1.0871225
0.97130877
0.96366171
0.96732644
0.97726179
0.99375274
1.0156413
1.0401393
1.0624123
1.0790418
1.0875232
1.0822079
1.0674937
1.052403
1.0492346
1.0588411
1.0777402
1.0933919
1.0831747
1.0537369
1.0104589
0.97411124
0.96162956
0.96497216
0.96580739
0.96469386
0.97283575
1.0197354
0.97496576
0.98284913
1.0004958
1.0195572
1.038171
1.0546335
1.0656893
1.0672404
1.059114
1.0424642
1.0218233
1.0072879
1.0019221
1.0111996
1.0321728
1.0604449
1.0839397
1.0904147
1.0771693
1.0634314
1.0492537
1.0370603
1.0178256
0.979186
0.9344524
0.91209746
0.94604241
1.0444104
1.0608589
1.0757822
1.0869877
1.0912213
1.0876491
1.0770267
1.060265
1.038015
1.0110313
0.98862535
0.97658545
0.97697581
0.98665399
1.0019412
1.0178786
1.0305148
1.0429195
1.0588158
1.0810054
1.1085696
1.1160023
1.0900913
1.0257747
0.9537479
0.90855236
0.91770128
1.1326473
1.1417752
1.1384381
1.1293761
1.1158269
1.0992426
1.0797926
1.0584798
1.0374127
1.0189976
1.0059732
0.9984008
0.99418106
0.99031179
0.9837085
0.97733102
0.96975788
0.97528998
1.0066055
1.0532547
1.1006216
1.1334572
1.1260947
1.0800003
1.0139703
0.96120284
0.94586245
1.1472634
1.1471453
1.1341434
1.1224403
1.1080395
1.0927151
1.0781525
1.0672025
1.0611662
1.0581714
1.057757
1.0527499
1.0427846
1.0246335
0.99897173
0.96973266
0.94664002
0.94373941
0.9620741
0.9969303
1.0401424
1.0732156
1.0853676
1.0837695
1.0721332
1.0561208
1.0240774
1.0936644
1.0838565
1.0747852
1.0674976
1.0637317
1.0641882
1.0670333
1.0721755
1.0801426
1.0899247
1.0990049
1.1011393
1.0910515
1.069364
1.0398463
1.0075629
0.98058633
0.96660893
0.96217607
0.9622806
0.97026319
0.98303597
0.99688545
1.0205792
1.0633485
1.1222061
1.1218057
1.0277544
1.0186396
1.0165365
1.0188524
1.0246318
1.0323061
1.0441032
1.0577481
1.0712839
1.0836686
1.0941548
1.1003995
1.1018319
1.0971276
1.0872941
1.0730705
1.0522887
1.0314764
1.0042762
0.97583217
0.94518281
0.92481891
0.92132476
0.94609412
1.0065909
1.0951219
1.1464203
1.0013268
0.99990771
1.0043438
1.0110418
1.0178572
1.0254127
1.0310034
1.0355192
1.0396909
1.0448952
1.0498911
1.0556389
1.0665669
1.0825271
1.0996944
1.1151293
1.1195752
1.1056679
1.072477
1.0249719
0.97457307
0.93029073
0.90556044
0.91389447
0.95929676
1.0216443
1.0634992
1.0221297
1.0260144
1.0325478
1.0363879
1.0372005
1.0348625
1.0310449
1.0260499
1.0200194
1.0149383
1.0131595
1.0166078
1.0275211
1.046056
1.0703876
1.0970738
1.1207183
1.129495
1.1159625
1.08214
1.0376043
0.98966215
0.95352016
0.94668578
0.95710486
0.96746883
0.96308009
1.0626113
1.0649171
1.0624309
1.0583465
1.0527473
1.0461131
1.0384924
1.0309499
1.0243957
1.0183197
1.0135271
1.0118296
1.0150947
1.0257706
1.0380454
1.0495796
1.0603253
1.0717248
1.0807302
1.0838402
1.0793605
1.0681764
1.0532703
1.0378786
1.0124216
0.96114062
0.90390933
1.0678649
1.0662065
1.0617148
1.057044
1.0516879
1.046706
1.043932
1.0440043
1.0462906
1.0506304
1.0542698
1.056074
1.0523786
1.0430238
1.0298292
1.0137163
0.99649291
0.98809169
0.99078188
1.0138975
1.0523792
1.0981769
1.1472261
1.1605796
1.1102534
1.0046315
0.90827144
1.0266958
1.022376
1.0185887
1.0171461
1.0181646
1.0234374
1.0329413
1.0461127
1.0624371
1.0813416
1.101131
1.1132809
1.1139133
1.0967836
1.0629122
1.0190401
0.97369118
0.937304
0.92372114
0.93817395
0.98455679
1.0629994
1.1568041
1.224543
1.2015487
1.0910266
0.97127594
0.96857391
0.96192912
0.96110585
0.96431792
0.97126384
0.98334574
1.0017859
1.0265871
1.0561027
1.0877134
1.1183559
1.1420689
1.1483964
1.1341546
1.0995839
1.0507849
1.0000629
0.95621603
0.92546594
0.9226585
0.95515192
1.0194459
1.10604
1.1825375
1.1895439
1.1405012
1.0662776
0.92444314
0.92036053
0.92341815
0.93109736
0.94329284
0.9614637
0.9842101
1.0108956
1.040034
1.0677616
1.0901624
1.105117
1.1108797
1.1039544
1.0849921
1.0614002
1.0340869
1.0056262
0.98450297
0.9828425
1.000147
1.0333416
1.0611211
1.0795953
1.0810436
1.0886386
1.1022909
0.91979809
0.92408372
0.9349272
0.9484479
0.96538249
0.98427541
1.0037671
1.0212414
1.0333139
1.0374539
1.0340367
1.0251379
1.0153083
1.0056067
1.000337
1.0033471
1.0141564
1.0347242
1.0541023
1.0773668
1.0971836
1.0958001
1.0643962
1.0027207
0.96241003
0.97358731
1.0376329
0.98830844
0.99836502
1.0099849
1.02293
1.0361107
1.0457085
1.0475078
1.0408832
1.0263893
1.0066143
0.98167181
0.95219874
0.92311688
0.90334133
0.89928264
0.91221902
0.94621483
1.0003335
1.0769015
1.1502659
1.1877499
1.1659358
1.0880445
0.99132968
0.90752892
0.8964015
0.95598108
1.1371154
1.1485678
1.1509289
1.1452031
1.1306421
1.1088609
1.0809317
1.0485228
1.0144802
0.97895787
0.94332711
0.9089975
0.87694914
0.8516235
0.84055673
0.85159293
0.88831395
0.94995715
1.0386885
1.1438496
1.213062
1.1892904
1.0991558
0.99515056
0.91633015
0.89088371
0.92889541
1.2826381
1.2868655
1.2713956
1.2437158
1.2069888
1.1635982
1.116604
1.0688529
1.0224027
0.97813451
0.93894017
0.905133
0.8778665
0.85801442
0.84934214
0.85473941
0.88261109
0.94061496
1.0190293
1.0922947
1.146046
1.1376006
1.0691921
0.9920626
0.94020019
0.92639304
0.96704667
1.2859248
1.2810034
1.2629199
1.240363
1.2123331
1.1772123
1.1378043
1.0972506
1.0563091
1.0162425
0.97962112
0.94830503
0.92404085
0.90852545
0.90430368
0.91597042
0.94507134
0.99175716
1.0395973
1.0651099
1.062702
1.0344844
0.99234918
0.96331001
0.95377098
0.96812319
1.0375318
1.1573504
1.1474112
1.1363016
1.1242094
1.1114882
1.0981927
1.0845005
1.069147
1.0519734
1.0341634
1.0170098
1.0028733
0.99369345
0.9915048
1.000181
1.0201359
1.0505957
1.0819573
1.0906954
1.0641355
1.0105354
0.95562578
0.92384758
0.92400087
0.94391734
0.99594834
1.10831
1.0093489
0.99842922
0.99194984
0.98805438
0.98529782
0.98351074
0.98309217
0.98494913
0.9891643
0.99522698
1.0048602
1.0188177
1.0395913
1.0681528
1.1047611
1.1451423
1.1766101
1.1808627
1.1469911
1.0820028
0.99790016
0.93119915
0.8938046
0.89417518
0.92764157
1.0142906
1.1670594
0.91688884
0.91013118
0.90743859
0.90636479
0.90639678
0.90810546
0.9125828
0.92039453
0.9319161
0.94848184
0.97243237
1.0056815
1.0491315
1.102883
1.1637756
1.2190796
1.2471234
1.2323193
1.1792543
1.0982603
1.0122897
0.94253167
0.90118425
0.89228277
0.92626957
1.0340452
1.201755
0.8861757
0.88403302
0.88422391
0.88523738
0.88732504
0.89117198
0.89737733
0.90667945
0.92006641
0.93935824
0.96667203
1.0041353
1.0520807
1.107532
1.1615343
1.1993286
1.2087973
1.1891295
1.1470395
1.0872416
1.0234018
0.96430574
0.92433774
0.91209346
0.94830569
1.065768
1.2116472
0.88228785
0.88259507
0.8849066
0.88841527
0.89393601
0.90194685
0.91254661
0.92620006
0.94426565
0.96754192
0.9961857
1.0313946
1.0695864
1.1033459
1.1246724
1.1292995
1.1185827
1.0968076
1.0671937
1.0330302
1.0018658
0.9703238
0.94647195
0.94267584
0.98779581
1.1008182
1.2010736
0.90182605
0.90351892
0.90690228
0.91148896
0.91799858
0.92698534
0.93909418
0.95513446
0.97599868
1.0013844
1.0297623
1.057852
1.0794713
1.0895467
1.0852185
1.0703054
1.0490065
1.0214052
0.99350952
0.9707433
0.95629819
0.95084696
0.95383765
0.97372515
1.0354944
1.137136
1.1782307
0.92544648
0.92730774
0.93082478
0.93611396
0.94358815
0.95417905
0.96818118
0.9853488
1.0052211
1.0268565
1.0482889
1.0659756
1.0752071
1.0727462
1.058373
1.0328227
1.0006928
0.96719147
0.93803216
0.91994877
0.91648629
0.92908048
0.95394846
0.99826234
1.0755828
1.1599961
1.1615009
0.93527566
0.93733999
0.94119774
0.94778832
0.95760199
0.97061822
0.98685392
1.0059042
1.0264099
1.0465562
1.0636634
1.0742501
1.0747694
1.0634536
1.0399579
1.006374
0.96722651
0.93017406
0.90155755
0.88752635
0.89225839
0.91473012
0.954348
1.015372
1.0993873
1.1742178
1.1609658
0.93317611
0.93525384
0.94031957
0.94921715
0.96194958
0.97849469
0.99849833
1.0206629
1.0430719
1.0632087
1.0775093
1.0821603
1.0746696
1.0547976
1.0239938
0.98595595
0.94637303
0.91026826
0.88328975
0.87268176
0.88052782
0.90915295
0.95705524
1.0264237
1.1128515
1.1823299
1.175291
0.92711734
0.92973574
0.93637111
0.94728936
0.96265862
0.98222461
1.0051983
1.0302982
1.0545788
1.0744318
1.0857014
1.0853522
1.0722961
1.0473888
1.0130428
0.97362711
0.93421782
0.90022372
0.87618426
0.86698954
0.87888278
0.9101709
0.96300299
1.0345507
1.1179032
1.1838711
1.1859577
0.92164433
0.9249805
0.93247071
0.94479129
0.96186373
0.98348584
1.0086395
1.0353166
1.0604709
1.079845
1.089363
1.0862809
1.0701494
1.0422032
1.0058021
0.96603462
0.92843104
0.89814592
0.87910024
0.87370335
0.88506731
0.91671958
0.96644551
1.0336163
1.1106544
1.1756384
1.1872748
0.91374232
0.91756934
0.92613661
0.93991398
0.95898374
0.98289355
1.0104651
1.039255
1.0655028
1.0847526
1.0931532
1.0883708
1.0705735
1.0414538
1.0047623
0.96619986
0.93144013
0.9053213
0.89084788
0.88910161
0.90004176
0.92539839
0.9665185
1.0250515
1.0944335
1.1552969
1.1708135
0.90087493
0.90542816
0.91542798
0.93124186
0.95295096
0.97988391
1.0104836
1.042024
1.0703884
1.0907288
1.0988093
1.0930585
1.0743737
1.0449752
1.0094503
0.97350863
0.94233271
0.92001874
0.90836132
0.90691938
0.91429793
0.9318565
0.96386202
1.0127132
1.0742632
1.1313614
1.1545239
0.89136855
0.8968581
0.9082714
0.92577843
0.94925604
0.97786954
1.0098233
1.0425518
1.0720825
1.0932741
1.101816
1.0958493
1.076774
1.0486297
1.0162785
0.98439473
0.95756223
0.93777785
0.92586371
0.92015376
0.92060473
0.93054537
0.95430164
0.99470191
1.0513585
1.1111902
1.1479872
0.90225552
0.90769143
0.9187752
0.93574176
0.95822222
0.98531915
1.0151166
1.0450358
1.0713205
1.0897659
1.0968828
1.090652
1.0724721
1.0469588
1.0193942
0.99434009
0.97290454
0.95372203
0.93971732
0.92696512
0.91963358
0.92200856
0.93783319
0.97399586
1.0298725
1.0935236
1.1406768
0.93299575
0.93723686
0.94602211
0.9594581
0.97707455
0.99795515
1.0207016
1.0431838
1.0625711
1.0760666
1.0812173
1.0767383
1.0634677
1.0444016
1.0233457
1.0035918
0.98555907
0.96857568
0.95089821
0.93431129
0.92072274
0.91507731
0.92526924
0.95735724
1.0105458
1.0721674
1.1175336
0.97675634
0.9790209
0.9839084
0.99131601
1.0008047
1.0116768
1.0231336
1.0340546
1.0432196
1.0494748
1.0519604
1.0503133
1.0445699
1.0352361
1.0233007
1.0096126
0.99405703
0.97712482
0.95935504
0.94234377
0.92919405
0.92438775
0.9343359
0.96267661
1.0072048
1.0529963
1.0784326
1.0281832
1.0276758
1.0271845
1.026666
1.0259894
1.0250518
1.0238046
1.0223243
1.0207508
1.0192134
1.0178194
1.0165241
1.0150765
1.0128953
1.0090472
1.0026006
0.99295589
0.98098566
0.96830555
0.95705049
0.95076882
0.9540466
0.96915421
0.99558572
1.0258398
1.0451455
1.0415191
1.0827854
1.0793859
1.0732258
1.0644645
1.0535338
1.0411575
1.0281455
1.0152805
1.0033524
0.99320753
0.98560682
0.98083447
0.97844147
0.97776002
0.9778095
0.97771982
0.97764446
0.97758164
0.97837792
0.98172051
0.98928936
1.0027411
1.0216199
1.0411195
1.0514769
1.0414371
1.0124234
1.1287943
1.1231453
1.1118511
1.0956942
1.0759343
1.0542164
1.0320106
1.0103998
0.99034041
0.97265022
0.95792258
0.94675039
0.93955
0.93691466
0.93926629
0.94742471
0.96058543
0.97769871
0.99770102
1.018729
1.0405806
1.0612165
1.0770417
1.0816994
1.0679711
1.0346866
0.99067669
1.0783591
1.0782602
1.0766744
1.0734348
1.0670329
1.0560732
1.0402096
1.0203964
0.99862995
0.97750268
0.95891469
0.94544905
0.93803735
0.93648272
0.94222511
0.95597597
0.97688532
1.001448
1.0277967
1.0551751
1.0798825
1.0986932
1.1052711
1.095349
1.0668557
1.0226143
0.97447022
0.93521056
0.93932865
0.94781209
0.96053131
0.97767297
0.99881446
1.0225996
1.0460717
1.0643382
1.0728593
1.0704905
1.0589491
1.0411628
1.0245726
1.0119727
1.0051349
1.0018465
1.0005087
1.0054279
1.017048
1.0345336
1.0547985
1.0696125
1.0701233
1.0510253
1.0161798
0.97462388
0.92892979
0.92940504
0.93306579
0.93982088
0.95062052
0.96653014
0.98857626
1.0176084
1.0534986
1.0937031
1.1286072
1.1448497
1.1351512
1.099614
1.0480126
0.99795455
0.96087245
0.93398814
0.91865994
0.91891611
0.93785953
0.97355282
1.0172704
1.0523442
1.0613467
1.044615
1.013598
0.9752446
0.97310896
0.97165789
0.96911118
0.9654867
0.96251437
0.96212458
0.96645702
0.97816136
1.0005146
1.0349175
1.0777034
1.1163599
1.1353583
1.122507
1.0784364
1.0193679
0.96976751
0.93901227
0.92272189
0.92717607
0.95638865
1.0089188
1.0761718
1.1274503
1.1390654
1.1101249
1.04053
1.0370156
1.0345172
1.030214
1.0223453
1.0117109
0.99999511
0.98903512
0.98183144
0.98104201
0.9922146
1.0202059
1.0641185
1.1163617
1.1601237
1.177478
1.1598669
1.1092122
1.0499349
1.0046748
0.98001465
0.99025316
1.036406
1.1165743
1.206021
1.24704
1.2053934
1.1703977
1.1633249
1.1535323
1.1352857
1.1076293
1.0724763
1.0345834
0.99973139
0.97247822
0.95490744
0.94934128
0.95952075
0.986568
1.02952
1.0795759
1.1215264
1.1366631
1.1165657
1.0656683
1.0014014
0.95814986
0.94465293
0.97617754
1.0495896
1.1563682
1.2376077
1.2132793
1.1700568
1.1608403
1.1480515
1.127802
1.0989226
1.0628119
1.0235799
0.98620946
0.95485605
0.93291983
0.92186422
0.92405629
0.94093845
0.9735851