/*--------------------------------*- C++ -*----------------------------------*\
| =========                 |                                                 |
| \\      /  F ield         | OpenFOAM: The Open Source CFD Toolbox           |
|  \\    /   O peration     | Version:  2406                                  |
|   \\  /    A nd           | Website:  www.openfoam.com                      |
|    \\/     M anipulation  |                                                 |
\*---------------------------------------------------------------------------*/
FoamFile
{
    version     2.0;
    format      ascii;
    arch        "LSB;label=32;scalar=64";
    class       surfaceScalarField;
    location    "23";
    object      phi;
}
// * * * * * * * * * * * * * * * * * * * * * * * * * * * * * * * * * * * * * //

dimensions      [1 0 -1 0 0 0 0];

oriented        oriented;

internalField   nonuniform List<scalar> 
123996
(
0.0014059665
-4.0375022e-05
0.00014657689
0.00143063
-3.1893624e-05
-0.00012003738
0.0015034908
0.00011535491
-2.8210345e-05
0.0015907303
-0.00013891713
0.00038267606
0.0016542677
-0.00029848837
0.00036393429
0.0016983494
-8.7263172e-05
0.00013248036
0.0016505173
-0.00015768954
1.0868577e-05
0.0016120914
4.0489751e-06
0.00016270849
0.0015501556
1.2461847e-07
-2.6346561e-05
0.0014876971
-1.8630986e-06
-5.261572e-05
0.0013866254
8.4269644e-05
-1.6151879e-05
0.0013877696
7.8121702e-05
8.1334185e-05
0.0012883127
-0.00023930737
-4.8269297e-05
0.0013344055
-0.00024107798
0.00031511513
0.001425636
0.0001748283
-1.8993396e-05
0.0013748591
6.1072504e-05
-0.00014376838
0.0012965184
-0.00034771193
0.00020689802
0.0012323747
-0.00020662993
0.0001695277
0.0011249216
-3.7366211e-05
0.00038094128
0.0011314863
-0.00022397593
0.00072631202
0.0011435169
-0.00044092899
0.00046820576
0.0010731778
-0.00046528325
0.00028158472
0.0010943915
-0.00044899536
0.00036661891
0.00097917781
-0.00036890976
0.0004388947
0.00078671762
-0.00046706732
0.00064860491
0.00085924891
-0.00047992536
0.00063481394
0.000849814
-0.00042107903
0.00049355219
0.00074924793
-0.00052743136
0.00051059682
0.00084280597
-0.00048068878
0.00049570708
0.00078160799
-0.00039601881
0.00039722855
0.00040176928
-0.00057605203
0.00051062619
0.00032624829
-0.00073355069
0.00073398679
0.00066923764
-0.00059904189
0.00073461135
0.0010336908
-0.00032356821
0.00046856692
0.00097173816
-0.00020700289
0.00021627877
0.00054293857
-0.00037613419
0.00026026553
0.00027612227
-0.00056881517
0.00052277826
0.00039890248
-0.00055798178
0.00060678249
0.00082362886
-0.00029138711
0.0003744078
0.0014111622
6.6018178e-05
-7.3404551e-06
0.0017438891
0.00035315474
-0.00036380887
0.0017605246
0.00050429592
-0.00054307128
0.0016354798
0.00052838346
-0.0006106337
0.0015384279
0.00040959989
-0.00061382764
0.0013274643
0.00018741972
-0.00056726263
0.00085777608
5.2298847e-07
-0.00040841225
0.00029429666
-0.00013250598
-0.00014350337
0.00022350509
-0.00011177139
2.8993104e-05
0.00079254377
8.1453915e-05
0.00012800369
0.0017647871
0.00040614288
2.0764506e-05
0.002451074
0.00063807728
-0.00028127422
0.0026764731
0.00081177337
-0.00059651709
0.0026698941
0.00095334263
-0.0008655727
0.0026090795
0.001055738
-0.0010577876
0.0011258717
0.0025405523
-0.0011568805
0.0013428297
8.4098402e-05
0.00137089
-0.00017820382
0.0014236722
1.2436833e-05
0.001508319
8.6279151e-05
0.0015877784
4.1783193e-06
0.0016101329
-5.1222747e-05
0.0015868222
-0.00025317641
0.0015433717
3.6499143e-05
0.0014733271
-8.3579604e-05
0.0014318558
-9.3253525e-05
0.001347807
3.5113183e-06
0.0012899173
2.4969809e-05
0.0012234083
-0.00037582314
0.0013455144
-0.00013554454
0.00133583
0.00012857247
0.001232215
-3.0278018e-05
0.0012476133
-0.00021657398
0.0012395526
-0.0002822257
0.0010979898
-4.7084551e-05
0.0010774688
-1.8778019e-05
0.0010833641
-0.00025484078
0.001013336
-0.00045644758
0.0010585448
-0.00045485103
0.00094308219
-0.00042974454
0.00079768351
-0.00049572712
0.00085600411
-0.00041221323
0.00078748534
-0.00036612012
0.00073575966
-0.00048040829
0.00083472566
-0.0004063628
0.00070546457
-0.00036847786
0.00039383602
-0.00056682435
0.00037469872
-0.00068958327
0.00069776484
-0.00048431624
0.00094550958
-0.00018624727
0.00076847708
-0.00014772086
0.00038069665
-0.00038085218
0.00026304784
-0.0006235152
0.00049336162
-0.00054498917
0.00086808505
-0.00020105646
0.0011956766
0.00016299243
0.0014857861
0.00034171699
0.0014918599
0.00032483081
0.0012570432
0.00023059313
0.00098343101
0.0001178117
0.00079397616
-7.3758041e-05
0.00060372949
-0.000234315
0.00053591947
-0.00020134182
0.0007482319
8.7202744e-05
0.0013076154
0.00046701736
0.0020592527
0.00080621723
0.0027353049
0.00095329517
0.0030870205
0.00096483608
0.0030874589
0.00091671758
0.0028611759
0.00084035089
0.00077974276
0.0025287671
0.0012633473
0.00011863562
0.0013109202
-8.4156886e-05
0.0013560413
-0.0001406499
0.0014321439
9.2139982e-05
0.0015124099
0.00020069295
0.0015205632
-3.8320942e-05
0.0015318265
-0.00015910476
0.0014606322
-9.3036178e-05
0.0013984158
-0.00017868083
0.0013632481
-0.0001082312
0.0012802545
-9.8131653e-05
0.0011813679
-0.00012937871
0.0011858311
-0.00028283751
0.0013009517
-1.7237643e-05
0.0012411377
-0.00012591579
0.0011526872
-0.00017031467
0.0011845949
-1.2786869e-05
0.0012157456
-0.00019768119
0.0010553646
-0.00024134586
0.00097574583
-0.00011313073
0.00098164064
-0.00018695004
0.00096402905
-0.00038049938
0.0010130485
-0.00038746108
0.00089495859
-0.00044371835
0.00078451693
-0.00054394237
0.00082114835
-0.00038807306
0.00072633335
-0.00032380597
0.00073158245
-0.00039349769
0.00081674797
-0.00032862083
0.0006478346
-0.00036414769
0.00039304447
-0.00056320393
0.00043796727
-0.0006223871
0.0007554206
-0.00038490675
0.00093780501
-0.00011770501
0.00072911874
-0.00015060068
0.00036162283
-0.0003984314
0.00034428224
-0.00056374463
0.00064623258
-0.00045230297
0.00096907259
-0.00011932182
0.0011130457
0.00020612151
0.0011633909
0.00031965386
0.0010920252
0.00017910958
0.00086378963
-1.383185e-05
0.00045912874
-0.00016501107
0.00019943908
-0.00023855645
0.00026326945
-0.00017704333
0.00058824387
-9.0362254e-06
0.00110836
0.00029967589
0.0015743189
0.0006416983
0.0019403381
0.00091915833
0.0023683576
0.0010484132
0.0027262781
0.0010047221
0.0027749006
0.00081973998
0.0025665792
0.00055274387
0.00030110569
0.0021969711
0.0011960464
6.0774233e-05
0.0012482757
9.553829e-05
0.0013018736
-0.00016442352
0.0013728845
4.5196738e-06
0.0014301526
0.00011734985
0.0014457832
-6.9379726e-05
0.001463152
5.3415152e-06
0.0013834256
-0.00020249354
0.0013431524
-8.6406206e-05
0.001304752
-7.3585462e-05
0.0012190333
-0.00010214384
0.00112139
-0.00013063081
0.0011667779
-7.5337342e-05
0.0012184317
8.1656505e-05
0.0011727967
-0.00030010398
0.001130053
-0.00031128814
0.001112286
6.5849592e-05
0.001155554
-1.9650302e-05
0.0010235829
-0.00033634078
0.00090493724
-0.00033376486
0.00090288955
-0.00022953353
0.00092088911
-0.00031938202
0.00096261157
-0.00032131439
0.00084856717
-0.00037231451
0.00078988035
-0.00049705323
0.00080353445
-0.00038538046
0.00068525722
-0.00032723067
0.00071463877
-0.0003402592
0.00076807201
-0.0002807762
0.00058174048
-0.00036990716
0.00038034702
-0.00056092289
0.00047457737
-0.00054933249
0.0007541324
-0.00029657272
0.0008328912
-9.5037934e-05
0.00059355324
-0.00017022156
0.00027461036
-0.00041764707
0.00032439127
-0.00052305757
0.00070758836
-0.00035709699
0.0010682102
-6.5728144e-05
0.0011437102
0.00018530538
0.0009684303
0.00025897035
0.00078677172
9.6464543e-05
0.00062381009
-0.00019892261
0.00035375841
-0.00037235396
0.00022259342
-0.00029092561
0.00040611209
-1.7813172e-05
0.00082571175
0.00023751107
0.0013117377
0.00047104891
0.0016694845
0.000606945
0.001829283
0.00071774677
0.0019107711
0.00081037611
0.0019423266
0.0007795124
0.0018355082
0.00057793011
0.0016120506
0.00027334712
-4.7206384e-05
0.0013476644
0.0011377136
-1.6060322e-05
0.0011779932
0.00024655463
0.0012447974
-2.8529753e-05
0.0013082208
-0.00013166563
0.0013505698
-8.9799574e-05
0.0013859217
-8.8650751e-05
0.001384917
8.1191111e-05
0.0013227186
-0.00015734546
0.0012835584
-3.066277e-05
0.0012445089
1.206626e-05
0.001159763
-2.6295866e-05
0.0010748558
-0.00012471492
0.0011320002
1.7072901e-05
0.0011141813
0.00014205265
0.0011146004
-0.000191906
0.0011229187
-0.00029088709
0.0010601075
2.3283597e-05
0.0010664155
0.00010966922
0.00098143391
-0.00021709332
0.00086504538
-0.00041682592
0.00083913952
-0.00028554335
0.00088066151
-0.00027468795
0.0009182835
-0.00026097942
0.00080233743
-0.00029195852
0.00078616392
-0.0003909041
0.00078017884
-0.00035673107
0.00065827718
-0.00036614457
0.00069845077
-0.00033191565
0.00072251311
-0.00025448445
0.00053766764
-0.00035228661
0.00040010444
-0.00052948125
0.00052820847
-0.00048662098
0.00076322565
-0.00023961829
0.00077842032
-9.8962781e-05
0.00052463634
-0.00021593422
0.00026427258
-0.00043431879
0.00034179154
-0.00047772051
0.00072000657
-0.00027329887
0.0010898779
-1.2670566e-05
0.0011253729
0.00016635603
0.00080600039
0.00016012156
0.00045678316
4.4823255e-06
0.00032160748
-0.00025739154
0.00032914077
-0.00039498636
0.00045455018
-0.00025511172
0.00066980366
7.0538895e-05
0.00095118231
0.00041792553
0.0012562777
0.00060925019
0.0015172453
0.00060157272
0.0016417577
0.00053242783
0.0014956308
0.00044934035
0.0011789389
0.00033507234
0.00083899524
0.00017414064
0.00056007923
-5.3484413e-05
-0.00023135096
0.00044658383
0.0010917284
-6.3343389e-05
0.0011138424
0.00022313429
0.0011836383
0.00010970124
0.0012424332
-0.00018323542
0.0012828692
-0.00020443636
0.0013287915
-5.183623e-05
0.0013114964
4.9223378e-05
0.0012701775
-2.2489054e-05
0.0012271629
-2.689264e-05
0.0011895921
8.7161723e-05
0.0011066683
9.4722999e-06
0.0010416994
-0.00015729531
0.0010891836
7.8342923e-05
0.0010379098
0.00011314441
0.0010617501
-1.8968421e-05
0.0010992732
-0.00011470382
0.0010220923
-8.0323045e-05
0.00099539116
8.9833413e-05
0.00093514936
-4.1548753e-05
0.00085476948
-0.00032217051
0.00080424026
-0.00028657601
0.00084234684
-0.0002205208
0.00087852875
-0.00019355791
0.00076608478
-0.00024409923
0.00076903983
-0.00030624041
0.00074538446
-0.00029204519
0.00063668233
-0.0003665988
0.00067389195
-0.00033770413
0.00066541333
-0.00024809068
0.00048485507
-0.00032955255
0.00039937728
-0.00047247757
0.00054765799
-0.00040170744
0.00072583046
-0.00018181362
0.00068803669
-9.9961528e-05
0.00044222225
-0.00026977973
0.00025000977
-0.00046974955
0.00035689452
-0.00043510278
0.00069902557
-0.0002044241
0.0010645474
3.7745026e-05
0.0010883618
0.00012821985
0.00076615991
4.2247778e-05
0.00033596507
-0.00011878778
0.00021268045
-0.00026030195
0.00038360553
-0.00030992968
0.000692747
-0.00020937691
0.0009723038
7.2605554e-05
0.0010520031
0.00036857624
0.0010614871
0.00058160791
0.0011664095
0.0006095312
0.0012315736
0.00044428414
0.0010983599
0.00018738286
0.00071065341
-4.4815403e-05
0.00026560265
-0.00022744769
-3.0719311e-05
-0.00033022524
-0.00031622291
-3.6073864e-05
0.0010459929
-6.1931193e-05
0.0010551083
2.4597832e-05
0.0011174673
0.00015615716
0.0011803122
-8.9667084e-05
0.0012242065
-0.00017972813
0.0012660364
-2.1661934e-05
0.001245778
-8.2445691e-06
0.0012129524
5.834902e-05
0.0011775449
-4.8334666e-05
0.0011327065
0.00011184764
0.0010462467
-6.002925e-06
0.0010048784
-0.00018386287
0.0010328675
0.00011102008
0.00098540439
-1.0031233e-05
0.0010085841
4.9790616e-05
0.001051364
8.3651282e-05
0.00098495741
-0.0001486654
0.00094385666
-1.0433228e-05
0.00088110351
7.6528784e-05
0.00083286864
-0.00015232628
0.00077847841
-0.00025227807
0.00080558788
-0.00020965729
0.00083728832
-0.00015279997
0.00073594007
-0.00022770484
0.00074651461
-0.00026545148
0.00071081943
-0.00023432582
0.00062256437
-0.00031985926
0.00065953814
-0.00033233348
0.0006254909
-0.00026742423
0.00045454512
-0.00032972586
0.0004170065
-0.00041641874
0.00057698628
-0.00031049817
0.00070947874
-0.00011303517
0.0006221541
-9.3087472e-05
0.00039603263
-0.00029832774
0.00026975433
-0.00050035092
0.00038487753
-0.00041829824
0.0006739141
-0.0001511663
0.00096724253
9.7918134e-05
0.00097099011
9.7635037e-05
0.00068683418
-6.6411064e-05
0.00028196968
-0.0002588909
0.0001378671
-0.0003101533
0.00032105999
-0.00022749777
0.00071659298
-9.462904e-05
0.0010413013
0.00010206622
0.001124529
0.00027437851
0.00099294248
0.00042816816
0.00081519057
0.00050870154
0.00068027447
0.00037017918
0.00047774452
4.37831e-05
0.00021250496
-0.00026307546
-1.4349022e-05
-0.00047371828
-0.00012172656
-0.0004871475
-0.00033856186
-5.446281e-05
0.00099861628
-3.1775466e-05
0.0010079945
-0.00019452414
0.0010575382
7.9819557e-05
0.0011229972
5.2283461e-05
0.0011701016
-6.8486913e-05
0.0012043921
-8.9265285e-06
0.0011905409
-5.5756375e-05
0.0011513924
6.5223569e-05
0.0011281961
-6.8178635e-05
0.0010750321
6.4011778e-05
0.00099006065
-6.0637208e-05
0.00097614659
-0.00013337454
0.00096964353
0.00011506702
0.00094400741
-0.0001597594
0.00096783152
-6.0598973e-06
0.00098959465
0.00018847604
0.00094938448
-0.0001507824
0.00091385011
-0.00011795639
0.00083448981
8.4157154e-05
0.00080102258
-1.999974e-05
0.00075057982
-0.00018921262
0.00076737716
-0.0002127259
0.00078891585
-0.00015041118
0.00070677093
-0.0002308876
0.00072798277
-0.00025816672
0.00068068256
-0.00020880798
0.00060358721
-0.00026321856
0.00063955911
-0.00028768008
0.00058904823
-0.00026909672
0.00043113531
-0.00033236378
0.00042486045
-0.00036493073
0.00058485719
-0.00022762066
0.00067217986
-4.5340879e-05
0.00054013073
-6.3073657e-05
0.00032520232
-0.0002914586
0.00027680687
-0.00050192757
0.00042065304
-0.00042954595
0.00068260636
-0.00012726266
0.00086901547
0.00011980844
0.00083271361
8.7543116e-05
0.00060580257
-0.00014039067
0.00030447417
-0.00035945808
0.00015300076
-0.0003457083
0.00029745026
-0.00016486119
0.00064365673
2.1023939e-05
0.00098751537
0.0001479637
0.0011486911
0.00022898269
0.0010098488
0.0002535004
0.00064077038
0.00025834476
0.00023129451
0.00018207376
-5.732589e-05
-2.6514483e-05
-0.0002077127
-0.0002753344
-0.00018568132
-0.00042983744
3.2662976e-06
-0.00041968813
-0.00028010326
0.00022441963
0.00094737723
-8.6859953e-07
0.00096445047
-0.00031423958
0.0010052898
-4.5188494e-06
0.0010667342
0.00018245225
0.001115855
5.564847e-05
0.0011443273
3.101708e-05
0.0011391711
-6.378543e-05
0.0010904105
6.0450658e-06
0.0010791181
-4.1924433e-05
0.0010171074
-2.4119848e-05
0.00094033309
-0.00012401517
0.00094552523
-2.402428e-05
0.00090329263
5.2285109e-05
0.00089753851
-0.0002557911
0.00093210821
-0.00011657232
0.00091872772
0.0001595664
0.00090433231
-0.00011895736
0.00088563735
-0.00018777706
0.00079324484
5.2556303e-05
0.00075622222
4.7535666e-05
0.0007139642
-0.00011187742
0.00073218947
-0.00020094563
0.00073892513
-0.00014933661
0.00067170721
-0.00023425262
0.0007032833
-0.00026188964
0.00065355147
-0.00020690915
0.00058365409
-0.00022633643
0.00061864853
-0.00022790303
0.0005674647
-0.00023391427
0.00042745395
-0.00031279091
0.00044157409
-0.00032891641
0.00059853076
-0.00017924073
0.00065531897
-8.0315423e-06
0.0004936585
-2.8820497e-05
0.00028724042
-0.00024348915
0.0002866266
-0.00045816074
0.00047422096
-0.00041754505
0.00070619036
-0.00012424172
0.00078446928
0.00013852128
0.00066597113
0.00010835637
0.00048617584
-0.00015820361
0.00033324646
-0.00038882107
0.00023664292
-0.00037572259
0.00031992509
-0.00014043344
0.00055752833
9.4006333e-05
0.00085824841
0.0002553355
0.0010263669
0.00022530899
0.0009396495
0.00012225996
0.00058040093
1.3544098e-05
7.4428718e-05
-8.032155e-05
-0.00027903177
-0.0001459212
-0.00040136396
-0.00020487629
-0.000235177
-0.00021618853
5.7125006e-05
-0.00020981094
-0.00011946323
0.00039829915
0.00089685003
2.2835575e-05
0.00092444382
-0.00026651739
0.00096179797
-5.1313845e-05
0.0010153459
0.00022463993
0.0010637257
0.00013479547
0.001088018
6.2382669e-05
0.0010878607
-2.5646269e-05
0.001038633
-8.0977154e-05
0.0010317248
2.3142566e-05
0.00096480342
-9.0130083e-05
0.00090161777
-0.00016648192
0.0009052117
7.3933002e-05
0.00084181861
-5.9021765e-05
0.00086011593
-0.0002596461
0.00089999753
-0.00016019549
0.00085527388
4.7732479e-05
0.00085705438
-0.00010294243
0.00086162
-0.00018847686
0.00076280237
-2.0602535e-07
0.00071500176
6.1061259e-05
0.00067664314
-4.5568499e-05
0.00070292478
-0.00015519523
0.00069561682
-0.00013462306
0.000638369
-0.00022966042
0.00067789515
-0.0002558594
0.00062926485
-0.00020401981
0.00056417026
-0.00019863662
0.00059184354
-0.00016534455
0.00054308791
-0.00017158149
0.00041876943
-0.00026353571
0.00044160703
-0.00030175982
0.00058968186
-0.00016920731
0.0006230513
-9.0942797e-06
0.00044710035
-2.1673639e-05
0.00024716421
-0.00020874403
0.00027894
-0.00039753261
0.00051725459
-0.00036905161
0.00073354262
-0.00011258067
0.0007371087
0.00013335843
0.00054190983
0.00011925448
0.00037528466
-0.00013077512
0.00034209779
-0.00036415823
0.00036804809
-0.00038604626
0.00044122423
-0.00015240704
0.00056737118
0.0001524312
0.00070055558
0.00033368118
0.00080176479
0.00027420712
0.00076310654
6.0333878e-05
0.00053341248
-0.00013478513
0.00013829972
-0.00028624936
-0.00022525401
-0.00028906175
-0.0004204105
-0.00018752049
-0.00033680281
-5.8572101e-05
-1.2351547e-05
1.8170265e-05
0.00010554345
0.00034665378
0.00084915792
3.2112041e-05
0.00088377516
-8.8905353e-05
0.00092131423
-4.3739035e-05
0.00096562681
0.00016956053
0.0010125393
0.00014705918
0.0010349732
8.228347e-05
0.0010357145
2.191551e-05
0.00099382697
-0.00013747725
0.00098054559
7.9089975e-05
0.00091870572
-0.00011160973
0.00087079088
-0.00016160578
0.00085515293
0.00013571299
0.00079130447
-0.00017027717
0.00082344776
-0.00019770288
0.00086427596
-0.00011034147
0.00080204764
-8.0611596e-05
0.00081338282
-0.00010385344
0.00083562593
-0.000116499
0.00073311522
-3.9414196e-05
0.00067391686
4.2020032e-06
0.00064126974
-2.7824401e-05
0.00067587111
-9.2958663e-05
0.00065604374
-0.0001036865
0.00060670244
-0.00022047575
0.00065198397
-0.00024418857
0.00060893962
-0.00020159474
0.00055283075
-0.00016592376
0.00057200146
-9.6279996e-05
0.00052425197
-0.00010219005
0.0004096858
-0.00020424791
0.00043848611
-0.00027863122
0.00057996172
-0.0001773611
0.00060181322
-4.4815849e-05
0.00041892923
-4.9409809e-05
0.00022163952
-0.00020050544
0.00026497884
-0.00032855359
0.00053322298
-0.00029408853
0.00074871685
-8.4568154e-05
0.00070949277
0.00012008971
0.00045292537
0.00011245275
0.00029036885
-9.9862924e-05
0.00031617937
-0.00030650484
0.0004622645
-0.00035245081
0.00059162486
-0.0001615078
0.00066157214
0.00016304762
0.00063004786
0.00036177937
0.00056688462
0.00032757444
0.00049504506
8.4876583e-05
0.00036950708
-0.00018002571
0.00016652628
-0.00036299996
-6.1727104e-05
-0.00039075833
-0.00020454154
-0.00024519988
-0.00021466251
-1.2195807e-05
-4.3700401e-05
0.00014486093
0.00029730309
0.00025506378
0.0008072665
3.093536e-05
0.00084302444
0.00013041572
0.00088170216
1.7829202e-05
0.00091857796
5.1883669e-05
0.0009630067
0.00010102609
0.00098560603
7.7022705e-05
0.00098291709
5.7758376e-05
0.00095375495
-0.00013525701
0.00093065981
0.00010171441
0.00087893737
-8.5609986e-05
0.0008449732
-0.00010425734
0.00080188814
0.00013808781
0.00075198088
-0.00023666427
0.00078837054
-9.87787e-05
0.00082519986
-1.1018207e-05
0.00076329685
-0.00015999715
0.00077759079
-0.00010346992
0.00080794265
-9.2102301e-06
0.00070469294
-6.1071913e-05
0.00063894977
-8.4626048e-05
0.00060841337
-6.3666209e-05
0.00064705329
-4.613173e-05
0.00061990253
-6.7579682e-05
0.00057885379
-0.00021129387
0.00062559836
-0.00024039812
0.00059347494
-0.00020639239
0.00054735938
-0.00013425437
0.00055414249
-3.1953305e-05
0.00050437987
-4.166598e-05
0.00039182967
-0.00015507841
0.00042080607
-0.00024950922
0.00055103906
-0.00018427434
0.00056732548
-8.777196e-05
0.00038807927
-9.8857553e-05
0.00019794088
-0.0002164609
0.00024021968
-0.00028255146
0.00052235608
-0.00020180655
0.00075143594
-3.2156256e-05
0.0007020322
0.00010546482
0.00041876393
8.1033657e-05
0.00023809351
-8.2286113e-05
0.00027561372
-0.00023411289
0.00049706033
-0.00027887972
0.0007101791
-0.00012771112
0.00076395429
0.00013990019
0.00063330767
0.00032678606
0.00042843811
0.00032703598
0.00029596025
0.00014787523
0.00020972736
-0.0001255201
0.00016430601
-0.00034767643
0.00012621543
-0.00042010545
8.9354309e-05
-0.00031800023
8.9208869e-05
-6.7340309e-05
0.00011390524
0.00014391293
0.00038154585
0.00022263907
0.00077125505
2.6581196e-05
0.0008021871
0.0003065722
0.00084040606
8.7500963e-05
0.00087372859
-7.5719727e-05
0.00091584525
3.370519e-05
0.00093918039
5.9876274e-05
0.00093276253
6.3264825e-05
0.00091595416
-6.6004207e-05
0.00088249653
9.2650028e-05
0.00084109838
-3.6475346e-05
0.00081593551
-1.2962154e-05
0.00074996272
0.00010176845
0.00072079397
-0.00024722089
0.00075364455
-7.8228542e-06
0.00077930316
7.855884e-05
0.00073157255
-0.00017700679
0.00074859439
-8.705579e-05
0.00077310457
7.9667527e-05
0.00067133215
-5.4823955e-05
0.00060570614
-0.00017752453
0.00057934806
-0.0001435362
0.0006169288
-2.9681627e-05
0.00058324253
-3.3420038e-05
0.00054868382
-0.00019829602
0.0005965332
-0.00024339926
0.00058007658
-0.0002238068
0.00054402697
-0.00011778879
0.00053680463
1.1400469e-05
0.00048469928
4.1807462e-06
0.00037593639
-0.00012035978
0.00040375018
-0.00021271117
0.00052379052
-0.0001734223
0.00054083314
-0.00011703717
0.00037432574
-0.00015236838
0.00019278279
-0.00024809614
0.00022907877
-0.00025696518
0.00049360359
-0.00011838721
0.00073071542
3.4254955e-05
0.00068821056
9.7791186e-05
0.00040996591
3.4383045e-05
0.0002065307
-9.0209479e-05
0.00022999515
-0.00018041028
0.00048741926
-0.00017794389
0.00075974561
-5.6235263e-05
0.00082991577
0.0001235476
0.00066474973
0.00024268261
0.00038593323
0.00027584816
0.00017575258
0.00018056797
8.2138129e-05
-3.18047e-05
9.1380689e-05
-0.0002620975
0.00018227607
-0.00036938984
0.00028627384
-0.00031181987
0.00032490555
-0.00012269637
0.0002826815
0.0001047463
0.00033420526
0.0002425114
0.00073967737
2.2175413e-05
0.00076202323
0.0003922596
0.00079832817
0.00013970809
0.00083266373
-0.00016529352
0.00087221444
-3.1899941e-05
0.00089539478
3.9087335e-05
0.00088747146
4.6219144e-05
0.00087824901
2.3582768e-05
0.0008391724
5.3113885e-05
0.00080521992
1.8034012e-06
0.00078327929
7.7938162e-05
0.00070375361
3.8853189e-05
0.00069668438
-0.00021438136
0.00072328578
4.3041835e-05
0.00073357396
0.00012463871
0.00070471764
-0.00015609604
0.00072252588
-5.6851355e-05
0.00073494741
0.00013611603
0.00063724996
-4.7407551e-05
0.00057621353
-0.00023330715
0.00055617319
-0.00022671682
0.0005887027
-3.7193974e-05
0.00054870796
-1.4857601e-05
0.0005194647
-0.00017147832
0.00056569135
-0.00023808103
0.00056638461
-0.00023707426
0.00054104997
-0.00011736915
0.000520706
3.1890376e-05
0.00046152424
3.3941755e-05
0.0003580296
-9.9904809e-05
0.00038238559
-0.00017822664
0.00049111533
-0.00014086327
0.00051008032
-0.00011412009
0.00036251089
-0.00018455173
0.00019528814
-0.00027764019
0.00022778699
-0.00024826208
0.0004583936
-6.7601931e-05
0.00069013316
8.9251491e-05
0.00066259625
9.6694057e-05
0.00042319788
-2.12209e-05
0.00019666753
-0.00012492631
0.00020694617
-0.00015084756
0.00045420059
-8.2392111e-05
0.0007472438
4.0066326e-05
0.00083574104
0.00013975998
0.00069217283
0.00017461322
0.00039740553
0.00017578964
0.00011524446
0.0001391116
-6.8013295e-06
1.8319473e-05
2.437112e-06
-0.00014150793
0.00014830669
-0.00024153744
0.00035985917
-0.00023245683
0.00048483339
-0.00012336694
0.00046154773
3.3466235e-05
0.0002044799
0.00036078714
0.00071019763
1.4319135e-05
0.00072348759
0.00037001036
0.00075691054
0.00015826289
0.00079432759
-0.00018666181
0.00083133014
-8.1976453e-05
0.00085290364
1.5089458e-05
0.00084520036
1.5481974e-05
0.00083909538
0.00010074379
0.00079997175
1.4351307e-05
0.0007714908
2.1655596e-05
0.00074649849
0.00013841686
0.00066455559
-1.9886231e-05
0.00067621583
-0.00015383936
0.00069538282
6.5171808e-05
0.00069038341
0.00012524795
0.00067747705
-0.00011934691
0.00069640116
-2.6132908e-05
0.00069511745
0.0001611833
0.00060147008
-3.0087505e-05
0.00054803062
-0.00023665888
0.0005369115
-0.00026828112
0.00056317013
-6.4167365e-05
0.00051636292
-1.1102247e-05
0.00049008863
-0.0001313779
0.00053486576
-0.00020804457
0.00055218318
-0.00022589459
0.0005372902
-0.00011953904
0.00050645719
3.8104531e-05
0.00043763496
4.1485113e-05
0.00034196326
-9.8320523e-05
0.00036438311
-0.00015359018
0.00046218939
-9.9326776e-05
0.00048156314
-7.3936442e-05
0.00035856072
-0.00018008271
0.00020931286
-0.00029490028
0.00023481502
-0.00024857069
0.00042529927
-4.2343963e-05
0.00063491629
0.00012702518
0.00062133704
9.8351769e-05
0.00042553734
-6.078029e-05
0.00020110171
-0.00017112999
0.0001983084
-0.00015534403
0.00041391756
-1.9039172e-05
0.00070261249
0.00012617318
0.00080637985
0.0001810596
0.00069971617
0.0001337425
0.00043717423
6.917426e-05
0.00011615507
4.7460953e-05
-4.6834035e-05
-5.6881756e-06
-6.935254e-05
-6.1996533e-05
7.5159028e-05
-9.7645906e-05
0.00032598244
-9.2769332e-05
0.00051579448
-5.1611168e-05
0.00053401764
1.1715138e-05
8.1770883e-05
0.0004540482
0.00068114457
3.9014645e-06
0.00068707848
0.00026601946
0.00071755228
0.00013387254
0.00075779854
-0.00014797118
0.0007925786
-0.00010264779
0.0008122234
-7.2345447e-06
0.00080797009
-1.3593486e-05
0.0007988538
0.00014589238
0.00076360843
-2.1642843e-05
0.0007393899
2.2512258e-05
0.00070891472
0.00015545286
0.000632871
-7.4137689e-05
0.00065368772
-8.0245137e-05
0.00066540116
6.6836386e-05
0.00064978354
8.1161887e-05
0.00064929439
-8.0761897e-05
0.00067124308
7.6849418e-07
0.00065675932
0.00014625857
0.00056909651
-2.6756738e-05
0.00052332452
-0.0001912675
0.00052211578
-0.00024902734
0.00054011635
-8.2837163e-05
0.00048771136
-1.4675169e-05
0.00046399139
-9.5855937e-05
0.00050689557
-0.00016055319
0.00053703794
-0.00018739145
0.00053137476
-0.0001047159
0.00048961286
3.4041937e-05
0.0004118095
3.0495703e-05
0.00032477456
-0.00011151259
0.00034734504
-0.00014190724
0.00043617101
-5.5808194e-05
0.00045171538
-9.1356544e-06
0.00034928763
-0.00013616357
0.00022337614
-0.00028418704
0.00024294492
-0.00025053542
0.0004005107
-3.8900414e-05
0.00057519519
0.00014979239
0.00057020453
0.00010465038
0.00042160103
-7.7277928e-05
0.00022504916
-0.00021992992
0.00021321543
-0.00018540266
0.00039329559
-2.4329845e-06
0.00064561753
0.00019247075
0.00074623971
0.0002270276
0.00067211456
0.00013439533
0.00046506966
1.6089073e-05
0.00016277017
-5.643988e-05
-4.1505625e-05
-7.6308622e-05
-0.00012025139
-5.0784302e-05
1.3133454e-05
1.9775828e-06
0.00024804789
4.6617932e-05
0.00044613163
6.1559252e-05
0.00052322744
4.2834174e-05
2.5930674e-05
0.00047772356
0.00065249422
-6.7477013e-06
0.00065348234
0.0001165402
0.00068132504
8.2602861e-05
0.0007227462
-7.2295229e-05
0.000755845
-8.735059e-05
0.00077335426
-2.6285978e-05
0.00077324367
-3.3300091e-05
0.00075887711
0.00015175593
0.0007288022
-4.4705642e-05
0.0007077388
1.5648359e-05
0.00067071305
0.00013002562
0.00060529089
-0.00011639159
0.00062870227
-8.3458887e-06
0.0006335305
4.8896946e-05
0.00061259886
8.4540199e-06
0.00062103579
-4.3601609e-05
0.00064440838
2.6256855e-05
0.00062054124
9.6771336e-05
0.00054110003
-3.6502232e-05
0.00050061786
-0.00012118905
0.00050787305
-0.00017473266
0.00051789496
-8.6629468e-05
0.00046225107
-3.1575609e-05
0.00043897703
-7.3687224e-05
0.00048025587
-0.00011274509
0.0005206458
-0.00013319607
0.0005233527
-7.1097856e-05
0.00047233721
2.9821115e-05
0.00038549411
8.6994189e-06
0.00030896282
-0.00013544398
0.00033535899
-0.00014725154
0.00041851646
-2.0431064e-05
0.00042661354
5.3610016e-05
0.00033748109
-7.4335307e-05
0.0002381412
-0.00024629831
0.00025498295
-0.00023975728
0.00038504048
-4.3256368e-05
0.00051815432
0.00015885626
0.00051560134
0.00011888825
0.00039939904
-7.6847165e-05
0.00024865148
-0.00025743558
0.00022683911
-0.0002312426
0.000382761
-1.5985015e-05
0.00058580404
0.00021767271
0.00067138959
0.00027234753
0.00062401135
0.00015918937
0.00046576598
-1.1919289e-06
0.00020639891
-0.00013319461
-2.3284596e-05
-0.00016871621
-9.9057805e-05
-9.2110149e-05
-2.5726346e-05
3.762045e-05
0.00017329859
0.00015379877
0.00035243902
0.00017925781
0.00044905484
0.00012551851
3.3238584e-05
0.00044336208
0.00062343766
-1.320777e-05
0.00062235719
-4.8168133e-05
0.00064835336
2.3649142e-05
0.00068916133
9.6407521e-06
0.00072087393
-4.8080946e-05
0.00073662556
-3.8597811e-05
0.00073983786
-3.7965344e-05
0.0007194885
0.00011786906
0.00069565022
-5.5760512e-05
0.00067705985
8.8390598e-06
0.00063501962
7.8052184e-05
0.00058152436
-0.00013844381
0.00060090524
5.4553461e-05
0.00060056501
1.8900431e-05
0.00058116436
-8.2663627e-05
0.00059418422
-1.0775745e-05
0.00061496641
5.096538e-05
0.00058784647
2.6881967e-05
0.00051911802
-5.5705929e-05
0.00048230298
-4.7441859e-05
0.00049202758
-6.9516302e-05
0.00049619652
-6.9769502e-05
0.00044093964
-5.8341114e-05
0.00041703839
-7.0639986e-05
0.00045613648
-6.7810513e-05
0.00050371094
-7.4201042e-05
0.00051243564
-3.0340644e-05
0.00045691441
3.2470812e-05
0.00036165
-1.1098374e-05
0.00029513863
-0.0001624672
0.00032855126
-0.00016276566
0.00040797744
3.64915e-06
0.0004051276
9.9889531e-05
0.00032161093
-8.4011834e-06
0.00024529331
-0.00019196914
0.00026617104
-0.00021350464
0.00038013415
-4.4139604e-05
0.00047344786
0.00015355677
0.00046306262
0.00013251559
0.00036740102
-6.7693792e-05
0.00026331268
-0.00027087742
0.00025182534
-0.00027661575
0.000389061
-3.9492656e-05
0.00054207026
0.00021484995
0.00059665604
0.00029961459
0.00056278163
0.00019213547
0.00043538421
1.8247544e-06
0.00023588914
-0.00018137949
4.9613766e-05
-0.00025988539
-8.9999785e-06
-0.000168539
2.5598584e-05
3.9129094e-05
0.00015029743
0.00021153271
0.00028042386
0.00028029636
0.00036876793
0.00021628217
9.1669671e-05
0.00036951224
0.00059496666
-1.6903648e-05
0.00059399285
-0.00019258357
0.00061832645
-3.5887743e-05
0.00065691932
8.1723926e-05
0.00068737544
3.7565342e-06
0.00070188413
-4.3360889e-05
0.00070695475
-2.7493869e-05
0.00068256486
6.0733041e-05
0.00066407906
-5.5443472e-05
0.00064644234
9.3577708e-06
0.00060122689
1.7046136e-05
0.00055954026
-0.0001430521
0.00057093898