/*--------------------------------*- C++ -*----------------------------------*\
| =========                 |                                                 |
| \\      /  F ield         | OpenFOAM: The Open Source CFD Toolbox           |
|  \\    /   O peration     | Version:  2406                                  |
|   \\  /    A nd           | Website:  www.openfoam.com                      |
|    \\/     M anipulation  |                                                 |
\*---------------------------------------------------------------------------*/
FoamFile
{
    version     2.0;
    format      ascii;
    arch        "LSB;label=32;scalar=64";
    class       surfaceScalarField;
    location    "23";
    object      phi;
}
// * * * * * * * * * * * * * * * * * * * * * * * * * * * * * * * * * * * * * //

dimensions      [1 0 -1 0 0 0 0];

oriented        oriented;

internalField   nonuniform List<scalar> 
192068
(
0.00085700363
-7.9829666e-05
6.97276e-05
0.000886822
-0.00013940065
0.00013916839
0.00091068417
-0.00015601689
0.00016967444
0.00093821914
-0.00018204046
0.00018973978
0.00096662923
-0.00021631749
0.0002170258
0.00099365272
-0.00023941338
0.00023377244
0.0010181639
-0.00023892829
0.00022992912
0.001038499
-0.00021908025
0.00020881692
0.0010525121
-0.000198113
0.00018895205
0.0010579277
-0.00018788042
0.00017953419
0.0010540491
-0.00019180512
0.00018304017
0.0010431027
-0.00020391321
0.00019870615
0.0010274144
-0.00021993159
0.00021817126
0.0010086453
-0.00023566648
0.00023691132
0.00098841783
-0.00024870331
0.00025418419
0.00096642798
-0.00025665305
0.00026205503
0.00094217784
-0.00025905904
0.00026601534
0.00091471495
-0.00025826178
0.00026930277
0.00088211311
-0.00025860923
0.00027494975
0.00084338706
-0.00026162539
0.00027951242
0.00080081362
-0.00026496627
0.00028139334
0.00076214391
-0.00026539121
0.00027778587
0.00074105222
-0.00025559946
0.00026575362
0.00074089924
-0.00023125341
0.00024114439
0.00074676074
-0.00019247285
0.00019786733
0.00075407877
-0.00014635583
0.00014898201
0.00075981852
-9.8476219e-05
9.9235779e-05
0.00076234587
-5.3773966e-05
5.346637e-05
0.00076302713
-1.2796146e-05
1.3652751e-05
0.00076317533
2.2040056e-05
-2.0580215e-05
0.00076316782
5.3780524e-05
-5.1978389e-05
0.00076319368
8.1551105e-05
-7.9769694e-05
0.00076416954
0.00010748194
-0.00010656569
0.0007663225
0.00013188812
-0.00013109925
0.00076962877
0.00015526933
-0.00015535356
0.00077411092
0.00017684785
-0.00017916874
0.00078054966
0.00019845008
-0.00020209766
0.00078877151
0.00021919902
-0.00022457451
0.00079892385
0.00023919814
-0.00024537943
0.00081021486
0.00025730137
-0.00026725503
0.00082318072
0.00027541064
-0.00028506891
0.00083858138
0.00029384088
-0.00030185511
0.00085482162
0.00030729342
-0.00032213228
0.00087146864
0.00032256331
-0.00033989941
0.00089307754
0.00033785491
-0.00035043461
0.00091217658
0.00035148903
-0.00037265537
0.00093570877
0.00036343264
-0.00038198975
0.00095809322
0.00037689904
-0.00039954584
0.00098437864
0.00038788056
-0.0004096362
0.0010094155
0.00039892059
-0.00042494347
0.001036439
0.00040794022
-0.00043353975
0.0010666669
0.00041798505
-0.00044605132
0.0010932443
0.00042583836
-0.00045440793
0.0011282185
0.00042862885
-0.0004599997
0.00044697157
0.0011574704
-0.00047566969
0.00086367646
-8.3835613e-05
0.00088639152
-0.00013192253
0.00090935728
-0.00014171988
0.00093639128
-0.00017390668
0.00096484502
-0.00021465514
0.00099209359
-0.000244467
0.0010173031
-0.00024688852
0.0010385423
-0.00022801568
0.0010532307
-0.00020548634
0.0010590618
-0.00019620278
0.0010559095
-0.00019897007
0.0010459161
-0.00020781817
0.0010309678
-0.00022415093
0.0010127778
-0.00023840132
0.00099261394
-0.00024295172
0.00097029341
-0.00024690294
0.00094613855
-0.00024826983
0.00091926362
-0.00024730623
0.00088753602
-0.000247278
0.00084969426
-0.00024881647
0.00080755232
-0.00025088497
0.00076857683
-0.00025101853
0.00074660472
-0.00024432348
0.00074600055
-0.00022283889
0.00075188088
-0.00018593555
0.00075883651
-0.00014254611
0.0007638321
-9.7040039e-05
0.00076566347
-5.3166008e-05
0.00076659481
-1.2794063e-05
0.00076620946
2.2177382e-05
0.00076598434
5.3437049e-05
0.00076599512
8.0533756e-05
0.0007674224
0.00010660166
0.00076996034
0.00012994691
0.0007743299
0.00015268309
0.00078005851
0.00017426223
0.00078758781
0.00019445575
0.00079639653
0.0002137032
0.00080635796
0.00023177779
0.00081841876
0.00025075975
0.00083118256
0.0002656293
0.00084472446
0.00028090778
0.00086022547
0.00029549148
0.0008780348
0.00031102496
0.00089520152
0.00032083795
0.00091583798
0.00033571714
0.00093552999
0.00034415532
0.0009596738
0.00035801215
0.00098110828
0.00036507894
0.001007702
0.00037592743
0.001033075
0.00038505765
0.0010611805
0.00038915073
0.0010862271
0.00039852529
0.0011183171
0.00040072317
0.00041441139
0.0011471789
0.00086788064
-8.5259945e-05
0.00088804882
-0.00012146325
0.00091081224
-0.00012721736
0.00093772574
-0.00016510111
0.00096616995
-0.00021211021
0.00099363567
-0.00024721983
0.0010191227
-0.00025352341
0.0010404454
-0.00023556159
0.0010549274
-0.00021364562
0.0010605784
-0.00020327964
0.0010574229
-0.00020295922
0.0010473237
-0.0002119791
0.0010324241
-0.00022523546
0.0010145412
-0.00023551277
0.00099453301
-0.00024088131
0.00097265198
-0.00024058237
0.00094895867
-0.00023723929
0.00092259884
-0.00023432315
0.00089154477
-0.00023488323
0.00085450913
-0.00023705134
0.00081295281
-0.00023935474
0.00077370197
-0.00023895832
0.00075074547
-0.000232833
0.00074966782
-0.00021595951
0.0007558962
-0.00018189837
0.00076341618
-0.00013947744
0.00076925007
-9.5010787e-05
0.00077170108
-5.1942809e-05
0.00077184624
-1.283916e-05
0.00077139154
2.1887589e-05
0.00077092607
5.2651666e-05
0.00077105716
7.9663502e-05
0.00077232094
0.00010374063
0.0007748582
0.00012639135
0.00077922855
0.00014802904
0.00078479698
0.00016815063
0.0007926524
0.00018795355
0.00080197706
0.00020672368
0.00081313392
0.00022430694
0.00082481487
0.00023958796
0.00083834471
0.00025559492
0.00085329049
0.00027085434
0.00086875626
0.00028225576
0.00088568973
0.00029557304
0.00090375994
0.00030681992
0.00092278972
0.00031816111
0.00094268165
0.00032838244
0.00096408765
0.0003371514
0.00098557549
0.00034640261
0.0010095712
0.00035206337
0.0010323827
0.00036228463
0.0010566629
0.00036362906
0.0010859723
0.00037736052
0.0011100777
0.00037463354
0.00038637405
0.0011402201
0.00087056126
-8.588347e-05
0.00089000494
-0.00011020789
0.00091277752
-0.00011193853
0.00093975704
-0.0001562299
0.00096832797
-0.0002075692
0.00099595921
-0.00024778337
0.0010214601
-0.00025786244
0.0010424383
-0.00024077476
0.00105647
-0.00021927663
0.0010618894
-0.00020706543
0.0010585161
-0.00020671519
0.0010484662
-0.0002150585
0.0010339163
-0.00022237588
0.0010162172
-0.00022785273
0.00099644018
-0.00023408695
0.00097502974
-0.00023355525
0.00095191981
-0.00022816654
0.00092624263
-0.00022189432
0.0008960098
-0.00021963851
0.0008597895
-0.00022120011
0.00081883438
-0.00022497936
0.00077935142
-0.00022682213
0.00075514313
-0.00022162455
0.00075353018
-0.00020646964
0.00075996256
-0.00017724302
0.0007677591
-0.00013762631
0.00077400401
-9.429487e-05
0.00077638762
-5.2045753e-05
0.00077688082
-1.3907986e-05
0.00077630499
2.041985e-05
0.00077566469
5.0741417e-05
0.00077540935
7.7535769e-05
0.00077644744
0.00010207243
0.00077876979
0.00012351366
0.00078286866
0.00014388021
0.0007884585
0.00016336081
0.00079614062
0.00018145416
0.00080528276
0.00019881964
0.00081553738
0.00021479576
0.00082807115
0.00023081909
0.00084130868
0.0002445973
0.0008555298
0.00025649866
0.00087174975
0.00027100717
0.00088898328
0.00028097584
0.00090670569
0.00029274471
0.00092606751
0.00030044638
0.00094541835
0.00031113106
0.00096657841
0.00031717441
0.00098745413
0.00032675227
0.001011174
0.00033276958
0.0010327094
0.00034065088
0.0010588401
0.00034289035
0.0010829385
0.00035151065
0.0011050566
0.00034719255
0.00035909666
0.0011323081
0.00087200248
-8.6588362e-05
0.00089173312
-9.9384865e-05
0.00091432207
-9.7354053e-05
0.00094142191
-0.00014547445
0.00097018167
-0.00020263126
0.00099803122
-0.00024634699
0.0010235968
-0.00025846378
0.0010442215
-0.00024260249
0.0010578505
-0.00022079426
0.0010628954
-0.00020956652
0.0010593473
-0.0002113841
0.001049613
-0.00021513215
0.0010353775
-0.00022117592
0.0010178213
-0.00022573125
0.00099852261
-0.00022440802
0.00097760744
-0.00022138123
0.00095500098
-0.00021691867
0.00092994623
-0.00021081243
0.00090050835
-0.00020701562
0.00086502763
-0.00020742553
0.00082460018
-0.00021051386
0.00078491539
-0.00021333601
0.00075943659
-0.00021120668
0.00075704324
-0.00019819106
0.00076383704
-0.00017125654
0.00077203153
-0.00013454205
0.00077884294
-9.4132012e-05
0.00078161535
-5.3707946e-05
0.00078217652
-1.5750926e-05
0.00078157702
1.8196451e-05
0.00078090241
4.8266764e-05
0.00078068837
7.4294956e-05
0.00078162279
9.7595178e-05
0.00078392693
0.0001198534
0.00078803171
0.00013989686
0.00079329349
0.00015816821
0.0008007324
0.00017527008
0.0008095344
0.00019137001
0.0008199275
0.00020625614
0.00083173034
0.00022048087
0.00084416063
0.00023236836
0.00085981713
0.00024686949
0.00087407038
0.00025537454
0.00089203066
0.00026719618
0.00090840104
0.00027567136
0.0009284509
0.00028547611
0.00094702906
0.00029430853
0.00096770094
0.00029921721
0.00099014706
0.00030985474
0.0010096095
0.00030932843
0.0010333122
0.00031976253
0.0010558748
0.00031976297
0.001077568
0.0003283738
0.0011027682
0.00032708473
0.00034018313
0.0011311167
0.00087277289
-8.8561292e-05
0.00089385507
-9.0591352e-05
0.00091633092
-8.2044142e-05
0.00094358195
-0.00013473937
0.00097261561
-0.0001956363
0.001000672
-0.00024259665
0.0010261534
-0.00025637136
0.0010462589
-0.00024159907
0.0010592479
-0.00022052967
0.0010637573
-0.00021130461
0.0010602215
-0.00021124702
0.0010505961
-0.00021385744
0.0010365181
-0.00021986506
0.0010194622
-0.00022257953
0.0010006731
-0.00021778166
0.00098021388
-0.00021125984
0.00095807898
-0.00020410077
0.00093356325
-0.00019808201
0.00090472889
-0.00019531425
0.00086998622
-0.00019594011
0.00083012942
-0.00019879506
0.00079025101
-0.00020096116
0.00076350096
-0.0001999255
0.00076013499
-0.00019058414
0.00076715077
-0.00016665536
0.00077557178
-0.00013215801
0.00078289353
-9.3516597e-05
0.00078610226
-5.4505847e-05
0.00078681447
-1.7765976e-05
0.0007861742
1.5115027e-05
0.00078518913
4.4126149e-05
0.00078468959
6.967423e-05
0.00078558632
9.3126599e-05
0.00078767365
0.00011338267
0.00079160656
0.00013279129
0.00079685143
0.00015060526
0.00080415991
0.00016744611
0.00081279828
0.00018231691
0.000822854
0.00019726304
0.0008339178
0.00020855502
0.00084772
0.00022404226
0.00086026373
0.00023099506
0.0008767642
0.00024482068
0.00089204685
0.00025141773
0.00091090077
0.00026344416
0.00092823192
0.00026803323
0.00094696589
0.00027636583
0.00096812584
0.00028239126
0.00098595065
0.00028723239
0.0010093117
0.00029267188
0.0010307722
0.00030083277
0.0010531115
0.00030004071
0.0010747431
0.00030639768
0.0011018656
0.00030487597
0.00031124802
0.0011190421
0.00087300685
-9.3118192e-05
0.00089714749
-8.5180352e-05
0.00091956657
-6.8828158e-05
0.00094702689
-0.00012492131
0.00097615375
-0.00018793125
0.0010040712
-0.00023653824
0.0010290253
-0.00025170216
0.0010482481
-0.00023815027
0.001060393
-0.0002189631
0.0010645325
-0.00020957192
0.001061002
-0.00020849521
0.0010514559
-0.00021226788
0.0010378051
-0.00021448826
0.0010212374
-0.00021200374
0.0010026993
-0.00021051213
0.00098273114
-0.00020432401
0.00096116011
-0.00019422589
0.00093714936
-0.0001855099
0.00090886921
-0.00018195523
0.00087478831
-0.00018286144
0.00083551479
-0.00018657148
0.00079550039
-0.00018978798
0.00076739651
-0.00018902063
0.00076297358
-0.00018179586
0.00077021978
-0.00016192084
0.00077902164
-0.00013020271
0.00078698805
-9.3598233e-05
0.0007907645
-5.5660526e-05
0.00079160552
-2.0269885e-05
0.00079088855
1.1743979e-05
0.00078975875
4.0237945e-05
0.00078921371
6.5658065e-05
0.0007896998
8.7773107e-05
0.00079165961
0.00010863913
0.00079522439
0.0001262743
0.00080030037
0.0001430015
0.00080716697
0.00015807126
0.00081594909
0.00017373934
0.00082512692
0.00018554276
0.00083765023
0.0002008973
0.0008482757
0.0002079744
0.00086356521
0.00022180406
0.00087742933
0.00022987871
0.00089436313
0.00023857487
0.00091049547
0.00024615721
0.00092801504
0.00025242151
0.00094774589
0.0002612916
0.00096480949
0.00026357091
0.00098734567
0.00027263052
0.0010073933
0.00027478683
0.0010272248
0.00027706442
0.0010479034
0.00027910743
0.0010706502
0.000285102
0.0010930231
0.0002856058
0.00028841616
0.0011141494
0.00087816138
-9.9002376e-05
0.00090409697
-8.3597588e-05
0.000926243
-5.5821981e-05
0.00095307656
-0.00011503453
0.00098098199
-0.00017843641
0.0010077447
-0.00022732939
0.0010317196
-0.00024262956
0.0010498844
-0.00023040369
0.0010612884
-0.00021375723
0.0010651646
-0.00020508335
0.0010615865
-0.00020674358
0.0010524156
-0.00020926506
0.0010393474
-0.00020744
0.0010229728
-0.00020409188
0.0010047949
-0.00019903457
0.00098531493
-0.00019249922
0.00096416605
-0.00018412054
0.00094062202
-0.00017510752
0.00091296786
-0.00016988474
0.00087953495
-0.00016970355
0.0008407845
-0.00017365735
0.00080069422
-0.00017817143
0.00077117512
-0.00017863466
0.00076544384
-0.00017297751
0.00077280336
-0.00015661165
0.00078188049
-0.00012794555
0.00079047912
-9.368654e-05
0.00079477552
-5.7199893e-05
0.00079588105
-2.3562706e-05
0.00079516544
7.5503828e-06
0.00079393462
3.5176722e-05
0.00079310311
5.9982756e-05
0.00079347518
8.2699972e-05
0.00079486725
0.00010133296
0.00079823856
0.00011994665
0.00080293328
0.00013534705
0.0008099752
0.00015088986
0.00081761332
0.00016296081
0.00082810836
0.00017779588
0.00083730628
0.000185411
0.00085123619
0.00020041268
0.00086336229
0.0002070231
0.00087820936
0.00021619463
0.00089354828
0.00022409571
0.00091033165
0.00023233784
0.00092792252
0.00023761556
0.0009453222
0.00024363219
0.00096460485
0.00024786097
0.00098466782
0.00025386171
0.00099967461
0.00025124631
0.001026023
0.00026508175
0.0010421941
0.00025902553
0.0010694764
0.0002686216
0.0010815565
0.00026068246
0.00027218934
0.0011117498
0.00089353728
-0.00010210042
0.0009145006
-7.8089559e-05
0.00093466942
-4.2331793e-05
0.00095951982
-0.00010291755
0.00098483155
-0.0001650929
0.0010098416
-0.00021399699
0.0010330481
-0.00023079169
0.0010507338
-0.00022019635
0.0010618858
-0.00020553904
0.001065581
-0.00020039829
0.0010621708
-0.00020389428
0.001053501
-0.00020338938
0.0010407211
-0.0002024311
0.0010247383
-0.00019944245
0.0010070568
-0.00018957297
0.00098796615
-0.00017959905
0.00096720786
-0.00017166655
0.00094407894
-0.00016413962
0.00091697868
-0.00015930721
0.00088415376
-0.00015873205
0.00084595548
-0.00016198237
0.00080588259
-0.00016652106
0.00077496995
-0.00016830153
0.00076769702
-0.00016447239
0.00077513352
-0.0001511669
0.00078458321
-0.00012517326
0.00079386958
-9.3177755e-05
0.00079864651
-5.8823835e-05
0.00080008025
-2.6463167e-05
0.00079939999
3.0512998e-06
0.00079808392
3.0098091e-05
0.00079717203
5.4477838e-05
0.00079688109
7.490611e-05
0.00079834189
9.4938602e-05
0.00080099457
0.00011065315
0.00080580187
0.00012742953
0.00081182457
0.00014038082
0.00082028852
0.00015490203
0.00082827058
0.00016371156
0.0008403291
0.00017792404
0.00085084291
0.00018496934
0.00086380339
0.00019419429
0.00087859761
0.00020448029
0.00089331861
0.00020998546
0.00090938523
0.00021667138
0.00092609143
0.0002222851
0.00094381877
0.00022875448
0.00096191393
0.00023041599
0.00097809149
0.00023659063
0.0010032097
0.00024034406
0.0010173926
0.00024206758
0.0010404302
0.0002408897
0.0010575759
0.00024672058
0.001079942
0.00024154562
0.00024912401
0.0010981812
0.00090792478
-9.9266823e-05
0.00092146463
-6.5873777e-05
0.00094039788
-3.0212756e-05
0.00096390936
-9.1242378e-05
0.00098731524
-0.00015034145
0.0010109757
-0.00019776276
0.0010337082
-0.00021569052
0.0010512515
-0.00020793926
0.00106228
-0.00019612713
0.0010659436
-0.00019434811
0.0010629116
-0.00019653283
0.0010545532
-0.00019674537
0.0010420757
-0.00019518831
0.0010266369
-0.00018949185
0.0010092803
-0.00018127157
0.00099051118
-0.00017158694
0.0009701841
-0.00016062484
0.0009474413
-0.00015219741
0.00092079332
-0.00014842477
0.0008885549
-0.00014816863
0.00085089198
-0.00015165039
0.00081089194
-0.00015639319
0.00077865288
-0.00015862082
0.00076965878
-0.00015637937
0.00077705374
-0.00014543456
0.0007868995
-0.00012226408
0.00079674849
-9.2393119e-05
0.00080204379
-6.0369464e-05
0.00080387195
-2.9462653e-05
0.00080338291
-8.6761219e-07
0.00080200795
2.5166411e-05
0.0008005904
4.8338962e-05
0.00080028057
6.9516036e-05
0.0008008073
8.6037354e-05
0.00080365885
0.00010381604
0.00080739689
0.00011689707
0.00081386588
0.0001315833
0.00082041784
0.00014155041
0.0008305025
0.00015529153
0.00083946691
0.00016311357
0.00085111262
0.00017325747
0.00086437762
0.00018318621
0.00087699561
0.00018843332
0.00089162756
0.00019548407
0.00090797905
0.00020331966
0.00092420636
0.0002079825
0.00093983505
0.00021032718
0.00095932034
0.00021800906
0.00097653664
0.00021763709
0.00099508584
0.00022242002
0.0010117176
0.00022325881
0.00103433
0.00022398843
0.0010493553
0.00022847992
0.0010746521
0.00022834597
0.00023114993
0.0010927733
0.00090732923
-9.7984711e-05
0.00092223308
-5.7419898e-05
0.0009405617
-1.9164114e-05
0.00096376325
-7.9906938e-05
0.00098704969
-0.00013491984
0.0010109379
-0.00018020276
0.0010339902
-0.00019928607
0.001051652
-0.00019448
0.0010625591
-0.00018687009
0.001066378
-0.00018584693
0.0010636433
-0.0001884787
0.0010556462
-0.00018971955
0.0010437127
-0.00018582198
0.0010286319
-0.00017663432
0.0010114137
-0.00016984236
0.00099296902
-0.00016244449
0.00097305309
-0.00015196394
0.00095071956
-0.00014220456
0.00092457462
-0.00013792747
0.00089291925
-0.00013721832
0.00085573484
-0.00014074426
0.00081585353
-0.00014596898
0.00078238145
-0.00014919967
0.00077152873
-0.00014726809
0.00077867647
-0.00013938909
0.00078893292
-0.00011884844
0.00079938962
-9.149914e-05
0.00080528884
-6.1342559e-05
0.00080755209
-3.2210413e-05
0.00080726311
-4.9103198e-06
0.00080580863
1.988498e-05
0.0008043321
4.2504773e-05
0.00080321861
6.1681509e-05
0.00080402811
8.0684871e-05
0.00080561848
9.4341606e-05
0.00080971051
0.00010996992
0.0008146011
0.00012069355
0.00082244838
0.00013378304
0.00083016668
0.00014242511
0.00084009474
0.0001521429
0.00085168962
0.00016207022
0.0008622899
0.0001672996
0.00087599687
0.0001760747
0.00089084815
0.00018338571
0.00090562005
0.00018788697
0.00091944122
0.00019010678
0.00093971714
0.0001996676
0.00095170767
0.00019663318
0.00097444153
0.00020674179
0.00098654839
0.00020087756
0.0010088571
0.00020990896
0.0010280245
0.00021015872
0.0010453595
0.00020872158
0.0010634805
0.00020570942
0.0002112727
0.0010812688
0.00090813785
-9.701779e-05
0.00092298983
-4.9557676e-05
0.0009406979
-8.8730182e-06
0.00096348865
-7.031543e-05
0.00098661908
-0.00011992116
0.0010107141
-0.00016207089
0.001034043
-0.00018216588
0.0010518493
-0.00017969914
0.001062769
-0.00017520473
0.0010667359
-0.00017566291
0.0010642352
-0.0001815239
0.0010567906
-0.00018215477
0.0010454189
-0.00017651025
0.0010305391
-0.00016976501
0.0010135982
-0.00015923645
0.00099549802
-0.0001495708
0.00097589012
-0.00014143391
0.00095386738
-0.00013303711
0.00092821394
-0.00012831762
0.00089712324
-0.0001273888
0.00086045848
-0.00013103015
0.00082073262
-0.0001353063
0.00078618545
-0.00013938278
0.0007732229
-0.00013862496
0.0007799822
-0.0001326594
0.00079055889
-0.00011495119
0.0008015996
-9.0081592e-05
0.00080805032
-6.1836015e-05
0.00081082103
-3.4547031e-05
0.00081080861
-8.9341224e-06
0.0008093339
1.4551272e-05
0.00080743474
3.5674814e-05
0.00080642515
5.5057648e-05
0.0008060319
7.0613159e-05
0.00080807568
8.7035638e-05
0.00081071575
9.9069592e-05
0.00081627873
0.00011217376
0.0008224022
0.00012202083
0.00083048026
0.00013138823
0.00084023649
0.00014127167
0.00084948405
0.00014677572
0.00086177485
0.00015610567
0.00087491047
0.00016339409
0.00088741389
0.00016709969
0.00090108466
0.00017179717
0.00091948129
0.0001801393
0.00093112293
0.00018004532
0.00095176106
0.00018545798
0.00096386945
0.00018588237
0.00098529004
0.0001910046
0.001004503
0.00019310276
0.0010143235
0.00018633653
0.0010365953
0.00019291285
0.0010563457
0.00019441632
0.0001933745
0.0010733226
0.00089149712
-0.00010385673
0.00091587836
-5.2186583e-05
0.00093403284
-1.0916114e-06
0.00095757413
-6.27977e-05
0.00098249939
-0.00010703496
0.0010086502
-0.00014595941
0.0010334331
-0.0001651431
0.0010519088
-0.00016362753
0.0010629853
-0.00016015692
0.0010669984
-0.00016520358
0.0010648942
-0.00017183397
0.0010580129
-0.00017120133
0.0010468769
-0.0001673718
0.0010324261
-0.00016134072
0.0010158506
-0.0001500149
0.00099795278
-0.00013937079
0.00097865499
-0.00013096197
0.00095697937
-0.00012317777
0.00093178309
-0.00011898707
0.00090119416
-0.0001183917
0.00086516315
-0.00012166372
0.00082558139
-0.00012602213
0.00079010532
-0.00012948002
0.00077497517
-0.0001298108
0.00078101536
-0.0001256908
0.00079187421
-0.0001110097
0.00080349655
-8.8168205e-05
0.00081060689
-6.2363925e-05
0.00081392224
-3.6394495e-05
0.00081413872
-1.2267438e-05
0.00081267609
9.803604e-06
0.00081074442
3.0054443e-05
0.00080898357
4.7695992e-05
0.00080878909
6.4285392e-05
0.00080956411
7.6870449e-05
0.00081241909
9.0034322e-05
0.00081672253
0.00010084962
0.00082265453
0.00011059047
0.00083059042
0.00012042709
0.00083843555
0.00012630839
0.00084936917
0.00013629645
0.00086051128
0.00014344848
0.00087128026
0.0001472271
0.00088444509
0.00015353862
0.00090062482
0.0001615732
0.00091242515
0.00016203509
0.00092870691
0.00016527173
0.00094426068
0.00017100137
0.00096190041
0.00017174209
0.00097756566
0.00017252695
0.00099237731
0.00017559505
0.0010096369
0.00017251534
0.0010345628
0.00018212871
0.0010420535
0.00017189934
0.0001770825
0.0010648824
0.00088712298
-0.00011044163
0.00091110518
-5.655397e-05
0.00092919407
4.256575e-06
0.00095287929
-5.6588704e-05
0.00097867774
-9.6479283e-05
0.0010061077
-0.00013029426
0.0010320579
-0.00014811285
0.0010514318
-0.00014785702
0.0010628348
-0.00014573363
0.0010672256
-0.00015272031
0.00106568
-0.00015931173
0.0010591804
-0.00016088209
0.0010484443
-0.00015737211
0.001034473
-0.00014784114
0.0010180028
-0.00013979599
0.0010002401
-0.00013157138
0.00098128063
-0.00012232194
0.00095998013
-0.00011428921
0.00093519789
-0.00011012791
0.00090513091
-0.00010913534
0.00086966631
-0.00011189862
0.00083033462
-0.00011674617
0.00079393059
-0.00012034053
0.00077654241
-0.00012056942
0.00078160662
-0.00011813667
0.00079274752
-0.00010641129
0.00080494
-8.5666505e-05
0.0008127043
-6.2116227e-05
0.00081643924
-3.8281524e-05
0.00081716482
-1.5677213e-05
0.00081580093
4.909814e-06
0.00081364255
2.3950176e-05
0.0008118717
4.1731457e-05
0.00081063846
5.6164556e-05
0.00081138045
6.9849814e-05
0.000813263
8.0902385e-05
0.00081705111
9.0856663e-05
0.00082282487
0.00010096826
0.00082906659
0.00010754478
0.00083846661
0.00011733972
0.00084774403
0.00012314688
0.00085709212
0.00012818244
0.000869386
0.0001360828
0.00088312775
0.00014269002
0.00089396755
0.00014261609
0.00090791834
0.00014734104
0.0009257185
0.00015564885
0.00093735163
0.0001516481
0.0009551484
0.00015923254
0.00097042623
0.00015679692
0.00098404711
0.00015908467
0.0010089421
0.00016266613
0.0010162324
0.00016019234
0.00103428
0.0001539147
0.0001640597
0.0010542578
0.00088082583
-0.00011506305
0.00090170703
-5.8774637e-05
0.00091902511
9.1931806e-06
0.00094307818
-5.2986899e-05
0.00097070335
-8.7790757e-05
0.0010004242
-0.00011737878
0.0010285117
-0.00013391001
0.0010497669
-0.00013336373
0.001062232
-0.00013251483
0.0010674494
-0.00013991658
0.0010664686
-0.00014871054
0.0010604246
-0.00015067287
0.0010502435
-0.00014548899
0.0010364343
-0.00013681577
0.0010200829
-0.0001283227
0.0010025384
-0.00012105907
0.00098382813
-0.00011308818
0.00096295179
-0.00010544284
0.00093860635
-0.00010189116
0.00090911791
-0.00010042644
0.0008741839
-0.00010262975
0.00083519979
-0.00010702186
0.00079801755
-0.00011131329
0.00077829134
-0.00011168562
0.00078206463
-0.00011035307
0.00079351755
-0.00010060932
0.00080611747
-8.1874191e-05
0.00081447951
-6.0766621e-05
0.00081887002
-3.9217206e-05
0.0008198588
-1.8376316e-05
0.00081869004
8.3231899e-07
0.00081662562
1.7954232e-05
0.00081431584
3.4207322e-05
0.00081298065
4.8456318e-05
0.00081295944
6.0613638e-05
0.0008143972
7.1943329e-05
0.00081793113
8.2754003e-05
0.00082227796
8.9685707e-05
0.00082941588
9.8621672e-05
0.00083675351
0.00010404523
0.00084524799
0.00010993952
0.00085619433
0.00011820991
0.00086722911
0.00012268731
0.00087676916
0.0001241811
0.00089068338
0.00013161307
0.00090666617
0.00013765315
0.00091582065
0.0001348194
0.00093500568
0.00014243316
0.00094592266
0.00013881026
0.00096337107
0.00014502392
0.00098116932
0.00014583939
0.00099434945
0.00014341334
0.0010029931
0.0001398388
0.0010340344
0.00015009771
0.0001450209
0.0010415392
0.00088230566
-0.00011648386
0.00089904965
-5.7539459e-05
0.00091513181
1.427454e-05
0.00093826935
-4.9706603e-05
0.00096575202
-8.0182645e-05
0.00099598054
-0.00010555804
0.0010250868
-0.00012035846
0.0010476526
-0.00011967516
0.0010611617
-0.00011935412
0.0010672237
-0.00012702857
0.0010669844
-0.00013687367
0.0010615879
-0.00013865039
0.0010518044
-0.00013420304
0.00103821
-0.00012915844
0.0010221365
-0.00011884208
0.0010048345
-0.00010979138
0.00098629779
-0.00010330046
0.00096575761
-9.6409825e-05
0.00094182096
-9.3457609e-05
0.00091283839
-9.2433628e-05
0.00087842766
-9.4267646e-05
0.00083976998
-9.7764561e-05
0.00080201344
-0.00010162173
0.00077987148
-0.00010251451
0.00078212634
-0.00010217966
0.00079380464
-9.4853111e-05
0.00080675171
-7.8109454e-05
0.000815787
-5.9491801e-05
0.00082068116
-3.9417673e-05
0.00082227848
-2.0073327e-05
0.00082124046
-2.5734967e-06
0.00081920543
1.3734566e-05
0.00081669951
2.8941703e-05
0.00081481898
4.2146717e-05
0.00081438802
5.291894e-05
0.00081540778
6.2923724e-05
0.00081751469
7.1044244e-05
0.0008223334
8.0536033e-05
0.00082770169
8.6040888e-05
0.00083485573
9.2433199e-05
0.0008441731
9.9420078e-05
0.00085299171
0.00010411727
0.00086200804
0.00010775673
0.00087506564
0.00011536776
0.00088759789
0.00011824196
0.00089718961
0.00011877111
0.00091403398
0.00012468719
0.00092408326
0.00012440673
0.00094357984
0.00013058721
0.00095410102
0.00012720254
0.00097136964
0.00012989763
0.0009795987
0.0001273339
0.001008769
0.00013509769
0.0010141816
0.00012885418
0.00012659114
0.0010297832
0.00088589631
-0.00011495886
0.00089780272
-5.2678927e-05
0.0009122955
2.0188041e-05
0.0009342049
-4.5774548e-05
0.00096091001
-7.2965479e-05
0.00099096143
-9.3833027e-05
0.0010206773
-0.0001078069
0.0010444569
-0.00010740964
0.0010592764
-0.00010561955
0.0010665186
-0.00011519609
0.0010674036
-0.00012425232
0.0010626826
-0.00012627961
0.0010531203
-0.00012316221
0.0010399064
-0.00011730093
0.0010240752
-0.00010905448
0.0010069314
-0.00010124185
0.0009886618
-9.5274815e-05
0.00096857626
-8.8520672e-05
0.00094510249
-8.5152333e-05
0.00091672013
-8.3373417e-05
0.0008828796
-8.5183393e-05
0.0008446303
-8.8757167e-05
0.00080636809
-9.2511142e-05
0.00078179249
-9.3497532e-05
0.00078223374
-9.3303604e-05
0.00079386149
-8.8689243e-05
0.0008070624
-7.389004e-05
0.00081677235
-5.7188031e-05
0.00082234312
-3.9629267e-05
0.0008243753
-2.1495394e-05
0.0008236784
-6.0397646e-06
0.00082186328
8.5003092e-06
0.00081929758
2.3513786e-05
0.00081688393
3.5593208e-05
0.00081601901
4.5559731e-05
0.00081607505
5.4509363e-05
0.00081831283
6.3417877e-05
0.00082146918
6.9805788e-05
0.00082677926
7.6070737e-05
0.00083376518
8.1548863e-05
0.00084142938
8.6780113e-05
0.00084993603
9.2226812e-05
0.00086083585
9.8575471e-05
0.00087053457
0.00010019809
0.0008807312
0.00010293972
0.00089449435
0.00010786725
0.00090635781
0.00011090731
0.00092135187
0.0001120157
0.0009325124
0.00011369058
0.00094661175
0.00011232298
0.00096185034
0.00011751174
0.00097795149
0.00011536843
0.00099254018
0.00011790963
0.00099889071
0.00010809135
0.00012025558
0.0010237875
0.00088751151
-0.00011187583
0.00089750717
-4.64976e-05
0.00091124708
2.5928777e-05
0.00093268362
-4.1659792e-05
0.00095878249
-6.511046e-05
0.00098849809
-8.267166e-05
0.0010183614
-9.5956776e-05
0.0010426324
-9.601129e-05
0.0010579291
-9.4281804e-05
0.0010658804
-0.00010343703
0.0010675504
-0.00011148309
0.0010634084
-0.00011307214
0.0010543586
-0.00011070461
0.0010415278
-0.00010337205
0.0010258626
-9.7150856e-05
0.0010087928
-9.2360274e-05
0.00099080021
-8.6953295e-05
0.00097114791
-8.0238852e-05
0.00094815058
-7.6612246e-05
0.00092024206
-7.4990983e-05
0.00088697583
-7.5920572e-05
0.0008490521
-7.8352603e-05
0.0008103974
-8.2751767e-05
0.00078355301
-8.3379413e-05
0.0007817649
-8.4178104e-05
0.0007933833
-8.1404566e-05
0.00080679749
-6.8271877e-05
0.00081704616
-5.4095772e-05
0.00082333382
-3.8659982e-05
0.00082584598
-2.2700739e-05
0.00082545155
-8.7331321e-06
0.00082383059
4.1189219e-06
0.00082108374
1.7281672e-05
0.00081843016
2.9471277e-05
0.00081701015
3.7884223e-05
0.00081679416
4.5990037e-05
0.00081795574
5.4518168e-05
0.00082090827
6.1404149e-05
0.00082560761
6.6781968e-05
0.00083172531
7.1156574e-05
0.00083907473
7.5919338e-05
0.00084794439
8.1932038e-05
0.00085556647
8.3476488e-05
0.00086558492
8.8043158e-05
0.00087704227
9.1771415e-05
0.00088903097
9.5379598e-05
0.00089951964
9.4960825e-05
0.00091388391
0.00010009666
0.00092274931
9.6567238e-05
0.00094234765
0.00010371475
0.00095136596
0.00010168447
0.00096872359
0.00010072704
0.00097279887
9.7880506e-05
0.0010023262
0.00010580975
0.00010118262
0.0010072469
0.00088755908
-0.00011031748
0.00089762251
-4.127587e-05
0.00090996377
3.2681378e-05
0.0009307559
-3.7036497e-05
0.00095622373
-5.7649967e-05
0.00098560101
-7.2062673e-05
0.0010155499
-8.5234379e-05
0.0010404003
-8.5167545e-05
0.0010563555
-8.2212146e-05
0.0010651231
-8.9888926e-05
0.0010675712
-9.8837627e-05
0.0010639606
-0.00010088915
0.0010553851
-9.773701e-05
0.0010427069
-9.3530545e-05
0.0010272626
-8.6802617e-05
0.0010105403
-8.1817046e-05
0.00099294753
-7.7141948e-05
0.00097387228
-7.1923362e-05