/*--------------------------------*- C++ -*----------------------------------*\
| =========                 |                                                 |
| \\      /  F ield         | OpenFOAM: The Open Source CFD Toolbox           |
|  \\    /   O peration     | Version:  2406                                  |
|   \\  /    A nd           | Website:  www.openfoam.com                      |
|    \\/     M anipulation  |                                                 |
\*---------------------------------------------------------------------------*/
FoamFile
{
    version     2.0;
    format      ascii;
    arch        "LSB;label=32;scalar=64";
    class       surfaceScalarField;
    location    "23";
    object      phi_0;
}
// * * * * * * * * * * * * * * * * * * * * * * * * * * * * * * * * * * * * * //

dimensions      [1 0 -1 0 0 0 0];

oriented        oriented;

internalField   nonuniform List<scalar> 
123996
(
0.0014041926
-2.0471341e-05
0.00013370118
0.0014319905
-9.7090778e-05
-4.3329307e-05
0.0015011255
6.0393741e-05
-3.107291e-05
0.001593779
-6.8867051e-05
0.0003511249
0.0016548921
-0.00033543593
0.0004232605
0.0017016112
-0.00015054592
0.00020933706
0.0016526816
-0.00021303038
3.8603787e-05
0.001605441
-3.0550479e-05
0.00019755017
0.0015542784
4.3310043e-05
5.7745374e-05
0.0014870316
-2.9093456e-05
-3.7236711e-05
0.0013766613
4.8143977e-05
-4.2708244e-05
0.0013861128
0.00014046103
0.00012855682
0.0012999942
-0.00015164115
-5.7683962e-05
0.0013077823
-0.00033826804
0.00028753063
0.0014227587
9.6086122e-05
0.00011463689
0.0013891366
0.00011357089
-0.00015012262
0.0013142424
-0.00031133768
0.00016066716
0.0012549181
-0.00027260845
0.00012853702
0.001129007
-2.891597e-05
0.00024446101
0.0011134202
-0.00016000307
0.00070974598
0.0011491049
-0.00040498632
0.00056596947
0.0010749131
-0.00047776473
0.00031792739
0.0010763251
-0.0004982245
0.00036981033
0.00099583585
-0.0004145494
0.00041283444
0.00077153336
-0.00047483477
0.00061175849
0.00081924674
-0.00052805219
0.00067824795
0.00084853752
-0.00044765784
0.00052694538
0.00073779139
-0.00054518374
0.00052553168
0.00080053123
-0.00054986868
0.00053603476
0.00082944136
-0.00042619683
0.0004139865
0.00047676314
-0.0005505532
0.00045463709
0.00028712792
-0.00074400519
0.00067597265
0.00053948053
-0.00066737013
0.00074742858
0.00097818911
-0.00037844707
0.00054186217
0.0010541566
-0.00018663519
0.00023814653
0.00070496716
-0.00028418468
0.00020091739
0.00032197145
-0.00051741581
0.00044382351
0.00032614435
-0.0005756729
0.00062389314
0.00065567486
-0.0003944107
0.00048030951
0.0012353385
-4.5237282e-05
7.8960365e-05
0.0016996564
0.00029092515
-0.00028151394
0.0018139553
0.000480375
-0.00053760144
0.0017273129
0.00057485406
-0.00063788946
0.0016597698
0.00053634329
-0.00065415608
0.0015696338
0.00036177472
-0.00064905174
0.001207204
0.00014628551
-0.0005560844
0.00060057915
-3.6235651e-05
-0.00033271885
0.00013285839
-0.00013439065
-3.8164356e-05
0.00037527237
-4.5270364e-05
8.848799e-05
0.0011871734
0.00020266942
0.0001398947
0.0020388712
0.00046850218
-6.259006e-05
0.0024702966
0.00066901153
-0.00038034956
0.0025923052
0.00084438318
-0.00069273514
0.0025958329
0.0010001113
-0.0009501171
0.0011458057
0.0025745239
-0.0011330448
0.0013375838
8.9039655e-05
0.0013720782
-0.0001700303
0.0014271784
-1.4068984e-05
0.0015069107
9.4100122e-05
0.0015881409
9.1377838e-06
0.0016149744
-3.2779789e-05
0.0015889226
-0.00027645419
0.0015458625
1.9983599e-05
0.0014746796
-1.8667464e-05
0.0014286886
-9.8687253e-05
0.0013478258
-1.1026666e-05
0.0012965058
8.4206362e-05
0.0012142265
-0.00030223177
0.0013221598
-0.00019954759
0.0013537345
0.00013350335
0.0012448917
1.3255997e-05
0.0012429301
-0.00019379626
0.0012481472
-0.00035613501
0.0011080886
-0.00010179454
0.0010617293
-1.870581e-05
0.001088361
-0.00018271892
0.0010108444
-0.00041715503
0.0010385546
-0.00047074488
0.00096097234
-0.00043767787
0.00077717582
-0.00050129688
0.00083097112
-0.00042267602
0.00079296024
-0.00033589182
0.00071550548
-0.00044666059
0.00080969186
-0.00042230473
0.00075512538
-0.00035096811
0.00044403221
-0.00052815369
0.00032936775
-0.00071392927
0.00058942578
-0.00058026345
0.00092213381
-0.00025117749
0.00085866618
-0.00011315141
0.00048314518
-0.00028072918
0.00026924003
-0.0005627711
0.00039277131
-0.00061587371
0.00073829278
-0.00034466768
0.001078985
4.2918662e-05
0.0014339191
0.00030729702
0.0015829164
0.00036999389
0.0014390377
0.00031241315
0.0011808375
0.00022670598
0.00097946582
7.2860012e-05
0.00077244096
-0.00013935023
0.0005665145
-0.00023932998
0.00054744646
-8.3849952e-05
0.00092325575
0.00024284865
0.001616106
0.00063118136
0.0023850558
0.00087513652
0.0029286914
0.00095368757
0.0031312095
0.00093718
0.0030613628
0.00089258647
0.0008636923
0.002855987
0.0012585958
0.000105762
0.0013102284
-3.2367329e-05
0.0013610466
-0.00013710162
0.0014297251
3.7989535e-05
0.0015145608
0.00024740208
0.0015258172
1.7045103e-05
0.0015351337
-0.00013427978
0.0014727358
-5.5747182e-05
0.0013925758
-0.00015409936
0.0013612745
-7.3715843e-05
0.0012863055
-7.2895293e-05
0.0011881626
-0.00012890903
0.001163742
-0.00030455724
0.0012910644
-2.41578e-05
0.0012626607
-4.8173008e-05
0.0011602447
-0.00018780916
0.001168075
-2.2316843e-05
0.0012209358
-0.00019390864
0.0010750755
-0.00030372631
0.0009720336
-0.00015185511
0.00097879073
-0.00015104774
0.00095599058
-0.0003383156
0.0010001316
-0.00038054091
0.00091588544
-0.00041275186
0.00077248306
-0.00054549558
0.00081282487
-0.00040215454
0.00073965751
-0.00028565289
0.00070692995
-0.00035750678
0.00081000823
-0.00030951598
0.00070047526
-0.00030329819
0.00042650741
-0.00049720396
0.0003874768
-0.00063561436
0.00066569875
-0.00047524067
0.00093410615
-0.00017487576
0.00082982394
-0.00010871505
0.00044103299
-0.00032307037
0.00030348105
-0.0005428982
0.0005130075
-0.00052885735
0.00085852213
-0.00024778373
0.0010603602
0.00011006926
0.001171022
0.00031704053
0.0011904898
0.00027307066
0.0010483301
8.7315657e-05
0.00068932825
-6.6950027e-05
0.00031019866
-0.00019219228
0.00021245502
-0.00021854767
0.00039129033
-0.00014769281
0.00082995273
9.6098182e-05
0.0013380154
0.00044637236
0.001740698
0.00079027824
0.002174811
0.0010155563
0.002626362
0.0010724287
0.002868459
0.00097029777
0.002822716
0.00075468279
0.00051002001
0.0025935914
0.0011937425
4.5905041e-05
0.0012461791
0.0001361546
0.001304005
-0.00011450723
0.0013736717
-5.1522359e-05
0.0014339394
0.00015321848
0.0014489342
-2.163799e-05
0.001468383
4.8215004e-05
0.0013939751
-0.00015276205
0.0013367427
-0.0001678722
0.0013039645
-4.7929006e-05
0.0012229139
-7.753766e-05
0.001121929
-0.00015520524
0.0011467469
-0.00017020674
0.0012192203
8.201025e-05
0.0011815287
-0.00020326151
0.0011354392
-0.0003620327
0.0011018151
2.1660618e-05
0.0011567921
5.0967822e-05
0.0010490518
-0.00029763853
0.00091218496
-0.00036838489
0.00089873824
-0.00023621805
0.00090655479
-0.00030522732
0.00095583828
-0.00032132627
0.00086313063
-0.00034306041
0.00077839046
-0.00050117762
0.00080425912
-0.00042486315
0.00069511771
-0.00032907156
0.00068773189
-0.00034539195
0.00077257283
-0.00026878578
0.00063308711
-0.00030235869
0.00039617268
-0.00049469381
0.00041442301
-0.00056999233
0.00068329823
-0.00036867123
0.00085016338
-0.00012644719
0.00068858793
-0.00012513609
0.00032808177
-0.00035635082
0.00025991222
-0.00053113448
0.00055753506
-0.00043979189
0.0009744128
-0.00016541216
0.0011533682
0.00012029579
0.0010547277
0.00027439531
0.00089249167
0.00020973632
0.00076750235
-6.5230284e-05
0.00050494317
-0.0002963916
0.00023250909
-0.00033918324
0.00024917445
-0.00014188064
0.00056238793
9.0185996e-05
0.0010562969
0.00034693207
0.0015321258
0.00052555746
0.001801075
0.00065766561
0.0019401184
0.00079322817
0.0020412405
0.00086483376
0.0020430692
0.00077141755
0.0019028875
0.00052624841
0.00021865989
0.00168543
0.001137153
-2.5434228e-05
0.0011764891
0.00024984042
0.0012427322
1.034063e-05
0.0013126929
-0.0001469477
0.0013541054
-9.8853429e-05
0.0013866165
-9.921946e-05
0.0013905088
9.8610007e-05
0.0013244407
-0.00013637857
0.0012827469
-7.7666118e-05
0.0012422497
-1.2930933e-05
0.0011594007
-2.6933227e-05
0.0010686275
-0.00011169471
0.0011194218
-3.380657e-05
0.001121848
0.00012005068
0.0011063553
-0.00017973801
0.0011265866
-0.00033272626
0.0010651221
-2.5358411e-05
0.001068262
0.00015612198
0.001001779
-0.00012222503
0.00087922392
-0.00040421475
0.00083606808
-0.00032203277
0.00086217632
-0.00028395067
0.00091471305
-0.00027119978
0.00080914632
-0.00027567359
0.00076808808
-0.00039310865
0.00078468438
-0.00038495835
0.00066133567
-0.00038599982
0.00067235045
-0.00037423484
0.00073203812
-0.0002714559
0.00058112214
-0.00031500545
0.00039514003
-0.00049653436
0.00046350265
-0.00052043305
0.00070841635
-0.00030099092
0.00080735555
-0.00010525069
0.00061244763
-0.00016526494
0.00029824799
-0.00038612569
0.00027167208
-0.00050378456
0.00057251845
-0.0003585662
0.0010009943
-9.3746649e-05
0.0011654137
0.00013230077
0.00095467495
0.00020279024
0.00058814222
0.00010999946
0.00039482228
-0.00013719541
0.0003391989
-0.00035683893
0.00038224225
-0.00034575647
0.00053572112
-5.8347492e-05
0.0007835922
0.00027245835
0.0011081523
0.00056394018
0.0014197818
0.00063456369
0.0016700291
0.00058841019
0.0016888434
0.00052427719
0.0014669231
0.0004476551
0.0011755201
0.0003367353
0.00087781223
0.00014447167
-5.8251705e-05
0.00063263633
0.0010914992
-6.2258339e-05
0.0011131686
0.00020175091
0.001180288
0.00013886697
0.0012475751
-0.00014155829
0.0012852508
-0.00025428625
0.0013290218
-0.00011563606
0.0013158731
3.1152236e-05
0.0012670242
-3.4968271e-05
0.0012287115
-3.6543448e-05
0.0011865618
3.6899937e-05
0.0011072793
-3.5105543e-07
0.0010315316
-0.00012824719
0.0010815218
4.5484252e-05
0.0010441922
8.8897255e-05
0.0010472378
-3.6563575e-05
0.0011009506
-0.00013340854
0.0010356143
-0.00013202406
0.0010018862
8.0977933e-05
0.00094734201
3.2692407e-05
0.00086485142
-0.00027384921
0.00080573905
-0.00031443539
0.00082294038
-0.00024312055
0.00087673579
-0.00020838934
0.00076895751
-0.00023503918
0.00074877856
-0.00030692817
0.00075130372
-0.00028958655
0.00063535318
-0.0003625271
0.00065127723
-0.00037348415
0.00067660306
-0.00027795239
0.0005185437
-0.00031540361
0.00038026869
-0.00047314661
0.00048094881
-0.00045547217
0.00068814273
-0.00023581936
0.00072132832
-8.9576964e-05
0.00052079162
-0.00020608718
0.00026727224
-0.00043350261
0.00028783766
-0.0004800782
0.00056599395
-0.000289608
0.0009817437
-2.7962803e-05
0.0011417122
0.00012505137
0.00092871797
0.00010222177
0.00048509566
-3.4616758e-05
0.0002283323
-0.00019638196
0.00029209421
-0.0002937491
0.00055426141
-0.00027221412
0.00086462403
-6.0262796e-05
0.0010307337
0.00025691064
0.0010497199
0.00052657308
0.0011456726
0.00065433327
0.0012902094
0.00058106561
0.0013055064
0.00036126817
0.0010521187
0.00011410705
0.00062841304
-7.1255424e-05
0.00022056175
-0.00024012311
-0.00030382492
1.3300653e-05
0.0010452569
-5.0983573e-05
0.0010552922
7.6835967e-06
0.0011150705
0.00014942518
0.0011828673
-3.854118e-05
0.0012257917
-0.00021990511
0.0012671342
-7.7654401e-05
0.0012487147
-5.0139088e-05
0.0012107935
2.1841409e-05
0.001177416
-1.6829635e-05
0.0011312642
6.6804941e-05
0.0010493935
-5.9613527e-06
0.00099299881
-0.00019284988
0.0010265705
0.00010891017
0.00098752715
7.3778714e-06
0.00099703126
-3.1268062e-06
0.0010504939
7.6887119e-05
0.00099964418
-0.00016099723
0.00095351882
-5.9716432e-05
0.0008882997
7.8957844e-05
0.00083502037
-0.000109084
0.00078307025
-0.00025062128
0.00078759458
-0.00023373952
0.00083675998
-0.00016894153
0.00073754131
-0.00021999805
0.00072986199
-0.00026666892
0.00071907857
-0.0002146481
0.0006190356
-0.00029159048
0.0006400317
-0.0003390618
0.00064032215
-0.00028146301
0.00047961902
-0.0003201554
0.00039002399
-0.0004356304
0.00051441368
-0.00037768287
0.00068765659
-0.00016110175
0.00066163667
-6.8692244e-05
0.0004607697
-0.00022159934
0.00027350326
-0.00046552132
0.00032026105
-0.00046992132
0.00056173071
-0.00024368065
0.00089893155
4.3201428e-05
0.0010249983
0.00013105804
0.00083132861
2.1331627e-06
0.00043333197
-0.00019263959
0.00014070975
-0.00029823913
0.00020270451
-0.00027101783
0.00054422996
-0.00016473797
0.00093014407
-9.5739388e-06
0.0011339094
0.00020252739
0.0010895617
0.00037134366
0.0009250989
0.00052810431
0.00081411444
0.00051721365
0.00069274009
0.00028348721
0.00047449978
-7.2258612e-05
0.00020037746
-0.0003345614
-3.0607445e-05
-0.00046625073
-0.0004342223
-0.0001051914
0.00099729873
-1.8094175e-05
0.0010081146
-0.00019954125
0.0010566525
4.3832083e-05
0.0011228697
7.4461881e-05
0.0011715747
-6.6771014e-05
0.0012061849
-3.845532e-05
0.0011928081
-9.1466166e-05
0.0011532943
3.4491041e-05
0.0011243576
-3.1984484e-05
0.0010763543
4.2673023e-05
0.00099255161
-4.5255261e-05
0.00096516976
-0.00018827308
0.00096605393
0.00012483886
0.0009413901
-9.6993077e-05
0.0009624914
-4.4662138e-05
0.00098913561
0.00019301902
0.00095967309
-0.00011547567
0.0009229498
-0.0001881721
0.00084084837
3.3789545e-05
0.00079852135
-1.3837637e-05
0.0007543615
-0.00016850936
0.00075134909
-0.00023392067
0.00078994004
-0.00016765597
0.00070786685
-0.00022060469
0.00071594693
-0.00025897285
0.00069083274
-0.00019080927
0.00059904021
-0.00023410948
0.00062208645
-0.00027650524
0.00060622199
-0.00026190518
0.00044935848
-0.00031916921
0.00039449804
-0.00038279052
0.00053118903
-0.00029165682
0.00066555215
-8.5926157e-05
0.00058885067
-2.8208878e-05
0.00037518645
-0.00020699103
0.00026543731
-0.00046413096
0.00035450683
-0.00048140887
0.00059165312
-0.00022918111
0.00083147504
6.9612951e-05
0.00088356059
0.0001377829
0.00071623587
-4.4797433e-05
0.00042071967
-0.00030012229
0.00015499956
-0.00037813801
0.00019477575
-0.00024785281
0.00047264669
-5.6319327e-05
0.00085896493
9.0673232e-05
0.0011296703
0.00019415394
0.0011377699
0.00025065531
0.00087621191
0.00028679357
0.00048508476
0.00028334464
0.00014558566
0.00014971644
-8.1012726e-05
-0.00010651333
-0.00017069001
-0.00033974359
-0.00010338181
-0.00044744627
-0.00040209989
7.1768819e-05
0.00094571361
1.2054804e-05
0.00096403626
-0.00031337776
0.0010055531
-6.2100626e-05
0.0010660241
0.00017100829
0.0011171232
8.4574177e-05
0.0011466174
3.1372619e-05
0.0011416678
-7.3170343e-05
0.0010949567
1.3116989e-06
0.0010729247
-5.2909278e-05
0.0010208202
-1.0145839e-05
0.00093913831
-9.9981662e-05
0.00093772504
-9.8640145e-05
0.00090437563
6.9016998e-05
0.00089039085
-0.00018300698
0.00093100545
-0.00012654967
0.00092140744
0.00016229271
0.000906579
-6.5288177e-05
0.00089396664
-0.00023923537
0.00080089158
-2.3749161e-05
0.00075436025
2.2824207e-05
0.00071462024
-9.1358457e-05
0.00071813554
-0.00021024815
0.00074242718
-0.0001625309
0.00067206522
-0.00022136782
0.00069394733
-0.00026519159
0.00066374422
-0.00019710223
0.00057880415
-0.000207707
0.0006023692
-0.00021673536
0.00058381061
-0.00021250087
0.00044318626
-0.00029042509
0.00041016874
-0.0003395307
0.0005537324
-0.00022953091
0.0006613865
-3.8090479e-05
0.00055099174
7.9429126e-06
0.00032277252
-0.00016621234
0.00026118382
-0.0004125987
0.00039829999
-0.00046129443
0.00063859034
-0.00022293449
0.00078191836
8.7337645e-05
0.00072693539
0.00016237526
0.00055673201
-5.7563239e-05
0.00039075843
-0.00033004807
0.00024476738
-0.000419464
0.00024312471
-0.00024778705
0.00042704173
7.5500213e-06
0.00073184075
0.00020558849
0.00099963594
0.00024907894
0.0010515247
0.00017457019
0.00083079044
7.6471525e-05
0.00037621935
-7.2429145e-06
-9.0397214e-05
-9.0598027e-05
-0.00034072965
-0.00017005876
-0.00034610891
-0.00020822336
-0.00013638306
-0.00024813625
-0.00021508089
0.00016655417
0.0008950315
3.2967165e-05
0.00092324236
-0.00026739316
0.00096282651
-0.00010629596
0.0010153238
0.00019349447
0.0010644083
0.0001670273
0.0010906275
8.4631461e-05
0.0010909509
-1.1623271e-05
0.0010427986
-6.440391e-05
0.0010267143
-2.7343943e-05
0.00096933338
-5.6072726e-05
0.000896212
-0.00015060237
0.00090205446
2.0464611e-05
0.00084589312
-3.6511532e-05
0.00084922273
-0.00023126439
0.00090051195
-0.00015747778
0.00086123379
5.0958194e-05
0.00085300339
-5.128345e-05
0.00086811889
-0.00020513892
0.00077339684
-6.9868926e-05
0.00071666808
2.6352658e-05
0.00067529657
-3.3541465e-05
0.00069024388
-0.00015503729
0.00070188861
-0.00013299324
0.00063715861
-0.00021543924
0.0006693866
-0.00026560771
0.00063792378
-0.00020864195
0.00055895709
-0.00019762615
0.00057706245
-0.00016625234
0.00055730082
-0.00014653468
0.00043284113
-0.0002313342
0.00041102217
-0.00030441743
0.00055068521
-0.00020864642
0.00063629722
-3.2820315e-05
0.00050832135
1.3539384e-05
0.00027550074
-0.00014267888
0.00024219924
-0.00035690156
0.00043195985
-0.00040549591
0.0006814299
-0.000203035
0.00076283527
8.7248546e-05
0.00061764789
0.00017126854
0.00042257698
-2.7842384e-05
0.00034766803
-0.00030048642
0.00034758324
-0.00041807979
0.00038383125
-0.00027244896
0.00049190607
3.9595148e-05
0.00063729074
0.00027814834
0.00078522682
0.00032817046
0.00084319518
0.00017008593
0.00071673671
-2.9639008e-05
0.00038549401
-0.00020954247
-4.7125217e-05
-0.00029426919
-0.00035604556
-0.00025353643
-0.00044893722
-0.00013293305
-0.00026916684
-5.5600313e-05
3.4182402e-05
7.3472457e-05
0.00084720735
3.7271795e-05
0.00088196494
-9.9643855e-05
0.0009227475
-7.3979675e-05
0.00096659409
0.00013899167
0.0010127862
0.00016541892
0.0010375684
0.00010993945
0.001039375
4.4251523e-05
0.00099578113
-0.0001084538
0.00097860732
2.3606927e-05
0.00092251535
-7.4340517e-05
0.00086305628
-0.00016899022
0.00085589699
0.00010577405
0.00079438741
-0.00014851684
0.00081099114
-0.00023275569
0.00086444362
-0.00011352074
0.00081024027
-8.2731823e-05
0.0008060619
-7.4470152e-05
0.0008401681
-0.00010680051
0.00074667225
-6.9082343e-05
0.00067985749
-1.1563581e-05
0.00063952319
-2.031099e-05
0.00066513903
-8.8971353e-05
0.00066387004
-8.4363893e-05
0.00060349097
-0.0002000102
0.0006428071
-0.00025656181
0.0006150199
-0.00021751832
0.00054684566
-0.00018762892
0.00055965814
-0.00011403099
0.0005367338
-8.3531911e-05
0.00042151533
-0.00016846488
0.00040908457
-0.00027035397
0.00054406268
-0.00020870652
0.00061746364
-6.4683098e-05
0.00048086428
-2.1370767e-05
0.00024726233
-0.00014808755
0.00022183887
-0.00030462408
0.00043883736
-0.00032642219
0.00070536181
-0.00015902304
0.00075328405
8.2552223e-05
0.00054260853
0.00015504498
0.00032394918
4.7484604e-07
0.00029045861
-0.00023957871
0.00040179205
-0.00036777743
0.00053351756
-0.00027111868
0.00062648034
2.7970159e-05
0.00064434947
0.00030326604
0.00060015271
0.00038161688
0.0005660286
0.00022690201
0.00047514378
-5.4019205e-05
0.00030667037
-0.00026974239
5.8664851e-05
-0.00039597348
-0.00015416021
-0.00034664299
-0.0002648569
-0.00014469317
-0.00022236984
2.4826562e-05
0.00021442386
2.2009692e-05
0.00080510473
2.6017813e-05
0.00084125634
0.00011974513
0.00088319058
2.8499977e-05
0.00092012608
3.259992e-05
0.00096299012
9.3678315e-05
0.00098775276
9.420078e-05
0.00098689895
7.5034927e-05
0.00095319108
-0.00011267644
0.00093179966
5.8546293e-05
0.00088078565
-6.6879448e-05
0.00083704897
-0.00014160912
0.00080498378
0.00014707984
0.00075118477
-0.00022137104
0.00077639787
-0.00018624398
0.00082442796
-2.4536938e-05
0.00077209992
-0.00016363109
0.0007691468
-0.00011233573
0.00081135357
-2.0386581e-07
0.00072058709
-3.8560677e-05
0.00064864169
-7.9361223e-05
0.00060726121
-5.4675309e-05
0.00063891161
-4.3355311e-05
0.00062848247
-3.5632026e-05
0.00057384276
-0.00017869063
0.00061536171
-0.00024770408
0.00059595752
-0.00022536842
0.00054116474
-0.00017281124
0.00054482293
-6.026299e-05
0.00051620414
-3.1034088e-05
0.00040240187
-0.0001205393
0.0003916273
-0.00023646634
0.00051760612
-0.00020337619
0.0005832209
-9.8389443e-05
0.00044764309
-7.3580685e-05
0.00022193402
-0.00017966025
0.0001964204
-0.00027751431
0.00042081391
-0.00024533562
0.00070981879
-9.3807786e-05
0.00075197967
7.8702445e-05
0.00051867097
0.00011434506
0.0002698865
-3.2690419e-06
0.00023681858
-0.00018070365
0.00039973274
-0.00028476457
0.00063424293
-0.00021741624
0.00075713351
2.5255113e-05
0.00070456827
0.00027193147
0.00052169302
0.00036789741
0.0003669242
0.00026818719
0.00027053198
2.2375429e-05
0.00020566415
-0.00024193513
0.00015595327
-0.00039717211
9.2942138e-05
-0.00040288834
5.3240887e-05
-0.00022861031
5.7379223e-05
1.2012954e-05
0.00026328973
0.00012904274
0.00076905332
1.2976392e-05
0.00080087813
0.00030254008
0.00084147332
0.00012949701
0.00087526801
-8.2596712e-05
0.0009159127
5.5689281e-06
0.00094082761
6.0155425e-05
0.00093656998
7.1669284e-05
0.00091378184
-7.1647023e-05
0.00088544568
7.8636131e-05
0.00084061583
-3.2776362e-05
0.00081001965
-7.2910441e-05
0.00075360776
0.00013442588
0.00071531871
-0.00024046433
0.00074423005
-0.00010510882
0.00077784671
6.225829e-05
0.00073922629
-0.00017070811
0.00074062188
-0.00012631779
0.00077732276
8.1670311e-05
0.00068822499
-7.9605078e-06
0.00061715985
-0.0001409269
0.00057832901
-0.00014404463
0.000611461
-3.4405781e-05
0.00059224053
-4.1728302e-06
0.00054213375
-0.00015898087
0.00058549484
-0.00023931933
0.00057856421
-0.00023826605
0.00053861452
-0.00016328828
0.00053058458
-2.4313616e-05
0.00049660809
6.1703452e-06
0.00038540897
-9.3727827e-05
0.0003759785
-0.00020278779
0.00049232495
-0.00017977256
0.00055554309
-0.00011286054
0.00042871
-0.00012240559
0.00021690168
-0.00022343976
0.00018651754
-0.00027341629
0.00039101993
-0.00018012156
0.00068710249
-1.5563586e-05
0.00073530009
8.7214456e-05
0.00051279058
6.6442301e-05
0.00024255405
-4.6233344e-05
0.00018977274
-0.00015069018
0.00036483418
-0.00019726632
0.0006666601
-0.00012299454
0.00083237514
5.1221133e-05
0.0007647206
0.00020660498
0.0005202984
0.00028991739
0.00026733224
0.00026366584
0.00012690148
9.8678898e-05
8.5763488e-05
-0.00014425729
0.00013087347
-0.00032558189
0.00022270349
-0.00036664744
0.00028787361
-0.00025304163
0.00027118827
-4.8101662e-05
0.00020463329
0.00024693734
0.00073767619
-9.6581795e-08
0.0007612967
0.00039661408
0.0007987585
0.00020342507
0.00083379924
-0.00015726218
0.00087253715
-7.4195674e-05
0.00089672933
2.5363846e-05
0.00089041591
4.226967e-05
0.00087602825
-6.3515713e-06
0.000842624
7.491158e-05
0.00080252869
-2.3097119e-06
0.00078050666
1.3093517e-05
0.00070645682
8.1247414e-05
0.00068778922
-0.00021594446
0.00071725484
-3.3906092e-05
0.00073279473
0.00011350125
0.00070979619
-0.00013535806
0.00071593764
-0.00011549522
0.00074117513
0.00012821718
0.0006539806
1.6760425e-05
0.00058634011
-0.00017437919
0.00055456599
-0.00024027239
0.0005851219
-6.3287059e-05
0.00055760099
2.0923058e-06
0.00051182978
-0.00013566732
0.00055402302
-0.00022592485
0.00056123066
-0.00024455281
0.00053637276
-0.0001575462
0.00051742541
-7.2884754e-06
0.00047397172
3.3163347e-05
0.00036677865
-7.8078444e-05
0.00035800027
-0.00017241732
0.00046212038
-0.00014067828
0.00052225962
-9.693907e-05
0.00040949835
-0.00014916892
0.00021845767
-0.00026494105
0.00018754846
-0.00028052291
0.00036474387
-0.00013974889
0.00064347378
4.6150589e-05
0.00070240199
0.00010267823
0.00051746086
1.7369452e-05
0.00024294907
-0.00010006526
0.00016662768
-0.00015517865
0.00032894763
-0.00012193504
0.00064681691
-1.2851024e-05
0.00083167578
0.00010677382
0.00078752193
0.00017007778
0.00054873667
0.00018567234
0.0002394648
0.00017851209
3.7228515e-05
0.00010526378
-2.1298298e-05
-5.2481015e-05
4.6957235e-05
-0.00019233359
0.00023413943
-0.00025578853
0.00041015789
-0.00020835893
0.00046319151
-7.4684368e-05
9.9343197e-05
0.00042516312
0.00070862468
-1.1425932e-05
0.00072331305
0.00038097892
0.00075663467
0.00022041404
0.00079481248
-0.00016748624
0.00083199697
-0.00012580855
0.0008540264
-8.8134953e-06
0.00084699427
8.6111001e-07
0.00083811248
5.1461127e-05
0.0008028187
5.0391034e-05
0.00076718043
1.1709811e-05
0.00074688583
8.2940516e-05
0.00066559508
1.5572149e-05
0.00066557676
-0.00016809536
0.00069256838
1.569447e-05
0.00069098471
0.00011827454
0.00067896738
-9.0364522e-05
0.00069155803
-9.0757331e-05
0.00070329193
0.00014578922
0.00061758795
2.4507967e-05
0.00055427313
-0.00017995937
0.00053396886
-0.00028951816
0.00056085325
-0.00010964822
0.00052505964
-6.7417464e-06
0.00048171098
-0.00011241177
0.00052253972
-0.0001944345
0.00054427859
-0.00022995284
0.00053267133
-0.00015164429
0.00050651948
1.2881784e-06
0.00045103753
4.254316e-05
0.00035030015
-7.7435763e-05
0.00034375884
-0.00015367174
0.00043596312
-0.00010164632
0.00048998575
-5.4467738e-05
0.00039665182
-0.00013273309
0.00023165576
-0.00028258091
0.00019746125
-0.00029490395
0.00034504731
-0.00012422637
0.00058753666
8.5444491e-05
0.00065271124
0.00012035304
0.00050483323
-1.7501842e-05
0.00025267811
-0.00015889849
0.00016369698
-0.00018122175
0.0003000507
-8.3471669e-05
0.00060036312
7.5323865e-05
0.00079310376
0.00017301089
0.00077580783
0.0001683246
0.00057695621
9.3392858e-05
0.00026651156
6.2341322e-05
2.2855297e-06
3.5974331e-05
-8.5131993e-05
-2.7140347e-05
-2.0114046e-05
-7.6119961e-05
0.00017101413
-0.00010553359
0.00040664865
-8.4280862e-05
0.00052086747
-3.872678e-05
3.3474278e-05
0.00051351941
0.00068010882
-1.8159723e-05
0.00068723424
0.00028176585
0.00071667634
0.00018190699
0.00075762958
-0.00012678844
0.00079358252
-0.00013353217
0.00081326045
-3.7224162e-05
0.00080870106
-3.8006832e-05
0.00079953473
9.4757777e-05
0.00076534428
1.5803627e-05
0.00073422417
7.7206552e-06
0.00071164225
0.00012047349
0.00063217242
-4.5920895e-05
0.00064282904
-0.00010458743
0.0006647819
4.5008733e-05
0.00065177972
8.4411913e-05
0.00064719956
-5.530553e-05
0.00066802058
-5.5527205e-05
0.00066607917
0.00012526729
0.00058386732
1.3394619e-05
0.00052540808
-0.00015664854
0.00051756943
-0.00027024577
0.00053946243
-0.00013602971
0.00049564714
-2.4749229e-05
0.00045576475
-9.5640297e-05
0.00049394314
-0.00014986015
0.00052713195
-0.00018908852
0.00052659196
-0.00013103755
0.00049336467
8.2523831e-06
0.00042661733
3.9937073e-05
0.0003322929
-8.8024354e-05
0.00032956817
-0.00014554692
0.00041186301
-7.1658084e-05
0.00045848446
2.399574e-06
0.00037827089
-8.5244015e-05
0.00024233385
-0.00026075615
0.00020944985
-0.00029846801
0.00033493074
-0.00012185225
0.00053292259
0.00010373691
0.00059229328
0.00013792929
0.00048225267
-2.3770916e-05
0.0002794089
-0.00019935133
0.00018350152
-0.00022581216
0.00029898801
-8.557514e-05
0.00055180664
0.00013047328
0.00073198569
0.00023326011
0.0007217072
0.00018123472
0.00057704913
5.8074961e-05
0.00031043511
-3.1558953e-05
1.9406896e-05
-7.0008721e-05
-0.00011311444
-6.4296708e-05
-9.7202335e-05
-2.2291731e-05
9.9508859e-05
2.3340962e-05
0.00032162443
5.229913e-05
0.00048774721
5.2758271e-05
2.9839523e-05
0.00051072196
0.00065193167
-1.8892225e-05
0.00065375464
0.00013068245
0.00068003908
0.00010938627
0.00072214946
-5.7215017e-05
0.00075701896
-0.00010081788
0.00077441311
-5.2441472e-05
0.00077334067
-6.0673377e-05
0.00076106418
0.00010750471
0.00072929976
-1.7760536e-05
0.00070247931
-7.5459903e-06
0.00067475581
0.00012194802
0.00060326212
-0.00010109222
0.00061894864
-3.614656e-05
0.00063429842
6.1254114e-05
0.00061524548
2.2750699e-05
0.0006162323
-3.4730269e-05
0.00064245883
-1.3082801e-05
0.00063034302
7.4345155e-05
0.0005536643
-1.9724486e-05
0.00049991286
-0.00011549623
0.00050211268
-0.0001885016
0.00051898604
-0.00013022584
0.00046950953
-4.6211039e-05
0.00043196115
-8.5285703e-05
0.00046711727
-0.00010926922
0.00050922699
-0.0001330404
0.00051932092
-9.117841e-05
0.00047974272
1.9678122e-05
0.00040175872
3.2239555e-05
0.00031513151
-0.00011014306
0.00031799229
-0.00015898281
0.00039602702
-5.0623005e-05
0.0004328747
5.7652156e-05
0.00035991403
-2.7789606e-05
0.00025105322
-0.00021265716
0.00022601434
-0.00027976981
0.00033141268
-0.00012246986
0.00048608511
0.0001092668
0.00053063906
0.00015344815
0.00044581429
-1.1707157e-05
0.00029487965
-0.00021641753
0.00020348166
-0.00027885337
0.00030672629
-0.0001078649
0.00050991789
0.0001388554
0.00065347846
0.00027669006
0.00065596366
0.00021694413
0.00055181807
6.3804971e-05
0.00033361824
-8.0947347e-05
6.9325058e-05
-0.00017167933
-8.3714433e-05
-0.00014349976
-0.00010801432
-3.1211664e-05
3.7781416e-05
8.8424355e-05
0.00023967232
0.00017113265
0.00039543859
0.00016344206
8.5706557e-05
0.00045104211
0.00062316988
-1.5167534e-05
0.0006225996
-4.1329072e-05
0.00064682503
2.1971079e-05
0.0006883712
1.3482179e-05
0.0007220698
-4.5348467e-05
0.00073777099
-5.4282706e-05
0.00073966961
-6.0948951e-05
0.00072264878
9.0199262e-05
0.00069507042
-4.6144091e-05
0.0006725112
-1.8025004e-05
0.0006393278
9.3148051e-05
0.00057868738
-0.0001400563
0.00059314755
2.4957442e-05
0.00060181477
5.8297737e-05
0.00058336282
-6.2865016e-05
0.0005881338
-2.05706e-05
0.00061386937
3.3433044e-05
0.00059756786
1.6033154e-05
0.00052940716
-5.7057959e-05
0.00048079091
-6.8585729e-05
0.00048606804
-7.4947677e-05
0.0004992592
-9.0809599e-05
0.00044783715
-6.4806644e-05
0.00041150891
-8.6835845e-05
0.00044344336
-7.39055e-05
0.00049119897
-7.4915556e-05
0.00050972839
-4.1137866e-05
0.00046754392
3.5365172e-05
0.00037849824
2.4420334e-05
0.00029913037
-0.00013264506
0.00031015331
-0.00018244626
0.00038745603
-4.5405488e-05
0.00041204164
9.8097917e-05
0.00034088771
3.4926308e-05
0.00025191039
-0.0001509299
0.0002397196
-0.00024161339
0.00033559743
-0.00011682447
0.00045339858
0.00010841153
0.0004776184
0.00017053031
0.00040506063
5.848846e-06
0.00029286485
-0.00021631435
0.00023488872
-0.00031346128
0.00032389464
-0.00014863159
0.00048784051
0.00012508641
0.00058281647
0.0002949093
0.00058712668
0.0002567661
0.0005034311
9.2487216e-05
0.00033292955
-9.883753e-05
0.00013117441
-0.00024186248
-1.1503218e-05
-0.00023963688
-3.3302507e-05
-8.6605299e-05
4.9893189e-05
9.8333078e-05
0.00019174575
0.00025224725
0.00032476934
0.00026122218
0.00017456381
0.00037433761
0.00059479016
-5.5967883e-06
0.00059408652
-0.00019455208
0.00061675037
-6.6812221e-05
0.00065619239
7.4203065e-05
0.00068852482
2.0671165e-05
0.00070312394
-4.4802909e-05
0.00070694785
-4.1043399e-05
0.00068613015
5.7786716e-05
0.00066279348
-6.4534656e-05
0.00064310083
-1.8163827e-05
0.00060503522
5.3396473e-05
0.00055636831