/*--------------------------------*- C++ -*----------------------------------*\
| =========                 |                                                 |
| \\      /  F ield         | OpenFOAM: The Open Source CFD Toolbox           |
|  \\    /   O peration     | Version:  2406                                  |
|   \\  /    A nd           | Website:  www.openfoam.com                      |
|    \\/     M anipulation  |                                                 |
\*---------------------------------------------------------------------------*/
FoamFile
{
    version     2.0;
    format      ascii;
    arch        "LSB;label=32;scalar=64";
    class       volScalarField;
    location    "23";
    object      T;
}
// * * * * * * * * * * * * * * * * * * * * * * * * * * * * * * * * * * * * * //

dimensions      [0 0 0 1 0 0 0];

internalField   nonuniform List<scalar> 
96472
(
1.0027533
1.0031285
1.0034662
1.0035092
1.003424
1.0032358
1.0028601
1.0022232
1.0014048
1.0005626
0.99981404
0.99923623
0.99885729
0.99863509
0.99854576
0.99862732
0.99891309
0.99943382
1.0002235
1.0013168
1.0027018
1.0041664
1.0052951
1.0056664
1.0055506
1.0053381
1.0050713
1.0048344
1.0046119
1.0043893
1.0041586
1.0039409
1.0037327
1.0035542
1.003371
1.0032333
1.0030915
1.0029784
1.0028497
1.0027607
1.0026579
1.0026224
1.0024152
1.0024049
1.0023161
1.0021587
1.0020746
1.0019755
1.0018966
1.001739
1.0016517
1.0015529
1.0014491
1.0013163
1.0012925
1.0027245
1.0030716
1.0034168
1.0034992
1.0034497
1.0032919
1.0029208
1.0022868
1.0014591
1.0006001
0.99982929
0.99925088
0.99885354
0.99862504
0.99858976
0.99867166
0.99895124
0.99946455
1.0002541
1.0013497
1.0027296
1.0041942
1.0053352
1.0057545
1.0056447
1.0054241
1.0051479
1.0049163
1.0047104
1.0045055
1.0042867
1.0040733
1.0038742
1.0036809
1.0035112
1.0033424
1.0031975
1.0030457
1.0029383
1.0028174
1.002725
1.0026043
1.0025747
1.0024514
1.0023281
1.002262
1.0021406
1.002055
1.001922
1.0018354
1.0017628
1.0016605
1.0015119
1.0014291
1.0012874
1.0026954
1.0030081
1.0033662
1.0034897
1.0034688
1.003334
1.0029725
1.0023311
1.001495
1.0006158
0.99984613
0.99925984
0.9988459
0.9986242
0.99860335
0.99871167
0.99900765
0.99951233
1.0002752
1.0013502
1.0027226
1.0042101
1.0053919
1.0058347
1.0057456
1.0055301
1.0052466
1.0050162
1.00482
1.0046156
1.004407
1.0042009
1.0039928
1.0038143
1.0036164
1.0034668
1.003303
1.003166
1.0030067
1.0029172
1.0027803
1.0027305
1.0025769
1.0025182
1.0024045
1.0023248
1.0022266
1.0021317
1.0020291
1.0019272
1.0018289
1.0016817
1.0016264
1.0016113
1.0014358
1.0026677
1.0029432
1.0033191
1.0034809
1.0034866
1.0033725
1.0030144
1.0023629
1.0015128
1.0006335
0.99985702
0.99924957
0.99886042
0.99866271
0.99861897
0.99873405
0.99904949
0.9995645
1.0003249
1.001381
1.002728
1.0042099
1.0054454
1.0059286
1.0058349
1.0056254
1.0053522
1.0051243
1.0049228
1.0047359
1.0045365
1.0043417
1.0041436
1.0039294
1.00375
1.0035607
1.0034135
1.0032467
1.0031368
1.0029638
1.0029059
1.0027562
1.0027046
1.0025696
1.0025026
1.0023813
1.0022888
1.00219
1.0020713
1.002023
1.0019111
1.001844
1.0018298
1.0015527
1.0014627
1.0026397
1.002883
1.0032702
1.0034731
1.0035087
1.0034102
1.0030494
1.0023869
1.0015233
1.000641
0.99984473
0.99924907
0.99886889
0.99868087
0.99866875
0.99878837
0.99909257
0.99960878
1.0003749
1.001424
1.0027574
1.0042279
1.0054919
1.0060388
1.0059569
1.0057378
1.0054534
1.0052212
1.005031
1.0048543
1.004671
1.0044825
1.0042794
1.0041011
1.0038805
1.0037195
1.003524
1.0033732
1.0031937
1.0031199
1.0029357
1.0028858
1.0027492
1.002668
1.0025451
1.0024574
1.0023848
1.0022466
1.0022425
1.0020757
1.0019877
1.0019274
1.0017915
1.0016721
1.0017158
1.0026126
1.0028226
1.0032282
1.003469
1.0035305
1.0034428
1.0030747
1.0023984
1.0015299
1.0006287
0.99982975
0.99924517
0.99885926
0.99866697
0.9987035
0.99885275
0.99915965
0.99965907
1.0004074
1.0014437
1.0027703
1.0042483
1.0055386
1.0061373
1.0060781
1.0058621
1.0055683
1.0053269
1.0051419
1.0049701
1.0047954
1.0046138
1.0044171
1.0042054
1.0040307
1.0038227
1.0036604
1.0034615
1.0033491
1.0031409
1.0030945
1.0029343
1.0028455
1.0027401
1.0026292
1.0025586
1.0024312
1.0023858
1.0022201
1.0021303
1.0021474
1.0019912
1.0019318
1.0018459
1.0018125
1.0025852
1.0027648
1.0031903
1.0034679
1.0035506
1.0034661
1.0030891
1.0023964
1.0015163
1.0006087
0.99982603
0.99923432
0.99885598
0.99869863
0.99872322
0.99888299
0.99921601
0.99972399
1.0004561
1.0014701
1.002776
1.0042586
1.0055932
1.0062442
1.0062035
1.0059871
1.0056899
1.0054475
1.0052595
1.0050955
1.0049334
1.0047563
1.0045579
1.0043738
1.0041376
1.00396
1.0037542
1.0036012
1.0033988
1.0033135
1.0031305
1.0030327
1.0029528
1.0027932
1.0027415
1.0025879
1.002542
1.0024044
1.0023358
1.0023551
1.0020859
1.0021452
1.001911
1.0020069
1.0016544
1.0025514
1.0027019
1.003146
1.0034661
1.0035681
1.0034856
1.0030937
1.0023818
1.0014892
1.0005875
0.99980619
0.99921363
0.99886484
0.99873341
0.99876406
0.99892701
0.99925932
0.99977474
1.0005076
1.0015128
1.002798
1.0042669
1.0056346
1.0063572
1.006342
1.0061198
1.005817
1.0055685
1.0053763
1.0052195
1.0050653
1.0048977
1.0047162
1.0045056
1.004317
1.0040898
1.0039097
1.0036908
1.003561
1.003367
1.0032427
1.0031545
1.0029752
1.0029239
1.0027714
1.0027163
1.0025886
1.0025199
1.0024542
1.0022425
1.0022806
1.0021026
1.002151
1.002046
1.0020019
1.0025039
1.002629
1.0031041
1.0034602
1.0035897
1.0035018
1.0030916
1.0023617
1.0014636
1.0005595
0.99976729
0.99919812
0.99885531
0.99872707
0.99880763
0.99899905
0.99932149
0.9998232
1.0005514
1.0015477
1.0028234
1.0042877
1.0056757
1.006466
1.0064871
1.0062613
1.0059531
1.0056892
1.005497
1.0053381
1.0051935
1.0050302
1.0048454
1.0046641
1.0044325
1.0042549
1.0040347
1.0038495
1.0036471
1.0034848
1.0033745
1.0031784
1.003135
1.0029698
1.0028955
1.0027473
1.0026941
1.002553
1.0025201
1.0023451
1.0024355
1.0022192
1.0022709
1.001886
1.0020842
1.0024603
1.0025683
1.0030712
1.0034661
1.0036117
1.0035148
1.0030861
1.002339
1.0014327
1.0005207
0.9997358
0.9991774
0.99884401
0.99872693
0.99882579
0.99904338
0.99938795
0.99988684
1.0005981
1.0015763
1.0028371
1.0043009
1.005717
1.0065717
1.0066372
1.0064103
1.0060953
1.0058176
1.0056214
1.0054634
1.0053221
1.0051686
1.0049912
1.0047888
1.0045957
1.0043683
1.0041691
1.0039535
1.0037638
1.0036289
1.003405
1.0033455
1.003186
1.0030754
1.0029313
1.0028834
1.0027225
1.0027127
1.002496
1.0026399
1.0022738
1.002303
1.0022447
1.0022524
1.0021111
1.0024407
1.0025361
1.003061
1.0034905
1.0036464
1.003534
1.0030793
1.0023086
1.0013922
1.0004826
0.99971394
0.99915492
0.99883791
0.9987622
0.99885256
0.99906913
0.99943234
0.99994506
1.0006475
1.0016112
1.0028543
1.0043068
1.0057518
1.0066771
1.0067866
1.0065556
1.0062395
1.0059525
1.0057442
1.0055855
1.0054484
1.0052968
1.0051361
1.0049534
1.0047281
1.0045244
1.0043017
1.0040836
1.0039172
1.0036746
1.0035957
1.0034042
1.0032633
1.0031575
1.0030773
1.002891
1.0028413
1.0027147
1.0026931
1.0024492
1.0025096
1.0025426
1.0022717
1.0022568
1.0021946
1.0024276
1.0025135
1.0030643
1.0035226
1.003687
1.0035522
1.0030705
1.0022802
1.0013532
1.0004519
0.9996771
0.99912495
0.99883058
0.99876658
0.99888391
0.99912027
0.99947884
0.99998923
1.0006931
1.001647
1.0028753
1.0043206
1.0057806
1.0067792
1.0069458
1.0067121
1.0063875
1.0060837
1.0058705
1.0057025
1.0055643
1.0054227
1.0052597
1.0050826
1.004878
1.0046713
1.0044413
1.0042493
1.0039945
1.0038759
1.0036416
1.0034913
1.003401
1.0032683
1.0030627
1.0030221
1.0029626
1.0027453
1.00277
1.0026244
1.0026012
1.0024936
1.0022889
1.0024201
1.0021552
1.0024393
1.0025267
1.0030924
1.0035708
1.0037371
1.0035763
1.0030629
1.0022541
1.0013203
1.000415
0.99963944
0.99910663
0.99881787
0.99874653
0.99889938
0.99917023
0.99953257
1.0000396
1.0007339
1.0016739
1.0028879
1.0043266
1.0058097
1.0068756
1.0071046
1.0068722
1.0065384
1.0062173
1.0059942
1.0058218
1.0056796
1.0055357
1.0053847
1.0052012
1.0050058
1.0047892
1.0045948
1.0043329
1.0041696
1.003917
1.003767
1.0036444
1.0034554
1.0032726
1.0032546
1.0031466
1.0028694
1.0030164
1.0026737
1.0027794
1.0026741
1.002381
1.0026041
1.0024827
1.0023051
1.0024411
1.0025315
1.0031242
1.0036237
1.0037875
1.0035994
1.0030584
1.0022263
1.0012853
1.0003783
0.99961569
0.99908804
0.99879823
0.99875692
0.9989064
0.99918582
0.99957125
1.0000789
1.0007701
1.001703
1.0029009
1.0043239
1.0058249
1.0069617
1.0072591
1.0070309
1.0066916
1.0063523
1.0061171
1.0059377
1.0057918
1.0056563
1.0055031
1.0053464
1.0051334
1.0049345
1.0046884
1.0044943
1.0042469
1.0040693
1.0038962
1.0036845
1.0035369
1.0034896
1.0032938
1.0030815
1.0031742
1.0028743
1.0029875
1.0027126
1.0026682
1.0027049
1.0027191
1.0021713
1.0025331
1.0024468
1.0025466
1.0031663
1.0036796
1.0038417
1.003624
1.0030523
1.002202
1.0012504
1.0003491
0.99959482
0.99906371
0.9987891
0.99876977
0.99892134
0.99920275
0.9995986
1.0001145
1.0008018
1.0017238
1.0029133
1.0043286
1.0058291
1.007035
1.0074138
1.0071969
1.0068491
1.0064911
1.006238
1.0060482
1.0058921
1.0057443
1.0056128
1.0054392
1.0052673
1.005051
1.0048573
1.0046002
1.004404
1.0041886
1.0039637
1.0038059
1.0036982
1.0034769
1.0033315
1.0033372
1.0031217
1.0030597
1.0028772
1.0029062
1.0027856
1.0027795
1.002402
1.0026723
1.0025843
1.0024437
1.00256
1.0032063
1.0037264
1.0038904
1.0036405
1.0030453
1.0021814
1.0012253
1.0003357
0.999576
0.99904757
0.99877619
0.99874451
0.99892311
0.99922942
0.99963047
1.0001462
1.0008242
1.001736
1.0029106
1.0043206
1.0058324
1.007096
1.0075549
1.0073586
1.0070063
1.0066311
1.0063675
1.0061585
1.0059961
1.0058542
1.0057054
1.0055586
1.0053602
1.0051756
1.0049537
1.00474
1.0045107
1.0042797
1.0040857
1.003928
1.003703
1.0035919
1.0035242
1.0033361
1.0031665
1.003158
1.0030013
1.0029641
1.0028601
1.0027161
1.0026825
1.0028738
1.0023702
1.0024403
1.0025715
1.0032454
1.0037731
1.0039255
1.003653
1.0030393
1.0021672
1.0012146
1.00032
0.99956283
0.99903242
0.99875801
0.99872476
0.9989108
0.99923632
0.99964456
1.0001625
1.0008395
1.0017426
1.0029064
1.0042973
1.0058191
1.0071399
1.0076929
1.0075167
1.0071609
1.0067669
1.0064836
1.0062648
1.0060897
1.0059436
1.005815
1.0056516
1.0054843
1.0052826
1.0050621
1.0048438
1.0046157
1.0043975
1.0041984
1.0039674
1.003861
1.0037224
1.0035179
1.0033659
1.0033792
1.0031125
1.0032011
1.0029186
1.0029374
1.0028453
1.0029665
1.0024487
1.0027388
1.0024405
1.0025914
1.0032869
1.0038167
1.0039525
1.0036607
1.0030353
1.0021537
1.0012071
1.000316
0.99956515
0.99903133
0.9987461
0.99873189
0.99890733
0.9992255
0.99964438
1.0001712
1.0008469
1.0017412
1.0028957
1.0042763
1.0057932
1.0071674
1.0078203
1.0076771
1.0073172
1.0069057
1.0066041
1.0063633
1.0061767
1.0060241
1.0058784
1.005738
1.0055665
1.0053744
1.0051878
1.0049567
1.0047355
1.0045179
1.0042845
1.0041314
1.0039217
1.0037372
1.0036286
1.0035447
1.0033171
1.0033349
1.0030581
1.0031115
1.0030565
1.0029389
1.0027118
1.0028375
1.0028268
1.0024434
1.002616
1.0033302
1.0038593
1.0039746
1.0036635
1.00303
1.0021506
1.0012085
1.0003234
0.99956524
0.99902332
0.99873803
0.99872135
0.99890009
0.99922198
0.9996467
1.0001719
1.0008423
1.001729
1.0028664
1.0042384
1.0057534
1.0071706
1.0079209
1.0078336
1.0074736
1.007049
1.0067235
1.0064647
1.0062671
1.0061037
1.0059645
1.005809
1.0056518
1.0054693
1.0052628
1.0050644
1.0048471
1.0046006
1.004403
1.0041713
1.0039992
1.0038621
1.0036992
1.0035507
1.0034359
1.0033074
1.0032431
1.0032377
1.0029772
1.0029659
1.0029028
1.0030994
1.0025313
1.00245
1.0026376
1.0033705
1.0038957
1.0039865
1.003664
1.0030263
1.0021487
1.0012125
1.000342
0.99957973
0.99902227
0.99873538
0.99869022
0.99887559
0.9992138
0.99964199
1.0001655
1.0008313
1.0017053
1.0028288
1.0041869
1.0057012
1.0071597
1.0080112
1.0079822
1.0076153
1.0071816
1.0068411
1.0065629
1.0063528
1.0061762
1.0060304
1.0058927
1.0057274
1.0055573
1.0053651
1.0051658
1.0049193
1.0047069
1.0044697
1.0042819
1.0041111
1.0039104
1.0037905
1.0035974
1.0035564
1.0033723
1.003381
1.0031007
1.0031089
1.0030777
1.003194
1.0025891
1.0029917
1.0024566
1.0026709
1.0034129
1.0039305
1.0039984
1.0036656
1.0030235
1.002155
1.001231
1.0003627
0.99959906
0.99903552
0.99872981
0.99868319
0.99885793
0.99918869
0.99961731
1.0001433
1.0008061
1.0016721
1.0027822
1.0041226
1.0056278
1.0071151
1.0080774
1.0081172
1.0077553
1.007317
1.0069517
1.0066513
1.0064292
1.0062376
1.0060868
1.0059495
1.0057971
1.0056202
1.0054488
1.0052414
1.0050382
1.0048076
1.0045819
1.0043825
1.004162
1.0040294
1.0038206
1.0037273
1.0035677
1.0034847
1.003288
1.0032271
1.0033229
1.0030677
1.0029915
1.0028563
1.0031857
1.002468
1.002687
1.0034463
1.0039562
1.0040002
1.0036632
1.0030205
1.0021609
1.0012549
1.0003902
0.9996247
0.99905051
0.99872985
0.99868511
0.99884602
0.99916485
0.99959363
1.0001191
1.000775
1.0016242
1.0027178
1.0040484
1.0055403
1.0070541
1.0081071
1.008239
1.0078857
1.0074462
1.0070589
1.0067414
1.006503
1.0063014
1.0061438
1.0060063
1.005853
1.0056915
1.0055081
1.0053298
1.0051267
1.0048843
1.0046777
1.0044243
1.0042827
1.0040554
1.0039062
1.0037912
1.0036068
1.0034853
1.0034167
1.0034253
1.0031593
1.003146
1.002999
1.0033678
1.0027228
1.002473
1.0027164
1.0034807
1.0039732
1.0039995
1.0036558
1.0030133
1.0021704
1.0012749
1.0004196
0.99964854
0.99905295
0.99872558
0.99865358
0.99881306
0.99913164
0.99956175
1.000081
1.0007313
1.0015652
1.0026368
1.0039444
1.0054256
1.0069527
1.008089
1.0083173
1.0079686
1.007539
1.0071323
1.0068096
1.0065543
1.0063516
1.0061848
1.0060568
1.0059091
1.0057442
1.0055896
1.0054231
1.0051868
1.0049771
1.0047315
1.0045515
1.004306
1.004136
1.0040294
1.0037771
1.003691
1.0035963
1.0034871
1.0033345
1.0031488
1.0033359
1.003173
1.0030355
1.002889
1.0024842
1.0027045
1.0034784
1.0039529
1.0039581
1.0036147
1.0029808
1.0021648
1.0012944
1.0004438
0.99965763
0.99904059
0.99868781
0.99858491
0.99873548
0.99905218
0.99949198
1.0000176
1.0006689
1.0014887
1.002538
1.0038133
1.0052626
1.0067807
1.0079913
1.0083043
1.0079696
1.0075488
1.0071256
1.0067975
1.0065556
1.0063507
1.0061849
1.0060631
1.0059434
1.0057895
1.0056347
1.005452
1.0052802
1.0050415
1.00484
1.004593
1.0043908
1.0042437
1.0039918
1.0038718
1.0037454
1.0035862
1.0034106
1.0033246
1.0033691
1.0032111
1.0030597
1.0029445
1.003213
1.0024373
1.0026356
1.0034336
1.0038959
1.0038557
1.0034988
1.0028763
1.0021098
1.0012836
1.0004417
0.99963372
0.99897872
0.99856692
0.99843455
0.99855436
0.99886237
0.99931945
0.99986895
1.0005393
1.0013604
1.0023889
1.0036231
1.0050292
1.0065143
1.0077559
1.0081326
1.0077905
1.0073592
1.0069226
1.0066081
1.0063775
1.0062232
1.0061023
1.0060342
1.0059342
1.0058108
1.0056812
1.0055361
1.0053454
1.0051371
1.0049073
1.0046704
1.004473
1.0042272
1.0040466
1.0039001
1.0036929
1.0035073
1.0034466
1.0033151
1.0032552
1.0029403
1.0030596
1.0030608
1.0028643
1.0023365
1.002468
1.0032786
1.0037105
1.0036324
1.0032294
1.0025909
1.0018758
1.0011373
1.000335
0.99951837
0.9988161
0.99834468
0.99815251
0.99822701
0.99851968
0.99899041
0.99957486
1.0002878
1.0011404
1.0021684
1.0033804
1.004744
1.0061969
1.0074474
1.0078571
1.0074513
1.0069311
1.0064129
1.0060942
1.0059399
1.0058909
1.0058629
1.0059232
1.005942
1.0058734
1.0057665
1.0056475
1.0054976
1.0053005
1.0050889
1.0048614
1.0046003
1.0043848
1.0042053
1.0039461
1.0037711
1.0035863
1.0034698
1.0032557
1.0030674
1.0030068
1.0030116
1.0027612
1.0026699
1.0022672
1.0020341
1.0030635
1.0033032
1.0031833
1.0027595
1.0021257
1.0014551
1.0007621
1.0000155
0.99925939
0.99860412
0.99815751
0.99793562
0.99794092
0.998183
0.99863029
0.99918142
0.9999854
1.0010053
1.0020979
1.0032642
1.0046012
1.0059614
1.0072135
1.0076812
1.0072671
1.0064539
1.0056936
1.0053698
1.0052808
1.0054562
1.0056776
1.0058312
1.0059237
1.0059873
1.0059886
1.0058726
1.0057336
1.0056026
1.0054318
1.0052403
1.0050436
1.0047984
1.0045402
1.0043541
1.0041344
1.0039353
1.0037124
1.0035509
1.003363
1.003266
1.0029514
1.0029289
1.0028104
1.0026517
1.0026724
1.0027728
1.0028918
1.0030457
1.0029382
1.0027571
1.0028005
1.0027649
1.0026125
1.0026099
1.0025261
1.0024163
1.0023517
1.0022461
1.0022767
1.0020492
1.0020497
1.0019375
1.0018035
1.001906
1.0015746
1.0015984
1.0014682
1.0013594
1.0012768
1.0011374
1.0024771
1.0024291
1.0027475
1.0028599
1.0028502
1.0028871
1.0027864
1.0027098
1.0026782
1.0025565
1.0025351
1.0024743
1.0023339
1.0023392
1.0022039
1.0020913
1.0021129
1.0018903
1.0019102
1.001804
1.0016061
1.0016914
1.0014023
1.0014452
1.0012535
1.001208
1.0011238
1.0022699
1.0023969
1.0026048
1.0028085
1.0028166
1.0027623
1.0027598
1.0026331
1.0025873
1.0025815
1.0023969
1.0024243
1.0023397
1.0021722
1.0022418
1.0020373
1.0019968
1.0019753
1.0017714
1.0017834
1.0016481
1.0015082
1.0014982
1.0012728
1.0012747
1.0011152
1.0010274
1.0022055
1.0023191
1.0025303
1.002713
1.0027778
1.0026772
1.0026671
1.0026301
1.0024949
1.0024815
1.0024335
1.0022606
1.0023027
1.0021923
1.0020521
1.0021259
1.0018971
1.0018977
1.0018404
1.0016436
1.0016931
1.0014731
1.0014453
1.0013032
1.0012223
1.0010821
1.0009634
1.0020235
1.0021491
1.0024282
1.0025672
1.0026577
1.002654
1.002503
1.0025521
1.0024822
1.0023089
1.0023918
1.0022333
1.0021352
1.0021915
1.0019904
1.0019915
1.001941
1.0017999
1.0017714
1.001704
1.0015241
1.0015663
1.0013354
1.0013346
1.001141
1.0010876
1.000971
1.0018208
1.0020289
1.0023011
1.0024718
1.0025096
1.0025381
1.0024785
1.002384
1.0023787
1.0023078
1.0021608
1.0022328
1.0020501
1.0020053
1.0020368
1.0017888
1.0018842
1.0017144
1.0016692
1.0016056
1.00152
1.0014349
1.0013516
1.0012426
1.001141
1.0010384
1.0009047
1.0017169
1.0018631
1.0021546
1.002398
1.0023578
1.002394
1.0024052
1.0022354
1.0022542
1.0022114
1.002054
1.0020822
1.0020161
1.0018889
1.001873
1.0018242
1.0016752
1.0016952
1.0015501
1.0014894
1.0014479
1.0012987
1.0012915
1.0011483
1.0010933
1.0009337
1.0008637
1.0015555
1.0017043
1.0019773
1.002254
1.0022964
1.0022325
1.0022557
1.0021858
1.0020656
1.0021058
1.0020076
1.0018857
1.0019496
1.0017697
1.0017344
1.0017425
1.0015506
1.0015896
1.0014664
1.0014076
1.0013181
1.001256
1.0011633
1.0010598
1.0010018
1.0008644
1.0008289
1.0013706
1.0016094
1.0018409
1.002051
1.0022193
1.0021053
1.002064
1.0021184
1.0019337
1.0019449
1.0019344
1.0017486
1.001827
1.0017007
1.001611
1.0016247
1.001461
1.0014918
1.0013521
1.0013174
1.001212
1.0011765
1.0010632
1.0009873
1.0008933
1.0008145
1.0007091
1.0011919
1.0014541
1.001725
1.0019068
1.0020419
1.0019932
1.0019164
1.0019486
1.00183
1.0017814
1.0017989
1.0016179
1.001676
1.0015888
1.001469
1.0015316
1.0013274
1.0013893
1.0012193
1.0012359
1.0011027
1.0010507
1.0009647
1.0008879
1.0007857
1.0007368
1.000616
1.0010468
1.0012837
1.0015941
1.0017659
1.0018204
1.0018608
1.0017694
1.0017557
1.0016954
1.0016064
1.00163
1.0015023
1.0014822
1.0014461
1.0013184
1.0013806
1.0012119
1.0012338
1.0011146
1.0010996
1.0010053
1.0009225
1.0008672
1.0007529
1.0007141
1.0005906
1.0005398
1.0009099
1.0010888
1.0013737
1.0016329
1.001652
1.0016129
1.0016481
1.0015633
1.0014963
1.0014917
1.0013843
1.0013782
1.0013085
1.001239
1.0012249
1.0011217
1.0011244
1.0010306
1.0009944
1.0009389
1.0008326
1.0008061
1.0007298
1.0006226
1.0005921
1.0004728
1.0004154
1.0007493
1.0008722
1.0011889
1.0014001
1.0014361
1.0014641
1.001422
1.0013883
1.001336
1.0012525
1.0012408
1.0011837
1.0011229
1.0010923
1.0009896
1.000993
1.0009262
1.0008467
1.0008108
1.0007629
1.0006622
1.0006542
1.0005548
1.0004576
1.000429
1.0003322
1.0002674
1.0006137
1.0006981
1.000933
1.0012266
1.0012461
1.001219
1.0012983
1.001142
1.0011542
1.001147
1.0009661
1.001047
1.0009271
1.0008908
1.0008708
1.0007262
1.0008039
1.000615
1.0006726
1.0005404
1.0005045
1.0004625
1.0003549
1.0003365
1.0002209
1.0001697
1.0000855
1.0003769
1.0004976
1.0007677
1.0009785
1.0010588
1.0010729
1.001028
1.0010151
1.0009579
1.0009017
1.0008917
1.0007647
1.000792
1.000718
1.0006307
1.0006338
1.0005208
1.0005327
1.0004027
1.0004116
1.0003081
1.0002809
1.0001635
1.000166
1.0000112
1.0000077
0.99988578
1.0000937
1.0003012
1.0005584
1.0007196
1.0008788
1.0008667
1.0008136
1.0008459
1.0007043
1.0007361
1.0006759
1.0005688
1.0006059
1.0005003
1.0004866
1.0004058
1.0003483
1.000327
1.000243
1.0001988
1.0001108
1.0001088
0.99994972
1.0000029
0.99980028
0.99984745
0.99966729
1.0003767
0.99998808
1.0004167
1.0005006
1.0006119
1.0006805
1.0006237
1.0005599
1.000568
1.0004509
1.0004928
1.000383
1.0003089
1.0003652
1.0001897
1.0002862
1.0000872
1.0001254
1.0000604
0.99992563
0.99997794
0.99978097
0.99985592
0.99970755
0.99966252
0.99959638
0.9995271
0.99962104
1.000021
1.0001736
1.0003534
1.0004244
1.0004301
1.0004228
1.0003637
1.0002825
1.0002883
1.0002273
1.000174
1.0001424
1.0000478
1.0000627
0.99999692
0.99992349
0.99987122
0.99987219
0.999747
0.99972706
0.99961079
0.99959554
0.99953296
0.99942338
0.99942602
0.99931895
0.9992827
0.99951327
0.99978567
0.99998244
1.0001582
1.0001354
1.000152
1.0001531
0.99998955
1.000088
0.99996458
0.9999273
0.99995644
0.9997431
0.99991552
0.99971126
0.99968907
0.99969637
0.99953646
0.99963263
0.9994362
0.99948405
0.9993029
0.9993511
0.99921587
0.99918914
0.9991145
0.99931878
0.99940294
0.99954635
0.99976566
0.99985802
0.99990185
0.99994953
0.99986041
0.99984141
0.99980237
0.99970682
0.9997709
0.99964771
0.99957933
0.99963903
0.99947868
0.99950757
0.99943029
0.99931117
0.9993784
0.99922587
0.99927295
0.99907576
0.99911275
0.99901052
0.99896659
0.9988949
0.9991936
0.99922409
0.99930733
0.99957111
0.99968599
0.99967388
0.99971996
0.99972686
0.99958745
0.99963413
0.99949387
0.99952327
0.99944928
0.99931798
0.99944133
0.99918884
0.99932278
0.99914337
0.99911874
0.99910134
0.99896086
0.99907921
0.99880871
0.99890606
0.99872071
0.99878516
0.99863817
1.0001653
0.99887102
0.99932044
0.99931081
0.99949743
0.99944131
0.99946445
0.99944755
0.99942139
0.99931141
0.99938297
0.99928192
0.99918143
0.99919309
0.99907758
0.99907429
0.99895105
0.99897421
0.99891384
0.99878058
0.99879502
0.99875631
0.99868128
0.99857695
0.99856764
0.9984842
0.99844001
0.99975399
0.99944873
0.99933965
0.99939703
0.99934341
0.99929843
0.99921735
0.99921961
0.99917235
0.99900371
0.99913154
0.99899979
0.99896113
0.99897824
0.99880812
0.9988987
0.99864978
0.99876216
0.99866048
0.99856602
0.99856396
0.99847931
0.99848757
0.99834677
0.99831692
0.99825899
0.99821248
0.99860361
0.99868557
0.99888891
0.99911053
0.99903483
0.99902742
0.99896657
0.99895144
0.99887305
0.99876018
0.99884021
0.99871783
0.99871429
0.9986696
0.99857205
0.99866102
0.99841255
0.99851688
0.99837288
0.99839307
0.99833408
0.99820497
0.99828575
0.99810461
0.99812977
0.99800004
0.99797654
0.99768635
0.99773949
0.99804583
0.99827555
0.99837454
0.99850972
0.99849753
0.99860548
0.99846415
0.9984234
0.99852452
0.99840623
0.99847368
0.9983227
0.99833532
0.99837513
0.99819205
0.99822931
0.99809055
0.9981999
0.99807321
0.99798818
0.99799352
0.99791303
0.99790853
0.99779351
0.99773784
0.99821183
0.99798619
0.99798436
0.99798252
0.9979896
0.99820158
0.99826121
0.99823665
0.99828369
0.99811635
0.99829609
0.99817908
0.99811651
0.998148
0.99795769
0.99818636
0.99790853
0.99796244
0.99791495
0.99784327
0.99794536
0.99768199
0.99782611
0.99760189
0.99775084
0.99756033
0.99754217
0.99858542
0.99804243
0.99781051
0.99769635
0.99767276
0.99791282
0.99799245
0.99798969
0.99805478
0.99789204
0.99803785
0.99792642
0.99787516
0.9979172
0.99772416
0.99794922
0.99768007
0.99776977
0.99769249
0.99760412
0.99772229
0.99747772
0.99761336
0.99735456
0.99752896
0.99736102
0.99735637
0.99795594
0.99781271
0.99746786
0.99733018
0.99739004
0.99762138
0.99770053
0.9977401
0.99777347
0.99767059
0.99780616
0.99768545
0.99767631
0.99764538
0.99754514
0.99771109
0.99745738
0.99758954
0.99741388
0.99741306
0.99745882
0.99729699
0.99739393
0.99715619
0.99730261
0.99718146
0.99718548
0.99771513
0.9974458
0.99713796
0.99707665
0.99720269
0.99738211
0.99744479
0.99752308
0.99745911
0.99752511
0.99752759
0.99747467
0.99746993
0.99732288
0.99743662
0.99737184
0.99734395
0.99732074
0.99718976
0.99726267
0.99715244
0.99722177
0.99709073
0.99707427
0.99701747
0.99702684
0.99697612
0.99783285
0.99711092
0.99692794
0.99695413
0.99708569
0.99720399
0.99726873
0.9973072
0.99724193
0.99732907
0.99726694
0.99728353
0.99723447
0.997126
0.99725323
0.99710424
0.9972234
0.99704133
0.99708177
0.99703728
0.99697586
0.99705824
0.99686167
0.99695989
0.99677027
0.99686477
0.99675934
0.9985467
0.99695022
0.99679861
0.99688652
0.99699719
0.99708976
0.99712668
0.9971151
0.99709008
0.99713205
0.99705543
0.99711132
0.99701407
0.9969987
0.99703904
0.99692499
0.99705668
0.99684685
0.99696284
0.99682282
0.99682849
0.99684686
0.9967184
0.99678516
0.99660635
0.99666307
0.9965775
0.99888376
0.9969868
0.99672196
0.99685549
0.99692252
0.99700326
0.9969704
0.99694797
0.99693632
0.99692261
0.99691828
0.99693037
0.99681959
0.99686802
0.99677188
0.99682457
0.99681912
0.99674844
0.9967737
0.99662926
0.99669979
0.99659268
0.99665315
0.99654115
0.99651294
0.99643877
0.99643231
0.99764066
0.99686119
0.99656523
0.99667259
0.99672412
0.99684987
0.99681357
0.99680381
0.99676198
0.99672327
0.99677983
0.99672163
0.99671702
0.99666941
0.99662221
0.99666852
0.99661066
0.99664972
0.9965447
0.99652801
0.99648635
0.99647528
0.99648056
0.99642052
0.99635454
0.99630172
0.99626433
0.99685585
0.99661453
0.99629239
0.99635623
0.996416
0.99657658
0.99660151
0.99661812
0.99657661
0.9965918
0.99664607
0.99659337
0.99659589
0.99652766
0.99647379
0.99652167
0.99647058
0.99651252
0.99643937
0.99638011
0.996363
0.99630935
0.99635451
0.99626421
0.99626746
0.99617429
0.99615258
0.99668702
0.99641752
0.99609042
0.99604308
0.99609142
0.99628062
0.99638904
0.99645641
0.99646869
0.99647916
0.99650706
0.99650187
0.99644544
0.99646619
0.99635187
0.99641884
0.99633919
0.99637577
0.99633063
0.99626721
0.99627127
0.99618448
0.99624528
0.99612876
0.99616878
0.99606537
0.99605115
0.9966242
0.99628335
0.99592492
0.99578399
0.99581338
0.99599019
0.99618104
0.99629544
0.99636637
0.99636801
0.99639499
0.99638554
0.99634961
0.99637527
0.99628921
0.99631856
0.99625391
0.99625701
0.99622898
0.99618285
0.99617796
0.9961103
0.996133
0.9960512
0.99605544
0.99598192
0.99595384
0.99660938
0.99622057
0.99584203
0.99565991
0.99566523
0.99580083
0.99599155
0.99615233
0.99626513
0.99627455
0.99631033
0.99628823
0.99626538
0.99627376
0.99622197
0.99624027
0.9961913
0.99617872
0.99615196
0.99610123
0.99610488
0.9960421
0.99606003
0.99598611
0.99597968
0.99590379
0.99587762
0.99667162
0.99621998
0.99584996
0.99566988
0.99567512
0.99578697
0.99595631
0.99609184
0.99619302
0.99622886
0.99624627
0.99623965
0.99621378
0.99619857
0.99618391
0.99617658
0.99615773
0.9961222
0.99609243
0.9960489
0.9960443
0.99600824
0.99599735
0.99594835
0.99591096
0.99585972
0.99582655
0.99685186
0.99624629
0.99588625
0.99573009
0.99574503
0.99584582
0.99598557
0.99610061
0.99618662
0.99621785
0.99622285
0.99621801
0.99618758
0.99618054
0.99616723
0.99615109
0.99614284
0.99608664
0.99607507
0.99601565
0.99601872
0.99597822
0.9959708
0.99591495
0.99588278
0.99582567
0.99580106
0.99703167
0.99630546
0.99594816
0.9958419
0.99587666
0.99597937
0.99607692
0.99615893
0.99621279
0.99621422
0.99623874
0.99620271
0.99621538
0.9961808
0.99617116
0.99615004
0.99610362
0.99610327
0.99603122
0.99605478
0.99597314
0.99599205
0.9959102
0.99590598
0.9958403
0.99582983
0.99577648
0.99729718
0.99639484
0.99604847
0.99598633
0.99603366
0.99614353
0.99619147
0.99625075
0.99626177
0.9962521
0.99627015
0.99621851
0.9962521
0.99618209
0.99620995
0.99612817
0.99613599
0.99607837
0.99606718
0.99603712
0.99599939
0.99596109
0.99591993
0.99588229
0.99586238
0.99582876
0.99578833
0.99750654
0.99651618
0.99614712
0.99612981
0.99617123
0.99627514
0.99630115
0.99633007
0.99631241
0.99630744
0.99629754
0.99626685
0.99628857
0.99620993
0.99625715
0.99614427
0.99618496
0.99608639
0.99611289
0.99605333
0.99602959
0.99599054
0.99592524
0.99592298
0.99585552
0.99586263
0.99578815
0.99754143
0.99664325
0.99625036
0.99620264
0.9962771
0.99632505
0.99639332
0.99635611
0.99639239
0.99630658
0.99636055
0.99625945
0.99631253
0.99624314
0.99623508
0.9962282
0.99613626
0.99619081
0.99605277
0.9961382
0.99598474
0.99605615
0.99590995
0.99596305
0.99585565
0.99587756
0.99579138
0.99749169
0.99675545
0.99632086
0.99619584
0.99629807
0.9963179
0.9964383
0.99638744
0.99643489
0.99638244
0.9963553
0.9963715
0.99625933
0.99636932
0.99617926
0.99633176
0.99611453
0.99623448
0.99608781
0.99611538
0.99608036
0.99598982
0.99603757
0.99588483
0.9959598
0.99583075
0.99583465
0.99740953
0.99682035
0.99632232
0.99616083
0.99619824
0.99635825
0.9963595
0.99650338
0.9963693
0.99650105
0.99633982
0.99643615
0.99633648
0.99633403
0.99635906
0.99620215
0.99636416
0.99607639
0.99630725
0.99601519
0.99618855
0.99599798
0.99603679
0.9959759
0.9959121
0.99591097
0.99583447
0.99731709
0.99682266
0.99628604
0.99606052
0.99613162
0.99626625
0.99639593
0.99642302
0.9964747
0.99640519
0.99648962
0.99637311
0.99645895
0.996353
0.99634291
0.99635825
0.9962107
0.99636708
0.99610158
0.99630087
0.99603397
0.9961668
0.99600624
0.99603401
0.99598296
0.99592675
0.99589356
0.99723935
0.99676614
0.99626275
0.9960339
0.99603425
0.99627497
0.99631605
0.99646915
0.99641135
0.99644939
0.99646985
0.99641127
0.99648493
0.99633602
0.99641025
0.99628526
0.99633925
0.99628526
0.99624903
0.99620469
0.99614976
0.99611843
0.99610039
0.99605527
0.99602566
0.99597283
0.99592538
0.99724322
0.9967602
0.99622754
0.99608914
0.99603037
0.99624635
0.99636781
0.99637739
0.99653177
0.99635081
0.99657374
0.99639165
0.99650295
0.99642129
0.99632586
0.99644913
0.99621783
0.99646684
0.9961457
0.99635599
0.99608489
0.99622792
0.99610588
0.99612776
0.99607137
0.99600374
0.99597588
0.99739269
0.9967657
0.99629041
0.99607294
0.99620774
0.99620426
0.99644532
0.99642054
0.99644056
0.99654379
0.99636336
0.99662897
0.99634289
0.99655008
0.9963495
0.99636979
0.99644764
0.99623123
0.99649547
0.99610666
0.99638438
0.99606563
0.99627991
0.99608933
0.9961479
0.9960377
0.99601825
0.99750488
0.99677901
0.99635857
0.99619991
0.99620347
0.9964201
0.99634284
0.99651533
0.99644289
0.99644542
0.99658061
0.99637961
0.99658992
0.99632403
0.99648021
0.99636247
0.99640289
0.99640809
0.99626572
0.99637417
0.99614835
0.99637673
0.9961052
0.9962925