/*--------------------------------*- C++ -*----------------------------------*\
| =========                 |                                                 |
| \\      /  F ield         | OpenFOAM: The Open Source CFD Toolbox           |
|  \\    /   O peration     | Version:  2406                                  |
|   \\  /    A nd           | Website:  www.openfoam.com                      |
|    \\/     M anipulation  |                                                 |
\*---------------------------------------------------------------------------*/
FoamFile
{
    version     2.0;
    format      ascii;
    arch        "LSB;label=32;scalar=64";
    class       volVectorField;
    location    "23";
    object      U;
}
// * * * * * * * * * * * * * * * * * * * * * * * * * * * * * * * * * * * * * //

dimensions      [0 1 -1 0 0 0 0];

internalField   nonuniform List<vector> 
62344
(
(0.075669426 0.00099196297 -1.6988652e-21)
(0.072459365 -0.00056086396 -8.8159454e-22)
(0.082259457 -0.0013935914 -1.8340353e-21)
(0.085507288 0.0029121941 9.613994e-22)
(0.089286379 0.0045829015 0)
(0.092523456 0.0016461551 4.157034e-21)
(0.092154536 0.00088931003 -4.3078532e-21)
(0.089893158 0.00075726516 2.2483669e-21)
(0.086553606 -0.00046056313 0)
(0.082990788 -0.00078688081 0)
(0.078380199 -0.0011892708 1.0103839e-20)
(0.075698352 -0.00050985771 -2.1743952e-20)
(0.073809655 0.0016317499 6.5356702e-22)
(0.072686657 0.0061626708 2.3363228e-20)
(0.075657067 -0.0022052144 -1.1875687e-20)
(0.077133856 -0.0027993887 1.1548937e-20)
(0.075019322 0.0062253556 -1.2726305e-20)
(0.071153397 0.0043479338 0)
(0.066339643 0.0028033821 0)
(0.064353323 0.0097258612 -9.0203478e-22)
(0.065258931 0.010568555 -4.7014468e-22)
(0.064030222 0.0094821243 4.8723497e-22)
(0.063208568 0.010757741 1.0127392e-21)
(0.062125183 0.010945292 -3.3842632e-20)
(0.055877843 0.016268458 3.5084119e-20)
(0.051661918 0.017305262 0)
(0.052668246 0.014108037 0)
(0.051422968 0.016499456 -3.0756608e-22)
(0.05113287 0.016247345 -4.0752999e-20)
(0.052210233 0.013305904 4.2885244e-20)
(0.044553198 0.02022101 4.5096696e-20)
(0.033414194 0.030082755 -4.6122066e-20)
(0.036113334 0.027901688 -3.7480007e-22)
(0.051231812 0.014443419 4.9108771e-20)
(0.059974227 0.0050784077 -5.0975879e-20)
(0.051210563 0.012259894 -4.1790038e-22)
(0.036861063 0.027533415 -5.6720807e-20)
(0.032044236 0.031761361 1.1545157e-19)
(0.039511239 0.018297361 -1.1921724e-19)
(0.055039567 -0.0053533728 1.5000794e-21)
(0.069256104 -0.026479536 6.5344271e-22)
(0.073930213 -0.036214617 1.2990625e-19)
(0.070135064 -0.038192518 -6.7180015e-20)
(0.065325511 -0.035245727 0)
(0.060435898 -0.026557399 -7.5042124e-20)
(0.049753149 -0.011203818 1.5427155e-19)
(0.033287716 0.0070552398 2.5093379e-21)
(0.02052479 0.019135555 -1.6616732e-19)
(0.025752238 0.015605968 8.6894514e-20)
(0.052579842 -0.0060602905 0)
(0.083638638 -0.036119171 0)
(0.099041557 -0.062010284 9.338866e-20)
(0.09619179 -0.080393339 -9.7944506e-20)
(0.088550485 -0.093830211 -1.9551459e-22)
(0.084359413 -0.1057793 -1.029804e-19)
(0.075906342 -0.00054943022 -8.9731578e-22)
(0.072796148 0.0014322116 9.3285002e-22)
(0.082294617 -0.0011335839 2.9097751e-21)
(0.084852318 -0.00054232173 -3.0294489e-21)
(0.08925543 0.001789799 0)
(0.092796194 0.0010053876 4.3764261e-21)
(0.092630562 0.0032618673 -5.658143e-21)
(0.090383614 -0.00085446888 -5.9242339e-21)
(0.086844574 -0.00023310429 6.1755213e-21)
(0.083598214 0.00084320765 0)
(0.079556675 -0.00093615617 0)
(0.075541988 -0.0024730662 6.9237109e-22)
(0.072833238 0.0046464615 -7.2358e-22)
(0.074135366 0.0036633218 1.0427787e-20)
(0.076986692 -0.0044293026 -1.2486381e-20)
(0.074688447 -0.0016122684 0)
(0.073215463 0.0057419023 0)
(0.073306536 0.006328893 0)
(0.068260172 3.4384477e-05 1.4715247e-20)
(0.062803821 4.5027703e-05 4.4755588e-22)
(0.063240722 0.0064905658 -9.3446302e-23)
(0.063647035 0.011023554 -5.0027468e-20)
(0.063763569 0.011576188 3.3684628e-20)
(0.062734567 0.010817892 0)
(0.056576324 0.013410046 3.7003654e-20)
(0.052797969 0.01270891 -2.465806e-22)
(0.052454526 0.011182941 -8.0115686e-20)
(0.050497439 0.015377625 4.1897776e-20)
(0.051806134 0.014273385 -3.3715594e-22)
(0.052075601 0.013277571 -4.5424772e-20)
(0.043445976 0.020901798 4.6426086e-20)
(0.034082267 0.026595385 3.8163116e-22)
(0.037551842 0.021098308 -4.9608315e-20)
(0.0508378 0.010417878 1.0498444e-19)
(0.056022784 0.0081855486 -5.4264039e-20)
(0.045648215 0.018275371 4.3948887e-22)
(0.033230146 0.029141531 0)
(0.032917411 0.027098441 0)
(0.043515582 0.012661447 2.458103e-22)
(0.05638301 -0.0052045498 6.4825499e-20)
(0.067784074 -0.016805533 -1.3474256e-19)
(0.073050549 -0.021487864 7.0359916e-20)
(0.066859029 -0.020444708 7.2902322e-20)
(0.055476327 -0.014712468 -1.501746e-19)
(0.046524206 -0.0042033028 7.8341348e-20)
(0.04016022 0.0074963714 0)
(0.03452981 0.011509777 0)
(0.032347176 0.00096501062 0)
(0.039522531 -0.023300504 1.7285232e-22)
(0.058959153 -0.050847443 -1.7891931e-22)
(0.085777431 -0.071042777 0)
(0.10932563 -0.083277699 1.0728186e-25)
(0.11835464 -0.089032067 -1.9825089e-22)
(0.11324398 -0.089393689 3.049026e-22)
(0.099654877 -0.086834098 -1.0694784e-22)
(0.075540192 -0.0013658952 9.4692448e-22)
(0.072427224 0.0016108042 -9.8437176e-22)
(0.082493997 0.00069659615 -1.0234981e-21)
(0.08459939 -0.0016262879 1.0663948e-21)
(0.088852832 -0.0021762316 -1.1103118e-21)
(0.092214745 7.0167842e-06 1.1570966e-21)
(0.092868236 0.0027058844 2.4002246e-21)
(0.090926319 -0.00026669907 0)
(0.086486038 0.0015657845 3.9045513e-21)
(0.083457347 0.0015073791 -6.1176907e-21)
(0.079990856 0.00076410388 0)
(0.074736358 0.0010901003 -7.3466321e-22)
(0.072010413 0.0061174684 -1.4244193e-24)
(0.075213955 0.0013588322 7.3255654e-25)
(0.077421411 -5.0169662e-06 1.3227092e-20)
(0.073780111 0.0023080559 -1.2775329e-20)
(0.072022087 0.0018771021 0)
(0.074011071 0.0054281864 0)
(0.070422418 0.0036566721 0)
(0.062698802 0.00096901251 0)
(0.060209238 0.0045578418 0)
(0.06161504 0.010358589 1.793295e-20)
(0.063670037 0.01108337 -1.816589e-20)
(0.063178904 0.011878161 -5.8699116e-22)
(0.057501074 0.014877953 6.1161803e-22)
(0.053916496 0.012003527 0)
(0.052063331 0.010358052 0)
(0.049892636 0.013601352 3.4322562e-22)
(0.052300816 0.011777445 3.5596112e-22)
(0.051433839 0.012459668 0)
(0.042527768 0.020268678 0)
(0.035729621 0.02421114 -5.1716274e-20)
(0.041231795 0.016498539 1.0604112e-19)
(0.053017835 0.0055845628 -5.5777328e-20)
(0.055276201 0.0052072083 -2.2367874e-22)
(0.04341178 0.015254259 6.0322109e-20)
(0.032563936 0.024173728 -6.1840364e-20)
(0.036017129 0.020475768 0)
(0.04861979 0.0055521119 -3.6842239e-24)
(0.057371635 -0.010808681 0)
(0.060085041 -0.018469047 7.1344393e-20)
(0.060231726 -0.014455737 -7.4036094e-20)
(0.055118563 -0.0055551009 -7.8170851e-20)
(0.041605903 0.0039530912 7.9515105e-20)
(0.02649417 0.013101171 -8.7642198e-25)
(0.020847836 0.017364606 0)
(0.02698056 0.011129432 0)
(0.040959804 -0.0076521715 -1.7686429e-22)
(0.055293423 -0.034051425 -9.4179054e-20)
(0.067624019 -0.058324192 9.8588404e-20)
(0.081398453 -0.074346312 0)
(0.099917725 -0.082399624 1.0263836e-19)
(0.11236927 -0.080295899 -1.0700637e-19)
(0.11343287 -0.068575978 1.104311e-19)
(0.099522132 -0.054179996 -1.1336638e-19)
(0.075757472 -0.0012041389 -4.9967297e-22)
(0.072093472 -0.00024979684 -1.5568152e-21)
(0.082795081 0.0019250736 3.2411208e-21)
(0.085342726 -0.00061329048 -2.2474537e-21)
(0.088597948 -0.0029492607 -3.5120445e-21)
(0.09155406 0.00026221058 3.649431e-21)
(0.092749468 0.00070531113 -6.3382229e-21)
(0.090891597 0.0021450834 1.0564059e-20)
(0.086731058 0.0025994927 -6.1724578e-21)
(0.083931165 0.0009965692 1.4312096e-21)
(0.080187531 0.0013909755 7.4491022e-22)
(0.074686697 0.0026883665 1.2415531e-20)
(0.072618827 0.0033390654 -1.1265992e-20)
(0.07561053 -0.0017852501 1.4139997e-20)
(0.076850051 0.0040708689 1.513419e-23)
(0.074526961 0.0052550486 -2.9804638e-20)
(0.071845038 -0.0014867087 1.4511346e-20)
(0.073037497 0.0015088674 -4.897904e-22)
(0.071456973 0.006695149 1.6402936e-20)
(0.063699725 0.0056014805 -1.6321687e-20)
(0.059302917 0.0049009188 0)
(0.060320095 0.0084112109 0)
(0.062973984 0.0091465957 -1.8474941e-20)
(0.062587497 0.011034218 2.051637e-20)
(0.058348629 0.014609831 1.9959356e-20)
(0.055858369 0.011317259 -2.1502423e-20)
(0.052303524 0.0097351852 -2.2420064e-20)
(0.049334841 0.011328988 2.2836387e-20)
(0.051636482 0.0097969186 0)
(0.049877606 0.012297369 0)
(0.041003351 0.020258538 0)
(0.036510374 0.022327464 0)
(0.043443776 0.013635378 0)
(0.05272785 0.0048107439 0)
(0.051497022 0.0075726858 2.3602207e-22)
(0.039009238 0.018938259 -6.3739047e-20)
(0.030182126 0.025659671 6.5195734e-20)
(0.037706948 0.019990974 2.6542642e-22)
(0.055390477 0.0051454386 -5.4886375e-22)
(0.065731468 -0.0098787846 7.2849514e-20)
(0.061640295 -0.015999287 -7.4705557e-20)
(0.052823739 -0.0088879105 7.8579922e-20)
(0.046738695 0.0050424434 -8.1611093e-20)
(0.038142261 0.01610645 8.6389125e-20)
(0.026650771 0.017479338 -1.7612963e-19)
(0.021327812 0.0072716047 6.1082235e-22)
(0.027881526 -0.0092525429 2.513336e-21)
(0.043862073 -0.028718966 3.0626285e-21)
(0.05959534 -0.046593086 1.8370285e-21)
(0.068561206 -0.061175423 4.7446101e-22)
(0.072046124 -0.07051171 1.0624757e-19)
(0.07583682 -0.069902576 0)
(0.079244397 -0.058162983 1.1399332e-19)
(0.079463194 -0.037355289 1.9638479e-21)
(0.071907857 -0.01201569 -1.2342112e-19)
(0.075799076 -0.00030722265 1.054332e-21)
(0.071652804 -0.0022475546 1.0944291e-21)
(0.082496329 0.001187387 1.1396574e-21)
(0.085615215 0.00090331153 0)
(0.088406653 -0.0004733544 0)
(0.091337334 0.00098648215 0)
(0.092491286 -0.0012071396 -6.6745511e-22)
(0.090577113 0.0026473346 5.5746895e-21)
(0.086887738 0.0012745912 -5.0741819e-21)
(0.084176711 0.0003767485 -7.5479235e-22)
(0.080019587 0.0011096007 -6.2853561e-21)
(0.074657066 0.0024703686 6.5412465e-21)
(0.073178853 0.00082205539 -1.4380643e-20)
(0.074642037 -0.0022162363 1.4103736e-20)
(0.075439606 0.0053359585 0)
(0.076302616 0.0064356022 0)
(0.073454009 -0.0013687835 9.9180271e-22)
(0.071245828 -0.0022541644 5.1451914e-22)
(0.070315717 0.0059264071 -1.7254e-20)
(0.064769489 0.0091561023 1.7284989e-20)
(0.059618366 0.0066699977 0)
(0.059532899 0.0076378828 0)
(0.062602019 0.007683001 -6.269292e-22)
(0.061677891 0.0091270173 0)
(0.058412746 0.012542748 -2.1417978e-20)
(0.057288883 0.011030528 2.2742179e-20)
(0.053416577 0.010939714 0)
(0.050069204 0.010906797 0)
(0.051661437 0.0088160858 0)
(0.048809403 0.01206802 0)
(0.040700999 0.019185065 0)
(0.038581408 0.01918261 0)
(0.046366603 0.009996847 -2.3138562e-22)
(0.05353283 0.0032578407 -2.3942669e-22)
(0.049549107 0.007729601 0)
(0.036869233 0.01842832 -2.6151367e-22)
(0.029620738 0.02250684 3.4413573e-20)
(0.038288966 0.014580236 -3.6428571e-20)
(0.057266337 0.001333277 2.8937609e-22)
(0.069451241 -0.0094952043 2.9816304e-22)
(0.061930315 -0.010606776 0)
(0.044126027 -0.0014749261 3.2220987e-22)
(0.033196585 0.013707882 -2.7112911e-24)
(0.031461216 0.024209493 8.9922979e-20)
(0.033600422 0.019472359 -2.0058894e-22)
(0.035655366 0.00054698544 -9.5820062e-20)
(0.039680793 -0.02324256 -1.9522035e-22)
(0.047755017 -0.040424365 0)
(0.059048399 -0.048268026 -2.0726148e-22)
(0.068127825 -0.051674373 -2.1370225e-22)
(0.067890525 -0.050880269 1.1229298e-19)
(0.057764496 -0.042958522 -1.1488621e-19)
(0.045866268 -0.027170313 1.1815122e-22)
(0.036887274 -0.006932989 5.5887746e-24)
(0.031130102 0.012350892 -1.2667732e-22)
(0.076114757 0.00038835097 0)
(0.071654514 -0.003045883 0)
(0.082039971 -0.00080717755 -1.2008065e-21)
(0.085457666 0.0019180952 0)
(0.088458138 0.0022294601 2.6104879e-21)
(0.091616608 0.0010853115 -2.0333358e-21)
(0.092500265 -0.0012726869 7.0465856e-22)
(0.090613422 0.0011881384 0)
(0.087378911 0.00029795174 7.6515915e-22)
(0.084193431 -0.00084573039 0)
(0.080054236 -0.00011401097 -8.2902984e-22)
(0.075099455 0.0018500457 -6.0144951e-21)
(0.073841158 -0.0013706356 1.4338832e-20)
(0.073902639 -0.0025071892 -7.4420148e-21)
(0.074043358 0.001703135 0)
(0.076816078 0.0039693411 0)
(0.075173216 0.00056244553 -2.1454504e-24)
(0.070798654 -0.0027862014 -5.4477679e-22)
(0.068583074 0.0020559562 0)
(0.065250148 0.0081824289 0)
(0.060729417 0.0069104514 6.1489097e-22)
(0.05944198 0.0062294536 1.9739059e-20)
(0.062178701 0.0058612483 -4.2768e-20)
(0.060971727 0.0072761669 2.244853e-20)
(0.058118467 0.0098640015 2.2575043e-20)
(0.057579506 0.0095615333 -2.3986246e-20)
(0.053923587 0.011443032 -2.4866251e-20)
(0.050826532 0.011068024 2.5824994e-20)
(0.051377793 0.0087476621 -2.6806731e-20)
(0.047220993 0.012190702 5.6004619e-20)
(0.03966381 0.018253521 -2.9461687e-20)
(0.03959785 0.016958453 2.3584519e-22)
(0.047493564 0.0085488335 4.8833615e-22)
(0.052618922 0.0043603941 5.0562675e-22)
(0.046839142 0.010933055 0)
(0.035245586 0.020793088 -3.5256616e-20)
(0.03060977 0.021708792 7.2975312e-20)
(0.040047901 0.012119255 -3.8137439e-20)
(0.058595216 -0.00073163431 -3.0474663e-22)
(0.071349071 -0.0084333817 -3.1560037e-22)
(0.064238434 -0.0055900094 0)
(0.042922633 0.0031490788 -4.4588951e-20)
(0.025617633 0.013263529 -4.1668175e-22)
(0.025528568 0.018531914 4.7074537e-20)
(0.038030524 0.011978247 0)
(0.050311649 -0.0061762125 0)
(0.053066538 -0.027802065 -5.2081155e-20)
(0.049503993 -0.0421455 5.3913339e-20)
(0.050024442 -0.045613593 -3.2047186e-24)
(0.056213794 -0.040750846 1.1469369e-19)
(0.059463257 -0.029159715 -2.4119623e-19)
(0.05048892 -0.01158978 2.5142617e-19)
(0.034649284 0.0051507 -1.2858212e-19)
(0.017930852 0.020665662 -1.3179802e-22)
(0.010301259 0.02661765 1.3739728e-22)
(0.076201497 0.00068979519 5.8635199e-22)
(0.071717406 -0.0016503107 -6.0882503e-22)
(0.081450117 -0.00193799 -2.532344e-21)
(0.084916415 0.0017162123 2.6437214e-21)
(0.088548667 0.0028903602 3.4358732e-21)
(0.09189258 0.00075274293 -7.1541571e-21)
(0.092458925 -0.00020668591 2.2270988e-21)
(0.090523686 -0.00042388082 -7.7333928e-22)
(0.087847073 0.00027162551 -8.0727255e-22)
(0.084469479 -0.0018676535 -6.7245008e-21)
(0.079851122 -0.00028454522 6.9909228e-21)
(0.075335325 0.0027091867 0)
(0.074236045 -0.0020949748 0)
(0.073812312 -0.00090878487 -4.8982179e-22)
(0.073432931 -0.00085112642 -5.0871505e-22)
(0.076276392 -2.7815285e-05 8.4557409e-21)
(0.075834692 0.0025943052 -2.7055294e-20)
(0.071438486 -0.0007159131 1.9429864e-20)
(0.067363792 -0.00082759442 -1.9208752e-20)
(0.064503481 0.00509141 3.9930037e-20)
(0.061267149 0.0066123839 -6.0486601e-22)
(0.059875928 0.00550931 -4.2702123e-20)
(0.062026519 0.0045600856 2.3124906e-20)
(0.060666558 0.0064737897 2.3299325e-20)
(0.058054405 0.0082754936 -2.4219409e-20)
(0.057513242 0.0078588371 0)
(0.054226177 0.010644109 -2.6171441e-20)
(0.051927526 0.010762506 2.7249099e-20)
(0.051745829 0.0087974536 4.4003455e-22)
(0.046447867 0.011843116 4.5963224e-22)
(0.039724939 0.016138249 7.2121721e-22)
(0.041318765 0.013266816 -2.4900117e-22)
(0.049210915 0.0056408866 -5.1437348e-22)
(0.052113396 0.0036187152 -2.6660385e-22)
(0.044956317 0.01187432 0)
(0.035201943 0.021341568 0)
(0.032798876 0.019698052 -3.8419958e-20)
(0.041954063 0.0086084144 7.9932506e-20)
(0.057604784 -0.0037970287 -4.1162049e-20)
(0.068358349 -0.0065890557 -1.6637459e-22)
(0.063000483 0.0011371894 0)
(0.043513544 0.011599541 0)
(0.023821422 0.017373556 -4.8896975e-20)
(0.020381962 0.016241791 4.9942002e-20)
(0.035103661 0.0080751191 -5.0562149e-20)
(0.05545604 -0.0055266249 5.3757928e-20)
(0.064885823 -0.020374376 2.1251919e-22)
(0.058296484 -0.032987468 -5.8024558e-20)
(0.045230006 -0.038025881 5.8502966e-20)
(0.036378674 -0.030179939 0)
(0.034031627 -0.010525587 5.2643052e-24)
(0.030122707 0.013883134 -6.6933097e-20)
(0.025348308 0.032045233 1.3778069e-19)
(0.018802332 0.040333049 -1.4288478e-19)
(0.013813876 0.035451607 7.3533156e-20)
(0.076255701 0.00042037209 0)
(0.071921714 0.00093913697 1.284688e-21)
(0.081322792 -0.0016637692 -1.7125722e-25)
(0.084601246 9.0425559e-05 -1.390315e-21)
(0.088496616 0.0016649684 -6.4122065e-25)
(0.092084791 0.00018517025 7.5472513e-22)
(0.092650843 0.00043250169 -1.5729135e-21)
(0.090478193 -0.001383557 4.0718904e-21)
(0.087938931 0.00057638752 0)
(0.084746278 -0.0016926879 0)
(0.079706376 0.0002981501 -6.4655558e-21)
(0.075847743 0.0026601656 7.6429878e-21)
(0.074655951 -0.0026711326 0)
(0.073746258 0.0012377811 5.1510503e-22)
(0.073631701 -0.00098151805 5.3722762e-22)
(0.075660842 -0.0036127029 0)
(0.075779697 0.0029763584 -9.3141357e-21)
(0.072621495 0.0016339471 -7.0535134e-22)
(0.067626705 -0.0020893952 1.0708868e-20)
(0.063544687 0.0015016533 0)
(0.061111833 0.0051515866 2.1930772e-20)
(0.060066539 0.0053036259 -4.5375305e-20)
(0.061481953 0.0039037449 2.3251182e-20)
(0.060269004 0.0062384302 -2.4947639e-20)
(0.0584377 0.0074575309 2.5933786e-20)
(0.057739398 0.0065390551 0)
(0.054154064 0.0089986273 0)
(0.052367968 0.0098982198 0)
(0.051836339 0.0090648505 -4.6477472e-22)
(0.046057412 0.011892076 -4.8461722e-22)
(0.039935775 0.014594978 -3.2456579e-20)
(0.042469113 0.010450108 3.3649766e-20)
(0.049729523 0.0033327562 2.7189599e-22)
(0.050176648 0.003382701 0)
(0.041511431 0.012830402 0)
(0.033990008 0.022347573 3.0835747e-22)
(0.035543641 0.019770354 0)
(0.045501169 0.0068975838 -3.296351e-22)
(0.057846066 -0.0060402514 -4.3710358e-20)
(0.064148801 -0.005860129 4.5372528e-20)
(0.059471859 0.0061823353 4.7380061e-20)
(0.04501389 0.0184303 -4.8726849e-20)
(0.02799375 0.020434983 5.1670399e-20)
(0.021331731 0.012806404 -5.2764431e-20)
(0.03148166 0.0015492335 -5.3449675e-20)
(0.051559698 -0.0088504788 1.4418629e-21)
(0.068240452 -0.017275191 1.1579529e-19)
(0.067915402 -0.023415007 -5.9061515e-20)
(0.049332436 -0.024982778 0)
(0.024597315 -0.017396812 -6.6641544e-20)
(0.0067541322 -0.00031234395 1.3566451e-19)
(0.0012013648 0.020361613 -7.0108362e-20)
(0.0054880894 0.035349685 0)
(0.015560728 0.038434195 -1.4650379e-22)
(0.02489127 0.028924183 7.6371515e-20)
(0.076071839 6.7672508e-05 0)
(0.071953195 0.0030986047 0)
(0.081483087 -0.00043940347 0)
(0.084325807 -0.0015829037 2.1968141e-21)
(0.088309215 -8.0437026e-05 -3.8192553e-21)
(0.092002182 -0.00021956903 3.1825759e-21)
(0.09295461 0.00092668394 -4.1214291e-21)
(0.090665499 -0.00071800771 -8.5935651e-22)
(0.087895968 0.00089777856 -8.9752701e-22)
(0.0849473 -0.00039495878 -8.4157896e-21)
(0.079477672 0.0014802985 6.7878602e-21)
(0.076345217 0.0014497551 0)
(0.074785271 -0.0016444384 8.3593165e-21)
(0.073365753 0.0037884397 -3.529915e-23)
(0.074420035 0.0013082411 -1.8702629e-20)
(0.075320116 -0.004027436 9.4124209e-21)
(0.074982679 0.002613249 -6.131462e-22)
(0.073725592 0.0036048549 -6.3582238e-22)
(0.068541181 -0.0013685699 -3.2967668e-24)
(0.062843405 -0.00056183433 3.4693619e-22)
(0.060281825 0.0034801298 3.6115303e-22)
(0.059986092 0.005264759 3.745925e-22)
(0.061042255 0.0040652635 0)
(0.059818922 0.0065182253 0)
(0.058625809 0.0075328953 -2.7289961e-20)
(0.058090747 0.0062334264 2.842173e-20)
(0.054152106 0.0076534336 0)
(0.052507464 0.0083503685 0)
(0.052081242 0.0083850876 0)
(0.046430009 0.011289196 2.5565297e-22)
(0.041037554 0.012624662 0)
(0.044305679 0.0075822153 3.5040314e-20)
(0.050971399 0.00075826389 -3.6901326e-20)
(0.049323138 0.0014388459 2.9761161e-22)
(0.038983404 0.010971957 -4.0256089e-20)
(0.032516305 0.020584784 4.1087048e-20)
(0.037627663 0.019023001 0)
(0.049332377 0.0058370097 4.3751724e-20)
(0.05823255 -0.0069108003 -4.6301391e-20)
(0.058261347 -0.0054416119 1.8651496e-22)
(0.052107468 0.0088149223 5.041249e-20)
(0.044118768 0.022236298 -5.1675097e-20)
(0.034676568 0.023039604 0)
(0.028290994 0.011222588 5.5521178e-20)
(0.031907645 -0.0033970207 -5.7840506e-20)
(0.045850183 -0.014126457 4.6238083e-22)
(0.062681392 -0.017404874 0)
(0.068559982 -0.014208102 6.3374346e-20)
(0.05499513 -0.0081027652 -6.4506964e-20)
(0.0267503 -0.00074555057 7.1169871e-20)
(-0.0023128077 0.0076578742 -7.0629413e-20)
(-0.018521503 0.016865589 -7.4562511e-20)
(-0.015513098 0.021636039 1.5242786e-19)
(0.0013446295 0.021158538 -2.0918552e-21)
(0.021329456 0.014313476 -2.4955602e-21)
(0.075906574 -0.00025966126 -6.8692667e-22)
(0.071949272 0.0035353405 -7.1211304e-22)
(0.081950605 0.00043129201 -1.4828068e-21)
(0.084425818 -0.002816086 5.0536868e-25)
(0.088150789 -0.0017095243 1.6102123e-21)
(0.091852232 -0.00099602733 3.3531091e-21)
(0.092992137 0.00049838464 -3.474327e-21)
(0.090850971 0.00035702913 9.0631562e-22)
(0.088208942 0.00011709076 4.7219087e-21)
(0.084980356 0.00079415943 -1.084483e-20)
(0.07969019 0.0022674585 5.1170559e-22)
(0.076675021 -0.00050862867 8.5308665e-21)
(0.074337914 -0.00013226135 5.5299767e-22)
(0.07298456 0.0045558711 0)
(0.075412006 0.0024553791 5.9600028e-22)
(0.075346282 -0.0023918759 -6.2009714e-22)
(0.074125047 0.001976403 -1.9037309e-24)
(0.074449125 0.0041544874 1.3421447e-21)
(0.069927058 -0.00051397475 -7.0157239e-22)
(0.063006845 -0.0016968325 1.1354629e-20)
(0.059454857 0.0015842057 -2.4711805e-20)
(0.059519921 0.0042876557 1.263678e-20)
(0.060788757 0.0037106266 0)
(0.059353832 0.0064486288 -1.3643847e-20)
(0.058802619 0.0074211732 1.3746758e-20)
(0.058520507 0.0061030834 -4.5989354e-22)
(0.054304437 0.0065676594 -4.8050115e-22)
(0.052206603 0.0063361423 0)
(0.051612524 0.0068768608 0)
(0.046339068 0.010201466 -2.6938109e-22)
(0.041799005 0.01164233 0)
(0.045645539 0.0067293231 0)
(0.051560766 0.00028062286 -3.8732909e-20)
(0.048163705 0.00092638436 -8.1194227e-22)
(0.036243457 0.0096473691 8.3992455e-20)
(0.030056235 0.018696988 -4.3954663e-20)
(0.038646501 0.017813697 0)
(0.05373919 0.0055418722 1.8286848e-22)
(0.060859111 -0.0070273478 -1.8858285e-22)
(0.054846086 -0.0061437058 -1.9558748e-22)
(0.044943269 0.0074992648 -5.2668047e-20)
(0.040914439 0.020858345 5.466509e-20)
(0.040598865 0.022225571 0)
(0.039308805 0.0095893237 0)
(0.039029789 -0.0082355332 -2.3472475e-22)
(0.043271459 -0.020248933 -2.4431468e-22)
(0.051962856 -0.019591969 -6.4426964e-20)
(0.059048892 -0.0088193649 6.7405687e-20)
(0.055322494 0.0052596849 7.0894902e-20)
(0.036186249 0.015963587 -7.1650158e-20)
(0.0083574295 0.018979339 -1.4637397e-22)
(-0.015816026 0.016905388 7.9647524e-20)
(-0.023853322 0.0099534506 -8.0641501e-20)
(-0.015641926 0.0045869979 0)
(0.0069997151 -0.0028644347 -8.4321652e-20)
(0.075756119 -0.0004376313 1.0852853e-21)
(0.071824527 0.0021741707 -3.7614577e-22)
(0.082383369 0.00071077077 7.8193314e-22)
(0.084620849 -0.0026375462 8.1495645e-22)
(0.088020248 -0.002154941 3.3896207e-21)
(0.091585544 -0.0012146763 -6.1815098e-21)
(0.092849235 -8.4467795e-05 3.6623704e-21)
(0.091035861 0.0015769966 0)
(0.088325723 -0.00076784145 4.4809891e-21)
(0.084989655 0.0016520425 -3.6280026e-21)
(0.080140377 0.002667807 -1.0788497e-21)
(0.076910825 -0.0020047242 0)
(0.073769649 0.002110799 -1.1649984e-21)
(0.072866373 0.0043592208 6.0513561e-22)
(0.076120022 0.0026904256 -6.2777976e-22)
(0.075483231 0.0004016082 1.033466e-25)
(0.073520447 0.0019731343 -1.0136723e-20)
(0.074975228 0.0032903664 2.1900602e-20)
(0.071132379 0.00060045272 -1.1746686e-20)
(0.063411588 -0.00089452786 0)
(0.058966999 0.00074582787 -4.0134644e-22)
(0.059098716 0.0030734308 0)
(0.060627998 0.003140936 -4.3105703e-22)
(0.058815235 0.0062787951 0)
(0.05895965 0.0073152729 1.5802482e-25)
(0.059162146 0.0062157653 4.8469387e-22)
(0.055049939 0.0057936835 5.06486e-22)
(0.05254636 0.0042392031 1.6826237e-20)
(0.051346576 0.0045707186 -2.2402636e-23)
(0.04613905 0.008198974 -1.8167296e-20)
(0.042425109 0.010569671 3.7628285e-20)
(0.047147068 0.0064275961 -7.822322e-20)
(0.052997297 0.00080354825 4.1321977e-20)
(0.048280485 0.0010935126 -3.3082866e-22)
(0.034660849 0.0084774274 -3.4595648e-22)
(0.027610637 0.015702408 3.5955622e-22)
(0.037947064 0.014895615 0)
(0.056513692 0.0044584396 1.916929e-22)
(0.064130958 -0.0066291073 1.9820278e-22)
(0.053496939 -0.0058129871 0)
(0.03886931 0.00614676 -4.3483329e-22)
(0.035168332 0.018390312 0)
(0.042603362 0.020841203 2.3266187e-22)
(0.050299291 0.0094321988 -6.1252641e-20)
(0.051208867 -0.0097934143 6.4069209e-20)
(0.04695711 -0.02276711 0)
(0.043127298 -0.021268246 -1.3309145e-22)
(0.04343869 -0.0061723732 0)
(0.044103643 0.01291612 7.4263035e-20)
(0.037522459 0.02746521 -7.5914422e-20)
(0.022194152 0.030171101 1.5678255e-22)
(0.0024142949 0.021862868 0)
(-0.011802255 0.0057580626 -8.232287e-23)
(-0.017484765 -0.0079048091 0)
(-0.0054233563 -0.020334804 8.8458546e-23)
(0.075797591 -0.00047796789 -3.8083869e-22)
(0.071749798 -0.00025530331 1.1879846e-21)
(0.082654208 0.00014287524 -8.23156e-22)
(0.084883164 -0.0015682599 1.7193486e-21)
(0.087894036 -0.0019103175 -2.6786885e-21)
(0.091416095 -0.0013208419 7.4470823e-25)
(0.092587361 -0.00078109749 -3.8722386e-21)
(0.091097741 0.0019468429 4.0065539e-21)
(0.088500814 -0.0015304333 3.6681741e-21)
(0.084972514 0.0015838486 -9.2785972e-21)
(0.08089845 0.0021435405 5.805929e-22)
(0.077085714 -0.0027556619 4.7300502e-21)
(0.073196663 0.0037055866 -9.2005107e-21)
(0.072854188 0.0028580571 9.5703514e-21)
(0.076212567 0.0010866244 6.5982471e-22)
(0.075856114 0.0025424283 -1.0332429e-20)
(0.07351297 0.0020194142 1.1400694e-20)
(0.075307814 0.0011407452 0)
(0.072098634 0.0010535462 1.2880622e-20)
(0.064077054 0.00078256898 -2.594525e-20)
(0.058797137 0.00080612421 -4.518143e-23)
(0.058707723 0.001543394 1.3605158e-20)
(0.060146783 0.0021054488 1.5461263e-20)
(0.058414162 0.0058959749 -2.9808864e-20)
(0.059056804 0.0069361748 1.6287915e-20)
(0.059776547 0.0062354213 -2.5581546e-22)
(0.056226366 0.0048331966 2.6625422e-22)
(0.05325999 0.0020972283 1.7470105e-20)
(0.051236379 0.0023791015 -1.8795088e-20)
(0.045630767 0.0063298635 3.0088172e-22)
(0.042151271 0.0097190054 0)
(0.047460921 0.0069995372 2.050719e-20)
(0.053590389 0.0027894155 -7.4658953e-23)
(0.048542998 0.0033653673 -2.2007139e-20)
(0.033883852 0.0094138443 5.473731e-22)
(0.025565852 0.014026259 -2.4101452e-20)
(0.036199608 0.011726402 2.5336064e-20)
(0.057531504 0.0027149844 -2.0224459e-22)
(0.067373023 -0.0058679176 2.0781175e-22)
(0.055117692 -0.0047397968 0)
(0.035575092 0.0044677648 -5.8942704e-20)
(0.029413902 0.014470634 6.0627844e-20)
(0.040454199 0.017289195 -1.2177943e-22)
(0.057133491 0.0081849362 -6.4169185e-20)
(0.064003843 -0.0096274327 6.7108178e-20)
(0.055365011 -0.022213604 1.3488779e-22)
(0.040051265 -0.021583806 1.4056661e-22)
(0.029734366 -0.0083589311 7.5491915e-20)
(0.028558337 0.010756169 -7.7981777e-20)
(0.030431769 0.026951374 -3.1591269e-22)
(0.03018039 0.031654558 0)
(0.02337675 0.023810501 0)
(0.012595458 0.0047318426 3.4067217e-24)
(-0.0012738877 -0.013570581 0)
(-0.0041586179 -0.031516078 -9.2858197e-23)
(0.076016499 -0.00040849435 -8.0320456e-22)
(0.071780146 -0.0027409076 -8.3214401e-22)
(0.082633194 -0.00076017602 3.4718604e-21)
(0.084975353 0.00014562218 -1.8073356e-21)
(0.087860471 -0.00094179055 1.883722e-21)
(0.091387665 -0.0010685725 -2.9383248e-21)
(0.092410321 -0.00098305211 -4.0794045e-21)
(0.09129403 0.0014907873 4.2214353e-21)
(0.088637652 -0.0016033738 4.4191506e-21)
(0.084889688 0.0010005469 -8.6190017e-21)
(0.081521852 0.0010123442 4.1893598e-21)
(0.076991166 -0.0023329632 0)
(0.072906752 0.0044854137 6.4458603e-22)
(0.073039813 0.001153327 0)
(0.075906575 -0.00071265214 0)
(0.075872261 0.0037555689 1.1246471e-20)
(0.074087742 0.0021291522 -1.2031889e-20)
(0.075572392 -0.00098130871 -3.9169406e-22)
(0.072361026 0.0012285949 5.971723e-25)
(0.064546524 0.0031505437 0)
(0.05919791 0.0026265886 1.470759e-20)
(0.058835005 0.00088168309 -1.3898064e-20)
(0.059513352 0.0011300958 1.089789e-24)
(0.0577332 0.0055928527 1.5188764e-20)
(0.058833075 0.0069866659 -3.3304173e-20)
(0.060478935 0.0065838658 1.6752945e-20)
(0.057601137 0.0040890567 -1.8239059e-20)
(0.054240151 0.00033559762 3.0773647e-22)
(0.051281171 0.00051011278 1.9785681e-20)
(0.045251317 0.0048201741 1.9675276e-20)
(0.041810382 0.0083801429 -2.0705384e-20)
(0.04745953 0.0066977315 0)
(0.054207205 0.0040459327 -3.5210084e-22)
(0.049597982 0.0054920379 9.8146944e-26)
(0.034822911 0.010465731 -1.924184e-22)
(0.025308393 0.012538518 2.5654937e-20)
(0.034387182 0.0076540416 -7.1389448e-22)
(0.056244173 -0.00030427771 -2.7794698e-20)
(0.068779796 -0.0053509107 2.7873024e-20)
(0.057432366 -0.0023818293 -5.9180867e-20)
(0.035219842 0.0043447451 -4.7650678e-22)
(0.025001224 0.011037781 6.3687539e-20)
(0.035995138 0.012168427 -3.3495769e-20)
(0.058725643 0.0044773839 -1.3312111e-22)
(0.072774744 -0.0086619466 -3.517913e-20)
(0.065509907 -0.018170814 3.6188614e-20)
(0.043662937 -0.019285775 0)
(0.022909449 -0.01071977 -4.0179979e-20)
(0.014266863 0.0048975688 4.1124526e-20)
(0.017368434 0.020883199 3.3331832e-22)
(0.0267174 0.028832021 0)
(0.034448791 0.024432204 -8.9515151e-20)
(0.034065943 0.0084654401 -2.9751689e-22)
(0.023431363 -0.0099704411 9.6773133e-20)
(0.012407717 -0.031209354 9.9790649e-23)
(0.076396512 -0.00034971714 3.7651511e-25)
(0.071925158 -0.0043758561 -1.7573487e-21)
(0.082382539 -0.0015894834 0)
(0.084957645 0.0015487503 9.5226894e-22)
(0.087970635 -4.1670965e-05 1.4875234e-21)
(0.091557981 -0.00078046265 1.5502627e-21)
(0.092351797 -0.00091244188 -6.4380574e-21)
(0.091515589 0.00022112048 -5.6032421e-22)
(0.088820106 -0.001319757 -5.8760979e-22)
(0.084946265 0.00021003552 9.0743186e-21)
(0.081922351 -0.00066315731 -4.4152717e-21)
(0.076774567 -0.0014921258 -5.2432232e-21)
(0.072838121 0.0041894047 4.0731632e-21)
(0.073439112 -0.00031493936 0)
(0.075534809 -0.0022055476 0)
(0.075522362 0.0035571887 -1.2223481e-20)
(0.074807978 0.0015158916 -5.4728835e-24)
(0.075729458 -0.0026884124 1.364793e-20)
(0.072120603 0.0010162907 -4.2982067e-22)
(0.064829236 0.0047813845 1.4475709e-20)
(0.059881897 0.0046284906 -1.4967654e-20)
(0.059257289 0.00069327996 -4.8807908e-22)
(0.059031857 0.0004092327 -2.5216296e-22)
(0.056918537 0.0049135627 -1.6783329e-20)
(0.058377655 0.006917552 1.7601789e-20)
(0.060964863 0.007027463 2.8360783e-22)
(0.059176315 0.0038044245 0)
(0.055499631 -0.00078128481 0)
(0.051316007 -0.00076908676 0)
(0.044727152 0.0039541518 6.6804155e-22)
(0.04119174 0.0072492255 -3.4660084e-22)
(0.04685747 0.0060085424 0)
(0.053917366 0.0046671602 1.8596627e-22)
(0.050317084 0.0075631404 3.8556853e-22)