/*--------------------------------*- C++ -*----------------------------------*\
| =========                 |                                                 |
| \\      /  F ield         | OpenFOAM: The Open Source CFD Toolbox           |
|  \\    /   O peration     | Version:  2406                                  |
|   \\  /    A nd           | Website:  www.openfoam.com                      |
|    \\/     M anipulation  |                                                 |
\*---------------------------------------------------------------------------*/
FoamFile
{
    version     2.0;
    format      ascii;
    arch        "LSB;label=32;scalar=64";
    class       volVectorField;
    location    "23";
    object      U;
}
// * * * * * * * * * * * * * * * * * * * * * * * * * * * * * * * * * * * * * //

dimensions      [0 1 -1 0 0 0 0];

internalField   nonuniform List<vector> 
96472
(
(0.080915372 0.00073140242 6.0701379e-22)
(0.081865797 0.0013849733 -4.1471904e-21)
(0.087149153 0.0017534684 -1.7736536e-21)
(0.088905457 0.0021226177 -1.6006289e-21)
(0.091539579 0.0026161595 -2.1179634e-21)
(0.094634938 0.0029938365 -4.733746e-21)
(0.097388655 0.0030930984 1.6847033e-21)
(0.09974533 0.0029298791 4.4565398e-21)
(0.10164472 0.0027478819 3.9638735e-21)
(0.10290406 0.0027042557 -9.599221e-22)
(0.10336506 0.0028785576 6.5911723e-22)
(0.10301177 0.0032362577 -2.5459922e-21)
(0.10208237 0.0036927757 -4.8934386e-22)
(0.10071893 0.004179466 -2.4834476e-22)
(0.099048449 0.0046627235 3.3533781e-25)
(0.097165941 0.0050079695 5.4118142e-24)
(0.094968779 0.0052662466 -4.120962e-22)
(0.092403341 0.0055147517 -4.792806e-21)
(0.089388267 0.0058123578 9.050787e-21)
(0.085838878 0.0061427468 -8.4072321e-21)
(0.081803687 0.0064511005 1.0609347e-20)
(0.077797999 0.006663958 -8.6655362e-21)
(0.074832861 0.0066431192 -3.9896735e-21)
(0.073633286 0.0062417343 -4.7260366e-21)
(0.073688434 0.005322737 7.6583417e-22)
(0.07400449 0.0041227784 2.7484366e-21)
(0.074227538 0.0027801029 -2.6917858e-21)
(0.0741542 0.0014420845 -1.3790648e-22)
(0.073825354 0.00017498254 2.5867114e-21)
(0.073245475 -0.0009950878 1.1826692e-21)
(0.072693245 -0.0021531028 -1.4284075e-22)
(0.072087176 -0.003258608 7.5490786e-23)
(0.071575985 -0.0044082337 -4.2550342e-21)
(0.071060517 -0.0055568467 -2.341074e-21)
(0.070700167 -0.0067732128 0)
(0.070357685 -0.0080074999 -1.9285879e-21)
(0.070209698 -0.009328332 1.8196084e-21)
(0.070096905 -0.010709243 -1.5476807e-21)
(0.070237358 -0.012145732 2.857205e-22)
(0.070350218 -0.013660868 -3.9683142e-22)
(0.07074293 -0.015155064 5.0784779e-22)
(0.070985888 -0.016737064 -2.1578279e-21)
(0.071756786 -0.018417455 -6.136895e-22)
(0.072122816 -0.020155067 -4.2024895e-21)
(0.073041137 -0.021730785 -1.7052645e-21)
(0.073675111 -0.02382329 3.7323896e-21)
(0.074802763 -0.025437409 5.4782846e-22)
(0.075497941 -0.027574897 -5.3231515e-22)
(0.076882709 -0.029404059 6.5291613e-22)
(0.077723839 -0.031637732 -5.810774e-22)
(0.079241678 -0.033527903 7.1715146e-22)
(0.080243409 -0.035848369 1.7322841e-21)
(0.081859799 -0.037931227 -2.6158741e-21)
(0.083132567 -0.039828469 -2.312143e-21)
(0.084717848 -0.043172582 3.6712771e-22)
(0.082103171 0.0007163715 2.1962667e-22)
(0.081816038 0.001469374 -2.6665952e-21)
(0.08710823 0.0016335914 0)
(0.088737033 0.0020473389 -1.0717213e-21)
(0.091364273 0.0026095732 2.195438e-21)
(0.094448042 0.0030721935 -1.1592268e-22)
(0.097233319 0.0032078669 -1.1037641e-22)
(0.09967139 0.0030584647 -4.129672e-21)
(0.10165565 0.0028591171 3.3187101e-21)
(0.10295798 0.0028379451 0)
(0.10345015 0.0030236126 4.1103609e-22)
(0.10318094 0.0033427184 -1.3429971e-21)
(0.1023367 0.0037864438 -2.9861406e-22)
(0.10103802 0.0042328593 -3.9590473e-23)
(0.099404762 0.0045769178 -1.4822377e-24)
(0.097470387 0.0048944709 -2.2303127e-21)
(0.095251862 0.0051449553 1.7095471e-22)
(0.092735931 0.0053269684 2.5065854e-22)
(0.089809085 0.0055367713 -1.0168345e-21)
(0.086332803 0.0058046411 0)
(0.082339824 0.0060887626 -1.7726236e-21)
(0.078314206 0.0063198584 1.627049e-21)
(0.075296958 0.0063513362 -6.61058e-22)
(0.074061778 0.0059868843 2.0477895e-24)
(0.074082901 0.0051749133 3.6147066e-21)
(0.074391727 0.0040916056 4.5784586e-22)
(0.074579318 0.0028675022 5.1057776e-22)
(0.074443693 0.0016217896 -2.7689605e-21)
(0.074082781 0.00036200581 3.6802964e-21)
(0.073557763 -0.00082968017 1.2524437e-21)
(0.072995428 -0.0019898218 -1.2910443e-21)
(0.072399733 -0.0030861279 -1.2078111e-21)
(0.071923483 -0.0042030118 3.9315389e-21)
(0.071473667 -0.0053274934 -1.0761099e-22)
(0.07120687 -0.0064993235 -3.0639447e-22)
(0.070991908 -0.0077099623 2.2460253e-21)
(0.070963388 -0.0089727002 3.5868632e-22)
(0.07095987 -0.010275249 -3.0772916e-23)
(0.07114585 -0.011611065 -4.2611802e-22)
(0.071322511 -0.01301736 -3.6842015e-21)
(0.071776737 -0.014416161 6.4110141e-22)
(0.072056067 -0.015899888 -4.7699182e-23)
(0.072720443 -0.01730912 5.3578878e-23)
(0.073173096 -0.018939373 8.9784312e-22)
(0.074110188 -0.020462573 -4.5321205e-21)
(0.074631064 -0.022211386 -1.6890615e-21)
(0.075790521 -0.023794521 3.186488e-21)
(0.076479559 -0.025746791 -8.5411204e-23)
(0.077779497 -0.027416634 8.4291265e-23)
(0.078701821 -0.029381777 3.768423e-22)
(0.079993146 -0.031309583 -8.357739e-22)
(0.081429573 -0.033150397 6.567311e-22)
(0.082434184 -0.035272979 1.0515664e-21)
(0.084347181 -0.036798184 -9.6111601e-22)
(0.085393982 -0.039831642 -1.1636425e-21)
(0.082710629 0.00081560321 -2.153845e-24)
(0.08196574 0.0012848784 0)
(0.087264365 0.0014380792 -4.2596723e-21)
(0.088872306 0.0019454344 0)
(0.091491417 0.0026031296 3.5592963e-21)
(0.094589237 0.003149584 8.5124675e-24)
(0.097403648 0.0033466379 1.213556e-22)
(0.099867961 0.0032191076 -2.0706955e-23)
(0.1018533 0.003018549 -2.1405665e-21)
(0.10313889 0.0029908665 -6.7549863e-22)
(0.10361868 0.0031426227 2.7506795e-22)
(0.10333982 0.0034360927 8.7985647e-22)
(0.10249056 0.0038483178 3.5919312e-22)
(0.10119287 0.0042398342 2.1719023e-21)
(0.099555159 0.0045193934 -4.7916601e-23)
(0.097620142 0.0047440825 7.1364636e-22)
(0.09541999 0.0049088647 1.4987171e-21)
(0.092936405 0.0050637585 -9.9319882e-22)
(0.09006537 0.0052745889 0)
(0.086656202 0.0055252685 -1.034365e-21)
(0.082720966 0.0058023017 9.7901008e-23)
(0.078702113 0.0060249556 -9.4688577e-23)
(0.075631317 0.0060925021 -6.5649626e-22)
(0.074348772 0.0058216234 4.9687712e-23)
(0.074380721 0.0050641542 -2.9248881e-22)
(0.074742169 0.0040087657 -3.8851139e-21)
(0.074997483 0.0027901604 3.8975579e-21)
(0.0749253 0.001497088 1.2286468e-21)
(0.074543163 0.00021357712 -1.4145861e-21)
(0.073987159 -0.00095214557 -1.1026032e-21)
(0.073412659 -0.002088685 -2.7666682e-24)
(0.072828761 -0.0031787024 -1.5597295e-21)
(0.072348565 -0.0042781465 -4.4748459e-23)
(0.071914283 -0.0053731733 1.7675257e-22)
(0.0716618 -0.0065117874 -2.1667964e-22)
(0.071458765 -0.0076693382 1.9657577e-21)
(0.071470965 -0.0088682851 6.580651e-22)
(0.071545815 -0.010112081 1.8403925e-21)
(0.071848131 -0.011390958 3.5248983e-23)
(0.072116994 -0.012719616 -4.5245083e-23)
(0.072618744 -0.014039537 1.3253778e-21)
(0.073060194 -0.015461643 3.3018071e-21)
(0.073792774 -0.016827905 0)
(0.074327308 -0.018357123 3.0068533e-21)
(0.075250609 -0.019735839 1.6144207e-21)
(0.075929266 -0.021375485 -3.1205404e-21)
(0.076965207 -0.02283843 4.7350973e-22)
(0.077842384 -0.024531199 2.7433673e-24)
(0.078892131 -0.026101757 0)
(0.080084199 -0.027744156 2.8034425e-24)
(0.081012798 -0.029635139 4.8629198e-22)
(0.082571866 -0.030959347 -4.7213946e-22)
(0.083462203 -0.033234941 -7.9205947e-22)
(0.08535783 -0.034511438 7.8540413e-22)
(0.086275455 -0.037069241 1.3623641e-21)
(0.083025305 0.00078327025 2.1633201e-22)
(0.082143777 0.0012150543 1.1940907e-22)
(0.087464151 0.0012937019 -1.0035618e-23)
(0.089066972 0.0018546826 -8.6479835e-24)
(0.091692607 0.0025652756 2.5855561e-23)
(0.094810513 0.0031834744 -1.3711327e-23)
(0.097638715 0.0034286922 -1.147561e-22)
(0.10008913 0.0033153689 2.2520692e-21)
(0.10203782 0.0031240677 1.0508084e-22)
(0.10328894 0.0030799942 -7.8399206e-22)
(0.10374577 0.0032116207 1.1086999e-23)
(0.10345514 0.0035035971 -9.2400622e-24)
(0.10260955 0.0038468095 1.8915087e-21)
(0.10132025 0.0041632764 -1.084119e-21)
(0.099696527 0.0044520116 -3.5705153e-23)
(0.097784755 0.0046297052 5.2792103e-24)
(0.0956122 0.0047332938 -1.0120643e-21)
(0.093168226 0.0048226592 1.9526034e-23)
(0.090354498 0.0049959953 2.3948194e-21)
(0.087017177 0.0052348866 0)
(0.083148421 0.0055140979 1.0319148e-21)
(0.079142792 0.005749193 0)
(0.075999176 0.0058198862 4.766507e-21)
(0.074648083 0.0056185046 9.1725656e-21)
(0.074689869 0.0049539275 -2.9649614e-22)
(0.075098189 0.0039538994 -3.9828292e-21)
(0.075407592 0.0027832939 -3.5802362e-21)
(0.075386135 0.0015466777 3.2671296e-21)
(0.075042651 0.0003476251 -4.0409384e-21)
(0.07451383 -0.0008364137 -7.4818911e-23)
(0.07392076 -0.0019634057 7.9772592e-24)
(0.073327282 -0.0030389059 1.5062247e-21)
(0.072826738 -0.0040981551 -4.058542e-21)
(0.072407128 -0.0051523023 -4.2149399e-21)
(0.072148743 -0.0062390721 1.8391894e-21)
(0.071969337 -0.0073574174 2.1795051e-23)
(0.071987773 -0.0085212993 3.2014811e-22)
(0.072081259 -0.0097222774 3.7749503e-21)
(0.072358068 -0.010932236 -1.7156266e-21)
(0.072686788 -0.012173795 3.3003555e-21)
(0.073219609 -0.013462866 -5.3493901e-22)
(0.073722771 -0.014749104 6.6429916e-22)
(0.074431924 -0.016088892 6.6480468e-22)
(0.075167828 -0.017445993 -1.1215698e-21)
(0.07600655 -0.01887841 3.7580065e-21)
(0.076928407 -0.020251346 -2.3783701e-22)
(0.077819587 -0.021783189 1.6147816e-21)
(0.078955062 -0.023162804 9.820824e-22)
(0.079835593 -0.02479732 -7.1294929e-22)
(0.08122355 -0.026219085 -7.9022709e-23)
(0.082062174 -0.028010553 -9.8781306e-22)
(0.083714708 -0.029271336 2.7194054e-22)
(0.084582619 -0.031415742 -1.3042893e-21)
(0.086281729 -0.032338084 8.1941442e-23)
(0.087154139 -0.034692203 5.2707808e-22)
(0.083126391 0.00083648803 -1.2440141e-21)
(0.082310025 0.0010660585 0)
(0.087628233 0.0011114156 8.0379423e-21)
(0.089219274 0.0017439018 4.4513615e-23)
(0.09185944 0.0025262862 0)
(0.095003581 0.003199032 3.8328832e-21)
(0.097850227 0.0034928165 0)
(0.10028884 0.0033973533 0)
(0.1022033 0.0032094332 5.5581901e-22)
(0.10341934 0.0031596781 1.6045024e-23)
(0.10385013 0.0033120252 1.5212064e-22)
(0.10355766 0.0035600137 4.4776449e-22)
(0.10272502 0.0038342713 -3.0097714e-22)
(0.10143619 0.0040944936 -8.8001233e-22)
(0.099821907 0.0043139912 -2.4826642e-21)
(0.097944934 0.0044562484 -1.5163883e-21)
(0.095812126 0.0045315273 2.7895352e-21)
(0.093404596 0.0045817286 3.5528753e-21)
(0.090639254 0.0046967134 -8.8624476e-22)
(0.087360112 0.0049047421 -9.4968902e-22)
(0.083546171 0.0051754971 -1.2026904e-21)
(0.079558767 0.0054410067 1.2582845e-21)
(0.076351759 0.0055578538 7.6117754e-22)
(0.074915922 0.0053915871 -8.8191229e-23)
(0.074959493 0.0048157273 6.3183179e-22)
(0.075429614 0.0038839428 4.0918601e-22)
(0.075808897 0.0027578884 -4.1666851e-21)
(0.075846184 0.0015457856 -1.3220895e-22)
(0.075525832 0.00033182347 1.5330406e-21)
(0.07500834 -0.0008269367 0)
(0.074415751 -0.001943809 -5.9658959e-23)
(0.073833275 -0.0030105643 7.7921534e-24)
(0.073325501 -0.0040584053 1.5125371e-21)
(0.072920927 -0.0051016151 2.2930994e-21)
(0.072665938 -0.0061514612 2.0628936e-21)
(0.072517955 -0.0072173092 3.0105158e-22)
(0.072532646 -0.0082990269 -1.1465819e-21)
(0.07267101 -0.0094184378 -1.4570686e-21)
(0.072947568 -0.010553481 -6.8873745e-23)
(0.073327051 -0.011753159 -3.0202969e-21)
(0.073801228 -0.012898146 -1.1695911e-21)
(0.074429832 -0.014156876 -1.7486667e-21)
(0.075093043 -0.015391384 7.5516231e-22)
(0.07592685 -0.016652016 -1.7392828e-21)
(0.076703441 -0.017961605 -2.3835619e-22)
(0.077756016 -0.019231133 -3.9355049e-23)
(0.078617128 -0.020692847 -1.9118923e-21)
(0.079840553 -0.021880038 2.8227382e-21)
(0.080783865 -0.023541796 -4.177258e-23)
(0.082173077 -0.024673885 9.1156223e-22)
(0.083025518 -0.026379855 -4.2298092e-23)
(0.084667212 -0.027540639 1.5295592e-21)
(0.08546445 -0.029356884 2.5993392e-22)
(0.087164709 -0.03027879 1.4199447e-21)
(0.088228143 -0.032756804 1.024732e-21)
(0.083074187 0.00083414334 0)
(0.082515198 0.00096570459 -7.973258e-23)
(0.087834411 0.00093980602 -3.3376693e-21)
(0.089414757 0.0016121936 2.430926e-23)
(0.092075085 0.0024514005 -1.4317263e-23)
(0.095250213 0.0031734554 3.4008819e-21)
(0.098104412 0.0034890459 0)
(0.10051208 0.0034105128 3.63447e-22)
(0.10237218 0.0032269431 7.3150199e-22)
(0.10353644 0.0032038344 -2.1907514e-23)
(0.10394038 0.0033594771 -5.3882566e-22)
(0.10364588 0.003561908 2.4082035e-22)
(0.10282084 0.0038289821 9.0325122e-23)
(0.10155111 0.004064276 8.3679094e-22)
(0.099955186 0.0041748019 -9.8658597e-25)
(0.098100146 0.0042501175 3.8654352e-21)
(0.09600127 0.0043019422 1.8460764e-21)
(0.093638051 0.0043409664 -1.9681044e-21)
(0.090921654 0.0044363403 -6.8670856e-22)
(0.08769873 0.0046309808 -5.5898757e-22)
(0.083936069 0.0048797375 9.8832862e-23)
(0.07995703 0.0051327149 1.1868804e-21)
(0.076685067 0.0052945696 -3.5669254e-21)
(0.075160511 0.0051964892 -7.4865682e-24)
(0.075189324 0.004687186 -2.945636e-22)
(0.075705883 0.0038294563 4.8033666e-22)
(0.076154031 0.0027764487 8.0819077e-21)
(0.076269262 0.001624748 -2.025013e-21)
(0.075999352 0.00044834208 1.62996e-21)
(0.075504343 -0.0006911001 1.4206105e-21)
(0.074908299 -0.0017804598 1.4289827e-21)
(0.074318428 -0.0028138757 -7.5196099e-24)
(0.073803418 -0.0038376668 9.2662804e-24)
(0.073409287 -0.004853954 3.5947595e-21)
(0.073139521 -0.005879238 -3.8160413e-21)
(0.073017623 -0.0069078379 -2.7562291e-21)
(0.073029061 -0.0079643588 -2.8299718e-22)
(0.073201969 -0.0090210295 -2.2732137e-21)
(0.073469579 -0.010123664 2.1886844e-21)
(0.073874017 -0.011175658 -1.8062014e-21)
(0.074372709 -0.012369824 -7.4412926e-22)
(0.075008545 -0.013453708 0)
(0.075657482 -0.014644389 2.5650894e-21)
(0.076542954 -0.015784262 -6.6028608e-23)
(0.077335323 -0.017071863 -2.1248372e-21)
(0.078440814 -0.018231799 4.4372546e-22)
(0.0792673 -0.019531057 -1.8577243e-21)
(0.080553891 -0.020718641 -1.2114887e-21)
(0.081455386 -0.022099002 -4.2490347e-22)
(0.082845432 -0.023160848 0)
(0.083843663 -0.024860886 -1.8479287e-21)
(0.085427297 -0.025826473 -1.9838778e-21)
(0.086321873 -0.027511079 -7.6557108e-23)
(0.088105058 -0.02850975 5.801866e-23)
(0.08896615 -0.030462629 1.8073442e-21)
(0.082826884 0.0008843217 0)
(0.08283311 0.00089480364 2.6069154e-21)
(0.088153714 0.00078392738 -1.5078851e-23)
(0.089735691 0.0015052351 -2.7605768e-23)
(0.092410943 0.0023826466 -1.2473167e-23)
(0.095592124 0.0031365335 1.2087462e-23)
(0.09841357 0.003474311 -1.0985897e-23)
(0.10074964 0.0034090716 2.2667051e-22)
(0.10252589 0.0032425618 3.6288679e-22)
(0.10363254 0.0032294379 -2.8094919e-22)
(0.10401323 0.0033605736 -1.2842179e-22)
(0.10371738 0.0035604535 7.188821e-22)
(0.10290476 0.0037902286 3.3347671e-22)
(0.10166246 0.0039524104 3.4109327e-21)
(0.10009247 0.004056513 3.6635209e-24)
(0.098261126 0.0040968487 8.3216819e-22)
(0.096192873 0.0040808183 -2.269045e-21)
(0.093864911 0.0040814798 -1.7931501e-21)
(0.091193504 0.0041706069 2.9831435e-22)
(0.088026547 0.0043559737 -2.3365567e-21)
(0.08432007 0.0046089738 1.5469711e-24)
(0.080351897 0.004851792 -8.153912e-22)
(0.077004099 0.0050184874 9.3487318e-22)
(0.075381073 0.0049940269 4.8387135e-21)
(0.075395276 0.0045661933 6.0468473e-22)
(0.075962659 0.0037716383 -5.356876e-21)
(0.07648241 0.0027650364 -1.4727013e-22)
(0.076673713 0.0016405636 -1.5456369e-21)
(0.076457233 0.00050195111 -1.0245744e-22)
(0.075984411 -0.00060466301 1.4969235e-21)
(0.075391058 -0.0016660104 -1.4730093e-21)
(0.074803139 -0.0026897961 1.5079365e-21)
(0.074277543 -0.003685986 -8.3325976e-24)
(0.073883004 -0.0046697128 1.1650928e-23)
(0.073611923 -0.0056391263 -2.4644651e-21)
(0.073502218 -0.006619619 -3.5628087e-21)
(0.073507852 -0.007607433 9.0059641e-22)
(0.073704378 -0.0086395434 -2.1360466e-22)
(0.073963851 -0.009641062 1.844969e-21)
(0.074425087 -0.010725695 6.5574272e-24)
(0.074895885 -0.01175237 -1.3547636e-21)
(0.07555363 -0.012799109 -5.4991655e-22)
(0.076236607 -0.013960141 8.5747121e-22)
(0.07712451 -0.014978494 3.1364045e-21)
(0.077944195 -0.016197381 -9.2133651e-22)
(0.078988154 -0.017184096 -9.0460557e-22)
(0.079933365 -0.018479636 -2.233667e-22)
(0.081125381 -0.019499463 1.1293391e-21)
(0.082120327 -0.020794906 -2.9747856e-22)
(0.083573161 -0.021965415 -2.4223196e-22)
(0.08452091 -0.023231925 1.8233576e-21)
(0.086024802 -0.024188682 -2.2512347e-21)
(0.086984313 -0.025687896 -2.0526549e-21)
(0.088678296 -0.026687596 -4.0366085e-21)
(0.0896777 -0.028202062 -4.764051e-22)
(0.083178455 0.00097083178 -2.0463186e-22)
(0.083512695 0.00084892818 2.294378e-21)
(0.088827466 0.00061502833 2.4494554e-21)
(0.090358323 0.0013778606 -1.4608133e-21)
(0.092928221 0.0022743422 -3.3202906e-21)
(0.095992152 0.0030359653 -2.9198487e-21)
(0.098708507 0.0033799001 6.8608109e-22)
(0.10094745 0.0033320339 1.3268807e-21)
(0.10263701 0.0031966723 2.6550997e-22)
(0.10369782 0.0031912709 -9.0976664e-22)
(0.10406456 0.0033368961 7.0974313e-22)
(0.10377799 0.0035370724 6.884471e-22)
(0.10299236 0.0036954331 3.0290616e-22)
(0.1017673 0.0037989795 6.2874105e-23)
(0.10021632 0.0038930759 -5.4814813e-23)
(0.098423301 0.0039220758 1.8819638e-22)
(0.096391502 0.0038865788 0)
(0.094091805 0.0038504591 6.7862919e-22)
(0.091458247 0.003906094 -2.6166875e-21)
(0.088342676 0.0040650485 -4.7655068e-22)
(0.084690519 0.0043236759 -2.4316026e-24)
(0.08074207 0.0045866948 1.3540171e-21)
(0.07731844 0.0047575721 9.2475831e-22)
(0.075576192 0.0047759534 -9.7205564e-21)
(0.07555899 0.0044478764 3.0930607e-22)
(0.076175355 0.0037356174 5.5488121e-21)
(0.076768129 0.0027924163 -4.7678544e-21)
(0.077044472 0.0017157492 -3.6332068e-22)
(0.076892437 0.00062670941 -1.7223321e-21)
(0.076453275 -0.00044569032 -2.8455967e-21)
(0.07587208 -0.001477643 -6.7633715e-24)
(0.075278398 -0.0024808009 -4.5553668e-23)
(0.074745808 -0.0034611831 1.4681141e-21)
(0.07433452 -0.004404862 -1.0144596e-23)
(0.074047766 -0.0053493873 1.3601838e-21)
(0.073936563 -0.0062730056 -1.3284277e-23)
(0.073960954 -0.0072321377 1.4728224e-21)
(0.07414342 -0.0081806818 -4.7575026e-22)
(0.074441833 -0.0091794188 3.3326793e-22)
(0.074855444 -0.0101269 1.1234058e-21)
(0.075361467 -0.011131613 -7.4462644e-22)
(0.076042499 -0.0121621 -6.8621256e-22)
(0.076703782 -0.013139109 -3.2047304e-21)
(0.077588485 -0.014170946 1.5958719e-21)
(0.078436735 -0.015239346 1.1515299e-21)
(0.079516744 -0.016241086 8.5571476e-22)
(0.080452291 -0.017391305 -5.5968858e-22)
(0.081651194 -0.018323069 -8.1072521e-22)
(0.082732255 -0.019645278 3.0091793e-21)
(0.083956319 -0.020343799 -9.4423559e-23)
(0.085030477 -0.021833625 2.3236118e-21)
(0.086601286 -0.022574801 1.4539564e-21)
(0.087648662 -0.024168008 -2.0490715e-21)
(0.089123785 -0.024751845 -5.7549841e-22)
(0.090161349 -0.026492915 -2.1023439e-21)
(0.084947628 0.0010187664 -2.0274415e-22)
(0.084597657 0.00088202797 -2.058198e-21)
(0.089729606 0.00049746991 -1.7317624e-21)
(0.091087947 0.0012727367 3.7813888e-21)
(0.093406001 0.0021565385 -1.5753088e-23)
(0.09624657 0.0029170732 -1.5300751e-22)
(0.098842179 0.003262537 1.2730153e-23)
(0.10102729 0.0032241258 4.3438338e-22)
(0.10269124 0.0031171105 2.3497119e-21)
(0.10373932 0.0031387333 -1.3507035e-21)
(0.10410763 0.0033205326 3.4946592e-21)
(0.10384373 0.0034801243 -3.4960268e-22)
(0.10308505 0.0036046939 -1.2731066e-22)
(0.10187832 0.0037006485 -1.0397474e-22)
(0.10034522 0.0037060342 -1.8869832e-21)
(0.098576902 0.003687826 0)
(0.096582169 0.0036633751 0)
(0.0943202 0.003625732 0)
(0.091723901 0.0036556001 8.4853217e-22)
(0.088652217 0.003788163 1.2556577e-21)
(0.085047251 0.0040299767 9.5348515e-22)
(0.081122133 0.0043075074 1.0528605e-21)
(0.077630272 0.0044977373 -3.2368214e-21)
(0.075756724 0.0045473565 1.4749068e-23)
(0.075689529 0.0043092029 -6.0662284e-21)
(0.076356431 0.0036728611 5.3706795e-21)
(0.077027093 0.0027905206 9.7707963e-21)
(0.0773878 0.0017611828 1.8738684e-22)
(0.077304276 0.0007242573 -3.2363721e-21)
(0.076906074 -0.00030697867 -3.0246663e-21)
(0.076339871 -0.001311079 1.3126878e-21)
(0.075752806 -0.0022932315 -2.7312001e-21)
(0.075205188 -0.0032307407 2.5984706e-21)
(0.074783204 -0.0041513052 -2.5891211e-21)
(0.074486091 -0.0050443541 2.5806778e-21)
(0.074363333 -0.0059549602 1.2152113e-21)
(0.074375061 -0.0068448492 -1.314959e-21)
(0.074575639 -0.0077624169 2.295643e-21)
(0.074848978 -0.0086514626 -3.4229434e-21)
(0.075295657 -0.0095723121 3.3674276e-21)
(0.075816636 -0.010554882 1.4545618e-21)
(0.076429499 -0.011401591 -9.520819e-22)
(0.077157139 -0.012440806 -5.690977e-23)
(0.078034674 -0.013353553 -3.5500373e-22)
(0.078892089 -0.014352754 -7.6202586e-22)
(0.079931158 -0.015278631 -4.3501507e-22)
(0.080918273 -0.016331264 1.7709566e-21)
(0.08211063 -0.017197542 -4.0813536e-23)
(0.08308529 -0.018296356 -6.1615638e-22)
(0.084526145 -0.01914549 2.538668e-21)
(0.08557814 -0.020531554 3.7005031e-22)
(0.086999827 -0.021013911 2.0247486e-21)
(0.088049408 -0.022533678 1.0392542e-22)
(0.089583242 -0.022856548 -1.7333255e-21)
(0.09059598 -0.024605696 3.4890458e-22)
(0.086912432 0.0010505114 -1.9142752e-21)
(0.085298541 0.00071488345 -1.64041e-21)
(0.090348501 0.00030387851 1.1406447e-21)
(0.09157178 0.001102051 2.5848125e-21)
(0.093716203 0.001956417 3.3903643e-21)
(0.096379853 0.0027042255 2.2004659e-21)
(0.098884108 0.0030683784 5.4710402e-25)
(0.10104756 0.0030636409 2.4361433e-21)
(0.10271468 0.0029908306 -2.8264303e-21)
(0.10376348 0.0030656663 1.6130435e-22)
(0.10414625 0.003249883 -8.0954397e-22)
(0.10390776 0.0033880824 1.5717609e-22)
(0.10317215 0.0035116894 2.0198252e-22)
(0.10199627 0.0035788076 -5.5126014e-22)
(0.10048936 0.0035489372 -2.0076112e-21)
(0.098734835 0.0034934308 -4.3462354e-22)
(0.096766031 0.0034319059 -1.1837784e-21)
(0.094538843 0.0033956556 -1.2060418e-21)
(0.091983902 0.0034326589 -8.8855606e-22)
(0.088959296 0.0035587791 1.1875882e-21)
(0.085398919 0.0037756158 0)
(0.081493603 0.0040494549 -1.4090125e-21)
(0.077936549 0.004259556 -1.9048614e-21)
(0.075922888 0.0043344273 4.5146805e-21)
(0.075785085 0.0041654966 -3.4113397e-23)
(0.076496374 0.0036053669 -1.018964e-21)
(0.077245883 0.0027964242 3.3679848e-22)
(0.077692726 0.0018363174 -1.225943e-21)
(0.077683959 0.00084527874 1.8380084e-21)
(0.077338562 -0.00014047228 2.867026e-21)
(0.076801264 -0.0011124781 7.2532853e-24)
(0.076208242 -0.0020552972 -2.7949806e-21)
(0.075657518 -0.0029604626 9.7687466e-23)
(0.075212567 -0.0038275911 -3.9668167e-21)
(0.07490495 -0.0046954928 2.2816598e-21)
(0.074765508 -0.0055441782 3.9219112e-21)
(0.074777911 -0.0064070571 2.2510916e-21)
(0.074941576 -0.007245645 2.7827365e-22)
(0.075246181 -0.0081060809 -2.3199684e-21)
(0.075675034 -0.0090043961 -6.2318412e-22)
(0.076162581 -0.009816535 6.3104003e-22)
(0.076836148 -0.010769895 -4.8889256e-23)
(0.07753688 -0.011652316 4.2490424e-22)
(0.078356624 -0.012486585 4.5437394e-22)
(0.079261349 -0.013456793 1.1510594e-21)
(0.080309856 -0.014354599 -1.7995608e-21)
(0.081259209 -0.015206307 -4.2965119e-22)
(0.082444595 -0.016166056 7.1278827e-22)
(0.083553688 -0.017048364 -6.5540841e-22)
(0.084819451 -0.018033503 -2.0705494e-21)
(0.085839925 -0.018858952 6.7689201e-22)
(0.087354202 -0.019603355 5.2817696e-22)
(0.08833952 -0.020812929 5.3859557e-22)
(0.089874879 -0.021435585 -1.2476322e-21)
(0.091105936 -0.022837946 3.8591921e-23)
(0.086710507 0.00098841678 -4.0356194e-22)
(0.085391636 0.00064015036 2.5082641e-21)
(0.090406382 0.00020448728 3.6477301e-22)
(0.091554726 0.00098994149 -2.8865518e-21)
(0.093671401 0.0017903219 -9.2389562e-24)
(0.09633536 0.0025047219 -8.0609165e-23)
(0.098867628 0.0028737068 3.4868207e-22)
(0.10105602 0.0028982444 2.783773e-21)
(0.1027335 0.0028701687 -6.8683489e-21)
(0.10378189 0.002970045 -1.2870381e-21)
(0.10417919 0.0031383874 -1.3377079e-21)
(0.10396627 0.0032867084 7.4111453e-22)
(0.10326072 0.0033789074 -1.2685681e-22)
(0.10211154 0.0033792159 3.0617407e-23)
(0.10062547 0.003368359 3.5409271e-21)
(0.098893997 0.0033303183 2.0360833e-22)
(0.096952358 0.003236676 -1.9443628e-24)
(0.09475165 0.0031640095 -9.7255145e-22)
(0.092233068 0.0031933107 2.7405804e-22)
(0.089257982 0.0033134624 3.9392183e-22)
(0.08574449 0.0035259796 -3.7135632e-22)
(0.081860236 0.0037933195 -1.4344457e-21)
(0.078242581 0.004022047 1.7706462e-21)
(0.076084526 0.0041168437 4.180553e-22)
(0.075857508 0.0040091411 5.9934951e-21)
(0.076600259 0.0035185757 0)
(0.077425314 0.0027747751 -6.908144e-21)
(0.077963151 0.0018759934 2.0375209e-21)
(0.078036574 0.00094190878 -2.7382449e-22)
(0.077747736 -2.9553168e-06 6.3465834e-24)
(0.077239822 -0.00093491107 1.0117861e-22)
(0.076660101 -0.0018419561 2.5399649e-21)
(0.076088873 -0.002709723 -2.4815411e-21)
(0.075636098 -0.0035524969 6.5074348e-21)
(0.075307777 -0.0043643032 -3.0822766e-21)
(0.075152699 -0.005176838 5.6575185e-24)
(0.075141925 -0.0059684089 4.6334074e-22)
(0.075313697 -0.0067661662 8.6587947e-22)
(0.075607284 -0.0075975023 -1.0121544e-21)
(0.076008784 -0.0083504727 -5.2087606e-22)
(0.076551933 -0.0092444255 -2.0052036e-21)
(0.077154417 -0.010029709 2.4730902e-21)
(0.077839867 -0.010831443 0)
(0.07870808 -0.0117247 1.6446857e-21)
(0.079608724 -0.012596729 1.6074673e-21)
(0.080539136 -0.013292048 1.6225783e-21)
(0.081619877 -0.014274446 -8.4536673e-22)
(0.082704979 -0.014986475 4.5446359e-22)
(0.083825047 -0.015964518 7.2172249e-22)
(0.085088082 -0.016564318 -1.9139397e-21)
(0.086087736 -0.017581528 -1.9971931e-21)
(0.087659193 -0.018396047 7.5320153e-22)
(0.088723233 -0.019293485 0)
(0.090112563 -0.019857237 8.7103379e-22)
(0.091159259 -0.021003935 -2.0798695e-21)
(0.086774101 0.0010371528 1.3739674e-21)
(0.085476133 0.00049150309 -7.5096366e-23)
(0.09045966 3.7025921e-05 1.027646e-21)
(0.091521945 0.00083685903 3.2449648e-21)
(0.093606937 0.0015723283 -3.5550389e-21)
(0.096266853 0.0022450618 -3.3542779e-21)
(0.098822886 0.0026292156 1.1244805e-21)
(0.10103656 0.0026929375 -2.8502973e-21)
(0.10273228 0.0027169276 -2.4486644e-22)
(0.10378743 0.0028314835 -2.0814793e-21)
(0.10420139 0.0030285755 1.4404866e-21)
(0.10402099 0.0031763473 -9.8866291e-24)
(0.10335574 0.0032236193 -1.5408667e-22)
(0.10223061 0.0032106864 -4.6332315e-23)
(0.10075601 0.0031719997 3.7999836e-21)
(0.099047774 0.0031239309 1.2367427e-21)
(0.097141423 0.0030498414 8.2973272e-22)
(0.094968467 0.0029701788 6.0060602e-22)
(0.092480989 0.0029846234 3.8486268e-22)
(0.089549389 0.0030839556 3.8694781e-22)
(0.086080777 0.0032939882 -1.0070407e-22)
(0.082218656 0.0035372141 -1.9530566e-21)
(0.078546322 0.0037799491 3.2503785e-24)
(0.076238163 0.0038953056 -4.1922567e-21)
(0.07590395 0.0038491293 0)
(0.076667263 0.0034276894 2.7910255e-22)
(0.077564741 0.0027563025 -2.9833493e-23)
(0.07819315 0.0019256199 2.810754e-22)
(0.078351563 0.0010510658 -1.4572485e-21)
(0.078132128 0.00015660075 -2.0425126e-22)
(0.077665418 -0.00072538505 -9.7043034e-23)
(0.077092141 -0.0015856874 1.1853101e-21)
(0.076527705 -0.0024158799 -1.0071982e-22)
(0.076043093 -0.0032199273 3.2491176e-21)
(0.075698335 -0.003996526 -2.1782888e-21)
(0.075516074 -0.0047730957 1.697671e-22)
(0.075491316 -0.0055184513 -2.5006402e-21)
(0.075642533 -0.006296681 -1.4848751e-21)
(0.075913066 -0.0069956315 1.970776e-21)
(0.076339828 -0.0078005019 -2.382471e-22)
(0.076832092 -0.0085216031 -8.9272855e-22)
(0.077428725 -0.0092712083 -4.966499e-22)
(0.078168975 -0.010135653 -4.8763691e-23)
(0.078963245 -0.010874837 -9.3521585e-22)
(0.079785479 -0.011576775 -7.6236461e-22)
(0.080839699 -0.012431229 1.0306263e-21)
(0.081812985 -0.013235277 1.2353139e-21)
(0.082936876 -0.0138708 0)
(0.084008396 -0.014792712 -1.1275765e-22)
(0.085218129 -0.015361227 2.3121427e-24)
(0.08651129 -0.016510634 -2.8149711e-21)
(0.087690319 -0.016804853 1.7262498e-22)
(0.08866978 -0.017647053 -1.3378058e-21)
(0.090281284 -0.018379734 1.2778576e-21)
(0.091411267 -0.019360421 1.315843e-21)
(0.084433096 0.00099304757 2.002762e-22)
(0.084762155 0.00050102148 5.7738728e-22)
(0.089837289 -2.4246484e-05 7.3054219e-23)
(0.090875496 0.00076542293 -1.275846e-22)
(0.093091118 0.0014220852 3.4828947e-21)
(0.09594604 0.0020442607 -1.5745552e-21)
(0.098675483 0.002413578 -1.7798947e-22)
(0.10098845 0.0024858925 -2.670446e-21)
(0.10272502 0.0025299038 2.7251654e-21)
(0.103786 0.0026810287 1.5371504e-21)
(0.10421729 0.0029043976 -3.6750925e-22)
(0.10407689 0.0030289316 -5.8190774e-22)
(0.10344552 0.0030712605 1.2366086e-22)
(0.10234894 0.0030793905 -1.4533591e-23)
(0.10089465 0.0029860592 -7.2480239e-24)
(0.099196019 0.0028954857 -2.1517383e-22)
(0.097313732 0.0028350115 0)
(0.095174791 0.0027668471 5.2273294e-22)
(0.092724538 0.0027756627 1.972263e-21)
(0.089835613 0.0028633397 1.3844165e-21)
(0.086415522 0.0030693417 -1.7437632e-21)
(0.082578275 0.0032947395 -1.3616004e-21)
(0.078850767 0.003520359 -2.6048345e-24)
(0.076390669 0.0036557851 6.1645893e-22)
(0.075930096 0.0036597047 -1.6546099e-22)
(0.076696455 0.0033193314 0)
(0.077659514 0.0027092948 3.2464048e-21)
(0.07837909 0.0019430523 2.1948824e-22)
(0.078629993 0.0011128095 6.6511637e-21)
(0.078479479 0.00028373534 2.8471894e-21)
(0.078057015 -0.00054550188 -2.4410982e-21)
(0.077509831 -0.0013602873 -5.7893423e-24)
(0.0769367 -0.0021482376 -1.1601232e-21)
(0.076448606 -0.0029007492 -4.9753101e-24)
(0.076080681 -0.003639136 -2.3875276e-22)
(0.075875467 -0.0043456199 -1.0413369e-21)
(0.075829177 -0.0050760448 1.883987e-21)
(0.07594427 -0.0057487996 -4.3211219e-23)
(0.076222947 -0.006470726 4.7001645e-22)
(0.076601856 -0.0071326404 0)
(0.07710257 -0.0078391618 2.0255362e-21)
(0.077728426 -0.0086396689 -1.6141361e-21)
(0.078390696 -0.0092987754 1.0553325e-21)
(0.079139657 -0.0099649968 -1.3949216e-21)
(0.080075604 -0.010805183 -2.3478469e-22)
(0.081017255 -0.011523285 -1.4329052e-21)
(0.081970719 -0.012071976 -1.0493895e-21)
(0.083078069 -0.012966173 5.9484259e-22)
(0.084210268 -0.013557006 -1.9600345e-22)
(0.085413789 -0.014318548 -1.09455e-21)
(0.086437654 -0.015060564 -5.5830621e-22)
(0.087726057 -0.015243987 -7.4027358e-23)
(0.089056612 -0.016666354 2.7754905e-21)
(0.090315079 -0.016885885 -6.5353385e-22)