/*--------------------------------*- C++ -*----------------------------------*\
| =========                 |                                                 |
| \\      /  F ield         | OpenFOAM: The Open Source CFD Toolbox           |
|  \\    /   O peration     | Version:  2406                                  |
|   \\  /    A nd           | Website:  www.openfoam.com                      |
|    \\/     M anipulation  |                                                 |
\*---------------------------------------------------------------------------*/
FoamFile
{
    version     2.0;
    format      ascii;
    arch        "LSB;label=32;scalar=64";
    class       volScalarField;
    location    "200";
    object      k;
}
// * * * * * * * * * * * * * * * * * * * * * * * * * * * * * * * * * * * * * //

dimensions      [0 2 -2 0 0 0 0];

internalField   nonuniform List<scalar> 
20580
(
3.2220894e-06
2.5767681e-06
2.0103682e-06
1.6405987e-06
1.3858602e-06
1.1993559e-06
1.0545951e-06
9.4200623e-07
8.4985843e-07
7.7578914e-07
7.158644e-07
6.6927424e-07
6.3077766e-07
5.9994312e-07
5.7760402e-07
5.5975559e-07
5.4663303e-07
5.391491e-07
5.3783621e-07
5.3831656e-07
5.3828276e-07
5.3892373e-07
5.4037603e-07
5.6143553e-07
5.9534813e-07
6.1416064e-07
6.2764766e-07
6.2025225e-07
6.3468669e-07
6.8225224e-07
7.2929503e-07
3.2348292e-06
2.6025e-06
2.0424274e-06
1.6818695e-06
1.4214348e-06
1.2295633e-06
1.073514e-06
9.5557601e-07
8.6119943e-07
7.8501667e-07
7.2378477e-07
6.7597611e-07
6.35873e-07
6.0454536e-07
5.7915006e-07
5.5957456e-07
5.4670803e-07
5.4006321e-07
5.3746054e-07
5.3865582e-07
5.4421812e-07
5.4502096e-07
5.4966534e-07
5.7145692e-07
6.1974499e-07
6.8559651e-07
7.226553e-07
7.6142264e-07
7.8585026e-07
8.4870444e-07
8.1509515e-07
3.238982e-06
2.5965735e-06
2.0384682e-06
1.6908572e-06
1.4364645e-06
1.2471913e-06
1.0935055e-06
9.7054222e-07
8.7212577e-07
7.9360572e-07
7.3085732e-07
6.8202518e-07
6.4037423e-07
6.0876564e-07
5.8067412e-07
5.606673e-07
5.4307568e-07
5.373874e-07
5.2994733e-07
5.289837e-07
5.3600671e-07
5.3891349e-07
5.4211116e-07
5.575943e-07
5.9581703e-07
6.7032723e-07
7.1684706e-07
7.4540271e-07
7.9197644e-07
8.621585e-07
9.8023868e-07
3.2446167e-06
2.5762252e-06
2.0151093e-06
1.6799553e-06
1.4326433e-06
1.2462077e-06
1.1004289e-06
9.822043e-07
8.833463e-07
8.0257596e-07
7.3736824e-07
6.868394e-07
6.4411572e-07
6.1176892e-07
5.8327461e-07
5.6070498e-07
5.4277098e-07
5.3322349e-07
5.2399937e-07
5.1761355e-07
5.2204497e-07
5.2430457e-07
5.2670197e-07
5.3834345e-07
5.6789903e-07
6.295217e-07
7.1350662e-07
7.5422721e-07
7.7668757e-07
8.2694327e-07
9.59282e-07
3.2504546e-06
2.5725415e-06
1.9822619e-06
1.6412255e-06
1.4088599e-06
1.2362256e-06
1.096557e-06
9.8511124e-07
8.9009335e-07
8.1252602e-07
7.4866465e-07
6.9552791e-07
6.5138273e-07
6.1711832e-07
5.8866494e-07
5.6327996e-07
5.4457949e-07
5.3241229e-07
5.2264563e-07
5.1359787e-07
5.1633089e-07
5.177679e-07
5.1995717e-07
5.3047328e-07
5.5825861e-07
6.0065647e-07
6.8986061e-07
7.7832694e-07
8.2155599e-07
9.1780653e-07
9.7326036e-07
3.2591525e-06
2.5918189e-06
1.9799869e-06
1.6279692e-06
1.3898296e-06
1.220423e-06
1.0857724e-06
9.7986992e-07
8.9003447e-07
8.1637959e-07
7.5702213e-07
7.0660646e-07
6.6597997e-07
6.298531e-07
6.0030162e-07
5.7357306e-07
5.5386977e-07
5.3794163e-07
5.2572994e-07
5.1597354e-07
5.1700077e-07
5.1590355e-07
5.1422547e-07
5.2164904e-07
5.3870847e-07
5.7374921e-07
6.419376e-07
7.6478129e-07
8.2686811e-07
9.828591e-07
1.0350557e-06
3.2622133e-06
2.6001491e-06
1.9858457e-06
1.6288818e-06
1.3854118e-06
1.2073701e-06
1.0719081e-06
9.6525592e-07
8.8360682e-07
8.1435351e-07
7.5915063e-07
7.1622338e-07
6.798024e-07
6.5225199e-07
6.2479715e-07
6.0269038e-07
5.8345281e-07
5.6418345e-07
5.4650564e-07
5.3294387e-07
5.2659736e-07
5.2039782e-07
5.1368368e-07
5.1500594e-07
5.2089738e-07
5.3234964e-07
5.6540204e-07
6.7422739e-07
7.7614677e-07
9.4800642e-07
1.0602312e-06
3.2970534e-06
2.6365952e-06
2.0294656e-06
1.6546281e-06
1.3984144e-06
1.2141053e-06
1.0745387e-06
9.6511517e-07
8.7884161e-07
8.1110856e-07
7.5724327e-07
7.1907392e-07
6.8958723e-07
6.7086889e-07
6.5336531e-07
6.3778777e-07
6.2634684e-07
6.128152e-07
5.9796081e-07
5.8619072e-07
5.7043856e-07
5.5473163e-07
5.4010424e-07
5.3066881e-07
5.2895619e-07
5.3108637e-07
5.4367952e-07
5.8516435e-07
6.5912367e-07
7.5681008e-07
9.8849446e-07
3.6062546e-06
3.1289378e-06
2.3753113e-06
1.8652632e-06
1.5304168e-06
1.2986678e-06
1.1245774e-06
9.909938e-07
8.8942461e-07
8.1419321e-07
7.5572836e-07
7.1700613e-07
6.8916742e-07
6.7177882e-07
6.5829623e-07
6.4537834e-07
6.367995e-07
6.2719667e-07
6.1868228e-07
6.148704e-07
6.0600491e-07
5.9820985e-07
5.9717767e-07
5.965408e-07
5.8639357e-07
5.8082045e-07
5.8708717e-07
6.1964841e-07
6.8851274e-07
7.5807522e-07
8.7064529e-07
5.1824492e-06
4.7112472e-06
3.5902396e-06
2.7947985e-06
2.1875858e-06
1.7298103e-06
1.3684432e-06
1.1161416e-06
9.4989799e-07
8.4007393e-07
7.6667954e-07
7.1727102e-07
6.8434422e-07
6.595322e-07
6.400388e-07
6.2398145e-07
6.1276775e-07
6.0084593e-07
5.9637705e-07
5.9976243e-07
5.9933077e-07
6.0266862e-07
6.1556562e-07
6.3350673e-07
6.4778729e-07
6.7085937e-07
7.1740293e-07
7.5794166e-07
8.1186382e-07
9.0568669e-07
9.4294132e-07
4.0835189e-06
4.0226539e-06
3.6314587e-06
3.2238467e-06
2.7825484e-06
2.3021209e-06
1.8641242e-06
1.454791e-06
1.1364328e-06
9.3572759e-07
8.1872423e-07
7.4594043e-07
7.020286e-07
6.7112369e-07
6.4626604e-07
6.2634274e-07
6.0608436e-07
5.9055628e-07
5.7627054e-07
5.6642784e-07
5.6470164e-07
5.7207069e-07
5.932444e-07
6.2213318e-07
6.3892753e-07
6.6876771e-07
7.1574792e-07
8.1408629e-07
8.7255846e-07
1.040218e-06
1.0883861e-06
3.1091287e-06
2.635561e-06
2.5983231e-06
2.5355069e-06
2.3527639e-06
2.1140184e-06
1.8172356e-06
1.5513824e-06
1.3460064e-06
1.1683356e-06
1.0162223e-06
9.0432349e-07
8.3976528e-07
8.0309182e-07
7.7649689e-07
7.466438e-07
7.0997265e-07
6.7356887e-07
6.3677723e-07
6.0732381e-07
5.7876847e-07
5.6972087e-07
5.793561e-07
5.893124e-07
5.9978274e-07
6.1749446e-07
6.5501186e-07
7.2683495e-07
8.1685502e-07
9.6241804e-07
1.1784434e-06
3.1064503e-06
2.3944494e-06
2.0366226e-06
1.8176782e-06
1.653003e-06
1.4982441e-06
1.3701255e-06
1.2974089e-06
1.2442006e-06
1.2117818e-06
1.1997303e-06
1.2003862e-06
1.2012445e-06
1.2041523e-06
1.2097327e-06
1.2052447e-06
1.1729175e-06
1.09984e-06
1.0137393e-06
9.1082506e-07
7.8791658e-07
6.888559e-07
6.428089e-07
6.2699725e-07
6.1580638e-07
6.1310063e-07
6.2920183e-07
6.5728948e-07
7.1469702e-07
7.783064e-07
9.4460542e-07
3.1524531e-06
2.5652122e-06
2.1309097e-06
1.862219e-06
1.6574691e-06
1.4625784e-06
1.2971608e-06
1.1356145e-06
1.0573697e-06
1.0590789e-06
1.0796947e-06
1.1221792e-06
1.1647386e-06
1.1970224e-06
1.2179326e-06
1.2253725e-06
1.219415e-06
1.1859353e-06
1.140701e-06
1.0837761e-06
1.0270048e-06
9.6976966e-07
9.2192403e-07
8.7879068e-07
8.1352193e-07
7.508846e-07
7.4620157e-07
7.7088532e-07
8.0863979e-07
8.7497827e-07
9.9247481e-07
3.4370196e-06
3.2577417e-06
2.7243826e-06
2.3907835e-06
2.0623845e-06
1.7660451e-06
1.4869865e-06
1.24029e-06
1.0935093e-06
1.0040933e-06
9.481339e-07
9.2034174e-07
9.1527518e-07
9.1564532e-07
9.1405563e-07
9.1096863e-07
8.9463497e-07
8.7385741e-07
8.715532e-07
8.7421275e-07
8.9031364e-07
9.0834886e-07
9.2645569e-07
9.5966355e-07
9.9893976e-07
1.0546697e-06
1.1145833e-06
1.2050651e-06
1.2636899e-06
1.3848131e-06
1.3572982e-06
3.2748388e-06
2.9830573e-06
2.6333877e-06
2.402619e-06
2.1204208e-06
1.8391386e-06
1.6073063e-06
1.4069446e-06
1.2348415e-06
1.099119e-06
1.0146543e-06
9.6155084e-07
9.2919403e-07
9.119655e-07
8.8946498e-07
8.6475946e-07
8.2503782e-07
7.7243568e-07
7.1892637e-07
6.9754459e-07
7.0068519e-07
7.1904243e-07
7.5317283e-07
8.4023236e-07
9.1528045e-07
1.0396194e-06
1.1193004e-06
1.2977421e-06
1.4749113e-06
1.7251602e-06
2.0392326e-06
3.2533084e-06
2.6437517e-06
2.1734598e-06
1.9227127e-06
1.7180242e-06
1.5507529e-06
1.4030828e-06
1.2953476e-06
1.1871869e-06
1.0905428e-06
1.0285019e-06
9.8424672e-07
9.4973292e-07
9.2512495e-07
8.960346e-07
8.5278607e-07
7.9894316e-07
7.5072122e-07
7.0021889e-07
6.5367684e-07
6.3484256e-07
6.377041e-07
6.4168754e-07
6.6149514e-07
7.0830949e-07
7.9517174e-07
9.0231748e-07
1.0041365e-06
1.2556854e-06
1.4721984e-06
1.8888646e-06
3.1903498e-06
2.5262295e-06
2.0026004e-06
1.6864226e-06
1.4693307e-06
1.3063794e-06
1.1856311e-06
1.0909894e-06
1.0083973e-06
9.5573315e-07
9.1771529e-07
8.8029611e-07
8.509176e-07
8.2877096e-07
8.0572008e-07
7.7639199e-07
7.4804653e-07
7.191318e-07
6.8899944e-07
6.5877665e-07
6.3675523e-07
6.2399152e-07
6.1736938e-07
6.1724719e-07
6.3221646e-07
6.6001941e-07
6.9717036e-07
7.2759456e-07
8.1334795e-07
9.0191587e-07
1.1372317e-06
3.2685968e-06
2.7014803e-06
2.1120497e-06
1.823176e-06
1.6172999e-06
1.4618458e-06
1.3631021e-06
1.2380667e-06
1.1834691e-06
1.0911189e-06
1.013175e-06
9.6063996e-07
9.2235692e-07
8.9088949e-07
8.583929e-07
8.262321e-07
7.9521173e-07
7.6009208e-07
7.3086835e-07
7.0169252e-07
6.7177039e-07
6.5501774e-07
6.4820397e-07
6.4632486e-07
6.6008064e-07
6.8965613e-07
7.3302988e-07
7.7479771e-07
8.2682862e-07
9.138242e-07
9.9988681e-07
3.2019537e-06
2.8161877e-06
2.5619827e-06
2.4651459e-06
2.291127e-06
2.1466878e-06
1.9620429e-06
1.7357523e-06
1.6105169e-06
1.4108976e-06
1.2534028e-06
1.1509085e-06
1.0793075e-06
1.025878e-06
9.8326878e-07
9.4182387e-07
9.0823802e-07
8.8458802e-07
8.7435435e-07
8.6652638e-07
8.665441e-07
8.7819541e-07
8.8602752e-07
8.9787816e-07
9.3077613e-07
9.9817106e-07
1.0583103e-06
1.1424795e-06
1.1813137e-06
1.3121275e-06
1.3317629e-06
3.2322989e-06
2.9279139e-06
2.6429605e-06
2.6312901e-06
2.603576e-06
2.4526239e-06
2.5990594e-06
2.4492348e-06
2.7894515e-06
2.5690859e-06
2.459593e-06
2.416056e-06
2.4008921e-06
2.3997777e-06
2.3882544e-06
2.363767e-06
2.3374691e-06
2.3224339e-06
2.3231435e-06
2.319093e-06
2.3513904e-06
2.4359346e-06
2.4819217e-06
2.5171459e-06
2.5920233e-06
2.7630605e-06
2.9008771e-06
3.0431492e-06
3.0757209e-06
3.1939669e-06
3.1015201e-06
3.6948303e-06
5.4672698e-06
6.7186006e-06
7.2904596e-06
8.8762746e-06
8.1523994e-06
1.1326468e-05
1.0869635e-05
1.4437929e-05
1.23572e-05
1.1427058e-05
1.1420746e-05
1.1479904e-05
1.1506524e-05
1.1474108e-05
1.134504e-05
1.1224972e-05
1.1157273e-05
1.1162374e-05
1.1128733e-05
1.1154386e-05
1.1367393e-05
1.1448914e-05
1.1409463e-05
1.139225e-05
1.1573442e-05
1.1766461e-05
1.1875772e-05
1.1773617e-05
1.1611238e-05
1.1149052e-05
1.8900007e-05
4.1456858e-05
6.4000406e-05
4.7998456e-05
6.8627846e-05
5.0459529e-05
7.3341499e-05
5.3170541e-05
7.6471018e-05
5.9427995e-05
5.433973e-05
5.0408168e-05
4.7550022e-05
4.5399128e-05
4.4364218e-05
4.3429227e-05
4.3374856e-05
4.3020629e-05
4.3112708e-05
4.2644938e-05
4.2836606e-05
4.1667557e-05
4.1490702e-05
4.0517699e-05
4.0765454e-05
3.9259908e-05
3.8736854e-05
3.7098028e-05
3.7212867e-05
3.5927507e-05
3.5385957e-05
3.3435773e-05
1.2430305e-05
3.7996984e-06
1.6607874e-06
1.1836302e-06
1.2645204e-06
2.0716258e-06
2.3389151e-06
1.6425723e-06
1.1769169e-06
1.088763e-06
1.3307777e-06
1.2705352e-06
1.0583507e-06
9.5814892e-07
1.057816e-06
1.2044755e-06
1.2364468e-06
1.1670838e-06
1.0767982e-06
1.0791511e-06
9.8123211e-07
8.2515363e-07
3.4299166e-05
1.3503931e-05
4.4910295e-06
2.0572892e-06
1.4045823e-06
1.4060013e-06
2.2156423e-06
3.0466934e-06
2.5917039e-06
1.718786e-06
1.3290824e-06
1.5854113e-06
1.5828866e-06
1.4475231e-06
1.1703143e-06
1.2012374e-06
1.3851832e-06
1.4608932e-06
1.4517571e-06
1.3172891e-06
1.3118033e-06
1.2744185e-06
1.0954191e-06
3.235998e-05
1.4616718e-05
5.4483646e-06
2.6226673e-06
1.798718e-06
1.6453869e-06
2.5078673e-06
3.6546903e-06
3.501797e-06
2.4977371e-06
1.6394899e-06
1.8037915e-06
1.8675516e-06
1.8149254e-06
1.5898638e-06
1.4508844e-06
1.634856e-06
1.7734026e-06
1.7609372e-06
1.5754542e-06
1.5685847e-06
1.5949365e-06
1.5636621e-06
3.308641e-05
1.6237185e-05
7.0665117e-06
3.9175631e-06
2.7108177e-06
2.1979626e-06
3.1760273e-06
4.6819044e-06
4.5351664e-06
3.6223624e-06
2.1723762e-06
2.1448159e-06
2.2507585e-06
2.2565621e-06
2.0773099e-06
1.8013482e-06
1.8820348e-06
2.0342252e-06
2.1021509e-06
2.0586052e-06
1.9158873e-06
1.9658362e-06
1.9330319e-06
2.8426957e-05
1.7345408e-05
8.8010452e-06
5.5744107e-06
4.1150047e-06
3.1064873e-06
4.106265e-06
6.5286387e-06
6.4851335e-06
5.9186194e-06
3.5274063e-06
2.7355432e-06
2.9160109e-06
2.8598574e-06
2.7704807e-06
2.3327191e-06
2.1798557e-06
2.3456094e-06
2.4331865e-06
2.4894999e-06
2.3886316e-06
2.401416e-06
2.3443549e-06
2.6659898e-05
1.8653023e-05
1.0866474e-05
7.2899976e-06
5.4027396e-06
4.1150914e-06
5.0061461e-06
8.2398029e-06
8.4577625e-06
8.1775244e-06
6.3720043e-06
4.0360926e-06
4.2202811e-06
4.1593823e-06
3.8104873e-06
3.356064e-06
2.8239214e-06
3.0396844e-06
3.2212892e-06
3.3157368e-06
3.2033137e-06
3.0292441e-06
3.0053072e-06
2.5557702e-05
2.0523985e-05
1.3392981e-05
1.0089279e-05
7.6067333e-06
5.8689994e-06
6.5493914e-06
1.0892932e-05
1.1727061e-05
1.1620761e-05
1.0396373e-05
6.5244478e-06
5.9353176e-06
5.7658265e-06
5.0533341e-06
4.559016e-06
3.9444979e-06
4.0012093e-06
4.347943e-06
4.3959819e-06
4.4673286e-06
4.2291966e-06
4.1887004e-06
2.5262138e-05
2.1707165e-05
1.6826533e-05
1.4909064e-05
1.1431106e-05
9.1743977e-06
9.7255609e-06
1.6392386e-05
1.8716231e-05
1.7711576e-05
1.6302722e-05
1.0976888e-05
8.4413134e-06
8.3435451e-06
7.6832626e-06
6.3952321e-06
5.4420973e-06
5.3136335e-06
5.8950022e-06
6.0874013e-06
5.6852815e-06
5.2888523e-06
5.240942e-06
2.4189233e-05
2.3021708e-05
2.2175296e-05
2.2351463e-05
2.0715968e-05
1.6856457e-05
1.7021432e-05
2.9062309e-05
3.4492095e-05
3.0042703e-05
2.6713406e-05
1.9066797e-05
1.3566365e-05
1.3546573e-05
1.3085688e-05
1.0557101e-05
8.3335787e-06
7.3140619e-06
7.662396e-06
8.087094e-06
7.51686e-06
6.7155843e-06
6.2343812e-06
2.1911737e-05
2.440285e-05
2.655502e-05
2.9421921e-05
3.174299e-05
3.2499688e-05
3.417924e-05
5.8109598e-05
6.9155104e-05
5.9908344e-05
4.7580286e-05
3.7118775e-05
2.5976062e-05
2.5557518e-05
2.5326539e-05
2.1558176e-05
1.4732121e-05
1.119356e-05
1.0858082e-05
1.2158605e-05
1.1775938e-05
1.0004908e-05
8.3333329e-06
2.4575797e-05
2.8344575e-05
3.6652485e-05
4.535991e-05
5.5497946e-05
6.4166653e-05
7.2351331e-05
0.00011783655
0.00014401658
0.00012717797
9.8634299e-05
8.3385355e-05
5.8036412e-05
5.4987316e-05
5.6685416e-05
5.084588e-05
2.9721348e-05
1.9589833e-05
1.6639276e-05
2.0580189e-05
2.2171486e-05
1.9545395e-05
1.3843226e-05
2.6617729e-05
3.5448382e-05
4.9745272e-05
6.2541509e-05
8.1415896e-05
0.00011061622
0.00015465522
0.00024340635
0.00028619292
0.00027449845
0.00023849138
0.00021311877
0.00015330229
0.00014229722
0.0001484277
0.00012832073
6.5682411e-05
3.786442e-05
2.8307863e-05
3.2256271e-05
4.3960873e-05
4.3026117e-05
3.0281923e-05
3.5546868e-05
5.0786299e-05
7.4731164e-05
9.5268643e-05
0.00013906921
0.00021119644
0.00032316772
0.00045971502
0.00048482724
0.00046029811
0.0003959701
0.00038607359
0.00039484293
0.00041755698
0.00042059154
0.00030998585
0.00013973451
7.7343511e-05
5.7873862e-05
5.797758e-05
7.196068e-05
7.2666406e-05
5.5000921e-05
4.3258177e-05
6.5786101e-05
9.7857975e-05
0.00012303376
0.0001912093
0.00032996354
0.00055937658
0.00071048984
0.00071120318
0.00063706786
0.00054079594
0.00056515135
0.00073461441
0.0010678561
0.00099814364
0.0006094046
0.00025443672
0.00015363214
0.00012074452
0.0001135801
0.00013646915
0.00013522396
9.859342e-05
5.422188e-05
8.3302398e-05
0.0001280356
0.00016680095
0.00027533052
0.00049999711
0.00084040671
0.00099406514
0.00098281609
0.00087126739
0.00080924369
0.0009105664
0.0014176601
0.0020798449
0.0020577124
0.0012952411
0.00052417423
0.00032876366
0.00028502599
0.00026638801
0.00032629446
0.00030310526
0.000182355
6.1199028e-05
9.5904707e-05
0.00015834765
0.0002102264
0.00035358358
0.00065469264
0.0010505645
0.0012099955
0.0011784335
0.0010321358
0.001005802
0.0011810023
0.0019480606
0.0027404162
0.0027157356
0.0018109226
0.00078653782
0.00054301628
0.00052687117
0.00061460572
0.00071012328
0.00057885807
0.00027656993
7.0784924e-05
0.00011003229
0.00018792456
0.00025493679
0.00043114318
0.00079210417
0.0012036938
0.0013618245
0.0013116946
0.0011629834
0.0011671073
0.0014076486
0.0023584377
0.0032135256
0.0031525417
0.0021565977
0.0011271579
0.00091906134
0.0010970471
0.0014542785
0.0015445092
0.0011473372
0.00048496272
7.5300785e-05
0.00012265799
0.00021944866
0.00030557133
0.00051133465
0.00091272545
0.001333466
0.0014954515
0.0014509531
0.0013393965
0.0013752817
0.0016995046
0.002804049
0.0036672349
0.0035433127
0.0024683848
0.00160133
0.0014960435
0.0019750367
0.0023554784
0.002333047
0.0017142293
0.00075876815
7.4595381e-05
0.0001248224
0.00022834841
0.00034539417
0.0005905549
0.0010314342
0.0014620126
0.0016405418
0.0016247861
0.0015582054
0.0016329915
0.0020542882
0.0032825136
0.0041333528
0.0038690037
0.0026682011
0.0019599814
0.0019215752
0.0025262026
0.0028794291
0.0027471498
0.0019705497
0.0010215791
7.0763066e-05
0.00012292841
0.00022893868
0.00037893539
0.00067794349
0.0011744851
0.0016131593
0.0018162936
0.0018345579
0.0018371387
0.0019745452
0.0025696422
0.0039331344
0.004699662
0.0041972327
0.00298491
0.0025608412
0.0027901762
0.0035942487
0.0038499162
0.0034235381
0.0022378741
0.0014476116
6.8646273e-05
0.00011028069
0.00020801117
0.00039267825
0.00074453785
0.001290901
0.0017658364
0.0020084846
0.0020833429
0.0021768193
0.0024367177
0.0032765521
0.0045942982
0.0051487487
0.0045021674
0.0037439225
0.0035814966
0.0040999743
0.0046345233
0.0047096271
0.0038856575
0.0025460047
0.00202986
6.8270117e-05
9.9144496e-05
0.00018422218
0.00037714977
0.00077482288
0.0013896603
0.001872456
0.0021671675
0.0023497877
0.0025818593
0.0030885454
0.0041523139
0.0050979341
0.0053496378
0.0049222404
0.004603782
0.0046605733
0.0052000256
0.0053553161
0.005014423
0.0039214489
0.0029279202
0.0028312799
7.0190192e-05
9.2150845e-05
0.00016562299
0.00035157267
0.00077891156
0.0014384575
0.0019735729
0.0023815084
0.0027373946
0.0031397736
0.0038257106
0.0046251173
0.0051398064
0.0053090642
0.0052470633
0.0052081944
0.0054328897
0.0056302863
0.0055864348
0.0049570823
0.0039195552
0.0034777518
0.0035039405
7.7543813e-05
9.4175568e-05
0.00016085532
0.00034781155
0.00081405592
0.0015184008
0.0021641213
0.0027352078
0.0032178209
0.0036658206
0.0041913513
0.0046550523
0.004975864
0.0052111835
0.0053658059
0.0054947844
0.005726492
0.0057810894
0.0055049956
0.0047314175
0.0039691211
0.0036184919
0.0033868769
8.828647e-05
0.00010639212
0.00017673536
0.00038651069
0.00092906528
0.001669129
0.0024151255
0.0030989712
0.0035864375
0.0039267924
0.0042881397
0.0045889431
0.004835087
0.0050731237
0.0053011885
0.0055367432
0.0057302674
0.0056365018
0.0051061026
0.0043541518
0.0037161467
0.0032884806
0.0028929279
0.00010203492
0.00013006865
0.00022965574
0.00051921532
0.0011514359
0.0018667585
0.0026021907
0.0032688668
0.0037229331
0.0040206544
0.0043140367
0.0045552916
0.0047802333
0.0050311699
0.005225258
0.0053738031
0.0053747749
0.0050103894
0.0044491917
0.0038166798
0.0032866321
0.0028359426
0.0023984978
0.00011686049
0.00016819952
0.00033535499
0.00074948532
0.0013785441
0.0019695966
0.0025819309
0.0031938921
0.0036770233
0.0040457196
0.0043580955
0.0045692456
0.0047927737
0.004996651
0.0050417857
0.0048934445
0.0044797893
0.0039750662
0.0036118845
0.0032801462
0.0028648195
0.0023748639
0.0021177749
0.0001264512
0.00021346042
0.00046454685
0.00095695079
0.0015043925
0.0020071092
0.0025354135
0.0030749511
0.003558273
0.0039828227
0.0043157033
0.004508343
0.0046708905
0.0047235419
0.0044979729
0.0040369762
0.0034762369
0.0030689852
0.0028648082
0.0026530895
0.0023523191
0.0021778639
0.0021275741
0.00012702605
0.000259156
0.00058297428
0.0010810573
0.0015799901
0.0020578595
0.0025598292
0.0030524123
0.0034607715
0.0037735075
0.0039790731
0.004104707
0.0041785258
0.0041059914
0.0037800903
0.0032834943
0.0027806477
0.0024741806
0.0023306121
0.0022020104
0.0021231916
0.0021299545
0.0022582384
0.00012709785
0.00029153587
0.00064834076
0.0011268259
0.0016184326
0.0021014965
0.0025727465
0.0030052889
0.0033086752
0.0034434117
0.0034784558
0.003460338
0.0034428331
0.0033724868
0.0031319228
0.0027323246
0.0023618152
0.0021992828
0.0021618315
0.0021848474
0.0022017324
0.0023111724
0.0027098584
0.00013075125
0.00034954659
0.00072070119
0.0011539589
0.0015941954
0.0020299041
0.0024499676
0.0028113107
0.0030299124
0.0030842928
0.003043024
0.002950038
0.0028677725
0.0027510467
0.0025155204
0.0022035579
0.0020611941
0.0020422836
0.0021787445
0.0023352161
0.0025428935
0.0028692687
0.0032903343
0.000138156
0.00040071988
0.00077305367
0.0011589404
0.0015318311
0.0018853434
0.002226016
0.0025152766
0.0026852349
0.0027366561
0.0027036839
0.0025976351
0.0024622865
0.0022723552
0.0020167292
0.0018647598
0.0018374558
0.001966571
0.0022746712
0.0026887404
0.003034891
0.0032847023
0.0034886126
0.00013899258
0.00042310871
0.00077906957
0.001146064
0.0014874384
0.0017884202
0.0020467135
0.0022493313
0.0023582818
0.0023977249
0.0023566916
0.0022438263
0.0020911197
0.0019197674
0.001805595
0.0017694143
0.0018405955
0.0020979713
0.0025833361
0.0029966136
0.0032220948
0.0033063086
0.0032978904
0.0001376148
0.0004297872
0.0007627936
0.00110264
0.0014212395
0.0017032455
0.0019398261
0.0020768597
0.0021113685
0.0020778355
0.0019616483
0.0018171038
0.0017314366
0.0017050315
0.001747597
0.0018470788
0.0020956769
0.0025304334
0.0028604123
0.0030025997
0.0030314478
0.0029543107
0.0026674118
0.00014742914
0.00047019231
0.00077339978
0.0010959771
0.0013838786
0.0016242178
0.0017926226
0.0018612181
0.0018568254
0.0017788519
0.0016543971
0.0015781829
0.0015694911
0.0016566877
0.0018279185
0.0021035768
0.0024222723
0.002673886
0.0027813193
0.0027275306
0.002446066
0.0020847046
0.0016537093
0.00014689976
0.00047419406
0.00075203038
0.0010327193
0.0012743642
0.0014641918
0.0015902677
0.0016517119
0.0016627379
0.0016095444
0.0015172954
0.001469297
0.0014879005
0.001605598
0.0018076675
0.0020603739
0.0023080881
0.0024540636
0.0024147081
0.0021747805
0.0018088294
0.0014327806
0.0011518858
0.00014401192
0.00046237562
0.0007128427
0.00096772985
0.001185694
0.0013478392
0.0014443706
0.0014831514
0.0014832867
0.0014377007
0.0013738109
0.0013541799
0.0014028044
0.0015450138
0.0017471032
0.0019475782
0.0020713722
0.0020973319
0.0020081264
0.0018032018
0.0015113354
0.0012183136
0.00099326614
0.00014222996
0.000451317
0.00067540947
0.00090327091
0.0011012999
0.0012495012
0.0013337255
0.0013591524
0.0013449556
0.001293652
0.0012472202
0.0012475078
0.001333604
0.0015098845
0.0017150047
0.0018621377
0.0019063225
0.0018617372
0.0017252602
0.0015135224
0.0012683324
0.0010431409
0.00087145434
0.00014250661
0.00045027953
0.00064942771
0.00084701872
0.0010162143
0.0011425816
0.0012145063
0.0012383158
0.0012248851
0.0011790548
0.0011514053
0.0011741757
0.0012884917
0.0014708212
0.0016485469
0.001735369
0.0017387337
0.0016518428
0.0015000018
0.0013056862
0.0011020262
0.00092292648
0.00078773567
0.00014043797
0.00044647058
0.00062498685
0.00079765998
0.00094090709
0.001042947
0.0010963807
0.0011137388
0.0011029034
0.0010787713
0.0010764614
0.0011372659
0.0012777764
0.0014516764
0.0015798213
0.0016239071
0.0015906881
0.001480529
0.0013244961
0.0011454932
0.00097152704
0.00082711034
0.00072328403
0.00013447178
0.00043182497
0.00059862565
0.00075381221
0.00088035731
0.00096580327
0.0010043461
0.001012204
0.0009988393
0.00098898916
0.0010132108
0.0011097362
0.0012679368
0.001424553
0.0014999211
0.0015087393
0.0014456752
0.0013264248
0.0011767851
0.001017833
0.00087489914
0.00076773092
0.00069827979
0.00012929265
0.00041854147
0.00057213649
0.00071469887
0.00082940533
0.00090300263
0.00093328372
0.00093504211
0.00092026606
0.00091828911
0.00096470578
0.0010841753
0.0012423553
0.0013631202
0.0014049111
0.001390782
0.0013148631
0.0011979698
0.0010603212
0.00092257696
0.00080913137
0.00073707994
0.00069799724
0.00012891183
0.00040900437
0.00054640116
0.00067169815
0.00077329371
0.00083712491
0.00086238694
0.0008634326
0.00085374325
0.00086217679
0.00092727823
0.0010583003
0.0012050459
0.0012921033
0.0013145681
0.0012859192
0.0012069344
0.0010972533
0.00097332919
0.00085490938
0.00076864727
0.00072462287
0.00070142871
0.00012480662
0.00039833493
0.00052895818
0.00063883525
0.00072329929
0.00077423919
0.00079387259
0.000794319
0.00079054862
0.00081170451
0.00089283102
0.0010290293
0.0011622682
0.0012266284
0.0012366187
0.0011975396
0.0011174107
0.0010148525
0.0009039693
0.00080482561
0.00074771201
0.00072281486
0.00070975781
0.00011293792
0.00037379225
0.00050431157
0.00061242316
0.00069226769
0.0007359009
0.00074903109
0.00074431029
0.00074025684
0.00076686829
0.00085612225
0.00099223003
0.0011110865
0.0011609903
0.0011630657
0.0011184316
0.0010394978
0.0009440245
0.00084714451
0.00077010219
0.00073706893
0.0007280157
0.00072663851
0.00010554492
0.00034389371
0.00046270537
0.00056378416
0.00064634012
0.00069705799
0.00071415475
0.00070929094
0.00070346752
0.00072827843
0.00081396695
0.00094233601
0.0010497534
0.0010924564
0.0010921718
0.0010488752
0.00097522097
0.00088826245
0.00080560014
0.00075265532
0.00073678565
0.00073827585
0.00075044323
9.9728874e-05
0.00032963603
0.00044044886
0.00052648711
0.00059485697
0.00064191081
0.00066369838
0.00066420765
0.00065998267
0.00068351417
0.00076480753
0.00088489456
0.00098771621
0.0010304377
0.0010315393
0.00099253624
0.0009252538
0.00084635392
0.00077573687
0.00074127111
0.00073478297
0.00074719666
0.00077357577
8.648261e-05
0.00029133529
0.00040903179
0.00049673162
0.00056459868
0.00060645352
0.00062464293
0.00062463394
0.00061876437
0.00063532031
0.00070717182
0.00082382489
0.00092791417
0.00097805381
0.00098209168
0.00094727883
0.00088454184
0.00080998486
0.00074789175
0.00072405636
0.00072379344
0.00074421137
0.00078002141
7.3538587e-05
0.0002459262
0.00036286175
0.00044295931
0.00051542939
0.00056948772
0.00059667429
0.00059917789
0.0005919146
0.00059625032
0.00064460328
0.0007513408
0.00085678712
0.00091797106
0.00093200432
0.00090738436
0.00085271852
0.00078314173
0.00072275412
0.00070106742
0.00070521025
0.000733198
0.00077404631
6.1103674e-05
0.00022027059
0.00033958774
0.00041078943
0.00046410635
0.00051374309
0.00055060556
0.00056426038
0.00056118482
0.00055643141
0.00058174027
0.00066220468
0.00077696517
0.00085319865
0.00088182854
0.00087224285
0.00083119702
0.00077088648
0.00071010019
0.00068064716
0.0006826556
0.00071230475
0.00075823738
5.5640349e-05
0.00014506342
0.0003006247
0.0003885848
0.00044306316
0.00048107874
0.00051120541
0.00052899073
0.00053068295
0.00052452006
0.00052936585
0.00057068725
0.00067192531
0.00078244483
0.00083798535
0.00084419627
0.00081874025
0.00076829817
0.00070958829
0.00066554965
0.00065579604
0.00067957171
0.00072616715
6.3553378e-05
9.3322281e-05
0.00018659289
0.0003200838
0.00040651454
0.00045761965
0.00049067547
0.00051025996
0.0005143535
0.0005101998
0.00050135788
0.00051093602
0.00055818751
0.00066080396
0.0007642191
0.00080841681
0.00080234151
0.0007672564
0.00071293845
0.00066253213
0.00063416445
0.00064364416
0.00068581188
8.9638443e-05
9.3867778e-05
0.00012810269
0.00020578243
0.00030324283
0.00038887534
0.00044781742
0.00048290349
0.00049713846
0.000497859
0.00049188467
0.00048650717
0.00049890119
0.0005459927
0.00064178045
0.0007372391
0.00077192096
0.00076081319
0.00072559386
0.00067085714
0.00063212505
0.00062050979
0.00065005792
0.00015246167
0.00011973169
0.00013383071
0.00017665065
0.00023984899
0.00030451473
0.00036344099
0.00041351228
0.0004498416
0.00046871002
0.00047345104
0.00047017044
0.00046968151
0.00048290773
0.00052733398
0.00061547058
0.00070838148
0.0007381629
0.00072521997
0.0006943527
0.0006433658
0.00061584586
0.00060831626
0.00020593083
0.0001588076
0.00017037189
0.00019600979
0.00024308805
0.00029375849
0.00033941182
0.00037725775
0.00040711898
0.00042786342
0.00044005111
0.00044143411
0.00043971589
0.00044132618
0.00045518238
0.00049606154
0.00057725644
0.00067460193
0.00070436093
0.00069450971
0.00066983869
0.00062770645
0.00059724853
0.00024457483
0.00018256415
0.00020624438
0.00025845693
0.00030255485
0.00033061505
0.00035888153
0.00038658241
0.00040877331
0.00042434401
0.00043337269
0.0004335779
0.00043110348
0.00042479004
0.00042034949
0.00043062255
0.00046365386
0.00053463015
0.00063593487
0.00067194573
0.00066770171
0.00065239172
0.00062015426
0.00028074334
0.00019846215
0.00022489896
0.00028987294
0.00036117145
0.00042285074
0.00045685622
0.00046205437
0.00045844494
0.00045411266
0.00044917065
0.00044216078
0.00043535535
0.00042619822
0.00041611482
0.00040710569
0.00041207407
0.0004349206
0.00049131281
0.00059154965
0.00063947081
0.00064818013
0.00064182424
0.00031050885
0.00020446445
0.00022964477
0.00029237436
0.00036770832
0.00044698974
0.00052103293
0.00057708059
0.0006019557
0.00058538412
0.00054799492
0.0005002552
0.00046748241
0.00044317065
0.00042405345
0.00040894261
0.00039831092
0.00039632588
0.00041117256
0.00045639762
0.00054602773
0.00061156362
0.00064895896
0.00032871152
0.00019752709
0.0002209343
0.00027929603
0.00035354187
0.00043749399
0.00052251513
0.00060398542
0.00067614677
0.00072222811
0.00071990267
0.0006870125
0.00061249017
0.00052274858
0.00046552181
0.00042841347
0.00040504217
0.00039196816
0.00038369918
0.00039323983
0.00042652291
0.00050007651
0.0005900812
0.00033196803
0.00017458634
0.00020166537
0.00026142802
0.0003303508
0.00040910151
0.00050081828
0.00059617408
0.00068446653
0.00076481771
0.00082258714
0.00083891754
0.00081828058
0.00075005544
0.00062347671
0.00051141142
0.00044382648
0.00040527714
0.00038494183
0.00037286714
0.00037778652
0.00040210773
0.00047182655
0.00032057762
0.00015034637
0.0001858027
0.00024424377
0.0003097948
0.00038296034
0.00046671542
0.00056506006
0.0006697104
0.00076434464
0.00084606283
0.00090742282
0.0009319789
0.00091676082
0.00086295604
0.00074441194
0.00058993343
0.00047338233
0.00041043459
0.00037888092
0.00036442266
0.00036510865
0.00038667464
0.0002976911
0.00013313611
0.00017296409
0.00022942915
0.00029166142
0.00035843876
0.00043133319
0.00051644946
0.0006197911
0.00073243816
0.00083193322
0.00090942467
0.00096193713
0.00098038166
0.00096836331