/*--------------------------------*- C++ -*----------------------------------*\
| =========                 |                                                 |
| \\      /  F ield         | OpenFOAM: The Open Source CFD Toolbox           |
|  \\    /   O peration     | Version:  2406                                  |
|   \\  /    A nd           | Website:  www.openfoam.com                      |
|    \\/     M anipulation  |                                                 |
\*---------------------------------------------------------------------------*/
FoamFile
{
    version     2.0;
    format      ascii;
    arch        "LSB;label=32;scalar=64";
    class       volScalarField;
    location    "200";
    object      k;
}
// * * * * * * * * * * * * * * * * * * * * * * * * * * * * * * * * * * * * * //

dimensions      [0 2 -2 0 0 0 0];

internalField   nonuniform List<scalar> 
132739
(
3.3797906e-06
2.7099184e-06
2.2479118e-06
1.9206489e-06
1.679346e-06
1.4946266e-06
1.3487581e-06
1.2306563e-06
1.1330834e-06
1.0511225e-06
9.8131716e-07
9.2116312e-07
8.6880146e-07
8.2281905e-07
7.8212825e-07
7.4587328e-07
7.1337121e-07
6.8407406e-07
6.5753588e-07
6.3338829e-07
6.113263e-07
5.9109547e-07
5.7248126e-07
5.5530018e-07
5.3939522e-07
5.2463394e-07
5.1089967e-07
4.9809074e-07
4.8611905e-07
4.7490634e-07
4.6438675e-07
4.5450237e-07
4.451951e-07
4.364174e-07
4.2812919e-07
4.2028982e-07
4.1286704e-07
4.0583159e-07
3.9915308e-07
3.9280403e-07
3.8676412e-07
3.8101219e-07
3.7552967e-07
3.7029789e-07
3.6530092e-07
3.6052259e-07
3.5594255e-07
3.5154e-07
3.4730158e-07
3.4318044e-07
3.3930552e-07
3.3525481e-07
3.3144291e-07
3.2785327e-07
3.2418458e-07
3.2045548e-07
3.167643e-07
3.1320089e-07
3.0992305e-07
3.0716948e-07
3.0545197e-07
3.0514546e-07
3.0528741e-07
3.0669049e-07
3.1022422e-07
3.1566305e-07
3.228937e-07
3.3170331e-07
3.4175382e-07
3.5264217e-07
3.6396837e-07
3.753778e-07
3.8661676e-07
3.9751317e-07
4.0820253e-07
4.1893554e-07
4.2993595e-07
4.4145601e-07
4.5380308e-07
4.6733235e-07
4.8241965e-07
4.994352e-07
5.1872353e-07
5.4058102e-07
5.6522954e-07
5.9280752e-07
6.233843e-07
6.5698448e-07
6.9362142e-07
7.3334774e-07
7.7628411e-07
8.2260229e-07
8.7264808e-07
9.2764744e-07
9.9053073e-07
1.0642895e-06
1.1467836e-06
1.2283807e-06
1.3010928e-06
1.3718627e-06
1.4585228e-06
1.5550329e-06
1.6750955e-06
1.6795105e-06
3.3798724e-06
2.7103531e-06
2.2485063e-06
1.9213049e-06
1.6800151e-06
1.4952856e-06
1.349399e-06
1.2312756e-06
1.1336805e-06
1.0517002e-06
9.818789e-07
9.2170972e-07
8.6933309e-07
8.2334041e-07
7.8264091e-07
7.4637609e-07
7.1386657e-07
6.8456469e-07
6.5802403e-07
6.338764e-07
6.1181521e-07
5.9158587e-07
5.7297486e-07
5.5579807e-07
5.3989812e-07
5.251403e-07
5.1141161e-07
4.9860892e-07
4.8664278e-07
4.7543898e-07
4.6492793e-07
4.5504925e-07
4.4574926e-07
4.3697827e-07
4.2869533e-07
4.2086269e-07
4.1344323e-07
4.0640653e-07
3.9972626e-07
3.9337453e-07
3.873307e-07
3.815746e-07
3.7608419e-07
3.7084487e-07
3.6584241e-07
3.6104476e-07
3.564233e-07
3.5196332e-07
3.4762843e-07
3.434513e-07
3.3941989e-07
3.3544182e-07
3.3161745e-07
3.2792372e-07
3.2429797e-07
3.2071572e-07
3.1719106e-07
3.1380758e-07
3.1078892e-07
3.0831587e-07
3.0662761e-07
3.0601287e-07
3.066452e-07
3.0872528e-07
3.1244055e-07
3.1788241e-07
3.2499902e-07
3.3359703e-07
3.4336269e-07
3.5391784e-07
3.6487626e-07
3.7589202e-07
3.8671666e-07
3.9716195e-07
4.0730769e-07
4.1720394e-07
4.2690976e-07
4.3655882e-07
4.4634722e-07
4.5654358e-07
4.6749748e-07
4.7963224e-07
4.9344527e-07
5.0948159e-07
5.2831115e-07
5.504757e-07
5.7643258e-07
6.0650176e-07
6.4082876e-07
6.7938801e-07
7.2202712e-07
7.6850563e-07
8.1849468e-07
8.7177676e-07
9.2907525e-07
9.928684e-07
1.0657709e-06
1.1464957e-06
1.2288713e-06
1.3095516e-06
1.3968865e-06
1.4969266e-06
1.6273004e-06
1.7201494e-06
3.3799488e-06
2.7107308e-06
2.2490135e-06
1.9218615e-06
1.6805822e-06
1.4958459e-06
1.3499462e-06
1.2318039e-06
1.1341879e-06
1.0521853e-06
9.8234087e-07
9.2215129e-07
8.6975418e-07
8.2373907e-07
7.8301693e-07
7.4672989e-07
7.1419921e-07
6.8487536e-07
6.5831204e-07
6.3414123e-07
6.120578e-07
5.9180577e-07
5.7316842e-07
5.5596672e-07
5.400412e-07
5.2525733e-07
5.1150192e-07
4.9867115e-07
4.8667768e-07
4.7544675e-07
4.6490625e-07
4.5499682e-07
4.4566676e-07
4.3686542e-07
4.2855056e-07
4.206851e-07
4.1323427e-07
4.0616596e-07
3.994525e-07
3.930692e-07
3.8699315e-07
3.8120462e-07
3.7568372e-07
3.7041386e-07
3.6537756e-07
3.605598e-07
3.5594651e-07
3.5153986e-07
3.4727979e-07
3.4314224e-07
3.3932317e-07
3.3540875e-07
3.3168596e-07
3.2815829e-07
3.2469562e-07
3.2127083e-07
3.1789748e-07
3.1464126e-07
3.1166227e-07
3.0923634e-07
3.0758805e-07
3.068685e-07
3.0731401e-07
3.091592e-07
3.1260226e-07
3.1772466e-07
3.2446073e-07
3.3261525e-07
3.4189748e-07
3.5195506e-07
3.6244318e-07
3.7305215e-07
3.8354516e-07
3.9375782e-07
4.0385724e-07
4.1389065e-07
4.2388262e-07
4.3387909e-07
4.4394067e-07
4.5414076e-07
4.6457988e-07
4.7539888e-07
4.8681537e-07
4.9914718e-07
5.1283704e-07
5.2846177e-07
5.4671574e-07
5.6835997e-07
5.941292e-07
6.2463636e-07
6.6029589e-07
7.0127185e-07
7.4741812e-07
7.9820329e-07
8.5296121e-07
9.1190414e-07
9.7689278e-07
1.0498797e-06
1.1296231e-06
1.2115551e-06
1.2966155e-06
1.3887969e-06
1.5047302e-06
1.6445265e-06
3.3800483e-06
2.7111439e-06
2.2495653e-06
1.9224564e-06
1.6811738e-06
1.4964211e-06
1.3504965e-06
1.2323277e-06
1.1346884e-06
1.0526655e-06
9.8280188e-07
9.225927e-07
8.7017804e-07
8.2414829e-07
7.834134e-07
7.4711501e-07
7.1457582e-07
6.8524586e-07
6.5867609e-07
6.3449942e-07
6.1241089e-07
5.9215557e-07
5.735176e-07
5.5631584e-07
5.4039083e-07
5.256085e-07
5.1185525e-07
4.9902825e-07
4.8704088e-07
4.7581567e-07
4.6528054e-07
4.5537858e-07
4.4605527e-07
4.372603e-07
4.2895336e-07
4.2109622e-07
4.1365322e-07
4.0659368e-07
3.9988898e-07
3.9351451e-07
3.8744884e-07
3.8166924e-07
3.7615673e-07
3.7089371e-07
3.6586544e-07
3.6105684e-07
3.5645331e-07
3.5203994e-07
3.4781815e-07
3.4376039e-07
3.3984942e-07
3.3617177e-07
3.3259655e-07
3.2911766e-07
3.25754e-07
3.2245269e-07
3.1918299e-07
3.1599877e-07
3.1306625e-07
3.1064263e-07
3.0900632e-07
3.0830269e-07
3.0865325e-07
3.1038636e-07
3.1373217e-07
3.187263e-07
3.252841e-07
3.3321003e-07
3.4222385e-07
3.5200912e-07
3.6224433e-07
3.7264802e-07
3.8298867e-07
3.9315676e-07
4.0321261e-07
4.1316342e-07
4.2303841e-07
4.3289401e-07
4.4281371e-07
4.5289949e-07
4.6325272e-07
4.7396615e-07
4.8512484e-07
4.9682244e-07
5.0918598e-07
5.224162e-07
5.3683848e-07
5.5294869e-07
5.7141996e-07
5.930719e-07
6.1879774e-07
6.4944901e-07
6.8571978e-07
7.2795226e-07
7.7592224e-07
8.2908743e-07
8.8757243e-07
9.5266787e-07
1.0255209e-06
1.1039492e-06
1.1864397e-06
1.2720962e-06
1.3695293e-06
1.5101171e-06
3.3801403e-06
2.7115106e-06
2.2500457e-06
1.9229796e-06
1.6817085e-06
1.4969494e-06
1.3510105e-06
1.2328238e-06
1.1351647e-06
1.0531203e-06
9.8323535e-07
9.2300785e-07
8.7057591e-07
8.2452872e-07
7.8377485e-07
7.4745976e-07
7.1490486e-07
6.8555865e-07
6.5897463e-07
6.3478299e-07
6.126794e-07
5.9241114e-07
5.7375882e-07
5.5654008e-07
5.4060053e-07
5.2580577e-07
5.1203826e-07
4.991964e-07
4.8719345e-07
4.7595036e-07
4.6539983e-07
4.5548241e-07
4.4614148e-07
4.3733075e-07
4.2900757e-07
4.2113387e-07
4.1367646e-07
4.0660007e-07
3.9987694e-07
3.9348391e-07
3.8739938e-07
3.8160333e-07
3.7607528e-07
3.7079657e-07
3.6575299e-07
3.6093013e-07
3.563129e-07
3.5189247e-07
3.4765187e-07
3.4358825e-07
3.3969262e-07
3.3595357e-07
3.3235591e-07
3.2887487e-07
3.2547677e-07
3.2213492e-07
3.1884517e-07
3.1565806e-07
3.1270067e-07
3.1019762e-07
3.0861389e-07
3.0829004e-07
3.0848e-07
3.0999299e-07
3.13331e-07
3.1824848e-07
3.2464381e-07
3.3234155e-07
3.4108546e-07
3.5058836e-07
3.6056792e-07
3.7076151e-07
3.8094349e-07
3.9109185e-07
4.0122741e-07
4.1133895e-07
4.2142425e-07
4.315073e-07
4.4163419e-07
4.5186807e-07
4.6229851e-07
4.7301897e-07
4.8413488e-07
4.9574209e-07
5.0792877e-07
5.2076915e-07
5.3434635e-07
5.4879981e-07
5.6436578e-07
5.8144459e-07
6.0064743e-07
6.2278006e-07
6.4880047e-07
6.7972164e-07
7.1634157e-07
7.5895166e-07
8.0756056e-07
8.6256137e-07
9.2523314e-07
9.9545972e-07
1.0722212e-06
1.1533885e-06
1.2362304e-06
1.3620641e-06
3.3802541e-06
2.7119088e-06
2.250566e-06
1.9235385e-06
1.6822643e-06
1.4974848e-06
1.3515225e-06
1.2333123e-06
1.1356288e-06
1.0535624e-06
9.8365744e-07
9.2341116e-07
8.7096258e-07
8.2490063e-07
7.841341e-07
7.4780695e-07
7.1524021e-07
6.8588153e-07
6.5928702e-07
6.3508835e-07
6.1297768e-07
5.9270052e-07
5.74041e-07
5.568169e-07
5.40874e-07
5.2607417e-07
5.1230237e-07
4.9945792e-07
4.8745176e-07
4.7620676e-07
4.6565417e-07
4.557368e-07
4.463977e-07
4.3758844e-07
4.2926641e-07
4.2139167e-07
4.1393109e-07
4.0685111e-07
4.0012608e-07
3.9373507e-07
3.8765064e-07
3.8185132e-07
3.7632384e-07
3.7104755e-07
3.6600727e-07
3.6118969e-07
3.5657616e-07
3.5215689e-07
3.4792267e-07
3.4385682e-07
3.3996361e-07
3.3624092e-07
3.3264453e-07
3.2915605e-07
3.2575619e-07
3.2241588e-07
3.1913366e-07
3.1597792e-07
3.1311302e-07
3.1076208e-07
3.0916661e-07
3.0852572e-07
3.0896687e-07
3.107828e-07
3.1412108e-07
3.1896933e-07
3.2524304e-07
3.3277395e-07
3.4132667e-07
3.5063799e-07
3.604448e-07
3.7051293e-07
3.8061486e-07
3.9077973e-07
4.0097019e-07
4.1113595e-07
4.2125625e-07
4.3135005e-07
4.4145833e-07
4.5164073e-07
4.619783e-07
4.7256085e-07
4.8349213e-07
4.948856e-07
5.068507e-07
5.1948743e-07
5.328685e-07
5.4704702e-07
5.6208394e-07
5.7803348e-07
5.9504647e-07
6.1345229e-07
6.3376968e-07
6.5677434e-07
6.8345218e-07
7.147499e-07
7.5136054e-07
7.9379384e-07
8.4312796e-07
9.0034961e-07
9.6559257e-07
1.0388492e-06
1.1103984e-06
1.2178346e-06
3.3803621e-06
2.7122633e-06
2.251024e-06
1.9240349e-06
1.6827702e-06
1.4979838e-06
1.3520077e-06
1.2337783e-06
1.1360729e-06
1.0539851e-06
9.840611e-07
9.2379614e-07
8.7133113e-07
8.2525274e-07
7.8447162e-07
7.4813065e-07
7.1554958e-07
6.8617985e-07
6.5957325e-07
6.3536148e-07
6.1323977e-07
5.9295207e-07
5.7428333e-07
5.5704939e-07
5.410942e-07
5.2628394e-07
5.1250172e-07
4.9964787e-07
4.8763365e-07
4.763804e-07
4.6581905e-07
4.5589185e-07
4.4654181e-07
4.3772006e-07
4.2938599e-07
4.2149989e-07
4.1402662e-07
4.0693549e-07
4.0020178e-07
3.9379875e-07
3.8770465e-07
3.8190042e-07
3.7636612e-07
3.710832e-07
3.6603677e-07
3.6121112e-07
3.5659007e-07
3.5216443e-07
3.4792214e-07
3.4385424e-07
3.3995653e-07
3.362167e-07
3.3260499e-07
3.2910435e-07
3.2568751e-07
3.2233283e-07
3.1905288e-07
3.1591715e-07
3.1307505e-07
3.1073626e-07
3.0921116e-07
3.0878367e-07
3.0923888e-07
3.110881e-07
3.1443796e-07
3.1923778e-07
3.2539679e-07
3.3276419e-07
3.4112982e-07
3.5025334e-07
3.5990217e-07
3.6986478e-07
3.7992152e-07
3.901398e-07
4.0046131e-07
4.1080493e-07
4.2111974e-07
4.3139341e-07
4.4164027e-07
4.519059e-07
4.6225104e-07
4.7275749e-07
4.8352438e-07
4.946649e-07
5.0629946e-07
5.1855351e-07
5.3154282e-07
5.4535948e-07
5.6008393e-07
5.7576118e-07
5.9239713e-07
6.1000656e-07
6.2867951e-07
6.4865387e-07
6.7040771e-07
6.9465186e-07
7.2220774e-07
7.538028e-07
7.9038802e-07
8.3333514e-07
8.8348905e-07
9.4343526e-07
1.0033022e-06
1.0911437e-06
3.3804878e-06
2.7126509e-06
2.2515188e-06
1.9245562e-06
1.6832893e-06
1.4984852e-06
1.3524833e-06
1.2342294e-06
1.1365028e-06
1.0543946e-06
9.8445014e-07
9.2416805e-07
8.7168624e-07
8.255929e-07
7.8479724e-07
7.4844292e-07
7.1584986e-07
6.8646931e-07
6.5985303e-07
6.3563211e-07
6.1350254e-07
5.9320702e-07
5.7453109e-07
5.5729063e-07
5.4132896e-07
5.265128e-07
5.127262e-07
4.9986812e-07
4.8784857e-07
4.7659014e-07
4.6602508e-07
4.5609276e-07
4.4673677e-07
4.3791028e-07
4.2957195e-07
4.2168055e-07
4.142029e-07
4.0710903e-07
4.0037314e-07
3.9396956e-07
3.8787479e-07
3.8206886e-07
3.7653121e-07
3.7124614e-07
3.6619761e-07
3.6136963e-07
3.5674641e-07
3.5231892e-07
3.4807693e-07
3.440057e-07
3.4010301e-07
3.3636053e-07
3.3274944e-07
3.2924462e-07
3.258194e-07
3.2246183e-07
3.1919777e-07
3.1610799e-07
3.133469e-07
3.111264e-07
3.0966914e-07
3.091892e-07
3.0987678e-07
3.1188254e-07
3.1528183e-07
3.2006724e-07
3.2616329e-07
3.3342092e-07
3.4165721e-07
3.5066525e-07
3.6022812e-07
3.7015196e-07
3.8025787e-07
3.9057183e-07
4.0102074e-07
4.1150751e-07
4.21962e-07
4.3234418e-07
4.4265326e-07
4.5292584e-07
4.6322101e-07
4.7361881e-07
4.8421143e-07
4.9510854e-07
5.0642544e-07
5.1828521e-07
5.3080989e-07
5.4411086e-07
5.5829658e-07
5.734639e-07
5.8967767e-07
6.0695695e-07
6.2528583e-07
6.4464472e-07
6.6508581e-07
6.8681573e-07
7.1023726e-07
7.3584581e-07
7.642336e-07
7.9650651e-07
8.3347245e-07
8.7863916e-07
9.2589693e-07
9.937299e-07
3.3806088e-06
2.7129951e-06
2.251957e-06
1.9250299e-06
1.6837637e-06
1.4989464e-06
1.3529306e-06
1.23466e-06
1.1369159e-06
1.0547906e-06
9.8482845e-07
9.2452892e-07
8.7203038e-07
8.2592073e-07
7.8511056e-07
7.487438e-07
7.1613784e-07
6.867446e-07
6.6011691e-07
6.3588572e-07
6.137459e-07
5.9344207e-07
5.74759e-07
5.5751072e-07
5.4154179e-07
5.2671816e-07
5.1292393e-07
5.0005695e-07
4.8802862e-07
4.7676315e-07
4.6619141e-07
4.5624989e-07
4.4688411e-07
4.3804993e-07
4.297019e-07
4.218027e-07
4.1431968e-07
4.0722072e-07
4.0047954e-07
3.9406966e-07
3.879676e-07
3.8215559e-07
3.7661267e-07
3.71321e-07
3.6626674e-07
3.6143204e-07
3.5680203e-07
3.5236835e-07
3.4811973e-07
3.4404536e-07
3.4013923e-07
3.3639084e-07
3.3276962e-07
3.2925116e-07
3.2581564e-07
3.2245657e-07
3.1920796e-07
3.1616223e-07
3.1347158e-07
3.1133602e-07
3.1001808e-07
3.0968176e-07
3.1049586e-07
3.1259973e-07
3.1605236e-07
3.2083719e-07
3.2688297e-07
3.3406083e-07
3.4220721e-07
3.5114285e-07
3.606736e-07
3.7061174e-07
3.8082891e-07
3.9130249e-07
4.0194279e-07
4.1263404e-07
4.232815e-07
4.3382873e-07
4.4425345e-07
4.5457602e-07
4.6485183e-07
4.7515984e-07
4.8559545e-07
4.9626997e-07
5.0729887e-07
5.1880132e-07
5.3089602e-07
5.4369274e-07
5.5729568e-07
5.7181353e-07
5.8734956e-07
6.0398319e-07
6.2176443e-07
6.4069876e-07
6.6075341e-07
6.8190331e-07
7.0420271e-07
7.2780132e-07
7.5286614e-07
7.7992228e-07
8.0927819e-07
8.435395e-07
8.8035709e-07
9.3070326e-07
3.3807459e-06
2.7133648e-06
2.2524211e-06
1.9255135e-06
1.6842396e-06
1.4994075e-06
1.3533708e-06
1.2350802e-06
1.1373147e-06
1.0551681e-06
9.8518711e-07
9.2486991e-07
8.7235656e-07
8.2623351e-07
7.8541002e-07
7.4903006e-07
7.1641259e-07
6.8700897e-07
6.6037142e-07
6.3613094e-07
6.1398221e-07
5.9366975e-07
5.7497814e-07
5.5772262e-07
5.4174745e-07
5.269185e-07
5.1311963e-07
5.0024694e-07
4.8821337e-07
4.769424e-07
4.6636293e-07
4.5641366e-07
4.4704289e-07
4.3820374e-07
4.2985121e-07
4.2194962e-07
4.1446254e-07
4.0735887e-07
4.0061298e-07
3.9419849e-07
3.8809284e-07
3.8227652e-07
3.767297e-07
3.7143428e-07
3.6637405e-07
3.615337e-07
3.5690028e-07
3.5246198e-07
3.4821062e-07
3.441367e-07
3.402298e-07
3.3647761e-07
3.328517e-07
3.2932621e-07
3.2588485e-07
3.2253266e-07
3.1931339e-07
3.1633072e-07
3.1374726e-07
3.11756e-07
3.1056963e-07
3.1038426e-07
3.1135687e-07
3.135913e-07
3.1712722e-07
3.2194984e-07
3.2799066e-07
3.3514015e-07
3.4326276e-07
3.5220065e-07
3.6177856e-07
3.718113e-07
3.822117e-07
3.9290062e-07
4.0375816e-07
4.1465345e-07
4.2546938e-07
4.361358e-07
4.4662467e-07
4.5694911e-07
4.6716537e-07
4.7735513e-07
4.8761799e-07
4.9806649e-07
5.0882008e-07
5.1999759e-07
5.3171536e-07
5.4407814e-07
5.5717789e-07
5.7110806e-07
5.8596503e-07
6.0184034e-07
6.1882191e-07
6.3698274e-07
6.5636052e-07
6.7695358e-07
6.9874303e-07
7.217365e-07
7.4590703e-07
7.7135779e-07
7.9801322e-07
8.2696423e-07
8.5780373e-07
8.9650408e-07
3.3808789e-06
2.7137025e-06
2.2528412e-06
1.925961e-06
1.6846892e-06
1.4998476e-06
1.3537944e-06
1.2354833e-06
1.1376967e-06
1.0555313e-06
9.8553508e-07
9.2520067e-07
8.7266964e-07
8.265315e-07
7.8569449e-07
7.4930237e-07
7.1667473e-07
6.8726026e-07
6.6061242e-07
6.3636264e-07
6.1420538e-07
5.9388478e-07
5.7518429e-07
5.5792055e-07
5.4193789e-07
5.2710092e-07
5.1329438e-07
5.0041553e-07
4.8837538e-07
4.7709557e-07
4.6650956e-07
4.5655596e-07
4.4718001e-07
4.3833579e-07
4.299766e-07
4.2206735e-07
4.1457444e-07
4.0746506e-07
4.0071295e-07
3.9429224e-07
3.881809e-07
3.8235939e-07
3.7680697e-07
3.7150467e-07
3.6643785e-07
3.6159158e-07
3.5695286e-07
3.5251159e-07
3.4825805e-07
3.4418219e-07
3.4027394e-07
3.365186e-07
3.3288691e-07
3.2935449e-07
3.2591053e-07
3.2256861e-07
3.1938737e-07
3.1648254e-07
3.1401767e-07
3.1218058e-07
3.1117098e-07
3.1116872e-07
3.1230846e-07
3.1467834e-07
3.1831052e-07
3.2318693e-07
3.2925563e-07
3.3643058e-07
3.4459675e-07
3.536145e-07
3.6332632e-07
3.7353462e-07
3.8418427e-07
3.9515244e-07
4.0627395e-07
4.1739617e-07
4.2839515e-07
4.391808e-07
4.4972092e-07
4.6003268e-07
4.7017177e-07
4.8022919e-07
4.9031212e-07
5.0053555e-07
5.1102023e-07
5.2188427e-07
5.3324435e-07
5.4520834e-07
5.5786516e-07
5.7129467e-07
5.8557469e-07
6.0078277e-07
6.1699698e-07
6.3429886e-07
6.5276913e-07
6.7246866e-07
6.9343216e-07
7.1568899e-07
7.3922889e-07
7.6405258e-07
7.9004383e-07
8.1730231e-07
8.4577794e-07
8.7889294e-07
3.3810244e-06
2.7140592e-06
2.2532806e-06
1.9264193e-06
1.6851387e-06
1.5002785e-06
1.3542033e-06
1.2358699e-06
1.138063e-06
1.0558797e-06
9.8586591e-07
9.2551552e-07
8.7296969e-07
8.2681671e-07
7.859659e-07
7.4956196e-07
7.1692238e-07
6.8749766e-07
6.608417e-07
6.3658302e-07
6.1441577e-07
5.940867e-07
5.7537857e-07
5.5810681e-07
5.4211781e-07
5.2727416e-07
5.1345966e-07
5.0057485e-07
4.8852988e-07
4.7724596e-07
4.6665539e-07
4.5669648e-07
4.473138e-07
4.384601e-07
4.3009608e-07
4.2218227e-07
4.1468416e-07
4.0757101e-07
4.0081272e-07
3.9438694e-07
3.8826994e-07
3.8244263e-07
3.7688567e-07
3.7157871e-07
3.6650714e-07
3.616566e-07
3.570147e-07
3.5257121e-07
3.4831792e-07
3.4424417e-07
3.4033637e-07
3.3657847e-07
3.3294265e-07
3.2940527e-07
3.2596415e-07
3.2264469e-07
3.1952071e-07
3.1671479e-07
3.1439107e-07
3.127376e-07
3.1193393e-07
3.12139e-07
3.1347261e-07
3.1600236e-07
3.1975623e-07
3.2472894e-07
3.3088441e-07
3.3815811e-07
3.4645748e-07
3.5565949e-07
3.6561066e-07
3.7609432e-07
3.8706942e-07
3.9835804e-07
4.0975721e-07
4.2109368e-07
4.3223664e-07
4.4309247e-07
4.5363153e-07
4.6388063e-07
4.739032e-07
4.8379792e-07
4.9368042e-07
5.0367276e-07
5.1389694e-07
5.2446744e-07
5.3549598e-07
5.4708851e-07
5.593364e-07
5.7231605e-07
5.8609428e-07
6.0073501e-07
6.1629905e-07
6.3285103e-07
6.5046403e-07
6.6921344e-07
6.891697e-07
7.1039967e-07
7.3295773e-07
7.568769e-07
7.8217698e-07
8.0873947e-07
8.3626064e-07
8.673092e-07
3.3811673e-06
2.7143822e-06
2.2536759e-06
1.9268407e-06
1.6855601e-06
1.5006873e-06
1.3545942e-06
1.2362424e-06
1.1384178e-06
1.056216e-06
9.8618313e-07
9.2581586e-07
8.7325419e-07
8.2708749e-07
7.8622463e-07
7.4980913e-07
7.171587e-07
6.8772297e-07
6.6105651e-07
6.3678918e-07
6.1461401e-07
5.9427585e-07
5.7555957e-07
5.5828143e-07
5.4228561e-07
5.2743557e-07
5.1361411e-07
5.0072149e-07
4.8866934e-07
4.773804e-07
4.6678484e-07
4.5682016e-07
4.4743088e-07
4.3857146e-07
4.3020139e-07
4.2228069e-07
4.1477485e-07
4.0765426e-07
4.0089034e-07
3.9445944e-07
3.8833765e-07
3.8250467e-07
3.7694139e-07
3.7162887e-07
3.6655229e-07
3.6169859e-07
3.5705357e-07
3.5260836e-07
3.4835666e-07
3.4428414e-07
3.4037744e-07
3.3661781e-07
3.3297804e-07
3.2944048e-07
3.260109e-07
3.2272884e-07
3.1967987e-07
3.1699806e-07
3.1484747e-07
3.1340059e-07
3.128247e-07
3.1325629e-07
3.1479516e-07
3.1750325e-07
3.214118e-07
3.2652776e-07
3.3283514e-07
3.4029937e-07
3.4884893e-07
3.5836246e-07
3.6867434e-07
3.7954559e-07
3.9091442e-07
4.025628e-07
4.1425095e-07
4.2578498e-07
4.3702672e-07
4.4789808e-07
4.5838388e-07
4.6851899e-07
4.7838352e-07
4.8808456e-07
4.9774693e-07
5.0750032e-07
5.1746816e-07
5.2776302e-07
5.3848881e-07
5.4974459e-07
5.6161853e-07
5.7418445e-07
5.8750641e-07
6.0164083e-07
6.1664023e-07
6.3255534e-07
6.4943803e-07
6.6735219e-07
6.8636908e-07
7.065542e-07
7.2799282e-07
7.5074456e-07
7.7491771e-07
8.0053086e-07
8.2706841e-07
8.5693292e-07
3.3813199e-06
2.7147224e-06
2.2540897e-06
1.9272682e-06
1.6859783e-06
1.5010871e-06
1.3549739e-06
1.2366018e-06
1.1387565e-06
1.0565356e-06
9.8648501e-07
9.2610147e-07
8.7352612e-07
8.2734624e-07
7.8647093e-07
7.5004345e-07
7.1738206e-07
6.8793796e-07
6.6126075e-07
6.3698242e-07
6.1479785e-07
5.9445233e-07
5.7572978e-07
5.5844555e-07
5.4244225e-07
5.2758561e-07
5.1375906e-07
5.0086191e-07
4.8880442e-07
4.7750791e-07
4.6690501e-07
4.5693343e-07
4.4753869e-07
4.3867325e-07
4.3029512e-07
4.2236721e-07
4.148549e-07
4.0772936e-07
4.0095999e-07
3.9452293e-07
3.8839665e-07
3.8255783e-07
3.7698918e-07
3.7167259e-07
3.6659211e-07
3.6173513e-07
3.5708968e-07
3.5264641e-07
3.4839713e-07
3.443285e-07
3.4042483e-07
3.3666555e-07
3.3302505e-07
3.294925e-07
3.2608691e-07
3.2286195e-07
3.1991751e-07
3.1739141e-07
3.1544175e-07
3.1423271e-07
3.1390765e-07
3.1458358e-07
3.1635043e-07
3.1926546e-07
3.2336987e-07
3.2869726e-07
3.3526279e-07
3.4304868e-07
3.5199121e-07
3.6196288e-07
3.7276712e-07
3.8413774e-07
3.9596037e-07
4.0797495e-07
4.199207e-07
4.3159198e-07
4.4286121e-07
4.5367148e-07
4.6401821e-07
4.7396529e-07
4.8361595e-07
4.9308521e-07
5.0250487e-07
5.1200697e-07
5.2171661e-07
5.3174645e-07
5.4219284e-07
5.531455e-07
5.6468697e-07
5.7688614e-07
5.8980258e-07
6.0348677e-07
6.1798431e-07
6.3334003e-07
6.4959651e-07
6.6679765e-07
6.8500044e-07
7.0426307e-07
7.2466335e-07
7.4626376e-07
7.6917958e-07
7.9356432e-07
8.1888247e-07
8.4732343e-07
3.3814679e-06
2.7150366e-06
2.2544707e-06
1.9276678e-06
1.6863744e-06
1.501468e-06
1.3553366e-06
1.2369463e-06
1.1390828e-06
1.0568438e-06
9.867763e-07
9.2637704e-07
8.7378639e-07
8.2759276e-07
7.867047e-07
7.5026545e-07
7.1759367e-07
6.8813883e-07
6.6145238e-07
6.3716638e-07
6.1497379e-07
5.9462013e-07
5.758898e-07
5.5859817e-07
5.4258841e-07
5.2772571e-07
5.1389257e-07
5.0098762e-07
4.8892386e-07
4.7762119e-07
4.6701087e-07
4.5703144e-07
4.4763067e-07
4.3876001e-07
4.30376e-07
4.2244295e-07
4.1492452e-07
4.0779151e-07
4.0101617e-07
3.9457265e-07
3.8843957e-07
3.8259485e-07
3.770211e-07
3.7170111e-07
3.6661785e-07
3.617579e-07
3.5711278e-07
3.526738e-07
3.4842818e-07
3.443644e-07
3.4046524e-07
3.3670699e-07
3.330702e-07
3.2955593e-07
3.261944e-07
3.2305269e-07
3.2024146e-07
3.1790222e-07
3.1618653e-07
3.1523654e-07
3.151801e-07
3.1611983e-07
3.1813399e-07
3.2129257e-07
3.2566205e-07
3.3130892e-07
3.3827112e-07
3.4654727e-07
3.5607143e-07
3.6667637e-07
3.781114e-07
3.9006883e-07
4.0237216e-07
4.1472824e-07
4.2686161e-07
4.3857621e-07
4.4976612e-07
4.604102e-07
4.705412e-07
4.8024029e-07
4.896298e-07
4.9883732e-07
5.0799861e-07
5.1724575e-07
5.266998e-07
5.3647111e-07
5.4665155e-07
5.5732232e-07
5.6855872e-07
5.8042451e-07
5.9297545e-07
6.0625695e-07
6.2030826e-07
6.3516579e-07
6.5086739e-07
6.6745066e-07
6.8495629e-07
7.0343186e-07
7.2293726e-07
7.4352176e-07
7.6527296e-07
7.8839833e-07
8.12473e-07
8.393073e-07
3.3816198e-06
2.7153574e-06
2.2548584e-06
1.9280684e-06
1.6867658e-06
1.501841e-06
1.3556881e-06
1.2372764e-06
1.1393933e-06
1.0571368e-06
9.8705249e-07
9.2663797e-07
8.74033e-07
8.2782595e-07
7.8692475e-07
7.5047407e-07
7.1779191e-07
6.8832707e-07
6.616311e-07
6.3733633e-07
6.1513741e-07
5.947766e-07
5.7603884e-07
5.5873932e-07
5.4272284e-07
5.2785395e-07
5.1401339e-07
5.0110152e-07
4.8903178e-07
4.7772338e-07
4.6710764e-07
4.5712156e-07
4.4771225e-07
4.3883484e-07
4.304437e-07
4.2250328e-07
4.1497842e-07
4.0783852e-07
4.0105712e-07
3.9460831e-07
3.8847093e-07
3.8262232e-07
3.7704401e-07
3.7172038e-07
3.6663499e-07
3.6177597e-07
3.5713321e-07
3.5269813e-07
3.4845978e-07
3.4440382e-07
3.4051051e-07
3.3675819e-07
3.3313662e-07
3.2965487e-07
3.2635821e-07
3.2333274e-07
3.2069216e-07
3.1857504e-07
3.1712195e-07
3.1645438e-07
3.1668229e-07
3.1790186e-07
3.2020077e-07
3.2367219e-07
3.2841945e-07
3.3454259e-07
3.4210448e-07
3.5109974e-07
3.6142182e-07
3.7284614e-07
3.8504216e-07
3.9763521e-07
4.1039816e-07
4.2301155e-07
4.3520308e-07
4.4681742e-07
4.5779002e-07
4.6814529e-07
4.7795915e-07
4.8733815e-07
4.9642046e-07
5.0534407e-07
5.1424266e-07
5.2324262e-07
5.3245786e-07
5.4199101e-07
5.5192639e-07
5.6233785e-07
5.7329245e-07
5.8484768e-07
5.97058e-07
6.0996774e-07
6.2361258e-07
6.3802175e-07
6.5322425e-07
6.6925286e-07
6.8614115e-07
7.0392735e-07
7.2266526e-07
7.4238738e-07
7.6314098e-07
7.8511182e-07
8.0801651e-07
8.3330738e-07
3.3817663e-06
2.7156579e-06
2.2552165e-06
1.928439e-06
1.6871298e-06
1.5021906e-06
1.3560222e-06
1.2375921e-06
1.1396892e-06
1.0574153e-06
9.8731529e-07
9.2688605e-07
8.7426732e-07
8.2804632e-07
7.871338e-07
7.5067161e-07
7.179777e-07
6.8850281e-07
6.6179885e-07
6.3749507e-07
6.1528785e-07
5.9492016e-07
5.7617499e-07
5.5886893e-07
5.4284498e-07
5.2796872e-07
5.1412243e-07
5.0120393e-07
4.8912794e-07
4.7781329e-07
4.6718911e-07
4.5719538e-07
4.4777907e-07
4.3889353e-07
4.3049492e-07
4.2254799e-07
4.1501709e-07
4.0787121e-07
4.0108458e-07
3.9463089e-07
3.8848809e-07
3.8263519e-07
3.7705469e-07
3.717295e-07
3.6664323e-07
3.617852e-07
3.5714705e-07
3.5271987e-07
3.4849112e-07
3.4444411e-07
3.4056098e-07
3.3682288e-07
3.3322915e-07
3.2980541e-07
3.2660909e-07
3.2373618e-07
3.2130485e-07
3.1944329e-07
3.182732e-07
3.1790307e-07
3.1843383e-07
3.1996487e-07
3.2261356e-07
3.2651731e-07
3.318226e-07
3.3866193e-07
3.4710186e-07
3.5709837e-07
3.6846945e-07
3.8088336e-07
3.9391606e-07
4.0712481e-07
4.2023243e-07
4.3293835e-07
4.4500595e-07
4.5633599e-07
4.6693182e-07
4.7686643e-07
4.8626005e-07
4.952501e-07
5.0398382e-07
5.1260195e-07
5.2123409e-07
5.2999776e-07
5.3899505e-07
5.4831735e-07
5.5803946e-07
5.6822467e-07
5.7893126e-07
5.9021059e-07
6.0211047e-07
6.1467491e-07
6.2794205e-07
6.4193973e-07
6.5668999e-07
6.7221718e-07
6.8854767e-07
7.0571133e-07
7.2375249e-07
7.4271114e-07
7.6261661e-07
7.8359587e-07
8.054414e-07
8.2931496e-07
3.3819152e-06
2.7159579e-06
2.2555731e-06
1.928807e-06
1.6874884e-06
1.5025307e-06
1.3563407e-06
1.2378901e-06
1.1399692e-06
1.0576755e-06
9.8755889e-07
9.2711475e-07
8.7448288e-07
8.2825059e-07
7.8732657e-07
7.508545e-07
7.1815105e-07
6.8866582e-07
6.6195181e-07
6.376409e-07
6.1542627e-07
5.9505129e-07
5.7629898e-07
5.589853e-07
5.4295462e-07
5.2806974e-07
5.1421605e-07
5.0129135e-07
4.8920748e-07
4.7788524e-07
4.6725376e-07
4.5725317e-07
4.4782955e-07
4.3893774e-07
4.3053293e-07
4.2257834e-07
4.1504099e-07
4.07889e-07
4.010969e-07
3.9463979e-07
3.8849201e-07
3.8263592e-07
3.7705376e-07
3.7172594e-07
3.6664121e-07
3.6178841e-07
3.5715841e-07
3.5274331e-07
3.4852839e-07
3.4449646e-07
3.4063018e-07
3.3692115e-07
3.3337884e-07
3.3004134e-07
3.2698448e-07
3.2430892e-07
3.2212362e-07
3.205433e-07
3.1967509e-07
3.1961833e-07
3.2048144e-07
3.2239416e-07
3.2552439e-07
3.3006482e-07
3.3621012e-07
3.4410891e-07
3.5378733e-07
3.6511099e-07
3.7776462e-07
3.9128398e-07
4.0513669e-07
4.1882118e-07
4.3206101e-07
4.4460223e-07
4.5629089e-07
4.6711385e-07
4.7714942e-07
4.8653006e-07
4.9541673e-07
5.0396332e-07
5.1232034e-07
5.2062426e-07
5.2899555e-07
5.3753779e-07
5.4634045e-07
5.5547936e-07
5.6501822e-07
5.7501189e-07
5.8550845e-07
5.9655242e-07
6.0818434e-07
6.2044166e-07
6.3336244e-07
6.4697724e-07
6.6130824e-07
6.7637555e-07
6.9219797e-07
7.0879532e-07
7.2620117e-07
7.4445761e-07
7.6359091e-07
7.8369957e-07
8.046155e-07
8.2721118e-07
3.3820599e-06
2.7162392e-06
2.2559048e-06
1.929149e-06
1.6878229e-06
1.5028514e-06
1.3566441e-06
1.2381752e-06
1.1402356e-06
1.0579249e-06
9.8779211e-07
9.2733256e-07
8.7468688e-07
8.2844234e-07
7.8750649e-07
7.5102312e-07
7.183105e-07
6.888177e-07
6.6209535e-07
6.3777556e-07
6.1555214e-07
5.9516827e-07
5.7640802e-07
5.5908717e-07
5.4304802e-07
5.2815632e-07
5.1429597e-07
5.0136393e-07
4.8927278e-07
4.7794311e-07
4.6730354e-07
4.5729449e-07
4.4786327e-07
4.3896344e-07
4.3055044e-07
4.2259004e-07
4.1504747e-07
4.0789006e-07
4.010938e-07
3.9463186e-07
3.8848077e-07
3.8262248e-07
3.7703853e-07
3.7171304e-07
3.66633e-07
3.6178874e-07
3.571713e-07
3.5277195e-07
3.485765e-07
3.4456604e-07
3.4073025e-07
3.3707013e-07
3.3360978e-07
3.3040188e-07
3.2752747e-07
3.2508546e-07
3.2317596e-07
3.2189656e-07
3.2134669e-07
3.2163558e-07
3.2290517e-07
3.2534536e-07
3.2919465e-07
3.3471357e-07
3.4212528e-07
3.5154246e-07
3.6288823e-07
3.7586298e-07
3.8996646e-07
4.045764e-07
4.1907132e-07
4.3293819e-07
4.4596312e-07
4.5799607e-07
4.6900261e-07
4.7907731e-07
4.8837947e-07
4.9709385e-07
5.0540435e-07
5.1347318e-07
5.2144505e-07
5.2944171e-07
5.37567e-07
5.4590904e-07
5.5453995e-07
5.6352475e-07
5.7291267e-07
5.8274715e-07
5.9306805e-07
6.0391388e-07
6.1531947e-07
6.2731483e-07
6.3993199e-07
6.5319796e-07
6.671388e-07
6.8177959e-07
6.9713578e-07
7.1322052e-07
7.3005433e-07
7.4767001e-07
7.6609411e-07
7.8540496e-07
8.0548367e-07
8.2689913e-07
3.3822063e-06
2.7165215e-06
2.2562362e-06
1.9294875e-06
1.688149e-06
1.5031599e-06
1.3569317e-06
1.2384422e-06
1.1404847e-06
1.0581572e-06
9.8800806e-07
9.2753649e-07
8.7487863e-07
8.286215e-07
7.8767387e-07
7.5118074e-07
7.1845719e-07
6.8895392e-07
6.6222381e-07
6.3789562e-07
6.1566317e-07
5.9527088e-07
5.7650288e-07
5.5917328e-07
5.4312633e-07
5.2822673e-07
5.1435804e-07
5.0141932e-07
4.8932146e-07
4.7798464e-07
4.6733766e-07
4.5731938e-07
4.4787918e-07
4.3897063e-07
4.3055168e-07
4.225851e-07
4.1503583e-07
4.0787463e-07
4.0107485e-07
3.9460965e-07
3.8845791e-07
3.8259907e-07
3.770157e-07
3.7169426e-07
3.6662175e-07
3.6178936e-07
3.5719059e-07
3.5281421e-07
3.4864466e-07
3.446702e-07
3.4088679e-07
3.3730737e-07
3.3397002e-07
3.309365e-07
3.2828722e-07
3.2611223e-07
3.2449891e-07
3.2353725e-07
3.2333751e-07
3.2405235e-07
3.2589365e-07
3.291422e-07
3.341264e-07
3.4115199e-07
3.5041645e-07
3.6191417e-07
3.7536193e-07
3.9021315e-07
4.0574688e-07
4.2120022e-07
4.3593176e-07
4.4950574e-07
4.6184784e-07
4.729637e-07
4.8296983e-07
4.9206745e-07
5.0049633e-07
5.0846934e-07
5.1617543e-07
5.2377151e-07
5.31379e-07
5.3909944e-07
5.4700969e-07
5.5518341e-07
5.63673e-07
5.7252766e-07
5.817886e-07
5.9149171e-07
6.0166657e-07
6.1234377e-07
6.2355451e-07
6.3532554e-07
6.4768341e-07
6.6065043e-07
6.7424467e-07
6.8848984e-07
7.0340938e-07
7.1902116e-07
7.3533569e-07
7.5237301e-07
7.7015594e-07
7.8874334e-07
8.080646e-07
8.2839233e-07
3.3823493e-06
2.716786e-06
2.2565451e-06
1.9298057e-06
1.6884598e-06
1.5034559e-06
1.35721e-06
1.2386996e-06
1.1407227e-06
1.058378e-06
9.8821377e-07
9.2772749e-07
8.7505574e-07
8.2878698e-07
7.878288e-07