/*--------------------------------*- C++ -*----------------------------------*\
| =========                 |                                                 |
| \\      /  F ield         | OpenFOAM: The Open Source CFD Toolbox           |
|  \\    /   O peration     | Version:  2406                                  |
|   \\  /    A nd           | Website:  www.openfoam.com                      |
|    \\/     M anipulation  |                                                 |
\*---------------------------------------------------------------------------*/
FoamFile
{
    version     2.0;
    format      ascii;
    arch        "LSB;label=32;scalar=64";
    class       volScalarField;
    location    "200";
    object      k_0;
}
// * * * * * * * * * * * * * * * * * * * * * * * * * * * * * * * * * * * * * //

dimensions      [0 2 -2 0 0 0 0];

internalField   nonuniform List<scalar> 
20580
(
3.2227736e-06
2.576222e-06
2.0105783e-06
1.6409646e-06
1.3854855e-06
1.1993354e-06
1.0542123e-06
9.4213648e-07
8.4971445e-07
7.7577874e-07
7.1586975e-07
6.6918483e-07
6.3092455e-07
5.9996741e-07
5.77641e-07
5.5987906e-07
5.4673222e-07
5.389661e-07
5.3802599e-07
5.3846933e-07
5.3814964e-07
5.3888499e-07
5.4069216e-07
5.6082392e-07
5.9460312e-07
6.135825e-07
6.2796514e-07
6.2069549e-07
6.3373983e-07
6.8344739e-07
7.3198203e-07
3.2352928e-06
2.602552e-06
2.042691e-06
1.6823582e-06
1.4208261e-06
1.2295861e-06
1.0730137e-06
9.5570751e-07
8.6114488e-07
7.8496003e-07
7.2373383e-07
6.7596909e-07
6.3599755e-07
6.0452046e-07
5.7917056e-07
5.59762e-07
5.4682677e-07
5.3969962e-07
5.377773e-07
5.3882345e-07
5.4384874e-07
5.4515872e-07
5.4958848e-07
5.7184443e-07
6.1804714e-07
6.8401724e-07
7.2439965e-07
7.6220057e-07
7.8454152e-07
8.4831369e-07
8.1768077e-07
3.2391894e-06
2.5968851e-06
2.0386681e-06
1.6911358e-06
1.4359663e-06
1.2472185e-06
1.093183e-06
9.7051871e-07
8.7214391e-07
7.9356606e-07
7.3070979e-07
6.8209391e-07
6.4047266e-07
6.0870416e-07
5.8067787e-07
5.609144e-07
5.4309447e-07
5.3702245e-07
5.3033238e-07
5.2913372e-07
5.3543771e-07
5.3912939e-07
5.4231414e-07
5.5769921e-07
5.9461462e-07
6.6942139e-07
7.1776911e-07
7.4690472e-07
7.9100717e-07
8.5860966e-07
9.7995327e-07
3.2446029e-06
2.5764807e-06
2.0151153e-06
1.6798303e-06
1.4324665e-06
1.2462095e-06
1.1003835e-06
9.8201079e-07
8.8338209e-07
8.0254181e-07
7.3718574e-07
6.8693785e-07
6.4418435e-07
6.1170294e-07
5.8326762e-07
5.6093415e-07
5.4269617e-07
5.3297662e-07
5.2437468e-07
5.1769901e-07
5.2147867e-07
5.2452294e-07
5.2698927e-07
5.3836573e-07
5.67705e-07
6.2897156e-07
7.1303661e-07
7.5631568e-07
7.7767043e-07
8.2211424e-07
9.5445806e-07
3.2501998e-06
2.5729152e-06
1.9820339e-06
1.6407272e-06
1.408992e-06
1.2361376e-06
1.0967257e-06
9.8485292e-07
8.9011825e-07
8.1243666e-07
7.4857339e-07
6.9558735e-07
6.5139175e-07
6.1705853e-07
5.8865608e-07
5.6341472e-07
5.4444245e-07
5.3232772e-07
5.2297056e-07
5.1351909e-07
5.1595886e-07
5.1806194e-07
5.2002031e-07
5.3037205e-07
5.5887034e-07
6.0049537e-07
6.8909776e-07
7.8036645e-07
8.2253115e-07
9.1495834e-07
9.6632594e-07
3.2587687e-06
2.5922424e-06
1.9795961e-06
1.6273471e-06
1.3902014e-06
1.2202483e-06
1.0860238e-06
9.7969275e-07
8.9000081e-07
8.1623375e-07
7.570585e-07
7.06646e-07
6.6591821e-07
6.2983752e-07
6.0031852e-07
5.7360875e-07
5.5369258e-07
5.3803629e-07
5.2602635e-07
5.1567796e-07
5.1689172e-07
5.1633249e-07
5.1407851e-07
5.2119275e-07
5.3961275e-07
5.7444138e-07
6.4104049e-07
7.6504824e-07
8.2668189e-07
9.8196721e-07
1.0305071e-06
3.2619787e-06
2.6000714e-06
1.985482e-06
1.6282901e-06
1.3858457e-06
1.2071475e-06
1.0720717e-06
9.6527085e-07
8.8351037e-07
8.1425626e-07
7.5924926e-07
7.1627591e-07
6.7970527e-07
6.5235521e-07
6.2490698e-07
6.0267569e-07
5.8327215e-07
5.6447953e-07
5.4677782e-07
5.3244311e-07
5.2672191e-07
5.2091779e-07
5.1354365e-07
5.1404799e-07
5.2162411e-07
5.3343735e-07
5.6519552e-07
6.7223533e-07
7.7498326e-07
9.488598e-07
1.0631064e-06
3.297111e-06
2.6362462e-06
2.0292673e-06
1.6543231e-06
1.3986788e-06
1.2139268e-06
1.0744809e-06
9.6525443e-07
8.7873837e-07
8.1110832e-07
7.5733683e-07
7.1914581e-07
6.8952143e-07
6.710598e-07
6.5358102e-07
6.3771468e-07
6.2622679e-07
6.1332101e-07
5.9807962e-07
5.8554841e-07
5.707383e-07
5.5539164e-07
5.3988002e-07
5.2955751e-07
5.2915036e-07
5.3227371e-07
5.4390089e-07
5.8243765e-07
6.574029e-07
7.5909349e-07
9.9262719e-07
3.6068166e-06
3.1295733e-06
2.3755776e-06
1.8653038e-06
1.5305418e-06
1.2986291e-06
1.1243304e-06
9.9113422e-07
8.8931004e-07
8.1421142e-07
7.5582769e-07
7.1706134e-07
6.8914836e-07
6.7195555e-07
6.5851472e-07
6.4528551e-07
6.3678202e-07
6.2774857e-07
6.1850402e-07
6.1430145e-07
6.0642905e-07
5.9890932e-07
5.9658139e-07
5.9578055e-07
5.858983e-07
5.8217513e-07
5.8685093e-07
6.18009e-07
6.8549224e-07
7.5910853e-07
8.7456536e-07
5.1833986e-06
4.7107911e-06
3.5899935e-06
2.7949112e-06
2.1872654e-06
1.7297084e-06
1.3677211e-06
1.1160336e-06
9.4963627e-07
8.3994029e-07
7.6676889e-07
7.1725031e-07
6.8437145e-07
6.5963253e-07
6.4017529e-07
6.2395557e-07
6.1282441e-07
6.012284e-07
5.9598544e-07
5.995484e-07
5.9979928e-07
6.029868e-07
6.1479732e-07
6.3362259e-07
6.471669e-07
6.7147406e-07
7.1679532e-07
7.5687736e-07
8.0968002e-07
9.0424238e-07
9.4641028e-07
4.08347e-06
4.0215928e-06
3.6306061e-06
3.22349e-06
2.7801857e-06
2.3009788e-06
1.8622992e-06
1.4536299e-06
1.1356668e-06
9.3525784e-07
8.1866036e-07
7.4585148e-07
7.0211936e-07
6.7119756e-07
6.4637026e-07
6.2642237e-07
6.0616433e-07
5.9078525e-07
5.7581772e-07
5.664747e-07
5.6512797e-07
5.7178666e-07
5.9251929e-07
6.2295791e-07
6.390669e-07
6.6809913e-07
7.1499785e-07
8.1393833e-07
8.7472373e-07
1.0381548e-06
1.0861882e-06
3.1095178e-06
2.6354204e-06
2.5976137e-06
2.5343521e-06
2.3507246e-06
2.1125194e-06
1.8158178e-06
1.5499729e-06
1.3453877e-06
1.167855e-06
1.0159686e-06
9.0426212e-07
8.4000569e-07
8.0331616e-07
7.7677825e-07
7.4687636e-07
7.1006158e-07
6.7375981e-07
6.3627306e-07
6.0738115e-07
5.7912708e-07
5.6896552e-07
5.7872224e-07
5.9031888e-07
6.0060115e-07
6.1636287e-07
6.5390723e-07
7.2794464e-07
8.2003248e-07
9.6427405e-07
1.1738824e-06
3.1065417e-06
2.3947731e-06
2.0366276e-06
1.8172531e-06
1.6528188e-06
1.4974708e-06
1.3699282e-06
1.2968394e-06
1.2440877e-06
1.2120737e-06
1.1997581e-06
1.2006344e-06
1.201807e-06
1.2045037e-06
1.2100324e-06
1.2057015e-06
1.1731e-06
1.099806e-06
1.0128416e-06
9.1030424e-07
7.8811704e-07
6.8758411e-07
6.4168507e-07
6.2790481e-07
6.1675888e-07
6.1228355e-07
6.2744153e-07
6.5848705e-07
7.1668289e-07
7.8109137e-07
9.4316189e-07
3.1526349e-06
2.5661352e-06
2.1313058e-06
1.8619914e-06
1.6578441e-06
1.4622426e-06
1.2970562e-06
1.1353053e-06
1.0575574e-06
1.0594425e-06
1.0798903e-06
1.1225115e-06
1.1652119e-06
1.1972746e-06
1.2177003e-06
1.2253248e-06
1.2196462e-06
1.185254e-06
1.139881e-06
1.0832792e-06
1.027511e-06
9.6859436e-07
9.1997641e-07
8.7859509e-07
8.1494296e-07
7.5016041e-07
7.4395813e-07
7.697646e-07
8.1185761e-07
8.7793843e-07
9.9173623e-07
3.43826e-06
3.2591761e-06
2.7246065e-06
2.3900669e-06
2.0628049e-06
1.7653312e-06
1.4865121e-06
1.2399235e-06
1.0934368e-06
1.0039731e-06
9.4817742e-07
9.2048731e-07
9.1539695e-07
9.1576116e-07
9.1395098e-07
9.1078665e-07
8.9445331e-07
8.7327312e-07
8.7162444e-07
8.7394795e-07
8.9047162e-07
9.0806741e-07
9.2598005e-07
9.5831013e-07
1.0006864e-06
1.0546996e-06
1.1149715e-06
1.2019665e-06
1.2654075e-06
1.3900573e-06
1.3563399e-06
3.2746842e-06
2.9836735e-06
2.6328978e-06
2.4013951e-06
2.1202429e-06
1.8380009e-06
1.6064126e-06
1.406621e-06
1.2345252e-06
1.09869e-06
1.0146693e-06
9.616739e-07
9.2935711e-07
9.1208646e-07
8.8956401e-07
8.6472937e-07
8.2492988e-07
7.7179041e-07
7.1898192e-07
6.9757841e-07
7.0028112e-07
7.1906903e-07
7.5436228e-07
8.3937131e-07
9.1493665e-07
1.040089e-06
1.1222482e-06
1.2968866e-06
1.4704785e-06
1.7277335e-06
2.040821e-06
3.2530066e-06
2.6433903e-06
2.1731247e-06
1.922616e-06
1.7173721e-06
1.5503259e-06
1.4023805e-06
1.2952484e-06
1.1868833e-06
1.0901941e-06
1.0285387e-06
9.8433781e-07
9.4965889e-07
9.2508309e-07
8.9611043e-07
8.5264289e-07
7.9866638e-07
7.5018518e-07
7.0036002e-07
6.5368075e-07
6.3394995e-07
6.3769141e-07
6.4271726e-07
6.6161984e-07
7.066486e-07
7.9505615e-07
9.0526653e-07
1.0079494e-06
1.2533502e-06
1.466294e-06
1.889905e-06
3.190568e-06
2.5261415e-06
2.0027314e-06
1.6868447e-06
1.4689983e-06
1.3065396e-06
1.1854942e-06
1.0910061e-06
1.0082858e-06
9.5574754e-07
9.1778947e-07
8.8045703e-07
8.5078535e-07
8.2879813e-07
8.0599437e-07
7.764564e-07
7.479434e-07
7.1893694e-07
6.8934903e-07
6.5886544e-07
6.3570355e-07
6.2392528e-07
6.1832099e-07
6.1772835e-07
6.3053461e-07
6.5920161e-07
6.9880658e-07
7.297828e-07
8.1465842e-07
8.977254e-07
1.1338161e-06
3.268989e-06
2.7010951e-06
2.1124375e-06
1.8240524e-06
1.6170694e-06
1.4623619e-06
1.3632533e-06
1.2381955e-06
1.18353e-06
1.0912279e-06
1.0132669e-06
9.6091133e-07
9.2227424e-07
8.9093136e-07
8.5870014e-07
8.2635588e-07
7.9508269e-07
7.5986424e-07
7.3125291e-07
7.0177821e-07
6.7069239e-07
6.5457519e-07
6.4923604e-07
6.4685117e-07
6.5881044e-07
6.8817535e-07
7.3406084e-07
7.7735737e-07
8.2751675e-07
9.1268359e-07
9.9704352e-07
3.2021222e-06
2.8171464e-06
2.5634256e-06
2.46722e-06
2.2908491e-06
2.1471647e-06
1.9620141e-06
1.7352044e-06
1.6098437e-06
1.4103287e-06
1.2529863e-06
1.1508529e-06
1.0789107e-06
1.0256082e-06
9.8339637e-07
9.4186846e-07
9.0804657e-07
8.8432422e-07
8.7499308e-07
8.668169e-07
8.6496021e-07
8.7714082e-07
8.8781981e-07
8.989759e-07
9.2859063e-07
9.9509062e-07
1.0591568e-06
1.1483345e-06
1.1819713e-06
1.3103437e-06
1.3288591e-06
3.2332123e-06
2.9284478e-06
2.6436375e-06
2.6329177e-06
2.6029749e-06
2.4526953e-06
2.6002618e-06
2.449239e-06
2.7898952e-06
2.568719e-06
2.4597478e-06
2.4170895e-06
2.4000534e-06
2.3994198e-06
2.3898044e-06
2.3645641e-06
2.3369667e-06
2.3209869e-06
2.3260503e-06
2.3211924e-06
2.3449275e-06
2.4306298e-06
2.487366e-06
2.5233238e-06
2.5855921e-06
2.7526247e-06
2.901713e-06
3.057816e-06
3.0850077e-06
3.1918547e-06
3.0939402e-06
3.6975532e-06
5.4719803e-06
6.722566e-06
7.3048424e-06
8.8718555e-06
8.1600318e-06
1.1343428e-05
1.0876204e-05
1.4444961e-05
1.2360729e-05
1.1432444e-05
1.142977e-05
1.1480703e-05
1.1505455e-05
1.1480411e-05
1.1349978e-05
1.1224869e-05
1.1150709e-05
1.1170823e-05
1.1140735e-05
1.1135011e-05
1.1344149e-05
1.1459387e-05
1.1431023e-05
1.1388143e-05
1.1543618e-05
1.1760266e-05
1.1893338e-05
1.1806527e-05
1.1631074e-05
1.1142117e-05
1.8906507e-05
4.1455121e-05
6.3999358e-05
4.7988177e-05
6.8635285e-05
5.0460979e-05
7.3349987e-05
5.3176852e-05
7.6509547e-05
5.9442433e-05
5.4346922e-05
5.0406307e-05
4.7554674e-05
4.5408947e-05
4.4363506e-05
4.343338e-05
4.3375022e-05
4.3046021e-05
4.3111536e-05
4.2614767e-05
4.2857292e-05
4.1713509e-05
4.1484777e-05
4.0451588e-05
4.0740743e-05
3.9337834e-05
3.8790597e-05
3.7036402e-05
3.7099331e-05
3.5891031e-05
3.5459132e-05
3.3511912e-05
1.2400395e-05
3.7900929e-06
1.6592281e-06
1.183896e-06
1.2683648e-06
2.0813094e-06
2.3478837e-06
1.6384111e-06
1.169781e-06
1.0811443e-06
1.3246162e-06
1.2716439e-06
1.0635994e-06
9.6270379e-07
1.0617493e-06
1.2014612e-06
1.2312253e-06
1.1643857e-06
1.080453e-06
1.0831625e-06
9.8164552e-07
8.2215831e-07
3.4194189e-05
1.3516098e-05
4.5122825e-06
2.0716366e-06
1.4129362e-06
1.4130148e-06
2.2301448e-06
3.0519488e-06
2.5845202e-06
1.7126237e-06
1.3274421e-06
1.5836107e-06
1.5838248e-06
1.4464351e-06
1.168269e-06
1.1948889e-06
1.3776565e-06
1.4586627e-06
1.459513e-06
1.3289132e-06
1.3207014e-06
1.2758731e-06
1.0880856e-06
3.2226801e-05
1.4649159e-05
5.4494565e-06
2.6186902e-06
1.7980552e-06
1.6445726e-06
2.4971848e-06
3.6426317e-06
3.5017446e-06
2.5118494e-06
1.6510714e-06
1.8149935e-06
1.872961e-06
1.8116703e-06
1.5757582e-06
1.4370142e-06
1.6244523e-06
1.7720423e-06
1.7696737e-06
1.5842048e-06
1.5729135e-06
1.5926629e-06
1.5576476e-06
3.3243272e-05
1.6192924e-05
7.0250616e-06
3.8955967e-06
2.6874014e-06
2.177676e-06
3.1368779e-06
4.6713376e-06
4.5475013e-06
3.6527034e-06
2.1900107e-06
2.1568546e-06
2.2518667e-06
2.2499609e-06
2.0711294e-06
1.7995453e-06
1.885923e-06
2.0397214e-06
2.1009617e-06
2.046666e-06
1.89801e-06
1.9483799e-06
1.9228563e-06
2.8640502e-05
1.7314981e-05
8.7502176e-06
5.5320928e-06
4.0911894e-06
3.0933061e-06
4.1118031e-06
6.5281038e-06
6.4820977e-06
5.9066339e-06
3.5022879e-06
2.7134578e-06
2.8961931e-06
2.8502161e-06
2.7871858e-06
2.3615657e-06
2.207651e-06
2.3683693e-06
2.4392193e-06
2.4690669e-06
2.3549852e-06
2.3691365e-06
2.3315948e-06
2.6619735e-05
1.8590407e-05
1.0873532e-05
7.3332732e-06
5.4587814e-06
4.1549864e-06
5.064595e-06
8.3207094e-06
8.4943606e-06
8.1450172e-06
6.2660661e-06
3.9718272e-06
4.1695722e-06
4.1422423e-06
3.8278362e-06
3.3888767e-06
2.8520474e-06
3.0629303e-06
3.2268829e-06
3.3044544e-06
3.185986e-06
3.0218241e-06
3.0113392e-06
2.5217971e-05
2.0478109e-05
1.3500545e-05
1.0192858e-05
7.6967816e-06
5.9294051e-06
6.6156733e-06
1.0999321e-05
1.175438e-05
1.1580544e-05
1.0330521e-05
6.4917599e-06
5.9363825e-06
5.7601329e-06
5.0436709e-06
4.5449287e-06
3.9221311e-06
3.9694068e-06
4.3136783e-06
4.3788654e-06
4.4849007e-06
4.2822496e-06
4.2516028e-06
2.5187427e-05
2.1759265e-05
1.6769192e-05
1.4802743e-05
1.1360055e-05
9.2032977e-06
9.6928035e-06
1.6231607e-05
1.8591838e-05
1.7708453e-05
1.6476376e-05
1.1179249e-05
8.5613218e-06
8.4194022e-06
7.666535e-06
6.3083433e-06
5.3457733e-06
5.2079423e-06
5.7820734e-06
6.0309249e-06
5.7186871e-06
5.3630003e-06
5.333997e-06
2.4593965e-05
2.3224883e-05
2.2339687e-05
2.2395582e-05
2.0492913e-05
1.6501182e-05
1.6633056e-05
2.8341573e-05
3.431997e-05
3.0260762e-05
2.7095741e-05
1.947689e-05
1.3812685e-05
1.3759414e-05
1.3183373e-05
1.0472677e-05
8.2047758e-06
7.1799256e-06
7.5323318e-06
8.0044688e-06
7.5158568e-06
6.748656e-06
6.272898e-06
2.2109465e-05
2.4630902e-05
2.6747318e-05
2.9522542e-05
3.1547978e-05
3.1972907e-05
3.3603176e-05
5.7381773e-05
6.8405934e-05
5.9813974e-05
4.7639645e-05
3.7432419e-05
2.6325506e-05
2.5700366e-05
2.5401139e-05
2.1616251e-05
1.4775197e-05
1.1220181e-05
1.0886152e-05
1.2176253e-05
1.1726797e-05
9.9077468e-06
8.2638809e-06
2.4475754e-05
2.8176628e-05
3.6192385e-05
4.4769924e-05
5.5034335e-05
6.3743563e-05
7.2653929e-05
0.00011907027
0.00014316941
0.00012434319
9.6714918e-05
8.2324935e-05
5.7371527e-05
5.4289874e-05
5.6032285e-05
5.1032053e-05
3.0642996e-05
2.0077447e-05
1.7021803e-05
2.1009438e-05
2.2359365e-05
1.9147039e-05
1.3480938e-05
2.6204037e-05
3.4385643e-05
4.8368928e-05
6.1404617e-05
8.0737249e-05
0.00011041029
0.00015584723
0.00024723055
0.00028892909
0.00027430616
0.00023530438
0.0002065408
0.00014796556
0.00013819501
0.00014513758
0.00012900049
6.9339549e-05
3.9400002e-05
2.8984299e-05
3.3117261e-05
4.4822054e-05
4.3032412e-05
2.9192034e-05
3.4601249e-05
4.8749542e-05
7.2868796e-05
9.3890336e-05
0.00013751054
0.00021140902
0.0003271982
0.00046842325
0.00049209284
0.00046149368
0.00039671002
0.00038287445
0.00038097241
0.00039952726
0.00040837301
0.00031493238
0.00014559534
7.9730929e-05
5.8796007e-05
5.8767775e-05
7.2823157e-05
7.3137105e-05
5.4289602e-05
4.230016e-05
6.4021362e-05
9.674161e-05
0.00012208996
0.00018960568
0.00033062999
0.00056644786
0.00072162763
0.00072167152
0.00064054001
0.00054402288
0.00056911285
0.00073533451
0.0010482103
0.00098646491
0.00061897164
0.00025922096
0.00015564338
0.00012301093
0.0001153307
0.00013814675
0.0001366641
9.8374183e-05
5.4060271e-05
8.3000099e-05
0.00012822652
0.00016699663
0.00027556964
0.0005021824
0.00084779098
0.0010042427
0.00099171692
0.00087661584
0.00081403359
0.0009165734
0.001431766
0.0020912304
0.0020640391
0.0013007913
0.00052544133
0.00033120947
0.00029017208
0.00027078737
0.00033194408
0.00030810606
0.00018380645
6.1764629e-05
9.7186978e-05
0.0001599546
0.00021162694
0.00035572602
0.00065703027
0.0010545129
0.0012154854
0.0011839601
0.0010339836
0.0010076706
0.0011784858
0.0019608389
0.0027831394
0.0027480642
0.0018036644
0.00077471906
0.00054338953
0.00053249539
0.00062355583
0.00071914558
0.00058797413
0.00028159674
7.1597636e-05
0.00011215812
0.00019012614
0.00025722954
0.00043423465
0.00079448354
0.0012046588
0.0013626877
0.0013138222
0.001162228
0.0011668384
0.0014017646
0.0023734198
0.0032701544
0.0031976174
0.0021416058
0.0011127176
0.00091995449
0.0011077869
0.0014666588
0.0015560917
0.0011663001
0.00049792148
7.5974135e-05
0.0001248149
0.00022156406
0.00030769714
0.00051406301
0.00091534751
0.0013343164
0.0014956297
0.0014522496
0.0013390144
0.0013748238
0.0016940556
0.0028252895
0.0037316522
0.0035880421
0.0024541536
0.0015917168
0.0014950837
0.0019855225
0.002365331
0.0023446042
0.0017383591
0.00077535455
7.4902128e-05
0.00012605553
0.0002288889
0.00034556899
0.00059075187
0.0010333922
0.0014667784
0.0016481308
0.0016314032
0.0015613526
0.0016341661
0.0020507101
0.0033151438
0.0041968281
0.0039047277
0.0026584679
0.0019525014
0.001918664
0.0025368947
0.0029003041
0.0027718285
0.0019972861
0.0010326339
7.0181148e-05
0.00012169512
0.00022662892
0.00037595658
0.0006755775
0.0011779801
0.0016222662
0.0018285704
0.0018468465
0.0018478071
0.0019848701
0.0025878126
0.003971556
0.0047299846
0.0042042136
0.0029801348
0.0025640488
0.0027931642
0.0036242611
0.0038979036
0.0034688456
0.0022579299
0.0014529971
6.7186802e-05
0.00010676164
0.00020100145
0.00038284506
0.00073547943
0.0012926218
0.0017817582
0.0020312785
0.0021077816
0.0022024219
0.0024625572
0.0033194685
0.0045832504
0.0050857489
0.0044781784
0.0037502575
0.0035884988
0.0041173986
0.0046888173
0.0047838427
0.0039378707
0.0025506067
0.0020376136
6.6346984e-05
9.4416162e-05
0.00017436751
0.00035938561
0.00075495747
0.0013888005
0.0018985706
0.0022076844
0.0023948139
0.0026289899
0.00314993
0.0041618422
0.0049831366
0.0052069505
0.0048670748
0.0045967937
0.0046740125
0.0052505195
0.0054418541
0.005097919
0.0039462129
0.0029429728
0.0028482267
6.8526194e-05
8.8247184e-05
0.00015583913
0.00033105103
0.00075236909
0.0014378667
0.0020123752
0.0024435859
0.0028015983
0.003199374
0.0038434704
0.0045465679
0.004987356
0.0051653452
0.0051700203
0.005196063
0.0054678404
0.005717374
0.00569772
0.0050311703
0.0039403166
0.0034951238
0.0034672318
7.6474633e-05
9.2112604e-05
0.00015441072
0.00033119109
0.00079508878
0.0015233205
0.0022049136
0.0027906817
0.0032627032
0.0036719018
0.0041468231
0.0045716773
0.0048694537
0.005104931
0.0052904976
0.0054854864
0.0057814176
0.0058865067
0.0056023327
0.0047760095
0.003972826
0.0035738745
0.0032958561
8.8070766e-05
0.00010663309
0.00017654552
0.00038560978
0.00092962554
0.0016776034
0.0024333954
0.0031128106
0.0035818263
0.0039001915
0.0042567082
0.0045643599
0.0048102788
0.005045084
0.0052788781
0.005535318
0.0057739826
0.0057108967
0.0051563227
0.004341406
0.0036574025
0.0032305657
0.0028658413
0.0001032208
0.00013251546
0.00023621171
0.00053562182
0.0011647861
0.0018547756
0.0025648306
0.0032282153
0.003697579
0.0040169312
0.0043315038
0.0045895264
0.004824788
0.0050779445
0.0052550084
0.0053797654
0.0053492465
0.0049609104
0.0044002066
0.0037866536
0.0032836194
0.0028524025
0.0024238982
0.00011857569
0.00017170182
0.00034408259
0.00076071897
0.0013783706
0.001949551
0.0025403013
0.0031437658
0.0036462575
0.0040543302
0.0044028068
0.0046362842
0.0048626515
0.0050549648
0.0050659688
0.0048629204
0.0044071936
0.0038932678
0.0035537461
0.0032693966
0.002896405
0.0024229731
0.0021593795
0.00012632694
0.00021343232
0.00046458459
0.00095562039
0.0015004634
0.0020018878
0.0025279233
0.0030667593
0.0035483422
0.0039801408
0.004328489
0.0045371578
0.0047029272
0.0047309092
0.0044756452
0.0039989146
0.0034449393
0.0030508023
0.0028532921
0.0026414784
0.0023456592
0.0021792661
0.0021408639
0.00012579628
0.00025484557
0.00057503964
0.0010754813
0.0015829693
0.0020705637
0.0025802442
0.0030763689
0.0034777607
0.0037738207
0.0039572654
0.0040675671
0.0041398202
0.0040823818
0.0037812909
0.0033036284
0.0028060977
0.0024971188
0.0023483303
0.0022116052
0.0021200663
0.0021112481
0.00222151
0.00012689801
0.00028997104
0.00064437585
0.0011224186
0.0016180167
0.0021088523
0.0025874824
0.003021825
0.0033174702
0.0034379451
0.0034585229
0.0034307763
0.003410873
0.0033494317
0.0031290404
0.0027480631
0.0023860141
0.0022240155
0.0021821362
0.0021943309
0.0021976334
0.0022983551
0.0026908202
0.00013158874
0.00035240648
0.00072459702
0.0011559291
0.0015910466
0.0020201165
0.0024363272
0.0027995904
0.003026819
0.0030876148
0.0030501513
0.0029577304
0.0028729659
0.0027506031
0.0025082557
0.0021914133
0.0020498787
0.0020348348
0.002172921
0.0023344296
0.0025463444
0.0028787419
0.003309277
0.00013815816
0.00040119021
0.00077475025
0.0011604746
0.0015304605
0.0018794753
0.0022153182
0.0025024499
0.0026767045
0.0027384227
0.002715123
0.0026147053
0.0024788062
0.0022828154
0.0020184856
0.0018592601
0.0018236786
0.0019447127
0.0022517817
0.0026756499
0.0030442509
0.0033083746
0.0035161455
0.00013794164
0.00042002767
0.00077646771
0.0011460127
0.001490805
0.0017936061
0.0020511494
0.0022507933
0.0023555586
0.0023923168
0.0023500062
0.0022389612
0.0020896621
0.0019209586
0.0018075237
0.0017697803
0.0018406307
0.0020975854
0.0025792211
0.0029829912
0.0032100529
0.0033111318
0.0033001288
0.0001375223
0.00042861365
0.00076101572
0.0011014476
0.0014214521
0.0017052484
0.0019435792
0.0020816615
0.0021146768
0.0020776669
0.0019562891
0.0018067309
0.001718995
0.0016959609
0.001745568
0.0018528308
0.0021072132
0.0025452227
0.002872753
0.0030054216
0.0030135202
0.0029405904
0.0026680354
0.00014789868
0.00047149501
0.00077462336
0.0010959586
0.0013814888
0.0016192804
0.0017865866
0.001858201
0.0018580023
0.0017826903
0.0016575145
0.0015781559
0.0015664846
0.0016511399
0.001821396
0.0020995832
0.0024249388
0.0026820785
0.002782852
0.0027245904
0.0024408701
0.0020780853
0.0016527089
0.00014658835
0.00047381793
0.00075218296
0.0010334584
0.0012744437
0.0014624206
0.0015862017
0.0016462317
0.0016585438
0.0016088699
0.0015198962
0.0014736677
0.0014927049
0.0016095448
0.0018096412
0.0020581949
0.0023001338
0.0024431842
0.0024092278
0.0021771449
0.001814377
0.0014364492
0.0011488869
0.00014356836
0.00046078944
0.00071109756
0.00096711937
0.0011868786
0.0013504495
0.001446697
0.0014838143
0.0014820386
0.001434965
0.0013708338
0.0013520228
0.001401923
0.0015457341
0.0017484971
0.0019478494
0.0020699479
0.0020944096
0.0020062616
0.0018050419
0.0015148403
0.0012198472
0.00099316203
0.00014248092
0.00045139223
0.00067473105
0.00090196516
0.0011001538
0.0012493337
0.0013350698
0.0013614646
0.0013469457
0.0012938999
0.0012454978
0.0012441869
0.001329205
0.0015052458
0.0017121009
0.0018623057
0.0019082399
0.0018638509
0.0017265983
0.0015138096
0.0012683445
0.0010428885
0.00087117949
0.00014286513
0.00045148073
0.00065025071
0.00084690977
0.0010146652
0.0011397969
0.0012113638
0.0012360796
0.0012240873
0.0011792915
0.0011517153
0.0011737952
0.0012873409
0.001469377
0.0016474106
0.0017356328
0.0017403763
0.0016536143
0.0015006429
0.0013051408
0.001100851
0.00092174342
0.00078715956
0.00014008277
0.00044597509
0.00062484249
0.00079771829
0.0009408495
0.0010421334
0.0010945435
0.0011112588
0.0011004991
0.0010771578
0.0010758885
0.0011376431
0.0012790147
0.0014533977
0.0015812999
0.0016248022
0.0015909031
0.0014799552
0.0013232313
0.0011441535
0.00097054755
0.0008267002
0.0007232628
0.00013414612
0.00043070743
0.00059753848
0.00075332223
0.00088082749
0.00096713452
0.0010057624
0.0010128029
0.00099834354
0.00098777636
0.0010118194
0.0011085783
0.0012673556
0.0014246059
0.0014999484
0.0015081671
0.0014443199
0.0013247002
0.0011753089
0.0010170115
0.00087466792
0.00076797443
0.00069861142
0.00012955095
0.00041893629
0.00057196237
0.00071402099
0.00082864697
0.00090258341
0.00093342083
0.00093548896
0.00092041784
0.00091777404
0.00096352657
0.0010825795
0.0012406838
0.0013616523
0.0014037727
0.0013898503
0.0013141026
0.0011975695
0.001060382
0.0009229849
0.00080955229
0.00073738368
0.00069801329
0.00012905712
0.00040964564
0.00054687475
0.00067156485
0.00077233024
0.0008354933
0.00086064838
0.00086200333
0.00085267613
0.00086124677
0.00092631201
0.0010574291
0.0012044831
0.0012919717
0.0013147142
0.0012862475
0.0012073647
0.0010977898
0.0009739403
0.00085538549
0.00076885953
0.00072442505
0.00070061614
0.00012441265
0.00039775274
0.00052878927
0.00063893761
0.00072340776
0.00077405205
0.00079334064
0.00079358487
0.00078978838
0.00081101558
0.00089228794
0.0010288391
0.0011625104
0.0012271453
0.0012370895
0.0011978253
0.0011174807
0.0010147118
0.00090367691
0.00080443738
0.00074708371
0.00072195546
0.00070872952
0.00011269769
0.00037302829
0.00050366391
0.00061220153
0.00069264972
0.00073659126
0.00074971302
0.00074469101
0.00074025552
0.00076649914
0.0008554695
0.00099147411
0.0011104287
0.0011603564
0.0011624411
0.0011179786
0.0010391015
0.00094363552
0.00084681016
0.00076954561
0.00073635268
0.00072727886
0.00072605886
0.00010559734
0.00034399677
0.00046252734
0.00056337154
0.00064585065
0.00069661827
0.00071377344
0.00070887263
0.00070289545
0.00072730943
0.00081264503
0.00094093274
0.0010485765
0.0010916031
0.001091665
0.0010487693
0.00097546372
0.00088866287
0.00080589759
0.00075258576
0.00073649543
0.00073785553
0.00075001166
9.9612779e-05
0.00032958398
0.00044033442
0.00052627124
0.00059441444
0.00064129891
0.0006630172
0.00066352659
0.00065922007
0.00068258725
0.00076382605
0.00088418534
0.00098760851
0.0010307967
0.001032018
0.0009930624
0.00092573421
0.00084666529
0.00077574122
0.00074088085
0.00073416114
0.00074625628
0.00077250593
8.6274561e-05
0.0002905406
0.00040846982
0.00049626917
0.00056434487
0.00060643886
0.00062467501
0.00062470427
0.00061869653
0.0006349746
0.0007065382
0.00082332082
0.00092773172
0.00097812878
0.0009821553
0.00094731931
0.00088449879
0.00080976871
0.00074729543
0.00072316584
0.00072276568
0.00074303386
0.00077886457
7.3419318e-05
0.00024576343
0.00036255005
0.00044244883
0.00051485408
0.00056910354
0.00059645253
0.00059912342
0.00059174086
0.0005957645
0.00064358249
0.00075002898
0.00085558219
0.00091699048
0.00093136555
0.00090713947
0.00085278979
0.00078333796
0.00072265922
0.00070069612
0.00070467342
0.00073254192
0.00077334924
6.0986301e-05
0.00021984816
0.00033940634
0.00041059695
0.00046374383
0.0005132113
0.00055001217
0.00056385532
0.00056074423
0.00055589407
0.00058079948
0.00066074884
0.00077579201
0.0008526447
0.00088179296
0.00087267529
0.00083191403
0.00077165262
0.00071057907
0.00068053613
0.00068212763
0.00071139254
0.00075705346
5.5659899e-05
0.00014403659
0.00029988593
0.00038822872
0.00044288189
0.00048091529
0.0005110003
0.00052877132
0.00053048804
0.00052430338
0.00052883334
0.00056973
0.00067060441
0.00078176781
0.00083795125
0.000844543
0.00081920079
0.00076875147
0.00070980773
0.00066525453
0.00065490268
0.00067824326
0.00072455625
6.3752236e-05
9.3190189e-05
0.00018542781
0.00031885145
0.00040596167
0.00045727814
0.00049050459
0.00051010426
0.00051428189
0.00051006041
0.00050110785
0.0005103933
0.00055704424
0.00065935481
0.00076329311
0.00080811489
0.00080227926
0.00076739186
0.00071311926
0.00066251432
0.00063384213
0.00064291758
0.00068484806
9.0050641e-05
9.3998565e-05
0.00012801503
0.00020520561
0.00030219232
0.0003877808
0.00044707268
0.00048241042
0.00049688196
0.00049767195
0.00049168865
0.00048624767
0.00049840443
0.00054506212
0.00064047926
0.00073647534
0.00077182615
0.00076106683
0.00072614827
0.00067134086
0.00063230681
0.00062030753
0.00064925765
0.00015328345
0.00012026472
0.00013409708
0.00017679172
0.00023980515
0.00030417946
0.00036299833
0.00041281259
0.00044923958
0.00046827529
0.00047316183
0.00046986523
0.00046926615
0.00048230892
0.00052639835
0.00061416537
0.00070768388
0.00073811801
0.00072555191
0.00069491198
0.00064377825
0.00061579686
0.00060765604
0.00020644274
0.00015924745
0.00017098945
0.00019662185
0.00024345561
0.00029401755
0.00033959235
0.00037728642
0.000407036
0.0004276897
0.00043986268
0.0004411876
0.00043948507
0.00044090167
0.00045461866
0.00049512471
0.00057597634
0.00067380695
0.00070423894
0.00069475689
0.00067028112
0.00062801337
0.00059710819
0.00024504699
0.00018292118
0.00020671244
0.00025929073
0.00030367588
0.00033164753
0.00035953138
0.00038696148
0.00040899479
0.00042443194
0.00043343228
0.00043354454
0.00043110289
0.00042462849
0.00042011089
0.0004301875
0.00046295097
0.00053341131
0.00063512084
0.00067183296
0.00066791526
0.00065272685
0.00062063235
0.00028117674
0.00019873688
0.00022523222
0.0002903424
0.00036181417
0.00042385868
0.00045825111
0.00046347482
0.00045955026
0.0004547411
0.00044956912
0.00044230755
0.00043548204
0.0004261373
0.0004160812
0.0004069207
0.00041177059
0.00043430595
0.00049032848
0.00059059808
0.00063926677
0.00064835662
0.00064211314
0.00031083919
0.0002046217
0.0002298401
0.00029264686
0.00036809967
0.0004475331
0.00052181442
0.00057817637
0.00060366097
0.00058702528
0.00054968256
0.00050115712
0.00046805037
0.00044337173
0.00042413191
0.00040885908
0.00039821993
0.0003960269
0.00041073253
0.00045570464
0.00054505414
0.00061129547
0.00064915505
0.00032890147
0.00019751747
0.00022097789
0.00027942514
0.00035374855
0.00043783644
0.00052305574
0.00060473343
0.00067715974
0.00072349645
0.00072155976
0.0006888131
0.00061445842
0.00052371008
0.00046602187
0.000428588
0.0004050347
0.0003918832
0.000383477
0.00039291023
0.00042594627
0.00049915901
0.00058956582
0.00033197272
0.00017449166
0.00020170029
0.0002615675
0.00033056282
0.00040937635
0.00050117709
0.0005967923
0.00068525164
0.00076574662
0.00082377033
0.00084033068
0.00081990713
0.00075183721
0.00062526868
0.00051228176
0.00044417459
0.00040533389
0.00038480579
0.00037267906
0.00037750202
0.00040162167
0.00047112003
0.00032042623
0.00015027836
0.00018585972
0.00024437154
0.00030997653
0.00038320786
0.00046704064
0.00056546496
0.00067031039
0.00076510669
0.00084692887
0.0009083264
0.0009330944
0.00091791537
0.00086430355
0.00074603411
0.00059134288
0.0004739131
0.00041055339
0.00037878641
0.00036429551
0.00036479696
0.00038624621
0.00029743442
0.0001331121
0.00017299648
0.00022953321
0.00029182063
0.00035866808
0.00043158331
0.00051668107
0.00062004653
0.00073284358
0.00083250983
0.0009100854
0.00096252848