/*--------------------------------*- C++ -*----------------------------------*\
| =========                 |                                                 |
| \\      /  F ield         | OpenFOAM: The Open Source CFD Toolbox           |
|  \\    /   O peration     | Version:  2406                                  |
|   \\  /    A nd           | Website:  www.openfoam.com                      |
|    \\/     M anipulation  |                                                 |
\*---------------------------------------------------------------------------*/
FoamFile
{
    version     2.0;
    format      ascii;
    arch        "LSB;label=32;scalar=64";
    class       volScalarField;
    location    "200";
    object      kMean;
}
// * * * * * * * * * * * * * * * * * * * * * * * * * * * * * * * * * * * * * //

dimensions      [0 2 -2 0 0 0 0];

internalField   nonuniform List<scalar> 
132739
(
3.351166e-06
2.6864565e-06
2.2282479e-06
1.9037044e-06
1.6643832e-06
1.4811507e-06
1.3364303e-06
1.2192381e-06
1.1223966e-06
1.0410309e-06
9.7171388e-07
9.1196261e-07
8.5993427e-07
8.1422516e-07
7.7375824e-07
7.3768365e-07
7.0532164e-07
6.7612888e-07
6.4966165e-07
6.2555403e-07
6.0350274e-07
5.8325782e-07
5.6460893e-07
5.4736709e-07
5.3136252e-07
5.1643722e-07
5.0244901e-07
4.8930409e-07
4.7699476e-07
4.6561463e-07
4.552276e-07
4.4579986e-07
4.3740675e-07
4.301565e-07
4.2409607e-07
4.1920363e-07
4.1542207e-07
4.1266756e-07
4.108356e-07
4.0983272e-07
4.0958593e-07
4.1002862e-07
4.1110937e-07
4.1279418e-07
4.1505113e-07
4.1785792e-07
4.211723e-07
4.2497085e-07
4.2921507e-07
4.3388502e-07
4.3895138e-07
4.4433857e-07
4.501032e-07
4.5617247e-07
4.625671e-07
4.692597e-07
4.7629847e-07
4.8364033e-07
4.9134748e-07
4.9938634e-07
5.0769807e-07
5.163058e-07
5.2508897e-07
5.3396452e-07
5.4281494e-07
5.5154688e-07
5.601023e-07
5.6843594e-07
5.7651826e-07
5.8434639e-07
5.919339e-07
5.99336e-07
6.0663391e-07
6.1392218e-07
6.2130612e-07
6.2922095e-07
6.3810627e-07
6.4833762e-07
6.6036145e-07
6.7494933e-07
6.9301122e-07
7.1560674e-07
7.4352293e-07
7.774232e-07
8.1857123e-07
8.6716301e-07
9.187239e-07
9.6908338e-07
1.0157062e-06
1.0600575e-06
1.1060365e-06
1.1565492e-06
1.2129404e-06
1.2748934e-06
1.3417581e-06
1.4128032e-06
1.4873917e-06
1.5652723e-06
1.6471153e-06
1.7329262e-06
1.8246001e-06
1.9165837e-06
2.0234134e-06
2.125265e-06
3.3511661e-06
2.6868475e-06
2.2288073e-06
1.9043194e-06
1.6650055e-06
1.4817597e-06
1.3370198e-06
1.219804e-06
1.1229398e-06
1.0415557e-06
9.7222523e-07
9.1246042e-07
8.6041772e-07
8.1470174e-07
7.7422781e-07
7.3814272e-07
7.0577368e-07
6.7657699e-07
6.5010937e-07
6.2600343e-07
6.039536e-07
5.8371107e-07
5.6506655e-07
5.4783041e-07
5.318317e-07
5.169117e-07
5.0293338e-07
4.8980004e-07
4.7749962e-07
4.661222e-07
4.5573517e-07
4.4631465e-07
4.3793788e-07
4.3070148e-07
4.2465002e-07
4.1976931e-07
4.1599723e-07
4.1325427e-07
4.1144603e-07
4.1047585e-07
4.1027039e-07
4.1076127e-07
4.1189204e-07
4.1363246e-07
4.1594832e-07
4.1879572e-07
4.221428e-07
4.2595866e-07
4.3024514e-07
4.349863e-07
4.4013934e-07
4.4570941e-07
4.5167636e-07
4.5801213e-07
4.6470154e-07
4.7172521e-07
4.7907908e-07
4.8672528e-07
4.9466529e-07
5.028523e-07
5.1122867e-07
5.1976365e-07
5.2840357e-07
5.3709378e-07
5.4574345e-07
5.5426744e-07
5.6260636e-07
5.7070904e-07
5.7855219e-07
5.8611707e-07
5.9339295e-07
6.0040013e-07
6.071712e-07
6.1374757e-07
6.2016554e-07
6.2670607e-07
6.3358953e-07
6.4099704e-07
6.4913965e-07
6.5836602e-07
6.6928954e-07
6.8285887e-07
7.0029831e-07
7.2315551e-07
7.5361999e-07
7.938522e-07
8.4391585e-07
9.0082706e-07
9.5932554e-07
1.0167186e-06
1.07309e-06
1.1307777e-06
1.1917863e-06
1.2569223e-06
1.3257751e-06
1.3981166e-06
1.4732426e-06
1.5510685e-06
1.6313968e-06
1.7143252e-06
1.7998696e-06
1.8869159e-06
1.9759855e-06
2.0741412e-06
3.3511277e-06
2.6870894e-06
2.229186e-06
1.9047687e-06
1.6654824e-06
1.4822424e-06
1.3374987e-06
1.2202694e-06
1.1233885e-06
1.0419839e-06
9.7263036e-07
9.1284735e-07
8.6078552e-07
8.1504634e-07
7.7454802e-07
7.3843976e-07
7.0604851e-07
6.7682814e-07
6.5033612e-07
6.2620474e-07
6.0413203e-07
5.8386412e-07
5.6518957e-07
5.4792691e-07
5.3189996e-07
5.1695274e-07
5.0294823e-07
4.8979027e-07
4.7746968e-07
4.6606842e-07
4.5565301e-07
4.4620399e-07
4.377971e-07
4.3053156e-07
4.2444667e-07
4.1952897e-07
4.1572633e-07
4.129569e-07
4.111285e-07
4.1014849e-07
4.0993645e-07
4.1042757e-07
4.1156715e-07
4.1331762e-07
4.1564156e-07
4.1851165e-07
4.2190684e-07
4.2580466e-07
4.3017436e-07
4.3499221e-07
4.4024582e-07
4.4591062e-07
4.5196382e-07
4.583782e-07
4.6514365e-07
4.7223353e-07
4.796286e-07
4.8730504e-07
4.9523745e-07
5.0339554e-07
5.1173971e-07
5.2022393e-07
5.2877884e-07
5.3733206e-07
5.458384e-07
5.5423571e-07
5.6247253e-07
5.7050846e-07
5.7830464e-07
5.8584264e-07
5.93123e-07
6.0015404e-07
6.0695499e-07
6.1357383e-07
6.2005346e-07
6.267197e-07
6.3374004e-07
6.4118834e-07
6.4910967e-07
6.5753973e-07
6.6659298e-07
6.7652683e-07
6.8785209e-07
7.0155951e-07
7.1950827e-07
7.4462439e-07
7.8001457e-07
8.2679187e-07
8.8276313e-07
9.4284746e-07
1.0045847e-06
1.0677082e-06
1.1333277e-06
1.2024362e-06
1.2749144e-06
1.3502782e-06
1.4280071e-06
1.5075845e-06
1.5887398e-06
1.6714426e-06
1.7555333e-06
1.8408283e-06
1.9248258e-06
2.0189276e-06
3.3511477e-06
2.6874646e-06
2.2297116e-06
1.9053276e-06
1.6660269e-06
1.4827651e-06
1.3379913e-06
1.2207334e-06
1.123829e-06
1.0424053e-06
9.730344e-07
9.132306e-07
8.6114958e-07
8.1539548e-07
7.7488495e-07
7.3876504e-07
7.0636595e-07
6.771405e-07
6.506415e-07
6.2650426e-07
6.044262e-07
5.8415529e-07
5.6548153e-07
5.4821861e-07
5.3219056e-07
5.1724267e-07
5.0324101e-07
4.9009551e-07
4.7779354e-07
4.6640485e-07
4.5599411e-07
4.4656152e-07
4.381793e-07
4.3093516e-07
4.2487615e-07
4.1998605e-07
4.1621166e-07
4.134776e-07
4.1168859e-07
4.1075542e-07
4.106007e-07
4.1114807e-07
4.12348e-07
4.1415743e-07
4.1654214e-07
4.1947368e-07
4.2292761e-07
4.2687975e-07
4.3130809e-07
4.3619605e-07
4.4151692e-07
4.4724868e-07
4.5337121e-07
4.5986186e-07
4.6669748e-07
4.738536e-07
4.8130287e-07
4.8902402e-07
4.9698884e-07
5.0515778e-07
5.1349159e-07
5.2193871e-07
5.3045041e-07
5.3897673e-07
5.4746439e-07
5.5584729e-07
5.6407254e-07
5.7209635e-07
5.7987876e-07
5.8740452e-07
5.9465768e-07
6.0164998e-07
6.084041e-07
6.1494547e-07
6.213156e-07
6.2783097e-07
6.3465943e-07
6.4190888e-07
6.4967559e-07
6.5802596e-07
6.6702206e-07
6.767023e-07
6.8708586e-07
6.9829346e-07
7.1091596e-07
7.2667997e-07
7.486988e-07
7.8057516e-07
8.2423807e-07
8.7756635e-07
9.3596734e-07
9.9781364e-07
1.0630469e-06
1.1323797e-06
1.2061411e-06
1.2838103e-06
1.3645359e-06
1.4473979e-06
1.5317121e-06
1.6169703e-06
1.7031208e-06
1.789477e-06
1.8749421e-06
1.9656589e-06
3.3511236e-06
2.6876989e-06
2.2300656e-06
1.9057442e-06
1.666474e-06
1.4832184e-06
1.3384382e-06
1.2211668e-06
1.1242447e-06
1.0428004e-06
9.7340819e-07
9.1358744e-07
8.614914e-07
8.157196e-07
7.7518864e-07
7.3905199e-07
7.0663646e-07
6.7739388e-07
6.5087884e-07
6.2672423e-07
6.0463116e-07
5.843478e-07
5.6565691e-07
5.4837291e-07
5.3232802e-07
5.1736445e-07
5.033486e-07
4.901947e-07
4.7788204e-07
4.6648063e-07
4.5606737e-07
4.4663305e-07
4.3825443e-07
4.3101634e-07
4.2495905e-07
4.2007655e-07
4.1631309e-07
4.1358616e-07
4.1181086e-07
4.1089685e-07
4.1076752e-07
4.1135268e-07
4.1258987e-07
4.1443514e-07
4.1685761e-07
4.1982936e-07
4.2332124e-07
4.2731273e-07
4.3177894e-07
4.3669734e-07
4.4205194e-07
4.4781469e-07
4.5396359e-07
4.604784e-07
4.6732662e-07
4.7449479e-07
4.8196018e-07
4.8969125e-07
4.9766747e-07
5.0585353e-07
5.1421204e-07
5.2267803e-07
5.3120352e-07
5.3974987e-07
5.4825151e-07
5.5664949e-07
5.6489033e-07
5.7292603e-07
5.8071834e-07
5.8825852e-07
5.9553492e-07
6.0254689e-07
6.0932104e-07
6.1587909e-07
6.2228136e-07
6.2884401e-07
6.3570492e-07
6.4295817e-07
6.5067751e-07
6.5894461e-07
6.6784899e-07
6.7747915e-07
6.8788606e-07
6.9900333e-07
7.1077036e-07
7.2359428e-07
7.3911008e-07
7.6054908e-07
7.9162448e-07
8.3383146e-07
8.847701e-07
9.4061798e-07
1.0005241e-06
1.0649276e-06
1.1345988e-06
1.2096968e-06
1.2896499e-06
1.3734141e-06
1.4599486e-06
1.5481786e-06
1.6378042e-06
1.7275762e-06
1.8171563e-06
1.9114108e-06
3.3511528e-06
2.6880514e-06
2.230548e-06
1.9062576e-06
1.666974e-06
1.4836909e-06
1.3388856e-06
1.2215907e-06
1.1246439e-06
1.0431775e-06
9.737662e-07
9.1392787e-07
8.6181523e-07
8.1602917e-07
7.7548677e-07
7.3933904e-07
7.0691117e-07
6.7765403e-07
6.5112903e-07
6.2696925e-07
6.0486733e-07
5.8457455e-07
5.6587587e-07
5.4858609e-07
5.3253648e-07
5.1756512e-07
5.0354383e-07
4.9039054e-07
4.7808686e-07
4.6670053e-07
4.5629729e-07
4.4688184e-07
4.3853336e-07
4.3133115e-07
4.253095e-07
4.2045674e-07
4.167238e-07
4.1403176e-07
4.1230023e-07
4.1144107e-07
4.11362e-07
4.1199718e-07
4.1329855e-07
4.1521101e-07
4.1770099e-07
4.2074265e-07
4.2429942e-07
4.2835512e-07
4.3288087e-07
4.3786028e-07
4.4327844e-07
4.4910048e-07
4.5530579e-07
4.6187256e-07
4.6877612e-07
4.7599732e-07
4.8351362e-07
4.912888e-07
4.9931869e-07
5.0756345e-07
5.1595197e-07
5.2444801e-07
5.3300073e-07
5.4157e-07
5.5008874e-07
5.5849654e-07
5.6675176e-07
5.7480179e-07
5.8261534e-07
5.9017258e-07
5.9746205e-07
6.0448885e-07
6.1126514e-07
6.1781326e-07
6.2420067e-07
6.3072149e-07
6.3749873e-07
6.4463098e-07
6.5219862e-07
6.6028099e-07
6.6897596e-07
6.7838742e-07
6.8862976e-07
6.9974063e-07
7.1162205e-07
7.2418963e-07
7.3793653e-07
7.5467012e-07
7.7770026e-07
8.1015115e-07
8.5234418e-07
9.0170741e-07
9.5544826e-07
1.0131631e-06
1.0756117e-06
1.1436878e-06
1.2175889e-06
1.2969667e-06
1.3810546e-06
1.4686492e-06
1.5591946e-06
1.6512285e-06
1.743703e-06
1.8441628e-06
3.3511482e-06
2.6882836e-06
2.2308898e-06
1.9066563e-06
1.6673981e-06
1.4841167e-06
1.3393028e-06
1.2219911e-06
1.1250234e-06
1.0435382e-06
9.7410961e-07
9.1425211e-07
8.6212325e-07
8.1632128e-07
7.7576527e-07
7.3960362e-07
7.0716128e-07
6.7789425e-07
6.5135593e-07
6.2718095e-07
6.0506732e-07
5.8476265e-07
5.6605324e-07
5.4874976e-07
5.3268289e-07
5.1769688e-07
5.0366413e-07
4.9050739e-07
4.7820898e-07
4.6682948e-07
4.5643307e-07
4.4703371e-07
4.3871228e-07
4.3154019e-07
4.2554661e-07
4.2072564e-07
4.1702334e-07
4.1436914e-07
4.1268084e-07
4.1186284e-07
4.1183861e-07
4.1253749e-07
4.1389994e-07
4.1587747e-07
4.1843353e-07
4.2153813e-07
4.2515825e-07
4.2927771e-07
4.3386457e-07
4.3890556e-07
4.4438753e-07
4.5025882e-07
4.5650432e-07
4.6312451e-07
4.7008243e-07
4.7735514e-07
4.8492549e-07
4.9275051e-07
5.0081743e-07
5.0909e-07
5.1751857e-07
5.2606607e-07
5.3466048e-07
5.4325733e-07
5.5180667e-07
5.6024876e-07
5.6853665e-07
5.7662495e-07
5.8447515e-07
5.9206791e-07
5.9939544e-07
6.0644939e-07
6.1324823e-07
6.198194e-07
6.2623387e-07
6.327747e-07
6.3955984e-07
6.4666513e-07
6.5416703e-07
6.6214258e-07
6.7067018e-07
6.7984924e-07
6.8980795e-07
7.006533e-07
7.1239592e-07
7.2496316e-07
7.384631e-07
7.5372532e-07
7.7287512e-07
7.9887896e-07
8.337829e-07
8.7691569e-07
9.2568902e-07
9.7830192e-07
1.0345484e-06
1.0952579e-06
1.1612263e-06
1.2327611e-06
1.3098396e-06
1.3918741e-06
1.4784934e-06
1.568607e-06
1.6603754e-06
1.7634761e-06
3.3511866e-06
2.6886176e-06
2.2313374e-06
1.9071195e-06
1.667853e-06
1.4845498e-06
1.3397077e-06
1.2223718e-06
1.1253844e-06
1.0438799e-06
9.7443242e-07
9.1456073e-07
8.6241709e-07
8.1660152e-07
7.7603051e-07
7.398549e-07
7.0740163e-07
6.7812325e-07
6.5157473e-07
6.2739041e-07
6.0526678e-07
5.8495262e-07
5.6623397e-07
5.489198e-07
5.3284228e-07
5.1784683e-07
5.038091e-07
4.9065401e-07
4.7836385e-07
4.6699682e-07
4.5661544e-07
4.4724595e-07
4.3896755e-07
4.3184201e-07
4.2589879e-07
4.2112503e-07
4.174748e-07
4.1487694e-07
4.1324975e-07
4.1250251e-07
4.1254972e-07
4.1332312e-07
4.1475982e-07
4.1681598e-07
4.194524e-07
4.226368e-07
4.2633764e-07
4.3053599e-07
4.3520618e-07
4.4031831e-07
4.4586262e-07
4.5180829e-07
4.581409e-07
4.6484163e-07
4.718689e-07
4.7920664e-07
4.8684628e-07
4.94746e-07
5.0287247e-07
5.1120537e-07
5.1968833e-07
5.2828358e-07
5.3693606e-07
5.4559286e-07
5.5418968e-07
5.62679e-07
5.7102019e-07
5.7914555e-07
5.8703703e-07
5.9467194e-07
6.0203968e-07
6.0913266e-07
6.1596501e-07
6.2255302e-07
6.2899102e-07
6.3554434e-07
6.4230156e-07
6.4933674e-07
6.5673201e-07
6.645678e-07
6.729211e-07
6.8189385e-07
6.9159369e-07
7.021303e-07
7.135684e-07
7.2591247e-07
7.3925552e-07
7.5410045e-07
7.7174204e-07
7.9428844e-07
8.2394985e-07
8.615872e-07
9.0591061e-07
9.5478913e-07
1.0069404e-06
1.062433e-06
1.1219873e-06
1.1861168e-06
1.2551936e-06
1.329204e-06
1.4082994e-06
1.492004e-06
1.5786525e-06
1.678525e-06
3.351203e-06
2.688855e-06
2.2316798e-06
1.907514e-06
1.6682558e-06
1.4849447e-06
1.340094e-06
1.2227445e-06
1.1257417e-06
1.0442211e-06
9.7475551e-07
9.1486521e-07
8.6270367e-07
8.1687092e-07
7.7628516e-07
7.4009634e-07
7.0762821e-07
6.7833644e-07
6.5177558e-07
6.2757854e-07
6.0544336e-07
5.8512065e-07
5.6639277e-07
5.4906745e-07
5.3297676e-07
5.1796736e-07
5.0391907e-07
4.9075808e-07
4.7847641e-07
4.6712827e-07
4.5676845e-07
4.4743188e-07
4.391995e-07
4.32129e-07
4.2623925e-07
4.2152159e-07
4.1793317e-07
4.1540331e-07
4.1384733e-07
4.1317188e-07
4.1329641e-07
4.1415375e-07
4.1567879e-07
4.1782016e-07
4.2054805e-07
4.238198e-07
4.2760781e-07
4.31893e-07
4.3664617e-07
4.4184552e-07
4.4747384e-07
4.5350598e-07
4.5991347e-07
4.6668487e-07
4.7379631e-07
4.8121889e-07
4.8893321e-07
4.9690822e-07
5.0511505e-07
5.1352321e-07
5.2208219e-07
5.3074236e-07
5.3945513e-07
5.481646e-07
5.5681581e-07
5.6535661e-07
5.7374762e-07
5.8193455e-07
5.8988768e-07
5.9758245e-07
6.0500503e-07
6.1215334e-07
6.1902706e-07
6.2564571e-07
6.3210897e-07
6.3866701e-07
6.4542656e-07
6.5244372e-07
6.5978893e-07
6.6753486e-07
6.7575608e-07
6.8454561e-07
6.940075e-07
7.0426514e-07
7.1540442e-07
7.2744863e-07
7.4049895e-07
7.5502602e-07
7.7208382e-07
7.9321115e-07
8.2000597e-07
8.5351983e-07
8.936038e-07
9.3896595e-07
9.8808632e-07
1.0402027e-06
1.0954032e-06
1.1540628e-06
1.2167579e-06
1.2835971e-06
1.3549288e-06
1.4306918e-06
1.5096852e-06
1.6013645e-06
3.3512498e-06
2.6891495e-06
2.2320728e-06
1.9079209e-06
1.6686548e-06
1.4853331e-06
1.3404653e-06
1.2230996e-06
1.1260779e-06
1.0445368e-06
9.7505278e-07
9.1514632e-07
8.6297144e-07
8.1712504e-07
7.7652591e-07
7.4032247e-07
7.0784136e-07
6.7853773e-07
6.5196478e-07
6.2775647e-07
6.0561126e-07
5.8527708e-07
5.6653798e-07
5.4920215e-07
5.3309826e-07
5.1807793e-07
5.0402274e-07
4.9086498e-07
4.7859759e-07
4.6727014e-07
4.5693867e-07
4.4765002e-07
4.394777e-07
4.3247046e-07
4.2665355e-07
4.2201321e-07
4.1850093e-07
4.1604993e-07
4.1457862e-07
4.139958e-07
4.1421705e-07
4.1517167e-07
4.167993e-07
4.1904677e-07
4.2187521e-07
4.2524723e-07
4.2913991e-07
4.3352553e-07
4.3837948e-07
4.4368236e-07
4.4941051e-07
4.5554077e-07
4.6204999e-07
4.6891863e-07
4.7612476e-07
4.8364719e-07
4.9145503e-07
4.9952557e-07
5.0783349e-07
5.1632387e-07
5.2496617e-07
5.3370939e-07
5.4250023e-07
5.512826e-07
5.6000398e-07
5.6862164e-07
5.7707411e-07
5.8532602e-07
5.9334613e-07
6.0110678e-07
6.0858905e-07
6.1578771e-07
6.2271332e-07
6.2937186e-07
6.3587148e-07
6.4243895e-07
6.4917504e-07
6.5614427e-07
6.63417e-07
6.7106318e-07
6.7915823e-07
6.877855e-07
6.9703578e-07
7.0703054e-07
7.1788536e-07
7.2965676e-07
7.4241197e-07
7.5655303e-07
7.7314299e-07
7.9373044e-07
8.1962871e-07
8.5136399e-07
8.8870259e-07
9.3089547e-07
9.7696284e-07
1.0261583e-06
1.0781907e-06
1.1330817e-06
1.1911337e-06
1.2524779e-06
1.3176022e-06
1.3865463e-06
1.4589482e-06
1.5409269e-06
3.3512899e-06
2.6894042e-06
2.2324197e-06
1.9083033e-06
1.6690441e-06
1.4857152e-06
1.3408307e-06
1.2234438e-06
1.1264006e-06
1.0448418e-06
9.7534322e-07
9.1541761e-07
8.6322345e-07
8.1736141e-07
7.7674791e-07
7.405319e-07
7.0803904e-07
6.7872242e-07
6.5213617e-07
6.2791618e-07
6.0576067e-07
5.8541731e-07
5.6666699e-07
5.4931768e-07
5.3319953e-07
5.1816477e-07
5.0410149e-07
4.9094589e-07
4.7869215e-07
4.6739304e-07
4.5710237e-07
4.4787042e-07
4.3976672e-07
4.3283998e-07
4.2710161e-07
4.2254464e-07
4.1912533e-07
4.1677196e-07
4.1540253e-07
4.1492404e-07
4.1525693e-07
4.1632908e-07
4.1807286e-07
4.2043303e-07
4.2337567e-07
4.2686684e-07
4.3087439e-07
4.3537626e-07
4.4034567e-07
4.457608e-07
4.5160109e-07
4.5784546e-07
4.6446918e-07
4.7145217e-07
4.7877296e-07
4.8640445e-07
4.9432131e-07
5.0250352e-07
5.1092114e-07
5.1951486e-07
5.2825121e-07
5.3708996e-07
5.4596755e-07
5.5483314e-07
5.636345e-07
5.7232254e-07
5.8085848e-07
5.8919621e-07
5.9729217e-07
6.0512477e-07
6.1268229e-07
6.1994441e-07
6.2692106e-07
6.3362345e-07
6.4015931e-07
6.467467e-07
6.5347868e-07
6.6041953e-07
6.6763276e-07
6.751899e-07
6.8316812e-07
6.9164621e-07
7.0071475e-07
7.1047319e-07
7.210513e-07
7.3255774e-07
7.4506486e-07
7.5884681e-07
7.7485283e-07
7.9483219e-07
8.205103e-07
8.524387e-07
8.8978214e-07
9.3116167e-07
9.7549506e-07
1.0222476e-06
1.0713476e-06
1.1229596e-06
1.1773559e-06
1.2346149e-06
1.2950833e-06
1.3586187e-06
1.425899e-06
1.4999339e-06
3.351344e-06
2.6896733e-06
2.2327735e-06
1.9086798e-06
1.6694173e-06
1.4860745e-06
1.3411711e-06
1.2237642e-06
1.1267033e-06
1.0451283e-06
9.75614e-07
9.1567354e-07
8.6346396e-07
8.1758523e-07
7.7695575e-07
7.4072662e-07
7.0821946e-07
6.7888999e-07
6.522935e-07
6.280626e-07
6.0589565e-07
5.8554148e-07
5.6678073e-07
5.4941838e-07
5.3328662e-07
5.1824036e-07
5.0417023e-07
4.9101896e-07
4.78786e-07
4.6752253e-07
4.5727864e-07
4.481157e-07
4.400928e-07
4.3324955e-07
4.2761125e-07
4.231613e-07
4.1985574e-07
4.1762155e-07
4.1637205e-07
4.1602402e-07
4.164867e-07
4.176872e-07
4.1956459e-07
4.2205979e-07
4.2513444e-07
4.2875585e-07
4.3289633e-07
4.3752917e-07
4.426305e-07
4.4818007e-07
4.5415058e-07
4.6052459e-07
4.6728045e-07
4.7439136e-07
4.8184158e-07
4.8960017e-07
4.9764794e-07
5.0595472e-07
5.1448412e-07
5.2320627e-07
5.3206217e-07
5.4100971e-07
5.5000374e-07
5.5897416e-07
5.6787054e-07
5.7665583e-07
5.8529022e-07
5.9371677e-07
6.018987e-07
6.0981166e-07
6.1744351e-07
6.2477211e-07
6.3180878e-07
6.3855261e-07
6.4512092e-07
6.5172435e-07
6.5844779e-07
6.6535373e-07
6.7250717e-07
6.7998096e-07
6.8784737e-07
6.9618673e-07
7.050827e-07
7.1462405e-07
7.2493799e-07
7.361734e-07
7.484636e-07
7.6200256e-07
7.774653e-07
7.9649095e-07
8.2133472e-07
8.5348387e-07
8.9247109e-07
9.3621281e-07
9.8244835e-07
1.0298072e-06
1.0780015e-06
1.1274148e-06
1.1787203e-06
1.2323821e-06
1.2890156e-06
1.3483315e-06
1.4115137e-06
1.4789927e-06
3.3514042e-06
2.689928e-06
2.2331063e-06
1.9090428e-06
1.6697795e-06
1.486422e-06
1.3414994e-06
1.2240732e-06
1.1269941e-06
1.0453996e-06
9.7586504e-07
9.1590697e-07
8.6368088e-07
8.1778779e-07
7.7714556e-07
7.4090337e-07
7.0838388e-07
6.7904037e-07
6.524325e-07
6.2819308e-07
6.0601692e-07
5.8565066e-07
5.6687798e-07
5.4950231e-07
5.3335592e-07
5.1829649e-07
5.0421663e-07
4.9107058e-07
4.7886252e-07
4.676425e-07
4.5746013e-07
4.4837643e-07
4.4044582e-07
4.3371351e-07
4.2819516e-07
4.2386858e-07
4.2069158e-07
4.1859606e-07
4.1749396e-07
4.1729303e-07
4.1790707e-07
4.1925878e-07
4.2128303e-07
4.2392648e-07
4.271505e-07
4.3092436e-07
4.3521189e-07
4.3999055e-07
4.4524384e-07
4.5093939e-07
4.5705757e-07
4.6358041e-07
4.7048368e-07
4.777461e-07
4.8534596e-07
4.9325422e-07
5.0144597e-07
5.0990062e-07
5.1857878e-07
5.2742903e-07
5.364153e-07
5.4548547e-07
5.5459141e-07
5.6368037e-07
5.7270049e-07
5.8160009e-07
5.9033159e-07
5.9886394e-07
6.0715616e-07
6.1516778e-07
6.2288074e-07
6.3027668e-07
6.3736114e-07
6.4414595e-07
6.5075361e-07
6.5736512e-07
6.6407815e-07
6.7095489e-07
6.7805871e-07
6.8545901e-07
6.932242e-07
7.0143766e-07
7.1017923e-07
7.1953381e-07
7.2960901e-07
7.4056952e-07
7.5262322e-07
7.6599613e-07
7.8112859e-07
7.9919948e-07
8.2240873e-07
8.5315927e-07
8.9246955e-07
9.3904486e-07
9.8998891e-07
1.0424013e-06
1.0945161e-06
1.1458985e-06
1.197127e-06
1.2490176e-06
1.3027554e-06
1.3584545e-06
1.4179585e-06
1.4795512e-06
3.3514656e-06
2.6901724e-06
2.2334277e-06
1.9093829e-06
1.6701174e-06
1.4867478e-06
1.3418101e-06
1.2243671e-06
1.127268e-06
1.0456539e-06
9.7610008e-07
9.1612456e-07
8.6388492e-07
8.1797778e-07
7.7732175e-07
7.4106539e-07
7.0853355e-07
6.7918007e-07
6.5255863e-07
6.2830506e-07
6.0611564e-07
5.8574047e-07
5.6695753e-07
5.4956658e-07
5.3340358e-07
5.1832989e-07
5.0424633e-07
4.9111361e-07
4.7894128e-07
4.6776984e-07
4.5765936e-07
4.4867129e-07
4.4085355e-07
4.3424296e-07
4.2885906e-07
4.2468313e-07
4.2166516e-07
4.1973641e-07
4.1880419e-07
4.1877528e-07
4.1956111e-07
4.2108238e-07
4.2327705e-07
4.2609135e-07
4.2948384e-07
4.3342418e-07
4.378819e-07
4.428309e-07
4.4825018e-07
4.541143e-07
4.6040229e-07
4.6709552e-07
4.7416684e-07
4.8159436e-07
4.8936366e-07
4.9744201e-07
5.0580846e-07
5.1443314e-07
5.2326885e-07
5.3228116e-07
5.4141735e-07
5.5063116e-07
5.5988166e-07
5.6910504e-07
5.782478e-07
5.8727085e-07
5.9612985e-07
6.0477399e-07
6.1316068e-07
6.2126162e-07
6.2905568e-07
6.3651993e-07
6.436557e-07
6.5047161e-07
6.5710787e-07
6.6372939e-07
6.7044858e-07
6.7731357e-07
6.8435619e-07
6.9167111e-07
6.9933451e-07
7.0742532e-07
7.1602314e-07
7.2520906e-07
7.3507651e-07
7.4577915e-07
7.5755926e-07
7.7073325e-07
7.856964e-07
8.0317992e-07
8.2475093e-07
8.5280117e-07
8.8954486e-07
9.3558753e-07
9.8929956e-07
1.0475734e-06
1.1071566e-06
1.1657861e-06
1.2226018e-06
1.2778478e-06
1.3325542e-06
1.3871946e-06
1.444159e-06
1.500954e-06
3.3515364e-06
2.6904274e-06
2.2337551e-06
1.9097253e-06
1.6704503e-06
1.4870606e-06
1.3421021e-06
1.22464e-06
1.127523e-06
1.0458906e-06
9.7631982e-07
9.1632878e-07
8.6407358e-07
8.1815211e-07
7.774817e-07
7.4121229e-07
7.0866755e-07
6.7929989e-07
6.5266676e-07
6.2840319e-07
6.0620322e-07
5.8581473e-07
5.6701676e-07
5.4961208e-07
5.3343127e-07
5.1834217e-07
5.0425751e-07
4.9114124e-07
4.7900857e-07
4.6790781e-07
4.5788349e-07
4.4899861e-07
4.4131358e-07
4.3485325e-07
4.2963131e-07
4.2563361e-07
4.2280406e-07
4.2106901e-07
4.2033415e-07
4.2050193e-07
4.2148314e-07
4.2319648e-07
4.2558156e-07
4.2858826e-07
4.3217107e-07
4.3629669e-07
4.4094261e-07
4.4608552e-07
4.5169036e-07
4.5774303e-07
4.6422461e-07
4.7110603e-07
4.7836608e-07
4.8599251e-07
4.939612e-07
5.022328e-07
5.1078503e-07
5.1959357e-07
5.2861761e-07
5.3780157e-07
5.4711021e-07
5.5650169e-07
5.6590691e-07
5.7527837e-07
5.845702e-07
5.9374275e-07
6.0272918e-07
6.1149488e-07
6.2000755e-07
6.2820138e-07
6.3606134e-07
6.435801e-07
6.5075542e-07
6.5759382e-07
6.6424512e-07
6.7087139e-07
6.7757197e-07
6.8440553e-07
6.9141868e-07
6.9867973e-07
7.0626125e-07
7.1423808e-07
7.2269504e-07
7.3172192e-07
7.4140302e-07
7.5187708e-07
7.6337819e-07
7.7627682e-07
7.9104554e-07
8.0823691e-07
8.287758e-07
8.5429731e-07
8.8698235e-07
9.2866677e-07
9.7976303e-07
1.0388692e-06
1.103188e-06
1.1695971e-06
1.235404e-06
1.2991267e-06
1.3605629e-06
1.4197348e-06
1.478579e-06
1.5347955e-06
3.351602e-06
2.6906492e-06
2.2340445e-06
1.910038e-06
1.6707635e-06
1.4873609e-06
1.3423834e-06
1.2249012e-06
1.1277648e-06
1.0461153e-06
9.7652721e-07
9.1651905e-07
8.6424665e-07
8.1830925e-07
7.7762295e-07
7.41341e-07
7.0878314e-07
6.7940287e-07
6.5275738e-07
6.2848045e-07
6.0627157e-07
5.8587338e-07
5.6705934e-07
5.4963571e-07
5.3343862e-07
5.1833836e-07
5.0425516e-07
4.9116466e-07
4.790842e-07
4.6805759e-07
4.5814163e-07
4.4938798e-07
4.4184906e-07
4.3556278e-07
4.3053274e-07
4.2674155e-07
4.2413349e-07
4.2262554e-07
4.221206e-07
4.2251599e-07
4.2372228e-07
4.2565585e-07
4.2825414e-07
4.3147305e-07
4.3526773e-07
4.3960793e-07
4.4446511e-07
4.4981628e-07
4.5563559e-07
4.6190388e-07
4.6860063e-07
4.7569694e-07
4.8318066e-07
4.9102393e-07
4.9920223e-07
5.0769608e-07
5.1646266e-07
5.254811e-07
5.347179e-07
5.4410438e-07
5.5360422e-07
5.6317917e-07
5.7276872e-07
5.8231701e-07
5.9177936e-07
6.0110563e-07
6.1023843e-07
6.1913179e-07
6.2774519e-07
6.3603647e-07
6.4396245e-07
6.515243e-07
6.5874483e-07
6.6559208e-07
6.7223943e-07
6.7886126e-07
6.8553634e-07
6.9233694e-07
6.9931208e-07
7.0652029e-07
7.140351e-07
7.2192722e-07
7.3026975e-07
7.3914803e-07
7.4865724e-07
7.5893128e-07
7.7018207e-07
7.8277601e-07
7.9724368e-07
8.1416924e-07
8.3419118e-07
8.5819711e-07
8.8755325e-07
9.2395154e-07
9.688012e-07
1.0225565e-06
1.0843368e-06
1.1521346e-06
1.2233362e-06
1.2953031e-06
1.3660323e-06
1.4342545e-06
1.5001025e-06
1.5629912e-06
3.351675e-06
2.6908922e-06
2.2343445e-06
1.91034e-06
1.6710524e-06
1.4876344e-06
1.3426425e-06
1.2251427e-06
1.1279869e-06
1.0463203e-06
9.7671648e-07
9.1669301e-07
8.6440483e-07
8.184506e-07
7.7775116e-07
7.4145338e-07
7.0887947e-07
6.7948658e-07
6.52829e-07
6.2854023e-07
6.0632077e-07
5.8591042e-07
5.6708175e-07
5.496413e-07
5.3342574e-07
5.1831705e-07
5.0424459e-07
4.9118756e-07
4.7917206e-07
4.6823901e-07
4.5844234e-07
4.498382e-07
4.424774e-07
4.3639061e-07
4.3158729e-07
4.2804566e-07
4.2569935e-07
4.2445723e-07
4.2421719e-07
4.2487074e-07
4.2632569e-07
4.2850375e-07
4.313467e-07
4.3480644e-07
4.3883819e-07
4.4341353e-07
4.4850839e-07
4.5409885e-07
4.6015865e-07
4.6666639e-07
4.7360816e-07
4.8095e-07
4.8867918e-07
4.9677635e-07
5.0520389e-07
5.1394016e-07
5.229519e-07
5.322071e-07
5.4166612e-07
5.5127852e-07
5.610011e-07
5.707798e-07
5.8057131e-07
5.9032319e-07
5.9997648e-07
6.0947683e-07
6.1876218e-07
6.2778406e-07
6.3649967e-07
6.4485583e-07
6.5283221e-07
6.6041394e-07
6.6762804e-07
6.7447983e-07
6.8112597e-07
6.8773692e-07
6.9439364e-07
7.0116002e-07
7.080927e-07
7.1525528e-07
7.227122e-07
7.3052977e-07
7.3877802e-07
7.4753613e-07
7.5689739e-07
7.6699697e-07
7.7803721e-07
7.9035123e-07
8.0446226e-07
8.2101055e-07
8.4062368e-07
8.6387244e-07
8.9141088e-07
9.2414116e-07
9.6317065e-07
1.0095316e-06
1.063756e-06
1.1255838e-06
1.1939251e-06
1.2669841e-06
1.3425456e-06
1.4186493e-06
1.4928276e-06
1.567362e-06
3.3517402e-06
2.6910953e-06
2.2346033e-06
1.9106201e-06
1.6713304e-06
1.4878963e-06
1.3428843e-06
1.2253652e-06
1.1281919e-06
1.0465047e-06
9.7688328e-07
9.1684417e-07
8.6454131e-07
8.1857346e-07
7.778583e-07
7.4154698e-07
7.0895968e-07
6.7955115e-07
6.5287957e-07
6.2858151e-07
6.0635145e-07
5.8592801e-07
5.6708433e-07
5.4962622e-07
5.3339541e-07
5.1828043e-07
5.0422413e-07
4.9121228e-07
4.7927411e-07
4.6845117e-07
4.5879764e-07
4.5036999e-07
4.432174e-07
4.3737462e-07
4.3284526e-07
4.295955e-07
4.2755431e-07
4.2661841e-07
4.2667808e-07
4.2762588e-07
4.2935973e-07
4.3181214e-07
4.3492727e-07
4.3865004e-07
4.4294957e-07
4.4779464e-07
4.5315723e-07
4.5901954e-07
4.6535288e-07
4.7213678e-07
4.7935165e-07
4.8697627e-07
4.9498782e-07
5.0335581e-07
5.1206386e-07
5.2108742e-07
5.3037502e-07
5.3989423e-07
5.4961086e-07
5.5947492e-07
5.6944299e-07
5.7946125e-07
5.8948815e-07
5.9945786e-07
6.0931078e-07
6.1899599e-07
6.2843309e-07
6.3756682e-07
6.4635373e-07
6.5475536e-07
6.6275301e-07
6.7033541e-07
6.7753041e-07
6.8435496e-07
6.9098383e-07
6.9757547e-07
7.0420727e-07
7.1094381e-07
7.1784807e-07
7.2496997e-07
7.3237272e-07
7.4012186e-07
7.4828665e-07
7.5694013e-07
7.6617657e-07
7.7612568e-07
7.8698333e-07
7.9906286e-07
8.1283826e-07
8.2893728e-07
8.4803163e-07
8.7068399e-07
8.9730086e-07
9.2821484e-07
9.6384102e-07
1.0047787e-06
1.0517016e-06
1.1051619e-06
1.1653687e-06
1.2320585e-06
1.3041638e-06
1.3807121e-06
1.4580242e-06
1.5418534e-06
3.3518095e-06
2.6913059e-06
2.2348638e-06
1.9108862e-06
1.6715853e-06
1.4881362e-06
1.3431068e-06
1.225569e-06
1.128376e-06
1.0466719e-06
9.7703373e-07
9.1697714e-07
8.6465846e-07
8.1867603e-07
7.7794584e-07
7.4161839e-07
7.0901897e-07
6.796004e-07
6.5291755e-07
6.2860739e-07
6.0636456e-07
5.8592557e-07
5.6706434e-07
5.4958869e-07
5.3334286e-07
5.182301e-07
5.0420093e-07
4.9124896e-07
4.7940501e-07
4.6871322e-07
4.592299e-07
4.5100862e-07
4.4410492e-07
4.3855218e-07
4.3434432e-07
4.3144384e-07
4.297598e-07
4.2917562e-07
4.2957765e-07
4.3085063e-07
4.3290009e-07
4.3566019e-07
4.3907551e-07
4.4310235e-07
4.477034e-07
4.5285005e-07
4.585151e-07
4.6468056e-07
4.7132441e-07
4.7841657e-07
4.8594344e-07
4.9388125e-07
5.0220842e-07
5.1089624e-07
5.1991744e-07
5.2924925e-07
5.3884745e-07
5.4866774e-07
5.5867948e-07
5.6883566e-07
5.7908876e-07
5.8938673e-07
5.9967091e-07
6.0988227e-07
6.1994869e-07
6.298032e-07
6.3937305e-07
6.485942e-07
6.5742676e-07
6.658421e-07
6.7382067e-07
6.813646e-07
6.8851723e-07
6.952974e-07
7.0189885e-07
7.0847167e-07
7.1508375e-07
7.2180241e-07
7.2867498e-07
7.357585e-07
7.4311647e-07
7.5080612e-07
7.5889403e-07
7.6745134e-07
7.7656765e-07
7.8637969e-07
7.9707789e-07
8.089523e-07
8.2243562e-07
8.3810105e-07
8.5660081e-07
8.7853717e-07
9.0434792e-07
9.3423715e-07
9.6825249e-07
1.0064583e-06
1.0490367e-06
1.0963514e-06
1.1488486e-06
1.2070255e-06
1.2708777e-06
1.3408863e-06
1.4137589e-06
1.498011e-06
3.3518731e-06
2.691498e-06
2.2351033e-06
1.9111348e-06
1.671825e-06
1.4883621e-06
1.3433136e-06
1.2257551e-06
1.1285436e-06
1.0468195e-06
9.7716193e-07
9.1709147e-07
8.6475866e-07
8.1875981e-07
7.7801395e-07
7.4167348e-07
7.0905877e-07
6.7962616e-07
6.5293337e-07
6.2861227e-07
6.0635544e-07
5.8590161e-07
5.6702171e-07
5.4952443e-07
5.3326876e-07
5.1816501e-07
5.0417373e-07
4.9130093e-07
4.7957429e-07
4.6904223e-07
4.5976102e-07
4.5178746e-07
4.4518212e-07
4.3997691e-07
4.3616172e-07
4.3367167e-07
4.3239843e-07
4.3221816e-07
4.330054e-07
4.3464472e-07
4.3705111e-07
4.4015619e-07
4.4390979e-07
4.4827462e-07
4.5321199e-07
4.5869358e-07
4.6470142e-07
4.7121315e-07
4.7820028e-07
4.8564598e-07
4.9352903e-07
5.0182263e-07
5.105069e-07
5.1955341e-07
5.2892961e-07
5.3861145e-07
5.4855806e-07
5.5872186e-07
5.6906579e-07
5.7955628e-07
5.901324e-07
6.0073506e-07
6.1130764e-07
6.2176332e-07
6.3202938e-07
6.420342e-07
6.5169637e-07
6.6095836e-07
6.6978257e-07
6.781461e-07
6.860598e-07
6.9354366e-07
7.0063627e-07
7.0736529e-07
7.1393857e-07
7.2049231e-07
7.2709949e-07
7.3381033e-07
7.4067179e-07
7.4774081e-07
7.5506497e-07
7.6270503e-07
7.7072256e-07
7.7919433e-07
7.8820334e-07
7.9787619e-07
8.0841028e-07
8.2009043e-07
8.3331032e-07
8.4858058e-07
8.6649529e-07
8.8763899e-07
9.1249287e-07
9.4134201e-07
9.7422269e-07
1.0110187e-06
1.0515573e-06
1.0957697e-06
1.1437192e-06
1.1957617e-06
1.2521155e-06
1.3138707e-06
1.378725e-06
1.4555889e-06
3.3519389e-06
2.6916897e-06
2.2353385e-06
1.9113741e-06
1.672052e-06
1.4885716e-06
1.3435036e-06
1.2259239e-06
1.1286927e-06
1.0469511e-06
9.7727687e-07
9.1718713e-07
8.6483646e-07
8.1882282e-07
7.7806324e-07