/*--------------------------------*- C++ -*----------------------------------*\
| =========                 |                                                 |
| \\      /  F ield         | OpenFOAM: The Open Source CFD Toolbox           |
|  \\    /   O peration     | Version:  2406                                  |
|   \\  /    A nd           | Website:  www.openfoam.com                      |
|    \\/     M anipulation  |                                                 |
\*---------------------------------------------------------------------------*/
FoamFile
{
    version     2.0;
    format      ascii;
    arch        "LSB;label=32;scalar=64";
    class       volScalarField;
    location    "200";
    object      omega;
}
// * * * * * * * * * * * * * * * * * * * * * * * * * * * * * * * * * * * * * //

dimensions      [0 0 -1 0 0 0 0];

internalField   nonuniform List<scalar> 
132739
(
3.8700468
3.1584125
2.6605368
2.3030072
2.0361611
1.8297208
1.6652005
1.5309226
1.4191922
1.3247385
1.2438269
1.1737334
1.1124227
1.0583404
1.010282
0.96729578
0.92862014
0.89363993
0.86185226
0.83284083
0.80625934
0.78181728
0.75926894
0.73840415
0.7190427
0.70103064
0.68423314
0.6685326
0.65382634
0.64002351
0.6270457
0.61482359
0.60329154
0.59239368
0.58208134
0.57230814
0.56303491
0.55422621
0.54584757
0.53786781
0.53026135
0.5230032
0.51607096
0.50944312
0.50310076
0.49702574
0.49119827
0.48559874
0.48021192
0.47500104
0.47003605
0.46505425
0.46030619
0.45578733
0.45132958
0.44696499
0.44275596
0.43870751
0.43481501
0.43109798
0.42760391
0.42441023
0.42162743
0.41939479
0.41792525
0.41745549
0.41741918
0.41784846
0.41964987
0.42250298
0.42623866
0.43073895
0.43589084
0.44155981
0.44776577
0.45459145
0.46208047
0.47027852
0.479258
0.48912024
0.49998463
0.51197557
0.52521096
0.53978825
0.5557692
0.57317268
0.59197885
0.61213906
0.63359096
0.65627988
0.68017278
0.70525979
0.73158155
0.759403
0.7894581
0.82251872
0.85776496
0.89185144
0.92191447
0.95082986
0.98701331
1.0332999
1.0898224
1.1284321
3.8702353
3.1589649
2.6612569
2.3037905
2.0369576
1.8305077
1.6659691
1.5316691
1.419916
1.3254414
1.2445113
1.1744002
1.1130727
1.0589771
1.0109067
0.96790859
0.92922303
0.89423497
0.86244125
0.83342559
0.80684074
0.78239609
0.75984647
0.73898134
0.71962028
0.70160796
0.68481181
0.66911317
0.65440872
0.64060989
0.62763603
0.61541636
0.6038879
0.59299339
0.58268372
0.57291413
0.56364255
0.55483283
0.54645296
0.53847146
0.53086261
0.52360196
0.51666508
0.51003294
0.50368762
0.4976014
0.49174946
0.48611564
0.48067064
0.47542582
0.47036577
0.4654285
0.46067349
0.45609331
0.45166494
0.44739021
0.44327334
0.43930903
0.43552662
0.43192079
0.4285485
0.42550963
0.42286183
0.42070786
0.41916192
0.4183519
0.418337
0.41917956
0.42094499
0.42362424
0.42715932
0.43145365
0.43639806
0.44184348
0.44779279
0.45421053
0.46104492
0.46827421
0.47591094
0.48401384
0.49269477
0.50211504
0.51248188
0.5240307
0.53700797
0.55164032
0.56810362
0.58649593
0.60682103
0.62899226
0.65285452
0.67821145
0.70484431
0.73257019
0.76146836
0.79213926
0.82524428
0.86018376
0.89462172
0.92712204
0.96080616
1.0004696
1.0519508
1.1082123
3.8704092
3.1594495
2.6618782
2.304468
2.0376502
1.8311959
1.6666437
1.5323241
1.4205493
1.3260516
1.2450982
1.1749657
1.1136171
1.0594998
1.011408
0.96838927
0.92968416
0.89467646
0.86286313
0.83382791
0.80722438
0.782761
0.76019079
0.73930616
0.7199253
0.70189313
0.6850768
0.66935734
0.6546326
0.64081371
0.62781848
0.61557683
0.60402687
0.59311076
0.58277862
0.57298612
0.56369257
0.55486078
0.54645802
0.53845473
0.53082382
0.52354116
0.51658361
0.50993092
0.50356323
0.49746312
0.49161446
0.48601125
0.48060953
0.47538633
0.47045295
0.46555171
0.46085662
0.45637686
0.45204751
0.44786492
0.44382937
0.43992947
0.43616193
0.43257328
0.42920214
0.42607857
0.42331227
0.42103186
0.41931244
0.41838808
0.41827217
0.41869804
0.42024767
0.4227439
0.42611148
0.43027054
0.43511733
0.44051544
0.44652219
0.45309775
0.46016792
0.46766015
0.47551165
0.48367675
0.49213805
0.50091442
0.51007714
0.51975793
0.53015561
0.54153415
0.55420782
0.56851028
0.58474616
0.60314464
0.62382346
0.64676806
0.67182435
0.69869531
0.72702034
0.75668157
0.78806978
0.82162293
0.85667977
0.89129015
0.92511121
0.96025497
1.0019749
1.0609027
3.8705974
3.1599658
2.662541
2.3051767
2.0383586
1.8318881
1.6673114
1.5329658
1.4211664
1.3266463
1.2456715
1.175518
1.1141503
1.0600162
1.0119093
0.96887664
0.93015978
0.89514212
0.86331905
0.83427483
0.80766312
0.78319297
0.76061782
0.73972879
0.72034407
0.7023088
0.68548988
0.66976895
0.65504428
0.64122538
0.62823016
0.61598995
0.60444116
0.59352621
0.58319631
0.57340646
0.56411543
0.55528697
0.54688771
0.53888824
0.53126228
0.52398393
0.51703054
0.51038121
0.50401776
0.49792261
0.49207927
0.48647124
0.4810917
0.47591577
0.47092525
0.46616736
0.46156217
0.45711362
0.45284568
0.44873501
0.44475487
0.44089659
0.43716827
0.43357843
0.43015276
0.42696207
0.42411535
0.42175314
0.42002132
0.41900529
0.41871559
0.41920586
0.42060716
0.42296743
0.42624343
0.43035082
0.43517574
0.44061862
0.44667526
0.45328432
0.460374
0.4678765
0.47573927
0.48392907
0.49242698
0.5012254
0.51032736
0.51975198
0.52954347
0.53978713
0.55062953
0.56229513
0.57508373
0.58935018
0.60546484
0.62375465
0.64445029
0.66762258
0.69311933
0.72063909
0.75004555
0.78156095
0.81534887
0.85038133
0.88541035
0.9199031
0.95526184
1.0071504
3.8707711
3.160425
2.6631231
2.3058091
2.0390059
1.8325307
1.6679401
1.533576
1.4217559
1.327214
1.2462175
1.1760445
1.1146582
1.0605059
1.0123803
0.9693309
0.93059816
0.89556482
0.86372759
0.83466917
0.8080436
0.78356114
0.76097306
0.74006982
0.72067252
0.70262597
0.68579479
0.67006142
0.65532396
0.64149108
0.62848355
0.61623109
0.60466895
0.59374193
0.58339979
0.57359772
0.56429592
0.55545539
0.54704334
0.53903117
0.53139251
0.52410302
0.51713909
0.51047916
0.50410533
0.49800042
0.49214756
0.48653386
0.4811412
0.4759597
0.47097648
0.46617981
0.46156093
0.45711217
0.45282434
0.44868753
0.44468688
0.44081218
0.43706678
0.43346282
0.43003622
0.4268436
0.4239739
0.42154441
0.41972658
0.41878039
0.41861921
0.41879168
0.41998189
0.42230364
0.42556387
0.42966876
0.43450388
0.44003246
0.44622458
0.45300291
0.46027711
0.46796348
0.47599181
0.48431138
0.49289962
0.5017524
0.51088559
0.52032158
0.53008646
0.54020422
0.55070517
0.5616461
0.57312751
0.58532185
0.59849103
0.61297265
0.62915055
0.64740807
0.66802978
0.69109677
0.71654566
0.74438614
0.77489202
0.80785951
0.84247595
0.87758244
0.91077154
0.95635132
3.8709576
3.1609122
2.6637423
2.3064703
2.0396665
1.8331733
1.6685601
1.5341721
1.4223278
1.3277632
1.2467457
1.176553
1.1151487
1.06098
1.0128398
0.96977657
0.93103058
0.89598407
0.86413527
0.83506765
0.80843315
0.78394102
0.76134454
0.74043414
0.72103103
0.70297772
0.68614044
0.67040199
0.65565926
0.64182201
0.62881018
0.61655489
0.60499117
0.59406258
0.58371894
0.57391427
0.56460887
0.5557647
0.54735025
0.53933816
0.53169845
0.52440596
0.51744136
0.51078181
0.5044089
0.49830606
0.49245421
0.48683981
0.48144929
0.47626451
0.47128086
0.46649296
0.46187518
0.45742376
0.45313699
0.44900158
0.4450016
0.44112777
0.43738843
0.43379838
0.4303849
0.42720852
0.42435899
0.42194995
0.42011932
0.419025
0.4187012
0.41896748
0.42022038
0.42250276
0.42573841
0.42985334
0.43472316
0.44034839
0.44666236
0.45356016
0.46093626
0.46870185
0.47678438
0.4851323
0.49372004
0.50254339
0.51162015
0.52098455
0.5306766
0.54073591
0.55119032
0.5620576
0.57335675
0.58510154
0.59734755
0.61022743
0.62395104
0.63882542
0.65523138
0.67353129
0.69398432
0.71674969
0.74213821
0.7704304
0.80149635
0.83504635
0.86703254
0.90839148
3.8711313
3.1613464
2.6642897
2.3070635
2.0402727
1.8337747
1.6691481
1.5347414
1.422876
1.3282903
1.2472532
1.1770413
1.1156196
1.0614338
1.0132781
0.97020017
0.93143975
0.89638107
0.86451984
0.8354396
0.80879398
0.78429126
0.76168524
0.74076506
0.72135092
0.70328784
0.68644086
0.67069344
0.65594261
0.64209729
0.62907724
0.61681333
0.60524058
0.59430231
0.58394956
0.57413642
0.56482196
0.55596985
0.54754897
0.53952846
0.53188179
0.52458508
0.51761503
0.51095012
0.50457208
0.49846293
0.49260506
0.48698514
0.48158777
0.47639954
0.47141109
0.46661157
0.46198501
0.45752847
0.4532336
0.44908831
0.4450812
0.44120312
0.43746151
0.43387234
0.43046598
0.42729968
0.42444991
0.42201948
0.42014226
0.41902076
0.41875294
0.41892745
0.42009172
0.4223894
0.42565748
0.42982972
0.43478275
0.440544
0.44703204
0.45412055
0.46168314
0.46961233
0.47782295
0.48625882
0.49488736
0.5037029
0.51272328
0.52198498
0.531536
0.54143097
0.55172122
0.56244611
0.57363682
0.58530485
0.59744071
0.61003653
0.6231162
0.63676401
0.65115765
0.66656544
0.68330341
0.70165198
0.72194989
0.74467832
0.77013455
0.79910663
0.82819336
0.86519248
3.8713165
3.1618088
2.6648706
2.307678
2.0408875
1.8343731
1.6697232
1.535293
1.423406
1.3287993
1.2477416
1.1775116
1.1160724
1.0618707
1.0136998
0.97060797
0.93183476
0.89676439
0.86489243
0.83580211
0.80914742
0.78463589
0.76202166
0.74109382
0.72167222
0.70360214
0.68674921
0.67099602
0.65623893
0.64238762
0.62936269
0.61709325
0.60551479
0.5945718
0.58421485
0.57439709
0.56507874
0.55622377
0.54780042
0.53977837
0.53213004
0.52483096
0.51785748
0.51118987
0.50480916
0.49869724
0.49283662
0.48721396
0.48181482
0.47662235
0.47162893
0.46682697
0.46220184
0.45774556
0.45344874
0.44930154
0.44529533
0.44142261
0.43768818
0.43411123
0.4307221
0.42757542
0.42474502
0.42233257
0.42045755
0.41925761
0.41886491
0.41914482
0.42041811
0.4227372
0.42605428
0.43031111
0.43540147
0.44132494
0.44798864
0.45525332
0.46297752
0.47103642
0.47933683
0.48782031
0.49645682
0.50524301
0.51419612
0.52335323
0.53276198
0.54247788
0.55255725
0.56305075
0.57400538
0.58545961
0.59743372
0.60992375
0.62290774
0.63636056
0.6502843
0.66474034
0.67986906
0.69585417
0.71291625
0.73145222
0.7517997
0.77515929
0.79974011
0.83101993
3.87149
3.1622211
2.6653869
2.3082363
2.0414532
1.8349308
1.6702681
1.5358211
1.4239159
1.3292909
1.2482149
1.1779668
1.1165105
1.0622924
1.0141067
0.97100149
0.93221507
0.89713206
0.86524849
0.83614752
0.80948243
0.7849619
0.7623395
0.74140329
0.72197382
0.7038959
0.68703521
0.67127371
0.65650863
0.64265056
0.62961929
0.61734222
0.60575604
0.59480676
0.58444244
0.57461862
0.56529567
0.55643631
0.54800842
0.53998119
0.53232702
0.52502282
0.51804466
0.51137158
0.50498599
0.49886859
0.49300241
0.48737427
0.48196902
0.47677236
0.47177494
0.46696883
0.46233903
0.45787782
0.45357787
0.44942845
0.4454202
0.44154942
0.43782324
0.43425877
0.43088594
0.4277559
0.42493822
0.42252722
0.42064327
0.4194258
0.41903677
0.4193483
0.42067889
0.42307676
0.42650235
0.43089545
0.43617785
0.44231421
0.44919676
0.45667344
0.46458747
0.47280332
0.48121699
0.48976444
0.49841767
0.50717688
0.51606419
0.5251201
0.53439438
0.54394252
0.55382084
0.5640807
0.57476877
0.58593097
0.59760752
0.60982439
0.62259122
0.63589586
0.64970762
0.6639955
0.67875751
0.69403089
0.70986653
0.72643484
0.74387095
0.76306031
0.78348072
0.80878475
3.8716719
3.1626548
2.6659277
2.3088059
2.0420201
1.8354838
1.670801
1.5363339
1.4244073
1.3297617
1.2486667
1.1784008
1.1169289
1.0626964
1.0144967
0.97137815
0.93257968
0.89748554
0.86559145
0.83648056
0.80980601
0.78527644
0.76264523
0.7417012
0.72226465
0.70418042
0.687314
0.67154636
0.65677566
0.64291203
0.62987408
0.61759055
0.6059997
0.59504584
0.58467732
0.57485059
0.56552374
0.55666011
0.54822793
0.54019648
0.53253867
0.52523038
0.5182484
0.51157164
0.50518107
0.49905898
0.49318931
0.48755661
0.48214757
0.47694887
0.47194924
0.4671407
0.46251024
0.45804881
0.45374865
0.44960103
0.44559695
0.4417349
0.43802347
0.43447669
0.43112552
0.42801758
0.42522383
0.42283187
0.42095969
0.41974678
0.41930453
0.41975282
0.42120467
0.42372266
0.42730527
0.43188727
0.43741174
0.44380217
0.45092565
0.45861813
0.46671008
0.47505854
0.48355716
0.49214092
0.5007861
0.50949856
0.51830623
0.52725309
0.53639291
0.54578264
0.55547892
0.56553203
0.57598422
0.58687569
0.59824504
0.61012568
0.62254639
0.6355267
0.64906891
0.66315628
0.67776151
0.69286484
0.70843814
0.72448974
0.74098446
0.75825022
0.77626598
0.79719598
3.8718453
3.1630486
2.6664154
2.3093293
2.0425511
1.8360085
1.6713115
1.5368259
1.4248798
1.3302157
1.2491042
1.1788211
1.1173322
1.0630846
1.0148711
0.9717398
0.9329301
0.89782456
0.86591976
0.83679894
0.81011524
0.78557697
0.76293693
0.74198471
0.72254064
0.70444878
0.68757516
0.67180139
0.65702447
0.64315345
0.6301097
0.61782175
0.6062261
0.59526758
0.5848935
0.57506066
0.56572882
0.55686027
0.54842286
0.54038619
0.53272347
0.52541058
0.51842377
0.5117415
0.50534569
0.49921874
0.4933444
0.48770805
0.48229536
0.47709314
0.4720912
0.46728119
0.46265019
0.45818903
0.45389011
0.44974448
0.44574596
0.44189546
0.43820017
0.43467322
0.43134413
0.42825901
0.42548389
0.42311386
0.42126314
0.42007492
0.41968597
0.42023233
0.42182672
0.42453038
0.42834228
0.43317864
0.43899898
0.44569161
0.45309011
0.46101461
0.46929147
0.47776926
0.48634188
0.49494939
0.50357212
0.51222488
0.52094322
0.52977541
0.538778
0.54800915
0.55752689
0.56738401
0.57762238
0.58827704
0.5993793
0.61095759
0.62303792
0.63564538
0.64880267
0.66252232
0.67680377
0.69164034
0.70701174
0.72289519
0.73923197
0.75600058
0.77317545
0.79193248
3.8720251
3.1634586
2.6669217
2.3098631
2.0430812
1.836523
1.671806
1.5372996
1.4253338
1.3306516
1.2495226
1.1792233
1.1177193
1.063457
1.0152298
0.97208626
0.93326447
0.89814814
0.86623398
0.8371036
0.81041003
0.78586312
0.76321524
0.74225531
0.72280479
0.70470644
0.68782577
0.67204626
0.65726436
0.64338888
0.63034046
0.61804751
0.60644609
0.59548024
0.58510175
0.57526461
0.56592821
0.55705592
0.54861336
0.54057222
0.53290466
0.5255869
0.51859603
0.51190969
0.50550985
0.49937909
0.49350132
0.48786161
0.48244667
0.47724345
0.47224071
0.46743039
0.46280071
0.4583414
0.45404607
0.44990683
0.44592014
0.44208589
0.43841001
0.43490799
0.43160413
0.42854337
0.42579476
0.42345184
0.4216393
0.42050713
0.42021459
0.42091027
0.42270937
0.42567173
0.42978723
0.43494804
0.44111829
0.44814519
0.45583253
0.46398503
0.47242567
0.48100418
0.48961945
0.49822035
0.50679545
0.5153678
0.52398105
0.53268994
0.54155379
0.55063049
0.55997677
0.5696454
0.57968022
0.59011558
0.60097878
0.6122932
0.62407847
0.63635368
0.64913966
0.66245671
0.67632178
0.69074735
0.70574052
0.72129793
0.73741624
0.7540201
0.77097266
0.78898976
3.8721964
3.16383
2.6673788
2.3103539
2.0435776
1.8370112
1.6722793
1.5377562
1.4257731
1.331073
1.249926
1.1796103
1.1180907
1.0638144
1.0155745
0.97241882
0.93358559
0.89845807
0.86653329
0.83739369
0.8106916
0.78613587
0.7634801
0.74251361
0.72305654
0.70495212
0.68806517
0.67227901
0.65749088
0.64361052
0.63055724
0.61825904
0.60665193
0.59568104
0.58529735
0.57545459
0.56611211
0.55723397
0.54878669
0.54074114
0.53306938
0.5257469
0.518751
0.5120602
0.50565625
0.49952237
0.49364107
0.48799814
0.48258166
0.47737709
0.47237459
0.46756541
0.46293804
0.45848341
0.45419512
0.45006702
0.44609565
0.44228276
0.43863282
0.43515547
0.43187604
0.42883796
0.42611245
0.4238033
0.42204839
0.42101194
0.4208675
0.42177815
0.42386335
0.42717255
0.43167584
0.43723891
0.44380826
0.45119852
0.45918482
0.46755707
0.47613562
0.48478204
0.49340737
0.50196968
0.51047046
0.51894135
0.52743429
0.5360107
0.54473265
0.55365844
0.56284201
0.57233356
0.58217609
0.5924035
0.60304267
0.61411456
0.6256362
0.63762182
0.6500843
0.66304037
0.67650883
0.69050421
0.70504764
0.72014832
0.73583942
0.75211167
0.76879317
0.78647065
3.8723728
3.164215
2.6678514
2.31085
2.0440701
1.8374889
1.6727388
1.5381965
1.426194
1.3314758
1.2503116
1.1799801
1.1184464
1.0641565
1.0159037
0.97273587
0.93389148
0.89875468
0.86681955
0.83766992
0.81095896
0.78639585
0.7637335
0.74276081
0.72329687
0.70518639
0.68829433
0.67250355
0.65771033
0.64382366
0.63076426
0.61846027
0.60684826
0.5958722
0.58548219
0.57563374
0.56628604
0.55740369
0.54895188
0.54090142
0.53322576
0.52589862
0.51889845
0.51220423
0.50579693
0.49965982
0.49377651
0.48813242
0.4827149
0.47751105
0.47251085
0.46770526
0.46308286
0.45863546
0.45435873
0.45024747
0.44629959
0.44251421
0.43889195
0.43544253
0.43218698
0.42917085
0.42647455
0.42421346
0.42254281
0.42164942
0.42172618
0.42294182
0.42541126
0.42916738
0.43414844
0.44019113
0.44720288
0.45496642
0.46323767
0.47179734
0.4804732
0.48914251
0.49772822
0.50620854
0.51460125
0.52294628
0.53130259
0.53973555
0.54830998
0.55708542
0.56611294
0.57543887
0.58510401
0.59514049
0.60557379
0.616423
0.627703
0.63942651
0.65160361
0.66424358
0.6773604
0.69096766
0.70508542
0.71972497
0.73492231
0.7507173
0.7669675
0.78419652
3.8725414
3.164569
2.6682851
2.3113116
2.044535
1.8379437
1.6731789
1.5386199
1.4266003
1.3318648
1.2506843
1.1803372
1.1187884
1.0644846
1.0162189
0.973039
0.93418392
0.89903673
0.86709261
0.83793522
0.81121656
0.7866459
0.76397636
0.74299685
0.72352679
0.70541057
0.68851258
0.67271526
0.65791652
0.64402444
0.63095896
0.6186487
0.60703161
0.59605098
0.58565611
0.57580332
0.56645075
0.5575628
0.54910632
0.54105093
0.53337017
0.52603853
0.51903444
0.51233737
0.50592747
0.49978726
0.49390226
0.48825834
0.48284073
0.4776389
0.47264309
0.46784272
0.46322842
0.4587947
0.4545369
0.45044966
0.44653002
0.44277538
0.43918357
0.43575791
0.43252224
0.42952868
0.426867
0.42467494
0.42313388
0.42245585
0.42284742
0.42448131
0.42745994
0.43177952
0.43733215
0.44391759
0.45139694
0.45952584
0.46804621
0.47674214
0.48545568
0.49408821
0.50258823
0.51094927
0.51920392
0.52740249
0.53560922
0.543892
0.55231557
0.56093944
0.56981315
0.57897944
0.58847597
0.59833286
0.6085743
0.6192177
0.63027586
0.64175865
0.65367518
0.66603312
0.67884053
0.69210789
0.70585002
0.7200745
0.73480762
0.75010358
0.76586953
0.78252683
3.8727111
3.1649288
2.6687253
2.3117735
2.0449935
1.8383877
1.6736045
1.5390264
1.4269884
1.3322359
1.2510392
1.1806771
1.1191142
1.0647973
1.0165189
0.97332791
0.93446261
0.89930585
0.86735279
0.83818725
0.81146212
0.78688465
0.76420834
0.7432219
0.72374578
0.70562385
0.68871956
0.67291635
0.65811238
0.64421526
0.63114504
0.61882936
0.60720585
0.59621997
0.58581965
0.5759614
0.566604
0.55771101
0.54925002
0.5411906
0.53350648
0.52617177
0.51916431
0.51246442
0.50605239
0.4999114
0.49402579
0.48838187
0.48296688
0.47776994
0.47278082
0.46798984
0.46339032
0.45897572
0.45474231
0.45068749
0.44680309
0.44308213
0.43951873
0.43611285
0.43289143
0.42991942
0.42730917
0.4252271
0.42388697
0.42352573
0.42436341
0.42656311
0.43019204
0.43519787
0.44141095
0.44857996
0.45652499
0.46497869
0.47368031
0.48243473
0.49110959
0.49963619
0.50799213
0.51619067
0.52427784
0.53231317
0.54036292
0.54849447
0.55677066
0.56524834
0.57397405
0.58298733
0.59232228
0.60200632
0.6120634
0.62251092
0.63336066
0.64462003
0.6562951
0.66839247
0.68091811
0.69387945
0.70729037
0.72115343
0.73548102
0.75031665
0.76561318
0.78167943
3.8728731
3.1652632
2.6691309
2.3122025
2.0454235
1.8388083
1.6740118
1.5394171
1.4273613
1.3325921
1.2513796
1.1810028
1.1194264
1.0650965
1.0168073
0.97360549
0.93472965
0.89956352
0.86760255
0.83842866
0.81169594
0.78711186
0.76442888
0.74343643
0.7239539
0.70582576
0.68891637
0.6731076
0.65829843
0.64439617
0.63131961
0.61899821
0.60736944
0.59637773
0.5859721
0.57610914
0.56674741
0.55785016
0.54938542
0.54132248
0.53363458
0.52629689
0.51928779
0.51258654
0.50617323
0.50003144
0.49414663
0.48850544
0.48309538
0.4779055
0.47292737
0.46815154
0.46357289
0.45918756
0.45498995
0.45097451
0.44712974
0.44344133
0.43989722
0.43650075
0.43328892
0.43034637
0.42782062
0.42591889
0.42489049
0.42499554
0.42645387
0.42939783
0.43383779
0.43964444
0.44657794
0.45433384
0.46269283
0.47138821
0.48017478
0.48888829
0.49743635
0.50578269
0.51393516
0.52192947
0.52982204
0.53767782
0.54556382
0.5535449
0.56167949
0.5700199
0.57860866
0.58748064
0.59666597
0.60618943
0.61607226
0.62633208
0.63698231
0.64803035
0.65947988
0.67133468
0.68359851
0.69627603
0.70937806
0.722912
0.73688523
0.75131992
0.76618954
0.78169138
3.8730349
3.1655974
2.6695365
2.3126282
2.0458454
1.8392163
1.6744022
1.5397897
1.4277171
1.3329299
1.2517017
1.1813104
1.1197214
1.0653804
1.0170805
0.97386943
0.93498472
0.89980939
0.86783961
0.83865878
0.81191911
0.78732838
0.764639
0.74364008
0.72415178
0.7060169
0.6891017
0.67328788
0.65847284
0.64456498
0.63148311
0.61915677
0.60752291
0.59652685
0.58611699
0.57624902
0.56688302
0.55798177
0.5495135
0.54144829
0.53375727
0.52641771
0.51940764
0.51270468
0.50629168
0.50015172
0.49427008
0.4886349
0.48323374
0.47805653
0.47309496
0.46834322
0.46379626
0.45944905
0.45529726
0.4513295
0.44752393
0.44385915
0.44032177
0.43692269
0.43372041
0.43083626
0.42846536
0.42686217
0.42631385
0.42709306
0.42939302
0.43328464
0.43868824
0.44538217
0.45304745
0.46133066
0.47000036
0.47880628
0.48754401
0.49609689
0.50441757
0.5125082
0.52040534
0.52816052
0.53583766
0.54350369
0.55122362
0.55905707
0.56705721
0.57526954
0.58373177
0.592475
0.60152477
0.6109028
0.62062718
0.63071292
0.64117397
0.65201947
0.6632538
0.67487959
0.68689814
0.69931055
0.7121238
0.72534714
0.73898827
0.75306168
0.76755426
0.78253835
3.8731901
3.1659096
2.6699135
2.313026
2.046243
1.8396044
1.6747761
1.5401477
1.4280588
1.3332561
1.2520132
1.1816078
1.1200058
1.0656532
1.0173424
0.97412102
0.93522766
0.90004488
0.86806745
0.8388789
0.81213177
0.78753373
0.76483782
0.74383298
0.72433819
0.70619802
0.68927776
0.67345867
0.65863851
0.64472559
0.63163839
0.61930662
0.60766798
0.59666699
0.58625221
0.57638086
0.56701187
0.55810748
0.54963692
0.54156913
0.53387662
0.52653632
0.51952574
0.51282444
0.50641387
0.50027806
0.49440289
0.48877725
0.48339039
0.47823186
0.47329624
0.46857894
0.46407609
0.45978144
0.45568354
0.4517621
0.44798689
0.44432927
0.44078074
0.43737287
0.43420242
0.43144578
0.42935793
0.42824773
0.42842823
0.43015413
0.43355553
0.43859913
0.44508563
0.45268628
0.46101274
0.46968546
0.47849428
0.48723546
0.49576564
0.50402821
0.51202509
0.51979403
0.52739218
0.53488285
0.542333
0.54980636
0.55736222
0.5650538
0.57292651
0.58102086
0.58936799
0.59799388
0.6069204
0.61616662
0.62574809
0.63567678
0.64596421
0.65661867
0.66764682
0.6790541
0.69084107
0.70300672
0.71555305
0.72848606
0.74181436
0.7555469
0.76969333
0.7841932
3.8733447
3.1662212
2.670289
2.3134188
2.0466306
1.839979
1.6751333
1.5404874
1.4283825
1.3335652
1.2523083
1.1818918
1.1202785
1.0659147
1.0175932
0.97436285
0.93545991
0.90026835
0.86828383
0.83908815
0.81233373
0.78772906
0.76502709
0.74401585
0.72451545
0.70636982
0.68944404
0.67362062
0.65879623
0.64487902
0.6317875
0.6194505
0.60780692
0.59680127
0.58638363
0.57650932
0.56713716
0.55823144
0.54975966
0.54169104
0.53399947
0.52666022
0.51965127
0.51295319
0.50654729
0.50041835
0.4945547
0.48894503
0.48357895
0.47845005
0.47355371
0.46888622
0.46444271
0.46021141
0.45617027
0.45228685
0.44852186
0.44484717
0.44127206
0.4378704
0.43479994
0.43231137
0.43073138
0.43041046
0.43165644
0.43465905
0.43942731
0.44577856
0.45337373
0.46178503
0.47058914
0.47942384
0.4881405
0.49660863
0.50476391
0.5126114
0.52020304
0.52760136
0.53487588
0.54209493
0.54932005
0.55660883
0.56400979
0.57156992
0.57932542
0.58730931
0.59554886
0.60406658
0.61287977
0.62200402
0.63145341
0.64123859
0.65136896
0.66185103
0.67268855
0.68388715
0.69545148
0.70738322
0.71968076
0.73234518
0.74538403
0.7587994
0.77262458
0.78667108
3.8734934
3.1665131
2.6706401
2.3137894
2.0470016
1.8403409
1.6754811
1.5408179
1.4286963
1.3338637
1.2525931
1.1821637
1.1205385
1.0661644
1.0178335
0.97459345
0.93568198
0.90048237
0.86848944
0.83928673
0.81252627
0.78791507
0.76520748
0.74419129
0.72468602
0.70653535
0.6896051
0.67377674
0.658948
0.64502665
0.6319301
0.61958914
0.60794247
0.59693441
0.58651448
0.57663866
0.56726592
0.55836017
0.54988875
0.54182128
0.53413167
0.52679539
0.51979013
0.51309749
0.50670121
0.50058619
0.49474036
0.48915538
0.48382312
0.47873824
0.47389857
0.46929872
0.46492859
0.46076592
0.45677313
0.45290432
0.44911767
0.44540293
0.44181115
0.43848451
0.43567142
0.43371214
0.43299623
0.43388253
0.43661048
0.44122945
0.44756538
0.45525459
0.46382581
0.47280019
0.48177625
0.49046243
0.49881449
0.50679392
0.51442071
0.52175723
0.52888639
0.53588999
0.54283947
0.54979545
0.5568113
0.5639332
0.57119883
0.57864361
0.58629599
0.59418245
0.60232456
0.61074149
0.6194479
0.62845664
0.63777987
0.64742807
0.65741033
0.66773305
0.67839863
0.68940757
0.70076324
0.71247163
0.72453414
0.73694947
0.74972135
0.76284541
0.77637624
0.79000145
3.8736412
3.1667981
2.6709809
2.3141459
2.0473554
1.8406836
1.6758109
1.5411334
1.4289977
1.3341512
1.2528676
1.1824257
1.1207887
1.0664042
1.0180636
0.97481477
0.93589495
0.90068757
0.86868764
0.83947823
0.81271193
0.78809547
0.76538243
0.74436095
0.72485116
0.70669642
0.68976242
0.67393129
0.65909882
0.64517351
0.63207422
0.61973088
0.60808208
0.59707273
0.58665232
0.57677664
0.56740453
0.5585006
0.5500317
0.54196822
0.53428371
0.52695292
0.51995601
0.51327524
0.5068947
0.50080087
0.49498437
0.48943754
0.48415565
0.47913529
0.47437318
0.46985943
0.46557017
0.46146646
0.45749545
0.45360453
0.4497658
0.44601383
0.44247865
0.4394084
0.43716187
0.43616483
0.43682801
0.43944037
0.44407926
0.45056644
0.45849957
0.46734241
0.47654952
0.48567109
0.49440626
0.50259367
0.51030887
0.51761327
0.52460025
0.53136988
0.53802167
0.54463827
0.55128106
0.55800118
0.5648362
0.57181573
0.57896716
0.58631554
0.59388077
0.60168377
0.60974084
0.61806697
0.6266749
0.63557626
0.64478122
0.6542984
0.66413668
0.6743039
0.68480382
0.69563661
0.7068017
0.71830126
0.73013982
0.74231898
0.7548419
0.76769775
0.78096323
0.7941949
3.8737863
3.1670745
2.6713114
2.3144912
2.0476961
1.8410122
1.6761262
1.5414349
1.4292856
1.3344262
1.2531304
1.1826766
1.1210283
1.0666342
1.0182848
0.97502774
0.93609979
0.90088578
0.86887985
0.83966441
0.81289316
0.78827164
0.7655538
0.74452871
0.72501581
0.70685848
0.68992236
0.67408923
0.65925528
0.64532811
0.6322276
0.61988359
0.60823413
0.59722577
0.58680697
0.5769334
0.5675648
0.55866549
0.55020288
0.54214603
0.53447011
0.52715199
0.52017
0.51350872
0.507154
0.50109451
0.49532309
0.48983503
0.48462741
0.47969669
0.47503359
0.47061449
0.466397
0.46232276
0.45832985
0.4543774
0.45048675
0.44678169
0.44351569
0.44107317
0.43992282
0.44052598
0.44321583
0.4480872
0.4549413
0.46330953
0.47257083
0.48209655
0.49137843
0.50010246
0.50814137
0.515499
0.52235684
0.5288668
0.53516735
0.54137205
0.54757296
0.55384
0.56021957
0.56674234
0.57343149
0.58029918
0.58736068
0.59463298
0.60212971
0.60986431
0.61784868
0.62609442
0.63461295
0.64341539
0.65250979
0.6619034
0.67160438
0.6816217
0.69196109
0.70262383
0.71360812
0.7249135
0.7365412
0.7484938
0.76077828
0.77337954
0.78640117
0.79927145
3.8739309
3.1673422
2.6716264
2.314818
2.0480207
1.8413274
1.6764292
1.5417253
1.429563
1.3346908
1.2533826
1.182918
1.1212601
1.0668567
1.0184985
0.97523411
0.93629996
0.90107937
0.86906893
0.83984916
0.81307354
0.7884492
0.76572884
0.74470146
0.72518697
0.70702918
0.69009284
0.67425961
0.65942584
0.6454994
0.63239955
0.62005726
0.6084111
0.59740637
0.58699247
0.57712547
0.56776511
0.55887468
0.55042312
0.54238036
0.53472013
0.52742162
0.52046538
0.51383554
0.50752212
0.50151678
0.49581471
0.49041337
0.48530926
0.48049215
0.47593867
0.47160433
0.46742563
0.46333083
0.45927017
0.45525798
0.45141727
0.44801872
0.44547972
0.44431864
0.44505086
0.44804924
0.45341355
0.46089589
0.46993609
0.47979383
0.48973541
0.49919132
0.50783681
0.51558685
0.52252407
0.52881075
0.53469843
0.54038988
0.54603229
0.55172739
0.55754437
0.56352731
0.5697006
0.57607506
0.58265588
0.58944482
0.59644327
0.6036591
0.61110248
0.61878147
0.62670571
0.63488358
0.64332268
0.65203294
0.66102526
0.67030615
0.67988032
0.68975525
0.6999384
0.71043432
0.72124296
0.73236313
0.74379253
0.75553118
0.76758703
0.77993836
0.79272065
0.80524572
3.8740658
3.1675983
2.6719295
2.3151337
2.0483329
1.84163
1.6767197
1.5420032
1.4298287
1.3349456
1.2536261
1.1831514
1.1214843
1.0670733
1.0187086
0.9754376
0.93649871
0.90127414
0.86926054
0.84003848
0.81326091
0.78863592
0.76591556
0.74488895
0.7253751
0.707219
0.69028531
0.67445548
0.65962564
0.64570285
0.63260739
0.6202711
0.6086329
0.59763741
0.58723449
0.57738047
0.5680346
0.55916084
0.55072809
0.54270718
0.53507392
0.52780808
0.5208924
0.51431459
0.5080656
0.50214299
0.49654277
0.49126121
0.48628839
0.48159839
0.47714483
0.47285763
0.46865945
0.46449471
0.46037504
0.45643572
0.45297306
0.45045091
0.44944851
0.4505384
0.45412607
0.46029178
0.46870968
0.47868814
0.48933787
0.49979805
0.50942848
0.51790516
0.525205
0.53150963
0.53709081
0.54221399
0.54714767
0.55209621
0.55718013
0.56246854
0.56799467
0.57377383
0.57980667
0.58608462
0.59259675
0.59933423
0.60629186
0.61346845
0.62087044
0.62850407
0.63637673
0.6444952
0.65286615
0.66149562
0.67039352
0.67956962
0.68902868
0.69877442
0.70881233
0.71914795
0.72978436
0.74072096
0.75195656
0.76348999
0.77532767
0.78744237
0.79999631
0.81217805
3.8741968
3.1678444
2.6722211
2.3154361
2.0486318
1.84192
1.6769983
1.5422708
1.4300853
1.3351922
1.2538631
1.18338
1.1217062
1.0672889
1.0189193
0.97564454
0.93670356
0.90147735
0.86946311
0.84024193
0.813466
0.78884409
0.76612744
0.74510514
0.7255969
0.7074474
0.69052095
0.67469938
0.65987792
0.64596407
0.6328794
0.62055631
0.60893321
0.59795457
0.587571
0.57773855
0.5684169
0.55957055
0.55116898
0.54318448
0.53559479
0.52838176
0.52153073
0.51503332
0.50888489
0.50308193
0.4976203
0.49249086
0.48766379
0.4830885
0.47869062
0.47438738
0.47012164
0.46591113
0.46191272
0.45846765
0.45610157
0.45546487
0.45719146
0.46170315
0.46903254
0.47873331
0.48994071
0.50158053
0.51264337
0.52241699
0.53059808
0.53725199
0.54268617
0.54730534
0.55149037
0.55552765
0.55964531
0.56400604
0.56868043
0.57369101
0.57903333
0.58469444
0.59065266
0.59688376
0.60336445
0.61007627
0.61701002
0.62416086
0.6315319
0.63912793
0.64695456
0.65501715
0.66332366
0.67187926
0.68069108
0.6897695
0.69912041
0.70874732
0.71865373
0.72884215
0.73931652
0.75007833
0.76112737
0.77246276
0.78409024
0.79597561
0.80830792
0.82014769
3.8743207
3.1680789
2.6725002
2.3157266
2.0489195