/*--------------------------------*- C++ -*----------------------------------*\
| =========                 |                                                 |
| \\      /  F ield         | OpenFOAM: The Open Source CFD Toolbox           |
|  \\    /   O peration     | Version:  2406                                  |
|   \\  /    A nd           | Website:  www.openfoam.com                      |
|    \\/     M anipulation  |                                                 |
\*---------------------------------------------------------------------------*/
FoamFile
{
    version     2.0;
    format      ascii;
    arch        "LSB;label=32;scalar=64";
    class       volScalarField;
    location    "200";
    object      rho;
}
// * * * * * * * * * * * * * * * * * * * * * * * * * * * * * * * * * * * * * //

dimensions      [1 -3 0 0 0 0 0];

internalField   nonuniform List<scalar> 
132739
(
1.00279
1.0027129
1.0027074
1.0027436
1.0027762
1.0028101
1.0028424
1.0028803
1.0029252
1.0029671
1.0030117
1.0030566
1.0031058
1.0031578
1.0032085
1.0032726
1.0033326
1.0033964
1.003461
1.00353
1.0035941
1.0036633
1.0037329
1.0038094
1.0038817
1.0039578
1.0040429
1.0041228
1.0042087
1.0042867
1.0043641
1.0044558
1.0045556
1.0046312
1.0047254
1.0048083
1.0048889
1.0049785
1.0050761
1.0051523
1.0052276
1.0053017
1.0053706
1.0054423
1.0055007
1.0055632
1.0056274
1.0056793
1.0057156
1.005771
1.005809
1.0058371
1.0058877
1.0059089
1.005953
1.0060141
1.006071
1.0061385
1.0062261
1.0063094
1.0064112
1.0065115
1.0066138
1.0066962
1.0068238
1.0069054
1.0070396
1.0071482
1.0072961
1.0073815
1.0074999
1.0076036
1.0077046
1.0078102
1.0079284
1.0080185
1.0081171
1.0082166
1.0082932
1.0083833
1.008478
1.0085732
1.0086512
1.0087311
1.0088132
1.0088924
1.0089656
1.0090339
1.0090973
1.0091495
1.0091957
1.0092247
1.0092413
1.0092516
1.0092355
1.0092102
1.009157
1.0090618
1.0088829
1.0086442
1.0083638
1.0080382
1.0077071
1.0074326
1.0027872
1.0027148
1.0027053
1.0027457
1.0027832
1.0028184
1.0028501
1.0028888
1.0029297
1.0029706
1.0030166
1.0030647
1.0031091
1.0031606
1.0032178
1.0032761
1.003329
1.0033912
1.003452
1.0035217
1.0035866
1.0036531
1.0037234
1.003805
1.0038793
1.0039578
1.0040312
1.0041242
1.0041943
1.0042784
1.0043618
1.0044487
1.0045363
1.0046257
1.0047095
1.0048072
1.0048957
1.0049773
1.0050613
1.0051428
1.0052073
1.0052924
1.0053579
1.0054212
1.0055003
1.005559
1.0056168
1.0056755
1.0057078
1.0057983
1.0058357
1.0058557
1.0058851
1.005916
1.0059431
1.0059751
1.006017
1.0060971
1.0061508
1.0062931
1.0063804
1.0064613
1.0065671
1.0066806
1.0067765
1.0068934
1.0070165
1.0071362
1.0072599
1.0073595
1.0074811
1.0075764
1.0076705
1.0077785
1.0078514
1.0079551
1.0080519
1.0081295
1.0082356
1.0083048
1.0083959
1.0084544
1.0085279
1.0085897
1.0086505
1.0087079
1.0087671
1.0088275
1.0088919
1.0089538
1.0090137
1.0090643
1.0090994
1.0091199
1.0091284
1.0091347
1.0091184
1.0090724
1.0089904
1.0088479
1.0086391
1.0083928
1.0080892
1.0077521
1.0027899
1.0027134
1.002709
1.0027422
1.0027797
1.0028084
1.0028427
1.0028817
1.0029218
1.002964
1.0030074
1.0030571
1.0031099
1.0031608
1.0032187
1.0032765
1.0033321
1.0033975
1.0034564
1.0035277
1.003592
1.0036677
1.0037333
1.0038076
1.0038911
1.0039605
1.0040434
1.004128
1.004203
1.004292
1.0043819
1.0044601
1.0045536
1.0046467
1.0047312
1.0048228
1.0049103
1.0049981
1.005074
1.0051557
1.0052273
1.0053044
1.0053779
1.005449
1.0055266
1.0055848
1.0056444
1.0056963
1.0057416
1.0057979
1.0058307
1.0058731
1.0059067
1.0059295
1.0059587
1.0059993
1.006062
1.00612
1.0061939
1.0062843
1.0063762
1.0064689
1.0065788
1.0066933
1.0067722
1.0069058
1.0070253
1.0071336
1.0072409
1.0073732
1.0074428
1.0075761
1.0076482
1.0077445
1.0078159
1.0078991
1.0079888
1.0080565
1.0081591
1.0082329
1.0083214
1.0083893
1.0084506
1.0085082
1.0085589
1.0086041
1.00863
1.0086553
1.0086838
1.0087096
1.008738
1.0087717
1.0088019
1.0088229
1.0088233
1.0088155
1.0087957
1.008764
1.0087093
1.0086099
1.0084488
1.008226
1.0080038
1.007749
1.0027891
1.0027158
1.0027067
1.0027522
1.0027862
1.002817
1.0028554
1.002888
1.0029303
1.0029738
1.0030217
1.003069
1.0031177
1.0031683
1.0032257
1.003283
1.0033385
1.003411
1.003472
1.0035411
1.0036048
1.003677
1.0037456
1.0038236
1.0039053
1.0039743
1.004055
1.0041368
1.0042171
1.0043132
1.0043989
1.0044788
1.0045802
1.0046617
1.0047469
1.0048367
1.004922
1.005004
1.0050859
1.0051607
1.0052456
1.0053304
1.0054033
1.0054758
1.0055332
1.0055978
1.0056503
1.0057112
1.0057537
1.0057924
1.0058372
1.0058601
1.0058897
1.0059251
1.005956
1.0060063
1.0060612
1.0061279
1.0062019
1.006285
1.0063841
1.0064846
1.0065756
1.006694
1.006787
1.0069176
1.0069895
1.0071327
1.0072169
1.0073467
1.0074274
1.0075374
1.007635
1.0077133
1.0078086
1.0078894
1.0079502
1.0080283
1.0080902
1.0081638
1.0082331
1.0083104
1.0083676
1.0084165
1.008457
1.0084957
1.0085266
1.0085458
1.0085578
1.0085647
1.0085652
1.0085642
1.0085637
1.0085733
1.0085691
1.0085583
1.0085362
1.0084977
1.0084529
1.0083837
1.0082675
1.0080942
1.007851
1.0076649
1.0027898
1.0027144
1.0027102
1.002746
1.0027829
1.0028121
1.0028515
1.0028855
1.0029297
1.0029728
1.0030182
1.0030653
1.0031201
1.0031709
1.0032295
1.00328
1.0033444
1.0034098
1.0034752
1.0035455
1.0036063
1.0036814
1.0037579
1.0038256
1.003903
1.0039804
1.0040663
1.0041434
1.0042302
1.0043163
1.0043987
1.0044915
1.0045822
1.0046594
1.0047512
1.0048312
1.0049287
1.0050203
1.0050972
1.0051748
1.0052532
1.0053393
1.0054229
1.0054936
1.005554
1.0056188
1.0056713
1.0057246
1.0057768
1.0058136
1.0058515
1.0058976
1.0059254
1.0059744
1.0060146
1.0060535
1.0061241
1.00619
1.0062634
1.0063341
1.0064192
1.006525
1.0066058
1.0067084
1.006818
1.0069095
1.0070207
1.0071309
1.0072459
1.0073181
1.0074339
1.0075416
1.0076334
1.0077231
1.0078153
1.007879
1.0079854
1.0080307
1.0081258
1.0081636
1.0082364
1.0082849
1.0083402
1.0083838
1.0084231
1.0084579
1.0084734
1.0084815
1.0084807
1.0084669
1.0084604
1.0084437
1.0084172
1.0083935
1.0083755
1.0083514
1.0083176
1.0082652
1.0082163
1.0081544
1.0080692
1.0079443
1.0077491
1.0075529
1.0027904
1.0027161
1.0027081
1.0027519
1.002792
1.0028197
1.0028575
1.0028944
1.0029379
1.0029792
1.0030271
1.0030731
1.003129
1.0031807
1.0032427
1.0032966
1.0033617
1.0034245
1.0034837
1.0035586
1.0036241
1.0036938
1.0037622
1.0038314
1.003909
1.0039938
1.0040642
1.0041519
1.0042282
1.0043153
1.0043936
1.0044847
1.0045866
1.0046739
1.004775
1.0048644
1.0049554
1.0050423
1.0051101
1.0051998
1.0052938
1.0053547
1.0054241
1.0055033
1.0055528
1.0056288
1.0056863
1.0057331
1.0057916
1.005817
1.005877
1.0059236
1.0059597
1.0060071
1.0060463
1.0060943
1.0061549
1.0062203
1.0062728
1.0064016
1.0064911
1.0065882
1.0066598
1.0067398
1.0068612
1.0069407
1.0070199
1.007125
1.0072158
1.0073039
1.0073886
1.0074684
1.0075531
1.0076307
1.0077121
1.0077955
1.0078811
1.0079438
1.0080337
1.0080899
1.0081674
1.0082322
1.008285
1.008321
1.0083612
1.0083842
1.0084204
1.008415
1.0084415
1.0084966
1.008428
1.0083688
1.0083149
1.0082648
1.0082108
1.0081575
1.0081058
1.0080514
1.0080045
1.0079384
1.0078526
1.0077521
1.0076019
1.0074421
1.0027928
1.0027148
1.0027094
1.0027496
1.0027912
1.00282
1.002859
1.0028987
1.0029386
1.0029786
1.0030258
1.0030749
1.0031278
1.0031858
1.0032408
1.0033045
1.0033616
1.003431
1.0034949
1.003565
1.0036296
1.0037037
1.003772
1.0038511
1.0039206
1.0040031
1.0040794
1.0041637
1.0042503
1.004341
1.0044284
1.0045224
1.0046287
1.0047124
1.0048081
1.0048992
1.0049863
1.0050617
1.0051394
1.0052247
1.005291
1.0053705
1.0054462
1.0055206
1.0055824
1.0056597
1.0057121
1.0057692
1.0058276
1.0058578
1.0059345
1.0059903
1.0059971
1.0060272
1.0060924
1.0061267
1.0062065
1.0062728
1.006329
1.0064292
1.0064931
1.0065749
1.0066776
1.0067337
1.0068254
1.006908
1.0069858
1.0070722
1.0071792
1.0072698
1.0073438
1.0074468
1.0075283
1.0076055
1.0076809
1.0077803
1.0078391
1.0079227
1.0079805
1.0080457
1.008113
1.0081713
1.0082245
1.008269
1.0083029
1.008328
1.0083494
1.0083564
1.0083614
1.0083787
1.0083741
1.0083473
1.0083002
1.0082407
1.0081713
1.0080931
1.0080107
1.0079203
1.0078343
1.0077432
1.0076691
1.0075814
1.0074485
1.0073341
1.0027895
1.0027177
1.0027109
1.0027526
1.0027926
1.0028322
1.0028633
1.0029031
1.0029417
1.0029874
1.0030309
1.0030812
1.0031366
1.0031908
1.00325
1.0033078
1.003369
1.0034355
1.0035038
1.0035721
1.0036402
1.0037163
1.0037839
1.0038667
1.0039351
1.0040189
1.0040978
1.0041911
1.0042767
1.0043656
1.0044548
1.004554
1.0046507
1.0047377
1.0048352
1.0049281
1.0050044
1.0050885
1.0051637
1.0052563
1.0053277
1.0054132
1.0054795
1.0055451
1.0056135
1.0056802
1.0057379
1.0057884
1.0058582
1.0058958
1.0059307
1.0059712
1.0059937
1.0060672
1.0061188
1.0061576
1.0062231
1.0063151
1.0063639
1.0064344
1.0065143
1.0065729
1.0066656
1.0067331
1.0068489
1.0069089
1.0070184
1.0071124
1.0071707
1.0072691
1.007335
1.0074097
1.0074868
1.0075558
1.0076299
1.0077034
1.0077787
1.0078695
1.0079235
1.0079942
1.0080518
1.0081244
1.0081832
1.0082275
1.0082586
1.0082729
1.0082927
1.008293
1.0082949
1.0082917
1.008274
1.0082489
1.0082198
1.0081731
1.0081113
1.0080348
1.0079512
1.0078494
1.0077558
1.0076357
1.0075283
1.0074192
1.0072763
1.0071975
1.0027902
1.0027167
1.0027117
1.0027548
1.0027962
1.0028246
1.0028582
1.0029022
1.0029418
1.0029926
1.0030385
1.0030896
1.0031457
1.0031988
1.0032563
1.0033163
1.0033799
1.0034422
1.0035121
1.0035798
1.0036511
1.0037249
1.0038045
1.0038879
1.0039617
1.0040496
1.00413
1.0042234
1.0043029
1.004397
1.0044925
1.0045945
1.0046787
1.00477
1.0048674
1.0049423
1.0050328
1.0051167
1.0052005
1.0052888
1.0053567
1.0054311
1.0055053
1.0055651
1.0056328
1.0057061
1.0057552
1.0058111
1.0058721
1.0059042
1.0059488
1.0059847
1.0060266
1.0060579
1.0061168
1.006168
1.0062394
1.0063048
1.00637
1.0064442
1.0065279
1.0065974
1.0066801
1.0067519
1.0068475
1.0069163
1.0070065
1.0071064
1.0071717
1.0072614
1.0073428
1.0074092
1.0074915
1.0075563
1.0076242
1.0077061
1.007757
1.0078391
1.0079024
1.0079653
1.0080183
1.0080808
1.0081331
1.0081823
1.0082217
1.0082443
1.0082596
1.0082652
1.0082614
1.0082412
1.0082112
1.0081789
1.0081391
1.0080996
1.0080448
1.007979
1.0078934
1.0077941
1.0076873
1.0075652
1.0074425
1.0073279
1.0071696
1.0070517
1.0027927
1.0027171
1.0027118
1.0027535
1.0027889
1.0028233
1.0028598
1.0029037
1.0029495
1.0029936
1.0030412
1.00309
1.0031474
1.0032055
1.0032646
1.003325
1.0033872
1.0034527
1.0035225
1.0035918
1.0036635
1.0037372
1.0038161
1.003897
1.0039758
1.0040642
1.0041535
1.0042484
1.0043294
1.0044315
1.0045245
1.0046155
1.0046981
1.004794
1.0048834
1.004968
1.0050667
1.0051396
1.0052266
1.0053035
1.0053766
1.0054481
1.0055228
1.0055863
1.0056536
1.0057106
1.0057674
1.0058208
1.0058627
1.0059082
1.0059545
1.0059864
1.0060303
1.0060653
1.0061241
1.006181
1.006264
1.0063153
1.0064076
1.0064889
1.006548
1.0066424
1.0067036
1.0067985
1.0068687
1.0069521
1.0070439
1.0071197
1.007192
1.0072768
1.0073459
1.0074119
1.0075084
1.0075622
1.0076294
1.007711
1.0077674
1.0078197
1.0078948
1.0079483
1.008008
1.0080612
1.0081121
1.0081527
1.008187
1.008209
1.0082244
1.0082372
1.0082389
1.0082235
1.0081935
1.0081534
1.0081015
1.0080444
1.0079818
1.0079099
1.0078305
1.0077277
1.0076298
1.0075113
1.0073772
1.0072383
1.0070671
1.0069817
1.002791
1.002718
1.0027149
1.0027561
1.0027929
1.0028284
1.0028677
1.0029095
1.0029532
1.0029954
1.0030478
1.0031003
1.0031507
1.0032092
1.0032685
1.0033308
1.0033954
1.0034662
1.00353
1.003605
1.0036736
1.0037549
1.0038305
1.0039137
1.0039942
1.0040854
1.0041703
1.0042697
1.0043532
1.0044511
1.0045303
1.0046343
1.0047168
1.0048189
1.004909
1.0049854
1.0050817
1.0051564
1.0052391
1.0053127
1.0053862
1.0054604
1.0055396
1.0056004
1.0056594
1.0057169
1.005771
1.0058254
1.0058764
1.0059155
1.0059595
1.0059957
1.006049
1.0060908
1.0061646
1.0062269
1.0063014
1.0063618
1.006472
1.0065497
1.0066135
1.0066985
1.0067752
1.0068416
1.0069281
1.0069922
1.007059
1.0071409
1.0072216
1.0072919
1.007348
1.0074306
1.0074938
1.0075542
1.0076371
1.0076933
1.0077605
1.0078218
1.0078716
1.0079337
1.0079831
1.0080298
1.0080788
1.0081198
1.008151
1.0081723
1.008178
1.0081858
1.0081868
1.0081774
1.008152
1.0081153
1.0080693
1.0080099
1.0079432
1.0078708
1.0077849
1.007689
1.0075793
1.0074477
1.0073273
1.0071821
1.0070162
1.0068816
1.0027901
1.0027187
1.0027167
1.0027561
1.0027948
1.0028289
1.0028695
1.0029087
1.0029531
1.0029968
1.0030525
1.003104
1.0031585
1.0032158
1.0032736
1.0033355
1.0034014
1.0034679
1.0035402
1.0036184
1.0036851
1.0037628
1.0038429
1.003923
1.0040042
1.0041007
1.0041776
1.0042753
1.0043661
1.0044676
1.0045552
1.0046603
1.0047415
1.0048298
1.0049023
1.0050034
1.0050763
1.0051746
1.005247
1.0053221
1.0053974
1.0054627
1.0055449
1.0056067
1.0056649
1.0057245
1.0057784
1.0058343
1.0058824
1.0059345
1.005979
1.006016
1.0060769
1.0061257
1.0061921
1.0062591
1.0063221
1.0064034
1.0064736
1.0065485
1.0066374
1.0066954
1.006793
1.0068699
1.0069358
1.0069925
1.0070739
1.0071488
1.0072236
1.0072711
1.0073351
1.0074054
1.007468
1.0075233
1.0075855
1.0076267
1.0076919
1.0077555
1.0077947
1.0078607
1.0079181
1.0079743
1.0080283
1.0080716
1.0081107
1.0081361
1.0081447
1.008147
1.0081447
1.0081381
1.0081189
1.0080874
1.0080425
1.0079784
1.0079079
1.0078286
1.0077423
1.0076478
1.0075472
1.0074247
1.0072881
1.0071323
1.0069654
1.006836
1.0027919
1.0027176
1.0027147
1.0027554
1.002799
1.0028295
1.0028721
1.0029082
1.0029577
1.0030008
1.0030558
1.0031039
1.0031613
1.0032138
1.0032774
1.0033365
1.0034063
1.0034708
1.0035435
1.003622
1.0036961
1.0037733
1.0038508
1.003935
1.0040189
1.0041147
1.0041946
1.0042863
1.0043738
1.004475
1.0045717
1.0046748
1.0047592
1.0048417
1.0049269
1.0050224
1.0050961
1.0051844
1.0052567
1.0053368
1.005412
1.0054831
1.0055554
1.0056187
1.0056743
1.0057371
1.0057968
1.0058386
1.0058909
1.0059456
1.0059764
1.0060283
1.0060756
1.0061378
1.0062016
1.0062772
1.0063376
1.0064123
1.0064975
1.0065732
1.006636
1.0067175
1.0067782
1.006863
1.0069222
1.007009
1.0070644
1.0071281
1.0072
1.0072696
1.0073286
1.0074031
1.00745
1.0075026
1.0075674
1.0076097
1.007666
1.0076952
1.0077569
1.0078134
1.0078676
1.0079204
1.0079654
1.0080076
1.0080499
1.0080831
1.008105
1.0081139
1.0081188
1.0081121
1.0080944
1.0080666
1.0080232
1.0079701
1.0078961
1.0078063
1.0077183
1.0076257
1.0075173
1.007412
1.0072737
1.0071371
1.0069509
1.006805
1.0027924
1.0027172
1.0027153
1.0027558
1.0027972
1.0028306
1.0028722
1.0029128
1.0029608
1.0030038
1.0030583
1.0031051
1.0031638
1.0032203
1.0032828
1.0033442
1.0034116
1.003481
1.0035589
1.0036256
1.0037032
1.0037757
1.0038638
1.0039459
1.0040358
1.0041201
1.0042136
1.0043042
1.004408
1.0045003
1.0045985
1.0046971
1.0047877
1.0048734
1.0049558
1.0050365
1.0051148
1.0051931
1.0052797
1.0053417
1.0054268
1.0054942
1.0055596
1.0056264
1.0056828
1.0057413
1.0058
1.0058492
1.0059003
1.0059484
1.0059887
1.006044
1.0060992
1.0061562
1.0062194
1.006299
1.0063585
1.0064565
1.0065304
1.0066075
1.0066904
1.0067511
1.0068271
1.006915
1.0069698
1.0070326
1.0071007
1.0071769
1.0072277
1.0072937
1.0073494
1.0074176
1.0074844
1.0075308
1.007587
1.0076471
1.0076882
1.0077545
1.0078019
1.007822
1.0078691
1.0079113
1.0079485
1.0079841
1.0080112
1.0080389
1.008059
1.0080662
1.0080703
1.0080696
1.0080579
1.0080418
1.0080082
1.0079662
1.007908
1.0078312
1.0077314
1.0076224
1.0075077
1.0073891
1.0072663
1.007136
1.0069681
1.0068032
1.0027919
1.0027175
1.0027166
1.0027602
1.0028002
1.0028346
1.0028719
1.0029165
1.002964
1.0030093
1.0030625
1.0031123
1.0031701
1.0032272
1.0032913
1.0033538
1.003423
1.0034946
1.0035676
1.0036415
1.0037195
1.0037923
1.0038789
1.0039606
1.0040515
1.0041396
1.0042367
1.0043261
1.0044254
1.004524
1.0046167
1.00471
1.004796
1.0048916
1.0049724
1.0050592
1.0051443
1.0052169
1.005302
1.0053684
1.0054429
1.0055066
1.0055657
1.0056345
1.0056956
1.0057479
1.0057946
1.0058575
1.0059052
1.0059397
1.0059961
1.0060474
1.006097
1.0061585
1.0062451
1.0063225
1.0063857
1.0064701
1.006552
1.0066364
1.0066885
1.0067851
1.0068583
1.006928
1.0069767
1.0070378
1.0071215
1.0071572
1.0072309
1.0073039
1.0073514
1.0074059
1.0074764
1.0075188
1.0075844
1.0076407
1.0076953
1.0077411
1.0078069
1.0078358
1.0078817
1.0079218
1.0079526
1.0079852
1.0080062
1.0080236
1.0080375
1.0080351
1.0080349
1.0080295
1.0080188
1.0080033
1.0079746
1.0079392
1.0078865
1.0078243
1.0077425
1.0076395
1.0075348
1.0074038
1.0072678
1.007135
1.0069936
1.0068308
1.002792
1.0027168
1.0027154
1.0027624
1.0028015
1.0028406
1.0028758
1.0029221
1.0029684
1.0030172
1.003071
1.0031215
1.0031803
1.0032375
1.0033025
1.0033633
1.0034381
1.0035077
1.0035829
1.0036528
1.0037346
1.0038126
1.0038953
1.0039801
1.0040659
1.0041642
1.0042563
1.0043457
1.0044456
1.0045494
1.0046437
1.0047451
1.0048244
1.0049179
1.0050039
1.0050798
1.0051673
1.0052328
1.0053127
1.0053775
1.0054497
1.0055184
1.0055739
1.0056364
1.0056971
1.0057461
1.0058025
1.0058479
1.005897
1.005935
1.0059998
1.006045
1.0061071
1.0061824
1.0062488
1.0063176
1.0063983
1.0064536
1.006555
1.0066358
1.0066948
1.0067775
1.0068553
1.0069193
1.0069716
1.0070331
1.0070961
1.0071421
1.0072029
1.0072671
1.0073411
1.0073814
1.0074514
1.0075306
1.0075642
1.0076179
1.0076696
1.0077086
1.0077794
1.0078209
1.007868
1.0079214
1.0079634
1.0080027
1.008028
1.0080505
1.0080653
1.0080613
1.0080577
1.0080472
1.0080291
1.0080107
1.0079808
1.0079497
1.007899
1.0078393
1.0077628
1.0076635
1.0075622
1.0074555
1.0073129
1.0071681
1.0070178
1.0068463
1.0027912
1.0027181
1.0027194
1.0027639
1.0028015
1.0028395
1.0028767
1.002928
1.0029717
1.0030223
1.00308
1.0031326
1.003194
1.0032505
1.0033139
1.0033811
1.0034484
1.00352
1.0035958
1.0036725
1.0037455
1.003833
1.003912
1.004002
1.0040885
1.0041844
1.0042805
1.0043766
1.0044735
1.004587
1.0046757
1.0047724
1.0048545
1.0049444
1.0050203
1.0050966
1.0051812
1.0052474
1.0053244
1.0053933
1.0054585
1.005523
1.0055806
1.0056523
1.0057083
1.0057573
1.0058065
1.0058538
1.0059007
1.0059409
1.0059977
1.0060591
1.0061103
1.0061989
1.0062688
1.0063355
1.00641
1.0064764
1.0065643
1.0066294
1.0067051
1.0067745
1.006829
1.0068998
1.0069612
1.0070191
1.0070816
1.0071279
1.0071891
1.0072582
1.0072966
1.007371
1.0074059
1.0074809
1.0075294
1.0075719
1.0076331
1.0076801
1.0077311
1.007778
1.0078261
1.0078837
1.0079294
1.0079749
1.0080068
1.0080314
1.0080534
1.0080542
1.0080488
1.0080388
1.0080224
1.007999
1.0079691
1.0079424
1.0079029
1.0078555
1.0077941
1.0077095
1.0076155
1.0075041
1.0073939
1.0072579
1.0071298
1.0069355
1.0027915
1.0027172
1.0027179
1.0027633
1.002805
1.0028434
1.0028802
1.0029298
1.002976
1.0030289
1.0030801
1.0031414
1.0031961
1.0032606
1.0033194
1.0033892
1.0034572
1.0035291
1.0035986
1.0036771
1.0037563
1.003842
1.0039289
1.0040184
1.0041081
1.0042067
1.0042926
1.0044009
1.0044901
1.0046015
1.0046883
1.0047872
1.0048691
1.0049579
1.0050422
1.0051141
1.0051922
1.005263
1.0053291
1.0054051
1.0054689
1.0055197
1.0055931
1.0056522
1.0056986
1.0057587
1.0057961
1.0058497
1.005897
1.0059473
1.0060055
1.0060692
1.0061465
1.0062178
1.0062804
1.0063735
1.0064587
1.006522
1.0066017
1.006665
1.0067348
1.0067957
1.0068519
1.0069276
1.0069711
1.0070368
1.0071005
1.0071376
1.0071958
1.0072325
1.0072944
1.0073465
1.0073918
1.0074502
1.0075012
1.0075407
1.0076029
1.0076312
1.0076866
1.0077324
1.0077796
1.0078322
1.0078833
1.0079321
1.0079734
1.0080101
1.0080302
1.0080399
1.0080375
1.0080293
1.0080133
1.0079899
1.0079581
1.0079317
1.0078928
1.0078519
1.0077996
1.0077274
1.0076371
1.0075363
1.0074315
1.0072988
1.0071895
1.0070202
1.0027916
1.0027175
1.0027186
1.0027631
1.0028042
1.0028429
1.0028825
1.0029318
1.0029798
1.0030312
1.003087
1.0031468
1.0032033
1.0032686
1.0033289
1.0033967
1.0034647
1.0035438
1.0036177
1.0036976
1.0037773
1.0038635
1.0039491
1.0040435
1.0041337
1.0042285
1.0043263
1.0044309
1.0045241
1.0046325
1.0047222
1.0048148
1.0048957
1.0049825
1.0050595
1.0051254
1.0052122
1.0052741
1.0053422
1.0054142
1.0054672
1.005522
1.0055861
1.0056411
1.0057014
1.0057481
1.0057984
1.0058387
1.0059023
1.0059541
1.006013
1.0060843
1.0061556
1.0062343
1.0062994
1.0063836
1.0064646
1.0065367
1.0065957
1.006672
1.006732
1.0068061
1.0068603
1.0069283
1.0069797
1.0070408
1.0070929
1.0071372
1.0071877
1.0072403
1.0072968
1.0073549
1.0073868
1.0074463
1.0074869
1.0075337
1.0075888
1.0076239
1.0076717
1.007707
1.007739
1.007787
1.0078242
1.0078739
1.0079075
1.0079485
1.0079809
1.0079958
1.0080029
1.0080013
1.0079962
1.0079757
1.0079476
1.0079184
1.0078744
1.0078339
1.0077896
1.0077297
1.0076594
1.0075669
1.0074756
1.0073503
1.0072483
1.0071029
1.0027911
1.0027178
1.0027206
1.0027647
1.0028079
1.0028452
1.0028903
1.0029346
1.0029865
1.0030357
1.003091
1.0031472
1.0032154
1.0032732
1.0033402
1.0034033
1.0034829
1.003549
1.0036354
1.0037138
1.0037978
1.00388
1.0039726
1.0040634
1.0041529
1.0042503
1.0043449
1.0044483
1.0045502
1.004656
1.0047535
1.0048412
1.0049154
1.0049972
1.0050672
1.0051442
1.0052119
1.005276
1.0053449
1.0054106
1.0054645
1.0055316
1.0055824
1.0056481
1.0057029
1.0057465
1.0057885
1.0058466
1.0059009
1.0059569
1.0060298
1.006099
1.0061741
1.0062531
1.006326
1.0064001
1.0064863
1.0065585
1.0066198
1.0066873
1.0067684
1.0068291
1.0068959
1.0069644
1.0070067
1.0070628
1.0071192
1.007161
1.007219
1.0072722
1.0073103
1.007372
1.0074116
1.0074666
1.0075063
1.0075515
1.0075877
1.0076595
1.00767
1.0077272
1.0077337
1.0077895
1.0078048
1.007849
1.007879
1.0079109
1.0079321
1.0079499
1.0079592
1.0079618
1.0079588
1.007949
1.007924
1.0079027
1.007865
1.0078192
1.0077648
1.007706
1.0076423
1.0075576
1.0074732
1.0073586
1.0072548
1.0071179
1.0027907
1.0027186
1.0027216
1.0027672
1.002811
1.0028484
1.002896
1.0029418
1.0029912
1.0030437
1.0030988
1.0031584
1.0032228
1.0032832
1.0033537
1.0034197
1.0034966
1.0035693
1.0036513
1.0037278
1.0038183
1.0039008
1.0039907
1.0040885
1.0041793
1.00428
1.0043725
1.0044801
1.0045705
1.0046847
1.0047695
1.0048526
1.0049269
1.0050066
1.0050753
1.0051466
1.0052166
1.0052822
1.0053522
1.0054163
1.0054754
1.0055387
1.0055884
1.0056386
1.0056897
1.0057428
1.0057855
1.0058401
1.0059082
1.0059702
1.0060458
1.0061216
1.0061907
1.0062776
1.0063568
1.0064288
1.0065044
1.0065733
1.0066545
1.0067205
1.0067965
1.0068596
1.0069168
1.0069904
1.0070403
1.0070975
1.0071499
1.0071947
1.0072444
1.0072871
1.0073434
1.007382
1.0074321
1.0074862
1.0075156
1.0075758
1.007603
1.0076583
1.0076873
1.0077322
1.0077383
1.0077879
1.0078047
1.0078433
1.0078643
1.0078906
1.0079043
1.0079181
1.0079253
1.0079255
1.0079188
1.0079046
1.0078823
1.00786
1.007833
1.0077988
1.007748
1.0076879
1.0076247
1.0075487
1.0074724
1.0073716
1.0072756
1.0071488
1.0027916
1.0027177
1.0027216
1.0027683
1.002815
1.0028532
1.0028994
1.0029476
1.0029952
1.0030526
1.0031066
1.0031704
1.0032319
1.0032964
1.0033678
1.0034359
1.003515
1.0035881
1.0036719
1.0037508
1.0038416
1.0039292
1.0040205
1.0041169
1.0042062
1.004309
1.0043988
1.0045082
1.0046008
1.0047017
1.0047868
1.0048697
1.004942
1.005018
1.005087
1.0051555
1.0052246
1.0052853
1.0053589
1.0054151
1.0054863
1.0055406
1.0055869
1.0056357
1.0056882
1.0057368
1.0057846
1.0058497
1.0059099
1.0059857
1.0060517
1.0061398
1.0062172
1.0062962
1.0063738
1.00645
1.0065274
1.0065978
1.0066829
1.0067488
1.0068324
1.0068808
1.0069471
1.0070005
1.0070597
1.0071148
1.0071619
1.0072239
1.0072653
1.0073188
1.0073656
1.0074045
1.0074599
1.0075111
1.0075417
1.0076032
1.0076178
1.0076892
1.007704
1.0077493
1.0077737
1.0078178
1.0078297
1.007864
1.0078754
1.0078936
1.0079034
1.0079114
1.0079132
1.0079096
1.0079007
1.007885
1.0078565
1.0078276
1.0077936
1.0077564
1.0077125
1.0076593
1.0075968
1.0075212
1.0074443
1.0073535
1.0072682
1.0071529
1.0027913
1.0027188
1.0027224
1.0027707
1.002818
1.0028543
1.0029008
1.0029521
1.0029991
1.0030593
1.0031144
1.0031813
1.0032407
1.0033064
1.0033825
1.0034526
1.0035332
1.0036041
1.0036973
1.0037728
1.0038669
1.0039567
1.0040418
1.0041385
1.0042302
1.004333
1.0044251
1.0045332
1.0046257
1.0047284
1.0048073
1.0048969
1.0049602
1.0050337
1.0051062
1.0051658
1.0052328
1.0052893
1.0053615
1.005416
1.0054677
1.0055269
1.0055785
1.0056212
1.0056762
1.0057237
1.0057813
1.0058455
1.0059139
1.0059863
1.0060659
1.0061553
1.006237
1.0063134
1.0063936
1.0064792
1.006547
1.0066324
1.006704
1.0067657
1.0068345
1.0068992
1.0069717
1.0070197
1.0070777
1.0071376
1.0071745
1.007247
1.0072907
1.0073454
1.0073969
1.0074342
1.0074898
1.0075234
1.0075762
1.0076222
1.0076604
1.0076956
1.0077377
1.0077672
1.0078026
1.0078449
1.0078503
1.0078787
1.0078903
1.0079091
1.0079139
1.0079183
1.0079102
1.0079052
1.007891
1.0078676
1.0078296
1.0077884
1.0077494
1.0077105
1.0076633
1.0076079
1.0075504
1.0074761
1.0074014
1.0073103
1.0072289
1.0071397
1.0027907
1.0027203
1.0027261
1.0027722
1.0028182
1.0028589
1.0029034
1.0029582
1.0030072
1.0030679
1.0031228
1.003189
1.003254
1.0033215
1.0033992
1.0034673
1.0035547
1.0036251
1.0037158
1.0038017
1.0038877
1.0039815
1.004069
1.0041651
1.004256
1.0043618
1.0044576
1.0045631
1.0046538
1.0047545
1.0048327
1.0049121
1.0049768
1.0050462
1.0051097
1.0051674
1.0052315
1.0052865
1.0053426
1.0054061
1.0054528
1.0055027
1.0055592
1.0056051
1.0056586
1.0057189
1.0057863
1.005858
1.0059322
1.0060112
1.0060889
1.0061751
1.0062525
1.0063462
1.0064186
1.0065076
1.0065782
1.0066498
1.0067245
1.0067879
1.006864
1.0069156
1.0069752
1.0070361
1.0070973
1.0071585
1.0072027
1.0072644
1.0073068
1.0073675
1.0074142
1.0074525
1.0075114
1.0075503
1.0075959
1.0076379
1.007678
1.0077147
1.0077478
1.0077781
1.0078106
1.0078507
1.007875
1.00789
1.0079094
1.0079233
1.0079294
1.0079337
1.0079291
1.0079134
1.0078906
1.007866
1.007828
1.0077805
1.0077263
1.0076753
1.0076203
1.0075642
1.0075041
1.0074317
1.0073577
1.0072743
1.0071668
1.0070912
1.0027914
1.0027202
1.0027274
1.0027731
1.0028216
1.0028604
1.0029085
1.0029625
1.0030139
1.0030755
1.0031356
1.0031966
1.0032677
1.0033313
1.0034167
1.0034832
1.0035706
1.003646
1.0037354
1.0038259
1.0039106
1.0040057
1.0040975
1.0041931
1.0042874
1.004384
1.0044849
1.0045826
1.0046788
1.0047732
1.0048464
1.0049174
1.0049806
1.0050477
1.0051074
1.0051682
1.0052325
1.0052845
1.0053403
1.0053949
1.0054395
1.0054924
1.005543
1.0055969
1.0056584
1.0057237
1.0058106
1.0058777
1.0059607
1.0060369
1.0061219
1.0062076
1.0062795
1.0063679
1.0064424
1.0065186
1.0065991
1.006665
1.0067326
1.0068065
1.0068652
1.0069303
1.0069902
1.0070627
1.0071094
1.0071733
1.0072293
1.0072901
1.0073304
1.0073968
1.0074312
1.0074879
1.0075361
1.0075925
1.0076272
1.0076748
1.0077168
1.0077435
1.0077791
1.007801
1.0078319
1.0078578
1.007892
1.0079015
1.0079133
1.0079191
1.007922
1.007921
1.0079182
1.0079085
1.0078806
1.0078496
1.0078099
1.0077642
1.0077087
1.0076499
1.0075849
1.0075201
1.0074454
1.0073704
1.0072837
1.0071988
1.0071001
1.0070246
1.0027929
1.0027205
1.0027274
1.0027763
1.0028239
1.0028655
1.0029131
1.0029665
1.0030208
1.0030813
1.0031445
1.0032044
1.0032795
1.0033461
1.003431
1.0035009
1.0035881
1.0036694
1.0037529
1.0038489
1.0039327
1.0040308
1.0041274
1.0042222
1.0043167
1.0044139
1.0045131
1.0046083
1.0047055
1.0047905
1.0048595
1.0049244
1.00499
1.0050504
1.00511
1.0051698
1.0052303
1.0052814
1.0053337
1.0053852
1.0054309
1.005489
1.0055432
1.0055994
1.0056689
1.0057427
1.0058127
1.0058962
1.0059749
1.0060539
1.0061429
1.0062187
1.0063045
1.0063893
1.0064532
1.0065329
1.0066135
1.0066773
1.0067455
1.0068159
1.0068705
1.0069355
1.0069965
1.0070569
1.0071213
1.0071762
1.0072246
1.0072962
1.0073466
1.0074055
1.007451
1.0075068
1.0075502
1.0076058
1.0076446
1.007691
1.0077327
1.0077614
1.0078047
1.0078224
1.007858
1.0078756
1.007905
1.0079224
1.0079328
1.0079344
1.0079345
1.0079235
1.0079116
1.0078979
1.0078638
1.0078289
1.0077873
1.007735
1.0076799
1.0076173
1.0075463
1.0074768
1.0073964
1.0073167
1.0072318
1.0071422
1.0070327
1.0069456
1.0027953
1.0027202
1.0027286
1.0027776
1.0028266
1.0028702
1.0029194
1.0029718
1.0030285
1.0030894
1.0031563
1.0032164
1.0032951
1.0033611
1.0034457
1.003518
1.0036061
1.0036931
1.0037781
1.0038763
1.0039648
1.0040591
1.0041536
1.0042484
1.0043452
1.0044397
1.0045385
1.0046304
1.0047244
1.0048015
1.0048672
1.0049301
1.0049916
1.0050523
1.0051092
1.0051684
1.0052256
1.0052718
1.0053301
1.005378
1.005425
1.0054816
1.0055397
1.0056002
1.0056731
1.0057535
1.0058273
1.0059075
1.0059905
1.0060684
1.0061496
1.0062344
1.0063128
1.006392
1.006466
1.0065412
1.0066201
1.0066786
1.0067502
1.0068235
1.0068803
1.0069421
1.0070078
1.0070695
1.0071262
1.0071957
1.007248
1.007316
1.0073769
1.0074345
1.0074796
1.0075406
1.0075844
1.0076312
1.0076763
1.007718
1.0077633
1.0077895
1.0078297
1.0078544
1.0078859
1.0079071
1.0079251
1.0079451
1.0079536
1.0079534
1.0079452
1.0079313
1.0079178
1.0079006
1.0078633
1.0078202
1.0077742
1.007719
1.0076547
1.0075881
1.0075114
1.0074388
1.0073508
1.0072624
1.0071674
1.0070766
1.006969
1.0068874
1.0027971
1.00272
1.0027305
1.0027805
1.0028273
1.0028761
1.0029226
1.0029799
1.0030374
1.0030976
1.003168
1.0032298
1.0033073
1.0033776
1.0034628
1.0035369
1.0036269
1.0037183
1.0038039
1.0039024
1.0039958
1.0040881
1.0041852
1.0042777
1.0043711
1.0044697
1.0045647
1.0046547
1.0047434
1.0048128
1.0048739
1.0049368
1.0049939
1.0050532
1.0051076
1.0051614
1.005213
1.0052586
1.0053134
1.0053604
1.0054118
1.0054775
1.0055347
1.0056109
1.0056814
1.005763
1.0058405
1.0059212
1.0060059
1.0060846
1.0061666
1.0062444
1.0063229
1.0063978
1.006474
1.0065408
1.0066167
1.0066855
1.0067618
1.0068241
1.0068874
1.0069471
1.0070164
1.0070866
1.0071495
1.0072157
1.0072804
1.0073332
1.0074009
1.0074589
1.0075082
1.0075797
1.0076243
1.0076729
1.0077215
1.0077577
1.0077969
1.0078318
1.0078737
1.0078929
1.007925
1.0079477
1.0079565
1.0079724
1.0079816
1.007979
1.0079673
1.0079516
1.00793
1.0079034
1.0078678
1.0078224
1.0077694
1.00771
1.0076459
1.0075724
1.0074945
1.0074077
1.0073144
1.0072179
1.0071143
1.0070072
1.0068876
1.0067929
1.0027974
1.0027202
1.0027325
1.0027837
1.002832
1.0028804
1.0029306
1.0029895
1.0030476
1.0031083
1.0031806
1.0032444
1.0033243
1.0033949
1.0034796
1.0035589
1.0036483
1.0037414
1.0038343
1.0039304
1.0040239
1.0041196
1.0042135
1.0043068
1.0044034
1.0044953
1.0045903
1.004681
1.0047572
1.0048203