/*--------------------------------*- C++ -*----------------------------------*\
| =========                 |                                                 |
| \\      /  F ield         | OpenFOAM: The Open Source CFD Toolbox           |
|  \\    /   O peration     | Version:  2406                                  |
|   \\  /    A nd           | Website:  www.openfoam.com                      |
|    \\/     M anipulation  |                                                 |
\*---------------------------------------------------------------------------*/
FoamFile
{
    version     2.0;
    format      ascii;
    arch        "LSB;label=32;scalar=64";
    class       volVectorField;
    location    "200";
    object      U_0;
}
// * * * * * * * * * * * * * * * * * * * * * * * * * * * * * * * * * * * * * //

dimensions      [0 1 -1 0 0 0 0];

internalField   nonuniform List<vector> 
20580
(
(0.080472207 -0.00071709043 4.9110017e-22)
(0.082368418 0.00034607443 -1.9745801e-19)
(0.089484542 0.00038421144 8.4887299e-24)
(0.088894673 0.00095402184 9.8653152e-21)
(0.089113093 -6.3346915e-05 1.4830007e-23)
(0.088820691 0.0010732998 1.0844214e-20)
(0.089046586 0.0001765267 -9.8974467e-20)
(0.08759973 0.0017399211 2.2647922e-21)
(0.087854812 0.0017593742 1.2379454e-20)
(0.086787146 0.0016825367 0)
(0.086338302 0.0015307006 4.0362998e-21)
(0.085326235 0.0026512427 7.7597768e-20)
(0.084227352 0.0031233998 -9.35754e-21)
(0.084106551 0.0015806215 5.5056858e-21)
(0.082982313 0.0021616372 -1.6988619e-20)
(0.081351426 0.0041298668 2.2048822e-21)
(0.081760866 0.00024538985 1.234771e-19)
(0.081562925 -0.0022809915 4.9867905e-21)
(0.077706362 0.003704474 -3.1458477e-20)
(0.078673654 -0.0012625114 -4.8355916e-21)
(0.079924051 -0.0069207026 -1.3934786e-22)
(0.075391508 -0.0014650246 -1.9106452e-21)
(0.073262706 -0.0015240538 -4.11869e-20)
(0.078442141 -0.011861012 1.72559e-19)
(0.081653058 -0.020850824 -2.2161936e-21)
(0.075050395 -0.018480206 1.2278446e-19)
(0.071567571 -0.0091212019 6.4991951e-20)
(0.074871824 -0.0050670239 2.4356863e-21)
(0.071014076 -0.016469713 -4.4478934e-20)
(0.064063268 -0.031821188 1.3410437e-19)
(0.079334079 -0.039281174 1.1965931e-19)
(0.078656684 -0.0016551027 0)
(0.079549295 0.00098510162 8.6890358e-20)
(0.087362436 1.6878766e-05 -7.3081385e-21)
(0.087499074 0.00017907571 -1.1357283e-20)
(0.087346371 0.00057886104 -4.0823627e-21)
(0.087619178 0.00094744167 -1.3663992e-22)
(0.087573585 0.001167564 -9.2627338e-20)
(0.087374388 0.00083657051 1.2590017e-20)
(0.087154895 0.0019614324 5.7208409e-21)
(0.08680579 0.0013452011 3.0636863e-21)
(0.086133888 0.0014759767 2.3437987e-20)
(0.085015399 0.0028396555 1.7131275e-20)
(0.084831474 0.0023381877 -1.6191708e-20)
(0.084465228 0.0016039331 -3.1161064e-22)
(0.083122007 0.0021879507 2.1238017e-20)
(0.082447511 0.0032609221 1.1130658e-21)
(0.083514673 -0.00047483533 -2.9212306e-20)
(0.081227312 -0.00035861395 6.6820428e-20)
(0.079043559 0.0031802513 0)
(0.082013835 -0.0029846701 -6.9216661e-20)
(0.080664803 -0.0054101457 0)
(0.076322838 -0.00067738 5.9366353e-20)
(0.077323001 -0.0038070876 6.434594e-20)
(0.08161825 -0.01142428 -8.3986941e-22)
(0.08069141 -0.012915963 5.9567225e-20)
(0.071603369 -0.010300828 -2.0257663e-20)
(0.068890321 -0.0072562477 5.0722748e-20)
(0.079426335 -0.0079673945 7.1631298e-20)
(0.083494077 -0.019086862 1.8300369e-19)
(0.072970705 -0.03510384 -4.2685793e-20)
(0.068552738 -0.038037715 -1.9332245e-19)
(0.077043224 -0.0022798441 0)
(0.077627939 0.0016156809 0)
(0.085153627 -0.0002132569 1.3075769e-19)
(0.085589883 -0.00061451384 1.5874838e-19)
(0.085647627 0.0013655734 -1.9129478e-20)
(0.086254134 0.00067817068 -7.0177414e-23)
(0.086468244 0.0020263596 1.1811347e-20)
(0.086544284 0.00028405599 2.6487741e-20)
(0.086473352 0.0017785832 0)
(0.086441612 0.0011806548 8.0622789e-20)
(0.085770434 0.0015905101 -1.0385504e-20)
(0.084974431 0.0025419433 -7.1871167e-21)
(0.085079274 0.0016377836 0)
(0.084697961 0.001706072 8.1424114e-22)
(0.083385508 0.002039591 -1.8033411e-21)
(0.083287864 0.0018425508 5.8105001e-21)
(0.084389718 -0.00056646568 9.7850922e-22)
(0.08146505 0.0012583153 4.2046513e-21)
(0.080409483 0.001857 2.5371903e-20)
(0.084043333 -0.0037610562 0)
(0.081418938 -0.0036486558 0)
(0.077603967 -0.0006012293 -3.6058582e-20)
(0.080163957 -0.0054272608 2.5589963e-21)
(0.083414641 -0.010066627 5.7357902e-20)
(0.081407025 -0.0060910322 2.5321569e-20)
(0.07275827 -0.0042292429 -1.9944418e-20)
(0.068923454 -0.0092382605 6.204975e-20)
(0.08051849 -0.013950497 3.9126225e-20)
(0.092290594 -0.01962467 -5.8315337e-20)
(0.08396312 -0.032473691 -9.9481554e-20)
(0.063614974 -0.036866348 -1.2766944e-20)
(0.075531453 -0.0025231212 0)
(0.075897005 0.0016510129 -7.2206645e-24)
(0.083383763 -0.00050167453 3.6840871e-21)
(0.083589165 -0.0011274388 1.5965925e-21)
(0.083816489 0.0016730368 -4.9046859e-20)
(0.084691781 0.00029717893 -1.8589392e-20)
(0.085215595 0.002263104 -3.9019217e-20)
(0.085567802 0.00035282415 0)
(0.085668682 0.0013875035 -1.8747976e-22)
(0.08586065 0.00099559446 -2.529462e-20)
(0.085255663 0.00197948 1.2513492e-20)
(0.084832269 0.0020962908 1.601366e-20)
(0.085076693 0.0011023286 3.7415553e-22)
(0.084662719 0.0019145263 -1.1149239e-20)
(0.083586358 0.0020718443 1.9772389e-20)
(0.083863392 0.00060638112 2.5229793e-21)
(0.084577994 -0.00033018142 3.6832904e-20)
(0.081640564 0.0028808574 -1.0978084e-22)
(0.081664238 0.00052334475 -1.4836359e-21)
(0.085019746 -0.0041953826 -1.2307472e-21)
(0.081629225 -0.0010813494 -1.2447468e-20)
(0.079015056 4.1069404e-05 1.1056298e-20)
(0.082354395 -0.007239509 -9.2007287e-21)
(0.083620206 -0.0091572262 1.1324411e-19)
(0.081683117 -0.0011565228 0)
(0.076683461 0.00047734692 -1.2627116e-20)
(0.072134252 -0.011274401 -8.1760423e-20)
(0.079776877 -0.020492292 -2.2267614e-20)
(0.093932185 -0.020241662 5.5686358e-20)
(0.093163212 -0.023099294 -6.6608748e-20)
(0.069309058 -0.028962906 -1.6330156e-19)
(0.074515551 -0.0020650659 0)
(0.074700474 0.0012604387 2.6837403e-19)
(0.082131101 -0.00050726179 -2.4785883e-19)
(0.081828119 -0.0010037165 -8.2083805e-20)
(0.082174144 0.0014318992 -2.9191655e-22)
(0.083157441 7.9709001e-05 -4.4369352e-20)
(0.083864106 0.0017401208 0)
(0.084519241 0.00098112391 -4.4419037e-21)
(0.084875214 0.00086625911 2.899858e-20)
(0.08510381 0.00095714353 -1.7872541e-20)
(0.084633178 0.00226803 3.1154611e-20)
(0.084585831 0.0016903861 -1.908071e-22)
(0.084784492 0.00079043514 -4.2134145e-21)
(0.084377068 0.0021590296 1.7423251e-20)
(0.083736293 0.0021907466 1.2547855e-20)
(0.084095791 -6.6641354e-05 1.4756782e-20)
(0.08418039 2.4913612e-05 7.9605352e-20)
(0.081784987 0.0039419029 -8.4032199e-21)
(0.082835242 -0.00070941743 -8.3405861e-20)
(0.085073036 -0.0043019855 0)
(0.08123804 0.0010911758 -9.7769266e-21)
(0.080721555 0.00029027448 6.004879e-21)
(0.084423478 -0.0081282526 5.9782638e-20)
(0.082669853 -0.0095172437 8.32816e-21)
(0.080700014 -0.00056156794 0)
(0.081970935 0.0016835145 9.4404447e-20)
(0.080033043 -0.012010711 -1.1669972e-19)
(0.080705403 -0.025334791 1.2335021e-20)
(0.090312709 -0.02131154 2.0004595e-19)
(0.096360068 -0.012217267 -2.1079637e-20)
(0.082903605 -0.0137832 1.2690416e-19)
(0.074230791 -0.0010507602 1.507922e-19)
(0.074307529 0.00054575564 2.1202187e-21)
(0.081508777 -0.00027223415 -9.5408296e-24)
(0.08082448 -0.00031188608 1.1836796e-20)
(0.081133914 0.00073940522 4.920966e-20)
(0.081918209 0.00015031982 -1.3765647e-22)
(0.082821476 0.00073768061 1.1014489e-20)
(0.083563836 0.0017159819 8.9965463e-23)
(0.084038097 0.0004627709 -9.3264955e-21)
(0.084183777 0.0011466408 1.2890609e-20)
(0.083963051 0.0022032772 2.3953796e-20)
(0.084213297 0.001471789 -2.523717e-20)
(0.084234548 0.00080131928 -6.019626e-21)
(0.083843663 0.0023324753 2.0364467e-20)
(0.083694834 0.0023727524 1.1918398e-20)
(0.084030814 -3.0612237e-05 -4.0720314e-22)
(0.083362327 0.00057252385 8.6939194e-20)
(0.081878329 0.0044217469 1.177913e-20)
(0.083871522 -0.0015840088 -4.5754362e-21)
(0.084508114 -0.0035734011 0)
(0.080638141 0.0026025282 -5.7879902e-21)
(0.082405129 -7.0965287e-05 -1.4602057e-19)
(0.086484917 -0.0073705282 -8.346093e-20)
(0.081835297 -0.0091940659 0)
(0.078750351 -0.0032761593 -1.0308556e-19)
(0.085370826 -0.0014108211 -3.5819579e-20)
(0.089083694 -0.012921359 1.0725471e-19)
(0.084479441 -0.026832884 1.6090729e-19)
(0.083835065 -0.022151026 -1.3440183e-19)
(0.092393935 -0.0052694584 -7.7355145e-20)
(0.094799011 0.0021176281 8.5009468e-20)
(0.074164704 0.0001057609 -4.363409e-21)
(0.074219156 2.4855623e-05 7.7962015e-20)
(0.081160733 0.00013056127 -9.3604642e-23)
(0.080249671 0.00065981987 6.8524095e-20)
(0.080539576 -0.0001289768 6.6266683e-21)
(0.081108195 0.0005227629 4.7617603e-21)
(0.081839629 -0.00018095401 9.8406106e-22)
(0.082588185 0.0019458005 2.2969358e-23)
(0.083170145 0.00044536487 1.08505e-22)
(0.083176678 0.0013717011 -9.5803784e-21)
(0.083175954 0.0018690886 4.1924847e-22)
(0.083582045 0.0013278187 3.3050183e-22)
(0.083384496 0.0011509643 7.0503392e-21)
(0.083009562 0.0022372328 1.1456771e-23)
(0.083326508 0.0024062019 -5.4509052e-21)
(0.083618287 0.0004521285 2.0498624e-21)
(0.082212496 0.0012708461 -8.996296e-22)
(0.081771837 0.0037349396 -4.7279909e-20)
(0.084400879 -0.0023866534 0)
(0.083357776 -0.0022880801 6.1768678e-20)
(0.0799172 0.0029234683 1.403284e-21)
(0.08339437 -0.0014674511 -7.0585149e-20)
(0.087825595 -0.0063888582 -4.2076714e-21)
(0.08190937 -0.0065289881 -3.0548544e-20)
(0.076874664 -0.0060443747 -2.1855989e-20)
(0.085416872 -0.0066830572 -1.6805725e-20)
(0.094761482 -0.012877312 9.5672602e-21)
(0.089256096 -0.022071729 7.4911713e-21)
(0.079342219 -0.022173556 -2.0955225e-19)
(0.082906471 -0.0073564669 3.2756744e-19)
(0.097569186 0.005360546 -2.6277723e-20)
(0.074696773 0.00114538 1.0429731e-18)
(0.074757215 0.00012555799 0)
(0.081363415 0.00049788018 -2.3278093e-19)
(0.080451171 0.0014531445 -1.134709e-19)
(0.0806627 -0.00075145992 4.7151322e-20)
(0.081093234 0.0009831124 -1.4391305e-22)
(0.081525717 -0.00041984312 7.1720266e-21)
(0.082103539 0.0014994716 -1.5912946e-22)
(0.082517972 0.00078395214 3.0807407e-20)
(0.082319133 0.0014491841 -1.4242523e-20)
(0.082359147 0.001525153 1.0390722e-20)
(0.082703325 0.0011450075 9.1205067e-23)
(0.082314424 0.0016594387 6.0367182e-21)
(0.081905672 0.0018603194 4.4954656e-22)
(0.082420118 0.0019570954 -7.8423826e-21)
(0.082590808 0.0011609276 1.9645108e-20)
(0.080806745 0.0020555267 -2.1288175e-20)
(0.081311615 0.0022312921 -3.6255574e-20)
(0.084006905 -0.0026036672 -9.3779668e-23)
(0.081675949 -0.00049958038 -1.7959965e-21)
(0.079149348 0.0023060338 2.3670673e-21)
(0.083419843 -0.0038437701 -6.9400915e-22)
(0.087400855 -0.0056620938 0)
(0.08234174 -0.0023030198 -1.5054581e-20)
(0.076982101 -0.0063841266 -4.1502997e-20)
(0.084145449 -0.011905627 -1.0226266e-19)
(0.095078764 -0.012252366 3.0931248e-20)
(0.091650044 -0.012376182 -1.1722866e-19)
(0.077440688 -0.016466239 5.2386529e-20)
(0.073169815 -0.014235353 -3.0231511e-19)
(0.089017689 -0.0059719493 -1.7544404e-19)
(0.077241273 0.0015596001 -4.4654182e-19)
(0.077202556 0.0008258264 -5.7357816e-24)
(0.082751025 0.00084115176 -9.9428095e-20)
(0.081662785 0.0017023201 -1.2397839e-19)
(0.081423551 -0.00073995375 6.4284543e-22)
(0.081638875 0.0012754196 -7.1656545e-23)
(0.081831057 3.5094134e-05 -1.7237381e-20)
(0.082170995 0.00068724856 -9.3470209e-24)
(0.082357165 0.0011895004 2.3766679e-21)
(0.081896713 0.001344436 -1.2162032e-20)
(0.081741676 0.0011631944 1.1359496e-20)
(0.081745196 0.0009287938 0)
(0.081119626 0.0021267 8.4500002e-22)
(0.080572369 0.0014738067 6.3390576e-22)
(0.08093306 0.0012338769 -1.8073953e-20)
(0.080951601 0.0017881841 5.4886141e-21)
(0.079175306 0.0026026486 3.0956138e-21)
(0.080203537 0.00050477943 5.4094373e-20)
(0.082349131 -0.0023531513 -1.737546e-20)
(0.079596043 0.0014138192 -6.3335885e-20)
(0.078543571 0.0016357429 6.3759409e-20)
(0.082812514 -0.0064996607 1.6521906e-21)
(0.085349336 -0.0047707862 -2.629759e-21)
(0.082454661 0.002213016 -9.6749653e-21)
(0.079172408 -0.0042618062 -2.0119945e-21)
(0.083030358 -0.015115082 -4.3836501e-21)
(0.091556195 -0.012005932 -1.7846918e-19)
(0.092746738 -0.0035216832 6.0803851e-20)
(0.081511908 -0.0051540366 -2.3620703e-19)
(0.070934155 -0.016066381 -1.2340339e-19)
(0.078141646 -0.021246543 -1.5834811e-19)
(0.088465093 0.0018191983 -1.0333422e-18)
(0.082948367 0.0020353405 -2.7551436e-22)
(0.086806732 0.0011063713 2.1119421e-19)
(0.085225871 0.0013106822 9.3111295e-20)
(0.083920304 -5.8898865e-05 -7.2126166e-22)
(0.083639698 0.0012190414 0)
(0.083401389 0.00095022763 -4.8887109e-21)
(0.08312548 7.0907675e-05 7.5774891e-20)
(0.082841442 0.0016006353 1.9543959e-20)
(0.082200149 0.0013266586 -1.7656202e-20)
(0.081685083 0.00066261804 -4.8328363e-23)
(0.081040818 0.0007348043 2.7269905e-23)
(0.080183462 0.0022414001 0)
(0.079517516 0.0010959466 5.0252956e-20)
(0.079355557 0.00045015319 8.5403669e-21)
(0.079085859 0.001957568 8.1539362e-22)
(0.077690949 0.0028570087 2.9137749e-20)
(0.078846282 -0.00079236076 6.6494698e-20)
(0.07989982 -0.0018495197 -5.8712976e-20)
(0.077079357 0.0030188385 -5.3264695e-20)
(0.078075566 0.001272783 9.2789718e-20)
(0.081595897 -0.0077612606 3.0929936e-20)
(0.081266053 -0.004428327 -1.7439123e-19)
(0.080837517 0.0049379204 -7.3920052e-20)
(0.082043446 -0.00064179556 -2.4139982e-19)
(0.082878804 -0.014305313 1.5855709e-21)
(0.085574641 -0.011873327 2.0543321e-21)
(0.089235443 0.0016867438 8.5921714e-20)
(0.087929624 0.0062350683 -9.0018682e-20)
(0.080135361 -0.010419533 -3.5205971e-19)
(0.076758598 -0.029526199 -1.6196993e-19)
(0.10540587 0.001353961 6.7400162e-21)
(0.092893219 0.0028622022 -4.8765074e-22)
(0.094861065 0.0010395969 8.5157182e-21)
(0.092747842 0.00043090226 4.2677355e-22)
(0.08996297 0.00083039163 3.0606276e-22)
(0.088302103 0.00084123907 -3.2176866e-20)
(0.087004724 0.0017589939 1.6355068e-21)
(0.085577378 -0.00011389535 6.4420917e-23)
(0.084440597 0.0016099776 1.6432037e-20)
(0.083338715 0.0013467049 4.9003457e-21)
(0.082221705 0.00018039849 -1.8463045e-20)
(0.080954501 0.00082546214 -2.1006427e-20)
(0.080096273 0.0021047052 0)
(0.07956692 0.00085036307 2.1736654e-23)
(0.078935953 -0.00011325261 6.7127128e-21)
(0.078326252 0.0015198621 5.2615603e-22)
(0.077519716 0.0026430026 -1.467851e-21)
(0.078580959 -0.0016385228 2.2770482e-22)
(0.078152886 -0.0010061535 -5.2548657e-21)
(0.075427903 0.0038862492 3.9125111e-22)
(0.078316023 0.00083444224 -9.5695054e-20)
(0.080921161 -0.0069236394 5.6506161e-20)
(0.077155356 -0.0042719116 -7.8480469e-21)
(0.077899447 0.0045390205 -2.7821175e-20)
(0.084366955 0.0015078772 -4.5668569e-20)
(0.084446095 -0.010385979 -2.1275422e-20)
(0.079956155 -0.011904273 1.3776815e-19)
(0.08173689 0.001088769 -2.4079767e-19)
(0.090007037 0.0087127372 3.620943e-20)
(0.093522909 -0.0027128948 3.2186153e-19)
(0.087193705 -0.026075467 5.9637633e-20)
(0.10735988 0.000142942 -6.8938716e-19)
(0.099297679 0.0037393778 0)
(0.10202113 0.00084787712 5.5911985e-20)
(0.10014562 -0.00035967846 9.3507626e-20)
(0.097261768 0.0016883117 5.0481702e-20)
(0.095296637 0.00037352434 1.2747783e-20)
(0.093160124 0.0018486845 1.7230635e-22)
(0.090340358 0.00037585469 -6.9788111e-23)
(0.087750771 0.0013120462 3.5419582e-21)
(0.085764531 0.0012021984 -8.1839743e-21)
(0.083773921 5.9374917e-05 2.0142738e-20)
(0.081746757 0.00089273594 1.1732963e-22)
(0.080827523 0.0015265153 3.8258713e-21)
(0.080460135 0.00067060283 0)
(0.0794203 -0.00020004193 -3.7351063e-21)
(0.078500218 0.00099132492 5.2755428e-20)
(0.078395597 0.0021051946 -3.4514505e-20)
(0.079340295 -0.0019714478 2.3181508e-20)
(0.077575217 0.00023866578 6.5626051e-22)
(0.075200734 0.0037999991 9.111911e-21)
(0.079346616 -1.4941546e-05 -4.9880433e-20)
(0.081047157 -0.0045427113 7.7341178e-22)
(0.074269911 -0.0027282723 7.1330205e-20)
(0.074556104 0.0017888799 1.0468427e-19)
(0.084534106 8.58626e-05 9.7444302e-21)
(0.086308223 -0.0060775204 -5.4264263e-20)
(0.076726207 -0.0095365831 -1.7361149e-20)
(0.073491075 -0.0038031695 1.6273965e-22)
(0.08522885 0.0018305121 -2.9046644e-19)
(0.099897858 -0.0010309878 -4.9099529e-20)
(0.10042146 -0.015186676 1.5122618e-19)
(0.10587533 -0.0005226728 4.345888e-19)
(0.10026979 0.0039421918 2.7865972e-19)
(0.10417498 0.00050796338 1.4509948e-21)
(0.10248005 -0.00088114164 1.7341131e-21)
(0.10038334 0.0018706192 -2.0711813e-23)
(0.099262174 -4.3942835e-05 -9.4483921e-20)
(0.097754119 0.0010119016 1.4843953e-21)
(0.095148267 0.00094342319 -5.8587039e-24)
(0.092294014 0.00061464644 4.7855926e-22)
(0.089905906 0.00036939087 3.473631e-21)
(0.087263111 0.00030483598 1.7156451e-22)
(0.084704339 0.0010600637 6.2694182e-21)
(0.083535322 0.00091958265 1.8808762e-22)
(0.083063636 0.00065536954 7.9015834e-23)
(0.081796898 0.00015023644 0)
(0.080536133 0.00053862794 0)
(0.08089863 0.0010840083 2.2741882e-20)
(0.081463551 -0.0017676821 -1.2030831e-21)
(0.078714372 0.0014831996 5.8548501e-20)
(0.076754934 0.0023588343 -4.9600899e-21)
(0.081061778 -0.0020104807 -3.0061056e-20)
(0.082147722 -0.0020551343 1.2390042e-20)
(0.074263039 0.00040629376 0)
(0.073112372 -0.0016753992 0)
(0.083186437 -0.0042855565 0)
(0.087281794 -0.0034855364 -1.951656e-20)
(0.077660009 -0.0035714263 3.6537604e-21)
(0.070064642 -0.0078662998 -9.1984309e-21)
(0.07842756 -0.0091385414 3.9229646e-20)
(0.095352829 -0.0077601719 -3.9804197e-20)
(0.10416521 -0.0073940668 -1.2440206e-20)
(0.1042354 -0.0004371651 2.0289508e-19)
(0.098914644 0.003422863 4.4997561e-21)
(0.1033979 0.00043036585 -1.1667339e-21)
(0.10166868 -0.00060180826 -1.693939e-19)
(0.099991537 0.0014803689 0)
(0.099164505 5.1036253e-05 -1.9656827e-22)
(0.097663635 0.00019833367 8.3334183e-21)
(0.095958242 0.0016306382 7.5036025e-20)
(0.094707909 0.0002875085 -1.4066679e-22)
(0.093527214 -0.00062580784 2.959882e-20)
(0.091590099 0.00048193546 1.4595008e-20)
(0.089536999 0.00088136101 0)
(0.088450014 0.00022471018 3.3972676e-20)
(0.087956053 0.00076341054 -3.9801547e-20)
(0.086849234 0.0011763746 1.8753131e-20)
(0.085550449 0.00064321777 3.3430024e-22)
(0.085993426 0.0003305716 1.007768e-20)
(0.085913892 -0.00071970683 1.6625346e-21)
(0.08285232 0.0027897207 2.6644776e-20)
(0.081304966 0.0010074065 -6.4944625e-21)
(0.084316178 -0.0040008821 8.8488747e-22)
(0.084345447 0.00013816216 -9.2640248e-20)
(0.077686903 0.0046210155 4.1715726e-20)
(0.075871211 -0.00342421 0)
(0.082764085 -0.0091259092 1.4878161e-20)
(0.086581304 -0.0029391201 -4.8611071e-20)
(0.08101158 0.0029153796 -9.3336707e-20)
(0.073702005 -0.0063002733 1.1023057e-19)
(0.07629521 -0.0174691 -1.9003592e-20)
(0.088813097 -0.016139336 1.1254353e-19)
(0.10014986 -0.005972143 1.0945427e-19)
(0.10122207 0.00014023892 -1.7486372e-19)
(0.09437413 0.0018635273 -1.0298477e-19)
(0.099707451 0.00022758085 5.6687273e-22)
(0.098324508 0.00013454394 4.9226551e-20)
(0.097246034 0.00034648746 -8.3936429e-20)
(0.09667684 0.00023878149 4.4423816e-23)
(0.095766428 -0.00044467383 -1.2405793e-20)
(0.095047256 0.001389549 -4.6577106e-20)
(0.0945165 6.954788e-05 3.3588854e-22)
(0.093744541 -0.00090027385 -1.8014755e-22)
(0.092599668 0.00075722574 -2.4727225e-20)
(0.091736945 0.00089758751 -1.7441373e-22)
(0.091391449 -0.00030427059 1.7826763e-22)
(0.091135965 0.00044446358 4.428112e-22)
(0.090422826 0.0017729069 1.3590574e-20)
(0.089433498 0.00066437868 2.5167859e-23)
(0.089824001 -0.00062655539 -1.2077329e-20)
(0.089295936 -0.00013826006 3.230271e-21)
(0.086865149 0.0033559594 2.1557618e-21)
(0.086541982 -0.00021068564 0)
(0.088073277 -0.0058579432 -3.4314531e-20)
(0.086667799 0.0012360369 -1.2135904e-21)
(0.083019653 0.0072671327 6.2709648e-20)
(0.082587948 -0.0032854889 -3.0863565e-21)
(0.084737606 -0.012218512 -1.1505842e-20)
(0.085204279 -0.0031789689 2.6390106e-19)
(0.084582121 0.0064244915 -1.7354512e-20)
(0.08295585 -0.00027727832 8.8873687e-22)
(0.080709476 -0.018034914 2.8349793e-21)
(0.08304691 -0.021542727 -8.461928e-20)
(0.089697023 -0.0083624144 1.0924561e-20)
(0.091171455 0.0011553338 2.905426e-19)
(0.087401638 0.00089182749 -1.4078299e-22)
(0.093439461 0.00042942969 -6.8208121e-20)
(0.092201138 0.0013373235 -1.071143e-21)
(0.091888375 -0.00041605151 2.0779006e-22)
(0.092110538 0.00087214385 9.9513016e-21)
(0.091974461 -0.00024623398 0)
(0.09213707 0.00086999846 -2.4960971e-23)
(0.092488539 -0.00018847766 -1.5176593e-23)
(0.092151414 -0.0010314365 1.5230225e-20)
(0.091473326 0.00026653301 1.1972851e-22)
(0.091260477 0.00088146572 -1.0696956e-22)
(0.091077475 -0.00032711818 -3.4775083e-20)
(0.090649765 0.00049944742 5.4712824e-20)
(0.090311639 0.0023291462 4.303164e-21)
(0.089655328 0.0012450632 -3.4523276e-22)
(0.089792978 -0.00052774175 1.6307964e-22)
(0.088766708 0.00079184738 -6.7071234e-22)
(0.087362078 0.0035903071 0)
(0.088728117 -0.00084257023 1.1409633e-19)
(0.088723289 -0.0062328316 -2.1315578e-20)
(0.0858949 0.0010520068 7.641893e-20)
(0.086090991 0.0066927911 3.8086476e-21)
(0.089252394 -0.0023528888 -1.7707014e-21)
(0.087807486 -0.011988489 3.917044e-20)
(0.083716419 -0.0048746781 -1.0341487e-19)
(0.085543597 0.0058273075 3.4532431e-20)
(0.091805349 0.004824213 -6.7680699e-20)
(0.091200936 -0.010161212 1.3176837e-19)
(0.084135681 -0.019688727 1.8399925e-20)
(0.08071049 -0.011586483 -6.067803e-21)
(0.095023398 0.0024543104 3.8897292e-19)
(0.084086331 0.00030627675 2.5842453e-23)
(0.08933405 0.00060899929 -3.7720746e-21)
(0.087827009 0.0020583058 1.5784844e-19)
(0.0873934 -0.00095500356 -1.103642e-21)
(0.087723016 0.00091616737 5.0931501e-20)
(0.087816826 0.00027220585 0)
(0.088335131 -0.0002064293 0)
(0.089049651 0.00016217266 -1.9388895e-20)
(0.088831262 -0.00031650412 0)
(0.088280497 3.4873054e-05 5.3468332e-20)
(0.088465413 0.00063600266 2.7218528e-20)
(0.088446286 -0.00052932275 0)
(0.087861057 0.00011685976 6.1766517e-20)
(0.087898004 0.0016270505 1.7467076e-20)
(0.087833716 0.0010915882 -4.0585806e-20)
(0.08789157 -0.00085270847 -9.099407e-22)
(0.086560101 0.0008525104 3.1530916e-21)
(0.086197876 0.002382028 1.1655262e-20)
(0.089038703 -0.0011933096 7.6868963e-20)
(0.087938398 -0.0044931546 -8.191365e-22)
(0.083742035 0.00013348846 6.0283514e-22)
(0.086370738 0.0042880286 8.2956715e-21)
(0.093152776 -0.00094625929 4.1382363e-20)
(0.090588345 -0.0074922873 -3.1699022e-20)
(0.08241742 -0.0048429434 -1.5210764e-19)
(0.083872956 0.0030868044 4.2103893e-20)
(0.095504986 0.004306487 2.6505368e-20)
(0.10055345 -0.0016967317 -1.6501287e-19)
(0.090868961 -0.010414499 -2.2893694e-19)
(0.079566922 -0.010537154 1.1612086e-20)
(0.1027426 0.0020575504 -3.6322781e-19)
(0.084518482 8.4401298e-05 1.2753087e-22)
(0.088412862 0.00058577965 2.8600298e-19)
(0.086610569 0.0019171057 -1.7787812e-19)
(0.085680886 -0.00068261021 1.758927e-19)
(0.085672751 0.0009077528 2.672733e-22)
(0.085999637 0.001099484 1.659344e-22)
(0.086139063 -0.00041423598 4.2429334e-20)
(0.086777429 -0.00029013608 8.1693221e-20)
(0.086495114 -0.00083629013 -2.7533521e-20)
(0.085821897 -0.00035005891 -2.1283567e-21)
(0.086162518 0.00056941195 5.7363004e-22)
(0.08621594 0.00025079245 7.8443541e-21)
(0.085505683 0.00061959892 5.0695166e-21)
(0.085798001 0.0012236516 2.0260615e-20)
(0.086367107 0.0013087787 -2.3749708e-20)
(0.086470461 -0.00013960238 -4.382678e-21)
(0.08501133 0.0014989763 6.7079676e-21)
(0.085282373 0.00097357434 5.2977511e-21)
(0.088737557 -0.0012980545 -2.2361281e-20)
(0.087291297 -0.0013429368 3.8280123e-21)
(0.082087912 0.00014394078 -2.145635e-20)
(0.085023518 0.00060449605 6.6165346e-20)
(0.093840249 -0.0019395356 1.0767791e-22)
(0.09240634 -0.0020097072 -1.7068424e-20)
(0.08235946 -0.0017209278 -1.4791977e-20)
(0.081649393 -0.0012487625 1.5184138e-21)
(0.094363176 -0.00137697 -1.3540376e-19)
(0.10456691 0.00028881611 -1.3963798e-20)
(0.098634021 0.00053279411 -6.0427592e-20)
(0.085513555 -0.0031381853 -2.3840941e-19)
(0.10176753 0.00056789785 -4.5084962e-19)
(0.084760249 -0.00017266948 1.2521932e-22)
(0.088732678 9.6699033e-05 6.015736e-22)
(0.08728206 0.00061207318 -6.2689745e-22)
(0.086191968 -0.00035774015 -6.5173966e-20)
(0.086112768 0.00014890355 -2.8349299e-20)
(0.086662271 0.0010031646 6.2393662e-21)
(0.086974686 -0.00085393556 -3.0677757e-20)
(0.087569716 0.00093136106 1.3916717e-20)
(0.087020724 -0.00050540467 5.2413542e-22)
(0.086081841 -0.00058100816 2.9511326e-20)
(0.086553305 -0.00054635478 2.3830636e-20)
(0.086775428 0.00017647652 1.1777229e-21)
(0.086168403 0.00032248485 3.034623e-20)
(0.086480494 -0.00021982872 -5.4288951e-23)
(0.087284142 0.00036446678 2.192737e-21)
(0.087360817 -0.00013218237 -1.174414e-20)
(0.086081164 0.0014687327 0)
(0.086537666 -0.0012328383 4.4990364e-22)
(0.089541248 -0.0021172667 -5.6165235e-22)
(0.088467393 0.0014705263 -5.6974148e-20)
(0.083622151 0.0013583459 4.008462e-20)
(0.085780212 -0.0038254828 -2.4227258e-20)
(0.093594319 -0.0046968211 5.5907454e-20)
(0.093605555 0.0020014453 3.3397422e-20)
(0.085186837 0.003994253 6.0254623e-20)
(0.082563871 -0.0039994636 8.3337672e-21)
(0.091837437 -0.0092302378 7.8744607e-20)
(0.10185856 -0.0035920298 -2.7380544e-19)
(0.10159498 0.0059167262 7.1328443e-20)
(0.092936751 0.0053236089 2.7905386e-19)
(0.090503422 -0.0016873301 5.9502901e-20)
(0.087483424 0.00077159618 9.4084189e-20)
(0.092003622 -0.00017178743 -4.4311903e-20)
(0.091038241 -0.00072318498 -7.140907e-20)
(0.090187 0.00059950679 2.3452048e-22)
(0.090133102 -7.6026441e-05 6.8288588e-23)
(0.090718453 0.00046088004 -1.0193983e-23)
(0.090598732 8.5829899e-05 -3.2780881e-20)
(0.091289778 -0.00026685755 2.6370354e-20)
(0.090727219 -0.00087130622 -2.5615394e-20)
(0.089451847 0.00020650596 2.1866021e-20)
(0.089479293 -7.4845184e-05 -3.5137046e-23)
(0.089499805 0.0013917696 -2.2389799e-20)
(0.088964021 0.0013033645 -4.3463244e-23)
(0.088921042 -0.00035175373 5.8678899e-21)
(0.089436342 0.00037048075 1.5325423e-20)
(0.089156916 0.00078799553 4.1669401e-22)
(0.088143188 0.0022688058 -9.9605801e-23)
(0.08830602 -0.0020143674 6.6949634e-20)
(0.089713569 -0.0020978918 -9.9913596e-20)
(0.088998596 0.0043166152 4.88478e-21)
(0.086052065 0.0041801647 -1.3039604e-19)
(0.08696465 -0.0052410819 -5.2737084e-21)
(0.091401356 -0.006122161 1.4949191e-19)
(0.091828977 0.0044634583 -1.2216909e-20)
(0.088335532 0.0096900235 4.8955309e-20)
(0.08700339 -0.0023488263 4.9609187e-19)
(0.090254433 -0.01380314 8.7860953e-21)
(0.095480044 -0.007613516 8.5150821e-20)
(0.097981102 0.0058512993 1.6327831e-19)
(0.096652688 0.011171657 -3.5978151e-20)
(0.09558822 -0.0016757714 -9.4866666e-19)
(0.094089349 0.0018107343 4.3894831e-21)
(0.098561651 -0.00021430447 -2.8842646e-21)
(0.097282389 -0.0017570137 -7.4160196e-22)
(0.09622105 0.00084190656 -7.7991719e-22)
(0.096030445 -0.00059998001 -5.6617551e-23)
(0.095839985 -0.00056807815 4.1282374e-23)
(0.095710367 4.5269625e-05 5.9266212e-23)
(0.095196181 0.0017036322 -9.467164e-24)
(0.093658506 -0.0012292486 -7.9998314e-23)
(0.091805784 -0.00093368725 -1.0007193e-22)
(0.091326801 -0.0014782123 -3.2653879e-20)
(0.090846242 0.0004777432 5.7917333e-20)
(0.090290859 0.00061935537 1.0614451e-23)
(0.089692087 -0.0013878998 -3.5469809e-22)
(0.08959847 -0.00068690058 -5.1445636e-22)
(0.088819104 0.00020089333 -1.2224867e-21)
(0.088400464 0.0015815555 8.3233762e-22)
(0.0884783 -0.0027675683 -7.5941274e-20)
(0.08785595 -0.0031086243 1.0514684e-19)
(0.087205575 0.0042968245 9.9133303e-20)
(0.087361169 0.0046561093 7.8231719e-22)
(0.088117082 -0.0052179213 -1.7519865e-25)
(0.087947045 -0.0078118882 -1.7071422e-21)
(0.086810093 0.003241827 -9.3204508e-20)
(0.088504335 0.0097413722 1.0542291e-20)
(0.091929829 -0.00021981605 -9.0075305e-21)
(0.090863031 -0.014016077 3.4425384e-20)
(0.087981316 -0.012286108 7.9533239e-20)
(0.0895778 0.0012676263 -2.3727648e-19)
(0.094808367 0.0094323708 6.0736308e-20)
(0.098590473 -0.002777912 -1.044436e-20)
(0.097438636 0.0019613425 -2.4662722e-19)
(0.10119928 -0.00032458671 2.1782511e-19)
(0.099938676 -0.0018219485 2.248484e-19)
(0.09807954 0.0009146711 1.7466068e-19)
(0.098237252 -0.00040918329 1.9011028e-20)
(0.096940127 -0.0011237621 1.1226521e-20)
(0.096147876 0.00092773379 3.9090614e-23)
(0.095803035 -0.0013099045 4.2959459e-20)
(0.094880433 -0.00093996424 8.8917805e-21)
(0.092646181 0.00035477639 -3.3662639e-20)
(0.091782053 -0.00054159886 7.2966384e-22)
(0.091332281 0.00091088923 7.3826213e-20)
(0.091399063 0.0011592267 6.8042867e-20)
(0.090943886 -0.0006440472 -1.8301079e-22)
(0.090555887 -0.00029504123 -2.062595e-20)
(0.089819034 0.00034289818 3.5940248e-22)
(0.090191732 0.0016086862 9.342446e-21)
(0.09076864 -0.0015314706 6.59402e-22)
(0.088478827 -0.0024114379 4.5844919e-20)
(0.087529251 0.0032583569 -1.0500711e-19)
(0.090547435 0.004391773 -8.7893442e-22)
(0.092484838 -0.002171888 2.483056e-21)
(0.088916718 -0.0055296405 1.0981111e-20)
(0.085240142 0.0015370366 1.3754927e-21)
(0.089940261 0.0074565415 -4.5527487e-20)
(0.098622073 0.0027130652 -2.8679554e-19)
(0.097752439 -0.0075189382 0)
(0.088214892 -0.010289848 1.1033463e-20)
(0.085140417 -0.0017440842 -2.438156e-19)
(0.093068997 0.0056371846 -1.0136943e-19)
(0.09652496 -0.00033285778 1.4757498e-19)
(0.10036927 0.0010040632 0)
(0.085295591 -0.00026644928 -4.3974723e-22)
(0.10975721 -0.00042941995 2.826044e-20)
(0.083280923 -0.0001416392 1.9915633e-20)
(0.11293937 -9.0292077e-05 1.5029149e-22)
(0.078625895 -0.00043936025 -4.6098447e-21)
(0.11358343 -0.00020941041 -8.3860567e-21)
(0.077019805 0.0022423263 1.3625482e-20)
(0.10677789 -0.003702866 1.7226321e-20)
(0.10696103 -0.0011998653 -5.7151553e-22)
(0.10780861 -0.0009008273 -7.0315386e-21)
(0.10826896 -0.00038116071 -1.8138427e-20)
(0.10912067 -0.00016786575 1.0551152e-20)
(0.10823513 -0.00041318434 1.2750145e-20)
(0.10765992 -0.00031658361 8.2104763e-22)
(0.10672502 -0.00015034815 1.567668e-20)
(0.10768825 0.00017551228 -6.3998024e-21)
(0.10737644 -0.00039258472 3.1246398e-20)
(0.10369713 -0.00069554209 -7.4351202e-22)
(0.10248895 0.00035957965 -5.0756435e-20)
(0.10698491 0.00073759244 -1.9229997e-21)
(0.10865183 -0.00055742382 -4.6727664e-21)
(0.10329194 -0.0014881268 3.3660841e-20)
(0.097449028 -0.00038351188 1.8176835e-20)
(0.10311641 0.0010324357 -4.6537151e-20)
(0.11370412 0.00033669448 -2.8837205e-20)