/*--------------------------------*- C++ -*----------------------------------*\
| =========                 |                                                 |
| \\      /  F ield         | OpenFOAM: The Open Source CFD Toolbox           |
|  \\    /   O peration     | Version:  2406                                  |
|   \\  /    A nd           | Website:  www.openfoam.com                      |
|    \\/     M anipulation  |                                                 |
\*---------------------------------------------------------------------------*/
FoamFile
{
    version     2.0;
    format      ascii;
    arch        "LSB;label=32;scalar=64";
    class       volScalarField;
    location    "190";
    object      p;
}
// * * * * * * * * * * * * * * * * * * * * * * * * * * * * * * * * * * * * * //

dimensions      [1 -1 -2 0 0 0 0];

internalField   nonuniform List<scalar> 
20580
(
1.0008626
1.0030376
1.005421
1.0066429
1.0037904
1.0058805
1.0049405
1.0056169
1.0066238
1.0064098
1.0060475
1.0062829
1.0075913
1.0072782
1.0064182
1.0083253
1.0079086
1.0047911
1.0111514
1.008426
1.0035223
1.008352
1.0103924
1.0043247
1.0014175
1.0137467
1.0126683
1.0058054
1.0125187
1.0077716
0.98490219
1.0002224
1.0028998
1.0057212
1.0068135
1.0036802
1.0059521
1.0047924
1.0051709
1.0067488
1.0062551
1.0058394
1.0064055
1.0076651
1.0066765
1.0069387
1.0090255
1.0061575
1.005776
1.0128294
1.0053375
1.0033937
1.0105446
1.0087858
1.0025398
1.0036238
1.0191295
1.0172141
1.0006534
1.0041464
1.0139876
0.99905131
1.001197
1.003664
1.0053758
1.0060683
1.0042509
1.0056806
1.0050284
1.005118
1.0064477
1.0061073
1.0058431
1.0065265
1.0075123
1.0059745
1.0071693
1.0092817
1.0048474
1.0067258
1.0134989
1.0036139
1.0046702
1.0127798
1.0076397
1.0030731
1.0049191
1.0197043
1.019275
0.99767577
0.99584672
1.0167424
1.0190489
1.0032779
1.0051066
1.0045752
1.004674
1.00521
1.0053106
1.0055808
1.0055145
1.0059822
1.0061852
1.0058377
1.006689
1.0073072
1.0055196
1.0073022
1.0090358
1.0045976
1.0077989
1.0125548
1.0030855
1.0068574
1.0142571
1.0069262
1.0059855
1.0063062
1.0151496
1.0173821
0.99809515
0.99048089
1.0128295
1.0335166
1.0055275
1.0067364
1.003786
1.0032775
1.0059699
1.0050355
1.0060055
1.0061314
1.0056601
1.0064551
1.0059595
1.0067512
1.0068776
1.0057639
1.0072576
1.0081348
1.005325
1.0091584
1.0101854
1.0033495
1.0095201
1.0138686
1.005428
1.0094609
1.009251
1.0078803
1.0117964
1.0024039
0.99105626
1.0044407
1.0312937
1.0070727
1.0077926
1.0033207
1.0026202
1.006279
1.0049312
1.0061258
1.0064829
1.0055721
1.0064395
1.0061614
1.0068009
1.0062023
1.0065319
1.0072888
1.0068943
1.0063068
1.0102531
1.0071629
1.0042761
1.0120358
1.0121911
1.0025151
1.0119491
1.0135924
1.0016175
1.0041372
1.0091199
1.0000455
0.9980475
1.014276
1.0072767
1.0076708
1.0033553
1.0030275
1.0061305
1.0051032
1.0059526
1.0062766
1.0055954
1.0058768
1.0063314
1.0068284
1.0055873
1.0073341
1.0073055
1.0058752
1.0072893
1.0108975
1.0045354
1.0054613
1.0131806
1.0098539
0.99953649
1.0121272
1.0176221
0.999631
0.99673544
1.0132757
1.0157383
1.0008902
0.99518429
1.0059462
1.006475
1.0039093
1.0042471
1.0055131
1.0053711
1.0054047
1.0057488
1.005758
1.0051951
1.0066473
1.0067434
1.00516
1.0076934
1.0075767
1.0054103
1.0080133
1.011034
1.0028943
1.0071336
1.0130024
1.0074577
0.99843096
1.0098744
1.019028
1.0021567
0.99291018
1.012011
1.0280935
1.0125609
0.98929865
1.0036829
1.0047961
1.0046671
1.0056447
1.0047144
1.0055078
1.0049369
1.0052773
1.006124
1.0050404
1.0068887
1.0065088
1.0055112
1.0075284
1.0077698
1.0053697
1.0083666
1.0100374
1.0025856
1.008965
1.0118362
1.005976
1.0004693
1.007548
1.0164218
1.0066471
0.99483701
1.007422
1.0283547
1.0240466
0.99647993
1.0015528
1.0032862
1.0051568
1.0065636
1.0041868
1.0054926
1.0050005
1.0052129
1.006386
1.0056038
1.0068547
1.0062771
1.0063439
1.0072667
1.0075282
1.0059794
1.0083537
1.0084617
1.0035409
1.0108742
1.0092854
1.0048632
1.005548
1.0070972
1.0103919
1.0099426
1.0021804
1.0039903
1.0164341
1.0245679
1.0094453
1.0005233
1.0025688
1.0052055
1.0065277
1.0040477
1.0053677
1.0054456
1.0055649
1.0061511
1.0064173
1.0064415
1.0061952
1.0070823
1.006817
1.0070335
1.006882
1.0083051
1.0067185
1.0051096
1.012624
1.0067813
1.003594
1.0120703
1.0089923
1.0034256
1.0095362
1.0120392
1.005128
1.002189
1.0106713
1.0160644
1.0010134
1.003175
1.0048481
1.0055736
1.0042607
1.0052258
1.0059356
1.0059626
1.0055448
1.0068736
1.0058511
1.0060953
1.0075742
1.0065864
1.0063089
1.0078045
1.0083288
1.0049875
1.0067946
1.0133593
1.0052039
1.0021587
1.0170856
1.0125711
0.9984966
1.0055345
1.0192855
1.0110162
0.99509879
0.99261524
1.010323
1.0029311
1.0048746
1.004215
1.0041728
1.0048136
1.0052921
1.0060898
1.006089
1.0051008
1.0067289
1.0056111
1.0058187
1.0076928
1.006601
1.0056132
1.0082865
1.0083211
1.0040112
1.0083217
1.012865
1.0043045
1.0010475
1.0182844
1.0157726
0.99691995
1.0008156
1.0202906
1.0186541
0.99667471
0.98432344
0.99794507
1.0054203
1.0067289
1.0036773
1.0030887
1.0054668
1.0052796
1.005873
1.005705
1.0051819
1.0063312
1.005811
1.0056644
1.0075236
1.0063858
1.0053331
1.0081527
1.0082654
1.0041216
1.0094434
1.0111644
1.0046146
1.0017426
1.0157707
1.0160816
0.99851407
0.9986488
1.0151701
1.0217739
1.0047032
0.98858868
0.99167332
1.0069929
1.0078501
1.0036404
1.0028469
1.0058572
1.0052722
1.0053053
1.0051143
1.0057688
1.0060606
1.0061335
1.0059068
1.0070338
1.0063121
1.0057012
1.0078467
1.0077219
1.0049993
1.0101343
1.0080296
1.0060334
1.0047813
1.0113214
1.0120115
1.0027415
1.0010854
1.0083197
1.0155875
1.0127044
1.001674
0.9968521
1.0066018
1.0077975
1.0040416
1.0034666
1.0059804
1.0053482
1.0046802
1.0047879
1.0064072
1.0059178
1.0063419
1.0064791
1.0063023
1.0062431
1.0066502
1.0072316
1.0068362
1.0063742
1.0107187
1.0045284
1.007051
1.0095811
1.0073747
1.0048869
1.006957
1.0079349
1.0051551
1.0036366
1.0119573
1.0154958
1.009869
1.0049996
1.0063298
1.0044573
1.0045615
1.0056389
1.0052012
1.0046739
1.0051629
1.0065247
1.0055946
1.0063448
1.0073152
1.0057359
1.0064269
1.0077021
1.0066037
1.0060838
1.0076811
1.0110726
1.0019982
1.0071845
1.014447
1.0063517
0.99813626
1.0086666
1.0166597
1.0071479
0.99502287
1.0028529
1.0203653
1.0224349
1.0026105
1.0042044
1.0047171
1.0057083
1.004798
1.0050658
1.0052112
1.0058934
1.0062428
1.0051127
1.0063035
1.0076047
1.0053611
1.0067889
1.0083464
1.0063722
1.005479
1.0085879
1.0110015
1.000999
1.006667
1.0173239
1.0072571
0.99519606
1.007553
1.0223118
1.0120356
0.9938619
0.99399683
1.0149345
1.026276
1.0008098
1.0026684
1.0047482
1.006319
1.0039866
1.0051775
1.005929
1.0065593
1.0055333
1.0048874
1.0063024
1.0071919
1.0054943
1.0068668
1.0083901
1.0065195
1.0053845
1.0088684
1.0102618
1.0019436
1.0062326
1.0169026
1.0089485
0.9966548
1.0057018
1.0222976
1.016004
0.99768913
0.99341562
1.005907
1.0209344
1.0005391
1.0025122
1.0045183
1.0060479
1.0038162
1.0050983
1.0064318
1.0065789
1.0050928
1.0053387
1.0063257
1.0064248
1.0059899
1.0066474
1.0078238
1.0068569
1.0060521
1.008461
1.0086228
1.0046802
1.0066389
1.0125565
1.0099558
1.0011376
1.0062964
1.0156462
1.0151374
1.0039817
0.99944411
1.0026104
1.010068
1.0021288
1.0040302
1.0043376
1.0051184
1.0042749
1.0052174
1.0063656
1.0061143
1.004742
1.0061503
1.0063839
1.0058652
1.0065539
1.0065986
1.0068845
1.0071366
1.0070162
1.0081226
1.0059879
1.0082303
1.0082399
1.0071488
1.0081921
1.00747
1.0093303
1.0083372
1.0068907
1.0096358
1.009303
1.0061395
1.001845
1.0050378
1.0063793
1.0040431
1.0039134
1.0051233
1.005371
1.0054904
1.0051314
1.0056137
1.0059968
1.0062757
1.0056993
1.00695
1.0067493
1.0058478
1.0070147
1.0078024
1.0080408
1.003421
1.0108641
1.0105707
1.0029592
1.0041645
1.012433
1.013538
1.0041212
0.99708692
1.0081904
1.0188479
1.0138756
1.0002255
1.0068996
1.0081281
1.0041445
1.0031265
1.0061291
1.0052661
1.0042061
1.0044941
1.0060807
1.0060497
1.0065287
1.0055961
1.0070924
1.007101
1.0051041
1.0064966
1.0082897
1.0084718
1.00162
1.0113426
1.0131673
1.0011855
1.0005227
1.0130428
1.0178989
1.0041433
0.99163249
1.0017654
1.0212427
1.0208755
1.0038294
0.9907358
0.99624316
1.0050921
1.0128467
1.0164931
1.0142188
1.0065508
1.0016402
1.0050521
1.0158582
1.0244077
1.0229342
1.0084987
0.98774475
0.97702485
0.98461484
1.0067444
1.0279581
1.0316114
1.0161732
0.99742004
0.99091748
0.99680374
1.014632
1.0153082
1.0104602
1.0006696
0.98874223
0.98182669
0.98481848
0.99721029
1.0148623
1.028228
1.029768
1.0184282
1.0025708
0.99443324
0.99918664
1.0123619
1.0218713
1.0158242
0.99605429
0.97697769
0.97628862
0.99502639
1.0223381
1.0304875
1.0222678
1.0105637
0.99899251
0.9940305
0.99675733
1.0038912
1.0102261
1.0101134
1.0024886
0.99005816
0.98354375
0.99059716
1.0102141
1.0327617
1.0434831
1.0344953
1.0089373
0.98086956
0.96959492
0.97974293
1.0032113
1.0254294
0.99432734
0.9925006
0.99831124
1.0118502
1.0275231
1.0373895
1.0393152
1.0269591
1.0049701
0.98115716
0.97009118
0.97515011
0.99313536
1.0128669
1.0257687
1.0229053
1.0082782
0.99522673
0.99452329
1.006819
1.0247923
1.0339344
1.0231755
0.97124692
0.98090628
0.99728949
1.0140827
1.0252954
1.0282337
1.0194743
1.0070157
0.99781584
0.99906271
1.0090271
1.021787
1.0279023
1.0210211
0.99891873
0.97151915
0.9576752
0.96597619
0.99508912
1.0340557
1.0617499
1.0596566
1.028526
1.0143383
1.018716
1.0148361
1.0033939
0.98799222
0.97310754
0.96514129
0.9698232
0.98927144
1.0184287
1.0460439
1.0606783
1.0548947
1.0287506
0.99326558
0.96547716
0.95784881
0.97066073
0.996278
1.0211837
1.0337064
1.0241419
1.0044431
1.0535612
1.0406481
1.0208092
0.99791483
0.97855725
0.96700119
0.96826544
0.98006145
0.99683082
1.0134332
1.021669
1.0210237
1.0107519
1.0006621
0.99789654
1.0055565
1.0187342
1.0312266
1.032715
1.0163153
0.98639762
0.95696851
0.94735096
1.0051907
1.0013706
1.0023674
1.0049879
1.013791
1.0254203
1.0355199
1.0388512
1.0277014
1.0038181
0.97489023
0.95110574
0.94257187
0.95321142
0.98267268
1.0241653
1.0644137
1.084988
1.0736515
1.0329992
0.98339211
0.94388229
0.93050871
0.94847684
0.95420197
0.97318408
1.0048823
1.0413051
1.0707859
1.0815191
1.0682828
1.0388642
1.0033019
0.97179998
0.9488165
0.94326116
0.95319207
0.97823939
1.0112895
1.0380643
1.0501194
1.0403956
1.0229417
1.0038723
0.99002389
0.98487047
0.95624093
0.9730337
0.99388902
1.0111209
1.0197578
1.0221276
1.0200753
1.0168049
1.0134469
1.007757
1.0043056
1.0053066
1.0133511
1.0226711
1.0230087
1.0101541
0.98655645
0.96333469
0.95347713
0.95934898
0.98245818
1.018995
1.0553604
1.0432629
1.0406711
1.0268221
1.0047533
0.97784737
0.95430992
0.93927049
0.93757461
0.95146568
0.98091181
1.0243261
1.0681387
1.0985604
1.0997267
1.0695074
1.0223407
0.97246756
0.93091849
0.90704524
0.908325
0.93887717
0.99330922
1.0602066
1.1109243
1.0840375
1.0406669
0.99552275
0.95844557
0.93257198
0.91879642
0.9187477
0.93386927
0.96677269
1.0130882
1.0624182
1.0996075
1.105613
1.0824931
1.0396475
0.99192068
0.9520946
0.92709006
0.92555762
0.94409334
0.97927004
1.0193881
1.0658881
1.0516061
1.0340274
1.0119501
0.98697321
0.96573267
0.95511481
0.95870017
0.97499873
0.99470474
1.0102885
1.0179939
1.0206058
1.0243197
1.0253772
1.0255866
1.0189767
1.0051543
0.99540727
0.99233719
0.99816206
1.0014931
0.99983415
0.97287062
0.98052417
0.99610335
1.0129257
1.0258739
1.0337472
1.0390137
1.0421921
1.0405699
1.0297914
1.0074221
0.97791961
0.9528781
0.93946596
0.94602207
0.96827462
1.0031898
1.0401535
1.0687564
1.0819985
1.0740078
1.0443308
1.0051226
0.9154416
0.9281256
0.95408004
0.99270072
1.0383767
1.08482
1.1188163
1.1246649
1.0989376
1.0525679
0.99966787
0.95150179
0.9176992
0.89919119
0.90008163
0.92393592
0.96948745
1.0331494
1.09942
1.1421018
1.1373265
1.0895575
1.0235723
0.89679971
0.91047477
0.93890742
0.98197303
1.0393924
1.1001229
1.1458689
1.1552175
1.1222394
1.062676
0.99917963
0.94777011
0.91128143
0.89275288
0.89161459
0.91057315
0.95363328
1.0169544
1.0899789
1.1473104
1.1586209
1.1173916
1.0433457
0.9034749
0.9187941
0.94536114
0.98667126
1.0379613
1.0904337
1.1292219
1.1375234
1.1141261
1.0643171
1.0092008
0.95910386
0.92322221
0.90286117
0.90042082
0.91876795
0.95652676
1.0085999
1.0710118
1.1234716
1.1392731
1.1138461
1.055538
0.91975738
0.93424123
0.95974128
0.99482322
1.0342371
1.0727529
1.1000856
1.1084287
1.0961054
1.0625596
1.0192657
0.9742041
0.94020341
0.9199372
0.91830887
0.93572821
0.96639238
1.0060847
1.0507215
1.0912946
1.1108601
1.0996733
1.056916
0.93255975
0.94774561
0.97406102
1.0049647
1.0342635
1.0583813
1.0751105
1.0822102
1.0775783
1.0580071
1.0267075
0.98775804
0.95373601
0.9342109
0.93313809
0.94836571
0.97518279
1.0073176
1.0384867
1.0679991
1.0872651
1.0828237
1.0543129
0.93907009
0.95453713
0.97986403
1.0086116
1.0346455
1.0534601
1.0662362
1.0723149
1.069203
1.0534504
1.0251162
0.98972047
0.95921923
0.94160876
0.94168748
0.95829685
0.98162507
1.0099342
1.0374748
1.0629412
1.0780372
1.0742408
1.0487814
0.93232038
0.94853941
0.97513847
1.0064948
1.0365047
1.0610761
1.0772819
1.0820262
1.0740564
1.0522592
1.0183878
0.9811071
0.95138551
0.93605648
0.93982308
0.95957526
0.98792314
1.0192735
1.0489767
1.0746982
1.0848113
1.0738324
1.0410262
0.9114591
0.92817869
0.95776502
0.99903974
1.0443337
1.0857803
1.1125932
1.1158759
1.0930203
1.0512406
1.0032792
0.96018103
0.93056253
0.91877336
0.9263625
0.95212488
0.99190795
1.0344741
1.073952
1.1027845
1.1009853
1.0704268
1.0207361
0.88402314
0.90135525
0.93661537
0.98809862
1.0541568
1.1222994
1.1660923
1.1610592
1.1112134
1.0430424
0.98001149
0.93157915
0.90303485
0.8933801
0.90581771
0.94059882
0.99955274
1.0687713
1.1268622
1.1469371
1.115539
1.0551508
0.98630415
0.86767253
0.8887625
0.92874578
0.98998995
1.0708094
1.152692
1.2025095
1.1853783
1.1137521
1.0279972
0.95545243
0.90405672
0.87431454
0.86937373
0.88971645
0.94316206
1.026679
1.1201363
1.186909
1.1745843
1.1042797
1.0138127
0.93900944
0.89700409
0.91713636
0.96034612
1.0179515
1.0776938
1.1342889
1.1650127
1.1480154
1.0883988
1.0139615
0.94128245
0.8888893
0.86164267
0.86663497
0.90421613
0.97955605
1.0780244
1.1674737
1.197793
1.1445964
1.054316
0.96167613
0.89683416
1.0032262
1.001137
1.0143245
1.0298357
1.0367027
1.0409466
1.0470548
1.0512582
1.0389523
1.0030301
0.95206535
0.91087284
0.89930544
0.92506561
0.9798516
1.042821
1.0998028
1.1339478
1.1258973
1.0695965
0.99510109
0.92590814
0.887302
1.1307203
1.0854613
1.0329307
0.99077236
0.95556366
0.93524952
0.93524809
0.95088724
0.9733979
0.99154061
1.0013711
1.0079584
1.0203174
1.0356919
1.0464217
1.0446055
1.0347249
1.0244341
1.0105329
0.99454899
0.96603581
0.94223448
0.94349235
1.1265342
1.0860236
1.0220567
0.96205189
0.91788221
0.89347713
0.88904884
0.90886304
0.95456184
1.0231816
1.0948339
1.1364777
1.1250245
1.0791791
1.0211755
0.96551926
0.92740375
0.91766043
0.92993618
0.96011105
1.0053966
1.0515379
1.0788131
1.0016127
1.0167442
1.0103713
0.98850407
0.95574166
0.93493216
0.93376936
0.95953158
1.0068855
1.0625234
1.1111824
1.126987
1.0937659
1.0286032
0.95874034
0.90593117
0.88235198
0.8930562
0.9403957
1.0202488
1.0981051
1.1446978
1.1295235
0.93872864
0.96086259
0.99402379
1.0228764
1.0427309
1.0455585
1.0386856
1.0311889
1.0241483
1.0168572
1.0106886
1.0086765
0.99839497
0.9803765
0.95604126
0.93995863
0.94593513
0.97583614
1.0203135
1.0615001
1.0792805
1.0642202
1.0377555
0.9806116
0.97735879
0.99387405
1.0219863
1.0507185
1.069852
1.0659948
1.0364541
0.99506908
0.95773077
0.93229466
0.92661966
0.94491228
0.98322987
1.0278798
1.0597588
1.0699017
1.0540901
1.0186447
0.98096204
0.95475308
0.94291637
0.95291082
1.0436317
1.0198402
0.99383559
0.97899154
0.98494872
0.99906091
1.0145581
1.0156352
0.99552735
0.96394508
0.94182732
0.94446692
0.96986322
1.0162809
1.0687842
1.0997994
1.0866169
1.0402287
0.9798352
0.92570448
0.90107913
0.91649027
0.94973127
1.0258168
1.0212786
0.99814674
0.97272628
0.95510231
0.95901028
0.97569578
0.99916499
1.0225356
1.0301966
1.0220498
1.0083834
1.002427
1.0050147
1.0101968
1.012796
1.0087703
0.99843271
0.98696062
0.98475757
0.99130629
0.99531578
0.99546905
0.97889845
0.99458581
1.0082379
1.0111657
0.99985042
0.98789576
0.98529066
0.9966971
1.0194276
1.0413238
1.049504
1.0374893
1.0087825
0.97551855
0.95045881
0.93979369
0.94813113
0.97365277
1.0180821
1.0651414
1.0882467
1.07796
1.0316086
0.98090169
0.98243248
0.99982629
1.0217673
1.0318695
1.0232281
1.0036869
0.98603909
0.97996162
0.9881531
1.0021896
1.0111007
1.0078432
0.99276522
0.97450826
0.96306521
0.96628378
0.984301
1.0072373
1.0267107
1.0379955
1.0419235
1.043809
1.009248
0.9966929
0.9867062
0.99049424
1.004525
1.0159025
1.0118156
0.99530857
0.97595429
0.96379482
0.96353283
0.97749254
1.000167
1.0201898
1.0334548
1.0368789
1.0274217
1.0094065
0.98502086
0.96503112
0.94940667
0.94472792
0.97050604
1.0124256
1.0049427
0.98656209
0.97125333
0.97003883
0.98125166
0.99666839
1.0059773
1.005974
0.99627793
0.9854777
0.98048456
0.98372415
0.99727507
1.0144494
1.0276326
1.0329887
1.0271314
1.0101207
0.99023216
0.97064544
0.95880698
0.97148315
0.98705264
0.99263043
0.99439843
0.98946958
0.97917739
0.97546096
0.98219367
0.99571842
1.0101195
1.0214835
1.0229731
1.014306
1.0022361
0.99118938
0.98424279
0.98181119
0.98150134
0.9835808
0.99022393
0.99901944
1.010317
1.0225107
1.0249431
0.97855349
0.98096946
0.99335127
1.0065962
1.0115865
1.0035201
0.99142662
0.98609615
0.98914597
0.99699607
1.0056872
1.0108727
1.0089726
1.0016627
0.99295625
0.98304255
0.97398203
0.96752399
0.96859502
0.98173163
1.004514
1.0298629
1.0278181
1.0009647
0.99190935
0.98776879
0.9923444
1.0031557
1.0087125
1.0026224
0.99031107
0.98106114
0.97763179
0.97881857
0.98201893
0.98558227
0.99076371
0.99744713
1.0047783
1.0083873
1.0060533
0.99886682
0.99285597
0.99644486
1.0109582
1.0028987
1.012838
1.0021482
0.98847919
0.98082091
0.98180681
0.98811086
0.9933574
0.99453499
0.99361131
0.99351931
0.99410394
0.99303438
0.98888892
0.98506671
0.98673688
0.99641894
1.0103675
1.0187504
1.0163121
1.0060225
0.99645009
0.99535434
0.99202432
1.0011743
0.99903393
0.99416863
0.98971878
0.9885051
0.99023571
0.99276241
0.99422331
0.99563399
1.0003665
1.0083096
1.014626
1.0126687
1.0022627
0.989777
0.98451991
0.98879979
0.99653679
0.99751645
0.98946406
0.98030708
0.97778583
0.98479439
0.99775173
0.99659393
0.99752858
1.0003678
1.0052241
1.0099217
1.0090867
1.0023807
0.99362253
0.98735663
0.98956469
0.99852617
1.0054284
1.0042641
0.99563031
0.98708633
0.98602233
0.99145603
0.99543273
0.99099946
0.9812782
0.97612094
0.98457932
1.0074711
1.0024567
0.99639034
0.99474682
0.99849834
1.0045719
1.0099731
1.0088203
1.0002499
0.98958917
0.98267997
0.98498004
0.99225927
0.99681948
0.99524801
0.99102706
0.99102439
0.99720254
1.0054263
1.0078176
1.0016752
0.99440354
0.99289245
1.0099242
1.0090438
1.0036287
0.99605601
0.99179629
0.99249076
0.99629115
1.001238
1.0031449
1.0007346
0.99802844
0.9991023
1.0034865
1.0072025
1.005741
0.999686
0.99417149
0.99444427
0.99834288
1.0017673
0.99932734
0.99295282
0.98866028
0.99486056
1.0006607
1.0059878
1.0076167
1.0049895
1.0019699
1.0004917
1.0005859
1.0019283
1.0029626
1.0025919
1.0026053
1.0044086
1.0067432
1.0059534
1.0013481
0.99482964
0.99028357
0.99020785
0.99140546
0.99111906
0.9880126
0.98438105
0.99737686
0.99884954
1.0037467
1.0089559
1.0105311
1.0097146
1.0072653
1.0048862
1.0042203
1.0034672
1.0012515
0.99822906
0.99571179
0.99474964
0.9950122
0.99510672
0.9945671
0.99454396
0.99588722
0.99816473
0.99946118
0.99849169
0.99610347
1.0097775
1.0081285
1.0063688
1.004949
1.0029933
1.0003049
0.99767914
0.99709883
0.99886749
1.0020407
1.0044251
1.0043158
1.0023635
1.0002007
0.99924578
0.99998024
1.0013466
1.002743
1.0033554
1.0033404
1.0018904
0.99937166
0.99609321
1.0036773
1.0038229
1.0036863
1.0036106
1.0031478
1.0025234
1.0012959
1.0007076
1.0017123
1.0042234
1.0068502
1.0079818
1.0067959
1.0044392
1.0024912
1.0020755
1.0027181
1.0028352
1.0016636
0.99895224
0.99511738
0.99151442
0.98886761
1.0044275
1.0031793
1.0023823
1.0030171
1.0049315
1.0071231
1.0085575
1.0085866
1.0076211
1.006415
1.0048276
1.0029125
1.000774
0.99838378
0.99742214
0.99795683
0.99955464
1.0008377
1.0008502
0.99939302
0.99770177
0.99676785
0.99678732
1.0082901
1.0071064
1.0047631
1.0028469
1.0021838
1.0027141
1.0035811
1.0038383
1.0036422
1.0026567
1.0019254
1.001581
1.0016767
1.0022853
1.0034714
1.0049083
1.0063131
1.0065676
1.0047822
1.0019139
0.9992392
0.99867021
0.99994206
1.0025125
1.003164
1.0037349
1.0043269
1.0050828
1.0056836
1.0065116
1.0061528
1.0051851
1.0043501
1.0034468
1.0039217
1.0045459
1.0053701
1.005384
1.0051155
1.0042689
1.0035197
1.001822
0.99981675
0.99810538
0.99758154
0.9987864
1.0054401
1.0053938
1.005318
1.0050676
1.0051466
1.0051625
1.0051776
1.0051313
1.0040355
1.0033305
1.0028812
1.0036937
1.0049185
1.0061055
1.0057156
1.0040867
1.0018532
1.0004697
1.0002494
1.0013092
1.0025476
1.0038265
1.0046112
1.0043718
1.0048829
1.0051848
1.0050493
1.0043417
1.0039928
1.0040657
1.0046622
1.005013
1.0051245
1.0047974
1.00458
1.0048108
1.0050641
1.0053556
1.0045099
1.0035418
1.0025287
1.0027915
1.0039253
1.0050304
1.0052654
1.0041469
1.0039119
1.0044472
1.0053493
1.0059991
1.0058363
1.0050049
1.0043211
1.0041613
1.0048219
1.0055369
1.0060415
1.0056258
1.0049437
1.0039832
1.003656
1.0036114
1.0037553
1.0039075
1.0044911
1.0050998
1.005534
1.004625
1.0028122
1.0051909
1.0048725
1.0048919
1.0051134
1.0053936
1.0052938
1.0048818
1.0042446
1.0042874
1.004554
1.0052853
1.0052341
1.0051234
1.0045285
1.0043461
1.0047266
1.0051647
1.0054049
1.0050733
1.0045362
1.0038684
1.0031552
1.0024903
1.0060623
1.005433
1.0045229
1.0039833
1.0038484
1.0042508
1.0049676
1.0053482
1.0053906
1.0055539
1.0055568
1.0054941
1.004969
1.004625
1.0042595
1.004528
1.0049723
1.0054345
1.0052417
1.0045622
1.0037352
1.0033895
1.0036328
1.0045235
1.0046074
1.0046294
1.0046304
1.0048687
1.0053136
1.0057119
1.0057994
1.005434
1.0047407
1.0043226
1.0042786
1.0046726
1.0049185
1.0052676
1.0053519
1.0054819
1.0053641
1.0051831
1.0046496
1.0040765
1.0038848
1.0043434
1.0048588
1.0049311
1.0049878
1.0049991
1.0050736
1.0049905
1.0050464
1.0049953
1.0047221
1.0045796
1.0043709
1.0047273
1.0053405
1.0059352
1.0060087
1.0056023
1.0048629
1.0043483
1.0041972
1.0045031
1.0047471
1.0050088
1.0052816
1.0048462
1.0048091
1.0050059
1.0050603
1.004967
1.0048345
1.0045174
1.0046323
1.004874
1.0051489
1.0054569
1.0052881
1.0054418
1.0050618
1.0050206
1.0046236
1.0045296
1.0044645
1.004876
1.0054085
1.0058523
1.0057153
1.005134
1.0047695
1.0046639
1.0048815
1.0050711
1.0051521
1.0050653
1.0047767
1.0046689
1.0048406
1.0050043
1.0052309
1.0051631
1.005
1.0047838
1.004651
1.0047278
1.0050619
1.0054522
1.0055852
1.0053702
1.0050173
1.0046931
1.004417
1.0048265
1.0048736
1.0047692
1.0046709
1.0047761
1.0047348
1.0048135
1.0049848
1.0047994
1.0051164
1.0049244
1.0051029
1.0049713
1.0049825
1.0049107
1.0050652
1.0053178
1.0053482
1.0052138
1.0048958
1.0046005
1.0044714
1.0046495
1.0050993
1.00474
1.0049742
1.0046922
1.0047894
1.0049267
1.0050246
1.0051465
1.0049557
1.0047897
1.0048522
1.0048528
1.0051597
1.0052172
1.0051191
1.005006
1.0050455
1.005216
1.0051125
1.0048623
1.0046167
1.0047722
1.0051587
1.0045141
1.0049613
1.005077
1.0050154
1.0049043
1.0045964
1.0049479
1.0049997
1.0050586
1.0050369
1.0049271
1.0049117
1.0047262
1.0048852
1.0052199
1.0054855
1.0050939
1.0046854
1.0045901
1.0050231
1.005261
1.005071
1.0048533
1.0043843
1.0048165
1.0051819
1.0050147
1.0048868
1.0046139
1.004971
1.0050041
1.0049619
1.004605
1.0046937
1.0051368
1.0052978
1.0049916
1.0046249
1.0046931
1.0049584
1.0051091
1.0049483
1.0049427
1.0049675
1.004888
1.0047503
1.0051563
1.0049518
1.0049737
1.0048817
1.0049462
1.0047388
1.0046632
1.0047822
1.0048807
1.0049036
1.0048908
1.0049314
1.0048392
1.0046293
1.0045156
1.0047383
1.0050633
1.0050613
1.0047456
1.0046028
1.0047762
1.0049161
1.00467
1.0042371
1.0044026
1.0046691
1.0046546
1.0043857
1.0042675
1.0045584
1.0050367
1.0049023
1.004403
1.0041668
1.0045944
1.0050189
1.004839
1.0043928
1.0043886
1.0047657
1.0048344
1.004543
1.0043432
1.0045605
1.0047283
1.0044469
1.0038455
1.0045051
1.0049972
1.00474
1.0040257
1.0037467
1.0043058
1.0050125
1.0049175
1.0041726
1.0037729
1.0043738
1.0051312
1.0049295
1.0040514
1.0038219
1.0044867
1.0048831
1.0044425
1.003952
1.004227
1.0046877
1.0045026
1.0034635
1.0041582
1.004788
1.0045257
1.0037683
1.0035432
1.0040131
1.0046796
1.0048206
1.0041791
1.0035936
1.0039184
1.0047055
1.0047642
1.0039788
1.0035738
1.0041198
1.0047315
1.0044012
1.0036772
1.0037496
1.0044155
1.004585
1.0029448
1.0040623
1.004829
1.0043195
1.0033621
1.0031603
1.0038381
1.0046535
1.0046681
1.0038465
1.0032105
1.0035678
1.0043683
1.0045276
1.0038709
1.0033662
1.0037758
1.0044233
1.0042795
1.0035164
1.0032567
1.0038891
1.0043811
1.0028265
1.0038584
1.0043951
1.0039608
1.0032276
1.0030225
1.0036095
1.0043204
1.0042825
1.0035585
1.003048
1.0033253
1.0040038
1.004235
1.0036935
1.0031751
1.0034176
1.0039612
1.0040361
1.0033969
1.0030507
1.0033159
1.0037711
1.0028999
1.0035757
1.0039586
1.0037104
1.0031918
1.0030524
1.0034289
1.0038098
1.0037806
1.0034007
1.0030651
1.0031678
1.0036559
1.0038993
1.0034866
1.0029869
1.0030792
1.0034879
1.0035225
1.0032671
1.0029899
1.0030391
1.0033417
1.0029029
1.0034756
1.0038073
1.0035441
1.003024
1.0028185
1.0031181
1.0036162
1.0037306
1.0033014
1.0028673
1.0028431
1.0032777
1.0037226
1.0034195
1.0027829
1.0025662
1.0029723
1.003404
1.0031642
1.0027955
1.0027161
1.0028914
1.0033527
1.0033529
1.0032159
1.0030927
1.0030908
1.0031024
1.0031826
1.0032408
1.0031748
1.0031573
1.0030825
1.0028944
1.0029943
1.0032794
1.0031389
1.0026635
1.0024124
1.0027249
1.0032877
1.0032648
1.0025151
1.0021296
1.0024384
1.0035543
1.0032596
1.0030387
1.0030048
1.0031136
1.0031512
1.0029805
1.0029849
1.003192
1.0032638
1.0031869
1.0028993
1.0025456
1.0027375
1.0032092
1.0031461
1.0025953
1.0022167
1.0025443
1.0028221
1.0026636
1.0021414
1.0018991
1.0038343
1.0032583
1.0028595
1.0028253
1.0030342
1.0032914
1.0033621
1.0032605
1.0030866
1.002956
1.0029183
1.0028246
1.002772
1.002855
1.0030825
1.0030953
1.0025881
1.0019749
1.0020612
1.0026326
1.0029543
1.002349
1.0015701
1.0041682
1.0033035
1.0027653
1.0028482
1.0032557
1.0034446
1.0033537
1.0032217
1.0030946
1.0029896
1.0030159
1.0030859
1.0029964
1.0028609
1.0027624
1.0027029
1.0026315
1.0025057
1.0023642
1.0023236
1.0022967
1.0021523
1.002007
1.0038773
1.003466
1.0033067
1.0032754
1.0035412
1.0034989
1.0033713
1.0034887
1.0033971
1.0031455
1.0032105
1.0030516
1.0026551
1.0027823
1.0030216
1.0030229
1.0028354
1.0026943
1.0022577
1.0023663
1.0020946
1.0018175
1.001916
1.0044291
1.0039566
1.0032417
1.0031832
1.0037418
1.0039528
1.0041193
1.003961
1.0029913
1.0027105
1.003413
1.0036791
1.0034018
1.0028942
1.0024321
1.0028797
1.0034916
1.0033458
1.0022626
1.0017285
1.0017484
1.0026465
1.0027395
1.0044174
1.0041576
1.0039139
1.0037829
1.0039383
1.0042622
1.0044342
1.0040228
1.0031814
1.0029736
1.0034688
1.003732
1.0037651
1.0037631
1.0032982
1.0029853
1.0024707
1.0029485
1.00327
1.0028949
1.0018318
1.0015107
1.0023572
1.0051445
1.0044519
1.0036159
1.0036239
1.0047078
1.0051254
1.0045581
1.0040627
1.0031706
1.0030912
1.0042882
1.0046999
1.0039744
1.0030943
1.0030961
1.0033689
1.0039661
1.0034512
1.0021509
1.0024733
1.0029656
1.0029873
1.0025097
1.0048022
1.0045942
1.0044541
1.0045043
1.0049368
1.005176
1.0046798
1.0041691
1.0039563
1.0039608
1.0039774
1.0040923
1.0040534
1.0042319
1.0044012
1.0035615
1.0027518
1.0032325
1.0036037
1.0037075
1.002585
1.0020842
1.002698
1.0053953
1.0050483
1.0042943
1.0043902
1.0048638
1.0053063
1.0056887
1.0047434
1.0035478
1.0038607
1.0043199
1.0049411
1.0050389
1.0037872
1.0033591
1.0041637
1.0043936
1.003917
1.0028556
1.0028617
1.0034423
1.0034201
1.0031121
1.0050532
1.0050225
1.0048362
1.0049261
1.0053067
1.0053928
1.0050463
1.0044442
1.0044284
1.0050533
1.004697
1.0039381
1.0040373
1.0047433
1.0052698
1.0043938
1.0030892
1.003059
1.0037056
1.0044147
1.00408
1.0029205
1.0028718
1.0047539
1.0056774
1.005707
1.0045974
1.0040373
1.0048125
1.005944
1.0059821
1.004415
1.0034832
1.0042313
1.0051441
1.0053438
1.004465
1.0039395
1.0043903
1.0043171
1.0038587
1.0034469
1.003857
1.0045277
1.0034415
1.0021691
1.0054812
1.0050562
1.0049257
1.0048317
1.0046341
1.0045463
1.0049327
1.0054905
1.0053104
1.0044748
1.004156
1.004385
1.0045565
1.0046089
1.0048258
1.0046891
1.0041093
1.0034461
1.0036797
1.0043797
1.0043374
1.003004
1.0025714
1.0047567
1.0053491
1.0053663
1.0044506
1.0035729
1.0039512
1.0053009
1.0061636
1.0054611
1.0038051
1.0030167
1.0040718
1.0054494
1.0054437
1.004036
1.0033357
1.0041603
1.0051137
1.0043336
1.0026922
1.0027846
1.0040649
1.0049707
1.0052544
1.0042521
1.0039272
1.0043082
1.0047062
1.004555
1.0042141
1.0041917
1.0045697
1.0047785
1.0044799
1.0040006
1.0038303
1.0040413
1.0042484
1.0042718
1.0042155
1.0042981
1.0040106
1.0030962
1.0026234
1.003783
1.0049965
1.0041482
1.0041079
1.003915
1.0040789
1.0044478
1.0044318
1.0039195
1.0035305
1.0037801
1.0043993
1.004496
1.0038874
1.0033039
1.0035991
1.0043107
1.0044024
1.0037827
1.0032155
1.0034184
1.0039213
1.0037435
1.0030481
1.0028965
1.0033724
1.0037546
1.0041483
1.0041817
1.0039615
1.0036845
1.0034072
1.003206
1.0032352
1.0035754
1.0040125
1.0041128
1.003721
1.0033396
1.0034141
1.0036825
1.0035344
1.0029459
1.002761
1.0035004
1.0042524
1.0037923
1.0026769
1.0037186
1.0035669
1.0033992
1.0031185
1.0028769
1.0028666
1.00315
1.00349
1.0036092
1.0034384
1.0032279
1.003228
1.0033304
1.0031698
1.0028059
1.0026975
1.0030355
1.0035227
1.0035948
1.0031394
1.0028005
1.0028973
1.0029227
1.0033899
1.0031059
1.0027733
1.0026134
1.0026852
1.0029239
1.0032126
1.0033841
1.0033053
1.0029901
1.0026083
1.002443
1.0026238
1.0029554
1.0030999
1.0029903
1.0028722
1.0029326
1.0029468
1.0026803
1.0023491
1.0024471
1.0028587
1.0027002
1.0027666
1.0028778
1.0029125
1.0029407
1.0029273
1.0028743
1.0027945
1.0027165
1.0026661
1.0026165
1.0025641
1.002579
1.0027089
1.002868
1.0028783
1.0026572
1.0023854
1.0023002
1.0024333
1.0025647
1.0026038
1.0026256
1.0025407
1.002733
1.0029012
1.0030081
1.0029919
1.002829
1.0026502
1.0025595
1.0025686
1.0026754
1.0027699
1.0027872
1.0027203
1.0026142
1.0025126
1.0024534
1.0024073
1.002376
1.0024018
1.0025043
1.002592
1.002582
1.0024704
1.0028697
1.0028402
1.002837
1.0028686
1.0028424
1.002782