/*--------------------------------*- C++ -*----------------------------------*\
| =========                 |                                                 |
| \\      /  F ield         | OpenFOAM: The Open Source CFD Toolbox           |
|  \\    /   O peration     | Version:  2406                                  |
|   \\  /    A nd           | Website:  www.openfoam.com                      |
|    \\/     M anipulation  |                                                 |
\*---------------------------------------------------------------------------*/
FoamFile
{
    version     2.0;
    format      ascii;
    arch        "LSB;label=32;scalar=64";
    class       volVectorField;
    location    "190";
    object      U_0;
}
// * * * * * * * * * * * * * * * * * * * * * * * * * * * * * * * * * * * * * //

dimensions      [0 1 -1 0 0 0 0];

internalField   nonuniform List<vector> 
20580
(
(0.088948715 -0.00020897307 5.6261988e-22)
(0.090938679 0.00028663283 8.8521999e-20)
(0.098355228 -0.00023890134 -3.045844e-22)
(0.097670725 0.00065418885 1.1062465e-20)
(0.097551094 0.00063556312 4.7311918e-23)
(0.097957515 0.0011015058 6.0847182e-21)
(0.097760784 0.00080510288 9.9574151e-20)
(0.097278645 0.0015921069 3.9197338e-22)
(0.097714009 0.00036979664 4.0777186e-21)
(0.096635846 0.0010195324 0)
(0.096422125 0.00075968615 -3.9218273e-21)
(0.09606167 -0.00023190417 -4.6962619e-22)
(0.095271255 0.00082897631 5.0140873e-21)
(0.094838964 0.00017075403 4.0029309e-21)
(0.094584535 -0.0015713216 -3.1014279e-21)
(0.093539156 -0.00072441195 -2.1506185e-20)
(0.093171534 -0.0013700274 6.917912e-20)
(0.094215825 -0.0067470007 -2.2989831e-23)
(0.092236328 -0.0035460643 -6.3659199e-20)
(0.091840017 -0.0047081268 -9.3373328e-21)
(0.094657994 -0.012109715 3.433062e-22)
(0.093848921 -0.011731715 -2.5764062e-21)
(0.092481754 -0.011861584 -1.5339873e-20)
(0.096517851 -0.019388413 1.0053005e-19)
(0.10051924 -0.026626375 1.3856151e-21)
(0.097524455 -0.026979385 7.3294773e-20)
(0.097267809 -0.02328922 5.6419789e-20)
(0.10054067 -0.024744558 -2.8965179e-21)
(0.09854272 -0.035548215 -3.6236871e-20)
(0.10051573 -0.045133293 6.8693523e-20)
(0.11647614 -0.04811535 4.0491705e-20)
(0.088813557 -0.0020568399 0)
(0.090314266 0.00011902695 -5.7668381e-20)
(0.096983371 0.00074245027 1.1220795e-20)
(0.096951157 0.00084316394 -2.7366155e-20)
(0.097084814 0.00076238371 -1.4956858e-20)
(0.097333529 0.0016289748 -1.5500292e-22)
(0.097495356 0.0011110545 -2.2266839e-20)
(0.097728179 0.00056802311 -1.6890611e-20)
(0.097431396 0.00089677682 -2.1382592e-21)
(0.096766414 0.00082800986 -7.6975766e-21)
(0.096508583 0.00066332936 -2.6720203e-21)
(0.095980104 -4.3536027e-06 -1.8878915e-22)
(0.095239309 0.0007069925 2.1412833e-21)
(0.095142842 2.9353724e-05 8.2565236e-23)
(0.094689192 -0.0012568284 1.1406123e-20)
(0.093565754 -0.00060263455 1.2121834e-22)
(0.094259374 -0.0019340828 -2.5722112e-20)
(0.094282008 -0.0056484719 1.6380713e-20)
(0.091907925 -0.0026276678 0)
(0.093673254 -0.0059859919 -6.2713847e-20)
(0.095410507 -0.011575043 0)
(0.093350996 -0.009764822 5.4928599e-20)
(0.093555703 -0.011254336 2.8756386e-20)
(0.097868141 -0.017933184 -8.5563988e-22)
(0.099936531 -0.021450316 3.6689937e-20)
(0.095442002 -0.021594329 -2.1237812e-20)
(0.096646184 -0.021322499 3.4164684e-20)
(0.105034 -0.024582796 2.1807193e-20)
(0.1059844 -0.035191054 1.061438e-19)
(0.10171744 -0.043800462 4.5266408e-21)
(0.10994453 -0.042481333 -1.5482165e-19)
(0.088699783 -0.0037929765 0)
(0.08969983 0.0001931704 0)
(0.095914366 0.001957062 2.4223358e-20)
(0.096009273 0.0010460932 2.631786e-19)
(0.096195733 0.0011187594 -6.2817328e-20)
(0.09666229 0.0019018516 -1.0893328e-22)
(0.097131928 0.0014564548 1.0630116e-19)
(0.09741441 -0.00029609828 -1.3252111e-20)
(0.097051201 0.0013217705 0)
(0.096658479 0.00072408788 -5.4984654e-21)
(0.096491794 0.00030613076 -7.0538404e-22)
(0.095874241 0.00037061641 -7.3047475e-21)
(0.095251264 0.0002941216 0)
(0.095322587 -0.00041528171 -1.6940771e-22)
(0.094753688 -0.00091256173 3.823104e-21)
(0.093699396 -0.00094102222 1.3083029e-21)
(0.094802844 -0.0027113271 -2.2394179e-21)
(0.094223658 -0.004210094 3.5566244e-21)
(0.092091899 -0.0024117208 -8.0536063e-21)
(0.094816871 -0.0071420594 0)
(0.09553435 -0.010231681 0)
(0.093103589 -0.007996944 -5.8630568e-20)
(0.094405364 -0.011030157 -8.2384078e-21)
(0.098095365 -0.016348858 2.2821631e-20)
(0.099245821 -0.016034166 1.5480892e-20)
(0.094819688 -0.016630104 -1.2834455e-20)
(0.095523897 -0.021098702 1.0053276e-20)
(0.10656425 -0.025682859 2.2554868e-20)
(0.11219737 -0.032974088 -4.8368085e-20)
(0.10473628 -0.041231107 -2.6556905e-20)
(0.10136348 -0.040339309 2.2674915e-20)
(0.088369446 -0.0041289981 0)
(0.088684925 0.00023909334 -1.409704e-22)
(0.094836387 0.0023237313 8.2444965e-22)
(0.094789115 0.0010044372 3.1806876e-21)
(0.094866716 0.0013344946 -1.5116982e-19)
(0.095542999 0.0014073197 -3.6383073e-21)
(0.096316226 0.0013955048 1.2833263e-19)
(0.096636707 -0.00056686972 0)
(0.096316366 0.0013608315 1.7856869e-22)
(0.09622114 0.000619441 -9.6892644e-21)
(0.096104081 -3.9990576e-05 -1.3902448e-20)
(0.09554509 0.00076578229 -8.3347044e-21)
(0.095151133 -3.9502396e-05 1.2825968e-22)
(0.095260193 -0.00099399977 6.4027165e-21)
(0.094667658 -0.0006285066 -4.1304999e-21)
(0.093917493 -0.0012901857 8.1069108e-22)
(0.095080184 -0.0034817855 -2.4785132e-21)
(0.094051443 -0.0026943097 5.7355551e-23)
(0.092660032 -0.0024344658 -6.4574884e-22)
(0.09573073 -0.008064866 -5.0477568e-21)
(0.095259713 -0.0083681251 -8.3445532e-21)
(0.093132936 -0.0064382788 -2.4397717e-20)
(0.095275412 -0.011285855 -5.5101283e-21)
(0.097624661 -0.015559935 6.009817e-20)
(0.098454461 -0.011833122 0)
(0.095819291 -0.012802688 -9.5590535e-21)
(0.095595235 -0.021990739 -3.9847479e-20)
(0.10566279 -0.027620125 -7.7231826e-21)
(0.11441861 -0.029386637 -2.7644635e-20)
(0.10865367 -0.034734689 -4.4568825e-20)
(0.097622571 -0.038687585 3.3280701e-21)
(0.088491192 -0.0031842019 0)
(0.087978324 0.00071069729 -1.5001508e-19)
(0.093923516 0.0019411019 -5.1373022e-20)
(0.093578988 0.0008447894 -1.9215433e-19)
(0.093410147 0.0014154876 -5.9582472e-22)
(0.094078132 0.00049400841 -3.8418695e-20)
(0.094917839 0.00092793511 0)
(0.095293332 2.0197406e-05 -1.0912649e-20)
(0.095195715 0.00098110726 3.6977587e-21)
(0.095361949 0.00036928421 -1.258849e-20)
(0.095193537 -9.8376411e-05 -2.3616968e-21)
(0.094833216 0.00092210201 7.7861709e-23)
(0.094787902 -0.00012613421 1.5373642e-20)
(0.094822661 -0.0013308416 6.1318199e-21)
(0.094323198 -0.00034645302 -1.511734e-21)
(0.094026393 -0.0014349749 2.280254e-20)
(0.094958118 -0.0039103839 1.653757e-20)
(0.093778662 -0.0013374191 -5.6582451e-20)
(0.093513257 -0.0027698592 -7.2000387e-20)
(0.09634822 -0.0084661838 0)
(0.094768653 -0.0063993602 -8.6513766e-21)
(0.093662339 -0.0052733188 1.7983658e-21)
(0.096721593 -0.011426301 4.7781825e-20)
(0.09701511 -0.015567899 3.5133542e-21)
(0.097157364 -0.010598863 0)
(0.098399853 -0.010551423 8.5946216e-20)
(0.098112555 -0.022014912 -6.6446247e-20)
(0.10333595 -0.029320903 -5.5362023e-20)
(0.11260841 -0.025949154 9.1163019e-20)
(0.1120746 -0.025143324 3.8838398e-20)
(0.10172465 -0.032466849 7.7990337e-20)
(0.089671186 -0.00084056688 1.8906388e-19)
(0.087224643 0.0012381005 -9.1734212e-22)
(0.093061221 0.00081248947 2.6907585e-23)
(0.092503093 0.00058136926 9.8309487e-21)
(0.092076772 0.0011219171 4.1129461e-20)
(0.092476381 -0.00029500264 -1.7643531e-22)
(0.093130023 0.00028661696 1.0812173e-20)
(0.093497576 0.0010433964 4.8661439e-23)
(0.093640005 0.00048408616 4.8698905e-21)
(0.093992699 6.3963999e-05 -4.5553053e-20)
(0.093799058 0.00016485757 1.3671454e-20)
(0.093708274 0.00066833795 3.9935693e-21)
(0.094018949 -0.00020027754 1.6956547e-20)
(0.093968381 -0.0012489258 1.4071561e-20)
(0.093645837 -0.0001163617 -4.6743123e-21)
(0.093923424 -0.0013707711 -7.1844604e-22)
(0.094392216 -0.0038343751 1.8682125e-20)
(0.093346139 -0.00040379662 -5.0487711e-20)
(0.094480856 -0.0033688319 -3.5217929e-21)
(0.096581083 -0.008062556 0)
(0.094195643 -0.0046602849 -7.794841e-21)
(0.094607312 -0.0050673775 -6.2152636e-20)
(0.098794684 -0.011285631 -7.5138188e-20)
(0.097019696 -0.01514189 0)
(0.095971307 -0.011695133 -8.0916533e-20)
(0.1009852 -0.01118042 -4.3965566e-20)
(0.10243077 -0.021648069 7.2630639e-20)
(0.10151181 -0.02943962 -7.1550744e-20)
(0.10712741 -0.023236709 -9.5831659e-20)
(0.11246011 -0.015950596 -3.8307418e-20)
(0.11045913 -0.022509396 1.3618345e-19)
(0.092442429 0.0018180099 -1.0814213e-21)
(0.086360328 0.0017670113 -6.6116966e-20)
(0.092212506 -0.00047297143 1.9090822e-22)
(0.091465407 0.00034464942 2.3033494e-19)
(0.090927051 0.00055000043 -2.7934992e-20)
(0.091081732 -0.00041097802 3.3032087e-20)
(0.091398058 -6.9969202e-05 -7.6399527e-20)
(0.091647569 0.0018653117 4.8098491e-24)
(0.09196635 0.00016302782 -2.2530373e-23)
(0.092224775 -4.7524551e-05 3.038554e-20)
(0.092079682 0.00038324309 -3.2067821e-22)
(0.092234012 0.00030272037 2.7854074e-22)
(0.092767455 -0.00032081635 -1.4612333e-20)
(0.092650371 -0.00080373296 -3.3550392e-23)
(0.092590668 -0.00013406634 7.83038e-21)
(0.093483096 -0.0012899861 -2.0604033e-22)
(0.093474749 -0.0032459881 -4.8725884e-22)
(0.092771906 -0.00031805526 6.5306778e-20)
(0.095011334 -0.0041244611 0)
(0.096264333 -0.0068979285 2.7316759e-20)
(0.093664499 -0.0031832173 5.6550819e-21)
(0.095562243 -0.0058736524 -4.9325439e-20)
(0.10041813 -0.010906374 1.382424e-21)
(0.097516881 -0.013174208 -2.1379806e-20)
(0.094979322 -0.013271582 -2.8347334e-20)
(0.1023636 -0.013383641 -1.0489145e-20)
(0.10725785 -0.019865977 -3.446323e-20)
(0.10237386 -0.027117726 4.4911914e-21)
(0.1009849 -0.023429075 -3.0119604e-19)
(0.10873847 -0.013011139 1.5977107e-19)
(0.11734135 -0.014528043 -3.2432168e-21)
(0.095439155 0.0038078603 5.2452428e-19)
(0.086532028 0.0020753769 0)
(0.092091695 -0.0014668897 -3.9495725e-20)
(0.091015756 5.6059263e-05 -2.1141449e-19)
(0.090403447 1.8280227e-05 1.3058292e-19)
(0.090242958 0.00023445185 -8.662512e-23)
(0.090145574 6.1107033e-05 -4.5292768e-20)
(0.090321151 0.0018689919 -1.2436363e-22)
(0.090622846 9.1759639e-05 7.7354049e-21)
(0.090560387 7.1939389e-05 5.1855065e-20)
(0.0903851 0.00031557905 -2.41192e-20)
(0.090607912 0.00010547465 4.1675368e-22)
(0.091172948 -0.00046588201 -1.9750787e-21)
(0.091012612 -0.00017971239 9.3116322e-21)
(0.09117941 -0.00041370214 -1.3192219e-20)
(0.092435385 -0.0011610226 8.1737494e-21)
(0.092163027 -0.00213529 -9.2018996e-21)
(0.092025024 -0.00070932511 -3.1757107e-21)
(0.094907798 -0.0048013976 -3.4275188e-22)
(0.09534863 -0.0053321067 -1.2215485e-21)
(0.093279487 -0.002306304 -2.3720817e-21)
(0.096075608 -0.0072877851 -7.5090167e-22)
(0.10089333 -0.010265998 0)
(0.09844371 -0.0096559192 -1.1529339e-20)
(0.095104099 -0.012985266 -1.5401721e-20)
(0.10210518 -0.015818462 -1.0553299e-19)
(0.10947444 -0.017096265 -2.709413e-21)
(0.10450614 -0.020735374 -1.1373062e-19)
(0.097684525 -0.022626043 4.625498e-20)
(0.1032574 -0.017246032 -2.6886343e-19)
(0.11762596 -0.015109979 -3.9049988e-20)
(0.099033631 0.0042231175 -2.9624356e-19)
(0.087789515 0.0020153579 -5.6284053e-24)
(0.092697029 -0.0016246167 -1.7322482e-21)
(0.091360268 -3.3931402e-05 -1.7847555e-19)
(0.090612905 -0.0002454231 1.1965956e-21)
(0.090215808 0.0013287252 -6.9600165e-23)
(0.08987237 0.00067417152 2.7019879e-20)
(0.089884142 0.0010214943 -1.3923167e-23)
(0.089898976 0.00014181054 1.3055892e-20)
(0.089439844 0.00023142164 1.3400227e-20)
(0.08907097 0.00015969507 -1.4396959e-21)
(0.089164976 -4.239343e-05 0)
(0.089535868 -0.00062176039 2.7692174e-22)
(0.089349564 0.00027163902 -1.5341147e-21)
(0.089607318 -0.00085469096 4.2854488e-21)
(0.090817132 -0.0011695592 1.4198214e-20)
(0.090445463 -0.00087169545 5.4361497e-21)
(0.090929595 -0.0012093449 3.8846142e-20)
(0.093949186 -0.0051853763 7.1423439e-21)
(0.09383075 -0.0034309613 -5.8848706e-20)
(0.093097536 -0.0017933479 3.4661875e-20)
(0.096323268 -0.0087488413 1.7173698e-21)
(0.10013062 -0.0096967375 1.7757162e-21)
(0.099178939 -0.0057597107 -8.4420164e-21)
(0.096564307 -0.010911109 -1.9543834e-21)
(0.10122544 -0.017577994 2.7229106e-20)
(0.10890646 -0.015026844 -9.950315e-20)
(0.10715103 -0.012822102 -3.6987575e-20)
(0.098857817 -0.017562097 -1.2341705e-19)
(0.099051192 -0.022581141 1.077647e-19)
(0.11201219 -0.022477048 -1.0664161e-19)
(0.10434399 0.0028703012 -7.7704967e-19)
(0.091111472 0.0015171257 -1.817015e-22)
(0.094947368 -0.00090250235 -3.7419924e-20)
(0.093186679 9.4821733e-05 1.0387838e-19)
(0.091921558 -0.00010487982 -8.63561e-22)
(0.091140478 0.0021616392 0)
(0.090519682 0.0013898314 -2.7916721e-20)
(0.090136821 -5.4820984e-05 -1.3436043e-20)
(0.08980958 0.00021221972 -2.5520076e-22)
(0.08894951 7.8769966e-05 3.1746752e-20)
(0.088039583 0.000176433 -3.1007928e-23)
(0.087876117 -0.00028332828 -8.0961405e-23)
(0.087915866 -0.00054506848 0)
(0.087714308 0.00044980529 7.0249989e-21)
(0.087987771 -0.001221892 -1.1695403e-20)
(0.088881941 -0.0014135617 -2.3590872e-22)
(0.088547376 5.6436848e-05 -1.2142707e-20)
(0.08959692 -0.001829965 6.2733326e-20)
(0.092122417 -0.0050967957 -2.0499787e-20)
(0.091550815 -0.0017745878 -6.7717074e-20)
(0.092800012 -0.0013649282 4.9142239e-20)
(0.096340746 -0.0092699055 5.5286574e-20)
(0.098155943 -0.0091445468 -1.2482467e-19)
(0.098943674 -0.0022921186 -5.9960934e-20)
(0.099156649 -0.007590508 -1.8456046e-19)
(0.10095335 -0.017218049 5.2841923e-21)
(0.10603216 -0.013773885 1.1358631e-21)
(0.108375 -0.0066655304 3.1179587e-20)
(0.10454808 -0.010539537 -1.3414096e-19)
(0.10105491 -0.023446497 -1.4369769e-19)
(0.10611333 -0.029940215 1.8063483e-19)
(0.10993526 0.00033861983 3.3753153e-20)
(0.096774361 0.00066544999 -2.8936986e-22)
(0.099647574 0.00042443907 -1.2288224e-20)
(0.097810733 0.00042369417 1.9036408e-22)
(0.095605959 0.00047135999 8.6994431e-23)
(0.094059109 0.002103702 -9.9858475e-20)
(0.092756183 0.0017104024 -4.6089788e-20)
(0.091312962 -0.00067577824 -4.3056229e-23)
(0.090297682 0.00024735553 1.6861273e-20)
(0.089130042 -0.00031150477 -2.2118417e-20)
(0.087906029 0.0003180848 -1.3110115e-20)
(0.087273128 -0.00048338121 7.053509e-21)
(0.086821575 -0.000262815 0)
(0.086607023 0.00035292023 -7.9462057e-23)
(0.08672911 -0.001411704 -3.9565494e-20)
(0.087024012 -0.0016306798 3.0500891e-22)
(0.086833583 0.00053878432 3.9020703e-22)
(0.088339526 -0.0022600879 2.2829583e-22)
(0.089859701 -0.0041823461 -3.0328585e-21)
(0.088925181 -0.00063316755 6.0498566e-22)
(0.092183347 -0.0015173718 -4.8141801e-20)
(0.095963694 -0.0084833732 6.1912904e-20)
(0.095249876 -0.008321481 -4.6210356e-21)
(0.097363798 -0.0011976358 -1.5496319e-20)
(0.10189717 -0.0051420856 -4.8508239e-20)
(0.1019652 -0.014970549 -1.1067161e-20)
(0.10207706 -0.013927524 1.3562888e-19)
(0.10620114 -0.0046906483 -1.2753607e-19)
(0.11029597 -0.0052913612 -3.4672125e-21)
(0.10923041 -0.018752502 2.2576966e-19)
(0.10646591 -0.031171962 9.2475262e-21)
(0.10870001 -0.0023517626 -2.8551331e-19)
(0.1014291 -6.6360742e-05 0)
(0.10472381 0.0017613853 4.3039833e-21)
(0.10306091 0.0008589713 2.9494531e-19)
(0.10103591 0.0012380162 1.1976442e-19)
(0.099118722 0.0011162119 -6.4709956e-21)
(0.09708494 0.0013866413 -1.308527e-22)
(0.094424088 -0.00051689541 -1.1057462e-23)
(0.092085345 0.00028993056 -1.977578e-20)
(0.090057514 -0.0006401357 1.1707395e-21)
(0.088393989 0.00019119941 7.2488993e-21)
(0.087490076 -0.00056589954 -1.8551147e-23)
(0.086764114 -0.00010931155 2.434429e-20)
(0.086742034 -0.00011487505 0)
(0.086824804 -0.0012368207 -4.0784693e-20)
(0.086555522 -0.0016700851 2.0590047e-20)
(0.086588854 0.00041348648 1.5620352e-20)
(0.088315446 -0.0024585437 5.8350518e-20)
(0.088716815 -0.002690507 5.1027589e-22)
(0.087405275 6.6704327e-05 1.6193718e-20)
(0.091576976 -0.0020527172 -1.96782e-20)
(0.095269925 -0.0062443506 2.039724e-22)
(0.092240196 -0.0062722386 6.8853458e-20)
(0.094690186 -0.0023454349 9.4817607e-20)
(0.10298225 -0.004480851 4.0732225e-20)
(0.10373371 -0.011657776 -4.7325035e-20)
(0.099311016 -0.013605859 -5.8617986e-20)
(0.10239425 -0.0074132493 -1.0444594e-21)
(0.11214622 -0.0057248406 -3.9376739e-20)
(0.11749707 -0.013334715 -8.5764844e-20)
(0.11341548 -0.025237144 8.8531872e-20)
(0.10574957 -0.0038107124 2.187632e-19)
(0.10199193 -0.00049446355 -1.6289789e-19)
(0.10620318 0.0022884256 4.3701171e-23)
(0.10506472 0.0010113834 2.8278975e-21)
(0.10360129 0.0016518372 2.1608579e-22)
(0.10256835 -0.00020186813 -6.8692729e-20)
(0.10120799 0.00041881837 -5.5919428e-21)
(0.098626431 5.3967002e-05 -6.8287879e-23)
(0.095797473 -0.00010952403 -3.7640234e-22)
(0.092864787 -0.0007225659 -1.1881583e-20)
(0.090500369 -0.00020332999 -1.2541286e-22)
(0.089044562 -0.00023096496 -6.6231708e-21)
(0.087994186 -4.5328345e-05 -7.8062464e-23)
(0.08797296 -0.00060549568 8.5292077e-22)
(0.088012704 -0.00073088793 0)
(0.087354567 -0.001340793 0)
(0.087580241 -0.00015433998 -2.7166617e-21)
(0.089270401 -0.002576339 4.6105297e-22)
(0.088923252 -0.0011047255 5.3173856e-20)
(0.087603627 0.00015843404 -9.4642463e-22)
(0.091702838 -0.0031413219 -1.1936811e-20)
(0.094830864 -0.0038223637 -1.3248151e-21)
(0.090437238 -0.0031808045 0)
(0.091849528 -0.0041615196 0)
(0.10160781 -0.0058525829 0)
(0.10439578 -0.008330617 5.6152449e-21)
(0.09811239 -0.010775139 2.3293967e-21)
(0.09821998 -0.011685017 3.7389858e-20)
(0.10928978 -0.01045931 2.9044882e-20)
(0.119807 -0.011254917 -8.6327345e-21)
(0.11953798 -0.015576111 -2.7068024e-20)
(0.10108596 -0.0035195015 1.2197817e-19)
(0.10039044 -0.00026799048 -2.286252e-21)
(0.10525272 0.0017891864 1.4600894e-22)
(0.10440319 0.00093069641 -1.2950919e-19)
(0.10329322 0.0015091025 0)
(0.10247337 -0.0008973352 -1.0591044e-22)
(0.10164434 -0.00038270908 -3.8421733e-20)
(0.10040168 0.0010022821 8.5510342e-21)
(0.099163012 -0.00032728352 1.396376e-22)
(0.096846111 -0.0010589357 1.1607986e-20)
(0.094614569 -0.0010408492 3.7570858e-21)
(0.093014168 -0.00029734062 0)
(0.091977048 -0.0001718056 4.059796e-20)
(0.091854311 -0.0010040405 1.4399838e-20)
(0.09187716 -0.00017733066 -9.3812274e-21)
(0.091087627 -0.00067056129 -1.7511367e-21)
(0.091313838 -0.00062403384 1.4649101e-20)
(0.092519496 -0.0023880234 -2.3589149e-23)
(0.091617064 0.00061602667 4.3568209e-20)
(0.090492629 0.00025042518 -1.791227e-21)
(0.09341012 -0.0043736084 8.2877962e-22)
(0.095504997 -0.0016867097 -7.0613934e-20)
(0.091340435 0.00048113755 3.5485117e-20)
(0.09124868 -0.0053253156 0)
(0.099360747 -0.0086183166 1.2911431e-20)
(0.10334005 -0.0058935148 -7.8648397e-21)
(0.098589052 -0.0056226253 -1.0410377e-19)
(0.096338166 -0.012783665 3.597172e-20)
(0.1041549 -0.016214168 7.7730627e-20)
(0.11544145 -0.012830956 7.4710064e-20)
(0.12023121 -0.0079184089 2.1766925e-20)
(0.09594634 -0.001462645 -1.1139685e-19)
(0.095364462 0.0001870926 4.3277444e-20)
(0.10143517 0.00040348281 -4.6101892e-22)
(0.10103308 0.00046967464 -4.7903388e-20)
(0.10049043 0.00058469033 -8.3583692e-20)
(0.1003061 -0.0010108899 1.3137781e-22)
(0.10010088 -0.00081610809 1.053929e-19)
(0.1000957 0.001108486 4.7459446e-21)
(0.10010535 -0.00057620195 -3.5317571e-22)
(0.099146407 -0.0010694235 1.8154409e-24)
(0.09817655 -0.00085694445 -5.3690756e-21)
(0.097958809 5.9388373e-05 -2.9437625e-22)
(0.09783126 -1.4248678e-05 -3.6575585e-22)
(0.097876696 -0.0011773586 -1.2074808e-22)
(0.098053296 0.00011789846 -3.977034e-20)
(0.097497148 -9.2912149e-06 -1.1365965e-22)
(0.097775347 -0.00083447947 -3.1341113e-20)
(0.098246052 -0.0020887208 1.5430211e-21)
(0.097063388 0.0016453887 2.0866922e-21)
(0.096563895 4.7175247e-05 0)
(0.097489855 -0.0057385652 2.9420445e-21)
(0.097370151 -0.00078787574 2.0025002e-22)
(0.094614513 0.0035722796 7.3520584e-20)
(0.093962913 -0.0053664382 -3.010496e-21)
(0.098011774 -0.011096533 -1.760396e-20)
(0.10076045 -0.0042849759 1.7083786e-19)
(0.099668852 -0.00058312769 2.8205539e-20)
(0.098165759 -0.0091978805 6.0702977e-22)
(0.10051337 -0.018822794 -8.4716898e-21)
(0.10728216 -0.015771957 -9.6051415e-20)
(0.11366768 -0.0057252414 2.1976384e-22)
(0.092889563 0.0010475307 1.5865474e-19)
(0.091125745 0.0011902149 -1.8874758e-23)
(0.097118999 -0.00091339435 -2.0249437e-20)
(0.096810219 0.00020328579 -2.3276446e-21)
(0.096903656 -0.00025723958 5.2830465e-22)
(0.097218285 0.0001217063 -7.2134067e-21)
(0.097647548 -0.00043763414 0)
(0.098786179 0.00068417421 -1.9922949e-22)
(0.10028786 -0.00057074571 2.1770421e-23)
(0.10026745 -0.002022867 -4.0719953e-20)
(0.10018472 -0.001023748 2.076027e-23)
(0.10088406 2.4940098e-05 1.5860335e-24)
(0.10166083 0.00028507038 -3.1435034e-20)
(0.10183759 -0.00094706409 -6.8292272e-21)
(0.10202949 0.00032114563 5.3378517e-20)
(0.10178172 0.00084975365 1.8357568e-22)
(0.10207329 -0.00070821058 3.6598508e-22)
(0.10162281 -0.0014701252 -4.4245583e-22)
(0.10037805 0.0017888471 0)
(0.101107 -0.00015174402 8.7879785e-20)
(0.10043844 -0.0058333459 2.1496664e-20)
(0.097944781 -0.00088993888 6.7787295e-20)
(0.097479712 0.0040036811 8.3754655e-21)
(0.098209483 -0.0045292515 -7.2679149e-22)
(0.097475138 -0.011533648 -1.732494e-21)
(0.096765802 -0.0039802589 -8.9396506e-20)
(0.098958151 0.0023586867 1.1537889e-20)
(0.10165718 -0.0032573527 -7.7284983e-20)
(0.10093451 -0.015254876 6.9442602e-20)
(0.10003246 -0.016395186 -4.8463972e-20)
(0.10373516 -0.0071588673 -6.1441702e-21)
(0.09158466 0.003537324 2.109332e-19)
(0.091019687 0.0019789932 -4.3639601e-24)
(0.097120611 -0.0017800567 9.8541234e-22)
(0.096862756 -3.8517889e-05 2.5504273e-19)
(0.097122008 -0.00089788098 -1.6001029e-21)
(0.097627418 0.0012692285 3.0266787e-20)
(0.098183296 0.00032759219 0)
(0.099451099 -0.00052906799 0)
(0.10114515 0.00055462873 -2.1339395e-21)
(0.1008016 -0.0013966674 0)
(0.10044118 -0.00034048693 6.3834168e-22)
(0.10106068 0.00013472818 -3.3721332e-20)
(0.10197655 0.00018128351 0)
(0.10195056 -0.00093026652 1.1997447e-20)
(0.10186099 -0.00010985088 4.0808014e-20)
(0.10189056 0.00083018315 -3.5687139e-21)
(0.10228836 -0.0010217071 -4.2000186e-22)
(0.10112059 -0.0011248893 3.8665127e-21)
(0.099956024 0.00068371189 -1.5015928e-20)
(0.10193292 -0.0012728725 5.5049462e-20)
(0.10050816 -0.0049934354 -2.7320212e-20)
(0.096495428 -0.0019511197 5.492905e-22)
(0.098069923 0.0016823122 6.1174776e-21)
(0.1016309 -0.0038872323 5.4255904e-20)
(0.098492225 -0.009517152 -2.1509776e-20)
(0.094058782 -0.0048688178 -2.0073386e-19)
(0.097447259 0.0016274585 2.2614585e-20)
(0.10476236 -0.00038316524 8.9364976e-21)
(0.10478486 -0.0082321525 -1.7738432e-19)
(0.098314579 -0.01287289 -5.0391563e-20)
(0.096179054 -0.0091711799 9.5810966e-20)
(0.09230093 0.0033140573 -2.0825507e-19)
(0.093248115 0.0024372128 1.3441787e-22)
(0.09984263 -0.0014875612 -1.2942977e-19)
(0.099934589 0.0001655397 -1.7415596e-19)
(0.10024026 -0.00058453703 2.7362386e-19)
(0.10075128 0.0024455413 4.595212e-22)
(0.10141259 0.0012558817 -1.9452086e-22)
(0.10155934 -0.0006711758 7.4798143e-21)
(0.10237438 -0.00041805793 5.2676685e-20)
(0.10124441 -0.0022103626 1.1987154e-20)
(0.10010068 -0.00042168236 1.2948225e-21)
(0.10039902 0.00046169949 1.6545088e-22)
(0.10086844 0.00021698284 1.3218179e-21)
(0.10042089 -0.00022713165 4.4585643e-21)
(0.099796502 -6.8152966e-05 1.3835038e-20)
(0.09974222 0.00071875907 8.4260048e-21)
(0.10004235 -0.00078025206 -1.6592707e-20)
(0.098498051 -0.00010194248 2.1532583e-20)
(0.09741531 -0.00016108418 3.635937e-21)
(0.10015127 -0.0019976746 -1.2194912e-20)
(0.098916494 -0.0026181505 -4.9878196e-21)
(0.094245068 -0.0021563725 -1.6481113e-20)
(0.096768835 -0.0014970203 5.484778e-20)
(0.10263954 -0.0039658718 -7.3130333e-23)
(0.09952449 -0.0052270997 -1.8020979e-20)
(0.092895219 -0.0042112066 4.2127677e-20)
(0.095887589 -0.0015248958 1.6617796e-21)
(0.10592386 -0.0019829137 -6.5733477e-20)
(0.10938579 -0.0027110335 3.4412442e-20)
(0.10221543 -0.0051417953 -5.8527902e-20)
(0.096012994 -0.0077144326 -6.9063898e-20)
(0.096855676 0.0023073893 -2.4907297e-19)
(0.098949238 0.0023115363 6.2918335e-23)
(0.10465739 -0.00053789175 -5.3723916e-22)
(0.10409918 0.00035428072 -9.9096587e-23)
(0.10346543 -9.9125185e-05 -9.4461566e-20)
(0.10334247 0.0018019816 -8.5457768e-20)
(0.1030459 0.0011627215 -4.892569e-20)
(0.10247026 -0.00096706774 1.0678274e-20)
(0.10179125 0.0017936984 2.1927702e-20)
(0.099818835 -0.0017778196 1.9970967e-22)
(0.097798334 -0.00054376471 8.9286276e-21)
(0.097399069 -7.9463077e-05 -6.4656855e-20)
(0.097431597 -0.00090888366 -1.9494666e-22)
(0.096516429 -0.00019996947 1.2397747e-21)
(0.095478174 -0.00082449152 1.2548609e-22)
(0.095492493 -0.00055896446 -1.2202168e-20)
(0.095845373 -0.0014292468 -1.0763618e-20)
(0.094560878 0.00024819709 0)
(0.094037856 -0.0017664534 5.9186196e-22)
(0.096956008 -0.0033597882 -5.6667942e-22)
(0.096814695 -0.00045691876 -5.0101175e-20)
(0.093089673 -0.0012334477 3.5847221e-20)
(0.095687056 -0.0049980492 -8.8737049e-21)
(0.10222034 -0.005045324 3.7843918e-20)
(0.10104765 -0.0011592457 6.1998566e-21)
(0.094714789 -0.001221441 3.7111249e-20)
(0.096208908 -0.0057305873 1.4194843e-20)
(0.1054819 -0.0067693675 6.8083456e-20)
(0.11123707 -0.0022722189 -1.158746e-19)
(0.10791749 0.0013540548 7.3715757e-20)
(0.10215371 -0.0030174011 2.1092336e-19)
(0.10852773 -0.00075208848 3.8674264e-20)
(0.10084556 0.0018209545 -5.7232035e-20)
(0.10500567 0.0010631453 8.6427801e-21)
(0.10376974 0.00077467536 -2.1007753e-19)
(0.10262755 0.00095260648 3.4352606e-22)
(0.10160686 0.00082783359 2.9825294e-23)
(0.10127408 0.00046761872 -6.5480565e-23)
(0.098966301 0.00064961465 2.8090709e-20)
(0.099224961 -0.0016566004 -3.0234717e-20)
(0.097703023 -0.0029826369 3.0134214e-20)
(0.094527899 0.0003557464 1.3996655e-21)
(0.094348795 0.00038881835 1.5197899e-22)
(0.094416321 -0.00082005288 -1.0205306e-20)
(0.093834946 0.00085875552 -6.6533845e-23)
(0.093246633 -0.0003405581 7.9326791e-20)
(0.093502141 -0.00074090396 1.0259544e-20)
(0.094058319 -0.0011408717 3.0714118e-22)
(0.093631539 0.0015484009 -1.6993769e-22)
(0.093852994 -0.0017366398 9.3668739e-20)
(0.0959151 -0.0035245231 -8.654925e-20)
(0.096626455 0.0020496939 3.5778646e-21)
(0.09513305 0.0013594488 -1.1630334e-19)
(0.097038521 -0.0063951324 -4.6864071e-21)
(0.10207245 -0.0054905888 1.2767689e-19)
(0.10277483 0.0020666136 -1.5522866e-20)
(0.10015009 0.0033745499 5.8591988e-20)
(0.10120598 -0.0065917143 2.6378911e-19)
(0.10682781 -0.010840432 5.1932376e-20)
(0.11172434 -0.0037906097 6.7740364e-20)
(0.11294594 0.004330527 4.6377064e-20)
(0.11117842 0.0024714833 -3.0310172e-20)
(0.1118274 -0.0027489264 -5.5593425e-19)
(0.097647192 1.5551808e-05 -2.511874e-21)
(0.10157741 0.0017158109 1.0222546e-21)
(0.099693458 0.00081783562 -1.5625308e-21)
(0.098286121 0.0013111349 -1.3442097e-21)
(0.097276917 -0.00083220452 4.260957e-22)
(0.096857806 -0.0004770084 -1.4162889e-22)
(0.096920234 0.0011584482 1.8784139e-22)
(0.097017104 0.0025769342 1.3157983e-23)
(0.094647574 -0.005593107 -1.5291375e-22)
(0.092587289 -0.00034775922 1.3604364e-23)
(0.093790125 -0.00095134284 5.1303029e-20)
(0.094283496 -0.0018338387 1.4543986e-20)
(0.094198065 0.00037216601 3.7716054e-23)
(0.09424584 -0.00083222881 -5.8251764e-24)
(0.094523245 -0.0015977722 8.3281286e-23)
(0.094843515 -0.0016570005 -1.3199171e-21)
(0.095171901 0.001322911 5.8964688e-22)
(0.096246844 -0.002027745 -1.0604468e-19)
(0.096843976 -0.0040540337 7.7793725e-20)
(0.097724273 0.0026501891 9.0897072e-20)
(0.099262258 0.002442488 6.9521682e-22)
(0.10087157 -0.0059792951 2.1486287e-22)
(0.10267035 -0.0062216395 -1.6448465e-21)
(0.10376196 0.0027991663 -6.0359811e-20)
(0.10591509 0.0053211458 -3.4111841e-20)
(0.10885604 -0.0048508473 -5.5032971e-21)
(0.10971741 -0.012751542 9.8528313e-21)
(0.11067736 -0.0066712472 7.4279188e-20)
(0.11418652 0.0026460059 -1.3915812e-19)
(0.11812385 0.0040400158 -6.8324638e-21)
(0.10524067 -0.0045095731 -4.3670302e-21)
(0.094109052 -0.000334504 1.5111715e-19)
(0.097820056 0.001809471 -9.2274952e-20)
(0.097092879 0.00082206009 2.0813868e-19)
(0.095270684 0.0014045534 2.8049321e-19)
(0.095973928 -0.00093027622 3.7248602e-20)
(0.094689234 -0.00064242949 -1.5570668e-19)
(0.094909269 0.0028553825 6.4571341e-24)
(0.096896718 -0.0034035587 2.3201959e-20)
(0.095748055 -0.0026832319 -3.0136598e-20)
(0.092821155 0.0016540903 3.1206216e-20)
(0.094425282 0.00010391511 6.8096596e-23)
(0.095507278 -0.00074307761 1.0313012e-20)
(0.096163101 0.00093695145 -4.9583006e-20)
(0.096999717 -9.3558722e-06 3.4043785e-22)
(0.097606438 -0.00079911462 5.0300009e-20)
(0.097929587 -0.00075497219 2.9668365e-22)
(0.099058331 0.0016365866 -2.7149739e-20)
(0.10122743 -0.00077965773 8.8116089e-22)
(0.10051438 -0.0028554275 2.3241542e-20)
(0.10099724 0.0024301774 -9.8382308e-20)
(0.10513096 0.0028744878 -7.5742942e-22)
(0.10721145 -0.0030701171 3.3077594e-21)
(0.10560293 -0.0048881478 -5.2699072e-20)
(0.10540824 0.0021108183 3.3632206e-21)
(0.11093069 0.0049096156 -5.3902326e-21)
(0.1170456 -0.0010862503 -2.975026e-19)
(0.11548979 -0.0084073379 0)
(0.11110202 -0.0066555813 -3.2273968e-20)
(0.11369831 0.00050806352 -1.9325565e-19)
(0.1215144 0.0034587211 -3.0405861e-20)
(0.099905149 -0.00097596377 5.6707165e-20)
(0.10138511 -9.4876288e-06 0)
(0.084124031 0.00011131149 4.5517132e-22)
(0.11177251 0.00056407304 2.1921266e-20)
(0.07423248 -2.8850005e-05 3.396818e-20)
(0.11547647 4.1189527e-05 2.8314224e-22)
(0.063788308 -0.00045106366 -1.0073923e-19)
(0.12168934 0.00040630319 7.2985006e-22)
(0.055919605 0.0041276091 4.6497247e-21)
(0.11449951 -0.009690263 -9.2239923e-21)
(0.11567686 -0.00019540638 8.8355085e-22)
(0.10914438 -0.00059981621 -7.8537033e-21)
(0.11661313 -0.00064957826 1.1863741e-21)
(0.11264635 -0.00013488055 -2.5058146e-20)
(0.1177457 -0.00031074172 1.297671e-20)
(0.11521848 -0.00030078899 1.9241198e-21)
(0.11665497 -0.00047474953 -1.7365993e-22)
(0.11727529 0.00013392145 -1.7867944e-20)
(0.11964031 -0.00026795017 3.0297432e-20)
(0.11655092 -0.00066422802 -8.1842382e-22)
(0.11696295 0.00020590063 -4.8890801e-20)
(0.12183366 0.0005669642 -4.4051965e-21)
(0.12368924 -0.00061811427 -6.0938421e-21)
(0.1192996 -0.0012685559 1.8965508e-20)
(0.11810592 3.2570057e-05 2.8184208e-20)
(0.12428729 0.00086766452 -2.7423235e-20)
(0.13187006 -0.00015508171 -5.9970441e-21)