/*--------------------------------*- C++ -*----------------------------------*\
| =========                 |                                                 |
| \\      /  F ield         | OpenFOAM: The Open Source CFD Toolbox           |
|  \\    /   O peration     | Version:  2406                                  |
|   \\  /    A nd           | Website:  www.openfoam.com                      |
|    \\/     M anipulation  |                                                 |
\*---------------------------------------------------------------------------*/
FoamFile
{
    version     2.0;
    format      ascii;
    arch        "LSB;label=32;scalar=64";
    class       volScalarField;
    location    "19";
    object      alphat;
}
// * * * * * * * * * * * * * * * * * * * * * * * * * * * * * * * * * * * * * //

dimensions      [1 -1 -1 0 0 0 0];

internalField   nonuniform List<scalar> 
96472
(
8.8233065e-07
9.9192366e-07
9.3395483e-07
8.6344249e-07
8.3470908e-07
8.4352621e-07
8.5795601e-07
8.5484178e-07
8.3154734e-07
8.0028665e-07
7.761175e-07
7.6786881e-07
7.7583447e-07
7.945317e-07
8.1704536e-07
8.3505569e-07
8.4052633e-07
8.267402e-07
8.0177405e-07
7.7422733e-07
7.5154474e-07
7.3476159e-07
7.2638928e-07
7.2469018e-07
7.3084603e-07
7.3948839e-07
7.5188303e-07
7.6354423e-07
7.7700372e-07
7.8797681e-07
7.9937711e-07
8.0546516e-07
8.1162097e-07
8.1110341e-07
8.0791013e-07
8.0376936e-07
8.0176799e-07
8.0363197e-07
8.0643739e-07
8.1250277e-07
8.2122887e-07
8.310719e-07
8.5227321e-07
8.7269693e-07
8.8742334e-07
9.0170465e-07
9.0991087e-07
9.1649656e-07
9.1644061e-07
9.1830213e-07
9.2762754e-07
9.45247e-07
9.6673554e-07
9.9736399e-07
1.0434265e-06
8.7994952e-07
9.9037592e-07
9.3368002e-07
8.6303638e-07
8.33281e-07
8.4143539e-07
8.563077e-07
8.5437033e-07
8.3209834e-07
8.0113904e-07
7.7638646e-07
7.6713241e-07
7.7409753e-07
7.9211886e-07
8.1472812e-07
8.3358498e-07
8.4062245e-07
8.2831353e-07
8.046833e-07
7.7737125e-07
7.539438e-07
7.3564404e-07
7.2593802e-07
7.2247229e-07
7.2773612e-07
7.3472681e-07
7.460598e-07
7.5603593e-07
7.6970797e-07
7.8111853e-07
7.92525e-07
8.0146706e-07
8.0587126e-07
8.0563217e-07
8.0340569e-07
8.0177947e-07
7.9925579e-07
7.9686818e-07
7.9460587e-07
7.9233809e-07
7.9234475e-07
7.9298589e-07
7.9573901e-07
8.0577426e-07
8.1995416e-07
8.4652075e-07
8.7053876e-07
8.9803805e-07
9.0762416e-07
9.1915399e-07
9.2567731e-07
9.388855e-07
9.5244493e-07
9.6631384e-07
1.001141e-06
8.7780968e-07
9.8867883e-07
9.3346135e-07
8.6280773e-07
8.3198436e-07
8.3956799e-07
8.5502603e-07
8.5428191e-07
8.3302071e-07
8.0228562e-07
7.7699637e-07
7.667101e-07
7.7279799e-07
7.9039483e-07
8.130558e-07
8.3277897e-07
8.4121807e-07
8.3019378e-07
8.0695571e-07
7.7970778e-07
7.5588825e-07
7.3725931e-07
7.2654187e-07
7.2237518e-07
7.2637755e-07
7.328053e-07
7.4365082e-07
7.5277294e-07
7.6643111e-07
7.7689682e-07
7.9022031e-07
7.9789837e-07
8.0508523e-07
8.056433e-07
8.0349416e-07
8.0229902e-07
7.9911039e-07
7.9765179e-07
7.9615019e-07
7.9533217e-07
7.9573546e-07
7.9632929e-07
7.9698769e-07
7.9967256e-07
8.0357069e-07
8.1320775e-07
8.224206e-07
8.4254861e-07
8.6282382e-07
8.9175167e-07
9.1198862e-07
9.2501205e-07
9.4272695e-07
9.5333043e-07
9.7838758e-07
8.7649673e-07
9.8740979e-07
9.3349593e-07
8.628789e-07
8.3119616e-07
8.3830023e-07
8.542488e-07
8.5457232e-07
8.3419497e-07
8.0357456e-07
7.7770574e-07
7.6630867e-07
7.7142018e-07
7.8854847e-07
8.1131858e-07
8.3179954e-07
8.416386e-07
8.3214872e-07
8.0963973e-07
7.8262447e-07
7.5822883e-07
7.3905853e-07
7.2704882e-07
7.2189997e-07
7.2488936e-07
7.308634e-07
7.4102859e-07
7.5054747e-07
7.6316349e-07
7.7401972e-07
7.8642541e-07
7.9520165e-07
8.032794e-07
8.0433524e-07
8.0214404e-07
8.0136605e-07
7.9813871e-07
7.9623066e-07
7.9417822e-07
7.9260362e-07
7.9232452e-07
7.9310406e-07
7.9400746e-07
7.9698997e-07
7.9948517e-07
8.0443784e-07
8.1173151e-07
8.1819909e-07
8.3222536e-07
8.435394e-07
8.6941107e-07
8.8437506e-07
9.1350927e-07
9.2790958e-07
9.5925637e-07
8.751349e-07
9.8609033e-07
9.3339804e-07
8.6291346e-07
8.3048817e-07
8.3716968e-07
8.535585e-07
8.5486112e-07
8.3538311e-07
8.0488005e-07
7.784345e-07
7.6604412e-07
7.7011954e-07
7.8673573e-07
8.0955581e-07
8.3085129e-07
8.4192342e-07
8.3389749e-07
8.121069e-07
7.8547863e-07
7.6054153e-07
7.4088149e-07
7.2789293e-07
7.2179615e-07
7.2351368e-07
7.2924342e-07
7.3823188e-07
7.479697e-07
7.598218e-07
7.7110205e-07
7.8313206e-07
7.9288929e-07
8.0178505e-07
8.0451537e-07
8.0222771e-07
8.0132999e-07
7.987298e-07
7.9596892e-07
7.937546e-07
7.919036e-07
7.8987045e-07
7.9090991e-07
7.9152759e-07
7.9258978e-07
7.9578756e-07
7.9867309e-07
8.0509007e-07
8.0957074e-07
8.1914994e-07
8.2592225e-07
8.4059257e-07
8.5032995e-07
8.713589e-07
8.8403355e-07
9.1767419e-07
8.7363227e-07
9.8470891e-07
9.3333393e-07
8.6305907e-07
8.2994021e-07
8.3619457e-07
8.5297154e-07
8.551935e-07
8.3654664e-07
8.0621936e-07
7.7920709e-07
7.6587432e-07
7.6896416e-07
7.8500456e-07
8.0771174e-07
8.2982208e-07
8.4215215e-07
8.3560835e-07
8.1451421e-07
7.8830303e-07
7.6302637e-07
7.4285024e-07
7.2871995e-07
7.2199303e-07
7.2225859e-07
7.2772435e-07
7.3591174e-07
7.4554083e-07
7.5639834e-07
7.6821154e-07
7.7954949e-07
7.8987568e-07
7.987509e-07
8.0331286e-07
8.0192967e-07
7.9979819e-07
7.9811947e-07
7.9495279e-07
7.9246766e-07
7.9007385e-07
7.8823293e-07
7.8705325e-07
7.8799256e-07
7.8849633e-07
7.9019329e-07
7.9268627e-07
7.9804831e-07
8.0182624e-07
8.1028556e-07
8.1503869e-07
8.2621276e-07
8.3274645e-07
8.4714266e-07
8.5551446e-07
8.8002407e-07
8.7187483e-07
9.829327e-07
9.3292445e-07
8.6300768e-07
8.2931767e-07
8.3518366e-07
8.5234222e-07
8.554711e-07
8.3763498e-07
8.0754765e-07
7.8005984e-07
7.657649e-07
7.6793203e-07
7.8340277e-07
8.059768e-07
8.286147e-07
8.4229159e-07
8.3727312e-07
8.1701686e-07
7.9116075e-07
7.6558422e-07
7.4497533e-07
7.298593e-07
7.2216693e-07
7.2133107e-07
7.259948e-07
7.3363167e-07
7.4317545e-07
7.5339872e-07
7.6490537e-07
7.7623626e-07
7.8711445e-07
7.9639901e-07
8.0268704e-07
8.0249122e-07
8.0012344e-07
7.9791476e-07
7.9552405e-07
7.9222838e-07
7.896605e-07
7.8751109e-07
7.8557026e-07
7.8520273e-07
7.8591462e-07
7.8657851e-07
7.878333e-07
7.9155081e-07
7.946328e-07
8.0098884e-07
8.0541368e-07
8.1435859e-07
8.2000878e-07
8.3098617e-07
8.3819204e-07
8.5434043e-07
8.687045e-07
9.7957359e-07
9.3210214e-07
8.6284721e-07
8.2874474e-07
8.3428108e-07
8.517895e-07
8.557866e-07
8.3874693e-07
8.0890584e-07
7.8098834e-07
7.6579713e-07
7.6695269e-07
7.8183643e-07
8.04312e-07
8.2743582e-07
8.4226597e-07
8.3879903e-07
8.19492e-07
7.9410105e-07
7.6823447e-07
7.4713272e-07
7.3122511e-07
7.2245975e-07
7.2063906e-07
7.2459552e-07
7.3142373e-07
7.4071222e-07
7.5068176e-07
7.6194748e-07
7.7303036e-07
7.8389962e-07
7.933192e-07
8.0083855e-07
8.0203999e-07
8.0003432e-07
7.9742053e-07
7.9478204e-07
7.9180079e-07
7.8879478e-07
7.8605413e-07
7.8405665e-07
7.8242593e-07
7.8293254e-07
7.8314712e-07
7.8399604e-07
7.8647236e-07
7.8857735e-07
7.9392666e-07
7.9704898e-07
8.0465319e-07
8.0870964e-07
8.1878176e-07
8.2369057e-07
8.3702487e-07
8.6740831e-07
9.7621759e-07
9.3135853e-07
8.6279404e-07
8.282832e-07
8.3347616e-07
8.5128729e-07
8.5609713e-07
8.3986311e-07
8.1029331e-07
7.8194919e-07
7.6593621e-07
7.6612036e-07
7.8028789e-07
8.0259452e-07
8.2623448e-07
8.422155e-07
8.4020874e-07
8.2183301e-07
7.9691812e-07
7.7100476e-07
7.4924497e-07
7.3270917e-07
7.2295462e-07
7.2000012e-07
7.2335084e-07
7.2953729e-07
7.3824445e-07
7.477907e-07
7.5891085e-07
7.6997571e-07
7.809526e-07
7.9052687e-07
7.9880093e-07
8.0169593e-07
7.9980993e-07
7.9809631e-07
7.9467104e-07
7.9243585e-07
7.8885545e-07
7.860685e-07
7.8350076e-07
7.8155225e-07
7.8008562e-07
7.8070862e-07
7.809223e-07
7.820709e-07
7.8381824e-07
7.8753433e-07
7.902019e-07
7.9618963e-07
8.0000895e-07
8.0766311e-07
8.1204117e-07
8.2340849e-07
8.660457e-07
9.7267991e-07
9.3057368e-07
8.628565e-07
8.2799647e-07
8.3284449e-07
8.5092009e-07
8.5651727e-07
8.4103302e-07
8.1177646e-07
7.8301822e-07
7.6616531e-07
7.6544273e-07
7.7890034e-07
8.0092136e-07
8.2490616e-07
8.4203729e-07
8.4155559e-07
8.24153e-07
7.9968216e-07
7.7384322e-07
7.5165083e-07
7.3436416e-07
7.2375005e-07
7.196467e-07
7.2202257e-07
7.2776928e-07
7.3617552e-07
7.452686e-07
7.5591369e-07
7.6681942e-07
7.780161e-07
7.8769121e-07
7.9659486e-07
8.012059e-07
7.9955997e-07
7.9805436e-07
7.9496174e-07
7.9184162e-07
7.8884613e-07
7.8558443e-07
7.826858e-07
7.8054486e-07
7.7845001e-07
7.777362e-07
7.7833369e-07
7.7870318e-07
7.7961351e-07
7.8230418e-07
7.8442625e-07
7.89138e-07
7.9228842e-07
7.9826567e-07
8.029998e-07
8.1078329e-07
8.6626514e-07
9.7324639e-07
9.3116859e-07
8.6339595e-07
8.2793741e-07
8.3234051e-07
8.5062009e-07
8.5694279e-07
8.4217301e-07
8.1321824e-07
7.8411059e-07
7.6645517e-07
7.6480692e-07
7.775956e-07
7.9936803e-07
8.2356868e-07
8.4164912e-07
8.4277676e-07
8.2643664e-07
8.0254812e-07
7.7662458e-07
7.5416842e-07
7.3619838e-07
7.2456912e-07
7.195812e-07
7.209854e-07
7.2595185e-07
7.3394655e-07
7.428931e-07
7.5319524e-07
7.6382811e-07
7.7483433e-07
7.8472228e-07
7.9388495e-07
8.0001558e-07
7.9987533e-07
7.9805553e-07
7.9579975e-07
7.9259713e-07
7.8925067e-07
7.8593212e-07
7.8298278e-07
7.8012661e-07
7.778361e-07
7.7606605e-07
7.7575799e-07
7.7604642e-07
7.7644859e-07
7.779776e-07
7.7932272e-07
7.8336911e-07
7.8540408e-07
7.9124875e-07
7.9374642e-07
8.0157635e-07
8.6581423e-07
9.7212103e-07
9.3123581e-07
8.6385408e-07
8.2794585e-07
8.3194141e-07
8.5043031e-07
8.5746578e-07
8.4343906e-07
8.1477062e-07
7.8533437e-07
7.6691459e-07
7.6430848e-07
7.7632542e-07
7.9780399e-07
8.2227055e-07
8.4120491e-07
8.4380988e-07
8.2859175e-07
8.0537767e-07
7.7961614e-07
7.5665102e-07
7.3821619e-07
7.2562079e-07
7.1952977e-07
7.2014994e-07
7.2450435e-07
7.3185071e-07
7.4045169e-07
7.5047355e-07
7.6107868e-07
7.7186486e-07
7.8193628e-07
7.9116595e-07
7.9822725e-07
7.9976953e-07
7.9811508e-07
7.956451e-07
7.9334531e-07
7.8917536e-07
7.862178e-07
7.8274736e-07
7.7979804e-07
7.7724406e-07
7.7532464e-07
7.7349044e-07
7.7359285e-07
7.7382997e-07
7.74283e-07
7.7566872e-07
7.7798568e-07
7.8015273e-07
7.8418941e-07
7.8670726e-07
7.9305679e-07
8.6792465e-07
9.7660127e-07
9.3306736e-07
8.6496849e-07
8.2828619e-07
8.3172564e-07
8.5031717e-07
8.5797036e-07
8.4464103e-07
8.1628514e-07
7.8651171e-07
7.6737169e-07
7.6387888e-07
7.7511247e-07
7.9620745e-07
8.2087507e-07
8.4076506e-07
8.4481833e-07
8.307246e-07
8.0801177e-07
7.8254983e-07
7.5917497e-07
7.4016449e-07
7.2683512e-07
7.1972209e-07
7.192054e-07
7.2306689e-07
7.2998531e-07
7.3816805e-07
7.4761435e-07
7.5808654e-07
7.6873929e-07
7.7906454e-07
7.8848581e-07
7.96277e-07
7.9969321e-07
7.984332e-07
7.9610325e-07
7.9388764e-07
7.9044162e-07
7.8662427e-07
7.8334083e-07
7.8001813e-07
7.7711803e-07
7.7478254e-07
7.7278553e-07
7.7121573e-07
7.7136722e-07
7.7184509e-07
7.7201912e-07
7.7395435e-07
7.7532328e-07
7.7833994e-07
7.8106848e-07
7.8536601e-07
8.6886563e-07
9.7719473e-07
9.3369001e-07
8.6574269e-07
8.2855725e-07
8.3154727e-07
8.5028263e-07
8.5860481e-07
8.4598187e-07
8.1796267e-07
7.8789162e-07
7.6798203e-07
7.6360988e-07
7.7407284e-07
7.9474939e-07
8.1945394e-07
8.4013559e-07
8.4575484e-07
8.3287466e-07
8.1080999e-07
7.8547689e-07
7.6200705e-07
7.4243356e-07
7.2819498e-07
7.2022225e-07
7.186151e-07
7.2162292e-07
7.2815205e-07
7.3620128e-07
7.4521167e-07
7.5532138e-07
7.6573751e-07
7.7608843e-07
7.8561218e-07
7.939092e-07
7.9927974e-07
7.9860713e-07
7.9672425e-07
7.9440973e-07
7.912964e-07
7.8766215e-07
7.8390433e-07
7.8026628e-07
7.7731779e-07
7.7456645e-07
7.7229276e-07
7.703677e-07
7.6931523e-07
7.6931684e-07
7.6956102e-07
7.7040505e-07
7.7101277e-07
7.7406964e-07
7.7504262e-07
7.7965736e-07
8.7722991e-07
9.8161492e-07
9.3614182e-07
8.6741001e-07
8.2933369e-07
8.3165578e-07
8.5037979e-07
8.5923122e-07
8.472322e-07
8.1951e-07
7.891887e-07
7.6856724e-07
7.6331805e-07
7.7304573e-07
7.9334553e-07
8.1813603e-07
8.3946369e-07
8.4652113e-07
8.3482854e-07
8.1353687e-07
7.8835381e-07
7.6461338e-07
7.4467134e-07
7.2961662e-07
7.2062894e-07
7.1816783e-07
7.2046972e-07
7.2626364e-07
7.3398975e-07
7.427265e-07
7.5253339e-07
7.6286534e-07
7.7313637e-07
7.828268e-07
7.913881e-07
7.9810536e-07
7.9904198e-07
7.9708684e-07
7.9532219e-07
7.9195626e-07
7.8906703e-07
7.8484085e-07
7.812285e-07
7.776547e-07
7.7477586e-07
7.7209009e-07
7.7019847e-07
7.6818394e-07
7.6712265e-07
7.675745e-07
7.6744068e-07
7.6842125e-07
7.6955835e-07
7.7120423e-07
7.7407429e-07
8.7861548e-07
9.8268695e-07
9.3719881e-07
8.6845443e-07
8.2983541e-07
8.3166929e-07
8.5047786e-07
8.5990664e-07
8.4860527e-07
8.2122418e-07
7.9068179e-07
7.6938148e-07
7.6326837e-07
7.7218283e-07
7.9200866e-07
8.1681049e-07
8.3880228e-07
8.4723672e-07
8.3680089e-07
8.1622606e-07
7.914569e-07
7.6748712e-07
7.4702795e-07
7.313743e-07
7.2134965e-07
7.1781645e-07
7.195087e-07
7.2471044e-07
7.3197157e-07
7.4032544e-07
7.4969588e-07
7.6003632e-07
7.7024112e-07
7.8027149e-07
7.889321e-07
7.9659469e-07
7.9961097e-07
7.9768866e-07
7.9597697e-07
7.9302956e-07
7.898239e-07
7.8620829e-07
7.8215128e-07
7.7852375e-07
7.7507532e-07
7.7223098e-07
7.6995399e-07
7.6781577e-07
7.6623657e-07
7.6510761e-07
7.6570111e-07
7.6575808e-07
7.6624762e-07
7.677048e-07
7.6912863e-07
8.8470314e-07
9.860475e-07
9.3924852e-07
8.6995372e-07
8.3066831e-07
8.319574e-07
8.5072497e-07
8.6058591e-07
8.4986763e-07
8.2277838e-07
7.9199709e-07
7.7007215e-07
7.6317173e-07
7.7137924e-07
7.9074205e-07
8.1548588e-07
8.3813238e-07
8.4792317e-07
8.3873944e-07
8.1871631e-07
7.94211e-07
7.7025716e-07
7.4933463e-07
7.3300395e-07
7.2217631e-07
7.1759739e-07
7.1839654e-07
7.2310765e-07
7.3000198e-07
7.3811193e-07
7.4698198e-07
7.571463e-07
7.6717544e-07
7.7742283e-07
7.8622956e-07
7.944746e-07
7.9946863e-07
7.9852384e-07
7.9662065e-07
7.9403735e-07
7.9096966e-07
7.8721758e-07
7.8347732e-07
7.7956036e-07
7.7573291e-07
7.7257405e-07
7.6991117e-07
7.6765778e-07
7.6584433e-07
7.6412911e-07
7.6359054e-07
7.6354143e-07
7.6437817e-07
7.6396905e-07
7.6620683e-07
8.8592858e-07
9.8626806e-07
9.3984816e-07
8.7085903e-07
8.3124259e-07
8.3215364e-07
8.5094162e-07
8.6131211e-07
8.5122251e-07
8.2449342e-07
7.9357919e-07
7.7103523e-07
7.6335823e-07
7.7081426e-07
7.8969271e-07
8.1426569e-07
8.3734491e-07
8.4850964e-07
8.4068552e-07
8.2150371e-07
7.9726401e-07
7.7330358e-07
7.5202179e-07
7.3497198e-07
7.2324807e-07
7.177115e-07
7.1766507e-07
7.2160084e-07
7.2805557e-07
7.3596159e-07
7.4449454e-07
7.5452998e-07
7.6441713e-07
7.745567e-07
7.8361616e-07
7.9195474e-07
7.9827582e-07
7.9917054e-07
7.9720284e-07
7.9447879e-07
7.9197546e-07
7.8798785e-07
7.844605e-07
7.8039177e-07
7.7659147e-07
7.728613e-07
7.6984202e-07
7.6733007e-07
7.6525743e-07
7.6368189e-07
7.6193613e-07
7.6171082e-07
7.6159911e-07
7.6182682e-07
7.6277151e-07
8.8907882e-07
9.8799343e-07
9.4099029e-07
8.7181401e-07
8.3185101e-07
8.3248513e-07
8.5130109e-07
8.6203138e-07
8.5243794e-07
8.2595013e-07
7.9487046e-07
7.7177216e-07
7.6335586e-07
7.7015236e-07
7.8861438e-07
8.1313615e-07
8.366442e-07
8.4898071e-07
8.4233961e-07
8.2375462e-07
7.9995033e-07
7.7585223e-07
7.542084e-07
7.3676743e-07
7.2413136e-07
7.1762535e-07
7.1687125e-07
7.2010089e-07
7.2600483e-07
7.3353596e-07
7.4168457e-07
7.5137477e-07
7.6128534e-07
7.7125675e-07
7.8061153e-07
7.8899866e-07
7.9596334e-07
7.9870235e-07
7.9683245e-07
7.942328e-07
7.9156384e-07
7.8815053e-07
7.8426639e-07
7.8054369e-07
7.7649873e-07
7.7288e-07
7.6947778e-07
7.6653795e-07
7.6419204e-07
7.6216784e-07
7.6104088e-07
7.5962265e-07
7.5907465e-07
7.5964252e-07
7.5948734e-07
8.9063155e-07
9.8808857e-07
9.4140495e-07
8.7268953e-07
8.3263127e-07
8.330663e-07
8.5191174e-07
8.6298189e-07
8.5388328e-07
8.2768966e-07
7.9649145e-07
7.7287274e-07
7.6370633e-07
7.697366e-07
7.8760941e-07
8.1184466e-07
8.3570778e-07
8.4924913e-07
8.4397828e-07
8.2604182e-07
8.0274079e-07
7.7867072e-07
7.5660194e-07
7.3855629e-07
7.2514497e-07
7.1753257e-07
7.1572344e-07
7.1833111e-07
7.2385567e-07
7.3104988e-07
7.3874366e-07
7.4790354e-07
7.5766655e-07
7.6732756e-07
7.7662662e-07
7.8492893e-07
7.9212142e-07
7.9625938e-07
7.9482652e-07
7.9250043e-07
7.8994215e-07
7.865989e-07
7.8309711e-07
7.79075e-07
7.7528772e-07
7.7124073e-07
7.6786286e-07
7.6468073e-07
7.6189778e-07
7.5958893e-07
7.5838083e-07
7.5677798e-07
7.5622273e-07
7.5522873e-07
7.5600387e-07
8.9216809e-07
9.8887097e-07
9.4198509e-07
8.7326151e-07
8.3325797e-07
8.3375647e-07
8.5272573e-07
8.6398474e-07
8.5506239e-07
8.2897314e-07
7.9754964e-07
7.7336333e-07
7.6342025e-07
7.6874057e-07
7.8614696e-07
8.1013676e-07
8.3425773e-07
8.4882353e-07
8.4463952e-07
8.2725229e-07
8.0407897e-07
7.8000537e-07
7.5778034e-07
7.3914556e-07
7.249945e-07
7.1649848e-07
7.1354615e-07
7.1526746e-07
7.201765e-07
7.2699302e-07
7.3419649e-07
7.4285421e-07
7.5243258e-07
7.6160924e-07
7.7047075e-07
7.782721e-07
7.8523772e-07
7.899044e-07
7.8939368e-07
7.8697193e-07
7.8474658e-07
7.8155119e-07
7.7845675e-07
7.7486881e-07
7.7095527e-07
7.6709678e-07
7.6365324e-07
7.6038554e-07
7.571954e-07
7.5418416e-07
7.530859e-07
7.5165324e-07
7.5038025e-07
7.4949111e-07
7.4984099e-07
8.9398818e-07
9.8890528e-07
9.4223812e-07
8.7406287e-07
8.3432038e-07
8.3477177e-07
8.5380191e-07
8.651626e-07
8.5641098e-07
8.3032041e-07
7.9840021e-07
7.7323191e-07
7.6212788e-07
7.6643335e-07
7.8333329e-07
8.0714607e-07
8.3190446e-07
8.4819361e-07
8.4539087e-07
8.2844209e-07
8.0500068e-07
7.8019747e-07
7.5760235e-07
7.3802685e-07
7.228582e-07
7.1365456e-07
7.1004997e-07
7.11305e-07
7.15661e-07
7.2161147e-07
7.2817434e-07
7.3757051e-07
7.4782822e-07
7.5680703e-07
7.648278e-07
7.7193773e-07
7.7827096e-07
7.826997e-07
7.8379477e-07
7.8155908e-07
7.7983502e-07
7.7700544e-07
7.744799e-07
7.7193179e-07
7.6851e-07
7.6505944e-07
7.6285045e-07
7.6025564e-07
7.5651152e-07
7.5328014e-07
7.5144542e-07
7.4969615e-07
7.4735224e-07
7.4651934e-07
7.4446706e-07
8.9406297e-07
9.8846929e-07
9.425661e-07
8.7422153e-07
8.3407544e-07
8.3374631e-07
8.5330614e-07
8.6574407e-07
8.5727838e-07
8.3056333e-07
7.966711e-07
7.6978362e-07
7.5789294e-07
7.6191891e-07
7.8064045e-07
8.0739404e-07
8.3677178e-07
8.6011634e-07
8.6311815e-07
8.4554046e-07
8.181606e-07
7.893758e-07
7.6461509e-07
7.4338434e-07
7.2816733e-07
7.2050342e-07
7.1962211e-07
7.2339033e-07
7.2852038e-07
7.3737774e-07
7.5307868e-07
7.6955595e-07
7.8600031e-07
7.9866375e-07
8.1135663e-07
8.1816734e-07
8.2579703e-07
8.3080994e-07
8.3575223e-07
8.3612714e-07
8.357581e-07
8.3299913e-07
8.3243467e-07
8.3180344e-07
8.2959192e-07
8.2701809e-07
8.2654351e-07
8.2708762e-07
8.2778657e-07
8.2302187e-07
8.2117804e-07
8.2012903e-07
8.1826795e-07
8.1500236e-07
8.0464001e-07
8.994223e-07
9.8750285e-07
9.4493873e-07
8.7688288e-07
8.335892e-07
8.2959768e-07
8.5631994e-07
8.833634e-07
8.8221151e-07
8.5599299e-07
8.1516817e-07
7.864997e-07
7.8999397e-07
8.08544e-07
8.3835924e-07
8.9682346e-07
9.5076779e-07
9.9296888e-07
1.0209543e-06
1.0269707e-06
9.8654639e-07
9.2914749e-07
8.9344271e-07
8.7061742e-07
8.6755027e-07
8.6825103e-07
8.7106049e-07
8.8373478e-07
9.1556322e-07
9.6561087e-07
1.0068466e-06
1.0479376e-06
1.0845205e-06
1.1023478e-06
1.1396358e-06
1.1496088e-06
1.1564386e-06
1.1750792e-06
1.1760035e-06
1.1770606e-06
1.1780099e-06
1.1766968e-06
1.1770699e-06
1.1798764e-06
1.1809357e-06
1.1781144e-06
1.1795819e-06
1.1918002e-06
1.2000797e-06
1.2010378e-06
1.2027549e-06
1.2062404e-06
1.2083161e-06
1.2085387e-06
1.1834137e-06
9.3463931e-07
9.6250303e-07
9.7735706e-07
9.0957169e-07
8.6472046e-07
8.9759027e-07
9.6211916e-07
1.0672258e-06
1.1392822e-06
1.1778304e-06
1.138467e-06
1.1365594e-06
1.1485605e-06
1.1978174e-06
1.3279274e-06
1.4628445e-06
1.5465633e-06
1.6079195e-06
1.6187326e-06
1.6201927e-06
1.6012542e-06
1.5259708e-06
1.4782826e-06
1.4452299e-06
1.4424459e-06
1.4500909e-06
1.4718285e-06
1.5394265e-06
1.6146815e-06
1.7159829e-06
1.7772706e-06
1.8492621e-06
1.9101717e-06
1.9324437e-06
1.9867353e-06
2.0006154e-06
2.0073252e-06
2.0454747e-06
2.0567707e-06
2.0508407e-06
2.0560541e-06
2.0577869e-06
2.0592922e-06
2.0732571e-06
2.0815405e-06
2.0800673e-06
2.0799359e-06
2.0986837e-06
2.1476684e-06
2.153126e-06
2.1597484e-06
2.1683132e-06
2.2020582e-06
2.2212825e-06
2.1955432e-06
6.0883529e-07
1.2261625e-06
1.428045e-06
1.4642475e-06
1.473151e-06
1.5020552e-06
1.7084652e-06
1.9730795e-06
2.0300863e-06
2.054263e-06
2.0630068e-06
2.0823504e-06
2.1446785e-06
2.2875151e-06
2.4233111e-06
2.5522348e-06
2.6167142e-06
2.7177809e-06
2.7160026e-06
2.7222849e-06
2.6733764e-06
2.6390352e-06
2.5753201e-06
2.5536894e-06
2.5529915e-06
2.599893e-06
2.6404952e-06
2.6930921e-06
2.8288889e-06
2.9097676e-06
3.0178859e-06
3.0942753e-06
3.1693001e-06
3.1847706e-06
3.2516018e-06
3.2589072e-06
3.2724472e-06
3.3333548e-06
3.3513662e-06
3.3708621e-06
3.4149484e-06
3.4036458e-06
3.3598409e-06
3.4069568e-06
3.4959788e-06
3.4720098e-06
3.4453403e-06
3.3394732e-06
3.40777e-06
3.5281156e-06
3.3410359e-06
3.5233382e-06
3.353722e-06
3.5925057e-06
3.3607247e-06
5.8665503e-07
1.3137058e-06
2.0587495e-06
2.0480695e-06
2.2027591e-06
2.1685137e-06
2.2453319e-06
2.2001965e-06
2.3191077e-06
2.3455647e-06
2.4075738e-06
2.4863816e-06
2.4695547e-06
2.3809684e-06
2.1827714e-06
1.902301e-06
1.6212408e-06
1.4504466e-06
1.4401783e-06
1.5789642e-06
1.7223255e-06
1.9337598e-06
1.9650447e-06
2.0287032e-06
1.9848766e-06
2.012096e-06
1.9618358e-06
2.003834e-06
1.9579817e-06
2.0165782e-06
1.9880435e-06
2.0487734e-06
2.0665755e-06
2.0757342e-06
2.1317133e-06
2.0748101e-06
2.1462494e-06
2.1812998e-06
2.1577668e-06
2.2075858e-06
2.2235149e-06
2.1982145e-06
2.275377e-06
2.3111053e-06
2.288305e-06
2.2925218e-06
2.2834538e-06
2.3858086e-06
2.417573e-06
2.2960315e-06
2.4133785e-06
2.3431377e-06
2.456236e-06
2.3592513e-06
2.4677946e-06
2.2574339e-06
3.6046896e-06
2.2796991e-06
1.2556653e-06
8.2682001e-07
7.4680339e-07
7.4920843e-07
7.5587596e-07
7.5978295e-07
7.6308505e-07
7.6684416e-07
7.7084392e-07
7.7560838e-07
7.8100672e-07
7.8782456e-07
7.9516127e-07
8.0412157e-07
8.1455582e-07
8.2640785e-07
8.4107287e-07
8.5904861e-07
8.8192246e-07
9.1689124e-07
9.6584838e-07
9.8648665e-07
1.0098222e-06
1.0435935e-06
2.4073444e-06
3.6952531e-06
2.4616316e-06
1.3895703e-06
8.6721472e-07
7.5242272e-07
7.4939724e-07
7.5582696e-07
7.5979625e-07
7.6391756e-07
7.6806166e-07
7.7214153e-07
7.7728035e-07
7.8320194e-07
7.9001511e-07
7.9786764e-07
8.0700772e-07
8.1749439e-07
8.297402e-07
8.4385659e-07
8.6114364e-07
8.8314762e-07
9.1646412e-07
9.6786839e-07
9.9333286e-07
1.013343e-06
1.0422687e-06
2.1620306e-06
3.6420509e-06
2.5355648e-06
1.4516081e-06
8.9110506e-07
7.5717982e-07
7.4998476e-07
7.5640759e-07
7.6054885e-07
7.6584502e-07
7.7072631e-07
7.7539185e-07
7.8079529e-07
7.8684582e-07
7.9398129e-07
8.0206565e-07
8.1150009e-07
8.2215964e-07
8.3446919e-07
8.4852519e-07
8.6539996e-07
8.861286e-07
9.1645355e-07
9.6944827e-07
1.0043086e-06
1.0224234e-06
1.0458632e-06
2.2010094e-06
3.6305524e-06
2.4421872e-06
1.5053517e-06
9.2605155e-07
7.6634663e-07
7.5142669e-07
7.5822681e-07
7.630616e-07
7.7006667e-07
7.7556824e-07
7.8010838e-07
7.8586747e-07
7.9216343e-07
7.995152e-07
8.076725e-07
8.1724003e-07
8.284524e-07
8.4091056e-07
8.5496242e-07
8.7111454e-07
8.9109302e-07
9.1629751e-07
9.6879458e-07
1.0102802e-06
1.0359151e-06
1.0553858e-06
2.1364626e-06
3.6098749e-06
2.6338895e-06
1.635198e-06
1.0143204e-06
7.9200974e-07
7.5799604e-07
7.6269272e-07
7.6786612e-07
7.7338962e-07
7.7927702e-07
7.8411499e-07
7.8950684e-07
7.9589564e-07
8.0320856e-07
8.1193161e-07
8.2166824e-07
8.3278208e-07
8.4579283e-07
8.6088842e-07
8.7756708e-07
8.9732901e-07
9.1959802e-07
9.6750397e-07
1.0124727e-06
1.0519462e-06
1.068694e-06
2.2809136e-06
3.5474164e-06
2.7872788e-06
1.867117e-06
1.1346518e-06
8.2430921e-07
7.6567846e-07
7.660645e-07
7.7073232e-07
7.7517626e-07
7.815126e-07
7.864545e-07
7.9228663e-07
7.99223e-07
8.0730035e-07
8.161068e-07
8.2610212e-07
8.3670588e-07
8.4936649e-07
8.6403413e-07
8.8063482e-07
9.0032285e-07
9.2122875e-07
9.664806e-07
1.0129248e-06
1.0602248e-06
1.084647e-06
2.1793973e-06
3.2789814e-06
2.8605514e-06
1.9759656e-06
1.1852522e-06
8.220795e-07
7.6832761e-07
7.6763615e-07
7.7211096e-07
7.7696992e-07
7.8398178e-07
7.8914133e-07
7.9592414e-07
8.0317634e-07
8.119449e-07
8.2131729e-07
8.3218059e-07
8.4431627e-07
8.571148e-07
8.7169748e-07
8.8745487e-07
9.0748014e-07
9.2548383e-07
9.6625552e-07
1.0124513e-06
1.0636852e-06
1.0992915e-06
2.1025974e-06
3.1353034e-06
2.871098e-06
1.6623382e-06
1.1634046e-06
7.6854146e-07
7.6954337e-07
7.6923084e-07
7.7469251e-07
7.8057775e-07
7.8923544e-07
7.9566523e-07
8.0268402e-07
8.1039115e-07
8.1810108e-07
8.2731689e-07
8.3709993e-07
8.4933177e-07
8.6314373e-07
8.7811424e-07
8.9574211e-07
9.1634974e-07
9.3374918e-07
9.6836711e-07
1.0137481e-06
1.0698212e-06
1.1080945e-06
1.7216456e-06
3.0641447e-06
2.8218211e-06
1.9346123e-06
1.1939937e-06
8.4945033e-07
7.7280846e-07
7.7421091e-07
7.8057284e-07
7.9044042e-07
8.0071431e-07
8.0711517e-07
8.1372565e-07
8.2065535e-07
8.2845966e-07
8.3694382e-07
8.4627144e-07
8.5686925e-07
8.6932466e-07
8.8396128e-07
9.0046496e-07
9.2244072e-07
9.394261e-07
9.7180108e-07
1.0146356e-06
1.0713528e-06
1.1156434e-06
2.0523406e-06
3.061274e-06
2.7898778e-06
1.9444315e-06
1.2442292e-06
8.8305702e-07
7.313169e-07
7.8651572e-07
7.9450852e-07
8.0181291e-07
8.1094417e-07
8.1709792e-07
8.2343392e-07
8.3009618e-07
8.3847322e-07
8.4709129e-07
8.5727778e-07
8.681463e-07
8.8028175e-07
8.9505724e-07
9.093747e-07
9.3090823e-07
9.4627813e-07
9.7706895e-07
1.0145823e-06
1.0734106e-06
1.1171474e-06
1.7961497e-06
2.8746212e-06
2.7504388e-06
2.0906116e-06
1.4242236e-06
9.3865831e-07
6.3944793e-07
7.4971178e-07
8.0296672e-07
8.0901758e-07
8.1574875e-07
8.2242329e-07
8.2906037e-07
8.3547931e-07
8.4371942e-07
8.5307402e-07
8.6341573e-07
8.7532366e-07
8.8852249e-07
9.0448239e-07
9.2012611e-07
9.4232031e-07
9.5709263e-07
9.8575719e-07
1.0183319e-06
1.0749937e-06
1.1238047e-06
1.5904332e-06
2.6098336e-06
2.7041122e-06
2.2206792e-06
1.5063477e-06
8.5008478e-07
6.2652507e-07
6.7914996e-07
8.0531081e-07
8.1075666e-07
8.1779698e-07
8.2518915e-07
8.3198777e-07
8.3953842e-07
8.4813996e-07
8.5916968e-07
8.7041482e-07
8.8294338e-07
8.9613539e-07
9.118939e-07
9.2795668e-07
9.5168447e-07
9.6851897e-07
9.9476357e-07
1.0254398e-06
1.0770611e-06
1.1297693e-06
1.4188482e-06
2.2823687e-06
2.686807e-06
2.2546832e-06
1.4064829e-06
6.937499e-07
5.9718239e-07
6.3102624e-07
8.0567228e-07
8.1241498e-07
8.209278e-07
8.2949121e-07
8.3694981e-07
8.4621111e-07
8.5618076e-07
8.6730444e-07
8.7977518e-07
8.9290355e-07
9.0644414e-07
9.2151803e-07
9.3585666e-07
9.5893477e-07
9.7501378e-07
1.0009267e-06
1.0285991e-06
1.0769876e-06
1.1302527e-06
1.4486705e-06
2.2206463e-06
2.7066276e-06
2.0761403e-06
1.3583686e-06
7.2375086e-07
6.4988785e-07
6.2933368e-07
7.9085722e-07
8.1616596e-07
8.2833623e-07
8.3867148e-07
8.4791406e-07
8.5838385e-07
8.6851378e-07
8.7883433e-07
8.9073844e-07
9.0361373e-07
9.178979e-07
9.3475003e-07
9.4896749e-07
9.7256837e-07
9.8771551e-07
1.011478e-06
1.0374246e-06
1.0790291e-06
1.1302758e-06
1.2675955e-06
2.2962419e-06
2.7350737e-06
2.1809194e-06
1.4318654e-06
8.8018841e-07
6.4169561e-07
6.0719154e-07
6.9581589e-07
8.2951096e-07
8.4740342e-07
8.6025208e-07
8.6897933e-07
8.779053e-07
8.8649138e-07
8.9503172e-07
9.0486291e-07
9.1524812e-07
9.2807029e-07
9.4392308e-07
9.5769573e-07
9.8203091e-07
9.9892917e-07
1.0218253e-06
1.0494898e-06
1.0854784e-06
1.133284e-06
1.1171335e-06
2.1971254e-06
2.6844066e-06
2.1859349e-06
1.5244664e-06
9.4613769e-07
5.3875977e-07
5.4427147e-07
6.0921364e-07
7.9493663e-07
8.7009107e-07
8.8106991e-07
8.8956959e-07
8.9633849e-07
9.0430531e-07
9.1188598e-07
9.2036022e-07
9.2982662e-07
9.4040061e-07
9.5444594e-07
9.6584765e-07
9.8918188e-07
1.0062714e-06
1.0281689e-06
1.0577978e-06
1.0892467e-06
1.1354411e-06
7.8269186e-07
1.8436943e-06
2.4600322e-06
2.2543599e-06
1.7179273e-06
1.0410047e-06
5.5103686e-07
5.3567816e-07
5.8444087e-07
7.3148099e-07
8.8092792e-07
8.9051084e-07
8.9952153e-07
9.0645252e-07
9.1408155e-07
9.2311686e-07
9.3206704e-07
9.428301e-07
9.534957e-07
9.6818081e-07
9.7907044e-07
1.0001191e-06
1.0169768e-06
1.0331649e-06
1.0661487e-06
1.0931785e-06
1.1361909e-06
7.7110435e-07
1.4592365e-06
2.3309487e-06
2.2053816e-06
1.8178016e-06
8.7041187e-07
5.7915425e-07
5.1530137e-07
5.9228568e-07
7.166579e-07
8.8193855e-07
8.9177995e-07
9.0128913e-07
9.0854807e-07
9.1671253e-07
9.2656216e-07
9.3708675e-07
9.4941215e-07
9.6103105e-07
9.7757233e-07
9.8892189e-07
1.0109186e-06
1.0300109e-06
1.042565e-06
1.076529e-06
1.1020139e-06
1.1401189e-06
7.926716e-07
1.4431441e-06
2.3815532e-06
2.3290097e-06
1.7430219e-06
9.4544897e-07
6.264824e-07
5.4212456e-07
6.0365158e-07
7.1554263e-07
8.8180597e-07
8.9334327e-07
9.0369139e-07
9.1169126e-07
9.2002808e-07
9.2994674e-07
9.4116726e-07
9.5357282e-07
9.6559254e-07
9.8232589e-07
9.941765e-07
1.0156353e-06
1.0387513e-06
1.0500104e-06
1.0820177e-06
1.1094346e-06
1.1439857e-06
4.798288e-07
1.3272929e-06
2.28603e-06
2.3039163e-06
1.6297341e-06
9.8915616e-07
5.4632017e-07
5.0046001e-07
5.0339832e-07
6.2649197e-07
7.790455e-07
8.9951474e-07
9.1109709e-07
9.2013914e-07
9.2877216e-07
9.3857589e-07
9.5027985e-07
9.6258034e-07
9.7551952e-07
9.9227153e-07
1.0046755e-06
1.0251188e-06
1.0496538e-06
1.0604452e-06
1.0879589e-06
1.116272e-06
1.1470982e-06
4.480295e-07
1.0252017e-06
2.0343322e-06
2.0247751e-06
1.8214263e-06
8.612241e-07
5.901644e-07
4.7172205e-07
4.7315432e-07
5.7489223e-07
7.5146807e-07
9.1832582e-07
9.3326797e-07
9.4372164e-07
9.5206281e-07
9.6111567e-07
9.716047e-07
9.8284314e-07
9.9457891e-07
1.0101232e-06
1.0210575e-06
1.0381158e-06
1.0623435e-06
1.0730544e-06
1.0975276e-06
1.1250136e-06
1.1536466e-06
4.5322605e-07
9.6691181e-07
1.8675243e-06
2.1259591e-06
1.5682826e-06
1.0112389e-06
6.6472705e-07
5.2237382e-07
5.1800604e-07
5.9739549e-07
7.637975e-07
9.2820446e-07
9.445159e-07
9.5675811e-07
9.6394692e-07
9.728112e-07
9.8221803e-07
9.925736e-07
1.0044151e-06
1.018701e-06
1.0313295e-06
1.0459974e-06
1.0710944e-06
1.0823349e-06
1.1047281e-06
1.131255e-06
1.1594968e-06
3.2203018e-07
9.1425276e-07
1.7648319e-06
2.0645668e-06
1.5709508e-06
1.1665682e-06
5.9333998e-07
5.322326e-07
4.8659032e-07
5.7202935e-07
7.0643827e-07
9.4054088e-07
9.5515633e-07
9.6550384e-07
9.7207051e-07
9.8013452e-07