/*--------------------------------*- C++ -*----------------------------------*\
| =========                 |                                                 |
| \\      /  F ield         | OpenFOAM: The Open Source CFD Toolbox           |
|  \\    /   O peration     | Version:  2406                                  |
|   \\  /    A nd           | Website:  www.openfoam.com                      |
|    \\/     M anipulation  |                                                 |
\*---------------------------------------------------------------------------*/
FoamFile
{
    version     2.0;
    format      ascii;
    arch        "LSB;label=32;scalar=64";
    class       volScalarField;
    location    "19";
    object      alphat;
}
// * * * * * * * * * * * * * * * * * * * * * * * * * * * * * * * * * * * * * //

dimensions      [1 -1 -1 0 0 0 0];

internalField   nonuniform List<scalar> 
62344
(
1.0497851e-06
1.0975557e-06
1.052829e-06
1.0007887e-06
9.7312951e-07
9.8065678e-07
1.0040696e-06
1.0063823e-06
9.9816107e-07
9.7518601e-07
9.5633878e-07
9.3487981e-07
9.3507143e-07
9.7761067e-07
9.9864465e-07
1.0184599e-06
1.0393006e-06
1.0657024e-06
1.0977642e-06
1.1180669e-06
1.1021938e-06
1.0877088e-06
1.1244539e-06
1.1582861e-06
1.1610124e-06
1.1870821e-06
1.253694e-06
1.289909e-06
1.3190847e-06
1.4066619e-06
1.6204688e-06
1.7898396e-06
1.9909332e-06
2.1430456e-06
2.4751334e-06
2.7914864e-06
3.3663372e-06
3.9618795e-06
4.4755734e-06
5.5150652e-06
6.5290641e-06
7.8587989e-06
8.7658684e-06
1.0362869e-05
1.2911335e-05
1.5975853e-05
2.0228594e-05
2.4538395e-05
2.8152643e-05
3.1391702e-05
3.375905e-05
3.6522957e-05
4.1039726e-05
4.737292e-05
5.7400365e-05
1.0477985e-06
1.0959727e-06
1.0538002e-06
1.0014706e-06
9.7339842e-07
9.8099261e-07
1.0016519e-06
1.008361e-06
1.0027632e-06
9.7510098e-07
9.5285962e-07
9.3837055e-07
9.2957513e-07
9.693111e-07
9.8700793e-07
1.0047508e-06
1.0354967e-06
1.043041e-06
1.0590255e-06
1.0813444e-06
1.078631e-06
1.0631849e-06
1.0731081e-06
1.0873558e-06
1.0958039e-06
1.1305543e-06
1.1931892e-06
1.2181128e-06
1.2390837e-06
1.33184e-06
1.5114993e-06
1.648908e-06
1.815326e-06
1.9583531e-06
2.2345582e-06
2.4936426e-06
3.055898e-06
3.4682576e-06
4.1715891e-06
4.8312639e-06
5.8143693e-06
6.6744453e-06
7.6712901e-06
8.8873944e-06
1.131763e-05
1.5127873e-05
1.9339903e-05
2.4405621e-05
3.1950338e-05
3.7383772e-05
4.230659e-05
4.639993e-05
4.9728421e-05
5.3923892e-05
5.8071732e-05
1.0475323e-06
1.0980202e-06
1.0535676e-06
1.0041208e-06
9.7612385e-07
9.8096365e-07
9.9773579e-07
1.0078001e-06
1.0132426e-06
9.8353976e-07
9.5088541e-07
9.4191003e-07
9.3811458e-07
9.6579554e-07
9.8170932e-07
1.0051539e-06
1.0456273e-06
1.0609957e-06
1.0598717e-06
1.072731e-06
1.0773257e-06
1.0746642e-06
1.0773467e-06
1.0689767e-06
1.0672939e-06
1.103081e-06
1.1739374e-06
1.2146403e-06
1.2452876e-06
1.3257595e-06
1.4803363e-06
1.6007528e-06
1.7620892e-06
1.9107321e-06
2.1150854e-06
2.3623134e-06
2.9099247e-06
3.2340208e-06
3.9413617e-06
4.5520137e-06
5.360033e-06
6.1491966e-06
7.5250029e-06
8.8345277e-06
1.2049169e-05
1.4855442e-05
1.924524e-05
2.5713758e-05
3.3393382e-05
3.996421e-05
4.3780959e-05
4.5338836e-05
4.6624911e-05
5.2174499e-05
5.7207661e-05
1.0479347e-06
1.1005866e-06
1.0534873e-06
1.0046906e-06
9.7705242e-07
9.8199493e-07
9.9944489e-07
1.0106959e-06
1.0135338e-06
9.841343e-07
9.4753358e-07
9.3757528e-07
9.4691318e-07
9.5627695e-07
9.6929676e-07
1.0069343e-06
1.0513086e-06
1.0625957e-06
1.0594994e-06
1.0646378e-06
1.0697738e-06
1.0805763e-06
1.0779328e-06
1.0739236e-06
1.0621147e-06
1.0884661e-06
1.1609388e-06
1.2102648e-06
1.2402715e-06
1.3180994e-06
1.4729477e-06
1.5939724e-06
1.7521052e-06
1.920447e-06
2.0903242e-06
2.353871e-06
2.9124408e-06
3.1923477e-06
3.8827455e-06
4.4951178e-06
5.1576646e-06
5.8718739e-06
7.5329053e-06
9.1736685e-06
1.2413073e-05
1.5255956e-05
2.0154808e-05
2.8615746e-05
3.6392764e-05
4.4334863e-05
4.6786633e-05
4.8652588e-05
4.8287329e-05
5.1011043e-05
5.3608522e-05
1.0482723e-06
1.1028263e-06
1.0568693e-06
1.0055705e-06
9.7567982e-07
9.8176031e-07
1.0019691e-06
1.01424e-06
1.0145209e-06
9.8529663e-07
9.497672e-07
9.3926499e-07
9.489433e-07
9.543785e-07
9.7073193e-07
1.0157394e-06
1.0506818e-06
1.0501469e-06
1.0567179e-06
1.0646372e-06
1.0637298e-06
1.0695773e-06
1.0725641e-06
1.0715337e-06
1.0597379e-06
1.0828784e-06
1.1452799e-06
1.1896757e-06
1.2177778e-06
1.2979275e-06
1.4486767e-06
1.5782596e-06
1.7128269e-06
1.8572618e-06
2.016019e-06
2.2625943e-06
2.7457708e-06
3.0328541e-06
3.6765312e-06
4.4232564e-06
4.9145017e-06
5.6333827e-06
7.6030239e-06
9.4534004e-06
1.2356318e-05
1.6146441e-05
2.1426883e-05
3.0513245e-05
3.6983535e-05
4.7200616e-05
5.2873458e-05
5.9356334e-05
5.9320196e-05
6.2577379e-05
6.1292089e-05
1.0476655e-06
1.1035793e-06
1.0615482e-06
1.0089434e-06
9.7661608e-07
9.8252103e-07
1.0032633e-06
1.0191381e-06
1.0160106e-06
9.8650486e-07
9.584136e-07
9.4610324e-07
9.4850498e-07
9.5782223e-07
9.8006099e-07
1.0218102e-06
1.0479976e-06
1.051119e-06
1.0655271e-06
1.0855622e-06
1.077468e-06
1.0604079e-06
1.069337e-06
1.0649933e-06
1.0555208e-06
1.0777616e-06
1.1286312e-06
1.1630179e-06
1.1949539e-06
1.2861028e-06
1.4444295e-06
1.5630329e-06
1.6807012e-06
1.8091266e-06
1.9706392e-06
2.2291389e-06
2.6354924e-06
2.9155635e-06
3.5058022e-06
4.2955932e-06
4.7389127e-06
5.633829e-06
7.3969422e-06
9.1216445e-06
1.14146e-05
1.5709555e-05
2.0577564e-05
2.841183e-05
3.3415219e-05
4.4033484e-05
5.2634305e-05
6.4563849e-05
7.1123134e-05
7.8748939e-05
7.9148431e-05
1.0467571e-06
1.1052179e-06
1.065557e-06
1.0100195e-06
9.7693349e-07
9.8273565e-07
1.0074109e-06
1.025782e-06
1.0163532e-06
9.8932925e-07
9.6343414e-07
9.4863211e-07
9.4882338e-07
9.5578338e-07
9.8501945e-07
1.0227727e-06
1.0436037e-06
1.0503151e-06
1.0694557e-06
1.0970012e-06
1.0938579e-06
1.0697644e-06
1.0690538e-06
1.065769e-06
1.0630854e-06
1.0852203e-06
1.1167306e-06
1.145462e-06
1.1876379e-06
1.2726283e-06
1.4180776e-06
1.5348084e-06
1.6502695e-06
1.7630616e-06
1.9339673e-06
2.2208199e-06
2.5237864e-06
2.7869011e-06
3.2076475e-06
3.8895895e-06
4.4057346e-06
5.5198707e-06
6.9234145e-06
8.6664278e-06
1.1273367e-05
1.6118479e-05
1.8346341e-05
2.2571468e-05
2.7709635e-05
3.7215785e-05
4.5215178e-05
5.823954e-05
6.9508833e-05
8.3629801e-05
9.0417878e-05
1.0459593e-06
1.1070312e-06
1.0679026e-06
1.0101533e-06
9.7620979e-07
9.8074011e-07
1.0067768e-06
1.0242029e-06
1.0224522e-06
9.9597316e-07
9.6345373e-07
9.5450026e-07
9.4660809e-07
9.5222402e-07
9.8838489e-07
1.0209714e-06
1.0420707e-06
1.0484353e-06
1.0632905e-06
1.0911612e-06
1.095175e-06
1.0806326e-06
1.0667051e-06
1.0602403e-06
1.0635957e-06
1.0908948e-06
1.1181925e-06
1.1352941e-06
1.1841984e-06
1.2669252e-06
1.3743213e-06
1.4825893e-06
1.6238196e-06
1.7229432e-06
1.9084764e-06
2.2026772e-06
2.5048657e-06
2.7658434e-06
3.1499319e-06
3.5331215e-06
3.9115004e-06
5.0521781e-06
6.4149626e-06
7.8744163e-06
1.1200982e-05
1.4894887e-05
1.6719225e-05
1.9995384e-05
2.3319229e-05
2.9164312e-05
3.3199636e-05
4.2285824e-05
5.4263565e-05
7.1611219e-05
8.6479521e-05
1.0455427e-06
1.1091543e-06
1.0679945e-06
1.0128004e-06
9.779006e-07
9.8120735e-07
1.0022647e-06
1.0208554e-06
1.0284143e-06
9.9886002e-07
9.6437237e-07
9.5916646e-07
9.4194215e-07
9.5257039e-07
9.9053765e-07
1.0149562e-06
1.0396952e-06
1.0510602e-06
1.0662118e-06
1.0833455e-06
1.0823836e-06
1.0786047e-06
1.0693888e-06
1.0534373e-06
1.0531877e-06
1.0819701e-06
1.1111344e-06
1.1352287e-06
1.1852458e-06
1.2654499e-06
1.3568752e-06
1.4420351e-06
1.569356e-06
1.7086229e-06
1.8676566e-06
2.1883177e-06
2.5096469e-06
2.8069301e-06
3.1386356e-06
3.4375834e-06
3.7059715e-06
4.5742251e-06
5.8051181e-06
7.369851e-06
1.081745e-05
1.429727e-05
1.6152739e-05
1.920044e-05
2.1758915e-05
2.6095145e-05
2.8505861e-05
3.4105199e-05
4.1365089e-05
5.3942144e-05
6.9235824e-05
1.0454486e-06
1.110899e-06
1.0673703e-06
1.0141517e-06
9.795865e-07
9.8344083e-07
1.0008117e-06
1.0202863e-06
1.0292312e-06
1.0006637e-06
9.6894709e-07
9.5521155e-07
9.442054e-07
9.6142284e-07
9.9368698e-07
1.0105951e-06
1.0359719e-06
1.06396e-06
1.0813398e-06
1.0911461e-06
1.0818875e-06
1.0777209e-06
1.0743128e-06
1.0575528e-06
1.0501172e-06
1.0756281e-06
1.1049294e-06
1.1299931e-06
1.1798265e-06
1.2586352e-06
1.3475112e-06
1.4306638e-06
1.5490224e-06
1.7092428e-06
1.836308e-06
2.1626041e-06
2.4973495e-06
2.9208586e-06
3.1707914e-06
3.4509956e-06
3.65701e-06
4.4420415e-06
5.4139173e-06
7.237862e-06
1.0170734e-05
1.3624204e-05
1.5859552e-05
1.9165783e-05
2.1657959e-05
2.57127e-05
2.7860846e-05
3.2508186e-05
3.805103e-05
4.817103e-05
6.0648851e-05
1.0454567e-06
1.1118744e-06
1.067885e-06
1.0138666e-06
9.7925852e-07
9.8292628e-07
1.0019302e-06
1.0193665e-06
1.0285788e-06
1.00159e-06
9.7116178e-07
9.4672055e-07
9.5105012e-07
9.6759614e-07
9.9365867e-07
1.0075188e-06
1.0344138e-06
1.0749955e-06
1.0971579e-06
1.0971298e-06
1.0868971e-06
1.0826174e-06
1.082436e-06
1.0704507e-06
1.0615283e-06
1.0830156e-06
1.1080378e-06
1.1200892e-06
1.1602655e-06
1.2415987e-06
1.345943e-06
1.4426533e-06
1.5493567e-06
1.7160887e-06
1.8245415e-06
2.1279348e-06
2.4587775e-06
2.914072e-06
3.176417e-06
3.4650048e-06
3.6623073e-06
4.397637e-06
5.3264798e-06
7.1501521e-06
1.0065201e-05
1.3235048e-05
1.5802484e-05
1.9300706e-05
2.2363199e-05
2.620583e-05
2.8594707e-05
3.359663e-05
3.9700762e-05
5.0106748e-05
6.0919549e-05
1.0452104e-06
1.1122906e-06
1.0691495e-06
1.0144059e-06
9.7889632e-07
9.8117158e-07
1.002699e-06
1.0203324e-06
1.0292379e-06
1.0033437e-06
9.7064598e-07
9.4247935e-07
9.5369126e-07
9.6644098e-07
9.8694159e-07
1.0040043e-06
1.0327536e-06
1.0733358e-06
1.1000896e-06
1.0944288e-06
1.0844837e-06
1.0886547e-06
1.0889047e-06
1.0763189e-06
1.0715224e-06
1.0956414e-06
1.1194616e-06
1.1226488e-06
1.1481531e-06
1.2237793e-06
1.3394156e-06
1.4418295e-06
1.5484155e-06
1.7228067e-06
1.8258135e-06
2.0976519e-06
2.3937157e-06
2.8335419e-06
3.1062216e-06
3.4275414e-06
3.6731942e-06
4.3724831e-06
5.2771811e-06
7.1193599e-06
1.0273453e-05
1.2851836e-05
1.5770556e-05
1.955045e-05
2.3687473e-05
2.7048055e-05
3.0557262e-05
3.6933007e-05
4.5570796e-05
5.6498668e-05
6.6459438e-05
1.0446467e-06
1.1124004e-06
1.0701369e-06
1.0167597e-06
9.7938292e-07
9.8165715e-07
1.0040632e-06
1.0247938e-06
1.0317396e-06
1.0093694e-06
9.7365941e-07
9.4369734e-07
9.5848491e-07
9.6089113e-07
9.8002518e-07
9.9965724e-07
1.0279596e-06
1.0630892e-06
1.0920887e-06
1.082786e-06
1.0688668e-06
1.0805814e-06
1.0866701e-06
1.0705741e-06
1.0704984e-06
1.0960452e-06
1.1205751e-06
1.1250659e-06
1.1487672e-06
1.2189155e-06
1.3234994e-06
1.4220952e-06
1.5369834e-06
1.7252765e-06
1.8179313e-06
2.0491678e-06
2.2945662e-06
2.6970185e-06
2.9591849e-06
3.2992291e-06
3.6818146e-06
4.3051168e-06
5.2299008e-06
7.1178514e-06
1.0265969e-05
1.2454584e-05
1.5218569e-05
1.9087246e-05
2.3592874e-05
2.6993844e-05
3.1251723e-05
3.9219893e-05
4.9093768e-05
5.9000752e-05
6.7395492e-05
1.0439643e-06
1.1120419e-06
1.0711808e-06
1.0182876e-06
9.7940637e-07
9.8244624e-07
1.0061805e-06
1.0269999e-06
1.0331986e-06
1.0146458e-06
9.7938034e-07
9.5058331e-07
9.6110843e-07
9.6332412e-07
9.7765502e-07
1.0019269e-06
1.0255972e-06
1.056936e-06
1.0839996e-06
1.0780845e-06
1.0638399e-06
1.0737322e-06
1.0791664e-06
1.0560904e-06
1.0550769e-06
1.081393e-06
1.1099972e-06
1.1201638e-06
1.1491756e-06
1.2107418e-06
1.3016159e-06
1.3861915e-06
1.5108471e-06
1.7167335e-06
1.8002614e-06
1.9783348e-06
2.2207274e-06
2.5787086e-06
2.8451183e-06
3.110524e-06
3.6371035e-06
4.1277865e-06
5.1811803e-06
6.873984e-06
9.9261459e-06
1.1842991e-05
1.4570873e-05
1.8298412e-05
2.2757017e-05
2.6139175e-05
3.1095631e-05
3.9564925e-05
4.6157332e-05
5.2912236e-05
6.6403666e-05
1.0433894e-06
1.1119666e-06
1.0730332e-06
1.0178994e-06
9.7824012e-07
9.8081964e-07
1.0066849e-06
1.0267409e-06
1.0324417e-06
1.0159391e-06
9.788184e-07
9.5544621e-07
9.608793e-07
9.6460398e-07
9.7648486e-07
1.0057916e-06
1.0298104e-06
1.0564011e-06
1.0754967e-06
1.0858441e-06
1.074271e-06
1.0781861e-06
1.0757904e-06
1.0456866e-06
1.0367304e-06
1.0614797e-06
1.0898141e-06
1.1020794e-06
1.1309876e-06
1.1915482e-06
1.2774403e-06
1.3613269e-06
1.482746e-06
1.684828e-06
1.784596e-06
1.9350996e-06
2.185385e-06
2.4657075e-06
2.7766432e-06
2.9915457e-06
3.506613e-06
3.9592634e-06
5.0071892e-06
6.2636384e-06
8.860543e-06
1.0574192e-05
1.2908802e-05
1.5751765e-05
1.9571314e-05
2.2207048e-05
2.6632508e-05
3.4748955e-05
4.5171898e-05
4.46614e-05
5.0701453e-05
1.0429659e-06
1.1120596e-06
1.0751678e-06
1.0170726e-06
9.774383e-07
9.7809385e-07
1.0043388e-06
1.0258642e-06
1.0304152e-06
1.0145593e-06
9.7377642e-07
9.5213996e-07
9.5790686e-07
9.6183831e-07
9.7109159e-07
1.0048944e-06
1.0368143e-06
1.0573763e-06
1.0711859e-06
1.0850645e-06
1.0883812e-06
1.0874511e-06
1.0769069e-06
1.0422248e-06
1.0257379e-06
1.0501221e-06
1.0788812e-06
1.0919458e-06
1.115837e-06
1.1683342e-06
1.2507227e-06
1.3328278e-06
1.4435169e-06
1.6271782e-06
1.7411542e-06
1.8722375e-06
2.1416772e-06
2.3343148e-06
2.6647931e-06
2.8809452e-06
3.3497921e-06
3.7414746e-06
4.8041005e-06
5.656982e-06
7.4302082e-06
8.7171038e-06
1.042019e-05
1.2035441e-05
1.4825354e-05
1.718939e-05
2.0147992e-05
2.5693777e-05
3.5164669e-05
4.4254941e-05
4.0555226e-05
1.0426076e-06
1.1123747e-06
1.076754e-06
1.0173579e-06
9.7818664e-07
9.7686682e-07
1.0012981e-06
1.0261723e-06
1.0307756e-06
1.0146687e-06
9.7179047e-07
9.4546986e-07
9.5782824e-07
9.6187963e-07
9.6483674e-07
1.000441e-06
1.0412477e-06
1.0571462e-06
1.0708398e-06
1.0803075e-06
1.0891895e-06
1.0944069e-06
1.0803811e-06
1.0463359e-06
1.0233728e-06
1.0425468e-06
1.0691246e-06
1.0838033e-06
1.1091369e-06
1.1515558e-06
1.2198203e-06
1.2791936e-06
1.3768613e-06
1.5266412e-06
1.6540124e-06
1.752088e-06
2.0202707e-06
2.1665292e-06
2.4730142e-06
2.673576e-06
3.1580975e-06
3.4571544e-06
4.3964853e-06
5.0983494e-06
6.5002615e-06
7.0787553e-06
8.3453996e-06
9.0883806e-06
1.089135e-05
1.3598261e-05
1.6886931e-05
2.0549658e-05
2.6504677e-05
3.3714519e-05
3.9683729e-05
1.0423007e-06
1.1125603e-06
1.0771329e-06
1.0189173e-06
9.8020515e-07
9.7793801e-07
1.000247e-06
1.028354e-06
1.0350759e-06
1.0203683e-06
9.7540181e-07
9.4333906e-07
9.5948607e-07
9.655375e-07
9.6441526e-07
9.9621982e-07
1.0412766e-06
1.0504903e-06
1.0651704e-06
1.0661904e-06
1.075619e-06
1.0862281e-06
1.0680963e-06
9.6484245e-07
1.007915e-06
1.0174361e-06
1.0376166e-06
1.0500333e-06
1.0677745e-06
1.0982239e-06
1.1486733e-06
1.1644947e-06
1.2309639e-06
1.3235054e-06
1.4565528e-06
1.530062e-06
1.7398143e-06
1.8636927e-06
2.1522006e-06
2.3062126e-06
2.7975526e-06
3.0849807e-06
3.7877942e-06
4.318711e-06
5.3599818e-06
5.957323e-06
6.5713618e-06
7.3816282e-06
8.4658293e-06
9.9366727e-06
1.2458345e-05
1.6133246e-05
2.0220879e-05
2.5479439e-05
3.0016623e-05
1.0419639e-06
1.1132538e-06
1.0768053e-06
1.0204744e-06
9.814395e-07
9.7926293e-07
1.0004029e-06
1.0281985e-06
1.0391576e-06
1.0244125e-06
9.7743929e-07
9.4294533e-07
9.5900555e-07
9.6258055e-07
9.5800235e-07
9.8447034e-07
1.0241239e-06
1.0279714e-06
1.039266e-06
1.0293574e-06
9.7642292e-07
1.0439396e-06
1.014059e-06
6.875286e-07
9.6436955e-07
9.6064027e-07
9.7176946e-07
9.7727803e-07
9.8532912e-07
1.013967e-06
1.0368087e-06
1.0302861e-06
1.0403325e-06
1.0827011e-06
1.1716578e-06
1.2159867e-06
1.3385342e-06
1.4024328e-06
1.6625314e-06
1.7950781e-06
2.2276782e-06
2.5246565e-06
3.1032453e-06
3.6478288e-06
4.5152931e-06
5.3044101e-06
5.5236859e-06
6.3537767e-06
7.2407461e-06
8.3262326e-06
9.7106131e-06
1.1966733e-05
1.4581262e-05
1.8139978e-05
2.2536794e-05
1.0415858e-06
1.112479e-06
1.0754324e-06
1.0196089e-06
9.7965272e-07
9.7629086e-07
9.9606824e-07
1.020701e-06
1.0327778e-06
1.0139073e-06
9.677687e-07
9.3257167e-07
9.419387e-07
9.4099667e-07
9.3397425e-07
9.5531303e-07
9.8400284e-07
9.213622e-07
9.4597623e-07
9.8073252e-07
8.6829873e-07
9.9102557e-07
8.0807127e-07
6.2054629e-07
9.2180744e-07
8.360018e-07
8.9040673e-07
7.9073617e-07
7.8732758e-07
9.4860892e-07
9.6097246e-07
7.3303049e-07
8.816515e-07
7.6397594e-07
1.0311015e-06
1.0665708e-06
1.1498995e-06
1.1768356e-06
1.1095008e-06
1.4122365e-06
1.8042438e-06
2.1150522e-06
2.6009647e-06
3.1163194e-06
3.6928046e-06
4.550612e-06
4.1395596e-06
5.3283197e-06
6.3305961e-06
7.1648397e-06
8.3645888e-06
9.4280157e-06
1.1374257e-05
1.2854185e-05
1.5792915e-05
1.0407342e-06
1.1113263e-06
1.0726497e-06
1.0145841e-06
9.7157284e-07
9.6369763e-07
9.7948876e-07
9.9746401e-07
1.0071658e-06
9.8540944e-07
9.4127658e-07
9.1003171e-07
9.1088442e-07
9.0918993e-07
9.0580192e-07
9.2214701e-07
9.4223321e-07
9.4907441e-07
9.131836e-07
9.5209479e-07
9.5332847e-07
9.673994e-07
7.0895848e-07
7.4094875e-07
9.3546526e-07
8.422217e-07
9.4657859e-07
9.1582166e-07
7.9750977e-07
1.0017615e-06
1.0210486e-06
6.3906878e-07
6.563696e-07
6.4115386e-07
6.8871059e-07
1.1166948e-06
1.103938e-06
7.7039465e-07
6.964977e-07
8.920406e-07
1.3031546e-06
1.8838781e-06
2.3007287e-06
2.7854955e-06
3.2047863e-06
3.8968065e-06
3.285774e-06
4.24827e-06
5.6129551e-06
6.1439509e-06
7.0844649e-06
7.7650656e-06
9.0619422e-06
9.8797682e-06
1.1512011e-05
1.038035e-06
1.1034915e-06
1.0598973e-06
9.9707924e-07
9.483432e-07
9.332533e-07
9.4398696e-07
9.5881956e-07
9.703347e-07
9.5327704e-07
9.2034509e-07
8.9808146e-07
8.9955326e-07
9.0558884e-07
9.1174367e-07
9.2796021e-07
9.3110375e-07
9.7471309e-07
9.9001185e-07
1.006248e-06
1.0213453e-06
8.6554452e-07
7.2920618e-07
9.8020742e-07
1.0849458e-06
1.1114206e-06
1.1492802e-06
1.1643012e-06
1.1365158e-06
1.2696383e-06
1.3175174e-06
8.8394462e-07
7.9838002e-07
8.781852e-07
8.2628494e-07
1.4288044e-06
1.5943629e-06
9.0740615e-07
7.1315146e-07
8.7246725e-07
9.7011376e-07
1.1663558e-06
1.8760133e-06
2.7019442e-06
3.0669448e-06
3.4063657e-06
2.7344133e-06
3.5508829e-06
4.9607721e-06
5.4108209e-06
6.2222302e-06
6.7781715e-06
7.711881e-06
8.3776959e-06
9.347373e-06
1.0256266e-06
1.0765909e-06
1.024944e-06
9.6381451e-07
9.1554835e-07
8.9624689e-07
9.0776964e-07
9.2450928e-07
9.452521e-07
9.5015681e-07
9.5216044e-07
9.621019e-07
9.7733926e-07
9.9884438e-07
1.0159849e-06
1.0533951e-06
9.4814566e-07
1.0023918e-06
1.1535264e-06
1.1933971e-06
1.2280789e-06
9.9463577e-07
9.2193711e-07
1.1482391e-06
1.3827891e-06
1.4451024e-06
1.5231327e-06
1.5628972e-06
1.5153199e-06
1.7292918e-06
1.8385315e-06
1.6231291e-06
1.3825155e-06
1.5542798e-06
1.5173781e-06
2.126773e-06
2.5084055e-06
1.9277918e-06
1.3243232e-06
1.5671774e-06
1.4441941e-06
1.3164185e-06
1.8041546e-06
3.2742293e-06
3.5380216e-06
2.9243235e-06
2.387366e-06
3.0743719e-06
4.5568066e-06
4.9653928e-06
5.6110615e-06
6.1282456e-06
6.8551588e-06
7.4322414e-06
7.5325713e-06
1.0012585e-06
1.0298947e-06
9.8941407e-07
9.4072429e-07
9.0492341e-07
8.8351617e-07
9.1108273e-07
9.3159566e-07
9.7839331e-07
1.0412029e-06
1.0974696e-06
1.1457087e-06
1.1271214e-06
1.2112035e-06
1.237349e-06
1.2869122e-06
1.0624239e-06
1.0810783e-06
1.4074253e-06
1.474591e-06
1.4624526e-06
1.2487768e-06
1.2383002e-06
1.3670826e-06
1.7362296e-06
1.836327e-06
1.9601783e-06
1.9496762e-06
1.9066054e-06
2.1159344e-06
2.4232843e-06
2.5001137e-06
2.3480968e-06
2.6644243e-06
2.8456221e-06
3.3391592e-06
3.672081e-06
3.9136095e-06
2.8671039e-06
3.1365455e-06
2.9138741e-06
2.505756e-06
2.8124203e-06
4.9780822e-06
5.1928777e-06
3.4129088e-06
2.6947492e-06
3.0821305e-06
3.8045348e-06
4.3420926e-06
5.1726016e-06
5.7627798e-06
6.1204985e-06
6.4132341e-06
6.6203169e-06
9.5678099e-07
1.0103898e-06
1.0263204e-06
1.0184724e-06
1.0098834e-06
1.0117744e-06
1.0336644e-06
1.0689124e-06
1.1571063e-06
1.2045098e-06
1.260102e-06
1.3352967e-06
1.2335852e-06
1.2566241e-06
1.4416041e-06
1.4113051e-06
1.2384255e-06
1.2600592e-06
1.4684461e-06
1.6596595e-06
1.5387736e-06
1.48518e-06
1.5078321e-06
1.5716854e-06
1.7375548e-06
1.9055959e-06
2.0435692e-06
2.0470781e-06
2.0508247e-06
2.2043113e-06
2.5100583e-06
2.5609823e-06
2.5132584e-06
2.6315544e-06
2.7005837e-06
3.0667043e-06
3.2867207e-06
3.3909569e-06
3.1211779e-06
3.1687128e-06
3.0575621e-06
2.7779251e-06
3.2577939e-06
4.5693668e-06
4.7019668e-06
4.0044302e-06
3.0250297e-06
3.2448571e-06
3.7007197e-06
3.6590156e-06
3.7297329e-06
4.2047408e-06
4.5304339e-06
4.6657709e-06
4.8251632e-06
8.2159094e-07
1.1642285e-06
1.2776604e-06
1.2891713e-06
1.290829e-06
1.2857076e-06
1.28388e-06
1.2613942e-06
1.2883938e-06
1.304761e-06
1.3181666e-06
1.3540687e-06
1.3361308e-06
1.3014961e-06
1.3128041e-06
1.3069815e-06
1.2547012e-06
1.2490652e-06
1.2970614e-06
1.3463846e-06
1.3494906e-06
1.3387659e-06
1.3531975e-06
1.3910159e-06
1.4356431e-06
1.486902e-06
1.5197706e-06
1.5385855e-06
1.5470889e-06
1.5624604e-06
1.5741276e-06
1.5634347e-06
1.5465598e-06
1.5502109e-06
1.596621e-06
1.6481501e-06
1.7551251e-06
1.787741e-06
1.7643667e-06
1.7164718e-06
1.7358619e-06
1.7111766e-06
1.6332204e-06
2.0106447e-06
2.4326562e-06
2.3555401e-06
2.1051434e-06
2.1215124e-06
2.0984619e-06
2.1262517e-06
2.2012498e-06
2.3044724e-06
2.4124774e-06
2.4954159e-06
2.5677721e-06
1.2139144e-06
1.7552912e-06
1.5078417e-06
1.3264183e-06
1.1811219e-06
1.0203644e-06
8.8328716e-07
7.7355682e-07
7.1271718e-07
6.6499757e-07
6.2223623e-07
5.7981324e-07
5.476543e-07
5.4332902e-07
5.5612642e-07
5.598993e-07
5.5240377e-07
5.4519216e-07
5.6036239e-07
5.7742387e-07
5.608311e-07
5.4643169e-07
5.4325605e-07
5.4490151e-07
5.3878579e-07
5.3922082e-07
5.4449192e-07
5.5854916e-07
5.7674732e-07
6.1292398e-07
6.6087092e-07
6.8960507e-07
6.8271302e-07
6.4613811e-07
6.2722811e-07
6.486008e-07
7.1188591e-07
7.5223406e-07
7.2997242e-07
6.7164783e-07
6.6333022e-07
7.1231608e-07
8.1887934e-07
8.4385594e-07
7.3482635e-07
8.1582284e-07
1.0898825e-06
1.2354863e-06
1.1834262e-06
1.1496917e-06
1.1400617e-06
1.1551392e-06
1.1802168e-06
1.2173016e-06
1.2609696e-06
1.27286e-06
2.457433e-06
4.9153554e-06
6.6050006e-06
8.588694e-06
1.0080173e-05
1.2625454e-05
1.7472434e-05
2.4192048e-05
3.2719409e-05
3.6305674e-05
4.5796009e-05
6.6025873e-05
7.4172454e-05
7.925284e-05
8.2032702e-05
7.6930228e-05
8.3718224e-05
9.0811765e-05
0.00010474333
0.00010532566
9.2105024e-05
7.2191513e-05
6.7076256e-05
7.1756462e-05
7.094156e-05
6.755641e-05
1.1866104e-06
2.481579e-06
5.172571e-06
7.4773549e-06
9.0589909e-06
1.0526447e-05
1.3048871e-05
1.7958074e-05
2.5213763e-05
3.6312581e-05
4.8930312e-05
6.0831521e-05
7.2010671e-05
8.3390794e-05
7.8630787e-05
7.6628719e-05
9.9138031e-05
0.00010422685
0.00010649494
0.00011609495
0.00011917935
0.00010917919
8.8206196e-05
8.0874895e-05
8.4510659e-05
8.0172928e-05
5.9368124e-05
1.0678168e-06
2.4867071e-06
5.2641182e-06
7.6695236e-06
9.2586636e-06
1.0692485e-05
1.3310059e-05
1.8814537e-05
2.8358093e-05
4.1151447e-05
5.3645003e-05
6.6639576e-05
7.3917807e-05
6.6677123e-05
7.0926212e-05
9.3581345e-05
0.00012678218
0.00012369204
0.00012263544
0.0001324066
0.00013532662
0.00012879362
0.00010681848
9.7208391e-05
9.9501127e-05
8.8582125e-05
7.1844389e-05
1.0900383e-06
2.2589985e-06
4.8290897e-06
7.1318069e-06
7.7402795e-06
9.9100427e-06
1.3439674e-05
2.0191413e-05
3.1428794e-05
4.3408791e-05
5.5490703e-05
5.9501881e-05
5.6103921e-05
6.4523138e-05
8.9157636e-05
0.00014241687
0.00014680391
0.00011481388
0.00010898935
0.00014784467
0.00015307057
0.00015334929
0.00013431922
0.00011812344
0.00011396804
9.7220058e-05
8.3074329e-05
1.2207721e-06
1.9339107e-06
3.8243123e-06
4.4438335e-06
5.0942933e-06
7.135817e-06
1.1440839e-05
1.9177125e-05
2.7242708e-05
3.2485181e-05
3.6816192e-05
4.3314687e-05
5.8577795e-05
9.5585585e-05
0.00014245058
0.00015702356
0.00010964686
9.2178657e-05
0.00011664833
0.00016370904
0.00017378911
0.00018292028
0.00016846776
0.00013994444
0.00012417906
0.00010681885
9.7477407e-05
1.0024586e-06
1.5790073e-06
3.1542255e-06
3.8748054e-06
4.4304026e-06
5.9383146e-06
8.4317897e-06
1.2136778e-05
1.5760352e-05
2.0022908e-05
2.7321584e-05
4.149725e-05
7.6337609e-05
0.00013115806
0.00014920548
0.00010602728
9.0796144e-05
0.00010656516
0.00016578793
0.00018392553
0.00020182523
0.00021855475
0.00020323541
0.00015851212
0.00013305061
0.00011749407
0.0001148593
8.4115641e-07
1.3766808e-06
3.1182036e-06
4.3463064e-06
4.7529577e-06
5.7268242e-06
7.2854575e-06
9.9419864e-06
1.3579296e-05
1.8934061e-05
2.9013905e-05
4.9387094e-05
9.1474574e-05
0.00010369259
7.9390555e-05
7.5047408e-05
9.3130237e-05
0.00016784838
0.00018122457
0.00021063711
0.00019658704
0.000257696
0.00023305921
0.00017398001
0.00014177364
0.00012978898
0.00013420248
7.6053923e-07
1.2589388e-06
2.8980861e-06
4.2988681e-06
4.3617894e-06
5.0071079e-06
6.6727001e-06
1.0108303e-05
1.6298802e-05
2.557452e-05
4.4649027e-05
7.7069197e-05
7.5854737e-05
6.2556638e-05
5.9216879e-05
6.9854169e-05
0.00010400269
0.00016978815
0.00019688223
0.0001913394
0.00027611783
0.00029231424
0.00025804161
0.00017517871
0.00015196589
0.00014506614
0.00015424893
7.4877156e-07
1.1603771e-06
2.2114257e-06
3.3015014e-06
3.563167e-06
4.6687126e-06
7.405802e-06
1.3874356e-05
2.7125321e-05
4.6350904e-05
6.6877163e-05
7.9440406e-05
6.2403668e-05
5.8916229e-05
6.4716819e-05
9.344527e-05
0.00013773902
0.00012361543
0.00012270876
0.00017998118
0.0003064316
0.00031280034
0.0002274312
0.00021026756
0.00016887176
0.00016683338
0.00017413542
7.7247236e-07
1.1524237e-06
1.8513984e-06
3.0788883e-06
3.8619174e-06
6.1720946e-06
1.2036633e-05
2.5342604e-05
3.7089253e-05
5.0348104e-05
6.901198e-05
5.6795144e-05
5.9890498e-05
6.9350784e-05
0.00011012993
0.00014639354
0.0001587957
0.00011022476
0.00012479972
0.00019627188
0.00027525737
0.00023091804
0.00024869841
0.00023638707
0.00019759242
0.00019455355
0.00019521169
8.6803461e-07
1.1374274e-06
2.2419269e-06
4.1061223e-06
6.2155108e-06
1.2326735e-05
1.8674334e-05
2.8025539e-05
3.9905706e-05
5.3403826e-05
4.7500245e-05
5.2690058e-05
6.6244309e-05
9.6131879e-05
0.00014919635
0.00013808952
0.00011546391
0.00013293047
0.00022182045
0.00022354056
0.00017123237
0.00017194694
0.00029099231
0.00026870684
0.00023659163
0.0002348706
0.0002168721
8.8451618e-07
1.264393e-06
3.2770542e-06
7.0465665e-06
1.0717581e-05
1.4434908e-05
2.0524498e-05
3.1140025e-05
4.0593634e-05
4.1678734e-05
4.674773e-05
6.0019272e-05
7.7619378e-05
9.513436e-05
8.9830223e-05
8.3277459e-05
0.00010363424
0.00022186497
0.0002407292
0.000189823
0.00015318171
0.00019646331
0.00029246982
0.00030316888
0.00028152609
0.00027053133
0.000237907
8.0730374e-07
1.4959382e-06
3.3786002e-06
7.0041108e-06
1.097649e-05
1.5081737e-05
2.2207302e-05
3.2026645e-05
4.201473e-05
4.6358247e-05
5.6081272e-05
6.9974187e-05
8.1314079e-05
7.7857304e-05
7.515933e-05
8.612563e-05
0.00013241315
0.00019508995
0.00016238876
0.00015397306
0.00021624875
0.00027148943
0.00025726871
0.0002601773
0.00031707404
0.00029769306
0.00025769148
9.3098478e-07
1.4909453e-06
2.9601296e-06
6.0067736e-06
8.5364659e-06
1.4174919e-05
2.1545399e-05
3.1784547e-05
5.0465256e-05
8.145178e-05
8.2850624e-05
7.9890323e-05
7.9027821e-05
8.4443896e-05
9.5016196e-05
0.000119909
0.00013406721
0.00011900912
0.00011748718
0.00015820892
0.00026870895
0.00028805672
0.00026173661
0.00033089367
0.00033950942
0.00031164191
0.0002751113
1.1871377e-06
1.2752162e-06
1.6362033e-06
4.1800443e-06
6.3360728e-06
9.8978456e-06
1.6235737e-05
3.2710784e-05
5.9085306e-05
9.6385648e-05
0.00011788648
9.9980965e-05
0.00010569061
0.00012427511
0.00016290552
0.00015524326
0.00011810471
0.00011402378
0.00013069902
0.00017254939
0.00019876256
0.00020514395
0.00034134309
0.00037300997
0.00034510702
0.00024000494
0.00028376955
1.1645035e-06
1.1162723e-06
1.55757e-06
3.2677617e-06
4.7674245e-06
7.1981592e-06
1.1815479e-05
2.0529121e-05
3.8097953e-05
6.5600189e-05
9.8072734e-05
0.00014529985
0.00024127506
0.00031051414
0.00023188221
0.00014958235
0.00013737855
0.00016012165
0.00018173045
0.00015803024
0.00015644953
0.00021740437
0.00040046829
0.00038660634
0.00033385366
0.00026830741
0.00028681097
9.861161e-07
1.077318e-06
1.7990072e-06
3.1529881e-06
5.5757968e-06
7.6046465e-06
1.1965857e-05
2.2058363e-05
3.9223703e-05
6.4899513e-05
0.00010183203
0.00017141543
0.00029206868
0.00025881646
0.00018174749
0.00017611912
0.00023650739
0.00034560759
0.00023883694
0.00017055178
0.00018471026
0.00029504779
0.00040767484
0.00031941185
0.00033517204
0.00030778051
0.00029076349
9.1012412e-07
1.1340424e-06
2.0149892e-06
3.8723662e-06
6.8649169e-06
1.0929443e-05
2.0492141e-05
3.7697775e-05
6.3385189e-05
9.6287748e-05
0.00012406521
0.00012932047
0.00012714057
0.00013376768
0.0001619367
0.00027446625
0.00035432116
0.00038739125
0.00025128218
0.00024722613
0.00031609768
0.00034295176
0.00026634989
0.00025304742
0.00035273683
0.00031667022
0.0002996894
9.3934397e-07
1.3580861e-06
2.8498257e-06
5.2416552e-06
9.9380548e-06
2.1746515e-05
4.7332595e-05
0.00010984405
0.00015857777
0.00016345216
0.00013075465
0.00010549702
0.00010532851
0.00013787758
0.00019916759
0.00029261838
0.00028728884
0.00024914413
0.00029678503
0.00052708566
0.00053960079
0.00028988931
0.00023552956
0.00025430168
0.00034639234
0.00033792261
0.00031752081
1.103478e-06
1.9687641e-06
4.5311475e-06
9.1132123e-06
2.4731985e-05
6.6786904e-05
0.00011854107
0.0001562725
0.00017201714
0.00013026734
0.00012328231
0.00013369228
0.00017861433
0.00025961385
0.00024599344
0.0002003619
0.00019740133
0.00024131285
0.00043951671
0.00055458882
0.00034717844
0.00025131994
0.00026067494
0.00029863821
0.00031062216
0.00029622604
0.00034738674
1.4407451e-06
3.2206555e-06
7.9417382e-06
2.6526294e-05
7.0646124e-05
0.00011650487
0.00012508148
0.00010672347
0.00010316648
0.00011748251
0.00016632302
0.00024253443
0.00025946719
0.00026046931
0.00018296304
0.00017626914
0.0002216842
0.00033361881
0.00041781053
0.00027482409
0.00022208552
0.00025083139
0.00036303851
0.00037627197
0.00029651175
0.00026885766
0.00034266673
1.5329192e-06
5.3362532e-06
1.903915e-05
5.3379381e-05
9.724711e-05
8.9503056e-05
8.9444789e-05
9.3445559e-05
0.00011165237
0.00014845052
0.00016767819
0.00015433679
0.00013537386
0.00013062959
0.00014988838
0.00021760768
0.00041796162
0.00040222531
0.00023889214
0.00017799334
0.00019028912
0.00028302937
0.00050260105
0.00048665732
0.00031046987
0.00029555857
0.00037063739
1.753495e-06
7.8413231e-06
2.6843361e-05
6.9394191e-05
7.4699713e-05
8.3779758e-05
0.0001049311
0.00013399373
0.0001631453
0.00015399254
0.00011951723
0.00010428683
0.00010099806
0.00011579932
0.00017095651