/*--------------------------------*- C++ -*----------------------------------*\
| =========                 |                                                 |
| \\      /  F ield         | OpenFOAM: The Open Source CFD Toolbox           |
|  \\    /   O peration     | Version:  2406                                  |
|   \\  /    A nd           | Website:  www.openfoam.com                      |
|    \\/     M anipulation  |                                                 |
\*---------------------------------------------------------------------------*/
FoamFile
{
    version     2.0;
    format      ascii;
    arch        "LSB;label=32;scalar=64";
    class       volScalarField;
    location    "19";
    object      nut;
}
// * * * * * * * * * * * * * * * * * * * * * * * * * * * * * * * * * * * * * //

dimensions      [0 2 -1 0 0 0 0];

internalField   nonuniform List<scalar> 
62344
(
1.0487943e-06
1.0905519e-06
1.0434801e-06
9.9529508e-07
9.7439236e-07
9.8407025e-07
1.0047047e-06
1.0070547e-06
9.9787882e-07
9.7116476e-07
9.5085788e-07
9.3670392e-07
9.3362745e-07
9.6192315e-07
9.8587193e-07
1.016021e-06
1.0437191e-06
1.0662994e-06
1.0861822e-06
1.1013793e-06
1.1066587e-06
1.1052253e-06
1.1223277e-06
1.1429682e-06
1.1597656e-06
1.1894517e-06
1.2383147e-06
1.2731844e-06
1.3199604e-06
1.4055443e-06
1.5885746e-06
1.7299207e-06
1.9360451e-06
2.1256838e-06
2.4812053e-06
2.771199e-06
3.2613792e-06
3.7827158e-06
4.2320366e-06
5.1550705e-06
6.082366e-06
7.4771313e-06
8.6728623e-06
1.0485296e-05
1.2930054e-05
1.5462539e-05
1.8818779e-05
2.2303885e-05
2.5490828e-05
2.8616582e-05
3.0661528e-05
3.2359963e-05
3.4984263e-05
3.8855332e-05
4.6710459e-05
1.0477065e-06
1.0907209e-06
1.0451662e-06
9.9571259e-07
9.735741e-07
9.832239e-07
1.0035679e-06
1.0094436e-06
9.9771608e-07
9.7003375e-07
9.4926364e-07
9.353179e-07
9.2775045e-07
9.5287509e-07
9.7650248e-07
1.0034183e-06
1.0301269e-06
1.0405694e-06
1.0552455e-06
1.0706032e-06
1.0772543e-06
1.071859e-06
1.0755689e-06
1.0821795e-06
1.0935528e-06
1.1237331e-06
1.172456e-06
1.2021655e-06
1.2452019e-06
1.3342153e-06
1.4849985e-06
1.6023456e-06
1.7851957e-06
1.9574511e-06
2.2430627e-06
2.476832e-06
2.9958634e-06
3.3516588e-06
3.9822376e-06
4.5815275e-06
5.5391274e-06
6.5061357e-06
7.709597e-06
9.1561053e-06
1.1593696e-05
1.4796511e-05
1.7665864e-05
2.0981777e-05
2.6709735e-05
3.1397668e-05
3.6620547e-05
4.1561784e-05
4.5051736e-05
4.8044566e-05
5.0197241e-05
1.0472709e-06
1.0927546e-06
1.0469248e-06
9.9810342e-07
9.754598e-07
9.8326526e-07
1.001673e-06
1.0090244e-06
1.0043464e-06
9.7571776e-07
9.5162108e-07
9.3859161e-07
9.3017487e-07
9.5336601e-07
9.7725214e-07
1.0028015e-06
1.0323613e-06
1.0515149e-06
1.0602573e-06
1.0733827e-06
1.0805144e-06
1.0758745e-06
1.0691123e-06
1.0612459e-06
1.066895e-06
1.0966252e-06
1.1554683e-06
1.2024052e-06
1.2529171e-06
1.3292628e-06
1.4568817e-06
1.5642471e-06
1.7458122e-06
1.9205741e-06
2.1219634e-06
2.34474e-06
2.8696747e-06
3.1593316e-06
3.7977676e-06
4.3879341e-06
5.2178764e-06
6.0917505e-06
7.6245651e-06
9.0765055e-06
1.2276875e-05
1.4552156e-05
1.7614487e-05
2.1869994e-05
2.7128868e-05
3.2610163e-05
3.7212262e-05
4.0877496e-05
4.4274843e-05
5.0145831e-05
5.3964182e-05
1.0468181e-06
1.0943765e-06
1.0481301e-06
9.9890165e-07
9.7601956e-07
9.8386893e-07
1.0033403e-06
1.0120004e-06
1.0042202e-06
9.7694258e-07
9.5061538e-07
9.3646907e-07
9.3402508e-07
9.4847531e-07
9.703132e-07
1.0009837e-06
1.0359237e-06
1.0516589e-06
1.0592776e-06
1.070713e-06
1.0807702e-06
1.0812065e-06
1.0619681e-06
1.0592561e-06
1.0613724e-06
1.085425e-06
1.1489817e-06
1.2053291e-06
1.2491694e-06
1.3198282e-06
1.4486232e-06
1.5631601e-06
1.7450114e-06
1.9352786e-06
2.0912282e-06
2.3277424e-06
2.8730374e-06
3.1330365e-06
3.7759686e-06
4.3893415e-06
5.1072404e-06
5.8814614e-06
7.5849659e-06
9.209547e-06
1.2336275e-05
1.4744468e-05
1.8606547e-05
2.5047627e-05
3.0469708e-05
3.6571964e-05
3.9315529e-05
4.2960309e-05
4.5139463e-05
4.9797503e-05
5.2716831e-05
1.0465199e-06
1.096347e-06
1.050803e-06
9.9979168e-07
9.7496375e-07
9.8338202e-07
1.0043246e-06
1.0137554e-06
1.0077999e-06
9.8062015e-07
9.519226e-07
9.3958794e-07
9.3495544e-07
9.4857499e-07
9.7222518e-07
1.0048053e-06
1.0368003e-06
1.0449127e-06
1.0547564e-06
1.0671666e-06
1.0765203e-06
1.0742705e-06
1.057341e-06
1.0556803e-06
1.0580563e-06
1.0817153e-06
1.1388649e-06
1.1921164e-06
1.2289645e-06
1.2955278e-06
1.4211269e-06
1.5495789e-06
1.7127791e-06
1.8770146e-06
2.0129445e-06
2.2226539e-06
2.6931299e-06
2.971836e-06
3.5916445e-06
4.3587981e-06
4.9328282e-06
5.7019728e-06
7.5881881e-06
9.2406009e-06
1.1876087e-05
1.5299074e-05
2.0020065e-05
2.8050033e-05
3.3240374e-05
4.1356607e-05
4.5763373e-05
5.2046988e-05
5.3887949e-05
5.9414145e-05
6.0167626e-05
1.0458801e-06
1.0974217e-06
1.0533721e-06
1.0026891e-06
9.7650255e-07
9.8418252e-07
1.0033081e-06
1.0156206e-06
1.0111839e-06
9.8278815e-07
9.5810143e-07
9.4411833e-07
9.3685625e-07
9.5227311e-07
9.7732379e-07
1.006972e-06
1.037127e-06
1.0533982e-06
1.0648848e-06
1.0803405e-06
1.0837867e-06
1.0662169e-06
1.0606369e-06
1.0562936e-06
1.0565851e-06
1.075604e-06
1.1229147e-06
1.1675293e-06
1.2061165e-06
1.2797944e-06
1.4109826e-06
1.5336265e-06
1.6855272e-06
1.8347772e-06
1.9667372e-06
2.1766098e-06
2.5580571e-06
2.8338992e-06
3.423161e-06
4.2587708e-06
4.8041582e-06
5.7388269e-06
7.3467248e-06
8.7236277e-06
1.0633631e-05
1.4528432e-05
1.9234149e-05
2.6976491e-05
3.1992715e-05
4.1580843e-05
4.8483492e-05
5.8201964e-05
6.3732791e-05
7.2031546e-05
7.4603977e-05
1.0453391e-06
1.0989408e-06
1.0556219e-06
1.003416e-06
9.7703946e-07
9.8462931e-07
1.0064104e-06
1.020322e-06
1.0107735e-06
9.8492264e-07
9.6111297e-07
9.4264914e-07
9.4099557e-07
9.5023478e-07
9.7633638e-07
1.0057306e-06
1.0353735e-06
1.0574832e-06
1.0712089e-06
1.0864187e-06
1.0912864e-06
1.0726284e-06
1.0661874e-06
1.0664478e-06
1.0693129e-06
1.0821647e-06
1.1074335e-06
1.14586e-06
1.1949565e-06
1.2614178e-06
1.379552e-06
1.5025754e-06
1.6575242e-06
1.7946669e-06
1.939294e-06
2.1680603e-06
2.4300092e-06
2.6800695e-06
3.1201806e-06
3.8733093e-06
4.4943519e-06
5.6387181e-06
6.8672418e-06
8.1887811e-06
1.0249823e-05
1.4514774e-05
1.6914313e-05
2.1563112e-05
2.7402665e-05
3.7167224e-05
4.4089874e-05
5.4718967e-05
6.3202881e-05
7.4905354e-05
8.1457677e-05
1.0448301e-06
1.1000506e-06
1.057492e-06
1.0035239e-06
9.7589727e-07
9.8279087e-07
1.0065601e-06
1.0194773e-06
1.0153156e-06
9.9034963e-07
9.6011585e-07
9.4572253e-07
9.4183139e-07
9.4617708e-07
9.7515539e-07
1.0045967e-06
1.0352715e-06
1.0552251e-06
1.0652893e-06
1.0790835e-06
1.0886028e-06
1.0803038e-06
1.0658671e-06
1.0668438e-06
1.073693e-06
1.0874445e-06
1.1046929e-06
1.1300545e-06
1.1859032e-06
1.2504583e-06
1.3334416e-06
1.4494307e-06
1.6300577e-06
1.7577753e-06
1.927813e-06
2.1644388e-06
2.4063966e-06
2.6371276e-06
3.0434281e-06
3.5279967e-06
4.0097482e-06
5.1656512e-06
6.3564562e-06
7.4197108e-06
1.0060469e-05
1.3141566e-05
1.5088272e-05
1.888419e-05
2.3119262e-05
2.9802761e-05
3.3761263e-05
4.138983e-05
5.055696e-05
6.3949433e-05
7.5259315e-05
1.0443423e-06
1.1013366e-06
1.0583248e-06
1.0061354e-06
9.7687769e-07
9.8300172e-07
1.003923e-06
1.0187551e-06
1.0198689e-06
9.9281439e-07
9.6144321e-07
9.510158e-07
9.3869942e-07
9.4522467e-07
9.764005e-07
1.0020028e-06
1.0336005e-06
1.0532429e-06
1.0641168e-06
1.0744799e-06
1.0790929e-06
1.0775586e-06
1.066831e-06
1.0603078e-06
1.0637844e-06
1.0779735e-06
1.094619e-06
1.125916e-06
1.1832542e-06
1.2466967e-06
1.3167736e-06
1.4112737e-06
1.5737239e-06
1.7442192e-06
1.9010509e-06
2.1744623e-06
2.4198699e-06
2.667088e-06
3.0140556e-06
3.4359249e-06
3.8177304e-06
4.6827347e-06
5.7404346e-06
6.9440426e-06
9.7051213e-06
1.2505669e-05
1.4333143e-05
1.7841825e-05
2.1273e-05
2.6547291e-05
2.93403e-05
3.4382849e-05
3.9819029e-05
4.9068702e-05
5.9970647e-05
1.0439063e-06
1.1025008e-06
1.0589451e-06
1.0075284e-06
9.7793149e-07
9.8466168e-07
1.0038186e-06
1.0206337e-06
1.0202879e-06
9.9495963e-07
9.6661427e-07
9.5023545e-07
9.4092007e-07
9.5159836e-07
9.8041918e-07
1.0021453e-06
1.0309329e-06
1.0601869e-06
1.073273e-06
1.0858537e-06
1.0857709e-06
1.0786757e-06
1.0688732e-06
1.0605375e-06
1.057884e-06
1.0693861e-06
1.0866661e-06
1.1193132e-06
1.1771542e-06
1.2416688e-06
1.3122291e-06
1.4045167e-06
1.5513746e-06
1.7420945e-06
1.8800298e-06
2.174733e-06
2.4249156e-06
2.7754753e-06
3.0325818e-06
3.4439225e-06
3.7809997e-06
4.5655279e-06
5.3475297e-06
6.8207715e-06
9.1662449e-06
1.194001e-05
1.3993513e-05
1.7572215e-05
2.0823125e-05
2.5698016e-05
2.843724e-05
3.3110144e-05
3.769539e-05
4.5525928e-05
5.4378337e-05
1.0436322e-06
1.103359e-06
1.0602919e-06
1.0071177e-06
9.7733135e-07
9.8358679e-07
1.0048899e-06
1.0205808e-06
1.0202614e-06
9.9634762e-07
9.6876488e-07
9.4524984e-07
9.4670748e-07
9.553402e-07
9.8146354e-07
1.0022304e-06
1.0309198e-06
1.0672785e-06
1.0841427e-06
1.0934718e-06
1.0969467e-06
1.086573e-06
1.0750794e-06
1.0688856e-06
1.0649012e-06
1.0737904e-06
1.0882524e-06
1.1092174e-06
1.1586754e-06
1.2291905e-06
1.3187178e-06
1.4228681e-06
1.5501121e-06
1.7431665e-06
1.8725173e-06
2.1592466e-06
2.4086362e-06
2.7769367e-06
3.0332401e-06
3.4482868e-06
3.7920778e-06
4.5404372e-06
5.2767289e-06
6.7436989e-06
9.1077955e-06
1.1713355e-05
1.4063485e-05
1.7639125e-05
2.1145845e-05
2.560872e-05
2.8668856e-05
3.4032764e-05
3.9863304e-05
4.8955289e-05
5.7217941e-05
1.0432494e-06
1.1039919e-06
1.0617741e-06
1.0075056e-06
9.7719607e-07
9.8162601e-07
1.004678e-06
1.0209883e-06
1.0221907e-06
9.9799147e-07
9.6746669e-07
9.4271108e-07
9.4781034e-07
9.5276902e-07
9.7571397e-07
9.9952043e-07
1.0300896e-06
1.0648446e-06
1.0849053e-06
1.0908912e-06
1.0969725e-06
1.0944792e-06
1.0812383e-06
1.0718717e-06
1.0717072e-06
1.0843871e-06
1.0989884e-06
1.1115357e-06
1.1471778e-06
1.2157476e-06
1.3212806e-06
1.429755e-06
1.5483899e-06
1.7419254e-06
1.8714956e-06
2.1383224e-06
2.3653516e-06
2.7137738e-06
2.9705368e-06
3.3987638e-06
3.794192e-06
4.5303144e-06
5.2619247e-06
6.7316815e-06
9.3309404e-06
1.15261e-05
1.4284878e-05
1.8036649e-05
2.2259314e-05
2.5977544e-05
2.9951748e-05
3.6791042e-05
4.5610455e-05
5.6030993e-05
6.4437226e-05
1.0427386e-06
1.1044992e-06
1.0624609e-06
1.009778e-06
9.781049e-07
9.8210726e-07
1.0044454e-06
1.0236945e-06
1.025735e-06
1.0033785e-06
9.6943591e-07
9.4404131e-07
9.5079766e-07
9.4689195e-07
9.6984306e-07
9.9371704e-07
1.0244593e-06
1.0558324e-06
1.0783625e-06
1.0787767e-06
1.0794744e-06
1.0856043e-06
1.0801068e-06
1.0668824e-06
1.0700086e-06
1.0848753e-06
1.1007327e-06
1.113649e-06
1.1471691e-06
1.2130732e-06
1.3127034e-06
1.4176477e-06
1.5372268e-06
1.7355729e-06
1.8547112e-06
2.0905021e-06
2.283963e-06
2.601712e-06
2.8432507e-06
3.2609558e-06
3.7842144e-06
4.4586249e-06
5.2460202e-06
6.7712408e-06
9.3847306e-06
1.1313515e-05
1.4058382e-05
1.792772e-05
2.2337168e-05
2.5740301e-05
3.0102742e-05
3.8159444e-05
4.8254131e-05
5.8210616e-05
6.590392e-05
1.04221e-06
1.1045354e-06
1.062859e-06
1.0112807e-06
9.7838072e-07
9.8297863e-07
1.0051931e-06
1.024225e-06
1.027789e-06
1.0075619e-06
9.7446397e-07
9.4983291e-07
9.5149939e-07
9.4962392e-07
9.6875269e-07
9.9320767e-07
1.0188524e-06
1.0509705e-06
1.074238e-06
1.0743955e-06
1.0700469e-06
1.0749698e-06
1.0734554e-06
1.055839e-06
1.0574103e-06
1.0729245e-06
1.0921563e-06
1.1082183e-06
1.1454593e-06
1.2042725e-06
1.2945383e-06
1.3874704e-06
1.5121258e-06
1.7186742e-06
1.8236264e-06
2.0136252e-06
2.2203928e-06
2.5092045e-06
2.7543665e-06
3.0698418e-06
3.7089911e-06
4.25299e-06
5.2118458e-06
6.5911052e-06
9.1564215e-06
1.0876481e-05
1.3685352e-05
1.7523782e-05
2.1902278e-05
2.5031274e-05
2.9682035e-05
3.7828386e-05
4.4422074e-05
5.1293445e-05
6.4471344e-05
1.0417724e-06
1.1047181e-06
1.0639499e-06
1.0109293e-06
9.7721261e-07
9.8141363e-07
1.0051217e-06
1.0228244e-06
1.0268919e-06
1.0077949e-06
9.7442586e-07
9.5350766e-07
9.4954362e-07
9.5156126e-07
9.6942857e-07
9.9468198e-07
1.019015e-06
1.0506682e-06
1.0706679e-06
1.0828548e-06
1.0758714e-06
1.0744891e-06
1.0693083e-06
1.049069e-06
1.0437755e-06
1.0574582e-06
1.0751302e-06
1.0902043e-06
1.1245216e-06
1.1819512e-06
1.2704342e-06
1.3654444e-06
1.4852772e-06
1.6809926e-06
1.7934287e-06
1.9600429e-06
2.1898439e-06
2.420584e-06
2.7124188e-06
2.9567441e-06
3.5484107e-06
4.0465449e-06
5.0305586e-06
6.0475629e-06
8.2598831e-06
9.8076888e-06
1.2263214e-05
1.5326556e-05
1.9181722e-05
2.1528256e-05
2.5437973e-05
3.2871277e-05
4.2751341e-05
4.2554217e-05
4.8668862e-05
1.0414391e-06
1.1049384e-06
1.0655296e-06
1.0102178e-06
9.7621682e-07
9.7872988e-07
1.0030465e-06
1.0215463e-06
1.0244673e-06
1.0056705e-06
9.7093818e-07
9.4964224e-07
9.453513e-07
9.4964725e-07
9.6600787e-07
9.9261031e-07
1.0217342e-06
1.0511155e-06
1.0704808e-06
1.0839399e-06
1.0859962e-06
1.0785505e-06
1.0683927e-06
1.0480191e-06
1.0371675e-06
1.0507087e-06
1.0675793e-06
1.0805814e-06
1.1063865e-06
1.1545126e-06
1.2409483e-06
1.3367185e-06
1.4472445e-06
1.6209247e-06
1.7376823e-06
1.8839502e-06
2.1457376e-06
2.3102279e-06
2.6288515e-06
2.8595966e-06
3.3658372e-06
3.7898183e-06
4.8048598e-06
5.4852856e-06
6.9923624e-06
8.1639967e-06
9.9804275e-06
1.1840552e-05
1.473633e-05
1.6890793e-05
1.9400061e-05
2.4291006e-05
3.2989028e-05
4.1728581e-05
3.8564932e-05
1.0410775e-06
1.1051877e-06
1.0669036e-06
1.0106548e-06
9.7666054e-07
9.7751685e-07
1.000915e-06
1.022037e-06
1.0241376e-06
1.0052793e-06
9.7065948e-07
9.4313291e-07
9.4455191e-07
9.5047571e-07
9.6136399e-07
9.8808216e-07
1.0226765e-06
1.0499017e-06
1.0726342e-06
1.0814784e-06
1.0847628e-06
1.0813498e-06
1.0695511e-06
1.0528642e-06
1.0374742e-06
1.046823e-06
1.061055e-06
1.0730567e-06
1.0973095e-06
1.1334777e-06
1.205737e-06
1.2805392e-06
1.3812634e-06
1.5209382e-06
1.6425754e-06
1.7506106e-06
2.0193915e-06
2.157273e-06
2.4646268e-06
2.6699404e-06
3.1579784e-06
3.4663371e-06
4.366898e-06
4.9444333e-06
6.1607008e-06
6.6896643e-06
8.0459706e-06
9.0007099e-06
1.0919872e-05
1.3516839e-05
1.6430996e-05
1.9569306e-05
2.4838378e-05
3.157508e-05
3.7461799e-05
1.0407014e-06
1.1052487e-06
1.0673678e-06
1.0123702e-06
9.7839123e-07
9.7856988e-07
1.0009215e-06
1.024788e-06
1.027574e-06
1.0106158e-06
9.7570135e-07
9.4156426e-07
9.461799e-07
9.5469415e-07
9.617361e-07
9.8443349e-07
1.0209265e-06
1.0421639e-06
1.0677888e-06
1.0692317e-06
1.0714847e-06
1.0711371e-06
1.055892e-06
9.7029869e-07
1.0225374e-06
1.0237701e-06
1.0321099e-06
1.0403314e-06
1.0548841e-06
1.0774704e-06
1.1306303e-06
1.1623971e-06
1.2353808e-06
1.3208521e-06
1.4430803e-06
1.5189109e-06
1.7319429e-06
1.862536e-06
2.1654267e-06
2.3218095e-06
2.7937366e-06
3.0617191e-06
3.7268798e-06
4.1682437e-06
5.0927915e-06
5.6710288e-06
6.3778398e-06
7.339473e-06
8.523787e-06
9.9576718e-06
1.2252141e-05
1.5495086e-05
1.9040084e-05
2.3766589e-05
2.8110865e-05
1.0402405e-06
1.1057862e-06
1.0673172e-06
1.0140563e-06
9.7943364e-07
9.7983693e-07
1.0019697e-06
1.0253049e-06
1.0309182e-06
1.0147494e-06
9.7856076e-07
9.4173861e-07
9.4636038e-07
9.5202365e-07
9.5528519e-07
9.7344809e-07
1.0042513e-06
1.0190188e-06
1.0413111e-06
1.0330207e-06
9.7382004e-07
1.0299322e-06
1.0022575e-06
6.9067027e-07
9.7766798e-07
9.6720188e-07
9.6782819e-07
9.689688e-07
9.7297362e-07
9.9268168e-07
1.0167591e-06
1.0251626e-06
1.0445199e-06
1.0839639e-06
1.1612912e-06
1.2009779e-06
1.3261825e-06
1.4035838e-06
1.6861685e-06
1.8238348e-06
2.229213e-06
2.4852782e-06
3.0183687e-06
3.4933856e-06
4.2802585e-06
5.0689198e-06
5.3948703e-06
6.3367209e-06
7.2981638e-06
8.3651502e-06
9.6096163e-06
1.158803e-05
1.3814052e-05
1.6923585e-05
2.0935669e-05
1.0397628e-06
1.1048692e-06
1.066321e-06
1.013266e-06
9.7760846e-07
9.7685768e-07
9.9819804e-07
1.018558e-06
1.0242384e-06
1.0049383e-06
9.6887174e-07
9.3151545e-07
9.3075338e-07
9.3075079e-07
9.3031374e-07
9.4503885e-07
9.6664151e-07
9.1337964e-07
9.4628961e-07
9.8354811e-07
8.6734819e-07
9.7993517e-07
7.9941323e-07
6.2273396e-07
9.33234e-07
8.4115974e-07
8.8724637e-07
7.8448931e-07
7.7773915e-07
9.2786871e-07
9.3978996e-07
7.2723278e-07
8.8573786e-07
7.6793462e-07
1.0248703e-06
1.0501647e-06
1.1339982e-06
1.1772265e-06
1.1319722e-06
1.4483935e-06
1.8152697e-06
2.071496e-06
2.4988119e-06
2.9507769e-06
3.4781009e-06
4.348144e-06
4.0618701e-06
5.3318736e-06
6.3774491e-06
7.1849472e-06
8.2865774e-06
9.1737668e-06
1.0836348e-05
1.202659e-05
1.4612017e-05
1.038843e-06
1.103583e-06
1.063909e-06
1.0082395e-06
9.6968247e-07
9.6434431e-07
9.817886e-07
9.9600086e-07
9.9881245e-07
9.7765893e-07
9.4169813e-07
9.0866438e-07
9.0165332e-07
8.9931616e-07
9.0052075e-07
9.1213833e-07
9.2841459e-07
9.4153928e-07
9.114074e-07
9.5285881e-07
9.5343206e-07
9.5967805e-07
7.0276453e-07
7.4300529e-07
9.4552559e-07
8.4634682e-07
9.4314884e-07
9.0893832e-07
7.8840628e-07
9.7994367e-07
9.9686475e-07
6.3237744e-07
6.5972779e-07
6.4713674e-07
6.8763853e-07
1.0983625e-06
1.0841858e-06
7.688488e-07
7.1311927e-07
9.2282e-07
1.321057e-06
1.8431273e-06
2.1869553e-06
2.6041232e-06
2.9888592e-06
3.7081717e-06
3.2286561e-06
4.2644164e-06
5.6512717e-06
6.1397078e-06
6.997722e-06
7.5535546e-06
8.6537239e-06
9.2618042e-06
1.0643915e-05
1.0360971e-06
1.0956837e-06
1.0515276e-06
9.9074759e-07
9.467354e-07
9.340073e-07
9.4604617e-07
9.5786681e-07
9.6256832e-07
9.4682875e-07
9.1965214e-07
8.9589305e-07
8.920141e-07
8.958332e-07
9.041151e-07
9.1738073e-07
9.2053502e-07
9.6826088e-07
9.8569409e-07
1.004137e-06
1.0217525e-06
8.6137657e-07
7.2470301e-07
9.8260096e-07
1.0946468e-06
1.1150983e-06
1.1443681e-06
1.1556282e-06
1.1246131e-06
1.2429882e-06
1.28511e-06
8.7275245e-07
8.0257086e-07
8.896804e-07
8.2919408e-07
1.4068036e-06
1.5606714e-06
9.0234342e-07
7.3084337e-07
9.0852593e-07
9.9226996e-07
1.144963e-06
1.770766e-06
2.4941501e-06
2.8251984e-06
3.2151809e-06
2.6816263e-06
3.5690202e-06
4.9928655e-06
5.3949666e-06
6.1223856e-06
6.5717072e-06
7.3553238e-06
7.8555423e-06
8.6395849e-06
1.0237006e-06
1.0688935e-06
1.0170561e-06
9.575595e-07
9.1424673e-07
8.9709494e-07
9.0933515e-07
9.2379985e-07
9.3808057e-07
9.447139e-07
9.499453e-07
9.5838759e-07
9.7052744e-07
9.8822303e-07
1.0045795e-06
1.0404378e-06
9.4029368e-07
9.9762446e-07
1.1456677e-06
1.1868526e-06
1.2279011e-06
9.9233928e-07
9.1855752e-07
1.1512208e-06
1.3926491e-06
1.4473406e-06
1.5148492e-06
1.5508476e-06
1.5009133e-06
1.6949321e-06
1.792708e-06
1.5996197e-06
1.3891403e-06
1.5791703e-06
1.5305088e-06
2.0994438e-06
2.4494933e-06
1.9092646e-06
1.3552895e-06
1.6381465e-06
1.4897051e-06
1.3020909e-06
1.699353e-06
2.9911527e-06
3.2190467e-06
2.7316344e-06
2.3263036e-06
3.0805786e-06
4.5849389e-06
4.9492375e-06
5.5112414e-06
5.9250636e-06
6.5212363e-06
6.9584467e-06
6.957718e-06
9.9937406e-07
1.0224804e-06
9.8194113e-07
9.3447138e-07
9.0383214e-07
8.8441775e-07
9.1210085e-07
9.3083597e-07
9.7122744e-07
1.0360568e-06
1.0931246e-06
1.1393997e-06
1.1203194e-06
1.1984646e-06
1.2200152e-06
1.269563e-06
1.0560199e-06
1.0780431e-06
1.3945608e-06
1.4612527e-06
1.46059e-06
1.2477835e-06
1.2363208e-06
1.371004e-06
1.7458273e-06
1.8357161e-06
1.9467996e-06
1.9335285e-06
1.8898444e-06
2.0765012e-06
2.3629341e-06
2.4602214e-06
2.3574491e-06
2.7124058e-06
2.8818125e-06
3.3073166e-06
3.5812833e-06
3.8615948e-06
2.9260419e-06
3.2842581e-06
3.0280414e-06
2.5035142e-06
2.6583753e-06
4.5197193e-06
4.682468e-06
3.1565798e-06
2.5998547e-06
3.0675826e-06
3.8216819e-06
4.3333339e-06
5.0904044e-06
5.5689857e-06
5.8110501e-06
5.99464e-06
6.1121491e-06
9.5497563e-07
1.0030612e-06
1.0186234e-06
1.011504e-06
1.0087143e-06
1.0127232e-06
1.0340664e-06
1.0677314e-06
1.1485713e-06
1.1990721e-06
1.2532682e-06
1.3257581e-06
1.2267327e-06
1.2435806e-06
1.4181082e-06
1.3903743e-06
1.2324903e-06
1.2586479e-06
1.45245e-06
1.6390882e-06
1.5343482e-06
1.4847204e-06
1.5075359e-06
1.5763625e-06
1.7450891e-06
1.9014518e-06
2.0262863e-06
2.0278842e-06
2.0335558e-06
2.1656563e-06
2.4483174e-06
2.5176659e-06
2.5209288e-06
2.6825021e-06
2.7440435e-06
3.0493042e-06
3.204696e-06
3.3363726e-06
3.1746799e-06
3.3193757e-06
3.1971716e-06
2.8057481e-06
3.0998299e-06
4.1406445e-06
4.2173301e-06
3.6775207e-06
2.8940292e-06
3.208829e-06
3.7144289e-06
3.6620628e-06
3.6847752e-06
4.0752836e-06
4.3086749e-06
4.3645701e-06
4.4586088e-06
8.1989678e-07
1.1555623e-06
1.2678411e-06
1.2799079e-06
1.2890274e-06
1.2864482e-06
1.2832524e-06
1.2592786e-06
1.278324e-06
1.2988421e-06
1.3095187e-06
1.3425168e-06
1.3288482e-06
1.2882487e-06
1.2894079e-06
1.2860486e-06
1.2492715e-06
1.2492637e-06
1.2819198e-06
1.3262023e-06
1.3432522e-06
1.3379654e-06
1.353878e-06
1.3952423e-06
1.441159e-06
1.4818474e-06
1.5049263e-06
1.522116e-06
1.5338705e-06
1.5366329e-06
1.5359173e-06
1.5356154e-06
1.5496092e-06
1.581854e-06
1.6290977e-06
1.6469267e-06
1.7128955e-06
1.7534704e-06
1.7880544e-06
1.7976755e-06
1.8313266e-06
1.7507275e-06
1.5733268e-06
1.8277819e-06
2.1725963e-06
2.1495393e-06
2.0021749e-06
2.0938839e-06
2.1132101e-06
2.1497267e-06
2.2024886e-06
2.2593112e-06
2.3157251e-06
2.3544265e-06
2.3943398e-06
1.2108363e-06
1.7414295e-06
1.4955354e-06
1.3162464e-06
1.1789896e-06
1.0205198e-06
8.8219494e-07
7.7184383e-07
7.0676418e-07
6.6176487e-07
6.1775859e-07
5.7438438e-07
5.4457999e-07
5.3796019e-07
5.4596402e-07
5.5044344e-07
5.4988873e-07
5.4555833e-07
5.5398216e-07
5.6813603e-07
5.5738881e-07
5.4572645e-07
5.4343228e-07
5.4646712e-07
5.4090964e-07
5.3726928e-07
5.3912009e-07
5.5205378e-07
5.7152305e-07
6.0324796e-07
6.4517411e-07
6.768023e-07
6.8244761e-07
6.5836686e-07
6.4091187e-07
6.5124253e-07
6.975499e-07
7.3732119e-07
7.3588769e-07
7.0026941e-07
7.0144512e-07
7.3730518e-07
8.0298299e-07
7.789427e-07
6.6135234e-07
7.4441023e-07
1.0309394e-06
1.2122539e-06
1.1901355e-06
1.1665397e-06
1.1509792e-06
1.1474152e-06
1.1493528e-06
1.1665552e-06
1.1937737e-06
1.1894731e-06
2.2628384e-06
4.481639e-06
6.0051633e-06
7.8063094e-06
9.1841285e-06
1.1557577e-05
1.6129194e-05
2.2629917e-05
3.099122e-05
3.4611237e-05
4.375545e-05
6.3264317e-05
7.1010063e-05
7.5276414e-05
7.6134806e-05
6.8302556e-05
7.0858277e-05
7.5460397e-05
9.0219412e-05
9.6693317e-05
8.9257607e-05
7.1508463e-05
6.474793e-05
6.5571983e-05
6.0390283e-05
5.680092e-05
1.0862354e-06
2.2391612e-06
4.6267111e-06
6.6944151e-06
8.153e-06
9.5620428e-06
1.2018185e-05
1.683059e-05
2.400585e-05
3.4821052e-05
4.6820315e-05
5.7806216e-05
6.7686762e-05
7.707316e-05
7.0989453e-05
6.6779085e-05
8.284944e-05
8.4914797e-05
8.8054552e-05
0.00010170099
0.00011095428
0.00010532003
8.4390505e-05
7.4553094e-05
7.4615537e-05
6.9263039e-05
5.3047368e-05
9.5807819e-07
2.2070562e-06
4.660269e-06
6.8405516e-06
8.3672176e-06
9.8358816e-06
1.2488956e-05
1.7956431e-05
2.732322e-05
3.9537827e-05
5.0846268e-05
6.184418e-05
6.667668e-05
5.81988e-05
5.9712466e-05
7.5967763e-05
0.00010089757
9.9397264e-05
0.00010346797
0.00011933622
0.00012788489
0.00012205801
9.682143e-05
8.4001863e-05
8.4398546e-05
7.7841769e-05
6.753101e-05
9.8031305e-07
2.024762e-06
4.3503123e-06
6.5038932e-06
7.1768075e-06
9.3571927e-06
1.2899969e-05
1.9584825e-05
3.0449916e-05
4.1407753e-05
5.1434204e-05
5.2997628e-05
4.7658797e-05
5.2287717e-05
6.9547441e-05
0.00010870758
0.00011309884
9.2898783e-05
9.4554615e-05
0.000137028
0.00014583049
0.0001417619
0.00011522936
9.6118944e-05
9.4126153e-05
8.6937048e-05
7.9703512e-05
1.1406789e-06
1.8162959e-06
3.6173375e-06
4.2519286e-06
4.9377847e-06
6.9981692e-06
1.130098e-05
1.8917898e-05
2.6487875e-05
3.0600063e-05
3.306336e-05
3.6606185e-05
4.6411648e-05
7.1793611e-05
0.00010415775
0.00011518354
8.3809718e-05
7.540679e-05
0.00010292261
0.00015239203
0.00016300438
0.00016271929
0.00013760726
0.00010964206
0.00010249548
9.7272839e-05
9.2448559e-05
9.9297164e-07
1.5822416e-06
3.1748885e-06
3.9194691e-06
4.5058301e-06
6.0581588e-06
8.5752647e-06
1.2171482e-05
1.5339202e-05
1.8583317e-05
2.3763411e-05
3.3474188e-05
5.7395546e-05
9.4085764e-05
0.00010617098
7.7646353e-05
7.0263671e-05
8.8023375e-05
0.00014520688
0.00016617604
0.00018029063
0.00018400253
0.00016004749
0.00012355168
0.00011240314
0.00010842989
0.00010512835
8.7920855e-07
1.4536103e-06
3.2866219e-06
4.5712107e-06
4.9880057e-06
5.9716527e-06
7.4945329e-06
9.9675124e-06
1.3067572e-05
1.7222404e-05
2.4615728e-05
3.8928469e-05
6.7887577e-05
7.4736021e-05
5.7970565e-05
5.7023787e-05
7.4382462e-05
0.00014023632
0.00015555141
0.00018038773
0.00016312378
0.00020416795
0.00017972639
0.00013935176
0.00012463497
0.00011983003
0.00011742705
8.2229236e-07
1.3608235e-06
3.0980807e-06
4.5463747e-06
4.560353e-06
5.1472148e-06
6.6966818e-06
9.8140974e-06
1.516318e-05
2.2612767e-05
3.7231707e-05
6.0707942e-05
5.7686466e-05
4.7489589e-05
4.6058769e-05
5.6398438e-05
8.6901577e-05
0.00014461973
0.00016617284
0.00015559561
0.00021433857
0.00022124489
0.00019931305
0.00014566793
0.00013727964
0.00013183023
0.00012954802
8.0869225e-07
1.2414204e-06
2.3085964e-06
3.374347e-06
3.5604458e-06
4.5512431e-06
7.0237931e-06
1.2780602e-05
2.4238357e-05
3.9935212e-05
5.5224872e-05
6.3488775e-05
4.9411219e-05
4.7320832e-05
5.3397066e-05
7.948996e-05
0.00011966588
0.00010692742
0.0001023462
0.00014200351
0.00023156738
0.00023505968
0.00017974974
0.00017912866
0.00015095873
0.00014585583
0.00014167912
7.9720439e-07
1.1634975e-06
1.8112016e-06
2.9308733e-06
3.5874345e-06
5.6055068e-06
1.074139e-05
2.2316653e-05
3.2196374e-05
4.2684132e-05
5.7022449e-05
4.6308169e-05
4.9101411e-05
5.7965688e-05
9.415735e-05
0.00012744521
0.00013871438
9.454671e-05
0.00010297796
0.00015515964
0.00021296233
0.0001812909
0.00020436564
0.00020175955
0.0001682708
0.00016091982
0.00015488643
8.1076906e-07
1.0355613e-06
1.9900336e-06
3.5786471e-06
5.350941e-06
1.0554399e-05
1.6008969e-05
2.411253e-05
3.4106491e-05
4.4943521e-05
3.9428531e-05
4.3619005e-05
5.5157123e-05
8.085131e-05
0.00012666355
0.00011710218
9.6951357e-05
0.00010993506
0.00018099858
0.00018195877
0.00014123619
0.00014545205
0.00025004856
0.00022643693
0.00018928988
0.00018320718
0.00016876027
7.4904563e-07
1.0483565e-06
2.680447e-06
5.7407327e-06
8.763208e-06
1.193999e-05
1.7239054e-05
2.6388562e-05
3.4216218e-05
3.4678252e-05
3.8565209e-05
4.936973e-05
6.3765668e-05
7.7637251e-05
7.2221704e-05
6.5830877e-05
8.1283483e-05
0.00017563024
0.00019657848
0.00016154243
0.00013556765
0.00017822898
0.00025970596
0.00025057959
0.00021457067
0.000202028
0.00018345098
6.4888711e-07
1.1866656e-06
2.6729394e-06
5.568355e-06
8.8367119e-06
1.2370239e-05
1.8505453e-05
2.6751939e-05
3.4644466e-05
3.7637516e-05
4.4985682e-05
5.5477406e-05
6.342805e-05
5.90561e-05
5.5276406e-05
6.2188747e-05
9.6927584e-05
0.00015012387
0.00013434631
0.00013635337
0.00020022339
0.0002538577
0.00022893234
0.00021168276
0.00023702532
0.00021904162
0.00019863656
7.5308114e-07
1.2013209e-06
2.3986982e-06
4.9063643e-06
7.0590469e-06
1.1880349e-05
1.8101141e-05
2.6298625e-05
4.0586784e-05
6.3624454e-05
6.2990335e-05
5.9068483e-05
5.6500222e-05
5.8032117e-05
6.3384745e-05
8.0073474e-05
9.3928103e-05
9.0673667e-05
9.8070668e-05
0.00014160116
0.00024826357
0.00026277218
0.00022614263
0.00026580987
0.00025583382
0.00023461024
0.00021610991
1.0274815e-06
1.1042673e-06
1.4168438e-06
3.6332518e-06
5.5371844e-06
8.6411329e-06
1.3905201e-05
2.6953091e-05
4.6396082e-05
7.2096807e-05
8.4010117e-05
6.7874418e-05
6.8563445e-05
7.8047213e-05
0.00010143281
9.9708725e-05
8.1656645e-05
8.6559833e-05
0.00010740348
0.00014927871
0.00017414535
0.00017504353
0.00028049612
0.00029663193
0.00026950146
0.00019066476
0.00023106471
1.0944683e-06
1.0521364e-06
1.4646071e-06
3.0581081e-06
4.4170643e-06
6.5119415e-06
1.0223478e-05
1.6715677e-05
2.9075099e-05
4.7019606e-05
6.6169677e-05
9.2717051e-05
0.00014783869
0.0001876154
0.00014283348
9.704163e-05
9.5800117e-05
0.00011974381
0.00014252629
0.00012687958
0.00012484561
0.00017029699
0.00031303903
0.00030776932
0.00027331876
0.00022509044
0.00024275133
9.7687231e-07
1.0689523e-06
1.772475e-06
3.0716908e-06
5.2995999e-06
6.8947802e-06
1.0135757e-05
1.7345196e-05
2.8789411e-05
4.4826393e-05
6.6797528e-05
0.00010819885
0.00018095051
0.00016146316
0.00011716346
0.00011891829
0.00016707928
0.00025150226
0.00017542711
0.00012413224
0.00013249031
0.0002137518
0.00030836555
0.00025700884
0.0002844356
0.00026749797
0.00025259912
9.1309776e-07
1.1273914e-06
1.9684494e-06
3.683848e-06
6.2426177e-06
9.3037421e-06
1.6220777e-05
2.797748e-05
4.473474e-05
6.5573237e-05
8.2456468e-05
8.5106837e-05
8.418025e-05
9.0412881e-05
0.00011219909
0.00019423752
0.00025265785
0.00027289878
0.00017190271
0.00016379191
0.00020814644
0.00023619565
0.00019873586
0.00020556305
0.00030249805
0.00027745861
0.00026127868
9.0998642e-07
1.2928518e-06
2.6178913e-06
4.5744998e-06
8.0793842e-06
1.6467676e-05
3.4047814e-05
7.6811362e-05
0.00010956209
0.00011298764
9.122165e-05
7.4815707e-05
7.6114956e-05
0.00010116277
0.00014706559
0.00021414394
0.00020450769
0.00016949549
0.0001914486
0.00032734267
0.0003401607
0.00019616626
0.00017547555
0.00020573404
0.00029323232
0.00029040687
0.00027052566
9.8322513e-07
1.7013816e-06
3.7074319e-06
6.9080337e-06
1.7439451e-05
4.5111324e-05
7.9217135e-05
0.0001055387
0.00011903609
9.3142363e-05
9.0891441e-05
0.00010108322
0.00013704924
0.00019968877
0.00018669707
0.00014739091
0.00013796452
0.00015860539
0.00027428104
0.00033877647
0.00021968697
0.0001718513
0.00019441612
0.00023791285
0.00025450868
0.00024382314
0.00028362567
1.1514034e-06
2.4517559e-06
5.5815018e-06
1.7309278e-05
4.4478005e-05
7.3541156e-05
8.0985704e-05
7.179372e-05
7.249944e-05
8.6267388e-05
0.00012638848
0.00018820473
0.0002022719
0.00020044785
0.00013652986
0.00012567573
0.00014956439
0.00021449657
0.0002615531
0.00017320496
0.00014602555
0.00017652992
0.00027087951
0.00029240913
0.0002320643
0.00020860605
0.00026528222
1.1166827e-06
3.6089478e-06
1.1741293e-05
3.1489722e-05
5.7745436e-05
5.4929561e-05
5.7425633e-05
6.3006605e-05
7.8675731e-05
0.00010857841
0.00012544246
0.00011646707
0.00010142782
9.5708046e-05
0.00010567699
0.00014685646
0.00027257226
0.00025888947
0.00015544965
0.0001195754
0.00013286275
0.00020574852
0.00037587889
0.00036542868
0.00022977031
0.00021428812
0.00027196017
1.2139567e-06
4.9474981e-06
1.5644036e-05
3.9845869e-05
4.391193e-05
5.1211782e-05
6.7025429e-05
8.9325298e-05
0.00011206416
0.00010790028
8.432711e-05
7.3068294e-05
6.9315689e-05
7.7309594e-05
0.00011099062
0.00029297007