/*--------------------------------*- C++ -*----------------------------------*\
| =========                 |                                                 |
| \\      /  F ield         | OpenFOAM: The Open Source CFD Toolbox           |
|  \\    /   O peration     | Version:  2406                                  |
|   \\  /    A nd           | Website:  www.openfoam.com                      |
|    \\/     M anipulation  |                                                 |
\*---------------------------------------------------------------------------*/
FoamFile
{
    version     2.0;
    format      ascii;
    arch        "LSB;label=32;scalar=64";
    class       volScalarField;
    location    "19";
    object      omega;
}
// * * * * * * * * * * * * * * * * * * * * * * * * * * * * * * * * * * * * * //

dimensions      [0 0 -1 0 0 0 0];

internalField   nonuniform List<scalar> 
62344
(
4.3633386
3.3095733
2.6967816
2.3074355
2.0354693
1.828487
1.6622632
1.5157026
1.4024636
1.3069746
1.2364779
1.1777581
1.1283261
1.0970567
1.0725155
1.0416107
1.012113
0.99028262
0.97826058
0.97292707
0.95634116
0.93676821
0.93556257
0.94024932
0.93779881
0.93423064
0.93835898
0.9394687
0.94086548
0.95576046
1.0036691
1.053369
1.1097055
1.1656293
1.2660747
1.350886
1.4936765
1.6085081
1.7700599
1.9995852
2.2155004
2.4583556
2.7392673
3.085863
3.476536
3.8679493
4.2585121
4.6813408
5.0232791
5.2953557
5.4620533
5.6348101
5.8869971
6.1982496
6.752324
4.3688739
3.3167284
2.7042013
2.3131738
2.0413113
1.8360489
1.6690187
1.525306
1.4063238
1.3093941
1.2382932
1.1821522
1.127411
1.0974881
1.0727238
1.0428665
1.003874
0.97673764
0.96436362
0.95448449
0.93729403
0.91840793
0.90979016
0.90605008
0.90332915
0.90471043
0.90905083
0.9072883
0.90808311
0.92655557
0.96550175
1.007197
1.0587272
1.1114682
1.181107
1.273302
1.3919555
1.5143342
1.7023736
1.8243611
2.0584096
2.2615868
2.548441
2.8166107
3.1864761
3.6092691
4.1093214
4.6423933
5.165951
5.6335562
6.0624749
6.3506051
6.6340776
6.8595188
7.1248148
4.3759408
3.3217328
2.7071926
2.3191161
2.0481086
1.8401578
1.6698954
1.5259561
1.4152126
1.3149737
1.2414728
1.1863601
1.1336131
1.1027594
1.0748147
1.0404604
1.0120598
0.98968136
0.97057841
0.95726815
0.94126107
0.92180663
0.90697582
0.89295501
0.88649298
0.89227375
0.90420851
0.91143911
0.91662918
0.92895328
0.95686721
0.99312935
1.045617
1.0962962
1.1495774
1.2368692
1.3401322
1.4735637
1.6245335
1.7596398
1.9708192
2.1609847
2.4952248
2.7411787
3.1432313
3.5857527
4.097716
4.6154805
5.0710878
5.4527757
5.7660695
6.0439847
6.3363771
6.630182
7.0001793
4.3831354
3.3300421
2.7120167
2.3234898
2.0541572
1.8474344
1.6774384
1.533678
1.4171868
1.3178912
1.2422841
1.1859348
1.1423558
1.0967023
1.0734184
1.0495593
1.0169986
0.98972476
0.97032937
0.96156309
0.94598384
0.92090021
0.90233994
0.89183378
0.88538444
0.88987341
0.90273226
0.91439618
0.92096339
0.93131376
0.9584518
0.99618546
1.0474681
1.1000306
1.1488146
1.2349128
1.3393636
1.4801628
1.6122043
1.7580093
1.9322432
2.1421063
2.4597803
2.751741
3.1859788
3.648768
4.185893
4.6910404
5.1075025
5.4610014
5.6502818
5.8120188
6.0787042
6.2383885
6.5319117
4.3892778
3.3360034
2.7183727
2.3270745
2.0560527
1.8505383
1.6829244
1.5383268
1.4222837
1.3229197
1.2437781
1.1912096
1.1435349
1.1023852
1.0801879
1.0597988
1.0197724
0.98667497
0.96996573
0.95889667
0.94149672
0.91949452
0.90130307
0.89010204
0.88563059
0.88905615
0.89863799
0.90903153
0.91591885
0.92884508
0.95824977
0.99454401
1.0372151
1.0852289
1.128002
1.2002205
1.2982503
1.4444814
1.5849618
1.7332401
1.9014715
2.1408109
2.3831332
2.7275633
3.1987881
3.7350754
4.2990967
4.7554646
5.1871081
5.6660827
6.0000261
6.220015
6.3641896
6.4848808
6.6143571
4.3956428
3.3419085
2.724728
2.3344991
2.062451
1.8568082
1.6861131
1.5435274
1.4278574
1.3263561
1.2514795
1.1966313
1.1498228
1.10994
1.0856987
1.0634304
1.0249996
0.9944501
0.98331427
0.9652323
0.94033358
0.92210555
0.90768323
0.89238704
0.88492263
0.88740436
0.89290656
0.89809577
0.90681781
0.92501898
0.95832309
0.99248817
1.0285202
1.0705026
1.1154176
1.1868026
1.2632213
1.3853622
1.5561645
1.7069539
1.8853518
2.1181436
2.3553683
2.6686489
3.0787873
3.6036238
4.1459694
4.6228774
5.0876743
5.6208036
6.0964811
6.475944
6.6452239
6.8821537
6.9141597
4.4003915
3.3478588
2.7307
2.3378492
2.0673922
1.862437
1.6941548
1.5525658
1.4289232
1.3296766
1.256276
1.1952373
1.1571294
1.109901
1.0859718
1.0664628
1.0312649
1.0009745
0.9865327
0.97384876
0.94830948
0.92411792
0.91011366
0.90210831
0.8946374
0.89002159
0.88768696
0.8901584
0.90261298
0.92307185
0.95112114
0.98264518
1.0190525
1.0596248
1.107944
1.1789448
1.2447178
1.3228524
1.4663103
1.6401056
1.8252253
2.0390435
2.2996957
2.631971
3.0338114
3.4559905
3.8745266
4.3195598
4.7869117
5.2441119
5.7221398
6.2513569
6.5800325
7.0362502
7.0961948
4.4051957
3.3541479
2.7370159
2.3410144
2.0697559
1.8644638
1.6993492
1.5548607
1.4363321
1.3366496
1.2561157
1.2009406
1.1583095
1.1107208
1.0868618
1.0706387
1.0354394
1.0039843
0.98073189
0.97072712
0.94938912
0.92798056
0.91379497
0.90483843
0.89910426
0.8929037
0.88757124
0.88809704
0.89874631
0.92158335
0.94393265
0.96460111
1.0049687
1.0497946
1.1037483
1.1751039
1.2409466
1.3131026
1.4168825
1.5591834
1.7203816
1.9250311
2.1834968
2.5392141
2.9263054
3.3223396
3.6822046
4.0325748
4.3839287
4.7137437
5.047021
5.5238381
5.9828633
6.6249957
6.8884129
4.4107347
3.3598804
2.7401938
2.3474688
2.0749784
1.8691541
1.7002929
1.5568809
1.4432608
1.3407109
1.2576302
1.2083156
1.1557238
1.1148295
1.0908277
1.0712739
1.0368893
1.0046796
0.98366999
0.9635638
0.94304746
0.92984319
0.91796716
0.90103007
0.89034923
0.88841069
0.88947102
0.89053387
0.8987338
0.92032687
0.94030309
0.9572872
0.98967567
1.0434999
1.0999579
1.1814291
1.2533797
1.334798
1.4127038
1.5284297
1.6536061
1.8276429
2.0828193
2.4487134
2.839269
3.2271899
3.5649788
3.9054585
4.2396277
4.5199272
4.7640902
5.040677
5.3685689
5.8273929
6.2297952
4.4158753
3.3663309
2.7435687
2.3524821
2.0804294
1.8763507
1.7042983
1.5630921
1.4457815
1.3443745
1.2646259
1.2088348
1.1599003
1.1242657
1.0973421
1.0732037
1.0427899
1.0086332
0.99633305
0.97328913
0.94520286
0.93012331
0.92066827
0.90107841
0.88620553
0.88491781
0.88753637
0.88923909
0.89747755
0.91942184
0.94072696
0.95859263
0.98760477
1.0428589
1.0957127
1.1835352
1.2656625
1.3666926
1.4352142
1.5347543
1.6426547
1.7937494
2.041902
2.3957581
2.7907489
3.1856029
3.5256829
3.8794692
4.1987952
4.48367
4.7187875
4.9475581
5.2097024
5.5105535
5.8566896
4.4198619
3.3717343
2.7487508
2.3545593
2.0832412
1.8797158
1.7105439
1.5663375
1.4483988
1.3465672
1.2690879
1.2040948
1.1685871
1.1323572
1.0964112
1.0768876
1.0507334
1.01998
1.0025616
0.98359016
0.95707058
0.93407035
0.92359651
0.90774316
0.89364935
0.88858412
0.88850216
0.88770749
0.89454843
0.91804385
0.94638387
0.97130962
0.99774804
1.0469444
1.0968457
1.180023
1.2628804
1.3681572
1.4403161
1.546308
1.6497289
1.7890981
2.0348761
2.3842895
2.7898119
3.1865741
3.5567883
3.925137
4.2478581
4.5374882
4.8034911
5.0668783
5.3318495
5.6014504
5.8522487
4.4240516
3.3765285
2.7539405
2.3578592
2.086891
1.8817132
1.7149141
1.5700061
1.4532157
1.349255
1.2688617
1.2029967
1.1730075
1.1336396
1.0904529
1.0771967
1.0563814
1.0268365
0.99860682
0.98267044
0.96195801
0.93874431
0.92628467
0.91307766
0.90047586
0.89598204
0.89398366
0.89125999
0.89533992
0.91579259
0.95083511
0.98464603
1.0089868
1.0511796
1.0987193
1.1750246
1.2524493
1.3511069
1.4270148
1.545194
1.6620194
1.8023411
2.0552477
2.4073546
2.8386709
3.2414896
3.6462713
4.0773989
4.4387724
4.7458955
5.0673238
5.3752306
5.6651307
5.9049097
6.0974446
4.4285608
3.3810817
2.757469
2.3637036
2.0918902
1.8865474
1.7189043
1.5763146
1.4587908
1.3560412
1.2702614
1.2089303
1.1726921
1.1326273
1.0892228
1.0746715
1.0572204
1.0265487
0.99392518
0.97112815
0.9536079
0.93893736
0.92577716
0.91213081
0.8991714
0.89687178
0.89815896
0.89671866
0.90018541
0.91725189
0.95141688
0.98737447
1.0134976
1.0533063
1.0962528
1.163563
1.2355702
1.3250722
1.4021401
1.5293089
1.6694678
1.8319067
2.0984578
2.4599342
2.9065013
3.3226825
3.7628502
4.2188507
4.6062458
4.9428552
5.273651
5.5849434
5.8426489
6.0748971
6.2072716
4.4319586
3.3854396
2.7608692
2.3689644
2.0955847
1.8922116
1.7244193
1.5808386
1.4631475
1.3632755
1.2745964
1.2188111
1.1731791
1.1346216
1.0988631
1.0749488
1.0562362
1.0232045
0.99515903
0.96890387
0.94691721
0.93533798
0.92274104
0.90682403
0.89333405
0.89321115
0.89685319
0.89725679
0.90116212
0.91771351
0.94968717
0.9830101
1.0129654
1.0543749
1.0962814
1.1563457
1.2242272
1.3106949
1.3881836
1.5115672
1.6620002
1.8424093
2.1156687
2.4779964
2.9273985
3.3614999
3.8001849
4.2532253
4.6565095
5.0293297
5.3802455
5.6659584
5.8992073
6.1155497
6.2086849
4.4352233
3.3898928
2.7660715
2.3713233
2.0974436
1.8947719
1.7291703
1.5835899
1.4648689
1.3650494
1.2769517
1.2219538
1.1752159
1.1369836
1.1059869
1.0792955
1.0559116
1.0226388
1.002152
0.97858324
0.95186746
0.93584036
0.92233726
0.90519245
0.89111265
0.89026528
0.89403963
0.89455667
0.89777067
0.91480001
0.94575735
0.97954531
1.0130881
1.0617138
1.1030814
1.1573379
1.2214226
1.3056095
1.384172
1.5047588
1.6629312
1.8496168
2.1064235
2.4562591
2.8966628
3.3651832
3.7980584
4.231164
4.6448941
5.0357435
5.4046586
5.6969256
5.9195749
6.0923646
6.1639322
4.4383315
3.3942597
2.7722389
2.3729696
2.0996746
1.8957883
1.7314851
1.586343
1.4657042
1.3638444
1.2771679
1.2176271
1.1768066
1.1400035
1.1041633
1.0835878
1.0593771
1.0300331
1.0061228
0.98637429
0.96385367
0.94298186
0.92554587
0.90993742
0.89680741
0.89346977
0.89659327
0.89727769
0.89958065
0.9158452
0.94599717
0.98228408
1.0190614
1.0759025
1.1174407
1.1720547
1.2405847
1.3284193
1.4115445
1.5233993
1.6829558
1.8820829
2.1283258
2.4469524
2.8558555
3.3118499
3.746881
4.1477099
4.5399225
4.9558534
5.3477055
5.6506106
5.8930894
6.07776
6.1451621
4.4415619
3.3991211
2.7778292
2.3765152
2.1041727
1.8990926
1.7334965
1.5914531
1.4688028
1.3652883
1.2794522
1.2127089
1.1796004
1.1463704
1.1000943
1.0858964
1.0689771
1.0433257
1.0107573
0.98925363
0.97607606
0.95525687
0.93605023
0.92259652
0.91076861
0.90562199
0.90925188
0.91203826
0.91668381
0.93333069
0.96355256
1.0009339
1.0427594
1.1022337
1.1469242
1.2082462
1.2888789
1.3799325
1.4804092
1.594021
1.7419776
1.9539843
2.1981424
2.4869927
2.8488841
3.2736437
3.6951804
4.0799604
4.4257324
4.7958738
5.1872619
5.5668872
5.8743182
6.1212582
6.1862987
4.4443462
3.4038135
2.7814957
2.3821135
2.1105899
1.9057086
1.7385557
1.5989845
1.4758744
1.3738772
1.2869346
1.2146314
1.186651
1.1582747
1.1031184
1.0904186
1.0840294
1.0612418
1.0213974
0.99460652
0.98646509
0.97313838
0.95635324
0.94485586
0.93350168
0.929741
0.93447556
0.94049699
0.95242123
0.97313894
1.0035999
1.0386875
1.0846397
1.1496102
1.2036954
1.2747967
1.3722477
1.4742411
1.5893581
1.7314506
1.8631292
2.050196
2.3051165
2.5837712
2.8937284
3.2710616
3.6759909
4.0674636
4.3904728
4.7316337
5.0880559
5.4979894
5.8119224
6.185684
6.26784
4.4486549
3.4091818
2.7846292
2.3880911
2.1169874
1.9131448
1.7467024
1.6068256
1.4860946
1.3888961
1.2973498
1.2280756
1.1994233
1.1740837
1.1181248
1.1046041
1.101699
1.0822486
1.0411128
1.0107199
1.001525
0.99730662
0.98679285
0.97579432
0.96694455
0.96622448
0.9722756
0.98311989
1.007434
1.0322761
1.0631757
1.0914319
1.1329569
1.1974388
1.2748158
1.3669192
1.4864872
1.609105
1.7338425
1.9038112
2.0555188
2.2253783
2.4573784
2.7615093
3.0159788
3.3361109
3.7010289
4.0782671
4.3968752
4.7373626
5.0575618
5.4728531
5.7734319
6.1619585
6.3170082
4.4504941
3.4131544
2.7881758
2.3930767
2.1224339
1.9198672
1.7564609
1.6167063
1.4989908
1.406252
1.311136
1.2512145
1.2193974
1.1926149
1.1455176
1.1319072
1.1292587
1.1101426
1.0726227
1.0452243
1.0345082
1.033848
1.0301985
1.018777
1.0110778
1.012837
1.0207381
1.0372857
1.0721513
1.1058716
1.141323
1.1704033
1.2120221
1.2800694
1.3588354
1.4594712
1.590033
1.7407676
1.8933073
2.0886114
2.2706181
2.4582182
2.6798476
2.987903
3.2362736
3.5075873
3.8132302
4.169108
4.4716283
4.7957547
5.0776568
5.4662303
5.7520177
6.1328528
6.3283356
4.455854
3.4202789
2.7965746
2.4026227
2.1335823
1.9335022
1.7750191
1.6380885
1.524352
1.4344772
1.3398055
1.2873703
1.2548814
1.226716
1.1932372
1.1823635
1.1811445
1.1660877
1.1373791
1.1171458
1.107634
1.1125207
1.1165605
1.1091462
1.103198
1.1073095
1.1193433
1.1454255
1.1890386
1.2322337
1.2732601
1.3056062
1.3494717
1.4256658
1.5109036
1.6264821
1.7660483
1.9150978
2.0657328
2.2653837
2.4941184
2.7247049
2.9541676
3.2694747
3.5295027
3.7971295
4.0451725
4.3584693
4.6456863
4.9283979
5.1829002
5.5129528
5.781563
6.1159417
6.331672
4.4645545
3.4370919
2.8218637
2.4335295
2.1687018
1.9722006
1.8171459
1.6841435
1.5737405
1.4890756
1.4022285
1.3575297
1.3354766
1.318513
1.3021507
1.3048385
1.3161223
1.3157954
1.3024919
1.2924476
1.2968859
1.317948
1.3386238
1.3431919
1.3466305
1.3614654
1.3969753
1.4361477
1.4930748
1.5591283
1.6215267
1.6649259
1.7331285
1.8365745
1.9215235
2.0361794
2.1603394
2.3032269
2.4518881
2.6392044
2.8516034
3.0821829
3.3208886
3.6155424
3.8964678
4.148392
4.416786
4.6894464
4.9582175
5.210887
5.4403887
5.7037373
5.9584967
6.2532278
6.4280411
4.5140289
3.5029992
2.8976923
2.5130054
2.2499495
2.0615467
1.9130227
1.8071263
1.7213521
1.671073
1.6207348
1.6039177
1.6228609
1.6449054
1.6583551
1.6977326
1.7542617
1.8050759
1.8151569
1.8294885
1.871207
1.9483382
2.0103842
2.0354354
2.0645079
2.1043094
2.1982447
2.2578247
2.333112
2.431611
2.538511
2.6166264
2.7270917
2.8836131
2.9844011
3.0979715
3.2032964
3.3510418
3.493435
3.6559419
3.8084961
3.932703
4.106817
4.342973
4.6379557
4.9044746
5.221098
5.4357504
5.6796064
5.9100978
6.1009165
6.2784257
6.5516722
6.8219135
6.9217124
4.6027762
3.642745
3.0949662
2.7857908
2.5773633
2.4582446
2.3623293
2.3659175
2.381249
2.4301938
2.4990136
2.5674727
2.6909365
2.7937574
2.8536917
2.9616571
3.1046535
3.2389935
3.2740171
3.3145924
3.4189604
3.5805909
3.6983743
3.7417289
3.8017912
3.8670347
4.0235591
4.1119013
4.2023809
4.3504357
4.5155114
4.6453918
4.7770047
4.9794736
5.1050317
5.2431116
5.3453996
5.5155464
5.6444349
5.8116791
5.9409116
6.0000458
6.0326335
6.1309849
6.4130959
6.6729336
6.9784613
7.1460875
7.3058426
7.4865728
7.5972462
7.7264823
7.9665919
8.2319167
8.2946829
4.7809678
4.4778623
4.5088615
4.5539791
4.593714
4.6712031
4.750519
4.9264548
5.1027592
5.313715
5.505301
5.649408
5.8935265
6.1084999
6.2086611
6.3830165
6.6664404
6.8682522
6.8918246
6.9140877
7.0649111
7.3252539
7.4862048
7.5120516
7.5344483
7.6040053
7.7829993
7.8917921
7.9927899
8.1847018
8.4723579
8.6504416
8.8119232
9.0307227
9.2049819
9.4229192
9.5483483
9.5724595
9.6694131
9.7613805
9.8113496
9.8994682
9.9300498
9.9183433
10.021275
10.187293
10.290153
10.27919
10.29207
10.329119
10.417519
10.620149
10.724488
10.871869
10.919956
9.4211244
12.25474
13.127889
13.342832
13.490392
13.635194
13.764255
14.133173
14.195283
14.356777
14.523898
14.559136
15.012518
15.560254
15.623559
15.874152
16.576447
16.866721
16.727152
16.569846
16.775374
17.275111
17.584367
17.491294
17.325115
17.221218
17.351692
17.478128
17.644887
17.922689
18.206361
18.376409
18.404726
18.484108
18.604495
18.881751
19.058653
19.025457
19.065753
19.032045
19.009905
19.148622
19.308381
19.500039
19.673554
19.683127
19.460062
19.122589
18.881213
18.871186
19.034143
19.024522
18.938869
18.892196
18.863535
55.956849
56.591484
56.276918
56.058522
56.121724
55.977285
55.756447
55.598052
55.35954
55.511557
55.326543
55.264132
55.429928
55.206091
54.90181
55.087324
55.670529
55.790025
55.27801
55.201555
55.669387
55.891911
55.985163
56.064286
56.036039
55.735604
55.577846
55.630577
55.818296
55.613688
55.383787
55.69907
56.433657
57.099138
57.075519
56.333143
55.475881
55.709537
56.795168
57.950893
58.218052
57.150004
54.905879
52.745052
52.297047
53.211283
54.660207
55.832999
56.426116
56.379573
55.875174
55.035028
54.146734
53.486767
53.055302
54.229091
20.110574
11.207592
8.5355424
7.1501564
6.6315304
6.5150588
6.5136323
6.5619033
6.5459881
6.4901923
6.4248149
6.4153182
6.4438363
6.4621924
6.4055785
6.2694038
6.4103049
6.7461949
7.3228549
7.5347185
7.3444764
6.9752914
7.1215668
7.8772987
7.9238556
7.6320021
56.850716
20.436628
11.35796
8.7540152
7.3519243
6.853891
6.7553547
6.8534351
7.0034818
7.0079448
6.9008564
6.7313472
6.6696885
6.6845335
6.7083858
6.7045338
6.6262578
6.6805934
6.8957413
7.4894497
7.8471408
7.7345128
7.2907597
7.4209206
8.2166941
8.3909946
8.1030608
59.783388
20.903363
11.537751
8.9464835
7.6266118
7.164277
7.1441714
7.309583
7.4879498
7.4695459
7.2932739
7.0740378
7.0368534
7.092892
7.1706405
7.1777029
7.0136511
6.9283842
7.0702142
7.7421421
8.1404516
8.0509289
7.6182683
7.71076
8.5680482
8.7804368
8.5196251
63.855557
21.931482
11.918784
9.2223878
7.9520178
7.5116045
7.5176063
7.7307998
7.9038166
7.8721
7.6760335
7.4739272
7.4834427
7.5850937
7.7014523
7.6811606
7.4345823
7.244432
7.3459759
7.9232232
8.3846953
8.4080247
8.0339965
7.9948346
8.7870245
9.1469468
9.0696384
69.708211
23.194946
12.482219
9.5429062
8.2460599
7.8289803
7.8572732
8.1092702
8.3226672
8.3792439
8.2951906
8.0780119
8.0443985
8.1063029
8.1540707
8.0891114
7.8489218
7.6559323
7.6927386
8.0939908
8.5755563
8.7348658
8.4903667
8.2440332
8.8963317
9.5435125
9.6736066
76.710938
25.368453
13.084334
9.7962262
8.4906843
8.1084393
8.1710843
8.501314
8.9075436
9.1526537
9.1815129
8.852463
8.6058175
8.4871561
8.3919432
8.3093522
8.2009821
8.0854404
8.0543295
8.3051407
8.7977621
9.1155198
8.8655638
8.457484
8.9594775
9.8637608
10.286317
84.149816
26.786622
13.438359
9.9530145
8.653407
8.354462
8.5084097
9.0284749
9.7722279
10.213167
10.174762
9.5329492
8.999522
8.6947495
8.5159533
8.4389647
8.4130468
8.3635573
8.3700035
8.6250052
9.1599824
9.4681089
9.1196743
8.6628383
9.0290675
10.043781
10.853649
91.166893
28.306292
13.868209
10.198856
8.9674784
8.7932027
9.0903167
9.8586666
10.917185
11.286254
10.837546
9.7673863
9.1407154
8.8392738
8.6569058
8.5644444
8.5264586
8.5577998
8.7090543
9.0778242
9.5958308
9.784493
9.4160698
8.948632
9.1199144
10.188802
11.388058
96.55216
31.026105
14.779776
10.718671
9.5708881
9.5059535
9.9189155
10.962423
12.029912
12.016907
10.901039
9.7313945
9.2104947
8.964632
8.8097374
8.6805194
8.6642317
8.8183454
9.1666007
9.6275274
9.9649735
10.065274
9.8364465
9.3314956
9.3004939
10.422096
11.987252
99.459888
33.226699
15.846523
11.420756
10.342333
10.374959
10.899699
12.179593
12.703099
12.159227
10.68188
9.7915967
9.3849111
9.1472312
8.9452535
8.8144015
8.8953812
9.2165224
9.6767485
10.006825
10.160754
10.306036
10.268831
9.7586909
9.631758
10.741955
12.613785
98.074838
34.934297
16.869667
12.184442
11.192546
11.235651
11.968672
12.98507
12.992436
12.009653
10.607507
10.026567
9.7043466
9.4077905
9.1604596
9.0829134
9.2560556
9.6711556
10.001619
10.117345
10.210978
10.445615
10.567818
10.228478
10.060183
11.087366
13.101685
97.730148
36.353812
17.40925
12.706475
11.887984
12.089771
13.054654
13.557746
13.219938
11.922275
10.885847
10.425929
10.099715
9.777367
9.530582
9.5158784
9.7140614
9.9739721
10.097991
10.109224
10.222997
10.46566
10.754119
10.718565
10.540251
11.364535
13.304611
101.50586
36.285886
17.54879
13.209767
12.593459
13.003992
13.89467
14.046036
13.497811
12.126986
11.362835
10.949937
10.57824
10.285281
10.078222
10.043291
10.063014
10.121959
10.188256
10.184906
10.287075
10.488914
10.925391
11.112271
10.967707
11.504541
13.278911
110.28877
36.82034
18.372736
14.073431
13.422413
13.813413
14.510634
14.456727
13.634212
12.424374
11.869344
11.496104
11.135929
10.847034
10.667324
10.490933
10.382332
10.440476
10.511021
10.485155
10.461545
10.664623
11.165176
11.406596
11.299206
11.561924
13.215275
123.89915
41.452205
20.910651
15.451871
14.4352
14.799413
15.044504
14.73829
13.410518
12.584479
12.208831
11.983369
11.7239
11.371052
11.023774
10.864495
10.900062
11.033398
11.143059
11.01508
10.839644
11.03047
11.504278
11.676408
11.503724
11.647759
13.235042
137.91827
47.623881
23.28654
16.96869
15.929469
15.944663
15.717844
14.395966
13.286865
12.82519
12.636475
12.463764
12.096224
11.592109
11.197227
11.215329
11.53675
11.857435
11.928576
11.668011
11.432069
11.544678
11.94474
11.998771
11.706847
11.785146
13.310917
149.64452
52.661211
25.240306
18.657349
17.695254
17.273637
15.457683
14.137105
13.561173
13.364867
13.205155
12.795157
12.18931
11.566924
11.329297
11.587223
12.106792
12.538774
12.616514
12.468679
12.151135
12.128784
12.465301
12.390438
12.014569
11.990305
13.405583
158.80851
56.745219
28.011235
21.057613
19.23028
16.700761
14.994908
14.233586
13.999788
13.814921
13.448855
12.869439
12.196754
11.676031
11.574736
11.853647
12.387548
12.881926
13.272814
13.217648
12.804956
12.68918
12.967287
12.853788
12.392758
12.266671
13.526272
163.28791
58.728515
31.206106
22.621893
18.425997
15.946916
14.847836
14.317329
13.979878
13.665746
13.2745
12.829232
12.374996
12.032076
12.001381
12.195883
12.623238
13.207379
13.739525
13.799384
13.362294
13.23494
13.433874
13.35231
12.905802
12.709234
13.7469
161.59943
61.139412
32.795841
22.057037
17.529074
15.459483
14.49486
14.000909
13.650671
13.368098
13.148833
12.949266
12.744791
12.558605
12.514943
12.69305
13.087107
13.67442
14.107926
14.130861
13.841418
13.763711
13.883514
13.858202
13.525911
13.355332
14.128988
156.50462
63.549966
31.889486
20.943284
16.831127
14.984308
14.130973
13.686091
13.468713
13.344571
13.252457
13.171306
13.128896
13.112518
13.143143
13.401597
13.784225
14.15637
14.320949
14.299357
14.227574
14.23057
14.337604
14.387947
14.241203
14.207818
14.818211
153.59345
64.547602
30.781603
20.288372
16.455693
14.795707
14.053259
13.765914
13.658308
13.551542
13.505514
13.528771
13.610471
13.69877
13.879013
14.194948
14.427765
14.502273
14.481369
14.471033
14.539873
14.658807
14.78906
14.957812
15.034699
15.17347
15.588051
155.44856
64.415475
30.344409
20.232372
16.594826
15.102254
14.395691
14.097509
14.023381
13.918602
13.927539
14.0863
14.330649
14.576669
14.753711
14.845537
14.82893
14.739793
14.662125
14.76071
14.884366
15.00262
15.129102
15.43946
15.788402
16.100433
16.324357
162.997
65.519752
30.869574
20.711928
17.119311
15.610691
14.884203
14.58108
14.467732
14.485464
14.71462
15.098576
15.497722
15.670953
15.522912
15.253764
15.012201
14.906712
14.900584
15.087772
15.259403
15.339159
15.375712
15.70596
16.338449
16.952082
17.002899
171.42358
68.671323
32.549449
21.726669
17.759586
15.991743
15.199658
14.940991
14.996315
15.299722
15.887224
16.570706
16.966651
16.821136
16.177944
15.430278
15.08152
15.024341
15.180672
15.447383
15.698259
15.720389
15.653339
15.915994
16.593582
17.520991
17.670428
176.13441
73.566749
35.458397
23.386335
18.61614
16.430412
15.392796
15.055034
15.285515
15.970387
17.110521
18.363921
18.712562
18.027732
16.688118
15.555332
15.200359
15.080098
15.471393
15.981067
16.272482
16.255252
15.969589
16.055183
16.629608
17.738099
18.262873
174.62286
78.090213
39.072304
25.636796
19.9217
17.111302
15.602362
15.013953
15.292394
16.27489
18.108394
20.004666
20.439348
19.298717
17.180708
15.798005
15.384562
15.2662
15.846015
16.547132
16.883896
16.830284
16.436349
16.244102
16.618301
17.705831
18.656956
167.83132
80.25809
41.74478
27.766266
21.354401
17.78766
15.825366
15.134969
15.394995
16.57926
19.171911
21.485804
21.926621
20.430533
17.70856
16.138326
15.698116
15.666168
16.396523
17.246115
17.563266
17.321784
16.752813
16.391816
16.637799
17.622265
18.759644
158.51949
78.687271
42.407451
28.487184
21.860421
18.078116
16.064606
15.444941
15.856832
17.431989
20.32216
22.51203
22.754729
21.070619
18.206028
16.510558
16.145735
16.341092
17.135372
17.871098
17.920857
17.447413
16.766717
16.402578
16.608145
17.549756
18.735493
150.90705
74.447625
40.989211
27.917601
21.552101
17.9961
16.396652
16.015628
16.626165
18.413784
21.290754
23.083155
23.070271
21.27105
18.566252
16.924844
16.698935
17.163589
18.122274
18.518971
18.12076
17.311846
16.555992
16.260495
16.569394
17.605567
18.756743
147.76497
68.610115
38.87118
27.163725
21.334325
18.126111
16.845365
16.631343
17.432376
19.366103
22.095877
23.608313
23.472767
21.656609
18.89051
17.259394
17.113808
17.824973
19.058032
19.361757
18.526683
17.361987
16.401137
16.102097
16.508363
17.672219
18.878251
145.58489
64.723879
37.763239
26.854677
21.338558
18.402378
17.326634
17.190801
18.063283
20.050225
22.7725
24.180179
24.174954
22.436281
19.590701
17.657554
17.311887
18.081305
19.72127
20.393713
19.446882
17.8487
16.568543
16.139381
16.473039
17.803093
19.186106
141.32068
62.44842
37.702656
27.275349
21.841247
18.756189
17.628499
17.467061
18.291161
20.25102
22.940959
24.593895
24.920991
23.494983
20.67038
18.222182
17.366573
17.870325
19.531064
21.150483
20.824736
19.095489
17.262826
16.49132
16.624908
18.062304
19.840914
135.92414
61.784887
37.939149
27.749262
22.382833
18.894222
17.547029
17.299727
17.94447
19.741971
22.292695
24.33934
25.063716
24.233752
21.894074
19.049107
17.459603
17.450039
18.562223
20.903677
22.069942
21.15344
18.970065
17.363752
17.119514
18.388195
20.693726
131.09777
60.688336
37.537075
27.787757
22.589558
19.124958
17.517092
17.120075
17.33566
18.61869
20.715116
23.039902
24.099117
23.978089
22.537589
20.07103
17.958129
17.16714
17.618081
19.371804
21.867897
22.74503
21.466608
19.271648
18.304401
18.921112
21.234157
130.1715
58.746778
35.806982
26.857799
22.354484
19.576848
17.946234
17.349671
17.276625
17.824017
19.022299
20.689706
22.029513
22.523266
22.057108
20.644113
18.898537
17.591167
17.405682
18.051941
20.084784
22.428782
23.101548
21.926719
20.398212
20.144099
21.596925
132.24979
54.722539
32.632095
25.194498
21.840399
20.055988
18.938803
18.322574
18.065474
18.008919
18.279898
18.823234
19.699079
20.461019
20.778515
20.580602
19.857761
19.000273
18.218609
18.108627
18.765804
20.644227
22.782464
23.584963
23.115518
22.427858
22.570239
131.9266
51.717594
31.043013
24.723472
22.138993
20.962964
20.457346
20.215381
19.978126
19.560417
19.056656
18.797614
18.82028
19.387249
20.191888
20.789268
20.982548
20.699837
19.956271
19.253637
18.947599
19.588055
21.334848
23.413275
24.585884
25.367628
25.113785
128.86545
54.063677
33.405547
27.032813
24.459678
23.384968
23.003982
22.941918
22.998215
22.86575
22.186114
21.141376
20.440315
20.29128
20.812474
21.686952
22.225012
22.211897
21.800054
20.865285
20.111882
19.842255
20.493808
22.237856
24.519153
26.942594
27.662429
121.04037
58.989861
39.774197
32.463413
28.816152
26.673943
25.628863
25.252333
25.288655
25.548878
25.507716
24.714128
23.577767
22.782402
22.544455
22.845686
23.3017
23.446958
22.966054
21.985867
21.105488
20.668936
20.834653
21.846991
23.977931
26.835076
28.226392
130.76229
65.005918
44.230477
34.819531
29.198647
26.04501
24.92555
24.496335
24.33039
24.606108
25.175407
25.223398
24.751788
24.14649
23.648923
23.530121
23.855365
24.161899
23.945518
23.217124
22.200742
21.771375
21.910152
22.408067
23.450236
25.310124
27.065121
151.91968
61.249291
41.066755
32.384088
28.046626
25.768996
24.613517
24.077537
23.903263
24.086923
24.410128
24.505152
24.470812
24.311319
24.202054
24.332253
24.729043
25.124602
25.097944
24.333968
23.489683
23.214596
23.168522
22.970332
22.68305
23.514215
24.768777
150.40841
54.035549
36.853143
30.74396
28.24769
27.043913
26.323904
25.792673
25.38627
24.966945
24.600196
24.29184
24.146709
24.183402
24.429997
24.868366
25.352551
25.565373
25.245022
24.561434
24.038025
23.68745
23.158775
22.267534
21.62035
22.08099
22.957126
136.84124
54.743226
36.022937
29.404596
26.945965
26.116247
25.872583
25.921532
25.963582
25.840166
25.440264
24.891623
24.416246
24.28109
24.520368
24.991541
25.257279
25.114478
24.582573
24.018924
23.533777
23.020694
22.255195
21.380579
21.126291
21.841411
22.677628
122.16241
58.289675
36.980949
28.969115
25.741591
24.563372
24.306563
24.539283
25.09451
25.702344
25.984171
25.907986
25.346762
24.664559
24.316071
24.291302
24.255989
24.050156
23.632188
23.147549
22.668939
22.119055
21.485719
20.999337
21.08937
22.031931
22.948764
106.2366
59.546802
37.952382
29.172581
25.077275
23.194597
22.538398
22.607834
23.117645
24.159052
25.316838
26.058282
26.091883
25.292007
24.206965
23.519235
23.128442
22.92123
22.717108
22.387788
22.002874
21.53505
21.041171
20.751227
20.903431
21.818542
23.027434
92.146374
58.181958
38.190385
29.718778
25.163975
22.667747
21.42921
21.059487
21.253556
22.027986
23.408697
24.776488
25.514584
25.246901
24.075245
22.825148
22.080264
21.738585
21.726521
21.635811
21.425141
21.096223
20.691638
20.507245
20.654558
21.431336
22.700948
86.300311
56.630693
37.945909
29.68437
24.993988
22.107643
20.417787
19.610663
19.564184
19.895102
20.917482
22.21087
23.15907
23.48363
23.02586
22.042503
21.11714
20.574905
20.489106
20.690437
20.720952
20.605175
20.365642
20.292342
20.47586
21.182502
22.340964
88.892115
54.339111
35.701983
27.68285
23.258921
20.485767
18.810759
17.965059
17.743783
17.884438
18.310868
19.01544
19.713674
20.182835
20.386205
20.284849
19.957956
19.569203
19.253279
19.334595
19.661822
19.837573
19.870629
19.973793
20.331564
20.989496
21.976824
94.96958
48.499049
30.910117
24.017866
20.460892
18.288402
16.918295
16.194349
15.924324
15.830564
15.874022
16.013636
16.307217
16.672364
17.087833
17.553108
17.965586
18.155249
18.059569
17.942075
18.157857
18.57728
18.895698
19.225851
19.795044
20.491578
21.288159
97.464082
41.496918
26.654701
20.900345
18.023948
16.295838
15.198344
14.559695
14.194862
13.951646
13.770769
13.709281
13.787511
14.039583
14.424042
14.932472
15.534956
16.153062
16.579773
16.689358
16.729975
17.024723
17.508204
17.99807
18.615432
19.283086
19.719066
92.872237
37.787039
24.700406
19.366785
16.667301
15.025102
13.941913
13.224937
12.780234
12.496204
12.322425
12.232148
12.261827
12.439306
12.753633
13.193386
13.736448
14.331626
14.896524
15.266553
15.437308
15.572275
15.969975
16.490213
17.026226
17.555931
17.762373
86.958505
35.586474
23.590591
18.535802
15.916936
14.299022
13.208856
12.439899
11.892976
11.546168
11.356414
11.271575
11.314606
11.499295
11.834449
12.258702
12.712498
13.10114
13.401576
13.628502
13.779317
14.050181
14.483884