/*--------------------------------*- C++ -*----------------------------------*\
| =========                 |                                                 |
| \\      /  F ield         | OpenFOAM: The Open Source CFD Toolbox           |
|  \\    /   O peration     | Version:  2406                                  |
|   \\  /    A nd           | Website:  www.openfoam.com                      |
|    \\/     M anipulation  |                                                 |
\*---------------------------------------------------------------------------*/
FoamFile
{
    version     2.0;
    format      ascii;
    arch        "LSB;label=32;scalar=64";
    class       volScalarField;
    location    "19";
    object      omega;
}
// * * * * * * * * * * * * * * * * * * * * * * * * * * * * * * * * * * * * * //

dimensions      [0 0 -1 0 0 0 0];

internalField   nonuniform List<scalar> 
96472
(
3.8124839
2.9387347
2.3705791
2.0187178
1.7862435
1.6121145
1.4694468
1.3498519
1.2511029
1.1710449
1.1062219
1.0528171
1.0071431
0.96725359
0.93148148
0.89952733
0.86919484
0.84019902
0.81332837
0.79074623
0.77114217
0.7555515
0.7413096
0.7298538
0.71840141
0.70897317
0.69848335
0.6899148
0.67959228
0.67092003
0.66043904
0.65201894
0.64105802
0.63344309
0.62453469
0.61882728
0.61265461
0.60923701
0.60919628
0.61133374
0.61496319
0.61990041
0.63118007
0.64073768
0.64825427
0.65496203
0.65873108
0.66142101
0.66124101
0.66237356
0.66707673
0.67611809
0.6873815
0.70244155
0.72632251
3.8125414
2.9390056
2.3735369
2.0224886
1.7903216
1.6164283
1.4738734
1.3541906
1.2551186
1.1746165
1.1094201
1.0558311
1.0101197
0.97036198
0.93469865
0.90283761
0.87237633
0.84328136
0.81606132
0.79320035
0.77313076
0.75725332
0.74253521
0.73110721
0.71918324
0.70999379
0.69892218
0.69044598
0.67984168
0.67122543
0.66130562
0.65239741
0.64299564
0.63458795
0.62542833
0.61953805
0.61218456
0.60783835
0.60370739
0.60033976
0.59856281
0.59868721
0.59980641
0.60430127
0.61120595
0.62475962
0.63743632
0.65141058
0.65635711
0.66222964
0.66557187
0.67263344
0.67962588
0.68660364
0.70426961
3.8130903
2.9429165
2.3782993
2.0270574
1.7949741
1.6213244
1.478734
1.3585743
1.2588196
1.1777096
1.1121066
1.0583249
1.0126297
0.97288596
0.93726621
0.90530553
0.87488354
0.84552517
0.81817428
0.79487865
0.77467682
0.75841136
0.7436892
0.73198912
0.72031536
0.71098983
0.70028755
0.69201606
0.68109114
0.67336542
0.66210017
0.6545797
0.64392687
0.63639165
0.62709971
0.62108484
0.61423604
0.60976803
0.60577858
0.60325024
0.60119816
0.60077618
0.60083318
0.60151713
0.60306591
0.60754279
0.61231585
0.62261223
0.63294786
0.64781528
0.65815309
0.66513129
0.67423337
0.67981535
0.6925387
3.8139744
2.9482023
2.3839863
2.0318072
1.7993332
1.6256647
1.4829819
1.3624965
1.2622516
1.1806862
1.1147838
1.0608755
1.0151813
0.97551965
0.93996668
0.90803152
0.87766239
0.84821081
0.82064745
0.79702169
0.77656558
0.76003094
0.74526895
0.73330042
0.72179759
0.71221336
0.70183234
0.69326874
0.68305959
0.67480222
0.66465523
0.65662423
0.64656607
0.63880721
0.62922138
0.6228488
0.61530194
0.61015086
0.60552096
0.60255382
0.60003524
0.59949913
0.59963435
0.60022592
0.60124323
0.60344038
0.60691587
0.61029884
0.61765091
0.62352409
0.63661964
0.64419448
0.6593434
0.66666679
0.68299542
3.8147417
2.9526573
2.3890568
2.0362206
1.8034553
1.6298158
1.4870935
1.3663392
1.2656756
1.1836753
1.117468
1.0634138
1.0177144
0.97805319
0.94260385
0.91063801
0.88035359
0.85073268
0.8230419
0.79904079
0.77841282
0.76147652
0.74673966
0.73443526
0.72316254
0.71331422
0.70339541
0.69441018
0.68483383
0.67610076
0.66645549
0.65776804
0.64832892
0.64021504
0.63120557
0.62390959
0.617055
0.61153197
0.606529
0.60292367
0.60025452
0.5984828
0.59822425
0.59846211
0.59934802
0.60071161
0.60374834
0.60606969
0.61113364
0.61461004
0.62237974
0.62738403
0.63821329
0.6446525
0.66184198
3.8155797
2.9580312
2.394919
2.0409353
1.8075927
1.6338665
1.4910788
1.370084
1.269024
1.1866275
1.1201215
1.065912
1.0202137
0.98052692
0.9451799
0.91317563
0.88304554
0.85326674
0.82544995
0.8010931
0.78033443
0.76298593
0.74829978
0.73562885
0.72457824
0.71442604
0.70490957
0.69557854
0.68661499
0.67753324
0.66869254
0.65965103
0.6507926
0.64200896
0.63365357
0.62560038
0.61839752
0.61243053
0.60694354
0.6028297
0.59979504
0.5974975
0.59641431
0.5964663
0.59685047
0.59780329
0.60013611
0.60210425
0.60641995
0.60906368
0.6149894
0.61850907
0.62612061
0.63063665
0.64286009
3.8164791
2.9633084
2.4003659
2.0454126
1.8115663
1.6377711
1.4949711
1.3737952
1.2723757
1.189593
1.1227788
1.0683712
1.022653
0.98295694
0.94765397
0.91568417
0.88562065
0.85584457
0.82785481
0.80321109
0.78222669
0.76462721
0.7497608
0.73695179
0.72586343
0.71562463
0.70626308
0.69696566
0.68811025
0.67908599
0.67039576
0.66136406
0.65269158
0.64383333
0.63563499
0.62758939
0.62016103
0.61382634
0.60851989
0.60379753
0.60027408
0.59764348
0.59581688
0.59504552
0.59516833
0.59558385
0.59688262
0.59835423
0.60161567
0.60389746
0.60879671
0.61176913
0.61785298
0.62152302
0.63016822
3.8167845
2.9683182
2.4059867
2.0499097
1.8154494
1.6415319
1.4987275
1.3774172
1.2756926
1.1925368
1.1254317
1.0708165
1.0250394
0.98533524
0.95008099
0.91814969
0.88814216
0.85839391
0.83024826
0.80539043
0.78413969
0.7662835
0.75126701
0.73829993
0.72716454
0.71689033
0.70756911
0.69836684
0.68967564
0.68082612
0.67217029
0.66329162
0.65468189
0.64583378
0.63753354
0.62937159
0.62202502
0.61486396
0.60950272
0.6043073
0.60038684
0.5973242
0.59518163
0.59374666
0.59356582
0.59376442
0.5944603
0.59545661
0.59785498
0.59956994
0.60353635
0.60589212
0.6111104
0.61402066
0.62108293
3.8171656
2.9720169
2.4105687
2.0539466
1.8191079
1.6451632
1.5024147
1.3810066
1.2790137
1.19549
1.1280601
1.0732447
1.0273802
0.98765066
0.95242237
0.92055919
0.89063939
0.86091542
0.83261957
0.80754796
0.78609179
0.76794253
0.75277961
0.73964471
0.72845915
0.71814527
0.70889604
0.6997516
0.6910899
0.68239273
0.67383631
0.66510273
0.65650955
0.64774653
0.6395372
0.63128923
0.62408779
0.61687533
0.61090302
0.60578871
0.60141335
0.59790967
0.59532196
0.59334153
0.59225686
0.59221797
0.59245598
0.59306666
0.59459852
0.59597308
0.59912582
0.60113586
0.60535253
0.6078131
0.61373228
3.8171622
2.9763487
2.4155713
2.0581256
1.8227878
1.6487857
1.5060969
1.3846086
1.2823472
1.198463
1.130706
1.0756527
1.0297087
0.98994442
0.95471712
0.92290878
0.89310077
0.86342653
0.83503649
0.8097277
0.78808315
0.76971154
0.75434301
0.74106046
0.72979507
0.7194112
0.71020566
0.7011723
0.69256004
0.68392622
0.67551165
0.66686282
0.65843326
0.64971536
0.64151885
0.63323224
0.62579009
0.61867916
0.61224885
0.60672276
0.60221354
0.59832561
0.59531237
0.59309443
0.59152471
0.59081998
0.59088082
0.59115506
0.59203545
0.5930401
0.59539963
0.5970447
0.60040448
0.60265146
0.60731471
3.8185144
2.9809431
2.4203145
2.0620682
1.8262818
1.6522639
1.5096829
1.3881552
1.2856536
1.2014129
1.1333279
1.0780241
1.0319662
0.99218096
0.95697567
0.92519778
0.89549528
0.86592772
0.83744096
0.81195405
0.79003077
0.77148398
0.75590895
0.74246299
0.73111419
0.72070402
0.71142594
0.70248093
0.69400596
0.68542387
0.67707363
0.66854207
0.66021598
0.65165507
0.64352022
0.63534993
0.62784602
0.62064305
0.6144017
0.60820534
0.60356102
0.59931404
0.59595725
0.59330374
0.5913725
0.58990642
0.58948059
0.58957859
0.58999888
0.59063334
0.59235653
0.59355108
0.59640264
0.59804487
0.60211574
3.8195582
2.9862198
2.4255124
2.0661858
1.8298271
1.6557695
1.5133103
1.3917543
1.2890275
1.2044159
1.1359864
1.0804252
1.0342162
0.9943819
0.95918638
0.92745568
0.89784234
0.86839064
0.83982718
0.81422164
0.79207804
0.77328996
0.75754108
0.74392227
0.73242015
0.72204018
0.71273252
0.70379991
0.69539311
0.68693456
0.67868504
0.67030236
0.66204231
0.65362411
0.64553371
0.63735013
0.62988272
0.62244218
0.61613699
0.60991583
0.60466554
0.60025875
0.59659112
0.59359493
0.59134678
0.58960826
0.58844445
0.58823103
0.58834287
0.58874786
0.58969966
0.59068292
0.59280484
0.5942095
0.59752683
3.8224471
2.9924523
2.4306461
2.0700919
1.8331706
1.6590991
1.5167987
1.3952573
1.292335
1.2073797
1.1385882
1.0827647
1.0364038
0.99651056
0.96130768
0.92963864
0.90015692
0.87082649
0.84220018
0.81642204
0.79409279
0.77507341
0.75913189
0.74539182
0.73374753
0.72328212
0.71399916
0.70509062
0.69672877
0.6883561
0.68020579
0.67196237
0.66385531
0.65553273
0.64760185
0.63948441
0.63198702
0.62462814
0.6180745
0.61188979
0.60640689
0.60152409
0.5975898
0.59429653
0.59163482
0.58958516
0.58809049
0.58709288
0.58703275
0.5870995
0.58764822
0.58831238
0.58983398
0.59107929
0.59359024
3.8242319
2.998432
2.4360072
2.0741824
1.8366307
1.6625388
1.5203997
1.3988844
1.2957558
1.2104469
1.1412797
1.0851564
1.0386143
0.99865459
0.96342881
0.93177577
0.90241585
0.87326742
0.84463352
0.81871224
0.79618158
0.77699249
0.76084559
0.74692338
0.73517286
0.72459752
0.71527716
0.70640419
0.6981297
0.68983942
0.68179141
0.67363472
0.66565545
0.65746359
0.64963131
0.64162084
0.63412346
0.6267457
0.62014703
0.61363555
0.6082822
0.602938
0.59874786
0.59507127
0.59212113
0.58979246
0.58806141
0.5866394
0.58583347
0.58580263
0.58602759
0.58635251
0.58745911
0.58820025
0.59030439
3.8287113
3.006292
2.4411552
2.0779694
1.8398602
1.665774
1.5238222
1.4023627
1.2990683
1.2134238
1.1438874
1.0874642
1.0407206
1.000692
0.96546094
0.93384761
0.90459366
0.87560347
0.84696138
0.82091221
0.79817456
0.77878826
0.76246508
0.74840309
0.73650541
0.72590673
0.71654209
0.70767283
0.69943267
0.69124396
0.68333628
0.67531128
0.66742514
0.65940188
0.65163023
0.64375503
0.63632403
0.62890438
0.62233922
0.61573342
0.61013762
0.60483864
0.60017542
0.59621977
0.59294019
0.59026082
0.58821048
0.5865954
0.58532111
0.58472324
0.58470391
0.5849384
0.58541228
0.58608077
0.58750547
3.8294895
3.0101566
2.4457207
2.0817923
1.8431961
1.669136
1.5273975
1.4060084
1.3025526
1.2165695
1.1466398
1.0898819
1.042905
1.0027503
0.96747135
0.93588396
0.90675278
0.87794404
0.84935075
0.82321266
0.80034886
0.780757
0.76421941
0.75004849
0.73795586
0.72727255
0.71787341
0.70904574
0.70082295
0.69268998
0.68489855
0.67702399
0.66926054
0.66136438
0.65374631
0.64594465
0.638577
0.63119368
0.62449522
0.61793017
0.61210875
0.60663738
0.60193527
0.59758367
0.59399326
0.59101405
0.58862457
0.58668416
0.58535128
0.5841222
0.58371767
0.58369762
0.58385752
0.58431049
0.58511299
3.8327899
3.0167363
2.4494913
2.0848016
1.8460163
1.6720425
1.5305415
1.4093052
1.3057845
1.2195321
1.1492341
1.0921601
1.0449666
1.0047078
0.96938048
0.937819
0.90881374
0.88017738
0.85160829
0.82533743
0.80230742
0.7825849
0.76588297
0.75159388
0.73939432
0.72862573
0.71915742
0.71034415
0.70221895
0.69415727
0.68642388
0.67866563
0.67102379
0.66323391
0.65575721
0.64809111
0.6407952
0.63348961
0.62681297
0.62018194
0.61441675
0.60859434
0.60388953
0.59927894
0.59545096
0.59210094
0.58936584
0.58717767
0.58549768
0.58417982
0.58325194
0.58274661
0.58289176
0.5829072
0.58353873
3.8343588
3.0219137
2.4545289
2.0887857
1.849338
1.6753142
1.5340386
1.4129452
1.3093363
1.2227878
1.1520905
1.0946345
1.047138
1.006693
0.97129113
0.93972022
0.9108077
0.88241893
0.85397692
0.82770632
0.80453908
0.78466565
0.7677898
0.75333623
0.74098565
0.73014441
0.72061609
0.71179926
0.70368698
0.69573453
0.68810677
0.68047295
0.67293647
0.66527719
0.657856
0.65038791
0.64317013
0.63594929
0.62928281
0.62267108
0.61682541
0.61105978
0.60599514
0.6013754
0.59724632
0.59363379
0.59057984
0.58804327
0.58602628
0.58442174
0.58336517
0.58243917
0.58201207
0.5820099
0.58224627
3.8363391
3.0270005
2.4583688
2.09172
1.8518222
1.6777762
1.5367454
1.4158876
1.3123335
1.2256257
1.154641
1.0968984
1.0491837
1.0086082
0.97314882
0.94158243
0.91276772
0.88453426
0.85615292
0.82979695
0.80653325
0.78654271
0.76953758
0.75503678
0.74258656
0.73170958
0.72217158
0.7133882
0.70526684
0.69739555
0.68982184
0.68231241
0.67491661
0.66742921
0.6601152
0.65280823
0.6457568
0.63867685
0.6320786
0.62555239
0.61966067
0.61394009
0.6088129
0.60396935
0.59977071
0.59586894
0.59263156
0.58975539
0.58733476
0.58537382
0.5841595
0.5829346
0.58206163
0.58183069
0.58175547
3.838558
3.0342419
2.4647902
2.0964024
1.8553089
1.6809794
1.5401154
1.4194559
1.3159423
1.229032
1.1576716
1.0995281
1.0514564
1.0106348
0.97504607
0.94350459
0.91485314
0.88692462
0.85875145
0.83241938
0.80913837
0.78903214
0.77182511
0.75722819
0.74466309
0.73371586
0.72420067
0.71551734
0.70743222
0.69971311
0.69230837
0.68491583
0.67761163
0.67037006
0.66326086
0.65619282
0.64932573
0.64254289
0.63613851
0.6298311
0.6241043
0.61843672
0.61336186
0.60842611
0.60403067
0.59994229
0.59649242
0.59332873
0.59050663
0.58812282
0.58653878
0.58498698
0.58373533
0.58300744
0.58253821
3.8397311
3.0377054
2.4682541
2.0990451
1.8573608
1.6829841
1.5423502
1.4220303
1.318742
1.2318056
1.1602747
1.1019556
1.0538212
1.0130344
0.97754431
0.94619793
0.91778158
0.89007032
0.86204559
0.83562293
0.81225406
0.79212519
0.77479058
0.76022012
0.74774923
0.73697295
0.7276673
0.7192353
0.71137562
0.70392188
0.69690833
0.68983151
0.68276005
0.67584319
0.66914538
0.66254926
0.65605982
0.64981624
0.64381136
0.63793925
0.63258818
0.62725625
0.62234846
0.61754719
0.61306823
0.60882781
0.60541286
0.60191
0.59845607
0.5957156
0.59355661
0.59187624
0.58965015
0.58880516
0.58737335
3.8425616
3.046943
2.4760682
2.1045594
1.8609291
1.6863281
1.5461424
1.426628
1.3238501
1.2367032
1.1646703
1.1059834
1.0578305
1.0175689
0.98288391
0.95264871
0.92510257
0.89809313
0.87032304
0.84381984
0.82024957
0.7997564
0.78209509
0.7674647
0.7551783
0.74478115
0.7364672
0.72891468
0.72189025
0.71551258
0.70973189
0.70358974
0.69732195
0.69127772
0.68571181
0.67979643
0.67391335
0.66879573
0.66334355
0.65862977
0.65407178
0.64934439
0.64459232
0.64059377
0.63580169
0.63146921
0.62806734
0.62478324
0.62027773
0.61687059
0.61412652
0.6121022
0.60872125
0.60737056
0.60437719
3.8432062
3.0510701
2.4813407
2.1089939
1.8646792
1.692016
1.554579
1.4382809
1.3365069
1.2484297
1.17526
1.1165251
1.0699387
1.0332739
1.0033376
0.97806573
0.95393099
0.92891439
0.90078725
0.8727838
0.84712413
0.82464237
0.80535605
0.78990544
0.77817922
0.76921636
0.7628681
0.75803637
0.75429974
0.75170254
0.74972444
0.74722128
0.7441906
0.74017776
0.73785963
0.7336786
0.72897842
0.72652941
0.72107009
0.71670393
0.71353645
0.70931327
0.7047654
0.70185633
0.69633265
0.69116374
0.68866004
0.68618753
0.680483
0.67529811
0.6724209
0.67040563
0.66561295
0.66286191
0.65645413
3.8553795
3.112061
2.526299
2.1439886
1.8975512
1.7360146
1.6155278
1.5132
1.4090881
1.3113429
1.2300224
1.1702213
1.1293577
1.1072988
1.0943016
1.0855617
1.0726898
1.0561995
1.0257516
0.9942357
0.95942621
0.92728354
0.90208529
0.87913877
0.86860005
0.86514408
0.86547476
0.86863624
0.87698928
0.89261487
0.90510703
0.91639224
0.9277194
0.93099181
0.93903453
0.93925882
0.93859082
0.94080755
0.93957647
0.93457597
0.93230453
0.92647938
0.92241103
0.92158683
0.91842644
0.90736454
0.90245397
0.90278585
0.90231249
0.89621753
0.88979899
0.88882759
0.88787367
0.88551314
0.86974967
4.0019057
3.5671435
2.8376381
2.3803442
2.1224617
1.9930668
1.9430122
1.8932126
1.7776137
1.642699
1.5381349
1.4980479
1.4983972
1.5165738
1.5712836
1.6269099
1.6553847
1.6752422
1.6683411
1.6488088
1.5943956
1.5397247
1.5034974
1.4692301
1.4656303
1.4710593
1.4857426
1.5299586
1.5756731
1.6390595
1.6789593
1.7218734
1.7631301
1.7745595
1.8072891
1.8131557
1.8136049
1.8367409
1.8421395
1.8342875
1.835584
1.8321193
1.8285753
1.8345529
1.8348631
1.8155961
1.7972117
1.8026987
1.8135816
1.8022002
1.7807447
1.781647
1.7914513
1.7939243
1.7651069
5.4439956
5.1782749
4.39713
3.7011338
3.551825
3.5771412
3.7586603
3.8494481
3.838695
3.7694183
3.6942607
3.6962602
3.7302624
3.8224896
3.9117374
3.9910734
4.0245848
4.1000093
4.0918051
4.1368908
4.1098116
4.0759467
4.0234032
3.9585054
3.9503999
3.993307
4.0053109
4.0751117
4.0972928
4.182863
4.2082155
4.2515988
4.3098742
4.290828
4.345985
4.3276932
4.2838634
4.3757476
4.3765334
4.3887355
4.4250257
4.3677444
4.3797833
4.4561401
4.5262242
4.4277469
4.3124466
4.3582158
4.4896048
4.4242043
4.3205416
4.3055043
4.3501811
4.3667417
4.323464
11.363424
12.139243
12.363141
12.584082
12.48379
12.464632
12.472182
12.535776
12.575335
12.612238
12.623741
12.596567
12.573985
12.565655
12.568052
12.572157
12.577573
12.586738
12.661945
12.762331
12.890505
12.944063
13.011085
12.993237
13.007913
12.981426
12.99761
12.976234
12.99006
12.982602
12.999962
13.008246
13.026037
13.043958
13.056011
13.080342
13.088697
13.097934
13.119288
13.13084
13.142568
13.161141
13.168426
13.174711
13.191638
13.201058
13.206073
13.201842
13.206645
13.232839
13.21047
13.219463
13.205404
13.219938
13.207971
13.61931
4.4262224
1.8148041
0.89852568
0.66491701
0.60665138
0.58806722
0.58265654
0.58198067
0.58244006
0.58387959
0.58581259
0.58831271
0.5911992
0.59478356
0.59880378
0.60360954
0.60917312
0.61563349
0.62331404
0.63267823
0.64437612
0.66171125
0.68594489
0.6965929
0.70835855
0.72585546
14.339244
4.8635121
1.9812659
0.96020781
0.68106144
0.61081868
0.58938892
0.58324762
0.58246111
0.58293483
0.58446503
0.58657669
0.5892614
0.59237843
0.59606191
0.60028888
0.60521956
0.6108743
0.61742965
0.6249635
0.63388528
0.64518082
0.66177886
0.68711393
0.69998684
0.71015495
0.72511446
15.186858
5.2522276
2.0835104
0.9917762
0.69008003
0.6140092
0.59097554
0.58433482
0.58346833
0.58400854
0.58580034
0.58832459
0.59125894
0.5945348
0.59838402
0.60277473
0.60781421
0.61361475
0.62027195
0.62790049
0.63670341
0.64736733
0.66236822
0.68804645
0.70543112
0.71464761
0.72615085
16.079587
5.1304622
2.1168515
1.0193469
0.7026167
0.6196326
0.5942114
0.58681688
0.58592853
0.58653978
0.58849177
0.59104249
0.59409953
0.59750535
0.60145274
0.60592098
0.61112403
0.61714933
0.62383845
0.6314904
0.64022972
0.65022013
0.66317599
0.68821333
0.7082526
0.72174245
0.73090802
16.992825
5.1706771
2.2023753
1.0899295
0.73519532
0.63375261
0.60167696
0.59115383
0.58905001
0.58928098
0.59064236
0.5932278
0.5961589
0.59955273
0.60355243
0.60824783
0.61354967
0.61959819
0.62656822
0.63454694
0.64348723
0.65356865
0.66487487
0.68814383
0.70999945
0.72871035
0.73881173
17.939977
5.6640299
2.515045
1.2507698
0.78212873
0.64856333
0.60786896
0.59418369
0.59095151
0.59093209
0.5920011
0.59456148
0.59775615
0.60152277
0.60582233
0.6106404
0.61598338
0.62197694
0.62880586
0.63658182
0.64535333
0.65570369
0.66601378
0.68798263
0.71003101
0.7327973
0.74613024
19.020394
7.0824107
2.905412
1.354901
0.80442299
0.65572425
0.61073382
0.59585085
0.59225217
0.59225939
0.59344646
0.59624753
0.59989333
0.60390045
0.60861161
0.61373298
0.61954999
0.6259626
0.63291975
0.6407501
0.64928653
0.65966235
0.66870399
0.68838612
0.70990738
0.735147
0.75233976
20.23025
7.5571842
2.9649342
1.363168
0.80735878
0.65823421
0.61263034
0.59790713
0.59458437
0.59473525
0.5964332
0.60007055
0.60392122
0.60790586
0.61223799
0.61712799
0.62257785
0.62898417
0.63615611
0.6442856
0.653295
0.66415
0.67276946
0.69045084
0.71090998
0.73727509
0.75747902
21.658381
6.6792426
2.8031165
1.3290905
0.80969496
0.66176373
0.61687859
0.60284657
0.60022477
0.60109507
0.60309391
0.60648148
0.60999139
0.61372432
0.61789639
0.62256108
0.6277008
0.63351681
0.64008543
0.64789461
0.65642404
0.66767156
0.67596687
0.69257894
0.71174377
0.73776107
0.76113763
22.795904
6.2689862
2.7534592
1.3450143
0.83328857
0.67618943
0.6318146
0.61516165
0.61009746
0.60906927
0.60988091
0.61197325
0.61531084
0.61895546
0.62328726
0.6280276
0.63346704
0.63945813
0.64603013
0.65369221
0.66166106
0.67273786
0.68034454
0.69555611
0.71305823
0.73801724
0.76281682
24.132502
7.043647
3.0241227
1.5278052
0.93022525
0.71570007
0.65349969
0.62623882
0.61694139
0.61378722
0.61381886
0.6150446
0.61826076
0.6218519
0.62615189
0.63116388
0.63673284
0.6431536
0.65022278
0.65843302
0.66676572
0.67841959
0.68613337
0.70017872
0.71605607
0.73929821
0.76482115
25.60996
7.9876734
3.5290251
1.7492958
0.98661756
0.7328785
0.66079346
0.63016604
0.6194009
0.61546733
0.6154707
0.61667526
0.62005065
0.62404846
0.62893211
0.63460616
0.64068709
0.64731767
0.65447545
0.66276975
0.67100263
0.68308067
0.69120746
0.70474068
0.71972055
0.7411073
0.76657081
27.211053
9.5218047
3.8017006
1.8179618
0.99608055
0.73783797
0.66195308
0.63213646
0.62102858
0.61741917
0.61751836
0.61920103
0.62315812
0.62814426
0.63360808
0.63950922
0.64599779
0.65283498
0.66003809
0.6680909
0.67573814
0.68750802
0.69535511
0.70843164
0.72245439
0.74207515
0.76725846
29.192154
9.1704526
3.7125049
1.7751182
0.98522332
0.73612374
0.66176009
0.63458598
0.6240323
0.62132353
0.62180174
0.62456934
0.62995503
0.63520938
0.64048585
0.64603253
0.65216771
0.65884718
0.66617793
0.6746962
0.68236886
0.69433062
0.70198252
0.71434715
0.72734224
0.74482604
0.76878216
30.892142
7.903137
3.410517
1.7053323
0.98445249
0.73741436
0.66503615
0.64108027
0.63223395
0.63184591
0.63309373
0.63678411
0.64154955
0.64579605
0.65014427
0.65468651
0.65979802
0.66539854
0.67183129
0.67967934
0.68690329
0.69908501
0.70700856
0.71935286
0.73260819
0.74838369
0.77099426
32.819677
7.7651916
3.4313866
1.7440133
1.0212826
0.75493113
0.68512372
0.66219571
0.65462533
0.64993748
0.64892867
0.64992923
0.65241964
0.65575474
0.65948951
0.66344664
0.66797337
0.67304547
0.67859783
0.68565112
0.69170998
0.70330437
0.71103594
0.72278993
0.73635445
0.75097989
0.7723703
34.682136
9.4155616
3.9570112
2.0359646
1.1840509
0.826079
0.72823389
0.6863818
0.67148407
0.66066874
0.6574346
0.65675246
0.65798106
0.66092651
0.66470895
0.66906301
0.6738854
0.67939262
0.68519907
0.69260201
0.69841787
0.70926862
0.71663972
0.72696386
0.74032041
0.75369158
0.77367827
37.004952
11.770294
4.5637249
2.3053029
1.2708141
0.86592132
0.7410931
0.69487727
0.67550774
0.66350384
0.65919717
0.65817614
0.65913629
0.66205694
0.6661118
0.67085245
0.67624636
0.68237143
0.68876479
0.69688417
0.70308509
0.71438232
0.72230299
0.73211039
0.74546169
0.75808226
0.7766384
39.484287
10.382134
4.3860798
2.2650293
1.2640341
0.86528499
0.74215606
0.69692229
0.6770187
0.66552068
0.66081932
0.65984958
0.66078151
0.66383659
0.66803506
0.67289473
0.67845732
0.68466506
0.69114423
0.69940654
0.70568448
0.71703626
0.72586789
0.73531857
0.74886107
0.76146185
0.77901396
41.647802
10.462043
4.3857802
2.2840677
1.2800097
0.87195345
0.74667295
0.70191478
0.68226528
0.67128697
0.66609355
0.66481145
0.66554138
0.66869324
0.67311212
0.67804509
0.68372533
0.69000418
0.696626
0.70499222
0.71126185
0.72241148
0.73126969
0.73961959
0.75257031
0.76459013
0.78113927
44.31952
13.016515
4.9457755
2.5316117
1.3843146
0.91532768
0.76516945
0.72001304
0.69915527
0.68886599
0.68178709
0.67931471
0.67952667
0.68200485
0.68607604
0.69044781
0.69535953
0.70090189
0.70658424
0.71428956
0.71949804
0.72935339
0.73799606
0.74551244
0.75738857
0.76864707
0.78444958
47.093891
12.555547
5.3536288
2.7010451
1.489975
0.95382341
0.78699902
0.73381175
0.71036382
0.69998862
0.69209669
0.68890023
0.68799203
0.68955469
0.69254686
0.69644965
0.70077197
0.70593091
0.71130868
0.71869256
0.72399065
0.73337011
0.74242493
0.74957872
0.76095604
0.77164505
0.78696787
49.782382
12.713696
5.5321266
2.8140784
1.5615821
0.98317657
0.80623236
0.74388097
0.72126412
0.70736437
0.69867396
0.69412725
0.6932314
0.69417486
0.69676046
0.7002904
0.7040918
0.70887942
0.71390963
0.72130411
0.72677363
0.73592716
0.74566765
0.75262751
0.76375114
0.77404194
0.78882578
52.765571
14.263613
6.1388216
3.1457798
1.7365769
1.0563948
0.8483567
0.76757556
0.75017971
0.72578589
0.71282675
0.70487078
0.70319289
0.7027123
0.70437845
0.70747949
0.71100662
0.7152952
0.71956303
0.72608078
0.73064153
0.73864857
0.7481673
0.75486233
0.76545859
0.77535094
0.7897079
55.993456
21.725262
9.3222764
4.6561945
2.433763
1.3293219
0.96495227
0.83070195
0.79612854
0.75492904
0.73427592
0.71590225
0.70974768
0.70778113
0.70843399
0.71108379
0.71459845
0.71916996
0.72351479
0.72997681
0.73434441
0.74147667
0.75084532
0.75740496
0.76736712
0.77680382
0.7905205
60.374363
24.878292
10.36465
5.2387424
2.6872905
1.4199758
0.99092068
0.84342372
0.79985581
0.75694908
0.73768446
0.71765813
0.71007799
0.70762474
0.70803779
0.71052316
0.71423625
0.71886552
0.72360383
0.73061167
0.73634029
0.74378573
0.75403867
0.76115775
0.77068577
0.7797089
0.79278955
63.573677
19.982797
8.9913943
4.7248686
2.4349011
1.3273397
0.95631846
0.82761283
0.77969417
0.74019069
0.72590202
0.71112886
0.70572603
0.70311447
0.70412356
0.70759141
0.71235927
0.71791039
0.72340617
0.73096578
0.7376371
0.74547762
0.75639808
0.76449986
0.77435668
0.78321398
0.79594003
65.98499
11.682025
5.408795
3.0826233
1.760763
1.1425075
0.90874789
0.80897125
0.75958717
0.72739825
0.71302875
0.70286429
0.70001955
0.69934362
0.70210433
0.70685697
0.71228166
0.71827739
0.72432909
0.73258817
0.73974868
0.74745597
0.75834686
0.76665908
0.77679087
0.78562336
0.7980451
69.851688
11.516459
4.7503704
2.7271919
1.7085511
1.1639242
0.92929179
0.82375295
0.7675705
0.73556406
0.71750245
0.70654602
0.70261576
0.70165065
0.70448309
0.70942095
0.71527766
0.72191711
0.72876601
0.73752954
0.74504445
0.75239224
0.76318134
0.77160535
0.78099486
0.78887418
0.80092235
75.391275
22.394049
7.5400597
4.0287071
2.5311228
1.6545376
1.1921142
0.95250418
0.84526317
0.79301862
0.75951442
0.73565752
0.72680434
0.7201569
0.72166625
0.72504073
0.73095989
0.73755249
0.74446261
0.75213903
0.75863602
0.76422617
0.77318437
0.78018028
0.7882129
0.79451492
0.80564216
77.697721
39.355614
18.305042
10.418765
6.533668
4.0138107
2.4380008
1.5049491
1.1336006
0.94953627
0.8810705
0.81565963
0.79195935
0.76802641
0.76104604
0.75554339
0.75594219
0.75735094
0.76003062
0.76426098
0.76886996
0.77263582
0.77991728
0.78620529
0.79387838
0.79934529
0.80929719
78.16014
38.430684
20.268925
13.26367
9.0594619
5.7634616
3.4173784
1.9500214
1.3201228
1.0345712
0.93688489
0.85519591
0.81924527
0.78856816
0.77565472
0.76639962
0.76379709
0.76305266
0.7640971
0.76695489
0.77122649
0.77451209
0.78133295
0.78762665
0.79557201
0.80107218
0.81029072
79.786988
31.404355
19.304071
13.249646
9.2193491
5.9127823
3.5075947
1.998936
1.3362258
1.0447566
0.94050704
0.85920313
0.82026712
0.78968335
0.77564629
0.7662723
0.76328385
0.76239099
0.76337854
0.76623675
0.77064543
0.77406224
0.7808562
0.78729112
0.79530118
0.8009325
0.81000432
81.872612
21.534734
15.341497
11.701744
8.2153581
5.2087397
3.0638889
1.7846078
1.2354394
1.0056334
0.91194356
0.84214719
0.80479371
0.77922536
0.76566994
0.75871943
0.75636101
0.75668973
0.75868556
0.76271987
0.76790668
0.77224629
0.77954856
0.78641163
0.7946348
0.80038584
0.80943185
84.171197
17.158054
10.145259
7.4711992
5.0998829
3.1701587
1.9229187
1.2651653
1.0019503
0.88531258
0.8330637
0.78797683
0.76754327
0.7522694
0.74621532
0.74432263
0.74534638
0.74848668
0.75248048
0.75777822
0.76393339
0.76915279
0.77698807
0.78464449
0.79335575
0.79959549
0.8087608
86.797049
17.103407
8.5195172
5.468769
3.494122
2.1634223
1.4025976
1.0373059
0.89724265
0.82033086
0.79023593
0.75724067
0.74900829
0.73895608
0.73795395
0.73818123
0.74119169
0.74540483
0.75022032
0.75595769
0.7624162
0.76792408
0.77579089
0.78359228
0.79241497
0.79867194
0.80819638
88.720142
21.145529
8.917958
5.3401469
3.2838734
2.0071822
1.3169977
0.99917934
0.87947716
0.80776162
0.78047119
0.75031819
0.74516107
0.73650484
0.73698233
0.73752993
0.74102327
0.74527476
0.75027031
0.75599711
0.7624976
0.76801654
0.77584091
0.78365366
0.79246221
0.79852108
0.80822291
89.34711
26.616129
11.262256
6.1183136
3.6394075
2.1851807
1.3980661
1.0318672
0.89470393
0.81532869
0.78487459
0.75315819
0.74785026
0.73886338
0.73996749
0.74018878
0.74414383
0.74799111
0.75340124
0.75886133
0.7653313
0.77079333
0.77840258
0.78607983
0.79469538
0.80015012
0.80982377
89.391092
26.345349
12.485209
7.8356927
4.8789339
2.9579998
1.7851015
1.1934621
0.96741474
0.85401348
0.81039595
0.77142538
0.76307012
0.75115164
0.75140213
0.74959239
0.75251399
0.75494316
0.75966546
0.76428464
0.77020252
0.77523701
0.78228338
0.78926661
0.79765051
0.80233187
0.81148552
89.284953
23.810194
12.501936
8.4495707
5.5976729
3.5517018
2.1394762
1.3506637
1.033384
0.88964524
0.8360504
0.79290677
0.77837904
0.76308666
0.75920857
0.75579542
0.75692401
0.75863176
0.76268906
0.76693352
0.77246422
0.77727467
0.78401576
0.79070848
0.79871161
0.80337205
0.8123686
88.945284
19.866086
11.94697
8.457137
5.6941983
3.6698583
2.2330221
1.3957541
1.051147
0.89922265
0.84328761
0.79987193
0.78293462
0.76680532
0.76126705
0.75765416
0.75808008
0.75965163
0.76338597
0.76752283
0.77283619
0.77760797
0.78424429
0.79094891
0.79873735
0.80360897
0.81267248
88.341417
17.969721
10.442071
7.9544326
5.4608389
3.5503186
2.1826833
1.3762741
1.0424015
0.89647521
0.84238852
0.79987832
0.78270868
0.76670152
0.76094275
0.75748793
0.75779497
0.75943882
0.76311938
0.76730516
0.77257649
0.77740603
0.784076
0.7908459
0.79854635
0.80368343
0.81263871
87.39981
17.604112
9.6720155
6.9540032
4.6999458
3.0424054
1.8991074
1.2488459
0.98452528
0.87123786
0.82883899
0.79242814
0.77665083
0.76234493
0.75719409
0.7549345
0.75557672
0.75791678
0.7617549
0.76628515
0.77156843
0.77674627
0.78364414
0.79056846
0.79820493
0.80366368
0.81320982
85.970414
17.891417
9.5311692
6.5047129
4.2457626
2.6820238
1.6692668
1.1467681
0.93595013
0.84528361
0.80846592
0.77780686
0.76428154
0.75369771
0.75041909
0.74949024
0.75132637
0.75446026
0.75884289
0.76384881
0.76946621
0.77539048
0.78292412
0.79029724
0.7979607
0.80445645
0.81486613
84.10637
18.941033
9.5940919
6.4206749
4.1306738
2.5807437
1.5992882
1.1170732
0.92104879
0.83686852
0.79996758
0.77125881
0.75825143
0.74972383
0.7471915
0.74693109
0.7493063
0.75286628
0.75760032
0.76281855
0.76878144
0.77494825
0.78276835
0.79020472
0.79797973
0.80491793
0.81581105
81.885228
19.406522
9.7064044
6.46894
4.1759843
2.6110452
1.6126308
1.1238042
0.9232477
0.8377429
0.79926619
0.77060368
0.75725133
0.74908176
0.74665683
0.74642084
0.74900065
0.75251192
0.75748323
0.76267183
0.76888645
0.77525769
0.78338053
0.79093363
0.79905689
0.80711001
0.81877213
79.393757
19.334582
9.7093702
6.5995842
4.4423293
2.8435478
1.7437052
1.1822677
0.94553092
0.84742131
0.8028263
0.77259266
0.75849431
0.74964318
0.74722372