/*--------------------------------*- C++ -*----------------------------------*\
| =========                 |                                                 |
| \\      /  F ield         | OpenFOAM: The Open Source CFD Toolbox           |
|  \\    /   O peration     | Version:  2406                                  |
|   \\  /    A nd           | Website:  www.openfoam.com                      |
|    \\/     M anipulation  |                                                 |
\*---------------------------------------------------------------------------*/
FoamFile
{
    version     2.0;
    format      ascii;
    arch        "LSB;label=32;scalar=64";
    class       volScalarField;
    location    "19";
    object      omega_0;
}
// * * * * * * * * * * * * * * * * * * * * * * * * * * * * * * * * * * * * * //

dimensions      [0 0 -1 0 0 0 0];

internalField   nonuniform List<scalar> 
96472
(
3.8125111
2.9386873
2.3705432
2.0187206
1.7862642
1.6121345
1.4694591
1.3498605
1.2511131
1.171056
1.1062332
1.0528255
1.0071394
0.96723189
0.93144074
0.8994857
0.86919424
0.84024053
0.81337077
0.79078133
0.77116571
0.75557029
0.74133181
0.72986716
0.71841796
0.70899331
0.69849859
0.68993144
0.67961079
0.67093466
0.66044817
0.65202668
0.64106592
0.63345191
0.62454552
0.61883704
0.61266431
0.60925018
0.60920924
0.61134377
0.61497361
0.61991429
0.6311912
0.64075277
0.64827624
0.65496701
0.65874721
0.66143745
0.66125654
0.66238028
0.66709158
0.67614473
0.68739942
0.70247503
0.72635181
3.8125679
2.9389582
2.3735012
2.0224916
1.7903432
1.6164483
1.4738866
1.3541998
1.2551273
1.1746287
1.109431
1.055839
1.0101188
0.97034228
0.93465818
0.90279696
0.87237802
0.84332098
0.81610069
0.79323228
0.77315548
0.75727076
0.74255373
0.73112662
0.71919887
0.71001168
0.69894027
0.69045638
0.67985246
0.67124052
0.66132019
0.652408
0.64300368
0.63459361
0.62543399
0.61954487
0.61219141
0.60784924
0.60371842
0.60035262
0.59857858
0.5987021
0.59982225
0.60431869
0.61122066
0.62478597
0.63746288
0.6514289
0.65636551
0.66224715
0.66559321
0.6726512
0.67964874
0.68662637
0.70429028
3.8131164
2.9428682
2.3782628
2.02706
1.7949966
1.6213453
1.478748
1.3585838
1.258828
1.1777207
1.1121185
1.0583319
1.0126289
0.97286907
0.93722778
0.90526241
0.87488201
0.84556729
0.81821542
0.79491223
0.77470035
0.75843288
0.74370489
0.7320056
0.72033431
0.71100573
0.7003074
0.69203426
0.68110272
0.67337534
0.66211204
0.65459337
0.64393889
0.63640082
0.62710786
0.62109176
0.61424252
0.60977721
0.60578882
0.60326147
0.60121209
0.600792
0.60084789
0.60153247
0.6030829
0.60756296
0.61233694
0.62263613
0.63297985
0.64784258
0.65817461
0.66515694
0.67425887
0.67983638
0.69256596
3.8140005
2.9481552
2.3839492
2.0318098
1.7993561
1.6256869
1.4829961
1.3625057
1.2622609
1.1806966
1.1147956
1.0608842
1.0151798
0.97550226
0.93992981
0.90798885
0.87765679
0.84825152
0.82068907
0.79705788
0.77658857
0.76005042
0.74528912
0.73331525
0.72181467
0.71223245
0.70184836
0.69328752
0.68307772
0.67481682
0.66466605
0.65663486
0.64657658
0.63881711
0.62923008
0.6228583
0.6153101
0.61016095
0.60553185
0.60256525
0.60004938
0.59951418
0.59965028
0.60024061
0.60126122
0.60345816
0.60693492
0.61031918
0.61767493
0.62354669
0.63665175
0.64422169
0.65936943
0.66670896
0.68302494
3.8147676
2.9526116
2.3890196
2.0362229
1.8034788
1.629839
1.4871085
1.3663485
1.2656847
1.1836864
1.1174792
1.0634237
1.0177147
0.9780356
0.94256554
0.91059524
0.88034772
0.85077162
0.82308257
0.79907514
0.77843778
0.76149301
0.74675848
0.73445355
0.72317976
0.71333567
0.70341494
0.69442332
0.68484726
0.67611782
0.66647009
0.65777924
0.6483371
0.64022182
0.63121117
0.62391627
0.61706205
0.61154044
0.60653919
0.60293447
0.6002671
0.59849776
0.5982398
0.59847821
0.59936223
0.6007323
0.60376618
0.60608853
0.6111559
0.61463427
0.62240229
0.62740287
0.63825294
0.64466922
0.6618755
3.8156056
2.9579871
2.3948811
2.0409376
1.8076168
1.6338904
1.4910947
1.3700944
1.2690321
1.1866389
1.1201329
1.0659203
1.0202154
0.98051206
0.94514188
0.91312969
0.88303763
0.85330732
0.82549141
0.80112714
0.78035887
0.76300539
0.7483159
0.73564557
0.72459622
0.71444335
0.70493188
0.69559887
0.68662883
0.67754593
0.66870703
0.65966641
0.65080767
0.64202058
0.63366145
0.62560714
0.6184038
0.61243792
0.60695171
0.60284091
0.59980706
0.59751208
0.59642965
0.59648231
0.59686814
0.59781864
0.60015405
0.60212487
0.60643898
0.60908267
0.61501081
0.61853936
0.62613154
0.63066733
0.64288764
3.816505
2.9632642
2.4003274
2.0454145
1.8115912
1.637796
1.494988
1.3738057
1.2723842
1.1896031
1.1227909
1.0683798
1.0226535
0.98294305
0.94761871
0.91563796
0.88560792
0.8558847
0.82789751
0.80324865
0.78225006
0.76464737
0.74977955
0.73696804
0.72588235
0.71564342
0.70628084
0.69698658
0.6881309
0.67910203
0.67040819
0.66137533
0.65270253
0.64384468
0.63564483
0.62759787
0.62016993
0.6138353
0.60853031
0.60380796
0.60028613
0.5976568
0.59583274
0.59506014
0.59518436
0.59560019
0.59690211
0.59837093
0.60163348
0.6039226
0.60881798
0.61178485
0.61788264
0.62154977
0.63018365
3.81681
2.9682759
2.4059478
2.0499116
1.8154748
1.641558
1.4987446
1.3774272
1.2757018
1.1925469
1.1254427
1.0708263
1.0250406
0.98532034
0.95004563
0.91810475
0.88812769
0.85843139
0.83029055
0.80542783
0.78416506
0.76630032
0.75128549
0.73831606
0.72718245
0.71691377
0.70759031
0.69838302
0.68969249
0.68084575
0.67218754
0.66330487
0.65469264
0.64584186
0.6375404
0.62937813
0.62203161
0.61487205
0.60951202
0.60431691
0.60039875
0.5973373
0.5951948
0.59376445
0.59358112
0.59378063
0.5944765
0.59547361
0.59787824
0.59958135
0.60356283
0.60591212
0.61113918
0.61402777
0.62112382
3.8171907
2.9719767
2.4105305
2.0539489
1.8191337
1.6451903
1.5024326
1.3810172
1.279022
1.1955006
1.1280702
1.0732542
1.0273833
0.9876371
0.95238613
0.92051204
0.89062384
0.8609529
0.83266223
0.80758284
0.78611786
0.76795908
0.75279709
0.73966238
0.72847573
0.71816371
0.70892042
0.69977351
0.69110609
0.68240745
0.67385263
0.66511906
0.65652511
0.64776099
0.63954687
0.6312971
0.62409463
0.6168813
0.61091081
0.60579827
0.60142395
0.59792179
0.59533715
0.59335455
0.59227482
0.59223428
0.59247293
0.59308654
0.59461075
0.59600092
0.59913735
0.60116901
0.60535562
0.60785947
0.61373723
3.8171874
2.9763114
2.4155337
2.0581278
1.8228145
1.6488133
1.5061155
1.3846198
1.282355
1.1984727
1.130717
1.0756612
1.0297115
0.98993328
0.95468326
0.9228601
0.89308074
0.86346388
0.83508125
0.80976556
0.78810765
0.76973225
0.7543598
0.74107692
0.72981553
0.71942991
0.71022509
0.70119516
0.69258293
0.68394463
0.67552644
0.66687583
0.65844576
0.64972768
0.64153056
0.63324143
0.62579981
0.61868784
0.6122581
0.60673324
0.60222476
0.59833808
0.59532539
0.59310978
0.59153951
0.59083729
0.59089732
0.59116979
0.59205989
0.59305061
0.59542913
0.59705474
0.60043858
0.60266873
0.60733616
3.8185394
2.9809073
2.4202775
2.0620706
1.8263087
1.6522924
1.509702
1.3881663
1.2856615
1.2014223
1.133339
1.0780334
1.0319685
0.99216925
0.95694352
0.92515097
0.89547201
0.86596202
0.83748531
0.81199417
0.79005721
0.77150219
0.75592787
0.74247786
0.73113215
0.72072761
0.71144806
0.70249958
0.69402585
0.68544543
0.67709352
0.66855822
0.6602285
0.6516655
0.64352868
0.63535736
0.6278538
0.62065165
0.61440947
0.60821519
0.6035723
0.59932573
0.59596983
0.59331787
0.59138777
0.58992235
0.58949684
0.58959927
0.5900106
0.59065866
0.59237037
0.59357181
0.59643294
0.59804827
0.60215831
3.8195824
2.9861861
2.4254753
2.066188
1.8298547
1.6557985
1.5133299
1.391765
1.2890357
1.204425
1.1359964
1.0804351
1.0342202
0.99437035
0.95915305
0.92740838
0.89781843
0.86842319
0.83987215
0.81425878
0.79210666
0.77330547
0.75755768
0.74394011
0.73243659
0.72205945
0.71275805
0.70382289
0.69541159
0.68695197
0.67870251
0.6703203
0.66205907
0.65363969
0.64554637
0.63735924
0.62989032
0.62244964
0.61614458
0.60992368
0.6046752
0.60027059
0.59660338
0.5936089
0.59136171
0.5896224
0.58846318
0.5882448
0.58836446
0.58876371
0.58971713
0.59071227
0.59280704
0.59425495
0.59752982
3.8224712
2.9924188
2.4306085
2.0700938
1.8331981
1.6591288
1.5168189
1.3952683
1.2923428
1.2073892
1.1385981
1.0827738
1.0364082
0.99650162
0.96127576
0.92958899
0.90012968
0.87085826
0.84224754
0.81645988
0.79411965
0.77509333
0.75914774
0.74540756
0.73376802
0.72330104
0.71401998
0.70511484
0.6967534
0.68837755
0.68022302
0.67197736
0.66386943
0.6555465
0.64761537
0.63949622
0.63199718
0.62463841
0.61808464
0.61189937
0.6064173
0.60153542
0.59760223
0.59431055
0.59164866
0.58960214
0.58810318
0.58711241
0.58705112
0.58711233
0.58767544
0.58831974
0.58986859
0.59109005
0.59361832
3.8242557
2.9983997
2.4359699
2.0741839
1.8366587
1.6625689
1.5204201
1.3988962
1.2957631
1.2104558
1.1412901
1.0851654
1.0386184
0.99864614
0.96339975
0.93172751
0.9023842
0.87329615
0.84468125
0.81875456
0.79620916
0.77701208
0.76086461
0.74693812
0.73519121
0.7246205
0.71529955
0.70642487
0.6981517
0.68986322
0.6818137
0.67365359
0.66567039
0.65747607
0.64964182
0.64163018
0.63413189
0.62675476
0.62015641
0.61364548
0.60829265
0.60294892
0.5987604
0.59508331
0.59213662
0.58980594
0.58807853
0.58665646
0.58584534
0.58582962
0.58603673
0.58637639
0.5874787
0.58821664
0.59033264
3.8287355
3.0062592
2.4411177
2.0779703
1.8398881
1.6658047
1.5238435
1.4023746
1.2990762
1.2134321
1.1438973
1.0874739
1.040725
1.0006835
0.96543128
0.93380063
0.90456124
0.87562904
0.84700794
0.82095193
0.79820601
0.7788055
0.76248149
0.74842051
0.73652195
0.72592685
0.71656799
0.70769714
0.69945308
0.69126392
0.68335642
0.67533097
0.66744342
0.6594183
0.65164492
0.64376706
0.63633351
0.62891278
0.62234799
0.61574172
0.61014763
0.60484838
0.60018666
0.59623198
0.59295314
0.59027557
0.58822766
0.58660587
0.585345
0.5847344
0.58472402
0.58496435
0.58541753
0.58612158
0.58750763
3.8295149
3.0101277
2.4456843
2.0817934
1.8432245
1.6691674
1.5274194
1.4060204
1.3025605
1.2165782
1.146649
1.0898916
1.0429106
1.002743
0.96744249
0.93583487
0.90671819
0.87796789
0.84940059
0.82325136
0.80037937
0.78077666
0.7642347
0.75006421
0.73797472
0.72729139
0.71789491
0.70907129
0.70084858
0.69271369
0.68491883
0.6770412
0.66927648
0.66137971
0.65376102
0.64595872
0.63858894
0.63120457
0.62450636
0.61794112
0.61211973
0.60664829
0.60194702
0.59759575
0.59400562
0.59102979
0.58863722
0.58670348
0.58536495
0.58413778
0.58374454
0.58370161
0.58389667
0.58430953
0.58514688
3.8328161
3.0167081
2.4494555
2.0848031
1.8460449
1.6720743
1.530564
1.4093176
1.3057922
1.2195408
1.1492436
1.0921691
1.0449723
1.0047022
0.96935385
0.93777056
0.90877468
0.88019776
0.85165796
0.82538035
0.80233709
0.78260623
0.76590164
0.75160862
0.73941333
0.72864846
0.71917929
0.71036637
0.70224292
0.69418259
0.68644874
0.67868703
0.67104128
0.66324846
0.65576985
0.6481028
0.64080571
0.6334997
0.6268237
0.62019321
0.61442784
0.60860601
0.60390138
0.59929055
0.595464
0.59211405
0.58938034
0.58719485
0.58551072
0.58420283
0.58325979
0.58277337
0.58290891
0.5829181
0.5835708
3.8343856
3.0218872
2.4544932
2.0887867
1.8493665
1.6753467
1.534062
1.4129584
1.3093442
1.2227961
1.1521001
1.0946439
1.0471435
1.0066872
0.97126554
0.93967324
0.91076695
0.88243562
0.85402536
0.82774929
0.80457242
0.78468548
0.76780674
0.75335344
0.74100165
0.73016581
0.72064148
0.7118243
0.70370961
0.69575635
0.68812954
0.68049533
0.67295671
0.66529512
0.65787188
0.65040192
0.64318223
0.63595922
0.62929249
0.62268137
0.61683552
0.61106983
0.60600623
0.601387
0.59725842
0.59364636
0.59059477
0.58805689
0.58604375
0.58443626
0.58338204
0.58246348
0.58201305
0.58205334
0.5822489
3.8363662
3.0269748
2.4583336
2.0917212
1.8518511
1.6778093
1.5367692
1.4159012
1.312342
1.225634
1.1546503
1.096908
1.04919
1.0086034
0.97312337
0.94153534
0.91272558
0.88454765
0.85620282
0.82983706
0.80656747
0.78656407
0.76955254
0.75505311
0.7426035
0.73172855
0.7221935
0.7134138
0.70529346
0.69742046
0.68984467
0.68233252
0.67493469
0.66744589
0.6601312
0.65282424
0.64577116
0.63868972
0.63209051
0.62556477
0.61967283
0.61395169
0.60882505
0.60398058
0.59978312
0.59588216
0.59264502
0.5897694
0.58734939
0.58538973
0.58418051
0.58294197
0.58209093
0.58184342
0.58177536
3.8385854
3.0342181
2.4647541
2.0964022
1.8553376
1.6810131
1.5401403
1.4194702
1.3159512
1.2290407
1.1576806
1.0995375
1.0514629
1.0106307
0.97502198
0.94345653
0.91480747
0.88693424
0.85880219
0.83246296
0.80917075
0.78905533
0.7718428
0.75724301
0.74468141
0.73373773
0.72422215
0.7155395
0.70745723
0.69973967
0.69233454
0.68493936
0.67763134
0.67038659
0.66327533
0.65620646
0.64933861
0.64255537
0.63615088
0.62984408
0.62411806
0.61844965
0.61337405
0.60843865
0.60404254
0.59995459
0.59650602
0.59334223
0.59051997
0.58813992
0.586551
0.58500744
0.58375135
0.58302207
0.58256255
3.8397584
3.0376823
2.4682186
2.0990449
1.8573893
1.683018
1.5423756
1.4220451
1.3187509
1.2318144
1.1602841
1.1019649
1.0538279
1.0130314
0.97752194
0.94615133
0.91773243
0.89007472
0.86209348
0.83566734
0.81228836
0.79214788
0.7748081
0.76023667
0.74776532
0.73699425
0.72769199
0.71926
0.71139908
0.703945
0.69693229
0.68985534
0.68278186
0.67586259
0.66916255
0.66256415
0.65607385
0.64982892
0.64382333
0.63795209
0.63260058
0.62726841
0.62236089
0.61755845
0.61307916
0.60884035
0.6054267
0.60192115
0.59846914
0.59572705
0.59357503
0.59189132
0.58965721
0.58883312
0.58738407
3.8425893
3.0469216
2.4760316
2.1045571
1.8609563
1.6863625
1.5461689
1.4266438
1.3238594
1.236711
1.1646791
1.1059925
1.0578375
1.0175664
0.9828618
0.95260135
0.92504944
0.89809023
0.87036865
0.84385999
0.82028406
0.7997785
0.78210831
0.76747966
0.75519309
0.74479895
0.73648937
0.72893962
0.72191649
0.71553795
0.70975565
0.70361064
0.69734041
0.69129563
0.68572838
0.67981193
0.67392963
0.66881072
0.66335842
0.65864546
0.65408618
0.64935833
0.64460623
0.64060548
0.63581215
0.63148258
0.62808293
0.62479272
0.62028697
0.61688227
0.61414623
0.61210358
0.6087452
0.60737272
0.60439904
3.8432334
3.0510466
2.4813032
2.1089894
1.8647067
1.6920525
1.5546073
1.4382962
1.3365133
1.2484338
1.1752652
1.1165334
1.0699478
1.0332753
1.0033177
0.97801362
0.95386464
0.92889499
0.90082382
0.87281449
0.84714762
0.82465688
0.80536233
0.78991247
0.77819209
0.76923399
0.76288832
0.75805854
0.75432629
0.75173161
0.74975278
0.74724527
0.74420688
0.74019256
0.73787095
0.73368639
0.72898997
0.72653894
0.72107405
0.71671483
0.71354849
0.70932309
0.70477751
0.70186563
0.69633566
0.69117667
0.68867848
0.68619972
0.68047986
0.67531
0.67243579
0.67042187
0.66561628
0.6628626
0.65647263
3.8554046
3.1120173
2.5262388
2.1439683
1.8975768
1.7360628
1.6155649
1.5132091
1.4090717
1.3113205
1.2300101
1.1702231
1.1293719
1.1073128
1.0942972
1.0855148
1.0726095
1.0561434
1.0257337
0.99421015
0.95938972
0.92724324
0.90204642
0.87911087
0.86858981
0.86514608
0.86548177
0.86864922
0.87701611
0.89263925
0.90512535
0.91640982
0.92771939
0.93098746
0.9390233
0.93923467
0.93857036
0.94078878
0.93954203
0.93453278
0.93226837
0.92644127
0.92238874
0.92156487
0.91838423
0.90731295
0.90245308
0.90279933
0.90231137
0.89618184
0.88979617
0.8888496
0.88787431
0.88552567
0.86972801
4.0019037
3.5669944
2.8374522
2.3802447
2.122492
1.9931636
1.9430843
1.8932001
1.7774685
1.6425347
1.5380375
1.49803
1.4983907
1.516591
1.5713112
1.6268318
1.6552186
1.6750779
1.6682094
1.6486476
1.5941704
1.5394971
1.5032917
1.4690775
1.465509
1.4709498
1.4856722
1.5299573
1.5756861
1.6390559
1.6789301
1.721857
1.7630533
1.7744777
1.8072225
1.8130424
1.8135152
1.8367039
1.8420173
1.8341328
1.8354588
1.8319916
1.8284741
1.8344633
1.8347338
1.8153467
1.7971196
1.8027088
1.8135
1.8020131
1.7806782
1.7816531
1.7915023
1.7939329
1.7650115
5.4443116
5.1784138
4.3968015
3.70083
3.5517254
3.5771081
3.7587099
3.8493383
3.8385065
3.7690781
3.6941364
3.6961679
3.7302045
3.8224566
3.9116315
3.9908468
4.0242483
4.0996915
4.0915044
4.1366369
4.1095385
4.0754554
4.0229514
3.958116
3.9501369
3.9930036
4.0050192
4.0748381
4.0970473
4.1826759
4.2079737
4.2514045
4.3094916
4.2904497
4.3456784
4.3272117
4.2836435
4.3757543
4.3763461
4.3884566
4.424718
4.3674521
4.3796602
4.4563158
4.5258335
4.4266999
4.3122485
4.3585996
4.4896104
4.4233878
4.3200685
4.3055044
4.3504984
4.3668213
4.3232756
11.363465
12.139534
12.363326
12.584067
12.483732
12.464613
12.472224
12.535869
12.575442
12.612339
12.623824
12.596732
12.574267
12.566081
12.568688
12.572998
12.578426
12.587016
12.660978
12.761245
12.889641
12.943567
13.010878
12.99311
13.007772
12.981278
12.99738
12.976008
12.989807
12.982354
12.999721
13.007986
13.025821
13.043774
13.05587
13.080256
13.08861
13.097889
13.119248
13.130772
13.14248
13.161027
13.168313
13.174641
13.19165
13.201023
13.205981
13.201838
13.206699
13.232869
13.210454
13.21947
13.205399
13.220128
13.207956
13.619343
4.4259475
1.8147878
0.89855564
0.66493962
0.60667025
0.58808754
0.58267516
0.58200264
0.58246432
0.58389525
0.58583133
0.58833928
0.59121924
0.59480403
0.59883248
0.60362565
0.60919764
0.61566269
0.62333161
0.6327072
0.64440047
0.66174148
0.68597721
0.6966202
0.70838036
0.72588178
14.339358
4.8641301
1.9812438
0.96016371
0.68105688
0.61082573
0.58940578
0.58326667
0.5824817
0.58295572
0.58448951
0.58660027
0.58928342
0.59240376
0.59608651
0.60031207
0.60524827
0.6109002
0.61745551
0.62499462
0.6339112
0.64521037
0.6618081
0.68714761
0.7000215
0.71018123
0.72513496
15.187209
5.2506686
2.0830425
0.99161964
0.69006105
0.61401915
0.59099182
0.58436022
0.5834902
0.58403404
0.58582695
0.58835135
0.59128889
0.59456091
0.59841394
0.60280231
0.60784315
0.61364291
0.62030439
0.62792914
0.63673576
0.64739681
0.66239842
0.68807434
0.70546797
0.71467767
0.72618721
16.079766
5.1288594
2.116469
1.0192986
0.70263109
0.61966418
0.59424279
0.58684307
0.58596319
0.58656622
0.58852096
0.59106979
0.59412369
0.59753497
0.6014755
0.60595157
0.61114838
0.6171809
0.62386318
0.63152257
0.64025665
0.65025244
0.6632043
0.68824343
0.70827724
0.72179152
0.73094316
16.992746
5.1706458
2.2025607
1.0902718
0.73534817
0.63380622
0.60171734
0.59118066
0.58907046
0.58930839
0.59066026
0.59325109
0.59618088
0.59957259
0.60358014
0.60826668
0.6135792
0.61961701
0.62659666
0.63456746
0.64351562
0.65358818
0.66490461
0.68816648
0.71002885
0.72874505
0.73885915
17.94034
5.6680642
2.516803
1.2511819
0.78216593
0.64857648
0.60787812
0.5942004
0.59096605
0.59094947
0.59202013
0.5945806
0.59777775
0.60154445
0.60584883
0.61066565
0.61601039
0.62200659
0.62883321
0.63660753
0.64537769
0.65573277
0.66603614
0.68800983
0.71005534
0.73282708
0.74616995
19.020944
7.086091
2.905443
1.354623
0.80428886
0.65570238
0.61071875
0.59586219
0.59227186
0.59227127
0.59347629
0.59626694
0.59992312
0.60393176
0.60863185
0.61377198
0.61956817
0.62600037
0.6329432
0.64078829
0.64931118
0.65969936
0.66873037
0.68841964
0.70993151
0.73518415
0.75236739
20.231297
7.5537299
2.9635009
1.3625885
0.80718823
0.65818991
0.61263625
0.59791898
0.59460791
0.5947701
0.59645982
0.60012021
0.60395365
0.60794346
0.61227919
0.61715153
0.62262238
0.62900145
0.6361929
0.64430734
0.65332998
0.66417534
0.67280598
0.6904779
0.71095037
0.73730121
0.7575171
21.659003
6.6723736
2.801276
1.3285419
0.80957241
0.66174426
0.61690453
0.60289339
0.6002761
0.6011452
0.60314409
0.60652188
0.6100301
0.61376285
0.61793271
0.62260073
0.627737
0.63355626
0.64011678
0.64792794
0.65645959
0.66769601
0.67600626
0.69260382
0.71177549
0.73779298
0.76115875
22.79571
6.2677103
2.7530064
1.3448776
0.83340243
0.67630108
0.63192274
0.61522707
0.61014895
0.60910061
0.60991579
0.61199927
0.61533705
0.61898434
0.62330782
0.62806318
0.63348872
0.63949755
0.64606147
0.65372622
0.66170285
0.67276895
0.6803826
0.69559495
0.71309154
0.73804983
0.76284063
24.132704
7.0490621
3.0265717
1.5290328
0.93063608
0.71583892
0.65353432
0.62626053
0.61696377
0.61379088
0.61383744
0.61505518
0.61827376
0.62187267
0.62616322
0.63118916
0.6367502
0.64318178
0.65025068
0.65845855
0.66680258
0.6784559
0.6861695
0.70021131
0.71610549
0.73932895
0.76485784
25.610455
7.9961597
3.5306714
1.7496524
0.98653743
0.7328511
0.66078203
0.63014311
0.61940576
0.6154758
0.61546715
0.61669922
0.62005595
0.62407264
0.62895996
0.6346236
0.64072539
0.64733477
0.65451778
0.66279029
0.67103976
0.68310055
0.69125279
0.70476335
0.71975558
0.74114232
0.76660404
27.212047
9.5211016
3.8008154
1.817399
0.99578421
0.73774579
0.6619115
0.63211604
0.62103012
0.61743512
0.61752706
0.61922758
0.62318824
0.6281734
0.63365193
0.63953769
0.64603933
0.65286727
0.66007092
0.6681272
0.67577957
0.68753703
0.69538849
0.7084785
0.72247861
0.74211414
0.76729326
29.193468
9.1629405
3.7100484
1.774015
0.98490366
0.7360217
0.66172808
0.63458092
0.62404886
0.62135703
0.62183397
0.62462488
0.63001694
0.63526114
0.64054487
0.6460725
0.65220512
0.65889319
0.66620948
0.67472482
0.68240073
0.6943758
0.70200877
0.71438691
0.72739131
0.74485596
0.76882776
30.892438
7.8965889
3.4087561
1.7047846
0.98427918
0.73735092
0.66503982
0.64113215
0.63230161
0.63194339
0.63318591
0.63687014
0.64162168
0.64584992
0.65021448
0.65473058
0.65983964
0.66543831
0.67186755
0.67971521
0.68690924
0.69912893
0.70702402
0.71937821
0.73265034
0.74841569
0.77102592
32.819126
7.765473
3.431162
1.7440662
1.0215155
0.75507696
0.68531161
0.66235023
0.65475615
0.65000135
0.64900322
0.64997495
0.65246112
0.65579317
0.65951946
0.66350082
0.66800235
0.67307862
0.67862974
0.68570146
0.69172659
0.70334193
0.71106206
0.72280907
0.73638709
0.75100266
0.77240367
34.682259
9.4317415
3.9616512
2.0380092
1.1848391
0.82644433
0.72835508
0.68643579
0.67152733
0.66067022
0.65744087
0.65677223
0.65797494
0.66093988
0.66470336
0.66907906
0.6739155
0.67939739
0.68523385
0.69262042
0.69846389
0.7092935
0.71667376
0.72699476
0.7403575
0.75371597
0.77372046
37.006161
11.768013
4.5635871
2.3052033
1.2706125
0.86586617
0.74105202
0.69484847
0.67550781
0.66347466
0.65918559
0.65817847
0.65912372
0.66207024
0.66609991
0.67085631
0.67625766
0.68238077
0.68878258
0.69688083
0.70312259
0.71439854
0.72232827
0.7321423
0.74549692
0.7581083
0.77667986
39.48375
10.376198
4.3844622
2.2643982
1.263698
0.86515432
0.74210156
0.69690083
0.67700917
0.66550863
0.66082137
0.65985407
0.66077769
0.66386179
0.66804655
0.67290112
0.67846724
0.68468928
0.69117546
0.69941054
0.7057157
0.7170651
0.72588232
0.73535942
0.74888876
0.7614899
0.77903796
41.647256
10.463743
4.3854205
2.2838404
1.2798719
0.87187847
0.74664901
0.70193271
0.68227012
0.67133199
0.66613208
0.66484219
0.66557672
0.66873227
0.67317862
0.67808501
0.68377014
0.69006347
0.69667983
0.70504522
0.71129959
0.72247495
0.73128322
0.73967283
0.75260221
0.76463273
0.78116311
44.320065
13.025227
4.9497506
2.533047
1.3849157
0.91551785
0.76528495
0.72011217
0.69922249
0.68896768
0.68188411
0.67939879
0.67960497
0.68207721
0.68615859
0.69051347
0.69541135
0.70095955
0.70662479
0.71433732
0.71953936
0.72940675
0.73802312
0.74554851
0.75743057
0.76868345
0.78448644
47.094
12.558983
5.3556136
2.7017197
1.4902342
0.95387065
0.78710317
0.73385557
0.71039988
0.70004145
0.69212578
0.68894812
0.68802515
0.68957449
0.69259269
0.69646184
0.70081209
0.70594866
0.71132541
0.71871995
0.72400116
0.73342143
0.74243828
0.74962022
0.76098198
0.77168694
0.78699694
49.783226
12.720066
5.5343203
2.8149387
1.5619073
0.98327317
0.80637418
0.74393669
0.72134304
0.70742407
0.69869892
0.694186
0.69326308
0.69421368
0.69680523
0.70030162
0.70415355
0.70889819
0.71394824
0.72132495
0.72678732
0.73597159
0.74567751
0.75266373
0.76376157
0.77408628
0.78884889
52.767794
14.280046
6.1457119
3.1489988
1.7379467
1.0569258
0.84871814
0.76776988
0.75044956
0.72593515
0.71293054
0.70493799
0.70322206
0.70276116
0.70441075
0.70750298
0.71104247
0.71532775
0.71961285
0.72610434
0.73066414
0.7386772
0.74819443
0.75488952
0.76546901
0.77538337
0.78973807
55.997982
21.77233
9.3411548
4.6649391
2.4371658
1.330425
0.96531519
0.83085772
0.79618909
0.75495269
0.7343101
0.71591745
0.7097254
0.70780277
0.70842768
0.71108635
0.71459825
0.71916391
0.72355047
0.72997702
0.73437357
0.7414887
0.75089505
0.75744752
0.7673994
0.77683507
0.79055714
60.387796
24.867703
10.361907
5.2375591
2.6862407
1.4193076
0.99065174
0.84328554
0.79971837
0.75686844
0.73762032
0.71760758
0.71005193
0.70759715
0.70804562
0.71050556
0.71423063
0.71886265
0.72360759
0.73064764
0.73633982
0.74383067
0.75406202
0.76122945
0.77073703
0.77976337
0.79283102
63.568413
19.928252
8.9748996
4.7175665
2.430588
1.325578
0.95575998
0.82735522
0.7794093
0.73998216
0.72572261
0.71101659
0.70565028
0.70304806
0.70411763
0.70756919
0.71236844
0.71791237
0.72341823
0.73101527
0.73764744
0.74553477
0.7564129
0.76456351
0.77440411
0.78327427
0.79598643
65.986841
11.663441
5.3931717
3.0740187
1.758053
1.1420548
0.90866813
0.80895689
0.75954842
0.72737638
0.71300599
0.70285313
0.70000291
0.69934758
0.70212892
0.70687604
0.71231135
0.71828771
0.72436645
0.73264373
0.7397954
0.7475182
0.75837878
0.76672327
0.77684019
0.78568904
0.79809397
69.867034
11.530992
4.7546773
2.7292024
1.7098968
1.1647952
0.92983746
0.82408837
0.76776157
0.7357288
0.71760274
0.70662667
0.70267266
0.70171798
0.70455107
0.70948897
0.71536387
0.72198268
0.72887904
0.73761494
0.74515437
0.75248749
0.76327017
0.77169852
0.7810692
0.78895236
0.80098963
75.408611
22.578629
7.5953881
4.0555549
2.5473304
1.6637819
1.1968902
0.95472952
0.84662318
0.79397879
0.76025463
0.73615787
0.72722324
0.72049666
0.72197724
0.72533628
0.73122548
0.73776466
0.74467898
0.75228792
0.75880138
0.76433871
0.77329325
0.78026827
0.78829004
0.79459658
0.80571279
77.678275
39.389524
18.375511
10.475375
6.5738383
4.0383745
2.4509167
1.5105284
1.136244
0.95075952
0.88199904
0.81628667
0.79240498
0.76838549
0.76129034
0.75574129
0.75611008
0.75745391
0.76014941
0.76430673
0.76896024
0.77268481
0.779983
0.78626058
0.79392279
0.79940511
0.80934844
78.149941
38.422303
20.277486
13.276446
9.0703347
5.7698972
3.4201505
1.9510118
1.3204484
1.0348045
0.93700924
0.85532096
0.81929749
0.78860685
0.77569615
0.76641194
0.76385183
0.76304411
0.76413404
0.76694806
0.77124761
0.77453879
0.78134655
0.78767349
0.79557968
0.80111409
0.81031544
79.784337
31.322715
19.297471
13.252182
9.2193982
5.9108921
3.5053437
1.9974201
1.3355494
1.0445228
0.94036156
0.85911986
0.82020071
0.78962064
0.77562461
0.76623459
0.76328316
0.76236908
0.76337548
0.76623818
0.770633
0.77409852
0.78085282
0.78733563
0.79530506
0.800966
0.81002503
81.871799
21.475164
15.293079
11.673867
8.1944761
5.1923435
3.052681
1.7788098
1.2327619
1.004609
0.91121234
0.84171291
0.80440697
0.77896455
0.76546546
0.75855634
0.75625432
0.75659322
0.75864288
0.76267827
0.76787848
0.7722429
0.77954604
0.78643387
0.79464743
0.8004118
0.80945278
84.177695
17.142722
10.114024
7.4353385
5.0708845
3.1513946
1.9129735
1.2607542
1.0000042
0.88412177
0.83230139
0.78743858
0.76722561
0.75203006
0.74608759
0.7442248
0.74529869
0.74843788
0.75247436
0.75776382
0.76393018
0.76915923
0.77698702
0.7846671
0.79336501
0.79961949
0.80878321
86.805886
17.110889
8.515632
5.4597711
3.4855518
2.1576166
1.3994995
1.035928
0.89661909
0.81993943
0.7899716
0.75706695
0.74891441
0.73889142
0.73793226
0.73816785
0.74120694
0.74541003
0.75024978
0.75597381
0.76244509
0.76794151
0.77581789
0.78362233
0.79244288
0.79869887
0.80822403
88.723474
21.227142
8.928809
5.3411522
3.2834369
2.0065599
1.3166196
0.99901276
0.87943098
0.80772798
0.78045564
0.7503128
0.74517437
0.73652357
0.73700948
0.73755365
0.74106111
0.74530172
0.75031342
0.75602891
0.7625397
0.76805241
0.775881
0.78369941
0.7924998
0.79856184
0.80826323
89.34371
26.639256
11.290839
6.1352559
3.6470074
2.1888871
1.399744
1.0325424
0.89506197
0.81551235
0.78500771
0.75324655
0.747945
0.73894728
0.74006817
0.74028234
0.74425058
0.74808778
0.75350468
0.75895474
0.76542275
0.77088167
0.7784832
0.78615965
0.79476709
0.80021546
0.80987997
89.387747
26.349466
12.495128
7.8505958
4.8929172
2.9676375
1.7903075
1.195686
0.96845235
0.85457468
0.81081262
0.77173913
0.76332747
0.75135756
0.75157065
0.74973428
0.75262915
0.75504375
0.75975443
0.76436508
0.77027917
0.77530844
0.78235043
0.78932824
0.79770817
0.8023849
0.81153417
89.283601
23.779214
12.50716
8.454971
5.6029311
3.5557173
2.1419251
1.3517406
1.033895
0.88992244
0.83627692
0.79309428
0.7785204
0.76320984
0.7592926
0.75587935
0.7569869
0.75869649
0.76274489
0.76698604
0.77251575
0.77731844
0.78406302
0.79074812
0.79875456
0.8034093
0.8124073
88.945599
19.843907
11.940588
8.459181
5.6956285
3.6705778
2.2334265
1.395941
1.0512923
0.89931439
0.8433812
0.79995099
0.78299364
0.76686907
0.76130578
0.75770977
0.75811296
0.75969963
0.76342007
0.76756175
0.77287635
0.77763843
0.78428718
0.79097386
0.79878022
0.80363655
0.81270775
88.343259
17.963636
10.432157
7.9460413
5.4564383
3.5476663
2.1813172
1.375668
1.0422058
0.8964317
0.84241596
0.79991674
0.78273328
0.76674594
0.76096003
0.7575345
0.75781572
0.75947937
0.76314754
0.76733592
0.77261542
0.77742918
0.78411762
0.79086469
0.79858618
0.80370656
0.812672
87.401455
17.608584
9.6707373
6.9479379
4.6931144
3.037
1.8957588
1.2473274
0.98389437
0.87094196
0.82867032
0.79234288
0.77655908
0.762322
0.75714588
0.75493547
0.75556141
0.75792243
0.76176795
0.76628544
0.77160057
0.77674561
0.78368953
0.7905742
0.7982454
0.80368255
0.81324904
85.970743
17.90448
9.5341924
6.5037435
4.2437591
2.6800456
1.6679623
1.1461927
0.93572836
0.84517568
0.80837542
0.77776455
0.76422179
0.75369029
0.75039533
0.74949643
0.7513189
0.7544707
0.75884694
0.76385713
0.76948045
0.77540038
0.7829476
0.79031017
0.79799057
0.80447728
0.81489881
84.106174
18.963246
9.5992708
6.4223243
4.1314015
2.5809025
1.5993431
1.1171233
0.92108784
0.83693067
0.79997371
0.77130016
0.75826095
0.74974637
0.74721913
0.74693738
0.74935069
0.75286239
0.75765147
0.76281723
0.76882257
0.77495655
0.78279929
0.79022626
0.79800559
0.80494844
0.81584137
81.884126
19.420145
9.711945
6.4721727
4.1782445
2.6125235
1.6133336
1.1241965
0.92340494
0.83786331
0.79934391
0.77065316
0.75732915
0.74909112
0.74672592
0.74642285
0.74905848
0.75252683
0.7575192
0.76270358
0.76890033
0.77530605
0.78338325
0.79098824
0.79906391
0.80715576
0.81879265
79.392404
19.345151
9.7139898
6.6034713
4.4477498
2.8483636
1.7469301
1.1837314
0.94619415
0.84768161
0.80302207
0.77266935
0.75859105
0.74970395
0.7472505
0.74684763