/*--------------------------------*- C++ -*----------------------------------*\
| =========                 |                                                 |
| \\      /  F ield         | OpenFOAM: The Open Source CFD Toolbox           |
|  \\    /   O peration     | Version:  2406                                  |
|   \\  /    A nd           | Website:  www.openfoam.com                      |
|    \\/     M anipulation  |                                                 |
\*---------------------------------------------------------------------------*/
FoamFile
{
    version     2.0;
    format      ascii;
    arch        "LSB;label=32;scalar=64";
    class       volScalarField;
    location    "19";
    object      p;
}
// * * * * * * * * * * * * * * * * * * * * * * * * * * * * * * * * * * * * * //

dimensions      [1 -1 -2 0 0 0 0];

internalField   nonuniform List<scalar> 
62344
(
1.0033688
1.0093787
1.0137475
1.0087754
0.99892306
0.99584383
1.0000039
1.0007797
1.0027305
1.0063718
1.0089332
0.99843012
1.0012968
1.0216432
1.0182285
1.0037012
0.99380138
0.99706087
1.0121165
1.0196329
0.99538956
0.977351
1.0006579
1.0170379
0.99933027
0.99188736
1.0102096
1.0146186
0.99811819
0.99681714
1.0193723
1.039122
1.0327184
1.0045521
0.98342417
0.98941352
1.0172144
1.034474
1.0402547
1.0441421
1.0372544
1.0006252
0.94346077
0.90891465
0.91753806
0.95840514
1.0103923
1.0459013
1.0543567
1.0415745
1.0387903
1.0661093
1.1162737
1.1710877
1.1837501
1.0025894
1.0072103
1.0123328
1.0090796
1.0006061
0.99728515
0.99817526
0.99988069
1.0086228
1.009104
1.0050664
1.0047664
1.0021412
1.0218554
1.0151636
1.0014204
1.005711
1.0021673
1.0043603
1.0138959
1.0020382
0.98821649
0.99571265
1.0052136
1.0001876
1.0033498
1.0186292
1.0160889
0.99315067
0.99416993
1.0175841
1.0327545
1.0190151
0.99468216
0.98469272
0.99529543
1.0112804
1.0283494
1.0389931
1.0381488
1.0248855
0.9888587
0.94113646
0.89997834
0.8940851
0.93957781
1.0206184
1.1035361
1.1488181
1.1453328
1.1013492
1.0470063
1.0236141
1.0390133
1.0767168
1.0029327
1.0075001
1.0098781
1.0091832
1.0015529
0.99737124
0.99577576
0.99922314
1.0126031
1.0129334
0.9987748
1.0043785
1.0113811
1.0171154
1.0062367
1.0025142
1.0155757
1.01132
1.0005071
1.0002416
0.99523113
0.995851
1.008186
1.0087683
0.9984059
1.004496
1.0190379
1.0140676
0.99210351
0.99306545
1.0154437
1.025729
1.008491
0.98688971
0.9859482
0.99958389
1.0095539
1.01899
1.0308899
1.0236482
1.0064028
0.9804493
0.94474334
0.91437666
0.90902552
0.94113805
1.016086
1.1122383
1.1838974
1.1842187
1.1225729
1.0319991
0.95023136
0.9224492
0.94318856
1.0038628
1.0090148
1.0086125
1.0087917
1.0019716
0.99806141
0.99592459
0.99892473
1.0132649
1.0117963
0.9961498
1.0010174
1.018745
1.0122619
0.99823509
1.0070525
1.0187876
1.0136852
1.0016119
0.99425116
0.98553774
0.99553276
1.0168468
1.0173435
0.99982853
1.001688
1.0132492
1.0065229
0.99003194
0.99452273
1.0167445
1.0220265
1.0017769
0.98291554
0.98961396
1.0070015
1.0114467
1.0143663
1.0196206
1.0091665
0.98886544
0.97187138
0.96033153
0.95501926
0.95363773
0.97194849
1.0163986
1.078973
1.139736
1.1632162
1.134121
1.0578663
0.96678152
0.89571958
0.87557892
1.0045525
1.009385
1.0097137
1.0088546
1.0014004
0.99825666
0.99757318
1.0014123
1.0108849
1.0076743
0.99811378
0.99940005
1.0204867
1.0095831
0.9967898
1.0132113
1.0183615
1.0069198
1.0023291
0.99800955
0.98400496
0.99125633
1.0164231
1.0192586
1.001333
0.99991779
1.0069177
0.99723673
0.98585302
0.99801705
1.0209916
1.0218942
0.99703122
0.97864016
0.99099457
1.0146928
1.0187335
1.0164653
1.0140048
0.99864917
0.97362004
0.9613044
0.97498102
0.99618107
1.0087397
1.015425
1.0226516
1.0347192
1.0560496
1.084254
1.0967175
1.073849
1.0148697
0.94241599
0.8858554
1.0046184
1.008666
1.0121899
1.0096725
1.0005652
0.99784472
0.99990954
1.005606
1.0090773
1.0062093
1.0014289
1.0031567
1.0171897
1.0084985
1.0017506
1.0181963
1.0157573
0.99781504
0.99921758
1.0053381
0.99173171
0.99121672
1.0100753
1.0112619
0.99751468
1.00032
1.0050162
0.99304931
0.98392869
1.0008849
1.026756
1.0240276
0.99371081
0.97365958
0.99011915
1.0201866
1.0302868
1.0263078
1.014695
0.99102645
0.96128343
0.95286021
0.97982807
1.0245587
1.0559907
1.0617654
1.0420237
1.0120111
0.99111105
0.99836451
1.0236732
1.0462188
1.0491517
1.0146135
0.96140523
1.0042066
1.0084735
1.0142206
1.0103023
1.0003613
0.99730225
1.0010091
1.0084078
1.0097768
1.0074167
1.0037895
1.009117
1.0119209
1.0076772
1.0098773
1.0218407
1.0128988
0.99212217
0.99578973
1.0104234
1.0017125
0.99601418
1.0044483
1.0001901
0.99080818
1.0003395
1.0081374
0.99672118
0.9871079
1.0052407
1.0320965
1.0273486
0.99222914
0.96876715
0.98321271
1.018618
1.0388963
1.0398898
1.0204001
0.98586076
0.95176145
0.94653586
0.97777203
1.0348459
1.086248
1.1010996
1.0678492
1.0121543
0.95692236
0.93175028
0.95033862
0.99217888
1.0325985
1.0521159
1.0418429
1.0038744
1.0092448
1.0146633
1.0103244
1.0011062
0.99738024
1.0004685
1.0078398
1.0112844
1.0092427
1.0049244
1.0132517
1.0076089
1.007859
1.016695
1.0218901
1.0104438
0.99224541
0.99593444
1.0128384
1.0068247
1.0001772
1.0027083
0.99326583
0.9860279
1.0005479
1.0130167
1.0034662
0.99327212
1.0106388
1.0355711
1.0291804
0.99304111
0.96605752
0.97411761
1.0092536
1.0403378
1.0505049
1.0302451
0.98263171
0.94396911
0.94183687
0.97495009
1.0329919
1.0964669
1.1259306
1.0957547
1.0260712
0.95097658
0.8996309
0.89149551
0.92788031
0.98691929
1.0432478
1.0844563
1.0039641
1.0103434
1.0136961
1.0102518
1.0021945
0.99829554
0.99884772
1.0046543
1.012677
1.0099232
1.0045878
1.0124495
1.0054069
1.0096896
1.0190874
1.018215
1.0083302
0.99638848
1.0015838
1.0105765
1.0037408
1.0007944
1.0041105
0.99233634
0.98530918
1.0017385
1.0179056
1.0094354
0.99831342
1.0136889
1.0357073
1.02765
0.99424271
0.96614102
0.96570347
0.99563102
1.0355316
1.054512
1.0394908
0.98270831
0.93727163
0.93752247
0.97420294
1.0287145
1.0916427
1.1313752
1.1146608
1.0452478
0.96382649
0.89865929
0.87083143
0.88287864
0.93131366
0.99874673
1.0684885
1.0043631
1.0112973
1.012287
1.0100656
1.0030968
0.99943648
0.99761899
1.0012089
1.0130344
1.0094365
1.0040606
1.0080961
1.0051604
1.0128764
1.0184522
1.0127945
1.005718
1.0021396
1.0090231
1.0078486
0.9958328
0.99773418
1.0061269
0.99566096
0.98803041
1.0049837
1.0214201
1.0128278
1.0006331
1.0131171
1.0317857
1.0234165
0.99527812
0.96905153
0.96010766
0.98166359
1.0263074
1.0542584
1.0457502
0.98708284
0.93418604
0.93229209
0.97410383
1.0270449
1.0826469
1.1250919
1.1199328
1.0622168
0.98395667
0.91851217
0.87921988
0.87027803
0.89410414
0.94345155
1.0075815
1.0046971
1.0116509
1.0113622
1.0100995
1.0034404
1.000114
0.99773412
0.99959565
1.0123414
1.0087343
1.004291
1.0031838
1.0061479
1.0160576
1.0172489
1.0086243
1.0032662
1.0058168
1.0149327
1.0068076
0.98892038
0.99370433
1.007072
0.99967973
0.99226776
1.0082454
1.0237292
1.0143084
1.0009122
1.0097873
1.0245192
1.0170944
0.99624544
0.97405088
0.95843081
0.9714164
1.0148201
1.0508982
1.0488688
0.99408718
0.93578927
0.92949588
0.97116081
1.02648
1.0780182
1.1123792
1.1092872
1.0679651
1.0083442
0.95115683
0.90706592
0.88477951
0.88604605
0.90953581
0.95060754
1.0048769
1.0114804
1.0111958
1.0102427
1.0030981
1.0000936
0.99858143
0.9999117
1.0109903
1.0087458
1.0055396
1.0005966
1.0079886
1.0182149
1.0160987
1.0076016
1.0025053
1.0069158
1.0175897
1.0071702
0.98635232
0.99154378
1.007009
1.0023008
0.99537196
1.0101437
1.0242449
1.0149171
1.0009852
1.0061504
1.0159786
1.0097027
0.99669528
0.98059679
0.96113831
0.96652381
1.0039518
1.0448015
1.0478451
1.0015744
0.94339506
0.93002067
0.9662224
1.0254076
1.0763494
1.0989561
1.0891786
1.0596333
1.0227503
0.98213476
0.94596197
0.91812176
0.90273495
0.90189342
0.91632242
1.0048537
1.0109399
1.0115628
1.0104135
1.0024647
0.99969624
1.0001098
1.0020125
1.0096716
1.0094392
1.0068935
1.0001422
1.0103729
1.0191621
1.0145241
1.009241
1.0041855
1.0063609
1.0163003
1.0074578
0.98841774
0.99304232
1.0065662
1.0020271
0.99625472
1.0099155
1.0232302
1.0153256
1.0020074
1.0043277
1.0089832
1.0024573
0.99627082
0.98742268
0.96839799
0.96659758
0.99550084
1.035727
1.0423766
1.007347
0.95383086
0.93632423
0.96459268
1.0217937
1.0730829
1.0884102
1.0685899
1.0412554
1.020816
1.001649
0.98028175
0.95968831
0.93686576
0.91675978
0.90815804
1.0047115
1.010328
1.012337
1.0105782
1.0020413
0.99927175
1.0013917
1.0042703
1.0089155
1.0108198
1.0076478
1.0012919
1.0129847
1.0191655
1.0122916
1.0121963
1.0087462
1.0062079
1.0117469
1.0062304
0.9930243
0.99806102
1.0069987
0.99939038
0.99393326
1.0072578
1.0210675
1.0158955
1.0044184
1.0051737
1.0054031
0.99673403
0.99503946
0.99359781
0.97846891
0.97063941
0.99088812
1.0250023
1.0326637
1.0095286
0.96671564
0.9481657
0.96774336
1.0178662
1.0673676
1.0801404
1.0532225
1.0225413
1.0082537
1.0061125
1.0038733
0.99475618
0.97521431
0.94794306
0.92197254
1.0045726
1.0098717
1.0132162
1.0106433
1.0020067
0.99911832
1.0019962
1.0060894
1.0090319
1.0123482
1.0070462
1.0026572
1.0155333
1.0188009
1.0094703
1.0144148
1.0140091
1.0072354
1.0060396
1.0040623
0.99767678
1.0041281
1.0090702
0.99629762
0.98928821
1.0025703
1.0175353
1.0156771
1.0073172
1.0085851
1.0053383
0.99353954
0.99344819
0.99782131
0.98925003
0.97787897
0.98932108
1.0144481
1.0212061
1.0070716
0.97841717
0.96237581
0.97559396
1.015916
1.0600832
1.0726755
1.043976
1.0088147
0.99258343
0.99882155
1.0123343
1.0199156
1.0107216
0.98463213
0.95076742
1.004475
1.009641
1.0138247
1.010592
1.0022745
0.99921285
1.0018269
1.0070512
1.0095745
1.0134938
1.0053558
1.0033701
1.0175098
1.0182416
1.0068615
1.0152111
1.0193409
1.0087919
1.0013495
1.0006551
1.001228
1.0100995
1.0121621
0.99417989
0.98448126
0.99707171
1.0131631
1.014457
1.010326
1.0132173
1.0081427
0.99328488
0.99194498
0.9994776
0.99824858
0.98714371
0.99059925
1.0051706
1.0085214
1.0007068
0.98770369
0.97654099
0.98622518
1.0170502
1.0536939
1.0643103
1.0377513
1.000484
0.98136962
0.98844535
1.0093521
1.0297874
1.0349383
1.0162941
0.98491507
1.0044774
1.0096893
1.014046
1.0104776
1.0027192
0.99948315
1.0010479
1.0071788
1.0104882
1.0142451
1.003361
1.0032907
1.0187866
1.0177069
1.0050906
1.0148252
1.0235482
1.0103771
0.99854913
0.99728743
1.0027235
1.0145931
1.0151044
0.99358533
0.98118535
0.9922802
1.0086184
1.0128107
1.0125594
1.0179578
1.0126681
0.99543582
0.99081078
0.99877917
1.0043136
0.99670729
0.99462717
0.99827506
0.99531544
0.99174652
0.992314
0.99057106
0.99808507
1.0220472
1.0498573
1.0558244
1.0313636
0.99516435
0.9746214
0.97904167
1.0014707
1.026708
1.0444932
1.040392
1.0176116
1.00457
1.00988
1.0139146
1.010291
1.0031788
0.99983442
1.0000346
1.0065995
1.0114472
1.0145465
1.0016061
1.0027091
1.0190862
1.0172153
1.0043316
1.0139407
1.0256385
1.0118059
0.99769959
0.99507397
1.0021146
1.0167825
1.0167861
0.99422839
0.9800149
0.98912159
1.0049244
1.0109982
1.0137782
1.0219022
1.0178849
0.99896831
0.99008103
0.99605272
1.0068648
1.0052724
1.0006021
0.99426587
0.98300784
0.97994
0.99168011
1.0025607
1.0114604
1.0314115
1.0503655
1.0486943
1.0231908
0.98977007
0.96972597
0.97112395
0.99136324
1.0189333
1.0423234
1.0531891
1.0440575
1.0047118
1.0101105
1.0135602
1.0100957
1.0035037
1.0001414
0.99908821
1.0056075
1.0122192
1.0142638
1.0005216
1.002103
1.0183397
1.0169012
1.0046379
1.0133148
1.0254476
1.0127114
0.99848097
0.9946053
1.0008127
1.0163123
1.0169013
0.99535328
0.98061325
0.98797199
1.0028235
1.0095326
1.0140334
1.0245831
1.0227615
1.0031003
0.98951796
0.9917538
1.0057787
1.0117836
1.0072993
0.99291634
0.97263936
0.96667623
0.98592641
1.010122
1.0255318
1.0427938
1.0554774
1.0449413
1.0143341
0.9831877
0.96559441
0.96576125
0.98261837
1.008672
1.0350634
1.0541326
1.060585
1.0048275
1.0103285
1.0131018
1.0099636
1.0035934
1.0002508
0.99841924
1.0044664
1.0126308
1.0134396
1.0004177
1.0021481
1.0167127
1.0165319
1.0060598
1.0134058
1.0233142
1.0124192
1.0006459
0.9961523
0.99955255
1.0138277
1.0155807
0.99633488
0.98218197
0.9886724
1.0021408
1.0087522
1.0136388
1.0259386
1.0266526
1.0072123
0.98895705
0.9864608
1.0015099
1.0155126
1.0136237
0.9938773
0.96475359
0.95317314
0.97576823
1.012309
1.0387681
1.0572123
1.0643116
1.0453393
1.0067339
0.97492416
0.96070617
0.96235685
0.97631554
0.99841515
1.0248168
1.0484844
1.0646664
1.0049057
1.0105311
1.012671
1.0099209
1.0034347
1.0001381
0.99813059
1.0034329
1.0127121
1.0122621
1.0011427
1.0028677
1.0145555
1.0160758
1.0083998
1.0143468
1.0198395
1.0110554
1.003343
0.99932845
0.99904808
1.0102813
1.0128501
0.99694392
0.9841402
0.99047001
1.0025618
1.0087233
1.0131097
1.0262754
1.0292636
1.01095
0.98860724
0.98109669
0.99523976
1.0162115
1.0189869
0.99674149
0.95993611
0.94100406
0.96280573
1.0087569
1.0487432
1.0717542
1.0760087
1.0493326
1.0026079
0.96662419
0.95503635
0.95950384
0.97217901
0.9905965
1.0147149
1.0395139
1.0605004
1.0049493
1.010698
1.0123335
1.0099481
1.0030996
0.99983446
0.99821719
1.0026183
1.0124878
1.0109331
1.0024412
1.0042922
1.0123158
1.0153981
1.0114377
1.0157756
1.0158952
1.0087212
1.0060311
1.0033641
0.99959665
1.0067528
1.0092746
0.99690557
0.98616108
0.99270917
1.0038172
1.0092896
1.012563
1.0258223
1.0308284
1.0141052
0.98863111
0.97626596
0.98812058
1.0138315
1.0228789
1.000979
0.958278
0.93155508
0.94895642
0.99998441
1.0534609
1.0853952
1.0896343
1.0571195
1.0018728
0.96093564
0.94989999
0.9560324
0.96858854
0.98527953
1.0061736
1.0293893
1.0521823
1.0049471
1.0108055
1.0120845
1.0100343
1.0026921
0.99940981
0.99855842
1.002045
1.0120709
1.0096539
1.0040536
1.0062351
1.0104035
1.014465
1.0147477
1.0174429
1.0121962
1.0055547
1.0084126
1.0077035
1.0008048
1.0037363
1.0055877
0.99606394
0.98798914
0.994943
1.0055823
1.0101713
1.0119504
1.02484
1.0316012
1.0167145
0.98917611
0.97229178
0.98084788
1.0093724
1.0253239
1.0058048
0.95945005
0.92569631
0.93617836
0.98699913
1.0520376
1.0963865
1.1033185
1.0673458
1.0060463
0.96011392
0.94614072
0.9514919
0.96447039
0.98092696
0.99978671
1.020932
1.0425487
1.0049331
1.0108721
1.0119069
1.0101356
1.0023063
0.99896453
0.99899362
1.0016847
1.0116059
1.0085338
1.0056521
1.0082865
1.0089983
1.0133928
1.0178106
1.0191228
1.0092505
1.0021266
1.0101961
1.0117906
1.0023003
1.0015371
1.0023001
0.99477514
0.98926427
0.9969252
1.0073224
1.0110693
1.0113701
1.0235903
1.0318694
1.0189564
0.99031193
0.96943696
0.97471557
1.0037587
1.026311
1.0104512
0.96281384
0.92297359
0.92557875
0.97182906
1.0444883
1.1033944
1.1153732
1.0782413
1.0148468
0.96430845
0.94452382
0.9466968
0.95903217
0.97645204
0.99578649
1.0150648
1.0338049
1.0048953
1.0109027
1.0117777
1.0102269
1.0020095
0.99858794
0.99938803
1.001446
1.0111955
1.0076152
1.0069431
1.0101287
1.0080717
1.0124228
1.020178
1.020585
1.0073146
0.99908772
1.0111652
1.0152184
1.0037873
1.0002815
0.99975675
0.9936421
0.9898061
0.9984473
1.0088968
1.0122472
1.0109564
1.0223271
1.031823
1.0208562
0.9919306
0.9677796
0.96966773
0.9977381
1.0259138
1.0150033
0.96778901
0.92309107
0.91757734
0.95686503
1.0327894
1.1058981
1.1257874
1.0908229
1.0263578
0.97110125
0.94332241
0.94043556
0.95227377
0.97173902
0.99240872
1.0112638
1.0281549
1.0049058
1.0109164
1.0117155
1.0103004
1.0018234
0.99832177
0.99969465
1.0012796
1.0109489
1.0069935
1.0077508
1.0114468
1.0075406
1.0116548
1.021685
1.0216572
1.006347
0.99692547
1.0113412
1.0176405
1.0050728
0.99976913
0.9981191
0.99281366
0.98961194
0.99909067
1.0097546
1.013257
1.0107186
1.0211422
1.0318365
1.022816
0.99440365
0.96753447
0.96468372
0.99104685
1.0244361
1.0204241
0.97473215
0.92627974
0.90982708
0.94189199
1.0170529
1.101656
1.1352292
1.1074426
1.0429319
0.98251714
0.94670526
0.93453845
0.9417326
0.9629322
0.9868311
1.0071306
1.0228864
1.0048232
1.0109092
1.0116783
1.0103495
1.0017611
0.99818311
0.99982801
1.0011463
1.0108013
1.0066656
1.0080961
1.0120638
1.0073079
1.0111366
1.0222549
1.0222348
1.0062223
0.99630702
1.0109151
1.0186763
1.0060605
0.99979384
0.99763609
0.99281883
0.98927878
0.99900436
1.0090729
1.0133302
1.0104818
1.0197752
1.0312115
1.0245041
0.99841041
0.97065872
0.96411431
0.98593729
1.0198361
1.0226075
0.98280932
0.935236
0.91129431
0.93238314
0.99839666
1.0825544
1.1281095
1.1132604
1.05914
1.0009227
0.95979716
0.94052802
0.9406785
0.95677132
0.9795075
0.99901526
1.0150209
1.0327879
1.041812
1.0485139
1.0577618
1.0671855
1.0739874
1.0754502
1.0682616
1.0485456
1.0191005
0.98458379
0.95032029
0.92090264
0.90687842
0.91530894
0.9477067
1.0085683
1.0796794
1.1250285
1.0975541
1.0133845
0.91922873
0.85900054
0.88272198
0.97287579
1.0926403
1.1263246
1.0619957
1.0717019
1.0777034
1.0825079
1.0838121
1.0799363
1.0679699
1.0458865
1.0176257
0.98674756
0.95589059
0.92895927
0.91293559
0.91660018
0.94425374
0.99656896
1.0678498
1.1255812
1.1313553
1.0705944
0.98730648
0.91521628
0.89193501
0.9328772
1.0131979
1.0682188
1.0257171
1.0931227
1.0984383
1.0955996
1.0892252
1.0776932
1.059804
1.0364162
1.01187
0.98731709
0.96443384
0.94558078
0.93476706
0.93912725
0.961688
1.0049245
1.0633286
1.1145751
1.1330179
1.0945609
1.0219225
0.9567644
0.92547355
0.95099052
1.0116411
1.0665139
1.0401994
0.94032452
1.0907824
1.0859406
1.0710893
1.0560598
1.0368303
1.0154821
0.99555091
0.97853464
0.96541917
0.95728348
0.95726167
0.96939186
0.99666802
1.0374121
1.0868515
1.1307669
1.1444468
1.1070224
1.0391688
0.96820922
0.93387572
0.94803508
1.0171092
1.0923684
1.104303
1.0110415
0.9004908
1.034641
1.0193445
1.0019836
0.98520492
0.96954954
0.9571481
0.9494841
0.94707632
0.95074821
0.96343437
0.98692032
1.0232882
1.0706309
1.1220272
1.1619915
1.1740586
1.1388105
1.0690074
0.99168456
0.94069801
0.93807959
0.98943469
1.0786673
1.1449494
1.1046056
0.98094084
0.90422128
0.94915236
0.92963996
0.91597407
0.90645639
0.90034694
0.89933737
0.90487139
0.91839116
0.94183202
0.97568754
1.0212379
1.0748969
1.1276999
1.1691365
1.1826989
1.1557994
1.0976006
1.0296751
0.97341566
0.95471954
0.98240274
1.0530918
1.1259985
1.1483065
1.0639863
0.95500708
0.94187876
0.8758954
0.85846328
0.85183308
0.85001915
0.85314972
0.8625709
0.88010258
0.90752993
0.94604578
0.9941193
1.0473943
1.0966878
1.1309329
1.1419743
1.1208794
1.0747839
1.0263384
0.98957305
0.97812422
1.0026601
1.0614247
1.1291773
1.1553525
1.1033179
0.99590773
0.94247341
0.99554924
0.83045344
0.82359518
0.82580058
0.83264202
0.84532017
0.86608832
0.89565321
0.93336711
0.97731411
1.0206367
1.0557749
1.0747142
1.0711256
1.0445609
1.0055049
0.96567773
0.94432793
0.94784785
0.98626634
1.0579923
1.1420986
1.1893214
1.1547793
1.0440292
0.94263153
0.9496501
1.0462418
0.82497772
0.82829597
0.84407246
0.86221653
0.88722452
0.91837541
0.95353594
0.98918559
1.0193181
1.0373454
1.0381421
1.0191692
0.98320204
0.93946781
0.90159178
0.87558015
0.87698845
0.91453489
0.9913816
1.0924363
1.1769969
1.1968348
1.1193895
1.0027815
0.93995424
0.9862785
1.0849865
0.87248275
0.88680268
0.9131487
0.94094403
0.97106275
1.0010325
1.026061
1.0413876
1.0426863
1.0281346
0.99751514
0.95609957
0.90918191
0.86558096
0.8350559
0.82632124
0.84920467
0.90696864
0.99365712
1.0851913
1.1385499
1.1278046
1.0564775
0.99096126
0.9905461
1.0471132
1.1146802
0.98534983
1.0088308
1.031169
1.0517532
1.0687965
1.0781329
1.0766586
1.0621846
1.0355044
0.99673884
0.95208395
0.90689144
0.8669916
0.83778349
0.82157381
0.83341892
0.87151405
0.93217455
0.99615604
1.0373121
1.0407311
1.0121349
0.98386544
0.99774754
1.0619609
1.1156217
1.1381954
1.1204869
1.1416908
1.1505181
1.1511679
1.14264
1.1237617
1.0949818
1.0578243
1.0143494
0.96936072
0.92605641
0.88974286
0.86365613
0.85364545
0.86304763
0.89332218
0.93427931
0.97304611
0.98552452
0.96716346
0.93166921
0.90314928
0.92655815
1.0129788
1.1181621
1.1668012
1.1476017
1.2070426
1.2173202
1.2079441
1.1908317
1.1643776
1.1296253
1.0886963
1.045069
1.0035375
0.9641234
0.93184157
0.91062447
0.90458313
0.91993515
0.95087683
0.98860526
1.0114845
1.0024096
0.95848631
0.9019428
0.85639194
0.84545423
0.90697682
1.0208686
1.1322924
1.177547
1.1388023
1.2073922
1.2004267
1.17411
1.1490722
1.1203582
1.0877539
1.0569004
1.0281533
1.0037606
0.98371602
0.97274882
0.97381817
0.99083105
1.025722
1.0641526
1.0870337
1.0684231
1.0108995
0.93423297
0.87034279
0.83951067
0.8550557
0.92779032
1.024146
1.1092765
1.1340179
1.1006421
1.1054175
1.0899472
1.0701039
1.0513867
1.0329182
1.0169729
1.0062811
1.0015772
1.0023812
1.0111492
1.0317306
1.063611
1.1028255
1.1403781
1.1615262
1.148702
1.0898489
1.0086911
0.9370686
0.89084884
0.88292273
0.92093289
0.98050602
1.029078
1.0513962
1.0448422
1.0353457
0.9717064
0.95610498
0.94589176
0.94198193
0.94153442
0.94514998
0.95485186
0.97199682
0.99735232
1.0333706
1.0807809
1.1337956
1.1793715
1.2016698
1.1897161
1.1441187
1.0785723
1.0171069
0.97825717
0.96291036
0.98075097
1.020307
1.0420724
1.0250678
0.98194876
0.95598126
0.96588021
0.88464566
0.87235257
0.86906902
0.87189012
0.88132407
0.89800368
0.92228337
0.95474475
0.99556576
1.0438472
1.095064
1.1397743
1.1661088
1.164094
1.1338888
1.0926038
1.0585587
1.0437376
1.0489453
1.0742978
1.1109363
1.122872
1.0849441
1.0070362
0.92838225
0.89672165
0.9137769
0.85634947
0.85573649
0.86136308
0.87046551
0.88289447
0.90104048
0.9264039
0.95953315
0.99619709
1.0300471
1.0573612
1.0711791
1.06793
1.0494609
1.0302391
1.0235361
1.038718
1.0780286
1.1360466
1.1975474
1.2302004
1.1929885
1.0988834
0.98466044
0.90145784
0.87185339
0.88853706
0.88457343
0.89101943
0.90662123
0.92094927
0.93633818
0.95241758
0.96780811
0.98080569
0.98804398
0.98675936
0.9756198
0.95688366
0.93643606
0.92416711
0.93122815
0.96569687
1.028251
1.1155147
1.2137227
1.2911921
1.2932774
1.2100841
1.0851239
0.97071813
0.89995868
0.87658875
0.8937049
0.96913956
0.97974514
0.99215777
1.0041409
1.0145663
1.0189363
1.0128139
0.99465575
0.96328096
0.92481067
0.88575276
0.85399169
0.83633163
0.83955288
0.87152047
0.93573397
1.0314601
1.1490182
1.2569165
1.3133425
1.2762018
1.1741956
1.0598417
0.96824322
0.9206692
0.90667463
0.92423789
1.0888166
1.097114
1.0997895
1.0964508
1.0850918
1.0620891
1.0261612
0.97839992
0.92446497
0.86973758
0.82403247
0.79617226
0.78977632
0.8113087
0.8632989
0.94647132
1.0556423
1.1673428
1.2444225
1.2545496
1.1980033
1.1072083
1.0347619
0.97846468
0.95856082
0.95861356
0.97275707
1.1892343
1.1925655
1.1827664
1.158669
1.120313
1.0704914
1.0130621
0.95322451
0.89647098
0.84787763
0.81414374
0.80008164
0.80748809
0.84224293
0.90672678
0.99523477
1.0877609
1.155707
1.1738175
1.1414217
1.0874964
1.036882
1.0100146
1.0033146
1.0119524
1.0293736
1.0287838
1.2224338
1.2172256
1.1948579
1.1571971
1.1079884
1.051943
0.99461222
0.94131865
0.89991254
0.87074414
0.85718013
0.8613164
0.88703803
0.93306202
0.9950637
1.059054
1.1010347
1.1041334
1.0691898
1.0215029
0.98170569
0.9731044
0.9937037
1.0372027
1.0797133
1.1107316
1.086246
1.1567647
1.1453458
1.1201984
1.0891925
1.0538808
1.0168618
0.98150534
0.95391235
0.93793447
0.93478865
0.94575281
0.97184916
1.0108944
1.0553103
1.0900649
1.099774
1.0746803
1.021997
0.96198459
0.91825396
0.90011745
0.92541406
0.99086642
1.0743555
1.1565509
1.194542
1.1433046
1.0217273
1.0112195
0.99758135
0.98574809
0.97687468
0.97259829
0.97372917
0.98222702
0.99996066
1.0283393
1.0672309
1.1115165
1.1497099
1.1685049
1.1543602
1.1002517
1.0202403
0.93842905
0.87331349
0.84147014
0.84471748
0.89753235
0.99346278
1.1126996
1.2188046
1.2576772
1.1949675
0.8795458
0.87366066
0.87413201
0.8834203
0.90133248
0.92760951
0.96273807
1.0085883
1.0652999
1.1296501
1.1935583
1.2488562
1.269836
1.2464162
1.1755309
1.072237
0.96445447
0.87201026
0.81489152
0.79556207
0.82010027
0.89089883
0.99939375
1.1303624
1.24041
1.2805105
1.2362965
0.78261142
0.78150728
0.79043695
0.8118266
0.84595055
0.89342668
0.95443086
1.0298711
1.1164894
1.2061802
1.2850416
1.333497
1.329234
1.2670794
1.1601216
1.0373678
0.92412107
0.84049239
0.79317031
0.78622299
0.82026833
0.89417329
1.0029614
1.1174595
1.2136593
1.2580209
1.2586281
0.74463399
0.74825273
0.76199711
0.78773754
0.82866069
0.88577377
0.95970836
1.048347
1.1441883
1.236651
1.3143336
1.3479061
1.3231835
1.2432887
1.1308292
1.014998
0.91491777
0.8428901
0.80767435
0.80749123
0.84079478
0.90498775
0.98643122
1.069414
1.1508142
1.2070728
1.2603755
0.76364549
0.77078474
0.78685815
0.81368788
0.85359542
0.90832733
0.9788901
1.0609579
1.146614
1.2244895
1.2800496
1.2968329
1.2674086
1.1989636
1.1047183
1.0117982
0.93477122
0.87898761
0.84701962
0.84337941
0.866032
0.90626764
0.95256681
1.0091116
1.0762204
1.1547423
1.2513064
0.81334201
0.82195361
0.83848611
0.86420651
0.90039486
0.94671844
1.0021389
1.0628233
1.1243385
1.1790799
1.2179309
1.2255614
1.2031267
1.149064
1.0895033
1.0300826
0.97587949
0.93056853
0.89911491
0.88410915
0.88466244
0.8990383
0.91896283
0.95098412
1.0164679
1.1126377
1.236401
0.87859376
0.88575121
0.89870661
0.91779249
0.94304251
0.97424905
1.0111825
1.0512179
1.0915295
1.1264663
1.1495087
1.1565007
1.1461404
1.1207943
1.0853356
1.0476375
1.0133386
0.97959611
0.94892527
0.92088495
0.89935436
0.89084485
0.89472129
0.91746321
0.97970841
1.0864897
1.2152659
0.92628091
0.93142267
0.94091433
0.95455536
0.97189487
0.99155242
1.0133962
1.0371318
1.0610307
1.0827279
1.098361
1.1070794
1.1070863
1.0966356
1.0759387
1.0527719
1.032318
1.0102494
0.98256476
0.94965049
0.91834247
0.89584451
0.89172735
0.91289964
0.97227401
1.0727725
1.184527
0.95761704
0.96105451
0.96785273
0.97706526
0.98805297
1.000208
1.0135951
1.0283113
1.0434209
1.0572864
1.0679806
1.0747575
1.0759481
1.0695413
1.0554556
1.0410345
1.0246583
1.0087559
0.98975446
0.96368791
0.93602278
0.91586844
0.91237723
0.93407033
0.98845264
1.0706348
1.1559827
0.97385443
0.97631437
0.98187448
0.98993423
0.99998715
1.0109652
1.0214161
1.0319182
1.0434738
1.053382
1.0602401
1.0613518
1.0560559
1.0431942
1.0231545
1.0064851
0.98929907
0.97477165
0.96445223
0.95362172
0.94576798
0.943531
0.95303341
0.97894149
1.0262816
1.0891947
1.1458676
0.96807616
0.97105352
0.97843815
0.98959088
1.0035616
1.0194318
1.0353538
1.0506153
1.0647015
1.074146
1.0772764
1.0711501
1.0540647
1.0277298
0.99329309
0.96346664
0.93797246
0.91809078
0.9098057
0.9139516
0.92847007
0.95426459
0.99280788
1.0421518
1.0910838
1.1355466
1.1655991
0.94474497
0.94920941
0.95939069
0.97532682
0.99650897
1.0218077
1.0491763
1.0756698
1.0979899
1.1123895
1.1147871
1.103019
1.0748986
1.0325571
0.98193794
0.92858151
0.88703723
0.85827683
0.8425524
0.84565038
0.8741066
0.92747051
1.005684
1.101503
1.1820413
1.2214054
1.2215256
0.91106449
0.91703533
0.92943518
0.94896491
0.97600548
1.0097597
1.0483194
1.0887876
1.1254127
1.1515451
1.1611441
1.1498785
1.1152065
1.0593332
0.990452
0.92032807
0.8585692
0.81310935
0.78654573
0.78040394
0.80257796
0.86686982
0.97060373
1.1132074
1.2611523
1.3424575
1.3206878
0.88361759
0.89010211
0.90333443
0.92425319
0.95336399
0.99027474
1.0336876
1.0812354
1.1275931
1.1653287
1.1863555
1.1840437
1.153141
1.0961393
1.0215596
0.93875284
0.86147482
0.79835111
0.75651252
0.73902695
0.74848421
0.79824692
0.90811708
1.0770274
1.282592
1.4381913
1.4435057
0.92387264
0.9279194
0.93688665
0.95043285
0.96816965
0.98986694
1.0153454
1.0443672
1.0758287
1.1057513
1.1285513
1.1382555
1.1297389
1.0989871
1.0464403
0.97809635
0.901879
0.83101454
0.77700507
0.74303047
0.73984848
0.77425377
0.85173184
1.0109469
1.2341845
1.4471585
1.5145614
1.1388725
1.129963
1.1093297
1.0805432
1.0466196
1.0114039
0.97905043
0.95172421
0.93074402
0.91864416
0.91620074
0.9239372
0.94216426
0.96743425
0.98957445
0.99309093
0.97162234
0.93229361
0.88017968
0.83286621
0.8063983
0.81359171
0.85700555
0.9623595
1.1505734
1.3555929
1.4719929
1.3871145
1.3558209
1.2900773
1.2002203
1.0987548
0.99877271
0.90719178
0.82786463
0.76396256
0.72099783
0.70067627
0.70254633
0.72757709
0.77636312
0.85076695
0.94574073
1.0366158
1.0899044
1.0902674
1.039404
0.97494173
0.93176282
0.92917726
0.9708525
1.0737905
1.2145466
1.3234668
1.2428619
1.222399
1.1798834
1.1190472
1.0453044
0.96550435
0.88693106
0.81476742
0.75343919
0.70829398
0.67957015
0.67550664
0.69919391
0.75803302
0.85478444
0.98680606
1.1332365
1.2558056
1.3156931
1.2754357
1.180271
1.076892
1.0039613
0.98136516
1.0057626
1.0853831
1.1633296
0.98299816
0.97998219
0.97332151
0.96226483
0.94601508
0.92499837
0.90091205
0.8757228
0.851948
0.83335172
0.82551888
0.83484601
0.86758786
0.92764885
1.0138922
1.1234126
1.2416653
1.3384137
1.3735538
1.3300979
1.2308468
1.1149248
1.0167336
0.9656217
0.9627642
1.0044911
1.0492048
0.82797084
0.83209989
0.83876797
0.84822068
0.86023983
0.87478111
0.89151885
0.91028744
0.93120425
0.95627215
0.98722474
1.0255415
1.0709312
1.1221338
1.1762756
1.2278335
1.2668346
1.2802187
1.2592008
1.2036451
1.1239702
1.040377
0.97240574
0.9375731
0.94170472
0.96820454
0.98684066
0.7578943
0.76191007
0.77014518
0.78327811
0.80343034
0.83092253
0.86631912
0.91030153
0.96298487
1.0231474
1.0870129
1.1487896
1.2012269
1.2371965
1.2510361
1.2404997
1.2079884
1.1614307
1.1076608
1.0505874
0.99255344
0.93796477
0.89976137
0.8888702
0.8984625
0.92632292
0.94735263
0.73483319
0.73726929
0.74549465
0.75935174
0.78196071
0.81390768
0.85807757
0.9150114
0.98344506
1.059451
1.1373295
1.2082209
1.2601821
1.279707
1.2620353
1.2112839
1.1412869
1.0704662
1.0090417
0.95696994
0.91214519
0.87371594
0.84696316
0.84196346
0.85345021
0.87905388
0.91708716
0.74909749
0.75116942
0.76088521
0.7780135
0.804468
0.84146645
0.89049714
0.95008914
1.0165319
1.0864735
1.1543297
1.2131823
1.2508691
1.2572986
1.2289421
1.1720657
1.10017
1.0295589
0.97185546
0.92783319
0.89250043
0.86438055
0.84389968
0.8390919
0.84756878
0.86219551
0.89767076
0.81934073
0.82309467
0.83419821
0.85406345
0.88323187
0.92025771
0.96230663
1.0050696
1.0481876
1.0888846
1.1258092
1.1532076
1.1662721
1.1646406
1.1481731
1.1185336
1.0775777
1.0284974
0.98370899
0.94629959
0.91631619
0.89443079
0.88045223
0.87944506
0.88699215
0.89377022
0.91699975
0.96270422
0.96274786
0.96773952
0.9801503
0.9983199
1.0178632
1.0362187
1.0485024
1.0562956
1.0591162
1.0559132
1.0472363
1.0359152
1.0263083
1.0221477
1.0237953
1.0268613
1.0238699
1.0114467
0.99379302
0.97417189
0.9587911
0.9500004
0.95475682
0.96429125
0.96159411
0.96831502
1.1494036
1.140313
1.1313256
1.1217183
1.1105084
1.0957683
1.0776494
1.0555314
1.0293759
0.99954073
0.9674021
0.93583422
0.90939211
0.89285126
0.88951306