/*--------------------------------*- C++ -*----------------------------------*\
| =========                 |                                                 |
| \\      /  F ield         | OpenFOAM: The Open Source CFD Toolbox           |
|  \\    /   O peration     | Version:  2406                                  |
|   \\  /    A nd           | Website:  www.openfoam.com                      |
|    \\/     M anipulation  |                                                 |
\*---------------------------------------------------------------------------*/
FoamFile
{
    version     2.0;
    format      ascii;
    arch        "LSB;label=32;scalar=64";
    class       volScalarField;
    location    "19";
    object      p_0;
}
// * * * * * * * * * * * * * * * * * * * * * * * * * * * * * * * * * * * * * //

dimensions      [1 -1 -2 0 0 0 0];

internalField   nonuniform List<scalar> 
62344
(
1.0026726
1.0077846
1.0135448
1.0100285
1.0008976
0.99734425
0.99957909
1.0007111
1.00484
1.0056629
1.0106245
1.00231
0.9984052
1.0175445
1.0207123
1.0078985
0.99559801
0.99158413
1.0050889
1.0201679
1.0053796
0.97929097
0.99263728
1.0140274
1.0033104
0.99046161
1.0060198
1.0180912
1.0034873
0.99373874
1.0104641
1.0353845
1.039935
1.0167538
0.98731223
0.98043531
1.0041174
1.030116
1.0392444
1.04319
1.0435028
1.0220935
0.97242708
0.92223158
0.91007935
0.93556091
0.98022174
1.0202332
1.0365906
1.0290935
1.0149491
1.0281321
1.0744294
1.1399283
1.1874452
1.0027336
1.0061022
1.0116994
1.0109013
1.0024623
0.99747958
0.99751536
1.0003775
1.0088253
1.011058
1.0041522
1.0061547
1.0012352
1.0166745
1.0198534
1.0028373
1.0053987
1.002799
1.00146
1.0115506
1.0068127
0.99199439
0.99531933
1.003797
0.99895996
0.99868431
1.0153761
1.0218951
1.0011324
0.99239156
1.0113934
1.0333859
1.0295415
1.0050272
0.98727202
0.98906427
1.0032489
1.01963
1.0356306
1.0406841
1.0373879
1.0136794
0.96770201
0.9177744
0.88819874
0.90509584
0.96779373
1.0504919
1.1171506
1.1408783
1.1241407
1.0771175
1.0423625
1.0418126
1.0730188
1.0031365
1.0074462
1.0100447
1.0103867
1.0024656
0.99752227
0.99677099
0.99913089
1.0099338
1.0157851
0.99877999
1.0029117
1.0103453
1.0179225
1.0103731
1.001856
1.0132101
1.0142565
1.0041048
1.000725
0.99528086
0.99430812
1.0073728
1.0119614
0.99990324
1.0000632
1.0159153
1.0190884
0.9983534
0.99031634
1.0097409
1.027539
1.0194151
0.99548086
0.98573526
0.99477964
1.0065435
1.0138076
1.0291649
1.031127
1.0190279
0.99826589
0.96470094
0.92474707
0.90063953
0.90812709
0.95959924
1.0505066
1.1484738
1.199141
1.1763938
1.1047125
1.0136155
0.95280563
0.9441354
1.0036117
1.0096026
1.0095403
1.0091355
1.0023198
0.99862312
0.99771562
0.99827095
1.010188
1.0135569
0.9983979
0.99791929
1.0169676
1.017954
0.99971833
1.0042656
1.0163386
1.0160282
1.0063063
0.99822018
0.98541724
0.9893605
1.0126974
1.021253
1.0051935
1.0002838
1.0120859
1.0111455
0.99322099
0.98976363
1.0094172
1.0233427
1.0104621
0.98752889
0.98518263
1.0024615
1.0108097
1.0125625
1.0206116
1.018605
1.0020951
0.98221036
0.96595903
0.9537855
0.94351339
0.94620127
0.97629471
1.0348396
1.1093434
1.1675382
1.1756901
1.1275038
1.0389443
0.94782815
0.88745605
1.0041175
1.0096236
1.0104441
1.0090003
1.0018957
0.99902609
0.998138
1.0001235
1.0106904
1.0079091
1.0010457
0.99711401
1.018491
1.0151447
0.99625904
1.0085768
1.0182776
1.0087272
1.0035822
1.0023435
0.98622065
0.98521898
1.0098191
1.0215728
1.0067068
1.0008071
1.0082461
1.0024336
0.9873052
0.99134573
1.014179
1.0241163
1.0050698
0.97974132
0.98262667
1.0080162
1.0183415
1.0164247
1.0158464
1.0086845
0.98680027
0.96597116
0.96604825
0.98346254
0.9963775
1.0024784
1.0096448
1.0237773
1.0464551
1.0790678
1.1079381
1.1106591
1.0719504
1.0009294
0.92649426
1.0043456
1.0080592
1.0119075
1.0104375
1.0016855
0.99821627
0.9983728
1.0039505
1.0110577
1.0063959
1.0026652
1.0019172
1.0160404
1.0110456
0.99970641
1.013553
1.0184773
1.0005882
0.99708228
1.0062043
0.99499601
0.98837584
1.0054427
1.0133043
1.0001251
0.99982147
1.0072703
0.99849298
0.98431242
0.99331402
1.0211721
1.0293262
1.0039142
0.97479447
0.97874941
1.0099338
1.0281005
1.0278787
1.0197442
1.0031839
0.97433951
0.95286968
0.96130555
0.99940605
1.0380127
1.0560134
1.0515873
1.0281256
1.0052904
0.9990893
1.0181432
1.0436141
1.0614083
1.0466039
0.99881464
1.0041295
1.0070048
1.0133217
1.0118732
1.0018353
0.99721808
0.99857354
1.0071755
1.0110825
1.0085612
1.0028861
1.0080818
1.0128431
1.0079403
1.0064222
1.0194408
1.0175339
0.9962363
0.99163719
1.0071846
1.0035031
0.99617699
1.0042711
1.003462
0.99096917
0.99666186
1.0085347
1.00108
0.98684377
0.99716867
1.0269266
1.0347327
1.0057528
0.97184034
0.97267921
1.0058916
1.03365
1.0418344
1.0301542
1.0022861
0.96453427
0.94406924
0.95662745
1.0014716
1.0592697
1.0965163
1.0924793
1.0485491
0.99238956
0.94870778
0.9398457
0.9685949
1.009801
1.0416948
1.053916
1.003676
1.0076538
1.0139613
1.0120283
1.0024348
0.9974105
0.99888903
1.0076332
1.0108734
1.0110744
1.0029151
1.0122968
1.0099227
1.0067877
1.0135517
1.0221642
1.0156591
0.99618768
0.99203062
1.007631
1.0078355
1.0013555
1.0055931
0.99800822
0.98524996
0.99463636
1.0107475
1.0061389
0.99206062
1.0016792
1.0303084
1.0370191
1.0079278
0.97162352
0.96693165
0.99594196
1.0322639
1.0508307
1.0437683
1.0044826
0.95745646
0.93832393
0.95403716
0.99900268
1.0623843
1.1157092
1.1227454
1.0733602
0.99896502
0.93288263
0.89625341
0.90262515
0.9456958
1.0022828
1.0578283
1.0034471
1.0092571
1.0135064
1.0114274
1.0031111
0.99882582
0.99914975
1.0051685
1.0108902
1.0117976
1.0033235
1.0121242
1.0079405
1.0084649
1.0183309
1.0203739
1.0121696
0.99804506
0.99925856
1.0078945
1.004723
1.0011601
1.0068072
0.99765546
0.98465768
0.99510659
1.0143615
1.011149
0.99656277
1.0043166
1.030481
1.0353512
1.0081529
0.97386113
0.96241789
0.98283485
1.024045
1.0524327
1.0541604
1.009496
0.9526421
0.93190666
0.95376866
0.99793732
1.0570282
1.1149189
1.1354327
1.0952402
1.0168538
0.93889991
0.88833427
0.87142197
0.89420346
0.94654423
1.0139554
1.0036434
1.0109235
1.0126588
1.0106216
1.0036887
1.0003524
0.99941764
1.001577
1.0109105
1.0107231
1.00438
1.0090548
1.0064568
1.0112821
1.0195908
1.0163756
1.0072899
1.0009559
1.0078879
1.0101914
0.99798103
0.99597638
1.0062894
0.99970003
0.98778465
0.99924797
1.0188185
1.0158854
0.99991046
1.0049961
1.0274192
1.0306059
1.0067705
0.97781025
0.96030134
0.97032117
1.0104274
1.0490085
1.0585543
1.0163895
0.95163905
0.92577622
0.95073524
0.99903984
1.0511618
1.1049017
1.1320984
1.1062162
1.0366319
0.96084083
0.9019841
0.87212825
0.8728486
0.90389791
0.95638914
1.0040472
1.0116523
1.01197
1.010278
1.0040464
1.000978
0.99974888
0.99914995
1.0109918
1.0091883
1.0054352
1.0050675
1.0055738
1.014018
1.0189763
1.0121429
1.0035599
1.0019909
1.014145
1.012672
0.99278474
0.99041275
1.0042775
1.001479
0.99143134
1.0035701
1.0227921
1.0195063
1.0026723
1.0046634
1.0221925
1.0236013
1.004949
0.98259352
0.96118847
0.9619067
0.99563742
1.0417187
1.0582765
1.0237021
0.95524714
0.9235127
0.94543134
0.99764349
1.0493008
1.0954301
1.1170346
1.0996562
1.0497659
0.98893409
0.93384851
0.89588819
0.88049845
0.88845661
0.9173509
1.004478
1.0114835
1.0118585
1.0103812
1.0039733
1.0006608
0.99974998
0.99873731
1.0110928
1.0087232
1.0064786
1.0023387
1.0057401
1.0160446
1.0175122
1.0102773
1.0024813
1.0020188
1.0161434
1.0142025
0.99140746
0.98811182
1.0026258
1.0018911
0.99360161
1.0059808
1.0245569
1.0216979
1.0049439
1.0043416
1.0162157
1.0154366
1.0025519
0.9881013
0.9654783
0.95903843
0.9844461
1.0320966
1.0537832
1.028966
0.96427266
0.92626358
0.94049047
0.99294243
1.049384
1.0898871
1.0985809
1.0810063
1.0497782
1.0111717
0.97032146
0.93510126
0.90971818
0.8980803
0.90162927
1.0047028
1.0107159
1.0120539
1.0109385
1.0036841
0.99986666
1.0000046
1.0001329
1.0107899
1.0095506
1.0071545
1.0010721
1.0071721
1.017269
1.0153807
1.0104727
1.0045601
1.0021672
1.014262
1.0131778
0.99302132
0.99022414
1.002838
1.0012383
0.99373597
1.0057335
1.0236268
1.0222038
1.0068522
1.0049439
1.0114389
1.0074451
0.99930074
0.99261124
0.97396405
0.96145601
0.97860802
1.0218764
1.0459352
1.0301988
0.97513049
0.9351115
0.94141092
0.988234
1.0460595
1.0856982
1.0836872
1.0588027
1.0363975
1.0174604
0.99606414
0.97346175
0.95084527
0.92731121
0.90943284
1.0047302
1.0097495
1.0124792
1.0115502
1.0034806
0.99918863
1.0002215
1.0023894
1.0101517
1.0112083
1.0074257
1.0006851
1.0096465
1.0184275
1.012719
1.0118116
1.0093185
1.0045324
1.0095509
1.0097171
0.99538338
0.99557627
1.0054336
1.0001963
0.99172443
1.0027945
1.0205192
1.0212336
1.0085289
1.006681
1.0092451
1.0010237
0.99568495
0.99577812
0.98396593
0.96855343
0.97764812
1.0123802
1.0351054
1.0260147
0.9850462
0.94953845
0.94938942
0.98668928
1.0414516
1.0792539
1.0726631
1.0406492
1.018055
1.0101204
1.0083204
1.0032112
0.98943319
0.96591748
0.93694654
1.004589
1.0089632
1.0130102
1.0119715
1.0034681
0.99906717
1.0005845
1.0047079
1.0096622
1.0129605
1.0071351
1.0008682
1.0124119
1.0195454
1.0099609
1.0126314
1.0146095
1.0085589
1.0049578
1.0045797
0.99760748
1.0014699
1.0098894
0.99972856
0.98854879
0.99804614
1.0156882
1.0190296
1.009828
1.0094822
1.0098997
0.99740632
0.99243066
0.99709839
0.99349988
0.9786791
0.98048742
1.0050248
1.0230583
1.0176327
0.99315472
0.96518009
0.9625158
0.99021196
1.0369331
1.071721
1.0647518
1.029386
1.001491
0.99544135
1.0052759
1.0182037
1.0209861
1.0042321
0.97413797
1.0043744
1.0085719
1.0134163
1.0121348
1.003574
0.99946994
1.0007812
1.0064231
1.0093587
1.0140914
1.0065978
1.000889
1.0148542
1.0204752
1.0078501
1.0123457
1.0195912
1.0125986
1.002175
0.99911876
0.99852111
1.0068738
1.0146424
1.0002816
0.98561775
0.99288815
1.010191
1.0156774
1.0107572
1.0127736
1.0126512
0.99711469
0.99035125
0.9966728
1.0003766
0.98975639
0.98636025
1.0001339
1.0105347
1.0071376
0.99664053
0.98013939
0.97736779
0.99765571
1.0350095
1.0640727
1.0584384
1.0233946
0.99178627
0.98236044
0.99571496
1.0181549
1.0362925
1.0331287
1.0099167
1.0041657
1.0085848
1.0136035
1.0120533
1.0037445
1.0001934
1.000751
1.0072687
1.0093953
1.0146507
1.0058838
1.0006889
1.0166634
1.0212388
1.0067228
1.0112921
1.0229404
1.015696
1.001296
0.99515074
0.99797771
1.0106339
1.0184327
1.0013834
0.98388313
0.98880171
1.0049438
1.0120543
1.0111343
1.0159344
1.0165167
0.99954656
0.9896467
0.9946399
1.0038379
0.99969266
0.99406771
0.99800537
0.99877171
0.99515534
0.9948268
0.99284942
0.99229366
1.0073126
1.0364016
1.0575522
1.0509192
1.0189468
0.98697717
0.97379467
0.98575542
1.0107135
1.0353579
1.0481727
1.0372692
1.0040707
1.0089132
1.0135559
1.0117508
1.0039142
1.0009757
1.0004984
1.0072746
1.0098095
1.0145514
1.0050353
1.0004888
1.0175227
1.0216443
1.006518
1.0101562
1.024068
1.0175719
1.0016773
0.99356578
0.99659451
1.0118241
1.0202374
1.0025275
0.98351494
0.98647422
1.0011286
1.0088581
1.0107667
1.0185155
1.0208638
1.0036581
0.99000774
0.99160896
1.00385
1.007255
1.0027283
0.99863452
0.9890667
0.9814254
0.98828086
1.000768
1.0068704
1.019859
1.0418502
1.0542703
1.042797
1.0128053
0.9830717
0.96940774
0.97733218
1.0005923
1.0270689
1.0481687
1.0539408
1.0040512
1.0093034
1.0133222
1.0113662
1.0040236
1.0015528
1.000118
1.0065296
1.0103752
1.0139247
1.0042842
1.0006134
1.0172663
1.0214939
1.0072676
1.00981
1.0234655
1.0178275
1.0028718
0.99427363
0.99546547
1.0114122
1.0199562
1.0031507
0.98414246
0.98586711
0.99932933
1.0068469
1.0100825
1.0201605
1.0250966
1.0084699
0.99115064
0.987927
1.0006181
1.0116066
1.0111021
1.0015473
0.98196778
0.96759263
0.97742264
1.0021385
1.0195146
1.0337941
1.0511641
1.0553358
1.0355473
1.004334
0.97854548
0.96630617
0.97136008
0.99107966
1.0166262
1.0406354
1.058174
1.0041286
1.0096902
1.0129956
1.0110364
1.0040069
1.0017214
0.99971609
1.005358
1.0109356
1.0130421
1.003832
1.0012258
1.0161083
1.0204305
1.0086433
1.0107238
1.0215843
1.0162586
1.0044567
0.99704798
0.99561938
1.0094388
1.0179622
1.0029478
0.98526037
0.98666033
0.99917651
1.0061767
1.0094207
1.0209257
1.0284062
1.0132418
0.99272215
0.98391556
0.99498638
1.0124648
1.0178736
1.0057553
0.97763423
0.95498263
0.96323154
0.99694868
1.0282723
1.0488629
1.0635414
1.060828
1.0313401
0.99512649
0.97115555
0.96273267
0.96755536
0.98348319
1.0057263
1.0307046
1.0525791
1.0042618
1.0100164
1.0126795
1.0107781
1.0038738
1.0014489
0.99935943
1.0039934
1.011334
1.0121559
1.0036512
1.002425
1.0144042
1.0186666
1.010391
1.0126598
1.0191903
1.0132512
1.0058616
1.000712
0.9971292
1.0070702
1.0145934
1.001985
0.98637586
0.98832516
1.000094
1.0067334
1.0093141
1.0210925
1.0306699
1.0175407
0.99462313
0.98016792
0.98816534
1.0099481
1.0224532
1.0103756
0.97622171
0.94472759
0.94787159
0.98626115
1.0316996
1.0624743
1.0778685
1.0695996
1.0312832
0.98700294
0.96200697
0.95769519
0.96420307
0.97774141
0.99680474
1.0199408
1.0431832
1.0044132
1.0102478
1.012417
1.0106442
1.0036639
1.0008278
0.99906928
1.0026216
1.0115626
1.0113761
1.0037735
1.0042374
1.0124767
1.0164819
1.0124185
1.0151505
1.0168189
1.0093013
1.0068453
1.0049372
0.99951606
1.0050029
1.010531
1.000374
0.98716861
0.99028637
1.0015867
1.0080446
1.0097348
1.0209649
1.0319693
1.0211554
0.9967227
0.9772433
0.98120775
1.0046312
1.0245405
1.0150297
0.97752357
0.93776222
0.93416127
0.97209169
1.0287132
1.072838
1.0928992
1.0810365
1.0349904
0.98346292
0.95441087
0.95140226
0.9597793
0.97316935
0.99025076
1.0104992
1.0324828
1.00455
1.0103833
1.0122214
1.0106103
1.0034565
1.0000029
0.99885871
1.0013768
1.0116343
1.0107788
1.004159
1.0063727
1.0106789
1.0141455
1.014564
1.0178076
1.0147543
1.0050682
1.0073244
1.0091345
1.0023554
1.0034688
1.0066333
0.99818373
0.98755332
0.99205979
1.0034123
1.0098406
1.0103591
1.0205302
1.032504
1.0240515
0.99892671
0.97531142
0.97474361
0.99805953
1.0243296
1.0193484
0.98064756
0.9344164
0.92285234
0.95668568
1.0194109
1.0783254
1.1064317
1.0937073
1.0427252
0.98460616
0.95089664
0.94554847
0.95428617
0.96844496
0.98485337
1.0034143
1.0232298
1.0047022
1.0104509
1.0120889
1.0106297
1.0032994
0.99914352
0.99872396
1.0003338
1.0115673
1.0103769
1.0046512
1.0084733
1.0093104
1.0118722
1.0164458
1.0202915
1.0132013
1.0011792
1.0072376
1.0128331
1.005243
1.0025679
1.0034821
0.9957693
0.98755254
0.9933298
1.0051975
1.0115685
1.0108425
1.0198375
1.0324318
1.0264168
1.0013177
0.97442509
0.96926084
0.99140273
1.0219584
1.0228985
0.98492249
0.9344457
0.9151157
0.94190885
1.0053567
1.0780542
1.1172014
1.1058084
1.0530645
0.99012156
0.95161757
0.94138014
0.94852632
0.96263056
0.98003773
0.99872507
1.0166102
1.004781
1.0104696
1.011995
1.0106849
1.0031967
0.99840353
0.9986332
0.99958831
1.0114213
1.0101308
1.0050842
1.0102394
1.0084472
1.0099625
1.0177294
1.022304
1.0123117
0.99804841
1.0066324
1.0157301
1.0077911
1.0023231
1.0013174
0.99383695
0.9871948
0.99407979
1.0065709
1.0132336
1.0114359
1.0191312
1.0319735
1.0283814
1.00387
0.97454406
0.96510169
0.98508318
1.0186118
1.0258543
0.99003042
0.93718234
0.91070297
0.92921206
0.98924713
1.0724145
1.1246001
1.1177588
1.064876
0.9998947
0.95520734
0.93744789
0.94043122
0.95516987
0.97526982
0.99485438
1.0127271
1.0048832
1.010468
1.0119514
1.0107407
1.0031561
0.99787774
0.99857435
0.998985
1.0112756
1.0099651
1.0053573
1.0114572
1.0079885
1.008674
1.0183767
1.023674
1.0121234
0.99599256
1.0057565
1.0175902
1.0096466
1.0025661
1.0000997
0.99262682
0.98650524
0.99409805
1.0072186
1.0143547
1.0119865
1.0186294
1.0315451
1.030064
1.0068169
0.97594287
0.96209427
0.97817983
1.0140807
1.0293311
0.99668591
0.94278717
0.90851086
0.9159197
0.97203104
1.0601308
1.1263484
1.1320475
1.0826816
1.015154
0.96365116
0.93746925
0.93186532
0.94357757
0.96626277
0.98921747
1.0084304
1.0048545
1.0104513
1.0119193
1.0107779
1.0031939
0.99770006
0.99852655
0.99861776
1.0111284
1.009947
1.0054392
1.0120343
1.0077951
1.0079645
1.0184905
1.0240464
1.0123845
0.99559105
1.0048133
1.0183377
1.0106971
1.003023
0.99975298
0.99288615
0.98607702
0.99373817
1.0064962
1.0139858
1.011773
1.0174895
1.0302797
1.0312567
1.0101827
0.98005506
0.96305839
0.97445926
1.0078442
1.0286157
1.0023627
0.95314915
0.91419781
0.91213552
0.95708878
1.0386904
1.1121334
1.1300131
1.0940249
1.0332317
0.98101861
0.94822359
0.93539373
0.94062807
0.9592797
0.9811319
1.0000173
1.0194382
1.0274367
1.0326421
1.0388616
1.0484718
1.0584919
1.0658025
1.0680698
1.060019
1.0399986
1.0099229
0.97450011
0.9398672
0.9124639
0.90503894
0.9216851
0.96548106
1.0296268
1.0880782
1.0942206
1.0381471
0.94901794
0.86673305
0.86479458
0.95343391
1.097042
1.1768478
1.0433237
1.0527306
1.0597633
1.0681505
1.0751109
1.0782545
1.0752673
1.060946
1.0362415
1.0049404
0.9710206
0.93916849
0.91459448
0.90599387
0.92000728
0.95853541
1.0229064
1.0938137
1.1296101
1.0932982
1.0133679
0.92817899
0.86879366
0.88910273
0.98008048
1.0883503
1.1044026
1.0785018
1.0869123
1.089648
1.0892003
1.0846516
1.0742541
1.055356
1.0302529
1.0022298
0.97386304
0.94802629
0.92766954
0.91894779
0.9292779
0.96130208
1.0147613
1.0784669
1.1247581
1.1208529
1.0598437
0.98103707
0.91859935
0.90637586
0.95227227
1.0310781
1.0711275
1.0048854
1.0995101
1.1009907
1.0919897
1.0812556
1.0651487
1.0437208
1.020295
0.99750845
0.97638359
0.95839687
0.94622703
0.94439321
0.95754583
0.98639597
1.0320537
1.0873503
1.126835
1.1224377
1.0734273
1.0024739
0.94654571
0.9273379
0.96481079
1.0357429
1.0876035
1.0463708
0.93282381
1.0748698
1.0647474
1.0482139
1.0312556
1.0126876
0.99477228
0.97972192
0.96769385
0.96046532
0.95943139
0.96769982
0.98918451
1.0254313
1.0723245
1.1207355
1.1562266
1.1495645
1.0961497
1.0194522
0.95264881
0.92640923
0.95242339
1.0294694
1.1105947
1.1206416
1.0152793
0.90215654
0.9994575
0.98286423
0.96676725
0.95314043
0.941946
0.93500705
0.93320329
0.93749877
0.9482628
0.96843083
1.0004981
1.0453959
1.0987853
1.1505165
1.1859382
1.1836104
1.1366394
1.0609594
0.98225027
0.9376158
0.94124588
0.99650161
1.0860595
1.1519653
1.1110383
0.98159737
0.91052676
0.91494387
0.89590116
0.88560533
0.87989041
0.87788844
0.88105499
0.89110558
0.90989709
0.93928424
0.97979588
1.0308216
1.0871942
1.1395505
1.1753487
1.1815028
1.1449813
1.0850913
1.0228199
0.97494934
0.96368879
0.9967543
1.0657958
1.1314912
1.140804
1.0549143
0.95226635
0.95048421
0.85166213
0.83867398
0.83508705
0.83609481
0.84215106
0.85522706
0.87697663
0.90880929
0.95055553
0.99925045
1.0499037
1.0923166
1.1193455
1.1195315
1.0936532
1.0485676
1.0073667
0.98246576
0.98235454
1.0161885
1.0798772
1.1426238
1.1592325
1.0914194
0.98188849
0.93711061
1.0022445
0.82223271
0.81991869
0.82651084
0.83670812
0.85262586
0.87628114
0.90765729
0.9460751
0.98734024
1.0237574
1.0498827
1.0573686
1.0435622
1.0116885
0.9755783
0.93945919
0.92602805
0.94012527
0.98893479
1.0680421
1.1562512
1.1971672
1.1535161
1.0362277
0.93685603
0.94965375
1.0517688
0.83747636
0.84475951
0.8650349
0.88689619
0.91346299
0.9441528
0.97649531
1.0056376
1.0261364
1.0338392
1.0238169
0.99650265
0.95747419
0.91367324
0.87813296
0.85611829
0.86499916
0.90846632
0.99049051
1.0940845
1.1749784
1.1885364
1.1118241
1.0020738
0.94682818
0.99309561
1.0887708
0.9119631
0.93033156
0.95561468
0.98150344
1.0075836
1.0306222
1.0462203
1.0503424
1.0404539
1.0161909
0.97938145
0.93607827
0.89164682
0.85315331
0.82432378
0.82293182
0.84879471
0.90847346
0.99312603
1.0763479
1.1205576
1.1069186
1.0443809
0.99329298
1.0028934
1.0575925
1.1194486
1.0423316
1.0654127
1.0822608
1.095097
1.1022617
1.100258
1.0870035
1.0626627
1.0272755
0.98407258
0.93893397
0.89716926
0.86099592
0.83650628
0.82698977
0.8424439
0.88120718
0.93894661
0.99404502
1.0224057
1.0179839
0.98961018
0.97230852
1.0031689
1.074561
1.1250272
1.1426276
1.1627693
1.1811485
1.1838842
1.1777026
1.1610242
1.1338404
1.0980528
1.0550809
1.0083197
0.96183728
0.92148544
0.8889139
0.87082032
0.86658699
0.88065632
0.91081233
0.95057233
0.97939253
0.97917566
0.95191031
0.91370779
0.88843692
0.92231671
1.0169032
1.1247883
1.1721749
1.1498916
1.2234427
1.2270049
1.2107335
1.1894384
1.1610566
1.1233048
1.0843473
1.0434874
1.0009635
0.96479683
0.93734937
0.92208731
0.92237246
0.94143578
0.97423926
1.00923
1.0252084
1.0068064
0.95431323
0.89330563
0.85250522
0.84705891
0.91197074
1.0232858
1.1333101
1.1737639
1.1332276
1.1889581
1.1784284
1.1519674
1.1261918
1.0992462
1.0723399
1.046732
1.0237187
1.0032675
0.9897204
0.98670153
0.99450193
1.0165371
1.051592
1.0863239
1.1027017
1.0744021
1.0126163
0.93637609
0.87446993
0.84917028
0.86995056
0.94197697
1.0323318
1.1013115
1.1132889
1.0840719
1.068355
1.0531193
1.0374153
1.0233181
1.0102062
1.001083
0.996704
0.99692941
1.004023
1.0200015
1.0467685
1.0828855
1.1219774
1.1538389
1.1647779
1.141238
1.0834505
1.0103683
0.94619631
0.90545758
0.90452836
0.94590123
1.0021871
1.0411142
1.0417141
1.0191782
1.012794
0.9479604
0.93281623
0.92561876
0.92464504
0.92809336
0.93613725
0.94986089
0.97101488
1.0015805
1.0424365
1.091686
1.1403236
1.1762147
1.1876287
1.168003
1.1222749
1.0671345
1.0205832
0.98896414
0.9839184
1.0091562
1.0486922
1.063751
1.0353139
0.97687423
0.93716147
0.94560465
0.88113684
0.8726176
0.87177675
0.87525054
0.88444927
0.90104526
0.92611935
0.96081794
1.0036485
1.0508342
1.0946391
1.1276035
1.1415549
1.1308412
1.0982171
1.065223
1.0440879
1.0416895
1.0602648
1.0974175
1.13922
1.1484304
1.1030044
1.0142745
0.92637925
0.88591753
0.89861967
0.86663622
0.86810288
0.87692906
0.88677797
0.89981513
0.91747462
0.94102589
0.97193458
1.0040225
1.0300196
1.0438434
1.0462075
1.0349793
1.0130063
0.99685424
0.999928
1.0263647
1.0747459
1.1426135
1.2156025
1.253208
1.2109452
1.1081755
0.98643667
0.89677747
0.86485855
0.87985111
0.90567089
0.9134732
0.929158
0.94375342
0.95971814
0.97535589
0.98826387
0.99448987
0.99093454
0.97822872
0.95819708
0.93339496
0.91004653
0.89881199
0.91035527
0.95003428
1.0181809
1.1118045
1.2173014
1.3003541
1.3037768
1.2151967
1.0843847
0.96542598
0.89273279
0.86995675
0.89041619
1.00058
1.010084
1.0199163
1.029711
1.0365554
1.0359644
1.0237951
0.99721828
0.95865987
0.91483133
0.8721874
0.83915439
0.82257908
0.82954077
0.86497349
0.93082975
1.0278371
1.147176
1.2582362
1.31504
1.2767035
1.1719636
1.0538541
0.95692437
0.90938009
0.89783364
0.92337526
1.11575
1.121605
1.1220839
1.1150543
1.0981287
1.0694391
1.0275728
0.97589948
0.91979916
0.8656474
0.8215537
0.79510012
0.79024859
0.81400681
0.86756644
0.95177153
1.0602009
1.1699892
1.2464243
1.2545015
1.1943803
1.1046254
1.0252486
0.96454015
0.94419105
0.94920923
0.97341828
1.2009738
1.2013748
1.1878392
1.1599201
1.1187843
1.0675319
1.0101277
0.95165959
0.8974418
0.85221602
0.8217945
0.81068657
0.82083257
0.85767127
0.92175608
1.008805
1.098894
1.1644518
1.1800403
1.1456071
1.0894766
1.0352239
1.0002955
0.99112606
0.99818658
1.0205285
1.0302784
1.2067012
1.198996
1.1757781
1.1399566
1.0942867
1.0425461
0.98884598
0.94177943
0.90487036
0.88022027
0.86996053
0.87704513
0.90566729
0.95360601
1.0140483
1.07544
1.1142384
1.1148968
1.0799681
1.0299491
0.9880509
0.97291202
0.98932289
1.027445
1.0729273
1.1087368
1.0924267
1.1215615
1.1105974
1.0892347
1.0633198
1.033906
1.0029958
0.97562704
0.95502218
0.94369374
0.94430163
0.95805086
0.98617176
1.0268465
1.0718096
1.1061435
1.1144183
1.0880069
1.0346084
0.97319274
0.92590796
0.9040321
0.9257567
0.99019793
1.0721828
1.1572116
1.1950929
1.1479213
0.98296825
0.97388179
0.96477622
0.95855698
0.95594549
0.95709535
0.96388608
0.97804518
1.001009
1.0336898
1.0751929
1.121346
1.1622292
1.1824132
1.1679566
1.1138645
1.032982
0.94838461
0.87903313
0.84547967
0.84732939
0.90153289
0.99656065
1.11655
1.2197126
1.2558778
1.1936932
0.85305989
0.8505344
0.8534908
0.8654629
0.88634994
0.9155781
0.95355559
1.0006705
1.0591517
1.1254074
1.1916879
1.2463531
1.2707747
1.2514318
1.1826607
1.0798214
0.97135732
0.87705553
0.81667655
0.79764878
0.82196465
0.89630122
1.0095001
1.1383601
1.2450761
1.2755169
1.2257704
0.77327415
0.77541364
0.78584679
0.80815913
0.8428442
0.89048624
0.95130129
1.0262227
1.1109279
1.1974156
1.2735283
1.3261901
1.3250917
1.2669373
1.1623998
1.0392678
0.92407485
0.83625218
0.78874166
0.78465275
0.82097269
0.89991734
1.0125163
1.1312228
1.2201648
1.2530755
1.2436588
0.75157922
0.75702907
0.77138099
0.79761455
0.8389623
0.89503292
0.96676758
1.0521488
1.145357
1.2349871
1.3068147
1.340188
1.318124
1.2415848
1.1306307
1.0131977
0.90723316
0.83168279
0.79217387
0.79300872
0.83114372
0.90314796
0.9939633
1.0918011
1.167651
1.210644
1.2483503
0.76724862
0.77495012
0.79191699
0.82073015
0.86342272
0.9206104
0.99197295
1.073467
1.1581403
1.2356901
1.2947217
1.3118753
1.2813564
1.2080545
1.1114663
1.0110843
0.92099401
0.85392678
0.81738095
0.81289138
0.84000732
0.89379091
0.96136785
1.0324664
1.1044514
1.1690228
1.2506739
0.8062633
0.81403147
0.82989647
0.85567187
0.89274548
0.94186575
1.0035801
1.0736647
1.1460117
1.2110542
1.2569587
1.2704791
1.2472672
1.1902979
1.1120339
1.0301676
0.95298634
0.89117405
0.85136644
0.83658353
0.84629113
0.8776554
0.92177797
0.9748848
1.0517908
1.1396433
1.2488197
0.83559131
0.8421306
0.855781
0.8778477
0.90971114
0.95155151
1.0027198
1.0605204
1.1205366
1.1762378
1.21985
1.2377069
1.2268963
1.1863961
1.123363
1.0549078
0.98815028
0.92946665
0.88405813
0.85621338
0.84889425
0.86293509
0.89488561
0.94289871
1.0202494
1.12097
1.2357378
0.84969755
0.85493785
0.86617503
0.88507553
0.91259768
0.94887097
0.99316061
1.0437555
1.0974659
1.1507099
1.1953522
1.2180132
1.2154591
1.1856087
1.1319465
1.0718653
1.0085503
0.94886951
0.89913069
0.86376703
0.84702735
0.85463862
0.88556909
0.93705822
1.012715
1.1154394
1.2211531
0.85285653
0.85769231
0.86815495
0.88514186
0.91003369
0.94419458
0.98692359
1.0361533
1.0893839
1.1433515
1.1870615
1.2115867
1.2110329
1.1845601
1.1295409
1.0683112
1.0034775
0.94141226
0.89001983
0.85371753
0.83823157
0.84961165
0.8881183
0.94956077
1.033078
1.1285346
1.2143177
0.8471827
0.85258706
0.8638667
0.88221204
0.90966196
0.94663837
0.99230721
1.0442144
1.0988545
1.1528439
1.195564
1.2185502
1.21486
1.1828657
1.1204878
1.0499203
0.97749261
0.90991127
0.85590913
0.82130457
0.8115107
0.8311006
0.88178938
0.96931616
1.0726384
1.1680765
1.234455
0.84439391
0.85099912
0.86417521
0.88543651
0.91576403
0.95533715
1.0034743
1.0580262
1.1146879
1.1675759
1.209091
1.229458
1.2218622
1.1833564
1.1180928
1.0311382
0.94943637
0.87427068
0.81565842
0.77833245
0.76850273
0.79287086
0.85865194
0.97186229
1.1164675
1.2384069
1.2905673
0.85265888
0.85965427
0.87247531
0.89319194
0.92271569
0.96086831
1.0070901
1.0611647
1.1181257
1.1711313
1.2119299
1.2326738
1.2253105
1.1873076
1.1209326
1.0351752
0.94300771
0.85985523
0.79244483
0.74766554
0.7311361
0.75067397
0.81710789
0.94272314
1.1237027
1.3057709
1.3838582
0.88225175
0.88786736
0.89912856
0.91637804
0.93983613
0.96926419
1.0042121
1.0438912
1.0870504
1.1305157
1.1684876
1.1931562
1.1987233
1.1781657
1.1308629
1.0592605
0.9727294
0.88503305
0.80548282
0.74887176
0.71903705
0.72522117
0.78014441
0.89762594
1.091036
1.324313
1.4668304
0.99013759
0.99030504
0.98990355
0.98931924
0.98882924
0.98872144
0.99010786
0.994262
1.0025814
1.0156233
1.0341397
1.0574274
1.0814159
1.102117
1.107422
1.0859089
1.0359476
0.96342034
0.88324535
0.8103126
0.76016092
0.74670985
0.77918138
0.8666241
1.0392961
1.2729727
1.462093
1.2231344
1.2077267
1.173942
1.1267016
1.0700345
1.0101383
0.95203871
0.89868874
0.85465872
0.82519823
0.8137062
0.82266513
0.85380772
0.90802173
0.9785257
1.0491167
1.0932083
1.096327
1.0514077
0.97351029
0.89176953
0.83768917
0.8296969
0.87757632
0.99184908
1.1721186
1.3427478
1.3141626
1.2909869
1.2409524
1.1679349
1.0789066
0.98435642
0.89365011
0.81001543
0.74082548
0.68979097
0.66089921
0.65693502
0.68276773
0.7416546
0.836884
0.97030342
1.1217416
1.2394327
1.2797613
1.2289651
1.1176086
1.0044247
0.9305227
0.91798481
0.95872797
1.0628292
1.1770702
1.1013338
1.0915043
1.0707273
1.0395541
0.99814964
0.94691281
0.89023596
0.83363972
0.78101121
0.73501804
0.70515426
0.6977281
0.72273815
0.78505734
0.88474431
1.02076
1.1858665
1.3493343
1.4485493
1.4314665
1.3135199
1.1590131
1.0245469
0.94688704
0.93314345
0.97817966
1.0413766
0.88056466
0.88194198
0.8846634
0.88830154
0.89128812
0.89239681
0.89118795
0.88759607
0.88273557
0.87967086
0.88315264
0.89744839
0.9287314
0.98102183
1.0555044
1.1521928
1.264594
1.368769
1.4232201
1.3948883
1.2977763
1.1675774
1.040322
0.95561249
0.92398329
0.93361441
0.95612683
0.76968126
0.77429077
0.78355803
0.79755472
0.81708901
0.84244527
0.87323921
0.90876883
0.94893434
0.99289819
1.0386102
1.082924
1.1235149
1.1594531
1.1913503
1.2212239
1.2474045
1.2621785
1.2558711
1.2220979
1.1589775
1.076749
0.99683012
0.93733315
0.91082141
0.90603577
0.90760465
0.73759023
0.7404699
0.74939445
0.76433404
0.78776605
0.82022335
0.86335499
0.9176185
0.98159364
1.0513905
1.1205598
1.1808725
1.2218385
1.2368333
1.226752
1.1979301
1.1609436
1.1257948
1.0946294
1.0629732
1.0245468
0.97833287
0.93046567
0.8950879
0.87017382
0.86375775
0.86763647
0.7497168
0.75253122
0.76299271
0.78060588
0.80715883
0.84431042
0.89267603
0.95086521
1.0158252
1.0843442
1.1498775
1.2035523
1.2327866
1.229109
1.1951991
1.1418873
1.0852141
1.0392021
1.0054101
0.97937196
0.95555828
0.92905607
0.89903035
0.87092934
0.8464935
0.83158302
0.84099661
0.81435095
0.81808804
0.8298071
0.85033318
0.88050879
0.91894438
0.96174355
1.007734
1.0534165
1.0960882
1.1334249
1.1582255
1.1658254
1.1538545
1.1251882
1.0857105
1.0427239
1.0044834
0.97688643
0.9589082
0.94504657
0.93162292
0.91482091
0.89458515
0.86957915
0.84282652
0.84080593
0.94880064
0.9506818
0.95822985
0.9732307
0.99427265
1.0172305
1.0377096
1.0540038
1.0643253
1.0696394
1.0682115
1.0601103
1.0474306
1.0343013
1.0228212
1.0140259
1.0054132
0.99524983
0.98628173
0.98014319
0.97505429
0.97235757
0.96823807
0.95999877
0.93934397
0.90763602
0.89482902
1.138543
1.1303204
1.1236781
1.1173938
1.1094944
1.098717
1.0831835
1.0635424
1.039478
1.0113735
0.98017744
0.94945944
0.92401401
0.90848631
0.9044931
0.9130938
0.93300759
0.95907381
0.98542743
1.0090516
1.0299953
1.0454077
1.0558417
1.0566051
1.0358069
0.99666116
0.97051573
1.2962332
1.2859924
1.2639014
1.2317005
1.191547
1.1456276
1.096708
1.0462034
0.99569751
0.9472058
0.90180185
0.86250998
0.83217405
0.81338227
0.8066754
0.81329619
0.8362697
0.87704385
0.93355706
0.99851911
1.0658175
1.1263617