/*--------------------------------*- C++ -*----------------------------------*\
| =========                 |                                                 |
| \\      /  F ield         | OpenFOAM: The Open Source CFD Toolbox           |
|  \\    /   O peration     | Version:  2406                                  |
|   \\  /    A nd           | Website:  www.openfoam.com                      |
|    \\/     M anipulation  |                                                 |
\*---------------------------------------------------------------------------*/
FoamFile
{
    version     2.0;
    format      ascii;
    arch        "LSB;label=32;scalar=64";
    class       volScalarField;
    location    "19";
    object      rho;
}
// * * * * * * * * * * * * * * * * * * * * * * * * * * * * * * * * * * * * * //

dimensions      [1 -3 0 0 0 0 0];

internalField   nonuniform List<scalar> 
62344
(
1.0009447
1.0064223
1.0089594
1.0055196
0.99870397
0.99653127
0.99936788
0.99933236
1.0002828
1.0041406
1.0057642
0.99805263
1.0015466
1.0163085
1.0129558
1.0024004
0.99576659
0.99944012
1.010663
1.0151515
0.99596548
0.98415121
1.0018944
1.0134018
1.001075
0.99800777
1.0124195
1.013136
0.99933658
1.0007951
1.0200773
1.0346368
1.0283506
1.0081676
0.99755285
1.0073208
1.0321821
1.0473638
1.057546
1.0698331
1.0734415
1.0510447
1.0107238
0.98832387
0.99855229
1.0331973
1.0749153
1.1001848
1.1044225
1.0969759
1.1010231
1.1286464
1.1730911
1.2192128
1.2288547
1.0000878
1.004815
1.0082609
1.0057828
0.99981955
0.99773064
0.99809086
0.99892747
1.0050587
1.0052238
1.0037882
1.0032638
1.0019668
1.0172489
1.0107582
1.0013279
1.0052128
1.0023753
1.0035821
1.0100328
1.0012779
0.99190742
0.99771203
1.0047832
1.0020585
1.0060701
1.0176835
1.0132654
0.9950866
0.99821967
1.0178457
1.0290589
1.0168779
1.0004608
0.99620854
1.0067871
1.0200392
1.0347884
1.047549
1.0545094
1.0496905
1.0258694
0.99503127
0.97065227
0.97618829
1.0223946
1.0947612
1.1631818
1.1962057
1.1906544
1.1552692
1.1164085
1.103807
1.1223723
1.156871
1.0002496
1.0048186
1.0063451
1.0060288
1.0006808
0.99765922
0.99606937
0.99878659
1.0088577
1.0080167
0.99922694
1.0035355
1.0085357
1.0130375
1.0045609
1.0023459
1.0128502
1.0090163
0.99963628
0.99939284
0.99704889
0.99887501
1.0077021
1.0072847
1.0003739
1.005887
1.0159841
1.0101755
0.99391057
0.99736447
1.0160992
1.0233375
1.0093234
0.99487549
0.99675867
1.0074948
1.014026
1.0236408
1.0378101
1.0373934
1.0272441
1.0094301
0.98694192
0.9733402
0.98145244
1.0208413
1.0925802
1.1757551
1.2309169
1.225514
1.1765197
1.1091393
1.0530791
1.0404554
1.0601043
1.0010667
1.0056745
1.0051112
1.0057953
1.0010582
0.99809528
0.99611758
0.99871093
1.0092745
1.0073615
0.9967581
1.0011813
1.0137984
1.0082255
0.99895247
1.0059447
1.0148514
1.0103996
1.0002094
0.99432597
0.98982534
0.99941712
1.0150331
1.013847
1.0006994
1.0028017
1.0104067
1.0040949
0.99287693
0.99869012
1.0167915
1.0197115
1.0040652
0.99233615
0.99956771
1.0112249
1.0137149
1.0189309
1.028278
1.0240984
1.0098731
0.99836987
0.99313634
0.99610421
1.0062253
1.0346902
1.0832106
1.1424533
1.1943916
1.2122637
1.1900293
1.1325009
1.0697365
1.0243695
1.0169147
1.0016745
1.0059099
1.0057731
1.00578
1.0007345
0.99835088
0.99765463
1.000478
1.006669
1.0047689
0.99773573
0.99965628
1.014961
1.0061181
0.99846409
1.0108817
1.0133888
1.0050092
1.0018597
0.99762978
0.98811865
0.99563126
1.0143975
1.0150172
1.0015893
1.0010753
1.0056328
0.99795259
0.99089744
1.0018523
1.0193859
1.0185087
1.0000279
0.98947648
1.0015274
1.0179697
1.0195464
1.0205321
1.0236345
1.0147881
0.99628479
0.98797081
1.0019551
1.0230288
1.0404368
1.0553869
1.0702704
1.0878149
1.1126089
1.1413078
1.1553663
1.1404374
1.1008063
1.0532404
1.0186888
1.0017071
1.005611
1.0077618
1.0062375
1.0001163
0.99831181
0.99995542
1.0034634
1.0047733
1.0037818
1.0003258
1.0021024
1.0124339
1.0058272
1.0028007
1.0147355
1.0104814
0.99783631
1.0006032
1.0048334
0.99416981
0.99455175
1.0082027
1.008236
0.9989927
1.0020059
1.0050908
0.99613588
0.99074497
1.0049292
1.0237046
1.0191744
0.99713679
0.98601976
1.001984
1.0241334
1.0302712
1.0288169
1.0241418
1.0086463
0.98641895
0.98170394
1.0068353
1.0456251
1.0734433
1.0812973
1.0698453
1.0532071
1.0444634
1.0589849
1.0856129
1.1093071
1.1159583
1.0932563
1.0609144
1.0013565
1.005712
1.0094116
1.0065811
0.99989155
0.99807678
1.0009941
1.0053513
1.0055202
1.0044741
1.0024151
1.006347
1.0083186
1.0058392
1.0088935
1.016945
1.0079491
0.99322158
0.99836333
1.0097407
1.0023564
0.99733
1.0026885
0.99936352
0.99417611
1.0028236
1.0083952
0.99965273
0.99387544
1.0088872
1.0279262
1.0214518
0.99562318
0.98238935
0.99725325
1.0243349
1.0385913
1.0398615
1.0280326
1.0042032
0.98028252
0.97892297
1.0081798
1.0583294
1.0998597
1.1104878
1.0846637
1.046763
1.0112022
1.0013065
1.025523
1.0643392
1.0997732
1.1164729
1.1099982
1.0010808
1.0063457
1.0098446
1.0066062
1.0003202
0.99791333
1.0002153
1.0046353
1.007029
1.0056783
1.0034765
1.0092815
1.0050717
1.0063909
1.0135666
1.0162998
1.0065676
0.9935655
0.99812372
1.0111926
1.0060373
1.0003044
1.0007862
0.9938103
0.99059567
1.0031728
1.0122203
1.0046366
0.99856246
1.0131687
1.0306573
1.022877
0.99617309
0.980184
0.9899697
1.0176667
1.0409197
1.0488091
1.0349947
1.0014526
0.97549776
0.97803316
1.0092043
1.0612835
1.1133657
1.1334179
1.1080941
1.0588426
1.0086494
0.97857752
0.98336476
1.0216477
1.0733154
1.1198101
1.1490873
1.0011495
1.0070983
1.0091368
1.0066244
1.0010471
0.9981746
0.9983482
1.0020617
1.0083789
1.0060894
1.0030466
1.0085705
1.0034545
1.0077714
1.0144788
1.0129275
1.0058965
0.9979277
1.0019687
1.008251
1.0030494
1.0009708
1.0023975
0.99352029
0.99003867
1.0037076
1.0150878
1.0082713
1.0016832
1.0150423
1.0304544
1.0217969
0.99722446
0.97959183
0.98243373
1.0063719
1.0370999
1.0524325
1.041333
1.0004827
0.97072634
0.97682773
1.0112681
1.06132
1.1146126
1.1432631
1.1269502
1.0761478
1.0228419
0.98296828
0.97155999
0.99192477
1.0388272
1.0993187
1.1544952
1.0014774
1.0076174
1.0079562
1.0065738
1.0016924
0.99876014
0.9970046
0.99965958
1.0087655
1.005733
1.0024134
1.0052367
1.0034916
1.0103242
1.0135328
1.0084317
1.0048878
1.0035589
1.0075161
1.004874
0.99642334
0.99911485
1.005089
0.99718563
0.9926582
1.005837
1.0168068
1.0095415
1.0022702
1.0136642
1.0268871
1.0186164
0.99848381
0.98114242
0.97674409
0.99442283
1.0298707
1.0523814
1.0455749
1.0020538
0.96720716
0.97295245
1.0124146
1.06115
1.1095856
1.1410547
1.1333503
1.0906868
1.0400917
1.0005714
0.97973104
0.98181953
1.0094346
1.058101
1.1153127
1.0017481
1.0077177
1.0071613
1.0067013
1.0019719
0.99932847
0.99705478
0.9988102
1.0081522
1.0052616
1.0024742
1.0015559
1.0045871
1.0128289
1.0124255
1.0052767
1.0033893
1.0072305
1.0120051
1.0033453
0.99083859
0.9963596
1.0068428
1.0014643
0.99683261
1.0085912
1.0181809
1.0098013
1.0013724
1.0100946
1.0206452
1.0139051
0.99951267
0.98446629
0.97437898
0.98549873
1.0208173
1.0493837
1.0472026
1.0048482
0.96577851
0.96854924
1.0094284
1.0602716
1.1051194
1.129911
1.1236534
1.0941986
1.0575695
1.0233167
0.99741359
0.98718489
0.99592251
1.0235206
1.0646931
1.0018797
1.007517
1.0069463
1.006849
1.0017399
0.99953707
0.99803019
0.99935755
1.0068942
1.005363
1.0032862
0.99975419
1.0062047
1.0143497
1.0115071
1.004486
1.0025862
1.0079741
1.013996
1.0032429
0.98861529
0.99467828
1.0070904
1.004149
0.99982757
1.0103785
1.0186292
1.009998
1.0008502
1.0066064
1.0137253
1.0084452
1.0000166
0.9890244
0.9755906
0.98098019
1.0119915
1.0441334
1.0456768
1.0084671
0.96810974
0.96516109
1.0028994
1.0575901
1.1010094
1.1150203
1.1040035
1.0839291
1.0641601
1.0412091
1.0202163
1.0038587
0.99913049
1.0083467
1.0313827
1.0018298
1.0071536
1.0072248
1.006914
1.0013066
0.99954168
0.99961953
1.0010738
1.0058539
1.0059707
1.0043567
0.99963564
1.0080851
1.0147844
1.0104987
1.0059778
1.0034167
1.0068731
1.0127288
1.0037165
0.99017333
0.99537318
1.0060765
1.0034603
1.0004578
1.010296
1.0180265
1.0102519
1.0013931
1.0048161
1.0082242
1.0031372
0.99984169
0.99406741
0.98016946
0.98022756
1.0046424
1.0366322
1.0407752
1.0117368
0.97294027
0.96557052
0.99692729
1.0511886
1.0939013
1.1008589
1.0825263
1.0646779
1.056216
1.0486996
1.0381686
1.0277899
1.0174003
1.0135738
1.0226325
1.0016833
1.006796
1.0078296
1.0069288
1.0010483
0.99945839
1.0009823
1.0027092
1.0052634
1.0070307
1.0050452
1.00079
1.0100988
1.014427
1.0091895
1.0087789
1.0066201
1.0056762
1.009087
1.0034336
0.99419928
0.99884873
1.0053203
1.0002381
0.9977933
1.0078929
1.0163355
1.010779
1.0032444
1.0053719
1.0054673
0.99907827
0.99915441
0.99887081
0.98718764
0.9824742
1.0001507
1.0276997
1.0329483
1.0132522
0.98061801
0.97056108
0.99411618
1.0429183
1.0840639
1.0888624
1.0647058
1.0442045
1.0390251
1.0442607
1.0476246
1.0459057
1.039063
1.0315594
1.0299718
1.0015522
1.0065615
1.0085374
1.0068947
1.0010515
0.99939476
1.0015552
1.0038291
1.0054044
1.0080812
1.0045078
1.0020331
1.011938
1.0137067
1.0072788
1.011169
1.010594
1.0054564
1.0045101
1.0027606
0.99851247
1.0034407
1.0060619
0.99677587
0.99325034
1.003803
1.0136578
1.0108925
1.0057501
1.0081196
1.0055147
0.99698454
0.99829583
1.0022816
0.99507492
0.98727413
0.99796379
1.0186415
1.0236779
1.0117703
0.98822073
0.97843061
0.99535452
1.0357294
1.0727201
1.0781533
1.0526443
1.0277433
1.0203106
1.0315303
1.0469587
1.0571222
1.0566194
1.0495176
1.0417637
1.001466
1.0064448
1.0090454
1.0067854
1.0012512
0.99935014
1.0012884
1.0042268
1.0058058
1.0088387
1.0029232
1.0026302
1.0132814
1.0128375
1.0052626
1.0123756
1.0147593
1.0059563
1.0006587
1.0010374
1.0021962
1.0082524
1.0079691
0.99447117
0.98898
0.99944176
1.0105864
1.0105169
1.0085418
1.0119718
1.0078766
0.99708936
0.99742432
1.003858
1.001998
0.99378288
0.99810769
1.0104262
1.013672
1.0074656
0.99523296
0.98724379
0.99984197
1.0313013
1.0626177
1.0677496
1.0440625
1.0164594
1.0060411
1.0176781
1.038553
1.0577486
1.0659504
1.0605427
1.0516089
1.0014697
1.006503
1.0092327
1.0066324
1.0015626
0.99933502
1.0003827
1.0040462
1.0064815
1.0093401
1.0011652
1.0024779
1.0140557
1.0119981
1.0036123
1.0125079
1.0181594
1.0069002
0.99832716
0.99891733
1.0040808
1.0120748
1.0101258
0.99379951
0.98640789
0.99591508
1.0076052
1.010015
1.0107786
1.0159492
1.0116802
0.99894923
0.99681298
1.0037497
1.0069628
1.000844
1.0004354
1.0042907
1.0034031
1.0013617
1.0000377
0.9973509
1.0067754
1.0311292
1.0551172
1.058163
1.0372148
1.0097404
0.99738804
1.0060237
1.0277485
1.0500964
1.0670857
1.0677572
1.0593119
1.0015368
1.0066153
1.0091488
1.0064671
1.001854
0.99935429
0.99932609
1.0034797
1.0073006
1.00965
0.999693
1.001885
1.014063
1.0113579
1.0027858
1.0119727
1.019933
1.0079896
0.99754783
0.99715569
1.0038585
1.0140888
1.0115584
0.99437675
0.98569987
0.99381297
1.0053354
1.0093257
1.0122198
1.0192614
1.0159584
1.0018045
0.99642473
1.0020088
1.0093359
1.0073415
1.0045448
1.0006211
0.99389216
0.99328244
1.0013659
1.0075976
1.0163446
1.0360985
1.0524644
1.0504836
1.0303429
1.0057436
0.99320047
0.99789116
1.0168301
1.0411846
1.0620163
1.0720696
1.0677944
1.0016567
1.0067532
1.0088897
1.0063292
1.002048
0.99941419
0.99843628
1.0028222
1.0079923
1.0095227
0.99885396
1.0012814
1.0133619
1.0110889
1.0028443
1.0113229
1.0197884
1.0087856
0.99803603
0.99645377
1.0026728
1.0136003
1.0117749
0.99545128
0.98639781
0.99321589
1.0040723
1.0085753
1.0126987
1.0214423
1.019719
1.0049977
0.99599101
0.998835
1.0089267
1.0124972
1.0093137
0.99917993
0.98598182
0.98423288
0.99931149
1.0158446
1.02812
1.0442102
1.0549113
1.0464577
1.0238774
1.0026916
0.99213258
0.99534765
1.01051
1.0326805
1.0555384
1.0718756
1.0764783
1.0017533
1.0068875
1.0085447
1.0062599
1.0020911
0.99941975
0.99786635
1.002104
1.0083373
1.0089249
0.99886152
1.0011339
1.0120175
1.0110082
1.0039347
1.0108717
1.0179605
1.0087396
0.99966883
0.9971373
1.0010959
1.0113175
1.0108305
0.996487
0.98775596
0.99386806
1.003562
1.007963
1.0123286
1.0223525
1.0225396
1.0079723
0.99538649
0.99484503
1.00608
1.0156224
1.0140224
0.99966795
0.9801485
0.97503644
0.99392606
1.0210265
1.0408805
1.0561013
1.0617302
1.0465642
1.0191266
0.99933346
0.99265333
0.99720145
1.0094142
1.0277148
1.0496393
1.0688138
1.0808169
1.0018205
1.0070165
1.0082157
1.0062927
1.0019495
0.9993294
0.9976575
1.001469
1.0083633
1.0079276
0.99955236
1.0015048
1.010238
1.0109792
1.0058646
1.0109728
1.0148841
1.008003
1.0019489
0.99919818
0.99989135
1.0080458
1.0088137
0.99723213
0.98936007
0.99512597
1.0036365
1.0075729
1.0115467
1.0222644
1.0242599
1.0105812
0.99490974
0.99075484
1.0015591
1.0166905
1.0182184
1.0020106
0.97669173
0.96664636
0.98644844
1.0221096
1.0520236
1.0696481
1.072244
1.05087
1.0176909
0.99621367
0.99321983
1.0006911
1.0123959
1.0280015
1.0471726
1.0667218
1.0815579
1.0018703
1.007126
1.0079596
1.0063908
1.0016983
0.99919273
0.99782336
1.0009947
1.0080684
1.0068104
1.0007535
1.0024427
1.0084518
1.01089
1.0084376
1.0115323
1.0114811
1.0066637
1.0043804
1.0021023
0.99960145
1.0048387
1.0062138
0.99756408
0.9911378
0.99670185
1.0042925
1.007505
1.0105839
1.0214403
1.0252176
1.012824
0.99477823
0.9870794
0.99649161
1.0156389
1.0215878
1.0056106
0.97579248
0.96031078
0.9776712
1.0186843
1.0594361
1.0833126
1.085568
1.0594631
1.0196847
0.99491812
0.99357214
1.0029387
1.0163081
1.0314171
1.0484761
1.0664695
1.0819239
1.0018814
1.0072013
1.0077557
1.0065322
1.0014237
0.99905468
0.9982784
1.000768
1.0076449
1.0057614
1.0023319
1.0038756
1.0070187
1.0107479
1.0113535
1.0124537
1.0083506
1.0047787
1.0068595
1.0055142
1.0001448
1.0023142
1.0036792
0.99740994
0.99291993
0.99845362
1.0054682
1.0077697
1.0095986
1.020272
1.025561
1.0146969
0.99523102
0.98423827
0.99142067
1.0130174
1.0240508
1.0097038
0.97715151
0.9566772
0.96944964
1.0110035
1.0616715
1.094638
1.0990898
1.0705399
1.0262487
0.99798521
0.9938642
1.0032642
1.0181121
1.034292
1.0512054
1.0680891
1.082621
1.0018856
1.0072513
1.0076104
1.0066914
1.0012074
0.99898059
0.99888376
1.0008161
1.0073782
1.004967
1.0039749
1.0055372
1.0060715
1.0106293
1.0142079
1.0136655
1.0060643
1.0028154
1.0092247
1.009128
1.0012753
1.0007961
1.0016011
0.99713975
0.99450251
1.0003328
1.0068722
1.0083514
1.008869
1.0189902
1.0255403
1.0162149
0.99603288
0.98231035
0.98744179
1.0096279
1.0253534
1.0134698
0.97985743
0.95502405
0.96229667
1.0008955
1.0579471
1.101414
1.1090044
1.0812047
1.0364999
1.0047425
0.9955132
1.0020212
1.0161475
1.0347988
1.0532517
1.0698281
1.0831406
1.0018905
1.0073062
1.0075562
1.0068892
1.001159
0.99906313
0.99961128
1.0011061
1.007431
1.004535
1.0054528
1.0071948
1.0055859
1.0104887
1.0165685
1.0150541
1.0048156
1.0011213
1.0110132
1.0125505
1.0028842
1.0003096
1.0001965
0.99703299
0.9956826
1.0021794
1.0085294
1.009465
1.0084919
1.0178491
1.0252177
1.017205
0.99695728
0.9810074
0.98416211
1.0057062
1.0255952
1.0163604
0.98314728
0.95461108
0.95633346
0.99008356
1.0509589
1.10354
1.1149155
1.088894
1.0452658
1.0112278
0.99630921
0.99916791
1.012201
1.0317664
1.051468
1.0690104
1.0822127
1.0020663
1.0074995
1.0077449
1.0072376
1.0013977
0.99942434
1.0004891
1.00168
1.0078774
1.0045571
1.0066038
1.0086046
1.0054804
1.0102833
1.0181449
1.0162769
1.0043463
0.99984114
1.0118116
1.0152181
1.0046443
1.0005983
0.99949739
0.99697083
0.99617258
1.003411
1.0098638
1.0108201
1.0086177
1.0168079
1.0248779
1.0181161
0.99803214
0.97999618
0.9800646
1.0007428
1.024654
1.0195445
0.98675226
0.95482849
0.94787127
0.97740891
1.0380681
1.1000463
1.1197001
1.0958349
1.0514283
1.0131948
0.99302094
0.98907999
0.99943751
1.0199889
1.0417806
1.0598827
1.0724343
1.0025422
1.0079599
1.0082287
1.0077279
1.0018086
0.99984774
1.0012381
1.0022193
1.0084229
1.004885
1.0072482
1.0094516
1.0056453
1.00998
1.0186137
1.0171786
1.0045737
0.99932881
1.011517
1.0163479
1.0061757
1.0012923
0.9996757
0.99713503
0.99607357
1.0036323
1.0099641
1.0117659
1.009141
1.0160399
1.0243296
1.0189166
1.0003889
0.98142563
0.97864955
0.99594355
1.0205519
1.0202257
0.99196173
0.95912776
0.94566232
0.96610752
1.0197966
1.0833351
1.1110966
1.0959318
1.0571742
1.0191647
0.99436254
0.98555732
0.99051454
1.0067317
1.0268534
1.043501
1.0562887
1.0701041
1.0859958
1.0967763
1.0998869
1.1002246
1.0975645
1.0923963
1.0832801
1.0690295
1.0557638
1.0489563
1.0466355
1.0436511
1.0445344
1.0528243
1.0774665
1.1263155
1.1814883
1.2034361
1.1609844
1.0892755
1.0319011
1.009552
1.0359599
1.0943159
1.1747181
1.1893541
1.0924063
1.1082628
1.1179801
1.1169542
1.1111236
1.1008576
1.0857605
1.0669902
1.0503174
1.0428341
1.0450658
1.0523353
1.0638812
1.0819693
1.1076404
1.1474958
1.1966047
1.2274286
1.20942
1.1415322
1.0741302
1.0366422
1.0452147
1.084796
1.1326148
1.1575139
1.1191531
1.1145404
1.1267077
1.1295739
1.121185
1.1065403
1.0870897
1.0657464
1.0477883
1.0378752
1.0408121
1.0550431
1.07754
1.1086006
1.1456787
1.1877957
1.231856
1.2565434
1.244421
1.1852503
1.1095257
1.0581909
1.0551837
1.1032525
1.1572171
1.1789436
1.1379768
1.0638726
1.1119287
1.1156859
1.1100559
1.0965443
1.0785129
1.0590829
1.0418377
1.0309723
1.0321472
1.0483252
1.0788677
1.1227273
1.1771997
1.2340018
1.2819686
1.3100915
1.2980143
1.2359029
1.1526603
1.0789377
1.0496473
1.0817383
1.1656684
1.2289298
1.210801
1.1182811
1.042292
1.0702153
1.0647553
1.0572174
1.0451336
1.0316961
1.0196691
1.0123759
1.0137027
1.0284973
1.061605
1.1135042
1.1832614
1.2621357
1.331394
1.3676427
1.3632465
1.3082834
1.2224185
1.1333596
1.0742625
1.0661622
1.1241462
1.224265
1.2763755
1.2115565
1.0981365
1.0543962
1.0095541
0.99795584
0.99349172
0.98860466
0.98326002
0.98021772
0.98326874
0.99714869
1.0274558
1.0774669
1.1497332
1.2396791
1.3300267
1.3940266
1.4053321
1.3655153
1.2922203
1.2106461
1.1417361
1.1068114
1.1194438
1.1877812
1.2698444
1.282962
1.1836912
1.0835949
1.0925626
0.95672
0.94707693
0.94875642
0.95079984
0.95287735
0.95900156
0.97210295
0.99743908
1.0391598
1.0993855
1.1786734
1.2686626
1.347442
1.3874514
1.3694977
1.316072
1.2520456
1.1968967
1.1650462
1.1676909
1.2051403
1.2621765
1.2967445
1.2484952
1.1375109
1.083109
1.1428583
0.92490125
0.9251301
0.93544564
0.94555956
0.95645872
0.97278007
0.99641888
1.0299778
1.0748934
1.130977
1.1992205
1.2695076
1.3149486
1.3172706
1.2856809
1.2385834
1.1967872
1.1740317
1.1848039
1.2297224
1.2882321
1.3212248
1.2946549
1.2025894
1.1069805
1.1004012
1.1906699
0.9259042
0.93471728
0.95790919
0.97841192
1.0007643
1.0258104
1.0543878
1.0855792
1.1191073
1.1606525
1.2109972
1.2512512
1.2629453
1.2450379
1.211992
1.1755607
1.15103
1.1560686
1.1989577
1.2674418
1.3232935
1.3307273
1.2652658
1.1738354
1.1186618
1.1438239
1.2290832
0.96897656
0.99048228
1.0221934
1.050502
1.0765123
1.101077
1.1205843
1.1355916
1.1519699
1.1795508
1.2102598
1.2264606
1.2197307
1.196411
1.1696371
1.1486783
1.1447674
1.1658233
1.2119071
1.2649674
1.2925167
1.2737431
1.2169287
1.1716277
1.1742526
1.2090093
1.2603537
1.0706312
1.098368
1.1265774
1.1473951
1.1615734
1.167924
1.1664919
1.1622812
1.1700326
1.188243
1.2047176
1.207961
1.201011
1.1889959
1.1778949
1.1792225
1.1909468
1.2091727
1.225537
1.2285231
1.2123831
1.1821554
1.1637432
1.1866741
1.2498905
1.2819946
1.2850898
1.1808575
1.2060716
1.2225775
1.2274681
1.2230203
1.2089548
1.1905815
1.1800577
1.1863857
1.2018695
1.2121736
1.2157099
1.2172597
1.22537
1.243812
1.2650213
1.2749729
1.2632504
1.2245959
1.1750659
1.1299282
1.1023084
1.1261575
1.2098706
1.3120437
1.3390784
1.2968424
1.2441359
1.2606233
1.2640018
1.257842
1.2421464
1.2191953
1.200041
1.197171
1.21274
1.2317032
1.2466472
1.2613096
1.2819893
1.3183618
1.3597
1.384907
1.3661039
1.2995265
1.2087325
1.1292208
1.0800374
1.0694552
1.1237762
1.2290906
1.3377223
1.3590708
1.2973014
1.2362344
1.2410884
1.2340567
1.224282
1.2092944
1.1931399
1.1902785
1.2086011
1.2433914
1.2801961
1.3152911
1.3525034
1.398717
1.4551235
1.4990389
1.4974871
1.4273387
1.3124992
1.1979849
1.1172854
1.0823535
1.0962223
1.1573962
1.2448509
1.3270702
1.3283389
1.2730157
1.155386
1.1548075
1.1548227
1.1504967
1.144277
1.1454338
1.1676018
1.213619
1.2734978
1.336892
1.4032414
1.4730287
1.5415009
1.5923069
1.6060437
1.5569677
1.4463576
1.3172828
1.2168974
1.1558875
1.1413601
1.1719596
1.2169263
1.2574842
1.2805386
1.2587798
1.2280956
1.0639901
1.0609578
1.0634729
1.0685566
1.0793197
1.1053783
1.1557201
1.2281358
1.3103293
1.3951667
1.4821401
1.5671319
1.6320156
1.6550567
1.6234444
1.5414245
1.4340124
1.3372019
1.2750662
1.2455136
1.253144
1.276619
1.2792919
1.2561562
1.2214809
1.1919982
1.1815011
1.0094626
1.0078261
1.014969
1.0264667
1.0521166
1.1029571
1.1805587
1.2717275
1.3624351
1.4477969
1.524488
1.5842629
1.6140805
1.6029443
1.5512301
1.4810095
1.4155399
1.3741729
1.3614597
1.3739523
1.3941417
1.3803289
1.3220505
1.2428049
1.1783758
1.1505901
1.1510867
0.99674335
1.0058995
1.0236429
1.0511743
1.0996856
1.1747362
1.2633268
1.3474328
1.416912
1.4684001
1.5046146
1.5195074
1.5103372
1.4795202
1.4432978
1.4130445
1.4023754
1.4195419
1.4617698
1.5093916
1.5186312
1.4519817
1.3402206
1.2309966
1.1660797
1.1413242
1.1470105
1.0322615
1.0504577
1.0885959
1.1458423
1.230051
1.3205576
1.3901802
1.4300495
1.4473781
1.4466375
1.4333729
1.4100918
1.3838084
1.362928
1.3542773
1.3664565
1.4047826
1.469916
1.5502073
1.6101954
1.5863114
1.4777735
1.3422358
1.23607
1.1812898
1.1636178
1.1737179
1.1223045
1.1571561
1.2221795
1.3192194
1.4181631
1.4804909
1.4964069
1.4807127
1.4450839
1.3985831
1.3563688
1.3225962
1.3032858
1.3000924
1.3176074
1.3593911
1.4308123
1.5214669
1.602432
1.6370347
1.5803324
1.4624267
1.3408093
1.2552421
1.2204777
1.2149218
1.2248071
1.2512948
1.3136118
1.4228676
1.5324899
1.5883384
1.5842132
1.5444885
1.4865293
1.4229969
1.3618415
1.3159666
1.2886734
1.2827644
1.2994367
1.3400954
1.402571
1.4821991
1.5553573
1.5974215
1.5866988
1.5208675
1.4209001
1.3402213
1.2867997
1.2777137
1.2888296
1.2917063
1.3727438
1.4786174
1.6215548
1.6951366
1.6840657
1.6294151
1.557576
1.4831073
1.4191463
1.3672196
1.3366941
1.3251539
1.3346818
1.3648757
1.4183634
1.4817713
1.5333975
1.5536565
1.5367814
1.4885449
1.4322233
1.3756083
1.3371356
1.3317436
1.3512184
1.3792578
1.362837
1.4444461
1.5849067
1.7158846
1.7415655
1.7011257
1.635947
1.5655416
1.5000648
1.4558205
1.4271747
1.4173049
1.4272515
1.4570735
1.4978648
1.5402789
1.5636612
1.5528332
1.5088939
1.447284
1.3912433
1.3482863
1.3320724
1.3398791
1.3844335
1.4409585
1.4828266
1.4382964
1.432885
1.5755261
1.6737544
1.685277
1.6582262
1.6191386
1.5790767
1.5472071
1.5324921
1.5343202
1.5554178
1.5909025
1.6320413
1.6613179
1.6564208
1.6090438
1.5296667
1.4392318
1.3614589
1.3132008
1.2904616
1.3045311
1.3579266
1.4425317
1.5425464
1.5931639
1.5197662
1.3666564
1.4843662
1.5624129
1.5838863
1.586768
1.5879631
1.5931742
1.6075677
1.6360331
1.6791404
1.7365171
1.7938935
1.8262024
1.8103886
1.7350801
1.6163513
1.4884041
1.3782179
1.3039296
1.2684901
1.2647683
1.3024357
1.3851251
1.5027635
1.6270095
1.6828201
1.6030034
1.2961993
1.3845049
1.4535863
1.4919299
1.5233282
1.5596673
1.6041447
1.6651646
1.7456273
1.8361204
1.9292033
2.0007398
2.0037814
1.9237145
1.7759935
1.6079322
1.4584249
1.3473003
1.285279
1.2594631
1.2748782
1.329906
1.4189587
1.5415687
1.6635883
1.7232431
1.6745319
1.2714027
1.3406958
1.4047185
1.449474
1.497104
1.5554447
1.6282361
1.7256198
1.8407796
1.965232
2.0790308
2.141945
2.1095989
1.9754527
1.7872141
1.6034228
1.4559024
1.3601542
1.3029867
1.2902724
1.3125409
1.3673629
1.4492955
1.5486212
1.6481537
1.7109952
1.7193965
1.3128899
1.3754899
1.4351519
1.4769296
1.5298171
1.5940736
1.6781669
1.7862966
1.9086846
2.0327956
2.1465389
2.1892058
2.1308945
1.9768123
1.7871803
1.6164002
1.4919614
1.4039341
1.361076
1.3531863
1.3707884
1.4110468
1.4593145
1.5180307
1.5984134
1.6711673
1.7381863
1.430264
1.4872403
1.5373088
1.5722923
1.6152526
1.6695595
1.7422677
1.8346187
1.9400899
2.0437732
2.1238831
2.1447443
2.0829422
1.950607
1.7887795
1.650358
1.5525989
1.4875986
1.444733
1.4305391
1.4310375
1.4396631
1.4507146
1.4807777
1.5412654
1.6340795
1.7448356
1.5996995
1.6443574
1.6698704
1.694478
1.7216704
1.7572666
1.8051357
1.8669915
1.9374047
2.0073554
2.0620865
2.070674
2.0223478
1.9137843
1.8023494
1.7091522
1.6403007
1.5875837
1.5460355
1.514829
1.4839686
1.459861
1.4426661
1.4483956
1.5045104
1.6110049
1.7459513
1.7890784
1.8106512
1.815692
1.8157541
1.8168043
1.8251813
1.8475156
1.881693
1.9221283
1.9645922
1.998122
2.0065916
1.9762497
1.9098784
1.8314978
1.7642924
1.7176954
1.6824614
1.6449756
1.5972129
1.5361632
1.4822139
1.4497438
1.4468417
1.4953706
1.6075956
1.7410275
1.9594038
1.9625267
1.9462347
1.9243991
1.9039686
1.8902489
1.8874057
1.8968193
1.915359
1.9395146
1.9632584
1.9757933
1.9635197
1.9209861
1.8611468
1.8083241
1.7729332
1.7508914
1.7233273
1.6742296
1.6045553
1.5318585
1.4867752
1.4803585
1.5222959
1.6196773
1.7315954
2.1252047
2.1102372
2.0721398
2.0291819
1.9874911
1.9532008
1.9320825
1.9240684
1.9275094
1.940289
1.9581981
1.9723332
1.9687804
1.9373091
1.8854478
1.8360748
1.7995761
1.7794471
1.7667708
1.7377431
1.6868759
1.6171766
1.5642793
1.5504637
1.5823771
1.6523275
1.7319626
2.2769288
2.244664
2.1877673
2.1297851
2.0754602
2.0281165
1.9936434
1.9716564
1.9644276
1.9677729
1.9795434
1.9901891
1.9866038
1.9553028
1.8990958
1.8407707
1.7968286
1.7716575
1.7674669
1.7725545
1.7683932
1.7376287
1.6924618
1.6677349
1.67909
1.7190216
1.7646431
2.3465193
2.3030972
2.242947
2.1874208
2.1366547
2.0926328
2.06052
2.039146
2.0295001
2.0259424
2.0268251
2.0246791
2.0082699
1.968606
1.9020614
1.8290336
1.7698469
1.7324518
1.7279272
1.75631
1.8008806
1.8396312
1.8547729
1.8470968
1.8349256
1.8378816
1.8481464
2.2898864
2.2504592
2.2047548
2.1703064
2.145108
2.1279891
2.1177638
2.1135465
2.1128335
2.1094571
2.099656
2.0797586
2.0438445
1.9844348
1.9037802
1.8129026
1.7329486
1.6813053
1.6603751
1.681544
1.7506198
1.8482229
1.9619309
2.049153
2.0661696
2.0359746
1.9973016
2.1760389
2.1452969
2.1196288
2.1113553
2.1170579
2.1329502
2.1557791
2.1810203
2.2013772
2.2109782
2.2032809
2.1733793
2.1140214
2.030045
1.9271411
1.8197449
1.7215604
1.6466541
1.6082443
1.6048041
1.6547132
1.7666366
1.9388749
2.1425041
2.2952195
2.3151336
2.2260771
2.0876633
2.0835727
2.0822614
2.0941499
2.1198658
2.1580324
2.2053469
2.2578534
2.3058911
2.3368455
2.3408134
2.3105891
2.24108
2.1368073
2.0119145
1.8835937
1.7646906
1.667178
1.6032476
1.5775858
1.5920658
1.6751007
1.8565686
2.1159922
2.4045824
2.5769578
2.5168516
2.2104953
2.2498418
2.2741274
2.2957117
2.3195688
2.3470031
2.3801203
2.4189875
2.4605936
2.4940085
2.5037197
2.4788028
2.4156021
2.3172876
2.1896171
2.0491939
1.9120538
1.7961065
1.7087858
1.651943
1.6430076
1.6818206
1.798629
2.0490838
2.3908085
2.7049175
2.7578
2.9815912
3.1188828
3.129098
3.0746146
2.9800727
2.8784425
2.7878635
2.7182554
2.6683409
2.6349465
2.6066504
2.5753948
2.5419582
2.5043615
2.45189
2.3686786
2.2588567
2.1402687
2.0236064
1.9242222
1.8619084
1.8428825
1.8915419
2.043166
2.343817
2.6798721
2.8396061
4.6326353
4.6234765
4.3730497
4.0082928
3.6250539
3.2861605
3.0107346
2.8087181
2.6544122
2.5611041
2.5181094
2.5139289
2.5348501
2.5785501
2.6461348
2.7308565
2.7904675
2.7767939
2.6777976
2.5006449
2.3173035
2.194405
2.1444023
2.185363
2.3409517
2.5686852
2.7316775
4.689495
4.470353
4.1748424
3.8538699
3.536451
3.2451312
2.9928992
2.797214
2.6509572
2.5674846
2.5202367
2.5312294
2.5802982
2.6876159
2.8555609
3.0797595
3.3031806
3.4364029
3.4060242
3.158619
2.8527017
2.5910821
2.4173316
2.332836
2.3361687
2.4487133
2.5534589
3.6727383
3.4728089
3.3307154
3.2141184
3.107846
3.0073115
2.9140682
2.8321195
2.7674762
2.7265496
2.7171265
2.7461954
2.8208977
2.9465103
3.1190469
3.3243307
3.5177507
3.6218598
3.5575834
3.3336578
3.0417707
2.7623509
2.5375329
2.3955039
2.3436406
2.3836856
2.421463
3.1141174
2.9274464
2.8181509
2.7576822
2.7265824
2.7173328
2.7246295
2.7455964
2.7784809
2.8260293
2.8887534
2.967671
3.0610473
3.1658454
3.2745268
3.3705198
3.4226687
3.3960009
3.2810549
3.0990491
2.8856142
2.6823674
2.5182715
2.4159727
2.3890961
2.4062003
2.3783631
2.923634
2.7182523
2.5740983
2.4942423
2.4605202
2.4626143
2.4959364
2.5597932
2.6526117
2.7686996
2.8981432
3.0252343
3.1314646
3.2037331
3.232552
3.2135269
3.1445184
3.0372656
2.9096985
2.7717397
2.6357834
2.5140997
2.4288426
2.3965074
2.4014474
2.430219
2.3963482
2.9253488
2.6870919
2.4925314
2.3735514
2.3127084
2.2980747
2.3270608
2.3981055
2.5084389
2.649252
2.8079737
2.9598648
3.0761231
3.1241899
3.0960492
3.0041741
2.8748117
2.741809
2.6263722
2.5309274
2.4516833
2.3860485
2.3459751
2.3471719
2.3750379
2.418241
2.4333773
3.0048179
2.7388789
2.498381
2.3472432
2.2621891
2.2311528
2.250872
2.3177775
2.4201067
2.5485724
2.6916341
2.8306215
2.9355304
2.971794
2.925402
2.8178533
2.6852521
2.5590194
2.4650846
2.4049034
2.3644185
2.3398471
2.3311782
2.3511609
2.3924472
2.4341605
2.4884255
3.0921271
2.7934179
2.5289804
2.369754
2.2836054
2.252359
2.2645713
2.3064748
2.369987
2.4528015
2.5443056
2.6334301
2.7010816
2.7316537
2.7151179
2.6578773
2.5733641
2.4832798
2.4107548
2.3676258
2.3511382
2.3537083
2.3733354
2.4185903
2.4817816
2.5413795
2.6239415
3.1069296
2.7866196
2.541198
2.4071895
2.3377709
2.3043039
2.2972331
2.3066233
2.3206159
2.3420747
2.3687062
2.3923199
2.4094197
2.423866
2.4376963
2.4493973
2.4543752
2.4422518
2.4185107
2.3976909
2.3986616
2.4192641
2.4557612
2.5231086
2.6120104
2.6856555
2.7818745
3.0078694
2.7386542
2.5733117
2.4786759
2.4114705
2.3644277
2.3215541
2.2834615
2.2491814
2.2184244
2.1889626
2.1616752
2.1413996
2.1362647
2.1524093
2.1909967
2.2498732
2.3170463
2.3783207
2.431365
2.4802557
2.5333171
2.5927832
2.6522798
2.7173873
2.7580076
2.8251657
2.8648749
2.7444179
2.6652784
2.5929081
2.5169871
2.4377609
2.3578193
2.2775419
2.2010611
2.1307244
2.0679888
2.0147866
1.973501
1.9500464
1.9496554
1.9758846
2.0299961
2.1148902
2.2338397
2.3732431
2.5200843
2.6617145
2.7725923
2.8300293
2.8243056
2.7659757
2.7335805
2.7529954
2.7395895
2.7141671
2.6724598
2.6121635
2.5369144
2.4494002
2.3551958
2.2617859
2.1715343
2.0907165
2.0214645
1.9651277
1.9241156
1.902463
1.9036931
1.9331772
1.9985295
2.1103254
2.2757281
2.4962666
2.7409829
2.9556014
3.042215
2.9804322
2.8045052
2.6571774
2.6016014
2.6704765
2.7153998
2.7310091
2.7243122
2.6958527
2.6477147
2.5831141
2.5059951
2.4216565
2.3357849
2.2553688
2.1844469
2.1251512