/*--------------------------------*- C++ -*----------------------------------*\
| =========                 |                                                 |
| \\      /  F ield         | OpenFOAM: The Open Source CFD Toolbox           |
|  \\    /   O peration     | Version:  2406                                  |
|   \\  /    A nd           | Website:  www.openfoam.com                      |
|    \\/     M anipulation  |                                                 |
\*---------------------------------------------------------------------------*/
FoamFile
{
    version     2.0;
    format      ascii;
    arch        "LSB;label=32;scalar=64";
    class       volScalarField;
    location    "19";
    object      rho;
}
// * * * * * * * * * * * * * * * * * * * * * * * * * * * * * * * * * * * * * //

dimensions      [1 -3 0 0 0 0 0];

internalField   nonuniform List<scalar> 
96472
(
1.0006042
0.99893086
0.99682185
0.99598774
0.99549023
0.99513661
0.99496223
0.9948553
0.99487251
0.99498914
0.99541195
0.99626054
0.99795392
1.001171
1.0064262
1.0131659
1.0180139
1.0162353
1.0108172
1.0062054
1.0037154
1.0030458
1.0025669
1.0026035
1.0028277
1.0026251
1.0024137
1.002182
1.0016609
1.0010499
1.0004198
0.9997105
0.99885212
0.9980196
0.99728265
0.99665685
0.99621142
0.99579337
0.99538114
0.99502024
0.99471188
0.99434767
0.99399929
0.99382554
0.99331569
0.99305864
0.99296124
0.99274566
0.99235009
0.99222271
0.99199424
0.99192886
0.9915709
0.99121216
0.99112272
1.000613
0.99898043
0.99690597
0.99610713
0.99562635
0.99528612
0.9950995
0.9949757
0.99497541
0.99506965
0.99542755
0.99630959
0.99792623
1.0010467
1.0062677
1.0130929
1.0180971
1.0164253
1.0110658
1.0063386
1.0037462
1.0029052
1.0026571
1.0025434
1.0026298
1.0026393
1.0022178
1.0018805
1.0016235
1.0010693
1.0003021
0.99947723
0.99864665
0.99784671
0.99715915
0.99659212
0.99613094
0.99568361
0.99526342
0.99490328
0.99452825
0.99416578
0.99383979
0.99345642
0.99321428
0.99290938
0.99264602
0.99237243
0.99231577
0.99202646
0.99197986
0.99158861
0.99135454
0.99122693
0.99093646
1.000631
0.99904705
0.99699821
0.99622585
0.99577269
0.99543232
0.99524282
0.99509574
0.99505061
0.99513337
0.99545792
0.99630446
0.99792817
1.0009692
1.0060681
1.0129082
1.0182079
1.0166809
1.0112965
1.0064196
1.0037972
1.0028941
1.0025314
1.0025975
1.002583
1.0024901
1.0021859
1.0016233
1.0012766
1.0008743
1.0002278
0.99939528
0.9985067
0.99767821
0.99695905
0.99636811
0.99592381
0.99550749
0.99510259
0.99471849
0.99436994
0.99400724
0.99360208
0.99331256
0.99295797
0.99265553
0.99239757
0.99225239
0.99192485
0.99192377
0.99156179
0.99141594
0.99137325
0.99088692
0.99074086
1.000651
0.99912469
0.99709314
0.99635142
0.9959177
0.99557446
0.99537402
0.99520415
0.99512875
0.99516855
0.99549616
0.9962697
0.9978676
1.0008993
1.0059276
1.0126914
1.0182134
1.0169814
1.0115869
1.006601
1.003796
1.0029837
1.0024722
1.0024703
1.0025643
1.0023444
1.0020711
1.0016953
1.0011957
1.0006105
1.0000155
0.99933674
0.99852827
0.99767778
0.99695912
0.99633614
0.99584128
0.99540192
0.9949928
0.9946146
0.99423307
0.99384508
0.99344856
0.99310593
0.99274393
0.99243687
0.99221546
0.99190262
0.99183859
0.9915047
0.9914403
0.99130366
0.99080627
0.99085111
0.99061028
1.0006758
0.99920174
0.997187
0.99647868
0.99605675
0.99571775
0.99549071
0.99529584
0.99521483
0.99520694
0.99549484
0.99627635
0.99778332
1.0007568
1.0057687
1.0125423
1.0181853
1.0172162
1.0118612
1.006815
1.0038271
1.0029122
1.0025511
1.002417
1.002482
1.0023634
1.0018797
1.0014942
1.0011626
1.0005806
0.9998528
0.99909356
0.99829762
0.99754691
0.99686077
0.99628356
0.99579837
0.99533269
0.99490272
0.99449318
0.99409354
0.99368923
0.99331516
0.99287786
0.99260645
0.99225545
0.99195676
0.99179033
0.99147542
0.99150052
0.99111419
0.9909618
0.99084359
0.99071894
0.99027814
1.0007021
0.99927779
0.99728559
0.99660395
0.99619497
0.99585329
0.99560568
0.99538361
0.99528104
0.99525035
0.99548197
0.99626471
0.99774881
1.00061
1.0055231
1.0123292
1.0182157
1.0174502
1.0121011
1.0069409
1.0039211
1.0028484
1.0024805
1.0024347
1.0024259
1.0023343
1.0019174
1.0012816
1.0008737
1.0004577
0.99982745
0.9990614
0.99822317
0.99740469
0.99672183
0.99613944
0.99565922
0.99520483
0.99477758
0.99438394
0.9939876
0.99357334
0.99312821
0.99282195
0.99231132
0.99213413
0.99178336
0.99152743
0.99147039
0.99106319
0.99104904
0.99081094
0.99072905
0.9902211
0.99039065
1.0007328
0.99936155
0.9973852
0.99672293
0.99632224
0.99597461
0.99571738
0.99548126
0.9953344
0.99528765
0.99549281
0.99620943
0.99769691
1.0005157
1.0053156
1.012033
1.0181678
1.017761
1.0123961
1.0071331
1.0039567
1.0029284
1.0024377
1.0023877
1.0023977
1.0021608
1.0018633
1.0013754
1.0008183
1.000218
0.99965031
0.99901383
0.99827767
0.99748731
0.99673932
0.99612766
0.99560836
0.99512759
0.99468239
0.99430477
0.99387673
0.99346069
0.99303197
0.99257383
0.99232447
0.99186787
0.99159942
0.99147391
0.99105062
0.99110635
0.99069651
0.99074589
0.990212
0.99050673
0.98997051
1.0007742
0.99944942
0.99747852
0.99683737
0.99644751
0.99609106
0.99581528
0.9955623
0.99539225
0.99530714
0.99550305
0.99618163
0.99759051
1.0003736
1.0051401
1.0118037
1.0180334
1.0180168
1.0126986
1.0074273
1.0040071
1.0029594
1.0024775
1.0023373
1.0024115
1.0021926
1.0016945
1.0012516
1.0008486
1.0002298
0.9995213
0.99883157
0.99807068
0.99733561
0.99669694
0.99609414
0.99562485
0.99513208
0.9946802
0.99423024
0.99381903
0.99334747
0.99289651
0.99253439
0.99203437
0.99176218
0.99151994
0.9911323
0.99109531
0.99073371
0.99071899
0.99021666
0.99057778
0.98987179
0.98991764
1.0008178
0.9995244
0.99757686
0.99695533
0.99656408
0.99619971
0.99590843
0.99562568
0.9954575
0.99532993
0.99548983
0.99617475
0.99751841
1.0001898
1.0048789
1.0115689
1.0179483
1.0182276
1.0129631
1.0076293
1.0041328
1.0028674
1.0024794
1.0023077
1.0023209
1.0022387
1.0017684
1.0011059
1.0006231
1.0001653
0.9995345
0.99884496
0.99807257
0.99727658
0.99660254
0.99600937
0.99551807
0.99506222
0.99458564
0.99415221
0.99372909
0.99325513
0.99280389
0.99238277
0.99200739
0.99161918
0.99127707
0.99112597
0.99079044
0.99062807
0.99038268
0.99037525
0.99002446
0.98972638
0.99013909
1.000859
0.99960602
0.99766652
0.99706151
0.99667655
0.9963062
0.9959957
0.99569594
0.99550316
0.99537155
0.99548608
0.99612892
0.99747421
1.0000577
1.004604
1.0112266
1.0178394
1.0184932
1.0132793
1.0078188
1.0042277
1.0028918
1.0024209
1.0023345
1.0022951
1.0020671
1.0017594
1.0012066
1.0005875
0.99998235
0.99936493
0.99880441
0.99813174
0.99739257
0.99669075
0.9960521
0.99551976
0.99502975
0.99456069
0.99409166
0.99367395
0.99320148
0.99277263
0.99228914
0.99189584
0.99150272
0.9912274
0.990893
0.99068
0.99050951
0.99021115
0.99018974
0.98963071
0.99030147
0.98915274
1.0008846
0.99967624
0.99775436
0.99716621
0.99677868
0.99639804
0.99607887
0.99576617
0.995545
0.99538817
0.99548592
0.99607412
0.9973745
0.99993156
1.0044024
1.0109034
1.0176134
1.0187349
1.0136235
1.0081475
1.0042805
1.0029968
1.0024354
1.0022558
1.0023568
1.0020972
1.001612
1.0011527
1.0006731
1.0000558
0.99931075
0.9986611
0.99801121
0.99728573
0.99667548
0.99608644
0.99556614
0.99509722
0.99461101
0.99411517
0.99365684
0.99318088
0.99270119
0.99222856
0.99182153
0.99145947
0.9910332
0.99080056
0.99061134
0.99022821
0.99025908
0.98972518
0.99007633
0.98931924
0.98960187
1.0009134
0.99974868
0.99784278
0.99726737
0.99688135
0.99648894
0.99615421
0.99582196
0.99559289
0.99539329
0.99547538
0.9960515
0.99727556
0.99973951
1.0041486
1.0106411
1.0174126
1.0189017
1.0139141
1.008443
1.0044517
1.0029419
1.0024881
1.0022279
1.0022293
1.0021599
1.0016926
1.0010618
1.0005059
1.0000178
0.99936267
0.99871433
0.99803462
0.99729767
0.99662022
0.99604774
0.99552858
0.99506266
0.99458827
0.99409834
0.99362134
0.99315114
0.99266243
0.99218167
0.99177939
0.99134439
0.99103395
0.99070788
0.99031449
0.99039621
0.98979726
0.98990527
0.98958617
0.98938213
0.9895016
1.0009205
0.99980746
0.99792503
0.9973683
0.99697741
0.99657252
0.99622481
0.99586972
0.99562845
0.99541275
0.99544166
0.99601388
0.99720831
0.99956922
1.0038455
1.010284
1.0172313
1.0190884
1.0142495
1.0086429
1.0046154
1.0029308
1.0024098
1.0022653
1.0022021
1.0020188
1.0017122
1.0011784
1.0004851
0.99988939
0.9992397
0.99865246
0.99809166
0.99743799
0.99678701
0.99616188
0.99560523
0.99509914
0.99462237
0.99410646
0.99360392
0.99314557
0.99264086
0.99218325
0.99171902
0.99133549
0.99095374
0.99052608
0.99048
0.98991912
0.9899682
0.98973972
0.98928425
0.98965272
0.98888093
1.0009376
0.99987076
0.9980064
0.99746181
0.99707157
0.99665672
0.99628636
0.99591855
0.9956509
0.99542215
0.99542664
0.99595107
0.99712828
0.99942643
1.0035892
1.0098888
1.0169422
1.019272
1.0146344
1.0089588
1.0046949
1.0030546
1.0024161
1.0021833
1.0022587
1.0020221
1.0015679
1.0011617
1.0006106
0.99999042
0.99925946
0.998568
0.99799806
0.99739728
0.99678923
0.99622962
0.99570147
0.99521861
0.99472641
0.99420949
0.99366813
0.99317891
0.99266741
0.99219653
0.99172
0.99133545
0.99085128
0.99066928
0.99015122
0.99001693
0.98987095
0.98933766
0.98971371
0.98885633
0.98931882
1.0009296
0.99991781
0.99807833
0.99755582
0.99716632
0.99673289
0.99634557
0.99595922
0.99566753
0.99541354
0.99540552
0.99589985
0.99701634
0.99925905
1.0033434
1.0095666
1.0166272
1.0193736
1.0149578
1.0093422
1.0048827
1.0030573
1.0024638
1.002175
1.0021664
1.0020883
1.001627
1.0010909
1.0005191
0.99997179
0.99934442
0.99866021
0.99804798
0.99743301
0.9968052
0.99622716
0.99571045
0.9952386
0.99475397
0.99424369
0.99370103
0.99321031
0.99270132
0.99219308
0.99176968
0.99126223
0.99096047
0.99051976
0.99016489
0.99005077
0.98948535
0.9897089
0.98909615
0.9892486
0.98890976
1.0009432
0.99996531
0.99815744
0.99764719
0.99725776
0.99681039
0.99640298
0.99598627
0.99568305
0.9954007
0.99537201
0.99585135
0.99692828
0.99906006
1.003034
1.0092059
1.0163519
1.0194682
1.015293
1.0095825
1.0051176
1.0030445
1.0023678
1.0022059
1.0020858
1.0019777
1.0016726
1.0011875
1.0005311
0.99988403
0.99925792
0.99863302
0.9980909
0.99755409
0.99697913
0.99639428
0.99584459
0.99533473
0.9948387
0.99430199
0.9937697
0.99322795
0.992746
0.99225414
0.99176525
0.99133847
0.9909503
0.99046762
0.99032166
0.98974423
0.98974978
0.98942733
0.98906083
0.98939403
0.98849673
1.0009483
1.00001
0.99822238
0.99773283
0.99733951
0.99688228
0.99645297
0.99601019
0.99569307
0.99539361
0.9953218
0.99579185
0.99683901
0.99890872
1.0027395
1.0087719
1.0160097
1.0195507
1.0157128
1.0098944
1.0052697
1.0031484
1.0023579
1.0021324
1.002118
1.0019327
1.0015535
1.0011663
1.0006536
1.000013
0.99931173
0.99859848
0.9980263
0.99752924
0.99701889
0.99648778
0.99596997
0.99548773
0.99500474
0.99446742
0.99391815
0.99335025
0.99283475
0.99232454
0.99183617
0.99141191
0.99093456
0.99062328
0.99017164
0.98991556
0.98968363
0.98918385
0.98956259
0.98853577
0.98904877
1.0009668
1.0000575
0.99829389
0.99782308
0.99742809
0.99695705
0.99649787
0.99603878
0.99568461
0.99537577
0.99528799
0.99571495
0.99673973
0.9987381
1.0024796
1.0083809
1.0155981
1.0195766
1.0160572
1.0103141
1.0054544
1.0032165
1.0024221
1.0021096
1.0020878
1.0019815
1.0016004
1.0011047
1.0006038
1.0000336
0.99941511
0.99872634
0.99810004
0.99757151
0.99705773
0.99651459
0.99602542
0.99554888
0.99508938
0.99454796
0.99401514
0.99345977
0.99290465
0.99241774
0.99192357
0.99145155
0.99102507
0.99064121
0.99025137
0.98996454
0.9894801
0.98957793
0.98902676
0.98890416
0.98889142
1.0009828
1.0001005
0.99835235
0.99790036
0.997508
0.99701964
0.99654245
0.99605451
0.99568424
0.99534899
0.99524478
0.99565317
0.99662607
0.99855516
1.0021868
1.0080108
1.0152206
1.0195689
1.0163904
1.0106307
1.0057708
1.0032501
1.0023541
1.0021426
1.0019933
1.0018921
1.0016651
1.0012033
1.000628
0.99998809
0.9993649
0.99872992
0.99815184
0.99767419
0.99720128
0.99668397
0.99618824
0.99568646
0.99519461
0.99466573
0.99409024
0.99354877
0.99300287
0.99249758
0.99201861
0.99155575
0.99111818
0.99069472
0.99032604
0.98990223
0.98974707
0.98940766
0.9890018
0.98920834
0.98851489
1.0010042
1.0001456
0.99841706
0.99798223
0.9975782
0.99708135
0.99658134
0.99606296
0.99567693
0.99532016
0.99519409
0.99558732
0.99653442
0.99837686
1.0018772
1.0075724
1.0148244
1.019543
1.0167871
1.0109359
1.0060323
1.0033692
1.0023231
1.0020713
1.0020064
1.0018251
1.0015594
1.0011823
1.0007321
1.0001163
0.9994385
0.99873504
0.99812502
0.99765878
0.99723335
0.99680021
0.99632345
0.99587387
0.99537605
0.99486031
0.99429196
0.99372595
0.993163
0.9926269
0.9921515
0.99167906
0.99121697
0.99079527
0.99038271
0.99005423
0.98976833
0.98933223
0.98941868
0.98874209
0.98884515
1.0010265
1.0001854
0.99846933
0.99804964
0.99764208
0.99713728
0.9966142
0.99607637
0.99566772
0.99530352
0.99514156
0.99551975
0.99643714
0.99821703
1.0015959
1.0071347
1.0143557
1.0194666
1.0171506
1.0113721
1.0062915
1.0034903
1.0024095
1.0020241
1.0020162
1.0018793
1.0015695
1.0011339
1.0007081
1.0001784
0.99955895
0.99888016
0.99823643
0.99771833
0.99727413
0.99683533
0.99637658
0.99596043
0.99548881
0.99499633
0.99445401
0.99386324
0.99330272
0.9927897
0.99226463
0.99179568
0.99134615
0.99092681
0.99049402
0.99015139
0.98976496
0.98964753
0.98914443
0.98907638
0.98879106
1.0010467
1.0002338
0.99852012
0.99810989
0.99770106
0.99719121
0.99664009
0.9960958
0.99565518
0.99527383
0.99510191
0.9954511
0.99633997
0.99805028
1.0013247
1.0067367
1.0138872
1.0193563
1.017469
1.011769
1.0066732
1.003593
1.0024329
1.0020448
1.0019426
1.0018288
1.0016239
1.0012344
1.000753
1.0001717
0.99955531
0.99891442
0.99831782
0.99781185
0.99739958
0.99696445
0.99653575
0.9961043
0.99563777
0.99512888
0.99456914
0.99398875
0.99344081
0.99289434
0.9924093
0.99194196
0.99150295
0.99105145
0.99066437
0.99020532
0.9899984
0.98956576
0.9893067
0.98927086
0.98865559
1.00108
1.0002582
0.99855554
0.99816401
0.99776268
0.99723556
0.99667736
0.99609756
0.99565533
0.99526085
0.99506708
0.99539981
0.99625176
0.997889
1.0010352
1.0063217
1.0134346
1.0192236
1.0178359
1.0121291
1.0070728
1.0037672
1.0024404
1.0020291
1.0019342
1.0017801
1.0015618
1.0012468
1.0008486
1.0002978
0.99966006
0.99896852
0.9983472
0.99783809
0.99744697
0.99706487
0.99669295
0.99628962
0.99585044
0.99534496
0.99478057
0.99421055
0.9936253
0.99310028
0.99260223
0.99212678
0.99166309
0.99120863
0.9908324
0.99039039
0.99011408
0.98957878
0.98971892
0.98896531
0.98897725
1.001093
1.0003251
0.99859948
0.99822137
0.99779962
0.99729707
0.99672591
0.99612975
0.99567058
0.99526612
0.99503588
0.99534877
0.99617505
0.99775393
1.0007816
1.005911
1.0129869
1.0190981
1.0182309
1.0125982
1.0074667
1.0039869
1.0025383
1.0019997
1.0019465
1.0018448
1.0015726
1.0012288
1.0008514
1.0003929
0.99982848
0.9991636
0.99852789
0.99797781
0.99754248
0.99716128
0.99679282
0.99641808
0.99601369
0.99553444
0.99499634
0.99442365
0.99384335
0.99331805
0.99280571
0.99233145
0.99182232
0.99141121
0.9909943
0.99059639
0.99020856
0.9899364
0.98960341
0.98921558
0.98923085
1.0012179
1.0003758
0.99866751
0.99827213
0.99788343
0.99739164
0.9968432
0.99625302
0.99576047
0.99532872
0.99506699
0.99533627
0.99612971
0.99765798
1.0005979
1.0056099
1.012619
1.0190739
1.0187055
1.0132237
1.0080366
1.0042844
1.0026885
1.0020696
1.001934
1.0018575
1.0016472
1.0013609
1.0009722
1.0005166
0.99998091
0.99936794
0.99877995
0.99824616
0.99781865
0.99742661
0.99706338
0.99671099
0.99632845
0.99585005
0.99531467
0.99473028
0.99413718
0.99359077
0.99308074
0.99257544
0.99208635
0.99167782
0.99122891
0.99082998
0.99044468
0.99014706
0.98967155
0.98961595
0.98922321
1.0014482
1.0007019
0.99878635
0.99837302
0.99798629
0.99758876
0.99709509
0.99653795
0.99602121
0.99556377
0.99523215
0.9954239
0.99618337
0.99766581
1.0005017
1.0054024
1.0124115
1.0192849
1.0194613
1.0140529
1.0087435
1.0046729
1.0028069
1.002134
1.0019489
1.0018469
1.0016483
1.0014401
1.0011204
1.0007396
1.0002446
0.99964649
0.99906317
0.99855311
0.99815037
0.99780626
0.99742947
0.99713515
0.99676284
0.99633649
0.99582262
0.99520371
0.99461672
0.99408163
0.99356575
0.99302915
0.99246929
0.99202121
0.99158637
0.9911798
0.99072145
0.99035393
0.98996908
0.98983672
0.98929099
1.0017067
1.0010134
0.99921786
0.99880611
0.99835392
0.99793653
0.99750173
0.99680939
0.99642708
0.99603713
0.99563375
0.99569731
0.996398
0.99779285
1.0004046
1.0051016
1.0121287
1.0198591
1.020616
1.0149876
1.0091289
1.0047542
1.0027895
1.0020826
1.0019348
1.0018223
1.0015915
1.0013722
1.0011116
1.0008393
1.0004502
0.99991535
0.99936364
0.99887327
0.99846604
0.99810232
0.9978129
0.9975195
0.99721092
0.99681043
0.99633305
0.99577274
0.99517785
0.99462442
0.99414588
0.99362751
0.99311893
0.99256761
0.99211152
0.99164233
0.99117356
0.99084014
0.99030326
0.99017633
0.98953819
0.98934742
0.98909866
0.98890977
0.98870005
0.98865564
0.98856814
0.9884304
0.9884729
0.98852474
0.98844937
0.98855264
0.98876723
0.98877861
0.98881548
0.98909711
0.98908362
0.98924442
0.98951601
0.98943191
0.98973366
0.98987264
0.98992121
0.99014643
0.99021762
0.99050517
0.99059607
0.99075698
0.98880167
0.98872663
0.98859066
0.98841537
0.98822218
0.98821511
0.98820051
0.98815043
0.98822642
0.98827232
0.98832216
0.98839048
0.98852465
0.98865307
0.98872328
0.98887871
0.98896519
0.98909299
0.98925295
0.98933148
0.98947699
0.98962968
0.9896939
0.98988209
0.98995806
0.99026919
0.99032746
0.98849099
0.98848363
0.98817431
0.98807251
0.98803393
0.98786098
0.98793273
0.9879354
0.98794222
0.98807716
0.98805642
0.9882133
0.98826225
0.98837071
0.98850789
0.9885544
0.98874184
0.98878615
0.98894388
0.98899076
0.98913872
0.98916064
0.98939668
0.9894403
0.98963936
0.98974459
0.98999014
0.98825394
0.98803384
0.98800167
0.98772436
0.98770024
0.98775455
0.98760322
0.98779086
0.98773913
0.98776485
0.98796665
0.98787544
0.98810126
0.98808213
0.98824933
0.98834201
0.98837557
0.98854414
0.98855963
0.98869305
0.98869657
0.9889371
0.98886886
0.98916837
0.98918707
0.98933439
0.98959918
0.98790214
0.98774288
0.98765619
0.98765833
0.9874388
0.98752194
0.987589
0.9874175
0.98765774
0.98759621
0.98766488
0.98782522
0.98771405
0.98798781
0.98790266
0.9881159
0.98810419
0.98816793
0.98827112
0.9882778
0.98845053
0.98844107
0.98868423
0.98867063
0.98879752
0.98901707
0.9889408
0.98765082
0.98760636
0.98754745
0.98747094
0.98740046
0.98733583
0.98738353
0.98740708
0.98741076
0.98747381
0.98748701
0.9875896
0.9875951
0.98765296
0.98778355
0.98771888
0.98788463
0.98780505
0.98795864
0.9879523
0.98811583
0.98811396
0.98829145
0.98829022
0.98849815
0.98845086
0.98871104
0.98749224
0.98763516
0.98754501
0.98728728
0.98740901
0.98724884
0.98719452
0.98741019
0.98715777
0.98737929
0.98736748
0.98726457
0.98757437
0.98730262
0.98760571
0.98743913
0.9875516
0.98761937
0.98756901
0.98774264
0.98762892
0.98798426
0.987734
0.98813669
0.98792687
0.98824367
0.98815284
0.98769721
0.98759446
0.98748716
0.98734276
0.98708197
0.98723777
0.98715608
0.98702709
0.98726248
0.98707539
0.98718113
0.98726254
0.9870785
0.98740417
0.98705546
0.98743059
0.9871527
0.98730014
0.98745612
0.98727597
0.98753796
0.98737234
0.98769487
0.98753807
0.98784107
0.98767452
0.98789122
0.98759598
0.98743624
0.9872165
0.98722635
0.98700658
0.98701267
0.98705864
0.98698362
0.98699492
0.98702732
0.98701481
0.98700072
0.98701848
0.98697963
0.98702551
0.98697296
0.98703054
0.98700495
0.98698743
0.98717059
0.98706083
0.98723323
0.98726767
0.98722403
0.98744052
0.98737685
0.98748167
0.98748203
0.987247
0.98717389
0.98693448
0.98702921
0.98695207
0.98682271
0.9870111
0.98684919
0.98684955
0.98698384
0.98676461
0.98691194
0.98670914
0.98686145
0.98672705
0.98679072
0.98686289
0.9866083
0.98703688
0.98668571
0.98700999
0.98687977
0.98709439
0.98682383
0.98728126
0.98695514
0.98743001
0.98741735
0.98712686
0.98689231
0.98705418
0.98680068
0.98677086
0.98696001
0.98667467
0.98679537
0.98679595
0.98659852
0.98680567
0.98654736
0.986631
0.98662396
0.98654756
0.98669843
0.98653184
0.98662952
0.98659103
0.98670645
0.98658954
0.9867702
0.98670212
0.98676789
0.98678515
0.98733986
0.98711344
0.98711475
0.98693928
0.98678474
0.98690144
0.98664822
0.98670673
0.98680714
0.98644706
0.9867018
0.98651619
0.98640017
0.98667331
0.9862664
0.98660779
0.98628329
0.98645475
0.98643941
0.98631701
0.98646202
0.98632694
0.98653431
0.98623496
0.98670825
0.98629162
0.98662078
0.98719875
0.9872667
0.98715216
0.98688231
0.98671742
0.98673535
0.98656035
0.98652448
0.98657684
0.98638746
0.9863918
0.98640031
0.98617998
0.98638596
0.98619516
0.98618837
0.98628258
0.98606945
0.98623095
0.98611709
0.98626133
0.98594114
0.98637197
0.98598431
0.98624267
0.98610851
0.98624347
0.98722936
0.98715835
0.9869368
0.98681723
0.986533
0.9865212
0.98637822
0.98634622
0.98636972
0.98619464
0.98621912
0.98621538
0.98601423
0.98611444
0.98605996
0.98591799
0.98613553
0.98596425
0.98590218
0.98597381
0.98601863
0.98581067
0.98584344
0.98603106
0.9857334
0.98589587
0.98591246
0.98723977
0.98692509
0.98666351
0.98657934
0.98637581
0.98623521
0.98627391
0.98612288
0.98613371
0.98610508
0.98598728
0.98604348
0.98585373
0.98603018
0.9858798
0.98573607
0.98596649
0.98575114
0.98594813
0.98556183
0.98584326
0.98581244
0.98549998
0.98583281
0.98554323
0.98560439
0.98557485
0.98729495
0.98663925
0.98646096
0.98624126
0.98634779
0.98598601
0.98598307
0.98608349
0.98580167
0.98595994
0.98586752
0.985726
0.98586455
0.98563923
0.98586943
0.98564169
0.98556794
0.98569106
0.98573917
0.98549439
0.98549472
0.98569824
0.98528293
0.98566491
0.98523374
0.98553862
0.98515349
0.98658866
0.9864705
0.98626295
0.98601673
0.9860712
0.98589517
0.98567574
0.98585744
0.98567863
0.98556947
0.98581758
0.98546118
0.98556255
0.98557238
0.98540869
0.98572337
0.98521798
0.98551519
0.98539979
0.9854013
0.98539187
0.98522906
0.98536905
0.98515781
0.98519784
0.98516783
0.98508957
0.98644303
0.98638016
0.98612576
0.98590079
0.98578862
0.985678
0.98541556
0.9856424
0.9854027
0.98530691
0.98557653
0.98521426
0.98538613
0.9852505
0.98516639
0.98542962
0.98512125
0.98533601
0.98498615
0.98527126
0.98514217
0.98498583
0.98512443
0.98501242
0.9849226
0.98490782
0.98489643
0.986188
0.98583951
0.9858587
0.98563293
0.98540282
0.985372
0.98525686
0.9852821
0.98515493
0.98515486
0.98516508
0.98498797
0.98517555
0.9850867
0.98492464
0.98500327
0.98502491
0.98503386
0.98479475
0.9849453
0.98503511
0.98465412
0.98492809
0.98476051
0.9846643
0.98467021
0.98464931
0.98577967
0.98562373
0.98546295
0.98535479
0.98512467
0.98498471
0.98508303
0.98483272
0.98496609
0.98499822
0.98476827
0.98488822
0.98482787
0.98493825
0.9847678
0.98461264
0.98491131
0.98466286
0.98475573
0.98454946
0.9847868
0.98449469
0.98463221
0.98457402
0.98439463
0.98446957
0.98432486
0.985296
0.98570253
0.98518971
0.98510839
0.98480852
0.98481503
0.98471789
0.98454143
0.98471752
0.98470778
0.98451724
0.98458286
0.98453911
0.98466128
0.98456418
0.98438392
0.98456888
0.98441569
0.98443015
0.98443314
0.98434972
0.98435665
0.98423479
0.98443063
0.9841403
0.98418459
0.98408655
0.9854834
0.98479103
0.98488623
0.98475124
0.98446854
0.98451891
0.98438762
0.98417617
0.98442352
0.98426857
0.98426719
0.98431712
0.98404847
0.98445111
0.98413127
0.98419364
0.98429197
0.98395886
0.98433627
0.98393504
0.98425874
0.98394174
0.98396861
0.98405998
0.98393735
0.98390805
0.98378565
0.9852717
0.98451077
0.98473807
0.98433967
0.98426249
0.98420063
0.98413521
0.98394491
0.98417491
0.98387752
0.98410795
0.98402757
0.98382636
0.98417959
0.98371004
0.9840676
0.98385699
0.98375503
0.98402535
0.98359673
0.98408543
0.98357025
0.98382171
0.9836066
0.98375711
0.98358523
0.98350773
0.98460183
0.98456055
0.98445963
0.98416008
0.98410853
0.98401822
0.98386393
0.98383461
0.98387571
0.98379309
0.98389661
0.98371588
0.98381054
0.98376787
0.98362542
0.98377677
0.98357229
0.98370408
0.98355188
0.98347673
0.98361368
0.98346108
0.98355004
0.9833189
0.98346636
0.98337319
0.9832658
0.98453405
0.98416562
0.98412736
0.9840673
0.98403603
0.98388382
0.98363644
0.98369743
0.98363531
0.98356452
0.98364986
0.98336968
0.98366611
0.98355292
0.98339543
0.98357384
0.98325245
0.98364827
0.98329689
0.98330376
0.98326848
0.98320124
0.98333761
0.98304676
0.98319495
0.98305694
0.98310624
0.98393507
0.98379152
0.98387578
0.9840529
0.9839554
0.98364692
0.9836012
0.9833611
0.98343756
0.98342505
0.98319526
0.98330686
0.98317148
0.98329922
0.98324497
0.98304208
0.98329663
0.98307271
0.98336759
0.98294134
0.98315565
0.98298427
0.98298717
0.98299957
0.98281206
0.98290541
0.98282252
0.98264172
0.9830839
0.98363792
0.98371649
0.98366033
0.98334069
0.98325615
0.98314166
0.9831908
0.98311478
0.98296796
0.98306003
0.98285661
0.98311293
0.98289555
0.98283538
0.98300271
0.98271507
0.98315236
0.98266044
0.98295709
0.98270397
0.98276214
0.98284917
0.98261292
0.98266785
0.98252746
0.98214332
0.98330813
0.98343029
0.98340186
0.98316889
0.98297466
0.98296757
0.98294213
0.98292437
0.98285117
0.98277191
0.98274412
0.98277531
0.9828312
0.98268151
0.98276074
0.98271689
0.98263934
0.98283976
0.98250933
0.9827371
0.98250016
0.98260639
0.98255332
0.98248984
0.98246496
0.98236543
0.98107079
0.98328798
0.98334095
0.98297732
0.98282172
0.982646
0.98263735
0.98266688
0.98268716
0.98265009
0.98265794
0.98260904
0.98257954
0.98266774
0.98241057
0.98265649
0.98233776
0.9826214
0.98250918
0.98244858
0.98256154
0.9822102
0.98247273
0.9822304
0.98244189
0.98223172
0.98225241
0.98125494
0.9816114
0.98315317
0.98247102
0.98281571
0.9825307
0.98260461
0.9825042
0.98251864
0.98243135
0.98247387
0.98237993
0.98243336
0.98243713
0.98228359
0.98245157
0.98210985
0.98248195
0.98227648
0.98237881
0.98227542
0.98203427
0.98230084
0.98206208
0.98233748
0.98205054
0.98211626
0.98235977
0.98317231
0.98360398
0.98344558
0.98364776
0.98333821
0.98320343
0.98274014
0.98262661
0.98239239
0.9824592
0.98221068
0.98226879
0.98227305
0.98210931
0.98233421
0.98192175
0.98229165
0.98210755
0.9822236
0.98219632
0.98190555
0.98212065
0.98187456
0.98219604
0.98196936
0.98199718
0.98344194
0.9829676
0.98330528
0.98345901
0.98391487
0.98372214
0.98347882
0.98291939
0.98258635
0.98246348
0.98219031
0.98231336
0.98196472
0.98233657
0.98200036
0.98225549
0.98195213
0.982045
0.98212939
0.98186393
0.98223389
0.98172634
0.98209318
0.98170615
0.9820156
0.98190081
0.98191115
0.98223658
0.98230647
0.98296758
0.98331687
0.9836612
0.98349627
0.98318416
0.98276046
0.98247279
0.98225252
0.98204402
0.98209561
0.98185882
0.98219882
0.98196999
0.98201442
0.98198115
0.9817897
0.98203519
0.98165061
0.98211817
0.98172028
0.98191494
0.9817358
0.98179867
0.98185844
0.98181806
0.98229711
0.98263114
0.9830126
0.98342588
0.98361872
0.98333298
0.98295291
0.98247861
0.982402
0.98216139
0.98201944
0.98197682
0.98179423
0.98208628
0.98188229
0.98197434
0.98180495
0.9818379
0.98185955
0.98169655
0.98198093
0.98178289
0.98188926
0.98167512
0.98173856
0.98174247
0.98176647
0.9822314
0.98289762
0.98308556
0.98322664
0.98316322
0.98280467
0.98246855
0.98216051
0.98219323
0.98207658
0.98195736
0.98190762
0.98174426
0.9819603
0.98181192
0.98189057
0.9817407
0.98182709
0.98179158
0.98167861
0.98185956
0.98172212
0.98183534
0.98165568
0.98171678
0.98171551
0.98171219
0.98112679
0.98257326
0.9828272
0.98263781
0.98250071
0.98220527
0.98206207
0.98187978
0.98189808
0.9818672
0.98186857
0.98185257
0.98178668
0.98186338
0.98179453
0.98185745
0.98174356
0.98181642
0.98176365
0.981769
0.98179707
0.98173595
0.98179422
0.98167927
0.9817683
0.98171611
0.98175459
0.98021969
0.98195707
0.98257021
0.98248601
0.98232926
0.98210109
0.98197593
0.98184609
0.98183621
0.98179094
0.98184628
0.98183626
0.98185255
0.98185225
0.98182373
0.98185265
0.98180598
0.98181685
0.98182073
0.98178613
0.98182861
0.98172795
0.98182499
0.98171859
0.98182077
0.98175021
0.98179499
0.9803819
0.98172339
0.98258625
0.98267739
0.98254315
0.98229443
0.98211609
0.98196463
0.9819274
0.98188198
0.98190715
0.98190534
0.98193729
0.98191645
0.98191958
0.98188871
0.98188527
0.98185944
0.98187237
0.9818354
0.98187029
0.98181652
0.98186054
0.98181611
0.98183351
0.98180383
0.98181609
0.98125461
0.98163621
0.98257355
0.98293104
0.98296232
0.98269481
0.98242551
0.98216701
0.98206332
0.98198467
0.98198747
0.98197802
0.98199824
0.9819918
0.98198282
0.98197992
0.98196234
0.98197917
0.98194928
0.98194994
0.98193036
0.98192206
0.98191306
0.98191017
0.98189739
0.98188392
0.98188502
0.98171756
0.98191341
0.98282986
0.98335931
0.98341224
0.98311128
0.98275658
0.98242205
0.98224443
0.9821221
0.9821098
0.98203856
0.98207555
0.98203907
0.98205742
0.98205586
0.98202079
0.98206879
0.98198604
0.98205794
0.98195552
0.9820306
0.98195028
0.98200644
0.9819606
0.98197888
0.9819643
0.98207303
0.98248389
0.98327671
0.98359011
0.9836244
0.98330665
0.98294217
0.98259247
0.98239214
0.98224553
0.98224533
0.98212682
0.98221311
0.98211048
0.98217573
0.98213756
0.98210548
0.98217018
0.98204491
0.98219219
0.9820128
0.98218988
0.98202728
0.98215853
0.98205544
0.98211133
0.98208929
0.9821146
0.98287141
0.98348075
0.98373707
0.9836723
0.98337696
0.98302947
0.98272656
0.98253288
0.9823748
0.98241766
0.98224467
0.98237832
0.98222796
0.98230498
0.98227861
0.98221164
0.98233485
0.98215359
0.98237245
0.98215035
0.98235483
0.98217919
0.98230949
0.98224086
0.98228229
0.98226921
0.98175736
0.98298503
0.9835797
0.98369548
0.98353805
0.98325215
0.98295643
0.98272873
0.98264289
0.98244005
0.98258236
0.98236099
0.98253393
0.98238972
0.98239002
0.98247436
0.98227568
0.98257323
0.98224001
0.98258188
0.98225617
0.98251844
0.9823328
0.98246069
0.98241028
0.98241638
0.98241544
0.98178322
0.98285996
0.98345469
0.9835459
0.98331415
0.98309951
0.98287133
0.98269029
0.98271328
0.98252317
0.9827174
0.98253636
0.98264279
0.98255489
0.98253685
0.98257201
0.98250118
0.98263705
0.98247629
0.98263644
0.98244814
0.98261696
0.98247163
0.98261913
0.9825165
0.98255605
0.98250907
0.98205732
0.98279916
0.98331656
0.98343303
0.98335496
0.98300595
0.98295523
0.98261653
0.98278909
0.98265036
0.98272204
0.98281191
0.98260372
0.98288069
0.98251267
0.98287205
0.98255351
0.98281386
0.98267813
0.98263344
0.98275474
0.98255355
0.98281624
0.9825789
0.98279507
0.982603
0.98267475
0.98247365
0.98290449
0.98338045
0.98344739
0.98354792
0.98311365
0.98305893
0.98282219
0.98271297
0.98290329
0.98262932
0.98301657
0.9826266
0.98291574
0.98274955