/*--------------------------------*- C++ -*----------------------------------*\
| =========                 |                                                 |
| \\      /  F ield         | OpenFOAM: The Open Source CFD Toolbox           |
|  \\    /   O peration     | Version:  2406                                  |
|   \\  /    A nd           | Website:  www.openfoam.com                      |
|    \\/     M anipulation  |                                                 |
\*---------------------------------------------------------------------------*/
FoamFile
{
    version     2.0;
    format      ascii;
    arch        "LSB;label=32;scalar=64";
    class       volScalarField;
    location    "19";
    object      rho_0;
}
// * * * * * * * * * * * * * * * * * * * * * * * * * * * * * * * * * * * * * //

dimensions      [1 -3 0 0 0 0 0];

internalField   nonuniform List<scalar> 
62344
(
1.0004207
1.0053185
1.0088965
1.0063813
1.0000664
0.9976624
0.99918771
0.99916805
1.0016256
1.0033919
1.0072524
1.0008201
0.99917394
1.0136215
1.0151084
1.0054347
0.99649775
0.99492088
1.0058895
1.0163175
1.0033161
0.98474359
0.99558278
1.011497
1.0039706
0.99677963
1.0096572
1.0160311
1.0030516
0.99829479
1.0138859
1.0328453
1.0343293
1.0167761
0.99957156
1.0001691
1.0232827
1.0449345
1.0568435
1.0694178
1.0796225
1.0690527
1.0328177
0.99651844
0.99129916
1.0141743
1.0507213
1.0803402
1.0911515
1.0869457
1.0816569
1.0997489
1.1430672
1.2006301
1.2390941
1.0001574
1.0039279
1.0078313
1.0071115
1.0011779
0.99790753
0.99760615
0.9992838
1.0052813
1.0066312
1.0031977
1.0044464
1.0010053
1.0137018
1.0144382
1.0021074
1.0050115
1.0026529
1.001372
1.0086746
1.0050901
0.99462732
0.99694091
1.0033431
1.0009953
1.0028324
1.0158866
1.0180033
1.0005148
0.99660871
1.0135744
1.0303443
1.0247975
1.0074601
0.99732166
1.0019709
1.0142636
1.0289681
1.0460062
1.0574815
1.0604412
1.0447479
1.0138937
0.98217849
0.96877533
0.99322742
1.0517675
1.1223717
1.1745054
1.1914499
1.1770579
1.1415386
1.1193643
1.1254484
1.1560282
1.0003729
1.0047443
1.0064188
1.0068898
1.0013582
0.99772942
0.99669601
0.99870576
1.0070474
1.0103277
0.99905113
1.002602
1.0078476
1.0137447
1.0075076
1.001598
1.0113954
1.0115034
1.0021558
0.99953768
0.99710204
0.99788279
1.0073283
1.00955
1.0011881
1.0027725
1.0142259
1.0142645
0.99815089
0.99498219
1.0120952
1.0251969
1.0172847
1.0004321
0.99594385
1.0038482
1.0120273
1.0198388
1.0375201
1.0436967
1.0369523
1.02255
1.0007002
0.97885457
0.97267433
0.99266073
1.04645
1.1289959
1.2094393
1.2440935
1.2211869
1.1653618
1.0983347
1.0596044
1.0580665
1.0008926
1.0061645
1.0056876
1.0060319
1.0013286
0.9985068
0.99737303
0.99811411
1.0071606
1.0087751
0.9981676
0.99881152
1.0128
1.0123881
0.99963129
1.0038188
1.0132935
1.0125393
1.0036529
0.99684612
0.98924247
0.99497698
1.0124906
1.0171418
1.0045138
1.0017457
1.0098744
1.0076136
0.99484726
0.99480154
1.0115566
1.0210726
1.0102907
0.99503088
0.99585215
1.0080789
1.0132558
1.0174932
1.0296174
1.0316096
1.0195561
1.0052925
0.99604601
0.99390694
0.99676122
1.0132481
1.0517271
1.1099595
1.1758846
1.2216335
1.226211
1.1868345
1.1221602
1.059329
1.0220782
1.0013865
1.0061374
1.0062444
1.0058293
1.0010848
0.99893501
0.99804212
0.99944853
1.0065421
1.0047612
0.999787
0.99772682
1.0138467
1.0100547
0.99764134
1.0075674
1.0135551
1.0063962
1.0028036
1.0006315
0.98920662
0.99096572
1.009997
1.0173182
1.0056341
1.0016614
1.0066675
1.0014942
0.99137387
0.99670957
1.0146904
1.0205435
1.0057273
0.98955953
0.99510427
1.0135055
1.019244
1.0203035
1.0253298
1.0227322
1.005597
0.98990149
0.99414511
1.0131681
1.0308656
1.0458328
1.0615855
1.0819247
1.107315
1.1397552
1.1669526
1.1711998
1.1444303
1.0954526
1.0464887
1.001535
1.0051589
1.0075717
1.0067889
1.0008904
0.99859096
0.99887241
1.0023049
1.0061537
1.0037333
1.0012378
1.0011021
1.0117787
1.0075403
1.0010196
1.011468
1.0125834
0.99959487
0.99904749
1.0055444
0.99632427
0.99222423
1.0050124
1.0100121
1.0008188
1.0015888
1.0066997
0.99964207
0.99029946
0.99908652
1.0201588
1.0235561
1.0043343
0.98611154
0.99346288
1.0172433
1.0289853
1.0300594
1.028261
1.0181004
0.99533121
0.97992315
0.99164632
1.0268596
1.0611852
1.0788027
1.0794277
1.066873
1.0558747
1.0587707
1.0816211
1.1076822
1.1272491
1.1189404
1.0877544
1.0013037
1.0045816
1.0088339
1.0077515
1.0009086
0.99796073
0.99927758
1.0046384
1.0064279
1.0052662
1.0017864
1.0057324
1.0090051
1.0059209
1.0063583
1.0155192
1.0113589
0.99579686
0.99501566
1.0075915
1.003817
0.99749456
1.0026079
1.0015842
0.99389293
1.0000515
1.0087309
1.0025623
0.99310083
1.0028073
1.0248722
1.0275043
1.0052084
0.98387376
0.9892426
1.0155836
1.0353728
1.0419437
1.0357945
1.0166474
0.98868823
0.97540417
0.99092863
1.0329126
1.0814459
1.1100591
1.1059215
1.0747619
1.0376217
1.0114493
1.0145701
1.044798
1.0820515
1.1098947
1.1210192
1.0009217
1.0051531
1.009425
1.0078491
1.0012572
0.99786031
0.99911484
1.0046764
1.006741
1.0070839
1.0020489
1.0089352
1.0066454
1.0054141
1.0115142
1.01689
1.0103576
0.99609502
0.99485712
1.0077001
1.0072431
1.001395
1.0029274
0.99689785
0.98948547
0.99870036
1.0107
1.006554
0.99737062
1.0067089
1.0276848
1.0293084
1.0068144
0.98347756
0.98435728
1.0081405
1.0357689
1.050066
1.0460395
1.0175004
0.98424816
0.97397783
0.99221314
1.0348166
1.0892894
1.1296154
1.1319079
1.0946475
1.0435609
1.0006648
0.98263636
0.9985227
1.039231
1.0883904
1.13161
1.0007505
1.0063191
1.0090395
1.0074706
1.0017062
0.99853113
0.99855922
1.0025032
1.0071538
1.0075411
1.0021144
1.0086232
1.0051473
1.0067646
1.0142291
1.0147265
1.0086945
0.99884001
1.0001628
1.0064516
1.0040815
1.0014775
1.0044577
0.99706904
0.989075
0.99865051
1.0127723
1.0096237
1.0002143
1.008428
1.02758
1.0280144
1.0071384
0.98453915
0.97956687
0.99680432
1.0294299
1.051938
1.0536347
1.0198434
0.9805738
0.97116577
0.99507106
1.0371897
1.0893917
1.1344219
1.1466739
1.1150932
1.0608479
1.0100491
0.98139059
0.97869769
1.0064339
1.0560838
1.1125052
1.0009514
1.0074141
1.0082065
1.0069531
1.0021342
0.99946234
0.99825786
0.99981576
1.0072913
1.0066709
1.002612
1.0060318
1.0043068
1.0091797
1.0145406
1.0110168
1.0059407
1.0027015
1.0068417
1.0066591
0.9978759
0.99784605
1.005377
0.99999972
0.99214427
1.0016459
1.0152908
1.0119326
1.0015803
1.007965
1.0245681
1.0243098
1.0065847
0.98700005
0.97626521
0.98552387
1.0186287
1.0496789
1.056649
1.0232355
0.97808002
0.96627489
0.99425747
1.0396721
1.086192
1.128963
1.1468961
1.1259438
1.0780677
1.0295285
0.99385311
0.97967118
0.98958988
1.0241776
1.072686
1.0012835
1.0077971
1.007544
1.0068014
1.0024421
1.000004
0.99848672
0.99831544
1.0072306
1.0054878
1.0032699
1.0027814
1.0040573
1.0114523
1.0137762
1.0075708
1.0033562
1.0045228
1.0118195
1.0076666
0.9931972
0.99368363
1.0049577
1.0028296
0.99609737
1.0053233
1.0179878
1.0137044
1.002435
1.0064797
1.0196113
1.0189072
1.0056138
0.99033207
0.97560496
0.97771451
1.006607
1.0439408
1.0558407
1.0264854
0.97783092
0.96216476
0.98927935
1.0386105
1.0841255
1.1200003
1.1330819
1.1198734
1.0881322
1.0501015
1.0154011
0.99302396
0.98919144
1.0049663
1.0367011
1.0016118
1.0075706
1.0073792
1.006922
1.0023848
0.99997698
0.99883203
0.998333
1.0070035
1.0052258
1.0039825
1.0008022
1.00448
1.012914
1.0126076
1.0061477
1.0022539
1.0044576
1.0134188
1.0084762
0.99176884
0.9917518
1.003964
1.0040211
0.99855689
1.0076104
1.0193687
1.0150115
1.0034418
1.005253
1.0142443
1.0126646
1.0040708
0.99437623
0.97788826
0.97456412
0.99722348
1.0362078
1.0516234
1.0287824
0.98134152
0.96024721
0.98225347
1.0334986
1.0820307
1.1111794
1.1134955
1.1007851
1.0844455
1.0623521
1.037168
1.0154395
1.0030669
1.004129
1.0184554
1.0017413
1.0070239
1.0075422
1.0072857
1.0021648
0.99966219
0.99954087
0.99963794
1.0066627
1.0059604
1.004617
1.0001488
1.0057141
1.013524
1.0111733
1.0066635
1.0033773
1.0037114
1.0116916
1.0079801
0.99311077
0.99294446
1.0033837
1.0030634
0.99875878
1.0075635
1.0187598
1.0153025
1.0045914
1.0051334
1.0100764
1.0065831
1.001825
0.99785711
0.98364758
0.97554419
0.9917033
1.0278169
1.0447967
1.0290071
0.98661242
0.96251594
0.97820781
1.0261298
1.0753911
1.1021613
1.0955513
1.0769825
1.0675068
1.0603578
1.0494969
1.0376041
1.0279129
1.0209618
1.0224473
1.0017113
1.0063729
1.0079164
1.0076425
1.0020493
0.99935648
1.0001489
1.001345
1.0061103
1.0072954
1.0050006
1.0002598
1.0076597
1.0139832
1.0095015
1.0085059
1.0068799
1.0043464
1.0076791
1.0061297
0.99569347
0.99688281
1.0041873
1.0009004
0.99628183
1.0049207
1.0163326
1.0147012
1.0059392
1.0062988
1.0082027
1.0017967
0.99935792
1.0005946
0.99093136
0.980087
0.99004169
1.0194941
1.0359196
1.025875
0.99251827
0.96969084
0.97897636
1.0194943
1.0667421
1.0916409
1.0805563
1.0558461
1.0452251
1.0466945
1.0510783
1.0527676
1.050487
1.0455648
1.0410092
1.0015693
1.0058715
1.0084089
1.0078725
1.0020746
0.99929508
1.0005799
1.0029057
1.0058113
1.0085964
1.0046595
1.0007374
1.0097487
1.0143289
1.007536
1.0099922
1.0110064
1.0064289
1.003655
1.003196
0.99841797
1.00151
1.0067721
0.99920931
0.99262915
1.0006477
1.0126024
1.0134524
1.0073359
1.0086727
1.0087649
0.99925153
0.99722681
1.00196
0.99824678
0.98724683
0.99116691
1.0125485
1.0260683
1.019763
0.9981246
0.97887638
0.98437322
1.0163079
1.0573899
1.0808497
1.0695304
1.0409758
1.024919
1.0274352
1.0415802
1.0568102
1.0662473
1.0652906
1.0599962
1.00139
1.0056268
1.0087932
1.0079155
1.0021671
0.99948743
1.000586
1.0038911
1.0056039
1.0093684
1.0038522
1.000866
1.0114907
1.0145122
1.0057951
1.0104208
1.0151307
1.00881
1.0010686
0.99977271
1.0003084
1.0061081
1.0100455
0.99877332
0.98953259
0.99633149
1.0085834
1.0114483
1.0087085
1.0116548
1.0111614
0.99934149
0.99593371
1.0020193
1.0039283
0.99540407
0.9947683
1.0073486
1.0158691
1.0121661
1.0014784
0.98866669
0.99212348
1.0165644
1.0503843
1.070587
1.0610801
1.0319084
1.0113493
1.0109151
1.0278786
1.0497723
1.0694364
1.0750537
1.0711922
1.0012325
1.005671
1.0089631
1.0077853
1.0022948
0.9998255
1.0002085
1.0042422
1.0056596
1.0097524
1.0029622
1.0006116
1.012721
1.014607
1.004571
1.0100039
1.018099
1.0108533
1.0000885
0.99704279
1.000727
1.0095741
1.0129683
0.9993242
0.98796626
0.9931831
1.0048895
1.0094277
1.0096559
1.0146057
1.0145784
1.0015373
0.99567394
1.0008994
1.007146
1.0030348
0.9999551
1.0045785
1.0062691
1.0037282
1.0017651
0.99854922
1.0015276
1.0197441
1.0464898
1.0619068
1.0533254
1.0264196
1.0042481
0.99978454
1.0149979
1.0386903
1.0619844
1.0760492
1.0752108
1.0011646
1.0059061
1.0089318
1.0075202
1.0023928
1.0001949
0.99967887
1.0040847
1.0061226
1.0097782
1.0020712
1.0002436
1.01318
1.0146112
1.0041221
1.0091663
1.0192329
1.0123169
1.0001866
0.99565883
0.99982966
1.0109201
1.0145397
1.000318
0.987842
0.99159915
1.0023862
1.0076379
1.0099435
1.0170166
1.0183567
1.0049818
0.99615459
0.99889428
1.0076874
1.0090843
1.0062842
1.0042537
0.99839279
0.99395371
0.99877929
1.0064929
1.0123045
1.0272278
1.0473233
1.0565976
1.0460713
1.0220436
1.0011372
0.99449533
1.0050641
1.0274874
1.0516149
1.0705649
1.0771534
1.0011711
1.0061724
1.0087463
1.0072271
1.0024469
1.000485
0.9991716
1.0035665
1.0067047
1.0093732
1.0014093
1.0001023
1.012829
1.0144999
1.0044978
1.0086389
1.018773
1.0127158
1.0009717
0.99579018
0.99863571
1.010478
1.014454
1.0010845
0.98862053
0.99139099
1.0013401
1.0064513
1.0097117
1.0184848
1.0218067
1.0088436
0.99703566
0.99607037
1.0055875
1.0129181
1.0125635
1.0059596
0.99268161
0.98416413
0.99288009
1.0104433
1.0235764
1.0374005
1.0529015
1.0558531
1.0401375
1.0174898
1.0002461
0.99403572
1.0008841
1.0191753
1.0423298
1.0631403
1.0771374
1.0012441
1.0064382
1.0084753
1.007007
1.0024174
1.0005524
0.99877303
1.0027831
1.0071801
1.0086866
1.0011601
1.0003372
1.0117784
1.0139143
1.0055674
1.0087854
1.0170288
1.0117464
1.0022799
0.99746586
0.99802976
1.0084353
1.0129927
1.0012907
0.98972638
0.99215314
1.0012583
1.0059252
1.0091052
1.0189497
1.0243002
1.0124415
0.9980013
0.99285398
1.0015056
1.0140861
1.0178365
1.0088638
0.98925052
0.97522597
0.98429319
1.0101484
1.0336129
1.0501904
1.0624125
1.0596934
1.0372107
1.0130103
0.99896127
0.99622303
1.0019673
1.0159506
1.0353116
1.0564842
1.0734272
1.001357
1.0066655
1.0082151
1.0068799
1.0022865
1.0003422
0.9985058
1.0018725
1.0074444
1.0078571
1.0012087
1.0010383
1.0102524
1.0129248
1.0070985
1.0096807
1.0146056
1.0097771
1.003693
0.99997358
0.99830064
1.0058659
1.0103914
1.0009295
0.99077417
0.99343145
1.0017376
1.0060239
1.008628
1.0187159
1.025791
1.0155658
0.99916446
0.98976232
0.99633026
1.0128117
1.0216782
1.0125236
0.98818121
0.96801243
0.97457223
1.0056428
1.0404685
1.0637092
1.0751057
1.0674018
1.03839
1.0093073
0.99655892
0.99844245
1.0059758
1.0177417
1.0334345
1.0523837
1.0696703
1.0014883
1.0068263
1.0080068
1.0068646
1.0021073
0.99995398
0.99840263
1.000966
1.0074707
1.0070957
1.0015919
1.0023038
1.0085933
1.0117204
1.0090189
1.0110769
1.012212
1.0071656
1.0049539
1.0031443
0.99942297
1.0036199
1.0072507
1.0001427
0.99169979
0.99491344
1.0026165
1.0065795
1.0084206
1.0181087
1.0265485
1.0182067
1.0005305
0.98734801
0.99114715
1.0093444
1.0238385
1.016514
0.9894313
0.96331453
0.96554953
0.99775399
1.042297
1.0756534
1.0898836
1.0785794
1.0433572
1.0090458
0.99478717
0.99867273
1.0094432
1.0220256
1.0361102
1.0520468
1.067518
1.0015997
1.0069197
1.0078399
1.0069306
1.0019609
0.99949165
0.99847198
1.0002323
1.0073823
1.0065097
1.0023491
1.0039584
1.0071598
1.0105146
1.0112216
1.0127904
1.010136
1.004348
1.0061319
1.0066062
1.0012296
1.0020803
1.0043967
0.99894596
0.99249986
0.9963953
1.0039289
1.0076147
1.0083708
1.017302
1.0266791
1.0202877
1.0021658
0.98586041
0.98652288
1.0048921
1.0244566
1.0203276
0.99224411
0.96134705
0.95812746
0.98779971
1.0383317
1.083581
1.1037446
1.0914291
1.0525188
1.0131872
0.9952783
0.99789917
1.0103261
1.0248619
1.0395236
1.0544644
1.0679478
1.0017303
1.0069665
1.007728
1.0070387
1.0018954
0.99907678
0.99868275
0.99977568
1.0073768
1.006224
1.0032699
1.0057612
1.0061955
1.0094485
1.0133563
1.0146643
1.0087376
1.0018819
1.0072012
1.0100771
1.0034558
1.0014212
1.0022988
0.99771923
0.99320802
0.99781552
1.0055069
1.008847
1.008401
1.0163617
1.0263591
1.021897
1.0038781
0.98527704
0.98276465
1.0004977
1.0233001
1.0232833
0.9956862
0.96172898
0.95296673
0.97754785
1.0290009
1.0855424
1.1133542
1.1032402
1.0638269
1.0210994
0.9984739
0.9970209
1.0080422
1.0242845
1.0411342
1.0572978
1.0698524
1.0018126
1.0070083
1.0076978
1.0072207
1.0019807
0.99886016
0.99906398
0.99970351
1.0075924
1.0062597
1.0041937
1.0074581
1.0057455
1.0085637
1.0150133
1.0165203
1.0081819
0.99997864
1.0078444
1.0132361
1.0059074
1.0016564
1.001086
0.99693773
0.99373426
0.9991657
1.007079
1.0104191
1.0087793
1.0155907
1.0256802
1.0229391
1.0054595
0.98520874
0.98001481
0.99615616
1.0211408
1.0250716
0.99918528
0.96338497
0.94967026
0.96819014
1.0178435
1.0816825
1.1176286
1.11061
1.0730015
1.0302965
1.0031857
0.99534042
1.0025456
1.0191823
1.0386028
1.056633
1.0704461
1.002065
1.0071866
1.0079001
1.0075605
1.0023258
0.99901293
0.99969563
0.99995348
1.0080892
1.0065915
1.004991
1.0088554
1.0056884
1.0079573
1.0159966
1.0179806
1.0082651
0.99869916
1.0078721
1.0155976
1.0081183
1.0025375
1.0006254
0.9965074
0.99382121
0.99996948
1.0083444
1.0119302
1.0094934
1.0150219
1.0249123
1.0235194
1.0069563
0.98542074
0.97739875
0.99077943
1.0177979
1.0270306
1.0026578
0.96561715
0.94519302
0.95656505
1.0033882
1.0717994
1.1167917
1.1162988
1.0799846
1.0353681
1.0038382
0.98994502
0.99061993
1.0047639
1.0265184
1.0467795
1.0617689
1.0025737
1.0076365
1.0083845
1.0080377
1.0028028
0.99940412
1.0003073
1.0003181
1.0086377
1.0071343
1.0054468
1.0096992
1.0058804
1.007506
1.0161436
1.0186816
1.0087359
0.99836119
1.0070795
1.0165676
1.009741
1.0035919
1.0008615
0.9969231
0.99354075
1.000079
1.0083879
1.012506
1.0100592
1.0144339
1.0238921
1.0239529
1.008751
0.98764796
0.97722594
0.9870403
1.0121087
1.0255305
1.0057648
0.97138685
0.94616285
0.94985573
0.98791102
1.0523553
1.1032815
1.1105667
1.0826546
1.0414903
1.0086781
0.99012952
0.98524248
0.99377109
1.011485
1.0305428
1.0453383
1.0598538
1.074792
1.084395
1.085556
1.0868336
1.0875229
1.087251
1.0856321
1.0794277
1.0720773
1.0676927
1.0641822
1.0575315
1.0471979
1.0430665
1.054929
1.0909555
1.1433412
1.1790487
1.1625731
1.1090049
1.0522866
1.0097037
1.0164259
1.0763741
1.1797078
1.2334498
1.0780101
1.0937303
1.1046066
1.107197
1.1062462
1.101682
1.0936456
1.0795168
1.0644526
1.0558744
1.0556567
1.0589742
1.0626715
1.0700624
1.0844894
1.1131484
1.1599627
1.2061001
1.2143815
1.1621606
1.0945554
1.0452813
1.0232085
1.0455324
1.1051333
1.1761641
1.1806072
1.1053119
1.1201687
1.1276625
1.1236015
1.1140618
1.0996149
1.0804131
1.0615596
1.048849
1.0477621
1.0564425
1.0702791
1.089232
1.1148255
1.1471495
1.1892581
1.2283206
1.2424376
1.2091147
1.1399148
1.0759738
1.0477997
1.064158
1.1058323
1.1524139
1.1656125
1.1103627
1.1214114
1.130216
1.1285369
1.1181053
1.1016829
1.0811596
1.060792
1.0455427
1.0410672
1.0498092
1.0701659
1.1014161
1.1425375
1.1878278
1.2334575
1.2748322
1.2874746
1.2513023
1.1798128
1.1028136
1.0570632
1.0631711
1.1214253
1.1840073
1.202455
1.147491
1.0631841
1.1021531
1.1001535
1.0933785
1.0804335
1.064346
1.0481112
1.0356402
1.0302448
1.0375622
1.0602516
1.0994766
1.1558169
1.2240204
1.2895368
1.3353366
1.3537532
1.3216206
1.2448458
1.1521948
1.0786006
1.0527333
1.0920206
1.1851803
1.253536
1.2303066
1.1238673
1.0477377
1.0456932
1.0368594
1.0305548
1.0227099
1.0134729
1.0061595
1.0042468
1.0118337
1.0331397
1.0731046
1.1348681
1.2175643
1.3090991
1.3834156
1.4157142
1.3957563
1.3277032
1.2354135
1.1441245
1.0873116
1.0812776
1.1392375
1.2395686
1.2934776
1.2248832
1.1012857
1.0638683
0.9844118
0.97313148
0.97226534
0.97145173
0.96964752
0.97057654
0.97784246
0.99682255
1.0320764
1.0873963
1.1662037
1.2636352
1.3596253
1.4240515
1.4296003
1.3803887
1.3026972
1.2232908
1.1592736
1.1314874
1.1487219
1.2105111
1.28145
1.2836554
1.1834277
1.0866842
1.1045794
0.93924145
0.93484855
0.94024532
0.94524082
0.95029801
0.96013584
0.97759318
1.0071909
1.0512951
1.1124753
1.1940686
1.2849976
1.3597183
1.3869757
1.3651878
1.3100299
1.2492294
1.2014482
1.1798631
1.19409
1.2385308
1.2879883
1.3042952
1.240772
1.1320885
1.0859998
1.1546065
0.92079589
0.92577845
0.94112751
0.95481587
0.96961595
0.98897713
1.0152723
1.0497274
1.0932128
1.1485591
1.2187767
1.2826939
1.3153261
1.3070433
1.2754181
1.2282913
1.1894803
1.1740834
1.1952303
1.2492099
1.3140251
1.3400986
1.2974675
1.1971791
1.1083211
1.109484
1.2028302
0.93841567
0.95267691
0.97954374
1.0037175
1.0277374
1.0544719
1.0815558
1.10868
1.1388359
1.1819756
1.2292196
1.2585799
1.2604352
1.2369819
1.2042485
1.1699371
1.1520375
1.1611222
1.2072012
1.2779317
1.3308326
1.331443
1.2634905
1.1768609
1.1329761
1.1622486
1.2393278
1.0083481
1.0319739
1.0630968
1.0898555
1.1132384
1.1321717
1.1452571
1.1541489
1.1721448
1.2003269
1.2239253
1.2303837
1.2189767
1.1984787
1.1734201
1.1618108
1.1627752
1.1838819
1.2241348
1.266187
1.2827038
1.2611573
1.2123384
1.1813445
1.1994636
1.2335998
1.2716447
1.1217117
1.1486468
1.1714799
1.1867245
1.1949005
1.1937494
1.1858084
1.1826438
1.1932208
1.2098416
1.2188483
1.2174336
1.2089972
1.2021044
1.2004764
1.2077763
1.2204727
1.234101
1.2369948
1.2247088
1.2001228
1.1695503
1.1609646
1.2029519
1.2788674
1.3078847
1.2956652
1.215624
1.2391877
1.2520535
1.2540812
1.2448501
1.2256268
1.2083972
1.2043052
1.2146601
1.2262303
1.232561
1.2347493
1.2424523
1.2578365
1.2819809
1.3031664
1.3099659
1.2853832
1.2315658
1.171798
1.1234609
1.0985909
1.1325234
1.2271194
1.3378401
1.3615989
1.3093268
1.2574768
1.270105
1.2699286
1.2619791
1.2461164
1.2239578
1.2158208
1.2256972
1.245068
1.2644577
1.280335
1.2977278
1.3239019
1.3639024
1.4042415
1.422809
1.3938017
1.3155069
1.2165101
1.1330595
1.0868593
1.0816025
1.1394334
1.2449128
1.3541543
1.3683711
1.3033293
1.2240801
1.2274539
1.2221018
1.21164
1.1986603
1.1930111
1.2079738
1.2432921
1.2841749
1.3240621
1.3637446
1.4049059
1.4530195
1.5026739
1.5349869
1.5208173
1.4385136
1.322049
1.2115478
1.1343709
1.1037968
1.1212464
1.1816035
1.2618178
1.327588
1.3186149
1.269484
1.1352012
1.1334379
1.1339834
1.1327515
1.1356203
1.1560362
1.2005044
1.2613428
1.3259578
1.3897566
1.4552467
1.5226313
1.5820223
1.6163944
1.6095779
1.5461276
1.4401733
1.3269349
1.239123
1.1854699
1.1775946
1.2079657
1.2464672
1.2732627
1.2730919
1.2431708
1.2190226
1.0545949
1.0500774
1.0539954
1.0639174
1.0890185
1.1384571
1.210794
1.2916769
1.3713832
1.4498961
1.5273092
1.5955082
1.6372781
1.6393356
1.59335
1.5120438
1.4214087
1.3485428
1.3000921
1.284258
1.298664
1.3177057
1.3084436
1.2697158
1.2173108
1.1812413
1.1748565
1.0120697
1.0148107
1.0273001
1.0504338
1.0970696
1.1712099
1.259205
1.3452006
1.423205
1.4925009
1.5488089
1.5848842
1.5925286
1.5659056
1.5107919
1.4511439
1.40453
1.382846
1.3888292
1.4169835
1.442371
1.4209063
1.3494521
1.2550565
1.1828438
1.1495339
1.1523655
1.0127981
1.0269491
1.0593896
1.1114293
1.1903447
1.2787302
1.3557134
1.4180806
1.4644453
1.4946041
1.5067359
1.502876
1.4821219
1.4469955
1.4129336
1.3946553
1.3992756
1.4293597
1.4867677
1.5506771
1.5644684
1.4889301
1.3641816
1.2445036
1.1721483
1.1491453
1.1583932
1.064825
1.0958737
1.1601923
1.2542255
1.3559131
1.4323271
1.4725964
1.4852658
1.4769015
1.4552972
1.4279056
1.3977688
1.3693198
1.3502643
1.3461408
1.364167
1.4113348
1.4856892
1.5753763
1.6428104
1.6210237
1.5056981
1.3583677
1.246409
1.1895061
1.1770359
1.1922475
1.1775182
1.2335674
1.3377024
1.455615
1.5354578
1.5614621
1.5497103
1.5112696
1.4594317
1.4035025
1.3558799
1.3199422
1.3035473
1.3047324
1.3276558
1.3740504
1.4492919
1.54256
1.6256694
1.6596767
1.6024035
1.4808949
1.3534577
1.260645
1.2268732
1.2274501
1.2463043
1.316931
1.4132695
1.5566387
1.6509333
1.6676841
1.6364214
1.5774685
1.5055188
1.4369162
1.3736115
1.3287122
1.3023542
1.2974444
1.3163954
1.3610472
1.4288718
1.5101038
1.5812542
1.6196355
1.6032369
1.533246
1.4357485
1.3482331
1.2916144
1.2831978
1.3006456
1.3140253
1.4382337
1.5785744
1.7187168
1.7563488
1.7214007
1.6554324
1.5789145
1.5031369
1.4408314
1.39098
1.3603232
1.3512533
1.3632316
1.3975435
1.4528002
1.5170554
1.5672644
1.5840113
1.5608385
1.5066184
1.4461167
1.3868829
1.3444539
1.3405991
1.3616731
1.3971453
1.3901501
1.4929525
1.646701
1.7510181
1.7539573
1.7095072
1.6476515
1.5806323
1.5230152
1.4828378
1.4580318
1.4518993
1.4640462
1.4968311
1.5413353
1.5825709
1.6038761
1.5894428
1.5413502
1.4759552
1.4133919
1.367206
1.3455994
1.3554117
1.3997029
1.4656348
1.5162401
1.4772952
1.4696608
1.6047809
1.6766565
1.6787186
1.6551096
1.6235993
1.5935684
1.5718926
1.5638602
1.5715739
1.597627
1.6374868
1.6820377
1.7128315
1.7070971
1.6555452
1.5714773
1.4773725
1.3952815
1.3415737
1.3132867
1.3230845
1.3805122
1.4670232
1.5770101
1.6330835
1.563446
1.3971764
1.4982971
1.5589888
1.5787379
1.5868887
1.5939578
1.6063098
1.6305577
1.6682169
1.7225769
1.7888356
1.8545177
1.8937479
1.878992
1.7970435
1.669425
1.5350439
1.4170372
1.3378096
1.2975584
1.2908567
1.332093
1.4120104
1.5332913
1.656347
1.7126879
1.6379274
1.3345174
1.41167
1.4692772
1.5038177
1.536486
1.5750115
1.622634
1.6895262
1.774714
1.8769907
1.9815007
2.0605978
2.0725205
1.9916529
1.8345294
1.6559206
1.4976443
1.383597
1.3112283
1.2870334
1.3010077
1.3596739
1.4542134
1.5751719
1.6900893
1.7401143
1.6940885
1.3269567
1.3882988
1.4426885
1.480782
1.5267145
1.5819666
1.6553835
1.7551518
1.8739096
2.0009198
2.1212966
2.1985771
2.1710534
2.032313
1.8333525
1.638567
1.4856693
1.3756796
1.3215075
1.3121579
1.3376004
1.3989839
1.4861949
1.5850762
1.6727363
1.7237293
1.7300781
1.3894967
1.440881
1.4867767
1.5215483
1.5703091
1.6317405
1.7139277
1.820061
1.9458004
2.0740345
2.1857333
2.2338267
2.1757212
2.0167011
1.8208329
1.6432422
1.503192
1.4122971
1.3614396
1.358122
1.3852467
1.4358217
1.494934
1.5658376
1.6335229
1.6927725
1.7503259
1.5095153
1.5496133
1.5766723
1.6090984
1.6503546
1.7067017
1.78245
1.8791794
1.986765
2.0930494
2.1839636
2.2066512
2.1402123
1.9952011
1.8269037
1.6769163
1.5605871
1.4772875
1.430049
1.4184377
1.4301441
1.4581307
1.4907179
1.5304767
1.5895554
1.6676358
1.7679691
1.6583911
1.6809276
1.6949351
1.7109502
1.7357306
1.7738527
1.8337928
1.9118396
1.9978635
2.0838702
2.1516935
2.1702311
2.1191598
2.0026403
1.8620795
1.7355301
1.6341434
1.5599085
1.5091664
1.4846761
1.4730889
1.4729633
1.4822538
1.5038912
1.5635306
1.6596309
1.7828593
1.7983706
1.8064617
1.8039201
1.8028034
1.8116542
1.8352106
1.8758639
1.9313626
1.9980252
2.0678767
2.1304326
2.157367
2.1295508
2.0408264
1.9194631
1.8054214
1.7116027
1.6412479
1.5868209
1.5466809
1.5177293
1.4979937
1.4944612
1.5113915
1.568082
1.6686904
1.7913589
1.9300813
1.9240718
1.9035777
1.8865836
1.8796319
1.8868831
1.9111726
1.9518577
2.0054785
2.0693129
2.132697
2.169876
2.1613913
2.0934726
1.9815587
1.8718606
1.7738466
1.6974624
1.6407762
1.5963917
1.5658007
1.5438185
1.5391743
1.5575823
1.6092168
1.7022365
1.8073796
2.0489477
2.0304437
1.9950484
1.9640653
1.9444341
1.9410108
1.9564836
1.9890619
2.0374203
2.0969367
2.1567779
2.1993543
2.201769
2.1482456
2.0342185
1.9160819
1.8080359
1.7217848
1.6616228
1.6268237
1.6114701
1.6107501
1.6191489
1.6445376
1.6966903
1.7703017
1.8464221
2.1076367
2.0800073
2.0399582
2.009584
1.9932415
1.99262
2.0105421
2.0448927
2.0920225
2.1469906
2.1991017
2.2356601
2.2351818
2.1823719
2.0658687
1.9345781
1.8109085
1.7122483
1.6466494
1.6171766
1.6212858
1.6535963
1.7042686
1.7725022
1.8363821
1.8921804
1.9359143
2.0863592
2.0603509
2.0295495
2.0133444
2.0125538
2.0276777
2.0583823
2.1019614
2.1543681
2.2059684
2.2479376
2.2708112
2.2578365
2.1953082
2.0840155
1.9367003
1.8009852
1.6886006
1.6126462
1.5752489
1.581855
1.6320312
1.7330622
1.8784915
2.0157113
2.0886884
2.0957288
2.050294
2.0272829
2.0067713
2.0044871
2.0192186
2.0486867
2.091385
2.147403
2.2081854
2.2632238
2.3014703
2.3145028
2.2890243
2.2187149
2.1049776
1.9640998
1.8181036
1.6922747
1.6010529
1.5460793
1.5335732
1.5760621
1.6847891
1.8803105
2.1275848
2.3145368
2.3351174
2.0633509
2.0584218
2.0557228
2.064218
2.0837863
2.1137532
2.153381
2.2012566
2.2541269
2.3047151
2.343349
2.3563754
2.3371826
2.2771683
2.1784746
2.047517
1.9039328
1.7676208
1.6524152
1.5734882
1.5353006
1.5476794
1.6391071
1.8228095
2.1274652
2.4614181
2.5980003
2.3168338
2.3519121
2.3617978
2.3596586
2.3516327
2.3423912
2.334502
2.3311583
2.3356433
2.3454976
2.3569708
2.3672241
2.3679093
2.3541114
2.3093772
2.2252137
2.1066109
1.9708182
1.8411584
1.7278911
1.6510523
1.6289197
1.6643866
1.809289
2.0864735
2.4776379
2.7400075
3.2062527
3.3327139
3.3025892
3.1939891
3.0349707
2.8695309
2.7173924
2.5876183
2.4827644
2.4087429
2.3632201
2.3454933
2.3589842
2.4016269
2.4556465
2.4923986
2.4780785
2.4041284
2.2744427
2.1167471
1.9691101
1.8643824
1.833979
1.8913994
2.0880915
2.4069412
2.6904281
4.5524617
4.5486343
4.329642
3.9868645
3.6039749
3.2520352
2.9554368
2.7280955
2.5503518
2.4329494
2.3704178
2.3539295
2.3832184
2.4641779
2.5942591
2.7786349
2.9759358
3.0805251
3.0220317
2.8052477
2.5250572
2.2873788
2.135907
2.0857929
2.1417239
2.3209327
2.5191492
4.3251233
4.1610151
3.943828
3.7093675
3.4669366
3.2298546
3.0142145
2.8347685
2.6915767
2.5999021
2.5414619
2.5427501
2.5933878
2.7112613
2.891014
3.1408775
3.4333367
3.6736362
3.7050725
3.4578009
3.0774417
2.7141733
2.4333671
2.2612453
2.1945208
2.2596135
2.3573749
3.389777
3.2248398
3.1180328
3.0474205
2.9944441
2.9492214
2.9083667
2.8717966
2.8422932
2.8262483
2.8320819
2.8650563
2.9336489
3.0430514
3.1952718
3.3862621
3.5883653
3.7273312
3.6991071
3.4806018
3.1695926
2.8476524
2.5623241
2.3618724
2.2604394
2.2537328
2.2639658
2.9401213
2.7739532
2.6775838
2.6329146
2.6234688
2.6422499
2.6833479
2.741955
2.8162109
2.9027062
2.9953546
3.0858522
3.1680174
3.2415191
3.3077714
3.3660669
3.4011849
3.383665
3.2982727
3.1508756
2.9567202
2.7451115
2.5529796
2.4047053
2.3255596
2.2914213
2.2447628
2.8501506
2.6506301
2.5102506
2.4348014
2.4091642
2.4224309
2.4725415
2.5588815
2.6781061
2.8196876
2.9660192
3.0964704
3.1837355
3.2147334
3.1945565
3.1366333
3.057354
2.9750474
2.8915007
2.8000393
2.6973733
2.5854417
2.4774673
2.401027
2.3427395
2.3099981
2.2582488
2.9377699
2.6955712
2.5019301
2.3894308
2.3336646
2.3254201
2.3646761
2.4460264
2.5584132
2.6944181
2.8390741
2.9674395
3.0464137
3.0491934
2.9822304
2.875924
2.7650709
2.6792865
2.6179033
2.5714187
2.5302698
2.4842762
2.4358935
2.3938546
2.3560562
2.3201331
2.2898638
3.1402505
2.8450921
2.5912525
2.4377216
2.3569118
2.3340212
2.3536256
2.4110267
2.4857149
2.5761521
2.6709276
2.7538306
2.801938
2.7974932
2.7435686
2.6619878
2.577484
2.5085967
2.4691443
2.4564759
2.4548439
2.4570734
2.4554191
2.4488136
2.4292558
2.3884629
2.3682073
3.3620819
2.9917551
2.6941759
2.5240989
2.4314714
2.3909871
2.3818039
2.3880859
2.4080709
2.4346009
2.4636765
2.4856729
2.4961162
2.4963338
2.4851093
2.4690268
2.4475274
2.4250342
2.4149248
2.4220065
2.4473284
2.4833203
2.5218332
2.5587867
2.5755515
2.562226
2.567087
3.4470569
3.0261418
2.7488089
2.592633
2.493454
2.4224755
2.3745137
2.3333514
2.3000531
2.2734568
2.2484401
2.2241026
2.2061053
2.202392
2.2136457
2.2412246
2.2834253
2.3303299
2.3770395
2.4277684
2.4895057
2.5600524
2.6286538
2.6953413
2.7389968
2.7524603
2.7822302
3.2663027
2.9522749
2.7691505
2.6421153
2.5352334
2.4389225
2.3489159
2.2664222
2.1925954
2.1285563
2.0724494
2.0264659
1.9944913
1.982234
1.9900651
2.01889
2.0744436
2.157749
2.2643629
2.3875759
2.5223697
2.6620042
2.7769818
2.8454859
2.8644723
2.8334735
2.8244549
2.9684352
2.8575628
2.7693767
2.6780483
2.5784616
2.4726957
2.3656884
2.2600487
2.1613234
2.0747756
2.0012457
1.94235
1.8975121
1.870121
1.8627119
1.8760292
1.9154568
1.984895
2.1020787
2.2690674
2.4825209
2.7203926
2.9208708
3.0145746
2.9801253
2.8604729
2.7529539
2.7261258
2.7151037
2.6972684
2.6618366
2.6071358
2.5362842
2.4505042
2.3549603
2.259773
2.1674327
2.0843101
2.0156943
1.9596517
1.9170823
1.8910994
1.884657
1.9014737
1.9486421
2.0398345
2.1907694
2.4171165
2.7089146
3.0065035
3.1619085
3.1146033
2.9348409
2.7333315
2.5425696
2.6054421
2.6480163
2.6661622
2.6661848
2.6498151
2.619555
2.5757191
2.5199974
2.4551017
2.3844395
2.313259
2.2460733
2.1880632