/*--------------------------------*- C++ -*----------------------------------*\
| =========                 |                                                 |
| \\      /  F ield         | OpenFOAM: The Open Source CFD Toolbox           |
|  \\    /   O peration     | Version:  2406                                  |
|   \\  /    A nd           | Website:  www.openfoam.com                      |
|    \\/     M anipulation  |                                                 |
\*---------------------------------------------------------------------------*/
FoamFile
{
    version     2.0;
    format      ascii;
    arch        "LSB;label=32;scalar=64";
    class       volVectorField;
    location    "19";
    object      U;
}
// * * * * * * * * * * * * * * * * * * * * * * * * * * * * * * * * * * * * * //

dimensions      [0 1 -1 0 0 0 0];

internalField   nonuniform List<vector> 
96472
(
(0.086702689 -0.00070937166 -1.8050552e-22)
(0.08763442 -0.0003737349 1.5053605e-21)
(0.091120258 -0.00019337756 1.0751707e-21)
(0.091418088 0.00012806513 4.631172e-21)
(0.091704176 0.00076154345 -6.0737713e-21)
(0.092432061 0.0014574926 -5.0659055e-21)
(0.093453113 0.0020996568 1.7315904e-21)
(0.094783154 0.0026554954 4.5254267e-21)
(0.096268781 0.0030838038 3.3090393e-21)
(0.097553783 0.0034429897 -2.0281987e-21)
(0.098241324 0.0037020328 -1.8303702e-21)
(0.097818515 0.0040848375 8.4438345e-22)
(0.095861788 0.004637207 2.4351598e-22)
(0.091506186 0.005498098 -2.1121311e-21)
(0.084247656 0.0068190856 -5.4085777e-23)
(0.075180654 0.0085544665 5.3628581e-23)
(0.068513861 0.010190124 -3.1187409e-22)
(0.06826706 0.010922462 9.3181978e-22)
(0.072369448 0.01058702 -1.1858669e-20)
(0.076186116 0.0098413143 4.43382e-21)
(0.077831785 0.0092247967 -5.1082747e-21)
(0.077528738 0.0088958454 1.5545179e-21)
(0.076482414 0.0089204223 1.3056709e-21)
(0.075265511 0.0088934108 2.5767907e-21)
(0.073748945 0.0089228494 -1.7918841e-22)
(0.07242909 0.0089970793 -1.0134944e-21)
(0.071359103 0.0087544451 2.6647008e-21)
(0.070175849 0.0085064471 -1.825066e-22)
(0.069054085 0.0083134419 -1.6749296e-21)
(0.068176184 0.0080205832 1.3764945e-22)
(0.067453664 0.0075739777 -5.7011882e-22)
(0.066802235 0.0070976616 2.7977375e-22)
(0.066282161 0.0065464134 5.9983157e-21)
(0.065775832 0.0059044277 -6.4826028e-22)
(0.065286368 0.0051481534 0)
(0.06474641 0.0042982451 2.6556745e-21)
(0.064228089 0.003284678 -2.0328845e-21)
(0.063733772 0.0021186556 2.9091353e-21)
(0.063427173 0.00074697061 -4.5636652e-21)
(0.063119034 -0.00073357547 -1.8860081e-21)
(0.06288771 -0.0023418075 6.2343959e-22)
(0.062580098 -0.0039924902 1.1692553e-21)
(0.06244144 -0.0058436804 -1.6896662e-21)
(0.06205173 -0.0076177583 2.4502595e-21)
(0.062045634 -0.0095567983 -4.5349102e-22)
(0.061872968 -0.011728287 2.7539117e-21)
(0.061997829 -0.013640279 8.1526939e-22)
(0.06194749 -0.015652426 -3.067552e-21)
(0.062525184 -0.017671349 -2.007836e-21)
(0.062841061 -0.019911219 1.5785046e-21)
(0.063625018 -0.021875475 1.6921586e-21)
(0.064219841 -0.023937111 8.9887785e-23)
(0.065241198 -0.026069073 -2.9395012e-21)
(0.066135464 -0.027887702 -3.5541335e-21)
(0.067022067 -0.030715692 -7.6828537e-22)
(0.087065642 -0.00057411782 5.3439638e-23)
(0.087537923 -0.00018460097 1.0687986e-21)
(0.09136088 -2.9892816e-05 0)
(0.091456195 0.00027312249 4.7249916e-21)
(0.091759781 0.00085554357 5.0698894e-21)
(0.092510438 0.0015007416 -3.2664308e-23)
(0.093499764 0.0021189577 -4.4288616e-24)
(0.094821531 0.0026398286 -3.6465958e-21)
(0.096335081 0.0030067374 2.6828014e-21)
(0.097619382 0.0033205084 0)
(0.098362425 0.0035644722 -1.079887e-22)
(0.097973801 0.0039057824 -7.029109e-22)
(0.096073895 0.0044239131 6.2251054e-22)
(0.091814793 0.0052651587 4.3067479e-22)
(0.084679559 0.0064933543 -5.3222134e-23)
(0.075623439 0.0081064066 2.5809161e-21)
(0.068798037 0.0097133363 2.0074237e-22)
(0.068386667 0.01053354 -4.507184e-22)
(0.072458407 0.010183021 -4.6102679e-21)
(0.076372365 0.0094737686 0)
(0.078091785 0.0088730339 -2.0390895e-21)
(0.077829012 0.0086268871 -8.728914e-22)
(0.076835833 0.0085051373 1.4804264e-22)
(0.075538534 0.0086157561 -5.4356275e-24)
(0.07411944 0.0086597341 -1.623679e-21)
(0.072846929 0.0086064915 1.4624373e-22)
(0.071790547 0.0085444669 2.983146e-22)
(0.070771258 0.0083101132 3.489831e-21)
(0.069739851 0.0079830875 -3.9504898e-21)
(0.068864826 0.0077254377 -6.430509e-22)
(0.06816846 0.0074152422 6.4061355e-22)
(0.06756592 0.0070527702 1.2482242e-21)
(0.067046758 0.0065483322 -1.7419431e-21)
(0.066520544 0.0059579405 -4.1671354e-22)
(0.06598618 0.005252961 -9.4738353e-22)
(0.065374921 0.0044906432 -1.232078e-21)
(0.064787816 0.003599373 6.3271022e-22)
(0.064167467 0.0025967932 -5.2521163e-23)
(0.063704343 0.0014212037 -6.2082988e-22)
(0.063263949 0.00013106808 1.8421007e-21)
(0.063048206 -0.0013445568 7.4678668e-22)
(0.062854213 -0.0029456745 -5.6098057e-23)
(0.062863927 -0.0046347639 6.387027e-23)
(0.062856136 -0.0064392074 7.2416177e-22)
(0.062996962 -0.0082669864 2.1040454e-21)
(0.063039964 -0.010068228 -2.3972642e-22)
(0.063279618 -0.011975058 -1.3312884e-21)
(0.063411243 -0.013878288 -4.1073852e-23)
(0.063700023 -0.015761427 5.0931157e-23)
(0.064068819 -0.017632104 2.7059713e-22)
(0.064504533 -0.019636536 -9.3344105e-22)
(0.065363524 -0.021434152 -2.2915194e-21)
(0.065805576 -0.023502639 2.2740824e-22)
(0.067105376 -0.025122403 1.2397459e-21)
(0.067590437 -0.02780556 1.211097e-21)
(0.087510355 -0.00036304787 6.0830982e-25)
(0.087897093 6.7219437e-05 0)
(0.091602242 0.00014008727 3.723174e-21)
(0.091626404 0.00038399345 0)
(0.091893702 0.00092468738 7.6641775e-21)
(0.092633859 0.0015346807 9.7400283e-24)
(0.093613657 0.0021129944 6.0320173e-24)
(0.094905458 0.0025971814 -7.847865e-24)
(0.096375197 0.0029380881 -2.3310176e-21)
(0.097627842 0.0031855657 -7.9758751e-22)
(0.098369556 0.0034142611 -6.6826473e-23)
(0.098012351 0.0037355546 -5.1669707e-22)
(0.096174085 0.0042108094 -2.2161194e-22)
(0.092023201 0.0050375348 -2.6581901e-21)
(0.084999207 0.0062667094 -1.3911597e-21)
(0.075925459 0.0078234108 -2.1726572e-21)
(0.068870483 0.0093126354 1.1085793e-21)
(0.068217534 0.010205482 -2.7138342e-21)
(0.072239311 0.0098819882 0)
(0.076232231 0.0092105999 1.2505793e-21)
(0.078044559 0.0085510502 -5.5060247e-23)
(0.077846626 0.0083003001 2.5034446e-23)
(0.076887393 0.0082479541 1.2701734e-22)
(0.075591365 0.0082440939 -5.4195375e-23)
(0.074230394 0.0083630076 -7.020549e-23)
(0.073009745 0.0083657776 1.9610454e-21)
(0.071980443 0.0082206537 -7.3184471e-22)
(0.071065526 0.0081200586 -8.7794688e-22)
(0.070121194 0.0078553872 1.2383639e-21)
(0.069258549 0.007515724 1.8648906e-21)
(0.068572306 0.0071440179 1.835653e-24)
(0.068015822 0.0067770369 -6.0315176e-22)
(0.067557862 0.0063087751 -2.9559975e-22)
(0.067093488 0.0057607018 7.0024657e-22)
(0.066613255 0.0051029568 -7.1728247e-22)
(0.066071235 0.0043734839 -1.0337502e-21)
(0.065531683 0.0035097547 1.1500707e-21)
(0.065024838 0.0024965216 -1.0670299e-21)
(0.064641874 0.0013218081 5.2974598e-23)
(0.064272275 3.0032538e-05 -5.1945631e-23)
(0.064028761 -0.0013316745 -1.5762745e-21)
(0.063848265 -0.0028232212 -1.9249373e-21)
(0.063803059 -0.0044189633 0)
(0.063827621 -0.0061005606 6.2823401e-22)
(0.063968884 -0.0078047308 1.1031273e-22)
(0.064207498 -0.0096276776 -2.9653643e-22)
(0.064437476 -0.011415346 -1.6586658e-21)
(0.064793182 -0.013199079 -2.3506417e-24)
(0.065056044 -0.015008769 0)
(0.065668692 -0.016769722 -2.3871982e-24)
(0.065853927 -0.01859795 -5.4522894e-22)
(0.06683326 -0.020185346 2.4988794e-22)
(0.067157555 -0.022220025 5.4156372e-22)
(0.068366863 -0.023513131 5.0463852e-22)
(0.068667184 -0.025843166 9.8721995e-22)
(0.087956593 -0.00022567162 5.6291545e-23)
(0.088262536 0.00024363135 -2.050524e-22)
(0.091818879 0.00028149065 1.7241676e-23)
(0.091762386 0.00051810509 6.3963593e-23)
(0.091993896 0.0010072466 4.0120577e-23)
(0.092717828 0.0015652448 -1.1052381e-23)
(0.093684623 0.0020985017 -7.1277355e-24)
(0.094944648 0.0025399363 3.001366e-21)
(0.096376843 0.0028416624 -3.3612585e-25)
(0.09761731 0.0030628039 -6.1139472e-22)
(0.098366396 0.0032466322 -2.428773e-24)
(0.098061144 0.0035808174 7.1359472e-24)
(0.096302052 0.004034465 -2.2242466e-21)
(0.092251975 0.0047893114 1.3445254e-21)
(0.085330065 0.0059606934 -1.2248578e-21)
(0.076261825 0.0075050849 -1.3543763e-23)
(0.068989539 0.0089277037 -2.5619176e-23)
(0.068077884 0.0097874596 -4.2461538e-23)
(0.072046785 0.0095098354 4.6256421e-21)
(0.076138216 0.0088415445 0)
(0.078081408 0.0082277765 5.7249566e-22)
(0.077927298 0.0078812402 0)
(0.07700913 0.0079107025 1.1494313e-21)
(0.075754938 0.0079362637 -2.1884826e-21)
(0.074405987 0.0080018662 -7.8700501e-23)
(0.073257018 0.0080831138 7.618108e-22)
(0.0722875 0.0079327851 2.0166267e-21)
(0.071400846 0.0077344389 -8.1000333e-22)
(0.070536437 0.0075635809 1.3965836e-21)
(0.069753457 0.0073238438 -1.9792643e-22)
(0.069091667 0.0069485201 1.5859223e-23)
(0.068540555 0.0065512529 -6.0542861e-22)
(0.068097636 0.0061000969 2.5677536e-21)
(0.06768704 0.0056218197 6.7794455e-22)
(0.067249969 0.0050488259 -2.2534599e-21)
(0.066771968 0.0044244589 5.321926e-23)
(0.066273875 0.0036676222 5.9434844e-22)
(0.065819887 0.00277129 -1.2128001e-21)
(0.065430893 0.0017508892 6.3992702e-22)
(0.065122475 0.00060469631 -2.125209e-21)
(0.064891808 -0.00067344756 -7.2931378e-22)
(0.064805792 -0.0020650667 8.5699737e-22)
(0.064747444 -0.0035584102 8.0213111e-22)
(0.06481816 -0.0051195059 1.7006341e-21)
(0.064882964 -0.0067737368 -1.0858689e-21)
(0.065130413 -0.0083946278 -2.2456325e-21)
(0.065299294 -0.010123386 -1.0008168e-21)
(0.06569767 -0.011813354 5.2684962e-22)
(0.065948227 -0.013579605 5.8803618e-22)
(0.06659435 -0.015194386 -5.4685752e-23)
(0.066861063 -0.017081315 2.7307031e-22)
(0.067926581 -0.018649153 7.1165831e-22)
(0.068125327 -0.020420326 -3.9452621e-23)
(0.06941311 -0.02187418 2.3024554e-23)
(0.069816839 -0.024045322 1.6415561e-21)
(0.08830912 -3.6532963e-05 4.2585799e-22)
(0.088567824 0.00047366678 0)
(0.092019089 0.00042363277 -7.6211321e-21)
(0.091876096 0.00060995803 -4.7830626e-21)
(0.092064165 0.0010595544 0)
(0.09276995 0.0015718749 4.5339559e-21)
(0.093723663 0.0020754962 0)
(0.094961272 0.0024852892 0)
(0.096366314 0.0027297448 2.3058598e-21)
(0.097603615 0.0029371015 -6.7584082e-22)
(0.098365266 0.0030886888 -3.2026751e-23)
(0.09810178 0.0033843727 2.4587511e-22)
(0.096422402 0.0038602468 6.9864715e-22)
(0.092483167 0.0045908368 4.8535557e-21)
(0.085659855 0.0056735872 4.1992833e-21)
(0.076594258 0.007140121 1.5719143e-21)
(0.069119218 0.0085528534 6.3456526e-22)
(0.06794132 0.0094209878 5.4723571e-21)
(0.071839164 0.0091584391 -2.2873735e-21)
(0.076007002 0.0084755404 1.2434768e-21)
(0.078086949 0.0078933331 -1.3805103e-21)
(0.07800053 0.0075795484 -3.2103586e-22)
(0.077086161 0.0075225651 -1.6624761e-22)
(0.075873641 0.0076256428 8.5162388e-23)
(0.074550923 0.0077062698 1.3370005e-22)
(0.073428882 0.0077238219 1.8496778e-22)
(0.072544332 0.0077034899 6.9897305e-22)
(0.071716071 0.0075240511 -9.1022539e-23)
(0.07086557 0.0072869766 -9.097875e-22)
(0.070135048 0.0070457895 0)
(0.069548482 0.0067517101 -2.758278e-22)
(0.069044137 0.0064000498 2.3211474e-23)
(0.06861855 0.0059798368 1.9096678e-22)
(0.068233996 0.0054829041 -2.5041486e-21)
(0.067818143 0.0049157758 -2.7194482e-21)
(0.067382002 0.0043008194 6.4481363e-22)
(0.066918525 0.0035820323 3.1487894e-22)
(0.066523716 0.0027316228 1.4549638e-21)
(0.066176485 0.0017638061 -1.1080967e-22)
(0.065949885 0.00066878163 4.2631293e-22)
(0.065740112 -0.00054671865 1.4940738e-21)
(0.065715494 -0.0018396953 7.8897928e-22)
(0.065701429 -0.0032636993 9.6410303e-22)
(0.065830732 -0.0047178563 7.1737396e-22)
(0.065890111 -0.0062449185 -1.3920292e-21)
(0.066169129 -0.0077902525 -1.3443646e-21)
(0.066373052 -0.0093837489 1.7350704e-21)
(0.066722179 -0.010893467 2.3886614e-22)
(0.066966436 -0.012517682 -1.8786191e-23)
(0.06761779 -0.014022249 -9.900887e-22)
(0.067880464 -0.015752981 -4.246185e-23)
(0.068770941 -0.017010751 -1.4934905e-21)
(0.06918417 -0.018964256 -9.8942776e-23)
(0.070385091 -0.02022985 -1.1555042e-21)
(0.070699988 -0.022133955 -1.7614909e-22)
(0.088761199 0.00010182044 0)
(0.088958218 0.0006093362 1.3624603e-22)
(0.092253459 0.00051491125 3.9848549e-21)
(0.091992604 0.00069460376 -7.665313e-23)
(0.09212826 0.0011055752 -3.7164919e-23)
(0.092810242 0.0015727332 4.1626842e-21)
(0.09374758 0.0020392125 0)
(0.094964992 0.0024115502 2.781432e-21)
(0.096346623 0.0026272939 -1.7867625e-21)
(0.097581437 0.0027922062 -1.8172629e-24)
(0.098362096 0.0029451536 1.0623921e-22)
(0.098140458 0.0032079462 -8.9372488e-22)
(0.096526271 0.003654515 5.7820991e-22)
(0.092704039 0.0043797029 -3.4901947e-21)
(0.085996841 0.0054328719 6.4717493e-23)
(0.07693942 0.0068002381 -5.7237062e-21)
(0.069246382 0.0081178871 6.766056e-22)
(0.067798349 0.0090359021 -1.316736e-21)
(0.071625414 0.0088242542 1.4030898e-21)
(0.075872309 0.0081714613 7.4495853e-22)
(0.078072234 0.0075325096 -6.5175836e-23)
(0.078073692 0.0072768212 -3.2628259e-22)
(0.077185088 0.0072066171 7.235689e-22)
(0.07598133 0.007260728 -6.853738e-24)
(0.07470561 0.0073945139 -7.7579599e-23)
(0.073601636 0.0074027914 1.7570467e-22)
(0.072739551 0.0073540458 -2.5635666e-22)
(0.072008974 0.0073028571 7.884478e-23)
(0.071237166 0.0071104017 -9.330484e-22)
(0.070517024 0.0067995078 -1.1282081e-21)
(0.069934213 0.006473502 -6.299407e-22)
(0.069462476 0.0061574478 -2.5085207e-23)
(0.069089534 0.0057931855 2.8930517e-23)
(0.068765364 0.0053768308 -1.3375505e-21)
(0.068386493 0.0048866342 -4.9148768e-23)
(0.067988088 0.0043424238 1.9895098e-21)
(0.067564028 0.0037211252 1.5786526e-21)
(0.067199 0.0029450839 3.8112036e-22)
(0.066870945 0.002079956 -3.2946284e-22)
(0.066673778 0.0010918033 4.8006436e-22)
(0.066499644 -1.2009528e-05 -1.1571897e-21)
(0.066511362 -0.0012417889 0)
(0.066534722 -0.00254901 1.0110339e-22)
(0.066691057 -0.0039288174 -8.1552841e-23)
(0.066835286 -0.0053678282 3.5242587e-22)
(0.067106783 -0.0068591871 3.7178391e-22)
(0.067297815 -0.0083072118 4.3371663e-22)
(0.067683808 -0.0098140228 1.4562074e-22)
(0.067958921 -0.011369325 5.1789911e-22)
(0.068510455 -0.012739146 0)
(0.068755726 -0.014345759 3.7292507e-22)
(0.069776284 -0.015720896 7.4756918e-22)
(0.07004125 -0.017408235 -1.1995485e-22)
(0.07104585 -0.018449839 6.0659621e-23)
(0.071571682 -0.020477151 -9.2828385e-23)
(0.089269285 0.0002796266 0)
(0.089396021 0.00081368644 -1.6641982e-21)
(0.092486707 0.00062144854 2.4953913e-23)
(0.092102827 0.00076034578 7.0403689e-23)
(0.092179568 0.0011318016 -4.0824704e-23)
(0.092833512 0.0015567496 9.8769066e-24)
(0.093756069 0.001985485 -1.1254853e-24)
(0.094956939 0.0023210678 2.4838517e-23)
(0.096323821 0.0025245572 2.3939947e-23)
(0.097557996 0.0026553021 -6.6526988e-24)
(0.098352567 0.0027842247 2.2123453e-23)
(0.098177607 0.0030623633 1.4551154e-21)
(0.096624787 0.0034660901 -1.0166723e-21)
(0.092906712 0.0041342694 -4.5603645e-21)
(0.086322114 0.0051619233 -9.8669694e-24)
(0.077303978 0.0065004754 -2.9750106e-21)
(0.069398515 0.0077235563 1.7578051e-21)
(0.067647952 0.0085915403 -6.317488e-21)
(0.071386718 0.0084625192 -6.0581501e-22)
(0.075726253 0.0078195081 -3.2342961e-21)
(0.078058743 0.0072082918 2.1870531e-24)
(0.078128643 0.0068796332 -1.2284134e-21)
(0.077278788 0.0068959268 -1.9450773e-22)
(0.076095005 0.0069357076 -4.4454189e-22)
(0.074830092 0.0070544183 2.3271521e-22)
(0.073775157 0.0071644797 6.1247483e-22)
(0.072935723 0.0070626565 -9.2711367e-23)
(0.072227224 0.0069426324 4.3557788e-22)
(0.071548103 0.0068315349 -1.7626955e-22)
(0.070916745 0.0066246404 -7.0443752e-22)
(0.070367529 0.0062871681 9.0763786e-22)
(0.069903487 0.0059153164 -4.1195019e-22)
(0.069530275 0.0055331809 -2.5746153e-23)
(0.069227442 0.0051409616 2.9159856e-23)
(0.068889344 0.0047027961 5.4714193e-22)
(0.068519426 0.0042042686 3.5389673e-22)
(0.068143813 0.0036450226 -4.0364415e-22)
(0.067822851 0.002933626 -3.2639305e-22)
(0.067536508 0.0021145608 -2.7782704e-22)
(0.067379991 0.0011731349 -1.4284114e-24)
(0.067255583 0.00012959396 4.648978e-22)
(0.067285886 -0.0010160922 -9.4394631e-22)
(0.067355627 -0.0022395168 1.1498883e-21)
(0.06753556 -0.0035016914 9.178794e-22)
(0.067685118 -0.0048646549 -9.9363989e-22)
(0.067964175 -0.0061786466 -9.856001e-22)
(0.068226125 -0.0075717081 6.6040067e-22)
(0.068609158 -0.0089354572 9.4685799e-22)
(0.068842846 -0.010280744 -3.3837535e-22)
(0.069417419 -0.011664788 1.1636209e-21)
(0.069749388 -0.013145096 1.0658219e-21)
(0.07054368 -0.014344153 7.9022395e-23)
(0.070869808 -0.015830515 -6.2450798e-22)
(0.071975574 -0.017162545 -4.9717934e-22)
(0.07232505 -0.018668895 2.5581493e-22)
(0.090360449 0.00041343672 -6.5144479e-23)
(0.090087922 0.00089581566 -1.3298185e-21)
(0.092623877 0.00063657404 -3.6964125e-21)
(0.092173164 0.00078147027 -4.402667e-21)
(0.092219005 0.0011240883 -4.2603447e-21)
(0.092844399 0.0015230965 -3.6571378e-21)
(0.093750631 0.0019237045 2.8960031e-21)
(0.09493744 0.0022339822 -2.1366918e-21)
(0.096292738 0.0024035064 2.8189502e-23)
(0.097532404 0.0025322373 3.8564339e-22)
(0.09833872 0.002626885 -5.8570365e-23)
(0.098205122 0.0029020099 3.377232e-22)
(0.096722817 0.0033105127 -1.6440497e-21)
(0.09310994 0.0039220063 -8.7816914e-22)
(0.086636984 0.0048591991 -1.102243e-21)
(0.077665849 0.0061441611 1.4708388e-21)
(0.069573755 0.0073595331 0)
(0.067509326 0.0081735884 2.6217922e-21)
(0.071137735 0.0080875428 -3.7014158e-21)
(0.075555002 0.00741619 6.717578e-22)
(0.078037199 0.0068796869 -3.8556875e-24)
(0.078188213 0.0065246529 -3.7518216e-22)
(0.077352675 0.0065290096 -1.9709423e-22)
(0.076205092 0.0066240288 5.9457147e-22)
(0.07494418 0.0067174071 1.0276919e-22)
(0.07391513 0.0067985673 8.5823677e-22)
(0.073149171 0.0068184985 3.942477e-22)
(0.072477348 0.0066843597 -2.6312195e-22)
(0.071804783 0.0065079366 4.9676926e-22)
(0.07122019 0.0063133674 7.0366931e-22)
(0.070738957 0.0060603075 -1.9960769e-23)
(0.070310384 0.0057536304 -2.7545489e-22)
(0.0699529 0.0054137157 -2.342975e-22)
(0.069668281 0.0050405165 -2.5118418e-23)
(0.069357923 0.0046146579 -3.293978e-22)
(0.069015589 0.0041486112 -2.5085202e-23)
(0.068674459 0.0036377338 1.5561045e-22)
(0.068392958 0.0030179558 -7.7263526e-22)
(0.068142142 0.0022846178 5.0274906e-22)
(0.068004398 0.0014679939 1.4665056e-21)
(0.067916279 0.00052544565 -1.3347112e-21)
(0.067970342 -0.00052245178 -9.5174571e-22)
(0.068059924 -0.001642161 1.2326134e-21)
(0.06829026 -0.0028371204 -4.8646025e-22)
(0.068497913 -0.0040888836 1.19077e-22)
(0.068776512 -0.0053599141 7.6574299e-22)
(0.069036148 -0.0066764895 -5.5933443e-22)
(0.069396809 -0.0079059004 -6.6813824e-22)
(0.069748423 -0.0093109918 1.6591153e-22)
(0.07022719 -0.010496664 -5.1124879e-23)
(0.070491731 -0.011928767 -2.0931692e-21)
(0.071369115 -0.012979687 -9.603129e-22)
(0.071759492 -0.014674932 3.7563252e-22)
(0.072562747 -0.015440371 -7.8261413e-22)
(0.072991812 -0.017158096 -2.2805939e-22)
(0.091295433 0.00052336837 -6.7419246e-23)
(0.090272205 0.00099144822 1.3931583e-21)
(0.092729159 0.00066727698 3.7593919e-21)
(0.092224878 0.00082483273 8.4084184e-21)
(0.092246304 0.0011284014 -5.0918015e-23)
(0.092847499 0.0014812668 -4.7772115e-23)
(0.093739897 0.0018602754 7.3382229e-24)
(0.094916457 0.0021508157 4.0700411e-23)
(0.096259452 0.0022851314 -1.6877672e-21)
(0.097501953 0.0024027622 5.3478915e-22)
(0.098322924 0.0025022813 -1.7297141e-23)
(0.098223628 0.0027319283 2.4409687e-22)
(0.0968064 0.003131674 3.1922862e-22)
(0.093310636 0.0037374445 5.1114601e-21)
(0.086961701 0.004608988 6.3145159e-21)
(0.078034633 0.0057844546 0)
(0.069756508 0.0069492305 0)
(0.06737575 0.0077735322 0)
(0.070885252 0.0077386544 2.6989827e-21)
(0.075369028 0.0070819425 3.6440691e-21)
(0.077988538 0.0065138255 2.1456417e-21)
(0.078246145 0.0062504362 -1.6516637e-22)
(0.077429171 0.0061772302 3.1288141e-22)
(0.076305791 0.0062729922 -9.7670886e-24)
(0.075077803 0.006424377 5.1203569e-22)
(0.074036615 0.0064398147 -7.6107808e-22)
(0.073282418 0.006456948 1.0472736e-21)
(0.072696109 0.0064453295 1.7421022e-22)
(0.072096414 0.0063217059 1.7620921e-21)
(0.071530107 0.0060642658 1.347224e-21)
(0.071061321 0.0057815086 -9.7486607e-22)
(0.070665399 0.0054947429 3.2156302e-22)
(0.070332776 0.0051849567 1.4552405e-22)
(0.070086753 0.0048549353 -1.4716861e-22)
(0.069821704 0.0044908818 2.3587343e-22)
(0.069503007 0.0040581469 -1.3814228e-22)
(0.069188303 0.0035896661 -7.7331973e-23)
(0.068936013 0.0030183141 -3.6794637e-22)
(0.068712062 0.0023493038 7.5662281e-22)
(0.06860439 0.0015779654 -6.0358869e-22)
(0.068558443 0.00068308777 -3.9124219e-22)
(0.068627449 -0.00028202111 1.402071e-21)
(0.06875677 -0.0013451104 -8.2103952e-23)
(0.068984907 -0.0024436244 -4.4447546e-22)
(0.069209041 -0.0035757676 1.1547952e-22)
(0.069525666 -0.0047409015 -5.1652781e-22)
(0.0697917 -0.005936656 -3.1688534e-22)
(0.070205878 -0.0071365104 -3.4095251e-23)
(0.070481689 -0.008322507 -4.1742248e-22)
(0.071017314 -0.0094791546 -4.9253389e-22)
(0.071297506 -0.010785439 -1.1049791e-21)
(0.072129119 -0.011902763 1.4154104e-21)
(0.07237918 -0.013134939 -1.1392781e-21)
(0.073308639 -0.014125714 4.8187163e-22)
(0.073798281 -0.015708341 -1.2539007e-21)
(0.09261012 0.00060558512 1.1093227e-21)
(0.090346843 0.00090273505 1.4195564e-21)
(0.092813807 0.00061641832 -3.6479122e-21)
(0.092258146 0.00079656452 3.9692572e-21)
(0.092263532 0.0010761636 3.8048541e-21)
(0.092850329 0.0014100572 3.2093325e-21)
(0.093731022 0.0017787362 -5.5151537e-24)
(0.094897368 0.0020521347 -2.0513885e-21)
(0.096227156 0.0021772034 1.3456536e-21)
(0.097467621 0.0022701554 9.6575426e-24)
(0.098304587 0.0023753307 8.9680552e-23)
(0.098244418 0.0025891663 8.0499786e-22)
(0.096881843 0.0029448142 2.6568293e-21)
(0.093497953 0.0035189479 9.2026717e-23)
(0.087285942 0.0043685061 9.2281884e-21)
(0.078423247 0.0054822094 6.7448398e-21)
(0.069958486 0.0065396472 1.8156775e-21)
(0.067240521 0.007328553 -2.4133139e-21)
(0.070611984 0.0073666331 -3.0449455e-21)
(0.075176771 0.0067640424 4.775817e-21)
(0.077928145 0.0061799121 0)
(0.078292964 0.005889207 4.3208463e-22)
(0.077519639 0.0058581619 -3.5050821e-23)
(0.076389915 0.0059150282 -9.7222684e-23)
(0.075188111 0.0060907886 -1.225719e-23)
(0.074189416 0.0061946591 -3.9203677e-22)
(0.073427169 0.0061429924 1.6737795e-22)
(0.072844311 0.0060784197 6.2674309e-22)
(0.072320048 0.0060335101 3.0241801e-22)
(0.071834143 0.0058676974 -1.1546119e-21)
(0.071396326 0.0055759646 3.491932e-23)
(0.071010363 0.0052599426 5.7474344e-22)
(0.070682196 0.0049280746 4.1631715e-22)
(0.070435266 0.0046051192 6.2426525e-23)
(0.070207146 0.0043003435 -7.5524895e-22)
(0.069930704 0.0039418992 1.3796111e-21)
(0.069645375 0.0035439443 1.4437191e-22)
(0.069427563 0.0030648837 3.8982725e-22)
(0.069239564 0.0024724291 -2.1278766e-22)
(0.069157347 0.0017839161 -7.6831699e-22)
(0.069135036 0.00098570837 9.2518542e-22)
(0.069228934 0.00010138495 -7.8806609e-23)
(0.069369877 -0.00088894626 -1.2561473e-21)
(0.06962032 -0.0018712275 5.7887217e-22)
(0.069878995 -0.0029548777 2.9617411e-22)
(0.070207391 -0.0040327008 -1.4873783e-22)
(0.070510622 -0.005164663 -4.7758191e-22)
(0.070856842 -0.0062403469 -3.8506737e-22)
(0.071237816 -0.0074152593 1.9547208e-22)
(0.071704325 -0.0084707757 -4.8015798e-22)
(0.072028865 -0.0096899641 -2.0753186e-22)
(0.072728403 -0.010683336 1.3379197e-21)
(0.07309101 -0.011817272 2.3585731e-22)
(0.073993345 -0.013073485 -1.5864694e-21)
(0.074340868 -0.013987445 2.4964965e-21)
(0.09235937 0.00054445067 -1.4160375e-22)
(0.090446312 0.00090052153 -2.4982601e-21)
(0.092886067 0.00062665006 -3.5584039e-21)
(0.09229136 0.00082369572 -3.9308489e-21)
(0.092282918 0.0010632106 -4.4142305e-23)
(0.092849128 0.0013612184 -1.9560158e-23)
(0.093717786 0.0017084578 5.0209268e-23)
(0.094873185 0.0019571279 -1.8175773e-21)
(0.096190285 0.0020773368 2.7086087e-21)
(0.097430587 0.0021497838 2.2845846e-22)
(0.098278239 0.00222582 2.0482798e-23)
(0.098258213 0.0024512308 3.6459503e-22)
(0.096956 0.0027860985 1.5473265e-21)
(0.093678543 0.0032949688 -7.6227394e-22)
(0.08759854 0.0040788761 -1.0630318e-20)
(0.078820079 0.0051534612 1.5471064e-21)
(0.070194373 0.0061775365 4.8521833e-24)
(0.067120153 0.006883415 -1.9247448e-21)
(0.070319445 0.0069724939 -5.4065166e-21)
(0.07495222 0.0063571264 -6.028047e-22)
(0.077863601 0.0058542991 3.0779681e-21)
(0.078331133 0.0054747166 4.4210235e-22)
(0.077592164 0.0054901635 8.4202422e-22)
(0.07649126 0.0055949408 -9.2807245e-23)
(0.075274896 0.0057117056 -2.6407727e-22)
(0.074294144 0.0058352929 0)
(0.073587801 0.0058906277 8.2298812e-22)
(0.073020066 0.0057948335 -4.792199e-22)
(0.072497674 0.0056834856 -3.5392997e-22)
(0.072062535 0.0055510768 1.1894795e-25)
(0.071690605 0.0053170779 5.4157726e-22)
(0.071350198 0.0050523093 -6.4172194e-22)
(0.071042916 0.0047555517 9.7953568e-22)
(0.070798716 0.004450738 -2.1784804e-21)
(0.070582357 0.0041413139 -1.0550823e-21)
(0.070334169 0.0038036094 -2.2527909e-25)
(0.070074848 0.0034139175 6.5911085e-22)
(0.06988661 0.0029773585 1.3796103e-21)
(0.069732631 0.0024476665 -1.2979278e-22)
(0.069671737 0.0018203579 -8.2083264e-22)
(0.069682369 0.0010955747 9.077359e-23)
(0.06979897 0.00028836068 -1.1937235e-22)
(0.069950216 -0.00059593594 0)
(0.070196195 -0.0015134378 -2.2146975e-22)
(0.070480479 -0.0024884224 9.9605685e-22)
(0.070829618 -0.0034894684 -6.3933212e-22)
(0.071131653 -0.0044822116 -1.010486e-21)
(0.071544443 -0.0055369938 3.9442971e-22)
(0.07185796 -0.0065744581 5.088129e-22)
(0.072363886 -0.0075300696 -1.0246651e-21)
(0.072700743 -0.0087254986 4.7503981e-22)
(0.073317146 -0.0094572007 6.2769455e-22)
(0.073818589 -0.010935885 0)
(0.074435284 -0.011453489 1.1607375e-21)
(0.074861032 -0.012824181 -7.6584986e-22)
(0.092998476 0.00066691843 -1.5951626e-21)
(0.090481606 0.00076885895 1.10226e-22)
(0.09293679 0.0005342106 6.850919e-21)
(0.092302156 0.00075135329 3.7582282e-21)
(0.092286602 0.00097106341 -3.502464e-21)
(0.09284505 0.0012617131 -5.6530021e-21)
(0.09370722 0.0016152334 -2.1509058e-21)
(0.094852853 0.0018553295 1.4548829e-21)
(0.096155677 0.001957881 -2.6352854e-23)
(0.097396748 0.0020284427 5.3268969e-22)
(0.09825317 0.0020898285 1.6940245e-22)
(0.098265195 0.0022976359 4.83167e-24)
(0.097026512 0.0026337266 -8.2271247e-22)
(0.093862157 0.0031191043 -1.7956817e-21)
(0.08791287 0.0038128759 -1.5590066e-20)
(0.079214273 0.0047835351 -3.4317347e-21)
(0.070445847 0.0057875334 -2.578235e-21)
(0.067018126 0.0064682094 1.9033702e-21)
(0.070033637 0.0066020452 -8.2778899e-22)
(0.07471438 0.0059798348 -6.858804e-21)
(0.077778633 0.0054795159 9.1032262e-23)
(0.078376465 0.0051862817 6.2500006e-22)
(0.077651582 0.0051303429 2.7383919e-25)
(0.076579957 0.0052557839 -3.9183532e-22)
(0.075393399 0.0054252249 0)
(0.074387919 0.0054637653 1.0720769e-22)
(0.073686986 0.0055216249 -1.56286e-23)
(0.073182077 0.0055381958 2.2279809e-22)
(0.072701949 0.0054595525 9.108516e-22)
(0.072289045 0.0052836647 -4.1919921e-22)
(0.071938598 0.0050306387 -4.6665848e-22)
(0.07162397 0.0047724607 -1.1168575e-22)
(0.071345779 0.0045176747 -6.4695768e-22)
(0.071121713 0.0042513228 9.0788105e-22)
(0.070936035 0.003994994 2.3716081e-22)
(0.070723257 0.0037074872 3.2611616e-22)
(0.070483388 0.003365587 -1.4511028e-22)
(0.070305531 0.0029872032 7.2644445e-22)
(0.070180371 0.0025338654 -1.71188e-23)
(0.070139578 0.0019628832 -3.4537497e-22)
(0.070164554 0.0013224713 -1.05224e-21)
(0.07029894 0.00059179717 -9.1777633e-22)
(0.070471989 -0.00021069191 -9.2740374e-23)
(0.070732672 -0.0010589535 1.2103688e-22)
(0.071030713 -0.0019732488 7.4645668e-24)
(0.071380575 -0.0028580073 -3.6048974e-23)
(0.071734299 -0.0038340869 1.0118761e-21)
(0.072106578 -0.0047523633 0)
(0.072465511 -0.0057042965 1.2522044e-22)
(0.072960655 -0.0067090878 -7.7045561e-25)
(0.073240226 -0.0076016398 2.0074407e-21)
(0.074000666 -0.0086063148 -2.7772573e-23)
(0.074244571 -0.0095590891 1.8415334e-22)
(0.075010707 -0.010348562 2.2604516e-22)
(0.075517697 -0.011556972 -1.8207042e-21)
(0.09161967 0.00055653353 7.5257422e-23)
(0.090521859 0.00074422505 -1.4521845e-21)
(0.092968408 0.00051748122 -8.8460793e-23)
(0.092316795 0.00076372455 1.3763204e-22)
(0.092296886 0.0009473216 3.442617e-21)
(0.092837202 0.0012107152 -2.7543925e-21)
(0.093689658 0.0015457948 -2.4980058e-23)
(0.094827539 0.0017788475 1.38585e-21)
(0.096115425 0.001851237 -9.1792733e-22)
(0.097355044 0.0019080441 -2.5284501e-22)
(0.098222621 0.001969263 -2.7307849e-22)
(0.098264981 0.0021412041 -4.8350835e-22)
(0.097082893 0.0024514668 1.3425551e-21)
(0.094034022 0.0029189794 7.2361026e-22)
(0.088234541 0.0035834072 -1.1569359e-22)
(0.079625896 0.0044650812 -1.5830718e-21)
(0.070712223 0.0053697824 0)
(0.066919509 0.0060350584 1.9606968e-21)
(0.069726652 0.0062050322 9.7702916e-21)
(0.074459108 0.0056644464 3.8882481e-21)
(0.077656381 0.0051139605 -1.1483839e-21)
(0.078395344 0.0048613602 4.7225403e-22)
(0.077734099 0.004814406 3.9515492e-25)
(0.076653184 0.0048720557 -1.3681777e-22)
(0.075491257 0.0050749774 -1.3498667e-22)
(0.074516135 0.0051796719 0)
(0.073787341 0.0051674212 -6.5065884e-23)
(0.07327816 0.0051689552 1.8046127e-22)
(0.072856049 0.0051512052 6.8744947e-22)
(0.072509706 0.0050423284 -4.3840604e-22)
(0.072204195 0.0048192237 9.0006234e-22)
(0.071906454 0.0045284681 -1.765395e-23)
(0.071636134 0.0042417941 -7.4781113e-23)
(0.071411911 0.0039664568 -6.0931587e-25)
(0.071234504 0.0037284594 -6.937087e-22)
(0.071060707 0.003497101 -2.7251512e-22)
(0.070853802 0.0032150228 1.6797536e-21)
(0.070693389 0.002890381 -5.8328237e-23)
(0.07060331 0.0024946935 -4.9749857e-22)
(0.070583811 0.0019948311 0)
(0.070629905 0.0014123935 2.4127563e-22)
(0.070775252 0.00074140726 -1.8760713e-22)
(0.070959721 1.7539811e-05 1.1913738e-21)
(0.071223752 -0.00076820487 3.8287406e-22)
(0.071512764 -0.0015692123 -5.7217346e-22)
(0.071893847 -0.0024055238 -6.734052e-22)
(0.072235338 -0.0032501151 -4.3538578e-22)
(0.072627527 -0.0040722431 8.702985e-22)
(0.073036029 -0.0050628736 7.1978552e-22)
(0.073448777 -0.0057599294 1.7567852e-21)
(0.073853149 -0.0068373303 -1.165302e-22)
(0.074429181 -0.0075489832 -2.170852e-21)