/*--------------------------------*- C++ -*----------------------------------*\
| =========                 |                                                 |
| \\      /  F ield         | OpenFOAM: The Open Source CFD Toolbox           |
|  \\    /   O peration     | Version:  2406                                  |
|   \\  /    A nd           | Website:  www.openfoam.com                      |
|    \\/     M anipulation  |                                                 |
\*---------------------------------------------------------------------------*/
FoamFile
{
    version     2.0;
    format      ascii;
    arch        "LSB;label=32;scalar=64";
    class       volScalarField;
    location    "65";
    object      alphat;
}
// * * * * * * * * * * * * * * * * * * * * * * * * * * * * * * * * * * * * * //

dimensions      [1 -1 -1 0 0 0 0];

internalField   nonuniform List<scalar> 
20580
(
8.9217683e-07
8.679346e-07
8.5226758e-07
8.4539761e-07
8.4371903e-07
8.3426464e-07
8.3223759e-07
8.2908639e-07
8.2720563e-07
8.2425474e-07
8.2371851e-07
8.2312821e-07
8.1952111e-07
8.1744655e-07
8.1221472e-07
8.0759856e-07
8.0311024e-07
8.0286973e-07
8.0033569e-07
7.9891958e-07
8.044581e-07
8.1139074e-07
8.0008467e-07
8.1634187e-07
8.2997696e-07
8.3742714e-07
8.5330453e-07
8.7854423e-07
8.9415245e-07
9.2298017e-07
9.8277098e-07
8.922363e-07
8.924764e-07
8.6512149e-07
8.4994266e-07
8.4568393e-07
8.3403194e-07
8.3367773e-07
8.3062729e-07
8.2921192e-07
8.2646661e-07
8.2646611e-07
8.2563778e-07
8.2110091e-07
8.1966414e-07
8.1370631e-07
8.086466e-07
8.0423941e-07
8.0532702e-07
7.976369e-07
8.0529989e-07
8.0851508e-07
8.150241e-07
8.0764746e-07
8.1909812e-07
8.3159523e-07
8.3926951e-07
8.5366078e-07
8.911256e-07
9.080793e-07
9.2288923e-07
9.7823753e-07
8.9142804e-07
9.0724165e-07
8.7684974e-07
8.6017349e-07
8.5056748e-07
8.3766437e-07
8.332701e-07
8.3105316e-07
8.2911731e-07
8.2858577e-07
8.2747297e-07
8.2889041e-07
8.2188558e-07
8.2344522e-07
8.1508515e-07
8.108291e-07
8.0538018e-07
8.0685315e-07
7.9501384e-07
8.0632982e-07
8.0856339e-07
8.113337e-07
8.1423074e-07
8.1692522e-07
8.3085262e-07
8.3731067e-07
8.4818075e-07
8.8572117e-07
9.153076e-07
9.2352162e-07
9.6395197e-07
8.9146999e-07
9.1127078e-07
8.830469e-07
8.6901543e-07
8.5510044e-07
8.4293863e-07
8.3561697e-07
8.3195452e-07
8.2822749e-07
8.293883e-07
8.2673777e-07
8.2849032e-07
8.2271368e-07
8.2478519e-07
8.1793516e-07
8.1245325e-07
8.0921471e-07
8.0832329e-07
7.9642679e-07
8.0579851e-07
8.0839253e-07
8.0681862e-07
8.1622747e-07
8.1580339e-07
8.291965e-07
8.3820667e-07
8.4934664e-07
8.7251732e-07
9.0778573e-07
9.1712112e-07
9.4961389e-07
8.9076027e-07
9.1559997e-07
8.9511599e-07
8.8613224e-07
8.6590336e-07
8.5267034e-07
8.4255725e-07
8.3626057e-07
8.2944671e-07
8.3076559e-07
8.2710265e-07
8.270919e-07
8.2317452e-07
8.2351575e-07
8.1911438e-07
8.1396445e-07
8.1125388e-07
8.1007476e-07
8.0201934e-07
8.0744325e-07
8.0930572e-07
8.0564809e-07
8.1724992e-07
8.1592119e-07
8.2846131e-07
8.4174594e-07
8.5648535e-07
8.7092625e-07
9.0507293e-07
9.2303047e-07
9.362956e-07
8.9014397e-07
9.2079042e-07
8.9909323e-07
9.0342877e-07
8.8970363e-07
8.7372195e-07
8.5568571e-07
8.4434563e-07
8.3514518e-07
8.3332872e-07
8.2913889e-07
8.2664249e-07
8.2406195e-07
8.2191973e-07
8.1797183e-07
8.1414301e-07
8.1070718e-07
8.067691e-07
8.0774837e-07
8.0757078e-07
8.096953e-07
8.0785053e-07
8.2008601e-07
8.1654991e-07
8.2504399e-07
8.4357997e-07
8.5819699e-07
8.7461541e-07
8.9923742e-07
9.3859104e-07
9.4969837e-07
8.8928142e-07
9.2324947e-07
9.0192649e-07
9.0556925e-07
8.9621147e-07
8.9047132e-07
8.7816048e-07
8.6441857e-07
8.505282e-07
8.4328455e-07
8.3747215e-07
8.3160972e-07
8.2928682e-07
8.2400182e-07
8.1941004e-07
8.1510284e-07
8.1102556e-07
8.0288474e-07
8.0940475e-07
8.0762517e-07
8.0602669e-07
8.0899015e-07
8.2025079e-07
8.1625127e-07
8.1900862e-07
8.3963169e-07
8.562052e-07
8.6700096e-07
8.8601067e-07
9.296195e-07
9.7054253e-07
8.9213381e-07
9.1708037e-07
8.9759334e-07
8.998664e-07
8.9518545e-07
8.9189202e-07
8.9308199e-07
8.9236538e-07
8.8757293e-07
8.7593572e-07
8.6288308e-07
8.4927052e-07
8.4319051e-07
8.3288591e-07
8.2530687e-07
8.1939484e-07
8.1423213e-07
8.0302662e-07
8.1054712e-07
8.0865815e-07
8.0447195e-07
8.064983e-07
8.1917054e-07
8.1759679e-07
8.1542396e-07
8.3087027e-07
8.4805018e-07
8.5072032e-07
8.6313225e-07
8.9381402e-07
9.6103838e-07
9.0674421e-07
9.4103766e-07
9.0779338e-07
8.9654826e-07
8.9355848e-07
8.9285788e-07
9.0148195e-07
9.0498582e-07
9.1267013e-07
9.1320208e-07
9.1278297e-07
9.0064656e-07
8.9025191e-07
8.7030184e-07
8.5341385e-07
8.3749891e-07
8.2685144e-07
8.1029659e-07
8.1399131e-07
8.1059868e-07
8.0660361e-07
8.0816461e-07
8.1709842e-07
8.2265336e-07
8.1892857e-07
8.283374e-07
8.4562854e-07
8.5313478e-07
8.5666828e-07
8.7123563e-07
9.2302559e-07
9.9257795e-07
1.037439e-06
9.5680221e-07
9.1774124e-07
9.0405084e-07
8.9757877e-07
9.0445302e-07
9.0790541e-07
9.1424291e-07
9.1796968e-07
9.2094353e-07
9.2258856e-07
9.2148401e-07
9.1319708e-07
9.0089193e-07
8.8930861e-07
8.7232915e-07
8.4919051e-07
8.3638238e-07
8.2539933e-07
8.1655052e-07
8.1427119e-07
8.1643952e-07
8.2493556e-07
8.2959442e-07
8.3028812e-07
8.4399647e-07
8.5892606e-07
8.7093768e-07
8.830357e-07
9.1521985e-07
9.2312541e-07
1.0388634e-06
1.0613761e-06
1.0105496e-06
9.662686e-07
9.3670231e-07
9.2748519e-07
9.2414167e-07
9.2493086e-07
9.2753738e-07
9.2998426e-07
9.3023741e-07
9.2705369e-07
9.2154993e-07
9.1295449e-07
9.0257897e-07
8.9085137e-07
8.7891195e-07
8.6998836e-07
8.5687441e-07
8.5165191e-07
8.4397396e-07
8.3346431e-07
8.3743861e-07
8.4768567e-07
8.4657415e-07
8.5121958e-07
8.6877951e-07
8.9580386e-07
9.1430712e-07
9.3314207e-07
8.3498884e-07
9.3142492e-07
1.016005e-06
1.0810298e-06
1.1324945e-06
1.1357901e-06
1.1138121e-06
1.0799414e-06
1.0513654e-06
1.0257409e-06
1.0039096e-06
9.841972e-07
9.6489255e-07
9.4774215e-07
9.3258609e-07
9.1708863e-07
9.047768e-07
8.9342865e-07
8.8380539e-07
8.6919734e-07
8.6862031e-07
8.6381263e-07
8.5049458e-07
8.5153884e-07
8.6486071e-07
8.611171e-07
8.5650862e-07
8.6754844e-07
8.9754565e-07
9.2114047e-07
9.4282478e-07
8.7964213e-07
9.3736394e-07
9.5305037e-07
1.0324508e-06
1.1151135e-06
1.2216395e-06
1.3171908e-06
1.3835062e-06
1.405185e-06
1.3998842e-06
1.3692135e-06
1.313526e-06
1.2510849e-06
1.1779781e-06
1.107277e-06
1.0403963e-06
9.9041144e-07
9.5474245e-07
9.2734037e-07
9.0172108e-07
8.9658333e-07
8.9025541e-07
8.7236722e-07
8.6951036e-07
8.8281016e-07
8.7872927e-07
8.6794679e-07
8.7307494e-07
8.9708069e-07
9.2324733e-07
9.3610096e-07
9.2172668e-07
1.000144e-06
9.7047551e-07
9.8027056e-07
1.021482e-06
1.1172262e-06
1.214181e-06
1.30487e-06
1.3708061e-06
1.3986128e-06
1.4231215e-06
1.4288452e-06
1.4176459e-06
1.387519e-06
1.3517364e-06
1.2966229e-06
1.2450054e-06
1.1936547e-06
1.1378274e-06
1.0811047e-06
1.0419303e-06
1.0087973e-06
9.6544497e-07
9.4111274e-07
9.3770055e-07
9.2906967e-07
9.0706562e-07
9.0133475e-07
9.1294883e-07
9.3611418e-07
9.4613213e-07
8.8153695e-07
9.429095e-07
9.5084995e-07
9.7041947e-07
9.814885e-07
1.0181903e-06
1.065343e-06
1.110517e-06
1.1549674e-06
1.2007389e-06
1.2385048e-06
1.267047e-06
1.2788126e-06
1.2817074e-06
1.2732967e-06
1.2601712e-06
1.2328883e-06
1.2183495e-06
1.1989405e-06
1.183906e-06
1.168292e-06
1.1651757e-06
1.1498015e-06
1.139134e-06
1.1216655e-06
1.1154137e-06
1.0845553e-06
1.0605489e-06
1.0370903e-06
1.035169e-06
1.0214426e-06
8.7474485e-07
9.5626596e-07
9.488091e-07
9.6541832e-07
9.687342e-07
9.8837149e-07
1.0189557e-06
1.0439397e-06
1.0693488e-06
1.0947216e-06
1.1157847e-06
1.1335494e-06
1.1426518e-06
1.1391114e-06
1.1322375e-06
1.123695e-06
1.1209896e-06
1.1228072e-06
1.121595e-06
1.1327887e-06
1.1325437e-06
1.1394594e-06
1.1458289e-06
1.1564914e-06
1.1592255e-06
1.1713745e-06
1.1904368e-06
1.1989077e-06
1.1999306e-06
1.2036483e-06
1.2059471e-06
8.7285982e-07
8.909784e-07
9.1214004e-07
9.2661091e-07
9.3707141e-07
9.6062089e-07
9.8870172e-07
1.0074699e-06
1.025101e-06
1.0371263e-06
1.0452124e-06
1.0511061e-06
1.0537712e-06
1.0510677e-06
1.0474887e-06
1.0427412e-06
1.0347296e-06
1.031847e-06
1.0279424e-06
1.0411834e-06
1.0433723e-06
1.05012e-06
1.0769839e-06
1.1022161e-06
1.109065e-06
1.1223913e-06
1.1562994e-06
1.1873964e-06
1.1963418e-06
1.1951232e-06
1.2062191e-06
8.7896359e-07
9.6615477e-07
9.3911431e-07
9.3084214e-07
9.2871741e-07
9.3281852e-07
9.4734582e-07
9.6650926e-07
9.8642391e-07
1.0030262e-06
1.0123654e-06
1.0188305e-06
1.0219844e-06
1.0178057e-06
1.0080008e-06
1.0010641e-06
9.8938083e-07
9.8002689e-07
9.6884189e-07
9.7292227e-07
9.6965951e-07
9.6756358e-07
9.8681908e-07
1.0108208e-06
1.0117011e-06
1.0153549e-06
1.0441694e-06
1.0827687e-06
1.1084273e-06
1.1086462e-06
1.1351908e-06
8.8536357e-07
9.1092059e-07
9.1331742e-07
9.2187308e-07
9.2151728e-07
9.1512205e-07
9.1715323e-07
9.1914864e-07
9.2382225e-07
9.3418441e-07
9.4839119e-07
9.576132e-07
9.6943464e-07
9.7829891e-07
9.8206484e-07
9.8575838e-07
9.8094019e-07
9.7402317e-07
9.6371354e-07
9.6463537e-07
9.6032356e-07
9.5359064e-07
9.6424386e-07
9.8116134e-07
9.8121411e-07
9.8093828e-07
9.9841066e-07
1.0273786e-06
1.0526798e-06
1.053846e-06
1.0621702e-06
8.8616404e-07
9.255453e-07
9.1378668e-07
9.161538e-07
9.2035269e-07
9.1974572e-07
9.2467864e-07
9.2692602e-07
9.3134813e-07
9.3923067e-07
9.5218551e-07
9.6014916e-07
9.7283014e-07
9.8092913e-07
9.8518149e-07
9.919374e-07
9.967989e-07
1.0000275e-06
9.9657415e-07
1.0009746e-06
1.0011351e-06
1.0033473e-06
1.0146329e-06
8.4444026e-07
1.0405164e-06
1.0435524e-06
9.1629422e-07
7.3703137e-07
5.9466617e-07
1.0930705e-06
9.4095135e-07
8.8380799e-07
1.0050027e-06
1.0474401e-06
1.0719633e-06
1.1368377e-06
1.1709052e-06
1.191623e-06
1.2113497e-06
1.2331028e-06
1.253556e-06
1.2855105e-06
1.305743e-06
1.3351863e-06
1.3569275e-06
1.382978e-06
1.4046117e-06
1.4260668e-06
1.4334854e-06
1.4457142e-06
1.3688131e-06
1.4879455e-06
1.5034092e-06
1.5191857e-06
9.7084595e-07
1.1839575e-06
1.601933e-06
1.6123359e-06
1.3515465e-06
6.6355581e-07
8.7884286e-07
1.5377095e-06
1.0955536e-06
2.0180557e-06
2.0963556e-06
2.1742736e-06
2.3370423e-06
2.2830033e-06
2.3102766e-06
2.21786e-06
2.3650303e-06
2.2842799e-06
2.4826738e-06
2.4258409e-06
2.4297089e-06
2.5412373e-06
2.5133913e-06
2.6313285e-06
2.3108289e-06
2.700695e-06
2.7016476e-06
2.7978262e-06
2.1842604e-06
2.9070032e-06
2.9202276e-06
2.218701e-06
2.2863569e-06
3.0369984e-06
3.0451168e-06
2.5920761e-06
2.0392559e-06
2.0395184e-06
2.8996827e-06
1.0897808e-06
2.2789776e-06
2.7915038e-06
2.2105035e-06
2.0529116e-06
1.7843649e-06
1.9524362e-06
1.6648557e-06
1.9460204e-06
1.6266615e-06
1.9245544e-06
1.6134464e-06
1.9854875e-06
1.6301994e-06
2.0242533e-06
1.6967025e-06
2.2135393e-06
1.7488029e-06
2.1821851e-06
2.0041768e-06
2.5064942e-06
2.0335952e-06
2.2580002e-06
2.8852641e-06
3.0555984e-06
2.5037091e-06
2.2446558e-06
2.9077206e-06
2.8019116e-06
2.695722e-06
2.6362737e-06
2.4809077e-06
2.9772125e-06
1.6491719e-06
1.1212261e-06
1.0786345e-06
1.1384008e-06
1.2410922e-06
1.2539301e-06
1.0866891e-06
9.7089538e-07
9.4616054e-07
9.5397729e-07
9.6458866e-07
9.6513094e-07
9.7071371e-07
9.9500196e-07
1.0066551e-06
9.8561073e-07
9.6318848e-07
9.7949936e-07
1.0092949e-06
1.0202098e-06
1.0201719e-06
1.8975978e-06
2.2525446e-06
1.1091452e-06
9.734081e-07
1.1207352e-06
1.1677689e-06
1.2803977e-06
1.3048794e-06
1.1550893e-06
1.0066226e-06
9.6956395e-07
9.9529502e-07
1.0237916e-06
1.0199585e-06
9.9948945e-07
1.0050479e-06
1.0373909e-06
1.042697e-06
1.0443073e-06
1.0548132e-06
1.0788358e-06
1.1037445e-06
1.0774182e-06
1.542918e-06
1.8076929e-06
8.7282238e-07
8.3764321e-07
1.0521496e-06
1.1761675e-06
1.2787246e-06
1.3337147e-06
1.2486721e-06
1.0869559e-06
1.0345356e-06
1.0491309e-06
1.0714936e-06
1.0587388e-06
1.0258056e-06
1.0219429e-06
1.0649656e-06
1.0881343e-06
1.0971292e-06
1.1112278e-06
1.1176978e-06
1.1433124e-06
1.1407648e-06
8.7144675e-07
1.6103472e-06
1.4669892e-06
9.8187829e-07
8.1418947e-07
1.1877114e-06
1.2647917e-06
1.4046713e-06
1.388667e-06
1.21047e-06
1.1055149e-06
1.1036663e-06
1.1433369e-06
1.1239933e-06
1.0828152e-06
1.0730093e-06
1.1031852e-06
1.1511437e-06
1.1538801e-06
1.1460827e-06
1.1447154e-06
1.1824325e-06
1.190663e-06
2.1515827e-06
2.5080751e-06
2.9321047e-06
2.3942272e-06
1.4635687e-06
1.3304475e-06
1.3557281e-06
1.4915806e-06
1.5004424e-06
1.3640525e-06
1.1759542e-06
1.1347883e-06
1.1680228e-06
1.1785357e-06
1.1730804e-06
1.1651456e-06
1.1809495e-06
1.2336451e-06
1.2379233e-06
1.2110581e-06
1.1822898e-06
1.1886177e-06
1.2293632e-06
1.1200415e-06
3.4457883e-06
3.2000449e-06
2.6083404e-06
1.4304886e-06
1.2718637e-06
1.4738727e-06
1.5866069e-06
1.5941185e-06
1.4678986e-06
1.2358382e-06
1.1673408e-06
1.196848e-06
1.2463974e-06
1.2618246e-06
1.2581213e-06
1.2641295e-06
1.3167263e-06
1.3172116e-06
1.2884162e-06
1.2629657e-06
1.2588559e-06
1.3003844e-06
2.2893458e-06
3.8887088e-06
3.2163128e-06
1.4386481e-06
1.1341976e-06
1.5337401e-06
1.5355199e-06
1.6663306e-06
1.6758548e-06
1.5656237e-06
1.3444131e-06
1.2545283e-06
1.2821434e-06
1.3266411e-06
1.3286638e-06
1.3215509e-06
1.3147128e-06
1.3253157e-06
1.3629583e-06
1.3837031e-06
1.4060048e-06
1.4135079e-06
1.4257271e-06
1.6976132e-06
2.8080962e-06
2.0656531e-06
2.0403046e-06
1.3104765e-06
9.0818531e-07
1.2756992e-06
1.7094981e-06
1.7209305e-06
1.6401485e-06
1.4750257e-06
1.3817111e-06
1.3980327e-06
1.4382618e-06
1.4079717e-06
1.367235e-06
1.3409549e-06
1.3302866e-06
1.4071895e-06
1.4385186e-06
1.4572181e-06
1.4907555e-06
1.495868e-06
2.1157529e-06
3.5254756e-06
1.0438928e-06
5.5319376e-07
5.9417835e-07
1.4089006e-06
1.5026393e-06
1.7416601e-06
1.766013e-06
1.691362e-06
1.550254e-06
1.4766943e-06
1.4727194e-06
1.5409092e-06
1.5111088e-06
1.4524297e-06
1.4206947e-06
1.4122583e-06
1.4678918e-06
1.5017759e-06
1.4917335e-06
1.4962308e-06
1.5050996e-06
1.6640005e-06
2.8799542e-06
1.8431041e-06
6.9157968e-07
4.8123675e-07
6.1843139e-07
9.0031038e-07
1.5428849e-06
1.8669933e-06
1.7648167e-06
1.591471e-06
1.5128703e-06
1.5053434e-06
1.6007329e-06
1.6156588e-06
1.5873622e-06
1.5789223e-06
1.5722282e-06
1.5897999e-06
1.6512693e-06
1.6368214e-06
1.6044779e-06
1.5932294e-06
1.3219104e-06
2.8449771e-06
1.913429e-06
1.6938268e-06
1.0673218e-06
7.9354942e-07
9.5510293e-07
1.5310562e-06
2.0585001e-06
1.91758e-06
1.6733168e-06
1.564153e-06
1.5417923e-06
1.6256663e-06
1.6988939e-06
1.7151369e-06
1.7406076e-06
1.769685e-06
1.7771856e-06
1.8351002e-06
1.8066701e-06
1.719589e-06
1.6820585e-06
1.2700489e-06
4.4439797e-06
2.6674184e-06
1.7564992e-06
1.5824952e-06
2.1428405e-06
2.008382e-06
2.2547108e-06
2.3851795e-06
2.2514546e-06
1.8961104e-06
1.7010685e-06
1.6412746e-06
1.6912113e-06
1.8128e-06
1.8290357e-06
1.8276582e-06
1.878785e-06
1.9030947e-06
1.9548982e-06
1.975451e-06
1.9238475e-06
1.8657063e-06
1.5129319e-06
5.2619098e-06
3.694346e-06
3.5992397e-06
3.3261447e-06
2.0508499e-06
1.5540021e-06
1.7804974e-06
2.742666e-06
2.7363157e-06
2.3891718e-06
2.0438853e-06
1.8804137e-06
1.8689754e-06
1.9547326e-06
1.9470396e-06
1.8955027e-06
1.917135e-06
1.9400617e-06
1.9701931e-06
2.065723e-06
2.0848073e-06
2.0577709e-06
1.8925178e-06
5.0695942e-06
5.4233133e-06
5.6728601e-06
5.3354679e-06
3.3007631e-06
2.138143e-06
1.8633736e-06
2.3176812e-06
2.9986202e-06
2.7912842e-06
2.5923172e-06
2.2666174e-06
2.1490051e-06
2.1806775e-06
2.1254214e-06
1.9995971e-06
1.9549858e-06
1.9526471e-06
1.9691638e-06
2.0703935e-06
2.1030491e-06
2.1005657e-06
2.0793773e-06
4.1535141e-06
5.3045784e-06
5.6864361e-06
5.4123657e-06
4.4996809e-06
3.3349492e-06
2.7537267e-06
2.9786886e-06
3.1854958e-06
3.088315e-06
3.0056401e-06
2.7237943e-06
2.5273419e-06
2.526527e-06
2.4485451e-06
2.2677949e-06
2.1204556e-06
2.0721391e-06
2.0403761e-06
2.1271228e-06
2.2071987e-06
2.2419467e-06
2.0900543e-06
3.4240746e-06
4.6831841e-06
5.6881487e-06
5.3494996e-06
4.402744e-06
3.2742441e-06
2.7858707e-06
3.0436125e-06
3.3487738e-06
3.3053779e-06
3.2726862e-06
3.1118442e-06
2.9006816e-06
2.9085818e-06
2.8781279e-06
2.7077939e-06
2.503904e-06
2.4426807e-06
2.3884353e-06
2.4471162e-06
2.5190326e-06
2.5290264e-06
1.9704692e-06
3.1044367e-06
4.124533e-06
5.1778924e-06
3.9309815e-06
3.3202965e-06
3.1791804e-06
2.838234e-06
3.0989271e-06
3.4550838e-06
3.4215855e-06
3.4283238e-06
3.343234e-06
3.1458019e-06
3.1808322e-06
3.2099661e-06
3.0661816e-06
2.8563795e-06
2.8003087e-06
2.6861543e-06
2.6493622e-06
2.658647e-06
2.661281e-06
1.9024649e-06
2.8445854e-06
3.6501114e-06
4.1515115e-06
3.1062781e-06
2.6415885e-06
2.517838e-06
2.4074935e-06
2.9150918e-06
3.5691724e-06
3.4981042e-06
3.4989426e-06
3.3299391e-06
3.0701769e-06
3.290275e-06
3.3534927e-06
3.2016249e-06
2.965238e-06
2.9431733e-06
2.8895736e-06
2.8825454e-06
2.9022122e-06
2.7916552e-06
1.8857078e-06
2.5072245e-06
3.2837283e-06
3.459091e-06
2.9647819e-06
2.4291967e-06
2.3659385e-06
2.3440609e-06
2.9670286e-06
3.7769099e-06
3.6148904e-06
3.5366497e-06
3.3041679e-06
3.0320868e-06
3.359362e-06
3.4152368e-06
3.2844059e-06
3.1551601e-06
3.1983261e-06
3.1902657e-06
3.1786534e-06
3.1604956e-06
3.0274932e-06
1.9984249e-06
2.4315386e-06
3.1150908e-06
3.1295913e-06
2.9553014e-06
2.5652565e-06
2.6511049e-06
2.9323692e-06
3.8262103e-06
4.3833852e-06
3.7628421e-06
3.6222657e-06
3.5358686e-06
3.4473952e-06
3.5831055e-06
3.6766801e-06
3.5609789e-06
3.430848e-06
3.5308151e-06
3.5077124e-06
3.5526959e-06
3.54198e-06
3.2793696e-06
2.2354338e-06
2.5049931e-06
3.1236406e-06
3.0574773e-06
2.9797873e-06
2.8264284e-06
3.3045042e-06
3.8700848e-06
4.5342222e-06
4.7138263e-06
4.0794699e-06
4.0458069e-06
4.0905392e-06
4.1869844e-06
4.3786761e-06
4.2368223e-06
3.6993666e-06
3.5860548e-06
3.7559439e-06
3.9700666e-06
4.0265561e-06
3.83206e-06
3.3920053e-06
2.526575e-06
2.7285943e-06
3.2069533e-06
3.0749189e-06
3.1185272e-06
3.3238611e-06
3.9000441e-06
4.4292389e-06
4.8850233e-06
4.8144e-06
4.3323929e-06
4.6110219e-06
4.6185735e-06
4.8988564e-06
4.9003117e-06
4.5038976e-06
3.8832535e-06
3.9068418e-06
4.2406702e-06
4.3612634e-06
4.3192963e-06
4.0445131e-06
3.5326716e-06
2.7621025e-06
3.2837296e-06
3.4341963e-06
3.2746778e-06
3.371872e-06
4.0341055e-06
4.5320809e-06
4.9851349e-06
5.4772839e-06
4.9247792e-06
4.5825784e-06
4.9782228e-06
5.1492951e-06
5.3047358e-06
5.2108927e-06
4.64434e-06
4.0992184e-06
4.1891176e-06
4.6830281e-06
4.7843092e-06
4.5667046e-06
4.1124683e-06
3.7685068e-06
2.7335587e-06
3.9003393e-06
3.8544793e-06
3.942695e-06
4.232757e-06
5.2089941e-06
5.8885343e-06
6.1212883e-06
5.9815963e-06
5.1333009e-06
4.9013886e-06
5.4054542e-06
5.839678e-06
5.9254534e-06
5.7799555e-06
4.8462647e-06
4.4893159e-06
4.7606581e-06
4.9873946e-06
4.9878521e-06
4.9626565e-06
4.3028879e-06
4.2409608e-06
2.2297336e-06
4.0351428e-06
4.2934438e-06
4.0369338e-06
5.0739668e-06
6.4341295e-06
7.3638984e-06
7.668756e-06
6.9692032e-06
5.7595641e-06
5.7784275e-06
6.8181792e-06
7.4619126e-06
7.518832e-06
6.4857523e-06
5.1134054e-06
4.8163175e-06
5.1521365e-06
5.5374369e-06
5.6745062e-06
5.0710469e-06
4.5576898e-06
4.7119147e-06
1.9832507e-06
3.9048452e-06
4.4174555e-06
4.8002004e-06
5.3564387e-06
6.9933366e-06
8.2686747e-06
8.8194053e-06
8.5127296e-06
7.0177984e-06
7.1730846e-06
8.6187812e-06
9.1714026e-06
8.6391423e-06
6.8080987e-06
5.6068333e-06
5.6418286e-06
6.3944036e-06
6.5211172e-06
6.1194413e-06
5.2829763e-06
5.1130511e-06
5.7735771e-06
2.4301263e-06
3.1916117e-06
4.0591911e-06
4.5379728e-06
5.2202029e-06
7.0683954e-06
8.6273723e-06
9.3269957e-06
9.2723045e-06
7.9279753e-06
8.3911886e-06
9.6092574e-06
9.8084862e-06
9.1340448e-06
7.3523045e-06
6.5972813e-06
6.9099071e-06
7.1332039e-06
7.1628658e-06
6.6032686e-06
5.7809513e-06
5.9988214e-06
6.5639869e-06
1.4834483e-06
2.2168371e-06
3.4657398e-06
4.3173545e-06
5.090978e-06
7.0710554e-06
8.9144606e-06
9.7538427e-06
9.7580374e-06
8.714886e-06
9.3164161e-06
1.025932e-05
1.0490015e-05
9.6879199e-06
7.6830702e-06
7.2555203e-06
8.1624612e-06
8.4854542e-06
8.3377867e-06
7.0907397e-06
6.6449807e-06
7.4149995e-06
7.7110062e-06
7.3864133e-07
2.0366879e-06
3.3269863e-06
4.3432458e-06
5.2393376e-06
7.448993e-06
9.47402e-06
1.0542899e-05
1.0818784e-05
1.0639249e-05
1.1667509e-05
1.1948462e-05
1.1107333e-05
9.7625369e-06
8.4268896e-06
8.8262265e-06
9.539676e-06
9.5525633e-06
9.0425483e-06
7.8400034e-06
8.1058632e-06
8.3050308e-06
7.8451231e-06
8.3114522e-07
2.3645734e-06
3.7361613e-06
4.7981145e-06
5.9062717e-06
9.0273927e-06
1.1285684e-05
1.1660135e-05
1.1572518e-05
1.1279281e-05
1.2275981e-05
1.2528053e-05
1.2074646e-05
1.0263825e-05
9.4706689e-06
1.0158673e-05
1.1005637e-05
1.1088024e-05
9.5936897e-06
8.7321727e-06
8.555848e-06
8.5050076e-06
8.3013568e-06
1.8468851e-06
3.2879146e-06
5.410375e-06
6.8584569e-06
9.0282776e-06
1.2803125e-05
1.3789851e-05
1.2643704e-05
1.1902174e-05
1.1646727e-05
1.30942e-05
1.3887211e-05
1.3661855e-05
1.1743098e-05
1.1504825e-05
1.2490586e-05
1.2933394e-05
1.1714197e-05
9.8182097e-06
9.1687417e-06
9.1338066e-06
9.2625711e-06
8.7160815e-06
3.4619132e-06
4.5494125e-06
7.7726783e-06
9.8598997e-06
1.2706609e-05
1.4293654e-05
1.4782103e-05
1.4452079e-05
1.399155e-05
1.4521451e-05
1.4892135e-05
1.5037665e-05
1.4820475e-05
1.382393e-05
1.3768253e-05
1.3468059e-05
1.2977976e-05
1.1671677e-05
1.0586019e-05
1.0253058e-05
9.9227692e-06
9.7618944e-06
9.8586077e-06
1.675413e-06
5.3536033e-06
9.1065071e-06
1.1869324e-05
1.4282458e-05
1.5292713e-05
1.5836788e-05
1.6638672e-05
1.721926e-05
1.6854411e-05
1.6516706e-05
1.6248752e-05
1.5839551e-05
1.4964557e-05
1.3535557e-05
1.3100185e-05
1.3247852e-05
1.2966119e-05
1.1784066e-05
1.1214147e-05
1.1068319e-05
1.1257881e-05
1.14913e-05
1.1865471e-06
5.2163581e-06
8.3633989e-06
1.3196113e-05
1.5765218e-05
1.6905043e-05
1.7650451e-05
1.8068577e-05
1.7952812e-05
1.7221818e-05
1.7092949e-05
1.6715938e-05
1.5778297e-05
1.4496907e-05
1.3566567e-05
1.3859611e-05
1.4435001e-05
1.383601e-05
1.2903009e-05
1.2670405e-05
1.2500747e-05
1.1911215e-05
1.1666144e-05
1.7307627e-06
6.3806218e-06
1.1112923e-05
1.4472447e-05
1.624822e-05
1.7063499e-05
1.8183503e-05
1.8413994e-05
1.7710009e-05
1.6610367e-05
1.6470291e-05
1.6794946e-05
1.6521901e-05
1.52431e-05
1.4899131e-05
1.5387192e-05
1.548155e-05
1.4162253e-05
1.3812045e-05
1.3510349e-05
1.294894e-05
1.2459175e-05
1.2564562e-05
4.1196722e-06
8.4627268e-06
1.2888022e-05
1.5275167e-05
1.5980652e-05
1.6156989e-05
1.7403416e-05
1.8166865e-05
1.767331e-05
1.6486398e-05
1.6305175e-05
1.6822777e-05
1.7369427e-05
1.6744654e-05
1.5980483e-05
1.6176148e-05
1.6498609e-05
1.5348476e-05
1.3452695e-05
1.3287246e-05
1.350458e-05
1.3664227e-05
1.3480863e-05
5.1508105e-06
1.0285345e-05
1.2635302e-05
1.349404e-05
1.6806992e-05
1.6347821e-05
1.7443697e-05
1.8553988e-05
1.8590272e-05
1.7517228e-05
1.6905078e-05
1.723414e-05
1.7636147e-05
1.7477743e-05
1.646124e-05
1.6575665e-05
1.6877271e-05
1.6137498e-05
1.4268755e-05
1.3160598e-05
1.3229152e-05
1.3700684e-05
1.3755497e-05
2.5862039e-06
1.295458e-05
1.9030554e-05
2.0589795e-05
1.9597232e-05
1.8128942e-05
1.8935367e-05
2.0144153e-05
2.0556857e-05
1.929675e-05
1.8159341e-05
1.8152077e-05
1.8286051e-05
1.7695089e-05
1.6352652e-05
1.5999471e-05
1.6567729e-05
1.6640324e-05
1.6096962e-05
1.4394901e-05
1.3897757e-05
1.4025013e-05
1.4032478e-05
2.1850335e-06
1.5079009e-05
2.7017145e-05
3.075351e-05
2.9226145e-05
2.4376031e-05
2.5434965e-05
2.6085402e-05
2.5893957e-05
2.3049506e-05
1.9397462e-05
1.9065043e-05
1.8689872e-05
1.8161953e-05
1.6808094e-05
1.588525e-05
1.6165017e-05
1.679424e-05
1.6958774e-05
1.6280779e-05
1.5120139e-05
1.5083469e-05
1.4740021e-05
3.4334739e-06
1.6554473e-05
2.9959559e-05
3.6060574e-05
3.8996741e-05
3.3875201e-05
3.1213625e-05
3.0978153e-05
2.9257723e-05
2.4994828e-05
2.0263451e-05
1.9625575e-05
1.9212064e-05
1.8856604e-05
1.833174e-05
1.707207e-05
1.7025741e-05
1.7552988e-05
1.7430708e-05
1.7434131e-05
1.6288828e-05
1.5695019e-05
1.5247596e-05
4.8460034e-06
1.6340886e-05
3.0135272e-05
3.5763349e-05
3.1974885e-05
3.2405235e-05
3.4581867e-05
3.3127454e-05
3.087147e-05
2.6308793e-05
2.1633209e-05
2.057558e-05
2.0605984e-05
1.9722122e-05
1.9547662e-05
1.8539015e-05
1.8147107e-05
1.8344971e-05
1.8531921e-05
1.7776406e-05
1.7364986e-05
1.625782e-05
1.5485184e-05
4.7258679e-06
1.2598145e-05
2.7760341e-05
3.0132884e-05
3.638343e-05
4.0256709e-05
3.8033477e-05
3.3849626e-05
3.1644442e-05
2.7730982e-05
2.3307578e-05
2.1432212e-05
2.1613301e-05
2.1457121e-05
2.0283249e-05
1.9498621e-05
1.8236357e-05
1.8222418e-05
1.8526976e-05
1.8263377e-05
1.7625537e-05
1.7122512e-05
1.6513826e-05
1.8323463e-06
9.245969e-06
1.9675802e-05
3.1528216e-05
3.7144945e-05
3.8769541e-05
3.9273836e-05
3.5625173e-05
3.2054628e-05
2.8331617e-05
2.4088245e-05
2.1533763e-05
2.050577e-05
2.0994464e-05
2.1081904e-05
1.9818244e-05
1.8374756e-05
1.791948e-05
1.8111299e-05
1.8624682e-05
1.8280418e-05
1.7882538e-05
1.750595e-05
1.5819157e-06
7.414338e-06
1.2622991e-05
2.2314964e-05
3.2656267e-05
3.6930319e-05
3.7835192e-05
3.6061591e-05
3.2321553e-05
2.800746e-05
2.3642058e-05
2.0275738e-05
1.796369e-05
1.7445338e-05
1.7824764e-05
1.8635186e-05
1.8683892e-05
1.8281736e-05
1.8172604e-05
1.8368974e-05
1.8797599e-05
1.8895487e-05
1.8602222e-05
1.6549463e-06
5.8251783e-06
8.6564067e-06
1.3755468e-05
2.2002119e-05
2.9023958e-05
3.2516132e-05
3.2620431e-05
3.0367051e-05
2.6247607e-05
2.1799584e-05
1.7394486e-05
1.4567618e-05
1.388805e-05
1.4095798e-05
1.4512959e-05
1.5494539e-05
1.6267839e-05
1.6697681e-05
1.7054046e-05
1.7335963e-05
1.7888588e-05
1.8534499e-05
2.1452183e-06
5.8386836e-06
6.4565537e-06
8.8134007e-06
1.3788379e-05
1.8252271e-05
2.054819e-05
2.1849265e-05
2.2204583e-05
1.9895129e-05
1.5848164e-05
1.261341e-05
1.1031313e-05
1.0831542e-05
1.1077773e-05
1.1501633e-05
1.2341222e-05
1.3047554e-05
1.3912114e-05
1.4637717e-05
1.5157952e-05
1.5559723e-05
1.6577318e-05
2.3932767e-06
6.5566974e-06
5.2749805e-06
6.1154557e-06
8.2920336e-06
1.1008441e-05
1.2061366e-05
1.2158829e-05
1.2214223e-05
1.1716687e-05
1.0056415e-05
8.7191778e-06
8.2258262e-06
8.3276096e-06
8.7039069e-06
9.3598713e-06
1.0050937e-05
1.0549939e-05
1.1370698e-05
1.2056941e-05
1.2933576e-05
1.3406312e-05
1.4589214e-05
2.7747656e-06
6.7767762e-06
4.7276018e-06
4.5110738e-06
5.3626346e-06
6.7835648e-06
7.683495e-06
8.0009703e-06
8.1872794e-06
8.0535308e-06
7.2531067e-06
6.8559916e-06
6.9019103e-06
7.1471256e-06
7.7289362e-06
8.1993344e-06
8.6534187e-06
8.970068e-06
9.5927239e-06
1.0024675e-05
1.0816167e-05
1.1252747e-05
1.2324463e-05
2.9202194e-06
6.4710663e-06
4.7126669e-06
4.4184765e-06
4.8618177e-06
5.7283158e-06
6.6023407e-06
7.0367472e-06
7.2694778e-06
7.2351414e-06
6.9073192e-06
6.8118005e-06
6.9135695e-06
7.1913807e-06
7.6308009e-06
7.850058e-06
8.0958233e-06
8.2644323e-06
8.6417927e-06
8.9214604e-06
9.4772133e-06
9.8439915e-06
1.0788056e-05
2.8367275e-06
6.0223241e-06
5.0104147e-06
4.9250684e-06
5.4010417e-06
6.2209466e-06
6.9109093e-06
7.3197179e-06
7.5748243e-06
7.4782949e-06
7.1530518e-06
6.9750368e-06
6.9217087e-06
6.9968816e-06
7.1566441e-06
7.2634213e-06
7.3915886e-06
7.4106965e-06
7.4715048e-06
7.4983569e-06
7.6030812e-06
7.7641152e-06
8.4451815e-06
2.4875641e-06
7.3655684e-06
5.7645463e-06
5.4594292e-06
5.9417796e-06
6.6122396e-06
7.0367078e-06
7.3274757e-06
7.2991443e-06
6.7270915e-06
6.2190437e-06
5.8482743e-06
5.6205366e-06
5.4761369e-06
5.4271063e-06
5.3913824e-06
5.4101345e-06
5.4311096e-06
5.4808677e-06
5.5847206e-06
5.7399178e-06
5.8645281e-06
6.4394997e-06
3.022016e-06
1.0032421e-05
8.0596698e-06
7.2514668e-06
6.9327162e-06
6.8168099e-06
6.8328122e-06
6.7093759e-06
5.783777e-06
4.7210912e-06
4.0813165e-06
3.79646e-06
3.751729e-06
3.7974694e-06
3.9078753e-06
4.3209862e-06
4.6730382e-06
5.4209497e-06
5.7563083e-06
6.4178765e-06
6.674551e-06
7.3781485e-06
6.529e-06
3.399376e-06
1.1082754e-05
9.145794e-06
7.8878794e-06
6.8595629e-06
6.4832851e-06
6.1257206e-06
4.885403e-06
3.7080835e-06
3.2832327e-06
3.3167571e-06
3.5633471e-06
3.8567045e-06
4.4514536e-06
5.3546623e-06
7.1559889e-06
8.6082153e-06
1.1588615e-05
1.3392962e-05
1.7271025e-05
1.9066488e-05
2.3607716e-05
5.0799711e-06
3.9624567e-06
1.1472974e-05
9.2434074e-06
7.7160791e-06
6.3581079e-06
5.1433396e-06
3.8810291e-06
3.3495301e-06
3.6259599e-06
4.2229555e-06
5.0189596e-06
7.0764011e-06
1.1402674e-05
1.7766638e-05
2.5521804e-05
3.53611e-05
4.5493287e-05
5.8123565e-05
7.0181744e-05
8.6206509e-05
9.7386777e-05
0.00011689993
0.00010984526
4.1594461e-06
1.1844247e-05
8.7925132e-06
6.1727348e-06
4.3129933e-06
3.8475693e-06
4.3714116e-06
5.4128081e-06
8.095316e-06
1.4323434e-05
2.5276914e-05
4.03648e-05
5.6932262e-05
8.5155307e-05
0.00010965217
0.00013371255
0.00015227508
0.00017525969
0.00019144311
0.00020424511
0.00021286914
0.00022011148
0.00020501457
4.266309e-06
1.1446706e-05
6.737181e-06
4.5437288e-06
5.1424576e-06
7.1152486e-06
1.1966483e-05
2.3090047e-05
3.936479e-05
6.1847029e-05
9.6980096e-05
0.00013678211
0.00016466988
0.00018736676
0.00020601716
0.00022108313
0.00023177706
0.00023746481
0.00023894586
0.0002064313
0.00020019104
0.00022730615
0.00023412346
4.3860509e-06
9.9272805e-06
5.5616653e-06
7.36714e-06
1.3402489e-05
3.2710911e-05
6.4126701e-05
0.00010375007
0.00013877735
0.00016835363
0.00019254079
0.00021269298
0.00022804545
0.00023855307
0.00024386634
0.00024424763
0.00024148665
0.00020537077
0.00019366063
0.00021283516
0.00019616893
0.0001656359
0.00015518452
4.5140432e-06
8.5824146e-06
8.7331535e-06
2.6413781e-05
6.6913914e-05
0.00011312117
0.00015038487
0.00018000827
0.00020446281
0.00022350118
0.00023682084
0.00024475401
0.00024671318
0.00024422839
0.00023896694
0.00022859297
0.00021267479
0.00018943173
0.00015593505
0.00011671712
8.1910655e-05
5.0900261e-05
4.5954624e-05
4.3872089e-06
8.512879e-06
2.4951852e-05
8.3613476e-05
0.000137353
0.00017474267
0.00020286887
0.00022407821
0.00023873297
0.0002470597
0.00024843881
0.00024461714
0.00023721059
0.00022335947
0.00020149955
0.00017090106
0.00013119391
8.7828885e-05
5.3274676e-05
3.2072868e-05
2.2481321e-05
1.8609242e-05
1.9955255e-05
4.401146e-06
1.2316113e-05
5.7997004e-05
0.00013109369
0.00018070507
0.0002124429
0.00023318641
0.00024570936
0.00025070803
0.0002480594
0.00024015072
0.00022564408
0.00020146222
0.00016909015
0.00012884308
8.3699621e-05
4.6564644e-05
2.5308496e-05
1.6557879e-05
1.3397748e-05
1.3122144e-05
1.396195e-05
1.812421e-05
4.3212162e-06