/*--------------------------------*- C++ -*----------------------------------*\
| =========                 |                                                 |
| \\      /  F ield         | OpenFOAM: The Open Source CFD Toolbox           |
|  \\    /   O peration     | Version:  2406                                  |
|   \\  /    A nd           | Website:  www.openfoam.com                      |
|    \\/     M anipulation  |                                                 |
\*---------------------------------------------------------------------------*/
FoamFile
{
    version     2.0;
    format      ascii;
    arch        "LSB;label=32;scalar=64";
    class       volScalarField;
    location    "65";
    object      nut;
}
// * * * * * * * * * * * * * * * * * * * * * * * * * * * * * * * * * * * * * //

dimensions      [0 2 -1 0 0 0 0];

internalField   nonuniform List<scalar> 
20580
(
8.8849904e-07
8.6648287e-07
8.4843779e-07
8.444521e-07
8.4066316e-07
8.3377068e-07
8.3079407e-07
8.2796185e-07
8.2509316e-07
8.2371327e-07
8.2174367e-07
8.2089364e-07
8.1786732e-07
8.1603049e-07
8.1058043e-07
8.0654497e-07
8.0257664e-07
7.9991818e-07
8.007456e-07
7.9999921e-07
8.0235189e-07
8.0994456e-07
8.0088296e-07
8.1649457e-07
8.2676053e-07
8.3959724e-07
8.5669689e-07
8.7771291e-07
8.9604556e-07
9.2854286e-07
9.8063286e-07
8.8844707e-07
8.91172e-07
8.6151409e-07
8.491495e-07
8.4243063e-07
8.3369161e-07
8.3217247e-07
8.2952614e-07
8.27047e-07
8.2590488e-07
8.2455376e-07
8.2326793e-07
8.1963619e-07
8.1792784e-07
8.1167684e-07
8.0792871e-07
8.0294945e-07
8.0223594e-07
7.995524e-07
8.0550438e-07
8.055804e-07
8.1472172e-07
8.0802214e-07
8.1884387e-07
8.2908643e-07
8.4270614e-07
8.5973224e-07
8.8951578e-07
9.0589857e-07
9.2815445e-07
9.8387139e-07
8.8833686e-07
9.0525327e-07
8.7392844e-07
8.588291e-07
8.4766454e-07
8.3690426e-07
8.3188856e-07
8.2984019e-07
8.2747488e-07
8.2751684e-07
8.2565588e-07
8.2664269e-07
8.2058096e-07
8.2145824e-07
8.1295592e-07
8.1025266e-07
8.0351252e-07
8.0395639e-07
7.9753502e-07
8.0570711e-07
8.0559807e-07
8.1212097e-07
8.1450339e-07
8.1694442e-07
8.2930876e-07
8.4045782e-07
8.5474472e-07
8.8411971e-07
9.0995403e-07
9.2724383e-07
9.7535602e-07
8.8964438e-07
9.0796032e-07
8.8092323e-07
8.66561e-07
8.5293471e-07
8.4138696e-07
8.3443025e-07
8.3059887e-07
8.2739347e-07
8.2767888e-07
8.2499987e-07
8.2652006e-07
8.2135122e-07
8.2255614e-07
8.1593207e-07
8.117279e-07
8.0701461e-07
8.061759e-07
7.9871623e-07
8.0447555e-07
8.0626285e-07
8.0852865e-07
8.1620907e-07
8.1659899e-07
8.2901488e-07
8.3951231e-07
8.5440501e-07
8.716664e-07
9.0113944e-07
9.1819706e-07
9.6318658e-07
8.9015048e-07
9.1081198e-07
8.9341799e-07
8.8252988e-07
8.6449804e-07
8.5029948e-07
8.4146465e-07
8.3490505e-07
8.290643e-07
8.2877268e-07
8.254061e-07
8.2529996e-07
8.2148509e-07
8.2125228e-07
8.1721566e-07
8.1289745e-07
8.0877295e-07
8.0886818e-07
8.0354948e-07
8.0526667e-07
8.0824901e-07
8.0829553e-07
8.1635545e-07
8.1750765e-07
8.3042865e-07
8.4059648e-07
8.58277e-07
8.7206128e-07
9.0049115e-07
9.2031415e-07
9.458388e-07
8.9013563e-07
9.1492294e-07
8.9725629e-07
8.9910981e-07
8.8867804e-07
8.708979e-07
8.5446364e-07
8.4311099e-07
8.3459767e-07
8.3155899e-07
8.2739824e-07
8.2498601e-07
8.2195223e-07
8.1970647e-07
8.162168e-07
8.1270737e-07
8.0841426e-07
8.0653814e-07
8.0796545e-07
8.0503222e-07
8.0963478e-07
8.1058324e-07
8.1801816e-07
8.1837213e-07
8.2928917e-07
8.4118122e-07
8.5582999e-07
8.781673e-07
9.0096726e-07
9.3538153e-07
9.5017545e-07
8.8920058e-07
9.173041e-07
8.9955665e-07
9.012275e-07
8.9497342e-07
8.8783284e-07
8.7663894e-07
8.6330378e-07
8.4937107e-07
8.4186885e-07
8.3575375e-07
8.300725e-07
8.2665389e-07
8.2190739e-07
8.1772807e-07
8.1316117e-07
8.0893656e-07
8.0346624e-07
8.0833534e-07
8.0513508e-07
8.0679034e-07
8.1108755e-07
8.1742063e-07
8.1732977e-07
8.2452234e-07
8.3812325e-07
8.5075393e-07
8.7100211e-07
8.9486465e-07
9.3186898e-07
9.6470075e-07
8.9128991e-07
9.1219497e-07
8.9461484e-07
8.9631821e-07
8.9325394e-07
8.8993193e-07
8.9133345e-07
8.913337e-07
8.8569855e-07
8.7462829e-07
8.6124821e-07
8.4769104e-07
8.4029122e-07
8.3079607e-07
8.2367144e-07
8.1706956e-07
8.1243508e-07
8.0402389e-07
8.0840954e-07
8.0650122e-07
8.0553881e-07
8.0816399e-07
8.1622777e-07
8.1741506e-07
8.2074771e-07
8.3147847e-07
8.425058e-07
8.526777e-07
8.7500335e-07
9.0273381e-07
9.5644992e-07
9.0465225e-07
9.3771888e-07
9.0441552e-07
8.9427762e-07
8.9077653e-07
8.9158992e-07
8.9976103e-07
9.0395343e-07
9.105667e-07
9.117281e-07
9.1112069e-07
8.9867522e-07
8.8747104e-07
8.6814614e-07
8.5166562e-07
8.3497992e-07
8.2503032e-07
8.111414e-07
8.1122519e-07
8.0938171e-07
8.0747937e-07
8.089129e-07
8.154609e-07
8.2180201e-07
8.22217e-07
8.3057362e-07
8.4319427e-07
8.5270718e-07
8.6594955e-07
8.8236527e-07
9.2424382e-07
9.8880964e-07
1.035394e-06
9.5320862e-07
9.1650952e-07
9.0057136e-07
8.9663209e-07
9.0306403e-07
9.067237e-07
9.124509e-07
9.1621493e-07
9.1921952e-07
9.2014554e-07
9.1920812e-07
9.1097152e-07
8.9889746e-07
8.8671217e-07
8.7042193e-07
8.4944419e-07
8.3347534e-07
8.2539562e-07
8.1686946e-07
8.1383239e-07
8.1734474e-07
8.2446536e-07
8.2960587e-07
8.3280019e-07
8.4577074e-07
8.5818746e-07
8.7390903e-07
8.9085449e-07
9.2094101e-07
9.189237e-07
1.0374206e-06
1.0575876e-06
1.0095244e-06
9.6240675e-07
9.3551724e-07
9.2639999e-07
9.2274221e-07
9.2363307e-07
9.2569443e-07
9.2818818e-07
9.2768254e-07
9.2515329e-07
9.1920332e-07
9.1076628e-07
9.0027827e-07
8.8899931e-07
8.7795194e-07
8.6734334e-07
8.5803014e-07
8.5129404e-07
8.4223302e-07
8.3675489e-07
8.3856387e-07
8.4471228e-07
8.4795312e-07
8.5647414e-07
8.7024617e-07
8.9250293e-07
9.1439075e-07
9.3895463e-07
8.3157118e-07
9.2966113e-07
1.0126526e-06
1.0793029e-06
1.1285932e-06
1.1337457e-06
1.1124324e-06
1.0780802e-06
1.0503254e-06
1.0240799e-06
1.0018638e-06
9.8175643e-07
9.6299674e-07
9.4523771e-07
9.2997863e-07
9.1505793e-07
9.0316474e-07
8.9126538e-07
8.8158651e-07
8.7118347e-07
8.6765962e-07
8.6089278e-07
8.5528527e-07
8.5472798e-07
8.6009414e-07
8.6014152e-07
8.6373734e-07
8.7268918e-07
8.9206373e-07
9.1319859e-07
9.4367347e-07
8.7729601e-07
9.3402605e-07
9.5008165e-07
1.0293426e-06
1.1121902e-06
1.2186999e-06
1.3149628e-06
1.380895e-06
1.4037016e-06
1.3980943e-06
1.3659367e-06
1.3104739e-06
1.2481133e-06
1.1747308e-06
1.103942e-06
1.0381445e-06
9.8907574e-07
9.5154002e-07
9.2556673e-07
9.0364714e-07
8.956095e-07
8.8651394e-07
8.7710328e-07
8.7412717e-07
8.7817194e-07
8.753661e-07
8.7482688e-07
8.8112126e-07
8.948055e-07
9.1226904e-07
9.3106056e-07
9.208386e-07
9.9458734e-07
9.6767449e-07
9.757422e-07
1.019485e-06
1.1141817e-06
1.2116254e-06
1.3024301e-06
1.3688067e-06
1.3967647e-06
1.4194323e-06
1.4254311e-06
1.4135648e-06
1.3837491e-06
1.3474356e-06
1.2934953e-06
1.2435288e-06
1.1892317e-06
1.1363111e-06
1.081847e-06
1.0413172e-06
1.0051127e-06
9.6841194e-07
9.4572262e-07
9.3504237e-07
9.2521019e-07
9.1109732e-07
9.0957056e-07
9.1587511e-07
9.2955288e-07
9.3937952e-07
8.8154551e-07
9.3650766e-07
9.481592e-07
9.6498074e-07
9.7981466e-07
1.0154656e-06
1.0629551e-06
1.1086853e-06
1.152782e-06
1.1986693e-06
1.2356477e-06
1.2637655e-06
1.274943e-06
1.2783083e-06
1.2690137e-06
1.2565797e-06
1.2312637e-06
1.2139874e-06
1.1979391e-06
1.1825172e-06
1.168038e-06
1.1635493e-06
1.1501347e-06
1.1415461e-06
1.1220551e-06
1.1139973e-06
1.0850649e-06
1.0661168e-06
1.0431814e-06
1.0375692e-06
1.0193153e-06
8.7459703e-07
9.4982319e-07
9.4588685e-07
9.6015213e-07
9.6667312e-07
9.8584986e-07
1.0167696e-06
1.0425374e-06
1.0671058e-06
1.0922521e-06
1.1138044e-06
1.130473e-06
1.1394612e-06
1.1358817e-06
1.128815e-06
1.1201665e-06
1.1189934e-06
1.1194161e-06
1.1215914e-06
1.1291029e-06
1.1322841e-06
1.141375e-06
1.1441881e-06
1.1540663e-06
1.1622451e-06
1.1758292e-06
1.1894226e-06
1.197367e-06
1.2047768e-06
1.2144007e-06
1.2140961e-06
8.717591e-07
8.8621133e-07
9.0910503e-07
9.2265197e-07
9.3431478e-07
9.5818147e-07
9.8685823e-07
1.0063041e-06
1.0231317e-06
1.0344867e-06
1.0436887e-06
1.0482702e-06
1.0511904e-06
1.047907e-06
1.044747e-06
1.0392673e-06
1.0320529e-06
1.0294314e-06
1.0286236e-06
1.0360908e-06
1.0427691e-06
1.0547094e-06
1.0750572e-06
1.09574e-06
1.1123587e-06
1.1322548e-06
1.1574658e-06
1.1793479e-06
1.1946956e-06
1.2063896e-06
1.2220693e-06
8.7644933e-07
9.6321947e-07
9.358518e-07
9.2869923e-07
9.2536507e-07
9.3069891e-07
9.4585969e-07
9.6529414e-07
9.8483073e-07
1.0008988e-06
1.0106899e-06
1.0162786e-06
1.0194089e-06
1.0147231e-06
1.0057045e-06
9.9752643e-07
9.8614942e-07
9.7808882e-07
9.6958811e-07
9.6796949e-07
9.6831957e-07
9.7314668e-07
9.8608482e-07
1.0032236e-06
1.0134768e-06
1.0264754e-06
1.0486913e-06
1.0742515e-06
1.1008058e-06
1.1142904e-06
1.1505533e-06
8.8151596e-07
9.0983305e-07
9.1007813e-07
9.2101669e-07
9.1787057e-07
9.1320972e-07
9.1565495e-07
9.1755322e-07
9.2250913e-07
9.3276109e-07
9.461729e-07
9.5570029e-07
9.6656454e-07
9.7542362e-07
9.7995987e-07
9.8240301e-07
9.7757084e-07
9.7214228e-07
9.6411937e-07
9.6061988e-07
9.5832682e-07
9.5840707e-07
9.6503612e-07
9.7481299e-07
9.8146598e-07
9.902542e-07
1.0046218e-06
1.0229148e-06
1.044008e-06
1.0537355e-06
1.0715694e-06
8.8228155e-07
9.2445367e-07
9.1053687e-07
9.1536742e-07
9.1672097e-07
9.1775764e-07
9.2291595e-07
9.2478916e-07
9.299595e-07
9.3805982e-07
9.4935047e-07
9.5866504e-07
9.6963965e-07
9.780942e-07
9.827278e-07
9.8894919e-07
9.933897e-07
9.9815741e-07
9.9579174e-07
9.9838324e-07
9.9928333e-07
1.005639e-06
1.0157396e-06
8.422617e-07
1.0404937e-06
1.0490854e-06
9.2059735e-07
7.3724383e-07
5.9249136e-07
1.0907949e-06
9.4336334e-07
8.8105441e-07
1.0024339e-06
1.0440301e-06
1.0695757e-06
1.133061e-06
1.1684979e-06
1.1891932e-06
1.2084787e-06
1.2310686e-06
1.2518769e-06
1.2818088e-06
1.3035088e-06
1.3309472e-06
1.3531619e-06
1.378592e-06
1.4007172e-06
1.4215728e-06
1.4305505e-06
1.4416456e-06
1.3677247e-06
1.4867328e-06
1.5014736e-06
1.5190401e-06
9.7237254e-07
1.1859443e-06
1.6028168e-06
1.6130687e-06
1.355365e-06
6.6629729e-07
8.7965304e-07
1.5357088e-06
1.0941093e-06
2.0076083e-06
2.0901788e-06
2.1646271e-06
2.3305922e-06
2.2773346e-06
2.305217e-06
2.2135831e-06
2.3606291e-06
2.2797263e-06
2.47732e-06
2.4190533e-06
2.4233371e-06
2.5340535e-06
2.5032885e-06
2.6240641e-06
2.3043069e-06
2.694837e-06
2.6887546e-06
2.7982973e-06
2.1856211e-06
2.8942129e-06
2.9138766e-06
2.22771e-06
2.2965266e-06
3.0282652e-06
3.0295821e-06
2.5969246e-06
2.0591564e-06
2.0527452e-06
2.8946721e-06
1.0898294e-06
2.261362e-06
2.7825003e-06
2.1946928e-06
2.047316e-06
1.7779051e-06
1.9477503e-06
1.6622594e-06
1.9412331e-06
1.6218381e-06
1.9211173e-06
1.6065493e-06
1.9807577e-06
1.6249967e-06
2.0149394e-06
1.691788e-06
2.2067683e-06
1.7452551e-06
2.1683576e-06
2.0038242e-06
2.5108724e-06
2.0215723e-06
2.2472883e-06
2.8966076e-06
3.0756732e-06
2.4959701e-06
2.2231478e-06
2.902741e-06
2.8309521e-06
2.7244194e-06
2.6370691e-06
2.4613377e-06
2.9617847e-06
1.6487494e-06
1.1269712e-06
1.0875907e-06
1.1472856e-06
1.2465236e-06
1.255222e-06
1.0872145e-06
9.7507336e-07
9.5584064e-07
9.6584851e-07
9.7145636e-07
9.619e-07
9.5968788e-07
9.8326124e-07
1.0024544e-06
9.9370079e-07
9.7862007e-07
9.9245275e-07
1.0147717e-06
1.0190533e-06
1.0157341e-06
1.9034327e-06
2.2646552e-06
1.1139436e-06
9.7274282e-07
1.1134959e-06
1.1558578e-06
1.2682081e-06
1.2995805e-06
1.1605178e-06
1.0193855e-06
9.8480963e-07
1.007552e-06
1.0282849e-06
1.0175642e-06
9.959432e-07
1.0056189e-06
1.0436194e-06
1.0515337e-06
1.0486189e-06
1.0503105e-06
1.0699531e-06
1.0996976e-06
1.0820605e-06
1.5668631e-06
1.8282915e-06
8.77593e-07
8.3667257e-07
1.0466156e-06
1.1698709e-06
1.2764555e-06
1.3364623e-06
1.253479e-06
1.0888141e-06
1.0317216e-06
1.0430597e-06
1.0673984e-06
1.062187e-06
1.0385615e-06
1.0409472e-06
1.0845597e-06
1.1001225e-06
1.0960216e-06
1.0986585e-06
1.1042002e-06
1.138774e-06
1.1462102e-06
8.6928221e-07
1.6073999e-06
1.4675356e-06
9.8683824e-07
8.2356865e-07
1.2077794e-06
1.2874462e-06
1.4234192e-06
1.3932875e-06
1.2010038e-06
1.0894974e-06
1.0883612e-06
1.1358434e-06
1.1281452e-06
1.0950712e-06
1.0868413e-06
1.1141002e-06
1.1576551e-06
1.1573047e-06
1.149354e-06
1.1523521e-06
1.1945238e-06
1.2003642e-06
2.1117469e-06
2.4742511e-06
2.9209097e-06
2.4102514e-06
1.4837904e-06
1.3510445e-06
1.3725669e-06
1.5020944e-06
1.5044686e-06
1.364073e-06
1.1768645e-06
1.1408597e-06
1.1792958e-06
1.1889425e-06
1.1750863e-06
1.1558148e-06
1.1650486e-06
1.2210261e-06
1.2378543e-06
1.2262194e-06
1.2087727e-06
1.2190268e-06
1.2528296e-06
1.1246794e-06
3.4637577e-06
3.2198424e-06
2.6187333e-06
1.4271923e-06
1.2604432e-06
1.4561222e-06
1.5696963e-06
1.5894539e-06
1.4793727e-06
1.2596129e-06
1.1980093e-06
1.2274524e-06
1.2680423e-06
1.2662485e-06
1.2451119e-06
1.2423057e-06
1.2970227e-06
1.3098613e-06
1.2955144e-06
1.2787457e-06
1.277366e-06
1.3172184e-06
2.3453251e-06
3.9693218e-06
3.2570316e-06
1.4422063e-06
1.1246946e-06
1.5094965e-06
1.5098092e-06
1.6469477e-06
1.6695828e-06
1.5733322e-06
1.3592727e-06
1.2707795e-06
1.2982592e-06
1.3407393e-06
1.3393065e-06
1.329259e-06
1.3232456e-06
1.3367265e-06
1.3741198e-06
1.3883109e-06
1.3995453e-06
1.3985266e-06
1.4116671e-06
1.712116e-06
2.8227633e-06
2.072943e-06
2.0473931e-06
1.3174389e-06
9.157264e-07
1.2895389e-06
1.7296995e-06
1.7368369e-06
1.6437838e-06
1.4635631e-06
1.3600341e-06
1.374163e-06
1.4211015e-06
1.407295e-06
1.3854786e-06
1.3749115e-06
1.3715363e-06
1.4478033e-06
1.4641694e-06
1.4594543e-06
1.470854e-06
1.4662691e-06
2.0656455e-06
3.4684141e-06
1.0374529e-06
5.5655949e-07
6.045429e-07
1.4461357e-06
1.5496028e-06
1.7949733e-06
1.8050367e-06
1.7045827e-06
1.5382689e-06
1.446786e-06
1.4351134e-06
1.5078116e-06
1.4956667e-06
1.4574598e-06
1.4412893e-06
1.4419262e-06
1.5016413e-06
1.5320241e-06
1.5143512e-06
1.5096242e-06
1.511493e-06
1.6291202e-06
2.8432826e-06
1.8308552e-06
6.9286255e-07
4.8583185e-07
6.2800903e-07
9.158235e-07
1.5664805e-06
1.8913554e-06
1.7840331e-06
1.6034711e-06
1.5189486e-06
1.5069403e-06
1.6015397e-06
1.6144145e-06
1.5824113e-06
1.5672279e-06
1.5567543e-06
1.5776885e-06
1.6518609e-06
1.6544145e-06
1.6380771e-06
1.638061e-06
1.3369403e-06
2.8816229e-06
1.9315268e-06
1.6988786e-06
1.0603031e-06
7.8112611e-07
9.3626907e-07
1.5050445e-06
2.0412453e-06
1.9245112e-06
1.6985735e-06
1.6025684e-06
1.5892257e-06
1.676625e-06
1.7417945e-06
1.7346441e-06
1.7266605e-06
1.7256354e-06
1.7202574e-06
1.788659e-06
1.7902562e-06
1.7403535e-06
1.7314212e-06
1.3154845e-06
4.5826633e-06
2.72404e-06
1.7688347e-06
1.5660616e-06
2.0853531e-06
1.9345216e-06
2.175189e-06
2.3260005e-06
2.2335969e-06
1.9140204e-06
1.7401503e-06
1.693442e-06
1.751875e-06
1.872719e-06
1.8725901e-06
1.8436801e-06
1.8647205e-06
1.8651975e-06
1.9060918e-06
1.9359966e-06
1.9107525e-06
1.8806189e-06
1.5577001e-06
5.3844552e-06
3.751311e-06
3.6234917e-06
3.3149863e-06
2.0243809e-06
1.5235671e-06
1.7435349e-06
2.6929012e-06
2.7025744e-06
2.3790769e-06
2.0511631e-06
1.8972478e-06
1.8925712e-06
1.9851465e-06
1.9845975e-06
1.9330201e-06
1.9469661e-06
1.9562548e-06
1.9780563e-06
2.0638065e-06
2.0708557e-06
2.0357615e-06
1.8854285e-06
5.0531485e-06
5.4218191e-06
5.6971669e-06
5.3815067e-06
3.3363012e-06
2.1613709e-06
1.8803579e-06
2.3332676e-06
3.0056771e-06
2.7751445e-06
2.5528865e-06
2.2188531e-06
2.1048153e-06
2.1546372e-06
2.1297878e-06
2.0332957e-06
2.006822e-06
2.0148842e-06
2.0297113e-06
2.1235992e-06
2.1341189e-06
2.0941909e-06
2.0068491e-06
4.0426827e-06
5.2436682e-06
5.7104566e-06
5.507182e-06
4.6168696e-06
3.4347309e-06
2.8369364e-06
3.0568921e-06
3.2428545e-06
3.0985333e-06
2.9574426e-06
2.6299847e-06
2.4193298e-06
2.4369642e-06
2.4084484e-06
2.2812009e-06
2.1718157e-06
2.1481737e-06
2.1284448e-06
2.2147787e-06
2.2747183e-06
2.2692516e-06
1.9928205e-06
3.3017674e-06
4.5998892e-06
5.6996379e-06
5.4498317e-06
4.5281746e-06
3.3813057e-06
2.8795908e-06
3.138873e-06
3.4308398e-06
3.3419932e-06
3.2448688e-06
3.0188169e-06
2.7734689e-06
2.7823399e-06
2.7951563e-06
2.6906968e-06
2.5387159e-06
2.5139677e-06
2.4750889e-06
2.5445934e-06
2.6090873e-06
2.58603e-06
1.8886433e-06
3.0039114e-06
4.0536992e-06
5.17455e-06
3.9798051e-06
3.3871836e-06
3.253774e-06
2.9077849e-06
3.1765746e-06
3.5319566e-06
3.4705687e-06
3.4268394e-06
3.2813552e-06
3.042527e-06
3.0618887e-06
3.1130851e-06
3.022342e-06
2.863302e-06
2.8398453e-06
2.7462335e-06
2.7184261e-06
2.7333678e-06
2.7288632e-06
1.8473679e-06
2.7789658e-06
3.5994121e-06
4.1362764e-06
3.119471e-06
2.6630543e-06
2.5411567e-06
2.4323342e-06
2.9546207e-06
3.626637e-06
3.5488668e-06
3.5219134e-06
3.3080562e-06
3.0098928e-06
3.2038862e-06
3.2709941e-06
3.1499242e-06
2.9448079e-06
2.9423503e-06
2.9019621e-06
2.9088943e-06
2.9505569e-06
2.8521096e-06
1.8511332e-06
2.4699967e-06
3.2523333e-06
3.4432688e-06
2.9579545e-06
2.4216023e-06
2.3565822e-06
2.3376414e-06
2.9748356e-06
3.8118996e-06
3.6649362e-06
3.5733742e-06
3.3102413e-06
3.0052731e-06
3.3045338e-06
3.3542076e-06
3.2327341e-06
3.1156875e-06
3.1615714e-06
3.1594455e-06
3.1657889e-06
3.1839988e-06
3.0827486e-06
1.971882e-06
2.4054008e-06
3.0945466e-06
3.1127243e-06
2.9331388e-06
2.5343793e-06
2.6130955e-06
2.8961818e-06
3.8099988e-06
4.4092939e-06
3.8101053e-06
3.6671168e-06
3.5554019e-06
3.4339933e-06
3.5416016e-06
3.6208239e-06
3.5042696e-06
3.3705395e-06
3.4609009e-06
3.4419573e-06
3.5085347e-06
3.5477927e-06
3.3361105e-06
2.2039592e-06
2.4760548e-06
3.1016293e-06
3.037213e-06
2.9482857e-06
2.7798031e-06
3.2408338e-06
3.8041799e-06
4.4986406e-06
4.7330216e-06
4.1292126e-06
4.094496e-06
4.1128575e-06
4.1648678e-06
4.3197794e-06
4.1676232e-06
3.6335293e-06
3.5130657e-06
3.6655056e-06
3.8782334e-06
3.9650067e-06
3.8376305e-06
3.4531302e-06
2.4692434e-06
2.6820056e-06
3.1737381e-06
3.0546555e-06
3.0901642e-06
3.2736966e-06
3.8273471e-06
4.3535482e-06
4.8481284e-06
4.8355966e-06
4.3785547e-06
4.6453529e-06
4.6093602e-06
4.8351537e-06
4.8033629e-06
4.4153912e-06
3.8124903e-06
3.8282852e-06
4.1424035e-06
4.2659583e-06
4.2666966e-06
4.0679671e-06
3.6024645e-06
2.6558969e-06
3.1886171e-06
3.3766872e-06
3.2507723e-06
3.3529246e-06
3.9984222e-06
4.4837516e-06
4.9402233e-06
5.4728686e-06
4.9578186e-06
4.6165301e-06
4.9658207e-06
5.0638429e-06
5.1584858e-06
5.0564438e-06
4.5396265e-06
4.0341501e-06
4.1234192e-06
4.6022404e-06
4.7104059e-06
4.5443543e-06
4.15861e-06
3.8405554e-06
2.5698596e-06
3.7287249e-06
3.7643545e-06
3.9239793e-06
4.2446737e-06
5.2232964e-06
5.8996984e-06
6.1398022e-06
6.039691e-06
5.1913943e-06
4.9037156e-06
5.300578e-06
5.61013e-06
5.6366314e-06
5.5452985e-06
4.7315404e-06
4.4416957e-06
4.7286767e-06
4.9571324e-06
4.9745975e-06
5.0023261e-06
4.369798e-06
4.2835035e-06
2.0587114e-06
3.8065724e-06
4.173884e-06
4.0322165e-06
5.135578e-06
6.531211e-06
7.47731e-06
7.7969525e-06
7.1004976e-06
5.8250634e-06
5.7113255e-06
6.5211e-06
6.965024e-06
7.0122706e-06
6.1996274e-06
5.0279466e-06
4.8214408e-06
5.1894241e-06
5.6002237e-06
5.7538128e-06
5.1602212e-06
4.6014031e-06
4.6493775e-06
1.8346411e-06
3.6839644e-06
4.2937247e-06
4.7993899e-06
5.4376249e-06
7.1278981e-06
8.4250254e-06
8.977517e-06
8.6434891e-06
7.0264211e-06
6.9580098e-06
8.0659614e-06
8.4253194e-06
8.0268724e-06
6.5619411e-06
5.5892788e-06
5.7266299e-06
6.5524141e-06
6.6932438e-06
6.2690803e-06
5.3513246e-06
5.0244878e-06
5.490282e-06
2.3081202e-06
3.0643779e-06
3.9735864e-06
4.523973e-06
5.2548057e-06
7.1158311e-06
8.6477426e-06
9.3154741e-06
9.2201866e-06
7.7859633e-06
8.0330757e-06
8.9550966e-06
9.0708877e-06
8.6210747e-06
7.2205863e-06
6.6883004e-06
7.0983613e-06
7.3459098e-06
7.3376758e-06
6.6910634e-06
5.7087533e-06
5.6954147e-06
6.0840231e-06
1.4633587e-06
2.1890463e-06
3.4358991e-06
4.2870627e-06
5.0187348e-06
6.8661369e-06
8.5547192e-06
9.3811453e-06
9.4667585e-06
8.482061e-06
8.9791726e-06
9.7598014e-06
9.9723443e-06
9.4170753e-06
7.7014499e-06
7.4064082e-06
8.3307711e-06
8.5829114e-06
8.331045e-06
6.9870888e-06
6.3875829e-06
6.9313617e-06
7.1585844e-06
7.4227464e-07
2.0434237e-06
3.3234355e-06
4.2833059e-06
5.0413173e-06
6.9593661e-06
8.7254958e-06
9.8613547e-06
1.0427725e-05
1.0495703e-05
1.1549046e-05
1.1786495e-05
1.0985629e-05
9.7813636e-06
8.5006415e-06
8.8195335e-06
9.3556515e-06
9.2374426e-06
8.7649753e-06
7.607196e-06
7.7739686e-06
7.9175814e-06
7.5589266e-06
8.1614825e-07
2.3394578e-06
3.6985856e-06
4.710341e-06
5.6606256e-06
8.4013639e-06
1.0369531e-05
1.0947576e-05
1.128181e-05
1.133363e-05
1.2456566e-05
1.2715252e-05
1.2216553e-05
1.0353388e-05
9.3363232e-06
9.653913e-06
1.0241334e-05
1.0387209e-05
9.263249e-06
8.6132696e-06
8.4787285e-06
8.4634983e-06
8.3235163e-06
1.7358995e-06
3.1560037e-06
5.2997761e-06
6.7886944e-06
8.8674456e-06
1.2351333e-05
1.3176675e-05
1.2226889e-05
1.1750285e-05
1.1685762e-05
1.3152476e-05
1.3896651e-05
1.3600542e-05
1.1537962e-05
1.0962029e-05
1.1495568e-05
1.1865461e-05
1.1120094e-05
9.7555314e-06
9.3574056e-06
9.3942505e-06
9.4581386e-06
8.7804312e-06
3.223766e-06
4.3266056e-06
7.6068e-06
9.8628723e-06
1.2774648e-05
1.4304917e-05
1.470507e-05
1.4382536e-05
1.3825801e-05
1.4086677e-05
1.4207559e-05
1.4292169e-05
1.4270908e-05
1.3394683e-05
1.3187845e-05
1.2705733e-05
1.2329763e-05
1.1488709e-05
1.0725736e-05
1.0491844e-05
1.0121462e-05
9.8186722e-06
9.6341926e-06
1.6268554e-06
5.216924e-06
8.950085e-06
1.1759019e-05
1.4189017e-05
1.51824e-05
1.5760495e-05
1.6528068e-05
1.6795001e-05
1.5875256e-05
1.5176091e-05
1.508567e-05
1.5249943e-05
1.4811659e-05
1.3474475e-05
1.3013538e-05
1.3144865e-05
1.2894598e-05
1.160681e-05
1.0929297e-05
1.0755809e-05
1.0989574e-05
1.1106058e-05
1.189496e-06
5.2318551e-06
8.3113737e-06
1.2836562e-05
1.4994222e-05
1.6029046e-05
1.6991502e-05
1.7662615e-05
1.7523387e-05
1.6454792e-05
1.6046628e-05
1.5839889e-05
1.544757e-05
1.4598824e-05
1.3757823e-05
1.3973075e-05
1.4410034e-05
1.342675e-05
1.2084935e-05
1.1778258e-05
1.1919181e-05
1.1703215e-05
1.1593093e-05
1.7081391e-06
6.3568531e-06
1.1002627e-05
1.4009412e-05
1.5308134e-05
1.5929701e-05
1.7281247e-05
1.8014999e-05
1.7568353e-05
1.644213e-05
1.6236476e-05
1.651071e-05
1.6220658e-05
1.487063e-05
1.4506512e-05
1.5029465e-05
1.5112408e-05
1.3539974e-05
1.2930972e-05
1.2772465e-05
1.2661655e-05
1.2478612e-05
1.2725549e-05
3.9434593e-06
8.2360097e-06
1.2666572e-05
1.4969292e-05
1.5502715e-05
1.5527903e-05
1.676242e-05
1.7734344e-05
1.7478205e-05
1.6424628e-05
1.6280955e-05
1.6739567e-05
1.6999881e-05
1.5930607e-05
1.4927839e-05
1.5302589e-05
1.6047009e-05
1.5133134e-05
1.3198884e-05
1.2997058e-05
1.3250187e-05
1.3448994e-05
1.3159414e-05
4.9292664e-06
9.9222714e-06
1.2322257e-05
1.3266829e-05
1.6660248e-05
1.6272286e-05
1.7333622e-05
1.8293994e-05
1.8135752e-05
1.6923519e-05
1.6399864e-05
1.6880493e-05
1.7290724e-05
1.6852404e-05
1.5481079e-05
1.5550455e-05
1.6187927e-05
1.5930264e-05
1.4257077e-05
1.3185546e-05
1.325419e-05
1.3613437e-05
1.3400139e-05
2.5539555e-06
1.2718526e-05
1.8554415e-05
2.0047005e-05
1.9267412e-05
1.8028499e-05
1.8976156e-05
2.0031817e-05
2.0015636e-05
1.831988e-05
1.7047192e-05
1.7230076e-05
1.7752044e-05
1.7402463e-05
1.6001111e-05
1.5549099e-05
1.6141824e-05
1.6351503e-05
1.5883135e-05
1.4157056e-05
1.3646424e-05
1.3760595e-05
1.3683493e-05
2.1957075e-06
1.5078037e-05
2.6571549e-05
2.9667967e-05
2.7958305e-05
2.3481238e-05
2.4860255e-05
2.5722619e-05
2.539585e-05
2.2185279e-05
1.8379257e-05
1.8101881e-05
1.8049201e-05
1.7920759e-05
1.6753648e-05
1.5844925e-05
1.6091181e-05
1.6637383e-05
1.6620416e-05
1.568445e-05
1.438604e-05
1.4364206e-05
1.4170307e-05
3.3906668e-06
1.6405296e-05
2.9438142e-05
3.4851102e-05
3.7193853e-05
3.2191982e-05
2.9944714e-05
3.015888e-05
2.8831939e-05
2.4667984e-05
1.9869001e-05
1.9183596e-05
1.8799109e-05
1.8547734e-05
1.8062831e-05
1.6774862e-05
1.6687384e-05
1.718946e-05
1.7004906e-05
1.6861101e-05
1.5572089e-05
1.4972493e-05
1.4721551e-05
4.6736399e-06
1.5910102e-05
2.9498006e-05
3.4960482e-05
3.1142855e-05
3.1457695e-05
3.3636097e-05
3.2420767e-05
3.0466382e-05
2.6086135e-05
2.1427291e-05
2.0335871e-05
2.0330851e-05
1.9393657e-05
1.9073145e-05
1.7873318e-05
1.7329395e-05
1.7530757e-05
1.7875248e-05
1.7323448e-05
1.6980338e-05
1.5915337e-05
1.5229499e-05
4.5706947e-06
1.2263739e-05
2.7249024e-05
2.9774646e-05
3.6067214e-05
3.9899467e-05
3.7704591e-05
3.3516613e-05
3.1226304e-05
2.7197917e-05
2.2698333e-05
2.0773487e-05
2.0970731e-05
2.091616e-05
1.9805445e-05
1.8962053e-05
1.7592727e-05
1.7525739e-05
1.7926847e-05
1.7896768e-05
1.7448042e-05
1.6976249e-05
1.6312876e-05
1.8037919e-06
9.1098324e-06
1.9448241e-05
3.1213157e-05
3.6741059e-05
3.8251537e-05
3.8695833e-05
3.5075067e-05
3.1478598e-05
2.7689906e-05
2.3360611e-05
2.074117e-05
1.9742356e-05
2.0347707e-05
2.0655069e-05
1.9571156e-05
1.8157153e-05
1.764745e-05
1.7792815e-05
1.8322089e-05
1.8041458e-05
1.7612853e-05
1.7121344e-05
1.557879e-06
7.3175944e-06
1.2478408e-05
2.2036871e-05
3.2071948e-05
3.6002504e-05
3.6690727e-05
3.4982775e-05
3.151151e-05
2.7494512e-05
2.3298613e-05
1.9965867e-05
1.7645723e-05
1.712008e-05
1.7540629e-05
1.8433766e-05
1.8514296e-05
1.8062142e-05
1.7843244e-05
1.792492e-05
1.8285113e-05
1.8367127e-05
1.8056277e-05
1.6078745e-06
5.6915856e-06
8.507378e-06
1.3580171e-05
2.1735747e-05
2.8562845e-05
3.180713e-05
3.1813364e-05
2.9704555e-05
2.5881612e-05
2.1689142e-05
1.7383367e-05
1.4541276e-05
1.378877e-05
1.3898761e-05
1.4244746e-05
1.5177711e-05
1.5919023e-05
1.6291852e-05
1.6585793e-05
1.6822627e-05
1.7383101e-05
1.8094757e-05
2.0928878e-06
5.7057375e-06
6.3370437e-06
8.7067429e-06
1.3711855e-05
1.8215126e-05
2.0493891e-05
2.1716871e-05
2.1988701e-05
1.9673833e-05
1.5683503e-05
1.2495354e-05
1.0925358e-05
1.0689216e-05
1.0874417e-05
1.1243758e-05
1.2049072e-05
1.2777068e-05
1.3687347e-05
1.4441759e-05
1.4957439e-05
1.534752e-05
1.6337661e-05
2.3743809e-06
6.4954559e-06
5.2146258e-06
6.0378659e-06
8.2014744e-06
1.09253e-05
1.2011528e-05
1.2129866e-05
1.2163407e-05
1.161671e-05
9.9251148e-06
8.570194e-06
8.0746772e-06
8.1853648e-06
8.5646254e-06
9.2246255e-06
9.9229885e-06
1.0439995e-05
1.1292617e-05
1.2000675e-05
1.286456e-05
1.3298366e-05
1.4365043e-05
2.7534041e-06
6.7361371e-06
4.6955504e-06
4.4688555e-06
5.2959017e-06
6.6901212e-06
7.5921307e-06
7.9342782e-06
8.1434742e-06
8.0186984e-06
7.2096167e-06
6.7914929e-06
6.82082e-06
7.0652881e-06
7.6600278e-06
8.1573607e-06
8.6250037e-06
8.9318459e-06
9.5205541e-06
9.9144367e-06
1.0668094e-05
1.1085637e-05
1.2125183e-05
2.8731e-06
6.3970648e-06
4.6835907e-06
4.4074287e-06
4.8527129e-06
5.7110434e-06
6.5744451e-06
7.0019851e-06
7.2406379e-06
7.2208698e-06
6.8972413e-06
6.7926131e-06
6.8738007e-06
7.1275636e-06
7.5529682e-06
7.7862062e-06
8.0478249e-06
8.2236203e-06
8.5873071e-06
8.8330196e-06
9.3573786e-06
9.7226665e-06
1.0679491e-05
2.8084333e-06
5.9803711e-06
4.9944162e-06
4.9288511e-06
5.4247841e-06
6.2512888e-06
6.9303647e-06
7.3128593e-06
7.5385103e-06
7.424158e-06
7.1002797e-06
6.9350157e-06
6.8864617e-06
6.9573145e-06
7.1093449e-06
7.2128049e-06
7.3504321e-06
7.393872e-06
7.4688302e-06
7.5009267e-06
7.5996903e-06
7.7500694e-06
8.4269178e-06
2.4885251e-06
7.3654375e-06
5.7585207e-06
5.4486097e-06
5.9304333e-06
6.6050467e-06
7.0334491e-06
7.314621e-06
7.2670622e-06
6.6815164e-06
6.1732917e-06
5.8186914e-06
5.6157049e-06
5.4904306e-06
5.4474321e-06
5.4048177e-06
5.4133214e-06
5.4264425e-06
5.4739115e-06
5.5803782e-06
5.7314873e-06
5.8546565e-06
6.4181914e-06
3.0171416e-06
1.0022191e-05
8.037318e-06
7.2149401e-06
6.8873276e-06
6.7790895e-06
6.8160076e-06
6.7137527e-06
5.799081e-06
4.7324616e-06
4.0854089e-06
3.7973211e-06
3.7540628e-06
3.8041562e-06
3.9165475e-06
4.3251563e-06
4.6672402e-06
5.4012006e-06
5.7291935e-06
6.3941618e-06
6.6562979e-06
7.3707633e-06
6.5193148e-06
3.3790849e-06
1.1043577e-05
9.1250332e-06
7.8740086e-06
6.8430066e-06
6.4683731e-06
6.1241336e-06
4.8955276e-06
3.7229353e-06
3.2968215e-06
3.325331e-06
3.5639846e-06
3.8477073e-06
4.4379074e-06
5.3384609e-06
7.138783e-06
8.5942867e-06
1.1577337e-05
1.3400995e-05
1.7317381e-05
1.9159389e-05
2.37391e-05
5.1026484e-06
3.9330138e-06
1.1415841e-05
9.2262781e-06
7.723315e-06
6.3718092e-06
5.1552102e-06
3.887917e-06
3.3507198e-06
3.6257043e-06
4.220116e-06
5.0119268e-06
7.0686126e-06
1.1385066e-05
1.7756485e-05
2.5549606e-05
3.5451112e-05
4.5675693e-05
5.8388262e-05
7.0501571e-05
8.6554364e-05
9.7713536e-05
0.00011719532
0.00010993015
4.1449721e-06
1.1815752e-05
8.7867701e-06
6.1818856e-06
4.3235541e-06
3.8568426e-06
4.380356e-06
5.4133917e-06
8.0861612e-06
1.4307369e-05
2.5244313e-05
4.0385359e-05
5.7045972e-05
8.5404023e-05
0.00011012098
0.00013426252
0.00015279428
0.00017569127
0.00019158534
0.0002042188
0.00021266319
0.00021994889
0.0002050283
4.263628e-06
1.1450709e-05
6.7403196e-06
4.5450789e-06
5.1430597e-06
7.1095429e-06
1.1957963e-05
2.3082324e-05
3.9341703e-05
6.1887258e-05
9.7129426e-05
0.00013708284
0.00016520202
0.00018790517
0.00020643926
0.00022120673
0.00023158444
0.00023726249
0.00023877733
0.00020675073
0.00020072902
0.0002283056
0.00023531044
4.3765638e-06
9.9247908e-06
5.5648662e-06
7.3689927e-06
1.3410703e-05
3.2729515e-05
6.4156278e-05
0.00010388944
0.00013899648
0.00016866924
0.00019297788
0.00021301616
0.00022839681
0.00023879998
0.00024387899
0.00024431784
0.00024155022
0.00020568261
0.0001942738
0.00021393427
0.00019735917
0.00016661029
0.00015584619
4.5088244e-06
8.5858602e-06
8.7440239e-06
2.6445038e-05
6.699936e-05
0.00011327242
0.000150531
0.00018023854
0.00020475226
0.00022371256
0.00023710949
0.00024492722
0.00024681831
0.00024452183
0.00023930029
0.00022917742
0.00021338453
0.00019012186
0.00015661306
0.00011716345
8.2198118e-05
5.1032644e-05
4.6031442e-05
4.3851021e-06
8.5203442e-06
2.4987149e-05
8.3730763e-05
0.00013749746
0.00017491199
0.00020304306
0.00022428916
0.0002390573
0.00024740521
0.00024885569
0.00024505228
0.00023755456
0.00022380035
0.00020196169
0.00017134985
0.00013160815
8.8080571e-05
5.3427112e-05
3.2143865e-05
2.2530396e-05
1.8653332e-05
2.0026982e-05
4.4027142e-06
1.2332164e-05
5.8074079e-05
0.00013127336
0.00018095232
0.00021275261
0.00023356051
0.00024607489
0.00025105749
0.00024842412
0.00024050226
0.00022603221
0.00020184503
0.00016943588
0.00012914034
8.3884549e-05
4.6682061e-05
2.5383987e-05
1.6615967e-05
1.3451528e-05
1.3178107e-05
1.4024441e-05
1.8217849e-05
4.3272438e-06
2.5047128e-05