/*--------------------------------*- C++ -*----------------------------------*\
| =========                 |                                                 |
| \\      /  F ield         | OpenFOAM: The Open Source CFD Toolbox           |
|  \\    /   O peration     | Version:  2406                                  |
|   \\  /    A nd           | Website:  www.openfoam.com                      |
|    \\/     M anipulation  |                                                 |
\*---------------------------------------------------------------------------*/
FoamFile
{
    version     2.0;
    format      ascii;
    arch        "LSB;label=32;scalar=64";
    class       volScalarField;
    location    "65";
    object      T;
}
// * * * * * * * * * * * * * * * * * * * * * * * * * * * * * * * * * * * * * //

dimensions      [0 0 0 1 0 0 0];

internalField   nonuniform List<scalar> 
20580
(
1.0030277
1.0014571
1.0031974
1.0014791
1.0025302
1.0013683
1.0016247
1.0016867
1.0020663
1.0013031
1.0021732
1.0021458
1.0019729
1.0017887
1.0019379
1.001677
1.0012746
1.0024793
1.0010139
1.000329
1.001818
1.0017146
1.000568
1.0006673
1.0024547
0.99999891
0.99925703
1.0012539
0.99992086
0.99805686
1.0007937
1.0030518
1.0012541
1.0030273
1.0013034
1.002561
1.0012076
1.0016182
1.0016789
1.0021178
1.0012693
1.0021316
1.0022266
1.0018568
1.0018872
1.002096
1.0014547
1.0016202
1.0027342
1.0002034
1.0006762
1.0023858
1.0011753
1.0007186
1.0009398
1.0023024
0.99947604
0.99766391
1.0011293
1.0016427
0.99857829
0.9979275
1.0028196
1.0014638
1.0024896
1.0015611
1.0023324
1.0013136
1.0016102
1.0016698
1.0018778
1.0015609
1.0020059
1.0022024
1.0017853
1.0020248
1.0021671
1.0013813
1.0018783
1.0027106
0.99979451
1.001001
1.0024489
1.0006421
1.0007288
1.0008371
1.0018131
0.99953863
0.99725745
1.0008495
1.002914
0.99921871
0.99559389
1.0024193
1.0020032
1.0018253
1.0021139
1.0019239
1.0016068
1.0016076
1.001619
1.0014681
1.0019642
1.0018718
1.0021375
1.0018008
1.0021726
1.0021256
1.0014259
1.0020511
1.0023624
0.99982723
1.0013755
1.0021085
1.0001014
1.0007983
1.0004041
1.0009716
1.0002537
0.99797623
1.0005069
1.0034952
1.0003947
0.99471446
1.001942
1.0026552
1.0013963
1.0026042
1.0015184
1.0019234
1.0015976
1.0015254
1.0011886
1.0021129
1.0017896
1.0020379
1.0018998
1.0022016
1.0020697
1.0016121
1.0022024
1.0018115
1.0001729
1.0018833
1.0016205
0.99951317
1.001154
1.0000028
0.99968365
1.0011512
0.99970471
0.99969777
1.0025495
1.0020941
0.99660014
1.0015325
1.0031088
1.0014005
1.0028463
1.0013039
1.0021103
1.0016124
1.0014632
1.0012155
1.0019216
1.0018016
1.0018905
1.0020464
1.0021754
1.0019565
1.0018273
1.0022136
1.0012581
1.000736
1.0021624
1.0011495
0.99940574
1.0017317
1.0000182
0.99844652
1.0014516
1.0018347
0.99892489
0.9995956
1.0018836
1.0005695
1.0015398
1.0031773
1.0018801
1.0028248
1.0014367
1.0020906
1.0016299
1.0014616
1.0014888
1.0016183
1.0018328
1.0017445
1.0022841
1.0021011
1.0018873
1.0020136
1.0021637
1.000752
1.0012967
1.0022961
1.0007349
0.99958446
1.0020962
1.0005595
0.99782402
1.0009129
1.0032996
0.99916676
0.99640424
0.99898548
1.0025827
1.0019709
1.0028279
1.0025055
1.0025216
1.0018361
1.0019281
1.0015944
1.0014804
1.0018021
1.0014649
1.0018355
1.0016963
1.0023648
1.0020431
1.0017922
1.0020848
1.0020283
1.0004511
1.0017907
1.0021456
1.0005252
0.99979192
1.0021992
1.0011308
0.99804314
0.99999406
1.003246
1.0002654
0.99506022
0.99568097
1.0013337
1.0025953
1.0022408
1.0029176
1.0020123
1.0022776
1.0016657
1.0015164
1.0015157
1.0019191
1.0015229
1.0018195
1.0018161
1.0022027
1.0019816
1.001779
1.0021068
1.0020127
1.0004353
1.0021589
1.0016515
1.000494
1.0003116
1.0015273
1.0013709
0.99920845
0.99934183
1.0017001
1.0011321
0.99630793
0.99457542
0.998573
1.0028802
1.0015422
1.002935
1.0015958
1.002556
1.0014814
1.0014535
1.0015423
1.0017708
1.0017224
1.001801
1.0020173
1.0019604
1.0020104
1.0018333
1.00208
1.0019136
1.0007285
1.0022525
1.0010004
1.0006008
1.0009977
1.0003151
1.0010017
1.0007144
0.99942663
0.999687
1.0009042
0.99917425
0.99646605
0.99684589
1.0028302
1.0009841
1.0024958
1.0013777
1.0024995
1.0014198
1.0015028
1.0015762
1.0015329
1.00185
1.0017629
1.002096
1.0018352
1.002059
1.0019198
1.001979
1.0018357
1.0012528
1.0022113
1.0004139
1.0007501
1.0017033
0.99922468
0.99993389
1.0019512
1.0001491
0.99809565
0.99953037
1.0018152
1.0004218
0.99771805
1.0026017
1.0010436
1.0018644
1.0014795
1.0021461
1.0014293
1.0015834
1.0015508
1.001306
1.0017383
1.0017561
1.0020092
1.0018405
1.0020334
1.0021041
1.0018869
1.0016644
1.0017737
1.0020823
0.99999185
1.0009219
1.0022988
0.99862107
0.99865859
1.0025071
1.0012747
0.99718164
0.99753985
1.0022575
1.0040482
1.0005948
1.0022361
1.0016729
1.0015008
1.0018774
1.0016578
1.0014916
1.0016272
1.0015146
1.0012321
1.0014893
1.0017985
1.001872
1.0019499
1.0019606
1.0021584
1.0018239
1.0014047
1.0021476
1.0018235
1.00001
1.000915
1.0026276
0.99875558
0.9979355
1.0021647
1.0022439
0.99745246
0.99613554
1.0003613
1.0048243
1.0030929
1.0017526
1.0025484
1.0015827
1.0024577
1.00135
1.0016699
1.0016182
1.001487
1.0013781
1.0013744
1.0017971
1.0018009
1.002026
1.001832
1.0022048
1.0018662
1.0012305
1.0022776
1.0015034
1.0004915
1.0007255
1.0022886
0.99963679
0.99824169
1.0011801
1.0022123
0.99893103
0.99634923
0.99815447
1.0022584
1.0031918
1.0013021
1.0031076
1.001913
1.0028586
1.0013314
1.0018488
1.0014848
1.0013713
1.0015532
1.0014121
1.0016554
1.0018173
1.0020075
1.0018264
1.002185
1.0019678
1.0012493
1.002213
1.0011361
1.0011471
1.0006903
1.0012325
1.0005835
0.9996035
1.0002008
1.0009251
1.0004252
0.99821496
0.9975598
0.99870448
1.0005525
1.001225
1.0029886
1.0021588
1.0027522
1.0014973
1.0018834
1.0012413
1.001169
1.0015955
1.0015209
1.0014403
1.0018199
1.00182
1.0019583
1.0019724
1.002065
1.0014721
1.0020291
1.0006803
1.0019377
1.0008757
0.99993942
1.001068
1.0015451
0.9996742
0.99890325
1.0006816
1.0011194
0.99898774
0.99673838
0.99692897
1.0017841
1.0024835
1.0023257
1.0022764
1.0018066
1.0018127
1.0011279
1.0010466
1.0014606
1.0015766
1.0013163
1.0018087
1.0016498
1.0020508
1.0017622
1.0021289
1.0018181
1.0018016
1.0003645
1.0025241
1.0011012
0.99882282
1.0008678
1.0030317
0.99972008
0.99694711
0.99947201
1.0030853
1.0014521
0.99700194
0.99468992
1.0026148
1.0017261
1.0023954
1.0016807
1.0021578
1.0016458
1.0012939
1.001189
1.0013119
1.0015322
1.0014776
1.0017355
1.001724
1.0020577
1.0016184
1.0021708
1.0020603
1.0016881
1.0002749
1.0025694
1.0015105
0.99827173
1.000264
1.003458
1.0002427
0.99595127
0.99769914
1.0027328
1.003246
0.99866851
0.99465688
1.0030176
1.0010742
1.0022559
1.0012172
1.0022874
1.0013541
1.0015144
1.001438
1.0011984
1.0013754
1.0017588
1.001512
1.0019501
1.0019818
1.0015761
1.0020502
1.0021313
1.0016326
1.0004174
1.0022286
1.0017826
0.99859267
0.99975308
1.0028411
1.0006917
0.9964631
0.99701451
1.0008354
1.0031748
1.0003638
0.99657615
1.0029943
1.0009508
1.0020504
1.0010883
1.0021835
1.0012097
1.0016001
1.001561
1.001112
1.0012262
1.0018335
1.0012397
1.0020003
1.0018243
1.0016839
1.0018444
1.0020981
1.0015067
1.0009438
1.0016347
1.0015446
0.99969531
0.99986703
1.0013449
1.0005751
0.99816843
0.99792563
0.99936843
1.0010762
1.0008074
0.99903048
1.0025169
1.0015369
1.0020046
1.0016111
1.001985
1.0013305
1.0016063
1.0015595
1.0012213
1.0012342
1.0016865
1.0013076
1.0018898
1.0016945
1.00194
1.0017392
1.001894
1.0014344
1.0017368
1.000936
1.0008797
1.0010176
1.0005837
0.99988528
0.99963759
1.0000879
1.0000817
0.99922891
0.99840023
0.9995364
1.0005915
1.0017555
1.0023219
1.0020679
1.0024147
1.0015717
1.0015511
1.0012985
1.0011979
1.0012274
1.0012424
1.0012342
1.0015904
1.0014898
1.0015374
1.0020695
1.0015364
1.0015581
1.0011389
1.0022928
1.0003891
0.99987133
1.0018601
1.0013137
0.99880928
0.99809876
1.0009034
1.0022175
0.99977615
0.99626582
0.99680307
1.0000982
1.0011543
1.0022494
1.0016917
1.0020886
1.0009635
1.0012224
1.0006281
1.0003778
1.000891
1.0008549
1.0005693
1.0014623
1.0008818
1.0011341
1.0018831
1.0012286
1.0010831
1.0005106
1.0025008
0.99999503
0.9988144
1.0017578
1.0017745
0.99839815
0.99674145
1.0001942
1.0034104
1.0005606
0.99552921
0.99444882
0.99819271
1.0017388
1.001798
1.0002917
0.99769196
0.99580769
0.99573424
0.9972472
0.99900308
0.99963943
0.99860093
0.99656875
0.99554367
0.99704331
1.0004877
1.003713
1.0045357
1.0021278
0.99727153
0.99338626
0.99394066
0.99730062
1.0002982
1.0019446
0.99749768
0.99757728
0.99842417
0.99998126
1.0018228
1.0032104
1.0030917
1.0012725
0.99787073
0.99430298
0.99277762
0.9943464
0.99776054
1.0006865
1.0013738
1.0001855
0.99821532
0.99675863
0.99743273
1.0003653
1.0025812
1.001535
0.99856626
0.99236851
0.99483709
0.99814829
1.0007898
1.0021277
1.0021395
1.0009166
0.99919399
0.99785409
0.99776943
0.99923299
1.0011034
1.0012557
0.9988048
0.99486316
0.99214094
0.99225291
0.99507041
0.9995997
1.0038333
1.0049347
1.0021036
0.99818452
0.99704758
0.99891812
0.99944595
0.99799803
0.99526639
0.99268286
0.99206069
0.9939858
0.99790694
1.00191
1.0046681
1.0050722
1.0029083
0.99868216
0.99437772
0.99269082
0.99401223
0.99647399
0.99815418
0.99856702
0.99751997
0.9962333
0.9966664
1.0038676
1.002617
1.0001613
0.9964156
0.99284925
0.99117587
0.99231115
0.99541188
0.99803401
0.99939344
0.99899964
0.99755638
0.99625061
0.99634549
0.99799556
1.0004341
1.002595
1.0026376
0.99956415
0.99429358
0.9898754
0.98862725
0.99143215
0.99844944
0.99695268
0.99693286
0.99760915
0.99895931
1.0005315
1.0018392
1.0024025
1.0004381
0.99622174
0.99091112
0.98764501
0.98806135
0.99184502
0.99744072
1.0025081
1.0053989
1.0052416
1.0019832
0.9967232
0.99241084
0.9910748
0.99241674
0.99059555
0.99093808
0.9940469
0.99852975
1.0024658
1.0046681
1.0051632
1.0041262
1.0014339
0.99716913
0.99263096
0.99047668
0.9909896
0.99340148
0.99576597
0.99648424
0.99583978
0.99552806
0.99633623
0.99782062
0.99908746
1.0000788
1.0005249
0.99294287
0.99491915
0.99675664
0.99778816
0.99656625
0.9949891
0.9943437
0.9947569
0.99621742
0.99815879
0.99967416
1.0009109
1.0018428
1.0016273
0.99891138
0.99307071
0.98728966
0.98469823
0.98614119
0.99113822
0.99735559
1.0026275
1.0052916
1.0029833
1.0034615
1.0004308
0.99585346
0.99048154
0.98589976
0.98386428
0.98494011
0.98930141
0.99566849
1.0009839
1.0044346
1.0063476
1.0058528
1.0029231
0.99674459
0.98999258
0.98557081
0.98555801
0.98830467
0.99189371
0.99432559
0.99572379
1.0026724
1.0037735
1.0009623
0.99689199
0.99188287
0.98768188
0.98627866
0.9881569
0.991233
0.99377648
0.9949575
0.99507403
0.9955467
0.997204
0.9990804
0.99972873
0.99821734
0.99628636
0.99554571
0.9944431
0.99279017
0.98940181
0.98565374
0.99100456
0.9932784
0.99481828
0.99694421
0.99773434
0.99831266
0.99837657
0.99893884
0.9986189
0.99632281
0.99129705
0.98548077
0.98148399
0.98244656
0.98699536
0.99370946
1.00031
1.0039845
1.0049173
1.0033999
0.99936546
0.9922826
0.98381533
0.98108481
0.98317034
0.98785741
0.99410896
0.99984391
1.0040104
1.0061374
1.0064372
1.0044437
0.99976685
0.99248131
0.98390072
0.97759787
0.97595477
0.97971474
0.98699545
0.99368866
0.99838813
1.0016054
1.0038979
1.0033722
0.99880724
0.99126188
0.97877951
0.98173955
0.98696861
0.99294726
0.99729919
0.9992309
0.99937404
1.0004181
1.0016311
1.0012606
0.99716508
0.98963404
0.98319148
0.98067458
0.98244344
0.98582411
0.98864849
0.9893875
0.98971959
0.99092978
0.99511423
0.99922052
0.99917247
0.98579354
0.98848188
0.99181042
0.99365825
0.99268452
0.98914848
0.98569661
0.98618867
0.9898055
0.99511145
0.99874427
0.99774938
0.99381533
0.99065624
0.99011653
0.99035816
0.98854452
0.98410829
0.9790115
0.97830159
0.98175423
0.98900323
0.99741013
0.99533462
0.99571349
0.99555043
0.99335503
0.98844355
0.98124385
0.97515464
0.97392466
0.97839299
0.98650702
0.99506172
1.0002751
1.000933
0.99934416
0.9975445
0.99526138
0.99129202
0.98352189
0.97478178
0.96927177
0.97164753
0.97950564
0.99028406
0.99974043
0.99917212
0.99746133
0.99334371
0.98616474
0.97712287
0.97002576
0.96764625
0.97179544
0.98090173
0.99088295
0.9977906
1.0005397
1.0009435
1.0004608
0.99882921
0.99431496
0.98583493
0.97499071
0.96797392
0.967179
0.97355669
0.98442266
0.99766428
0.99750112
0.99719106
0.99362554
0.98632516
0.97689033
0.96892961
0.96627468
0.97000576
0.97869482
0.98821266
0.99415517
0.99588351
0.99628332
0.99740958
0.99830001
0.99641013
0.988993
0.97821423
0.96969881
0.96765823
0.97215802
0.98091216
0.99240734
0.99329988
0.99527505
0.99397887
0.98758319
0.97781108
0.96983674
0.96692187
0.97046216
0.97850593
0.98687238
0.99032607
0.98984356
0.98926244
0.99097633
0.99492428
0.99641201
0.9915542
0.98152984
0.97297559
0.96988663
0.97313363
0.98032227
0.98673824
0.9888533
0.99295772
0.99355639
0.98815877
0.97844305
0.97054778
0.96759669
0.97153861
0.97961493
0.98613112
0.9873755
0.98410944
0.98259633
0.98474891
0.99082477
0.99532295
0.99270478
0.98318852
0.97483184
0.97126575
0.97449736
0.98049102
0.98275508
0.98540843
0.99035529
0.99235109
0.9876522
0.97794492
0.96988003
0.96702797
0.9721023
0.9803357
0.98548456
0.98419966
0.97928812
0.97711341
0.98002193
0.9886183
0.99485331
0.99252833
0.98283647
0.97448091
0.97140777
0.97601402
0.98065158
0.97954961
0.98322737
0.98913239
0.99140293
0.98609253
0.97542592
0.96693652
0.96454119
0.97094451
0.98011323
0.9844468
0.9817693
0.97556594
0.97372148
0.97800983
0.98815641
0.9944943
0.99063386
0.98012279
0.97229147
0.97041361
0.97639981
0.9806745
0.97988485
0.98326555
0.9887129
0.98975783
0.98260024
0.97080606
0.96245533
0.96083888
0.96869667
0.97894013
0.98392936
0.980514
0.97431537
0.97273542
0.97835949
0.98842322
0.99288693
0.98630929
0.97478916
0.96817111
0.96839905
0.9765381
0.98020001
0.9824064
0.98505903
0.98929588
0.98822862
0.97823427
0.9645342
0.95565003
0.95473409
0.96457523
0.97732794
0.98356582
0.98101011
0.97548789
0.97430707
0.98074166
0.98920786
0.98931716
0.97906931
0.96731879
0.96192781
0.96641066
0.97659855
0.97947879
0.98589807
0.98796863
0.98979096
0.98547647
0.97197254
0.9563151
0.947406
0.94802713
0.96034457
0.97548252
0.98440133
0.9835306
0.97935597
0.97827915
0.98441119
0.98907347
0.98405896
0.96909629
0.95796023
0.95474699
0.96453696
0.97695882
0.98022778
0.98507213
0.98805468
0.98913177
0.98305946
0.96695532
0.94950941
0.94013164
0.94252056
0.95768707
0.97616399
0.98669564
0.98699408
0.98358175
0.98116923
0.98595593
0.98611502
0.97465998
0.95780543
0.94759647
0.94930209
0.96573745
0.98049168
0.98402544
0.97392653
0.98055284
0.9849954
0.98165743
0.96664302
0.94819669
0.93845976
0.94309074
0.96100223
0.98057442
0.98949973
0.98639224
0.98120881
0.97924349
0.98401151
0.98019137
0.96375009
0.94678437
0.94053956
0.95065883
0.97363704
0.98792369
0.98948257
0.95411647
0.96491727
0.97588746
0.98008197
0.97151113
0.95463431
0.94531345
0.95154447
0.96976722
0.98595036
0.98757044
0.97789328
0.97121335
0.97281097
0.97832251
0.97181343
0.95402492
0.94205513
0.94289019
0.96356042
0.9857834
0.99109541
0.98844846
0.93761357
0.94965213
0.96609236
0.97922409
0.9799268
0.96931551
0.96029395
0.96542422
0.97826057
0.98485913
0.97628819
0.96171236
0.95600988
0.96367735
0.9718327
0.9662236
0.95223428
0.94741952
0.95788695
0.98088439
0.98964103
0.98422638
0.97999366
0.93511726
0.94632123
0.96414667
0.98142855
0.98683046
0.97888592
0.97041626
0.9738964
0.97942663
0.97591604
0.95909032
0.94407083
0.94088988
0.95618267
0.97029479
0.96969745
0.96289431
0.96403316
0.97628213
0.98590176
0.97813822
0.96752268
0.96430045
0.94902702
0.95740273
0.97166868
0.98204529
0.9821099
0.97167868
0.96488915
0.97130771
0.97551614
0.96698969
0.9462694
0.93277019
0.93659668
0.95945192
0.97821122
0.98031088
0.97603648
0.97646411
0.98214601
0.97246052
0.95487641
0.94762357
0.95673083
0.96836431
0.97319405
0.97820191
0.97657894
0.96530446
0.95094099
0.94813897
0.96124027
0.9716374
0.96615106
0.94814214
0.93988336
0.95059261
0.97402098
0.98396218
0.9787407
0.97382591
0.97566762
0.97255181
0.9516892
0.93724228
0.94189356
0.96449892
0.97074055
0.97829556
0.98055377
0.97156166
0.95237706
0.93632449
0.93704374
0.95505762
0.97232377
0.97489841
0.9642902
0.96043835
0.96972752
0.97805749
0.97022163
0.96007026
0.95984517
0.96745938
0.96191066
0.94535322
0.94106045
0.95713081
0.97718772
0.95616804
0.97041383
0.97930175
0.97463311
0.95584624
0.94258754
0.94457057
0.96232566
0.9771144
0.97764882
0.9717285
0.96944121
0.97300821
0.96653414
0.94881201
0.93975932
0.94963998
0.96714619
0.96804277
0.96152694
0.9642706
0.97481587
0.97194085
0.95093788
0.96368769
0.97581313
0.97764384
0.9685239
0.96136871
0.96492709
0.97380728
0.97394869
0.96262001
0.95716738
0.96318863
0.97015416
0.95849298
0.93957118
0.93732712
0.95597617
0.97637156
0.97876497
0.97538494
0.97672614
0.97180454
0.95274979
0.96340852
0.9708387
0.97609924
0.97240835
0.96703526
0.96814849
0.97531562
0.97524306
0.96194095
0.94518212
0.94189621
0.95688959
0.97003778
0.96544818
0.95564074
0.9592095
0.97095699
0.97286634
0.96969834
0.97097371
0.96946085
0.95525544
0.94220109
0.97646528
0.97983916
0.97582916
0.96445738
0.95636468
0.95823189
0.9698296
0.97582997
0.96693902
0.94870977
0.94165049
0.952975
0.97098435
0.97722229
0.97149504
0.9689982
0.96841115
0.96287487
0.95212003
0.95385892
0.9630724
0.96604123
0.96000339
0.97468034
0.98042486
0.97548797
0.96241558
0.9525322
0.95024633
0.96056743
0.97206384
0.97395011
0.96483249
0.95649702
0.95895371
0.96938987
0.97452879
0.96945157
0.96791522
0.96842853
0.96529826
0.9532181
0.94706839
0.95201218
0.96263544
0.96743557
0.96347486
0.97154287
0.97221344
0.96611956
0.96033517
0.95804397
0.96227546
0.96994294
0.97449869
0.97150453
0.96872892
0.96979135
0.97175175
0.96957768
0.96002925
0.95443201
0.95809535
0.96501888
0.96556402
0.96048763
0.96069644
0.96503469
0.9684688
0.96125864
0.96613369
0.96869962
0.96906213
0.97112605
0.97233867
0.9740883
0.9743882
0.97270582
0.96772232
0.96388121
0.96659072
0.9707373
0.97080242
0.96142047
0.95156098
0.95109489
0.95888763
0.96897934
0.97365163
0.97406765
0.97414441
0.97252547
0.97147518
0.9724687
0.97146927
0.96947636
0.97014799
0.97329013
0.97687522
0.97728924
0.97352186
0.96404771
0.9556458
0.95588863
0.96192626
0.96994711
0.97111955
0.96607878
0.96159853
0.96294757
0.96849063
0.97343017
0.97333711
0.97169304
0.96854793
0.98101517
0.98101716
0.9770556
0.96966079
0.96374712
0.96255566
0.96674582
0.97133786
0.97311966
0.96958306
0.96216899
0.9575147
0.95961579
0.96653157
0.9735788
0.9762222
0.97459797
0.97252062
0.97061471
0.96971786
0.96668764
0.96332459
0.96186981
0.97647778
0.97957381
0.97872303
0.97285153
0.96499672
0.95964337
0.96036527
0.96532516
0.97192998
0.97636007
0.97602458
0.97286898
0.97003067
0.96924564
0.97087199
0.97242694
0.97169446
0.97047266
0.96872676
0.96656996
0.96403337
0.96235538
0.96320131
0.96724639
0.97148728
0.9758317
0.97728922
0.97463385
0.97057574
0.96867746
0.97015703
0.97367181
0.97734019
0.97940755
0.97899904
0.97698582
0.97407231
0.97073156
0.9679059
0.96539212
0.96475798
0.96517959
0.96581386
0.96639699
0.96716392
0.96942504
0.96837129
0.9706257
0.97469781
0.97889081
0.98123611
0.98145316
0.98052886
0.97988555
0.97873166
0.97722214
0.97503943
0.9730189
0.97282482
0.97333513
0.97296768
0.97169308
0.96974149
0.96924294
0.97023838
0.97178569
0.9729186
0.97297635
0.97262076
0.97625822
0.97691094
0.97751838
0.97895483
0.98001295
0.98071298
0.98100847
0.98160773
0.98127504
0.97931161
0.97564568
0.97165081
0.9707406
0.97280298
0.97633627
0.97903888
0.97914522
0.97829311
0.97732464
0.97660289
0.9756514
0.97443031
0.97149034
0.97708149
0.97966421
0.98087708
0.98072997
0.97988548
0.97898299
0.97864223
0.97952167
0.98119968
0.98258189
0.98204964
0.97951552
0.97773054
0.97822833
0.98031973
0.98267912
0.98325427
0.98171259
0.97865276
0.97581503
0.97370439
0.97295265
0.9717935
0.97462149
0.97823851
0.98221844
0.98526811
0.98668883
0.98652737
0.9853724
0.98423558
0.9842702
0.98518
0.9857115
0.98528744
0.98398507
0.98233054
0.98137119
0.98147977
0.98136545
0.98099916
0.97999662
0.97835021
0.97688875
0.97694162
0.9772989
0.98001008
0.98180251
0.98515145
0.98874927
0.991413
0.99264627
0.9923396
0.99067597
0.98831684
0.98615884
0.98512889
0.98488301
0.98455723
0.98391951
0.98273605
0.98171746
0.98160154
0.98251104
0.98436537
0.985744
0.98533656
0.98468614
0.98207779
0.98814872
0.98958648
0.99041832
0.99059829
0.99064747
0.99066738
0.99093669
0.99068988
0.98959653
0.98770435
0.98636255
0.98607636
0.98661715
0.9876888
0.98830067
0.9879316
0.98738105
0.98704817
0.98747124
0.98871167
0.98853467
0.98760333
0.98437341
0.98851821
0.9919775
0.99345476
0.99308455
0.99139619
0.99013141
0.99004585
0.99080436
0.99193287
0.99241365
0.9920444
0.99105783
0.99042669
0.99038886
0.99063531
0.9911271
0.99097556
0.99005186
0.98932155
0.98881894
0.9883017
0.98845561
0.98681727
0.98685421
0.99074629
0.99391407
0.99567806
0.99562003
0.99455453
0.99348727
0.99334233
0.99407305
0.99454573
0.99460371
0.993686
0.99202849
0.99042206
0.989906
0.99063831
0.99179808
0.99307835
0.99329273
0.99310585
0.99303253
0.99276897
0.99224125
0.98950438
0.9916793
0.99430648
0.99634503
0.9971353
0.99674444
0.9955955
0.9944209
0.99357859
0.99322371
0.99364431
0.99395116
0.99389748
0.99357024
0.99347061
0.99407101
0.99497144
0.99606043
0.99631943
0.99580163
0.99497407
0.99426357
0.99365383
0.99251511
0.99310045
0.99388055
0.99441336
0.99516532
0.99578276
0.99573705
0.99541107
0.99476307
0.99439871
0.9947689
0.995473
0.99644427
0.99680559
0.99679465
0.9965894
0.99616768
0.99578885
0.99517327
0.99427
0.9933086
0.99307241
0.99304234
0.99400987
0.99451049
0.99443955
0.99436137
0.99459424
0.99506998
0.99575027
0.99663654
0.99687534
0.99678961
0.9969998
0.99667123
0.99667373
0.99642825
0.99577843
0.99531464
0.99485403
0.99464695
0.99486492
0.99514812
0.99553831
0.9957599
0.9960056
0.99321331
0.99455941
0.99547967
0.99593494
0.9960187
0.99619916
0.99633917
0.99689121
0.99742076
0.99726596
0.99718752
0.9965335
0.99583477
0.99568207
0.995378
0.99559277
0.99607248
0.99638613
0.99706786
0.997241
0.99757567
0.99737913
0.99674955
0.99342105
0.99502983
0.99661086
0.99747421
0.9975471
0.99773894
0.99767883
0.99732348
0.99735419
0.99692029
0.99645597
0.99633899
0.9959803
0.99621466
0.99679267
0.99731974
0.99788614
0.99779036
0.99757534
0.99667346
0.99630623
0.9958376
0.99562861
0.99504413
0.99648564
0.99732371
0.99759075
0.99738004
0.99719354
0.99722464
0.99689806
0.99672006
0.99676664
0.99662897
0.9969448
0.99709556
0.99724963
0.9976727
0.99748781
0.99743472
0.9970418
0.99641909
0.99606319
0.99597968
0.99651211
0.99726391
0.99530913
0.99687333
0.99728916
0.99724805
0.99720651
0.99708839
0.99720508
0.997188
0.99707408
0.99726348
0.99721948
0.99732508
0.99756475
0.99733068
0.99730378
0.99707873
0.99683621
0.9969603
0.99697565
0.99762362
0.9980574
0.99868766
0.99891301
0.99579234
0.99716335
0.99726697
0.99716419
0.9972275
0.99721221
0.99722422
0.99727817
0.99716378
0.9971625
0.9971851
0.99716873
0.99739218
0.99741149
0.99743906
0.99764715
0.99773092
0.99807948
0.99836409
0.9987519
0.99882237
0.99875557
0.99815419
0.99596537
0.99705203
0.99720204
0.9971812
0.99715304
0.99711198
0.99704479
0.99709927
0.99723032
0.99731582
0.99748016
0.99757786
0.99763962
0.99778042
0.99788173
0.99823372
0.99848486
0.99848108
0.99836516
0.99814801
0.99803854
0.99800094
0.99775574
0.99600969
0.99686988
0.99719789
0.99736641
0.99735594
0.99719885
0.9970808
0.99709168
0.9972142
0.99741501
0.99765301
0.99781849
0.99785064
0.99783619
0.9979465
0.99819457
0.99846272
0.99852134
0.99843106
0.99820986
0.99803111
0.99809446
0.99825747
0.99651807
0.99687894
0.9970117
0.99719303
0.99726467
0.99715774
0.99708829
0.99707984
0.997013
0.9971642
0.9975606
0.9979669
0.99835456
0.99848197
0.99830955
0.99820877
0.99830072
0.99851886
0.9987119
0.9985541
0.99826713
0.99810733
0.99828056
0.9967866
0.9967423
0.99668876
0.99683836
0.99706218
0.99725088
0.99729102
0.99711558
0.99708255
0.99745484
0.99785999
0.99817589
0.99845202
0.99836919
0.99834656
0.99840931
0.99826768
0.99838661
0.99848088
0.99836647
0.9982591
0.99810388
0.99810718
0.99687936
0.99686914
0.99683334
0.99681073
0.99684214
0.99691665
0.99704287
0.99724399
0.9976111
0.99797257
0.99806261
0.99806418
0.99808351
0.99828644
0.99859047
0.99842627
0.99809909
0.99817344
0.99846369
0.99869693
0.99835888
0.99808564
0.99812471
0.9970665
0.99691958
0.99659313
0.99659634
0.99687576
0.99711703
0.9973204
0.99741621
0.99753986
0.99788839
0.99817602
0.9981098
0.99796755
0.99828154
0.99859311
0.99858837
0.99838493
0.99819493
0.99843763
0.99844991
0.99815685
0.99803801
0.99815954
0.99702222
0.99692037
0.99674721
0.99685019
0.99702244
0.99708572
0.99723589
0.99731215
0.99756766
0.99829153
0.99841386
0.99803476
0.99808143
0.99825277
0.9985153
0.99863968
0.99830245
0.99821599
0.99843839
0.99853472
0.99837832
0.99809735
0.99805192
0.99717274
0.99709083
0.99668318
0.99669795
0.99706691
0.99729317
0.99749807
0.99769089
0.99775317
0.99820275
0.99840031
0.99810299
0.99815976
0.99828048
0.99850812
0.99875858
0.99834355
0.9981394
0.9981975
0.99850337
0.99872675
0.99840848
0.99827934
0.99704449
0.99694505
0.99704747
0.99728294
0.99742164
0.99738368
0.99741428
0.99772408
0.99813449
0.99834963
0.99824416
0.99803299
0.99812492
0.99825517
0.99845386
0.99881664
0.9988528
0.99871816
0.99832512
0.9983037
0.99850278
0.99848027
0.99828018
0.99707797
0.99732096
0.99738815
0.99726087
0.99740054
0.99759841
0.99763349
0.99770977
0.9978937
0.99824214
0.99868831
0.9987503
0.9984427
0.99831997
0.99848806
0.9988216
0.99866408
0.99813339
0.99818499
0.99873398
0.99893717
0.99860188
0.99834171
0.99700786
0.99693228
0.99730331
0.99791097
0.99829784
0.99808653
0.99776853
0.997856
0.99799169
0.99791045
0.99811829
0.99852879
0.99866521
0.99872448
0.99881523
0.99858324
0.99861991
0.99868069
0.99857948
0.99865917
0.99881989
0.99875863
0.99859133
0.99747409
0.99761995
0.99785769
0.99768163
0.99755298
0.99772889
0.99817978
0.99846883
0.99814858
0.9979776
0.99859492
0.99887777
0.9985741
0.99848324
0.9988704
0.99901738
0.99857155
0.9981713
0.99851423
0.99914414
0.99918782
0.9987033
0.99841009
0.99828184
0.99766136
0.99760859
0.99779853
0.99779833
0.9978748
0.99805972
0.99821571
0.9985163
0.99893263
0.99898952
0.99875963
0.99857481
0.99838767
0.99842874
0.99867332
0.99877572
0.99891447
0.9989479
0.99901957
0.99906455
0.99900817
0.99878128
0.99732912
0.99820118
0.99845626
0.99792135
0.99765745
0.99827008
0.99884705
0.9986171
0.99824384
0.99857292
0.99915693
0.99901375
0.99842409
0.99825072
0.99867743
0.99886581
0.99870618
0.99899749
0.99921106
0.99911832
0.99891575
0.9987636
0.99874211
0.9978837
0.99773341
0.99813225
0.99854535
0.99872971
0.99870792
0.99843793
0.99833998
0.99870035
0.99864341
0.99832417
0.9985299
0.99889817
0.998811
0.99875858
0.99911719
0.99907343
0.99884126
0.99889628
0.99887187
0.99900649
0.99889628
0.99909975
0.99804163
0.99842975
0.99843389
0.99800428
0.99801797
0.99853151
0.99857468
0.99819377
0.99838802
0.99898107
0.99896981
0.99857507
0.99869351
0.99915331
0.99895198
0.99846436
0.99856037
0.99894355
0.99909312
0.99893381
0.99900351
0.99915596
0.99927756
0.99825889
0.99791371
0.99805652
0.99830805
0.9983683
0.99822571
0.99822461
0.99870649
0.99903862
0.99861227
0.99828891
0.99858071
0.99888215
0.99883175
0.99862455
0.99874044
0.99875294
0.99853594
0.99871587
0.99897366
0.99884563
0.9987094
0.99878401
0.99819859
0.99815581
0.99779236
0.99767315
0.99806576
0.99826884
0.99809093
0.99843675
0.99912629
0.9990155
0.99825637
0.99800204
0.99844655
0.99885341
0.99846797
0.99816959
0.99856288
0.99889502
0.99878476
0.99851137
0.99832062
0.99871083
0.9990362
0.99744683
0.99790814
0.99815433
0.99780904
0.99754248
0.99785875
0.99835513
0.99871655
0.99862926
0.9982538
0.99812496
0.99831264
0.99830017
0.99805012
0.9981267
0.99859047
0.99892611
0.99857434
0.9979669
0.99802157
0.99842273
0.99858175
0.99838853
0.99757049
0.99713643
0.99736925
0.99785793
0.99791461
0.9975495
0.99762824
0.99833361
0.99863023
0.99805083
0.9975384
0.9977098
0.99816406
0.99807381
0.99799033
0.99828992
0.99843696
0.99822423
0.99770059
0.997683
0.9979459
0.99814556
0.9983315
0.99729525
0.99700764
0.99690561
0.99726842
0.99762394
0.99738488
0.99702888
0.9974029
0.99812708
0.99807056
0.9972435
0.99684866
0.99766701
0.99822533
0.99782182
0.99735541
0.99736733
0.99784304
0.99790159
0.99745
0.99729995
0.99783367
0.99826023
0.99651996
0.99684361
0.99710748
0.99694804
0.99644985
0.99662309
0.9972076
0.99749555
0.99709156
0.99670704
0.99687935
0.99717185
0.99726675
0.99719145
0.99723432
0.99738407
0.99732511
0.99717834
0.99719785
0.99716317
0.99709035
0.9971796
0.9973729
0.99605236
0.99574956
0.99611678
0.99664727
0.99655155
0.9961323
0.99618341
0.99658479
0.99669337
0.99650672
0.99656865
0.99685804
0.99694297
0.99682049
0.99663802
0.99661476
0.99674499
0.99690321
0.99699308
0.99688236
0.99680467
0.99689669
0.99698218
0.99555256
0.99478992
0.99488301
0.99572045
0.99641646
0.9961018
0.99541492
0.99539376
0.99594929
0.99625518
0.99606374
0.9960636
0.99642303
0.99675349
0.99658014
0.99616354
0.99600455
0.99646898
0.99696267
0.99681472
0.99645014
0.99657
0.99691964
0.99555754
0.9952453
0.99481462
0.99476005
0.99506665
0.99531829
0.99522956
0.99504751
0.99525246
0.99563877
0.99574554
0.99564925
0.99579585
0.99610056
0.99624771
0.99607694
0.99592413
0.99621032
0.99662907
0.99665858
0.99655565
0.99656957
0.99655692
0.99390084
0.99524608
0.99535107
0.99465609
0.99398255
0.99416227
0.99493957
0.99536681
0.99518196
0.99490457
0.99507825
0.99546857
0.99567717
0.99561239
0.99555534
0.99591698
0.99637118
0.99650201
0.9962767
0.99633075
0.99678657
0.99679086
0.99631566
0.9939996
0.99481842
0.99495103
0.99466575
0.99422147
0.99423016
0.99481531
0.99531597
0.99523372
0.99487678
0.99489228
0.99529099
0.99557491
0.99550863
0.99542263
0.99592301
0.99663563
0.99680111
0.99639382
0.99641316
0.99693557
0.99701751
0.99665165
0.99462472
0.99476597
0.99467407
0.99468314
0.99467831
0.99467717
0.99479843
0.99503215
0.99519103
0.9951765
0.99522311
0.99544147
0.99564569
0.99573458
0.99583619
0.99621615
0.99668407
0.99683849
0.99673805
0.99690648
0.99732685
0.9974745
0.99746205
0.99537157
0.99522114
0.99507453
0.99518162
0.99530174
0.99518507
0.99494448
0.9948731
0.99506611
0.99534496
0.99556816
0.99576075
0.9959924
0.9962037
0.99642355
0.99667988
0.99695183
0.99708122
0.99720081
0.99749659
0.99788349
0.99812838
0.99831244