/*--------------------------------*- C++ -*----------------------------------*\
| =========                 |                                                 |
| \\      /  F ield         | OpenFOAM: The Open Source CFD Toolbox           |
|  \\    /   O peration     | Version:  2406                                  |
|   \\  /    A nd           | Website:  www.openfoam.com                      |
|    \\/     M anipulation  |                                                 |
\*---------------------------------------------------------------------------*/
FoamFile
{
    version     2.0;
    format      ascii;
    arch        "LSB;label=32;scalar=64";
    class       volScalarField;
    location    "500";
    object      alphat;
}
// * * * * * * * * * * * * * * * * * * * * * * * * * * * * * * * * * * * * * //

dimensions      [1 -1 -1 0 0 0 0];

internalField   nonuniform List<scalar> 
132739
(
8.7161679e-07
8.5676714e-07
8.4408025e-07
8.3351099e-07
8.2464684e-07
8.1708832e-07
8.1053282e-07
8.047658e-07
7.9963421e-07
7.9502574e-07
7.908562e-07
7.870603e-07
7.8358653e-07
7.8039328e-07
7.7744689e-07
7.7471953e-07
7.7218788e-07
7.6983264e-07
7.6763709e-07
7.6558742e-07
7.6367186e-07
7.6187953e-07
7.6020215e-07
7.586319e-07
7.5716239e-07
7.557883e-07
7.545047e-07
7.5330804e-07
7.5219453e-07
7.5116152e-07
7.5020674e-07
7.4932783e-07
7.4852362e-07
7.4779293e-07
7.4713433e-07
7.4654793e-07
7.4603262e-07
7.4558872e-07
7.4521623e-07
7.4491522e-07
7.4468569e-07
7.4452844e-07
7.4444379e-07
7.4443205e-07
7.4449324e-07
7.4462845e-07
7.4483705e-07
7.4511863e-07
7.4547381e-07
7.4590323e-07
7.4639155e-07
7.4691806e-07
7.4746789e-07
7.4803022e-07
7.4858436e-07
7.4875548e-07
7.4939161e-07
7.4961621e-07
7.494883e-07
7.4949308e-07
7.4959142e-07
7.4983619e-07
7.5032981e-07
7.5101483e-07
7.5211834e-07
7.5359459e-07
7.5523313e-07
7.5696848e-07
7.5876061e-07
7.6057666e-07
7.6239578e-07
7.6421613e-07
7.6605667e-07
7.6794126e-07
7.6991856e-07
7.7199536e-07
7.7424587e-07
7.7658087e-07
7.7942896e-07
7.8207444e-07
7.8456836e-07
7.9023886e-07
7.9484729e-07
8.006065e-07
8.0806389e-07
8.1724996e-07
8.2822686e-07
8.4103495e-07
8.5573387e-07
8.7246596e-07
8.9151773e-07
9.1334528e-07
9.3852661e-07
9.6761335e-07
1.001327e-06
1.0385913e-06
1.0798495e-06
1.1252917e-06
1.1749484e-06
1.2289545e-06
1.2876834e-06
1.351493e-06
1.4218211e-06
1.4958786e-06
8.7160035e-07
8.5676058e-07
8.4408153e-07
8.3351821e-07
8.2465883e-07
8.1710405e-07
8.1055185e-07
8.0478798e-07
7.9965935e-07
7.950542e-07
7.9088831e-07
7.8709653e-07
7.8362743e-07
7.8043952e-07
7.7749923e-07
7.7477881e-07
7.7225485e-07
7.6990812e-07
7.6772218e-07
7.6568302e-07
7.6377858e-07
7.6199838e-07
7.6033366e-07
7.587769e-07
7.5732122e-07
7.5596129e-07
7.5469204e-07
7.5350959e-07
7.524103e-07
7.5139095e-07
7.5044899e-07
7.4958238e-07
7.4878899e-07
7.4806781e-07
7.4741715e-07
7.4683687e-07
7.4632622e-07
7.4588465e-07
7.4551268e-07
7.4520985e-07
7.4497696e-07
7.4481366e-07
7.4472144e-07
7.446999e-07
7.4474955e-07
7.4487083e-07
7.450643e-07
7.4532888e-07
7.4566679e-07
7.4607148e-07
7.464925e-07
7.4689727e-07
7.4731014e-07
7.477063e-07
7.4798856e-07
7.4831699e-07
7.4875272e-07
7.4911563e-07
7.4951235e-07
7.5001075e-07
7.506182e-07
7.5131624e-07
7.5210078e-07
7.5307109e-07
7.5441237e-07
7.5615463e-07
7.580691e-07
7.5996132e-07
7.6180388e-07
7.6361025e-07
7.654036e-07
7.6721699e-07
7.6909385e-07
7.7108122e-07
7.7321946e-07
7.7557534e-07
7.7821909e-07
7.8123117e-07
7.8474134e-07
7.8864053e-07
7.9263614e-07
7.9711494e-07
8.0193181e-07
8.0691999e-07
8.1245295e-07
8.1889322e-07
8.2662088e-07
8.3606056e-07
8.4762236e-07
8.6164441e-07
8.7838262e-07
8.9803791e-07
9.2083457e-07
9.4705436e-07
9.7725975e-07
1.0116354e-06
1.0483613e-06
1.0876e-06
1.129935e-06
1.1758934e-06
1.2258258e-06
1.2804836e-06
1.3380344e-06
1.4114186e-06
8.715876e-07
8.5675775e-07
8.440864e-07
8.3352853e-07
8.2467312e-07
8.1712123e-07
8.1057114e-07
8.048086e-07
7.9968063e-07
7.9507541e-07
7.909085e-07
7.8711496e-07
7.8364313e-07
7.8045135e-07
7.77506e-07
7.7477923e-07
7.7224769e-07
7.6989175e-07
7.676952e-07
7.6564355e-07
7.6372502e-07
7.6192898e-07
7.6024651e-07
7.5867006e-07
7.5719287e-07
7.5580945e-07
7.5451491e-07
7.5330516e-07
7.5217672e-07
7.5112628e-07
7.5015158e-07
7.492503e-07
7.4842095e-07
7.4766206e-07
7.469727e-07
7.4635219e-07
7.4580034e-07
7.453165e-07
7.4490104e-07
7.4455405e-07
7.4427588e-07
7.4406713e-07
7.4392822e-07
7.4385956e-07
7.4386109e-07
7.4393362e-07
7.4407717e-07
7.4429114e-07
7.4457551e-07
7.4492788e-07
7.4535293e-07
7.4584498e-07
7.4642157e-07
7.4708443e-07
7.4755162e-07
7.4814679e-07
7.4892705e-07
7.4962268e-07
7.5032229e-07
7.5107024e-07
7.5187242e-07
7.5273782e-07
7.5371544e-07
7.5460905e-07
7.5580193e-07
7.5710031e-07
7.5834116e-07
7.595316e-07
7.6070072e-07
7.6187224e-07
7.6306452e-07
7.6429622e-07
7.656065e-07
7.6696898e-07
7.6871189e-07
7.7084291e-07
7.7318002e-07
7.7563006e-07
7.7839654e-07
7.8123589e-07
7.8455342e-07
7.8896889e-07
7.9484057e-07
8.0152166e-07
8.0897498e-07
8.1712818e-07
8.2594049e-07
8.3547479e-07
8.4594127e-07
8.5770589e-07
8.7123642e-07
8.870219e-07
9.055162e-07
9.2713681e-07
9.5233193e-07
9.8163392e-07
1.014806e-06
1.0513066e-06
1.0898015e-06
1.1304305e-06
1.1734277e-06
1.2203234e-06
1.2673023e-06
1.3320975e-06
8.7157867e-07
8.5675827e-07
8.4409414e-07
8.3354159e-07
8.2469023e-07
8.1714165e-07
8.1059429e-07
8.0483399e-07
7.9970853e-07
7.9510578e-07
7.9094167e-07
7.8715099e-07
7.8368212e-07
7.8049392e-07
7.7755259e-07
7.7483038e-07
7.7230393e-07
7.6995399e-07
7.6776401e-07
7.6571988e-07
7.6380958e-07
7.6202277e-07
7.6035047e-07
7.5878516e-07
7.5732012e-07
7.5594999e-07
7.5466982e-07
7.5347522e-07
7.523631e-07
7.5132997e-07
7.5037354e-07
7.4949161e-07
7.4868219e-07
7.4794441e-07
7.4727677e-07
7.4667866e-07
7.4614981e-07
7.4568959e-07
7.4529807e-07
7.4497577e-07
7.4472216e-07
7.4453827e-07
7.444242e-07
7.4437993e-07
7.4440626e-07
7.4450268e-07
7.4466979e-07
7.4490697e-07
7.4521356e-07
7.4558831e-07
7.460286e-07
7.4653234e-07
7.4708925e-07
7.4770294e-07
7.4842847e-07
7.4915412e-07
7.4989638e-07
7.5076826e-07
7.5169842e-07
7.5262264e-07
7.5355937e-07
7.5452621e-07
7.5551788e-07
7.56553e-07
7.5756255e-07
7.5854158e-07
7.5951584e-07
7.6050229e-07
7.6151098e-07
7.6254848e-07
7.6362352e-07
7.6474924e-07
7.6594698e-07
7.6724333e-07
7.686864e-07
7.702585e-07
7.7228431e-07
7.7461123e-07
7.7722086e-07
7.801432e-07
7.8303047e-07
7.8655127e-07
7.9088439e-07
7.9606991e-07
8.0233044e-07
8.0982123e-07
8.1860275e-07
8.2864187e-07
8.3985649e-07
8.5218673e-07
8.6567069e-07
8.8046659e-07
8.9688563e-07
9.1535109e-07
9.3636483e-07
9.6050714e-07
9.8838445e-07
1.0203637e-06
1.0548392e-06
1.0914125e-06
1.1297017e-06
1.1709724e-06
1.2113416e-06
1.2657786e-06
8.7157294e-07
8.5676181e-07
8.441048e-07
8.3355743e-07
8.2470987e-07
8.1716415e-07
8.1061906e-07
8.0486076e-07
7.9973662e-07
7.9513489e-07
7.9097138e-07
7.8718095e-07
7.837121e-07
7.8052344e-07
7.7758114e-07
7.7485749e-07
7.7232911e-07
7.6997652e-07
7.6778325e-07
7.6573518e-07
7.6382015e-07
7.6202795e-07
7.6034964e-07
7.5877736e-07
7.5730477e-07
7.5592613e-07
7.5463668e-07
7.53432e-07
7.5230879e-07
7.5126374e-07
7.5029467e-07
7.4939909e-07
7.4857541e-07
7.4782235e-07
7.4713861e-07
7.4652356e-07
7.4597684e-07
7.4549799e-07
7.4508739e-07
7.4474462e-07
7.4447042e-07
7.4426468e-07
7.4412744e-07
7.4405967e-07
7.4406137e-07
7.4413256e-07
7.4427285e-07
7.4448256e-07
7.4476035e-07
7.4510507e-07
7.4551615e-07
7.4599186e-07
7.4653107e-07
7.4712607e-07
7.4777353e-07
7.4847634e-07
7.4921683e-07
7.5000567e-07
7.5083152e-07
7.5167443e-07
7.5253383e-07
7.5341562e-07
7.5431988e-07
7.5523914e-07
7.5616244e-07
7.5706683e-07
7.5795196e-07
7.5883164e-07
7.5971668e-07
7.6061387e-07
7.6153069e-07
7.6247768e-07
7.6347252e-07
7.6453556e-07
7.6571651e-07
7.6696665e-07
7.6871375e-07
7.7049141e-07
7.7251925e-07
7.7491851e-07
7.7766666e-07
7.8111111e-07
7.8527983e-07
7.9019265e-07
7.9594303e-07
8.0267598e-07
8.1056055e-07
8.197629e-07
8.3040032e-07
8.4251903e-07
8.5609593e-07
8.7107756e-07
8.8743251e-07
9.0522575e-07
9.246551e-07
9.4605773e-07
9.6992468e-07
9.971163e-07
1.0272191e-06
1.0594812e-06
1.0934715e-06
1.1300486e-06
1.1659982e-06
1.2124709e-06
8.7157051e-07
8.5676839e-07
8.4411823e-07
8.3357606e-07
8.2473248e-07
8.1718982e-07
8.106471e-07
8.0489095e-07
7.9976865e-07
7.951686e-07
7.9100665e-07
7.8721788e-07
7.8375067e-07
7.8056373e-07
7.7762323e-07
7.7490144e-07
7.7237524e-07
7.70025e-07
7.6783444e-07
7.6578945e-07
7.6387775e-07
7.6208918e-07
7.604149e-07
7.5884685e-07
7.5737884e-07
7.5600513e-07
7.5472084e-07
7.5352171e-07
7.5240441e-07
7.5136578e-07
7.504033e-07
7.4951463e-07
7.486979e-07
7.4795211e-07
7.4727576e-07
7.4666816e-07
7.4612905e-07
7.4565795e-07
7.452547e-07
7.4491926e-07
7.4465205e-07
7.4445331e-07
7.4432309e-07
7.4426152e-07
7.442689e-07
7.4434571e-07
7.4449095e-07
7.4470476e-07
7.4498629e-07
7.4533372e-07
7.4574599e-07
7.4622094e-07
7.4675143e-07
7.4734424e-07
7.4799659e-07
7.4868439e-07
7.4941039e-07
7.5020026e-07
7.5102947e-07
7.5186982e-07
7.5272285e-07
7.5359385e-07
7.5447969e-07
7.55376e-07
7.5625741e-07
7.5711402e-07
7.5795278e-07
7.5878373e-07
7.5961252e-07
7.6044383e-07
7.6128418e-07
7.6214407e-07
7.6303971e-07
7.6399493e-07
7.6503887e-07
7.6620738e-07
7.6754465e-07
7.6910016e-07
7.7093904e-07
7.7308178e-07
7.7555653e-07
7.7844884e-07
7.8187445e-07
7.8595842e-07
7.9082899e-07
7.9661759e-07
8.0346316e-07
8.1151834e-07
8.2094264e-07
8.3189296e-07
8.4448969e-07
8.5879021e-07
8.7477855e-07
8.9239105e-07
9.1156374e-07
9.3230186e-07
9.5468554e-07
9.791042e-07
1.0061651e-06
1.0349599e-06
1.0650374e-06
1.0971897e-06
1.12911e-06
1.1693761e-06
8.7157091e-07
8.5677756e-07
8.4413408e-07
8.3359658e-07
8.2475671e-07
8.1721692e-07
8.1067658e-07
8.0492228e-07
7.9980159e-07
7.9520296e-07
7.9104218e-07
7.872544e-07
7.83788e-07
7.8060148e-07
7.7766137e-07
7.7493954e-07
7.7241311e-07
7.7006241e-07
7.6787115e-07
7.6582509e-07
7.6391204e-07
7.6212181e-07
7.6044535e-07
7.58875e-07
7.5740417e-07
7.5602741e-07
7.5473969e-07
7.5353697e-07
7.5241571e-07
7.5137249e-07
7.5040507e-07
7.4951084e-07
7.4868869e-07
7.4793656e-07
7.4725386e-07
7.4663921e-07
7.4609269e-07
7.4561377e-07
7.4520227e-07
7.4485797e-07
7.4458169e-07
7.4437305e-07
7.4423223e-07
7.4415974e-07
7.4415563e-07
7.4421999e-07
7.4435262e-07
7.4455242e-07
7.4481954e-07
7.451513e-07
7.4554686e-07
7.4600436e-07
7.4652014e-07
7.4709199e-07
7.4771968e-07
7.483912e-07
7.4909792e-07
7.4985163e-07
7.5064076e-07
7.5144641e-07
7.5226295e-07
7.530903e-07
7.5392562e-07
7.5476331e-07
7.5558942e-07
7.5639311e-07
7.5717107e-07
7.5792749e-07
7.586676e-07
7.5939612e-07
7.6012059e-07
7.6085007e-07
7.6159902e-07
7.6238822e-07
7.632439e-07
7.641976e-07
7.6528848e-07
7.6655909e-07
7.6806138e-07
7.6987161e-07
7.7206477e-07
7.747147e-07
7.778942e-07
7.8167969e-07
7.8615703e-07
7.914237e-07
7.975895e-07
8.0477895e-07
8.1313495e-07
8.2281616e-07
8.3399256e-07
8.4683182e-07
8.6146608e-07
8.7796556e-07
8.9632147e-07
9.1647225e-07
9.3832707e-07
9.6179919e-07
9.8724821e-07
1.0144077e-06
1.0422542e-06
1.0713098e-06
1.0999392e-06
1.1350186e-06
8.7157378e-07
8.5678891e-07
8.441518e-07
8.3361913e-07
8.2478286e-07
8.1724588e-07
8.1070785e-07
8.0495543e-07
7.9983646e-07
7.9523932e-07
7.9108003e-07
7.8729363e-07
7.838284e-07
7.8064319e-07
7.7770415e-07
7.7498348e-07
7.7245825e-07
7.7010871e-07
7.6791857e-07
7.6587374e-07
7.6396193e-07
7.6217311e-07
7.6049801e-07
7.589294e-07
7.5746016e-07
7.5608524e-07
7.5479939e-07
7.5359865e-07
7.5247933e-07
7.5143816e-07
7.5047275e-07
7.495806e-07
7.487603e-07
7.4801013e-07
7.4732897e-07
7.4671602e-07
7.4617095e-07
7.4569338e-07
7.4528271e-07
7.4493952e-07
7.4466358e-07
7.4445499e-07
7.4431416e-07
7.4424096e-07
7.4423571e-07
7.4429858e-07
7.4442894e-07
7.4462572e-07
7.4488912e-07
7.4521681e-07
7.4560722e-07
7.4605826e-07
7.4656576e-07
7.47129e-07
7.4774519e-07
7.4840363e-07
7.4909872e-07
7.4983971e-07
7.5061396e-07
7.5140331e-07
7.5220232e-07
7.5300968e-07
7.5382129e-07
7.5462998e-07
7.5542122e-07
7.5618428e-07
7.5691637e-07
7.5762169e-07
7.5830408e-07
7.5896791e-07
7.5961876e-07
7.6026531e-07
7.6092148e-07
7.6160662e-07
7.6234566e-07
7.63169e-07
7.6411499e-07
7.6522485e-07
7.66554e-07
7.681277e-07
7.6999931e-07
7.7224133e-07
7.7494041e-07
7.7819164e-07
7.8209678e-07
7.867578e-07
7.9227841e-07
7.9875991e-07
8.0630668e-07
8.1503294e-07
8.2506724e-07
8.3655088e-07
8.4964483e-07
8.6450641e-07
8.8126242e-07
8.9997796e-07
9.2065822e-07
9.4319392e-07
9.6753276e-07
9.9388056e-07
1.0210524e-06
1.0488384e-06
1.0757951e-06
1.1074192e-06
8.7157867e-07
8.5680199e-07
8.4417108e-07
8.3364298e-07
8.2481028e-07
8.1727599e-07
8.1074021e-07
8.0498974e-07
7.9987237e-07
7.9527679e-07
7.9111895e-07
7.8733378e-07
7.8386962e-07
7.8068521e-07
7.7774672e-07
7.7502665e-07
7.7250172e-07
7.7015247e-07
7.6796243e-07
7.6591755e-07
7.6400558e-07
7.622164e-07
7.6054075e-07
7.5897134e-07
7.5750128e-07
7.5612532e-07
7.5483812e-07
7.5363579e-07
7.525147e-07
7.5147161e-07
7.5050388e-07
7.4960946e-07
7.4878636e-07
7.480334e-07
7.4734879e-07
7.4673255e-07
7.4618369e-07
7.4570184e-07
7.452866e-07
7.4493848e-07
7.4465718e-07
7.4444286e-07
7.4429622e-07
7.4421661e-07
7.4420441e-07
7.4425959e-07
7.4438169e-07
7.4456979e-07
7.4482387e-07
7.4514093e-07
7.4552022e-07
7.4595888e-07
7.4645389e-07
7.4700268e-07
7.4760343e-07
7.4824667e-07
7.4892498e-07
7.4964347e-07
7.5039249e-07
7.5115754e-07
7.5193068e-07
7.5270818e-07
7.5348451e-07
7.5425303e-07
7.5500185e-07
7.5572059e-07
7.5640502e-07
7.5705504e-07
7.5767338e-07
7.5826292e-07
7.5882932e-07
7.5938063e-07
7.5992942e-07
7.6049328e-07
7.6109533e-07
7.6176352e-07
7.6253299e-07
7.6344153e-07
7.6453856e-07
7.658749e-07
7.6751156e-07
7.6951403e-07
7.7195212e-07
7.7489996e-07
7.7843869e-07
7.8265625e-07
7.8764892e-07
7.9351575e-07
8.0036226e-07
8.0828916e-07
8.1740346e-07
8.2781721e-07
8.3964566e-07
8.530272e-07
8.6810361e-07
8.8501498e-07
9.0387804e-07
9.2474887e-07
9.4755439e-07
9.7245758e-07
9.9901003e-07
1.026307e-06
1.0527816e-06
1.0829663e-06
8.7158573e-07
8.5681709e-07
8.4419226e-07
8.3366868e-07
8.2483941e-07
8.173079e-07
8.1077438e-07
8.0502588e-07
7.9991026e-07
7.9531618e-07
7.9115963e-07
7.8737552e-07
7.8391241e-07
7.8072904e-07
7.7779146e-07
7.7507229e-07
7.7254819e-07
7.7019968e-07
7.6801039e-07
7.6596605e-07
7.640548e-07
7.6226609e-07
7.605911e-07
7.5902224e-07
7.5755283e-07
7.5617718e-07
7.548906e-07
7.5368864e-07
7.5256804e-07
7.5152525e-07
7.5055787e-07
7.4966343e-07
7.488404e-07
7.4808728e-07
7.4740253e-07
7.467857e-07
7.4623619e-07
7.4575329e-07
7.4533702e-07
7.449874e-07
7.4470439e-07
7.444879e-07
7.443386e-07
7.4425579e-07
7.4424044e-07
7.4429171e-07
7.4440912e-07
7.4459233e-07
7.448403e-07
7.4515085e-07
7.455228e-07
7.4595312e-07
7.4643907e-07
7.4697754e-07
7.4756625e-07
7.4819637e-07
7.4886222e-07
7.4956531e-07
7.5029703e-07
7.5104417e-07
7.5179829e-07
7.5255455e-07
7.5330699e-07
7.5404756e-07
7.5476527e-07
7.5544926e-07
7.5609446e-07
7.5670012e-07
7.57268e-07
7.5780017e-07
7.5830188e-07
7.5878047e-07
7.5924792e-07
7.5972068e-07
7.6022098e-07
7.6077605e-07
7.614181e-07
7.6218479e-07
7.6312295e-07
7.6426494e-07
7.6566207e-07
7.6737802e-07
7.6948377e-07
7.7205891e-07
7.7518778e-07
7.7895691e-07
7.8345545e-07
7.8877421e-07
7.9500693e-07
8.0224765e-07
8.1059216e-07
8.2013453e-07
8.3096956e-07
8.4319341e-07
8.5691912e-07
8.7225737e-07
8.893332e-07
9.0827969e-07
9.2915423e-07
9.5201612e-07
9.7703857e-07
1.0034309e-06
1.029343e-06
1.0589233e-06
8.7159391e-07
8.5683304e-07
8.4421416e-07
8.3369488e-07
8.2486914e-07
8.1734045e-07
8.1080913e-07
8.0506278e-07
7.999489e-07
7.953564e-07
7.9120123e-07
7.874183e-07
7.8395621e-07
7.8077369e-07
7.7783693e-07
7.7511838e-07
7.7259481e-07
7.7024676e-07
7.6805783e-07
7.6601375e-07
7.6410258e-07
7.6231392e-07
7.6063889e-07
7.5906982e-07
7.5760004e-07
7.5622396e-07
7.5493681e-07
7.5373411e-07
7.5261259e-07
7.5156884e-07
7.5060035e-07
7.4970453e-07
7.4888007e-07
7.4812477e-07
7.4743817e-07
7.4681895e-07
7.4626668e-07
7.4578109e-07
7.4536165e-07
7.4500837e-07
7.4472174e-07
7.4450097e-07
7.4434705e-07
7.4425935e-07
7.4423854e-07
7.4428356e-07
7.4439443e-07
7.4457028e-07
7.4481034e-07
7.4511255e-07
7.4547503e-07
7.4589563e-07
7.4637053e-07
7.4689711e-07
7.4747279e-07
7.4808906e-07
7.4874058e-07
7.4942627e-07
7.5013864e-07
7.508662e-07
7.5159906e-07
7.5233147e-07
7.5305687e-07
7.5376681e-07
7.5445108e-07
7.5509915e-07
7.5570535e-07
7.5626777e-07
7.5678513e-07
7.5726041e-07
7.5769724e-07
7.5810237e-07
7.5848751e-07
7.5886788e-07
7.5926407e-07
7.5970206e-07
7.6021207e-07
7.6082961e-07
7.6159825e-07
7.6255804e-07
7.6376131e-07
7.6526808e-07
7.6714148e-07
7.6945055e-07
7.722684e-07
7.7567459e-07
7.7975154e-07
7.8458561e-07
7.9026771e-07
7.9688702e-07
8.0453475e-07
8.1330111e-07
8.2327765e-07
8.3454001e-07
8.4717166e-07
8.6125797e-07
8.7688785e-07
8.9415884e-07
9.1318171e-07
9.3399671e-07
9.5683713e-07
9.8165485e-07
1.0063442e-06
1.0349459e-06
8.7160355e-07
8.5685039e-07
8.4423737e-07
8.3372255e-07
8.2490028e-07
8.1737431e-07
8.1084525e-07
8.0510071e-07
7.9998856e-07
7.9539759e-07
7.9124375e-07
7.8746202e-07
7.8400101e-07
7.8081951e-07
7.778836e-07
7.7516584e-07
7.7264309e-07
7.7029567e-07
7.6810722e-07
7.6606367e-07
7.6415281e-07
7.6236457e-07
7.6068966e-07
7.5912074e-07
7.5765119e-07
7.5627526e-07
7.5498821e-07
7.5378552e-07
7.5266395e-07
7.5161991e-07
7.5065099e-07
7.4975465e-07
7.489295e-07
7.4817323e-07
7.4748557e-07
7.4686489e-07
7.4631114e-07
7.4582384e-07
7.4540225e-07
7.4504661e-07
7.447572e-07
7.4453343e-07
7.4437589e-07
7.4428419e-07
7.4425887e-07
7.4429925e-07
7.4440459e-07
7.4457451e-07
7.4480802e-07
7.4510308e-07
7.454575e-07
7.4586908e-07
7.4633465e-07
7.4685094e-07
7.474145e-07
7.4801862e-07
7.4865693e-07
7.4932751e-07
7.5002329e-07
7.507329e-07
7.5144714e-07
7.5215946e-07
7.5286237e-07
7.5354705e-07
7.5420329e-07
7.5482081e-07
7.5539331e-07
7.5591722e-07
7.5639142e-07
7.5681783e-07
7.5719972e-07
7.5754378e-07
7.5786048e-07
7.5816434e-07
7.584754e-07
7.5881814e-07
7.5922158e-07
7.5972008e-07
7.6035497e-07
7.6115831e-07
7.6217814e-07
7.634716e-07
7.6509988e-07
7.6713304e-07
7.6964338e-07
7.7270564e-07
7.7639974e-07
7.8080492e-07
7.8600246e-07
7.9207932e-07
7.9911715e-07
8.0719897e-07
8.1640771e-07
8.2682599e-07
8.3852808e-07
8.5157372e-07
8.6603645e-07
8.8197449e-07
8.994796e-07
9.1859011e-07
9.3938529e-07
9.6234058e-07
9.8549881e-07
1.0124289e-06
8.7161452e-07
8.5686886e-07
8.442616e-07
8.3375111e-07
8.2493224e-07
8.1740913e-07
8.1088235e-07
8.051399e-07
8.0002955e-07
7.9544013e-07
7.9128768e-07
7.8750715e-07
7.8404729e-07
7.8086666e-07
7.7793169e-07
7.7521463e-07
7.7269244e-07
7.7034554e-07
7.6815754e-07
7.6611437e-07
7.6420383e-07
7.6241567e-07
7.6074077e-07
7.5917189e-07
7.577022e-07
7.5632609e-07
7.5503874e-07
7.5383548e-07
7.5271332e-07
7.5166831e-07
7.5069863e-07
7.4980099e-07
7.4897433e-07
7.4821682e-07
7.4752709e-07
7.4690455e-07
7.4634861e-07
7.4585845e-07
7.4543389e-07
7.4507529e-07
7.4478191e-07
7.4455439e-07
7.4439249e-07
7.4429617e-07
7.4426554e-07
7.443005e-07
7.4439958e-07
7.4456293e-07
7.4478933e-07
7.4507596e-07
7.4542208e-07
7.4582407e-07
7.4627931e-07
7.4678453e-07
7.4733579e-07
7.4792681e-07
7.4855141e-07
7.4920657e-07
7.4988511e-07
7.5057675e-07
7.5127192e-07
7.5196308e-07
7.5264262e-07
7.5330134e-07
7.5392934e-07
7.5451654e-07
7.5505529e-07
7.5554188e-07
7.5597478e-07
7.5635469e-07
7.5668434e-07
7.5696991e-07
7.5722123e-07
7.5745268e-07
7.5768274e-07
7.5793486e-07
7.5823683e-07
7.5862119e-07
7.5912771e-07
7.5978955e-07
7.6065329e-07
7.6177415e-07
7.6320853e-07
7.6502119e-07
7.6727793e-07
7.700479e-07
7.7340672e-07
7.7743019e-07
7.8219642e-07
7.8778493e-07
7.9427529e-07
8.0174724e-07
8.1027502e-07
8.1993695e-07
8.3079933e-07
8.4292759e-07
8.563865e-07
8.7121258e-07
8.8747259e-07
9.0520804e-07
9.2439376e-07
9.4548793e-07
9.6720598e-07
9.9233752e-07
8.7162688e-07
8.5688862e-07
8.4428692e-07
8.3378072e-07
8.2496519e-07
8.1744477e-07
8.1092043e-07
8.0517983e-07
8.0007136e-07
7.9548349e-07
7.9133257e-07
7.8755325e-07
7.840946e-07
7.8091497e-07
7.779809e-07
7.752646e-07
7.7274317e-07
7.7039685e-07
7.682094e-07
7.6616665e-07
7.6425639e-07
7.624684e-07
7.6079368e-07
7.5922488e-07
7.5775509e-07
7.5637893e-07
7.5509124e-07
7.5388785e-07
7.5276518e-07
7.5171958e-07
7.5074883e-07
7.4985041e-07
7.4902256e-07
7.4826367e-07
7.4757241e-07
7.4694811e-07
7.463898e-07
7.4589753e-07
7.4547021e-07
7.4510858e-07
7.4481174e-07
7.4458051e-07
7.4441447e-07
7.4431368e-07
7.4427836e-07
7.443075e-07
7.4440074e-07
7.4455743e-07
7.4477679e-07
7.4505514e-07
7.4539278e-07
7.457856e-07
7.4623078e-07
7.4672481e-07
7.4726414e-07
7.4784233e-07
7.4845337e-07
7.4909327e-07
7.4975509e-07
7.5042927e-07
7.5110603e-07
7.5177713e-07
7.5243506e-07
7.5306999e-07
7.5367167e-07
7.5423062e-07
7.5473842e-07
7.5519105e-07
7.5558602e-07
7.5592347e-07
7.5620592e-07
7.5643978e-07
7.5663378e-07
7.5680164e-07
7.5696153e-07
7.5713579e-07
7.573516e-07
7.5763953e-07
7.5803727e-07
7.5857532e-07
7.5929628e-07
7.6025315e-07
7.6150181e-07
7.6310258e-07
7.6512072e-07
7.6762429e-07
7.7068153e-07
7.743665e-07
7.7875216e-07
7.8391093e-07
7.899239e-07
7.9685676e-07
8.0478321e-07
8.1377255e-07
8.2389194e-07
8.3520234e-07
8.4776198e-07
8.616075e-07
8.7679799e-07
8.9336547e-07
9.1128647e-07
9.3079984e-07
9.5130687e-07
9.7482771e-07
8.7163974e-07
8.5690881e-07
8.4431274e-07
8.338109e-07
8.2499884e-07
8.1748123e-07
8.109593e-07
8.052208e-07
8.0011416e-07
7.9552807e-07
7.9137854e-07
7.8760063e-07
7.8414309e-07
7.8096447e-07
7.780313e-07
7.7531577e-07
7.7279493e-07
7.7044921e-07
7.6826219e-07
7.6621965e-07
7.6430969e-07
7.6252186e-07
7.6084723e-07
7.5927836e-07
7.5780838e-07
7.5643193e-07
7.5514374e-07
7.5393977e-07
7.5281624e-07
7.5176982e-07
7.5079805e-07
7.4989837e-07
7.4906911e-07
7.4830861e-07
7.4761514e-07
7.4698881e-07
7.4642768e-07
7.4593246e-07
7.4550223e-07
7.4513706e-07
7.4483654e-07
7.4460101e-07
7.4443059e-07
7.4432463e-07
7.4428355e-07
7.4430676e-07
7.4439325e-07
7.4454273e-07
7.44754e-07
7.4502399e-07
7.4535199e-07
7.4573467e-07
7.4616896e-07
7.466514e-07
7.4717788e-07
7.4774238e-07
7.4833882e-07
7.48963e-07
7.4960764e-07
7.5026332e-07
7.509205e-07
7.5157086e-07
7.5220575e-07
7.5281581e-07
7.5339076e-07
7.539209e-07
7.543979e-07
7.5481661e-07
7.5517448e-07
7.5547113e-07
7.5570862e-07
7.5589326e-07
7.5603327e-07
7.561423e-07
7.5623741e-07
7.5634021e-07
7.5647652e-07
7.5667612e-07
7.5697496e-07
7.5740315e-07
7.5800148e-07
7.5882037e-07
7.5991236e-07
7.6133457e-07
7.6314855e-07
7.6541952e-07
7.682118e-07
7.715953e-07
7.7564014e-07
7.8041543e-07
7.8599622e-07
7.9244893e-07
7.9984439e-07
8.0824152e-07
8.1770279e-07
8.2828526e-07
8.4004864e-07
8.5301878e-07
8.6725391e-07
8.8277532e-07
8.996047e-07
9.1782911e-07
9.370951e-07
9.5935826e-07
8.7165404e-07
8.5693025e-07
8.4433964e-07
8.3384207e-07
8.2503339e-07
8.1751856e-07
8.1099891e-07
8.0526261e-07
8.001578e-07
7.9557347e-07
7.914254e-07
7.8764893e-07
7.8419257e-07
7.8101498e-07
7.7808272e-07
7.7536799e-07
7.7284783e-07
7.7050264e-07
7.6831616e-07
7.6627393e-07
7.643641e-07
7.6257638e-07
7.6090169e-07
7.5933261e-07
7.5786245e-07
7.5648552e-07
7.5519696e-07
7.539924e-07
7.528682e-07
7.5182079e-07
7.5084786e-07
7.4994668e-07
7.4911584e-07
7.4835325e-07
7.4765781e-07
7.4702884e-07
7.4646539e-07
7.4596695e-07
7.4553333e-07
7.4516431e-07
7.4485988e-07
7.4461951e-07
7.4444428e-07
7.4433268e-07
7.4428558e-07
7.4430205e-07
7.4438152e-07
7.4452287e-07
7.4472528e-07
7.4498625e-07
7.4530414e-07
7.4567589e-07
7.460982e-07
7.4656793e-07
7.4708043e-07
7.4763006e-07
7.4821077e-07
7.4881749e-07
7.4944353e-07
7.5007973e-07
7.5071598e-07
7.5134422e-07
7.5195528e-07
7.5253981e-07
7.5308754e-07
7.5358826e-07
7.540337e-07
7.5441873e-07
7.5473999e-07
7.5499693e-07
7.5519178e-07
7.5533025e-07
7.5542055e-07
7.5547587e-07
7.5551301e-07
7.5555248e-07
7.5561911e-07
7.557421e-07
7.5595427e-07
7.5628714e-07
7.5677599e-07
7.5747002e-07
7.584213e-07
7.5968205e-07
7.6131182e-07
7.633739e-07
7.6593014e-07
7.6904687e-07
7.7279121e-07
7.77228e-07
7.8242927e-07
7.8845395e-07
7.953743e-07
8.0324383e-07
8.1212519e-07
8.2206497e-07
8.3312027e-07
8.4531753e-07
8.5870804e-07
8.733088e-07
8.8914999e-07
9.0628979e-07
9.2436554e-07
9.4550921e-07
8.7166863e-07
8.5695202e-07
8.4436698e-07
8.3387375e-07
8.2506857e-07
8.175566e-07
8.1103945e-07
8.0530532e-07
8.002025e-07
7.9561989e-07
7.9147343e-07
7.8769838e-07
7.8424307e-07
7.8106654e-07
7.781351e-07
7.7542119e-07
7.7290161e-07
7.7055697e-07
7.6837067e-07
7.6632873e-07
7.6441896e-07
7.626312e-07
7.6095639e-07
7.5938693e-07
7.5791645e-07
7.56539e-07
7.5524977e-07
7.5404436e-07
7.5291907e-07
7.5187037e-07
7.5089597e-07
7.499932e-07
7.4916027e-07
7.4839537e-07
7.476974e-07
7.4706541e-07
7.4649884e-07
7.4599657e-07
7.4555918e-07
7.4518557e-07
7.4487626e-07
7.4463049e-07
7.4444924e-07
7.4433146e-07
7.4427709e-07
7.4428615e-07
7.4435696e-07
7.4448928e-07
7.4468153e-07
7.4493167e-07
7.4523779e-07
7.4559686e-07
7.460056e-07
7.464603e-07
7.4695684e-07
7.4748931e-07
7.4805208e-07
7.4863945e-07
7.4924402e-07
7.4985777e-07
7.5047079e-07
7.510738e-07
7.5165824e-07
7.52214e-07
7.5273104e-07
7.5319958e-07
7.5361092e-07
7.5395992e-07
7.5424284e-07
7.5445921e-07
7.5461094e-07
7.5470369e-07
7.5474586e-07
7.5475014e-07
7.5473301e-07
7.547142e-07
7.5471776e-07
7.5477199e-07
7.5490716e-07
7.5515544e-07
7.5554927e-07
7.5613573e-07
7.5696619e-07
7.580887e-07
7.5956098e-07
7.6144247e-07
7.6379313e-07
7.6667456e-07
7.7015143e-07
7.7428764e-07
7.7915177e-07
7.8480075e-07
7.9130215e-07
7.9870521e-07
8.0706942e-07
8.1643904e-07
8.2686847e-07
8.3837786e-07
8.5101641e-07
8.6480088e-07
8.7975537e-07
8.9594947e-07
9.129529e-07
9.3305921e-07
8.7168431e-07
8.5697476e-07
8.443951e-07
8.3390613e-07
8.2510449e-07
8.1759543e-07
8.1108074e-07
8.0534882e-07
8.0024808e-07
7.9566722e-07
7.9152245e-07
7.877486e-07
7.8429457e-07
7.8111894e-07
7.7818838e-07
7.7547501e-07
7.7295597e-07
7.7061171e-07
7.6842572e-07
7.6638386e-07
7.6447412e-07
7.6268602e-07
7.6101101e-07
7.5944112e-07
7.5797007e-07
7.5659191e-07
7.5530165e-07
7.5409515e-07
7.5296843e-07
7.5191812e-07
7.5094186e-07
7.5003679e-07
7.4920131e-07
7.4843376e-07
7.4773249e-07
7.4709697e-07
7.4652662e-07
7.4602013e-07
7.4557799e-07
7.4519888e-07
7.4488384e-07
7.4463162e-07
7.4444324e-07
7.4431769e-07
7.4425478e-07
7.4425445e-07
7.4431509e-07
7.4443657e-07
7.4461674e-07
7.448539e-07
7.4514585e-07
7.4548947e-07
7.4588173e-07
7.4631863e-07
7.4679597e-07
7.4730819e-07
7.4784876e-07
7.484126e-07
7.4899243e-07
7.495794e-07
7.5016422e-07
7.5073755e-07
7.5128995e-07
7.5181227e-07
7.5229387e-07
7.5272496e-07
7.5309744e-07
7.5340573e-07
7.5364649e-07
7.5381867e-07
7.5392517e-07
7.5397085e-07
7.5396485e-07
7.5391959e-07
7.5385099e-07
7.5377859e-07
7.5372551e-07
7.5371846e-07
7.5378654e-07
7.539612e-07
7.5427333e-07
7.5476747e-07
7.5549165e-07
7.5649362e-07
7.5782718e-07
7.5954994e-07
7.6172061e-07
7.6439999e-07
7.6764855e-07
7.7152518e-07
7.7609511e-07
7.8141323e-07
7.8754487e-07
7.945355e-07
8.0244334e-07
8.1130816e-07
8.2118199e-07
8.320832e-07
8.4406081e-07
8.5712237e-07
8.7129127e-07
8.8664528e-07
9.0273016e-07
9.2171384e-07
8.7170024e-07
8.5699768e-07
8.4442352e-07
8.3393894e-07
8.251409e-07
8.1763478e-07
8.1112274e-07
8.0539313e-07
8.0029436e-07
7.9571533e-07
7.9157223e-07
7.877997e-07
7.843468e-07
7.8117211e-07
7.7824235e-07
7.7552959e-07
7.7301104e-07
7.7066699e-07
7.684811e-07
7.6643911e-07
7.6452907e-07
7.6274057e-07
7.6106495e-07
7.5949438e-07
7.5802244e-07
7.5664298e-07
7.5535145e-07
7.5414308e-07
7.5301453e-07
7.5196194e-07
7.5098309e-07
7.5007505e-07
7.4923631e-07
7.484649e-07
7.477597e-07
7.4711957e-07
7.4654415e-07
7.4603238e-07
7.455837e-07
7.45198e-07
7.4487551e-07
7.4461526e-07
7.4441776e-07
7.4428251e-07
7.4420888e-07
7.4419689e-07
7.4424489e-07
7.4435241e-07
7.4451746e-07
7.4473801e-07
7.4501192e-07
7.4533619e-07
7.4570762e-07
7.4612181e-07
7.4657478e-07
7.4706074e-07
7.4757374e-07
7.4810753e-07
7.4865528e-07
7.4920835e-07
7.4975701e-07
7.5029232e-07
7.5080466e-07
7.5128458e-07
7.5172168e-07
7.5210651e-07
7.5243151e-07
7.5269041e-07
7.5288095e-07
7.5300196e-07
7.5305727e-07
7.5305165e-07
7.5299482e-07
7.5289868e-07
7.5277878e-07
7.5265471e-07
7.5254871e-07
7.5248565e-07
7.5249559e-07
7.5260603e-07
7.5284947e-07
7.5326642e-07
7.5390336e-07
7.5480644e-07
7.5602616e-07
7.5762026e-07
7.5964127e-07
7.6214803e-07
7.6519908e-07
7.6885275e-07
7.7316837e-07
7.7820056e-07
7.8401142e-07
7.906436e-07
7.9815087e-07
8.0657261e-07
8.1595633e-07
8.2631946e-07
8.3770862e-07
8.5012971e-07
8.6360369e-07
8.7820756e-07
8.9350339e-07
9.1143612e-07
8.7171676e-07
8.570212e-07
8.4445249e-07
8.339723e-07
8.2517788e-07
8.176748e-07
8.1116542e-07
8.0543806e-07
8.0034144e-07
7.9576418e-07
7.9162259e-07
7.8785141e-07
7.8439972e-07
7.8122589e-07
7.7829679e-07
7.7558451e-07
7.7306619e-07
7.7072211e-07
7.6853604e-07
7.6649363e-07
7.6458295e-07
7.6279366e-07
7.6111694e-07
7.5954519e-07
7.5807167e-07
7.5669052e-07
7.5539689e-07
7.5418607e-07
7.5305469e-07
7.5199891e-07
7.5101651e-07
7.5010434e-07
7.4926124e-07
7.484847e-07
7.4777425e-07
7.4712795e-07
7.4654571e-07
7.4602642e-07
7.4556983e-07
7.4517541e-07
7.4484305e-07
7.4457239e-07
7.4436278e-07
7.4421486e-07
7.4412746e-07
7.4409982e-07
7.4413132e-07
7.4422033e-07
7.4436522e-07
7.4456396e-07
7.4481428e-07
7.4511266e-07
7.4545624e-07
7.458402e-07
7.462607e-07
7.4671171e-07
7.4718727e-07
7.4768112e-07
7.4818588e-07
7.4869319e-07
7.4919362e-07
7.4967775e-07
7.5013641e-07
7.5056e-07
7.5093869e-07
7.512633e-07
7.5152666e-07
7.5172325e-07
7.5185096e-07
7.5191002e-07
7.5190389e-07
7.5183851e-07
7.5172399e-07
7.5157248e-07
7.5139905e-07
7.5122324e-07
7.5106677e-07
7.5095284e-07
7.5091153e-07
7.5096827e-07
7.5115433e-07
7.5150892e-07
7.520771e-07
7.5290109e-07
7.5403036e-07
7.5551946e-07
7.5741799e-07
7.5978633e-07
7.6267518e-07
7.6614346e-07
7.7025308e-07
7.7504652e-07
7.8058417e-07
7.8690882e-07
7.9407327e-07
8.0211069e-07
8.1106826e-07
8.209638e-07
8.3183975e-07
8.436953e-07
8.565603e-07
8.7048997e-07
8.8510566e-07
9.0213124e-07
8.717334e-07
8.5704494e-07
8.4448177e-07
8.34006e-07
8.2521524e-07
8.1771524e-07
8.1120858e-07
8.0548359e-07
8.0038912e-07
7.9581372e-07
7.9167364e-07
7.8790372e-07
7.8445292e-07
7.8127983e-07