/*--------------------------------*- C++ -*----------------------------------*\
| =========                 |                                                 |
| \\      /  F ield         | OpenFOAM: The Open Source CFD Toolbox           |
|  \\    /   O peration     | Version:  2406                                  |
|   \\  /    A nd           | Website:  www.openfoam.com                      |
|    \\/     M anipulation  |                                                 |
\*---------------------------------------------------------------------------*/
FoamFile
{
    version     2.0;
    format      ascii;
    arch        "LSB;label=32;scalar=64";
    class       volScalarField;
    location    "500";
    object      k;
}
// * * * * * * * * * * * * * * * * * * * * * * * * * * * * * * * * * * * * * //

dimensions      [0 2 -2 0 0 0 0];

internalField   nonuniform List<scalar> 
132739
(
3.3520638e-06
2.6895393e-06
2.2322742e-06
1.9082717e-06
1.6693545e-06
1.4864664e-06
1.3420542e-06
1.2251393e-06
1.1285571e-06
1.0474403e-06
9.7836495e-07
9.1885036e-07
8.6705411e-07
8.2157863e-07
7.813445e-07
7.4550465e-07
7.1338514e-07
6.8444308e-07
6.5823625e-07
6.3440099e-07
6.1263532e-07
5.9268657e-07
5.7434188e-07
5.5742053e-07
5.4176834e-07
5.2725286e-07
5.1375979e-07
5.0118999e-07
4.8945697e-07
4.7848514e-07
4.6820801e-07
4.5856694e-07
4.4951018e-07
4.4099162e-07
4.3297034e-07
4.2540979e-07
4.1827719e-07
4.1154322e-07
4.0518145e-07
3.9916796e-07
3.9348113e-07
3.8810137e-07
3.830108e-07
3.7819299e-07
3.7363291e-07
3.6931672e-07
3.6523149e-07
3.6136488e-07
3.577062e-07
3.5424583e-07
3.5096171e-07
3.4782861e-07
3.4482727e-07
3.4194279e-07
3.3915293e-07
3.3615621e-07
3.336245e-07
3.30853e-07
3.2790124e-07
3.25145e-07
3.2254468e-07
3.201339e-07
3.1798511e-07
3.1604811e-07
3.1448638e-07
3.1325647e-07
3.1219597e-07
3.1125333e-07
3.1039686e-07
3.0960089e-07
3.0885007e-07
3.0814282e-07
3.0749159e-07
3.0691457e-07
3.0644034e-07
3.06083e-07
3.0587318e-07
3.0581243e-07
3.0599378e-07
3.0625219e-07
3.0665914e-07
3.0821576e-07
3.1019266e-07
3.1295813e-07
3.1675645e-07
3.2175781e-07
3.280623e-07
3.357266e-07
3.4481264e-07
3.5545443e-07
3.679073e-07
3.8256622e-07
3.9994021e-07
4.2055958e-07
4.4513431e-07
4.7303376e-07
5.0477672e-07
5.4076048e-07
5.8127956e-07
6.2672782e-07
6.7773031e-07
7.3493687e-07
8.0029875e-07
8.7010817e-07
3.3521754e-06
2.6899846e-06
2.2328706e-06
1.9089278e-06
1.6700271e-06
1.4871354e-06
1.3427108e-06
1.22578e-06
1.1291812e-06
1.0480487e-06
9.7895922e-07
9.1943253e-07
8.6762633e-07
8.221431e-07
7.819034e-07
7.4606009e-07
7.1393911e-07
6.8499748e-07
6.5879285e-07
6.3496132e-07
6.1320077e-07
5.9325838e-07
5.7492109e-07
5.58008e-07
5.4236468e-07
5.2785848e-07
5.1437485e-07
5.0181445e-07
4.9009057e-07
4.7912731e-07
4.6885803e-07
4.5922386e-07
4.5017278e-07
4.416586e-07
4.3364019e-07
4.2608099e-07
4.1894811e-07
4.1221216e-07
4.0584667e-07
3.998278e-07
3.9413393e-07
3.8874552e-07
3.8364482e-07
3.7881551e-07
3.7424265e-07
3.6991255e-07
3.6581252e-07
3.6193024e-07
3.5825606e-07
3.5477462e-07
3.5143418e-07
3.4820128e-07
3.4508975e-07
3.4207271e-07
3.3906903e-07
3.3620374e-07
3.3351766e-07
3.3086374e-07
3.2832432e-07
3.2594695e-07
3.2373107e-07
3.2165743e-07
3.1971853e-07
3.1798563e-07
3.1659166e-07
3.1555126e-07
3.1468768e-07
3.1385441e-07
3.1303077e-07
3.1222555e-07
3.1145599e-07
3.1074499e-07
3.1012227e-07
3.0962124e-07
3.0927317e-07
3.0912149e-07
3.0921145e-07
3.0959455e-07
3.1034735e-07
3.1140542e-07
3.1260952e-07
3.1404515e-07
3.1571729e-07
3.1769323e-07
3.2011716e-07
3.2320974e-07
3.2725115e-07
3.3255128e-07
3.3941148e-07
3.4809482e-07
3.5882825e-07
3.7182437e-07
3.8733333e-07
4.0566786e-07
4.2737065e-07
4.5275468e-07
4.8054362e-07
5.1094759e-07
5.4457662e-07
5.8206418e-07
6.2396342e-07
6.7113277e-07
7.2259742e-07
7.8942969e-07
3.3523074e-06
2.6904311e-06
2.2334534e-06
1.9095579e-06
1.6706635e-06
1.4877596e-06
1.3433148e-06
1.2263604e-06
1.1297369e-06
1.0485794e-06
9.7946507e-07
9.1991377e-07
8.6808312e-07
8.2257551e-07
7.8231135e-07
7.4644341e-07
7.1429743e-07
6.8533031e-07
6.5909961e-07
6.3524131e-07
6.1345327e-07
5.9348258e-07
5.7511612e-07
5.5817299e-07
5.4249873e-07
5.2796073e-07
5.1444444e-07
5.0185054e-07
4.900924e-07
4.7909417e-07
4.6878927e-07
4.5911897e-07
4.5003132e-07
4.4148023e-07
4.3342471e-07
4.258282e-07
4.1865798e-07
4.1188466e-07
4.0548189e-07
3.9942584e-07
3.9369502e-07
3.8826989e-07
3.8313267e-07
3.7826704e-07
3.7365801e-07
3.6929184e-07
3.651556e-07
3.6123732e-07
3.5752534e-07
3.5400815e-07
3.5068022e-07
3.4752815e-07
3.4455896e-07
3.4176512e-07
3.3891354e-07
3.3626397e-07
3.3385178e-07
3.3145728e-07
3.2914882e-07
3.2695769e-07
3.2488415e-07
3.2293127e-07
3.211318e-07
3.1933341e-07
3.1782295e-07
3.164494e-07
3.1508903e-07
3.137461e-07
3.124413e-07
3.1119004e-07
3.1000449e-07
3.088971e-07
3.0789063e-07
3.0698343e-07
3.063168e-07
3.059049e-07
3.0568695e-07
3.0564896e-07
3.05855e-07
3.0638015e-07
3.0738615e-07
3.0896099e-07
3.1139212e-07
3.1451724e-07
3.1824741e-07
3.2251563e-07
3.2729665e-07
3.3264487e-07
3.3872215e-07
3.4579764e-07
3.5422157e-07
3.6437359e-07
3.7664043e-07
3.9140888e-07
4.0911203e-07
4.3027502e-07
4.5488436e-07
4.8268292e-07
5.1271346e-07
5.451544e-07
5.8034027e-07
6.195969e-07
6.6026064e-07
7.1713417e-07
3.3524597e-06
2.6908824e-06
2.2340325e-06
1.9101804e-06
1.671291e-06
1.4883755e-06
1.3439121e-06
1.2269371e-06
1.1302932e-06
1.0491164e-06
9.7998445e-07
9.2041722e-07
8.6857254e-07
8.2305286e-07
7.8277851e-07
7.4690217e-07
7.1474954e-07
6.8577746e-07
6.5954341e-07
6.356833e-07
6.1389492e-07
5.9392533e-07
5.7556134e-07
5.58622e-07
5.4295281e-07
5.284211e-07
5.1491223e-07
5.023268e-07
4.9057815e-07
4.7959035e-07
4.6929675e-07
4.5963851e-07
4.5056363e-07
4.4202596e-07
4.3398439e-07
4.264023e-07
4.1924691e-07
4.1248873e-07
4.0610136e-07
4.000609e-07
3.9434569e-07
3.889362e-07
3.8381447e-07
3.7896417e-07
3.7437024e-07
3.7001876e-07
3.6589687e-07
3.6199235e-07
3.5829383e-07
3.5478989e-07
3.5146961e-07
3.4832248e-07
3.4533219e-07
3.4249594e-07
3.3985012e-07
3.3729908e-07
3.3485227e-07
3.3259399e-07
3.3046124e-07
3.2840037e-07
3.2642375e-07
3.2454189e-07
3.2274732e-07
3.2105054e-07
3.1939694e-07
3.1778224e-07
3.1622424e-07
3.1473334e-07
3.1331479e-07
3.1197154e-07
3.1070776e-07
3.0953142e-07
3.0845604e-07
3.0749928e-07
3.0668937e-07
3.0603061e-07
3.0566464e-07
3.0554624e-07
3.0568981e-07
3.0609852e-07
3.0665805e-07
3.076585e-07
3.0916768e-07
3.1131397e-07
3.1423866e-07
3.1805044e-07
3.2280055e-07
3.2848219e-07
3.3505637e-07
3.4250039e-07
3.5085768e-07
3.602667e-07
3.7097951e-07
3.833532e-07
3.978236e-07
4.1490496e-07
4.3516093e-07
4.5902399e-07
4.8538496e-07
5.1400809e-07
5.4470307e-07
5.78473e-07
6.1252824e-07
6.5898143e-07
3.3526294e-06
2.6913352e-06
2.2346058e-06
1.9107936e-06
1.6719072e-06
1.4889785e-06
1.3444955e-06
1.2274985e-06
1.1308322e-06
1.0496335e-06
9.8048051e-07
9.2089328e-07
8.6902952e-07
8.2349152e-07
7.8319953e-07
7.4730612e-07
7.1513687e-07
6.861485e-07
6.5989845e-07
6.3602254e-07
6.1421846e-07
5.9423326e-07
5.7585365e-07
5.5889862e-07
5.4321365e-07
5.2866603e-07
5.1514111e-07
5.0253944e-07
4.9077433e-07
4.7976991e-07
4.6945949e-07
4.5978424e-07
4.5069217e-07
4.4213711e-07
4.3407797e-07
4.2647812e-07
4.1930476e-07
4.125285e-07
4.0612286e-07
4.0006393e-07
3.9433013e-07
3.8890175e-07
3.8376092e-07
3.7889129e-07
3.7427781e-07
3.6990648e-07
3.6576433e-07
3.6183925e-07
3.5811962e-07
3.5459413e-07
3.5125364e-07
3.4808749e-07
3.4508752e-07
3.4224071e-07
3.3953701e-07
3.3697368e-07
3.3453081e-07
3.3221247e-07
3.3000494e-07
3.2788868e-07
3.2586054e-07
3.2392198e-07
3.2206987e-07
3.2029569e-07
3.1858872e-07
3.1693023e-07
3.1531849e-07
3.1376191e-07
3.1226673e-07
3.1083624e-07
3.0947385e-07
3.081857e-07
3.0698286e-07
3.0587915e-07
3.0490214e-07
3.0404162e-07
3.0347819e-07
3.0303961e-07
3.0282381e-07
3.0291874e-07
3.0334533e-07
3.0426514e-07
3.0570306e-07
3.0769015e-07
3.1029345e-07
3.1361188e-07
3.1776624e-07
3.2287856e-07
3.2904502e-07
3.3631818e-07
3.4470791e-07
3.5420225e-07
3.6481245e-07
3.7662406e-07
3.8982873e-07
4.0473398e-07
4.2177457e-07
4.416851e-07
4.642703e-07
4.8902526e-07
5.1571927e-07
5.450353e-07
5.7466612e-07
6.1346103e-07
3.3528168e-06
2.6917916e-06
2.2351754e-06
1.9113995e-06
1.6725147e-06
1.4895725e-06
1.3450699e-06
1.2280515e-06
1.1313639e-06
1.050145e-06
9.8097316e-07
9.2136864e-07
8.6948913e-07
8.2393688e-07
7.8363203e-07
7.4772714e-07
7.1554773e-07
6.865504e-07
6.6029253e-07
6.3640983e-07
6.1459992e-07
5.9460982e-07
5.7622616e-07
5.5926786e-07
5.4358038e-07
5.2903094e-07
5.1550484e-07
5.0290261e-07
4.9113752e-07
4.8013362e-07
4.6982417e-07
4.6015026e-07
4.5105984e-07
4.4250675e-07
4.3444979e-07
4.2685232e-07
4.1968153e-07
4.1290791e-07
4.0650493e-07
4.0044867e-07
3.9471749e-07
3.8929172e-07
3.8415337e-07
3.7928599e-07
3.7467454e-07
3.7030504e-07
3.6616437e-07
3.6224039e-07
3.5852149e-07
3.5499641e-07
3.516549e-07
3.4848684e-07
3.4547867e-07
3.4262915e-07
3.3992873e-07
3.3735316e-07
3.3489905e-07
3.3258237e-07
3.3037807e-07
3.2826074e-07
3.2622892e-07
3.2428384e-07
3.2242004e-07
3.20631e-07
3.1889591e-07
3.172055e-07
3.1556394e-07
3.1397671e-07
3.1244648e-07
3.1097494e-07
3.0956511e-07
3.0822312e-07
3.0695937e-07
3.0578876e-07
3.0473055e-07
3.0380826e-07
3.0305001e-07
3.0248863e-07
3.0216539e-07
3.0209163e-07
3.0229214e-07
3.0282364e-07
3.0376281e-07
3.0519444e-07
3.0720654e-07
3.0988986e-07
3.1334196e-07
3.1767217e-07
3.2300115e-07
3.2945104e-07
3.3712679e-07
3.4609616e-07
3.5638272e-07
3.6798174e-07
3.808943e-07
3.9517658e-07
4.109492e-07
4.285623e-07
4.4855452e-07
4.7029061e-07
4.9348437e-07
5.1876662e-07
5.4450453e-07
5.7743585e-07
3.3530185e-06
2.692248e-06
2.2357381e-06
1.9119954e-06
1.6731107e-06
1.4901545e-06
1.3456322e-06
1.2285924e-06
1.1318834e-06
1.050644e-06
9.8145273e-07
9.2183001e-07
8.699334e-07
8.2436512e-07
7.8404521e-07
7.4812609e-07
7.1593324e-07
6.8692315e-07
6.6065308e-07
6.3675867e-07
6.1493748e-07
5.9493642e-07
5.7654211e-07
5.5957345e-07
5.4387582e-07
5.2931642e-07
5.1578053e-07
5.0316868e-07
4.9139403e-07
4.8038063e-07
4.7006169e-07
4.6037838e-07
4.5127861e-07
4.4271615e-07
4.3464985e-07
4.27043e-07
4.198628e-07
4.1307977e-07
4.0666732e-07
4.0060152e-07
3.9486074e-07
3.894252e-07
3.8427695e-07
3.7939957e-07
3.747779e-07
3.7039797e-07
3.6624662e-07
3.6231163e-07
3.5858138e-07
3.5504452e-07
3.5169086e-07
3.4851039e-07
3.454923e-07
3.4262807e-07
3.39911e-07
3.3732529e-07
3.3485928e-07
3.3251745e-07
3.3028605e-07
3.2814657e-07
3.2609158e-07
3.2411816e-07
3.2222131e-07
3.203942e-07
3.1862442e-07
3.1690188e-07
3.152231e-07
3.1358945e-07
3.120033e-07
3.1046708e-07
3.089841e-07
3.0755993e-07
3.0620366e-07
3.0492838e-07
3.0375114e-07
3.0269262e-07
3.0177785e-07
3.0103466e-07
3.0049541e-07
3.0021478e-07
3.0024308e-07
3.0062818e-07
3.0141768e-07
3.0266252e-07
3.044206e-07
3.06759e-07
3.0975503e-07
3.1349804e-07
3.1809202e-07
3.2365716e-07
3.3032789e-07
3.3824148e-07
3.475192e-07
3.582474e-07
3.7046671e-07
3.8418665e-07
3.994003e-07
4.1610958e-07
4.346435e-07
4.5487391e-07
4.7603757e-07
4.9852973e-07
5.2119091e-07
5.4934643e-07
3.3532322e-06
2.6927044e-06
2.2362945e-06
1.9125819e-06
1.673696e-06
1.4907252e-06
1.3461832e-06
1.2291222e-06
1.1323924e-06
1.051133e-06
9.8192329e-07
9.2228337e-07
8.7037092e-07
8.2478808e-07
7.8445479e-07
7.4852345e-07
7.1631943e-07
6.8729913e-07
6.6101974e-07
6.3711683e-07
6.1528792e-07
5.9527982e-07
5.7687914e-07
5.5990472e-07
5.4420187e-07
5.2963776e-07
5.1609762e-07
5.0348191e-07
4.9170377e-07
4.8068719e-07
4.7036537e-07
4.6067939e-07
4.5157715e-07
4.4301236e-07
4.3494385e-07
4.2733491e-07
4.201527e-07
4.1336765e-07
4.0695319e-07
4.0088537e-07
3.9514245e-07
3.897047e-07
3.8455412e-07
3.7967422e-07
3.7504986e-07
3.7066701e-07
3.6651244e-07
3.625739e-07
3.5883978e-07
3.5529875e-07
3.5194034e-07
3.4875446e-07
3.457298e-07
3.42859e-07
3.4013347e-07
3.3753826e-07
3.3506465e-07
3.3271442e-07
3.3047338e-07
3.2832356e-07
3.2625756e-07
3.2427188e-07
3.2236025e-07
3.2051479e-07
3.187229e-07
3.1697449e-07
3.1526673e-07
3.13601e-07
3.1197902e-07
3.1040243e-07
3.0887392e-07
3.0739865e-07
3.0598519e-07
3.0464592e-07
3.0339703e-07
3.022586e-07
3.0125461e-07
3.0041299e-07
2.9976713e-07
2.9933739e-07
2.9915917e-07
2.9927986e-07
2.9975641e-07
3.0065241e-07
3.0203526e-07
3.0397441e-07
3.0654063e-07
3.0980644e-07
3.1384885e-07
3.18754e-07
3.2462159e-07
3.3156866e-07
3.3972859e-07
3.4924073e-07
3.602317e-07
3.7279638e-07
3.8699516e-07
4.0281584e-07
4.202876e-07
4.3963299e-07
4.6001327e-07
4.8124248e-07
5.0226756e-07
5.2725449e-07
3.3534543e-06
2.6931568e-06
2.2368413e-06
1.9131564e-06
1.6742684e-06
1.4912829e-06
1.3467214e-06
1.2296396e-06
1.1328892e-06
1.0516104e-06
9.8238236e-07
9.2272538e-07
8.7079705e-07
8.2519936e-07
7.8485229e-07
7.4890812e-07
7.1669214e-07
6.8766067e-07
6.6137077e-07
6.3745795e-07
6.1561965e-07
5.9560263e-07
5.7719341e-07
5.6021082e-07
5.4450015e-07
5.2992851e-07
5.1638106e-07
5.0375825e-07
4.9197322e-07
4.809499e-07
4.7062148e-07
4.6092901e-07
4.5182039e-07
4.4324927e-07
4.3517447e-07
4.2755933e-07
4.2037089e-07
4.1357961e-07
4.0715889e-07
4.0108479e-07
3.9533551e-07
3.8989136e-07
3.8473432e-07
3.7984782e-07
3.7521669e-07
3.7082686e-07
3.6666511e-07
3.6271917e-07
3.5897729e-07
3.5542817e-07
3.5206124e-07
3.4886648e-07
3.4583291e-07
3.429523e-07
3.4021627e-07
3.3761123e-07
3.3512691e-07
3.3276165e-07
3.3050414e-07
3.283389e-07
3.2625669e-07
3.2425181e-07
3.2231767e-07
3.2044663e-07
3.186279e-07
3.1685215e-07
3.1511487e-07
3.1341511e-07
3.1175324e-07
3.1013042e-07
3.0854921e-07
3.0701439e-07
3.0553378e-07
3.041187e-07
3.0278404e-07
3.0154813e-07
3.0043312e-07
2.9946424e-07
2.9867134e-07
2.9809235e-07
2.9776729e-07
2.9773875e-07
2.9805198e-07
2.9875573e-07
2.9990342e-07
3.0155424e-07
3.0377306e-07
3.0662997e-07
3.1019892e-07
3.1455701e-07
3.1978669e-07
3.2597706e-07
3.3322925e-07
3.4166069e-07
3.5140306e-07
3.6259135e-07
3.753547e-07
3.8979082e-07
4.0591443e-07
4.2391868e-07
4.4354109e-07
4.6411094e-07
4.844787e-07
5.0801039e-07
3.353687e-06
2.6936087e-06
2.2373813e-06
1.913721e-06
1.6748295e-06
1.4918288e-06
1.3472478e-06
1.2301455e-06
1.1333749e-06
1.052077e-06
9.8283105e-07
9.2315747e-07
8.7121388e-07
8.2560215e-07
7.8524214e-07
7.4928607e-07
7.1705909e-07
6.8801745e-07
6.6171815e-07
6.3779663e-07
6.1595027e-07
5.9592578e-07
5.7750965e-07
5.6052065e-07
5.4480399e-07
5.3022675e-07
5.1667409e-07
5.0404639e-07
4.9225676e-07
4.812291e-07
4.7089653e-07
4.6120008e-07
4.5208762e-07
4.4351282e-07
4.3543442e-07
4.2781571e-07
4.2062376e-07
4.1382896e-07
4.0740474e-07
4.0132709e-07
3.955742e-07
3.9012634e-07
3.8496545e-07
3.8007499e-07
3.7543979e-07
3.7104563e-07
3.6687933e-07
3.6292856e-07
3.5918154e-07
3.5562698e-07
3.5225423e-07
3.4905319e-07
3.46013e-07
3.4312508e-07
3.4038051e-07
3.3776683e-07
3.3527425e-07
3.328991e-07
3.3063048e-07
3.2845394e-07
3.2635994e-07
3.243421e-07
3.2239316e-07
3.2050485e-07
3.1866678e-07
3.1686966e-07
3.1510838e-07
3.1338126e-07
3.1168821e-07
3.1003004e-07
3.08409e-07
3.0682951e-07
3.0529892e-07
3.0382791e-07
3.0243067e-07
3.0112474e-07
2.9993115e-07
2.9887453e-07
2.9798344e-07
2.9728249e-07
2.9680543e-07
2.965932e-07
2.966927e-07
2.9715563e-07
2.9803703e-07
2.9939452e-07
3.0128804e-07
3.0378037e-07
3.0693753e-07
3.1082866e-07
3.1552642e-07
3.2110684e-07
3.2764986e-07
3.3524302e-07
3.4398618e-07
3.5399193e-07
3.6538517e-07
3.7830389e-07
3.9284546e-07
4.0911914e-07
4.2732257e-07
4.4691554e-07
4.6655476e-07
4.89288e-07
3.3539213e-06
2.6940525e-06
2.2379092e-06
1.9142722e-06
1.6753772e-06
1.4923618e-06
1.3477617e-06
1.2306395e-06
1.1338494e-06
1.0525329e-06
9.8326958e-07
9.2357985e-07
8.7162127e-07
8.259957e-07
7.856229e-07
7.4965495e-07
7.1741696e-07
6.8836508e-07
6.6205622e-07
6.3812573e-07
6.1627094e-07
5.9623853e-07
5.7781491e-07
5.6081881e-07
5.450954e-07
5.3051173e-07
5.1695291e-07
5.0431929e-07
4.9252394e-07
4.8149077e-07
4.7115282e-07
4.6145115e-07
4.5233351e-07
4.4375359e-07
4.3567019e-07
4.2804647e-07
4.2084954e-07
4.1404981e-07
4.0762061e-07
4.0153796e-07
3.9578005e-07
3.9032707e-07
3.8516099e-07
3.8026524e-07
3.7562456e-07
3.7122477e-07
3.6705264e-07
3.6309579e-07
3.5934247e-07
3.5578134e-07
3.5240168e-07
3.4919335e-07
3.4614559e-07
3.4324957e-07
3.4049624e-07
3.3787372e-07
3.3537198e-07
3.3298572e-07
3.3070485e-07
3.2851601e-07
3.2640903e-07
3.2437656e-07
3.2241091e-07
3.2050372e-07
3.1864515e-07
3.1682616e-07
3.1504108e-07
3.1328714e-07
3.1156335e-07
3.0987005e-07
3.0820905e-07
3.0658444e-07
3.0500309e-07
3.0347497e-07
3.0201338e-07
3.0063483e-07
2.9935912e-07
2.9820921e-07
2.9721187e-07
2.9639691e-07
2.9579865e-07
2.9545524e-07
2.9540797e-07
2.9570132e-07
2.9638327e-07
2.9750561e-07
2.9912354e-07
3.0129601e-07
3.0408532e-07
3.0755672e-07
3.1177798e-07
3.1682005e-07
3.2275519e-07
3.2965644e-07
3.3760172e-07
3.466754e-07
3.569702e-07
3.6859491e-07
3.816711e-07
3.9628052e-07
4.1265138e-07
4.3080056e-07
4.4924237e-07
4.7088582e-07
3.3541615e-06
2.6944931e-06
2.2384294e-06
1.9148137e-06
1.6759143e-06
1.4928838e-06
1.3482649e-06
1.231123e-06
1.1343137e-06
1.052979e-06
9.8369875e-07
9.2399332e-07
8.7202026e-07
8.2638134e-07
7.859962e-07
7.5001689e-07
7.1776839e-07
6.8870673e-07
6.6238879e-07
6.3844985e-07
6.165872e-07
5.9654744e-07
5.7811692e-07
5.6111439e-07
5.4538497e-07
5.3079565e-07
5.172315e-07
5.0459281e-07
4.9279264e-07
4.8175482e-07
4.714124e-07
4.6170641e-07
4.5258458e-07
4.4400055e-07
4.359131e-07
4.2828539e-07
4.2108453e-07
4.1428087e-07
4.0784772e-07
4.0176107e-07
3.9599912e-07
3.9054203e-07
3.8537171e-07
3.8047159e-07
3.7582645e-07
3.7142201e-07
3.6724503e-07
3.6328312e-07
3.5952448e-07
3.5595777e-07
3.5257218e-07
3.4935756e-07
3.4630331e-07
3.4340021e-07
3.4063908e-07
3.3800858e-07
3.3549869e-07
3.3310307e-07
3.3081181e-07
3.286123e-07
3.2649429e-07
3.2444981e-07
3.2247072e-07
3.2054835e-07
3.1867304e-07
3.1683582e-07
3.1503054e-07
3.1325378e-07
3.1150402e-07
3.0978121e-07
3.0808698e-07
3.064251e-07
3.0480205e-07
3.0322731e-07
3.0171358e-07
3.0027664e-07
2.9893535e-07
2.9771188e-07
2.9663156e-07
2.9571876e-07
2.9500465e-07
2.9452555e-07
2.9432203e-07
2.9443841e-07
2.9492159e-07
2.9582101e-07
2.9718855e-07
2.9907787e-07
3.0154567e-07
3.0465151e-07
3.0845677e-07
3.1302588e-07
3.1842586e-07
3.2472516e-07
3.3199173e-07
3.4029495e-07
3.4970806e-07
3.6030763e-07
3.7219081e-07
3.8543351e-07
4.0013694e-07
4.1669469e-07
4.337542e-07
4.538578e-07
3.3544053e-06
2.6949277e-06
2.2389398e-06
1.915344e-06
1.6764401e-06
1.4933949e-06
1.3487576e-06
1.2315965e-06
1.1347685e-06
1.0534161e-06
9.8411933e-07
9.2439859e-07
8.7241137e-07
8.2675937e-07
7.8636216e-07
7.5037166e-07
7.1811278e-07
6.8904151e-07
6.6271461e-07
6.3876733e-07
6.1689685e-07
5.9684971e-07
5.7841227e-07
5.6140322e-07
5.4566762e-07
5.3107245e-07
5.175027e-07
5.0485866e-07
4.9305331e-07
4.8201051e-07
4.7166328e-07
4.6195253e-07
4.5282609e-07
4.4423753e-07
4.3614558e-07
4.2851346e-07
4.2130818e-07
4.1450005e-07
4.0806249e-07
4.0197138e-07
3.9620489e-07
3.9074323e-07
3.8556827e-07
3.8066338e-07
3.7601335e-07
3.716039e-07
3.6742169e-07
3.634544e-07
3.5969009e-07
3.5611746e-07
3.5272572e-07
3.4950457e-07
3.4644353e-07
3.4353322e-07
3.4076431e-07
3.3812581e-07
3.3560768e-07
3.3320273e-07
3.3090125e-07
3.286912e-07
3.2656212e-07
3.2450552e-07
3.2251293e-07
3.2057551e-07
3.1868378e-07
3.1682879e-07
3.15004e-07
3.1320547e-07
3.1143113e-07
3.0968052e-07
3.079549e-07
3.0625777e-07
3.0459526e-07
3.029764e-07
3.014132e-07
2.9992071e-07
2.9851687e-07
2.9722269e-07
2.9606236e-07
2.9506104e-07
2.9424923e-07
2.9366131e-07
2.9333464e-07
2.9330973e-07
2.9362951e-07
2.9433959e-07
2.9548854e-07
2.9712706e-07
2.9930833e-07
3.0208784e-07
3.0552324e-07
3.0967351e-07
3.1459949e-07
3.2036405e-07
3.2703028e-07
3.3466148e-07
3.4332135e-07
3.5307162e-07
3.6398473e-07
3.7613012e-07
3.8953593e-07
4.0455827e-07
4.2035557e-07
4.3888411e-07
3.354655e-06
2.6953596e-06
2.239443e-06
1.9158651e-06
1.6769557e-06
1.4938957e-06
1.3492402e-06
1.2320602e-06
1.135214e-06
1.0538444e-06
9.8453152e-07
9.2479589e-07
8.7279491e-07
8.2713021e-07
7.8672127e-07
7.5071993e-07
7.1845103e-07
6.8937044e-07
6.630349e-07
6.3907955e-07
6.1720152e-07
5.9714732e-07
5.7870327e-07
5.6168799e-07
5.4594654e-07
5.3134583e-07
5.1777084e-07
5.0512181e-07
4.9331168e-07
4.8226421e-07
4.7191249e-07
4.6219741e-07
4.5306673e-07
4.44474e-07
4.3637798e-07
4.2874177e-07
4.2153244e-07
4.1472031e-07
4.0827868e-07
4.0218349e-07
3.9641285e-07
3.9094699e-07
3.8576773e-07
3.808585e-07
3.7620395e-07
3.717898e-07
3.6760275e-07
3.6363042e-07
3.5986082e-07
3.5628263e-07
3.5288512e-07
3.4965789e-07
3.4659049e-07
3.4367341e-07
3.4089724e-07
3.3825122e-07
3.3572532e-07
3.3331173e-07
3.3100082e-07
3.2878103e-07
3.2664182e-07
3.2457428e-07
3.2256971e-07
3.2061898e-07
3.1871267e-07
3.1684188e-07
3.1499978e-07
3.1318195e-07
3.1138588e-07
3.0961077e-07
3.0785772e-07
3.0613003e-07
3.0443347e-07
3.0277672e-07
3.011713e-07
2.9963168e-07
2.9817502e-07
2.9682137e-07
2.9559378e-07
2.9451492e-07
2.9361316e-07
2.9292146e-07
2.9247584e-07
2.9231529e-07
2.9248155e-07
2.9301809e-07
2.9397036e-07
2.9538611e-07
2.9731446e-07
2.9980708e-07
3.0291743e-07
3.0669948e-07
3.1120902e-07
3.1650298e-07
3.2263943e-07
3.2967622e-07
3.3767151e-07
3.4668171e-07
3.5676689e-07
3.6798739e-07
3.8036604e-07
3.9410319e-07
4.0884446e-07
4.2599069e-07
3.3549023e-06
2.6957821e-06
2.2399345e-06
1.9163741e-06
1.6774597e-06
1.4943854e-06
1.3497124e-06
1.2325142e-06
1.1356502e-06
1.0542639e-06
9.8493546e-07
9.2518538e-07
8.7317103e-07
8.2749397e-07
7.8707363e-07
7.5106173e-07
7.1878305e-07
6.8969342e-07
6.6334941e-07
6.3938616e-07
6.1750075e-07
5.9743964e-07
5.789891e-07
5.6196769e-07
5.4622044e-07
5.3161421e-07
5.1803396e-07
5.0537989e-07
4.9356491e-07
4.825128e-07
4.7215655e-07
4.6243705e-07
4.5330205e-07
4.4470503e-07
4.3660476e-07
4.2896436e-07
4.2175079e-07
4.1493448e-07
4.0848868e-07
4.0238927e-07
3.9661435e-07
3.9114416e-07
3.8596049e-07
3.8104669e-07
3.7638748e-07
3.7196853e-07
3.6777651e-07
3.6379898e-07
3.60024e-07
3.5644018e-07
3.5303675e-07
3.4980334e-07
3.4672954e-07
3.438057e-07
3.410223e-07
3.3836877e-07
3.3583511e-07
3.3341307e-07
3.3109298e-07
3.288636e-07
3.2671439e-07
3.246361e-07
3.2261974e-07
3.2065609e-07
3.1873571e-07
3.1684973e-07
3.1499107e-07
3.1315492e-07
3.1133844e-07
3.0954052e-07
3.0776207e-07
3.0600617e-07
3.0427837e-07
3.0258701e-07
3.0094311e-07
2.9936051e-07
2.9785563e-07
2.9644765e-07
2.951586e-07
2.9401073e-07
2.9303132e-07
2.9225167e-07
2.9170571e-07
2.9143001e-07
2.9146387e-07
2.9184841e-07
2.9262653e-07
2.9384341e-07
2.9554561e-07
2.9778161e-07
3.006016e-07
3.0405659e-07
3.0819801e-07
3.1307739e-07
3.1874727e-07
3.2526057e-07
3.326698e-07
3.4102596e-07
3.5038329e-07
3.6079166e-07
3.7229453e-07
3.8498508e-07
3.9867173e-07
4.1473416e-07
3.3551557e-06
2.6962024e-06
2.2404194e-06
1.9168745e-06
1.6779542e-06
1.4948655e-06
1.3501751e-06
1.232959e-06
1.1360779e-06
1.0546753e-06
9.8533167e-07
9.2556758e-07
8.7354023e-07
8.2785118e-07
7.8741976e-07
7.5139762e-07
7.1910945e-07
6.9001101e-07
6.6365881e-07
6.3968788e-07
6.1779529e-07
5.9772745e-07
5.7927058e-07
5.6224322e-07
5.4649035e-07
5.318788e-07
5.182935e-07
5.0563461e-07
4.9381498e-07
4.8275837e-07
4.7239773e-07
4.6267396e-07
4.5353474e-07
4.449336e-07
4.3682922e-07
4.2918478e-07
4.219672e-07
4.1514682e-07
4.0869692e-07
4.0259341e-07
3.9681434e-07
3.9133989e-07
3.8615191e-07
3.8123368e-07
3.765699e-07
3.7214624e-07
3.6794933e-07
3.6396667e-07
3.6018635e-07
3.5659701e-07
3.5318779e-07
3.4994829e-07
3.4686813e-07
3.4393761e-07
3.4114709e-07
3.3848618e-07
3.3594486e-07
3.3351449e-07
3.311855e-07
3.2894682e-07
3.2678789e-07
3.2469924e-07
3.2267165e-07
3.2069578e-07
3.1876214e-07
3.1686183e-07
3.1498762e-07
3.1313445e-07
3.1129916e-07
3.0948046e-07
3.0767911e-07
3.0589803e-07
3.0414259e-07
3.0242084e-07
3.0074341e-07
2.9912354e-07
2.9757702e-07
2.9612207e-07
2.9477986e-07
2.9357127e-07
2.9252187e-07
2.9166178e-07
2.9102356e-07
2.906421e-07
2.9055511e-07
2.908021e-07
2.9142391e-07
2.9246327e-07
2.9396417e-07
2.9597239e-07
2.9853464e-07
3.0169873e-07
3.0551299e-07
3.1002546e-07
3.1528412e-07
3.2133635e-07
3.2823027e-07
3.3601126e-07
3.4472918e-07
3.5442285e-07
3.6514517e-07
3.7696086e-07
3.8966301e-07
4.0476375e-07
3.355406e-06
2.6966134e-06
2.2408932e-06
1.9173636e-06
1.678438e-06
1.4953354e-06
1.3506282e-06
1.233395e-06
1.1364971e-06
1.0550788e-06
9.8572052e-07
9.2594277e-07
8.7390278e-07
8.2820206e-07
7.8775988e-07
7.5172779e-07
7.1943039e-07
6.9032336e-07
6.6396314e-07
6.3998475e-07
6.1808516e-07
5.9801077e-07
5.7954771e-07
5.6251453e-07
5.4675617e-07
5.321394e-07
5.1854912e-07
5.0588544e-07
4.9406119e-07
4.8300009e-07
4.7263511e-07
4.6290707e-07
4.5376363e-07
4.4515833e-07
4.3704981e-07
4.2940125e-07
4.2217953e-07
4.1535503e-07
4.0890099e-07
4.0279326e-07
3.9700992e-07
3.9153111e-07
3.8633871e-07
3.8141593e-07
3.7674746e-07
3.7231895e-07
3.6811698e-07
3.6412905e-07
3.6034322e-07
3.5674814e-07
3.5333293e-07
3.5008717e-07
3.4700048e-07
3.4406306e-07
3.4126525e-07
3.3859676e-07
3.360476e-07
3.336088e-07
3.3127071e-07
3.2902257e-07
3.2685375e-07
3.2475456e-07
3.2271562e-07
3.2072741e-07
3.1878048e-07
3.1686594e-07
3.1497643e-07
3.1310666e-07
3.1125327e-07
3.0941486e-07
3.0759207e-07
3.0578773e-07
3.0400707e-07
3.0225784e-07
3.0055031e-07
2.9889714e-07
2.9731353e-07
2.9581679e-07
2.9442713e-07
2.9316482e-07
2.9205417e-07
2.9112404e-07
2.9040558e-07
2.8993192e-07
2.8973894e-07
2.8986434e-07
2.9034713e-07
2.9122787e-07
2.9254844e-07
2.9435267e-07
2.9668494e-07
2.9959028e-07
3.0311364e-07
3.0729969e-07
3.1219306e-07
3.1783713e-07
3.2427607e-07
3.3154957e-07
3.3970429e-07
3.4877185e-07
3.5880043e-07
3.6985986e-07
3.8168843e-07
3.9591171e-07
3.3556603e-06
2.6970213e-06
2.2413601e-06
1.9178442e-06
1.6789127e-06
1.4957964e-06
1.3510727e-06
1.2338227e-06
1.1369086e-06
1.055475e-06
9.861024e-07
9.2631141e-07
8.7425917e-07
8.2854711e-07
7.8809443e-07
7.5205263e-07
7.1974625e-07
6.9063088e-07
6.6426289e-07
6.4027723e-07
6.1837081e-07
5.9829001e-07
5.7982096e-07
5.6278211e-07
5.470184e-07
5.3239652e-07
5.1880135e-07
5.0613297e-07
4.9430416e-07
4.8323865e-07
4.7286935e-07
4.6313705e-07
4.5398944e-07
4.4538e-07
4.3726736e-07
4.2961468e-07
4.2238887e-07
4.1556024e-07
4.09102e-07
4.0299e-07
3.9720235e-07
3.9171912e-07
3.8652218e-07
3.8159473e-07
3.7692143e-07
3.7248789e-07
3.6828072e-07
3.6428735e-07
3.6049582e-07
3.5689477e-07
3.534733e-07
3.5022096e-07
3.4712742e-07
3.4418279e-07
3.4137738e-07
3.3870093e-07
3.3614342e-07
3.3369578e-07
3.3134827e-07
3.2909018e-07
3.2691096e-07
3.2480073e-07
3.2274994e-07
3.2074903e-07
3.1878847e-07
3.1685938e-07
3.149544e-07
3.130681e-07
3.1119701e-07
3.0933965e-07
3.0749663e-07
3.0567074e-07
3.0386712e-07
3.0209327e-07
3.0035908e-07
2.9867674e-07
2.9706073e-07
2.9552755e-07
2.9409651e-07
2.9278691e-07
2.9162199e-07
2.9062918e-07
2.8983837e-07
2.8928152e-07
2.88993e-07
2.8900917e-07
2.8936778e-07
2.9010777e-07
2.9126871e-07
2.9289198e-07
2.9501958e-07
2.9769446e-07
3.0095911e-07
3.0485519e-07
3.0942412e-07
3.1470591e-07
3.2074139e-07
3.2756647e-07
3.3522364e-07
3.437404e-07
3.5315668e-07
3.6354963e-07
3.7463353e-07
3.8793664e-07
3.3559109e-06
2.69742e-06
2.2418162e-06
1.9183139e-06
1.679377e-06
1.4962476e-06
1.3515082e-06
1.234242e-06
1.1373122e-06
1.0558638e-06
9.8647751e-07
9.2667369e-07
8.7460957e-07
8.2888654e-07
7.8842372e-07
7.5237252e-07
7.2005742e-07
6.9093391e-07
6.6455833e-07
6.4056555e-07
6.1865247e-07
5.985654e-07
5.8009047e-07
5.6304608e-07
5.4727708e-07
5.3265016e-07
5.1905014e-07
5.0637707e-07
4.9454374e-07
4.834738e-07
4.7310014e-07
4.6336357e-07
4.542117e-07
4.4559805e-07
4.3748122e-07
4.2982432e-07
4.2259428e-07
4.1576133e-07
4.0929871e-07
4.0318228e-07
3.9739011e-07
3.9190224e-07
3.8670051e-07
3.8176813e-07
3.7708968e-07
3.726508e-07
3.6843802e-07
3.6443877e-07
3.6064106e-07
3.570335e-07
3.536052e-07
3.5034571e-07
3.4724464e-07
3.4429207e-07
3.4147824e-07
3.3879299e-07
3.3622629e-07
3.3376879e-07
3.314108e-07
3.2914168e-07
3.2695084e-07
3.2482833e-07
3.2276444e-07
3.2074951e-07
3.1877403e-07
3.1682923e-07
3.149077e-07
3.1300398e-07
3.1111462e-07
3.0923818e-07
3.0737531e-07
3.0552877e-07
3.0370364e-07
3.0190716e-07
3.0014884e-07
2.9844042e-07
2.967956e-07
2.9523025e-07
2.9376276e-07
2.9241158e-07
2.9119918e-07
2.9015163e-07
2.8929774e-07
2.8866814e-07
2.8829594e-07
2.8821617e-07
2.8846484e-07
2.8907934e-07
2.9009793e-07
2.9156024e-07
2.9350606e-07
2.9597616e-07
2.9901077e-07
3.0264911e-07
3.0692978e-07
3.1189006e-07
3.1756741e-07
3.2399475e-07
3.3121092e-07
3.3924079e-07
3.4811803e-07
3.5791736e-07
3.6836847e-07
3.8082225e-07
3.3561621e-06
2.6978139e-06
2.2422647e-06
1.9187751e-06
1.6798326e-06
1.4966904e-06
1.3519356e-06
1.2346537e-06
1.1377088e-06
1.0562461e-06
9.8684636e-07
9.2703015e-07
8.7495456e-07
8.2922088e-07
7.8874819e-07
7.5268786e-07
7.2036423e-07
6.9123278e-07
6.6484978e-07
6.4085005e-07
6.1893044e-07
5.9883723e-07
5.803565e-07
5.6330664e-07
5.4753241e-07
5.329005e-07
5.1929566e-07
5.066179e-07
4.9478e-07
4.8370559e-07
4.7332752e-07
4.6358658e-07
4.5443038e-07
4.4581239e-07
4.3769124e-07
4.3002993e-07
4.2279543e-07
4.1595796e-07
4.0949074e-07
4.0336959e-07
3.975726e-07
3.9207973e-07
3.8687278e-07
3.8193506e-07
3.7725097e-07
3.7280616e-07
3.6858717e-07
3.6458132e-07
3.6077665e-07
3.5716177e-07
3.5372572e-07
3.5045802e-07
3.4734829e-07
3.4438654e-07
3.4156298e-07
3.3886744e-07
3.362899e-07
3.3382087e-07
3.3145054e-07
3.291684e-07
3.2696384e-07
3.2482681e-07
3.2274751e-07
3.2071626e-07
3.1872361e-07
3.1676086e-07
3.1482073e-07
3.1289785e-07
3.1098886e-07
3.0909245e-07
3.0720933e-07
3.0534235e-07
3.0349649e-07
3.0167877e-07
2.9989833e-07
2.9816643e-07
2.9649609e-07
2.9490242e-07
2.9340304e-07
2.9201548e-07
2.9076129e-07
2.8966568e-07
2.8875629e-07
2.8806257e-07
2.8761657e-07
2.8745203e-07
2.8760383e-07
2.8810821e-07
2.890017e-07
2.9032217e-07
2.9210779e-07
2.9439724e-07
2.972284e-07
3.0063856e-07
3.0466397e-07
3.0933927e-07
3.1469937e-07
3.2077484e-07
3.2760026e-07
3.3519861e-07
3.4359959e-07
3.5287051e-07
3.6276932e-07
3.7449069e-07
3.3564098e-06
2.6981993e-06
2.2427033e-06
1.9192262e-06
1.6802786e-06
1.4971242e-06
1.3523548e-06
1.2350578e-06
1.1380984e-06
1.0566219e-06
9.8720932e-07
9.273811e-07
8.7529436e-07
8.2955034e-07
7.8906805e-07