/*--------------------------------*- C++ -*----------------------------------*\
| =========                 |                                                 |
| \\      /  F ield         | OpenFOAM: The Open Source CFD Toolbox           |
|  \\    /   O peration     | Version:  2406                                  |
|   \\  /    A nd           | Website:  www.openfoam.com                      |
|    \\/     M anipulation  |                                                 |
\*---------------------------------------------------------------------------*/
FoamFile
{
    version     2.0;
    format      ascii;
    arch        "LSB;label=32;scalar=64";
    class       surfaceScalarField;
    location    "500";
    object      phi;
}
// * * * * * * * * * * * * * * * * * * * * * * * * * * * * * * * * * * * * * //

dimensions      [1 0 -1 0 0 0 0];

oriented        oriented;

internalField   nonuniform List<scalar> 
264541
(
1.8154724e-05
-1.9098818e-07
2.0184045e-07
1.8139606e-05
-2.5276822e-07
2.6788522e-07
1.8121056e-05
-3.3375588e-07
3.5230693e-07
1.8098972e-05
-4.1131577e-07
4.3340064e-07
1.8073753e-05
-4.8635009e-07
5.1156882e-07
1.8045543e-05
-5.5991331e-07
5.8812342e-07
1.8014374e-05
-6.3113239e-07
6.6230188e-07
1.7980318e-05
-7.0012648e-07
7.3418238e-07
1.7943434e-05
-7.6729308e-07
8.0417722e-07
1.790376e-05
-8.3290149e-07
8.7257577e-07
1.7861327e-05
-8.9721459e-07
9.3964744e-07
1.7816161e-05
-9.6048801e-07
1.005654e-06
1.7768278e-05
-1.022947e-06
1.0708306e-06
1.7717686e-05
-1.0847835e-06
1.1353755e-06
1.766439e-05
-1.1461641e-06
1.1994599e-06
1.7608387e-05
-1.2072304e-06
1.2632329e-06
1.7549671e-05
-1.2681007e-06
1.3268178e-06
1.7488229e-05
-1.3288701e-06
1.3903115e-06
1.7424049e-05
-1.3896176e-06
1.4537972e-06
1.735712e-05
-1.4504068e-06
1.5173363e-06
1.728742e-05
-1.5112795e-06
1.5809796e-06
1.7214929e-05
-1.5722696e-06
1.6447606e-06
1.713963e-05
-1.6333946e-06
1.708693e-06
1.7061504e-05
-1.6946686e-06
1.7727953e-06
1.6980532e-05
-1.7560899e-06
1.8370618e-06
1.6896699e-05
-1.8176409e-06
1.901474e-06
1.6809992e-05
-1.879298e-06
1.9660044e-06
1.6720403e-05
-1.9410083e-06
2.0305973e-06
1.6627925e-05
-2.0027105e-06
2.0951895e-06
1.6532556e-05
-2.0643246e-06
2.1596927e-06
1.64343e-05
-2.1257343e-06
2.2239907e-06
1.6333163e-05
-2.1868138e-06
2.2879508e-06
1.622916e-05
-2.2474179e-06
2.3514212e-06
1.6122304e-05
-2.3073785e-06
2.4142345e-06
1.6012618e-05
-2.3665213e-06
2.4762066e-06
1.5900131e-05
-2.4246529e-06
2.5371403e-06
1.5784877e-05
-2.4815739e-06
2.5968283e-06
1.5666902e-05
-2.5370794e-06
2.6550544e-06
1.5546259e-05
-2.5909383e-06
2.7115815e-06
1.5423007e-05
-2.6429058e-06
2.7661568e-06
1.5297222e-05
-2.692738e-06
2.8185233e-06
1.5168989e-05
-2.7401648e-06
2.8683982e-06
1.5038402e-05
-2.7849055e-06
2.915492e-06
1.4905568e-05
-2.8266637e-06
2.959498e-06
1.477061e-05
-2.8651261e-06
3.0000844e-06
1.463366e-05
-2.8999669e-06
3.0369163e-06
1.4494864e-05
-2.9308399e-06
3.0696359e-06
1.4354383e-05
-2.9573901e-06
3.0978716e-06
1.4212363e-05
-2.9792107e-06
3.1212301e-06
1.4068962e-05
-2.9959593e-06
3.1393609e-06
1.3924491e-05
-3.0075925e-06
3.1520628e-06
1.3779142e-05
-3.013493e-06
3.1588427e-06
1.3633121e-05
-3.0130366e-06
3.1590578e-06
1.3486618e-05
-3.0063683e-06
3.152871e-06
1.3340153e-05
-2.9934751e-06
3.1399395e-06
1.3194281e-05
-2.9746764e-06
3.1205485e-06
1.3047944e-05
-2.9405526e-06
3.0868903e-06
1.2902624e-05
-2.9104855e-06
3.0558046e-06
1.2759597e-05
-2.8668754e-06
3.0099026e-06
1.2617717e-05
-2.8121091e-06
2.9539892e-06
1.2477357e-05
-2.7520495e-06
2.8924093e-06
1.2340503e-05
-2.6809794e-06
2.8178334e-06
1.2206842e-05
-2.6009135e-06
2.7345746e-06
1.2074203e-05
-2.5139727e-06
2.646612e-06
1.1945141e-05
-2.4120701e-06
2.5411319e-06
1.1819589e-05
-2.3016193e-06
2.4271708e-06
1.1698489e-05
-2.1837833e-06
2.3048841e-06
1.1582416e-05
-2.057096e-06
2.173168e-06
1.1471685e-05
-1.9209759e-06
2.0317078e-06
1.136671e-05
-1.7754173e-06
1.8803914e-06
1.1267966e-05
-1.6205457e-06
1.7192897e-06
1.1175949e-05
-1.4565832e-06
1.5486004e-06
1.1091159e-05
-1.2838113e-06
1.3686017e-06
1.1014094e-05
-1.102557e-06
1.1796212e-06
1.0945269e-05
-9.1319588e-07
9.8202167e-07
1.0885192e-05
-7.1614081e-07
7.7621705e-07
1.0834418e-05
-5.1188775e-07
5.6266202e-07
1.0793454e-05
-3.0093863e-07
3.419027e-07
1.0763038e-05
-8.4172712e-08
1.1458871e-07
1.0744651e-05
1.3735661e-07
-1.189696e-07
1.0739152e-05
3.6300313e-07
-3.5750402e-07
1.0746993e-05
5.9265068e-07
-6.0049165e-07
1.0768309e-05
8.2613094e-07
-8.4744708e-07
1.0803028e-05
1.0631156e-06
-1.0978342e-06
1.0850971e-05
1.3030935e-06
-1.3510375e-06
1.0911997e-05
1.5453958e-06
-1.6064208e-06
1.0986072e-05
1.7892507e-06
-1.8633262e-06
1.1073291e-05
2.0338298e-06
-2.1210487e-06
1.1173839e-05
2.2782751e-06
-2.3788229e-06
1.1287922e-05
2.5217079e-06
-2.6357914e-06
1.1415709e-05
2.7633106e-06
-2.891097e-06
1.155732e-05
3.0022078e-06
-3.1438195e-06
1.1712861e-05
3.2373954e-06
-3.3929356e-06
1.1882369e-05
3.4680473e-06
-3.6375555e-06
1.2065792e-05
3.6934955e-06
-3.8769189e-06
1.2263086e-05
3.9129754e-06
-4.1102696e-06
1.2474118e-05
4.1256934e-06
-4.3367254e-06
1.2698868e-05
4.3309384e-06
-4.5556884e-06
1.2936787e-05
4.5281041e-06
-4.7660224e-06
1.3187987e-05
4.7169567e-06
-4.9681567e-06
1.3450368e-05
4.8958316e-06
-5.1582129e-06
1.3723681e-05
5.0707967e-06
-5.3441093e-06
1.4005492e-05
5.2131616e-06
-5.4949726e-06
5.4547039e-06
1.4266958e-05
-5.7161706e-06
1.7489763e-05
-1.8045312e-07
1.7475231e-05
-2.3823749e-07
1.7457382e-05
-3.1590618e-07
1.7436137e-05
-3.9007131e-07
1.7411901e-05
-4.6211456e-07
1.7384802e-05
-5.3281419e-07
1.7354872e-05
-6.012019e-07
1.732218e-05
-6.6743471e-07
1.7286783e-05
-7.3189693e-07
1.7248721e-05
-7.948395e-07
1.7208023e-05
-8.5651672e-07
1.7164714e-05
-9.1717877e-07
1.7118809e-05
-9.7704233e-07
1.7070319e-05
-1.0362932e-06
1.7019247e-05
-1.0950919e-06
1.696559e-05
-1.1535738e-06
1.6909344e-05
-1.2118545e-06
1.68505e-05
-1.2700257e-06
1.6789045e-05
-1.3281629e-06
1.6724965e-05
-1.3863273e-06
1.6658242e-05
-1.4445567e-06
1.6588858e-05
-1.5028856e-06
1.6516798e-05
-1.5613337e-06
1.6442039e-05
-1.6199105e-06
1.6364567e-05
-1.6786173e-06
1.6284365e-05
-1.7374393e-06
1.6201423e-05
-1.7963559e-06
1.6115733e-05
-1.8553183e-06
1.6027289e-05
-1.9142666e-06
1.5936089e-05
-1.9731246e-06
1.5842139e-05
-2.0317844e-06
1.5745446e-05
-2.0901208e-06
1.5646021e-05
-2.1479934e-06
1.5543883e-05
-2.2052396e-06
1.5439051e-05
-2.2616895e-06
1.5331557e-05
-2.3171592e-06
1.5221434e-05
-2.3714514e-06
1.5108728e-05
-2.4243728e-06
1.499349e-05
-2.4757003e-06
1.4875784e-05
-2.5251996e-06
1.4755679e-05
-2.5726335e-06
1.4633261e-05
-2.617747e-06
1.4508627e-05
-2.6602708e-06
1.4381876e-05
-2.6999132e-06
1.425313e-05
-2.7363793e-06
1.4122521e-05
-2.769358e-06
1.3990195e-05
-2.7985143e-06
1.3856313e-05
-2.8235082e-06
1.3721052e-05
-2.8439495e-06
1.3584555e-05
-2.859462e-06
1.3447043e-05
-2.870081e-06
1.3308697e-05
-2.8751473e-06
1.316973e-05
-2.8740695e-06
1.3030334e-05
-2.8669715e-06
1.2892303e-05
-2.8554445e-06
1.2752688e-05
-2.8350619e-06
1.2615421e-05
-2.8032852e-06
1.2478182e-05
-2.7732466e-06
1.2341972e-05
-2.7306657e-06
1.220775e-05
-2.6778865e-06
1.2074705e-05
-2.6190047e-06
1.1944294e-05
-2.5505683e-06
1.1817039e-05
-2.4736589e-06
1.1692324e-05
-2.3892572e-06
1.1571694e-05
-2.2914405e-06
1.1455191e-05
-2.1851165e-06
1.1342847e-05
-2.0714386e-06
1.123516e-05
-1.9494096e-06
1.1132644e-05
-1.8184597e-06
1.1035776e-05
-1.6785487e-06
1.0945033e-05
-1.5298036e-06
1.0860903e-05
-1.3724523e-06
1.0783863e-05
-1.2067722e-06
1.0714399e-05
-1.0330923e-06
1.0653e-05
-8.5179684e-07
1.0600159e-05
-6.6329985e-07
1.0556358e-05
-4.6808673e-07
1.0522109e-05
-2.6669041e-07
1.049755e-05
-5.9613637e-08
1.0482175e-05
1.527316e-07
1.0475997e-05
3.6918138e-07
1.0479682e-05
5.8896571e-07
1.0494245e-05
8.1156825e-07
1.0520846e-05
1.0365147e-06
1.0560583e-05
1.2633566e-06
1.0614326e-05
1.4916522e-06
1.0682642e-05
1.7209349e-06
1.0765796e-05
1.9506756e-06
1.0863796e-05
2.1802754e-06
1.0976454e-05
2.4090495e-06
1.1103481e-05
2.6362841e-06
1.1244525e-05
2.861164e-06
1.1399186e-05
3.0827335e-06
1.1567097e-05
3.3001367e-06
1.1747964e-05
3.512629e-06
1.1941546e-05
3.7193932e-06
1.2147612e-05
3.9196271e-06
1.2366014e-05
4.1125368e-06
1.2596525e-05
4.2975924e-06
1.2839176e-05
4.4743056e-06
1.3093642e-05
4.6413661e-06
1.3360801e-05
4.8036375e-06
1.3637637e-05
4.9363258e-06
5.1364872e-06
1.3955854e-05
1.6849209e-05
-1.7019114e-07
1.6835226e-05
-2.2425292e-07
1.6818031e-05
-2.9871054e-07
1.6797564e-05
-3.6960438e-07
1.6774229e-05
-4.3877904e-07
1.6748136e-05
-5.0672172e-07
1.6719316e-05
-5.7238102e-07
1.6687833e-05
-6.3595181e-07
1.6653742e-05
-6.9780608e-07
1.6617078e-05
-7.5817547e-07
1.6577871e-05
-8.173091e-07
1.6536145e-05
-8.7545262e-07
1.6491914e-05
-9.3281122e-07
1.6445186e-05
-9.895659e-07
1.639597e-05
-1.045875e-06
1.6344261e-05
-1.101865e-06
1.6290054e-05
-1.1576476e-06
1.6233342e-05
-1.2133141e-06
1.6174113e-05
-1.2689338e-06
1.6112354e-05
-1.3245678e-06
1.6048049e-05
-1.380252e-06
1.5981181e-05
-1.4360174e-06
1.5911734e-05
-1.4918862e-06
1.583969e-05
-1.5478668e-06
1.5765034e-05
-1.6039611e-06
1.5687752e-05
-1.6601576e-06
1.5607835e-05
-1.7164386e-06
1.5525275e-05
-1.7727584e-06
1.5440068e-05
-1.8290595e-06
1.5352213e-05
-1.8852701e-06
1.5261718e-05
-1.9412886e-06
1.516859e-05
-1.9969937e-06
1.5072844e-05
-2.0522472e-06
1.4974498e-05
-2.1068931e-06
1.4873574e-05
-2.1607655e-06
1.4770101e-05
-2.213687e-06
1.4664117e-05
-2.2654665e-06
1.4555661e-05
-2.3159175e-06
1.444479e-05
-2.3648286e-06
1.4331563e-05
-2.4119736e-06
1.4216056e-05
-2.457126e-06
1.4098351e-05
-2.5000415e-06
1.397854e-05
-2.5404606e-06
1.3856729e-05
-2.5781014e-06
1.3733032e-05
-2.6126829e-06
1.3607586e-05
-2.643912e-06
1.3480532e-05
-2.6714606e-06
1.3352032e-05
-2.6950079e-06
1.3222291e-05
-2.7142086e-06
1.3091548e-05
-2.7287192e-06
1.2959919e-05
-2.7384514e-06
1.2827635e-05
-2.7428631e-06
1.2694993e-05
-2.7414274e-06
1.2561757e-05
-2.7337356e-06
1.2428791e-05
-2.7224785e-06
1.229602e-05
-2.7022908e-06
1.2164762e-05
-2.6720278e-06
1.2032966e-05
-2.6414499e-06
1.1902753e-05
-2.600453e-06
1.1774792e-05
-2.5499253e-06
1.1648571e-05
-2.4927839e-06
1.1524962e-05
-2.426959e-06
1.1403851e-05
-2.352548e-06
1.1285477e-05
-2.2708833e-06
1.117135e-05
-2.1773137e-06
1.1061487e-05
-2.0752535e-06
1.0955948e-05
-1.9658993e-06
1.0855053e-05
-1.8485146e-06
1.0759231e-05
-1.7226378e-06
1.0668941e-05
-1.5882588e-06
1.0584656e-05
-1.4455186e-06
1.0506841e-05
-1.2946379e-06
1.0435952e-05
-1.1358829e-06
1.0372436e-05
-9.6957623e-07
1.0316736e-05
-7.9609689e-07
1.026928e-05
-6.1584373e-07
1.0230502e-05
-4.2930832e-07
1.0200762e-05
-2.3695092e-07
1.0180731e-05
-3.9582468e-08
1.0171244e-05
1.62219e-07
1.0172622e-05
3.6780291e-07
1.0184865e-05
5.7672296e-07
1.0207877e-05
7.885561e-07
1.0241632e-05
1.0027591e-06
1.0286283e-05
1.2187063e-06
1.0342205e-05
1.4357298e-06
1.040998e-05
1.6531602e-06
1.0490292e-05
1.8703635e-06
1.0583819e-05
2.0867483e-06
1.0691119e-05
2.3017493e-06
1.0812563e-05
2.5148407e-06
1.0948255e-05
2.7254721e-06
1.1097979e-05
2.9330092e-06
1.1261343e-05
3.1367726e-06
1.1437876e-05
3.3360963e-06
1.1627042e-05
3.5302271e-06
1.182828e-05
3.7183887e-06
1.2041049e-05
3.8997674e-06
1.2264931e-05
4.0737105e-06
1.2499446e-05
4.2397913e-06
1.274435e-05
4.3964621e-06
1.2999719e-05
4.5482684e-06
1.3259916e-05
4.6761289e-06
4.8452575e-06
1.3551145e-05
1.6232175e-05
-1.6018719e-07
1.6218722e-05
-2.1080103e-07
1.6202161e-05
-2.8214934e-07
1.6182458e-05
-3.4990217e-07
1.6160014e-05
-4.1633475e-07
1.6134924e-05
-4.8163215e-07
1.6107213e-05
-5.4466982e-07
1.6076948e-05
-6.0568753e-07
1.6044184e-05
-6.6504133e-07
1.600895e-05
-7.2294237e-07
1.5971278e-05
-7.7963694e-07
1.5931187e-05
-8.3536103e-07
1.5888692e-05
-8.9031704e-07
1.5843806e-05
-9.4467997e-07
1.5796532e-05
-9.9860094e-07
1.5746868e-05
-1.0522012e-06
1.5694811e-05
-1.1055901e-06
1.5640352e-05
-1.1588555e-06
1.5583481e-05
-1.2120625e-06
1.5524184e-05
-1.2652707e-06
1.5462447e-05
-1.3185152e-06
1.5398253e-05
-1.3718237e-06
1.5331587e-05
-1.4252204e-06
1.5262433e-05
-1.4787123e-06
1.5190774e-05
-1.5323028e-06
1.5116601e-05
-1.5859844e-06
1.50399e-05
-1.6397372e-06
1.4960664e-05
-1.6935231e-06
1.4878893e-05
-1.7472886e-06
1.4794586e-05
-1.8009629e-06
1.470775e-05
-1.8544526e-06
1.4618394e-05
-1.9076372e-06
1.4526531e-05
-1.9603842e-06
1.4432181e-05
-2.0125437e-06
1.4335366e-05
-2.0639503e-06
1.4236115e-05
-2.1144355e-06
1.4134463e-05
-2.1638148e-06
1.4030452e-05
-2.2119067e-06
1.3924138e-05
-2.2585146e-06
1.381558e-05
-2.3034157e-06
1.3704848e-05
-2.3463944e-06
1.3592028e-05
-2.3872213e-06
1.3477208e-05
-2.4256402e-06
1.3360493e-05
-2.4613871e-06
1.3242e-05
-2.4941892e-06
1.3121855e-05
-2.5237677e-06
1.3000208e-05
-2.5498134e-06
1.2877213e-05
-2.5720123e-06
1.2753048e-05
-2.5900444e-06
1.2627909e-05
-2.6035799e-06
1.2501914e-05
-2.6124558e-06
1.2375357e-05
-2.6163063e-06
1.2248526e-05
-2.6145965e-06
1.2121896e-05
-2.6071062e-06
1.1994564e-05
-2.5951462e-06
1.186786e-05
-2.5755868e-06
1.1743112e-05
-2.5472795e-06
1.1618098e-05
-2.5164366e-06
1.1494382e-05
-2.4767369e-06
1.1372752e-05
-2.4282945e-06
1.1252963e-05
-2.3729957e-06
1.1135575e-05
-2.3095705e-06
1.1020952e-05
-2.237925e-06
1.090888e-05
-2.1588114e-06
1.0801148e-05
-2.0695817e-06
1.0697854e-05
-1.9719599e-06
1.0598831e-05
-1.8668754e-06
1.0504348e-05
-1.754032e-06
1.0414882e-05
-1.6331716e-06
1.033091e-05
-1.5042874e-06
1.0252894e-05
-1.3675018e-06
1.0181277e-05
-1.2230212e-06
1.0116503e-05
-1.0711086e-06
1.0059009e-05
-9.1208242e-07
1.0009226e-05
-7.4631419e-07
9.9675812e-06
-5.7419894e-07
9.9344918e-06
-3.9621887e-07
9.9103743e-06
-2.1283344e-07
9.8954002e-06
-2.4608357e-08
9.8895405e-06
1.6807865e-07
9.8930252e-06
3.6431816e-07
9.9062614e-06
5.6348681e-07
9.9297244e-06
7.6509312e-07
9.9638452e-06
9.6863827e-07
1.0008949e-05
1.1736027e-06
1.0065258e-05
1.379421e-06
1.0132936e-05
1.5854818e-06
1.0212166e-05
1.7911334e-06
1.0303201e-05
1.9957138e-06
1.0406382e-05
2.1985677e-06
1.0522106e-05
2.3991166e-06
1.0650766e-05
2.5968118e-06
1.0792643e-05
2.7911324e-06
1.0947808e-05
2.9816076e-06
1.1116142e-05
3.1677626e-06
1.129731e-05
3.3490587e-06
1.1490788e-05
3.5249115e-06
1.1695887e-05
3.6946676e-06
1.1911952e-05
3.8576454e-06
1.2138224e-05
4.0135194e-06
1.2374058e-05
4.1606289e-06
1.2619628e-05
4.3026983e-06
1.287076e-05
4.424997e-06
4.5790502e-06
1.3136967e-05
1.5637788e-05
-1.5042122e-07
1.5624851e-05
-1.9786339e-07
1.5608897e-05
-2.6619519e-07
1.5589927e-05
-3.3093191e-07
1.5568331e-05
-3.9473833e-07
1.5544191e-05
-4.5749174e-07
1.5517531e-05
-5.1801009e-07
1.5488415e-05
-5.7657061e-07
1.5456889e-05
-6.3351596e-07
1.5422988e-05
-6.8904115e-07
1.5386738e-05
-7.4338654e-07
1.534816e-05
-7.9678357e-07
1.5307271e-05
-8.4942802e-07
1.526408e-05
-9.0148813e-07
1.521859e-05
-9.5311123e-07
1.5170802e-05
-1.0044127e-06
1.5120709e-05
-1.0554975e-06
1.5068306e-05
-1.106452e-06
1.5013581e-05
-1.1573378e-06
1.4956523e-05
-1.208213e-06
1.4897119e-05
-1.2591111e-06
1.4835356e-05
-1.3100599e-06
1.4771215e-05
-1.3610797e-06
1.4704683e-05
-1.4121802e-06
1.4635746e-05
-1.463366e-06
1.4564393e-05
-1.5146309e-06
1.4490613e-05
-1.5659571e-06
1.4414399e-05
-1.6173096e-06
1.4335751e-05
-1.6686406e-06
1.4254671e-05
-1.7198831e-06
1.4171167e-05
-1.7709483e-06
1.4085248e-05
-1.8217177e-06
1.3996928e-05
-1.8720649e-06
1.3906228e-05
-1.9218431e-06
1.3813168e-05
-1.9708903e-06
1.3717777e-05
-2.019045e-06
1.3620092e-05
-2.0661297e-06
1.3520158e-05
-2.1119723e-06
1.3418025e-05
-2.1563812e-06
1.3313753e-05
-2.1991442e-06
1.3207414e-05
-2.2400558e-06
1.3099084e-05
-2.2788905e-06
1.2988855e-05
-2.3154111e-06
1.2876834e-05
-2.3493663e-06
1.2763133e-05
-2.3804879e-06
1.2647876e-05
-2.4085109e-06
1.2531208e-05
-2.4331454e-06
1.2413283e-05
-2.4540876e-06
1.2294276e-05
-2.4710376e-06
1.2174389e-05
-2.4836925e-06
1.2053777e-05
-2.4918445e-06
1.1932684e-05
-2.4952131e-06
1.1811301e-05
-2.4932133e-06
1.1689964e-05
-2.4857694e-06
1.1568485e-05
-2.4736669e-06
1.1447543e-05
-2.4546446e-06
1.1327956e-05
-2.4276931e-06
1.1208686e-05
-2.3971663e-06
1.1090787e-05
-2.3588381e-06
1.0974829e-05
-2.3123357e-06
1.0860822e-05
-2.2589894e-06
1.074925e-05
-2.1979984e-06
1.0640461e-05
-2.1291362e-06
1.0534586e-05
-2.0529364e-06
1.0432607e-05
-1.9676027e-06
1.0334718e-05
-1.8740709e-06
1.0241064e-05
-1.7732218e-06
1.0151989e-05
-1.6649564e-06
1.0067904e-05
-1.549087e-06
9.9892255e-06
-1.4256086e-06
9.9163678e-06
-1.2946441e-06
9.8497416e-06
-1.156395e-06
9.7897528e-06
-1.0111198e-06
9.7368005e-06
-8.5913016e-07
9.6912738e-06
-7.0078746e-07
9.6535451e-06
-5.3647024e-07
9.6239768e-06
-3.6665066e-07
9.6028894e-06
-1.9174602e-07
9.5907823e-06
-1.2501226e-08
9.5882055e-06
1.7065539e-07
9.5954347e-06
3.5708897e-07
9.6126041e-06
5.4631742e-07
9.6398118e-06
7.3788544e-07
9.6771616e-06
9.3128847e-07
9.7247852e-06
1.125979e-06
9.7828232e-06
1.3213831e-06
9.8514118e-06
1.5168932e-06
9.9306728e-06
1.7118723e-06
1.0020708e-05
1.905679e-06
1.0121616e-05
2.0976594e-06
1.0233558e-05
2.2871746e-06
1.0356747e-05
2.4736228e-06
1.0491437e-05
2.656442e-06
1.0637907e-05
2.8351384e-06
1.0796379e-05
3.0092904e-06
1.0966941e-05
3.1784967e-06
1.1149491e-05
3.3423612e-06
1.1343674e-05
3.5004843e-06
1.154897e-05
3.6523495e-06
1.1764742e-05
3.7977472e-06
1.1990102e-05
3.9352698e-06
1.2225104e-05
4.0676958e-06
1.2467217e-05
4.1828845e-06
4.326092e-06
1.2720175e-05
1.5065218e-05
-1.4088721e-07
1.5052787e-05
-1.8543348e-07
1.5037419e-05
-2.5082725e-07
1.501916e-05
-3.1267358e-07
1.4998388e-05
-3.7396651e-07
1.4975171e-05
-4.3427405e-07
1.4949532e-05
-4.9237124e-07
1.4921533e-05
-5.4857188e-07
1.4891219e-05
-6.0320177e-07
1.485862e-05
-6.5644311e-07
1.4823766e-05
-7.0853228e-07
1.4786677e-05
-7.5969449e-07
1.4747367e-05
-8.10118e-07
1.4705846e-05
-8.5996691e-07
1.4662117e-05
-9.0938235e-07
1.4616181e-05
-9.5847669e-07
1.4568034e-05
-1.0073506e-06
1.4517668e-05
-1.056087e-06
1.4465078e-05
-1.104747e-06
1.4410248e-05
-1.1533835e-06
1.4353166e-05
-1.2020294e-06
1.4293821e-05
-1.2507144e-06
1.4232194e-05
-1.299453e-06
1.4168271e-05
-1.3482577e-06
1.4102042e-05
-1.3971363e-06
1.4033492e-05
-1.4460815e-06
1.3962614e-05
-1.4950792e-06
1.3889402e-05
-1.544098e-06
1.3813858e-05
-1.5930962e-06
1.3735983e-05
-1.6420082e-06
1.3655784e-05
-1.6907491e-06
1.357327e-05
-1.7392041e-06
1.3488458e-05
-1.7872526e-06
1.3401367e-05
-1.8347522e-06
1.3312018e-05
-1.8815411e-06
1.322044e-05
-1.9274671e-06
1.312667e-05
-1.9723598e-06
1.3030749e-05
-2.0160516e-06
1.2932727e-05
-2.0583593e-06
1.2832664e-05
-2.0990813e-06
1.2730632e-05
-2.1380231e-06
1.2626706e-05
-2.1749654e-06
1.2520976e-05
-2.2096811e-06
1.2413542e-05
-2.241932e-06
1.230452e-05
-2.2714655e-06
1.2194032e-05
-2.2980228e-06
1.2082215e-05
-2.3213289e-06
1.1969224e-05
-2.3410967e-06
1.1855226e-05
-2.3570397e-06
1.1740409e-05
-2.3688753e-06
1.1624932e-05
-2.3763672e-06
1.1509008e-05
-2.3792893e-06
1.13929e-05
-2.3771057e-06
1.1276867e-05
-2.3697363e-06
1.1160817e-05
-2.3576164e-06
1.1045335e-05
-2.3391625e-06
1.0931121e-05
-2.3134795e-06
1.0817484e-05
-2.2835296e-06
1.0705164e-05
-2.2465178e-06
1.0594733e-05
-2.2019045e-06
1.0486298e-05
-2.1505551e-06
1.0380241e-05
-2.091941e-06
1.0276926e-05
-2.0258216e-06
1.0176514e-05
-1.952524e-06
1.0079808e-05
-1.8708971e-06
9.9871947e-06
-1.7814573e-06
9.8988476e-06
-1.6848747e-06
9.8150419e-06
-1.5811507e-06
9.7361437e-06
-1.4701888e-06
9.6625511e-06
-1.352016e-06
9.5946668e-06
-1.2267598e-06
9.532888e-06
-1.0946162e-06
9.4776071e-06
-9.5583901e-07
9.429209e-06
-8.1073207e-07
9.3880681e-06
-6.5964653e-07
9.3545553e-06
-5.0295749e-07
9.3290243e-06
-3.4111961e-07
9.3118188e-06
-1.745406e-07
9.3031429e-06
-3.8253362e-09
9.3031327e-06
1.7066564e-07
9.3120076e-06
3.4821398e-07
9.3300417e-06
5.2828339e-07
9.3575381e-06
7.1038904e-07
9.3947882e-06
8.9403828e-07
9.4420428e-06
1.0787244e-06
9.4994991e-06
1.2639268e-06
9.5672928e-06
1.4490996e-06
9.6454897e-06
1.6336754e-06
9.7341035e-06
1.8170651e-06
9.8331072e-06
1.9986557e-06
9.9424402e-06
2.1778416e-06
1.0062046e-05
2.3540173e-06
1.0191901e-05
2.5265868e-06
1.0332046e-05
2.6949936e-06
1.048259e-05
2.8587456e-06
1.0643667e-05
3.0174198e-06
1.0815392e-05
3.1706362e-06
1.0997792e-05
3.3180849e-06
1.1190741e-05
3.4594006e-06
1.1393978e-05
3.5945096e-06
1.1606829e-05
3.7224191e-06
1.1829062e-05
3.8454629e-06
1.2059215e-05
3.9527317e-06
4.0864338e-06
1.2298873e-05
1.4513653e-05
-1.3156684e-07
1.4501714e-05
-1.7349369e-07
1.4486906e-05
-2.3601888e-07
1.446933e-05
-2.9509715e-07
1.4449349e-05
-3.5398519e-07
1.4427016e-05
-4.1194117e-07
1.4402356e-05
-4.6771048e-07
1.4375425e-05
-5.2164139e-07
1.4346268e-05
-5.7404502e-07
1.4314915e-05
-6.2508939e-07
1.4281391e-05
-6.7500851e-07
1.4245718e-05
-7.2402158e-07
1.4207909e-05
-7.7230865e-07
1.4167973e-05
-8.2003086e-07
1.4125914e-05
-8.6732366e-07
1.4081733e-05
-9.1429516e-07
1.4035426e-05
-9.6104383e-07
1.3986988e-05
-1.0076491e-06
1.3936411e-05
-1.0541694e-06
1.3883682e-05
-1.1006546e-06
1.3828789e-05
-1.1471367e-06
1.377172e-05
-1.1936455e-06
1.3712461e-05
-1.2401934e-06
1.3650997e-05
-1.2867935e-06
1.3587317e-05
-1.3334561e-06
1.352141e-05
-1.3801748e-06
1.3453269e-05
-1.4269387e-06
1.3382891e-05
-1.4737199e-06
1.3310273e-05
-1.5204781e-06
1.3235419e-05
-1.5671537e-06
1.3158335e-05
-1.6136655e-06
1.3079036e-05
-1.6599051e-06
1.2997536e-05
-1.7057523e-06
1.2913853e-05
-1.7510695e-06
1.2828011e-05
-1.7956989e-06
1.2740035e-05
-1.8394917e-06
1.2649965e-05
-1.8822893e-06
1.255784e-05
-1.923927e-06
1.2463709e-05
-1.9642277e-06
1.2367631e-05
-2.0030036e-06
1.2269677e-05
-2.0400686e-06
1.2169917e-05
-2.075206e-06
1.2068443e-05
-2.1082067e-06
1.1965354e-05
-2.1388426e-06
1.1860758e-05
-2.1668699e-06
1.175478e-05
-2.1920451e-06
1.1647553e-05
-2.2141012e-06
1.1539223e-05
-2.2327672e-06
1.1429957e-05
-2.2477731e-06
1.1319931e-05
-2.2588502e-06
1.1209318e-05
-2.2657538e-06
1.1098323e-05
-2.2682944e-06
1.0987176e-05
-2.2659582e-06
1.0876121e-05
-2.2586813e-06
1.076518e-05
-2.2466761e-06
1.0654786e-05
-2.2287678e-06
1.0545517e-05
-2.2042106e-06
1.0437029e-05
-2.175042e-06
1.0329864e-05
-2.1393522e-06
1.0224505e-05
-2.0965462e-06
1.0121144e-05
-2.0471936e-06
1.0020143e-05
-1.9909406e-06
9.9218644e-06
-1.9275426e-06
9.8265425e-06
-1.8572021e-06
9.7347955e-06
-1.7791501e-06
9.6469836e-06
-1.6936453e-06
9.5633229e-06
-1.6012141e-06
9.4841125e-06
-1.5019404e-06
9.4097092e-06
-1.3957855e-06
9.3404885e-06
-1.2827953e-06
9.2768271e-06
-1.1630984e-06
9.2190923e-06
-1.0368814e-06
9.1676475e-06
-9.0439424e-07
9.1228482e-06
-7.6593276e-07
9.0850363e-06
-6.2183467e-07
9.0545439e-06
-4.7246505e-07
9.0316866e-06
-3.1826235e-07
9.0167585e-06
-1.5961247e-07
9.0101098e-06
2.8233515e-09
9.0121026e-06
1.6867275e-07
9.0229717e-06
3.3734493e-07
9.0428852e-06
5.0836991e-07
9.0719753e-06
6.8129889e-07
9.1103598e-06
8.5565377e-07
9.1581579e-06
1.0309263e-06
9.2154925e-06
1.2065923e-06
9.2824821e-06
1.3821099e-06
9.359235e-06
1.5569224e-06
9.4458226e-06
1.7304775e-06
9.5422573e-06
1.902221e-06
9.6485052e-06
2.0715937e-06
9.7644866e-06
2.2380359e-06
9.8900725e-06
2.4010009e-06
1.0025118e-05
2.5599482e-06
1.0169503e-05
2.7143605e-06
1.0323161e-05
2.8637613e-06
1.0486068e-05
3.0077298e-06
1.0658234e-05
3.1459185e-06
1.0839636e-05
3.277999e-06
1.1030267e-05
3.4038782e-06
1.1229936e-05
3.5227497e-06
1.1438445e-05
3.6369546e-06
1.1654946e-05
3.7362308e-06
3.8606755e-06
1.1880704e-05
1.3982323e-05
-1.2246234e-07
1.3970852e-05
-1.6202285e-07
1.3956583e-05
-2.2175055e-07
1.3939665e-05
-2.7817967e-07
1.3920445e-05
-3.3476506e-07
1.3898965e-05
-3.9046086e-07
1.3875246e-05
-4.439917e-07
1.3849346e-05
-4.9574171e-07
1.3821306e-05
-5.4600469e-07
1.3791154e-05
-5.9493793e-07
1.3758917e-05
-6.4277185e-07
1.3724614e-05
-6.8971868e-07
1.3688259e-05
-7.3595298e-07
1.364986e-05
-7.8163227e-07
1.3609421e-05
-8.2688496e-07
1.3566944e-05
-8.7181779e-07
1.3522425e-05
-9.1652542e-07
1.3475859e-05
-9.6108247e-07
1.3427237e-05
-1.0055481e-06
1.337655e-05
-1.0499673e-06
1.3323787e-05
-1.0943733e-06
1.3268933e-05
-1.1387924e-06
1.3211978e-05
-1.1832384e-06
1.3152908e-05
-1.227723e-06
1.309171e-05
-1.2722581e-06
1.3028376e-05
-1.3168411e-06
1.2962899e-05
-1.3614614e-06
1.2895274e-05
-1.4060954e-06
1.2825501e-05
-1.4507051e-06
1.2753584e-05
-1.4952364e-06
1.267953e-05
-1.5396115e-06
1.2603352e-05
-1.583727e-06
1.2525066e-05
-1.6274661e-06
1.2444689e-05
-1.6706927e-06
1.2362244e-05
-1.7132542e-06
1.227776e-05
-1.7550073e-06
1.2191271e-05
-1.7958012e-06
1.2102818e-05
-1.8354739e-06
1.2012449e-05
-1.8738586e-06
1.1920223e-05
-1.9107777e-06
1.1826204e-05
-1.9460495e-06
1.1730468e-05
-1.9794698e-06
1.16331e-05
-2.0108387e-06
1.1534196e-05
-2.0399386e-06
1.1433865e-05
-2.0665388e-06
1.1332227e-05
-2.0904072e-06
1.1229408e-05
-2.1112829e-06
1.1125555e-05
-2.1289142e-06
1.102083e-05
-2.1430476e-06
1.0915403e-05
-2.1534232e-06
1.0809443e-05
-2.1597934e-06
1.0703141e-05
-2.1619928e-06
1.0596728e-05
-2.1595453e-06
1.0490427e-05
-2.1523804e-06
1.0384327e-05
-2.1405761e-06
1.0278796e-05
-2.1232366e-06
1.0174316e-05
-2.0997308e-06
1.0070727e-05
-2.0714526e-06
9.9684519e-06
-2.0370773e-06
9.8679412e-06
-1.9960355e-06
9.7694233e-06
-1.9486757e-06
9.6732265e-06
-1.8947437e-06
9.5796988e-06
-1.8340149e-06
9.4890993e-06
-1.7666026e-06
9.40194e-06
-1.6919908e-06
9.3186015e-06
-1.6103068e-06
9.239345e-06
-1.5219576e-06
9.1644643e-06
-1.4270597e-06
9.0942932e-06
-1.3256143e-06
9.0291825e-06
-1.2176846e-06
8.9694861e-06
-1.103402e-06
8.9155579e-06
-9.8295324e-07
8.8677454e-06
-8.5658175e-07
8.8263869e-06
-7.2457424e-07
8.7918089e-06
-5.8725671e-07
8.7643333e-06
-4.4498949e-07
8.7442619e-06
-2.9819095e-07
8.7318886e-06
-1.4723922e-07
8.7274245e-06
7.2875092e-09
8.7310544e-06
1.6504283e-07
8.7429774e-06
3.2542187e-07
8.7633983e-06
4.8794903e-07
8.7925194e-06
6.5217779e-07
8.8305271e-06
8.176461e-07
8.8775793e-06
9.8387403e-07
8.9338004e-06
1.1503711e-06
8.9992792e-06
1.3166312e-06
9.0740634e-06
1.4821382e-06
9.15818e-06
1.6463609e-06
9.2516367e-06
1.8087644e-06
9.3543896e-06
1.9688408e-06
9.4663593e-06
2.1260662e-06
9.587434e-06
2.2799261e-06
9.7174516e-06
2.4299306e-06
9.856215e-06
2.5755971e-06
1.0003509e-05
2.7164671e-06
1.0159135e-05
2.8521043e-06
1.0322931e-05
2.9821225e-06
1.0494782e-05
3.1061475e-06
1.0674589e-05
3.2240719e-06
1.0862258e-05
3.3350805e-06
1.1057777e-05
3.4414352e-06
1.1260547e-05
3.5334614e-06
3.6489048e-06
1.1472317e-05
1.3470477e-05
-1.1356517e-07
1.3459434e-05
-1.5097818e-07
1.3445681e-05
-2.0799801e-07
1.3429397e-05
-2.6189498e-07
1.341091e-05
-3.1627825e-07
1.3390249e-05
-3.6979991e-07
1.3367439e-05
-4.2118074e-07
1.334253e-05
-4.708334e-07
1.3315564e-05
-5.1903869e-07
1.3286569e-05
-5.6594291e-07
1.325557e-05
-6.1177205e-07
1.3222583e-05
-6.5673187e-07
1.3187622e-05
-7.0099224e-07
1.3150696e-05
-7.4470581e-07
1.3111809e-05
-7.8799835e-07
1.3070964e-05
-8.3097197e-07
1.3028156e-05
-8.737175e-07
1.2983381e-05
-9.1630762e-07
1.2936631e-05
-9.5879846e-07
1.2887898e-05
-1.0012341e-06
1.283717e-05
-1.0436455e-06
1.2784436e-05
-1.086058e-06
1.2729682e-05
-1.1284848e-06
1.2672898e-05
-1.1709383e-06
1.2614072e-05
-1.2134319e-06
1.2553194e-05
-1.2559636e-06
1.2490258e-05
-1.2985256e-06
1.2425262e-05
-1.341099e-06
1.2358205e-05
-1.3836481e-06
1.2289091e-05
-1.4261222e-06
1.2217929e-05
-1.4684496e-06
1.2144732e-05
-1.5105302e-06
1.2069515e-05
-1.5522494e-06
1.1992296e-05
-1.5934736e-06
1.1913098e-05
-1.6340561e-06
1.183195e-05
-1.6738592e-06
1.1748883e-05
-1.7127341e-06
1.1663937e-05
-1.7505276e-06
1.157716e-05
-1.7870824e-06
1.148861e-05
-1.8222278e-06
1.139835e-05
-1.8557889e-06
1.1306455e-05
-1.8875748e-06
1.1213008e-05
-1.9173918e-06
1.11181e-05
-1.9450302e-06
1.1021836e-05
-1.9702749e-06
1.0924333e-05
-1.9929048e-06
1.0825718e-05
-2.012668e-06
1.0726132e-05
-2.029328e-06
1.0625728e-05
-2.0426432e-06
1.0524671e-05
-2.0523665e-06
1.0423132e-05
-2.0582543e-06
1.0321293e-05
-2.0601536e-06
1.0219376e-05
-2.0576281e-06
1.0117591e-05
-2.0505954e-06
1.0016065e-05
-2.0390501e-06
9.9151092e-06
-2.0222811e-06
9.8151413e-06
-1.9997629e-06
9.7161345e-06
-1.9724459e-06
9.6184402e-06
-1.939383e-06
9.5224587e-06
-1.900054e-06
9.4284416e-06
-1.8546586e-06
9.3367019e-06
-1.803004e-06
9.2475758e-06
-1.7448888e-06
9.1613436e-06
-1.6803704e-06
9.078444e-06
-1.6090912e-06
8.9992449e-06
-1.5311077e-06
8.9240168e-06
-1.4467296e-06
8.8530479e-06
-1.3560907e-06
8.7866604e-06
-1.2592268e-06
8.7251882e-06
-1.1562124e-06
8.668969e-06
-1.0471829e-06
8.6183352e-06
-9.3231948e-07
8.5736112e-06
-8.1185776e-07
8.5351129e-06
-6.8607585e-07
8.5031431e-06
-5.5528697e-07
8.4779965e-06
-4.1984294e-07
8.4599469e-06
-2.8014134e-07
8.4492594e-06
-1.3655173e-07
8.4461942e-06
1.0352709e-08
8.451012e-06
1.6022506e-07
8.4639134e-06
3.1252045e-07
8.4850578e-06
4.6680461e-07
8.5145765e-06
6.2265907e-07
8.5525795e-06
7.7964315e-07
8.599162e-06
9.3729147e-07
8.6544078e-06
1.0951253e-06
8.7183815e-06
1.2526575e-06
8.7911305e-06
1.4093892e-06
8.8726706e-06
1.5648208e-06
8.9629849e-06
1.7184501e-06
9.0620508e-06
1.8697749e-06
9.1697958e-06
2.0183211e-06
9.2861145e-06
2.1636074e-06
9.4108691e-06
2.305176e-06
9.5438795e-06
2.4425867e-06
9.6849407e-06
2.5754059e-06
9.8338015e-06
2.7032435e-06
9.990197e-06
2.825727e-06
1.0153859e-05
2.9424853e-06
1.0324572e-05
3.0533594e-06
1.0502118e-05
3.1575345e-06
1.0686443e-05
3.2571098e-06
1.0876908e-05
3.3429967e-06
3.4501696e-06
1.1075643e-05
1.2977405e-05
-1.0487898e-07
1.2966755e-05
-1.4032919e-07
1.29535e-05
-1.9474323e-07
1.2937826e-05
-2.4622153e-07
1.2920047e-05
-2.9849905e-07
1.2900178e-05
-3.4993156e-07
1.2878243e-05
-3.9924543e-07
1.2854292e-05
-4.468828e-07
1.2828362e-05
-4.931085e-07
1.280048e-05
-5.3806131e-07
1.2770671e-05
-5.819623e-07
1.273895e-05
-6.2501156e-07
1.2705334e-05
-6.6737577e-07
1.2669828e-05
-7.0920057e-07
1.2632439e-05
-7.5060929e-07
1.2593168e-05
-7.9170109e-07
1.2552012e-05
-8.325613e-07
1.2508966e-05
-8.7326174e-07
1.2464023e-05
-9.1385579e-07
1.2417176e-05
-9.5438625e-07
1.2368413e-05
-9.9488269e-07
1.2317723e-05
-1.0353678e-06
1.2265095e-05
-1.0758572e-06
1.2210518e-05
-1.1163611e-06
1.2153979e-05
-1.1568934e-06
1.2095472e-05
-1.1974563e-06
1.203499e-05
-1.2380438e-06
1.197253e-05
-1.2786395e-06
1.1908095e-05
-1.3192122e-06
1.1841686e-05