/*--------------------------------*- C++ -*----------------------------------*\
| =========                 |                                                 |
| \\      /  F ield         | OpenFOAM: The Open Source CFD Toolbox           |
|  \\    /   O peration     | Version:  2406                                  |
|   \\  /    A nd           | Website:  www.openfoam.com                      |
|    \\/     M anipulation  |                                                 |
\*---------------------------------------------------------------------------*/
FoamFile
{
    version     2.0;
    format      ascii;
    arch        "LSB;label=32;scalar=64";
    class       volScalarField;
    location    "500";
    object      pMean;
}
// * * * * * * * * * * * * * * * * * * * * * * * * * * * * * * * * * * * * * //

dimensions      [1 -1 -2 0 0 0 0];

internalField   nonuniform List<scalar> 
132739
(
1.0029908
1.0029604
1.0029658
1.0029881
1.0030105
1.0030336
1.0030616
1.003094
1.0031297
1.003169
1.0032118
1.0032582
1.0033079
1.0033609
1.0034173
1.0034769
1.0035397
1.0036057
1.0036748
1.0037471
1.0038224
1.0039007
1.0039821
1.0040663
1.0041535
1.0042436
1.0043364
1.0044321
1.0045305
1.0046315
1.0047351
1.0048413
1.0049498
1.0050607
1.0051738
1.0052891
1.0054065
1.0055257
1.0056468
1.0057696
1.0058938
1.0060195
1.0061465
1.0062746
1.0064036
1.0065335
1.0066641
1.0067951
1.0069265
1.0070581
1.0071897
1.007321
1.0074519
1.0075823
1.0077116
1.0078398
1.0079668
1.0080924
1.0082159
1.0083378
1.0084577
1.0085758
1.0086912
1.0088043
1.0089146
1.0090216
1.009125
1.0092248
1.0093205
1.0094118
1.0094984
1.0095798
1.0096557
1.0097257
1.0097892
1.0098456
1.009894
1.0099339
1.0099647
1.0099857
1.0099962
1.0099954
1.0099825
1.0099564
1.0099161
1.0098607
1.0097891
1.0097001
1.0095928
1.0094662
1.009319
1.0091501
1.0089585
1.0087431
1.0085029
1.0082371
1.0079448
1.0076252
1.0072781
1.0069023
1.0064997
1.0060687
1.0056209
1.0051478
1.0029915
1.0029614
1.002967
1.0029892
1.0030116
1.0030347
1.0030627
1.003095
1.0031307
1.0031699
1.0032127
1.003259
1.0033086
1.0033616
1.0034179
1.0034774
1.0035402
1.0036061
1.0036751
1.0037473
1.0038225
1.0039007
1.0039819
1.0040661
1.0041531
1.004243
1.0043358
1.0044313
1.0045295
1.0046303
1.0047338
1.0048398
1.0049481
1.0050588
1.0051717
1.0052868
1.0054039
1.0055228
1.0056436
1.0057661
1.00589
1.0060153
1.006142
1.0062696
1.0063982
1.0065275
1.0066575
1.0067878
1.0069185
1.0070492
1.0071799
1.0073101
1.00744
1.0075689
1.0076971
1.0078238
1.0079495
1.0080737
1.0081961
1.0083167
1.008435
1.0085508
1.0086637
1.0087739
1.008881
1.0089848
1.009085
1.0091813
1.0092733
1.0093608
1.0094433
1.0095204
1.0095919
1.0096573
1.0097161
1.0097678
1.0098119
1.0098478
1.0098751
1.0098931
1.0099012
1.0098987
1.0098847
1.0098585
1.0098192
1.0097661
1.0096982
1.0096145
1.0095141
1.0093961
1.0092594
1.0091033
1.0089267
1.0087286
1.0085083
1.0082649
1.0079977
1.0077057
1.0073888
1.0070457
1.0066764
1.0062779
1.0058492
1.0053839
1.0029922
1.0029623
1.002968
1.0029903
1.0030127
1.0030358
1.0030638
1.0030962
1.0031319
1.0031712
1.003214
1.0032603
1.00331
1.003363
1.0034193
1.003479
1.0035418
1.0036078
1.0036769
1.0037491
1.0038244
1.0039028
1.0039841
1.0040684
1.0041555
1.0042456
1.0043384
1.004434
1.0045324
1.0046334
1.004737
1.0048431
1.0049515
1.0050624
1.0051754
1.0052906
1.0054078
1.0055269
1.0056478
1.0057703
1.0058943
1.0060197
1.0061463
1.006274
1.0064025
1.0065317
1.0066615
1.0067915
1.0069218
1.0070521
1.0071823
1.0073119
1.0074411
1.0075693
1.0076967
1.0078227
1.0079476
1.0080708
1.0081921
1.0083111
1.0084278
1.0085418
1.0086528
1.0087607
1.0088653
1.0089663
1.0090634
1.0091565
1.009245
1.0093287
1.0094072
1.0094801
1.0095472
1.0096078
1.0096616
1.0097079
1.0097461
1.0097758
1.0097964
1.0098074
1.0098082
1.0097982
1.0097768
1.0097431
1.0096964
1.0096361
1.0095612
1.0094709
1.0093645
1.009241
1.0090995
1.0089394
1.0087595
1.0085592
1.0083376
1.008094
1.0078277
1.0075379
1.0072243
1.0068863
1.0065234
1.0061372
1.0057214
1.0052998
1.0029927
1.0029631
1.002969
1.0029912
1.0030136
1.0030368
1.0030648
1.0030971
1.0031329
1.0031721
1.0032149
1.0032612
1.0033108
1.0033638
1.0034202
1.0034798
1.0035426
1.0036085
1.0036776
1.0037498
1.0038251
1.0039034
1.0039847
1.0040689
1.004156
1.004246
1.0043388
1.0044344
1.0045327
1.0046336
1.0047371
1.0048432
1.0049516
1.0050623
1.0051753
1.0052903
1.0054075
1.0055264
1.0056472
1.0057695
1.0058934
1.0060186
1.0061449
1.0062724
1.0064006
1.0065295
1.0066589
1.0067886
1.0069185
1.0070482
1.0071778
1.0073067
1.0074351
1.0075624
1.0076889
1.0078139
1.0079375
1.0080595
1.0081792
1.0082966
1.0084117
1.0085239
1.0086329
1.0087386
1.0088408
1.0089391
1.0090334
1.0091234
1.0092087
1.0092889
1.0093637
1.0094328
1.0094958
1.0095521
1.0096016
1.0096435
1.0096774
1.0097027
1.0097191
1.0097259
1.0097226
1.0097086
1.009683
1.0096452
1.0095944
1.0095301
1.0094513
1.0093573
1.0092474
1.0091208
1.0089766
1.0088142
1.0086329
1.0084318
1.0082103
1.0079678
1.0077036
1.0074172
1.0071082
1.0067762
1.0064203
1.0060425
1.0056372
1.0052161
1.0029932
1.0029639
1.0029699
1.0029921
1.0030146
1.0030377
1.0030657
1.0030981
1.0031338
1.003173
1.0032158
1.0032621
1.0033118
1.0033648
1.0034212
1.0034808
1.0035436
1.0036096
1.0036787
1.003751
1.0038262
1.0039046
1.0039859
1.0040701
1.0041573
1.0042473
1.0043402
1.0044358
1.0045341
1.0046351
1.0047386
1.0048447
1.0049531
1.0050639
1.0051769
1.005292
1.0054091
1.005528
1.0056488
1.0057711
1.0058949
1.00602
1.0061463
1.0062736
1.0064017
1.0065304
1.0066596
1.006789
1.0069186
1.0070479
1.007177
1.0073055
1.0074334
1.0075601
1.0076858
1.00781
1.0079326
1.0080535
1.008172
1.0082881
1.0084017
1.0085122
1.0086194
1.0087232
1.0088233
1.0089194
1.0090112
1.0090985
1.009181
1.0092582
1.0093298
1.0093955
1.0094549
1.0095075
1.0095531
1.0095908
1.0096203
1.0096411
1.0096527
1.0096546
1.0096464
1.0096274
1.0095971
1.0095548
1.0094998
1.0094315
1.0093493
1.0092523
1.0091399
1.0090114
1.0088661
1.0087033
1.0085222
1.0083224
1.008103
1.0078637
1.0076038
1.0073228
1.0070204
1.0066962
1.0063495
1.0059812
1.0055883
1.0051742
1.0029936
1.0029646
1.0029707
1.002993
1.0030154
1.0030385
1.0030666
1.0030989
1.0031346
1.0031738
1.0032166
1.0032629
1.0033126
1.0033656
1.0034219
1.0034815
1.0035443
1.0036103
1.0036794
1.0037516
1.0038269
1.0039052
1.0039865
1.0040708
1.0041579
1.0042479
1.0043407
1.0044363
1.0045346
1.0046355
1.004739
1.004845
1.0049534
1.0050642
1.0051771
1.0052921
1.0054091
1.005528
1.0056486
1.0057708
1.0058945
1.0060195
1.0061456
1.0062727
1.0064006
1.006529
1.006658
1.0067871
1.0069162
1.0070452
1.0071738
1.0073018
1.007429
1.007555
1.0076799
1.0078033
1.0079249
1.0080446
1.008162
1.0082768
1.008389
1.0084979
1.0086034
1.0087054
1.0088034
1.0088973
1.0089868
1.0090716
1.0091513
1.0092257
1.0092942
1.0093567
1.0094127
1.0094618
1.0095037
1.0095377
1.0095634
1.0095804
1.0095883
1.0095865
1.0095746
1.0095519
1.0095179
1.009472
1.0094135
1.0093418
1.0092564
1.0091565
1.0090416
1.0089109
1.008764
1.0086002
1.0084188
1.0082192
1.0080011
1.0077638
1.0075069
1.00723
1.0069326
1.0066147
1.0062755
1.005916
1.0055337
1.0051331
1.0029939
1.0029653
1.0029715
1.0029937
1.0030162
1.0030393
1.0030674
1.0030997
1.0031354
1.0031746
1.0032174
1.0032637
1.0033133
1.0033663
1.0034227
1.0034823
1.0035451
1.003611
1.0036801
1.0037524
1.0038276
1.0039059
1.0039873
1.0040715
1.0041586
1.0042486
1.0043415
1.004437
1.0045354
1.0046363
1.0047398
1.0048457
1.0049541
1.0050648
1.0051777
1.0052927
1.0054097
1.0055285
1.0056491
1.0057712
1.0058948
1.0060196
1.0061456
1.0062726
1.0064002
1.0065285
1.0066572
1.006786
1.0069149
1.0070435
1.0071717
1.0072992
1.0074259
1.0075514
1.0076755
1.0077982
1.007919
1.0080377
1.0081541
1.0082677
1.0083786
1.0084861
1.0085901
1.0086905
1.0087867
1.0088787
1.0089662
1.0090487
1.0091261
1.0091979
1.0092638
1.0093235
1.0093766
1.0094227
1.0094613
1.009492
1.0095143
1.0095277
1.0095319
1.0095263
1.0095107
1.0094843
1.0094467
1.0093973
1.0093355
1.0092608
1.0091726
1.0090703
1.0089533
1.008821
1.008673
1.0085085
1.0083271
1.0081282
1.0079115
1.0076763
1.0074225
1.0071496
1.0068571
1.0065452
1.006213
1.0058618
1.0054885
1.0051
1.0029942
1.0029659
1.0029723
1.0029944
1.0030169
1.00304
1.0030681
1.0031004
1.0031361
1.0031753
1.0032181
1.0032643
1.003314
1.003367
1.0034233
1.0034829
1.0035457
1.0036116
1.0036807
1.0037529
1.0038282
1.0039065
1.0039877
1.004072
1.0041591
1.0042491
1.0043419
1.0044374
1.0045357
1.0046366
1.00474
1.004846
1.0049543
1.0050649
1.0051778
1.0052927
1.0054096
1.0055283
1.0056488
1.0057708
1.0058943
1.006019
1.0061448
1.0062716
1.0063991
1.0065272
1.0066556
1.0067841
1.0069127
1.0070409
1.0071687
1.0072957
1.0074219
1.0075468
1.0076703
1.0077923
1.0079122
1.00803
1.0081454
1.0082579
1.0083676
1.0084739
1.0085765
1.0086752
1.0087699
1.0088601
1.0089456
1.0090261
1.0091012
1.0091706
1.0092341
1.0092912
1.0093415
1.0093847
1.0094203
1.009448
1.0094672
1.0094775
1.0094785
1.0094699
1.0094511
1.0094218
1.0093812
1.0093289
1.0092644
1.0091871
1.0090965
1.0089921
1.0088734
1.0087398
1.0085907
1.0084259
1.0082446
1.0080465
1.0078312
1.0075983
1.0073474
1.0070782
1.0067905
1.0064842
1.0061586
1.0058151
1.0054501
1.0050728
1.0029944
1.0029664
1.0029729
1.0029951
1.0030175
1.0030407
1.0030687
1.003101
1.0031367
1.0031759
1.0032187
1.0032649
1.0033146
1.0033676
1.0034238
1.0034834
1.0035462
1.0036121
1.0036812
1.0037534
1.0038287
1.0039069
1.0039882
1.0040724
1.0041595
1.0042495
1.0043422
1.0044378
1.004536
1.0046369
1.0047403
1.0048462
1.0049545
1.0050651
1.0051778
1.0052927
1.0054096
1.0055282
1.0056486
1.0057705
1.0058939
1.0060185
1.0061442
1.0062708
1.0063981
1.006526
1.0066542
1.0067824
1.0069107
1.0070386
1.007166
1.0072926
1.0074183
1.0075427
1.0076656
1.0077869
1.0079061
1.0080231
1.0081376
1.0082491
1.0083577
1.0084628
1.0085642
1.0086616
1.0087547
1.0088433
1.0089271
1.0090057
1.0090789
1.0091463
1.0092075
1.0092623
1.0093102
1.0093509
1.009384
1.0094089
1.0094253
1.0094328
1.0094309
1.0094194
1.0093977
1.0093655
1.0093221
1.0092672
1.0092002
1.0091205
1.0090279
1.0089216
1.0088014
1.0086666
1.0085169
1.0083517
1.0081707
1.0079734
1.0077595
1.0075286
1.0072805
1.0070149
1.0067316
1.0064305
1.0061109
1.0057747
1.0054172
1.00505
1.0029945
1.0029669
1.0029736
1.0029957
1.0030181
1.0030413
1.0030693
1.0031016
1.0031373
1.0031765
1.0032192
1.0032655
1.0033151
1.0033681
1.0034243
1.0034839
1.0035467
1.0036126
1.0036816
1.0037538
1.003829
1.0039073
1.0039885
1.0040727
1.0041598
1.0042497
1.0043425
1.0044379
1.0045362
1.004637
1.0047403
1.0048462
1.0049544
1.005065
1.0051776
1.0052924
1.0054092
1.0055278
1.0056481
1.0057699
1.0058931
1.0060176
1.0061431
1.0062696
1.0063967
1.0065244
1.0066523
1.0067804
1.0069083
1.0070359
1.007163
1.0072892
1.0074144
1.0075383
1.0076607
1.0077813
1.0078998
1.0080161
1.0081297
1.0082404
1.0083479
1.0084519
1.0085521
1.0086483
1.00874
1.0088272
1.0089094
1.0089863
1.0090577
1.0091231
1.0091824
1.009235
1.0092807
1.0093191
1.0093497
1.0093722
1.0093861
1.0093911
1.0093867
1.0093726
1.0093485
1.0093139
1.0092681
1.0092109
1.0091418
1.0090602
1.0089658
1.008858
1.0087366
1.0086009
1.0084506
1.0082853
1.0081046
1.0079082
1.0076957
1.0074669
1.0072214
1.0069592
1.0066799
1.0063837
1.0060698
1.0057403
1.0053898
1.0050317
1.0029946
1.0029674
1.0029742
1.0029963
1.0030187
1.0030418
1.0030699
1.0031021
1.0031378
1.003177
1.0032197
1.0032659
1.0033155
1.0033685
1.0034248
1.0034843
1.003547
1.0036129
1.003682
1.0037542
1.0038293
1.0039076
1.0039888
1.0040729
1.00416
1.0042499
1.0043426
1.004438
1.0045362
1.004637
1.0047403
1.0048461
1.0049543
1.0050648
1.0051774
1.0052921
1.0054088
1.0055273
1.0056475
1.0057692
1.0058923
1.0060167
1.0061421
1.0062684
1.0063953
1.0065228
1.0066505
1.0067783
1.006906
1.0070333
1.00716
1.0072858
1.0074106
1.0075341
1.0076559
1.007776
1.0078939
1.0080094
1.0081223
1.0082321
1.0083388
1.0084418
1.008541
1.008636
1.0087265
1.0088123
1.0088931
1.0089685
1.0090383
1.009102
1.0091595
1.0092102
1.0092539
1.0092903
1.0093188
1.0093392
1.0093508
1.0093535
1.0093469
1.0093305
1.0093042
1.0092672
1.0092194
1.0091601
1.0090891
1.0090058
1.0089098
1.0088008
1.0086783
1.0085419
1.0083912
1.0082259
1.0080457
1.0078502
1.0076392
1.0074122
1.0071693
1.0069103
1.0066348
1.0063431
1.0060345
1.0057111
1.0053673
1.0050172
1.0029947
1.0029678
1.0029747
1.0029968
1.0030192
1.0030424
1.0030704
1.0031026
1.0031383
1.0031774
1.0032202
1.0032664
1.003316
1.0033689
1.0034251
1.0034846
1.0035474
1.0036133
1.0036823
1.0037544
1.0038296
1.0039078
1.003989
1.0040731
1.0041601
1.0042499
1.0043426
1.004438
1.0045362
1.0046369
1.0047401
1.0048459
1.004954
1.0050644
1.005177
1.0052916
1.0054082
1.0055266
1.0056467
1.0057683
1.0058913
1.0060155
1.0061408
1.0062669
1.0063937
1.006521
1.0066485
1.006776
1.0069035
1.0070305
1.0071568
1.0072824
1.0074068
1.0075298
1.0076512
1.0077707
1.007888
1.0080029
1.0081151
1.0082241
1.00833
1.0084321
1.0085302
1.0086242
1.0087136
1.0087982
1.0088777
1.0089518
1.0090201
1.0090822
1.009138
1.0091871
1.009229
1.0092635
1.0092902
1.0093085
1.0093182
1.0093189
1.0093102
1.0092919
1.0092636
1.0092248
1.0091751
1.0091141
1.0090414
1.0089567
1.0088594
1.0087492
1.0086259
1.008489
1.0083381
1.0081729
1.0079932
1.0077987
1.0075891
1.007364
1.0071236
1.0068675
1.0065956
1.0063082
1.0060044
1.0056867
1.0053492
1.0050062
1.0029948
1.0029682
1.0029752
1.0029973
1.0030196
1.0030428
1.0030708
1.003103
1.0031387
1.0031778
1.0032206
1.0032667
1.0033163
1.0033692
1.0034254
1.0034849
1.0035476
1.0036135
1.0036825
1.0037546
1.0038297
1.0039079
1.0039891
1.0040731
1.0041601
1.0042499
1.0043426
1.0044379
1.004536
1.0046367
1.0047399
1.0048456
1.0049536
1.005064
1.0051764
1.005291
1.0054075
1.0055258
1.0056458
1.0057673
1.0058902
1.0060143
1.0061394
1.0062654
1.006392
1.0065191
1.0066464
1.0067737
1.0069009
1.0070276
1.0071537
1.0072789
1.007403
1.0075255
1.0076465
1.0077656
1.0078823
1.0079966
1.0081082
1.0082165
1.0083216
1.0084229
1.0085202
1.0086132
1.0087016
1.0087852
1.0088635
1.0089363
1.0090032
1.009064
1.0091184
1.0091659
1.0092062
1.0092391
1.0092641
1.0092807
1.0092886
1.0092875
1.0092771
1.009257
1.0092269
1.0091863
1.009135
1.0090725
1.0089984
1.0089124
1.008814
1.008703
1.008579
1.0084416
1.0082906
1.0081257
1.0079465
1.0077531
1.0075449
1.0073216
1.0070835
1.0068303
1.0065618
1.0062784
1.0059791
1.0056665
1.005335
1.0049983
1.0029947
1.0029685
1.0029757
1.0029977
1.0030201
1.0030432
1.0030713
1.0031035
1.0031391
1.0031782
1.0032209
1.0032671
1.0033166
1.0033695
1.0034257
1.0034852
1.0035479
1.0036137
1.0036827
1.0037547
1.0038298
1.003908
1.0039891
1.0040731
1.0041601
1.0042499
1.0043424
1.0044377
1.0045358
1.0046364
1.0047395
1.0048452
1.0049531
1.0050634
1.0051758
1.0052903
1.0054067
1.005525
1.0056448
1.0057662
1.005889
1.0060129
1.0061379
1.0062637
1.0063902
1.0065171
1.0066442
1.0067713
1.0068983
1.0070247
1.0071505
1.0072755
1.0073991
1.0075214
1.0076419
1.0077605
1.0078768
1.0079905
1.0081015
1.0082092
1.0083136
1.0084142
1.0085106
1.0086028
1.0086903
1.0087728
1.0088501
1.0089218
1.0089876
1.0090471
1.0091001
1.0091463
1.0091852
1.0092166
1.00924
1.0092551
1.0092614
1.0092588
1.0092468
1.0092251
1.0091935
1.0091515
1.0090988
1.0090349
1.0089596
1.0088725
1.0087733
1.0086615
1.008537
1.0083993
1.0082483
1.0080837
1.0079052
1.0077127
1.0075058
1.0072845
1.0070486
1.0067981
1.0065328
1.0062531
1.0059581
1.0056503
1.0053244
1.004993
1.0029947
1.0029689
1.0029762
1.0029981
1.0030204
1.0030436
1.0030716
1.0031038
1.0031394
1.0031785
1.0032212
1.0032674
1.0033169
1.0033698
1.0034259
1.0034854
1.003548
1.0036138
1.0036828
1.0037548
1.0038299
1.003908
1.0039891
1.0040731
1.00416
1.0042497
1.0043422
1.0044375
1.0045355
1.004636
1.0047391
1.0048447
1.0049526
1.0050628
1.0051751
1.0052895
1.0054058
1.005524
1.0056438
1.005765
1.0058877
1.0060115
1.0061363
1.006262
1.0063883
1.006515
1.006642
1.0067689
1.0068956
1.0070218
1.0071474
1.007272
1.0073953
1.0075172
1.0076374
1.0077556
1.0078714
1.0079847
1.0080951
1.0082022
1.008306
1.0084059
1.0085016
1.008593
1.0086797
1.0087613
1.0088376
1.0089083
1.008973
1.0090315
1.0090833
1.0091282
1.0091659
1.0091959
1.0092181
1.0092318
1.0092367
1.0092327
1.0092193
1.0091963
1.0091633
1.00912
1.0090661
1.0090011
1.0089247
1.0088367
1.0087367
1.0086244
1.0084994
1.0083617
1.0082108
1.0080465
1.0078687
1.0076771
1.0074716
1.007252
1.0070183
1.0067704
1.0065081
1.0062319
1.0059409
1.0056374
1.0053169
1.0049902
1.0029946
1.0029692
1.0029766
1.0029985
1.0030208
1.003044
1.003072
1.0031041
1.0031397
1.0031788
1.0032215
1.0032676
1.0033171
1.00337
1.0034261
1.0034855
1.0035482
1.0036139
1.0036828
1.0037549
1.0038299
1.003908
1.003989
1.004073
1.0041598
1.0042495
1.004342
1.0044372
1.0045351
1.0046356
1.0047386
1.0048441
1.004952
1.0050621
1.0051743
1.0052886
1.0054049
1.0055229
1.0056426
1.0057638
1.0058863
1.00601
1.0061347
1.0062603
1.0063864
1.0065129
1.0066397
1.0067664
1.0068929
1.0070189
1.0071442
1.0072685
1.0073916
1.0075131
1.007633
1.0077507
1.0078661
1.007979
1.0080889
1.0081955
1.0082987
1.008398
1.008493
1.0085838
1.0086697
1.0087505
1.008826
1.0088957
1.0089595
1.009017
1.0090677
1.0091116
1.0091481
1.009177
1.0091979
1.0092104
1.0092141
1.0092089
1.0091943
1.0091701
1.0091359
1.0090915
1.0090365
1.0089706
1.0088934
1.0088046
1.008704
1.0085912
1.008466
1.0083282
1.0081774
1.0080136
1.0078365
1.0076459
1.0074417
1.0072238
1.0069922
1.0067467
1.0064873
1.0062143
1.0059272
1.0056277
1.0053122
1.0049897
1.0029945
1.0029694
1.002977
1.0029988
1.0030211
1.0030443
1.0030723
1.0031045
1.00314
1.0031791
1.0032218
1.0032678
1.0033173
1.0033701
1.0034263
1.0034856
1.0035482
1.003614
1.0036829
1.0037549
1.0038299
1.0039079
1.0039889
1.0040728
1.0041596
1.0042493
1.0043417
1.0044368
1.0045347
1.0046352
1.0047381
1.0048435
1.0049513
1.0050613
1.0051735
1.0052877
1.0054039
1.0055218
1.0056414
1.0057624
1.0058849
1.0060084
1.006133
1.0062584
1.0063844
1.0065108
1.0066373
1.0067639
1.0068902
1.007016
1.007141
1.0072651
1.0073879
1.0075091
1.0076286
1.007746
1.0078611
1.0079735
1.0080829
1.008189
1.0082917
1.0083905
1.0084849
1.008575
1.0086603
1.0087404
1.0088151
1.008884
1.008947
1.0090035
1.0090534
1.0090962
1.0091318
1.0091596
1.0091795
1.0091909
1.0091936
1.0091873
1.0091716
1.0091463
1.0091112
1.0090658
1.0090099
1.0089432
1.0088653
1.0087759
1.0086748
1.0085617
1.0084363
1.0082985
1.008148
1.0079846
1.0078082
1.0076186
1.0074157
1.0071994
1.0069698
1.0067266
1.0064699
1.0062
1.0059164
1.0056207
1.0053099
1.0049914
1.0029944
1.0029697
1.0029774
1.0029992
1.0030214
1.0030446
1.0030726
1.0031047
1.0031403
1.0031793
1.003222
1.003268
1.0033175
1.0033703
1.0034264
1.0034857
1.0035483
1.003614
1.0036829
1.0037548
1.0038298
1.0039078
1.0039887
1.0040726
1.0041594
1.004249
1.0043413
1.0044364
1.0045343
1.0046346
1.0047375
1.0048429
1.0049506
1.0050605
1.0051726
1.0052867
1.0054028
1.0055206
1.0056401
1.0057611
1.0058834
1.0060068
1.0061312
1.0062565
1.0063824
1.0065086
1.006635
1.0067613
1.0068875
1.007013
1.0071378
1.0072617
1.0073842
1.0075052
1.0076244
1.0077415
1.0078561
1.0079682
1.0080772
1.0081829
1.0082851
1.0083833
1.0084773
1.0085668
1.0086514
1.0087309
1.0088049
1.0088731
1.0089353
1.0089911
1.0090401
1.0090821
1.0091167
1.0091437
1.0091626
1.0091731
1.0091749
1.0091676
1.009151
1.0091248
1.0090888
1.0090426
1.008986
1.0089186
1.0088401
1.0087502
1.0086488
1.0085354
1.00841
1.0082723
1.008122
1.0079592
1.0077835
1.0075949
1.0073932
1.0071786
1.0069508
1.0067098
1.0064556
1.0061886
1.0059084
1.0056162
1.0053097
1.0049954
1.0029942
1.0029699
1.0029777
1.0029995
1.0030217
1.0030449
1.0030729
1.003105
1.0031405
1.0031796
1.0032222
1.0032682
1.0033176
1.0033704
1.0034265
1.0034858
1.0035483
1.003614
1.0036828
1.0037548
1.0038297
1.0039076
1.0039885
1.0040724
1.0041591
1.0042486
1.004341
1.004436
1.0045338
1.0046341
1.0047369
1.0048422
1.0049498
1.0050596
1.0051717
1.0052857
1.0054017
1.0055194
1.0056388
1.0057596
1.0058818
1.0060051
1.0061295
1.0062546
1.0063803
1.0065064
1.0066326
1.0067588
1.0068847
1.0070101
1.0071347
1.0072583
1.0073806
1.0075013
1.0076202
1.007737
1.0078513
1.007963
1.0080717
1.008177
1.0082787
1.0083765
1.00847
1.008559
1.0086431
1.0087219
1.0087954
1.008863
1.0089245
1.0089795
1.0090278
1.009069
1.0091029
1.009129
1.0091472
1.0091569
1.0091578
1.0091497
1.0091324
1.0091054
1.0090687
1.0090218
1.0089645
1.0088966
1.0088176
1.0087273
1.0086256
1.0085122
1.0083867
1.0082492
1.0080993
1.007937
1.0077621
1.0075745
1.007374
1.0071608
1.0069348
1.0066959
1.0064442
1.0061799
1.0059028
1.005614
1.0053114
1.0050011
1.0029941
1.0029701
1.0029781
1.0029997
1.0030219
1.0030451
1.0030731
1.0031052
1.0031407
1.0031797
1.0032223
1.0032683
1.0033177
1.0033705
1.0034265
1.0034858
1.0035483
1.003614
1.0036828
1.0037547
1.0038296
1.0039075
1.0039883
1.0040721
1.0041588
1.0042483
1.0043405
1.0044355
1.0045332
1.0046335
1.0047362
1.0048414
1.004949
1.0050587
1.0051707
1.0052846
1.0054005
1.0055182
1.0056374
1.0057582
1.0058802
1.0060035
1.0061276
1.0062526
1.0063782
1.0065041
1.0066302
1.0067562
1.006882
1.0070072
1.0071316
1.007255
1.007377
1.0074975
1.0076162
1.0077326
1.0078467
1.0079581
1.0080664
1.0081713
1.0082727
1.00837
1.0084631
1.0085516
1.0086352
1.0087136
1.0087865
1.0088535
1.0089144
1.0089688
1.0090164
1.009057
1.0090902
1.0091156
1.0091331
1.0091421
1.0091423
1.0091335
1.0091155
1.0090879
1.0090505
1.0090031
1.0089453
1.0088769
1.0087975
1.0087069
1.0086051
1.0084916
1.0083662
1.0082289
1.0080794
1.0079177
1.0077436
1.0075569
1.0073577
1.007146
1.0069216
1.0066847
1.0064352
1.0061736
1.0058993
1.0056138
1.0053147
1.0050084
1.0029939
1.0029703
1.0029784
1.003
1.0030222
1.0030454
1.0030733
1.0031054
1.0031409
1.0031799
1.0032225
1.0032685
1.0033178
1.0033706
1.0034266
1.0034858
1.0035483
1.003614
1.0036827
1.0037545
1.0038294
1.0039073
1.0039881
1.0040718
1.0041584
1.0042479
1.0043401
1.004435
1.0045326
1.0046328
1.0047355
1.0048406
1.0049481
1.0050578
1.0051697
1.0052835
1.0053993
1.0055169
1.005636
1.0057567
1.0058786
1.0060017
1.0061258
1.0062507
1.0063761
1.0065019
1.0066278
1.0067537
1.0068793
1.0070043
1.0071285
1.0072517
1.0073735
1.0074938
1.0076122
1.0077284
1.0078422
1.0079533
1.0080613
1.0081659
1.0082669
1.0083639
1.0084565
1.0085446
1.0086278
1.0087057
1.0087781
1.0088446
1.008905
1.0089589
1.009006
1.0090459
1.0090785
1.0091034
1.0091202
1.0091286
1.0091282
1.0091188
1.0091002
1.0090721
1.0090342
1.0089863
1.008928
1.0088593
1.0087796
1.0086889
1.0085869
1.0084735
1.0083483
1.0082112
1.0080622
1.007901
1.0077277
1.007542
1.007344
1.0071336
1.0069109
1.0066759
1.0064286
1.0061693
1.0058979
1.0056153
1.0053196
1.0050169
1.0029937
1.0029705
1.0029787
1.0030002
1.0030224
1.0030456
1.0030735
1.0031056
1.003141
1.00318
1.0032226
1.0032685
1.0033179
1.0033706
1.0034266
1.0034858
1.0035483
1.0036139
1.0036826
1.0037544
1.0038292
1.003907
1.0039878
1.0040715
1.0041581
1.0042475
1.0043396
1.0044345
1.004532
1.0046322
1.0047348
1.0048398
1.0049472
1.0050569
1.0051686
1.0052824
1.0053981
1.0055156
1.0056346
1.0057552
1.005877
1.006
1.006124
1.0062487
1.006374
1.0064997
1.0066254
1.0067512
1.0068766
1.0070014
1.0071255
1.0072485
1.0073701
1.0074901
1.0076083
1.0077243
1.0078378
1.0079487
1.0080564
1.0081606
1.0082614
1.008358
1.0084503
1.008538
1.0086208
1.0086983
1.0087703
1.0088364
1.0088963
1.0089497
1.0089962
1.0090357
1.0090678
1.0090921
1.0091084
1.0091162
1.0091154
1.0091055
1.0090864
1.0090578
1.0090195
1.0089712
1.0089127
1.0088436
1.0087638
1.008673
1.008571
1.0084576
1.0083326
1.0081959
1.0080473
1.0078868
1.0077142
1.0075295
1.0073326
1.0071236
1.0069025
1.0066692
1.006424
1.006167
1.0058981
1.0056184
1.0053258
1.0050264
1.0029935
1.0029706
1.0029789
1.0030005
1.0030226
1.0030458
1.0030737
1.0031057
1.0031412
1.0031802
1.0032227
1.0032686
1.003318
1.0033706
1.0034266
1.0034858
1.0035482
1.0036138
1.0036825
1.0037542
1.003829
1.0039068
1.0039875
1.0040712
1.0041577
1.004247
1.0043391
1.0044339
1.0045314
1.0046315
1.004734
1.004839
1.0049463
1.0050559
1.0051676
1.0052813
1.0053969
1.0055142
1.0056332
1.0057536
1.0058754
1.0059983
1.0061221
1.0062467
1.0063719
1.0064974
1.0066231
1.0067487
1.0068739
1.0069986
1.0071225
1.0072453
1.0073667
1.0074866
1.0076046
1.0077203
1.0078336
1.0079442
1.0080516
1.0081556
1.0082561
1.0083524
1.0084444
1.0085318
1.0086142
1.0086914
1.008763
1.0088287
1.0088882
1.0089411
1.0089873
1.0090263
1.0090579
1.0090818
1.0090976
1.009105
1.0091037
1.0090934
1.0090739
1.009045
1.0090064
1.0089578
1.008899
1.0088297
1.0087498
1.0086589
1.008557
1.0084437
1.008319
1.0081827
1.0080346
1.0078747
1.0077029
1.0075191
1.0073234
1.0071157
1.0068961
1.0066645
1.0064213
1.0061664
1.0058999
1.0056229
1.0053332
1.0050368
1.0029933
1.0029708
1.0029792
1.0030007
1.0030227
1.0030459
1.0030739
1.0031059
1.0031413
1.0031803
1.0032228
1.0032687
1.003318
1.0033706
1.0034266
1.0034857
1.0035481
1.0036137
1.0036823
1.003754
1.0038288
1.0039065
1.0039872
1.0040708
1.0041573
1.0042466
1.0043386
1.0044334
1.0045308
1.0046308
1.0047333
1.0048382
1.0049454
1.0050549
1.0051665
1.0052801
1.0053956
1.0055129
1.0056318
1.0057521
1.0058738
1.0059965
1.0061203
1.0062448
1.0063698
1.0064952
1.0066207
1.0067462
1.0068713
1.0069958
1.0071195
1.0072422
1.0073634
1.0074831
1.0076009
1.0077164
1.0078295
1.0079399
1.0080471
1.0081509
1.008251
1.0083471
1.0084388
1.0085259
1.008608
1.0086848
1.0087561
1.0088214
1.0088806
1.0089332
1.008979
1.0090176
1.0090488
1.0090723
1.0090878
1.0090948
1.0090932
1.0090825
1.0090627
1.0090335
1.0089946
1.0089458
1.0088868
1.0088174
1.0087374
1.0086466
1.0085447
1.0084317
1.0083073
1.0081713
1.0080238
1.0078645
1.0076935
1.0075107
1.0073161
1.0071096
1.0068914
1.0066616
1.0064201
1.0061673
1.0059031
1.0056285
1.0053416
1.005048
1.0029931
1.0029709
1.0029794
1.0030008
1.0030229
1.0030461
1.003074
1.003106
1.0031414
1.0031804
1.0032228
1.0032687
1.003318
1.0033706
1.0034265
1.0034857
1.003548
1.0036135
1.0036822
1.0037539
1.0038285
1.0039062
1.0039869
1.0040704
1.0041569
1.0042461
1.0043381
1.0044328
1.0045302
1.0046301
1.0047325
1.0048373
1.0049445
1.0050539
1.0051654
1.005279
1.0053944
1.0055116
1.0056303
1.0057506
1.0058721
1.0059948
1.0061184
1.0062428
1.0063677
1.006493
1.0066184
1.0067437
1.0068687
1.006993
1.0071166
1.0072391
1.0073602
1.0074797
1.0075973
1.0077127
1.0078256
1.0079357
1.0080427
1.0081462
1.0082462
1.008342
1.0084334
1.0085203
1.0086021
1.0086787
1.0087497
1.0088147
1.0088736
1.0089258
1.0089713
1.0090096
1.0090405
1.0090637
1.0090788
1.0090855
1.0090836
1.0090727
1.0090526
1.0090231
1.0089841
1.0089351
1.008876
1.0088066
1.0087266
1.0086358
1.0085341
1.0084213
1.0082972
1.0081617
1.0080147
1.0078561
1.0076859
1.007504
1.0073105
1.0071053
1.0068885
1.0066602
1.0064205
1.0061696
1.0059076
1.0056353
1.0053511
1.0050599
1.0029929
1.002971
1.0029796
1.003001
1.003023
1.0030462
1.0030741
1.0031061
1.0031415
1.0031804
1.0032229
1.0032688
1.003318
1.0033706
1.0034265
1.0034856
1.0035479
1.0036134
1.003682
1.0037536
1.0038283
1.003906
1.0039866
1.0040701
1.0041564
1.0042456
1.0043376
1.0044322
1.0045295
1.0046294
1.0047317
1.0048365
1.0049436
1.0050529
1.0051643
1.0052778
1.0053931
1.0055102
1.0056289
1.0057491
1.0058705
1.0059931
1.0061166
1.0062408
1.0063657
1.0064908
1.0066161
1.0067413
1.0068661
1.0069903
1.0071138
1.0072361
1.0073571
1.0074764
1.0075939
1.007709
1.0078217
1.0079317
1.0080385
1.0081418
1.0082415
1.0083371
1.0084284
1.008515
1.0085966
1.0086729
1.0087436
1.0088084
1.008867
1.008919
1.0089642
1.0090022
1.0090328
1.0090557
1.0090706
1.0090771
1.0090749
1.0090638
1.0090435
1.0090139
1.0089747
1.0089256
1.0088665
1.008797
1.0087171
1.0086265
1.008525
1.0084124
1.0082887
1.0081537
1.0080072
1.0078493
1.0076799
1.0074989
1.0073064
1.0071024
1.0068869
1.0066601
1.0064221
1.0061731
1.0059131
1.005643
1.0053613
1.0050725
1.0029927
1.0029711
1.0029798
1.0030012
1.0030232
1.0030464
1.0030743
1.0031062
1.0031416
1.0031805
1.0032229
1.0032688
1.003318
1.0033706
1.0034264
1.0034855
1.0035478
1.0036133
1.0036818
1.0037534
1.003828
1.0039057
1.0039862
1.0040697
1.004156
1.0042451
1.004337
1.0044316
1.0045288
1.0046286
1.0047309
1.0048356
1.0049426
1.0050519
1.0051633
1.0052766
1.0053919
1.0055089
1.0056275
1.0057475
1.0058689
1.0059913
1.0061147
1.0062389
1.0063636
1.0064887
1.0066138
1.0067389
1.0068636
1.0069877
1.007111
1.0072332
1.007354
1.0074732
1.0075905
1.0077055
1.007818
1.0079278
1.0080344
1.0081376
1.0082371
1.0083325
1.0084236
1.00851
1.0085914
1.0086674
1.008738
1.0088025
1.0088609
1.0089127
1.0089576
1.0089954
1.0090258
1.0090485
1.0090631
1.0090694
1.009067
1.0090557
1.0090353
1.0090056
1.0089663
1.0089172
1.0088581
1.0087887
1.0087089
1.0086184
1.0085171
1.0084049
1.0082816
1.008147
1.0080012
1.0078439
1.0076753
1.0074952
1.0073037
1.0071009
1.0068867
1.0066613
1.0064249
1.0061776
1.0059196
1.0056515
1.0053722
1.0050856
1.0029924
1.0029712
1.00298
1.0030013
1.0030233
1.0030465
1.0030744
1.0031063
1.0031417
1.0031805
1.003223
1.0032688
1.003318
1.0033705
1.0034264
1.0034854
1.0035477
1.0036131
1.0036816
1.0037532
1.0038278
1.0039053
1.0039859
1.0040693
1.0041556
1.0042446
1.0043365
1.004431
1.0045282
1.0046279
1.0047301
1.0048348
1.0049417
1.0050509
1.0051622
1.0052755
1.0053906
1.0055075
1.005626
1.005746
1.0058673
1.0059896
1.0061129
1.006237
1.0063616
1.0064865
1.0066116
1.0067365
1.0068611
1.0069851
1.0071083
1.0072303
1.007351
1.00747
1.0075872
1.0077021
1.0078144
1.0079241
1.0080305
1.0081335
1.0082329
1.0083281
1.008419
1.0085052
1.0085864
1.0086623
1.0087326
1.008797
1.0088551
1.0089067
1.0089515
1.0089891
1.0090193
1.0090418
1.0090563
1.0090624
1.0090599
1.0090485
1.009028
1.0089982
1.0089589
1.0089098
1.0088507
1.0087814
1.0087017
1.0086115
1.0085105
1.0083986
1.0082757
1.0081416
1.0079964
1.0078398
1.0076719
1.0074928
1.0073023
1.0071005
1.0068876
1.0066636
1.0064287
1.0061831
1.0059269
1.0056608
1.0053837
1.0050991
1.0029922
1.0029713
1.0029802
1.0030015
1.0030234
1.0030466
1.0030745
1.0031064
1.0031417
1.0031806
1.003223
1.0032688
1.003318
1.0033705
1.0034263
1.0034853
1.0035476
1.0036129
1.0036814
1.003753
1.0038275
1.003905
1.0039855
1.0040689
1.0041551
1.0042441
1.0043359
1.0044304
1.0045275
1.0046272
1.0047293