/*--------------------------------*- C++ -*----------------------------------*\
| =========                 |                                                 |
| \\      /  F ield         | OpenFOAM: The Open Source CFD Toolbox           |
|  \\    /   O peration     | Version:  2406                                  |
|   \\  /    A nd           | Website:  www.openfoam.com                      |
|    \\/     M anipulation  |                                                 |
\*---------------------------------------------------------------------------*/
FoamFile
{
    version     2.0;
    format      ascii;
    arch        "LSB;label=32;scalar=64";
    class       volScalarField;
    location    "500";
    object      pPrime2Mean;
}
// * * * * * * * * * * * * * * * * * * * * * * * * * * * * * * * * * * * * * //

dimensions      [2 -2 -4 0 0 0 0];

internalField   nonuniform List<scalar> 
132739
(
6.1552339e-09
3.824207e-09
4.603983e-09
4.5602115e-09
4.9126334e-09
5.6093838e-09
6.2847916e-09
6.9818733e-09
7.794364e-09
8.7078083e-09
9.7091559e-09
1.0809615e-08
1.2020971e-08
1.3350527e-08
1.4802868e-08
1.6385304e-08
1.811099e-08
1.9996671e-08
2.2047347e-08
2.4274531e-08
2.6697624e-08
2.9329628e-08
3.2184712e-08
3.5284565e-08
3.8651388e-08
4.2295836e-08
4.6246539e-08
5.0519891e-08
5.5140842e-08
6.0154291e-08
6.5558624e-08
7.1410534e-08
7.7761997e-08
8.4605322e-08
9.2036684e-08
1.0004823e-07
1.0872261e-07
1.181486e-07
1.282766e-07
1.3925515e-07
1.5115912e-07
1.6399194e-07
1.7780348e-07
1.9272788e-07
2.0885945e-07
2.2614475e-07
2.4469839e-07
2.6468611e-07
2.8611982e-07
3.0911648e-07
3.3372478e-07
3.6009419e-07
3.8830107e-07
4.1816388e-07
4.5024111e-07
4.8440673e-07
5.2053448e-07
5.5878055e-07
5.9909839e-07
6.4184778e-07
6.8659768e-07
7.3317559e-07
7.8257209e-07
8.3492479e-07
8.8988049e-07
9.4778776e-07
1.0084637e-06
1.071672e-06
1.1376072e-06
1.2064964e-06
1.2783536e-06
1.3531033e-06
1.4307673e-06
1.5114452e-06
1.5949658e-06
1.68188e-06
1.7731893e-06
1.8694281e-06
1.9710822e-06
2.0788033e-06
2.1933173e-06
2.3151676e-06
2.4451137e-06
2.5840516e-06
2.7330079e-06
2.8934263e-06
3.0664847e-06
3.2529441e-06
3.4537098e-06
3.6700419e-06
3.9036102e-06
4.1562378e-06
4.4296258e-06
4.725559e-06
5.0451021e-06
5.3899045e-06
5.7614275e-06
6.16165e-06
6.5919882e-06
7.0549013e-06
7.5504149e-06
8.0741111e-06
8.6303478e-06
9.1736569e-06
6.18373e-09
3.8271297e-09
4.6107456e-09
4.5637263e-09
4.9158422e-09
5.612582e-09
6.2875978e-09
6.9842332e-09
7.7960995e-09
8.7088643e-09
9.7094033e-09
1.0808988e-08
1.2019219e-08
1.3347678e-08
1.4798515e-08
1.6379089e-08
1.8102804e-08
1.9986271e-08
2.2033933e-08
2.4257942e-08
2.6678169e-08
2.9306828e-08
3.2158786e-08
3.525373e-08
3.8616215e-08
4.225619e-08
4.6202002e-08
5.0472178e-08
5.5084726e-08
6.0092363e-08
6.5496046e-08
7.1341364e-08
7.7682186e-08
8.4519121e-08
9.1944329e-08
9.9951452e-08
1.0861092e-07
1.1802259e-07
1.2815702e-07
1.391226e-07
1.5099855e-07
1.6382414e-07
1.7761722e-07
1.9251575e-07
2.0862391e-07
2.259047e-07
2.4449124e-07
2.6447404e-07
2.85875e-07
3.0879236e-07
3.333235e-07
3.5975806e-07
3.8778763e-07
4.1783844e-07
4.495281e-07
4.8350929e-07
5.1908792e-07
5.5661253e-07
5.9664839e-07
6.3879419e-07
6.8374416e-07
7.3060655e-07
7.8010795e-07
8.320347e-07
8.8628445e-07
9.4325091e-07
1.0029506e-06
1.065323e-06
1.1304327e-06
1.1982665e-06
1.2689809e-06
1.3425063e-06
1.4186932e-06
1.4977098e-06
1.5793974e-06
1.6640994e-06
1.7527071e-06
1.8458038e-06
1.9441232e-06
2.0484821e-06
2.1596699e-06
2.2781246e-06
2.4043648e-06
2.5387801e-06
2.6815996e-06
2.8334988e-06
2.9954955e-06
3.1687508e-06
3.3544449e-06
3.5536715e-06
3.7678321e-06
3.9982276e-06
4.2463871e-06
4.51441e-06
4.8040295e-06
5.1169771e-06
5.4552448e-06
5.8214644e-06
6.2172035e-06
6.6452283e-06
7.1088259e-06
7.6098464e-06
8.1587148e-06
8.7559774e-06
6.2166978e-09
3.8306895e-09
4.6196913e-09
4.5678732e-09
4.9204294e-09
5.6185299e-09
6.2942287e-09
6.9917427e-09
7.8047406e-09
8.718636e-09
9.7206205e-09
1.0822007e-08
1.2034064e-08
1.3364553e-08
1.4817604e-08
1.6400815e-08
1.8127125e-08
2.0013552e-08
2.2064215e-08
2.4292074e-08
2.6717635e-08
2.9350471e-08
3.2208341e-08
3.5310201e-08
3.8680302e-08
4.232876e-08
4.6284479e-08
5.056833e-08
5.5191683e-08
6.0212863e-08
6.563663e-08
7.1504099e-08
7.7866387e-08
8.4729576e-08
9.2183587e-08
1.0022573e-07
1.089217e-07
1.1836834e-07
1.2855544e-07
1.3957522e-07
1.5150571e-07
1.6439721e-07
1.7825905e-07
1.932217e-07
2.0941986e-07
2.2682552e-07
2.4554541e-07
2.6567028e-07
2.8717823e-07
3.101934e-07
3.3476889e-07
3.611407e-07
3.8909006e-07
4.1905561e-07
4.5079305e-07
4.8463462e-07
5.2036654e-07
5.5821101e-07
5.9846872e-07
6.4092642e-07
6.8596696e-07
7.3328348e-07
7.831312e-07
8.3529214e-07
8.8976912e-07
9.4671582e-07
1.0063681e-06
1.0687435e-06
1.1338741e-06
1.2017946e-06
1.2725547e-06
1.3461234e-06
1.4224324e-06
1.5016478e-06
1.5837289e-06
1.669085e-06
1.7585833e-06
1.8526817e-06
1.9517533e-06
2.0564054e-06
2.1673956e-06
2.2852017e-06
2.4104823e-06
2.5439718e-06
2.6861775e-06
2.8376939e-06
2.9993592e-06
3.1719214e-06
3.3562526e-06
3.5536282e-06
3.7652785e-06
3.992286e-06
4.2363772e-06
4.4991677e-06
4.7823413e-06
5.0878483e-06
5.4176057e-06
5.7737204e-06
6.1584246e-06
6.5730355e-06
7.0218992e-06
7.5031308e-06
8.0361338e-06
8.5803716e-06
6.2477776e-09
3.8339791e-09
4.6254622e-09
4.5703026e-09
4.9239426e-09
5.6226772e-09
6.2980294e-09
6.9956403e-09
7.8087965e-09
8.7227077e-09
9.7246247e-09
1.0825908e-08
1.2038177e-08
1.3368643e-08
1.4821325e-08
1.6404595e-08
1.8130694e-08
2.001658e-08
2.2066668e-08
2.4293763e-08
2.6719633e-08
2.9352009e-08
3.2209398e-08
3.5311847e-08
3.8681818e-08
4.23308e-08
4.6285715e-08
5.0572301e-08
5.5197613e-08
6.0220221e-08
6.5648723e-08
7.1519801e-08
7.7886766e-08
8.4754463e-08
9.2215052e-08
1.0026784e-07
1.089712e-07
1.1842388e-07
1.2862675e-07
1.3966587e-07
1.5159205e-07
1.6449824e-07
1.7840237e-07
1.9336193e-07
2.0956432e-07
2.2698823e-07
2.4569846e-07
2.6582112e-07
2.8735451e-07
3.1046029e-07
3.3509084e-07
3.6153234e-07
3.8946005e-07
4.1932176e-07
4.5108125e-07
4.8475777e-07
5.2051508e-07
5.5830334e-07
5.9844169e-07
6.4075847e-07
6.8540596e-07
7.3258804e-07
7.8222344e-07
8.3423407e-07
8.885417e-07
9.4505311e-07
1.0043133e-06
1.0662509e-06
1.1308357e-06
1.19819e-06
1.2682386e-06
1.341012e-06
1.4165158e-06
1.4946878e-06
1.5755756e-06
1.6596567e-06
1.7477677e-06
1.8405291e-06
1.9385109e-06
2.0423755e-06
2.1528539e-06
2.2704631e-06
2.3956551e-06
2.5289656e-06
2.6709524e-06
2.8221446e-06
2.983344e-06
3.1553814e-06
3.3390609e-06
3.535506e-06
3.7459953e-06
3.971864e-06
4.2142358e-06
4.4745515e-06
4.7545434e-06
5.0557932e-06
5.3804396e-06
5.7305236e-06
6.1076108e-06
6.5131586e-06
6.9524849e-06
7.4186429e-06
7.9369514e-06
8.4473845e-06
6.2830576e-09
3.8371175e-09
4.6312914e-09
4.5728306e-09
4.9278648e-09
5.6271192e-09
6.3023713e-09
7.0005086e-09
7.8142917e-09
8.7286756e-09
9.7311126e-09
1.0833322e-08
1.2046522e-08
1.3377686e-08
1.4831179e-08
1.6415924e-08
1.8142918e-08
2.0029685e-08
2.2081151e-08
2.4309066e-08
2.6737424e-08
2.9371964e-08
3.2230737e-08
3.5336651e-08
3.870964e-08
4.2362014e-08
4.6322084e-08
5.0614821e-08
5.5245481e-08
6.027417e-08
6.5712501e-08
7.1594943e-08
7.7973712e-08
8.4853297e-08
9.2329858e-08
1.0040363e-07
1.0912498e-07
1.1859579e-07
1.2882453e-07
1.3990296e-07
1.518548e-07
1.6477378e-07
1.7873425e-07
1.9374214e-07
2.0996956e-07
2.2743927e-07
2.4619569e-07
2.6638354e-07
2.8797419e-07
3.1109052e-07
3.3576361e-07
3.6218217e-07
3.9018631e-07
4.2012409e-07
4.5193988e-07
4.856737e-07
5.2149613e-07
5.5931727e-07
5.9943813e-07
6.4175057e-07
6.8639486e-07
7.3358391e-07
7.8310829e-07
8.3492689e-07
8.891102e-07
9.4561695e-07
1.0047878e-06
1.0665661e-06
1.1309632e-06
1.1981214e-06
1.267969e-06
1.3405192e-06
1.4158385e-06
1.4938094e-06
1.5746122e-06
1.6588103e-06
1.747055e-06
1.8398582e-06
1.9376032e-06
2.0409743e-06
2.1504912e-06
2.2667417e-06
2.3903599e-06
2.5218708e-06
2.6620119e-06
2.81119e-06
2.9701715e-06
3.1398414e-06
3.3208494e-06
3.5141542e-06
3.7208712e-06
3.9424156e-06
4.1800572e-06
4.4348963e-06
4.7085334e-06
5.0027086e-06
5.3191344e-06
5.6596366e-06
6.0265548e-06
6.4207989e-06
6.8477846e-06
7.3008784e-06
7.8049069e-06
8.3063433e-06
6.3171066e-09
3.8402035e-09
4.6353115e-09
4.5745738e-09
4.9313067e-09
5.6307652e-09
6.3056969e-09
7.0041457e-09
7.818165e-09
8.7326124e-09
9.7351907e-09
1.0837714e-08
1.2051102e-08
1.3382318e-08
1.4835955e-08
1.6421297e-08
1.814795e-08
2.003426e-08
2.2086067e-08
2.4313531e-08
2.6742214e-08
2.9377217e-08
3.2235838e-08
3.5342226e-08
3.8716201e-08
4.2369266e-08
4.6330626e-08
5.0626314e-08
5.5259159e-08
6.0290104e-08
6.573357e-08
7.1620583e-08
7.800452e-08
8.4890862e-08
9.2375029e-08
1.0046254e-07
1.0919226e-07
1.1866983e-07
1.2891541e-07
1.4000814e-07
1.5197467e-07
1.649187e-07
1.7888911e-07
1.9391119e-07
2.1017549e-07
2.2766082e-07
2.4641628e-07
2.6663119e-07
2.8823908e-07
3.113636e-07
3.3608113e-07
3.6251548e-07
3.9056286e-07
4.2048731e-07
4.5230349e-07
4.8599415e-07
5.2178588e-07
5.5959037e-07
5.996604e-07
6.4190152e-07
6.8632927e-07
7.3332931e-07
7.8269702e-07
8.3431619e-07
8.8832201e-07
9.4465801e-07
1.0035205e-06
1.0649818e-06
1.1289948e-06
1.1956833e-06
1.2650546e-06
1.3370622e-06
1.4118005e-06
1.4891177e-06
1.5691738e-06
1.6525379e-06
1.7399117e-06
1.8318658e-06
1.928816e-06
2.0315814e-06
2.1406218e-06
2.2564686e-06
2.3796703e-06
2.5106729e-06
2.6502439e-06
2.7987303e-06
2.9567703e-06
3.1252824e-06
3.3049188e-06
3.4964289e-06
3.7008703e-06
3.9195378e-06
4.1536975e-06
4.4046211e-06
4.6735694e-06
4.9619381e-06
5.2718397e-06
5.6047036e-06
5.9629342e-06
6.3472089e-06
6.7630166e-06
7.2035266e-06
7.6920219e-06
8.1799143e-06
6.3540719e-09
3.8431183e-09
4.6390507e-09
4.57606e-09
4.9348006e-09
5.634309e-09
6.3087986e-09
7.0076469e-09
7.8220723e-09
8.7366945e-09
9.7394683e-09
1.0842481e-08
1.2056237e-08
1.3387745e-08
1.4841846e-08
1.642788e-08
1.815465e-08
2.0040955e-08
2.2093326e-08
2.4320822e-08
2.6750235e-08
2.9385755e-08
3.2245233e-08
3.5352597e-08
3.8727791e-08
4.2382968e-08
4.6346687e-08
5.0645317e-08
5.5279833e-08
6.0314281e-08
6.5764038e-08
7.165793e-08
7.8047589e-08
8.4942002e-08
9.2434511e-08
1.0053487e-07
1.0927661e-07
1.1876544e-07
1.2902728e-07
1.4014104e-07
1.5212255e-07
1.6507809e-07
1.7908169e-07
1.9412959e-07
2.1041255e-07
2.2791977e-07
2.4669785e-07
2.6694357e-07
2.8858188e-07
3.117107e-07
3.3646813e-07
3.6289748e-07
3.9095232e-07
4.2091055e-07
4.5273305e-07
4.86411e-07
5.2221591e-07
5.6001074e-07
5.9996972e-07
6.422083e-07
6.8662041e-07
7.3346328e-07
7.8269156e-07
8.3415539e-07
8.8800422e-07
9.4418912e-07
1.0028588e-06
1.0640814e-06
1.1278625e-06
1.1942561e-06
1.2633061e-06
1.3350066e-06
1.4094127e-06
1.4863939e-06
1.5661724e-06
1.6493625e-06
1.736549e-06
1.8282214e-06
1.9248336e-06
2.027063e-06
2.135287e-06
2.2501266e-06
2.3721975e-06
2.5019194e-06
2.6400164e-06
2.7870619e-06
2.9436203e-06
3.1104241e-06
3.2881801e-06
3.4777275e-06
3.6799591e-06
3.8959234e-06
4.1268693e-06
4.3740897e-06
4.6387059e-06
4.9223444e-06
5.226396e-06
5.5521908e-06
5.9029003e-06
6.2783512e-06
6.683855e-06
7.1131153e-06
7.5883106e-06
8.0623553e-06
6.3893173e-09
3.8455195e-09
4.641318e-09
4.5770692e-09
4.9380968e-09
5.6374603e-09
6.3113719e-09
7.0105812e-09
7.8252738e-09
8.7399294e-09
9.7426724e-09
1.0845906e-08
1.2059993e-08
1.3391421e-08
1.4845724e-08
1.6432158e-08
1.8158416e-08
2.0044072e-08
2.2096522e-08
2.4323938e-08
2.6753144e-08
2.9388412e-08
3.2248445e-08
3.5355819e-08
3.8730787e-08
4.2386926e-08
4.6351383e-08
5.0651745e-08
5.5286997e-08
6.0324099e-08
6.5777952e-08
7.1673637e-08
7.8066894e-08
8.4968837e-08
9.2467688e-08
1.0057351e-07
1.0932362e-07
1.1882434e-07
1.2909543e-07
1.4021962e-07
1.5221743e-07
1.6518218e-07
1.792023e-07
1.942655e-07
2.1055719e-07
2.2808422e-07
2.4687463e-07
2.6712815e-07
2.8878585e-07
3.1191958e-07
3.3669024e-07
3.6311793e-07
3.9118492e-07
4.2114196e-07
4.5295389e-07
4.8660942e-07
5.2238915e-07
5.6015553e-07
6.0002138e-07
6.4219636e-07
6.8649604e-07
7.33152e-07
7.822352e-07
8.3352245e-07
8.8717501e-07
9.4316572e-07
1.001611e-06
1.0625235e-06
1.1260259e-06
1.192079e-06
1.2606351e-06
1.3319205e-06
1.405894e-06
1.4823669e-06
1.5615999e-06
1.6442241e-06
1.7307801e-06
1.8218034e-06
1.9177717e-06
2.019418e-06
2.1270247e-06
2.2412302e-06
2.3626644e-06
2.4916208e-06
2.6287891e-06
2.7748163e-06
2.9301707e-06
3.0955073e-06
3.2716254e-06
3.4592772e-06
3.6593111e-06
3.8727136e-06
4.100634e-06
4.3442401e-06
4.6047369e-06
4.8836114e-06
5.1821162e-06
5.5018722e-06
5.845176e-06
6.2121013e-06
6.6081442e-06
7.0269015e-06
7.4899113e-06
7.9505795e-06
6.4250347e-09
3.8471442e-09
4.6430266e-09
4.5777857e-09
4.9412805e-09
5.6403306e-09
6.3136547e-09
7.0131989e-09
7.8281397e-09
8.7428107e-09
9.7454984e-09
1.0849087e-08
1.2063397e-08
1.3394645e-08
1.4849363e-08
1.6436046e-08
1.816192e-08
2.0047247e-08
2.2099471e-08
2.4326879e-08
2.675573e-08
2.939091e-08
3.2251115e-08
3.5358599e-08
3.8733589e-08
4.2390041e-08
4.6354752e-08
5.065712e-08
5.5294147e-08
6.0332345e-08
6.5789936e-08
7.1687819e-08
7.8084238e-08
8.4993455e-08
9.2497769e-08
1.0060907e-07
1.0936586e-07
1.1887707e-07
1.2915459e-07
1.4028775e-07
1.5230548e-07
1.6527759e-07
1.7931012e-07
1.9439258e-07
2.1068688e-07
2.2822704e-07
2.4703689e-07
2.6730205e-07
2.8896656e-07
3.1210376e-07
3.368913e-07
3.6331293e-07
3.9137834e-07
4.2132727e-07
4.5312727e-07
4.8675915e-07
5.2251027e-07
5.6024224e-07
6.0003613e-07
6.4214579e-07
6.8635559e-07
7.3287523e-07
7.8178548e-07
8.3292815e-07
8.8640109e-07
9.4220065e-07
1.0004255e-06
1.0610718e-06
1.1242987e-06
1.1900801e-06
1.2583544e-06
1.3292488e-06
1.4028302e-06
1.4789344e-06
1.5578294e-06
1.6401444e-06
1.726385e-06
1.8170443e-06
1.9125671e-06
2.0136842e-06
2.120574e-06
2.2340086e-06
2.3545765e-06
2.48241e-06
2.6184273e-06
2.7631817e-06
2.9171789e-06
3.0810583e-06
3.2554255e-06
3.4412106e-06
3.6391625e-06
3.8501441e-06
4.075262e-06
4.3155793e-06
4.5723686e-06
4.8469018e-06
5.14044e-06
5.4543561e-06
5.790839e-06
6.1501746e-06
6.537712e-06
6.9464409e-06
7.3984147e-06
7.8456672e-06
6.4583812e-09
3.8483488e-09
4.6436259e-09
4.5781641e-09
4.9443774e-09
5.6429306e-09
6.3155812e-09
7.0155006e-09
7.8305522e-09
8.7451528e-09
9.7477297e-09
1.0851627e-08
1.2066099e-08
1.339707e-08
1.4851853e-08
1.6438592e-08
1.816404e-08
2.004873e-08
2.2100446e-08
2.4327572e-08
2.6755611e-08
2.9390422e-08
3.2250695e-08
3.5357774e-08
3.873185e-08
4.2388359e-08
4.635344e-08
5.0656302e-08
5.529446e-08
6.0332477e-08
6.5792111e-08
7.1692245e-08
7.8089568e-08
8.5005062e-08
9.2510932e-08
1.0062622e-07
1.0939272e-07
1.1890858e-07
1.291922e-07
1.4033187e-07
1.5236313e-07
1.6533807e-07
1.7937756e-07
1.9447609e-07
2.1077199e-07
2.2832123e-07
2.4714247e-07
2.6739654e-07
2.8906555e-07
3.1222797e-07
3.3700356e-07
3.6339478e-07
3.9148532e-07
4.2142194e-07
4.5318145e-07
4.8679374e-07
5.2249982e-07
5.6017432e-07
5.9991459e-07
6.41925e-07
6.8599807e-07
7.3242901e-07
7.8116202e-07
8.3212136e-07
8.8542224e-07
9.4098225e-07
9.9901104e-07
1.0593633e-06
1.1222884e-06
1.1877714e-06
1.2556893e-06
1.3262308e-06
1.3994065e-06
1.4750824e-06
1.553555e-06
1.6353883e-06
1.7211213e-06
1.8112673e-06
1.9061991e-06
2.0068605e-06
2.1130224e-06
2.2255786e-06
2.3455683e-06
2.4726919e-06
2.6077441e-06
2.7513566e-06
2.904148e-06
3.0666095e-06
3.2393676e-06
3.4233744e-06
3.6192851e-06
3.8279551e-06
4.0504279e-06
4.2875925e-06
4.5408652e-06
4.8115381e-06
5.1004644e-06
5.4090916e-06
5.739642e-06
6.0918851e-06
6.4712409e-06
6.8707842e-06
7.3127078e-06
7.748007e-06
6.4901178e-09
3.8493499e-09
4.6436854e-09
4.5783708e-09
4.9473854e-09
5.6452241e-09
6.3171923e-09
7.0175128e-09
7.8326039e-09
8.7470817e-09
9.7495665e-09
1.0853715e-08
1.2068233e-08
1.3399009e-08
1.4853692e-08
1.64404e-08
1.8165529e-08
2.0049506e-08
2.2100775e-08
2.4327306e-08
2.6754639e-08
2.9388855e-08
3.2248649e-08
3.5355521e-08
3.8728671e-08
4.2384725e-08
4.6349941e-08
5.0652625e-08
5.5291059e-08
6.0329757e-08
6.5790725e-08
7.1691575e-08
7.8090181e-08
8.501002e-08
9.2517772e-08
1.00636e-07
1.0941088e-07
1.1892808e-07
1.2921513e-07
1.4036254e-07
1.5240307e-07
1.6538279e-07
1.7942845e-07
1.9453646e-07
2.1082768e-07
2.2838492e-07
2.4721778e-07
2.6746405e-07
2.8913317e-07
3.1230623e-07
3.3707837e-07
3.6343698e-07
3.9152351e-07
4.2145557e-07
4.531708e-07
4.8675447e-07
5.2242411e-07
5.6003049e-07
5.9972725e-07
6.4164433e-07
6.8556662e-07
7.3189692e-07
7.8046329e-07
8.3122725e-07
8.8437812e-07
9.3974513e-07
9.9760373e-07
1.0576377e-06
1.1202534e-06
1.1854967e-06
1.2530235e-06
1.3232728e-06
1.3961015e-06
1.4713994e-06
1.5495113e-06
1.6310192e-06
1.7163951e-06
1.8060702e-06
1.9005786e-06
2.000611e-06
2.1062576e-06
2.2182905e-06
2.3372626e-06
2.4634799e-06
2.5975205e-06
2.7399349e-06
2.891473e-06
3.052624e-06
3.2237942e-06
3.4059522e-06
3.5999197e-06
3.8062656e-06
4.0261939e-06
4.2604527e-06
4.5102813e-06
4.7771376e-06
5.061866e-06
5.3658476e-06
5.6907979e-06
6.0366846e-06
6.4087388e-06
6.8002127e-06
7.2321706e-06
7.6570918e-06
6.5201189e-09
3.8503296e-09
4.6428446e-09
4.5782711e-09
4.9502813e-09
5.6473337e-09
6.3185299e-09
7.0192661e-09
7.8343936e-09
8.7486316e-09
9.7510429e-09
1.0855354e-08
1.206982e-08
1.3400351e-08
1.485481e-08
1.6441503e-08
1.8166178e-08
2.0049142e-08
2.2099949e-08
2.4325673e-08
2.6751798e-08
2.9385293e-08
3.2244665e-08
3.5351122e-08
3.8723051e-08
4.2378234e-08
4.6343062e-08
5.0645247e-08
5.5283525e-08
6.0321715e-08
6.5783698e-08
7.1684835e-08
7.8083217e-08
8.5005809e-08
9.2514882e-08
1.006361e-07
1.0941587e-07
1.1893399e-07
1.2922507e-07
1.4037471e-07
1.5242055e-07
1.6540672e-07
1.7945256e-07
1.9456502e-07
2.1085531e-07
2.2841285e-07
2.4725154e-07
2.674885e-07
2.8915018e-07
3.1232088e-07
3.3708414e-07
3.6343047e-07
3.9150428e-07
4.214085e-07
4.5308977e-07
4.8663929e-07
5.2225533e-07
5.5980005e-07
5.9940055e-07
6.4123815e-07
6.8506911e-07
7.3127611e-07
7.7967735e-07
8.3023855e-07
8.83204e-07
9.3839955e-07
9.9597686e-07
1.0557807e-06
1.1181544e-06
1.1830597e-06
1.2503217e-06
1.320225e-06
1.3926589e-06
1.4675728e-06
1.5452874e-06
1.626418e-06
1.7114106e-06
1.8005959e-06
1.8945758e-06
1.9940385e-06
2.0991607e-06
2.2105138e-06
2.3286905e-06
2.4541152e-06
2.5872651e-06
2.7286023e-06
2.8789349e-06
3.0388167e-06
3.2085283e-06
3.3889573e-06
3.5810097e-06
3.7853045e-06
4.002737e-06
4.2340072e-06
4.4806429e-06
4.7440411e-06
5.0248198e-06
5.3242322e-06
5.6440037e-06
5.9843295e-06
6.3494194e-06
6.7336244e-06
7.1564172e-06
7.5738175e-06
6.5480235e-09
3.8516665e-09
4.6415343e-09
4.5779953e-09
4.9530646e-09
5.6492044e-09
6.3195689e-09
7.0207378e-09
7.8358453e-09
8.7498249e-09
9.7521724e-09
1.0856609e-08
1.2070945e-08
1.340126e-08
1.4855391e-08
1.6441746e-08
1.8166088e-08
2.0048164e-08
2.2098304e-08
2.4323128e-08
2.6747939e-08
2.9380803e-08
3.2239638e-08
3.5344914e-08
3.8715431e-08
4.237005e-08
4.6333923e-08
5.0634557e-08
5.527274e-08
6.0311072e-08
6.5772782e-08
7.167322e-08
7.8072358e-08
8.4996477e-08
9.2504123e-08
1.0062886e-07
1.0941024e-07
1.1892744e-07
1.2922573e-07
1.4037602e-07
1.5241921e-07
1.6541283e-07
1.7946102e-07
1.9457038e-07
2.1085926e-07
2.2841456e-07
2.4725451e-07
2.6748465e-07
2.8912894e-07
3.1230052e-07
3.3705121e-07
3.6336536e-07
3.9143028e-07
4.2131375e-07
4.5294956e-07
4.8645857e-07
5.2202735e-07
5.5950831e-07
5.990171e-07
6.407689e-07
6.844839e-07
7.3053567e-07
7.7880011e-07
8.2918615e-07
8.8199539e-07
9.3695016e-07
9.9429297e-07
1.053959e-06
1.1160454e-06
1.1806147e-06
1.2475648e-06
1.317126e-06
1.3892804e-06
1.4638629e-06
1.5411379e-06
1.6219446e-06
1.7066108e-06
1.7953415e-06
1.8888434e-06
1.9878375e-06
2.0924104e-06
2.2030876e-06
2.3205174e-06
2.4451252e-06
2.577348e-06
2.7176147e-06
2.8667552e-06
3.0254055e-06
3.1937071e-06
3.372497e-06
3.562743e-06
3.765016e-06
3.9802527e-06
4.2085927e-06
4.4520056e-06
4.7120793e-06
4.9890864e-06
5.2842471e-06
5.5992905e-06
5.9346151e-06
6.2933382e-06
6.671127e-06
7.0845967e-06
7.4972581e-06
6.5752419e-09
3.8530528e-09
4.6397184e-09
4.5776221e-09
4.9558029e-09
5.6509457e-09
6.3203998e-09
7.0219681e-09
7.8371045e-09
8.750745e-09
9.7530013e-09
1.0857485e-08
1.2071672e-08
1.3401697e-08
1.485543e-08
1.6441508e-08
1.8165441e-08
2.0046459e-08
2.209572e-08
2.4319522e-08
2.6743072e-08
2.9375127e-08
3.2232931e-08
3.5337096e-08
3.8705976e-08
4.2359593e-08
4.6323015e-08
5.0621811e-08
5.5258896e-08
6.0295945e-08
6.5757629e-08
7.1657959e-08
7.8055225e-08
8.4980949e-08
9.2487374e-08
1.0061327e-07
1.0939649e-07
1.1891183e-07
1.292136e-07
1.4036054e-07
1.52404e-07
1.6540262e-07
1.794468e-07
1.9455525e-07
2.1083959e-07
2.2838713e-07
2.4722824e-07
2.6744534e-07
2.890716e-07
3.1224489e-07
3.3697224e-07
3.6325596e-07
3.9131116e-07
4.211493e-07
4.5275219e-07
4.8622204e-07
5.2172011e-07
5.5913981e-07
5.985584e-07
6.4023144e-07
6.8383053e-07
7.2973255e-07
7.7788021e-07
8.2806593e-07
8.8069079e-07
9.3546919e-07
9.9255554e-07
1.0520211e-06
1.1137848e-06
1.1780869e-06
1.2448287e-06
1.314053e-06
1.3858096e-06
1.460066e-06
1.5370642e-06
1.6174735e-06
1.7017976e-06
1.790045e-06
1.8830215e-06
1.9815439e-06
2.0855669e-06
2.195665e-06
2.3123744e-06
2.4361627e-06
2.5675175e-06
2.706828e-06
2.854858e-06
3.0122521e-06
3.1792671e-06
3.3565325e-06
3.5450203e-06
3.7454045e-06
3.9582822e-06
4.1844023e-06
4.425161e-06
4.6817417e-06
4.95519e-06
5.2463193e-06
5.5567277e-06
5.8872901e-06
6.2402665e-06
6.612276e-06
7.0164458e-06
7.4280192e-06
6.6013273e-09
3.8539405e-09
4.6370576e-09
4.5769939e-09
4.9583582e-09
5.6524425e-09
6.3210222e-09
7.0229675e-09
7.8381144e-09
8.7513881e-09
9.7535584e-09
1.0858017e-08
1.2071976e-08
1.3401776e-08
1.4855025e-08
1.6440661e-08
1.8164153e-08
2.0044167e-08
2.2092277e-08
2.4315225e-08
2.6737616e-08
2.9368559e-08
3.2225095e-08
3.5327945e-08
3.8695142e-08
4.2347595e-08
4.6309771e-08
5.0606614e-08
5.5242986e-08
6.0278743e-08
6.5739488e-08
7.1638577e-08
7.8034385e-08
8.4959462e-08
9.2465545e-08
1.0059202e-07
1.0937323e-07
1.1888842e-07
1.2919239e-07
1.4033383e-07
1.5237655e-07
1.6537941e-07
1.7941376e-07
1.9451525e-07
2.1080178e-07
2.2833995e-07
2.4717528e-07
2.6737933e-07
2.8898691e-07
3.1214844e-07
3.3685118e-07
3.6311677e-07
3.9115356e-07
4.2093702e-07
4.5250214e-07
4.8593615e-07
5.2136448e-07
5.5872381e-07
5.9805191e-07
6.3962266e-07
6.8311771e-07
7.288678e-07
7.7687445e-07
8.2691252e-07
8.7932282e-07
9.3392459e-07
9.908018e-07
1.0500429e-06
1.1115615e-06
1.1755653e-06
1.2420342e-06
1.3109414e-06
1.3823852e-06
1.4563468e-06
1.5330177e-06
1.6130696e-06
1.6970201e-06
1.7848976e-06
1.8774639e-06
1.9754344e-06
2.0789321e-06
2.188417e-06
2.3044438e-06
2.4274637e-06
2.557949e-06
2.6963561e-06
2.8432971e-06
2.9994589e-06
3.1652534e-06
3.3410949e-06
3.5279751e-06
3.7264917e-06
3.9373745e-06
4.1613594e-06
4.3994233e-06
4.6530033e-06
4.9231092e-06
5.2105608e-06
5.5166023e-06
5.8426288e-06
6.1899638e-06
6.5570897e-06
6.9522048e-06
7.3641408e-06
6.6278236e-09
3.8547601e-09
4.6341491e-09
4.5764004e-09
4.9609072e-09
5.6538054e-09
6.3215204e-09
7.0237822e-09
7.838892e-09
8.7518268e-09
9.7538591e-09
1.0858229e-08
1.2071968e-08
1.3401517e-08
1.4854226e-08
1.6439378e-08
1.8162318e-08
2.0041365e-08
2.2088366e-08
2.4310057e-08
2.6731262e-08
2.9361125e-08
3.2216103e-08
3.5317644e-08
3.8683089e-08
4.2334008e-08
4.6295136e-08
5.0589944e-08
5.5224634e-08
6.0258627e-08
6.5718338e-08
7.1615268e-08
7.8009543e-08
8.4934571e-08
9.2437685e-08
1.0056483e-07
1.0934461e-07
1.1885517e-07
1.2916056e-07
1.4029799e-07
1.5233734e-07
1.653402e-07
1.7936666e-07
1.9446174e-07
2.1074486e-07
2.282688e-07
2.4709253e-07
2.6728832e-07
2.8887725e-07
3.1202195e-07
3.3669974e-07
3.6293841e-07
3.90946e-07
4.2068426e-07
4.5220834e-07
4.8560469e-07
5.2095214e-07
5.5823124e-07
5.9750978e-07
6.389684e-07
6.8233998e-07
7.2795872e-07
7.7583449e-07
8.2571669e-07
8.7791758e-07
9.3233314e-07
9.890042e-07
1.0480166e-06
1.1092828e-06
1.1730259e-06
1.2392421e-06
1.3078242e-06
1.3789808e-06
1.4526433e-06
1.5289786e-06
1.6087043e-06
1.6922847e-06
1.7798239e-06
1.8719543e-06
1.9693983e-06
2.0723885e-06
2.1812817e-06
2.2966409e-06
2.4189116e-06
2.5485884e-06
2.6861145e-06
2.8320182e-06
2.9869873e-06
3.1515815e-06
3.32611e-06
3.5114954e-06
3.7082804e-06
3.9172693e-06
4.1392561e-06
4.3749586e-06
4.625658e-06
4.8926634e-06
5.1767711e-06
5.4786927e-06
5.8004594e-06
6.1427103e-06
6.5054369e-06
6.8916715e-06
7.3045064e-06
6.6532455e-09
3.8554862e-09
4.6306345e-09
4.5756547e-09
4.9633091e-09
5.6549712e-09
6.3218384e-09
7.0244062e-09
7.8394582e-09
8.7520644e-09
9.7539414e-09
1.0858151e-08
1.2071673e-08
1.3400954e-08
1.48531e-08
1.6437707e-08
1.8160031e-08
2.0037929e-08
2.2083879e-08
2.4304468e-08
2.6724225e-08
2.9352984e-08
3.2206337e-08
3.5306307e-08
3.8670034e-08
4.2319074e-08
4.6278891e-08
5.0571429e-08
5.520435e-08
6.023702e-08
6.5694841e-08
7.1589191e-08
7.7982078e-08
8.4905927e-08
9.2404907e-08
1.0053102e-07
1.0930926e-07
1.1881681e-07
1.2912167e-07
1.4025091e-07
1.5228701e-07
1.6528841e-07
1.793055e-07
1.9439406e-07
2.1066928e-07
2.2818145e-07
2.4699246e-07
2.6717142e-07
2.8874189e-07
3.1186594e-07
3.3651717e-07
3.6273147e-07
3.9070253e-07
4.2039688e-07
4.5187885e-07
4.852228e-07
5.2051624e-07
5.5770426e-07
5.9689178e-07
6.3827961e-07
6.8152986e-07
7.2699312e-07
7.7474358e-07
8.2445968e-07
8.7648105e-07
9.3072902e-07
9.8719395e-07
1.0459741e-06
1.1069845e-06
1.1704951e-06
1.2364494e-06
1.3047332e-06
1.3756009e-06
1.4489722e-06
1.5249962e-06
1.6044123e-06
1.6876453e-06
1.7748048e-06
1.8665388e-06
1.9635337e-06
2.0659937e-06
2.1743108e-06
2.2890667e-06
2.4106125e-06
2.5394642e-06
2.6761178e-06
2.8210368e-06
2.9749125e-06
3.1383496e-06
3.3116086e-06
3.495569e-06
3.690749e-06
3.8979225e-06
4.1179674e-06
4.3515824e-06
4.5997068e-06
4.8637917e-06
5.1448656e-06
5.4430797e-06
5.7608654e-06
6.0983413e-06
6.4570067e-06
6.835097e-06
7.2467924e-06
6.6790857e-09
3.8562442e-09
4.6268287e-09
4.5748898e-09
4.9656577e-09
5.655997e-09
6.3220194e-09
7.0248913e-09
7.8398641e-09
8.7521133e-09
9.7537605e-09
1.085786e-08
1.2071187e-08
1.3400054e-08
1.4851601e-08
1.6435687e-08
1.8157347e-08
2.0034151e-08
2.2078998e-08
2.4298268e-08
2.6716564e-08
2.934426e-08
3.2195971e-08
3.5294018e-08
3.8655939e-08
4.2303003e-08
4.6261476e-08
5.0551646e-08
5.5182564e-08
6.0213595e-08
6.5668397e-08
7.1560677e-08
7.7952159e-08
8.4873617e-08
9.2368827e-08
1.0049296e-07
1.0926859e-07
1.1877148e-07
1.2907437e-07
1.4019745e-07
1.5222611e-07
1.6522305e-07
1.7923277e-07
1.9431384e-07
2.1057652e-07
2.280754e-07
2.4687628e-07
2.6703482e-07
2.8858093e-07
3.1168585e-07
3.3631065e-07
3.6249279e-07
3.904269e-07
4.2007629e-07
4.5151903e-07
4.848037e-07
5.2002438e-07
5.5715006e-07
5.9624689e-07
6.3753246e-07
6.8068678e-07
7.2600807e-07
7.7361279e-07
8.2318453e-07
8.7501376e-07
9.2909039e-07
9.8535657e-07
1.0439119e-06
1.1047003e-06
1.1679516e-06
1.2336489e-06
1.3016654e-06
1.3722608e-06
1.4453319e-06
1.5210674e-06
1.6001931e-06
1.683082e-06
1.7698901e-06
1.8612004e-06
1.9577535e-06
2.059718e-06
2.1674849e-06
2.2816402e-06
2.4024828e-06
2.5306075e-06
2.6664463e-06
2.810398e-06
2.9631753e-06
3.1254719e-06
3.2975002e-06
3.4801452e-06
3.6738583e-06
3.8793448e-06
4.0976071e-06
4.3292695e-06
4.5748936e-06
4.8362081e-06
5.1144125e-06
5.4093449e-06
5.7234503e-06
6.0563811e-06
6.4110402e-06
6.7824394e-06
7.1905461e-06
6.7041552e-09
3.8568999e-09
4.622642e-09
4.5740867e-09
4.9679119e-09
5.6568974e-09
6.3220846e-09
7.0252106e-09
7.8401059e-09
8.7520124e-09
9.7534341e-09
1.0857348e-08
1.2070447e-08
1.3398914e-08
1.4849868e-08
1.6433372e-08
1.8154235e-08
2.0030008e-08
2.2073716e-08
2.4291607e-08
2.6708561e-08
2.9334935e-08
3.2184998e-08
3.5281109e-08
3.8640869e-08
4.2286199e-08
4.6242719e-08
5.0530549e-08
5.5160012e-08
6.0188202e-08
6.5640303e-08
7.1530871e-08
7.7918922e-08
8.4838612e-08
9.2329832e-08
1.0044994e-07
1.0922334e-07
1.1872015e-07
1.2902021e-07
1.4013753e-07
1.5215729e-07
1.6514733e-07
1.7915077e-07
1.9422032e-07
2.1046859e-07
2.2795674e-07
2.4674055e-07
2.6687814e-07
2.8840491e-07
3.1148286e-07
3.3607917e-07
3.6222863e-07
3.9012216e-07
4.1973142e-07
4.5112261e-07
4.8435674e-07
5.1951029e-07
5.565467e-07
5.9557289e-07
6.3675335e-07
6.7979318e-07
7.2501322e-07
7.7246603e-07
8.2186865e-07
8.7352995e-07
9.2744198e-07
9.8349719e-07
1.041837e-06
1.1024333e-06
1.1654276e-06
1.2308691e-06
1.2986292e-06
1.3689682e-06
1.4417462e-06
1.5171883e-06
1.596024e-06
1.6785942e-06
1.7650935e-06
1.8560015e-06
1.9521018e-06
2.0535859e-06
2.1608255e-06
2.2743976e-06
2.3945689e-06
2.5219473e-06
2.6570057e-06
2.8000686e-06
2.9518254e-06
3.1130365e-06
3.2838954e-06
3.4652725e-06
3.657539e-06
3.8614234e-06
4.0779461e-06
4.3076174e-06
4.5511801e-06
4.8102538e-06
5.0855772e-06
5.3773506e-06
5.6879881e-06
6.0167495e-06
6.3676584e-06
6.7335209e-06
7.1358358e-06
6.729008e-09
3.8573327e-09
4.6181596e-09
4.5732598e-09
4.9700766e-09
5.6576572e-09
6.3220233e-09
7.0254103e-09
7.8402069e-09
8.7517202e-09
9.7529675e-09
1.0856706e-08
1.2069508e-08
1.3397534e-08
1.4847899e-08
1.6430772e-08
1.815074e-08
2.0025592e-08
2.2068131e-08
2.4284593e-08
2.6700119e-08
2.9325052e-08
3.2173433e-08
3.5267593e-08
3.8625349e-08
4.2268755e-08
4.6223178e-08
5.0508189e-08
5.5136128e-08
6.016178e-08
6.5610363e-08
7.1499202e-08
7.7883859e-08
8.4800951e-08
9.2288089e-08
1.0040275e-07
1.091735e-07
1.1866557e-07
1.2895965e-07
1.400695e-07
1.5208204e-07
1.6506122e-07
1.7905785e-07
1.9412012e-07
2.1034801e-07
2.2782509e-07
2.4658981e-07
2.6670017e-07
2.882131e-07
3.1126511e-07
3.3582668e-07
3.6193955e-07
3.8979718e-07
4.1936172e-07
4.5069586e-07
4.8388128e-07
5.1896991e-07
5.559208e-07
5.9486463e-07
6.3594725e-07
6.78879e-07
7.2397358e-07
7.7128551e-07
8.2055152e-07
8.7204946e-07
9.2577412e-07
9.8163333e-07
1.0397758e-06
1.1001637e-06
1.1629211e-06
1.2281006e-06
1.2956305e-06
1.3657015e-06
1.4382004e-06
1.5134115e-06
1.5919467e-06
1.6741904e-06
1.7603719e-06
1.8509079e-06
1.946576e-06
2.0475925e-06
2.1543407e-06
2.2673305e-06
2.3868439e-06
2.5135429e-06
2.6478552e-06
2.7900374e-06
2.9408273e-06
3.100987e-06
3.2707049e-06
3.4509072e-06
3.6418028e-06
3.8442132e-06
4.059034e-06
4.2869e-06
4.5285517e-06
4.7852714e-06
5.0580396e-06
5.3470013e-06
5.6543918e-06
5.979445e-06
6.3264945e-06
6.687558e-06
7.0836953e-06
6.7531043e-09
3.8576546e-09
4.6134436e-09
4.5724307e-09
4.97218e-09
5.6583245e-09
6.3218948e-09
7.0255091e-09
7.8401872e-09
8.7513097e-09
9.7523578e-09
1.0855851e-08
1.2068389e-08
1.3396011e-08