/*--------------------------------*- C++ -*----------------------------------*\
| =========                 |                                                 |
| \\      /  F ield         | OpenFOAM: The Open Source CFD Toolbox           |
|  \\    /   O peration     | Version:  2406                                  |
|   \\  /    A nd           | Website:  www.openfoam.com                      |
|    \\/     M anipulation  |                                                 |
\*---------------------------------------------------------------------------*/
FoamFile
{
    version     2.0;
    format      ascii;
    arch        "LSB;label=32;scalar=64";
    class       volScalarField;
    location    "500";
    object      rho;
}
// * * * * * * * * * * * * * * * * * * * * * * * * * * * * * * * * * * * * * //

dimensions      [1 -3 0 0 0 0 0];

internalField   nonuniform List<scalar> 
132739
(
1.0022157
1.0022283
1.0022456
1.0022632
1.0022843
1.002309
1.0023365
1.0023668
1.0024001
1.0024361
1.0024749
1.0025163
1.0025605
1.0026072
1.0026565
1.0027085
1.002763
1.0028201
1.0028794
1.0029412
1.0030058
1.0030725
1.0031419
1.0032136
1.0032877
1.0033643
1.0034431
1.0035246
1.0036082
1.0036941
1.0037825
1.0038727
1.0039653
1.0040602
1.0041568
1.0042558
1.0043564
1.004459
1.0045634
1.0046696
1.0047771
1.0048863
1.0049971
1.0051093
1.0052223
1.0053371
1.0054527
1.005569
1.0056862
1.0058043
1.0059228
1.0060416
1.0061606
1.0062795
1.0063988
1.0065179
1.0066366
1.0067555
1.0068725
1.0069895
1.0071053
1.0072198
1.0073328
1.007445
1.0075556
1.0076646
1.0077717
1.0078762
1.007978
1.0080775
1.0081736
1.0082663
1.0083558
1.0084411
1.0085224
1.0085986
1.0086705
1.0087369
1.0087972
1.0088492
1.0088992
1.0089427
1.0089784
1.0090075
1.009029
1.0090416
1.0090447
1.0090372
1.0090186
1.0089875
1.008944
1.0088885
1.0088213
1.0087426
1.0086522
1.0085499
1.0084352
1.0083046
1.0081569
1.0079906
1.007813
1.0076202
1.0074315
1.0072328
1.0022161
1.0022291
1.0022465
1.0022642
1.0022853
1.00231
1.0023374
1.0023677
1.0024009
1.002437
1.0024757
1.0025171
1.0025612
1.0026078
1.0026571
1.0027091
1.0027633
1.0028201
1.0028794
1.0029412
1.0030055
1.0030721
1.0031412
1.003213
1.0032868
1.0033633
1.0034419
1.003523
1.0036065
1.0036923
1.0037802
1.0038705
1.0039628
1.0040574
1.0041536
1.0042521
1.0043526
1.0044546
1.0045587
1.0046643
1.0047718
1.0048803
1.0049911
1.0051029
1.0052158
1.0053297
1.0054449
1.0055605
1.0056772
1.0057945
1.0059125
1.0060303
1.0061484
1.0062669
1.0063852
1.0065033
1.0066208
1.006738
1.0068543
1.0069698
1.0070845
1.0071979
1.0073097
1.0074199
1.0075284
1.0076348
1.0077394
1.007842
1.0079416
1.0080391
1.0081324
1.0082227
1.0083095
1.0083916
1.0084697
1.0085425
1.0086091
1.0086697
1.0087248
1.0087756
1.0088223
1.0088645
1.0089014
1.0089305
1.0089526
1.0089672
1.0089737
1.0089707
1.0089593
1.0089385
1.0089073
1.0088644
1.0088094
1.0087431
1.0086653
1.0085762
1.0084766
1.0083652
1.0082423
1.0081044
1.0079542
1.0077854
1.0076074
1.0074255
1.0022164
1.00223
1.0022477
1.0022653
1.0022865
1.0023112
1.0023387
1.0023691
1.0024024
1.0024385
1.0024772
1.0025187
1.0025628
1.0026094
1.0026587
1.0027106
1.002765
1.0028218
1.0028813
1.002943
1.0030075
1.0030743
1.0031435
1.0032153
1.0032894
1.003366
1.0034449
1.0035262
1.00361
1.0036958
1.003784
1.0038742
1.0039668
1.0040613
1.0041579
1.0042565
1.0043573
1.0044596
1.0045638
1.0046696
1.004777
1.0048862
1.0049968
1.005109
1.0052219
1.0053361
1.0054514
1.005567
1.005684
1.0058011
1.0059186
1.0060367
1.0061547
1.0062727
1.0063908
1.0065082
1.0066251
1.0067414
1.006857
1.0069713
1.0070849
1.0071971
1.0073074
1.0074162
1.0075231
1.0076277
1.0077301
1.0078304
1.0079274
1.0080218
1.0081124
1.0081998
1.0082834
1.0083625
1.0084374
1.0085073
1.0085717
1.0086296
1.0086817
1.0087284
1.0087701
1.0088067
1.0088374
1.0088617
1.0088794
1.0088897
1.0088915
1.0088853
1.0088679
1.0088412
1.008803
1.0087584
1.0087027
1.0086351
1.0085558
1.0084646
1.008362
1.0082482
1.0081242
1.0079882
1.0078426
1.0076829
1.0075118
1.0073563
1.0022167
1.0022308
1.0022485
1.002266
1.0022872
1.0023119
1.0023395
1.0023697
1.0024031
1.0024392
1.0024782
1.0025198
1.0025638
1.0026105
1.0026598
1.0027117
1.002766
1.0028229
1.0028823
1.0029441
1.0030084
1.0030752
1.0031444
1.0032161
1.0032901
1.0033666
1.0034456
1.0035267
1.0036103
1.0036961
1.0037841
1.0038744
1.0039666
1.0040613
1.0041578
1.0042563
1.004357
1.0044593
1.0045633
1.0046694
1.0047767
1.0048858
1.0049965
1.0051081
1.0052213
1.0053351
1.0054501
1.0055659
1.0056821
1.0057991
1.0059161
1.0060335
1.0061513
1.0062681
1.0063852
1.0065012
1.0066173
1.0067329
1.0068472
1.0069605
1.0070728
1.0071838
1.0072928
1.0074002
1.0075056
1.0076084
1.0077086
1.0078065
1.0079016
1.0079931
1.0080813
1.0081658
1.008246
1.0083223
1.0083944
1.0084611
1.0085224
1.0085768
1.008626
1.0086713
1.0087108
1.0087456
1.0087749
1.0087974
1.0088131
1.0088211
1.0088213
1.0088125
1.0087952
1.008768
1.0087326
1.0086825
1.0086244
1.0085569
1.0084782
1.0083877
1.0082864
1.0081737
1.008051
1.0079168
1.0077731
1.0076169
1.0074522
1.0072859
1.0022169
1.0022315
1.0022494
1.0022669
1.002288
1.0023127
1.0023402
1.0023706
1.0024039
1.00244
1.0024788
1.0025202
1.0025643
1.0026111
1.0026604
1.0027125
1.002767
1.002824
1.0028834
1.0029453
1.0030096
1.0030764
1.0031458
1.0032175
1.0032917
1.0033684
1.0034475
1.0035287
1.0036124
1.0036981
1.0037863
1.0038766
1.0039691
1.0040638
1.0041604
1.0042589
1.0043595
1.0044617
1.004566
1.0046718
1.0047795
1.0048886
1.0049987
1.0051103
1.0052232
1.0053372
1.0054516
1.0055673
1.0056833
1.0058
1.0059165
1.0060339
1.0061511
1.0062675
1.0063843
1.0065001
1.0066157
1.0067304
1.0068439
1.0069565
1.0070677
1.0071773
1.0072852
1.007391
1.0074947
1.0075958
1.0076943
1.0077902
1.007883
1.0079722
1.0080581
1.0081402
1.008218
1.0082918
1.008361
1.0084255
1.0084842
1.0085362
1.0085836
1.0086259
1.0086631
1.0086947
1.0087208
1.0087404
1.0087531
1.0087597
1.0087572
1.0087466
1.0087275
1.0087
1.0086613
1.0086143
1.0085558
1.0084862
1.0084065
1.008316
1.0082169
1.0081093
1.0079916
1.0078621
1.0077239
1.0075722
1.0074159
1.007253
1.0022171
1.0022322
1.0022502
1.0022679
1.0022892
1.0023141
1.0023416
1.0023721
1.0024054
1.0024414
1.0024802
1.0025217
1.0025657
1.0026125
1.0026617
1.0027136
1.002768
1.0028248
1.0028843
1.0029463
1.0030106
1.0030775
1.003147
1.0032186
1.0032928
1.0033694
1.0034483
1.0035294
1.0036129
1.0036988
1.0037869
1.0038773
1.0039696
1.0040643
1.0041609
1.0042593
1.0043599
1.0044623
1.0045665
1.0046721
1.0047795
1.0048884
1.0049987
1.0051101
1.0052225
1.0053364
1.0054507
1.005566
1.005682
1.0057983
1.0059149
1.0060316
1.0061483
1.0062645
1.006381
1.0064962
1.0066112
1.0067249
1.006838
1.0069498
1.0070602
1.0071687
1.0072751
1.0073798
1.0074817
1.0075814
1.0076781
1.0077722
1.0078629
1.0079502
1.0080337
1.0081134
1.0081885
1.0082596
1.0083258
1.0083865
1.0084424
1.0084917
1.0085363
1.0085765
1.0086111
1.0086407
1.0086648
1.0086823
1.0086928
1.0086967
1.0086936
1.0086838
1.008664
1.0086355
1.0085981
1.0085518
1.0084953
1.0084287
1.0083519
1.0082645
1.0081639
1.0080522
1.0079296
1.0078034
1.0076714
1.0075215
1.0073723
1.007215
1.0022171
1.002233
1.0022511
1.0022686
1.00229
1.0023149
1.0023424
1.0023729
1.0024062
1.0024423
1.002481
1.0025225
1.0025667
1.0026133
1.0026627
1.0027145
1.002769
1.0028258
1.0028853
1.0029473
1.0030117
1.0030786
1.0031479
1.0032197
1.0032937
1.0033703
1.0034492
1.0035304
1.0036142
1.0036999
1.0037881
1.0038781
1.0039708
1.0040653
1.0041621
1.0042605
1.0043611
1.0044635
1.0045677
1.0046732
1.0047808
1.0048897
1.0049996
1.0051109
1.0052234
1.0053369
1.0054516
1.0055664
1.0056825
1.0057985
1.0059147
1.006031
1.0061474
1.0062635
1.006379
1.0064942
1.0066084
1.0067218
1.0068339
1.0069445
1.0070536
1.0071609
1.0072664
1.0073697
1.0074702
1.0075684
1.0076634
1.0077557
1.0078449
1.0079299
1.0080118
1.0080896
1.0081629
1.0082318
1.008296
1.0083547
1.0084083
1.0084559
1.0084983
1.0085359
1.0085677
1.0085945
1.0086161
1.0086314
1.00864
1.0086418
1.0086364
1.0086231
1.0086031
1.0085754
1.0085372
1.0084899
1.0084331
1.0083674
1.0082918
1.008206
1.0081115
1.0080055
1.0078914
1.007758
1.0076263
1.0074792
1.0073348
1.0071792
1.0022172
1.0022336
1.0022518
1.0022694
1.0022908
1.0023157
1.0023433
1.0023737
1.002407
1.002443
1.0024818
1.0025234
1.0025675
1.0026143
1.0026637
1.0027155
1.00277
1.0028269
1.0028863
1.0029483
1.0030125
1.0030795
1.0031486
1.0032206
1.0032945
1.0033712
1.00345
1.0035314
1.0036151
1.0037009
1.0037891
1.0038792
1.0039717
1.0040663
1.0041628
1.0042611
1.0043616
1.004464
1.0045678
1.0046736
1.0047808
1.0048894
1.0049994
1.0051105
1.0052227
1.0053363
1.0054507
1.0055651
1.0056809
1.0057969
1.005913
1.006029
1.0061452
1.006261
1.006376
1.0064909
1.0066042
1.006717
1.0068284
1.0069381
1.0070464
1.0071524
1.0072567
1.0073589
1.0074582
1.0075552
1.0076488
1.0077397
1.0078269
1.0079107
1.0079907
1.0080664
1.0081377
1.0082046
1.0082665
1.0083225
1.0083742
1.0084186
1.0084598
1.0084952
1.0085252
1.0085503
1.0085703
1.0085836
1.0085907
1.0085904
1.0085839
1.0085701
1.008548
1.0085182
1.0084824
1.008436
1.0083806
1.0083158
1.0082427
1.0081597
1.0080672
1.007964
1.0078526
1.0077304
1.0076003
1.0074549
1.0073121
1.0071612
1.0022173
1.0022342
1.0022524
1.0022699
1.0022914
1.0023162
1.0023438
1.0023742
1.0024074
1.0024435
1.0024824
1.0025241
1.0025683
1.0026151
1.0026644
1.0027163
1.0027708
1.0028277
1.0028871
1.0029491
1.0030135
1.0030805
1.0031497
1.0032216
1.0032956
1.0033724
1.0034512
1.0035324
1.0036161
1.0037019
1.0037898
1.0038802
1.0039725
1.0040672
1.0041634
1.004262
1.0043625
1.0044647
1.0045684
1.004674
1.0047811
1.0048894
1.0049997
1.0051108
1.005223
1.0053363
1.0054505
1.0055649
1.0056809
1.0057963
1.0059124
1.0060278
1.0061438
1.0062588
1.0063735
1.0064878
1.0066003
1.0067126
1.006823
1.006932
1.0070393
1.0071449
1.0072481
1.0073491
1.0074474
1.0075429
1.0076356
1.0077247
1.0078105
1.0078924
1.0079707
1.0080449
1.0081147
1.0081798
1.00824
1.0082945
1.0083443
1.0083873
1.0084265
1.0084598
1.0084882
1.0085116
1.0085298
1.0085419
1.0085476
1.008546
1.0085381
1.0085218
1.0085001
1.008469
1.0084296
1.0083847
1.0083287
1.0082657
1.0081913
1.008108
1.0080165
1.007916
1.0078085
1.0076855
1.0075647
1.0074228
1.00728
1.0071267
1.0022173
1.0022349
1.0022532
1.0022707
1.0022922
1.0023171
1.0023447
1.0023752
1.0024085
1.0024446
1.0024835
1.002525
1.0025692
1.0026161
1.0026653
1.0027174
1.0027718
1.0028288
1.0028883
1.0029501
1.0030146
1.0030814
1.0031507
1.0032225
1.0032967
1.0033732
1.0034521
1.0035332
1.0036169
1.0037026
1.0037906
1.0038807
1.003973
1.0040676
1.0041639
1.0042624
1.0043628
1.0044648
1.0045686
1.0046741
1.0047812
1.0048894
1.0049995
1.0051101
1.0052225
1.0053357
1.0054495
1.0055641
1.0056795
1.0057946
1.0059104
1.0060255
1.0061411
1.0062558
1.0063703
1.0064837
1.0065961
1.0067076
1.0068173
1.0069257
1.0070324
1.007137
1.0072394
1.0073393
1.0074369
1.0075312
1.0076224
1.0077102
1.0077949
1.0078753
1.007952
1.0080245
1.0080927
1.008156
1.0082145
1.0082681
1.0083162
1.0083578
1.0083952
1.0084269
1.0084535
1.0084756
1.0084916
1.0085014
1.0085055
1.0085031
1.0084942
1.0084782
1.0084553
1.0084249
1.0083875
1.0083419
1.0082888
1.0082259
1.0081591
1.008081
1.0079928
1.0078964
1.0077927
1.0076747
1.0075571
1.007419
1.007285
1.0071357
1.0022173
1.0022354
1.0022538
1.0022711
1.0022927
1.0023177
1.0023453
1.002376
1.0024093
1.0024455
1.0024844
1.0025259
1.0025701
1.0026169
1.0026662
1.0027181
1.0027725
1.0028295
1.0028889
1.0029508
1.0030152
1.0030821
1.0031514
1.0032232
1.0032973
1.0033737
1.0034527
1.0035337
1.0036173
1.003703
1.0037911
1.0038812
1.0039737
1.0040679
1.0041645
1.0042628
1.004363
1.0044652
1.004569
1.0046742
1.0047815
1.0048895
1.0049995
1.0051102
1.0052226
1.0053353
1.005449
1.0055631
1.0056781
1.0057933
1.0059085
1.0060238
1.0061388
1.0062531
1.0063673
1.0064801
1.0065922
1.0067031
1.0068122
1.0069203
1.0070262
1.00713
1.0072316
1.0073305
1.0074269
1.0075202
1.0076105
1.0076982
1.0077811
1.0078607
1.0079361
1.0080069
1.0080735
1.0081353
1.0081921
1.008244
1.0082904
1.0083305
1.0083663
1.0083964
1.0084213
1.0084421
1.0084574
1.0084669
1.0084695
1.0084658
1.0084552
1.0084372
1.0084136
1.0083822
1.0083436
1.0082968
1.008247
1.0081862
1.0081161
1.0080382
1.0079544
1.0078595
1.0077559
1.0076416
1.0075259
1.0073992
1.0072611
1.0071285
1.0022172
1.0022359
1.0022544
1.0022718
1.0022935
1.0023185
1.0023461
1.0023767
1.00241
1.0024462
1.0024851
1.0025266
1.0025707
1.0026176
1.0026668
1.0027187
1.0027733
1.0028302
1.0028896
1.0029516
1.0030159
1.0030829
1.003152
1.0032237
1.0032979
1.0033743
1.0034533
1.0035343
1.003618
1.0037037
1.0037918
1.0038818
1.0039744
1.0040684
1.004165
1.0042631
1.0043633
1.0044656
1.0045692
1.0046743
1.0047815
1.0048896
1.0049992
1.0051097
1.0052217
1.0053345
1.0054478
1.0055618
1.0056765
1.0057916
1.0059065
1.0060211
1.006136
1.0062502
1.0063637
1.0064765
1.0065881
1.0066984
1.0068073
1.0069144
1.0070196
1.0071229
1.007224
1.0073222
1.0074179
1.0075103
1.0075999
1.007686
1.0077678
1.007846
1.0079201
1.00799
1.0080554
1.0081158
1.0081714
1.0082219
1.0082669
1.0083059
1.0083405
1.0083693
1.0083931
1.0084129
1.008426
1.0084339
1.008436
1.0084306
1.0084195
1.0084017
1.0083759
1.0083454
1.008308
1.0082624
1.0082083
1.0081494
1.0080874
1.008012
1.0079319
1.0078406
1.0077456
1.0076366
1.0075293
1.0074083
1.0072815
1.0071382
1.0022172
1.0022364
1.002255
1.0022724
1.0022941
1.0023192
1.0023468
1.0023775
1.0024109
1.0024471
1.0024859
1.0025274
1.0025716
1.0026184
1.0026677
1.0027196
1.002774
1.0028309
1.0028903
1.0029523
1.0030167
1.0030836
1.0031528
1.0032245
1.0032987
1.0033752
1.0034542
1.0035351
1.0036188
1.0037042
1.0037925
1.0038824
1.0039747
1.0040691
1.0041653
1.0042635
1.0043638
1.0044657
1.0045691
1.0046745
1.004781
1.0048893
1.0049987
1.0051092
1.0052209
1.0053338
1.0054468
1.0055608
1.0056758
1.00579
1.0059052
1.0060196
1.0061341
1.0062481
1.0063613
1.0064736
1.0065848
1.0066948
1.0068031
1.0069098
1.0070145
1.0071169
1.0072171
1.0073144
1.0074091
1.007501
1.0075892
1.007674
1.0077551
1.0078326
1.0079057
1.0079745
1.0080386
1.0080981
1.0081525
1.0082018
1.0082456
1.0082833
1.0083169
1.0083447
1.0083671
1.008386
1.0083987
1.0084068
1.0084089
1.008403
1.008391
1.0083722
1.0083466
1.0083142
1.0082747
1.00823
1.0081768
1.0081192
1.0080528
1.007979
1.0079052
1.0078169
1.0077256
1.0076231
1.0075134
1.0073988
1.0072809
1.007144
1.002217
1.0022369
1.0022555
1.002273
1.0022947
1.0023198
1.0023476
1.0023781
1.0024116
1.0024477
1.0024866
1.002528
1.0025723
1.0026191
1.0026685
1.0027203
1.0027749
1.0028318
1.0028912
1.0029533
1.0030176
1.0030845
1.0031537
1.0032255
1.0032995
1.003376
1.0034549
1.003536
1.0036196
1.0037051
1.003793
1.003883
1.0039752
1.0040695
1.0041656
1.0042639
1.0043638
1.0044659
1.0045691
1.0046744
1.0047807
1.0048887
1.004998
1.0051084
1.0052203
1.0053327
1.0054457
1.0055594
1.0056744
1.005788
1.0059031
1.0060175
1.0061317
1.0062453
1.0063583
1.0064703
1.0065812
1.0066907
1.0067984
1.0069048
1.0070091
1.0071108
1.0072107
1.0073077
1.0074015
1.0074927
1.0075801
1.0076642
1.0077445
1.0078208
1.0078927
1.0079608
1.0080241
1.0080824
1.0081358
1.0081839
1.0082271
1.0082642
1.0082966
1.0083237
1.0083448
1.008362
1.0083743
1.0083804
1.0083804
1.0083749
1.0083616
1.0083428
1.0083183
1.0082849
1.0082505
1.0082059
1.0081538
1.0080942
1.0080286
1.0079576
1.0078846
1.0077975
1.0077127
1.0076176
1.0075171
1.0074025
1.0072944
1.0071668
1.0022169
1.0022374
1.0022561
1.0022735
1.0022952
1.0023204
1.0023482
1.0023788
1.0024123
1.0024485
1.0024874
1.0025289
1.0025731
1.0026199
1.0026693
1.0027212
1.0027757
1.0028326
1.0028921
1.0029539
1.0030184
1.0030853
1.0031545
1.0032263
1.0033003
1.0033768
1.0034555
1.0035366
1.00362
1.0037055
1.0037934
1.0038833
1.0039755
1.0040699
1.0041657
1.0042642
1.0043637
1.0044655
1.0045689
1.0046741
1.0047805
1.0048884
1.0049979
1.0051081
1.0052197
1.0053322
1.0054449
1.0055586
1.0056732
1.005787
1.0059016
1.0060158
1.0061298
1.0062435
1.0063563
1.006468
1.0065784
1.0066878
1.0067953
1.0069011
1.0070048
1.0071062
1.0072051
1.0073014
1.0073946
1.007485
1.0075718
1.0076551
1.0077347
1.0078104
1.0078815
1.0079488
1.0080111
1.0080688
1.0081215
1.0081689
1.0082111
1.0082475
1.0082794
1.0083062
1.0083271
1.008344
1.0083556
1.0083613
1.0083607
1.0083554
1.0083424
1.0083234
1.0082986
1.0082655
1.0082289
1.0081843
1.0081363
1.008079
1.0080144
1.0079431
1.0078754
1.0077897
1.0077053
1.0076083
1.0075122
1.0074033
1.0073064
1.0071828
1.0022168
1.0022379
1.0022566
1.002274
1.0022958
1.002321
1.0023488
1.0023794
1.0024129
1.0024492
1.002488
1.0025296
1.0025739
1.0026207
1.0026701
1.002722
1.0027765
1.0028334
1.002893
1.0029549
1.0030193
1.0030862
1.0031554
1.003227
1.0033011
1.0033774
1.0034562
1.0035373
1.0036208
1.0037062
1.0037941
1.0038838
1.0039761
1.0040701
1.004166
1.0042641
1.004364
1.0044656
1.0045689
1.0046738
1.0047805
1.004888
1.0049977
1.0051076
1.0052191
1.0053313
1.0054442
1.0055575
1.0056717
1.0057857
1.0059002
1.0060143
1.006128
1.0062415
1.0063539
1.0064653
1.0065754
1.006684
1.006791
1.0068966
1.0069995
1.0071004
1.0071987
1.0072945
1.0073875
1.0074773
1.0075633
1.0076461
1.007725
1.0077999
1.0078706
1.0079372
1.0079989
1.0080559
1.0081081
1.0081549
1.0081963
1.0082327
1.008263
1.0082911
1.008312
1.0083286
1.0083417
1.0083478
1.008347
1.0083413
1.0083286
1.0083099
1.0082864
1.0082544
1.0082202
1.008174
1.0081264
1.0080683
1.0080077
1.0079383
1.0078712
1.0077907
1.0077095
1.0076224
1.0075285
1.0074237
1.0073329
1.0072169
1.0022166
1.0022384
1.0022571
1.0022746
1.0022964
1.0023216
1.0023494
1.0023801
1.0024136
1.0024499
1.0024888
1.0025305
1.0025746
1.0026215
1.0026708
1.0027228
1.0027773
1.0028343
1.0028937
1.0029557
1.00302
1.0030869
1.0031561
1.0032276
1.0033017
1.003378
1.0034568
1.0035378
1.0036213
1.0037067
1.0037945
1.0038844
1.0039765
1.0040705
1.0041665
1.0042644
1.0043644
1.0044656
1.0045692
1.0046739
1.0047805
1.0048879
1.0049973
1.0051076
1.0052187
1.0053311
1.0054436
1.005557
1.0056709
1.0057848
1.0058991
1.0060131
1.0061267
1.0062397
1.0063519
1.0064628
1.0065727
1.0066812
1.0067874
1.0068923
1.0069952
1.0070955
1.0071935
1.0072887
1.0073809
1.0074702
1.0075558
1.0076382
1.0077167
1.0077911
1.0078614
1.0079276
1.0079889
1.0080455
1.0080973
1.0081437
1.0081847
1.0082213
1.0082507
1.008279
1.0082997
1.0083155
1.0083295
1.008336
1.0083368
1.0083322
1.0083214
1.0083031
1.008279
1.0082472
1.0082139
1.0081706
1.0081263
1.0080709
1.0080118
1.0079444
1.0078802
1.0078016
1.0077201
1.0076379
1.0075484
1.0074474
1.0073625
1.0072514
1.0022165
1.0022388
1.0022576
1.002275
1.002297
1.0023223
1.0023501
1.0023808
1.0024144
1.0024506
1.0024896
1.0025312
1.0025755
1.0026222
1.0026716
1.0027235
1.0027779
1.0028349
1.0028944
1.0029564
1.0030208
1.0030875
1.0031568
1.0032283
1.0033024
1.0033788
1.0034574
1.0035385
1.0036219
1.0037073
1.0037952
1.0038849
1.0039769
1.0040711
1.0041669
1.0042647
1.0043647
1.004466
1.0045696
1.0046741
1.0047808
1.0048881
1.0049974
1.0051075
1.0052184
1.0053306
1.0054429
1.0055563
1.0056699
1.0057838
1.0058978
1.0060114
1.0061248
1.0062375
1.0063493
1.0064602
1.0065694
1.0066774
1.0067837
1.0068882
1.0069907
1.0070909
1.0071882
1.0072832
1.0073752
1.0074639
1.0075493
1.0076313
1.0077097
1.0077838
1.0078538
1.0079195
1.0079805
1.0080369
1.0080884
1.0081348
1.008176
1.0082125
1.0082417
1.0082702
1.0082918
1.0083089
1.0083228
1.0083301
1.0083306
1.0083253
1.0083143
1.0082985
1.0082785
1.0082502
1.0082189
1.0081766
1.0081344
1.0080805
1.0080245
1.0079597
1.0078977
1.0078222
1.0077479
1.0076688
1.0075868
1.0074898
1.0074128
1.007304
1.0022163
1.0022392
1.002258
1.0022755
1.0022976
1.0023228
1.0023507
1.0023815
1.002415
1.0024513
1.0024905
1.002532
1.0025763
1.002623
1.0026725
1.0027243
1.0027789
1.0028358
1.0028953
1.0029572
1.0030216
1.0030884
1.0031577
1.0032292
1.0033034
1.0033796
1.0034584
1.0035392
1.0036227
1.003708
1.0037959
1.0038855
1.0039775
1.0040714
1.0041674
1.0042651
1.0043651
1.0044666
1.0045696
1.0046742
1.0047807
1.0048881
1.0049971
1.0051071
1.0052179
1.00533
1.0054423
1.0055556
1.0056691
1.0057827
1.0058964
1.0060097
1.006123
1.0062353
1.0063468
1.0064572
1.0065665
1.006674
1.00678
1.0068843
1.0069863
1.0070862
1.0071835
1.0072782
1.0073699
1.0074582
1.0075437
1.0076252
1.0077034
1.007777
1.0078472
1.0079126
1.0079737
1.0080304
1.0080818
1.0081284
1.0081701
1.0082061
1.0082368
1.0082648
1.0082879
1.0083058
1.0083205
1.0083294
1.0083311
1.0083297
1.0083212
1.008307
1.0082874
1.0082621
1.0082327
1.0081939
1.008154
1.0081037
1.0080501
1.0079888
1.0079294
1.0078569
1.0077859
1.0077094
1.0076332
1.0075437
1.0074662
1.0073592
1.0022161
1.0022396
1.0022584
1.002276
1.0022981
1.0023234
1.0023514
1.0023821
1.0024158
1.002452
1.0024911
1.0025327
1.0025771
1.0026239
1.0026734
1.0027253
1.0027798
1.0028367
1.0028963
1.0029582
1.0030226
1.0030893
1.0031585
1.0032302
1.0033042
1.0033805
1.0034592
1.00354
1.0036234
1.0037086
1.0037964
1.0038858
1.0039779
1.0040715
1.0041677
1.0042653
1.0043651
1.0044664
1.0045694
1.004674
1.0047803
1.0048879
1.0049963
1.0051064
1.0052174
1.0053289
1.0054415
1.0055545
1.0056678
1.0057812
1.0058949
1.0060079
1.006121
1.0062329
1.0063443
1.0064544
1.0065634
1.0066711
1.0067768
1.0068808
1.0069827
1.0070822
1.0071792
1.0072736
1.0073651
1.0074534
1.0075386
1.0076202
1.0076981
1.0077721
1.0078423
1.0079078
1.0079693
1.008026
1.0080778
1.0081249
1.0081677
1.0082041
1.0082361
1.0082651
1.008289
1.008308
1.0083248
1.0083349
1.008338
1.0083375
1.0083284
1.0083159
1.0082992
1.0082769
1.0082504
1.0082159
1.0081787
1.0081318
1.0080835
1.0080267
1.0079716
1.0079052
1.0078425
1.0077684
1.0077023
1.0076138
1.0075475
1.0074408
1.0022159
1.0022401
1.0022589
1.0022764
1.0022986
1.002324
1.002352
1.0023828
1.0024165
1.0024528
1.0024919
1.0025336
1.002578
1.0026248
1.0026743
1.0027262
1.0027809
1.0028377
1.0028972
1.0029591
1.0030236
1.0030902
1.0031595
1.003231
1.0033051
1.0033813
1.00346
1.0035407
1.0036241
1.0037093
1.0037971
1.0038865
1.0039785
1.0040721
1.004168
1.0042656
1.004365
1.0044664
1.0045693
1.0046739
1.00478
1.0048875
1.0049961
1.0051057
1.0052168
1.0053279
1.0054407
1.0055533
1.0056665
1.0057798
1.0058932
1.0060063
1.006119
1.0062309
1.0063421
1.0064522
1.0065609
1.0066682
1.0067736
1.0068774
1.0069792
1.0070785
1.0071754
1.00727
1.0073614
1.0074498
1.0075349
1.0076169
1.0076949
1.0077693
1.0078399
1.007906
1.007968
1.0080256
1.0080786
1.0081266
1.0081706
1.0082086
1.0082418
1.0082715
1.0082944
1.0083176
1.0083337
1.0083461
1.0083512
1.0083534
1.008346
1.0083376
1.008323
1.0083038
1.0082808
1.0082515
1.0082185
1.0081766
1.008133
1.008081
1.0080301
1.0079693
1.0079121
1.0078406
1.0077808
1.0077001
1.0076391
1.0075316
1.0022158
1.0022404
1.0022593
1.0022769
1.0022992
1.0023246
1.0023527
1.0023835
1.0024173
1.0024537
1.0024927
1.0025346
1.0025789
1.0026259
1.0026753
1.0027273
1.0027819
1.0028388
1.0028983
1.0029602
1.0030246
1.0030913
1.0031606
1.0032321
1.0033061
1.0033822
1.0034609
1.0035415
1.0036249
1.0037101
1.0037977
1.0038871
1.003979
1.0040726
1.0041684
1.0042661
1.0043654
1.0044668
1.0045696
1.004674
1.00478
1.0048873
1.004996
1.0051053
1.0052165
1.0053275
1.0054402
1.0055525
1.0056658
1.0057789
1.0058918
1.006005
1.0061173
1.0062292
1.0063401
1.0064498
1.0065583
1.0066653
1.0067706
1.0068743
1.0069761
1.0070755
1.0071725
1.0072671
1.0073586
1.0074476
1.0075331
1.0076154
1.0076939
1.0077691
1.0078402
1.0079075
1.0079703
1.0080295
1.0080834
1.0081342
1.0081787
1.0082195
1.0082547
1.0082864
1.0083129
1.0083373
1.0083564
1.0083712
1.0083784
1.0083814
1.0083758
1.0083709
1.0083551
1.0083397
1.0083179
1.0082932
1.0082624
1.0082261
1.008188
1.0081431
1.0080976
1.0080429
1.0079927
1.0079267
1.0078747
1.0077956
1.00774
1.0076392
1.0022156
1.0022408
1.0022597
1.0022774
1.0022998
1.0023252
1.0023533
1.0023843
1.002418
1.0024545
1.0024936
1.0025355
1.0025797
1.0026268
1.0026762
1.0027282
1.0027829
1.0028398
1.0028993
1.0029613
1.0030256
1.0030925
1.0031615
1.0032332
1.0033069
1.0033833
1.0034618
1.0035425
1.0036258
1.0037109
1.0037984
1.0038879
1.0039796
1.0040733
1.0041689
1.0042666
1.0043659
1.0044671
1.0045697
1.0046741
1.0047799
1.0048871
1.0049958
1.005105
1.005216
1.0053268
1.0054396
1.0055517
1.0056648
1.0057776
1.0058905
1.006003
1.0061154
1.0062269
1.0063377
1.0064472
1.0065557
1.0066627
1.0067681
1.0068719
1.0069735
1.0070734
1.0071707
1.0072655
1.0073577
1.0074473
1.0075334
1.0076168
1.0076965
1.007773
1.0078454
1.0079145
1.0079792
1.0080403
1.0080968
1.0081494
1.0081973
1.0082405
1.0082789
1.0083132
1.0083436
1.0083695
1.0083924
1.008411
1.0084224
1.0084304
1.0084281
1.0084237
1.0084142
1.0084011
1.0083817
1.0083592
1.0083313
1.0082985
1.008263
1.0082219
1.0081799
1.0081309
1.0080849
1.0080248
1.0079785
1.0079013
1.007854
1.0077509
1.0022154
1.0022412
1.0022602
1.0022778
1.0023003
1.0023258
1.002354
1.0023851
1.0024188
1.0024554
1.0024945
1.0025364
1.0025807
1.0026278
1.0026774
1.0027293
1.002784
1.0028409
1.0029004
1.0029625
1.0030267
1.0030936
1.0031625
1.0032343
1.003308
1.0033843
1.0034628
1.0035436
1.0036266
1.003712
1.0037993
1.0038889
1.0039804
1.0040741
1.0041693
1.0042671
1.0043662
1.0044673
1.0045698
1.0046742
1.0047798
1.0048871
1.0049954
1.0051048
1.0052155
1.0053264
1.0054388
1.0055509
1.0056639
1.0057765
1.0058893
1.0060018
1.0061139
1.0062252
1.0063359
1.0064453
1.0065542
1.0066614
1.0067668
1.006871
1.006973
1.0070732
1.0071711
1.0072666
1.0073599
1.0074505
1.0075383
1.0076229
1.0077046
1.007783
1.0078581
1.0079295
1.0079974
1.008061
1.008121
1.0081765
1.0082282
1.0082742
1.0083167
1.0083553
1.008389
1.0084195
1.0084454
1.0084672
1.0084827
1.0084952
1.008497
1.0084967
1.0084906
1.0084797
1.0084638
1.0084439
1.0084182
1.0083896
1.0083565
1.0083191
1.0082799
1.008233
1.0081887
1.0081315
1.0080839
1.00801
1.0079639
1.0078596
1.0022152
1.0022416
1.0022606
1.0022783
1.0023009
1.0023265
1.0023547
1.0023859
1.0024196
1.0024564
1.0024955
1.0025374
1.0025818
1.0026289
1.0026785
1.0027305
1.0027852
1.0028421
1.0029017
1.0029637
1.0030279
1.0030948
1.0031638
1.0032355
1.0033092
1.0033855
1.0034639
1.0035448
1.0036275
1.003713
1.0038001
1.0038899
1.0039811
1.0040748
1.0041701
1.0042676
1.0043667
1.0044678
1.0045703
1.0046745
1.0047801
1.0048873
1.0049955
1.0051049
1.0052154
1.0053261
1.0054383
1.0055504
1.0056633
1.0057759
1.0058885
1.0060009
1.0061131
1.0062244
1.006335
1.0064449
1.0065537
1.006661
1.0067671
1.0068717
1.0069746
1.0070756
1.007175
1.0072719
1.0073667
1.0074591
1.0075487
1.0076361
1.0077203
1.0078014
1.0078797
1.0079541
1.0080251
1.0080933
1.0081565
1.0082166
1.0082725
1.0083236
1.0083698
1.008415
1.008452
1.0084878
1.0085166
1.0085414
1.0085609
1.0085762
1.0085849
1.0085889
1.0085867
1.0085791
1.0085669
1.0085485
1.0085267
1.0085003
1.0084691
1.0084331
1.0083937
1.0083479
1.0083041
1.0082468
1.0081963
1.0081228
1.0080689
1.007966
1.002215
1.0022419
1.002261
1.0022788
1.0023015
1.0023272
1.0023554
1.0023866
1.0024205
1.0024572
1.0024964
1.0025384
1.0025828
1.00263
1.0026795
1.0027317
1.0027863
1.0028434
1.002903
1.0029649
1.0030292
1.0030961
1.003165
1.0032368
1.0033104
1.0033868
1.003465
1.0035459
1.0036286
1.0037139
1.003801
1.0038907
1.0039818
1.0040755
1.0041706
1.0042681
1.0043672
1.0044681
1.0045706
1.0046746
1.0047804
1.0048873
1.0049956
1.0051048
1.0052151
1.0053262
1.0054378
1.0055503
1.0056626
1.0057755
1.0058884
1.0060006
1.0061127
1.0062245
1.0063352
1.0064454
1.0065544
1.0066625
1.0067696
1.0068753
1.0069797
1.0070826
1.0071832
1.0072828
1.0073794
1.0074747
1.0075668
1.0076576
1.0077448
1.0078299
1.0079114
1.0079908
1.0080654
1.0081385
1.008206
1.0082712
1.0083319
1.0083888
1.0084398
1.0084911
1.0085332
1.0085739
1.0086086
1.0086373
1.0086609
1.0086797
1.0086912
1.0086979
1.0086983
1.0086933
1.0086822
1.0086668
1.0086452
1.0086193
1.0085892
1.0085537
1.0085154
1.0084688
1.0084224
1.0083625
1.0083079
1.0082301
1.0081691
1.0080647
1.0022148
1.0022423
1.0022614
1.0022793
1.0023021
1.0023278
1.0023561
1.0023874
1.0024213
1.0024581
1.0024974
1.0025395
1.0025839
1.0026311
1.0026807
1.0027328
1.0027875
1.0028445
1.0029042
1.0029662
1.0030304
1.0030974
1.0031664
1.0032379
1.0033118
1.0033881
1.0034663
1.0035473
1.0036298
1.0037152
1.0038022
1.0038918
1.0039828
1.0040765
1.0041717
1.004269
1.0043681
1.0044687
1.0045711
1.0046755
1.0047807
1.0048877
1.004996
1.0051051
1.0052152
1.0053267
1.0054379
1.0055504
1.0056625
1.0057756
1.0058886
1.006001
1.0061133
1.0062253
1.0063366
1.0064475
1.0065578
1.0066674
1.0067756
1.0068834
1.0069891
1.0070941
1.0071979
1.0072995
1.0073997
1.007498
1.007594
1.0076885
1.0077799
1.0078697
1.0079558
1.00804
1.0081202
1.0081982
1.0082713
1.0083421
1.0084079
1.0084708
1.0085276
1.0085833
1.0086314
1.0086766
1.0087149
1.0087482
1.0087758
1.0087967
1.0088121
1.0088198
1.0088219
1.0088172
1.0088076
1.00879
1.0087705
1.0087433
1.008712
1.0086751
1.0086339
1.0085846
1.0085339
1.0084719
1.0084115
1.0083311
1.0082631
1.0081529
1.0022147
1.0022427
1.0022618
1.0022797
1.0023026
1.0023285
1.0023568
1.0023882
1.0024222
1.0024591
1.0024984
1.0025405
1.002585
1.0026323
1.0026819
1.0027341
1.0027889
1.0028459
1.0029055
1.0029676
1.0030318
1.0030987
1.0031679
1.0032392
1.0033131
1.0033894
1.0034676
1.0035485
1.003631
1.0037163
1.0038033
1.0038929
1.0039838
1.0040772
1.0041726
1.0042696
1.0043687
1.0044692
1.0045716
1.0046758
1.0047812
1.0048879
1.0049964
1.0051057
1.0052156
1.0053272
1.0054383
1.0055508
1.0056633
1.0057763
1.0058896
1.0060024
1.0061152
1.006228
1.0063404
1.0064525
1.0065645
1.0066757
1.0067863
1.006896
1.007005
1.0071131
1.0072199
1.0073253
1.0074292
1.0075321
1.0076325
1.0077319
1.0078283
1.0079233
1.0080146
1.0081051
1.0081903
1.0082744
1.0083529
1.0084297
1.0085009
1.0085694
1.0086318
1.0086914
1.0087446
1.0087933
1.0088351
1.0088712
1.0089001
1.0089237
1.0089392
1.0089489
1.0089516
1.0089451
1.0089364
1.0089201
1.0088976
1.0088687
1.0088349
1.008793
1.0087482
1.0086943
1.0086372
1.0085693
1.0085016
1.0084138
1.0083376
1.0082271
1.0022146
1.002243
1.0022621
1.0022802
1.0023032
1.0023291
1.0023576
1.002389
1.0024231
1.00246
1.0024995
1.0025417
1.0025862
1.0026335
1.0026833
1.0027354
1.0027902
1.0028472
1.0029068
1.002969
1.0030332
1.0031
1.0031692
1.0032406
1.0033144
1.0033906
1.0034688
1.0035495