/*--------------------------------*- C++ -*----------------------------------*\
| =========                 |                                                 |
| \\      /  F ield         | OpenFOAM: The Open Source CFD Toolbox           |
|  \\    /   O peration     | Version:  2406                                  |
|   \\  /    A nd           | Website:  www.openfoam.com                      |
|    \\/     M anipulation  |                                                 |
\*---------------------------------------------------------------------------*/
FoamFile
{
    version     2.0;
    format      ascii;
    arch        "LSB;label=32;scalar=64";
    class       volScalarField;
    location    "500";
    object      T;
}
// * * * * * * * * * * * * * * * * * * * * * * * * * * * * * * * * * * * * * //

dimensions      [0 0 0 1 0 0 0];

internalField   nonuniform List<scalar> 
132739
(
1.0008661
1.0008666
1.0008687
1.0008722
1.0008773
1.0008842
1.0008926
1.0009021
1.0009124
1.0009235
1.0009354
1.0009481
1.0009616
1.000976
1.0009913
1.0010073
1.0010261
1.0010303
1.0010476
1.0010664
1.0010863
1.0011069
1.0011283
1.0011505
1.0011735
1.0011973
1.0012217
1.001247
1.0012729
1.0012994
1.0013268
1.0013545
1.001383
1.0014123
1.001442
1.0014726
1.0015037
1.0015355
1.0015679
1.0016009
1.0016342
1.0016681
1.0017025
1.0017371
1.0017716
1.0018061
1.0018404
1.0018745
1.0019087
1.0019429
1.0019769
1.0020109
1.0020454
1.0020794
1.0021139
1.0021488
1.0021837
1.0022177
1.002252
1.0022861
1.0023189
1.0023504
1.0023809
1.0024108
1.002439
1.0024657
1.0024911
1.0025158
1.0025394
1.0025616
1.002582
1.0026006
1.0026174
1.0026323
1.0026453
1.002656
1.0026646
1.0026724
1.0026822
1.0027013
1.0027008
1.0026872
1.0026727
1.0026598
1.0026434
1.0026219
1.0025952
1.0025618
1.0025237
1.0024865
1.0024494
1.0024111
1.0023709
1.0023274
1.0022771
1.0022144
1.0021311
1.0020188
1.0019005
1.0017824
1.0016701
1.0015572
1.0014297
1.0011548
1.0008663
1.0008668
1.0008689
1.0008725
1.0008778
1.0008848
1.0008932
1.0009027
1.0009129
1.0009239
1.0009359
1.0009487
1.0009625
1.0009773
1.0009943
1.0009973
1.0010125
1.0010292
1.0010473
1.0010663
1.0010861
1.0011066
1.001128
1.0011502
1.0011731
1.0011968
1.0012213
1.0012466
1.0012726
1.0012992
1.0013266
1.0013546
1.0013833
1.0014128
1.0014428
1.0014735
1.0015048
1.0015366
1.001569
1.0016019
1.0016354
1.0016692
1.0017034
1.0017376
1.0017716
1.001806
1.0018405
1.0018747
1.0019088
1.0019428
1.0019771
1.0020111
1.0020451
1.0020794
1.0021138
1.0021486
1.0021822
1.0022169
1.0022508
1.0022842
1.0023167
1.0023484
1.0023799
1.002411
1.0024399
1.0024668
1.0024924
1.0025155
1.002537
1.0025572
1.0025756
1.0025924
1.0026076
1.0026209
1.0026324
1.0026415
1.0026482
1.0026522
1.0026563
1.0026622
1.0026615
1.0026629
1.0026602
1.0026558
1.0026441
1.0026254
1.0025974
1.0025619
1.0025222
1.0024769
1.0024282
1.0023779
1.0023266
1.0022747
1.0022207
1.0021622
1.0020929
1.0020083
1.0019052
1.0017905
1.0016739
1.001556
1.0014401
1.001209
1.0008664
1.000867
1.000869
1.0008725
1.0008772
1.0008834
1.000891
1.0008998
1.0009093
1.0009195
1.0009301
1.0009413
1.0009535
1.0009667
1.000981
1.0009961
1.0010122
1.0010292
1.0010472
1.0010661
1.0010858
1.0011063
1.0011276
1.0011498
1.0011727
1.0011964
1.0012209
1.0012462
1.0012723
1.001299
1.0013264
1.0013545
1.0013832
1.0014127
1.0014428
1.0014734
1.0015048
1.0015366
1.001569
1.0016019
1.0016353
1.0016691
1.0017032
1.0017377
1.0017729
1.001808
1.001843
1.0018773
1.0019118
1.001946
1.00198
1.0020139
1.0020475
1.0020811
1.0021149
1.0021487
1.0021818
1.0022161
1.0022495
1.0022822
1.0023142
1.0023455
1.0023763
1.0024059
1.0024336
1.0024595
1.0024839
1.002507
1.0025284
1.0025482
1.0025661
1.0025823
1.0025967
1.0026092
1.0026198
1.0026285
1.0026333
1.0026415
1.0026393
1.0026714
1.0026428
1.0026357
1.0026337
1.0026297
1.0026215
1.0026061
1.0025809
1.0025473
1.0025046
1.0024549
1.0023986
1.002341
1.0022813
1.0022198
1.0021575
1.0020941
1.0020275
1.0019551
1.0018678
1.0017628
1.0016491
1.0015266
1.00141
1.0012301
1.0008665
1.0008672
1.0008691
1.0008727
1.0008776
1.0008844
1.0008929
1.0009024
1.0009132
1.000924
1.0009342
1.0009441
1.0009549
1.0009676
1.0009821
1.0009974
1.001013
1.0010294
1.0010471
1.0010658
1.0010855
1.001106
1.0011273
1.0011495
1.0011724
1.0011961
1.0012208
1.001246
1.0012721
1.0012988
1.0013263
1.0013544
1.0013831
1.0014127
1.0014429
1.0014736
1.001505
1.0015369
1.0015693
1.0016024
1.0016358
1.0016698
1.0017041
1.0017387
1.0017735
1.0018081
1.0018427
1.0018774
1.0019117
1.0019459
1.0019798
1.0020137
1.0020475
1.002081
1.0021146
1.0021482
1.0021814
1.0022152
1.002248
1.0022802
1.0023117
1.0023426
1.0023727
1.0024018
1.0024288
1.0024542
1.002478
1.0025004
1.0025213
1.0025403
1.0025576
1.0025731
1.0025866
1.0025985
1.0026085
1.0026162
1.0026214
1.0026251
1.0026316
1.0026293
1.0026277
1.0026213
1.002616
1.0026062
1.0025936
1.0025761
1.0025521
1.0025197
1.0024794
1.0024312
1.002378
1.0023174
1.0022533
1.0021858
1.002115
1.0020422
1.0019689
1.0018944
1.0018146
1.001723
1.0016209
1.0015052
1.0013923
1.0012403
1.0008666
1.0008673
1.0008692
1.0008728
1.0008775
1.0008838
1.0008918
1.0009011
1.0009112
1.0009219
1.0009332
1.0009453
1.0009585
1.000973
1.0009886
1.0010042
1.0010179
1.001031
1.0010469
1.0010656
1.0010853
1.0011059
1.0011272
1.0011494
1.0011724
1.0011961
1.0012207
1.001246
1.001272
1.0012987
1.0013262
1.0013544
1.0013832
1.0014127
1.0014428
1.0014736
1.001505
1.0015367
1.0015693
1.0016023
1.0016358
1.0016698
1.001704
1.0017386
1.0017734
1.0018083
1.0018436
1.0018789
1.0019136
1.0019483
1.0019821
1.002016
1.0020497
1.0020827
1.002116
1.0021483
1.0021807
1.0022136
1.0022459
1.0022778
1.0023089
1.0023392
1.0023687
1.002397
1.0024236
1.0024486
1.0024719
1.0024938
1.002514
1.0025325
1.0025492
1.0025642
1.0025772
1.0025885
1.0025979
1.0026052
1.0026098
1.0026122
1.0026139
1.0026165
1.002612
1.002607
1.0025989
1.0025858
1.0025676
1.0025454
1.0025171
1.0024828
1.0024426
1.0023974
1.0023463
1.0022906
1.0022286
1.0021601
1.0020861
1.002007
1.001926
1.001845
1.0017629
1.0016751
1.0015812
1.0014753
1.0013684
1.0012452
1.0008666
1.0008672
1.0008694
1.0008728
1.0008774
1.0008833
1.0008905
1.0008989
1.0009082
1.0009182
1.0009289
1.0009405
1.0009531
1.0009666
1.0009811
1.0009964
1.0010125
1.0010293
1.0010471
1.001066
1.0010857
1.0011063
1.0011277
1.0011498
1.0011728
1.0011966
1.0012212
1.0012465
1.0012726
1.0012994
1.0013269
1.0013551
1.0013839
1.0014135
1.0014436
1.0014743
1.0015056
1.0015374
1.0015699
1.0016027
1.0016362
1.0016702
1.0017046
1.0017391
1.0017738
1.0018088
1.0018438
1.0018786
1.0019138
1.0019479
1.0019822
1.002016
1.0020493
1.0020822
1.0021153
1.0021477
1.0021799
1.0022122
1.0022443
1.0022758
1.0023065
1.0023363
1.0023652
1.0023931
1.0024192
1.0024438
1.0024667
1.0024881
1.0025079
1.0025258
1.002542
1.0025564
1.0025688
1.0025795
1.0025882
1.0025946
1.0025988
1.0026015
1.0026061
1.0026036
1.0025968
1.0025911
1.0025809
1.0025664
1.0025476
1.0025247
1.0024968
1.0024641
1.0024244
1.0023786
1.0023269
1.0022699
1.0022077
1.0021403
1.0020671
1.0019876
1.0018998
1.0018047
1.0017069
1.0016136
1.001522
1.0014218
1.0013234
1.0012177
1.0008667
1.0008673
1.0008695
1.0008728
1.0008773
1.0008829
1.0008899
1.000898
1.0009072
1.0009173
1.0009282
1.00094
1.0009526
1.000966
1.0009804
1.0009957
1.001012
1.0010291
1.001047
1.0010659
1.0010855
1.001106
1.0011273
1.0011495
1.0011724
1.0011962
1.0012207
1.001246
1.0012721
1.0012988
1.0013263
1.0013545
1.0013834
1.001413
1.0014432
1.0014738
1.0015051
1.001537
1.0015695
1.0016024
1.001636
1.0016699
1.0017042
1.0017388
1.0017736
1.0018086
1.0018437
1.0018786
1.0019134
1.001948
1.0019822
1.0020158
1.0020491
1.0020821
1.002115
1.0021473
1.0021791
1.0022111
1.0022427
1.0022737
1.0023039
1.0023333
1.0023618
1.0023892
1.002415
1.0024392
1.0024617
1.0024827
1.0025021
1.0025195
1.0025353
1.0025493
1.0025613
1.0025716
1.0025798
1.0025859
1.0025897
1.0025921
1.0025959
1.002592
1.0025863
1.0025787
1.0025675
1.0025529
1.0025348
1.0025126
1.0024855
1.0024516
1.0024098
1.00236
1.0023059
1.0022483
1.0021846
1.0021162
1.002044
1.0019655
1.0018834
1.001796
1.0017043
1.0016058
1.001507
1.0014013
1.0012995
1.0011905
1.0008667
1.0008674
1.0008694
1.0008729
1.0008773
1.0008829
1.0008898
1.000898
1.0009074
1.0009178
1.000929
1.000941
1.0009535
1.0009667
1.0009806
1.0009955
1.0010116
1.0010287
1.0010467
1.0010656
1.001085
1.0011053
1.0011265
1.0011487
1.0011716
1.0011954
1.0012199
1.0012452
1.0012713
1.0012981
1.0013256
1.0013538
1.0013828
1.0014124
1.0014426
1.0014734
1.0015048
1.0015368
1.0015693
1.0016023
1.0016358
1.0016697
1.0017041
1.0017386
1.0017736
1.0018087
1.0018438
1.0018788
1.0019139
1.0019485
1.0019827
1.0020164
1.0020496
1.0020827
1.0021148
1.0021469
1.0021784
1.00221
1.0022412
1.0022718
1.0023017
1.0023306
1.0023587
1.0023857
1.0024111
1.002435
1.0024573
1.0024779
1.0024968
1.002514
1.0025293
1.0025428
1.0025545
1.0025643
1.0025721
1.0025776
1.0025815
1.0025874
1.0025874
1.0025825
1.0025777
1.0025695
1.002558
1.0025427
1.002524
1.0025012
1.0024742
1.0024415
1.0024024
1.0023575
1.0023066
1.0022483
1.0021852
1.0021168
1.0020432
1.0019667
1.0018846
1.0017962
1.0017061
1.0016077
1.0015082
1.0014022
1.0013002
1.0011905
1.0008667
1.0008673
1.0008695
1.0008729
1.0008773
1.000883
1.00089
1.0008983
1.0009079
1.0009187
1.0009303
1.0009425
1.0009549
1.0009675
1.0009808
1.0009954
1.0010113
1.0010285
1.0010466
1.0010655
1.0010849
1.0011051
1.0011261
1.0011482
1.001171
1.0011947
1.0012191
1.0012444
1.0012705
1.0012974
1.0013249
1.0013533
1.0013822
1.001412
1.0014422
1.0014733
1.001505
1.0015372
1.0015697
1.0016026
1.0016361
1.0016699
1.0017043
1.001739
1.0017736
1.0018086
1.0018438
1.0018787
1.0019137
1.0019483
1.0019826
1.0020162
1.0020495
1.0020824
1.0021145
1.0021464
1.0021777
1.002209
1.0022398
1.00227
1.0022995
1.0023282
1.0023559
1.0023825
1.0024076
1.0024312
1.0024532
1.0024735
1.0024921
1.0025089
1.002524
1.0025372
1.0025486
1.0025581
1.0025655
1.0025707
1.0025743
1.0025795
1.0025785
1.0025738
1.0025695
1.0025608
1.0025493
1.0025342
1.0025156
1.0024926
1.0024654
1.0024323
1.0023939
1.0023478
1.002297
1.0022422
1.002182
1.0021161
1.0020445
1.0019672
1.0018853
1.0017988
1.0017083
1.0016114
1.0015155
1.0014102
1.001309
1.0011946
1.0008666
1.0008673
1.0008694
1.0008729
1.0008773
1.0008828
1.0008896
1.0008977
1.0009069
1.0009173
1.0009287
1.0009407
1.0009532
1.0009664
1.0009802
1.0009952
1.0010113
1.0010284
1.0010464
1.0010652
1.0010848
1.0011051
1.0011263
1.0011481
1.0011708
1.0011944
1.0012189
1.0012442
1.0012704
1.0012972
1.0013248
1.0013531
1.0013821
1.0014118
1.001442
1.0014732
1.0015049
1.0015369
1.0015693
1.0016021
1.0016354
1.0016693
1.0017038
1.0017384
1.0017736
1.0018088
1.001844
1.0018791
1.0019139
1.0019484
1.0019828
1.0020166
1.0020498
1.0020821
1.0021143
1.002146
1.0021772
1.0022081
1.0022385
1.0022684
1.0022977
1.002326
1.0023535
1.0023797
1.0024047
1.002428
1.0024497
1.0024698
1.0024882
1.0025047
1.0025196
1.0025325
1.0025436
1.0025527
1.0025599
1.002565
1.0025683
1.0025728
1.0025707
1.0025671
1.0025618
1.0025535
1.0025417
1.0025262
1.0025072
1.0024837
1.0024558
1.0024225
1.0023849
1.002343
1.0022961
1.0022431
1.0021831
1.0021178
1.0020491
1.0019742
1.0018941
1.0018096
1.001722
1.0016282
1.0015358
1.0014346
1.0013391
1.001224
1.0008666
1.0008673
1.0008694
1.0008728
1.0008772
1.0008827
1.0008894
1.0008974
1.0009064
1.0009167
1.0009279
1.0009399
1.0009525
1.0009657
1.0009798
1.0009949
1.001011
1.001028
1.0010459
1.0010647
1.0010843
1.0011049
1.0011262
1.0011482
1.001171
1.0011947
1.0012193
1.0012446
1.0012708
1.0012977
1.0013253
1.0013536
1.0013826
1.0014122
1.0014425
1.0014732
1.0015046
1.0015366
1.0015689
1.0016016
1.001635
1.0016689
1.0017034
1.0017381
1.0017732
1.0018084
1.0018435
1.0018786
1.0019137
1.0019484
1.0019827
1.0020162
1.0020495
1.002082
1.0021143
1.0021457
1.0021767
1.0022074
1.0022375
1.0022673
1.0022962
1.0023243
1.0023516
1.0023777
1.0024025
1.0024256
1.0024473
1.0024673
1.0024853
1.0025017
1.0025162
1.0025289
1.0025398
1.0025488
1.0025557
1.0025606
1.0025636
1.0025677
1.0025649
1.0025622
1.0025566
1.0025483
1.0025367
1.0025216
1.0025022
1.0024789
1.0024512
1.0024198
1.0023841
1.0023427
1.0022957
1.0022428
1.0021859
1.0021226
1.0020546
1.0019818
1.0019051
1.0018228
1.001737
1.0016465
1.0015572
1.001463
1.0013685
1.0012603
1.0008665
1.0008672
1.0008694
1.0008727
1.0008772
1.0008826
1.0008892
1.0008969
1.0009057
1.0009157
1.0009268
1.0009387
1.0009514
1.0009649
1.0009792
1.0009945
1.0010106
1.0010276
1.0010454
1.0010642
1.0010837
1.0011042
1.0011255
1.0011476
1.0011706
1.0011944
1.0012191
1.0012444
1.0012705
1.0012974
1.001325
1.0013532
1.0013823
1.0014118
1.0014421
1.0014729
1.0015043
1.0015362
1.0015685
1.0016012
1.0016346
1.0016685
1.001703
1.0017377
1.0017728
1.0018081
1.0018431
1.0018783
1.0019137
1.0019485
1.0019828
1.0020165
1.0020498
1.0020823
1.0021141
1.0021455
1.0021764
1.0022069
1.0022369
1.0022664
1.0022952
1.0023232
1.0023503
1.0023764
1.0024011
1.0024242
1.0024457
1.0024656
1.0024834
1.0024996
1.002514
1.0025266
1.0025374
1.0025463
1.0025533
1.0025583
1.0025612
1.002565
1.0025624
1.0025602
1.0025542
1.0025458
1.0025337
1.0025187
1.0025003
1.0024776
1.0024512
1.0024201
1.0023839
1.0023438
1.0022985
1.0022476
1.0021916
1.0021316
1.0020683
1.0019979
1.0019246
1.0018456
1.0017648
1.0016783
1.0015938
1.0015045
1.001417
1.0013072
1.0008664
1.0008671
1.0008693
1.0008727
1.000877
1.0008825
1.000889
1.0008967
1.0009054
1.0009152
1.0009261
1.0009379
1.0009507
1.0009643
1.0009787
1.000994
1.0010101
1.001027
1.0010449
1.0010636
1.0010831
1.0011036
1.0011248
1.0011469
1.0011698
1.0011936
1.0012182
1.0012435
1.0012697
1.0012965
1.0013243
1.0013525
1.0013815
1.0014112
1.0014414
1.0014723
1.0015037
1.0015356
1.0015679
1.0016008
1.0016342
1.0016682
1.0017026
1.0017374
1.0017724
1.0018077
1.0018429
1.0018782
1.0019135
1.0019483
1.0019828
1.0020165
1.0020495
1.0020821
1.002114
1.0021454
1.0021762
1.0022067
1.0022367
1.0022661
1.0022948
1.0023227
1.0023497
1.0023757
1.0024003
1.0024233
1.0024447
1.0024645
1.0024826
1.002499
1.0025134
1.0025259
1.0025366
1.0025455
1.0025525
1.0025576
1.0025605
1.002564
1.002562
1.0025599
1.0025535
1.0025453
1.0025337
1.0025194
1.0025017
1.0024795
1.0024534
1.002423
1.0023882
1.002349
1.0023052
1.0022573
1.0022038
1.0021466
1.0020842
1.0020169
1.0019483
1.0018728
1.0017959
1.0017147
1.0016319
1.0015476
1.0014663
1.0013595
1.0008663
1.0008671
1.0008692
1.0008726
1.0008769
1.0008823
1.0008889
1.0008964
1.0009051
1.0009148
1.0009256
1.0009374
1.0009502
1.0009637
1.0009782
1.0009934
1.0010095
1.0010265
1.0010443
1.001063
1.0010825
1.0011029
1.001124
1.0011461
1.001169
1.0011928
1.0012173
1.0012426
1.0012688
1.0012956
1.0013232
1.0013514
1.0013804
1.0014101
1.0014404
1.0014714
1.0015028
1.0015349
1.0015673
1.0016003
1.0016337
1.0016677
1.0017022
1.0017369
1.0017721
1.0018073
1.0018427
1.0018782
1.0019139
1.0019487
1.0019833
1.0020172
1.0020503
1.002083
1.0021148
1.0021461
1.0021768
1.0022072
1.002237
1.0022663
1.0022949
1.0023227
1.0023498
1.0023755
1.0024001
1.0024232
1.0024445
1.0024644
1.0024825
1.0024991
1.0025138
1.002527
1.0025381
1.0025474
1.0025547
1.00256
1.002563
1.0025638
1.0025639
1.0025619
1.0025559
1.0025477
1.0025368
1.0025227
1.0025051
1.0024843
1.002459
1.0024301
1.0023975
1.0023597
1.0023197
1.0022739
1.0022232
1.0021678
1.0021081
1.0020445
1.0019791
1.0019072
1.0018363
1.0017617
1.0016857
1.0016048
1.0015304
1.0014289
1.0008662
1.000867
1.0008691
1.0008724
1.0008767
1.0008821
1.0008886
1.0008962
1.0009048
1.0009144
1.0009251
1.0009368
1.0009495
1.0009631
1.0009775
1.0009928
1.0010089
1.0010258
1.0010436
1.0010623
1.0010818
1.0011021
1.0011232
1.0011453
1.0011681
1.0011918
1.0012163
1.0012416
1.0012677
1.0012944
1.001322
1.0013503
1.0013793
1.001409
1.0014392
1.0014703
1.0015016
1.0015338
1.0015664
1.0015996
1.0016331
1.0016671
1.0017017
1.0017364
1.0017716
1.0018071
1.0018426
1.0018782
1.0019139
1.0019486
1.0019832
1.0020169
1.0020502
1.0020827
1.0021147
1.002146
1.0021767
1.002207
1.0022369
1.0022662
1.0022949
1.0023227
1.0023496
1.0023755
1.0024001
1.0024237
1.0024456
1.0024659
1.0024845
1.0025014
1.0025164
1.0025299
1.0025414
1.0025512
1.002559
1.0025647
1.0025684
1.0025695
1.0025701
1.0025684
1.002563
1.0025554
1.0025451
1.0025317
1.0025149
1.0024952
1.0024713
1.0024439
1.0024129
1.0023772
1.0023388
1.0022956
1.0022494
1.0021976
1.0021414
1.0020812
1.0020211
1.0019536
1.0018866
1.0018152
1.0017446
1.0016695
1.0016014
1.0015023
1.0008661
1.0008669
1.000869
1.0008723
1.0008766
1.0008819
1.0008883
1.0008959
1.0009044
1.000914
1.0009245
1.0009362
1.0009488
1.0009623
1.0009768
1.0009921
1.0010082
1.0010251
1.0010429
1.0010615
1.001081
1.0011013
1.0011223
1.0011443
1.0011671
1.0011907
1.0012152
1.0012405
1.0012666
1.0012933
1.0013209
1.0013491
1.0013781
1.0014078
1.001438
1.001469
1.0015005
1.0015326
1.0015653
1.0015986
1.0016323
1.0016663
1.0017011
1.0017358
1.0017712
1.0018071
1.001843
1.0018788
1.0019143
1.0019494
1.001984
1.0020179
1.0020512
1.002084
1.002116
1.0021473
1.0021782
1.0022086
1.0022387
1.0022683
1.002297
1.0023249
1.0023519
1.0023779
1.0024029
1.0024264
1.0024484
1.0024689
1.0024878
1.002505
1.0025206
1.0025346
1.0025467
1.002557
1.0025655
1.0025719
1.0025764
1.0025786
1.0025794
1.0025787
1.0025742
1.0025674
1.0025586
1.0025462
1.0025303
1.0025115
1.0024889
1.0024629
1.0024339
1.0024004
1.0023648
1.0023234
1.0022801
1.0022317
1.0021807
1.0021253
1.00207
1.0020091
1.0019483
1.0018858
1.0018209
1.0017517
1.0016874
1.0015911
1.000866
1.0008668
1.0008689
1.0008722
1.0008764
1.0008817
1.0008881
1.0008955
1.000904
1.0009135
1.000924
1.0009356
1.0009481
1.0009616
1.000976
1.0009913
1.0010074
1.0010243
1.0010421
1.0010606
1.00108
1.0011003
1.0011214
1.0011432
1.001166
1.0011896
1.0012141
1.0012393
1.0012654
1.0012921
1.0013197
1.001348
1.001377
1.0014066
1.0014369
1.0014678
1.0014994
1.0015314
1.0015643
1.0015975
1.0016314
1.0016655
1.0017004
1.0017356
1.0017711
1.0018071
1.001843
1.0018788
1.0019143
1.0019493
1.001984
1.0020179
1.0020512
1.0020839
1.0021158
1.0021473
1.0021782
1.0022087
1.0022386
1.0022683
1.0022977
1.0023261
1.0023538
1.0023803
1.0024057
1.0024298
1.0024522
1.0024734
1.0024929
1.0025108
1.0025271
1.0025419
1.0025548
1.002566
1.0025755
1.0025828
1.0025885
1.0025919
1.0025934
1.0025934
1.0025896
1.002583
1.0025751
1.0025638
1.0025495
1.0025323
1.0025117
1.0024872
1.0024594
1.0024279
1.0023949
1.002357
1.0023173
1.0022725
1.0022258
1.0021764
1.002128
1.0020745
1.0020197
1.0019635
1.0019032
1.0018362
1.0017728
1.0016763
1.0008658
1.0008667
1.0008688
1.000872
1.0008762
1.0008814
1.0008877
1.0008952
1.0009036
1.000913
1.0009235
1.0009349
1.0009473
1.0009608
1.0009751
1.0009904
1.0010065
1.0010234
1.0010412
1.0010597
1.0010791
1.0010992
1.0011203
1.0011421
1.0011649
1.0011885
1.0012129
1.0012381
1.0012642
1.0012909
1.0013185
1.0013467
1.0013756
1.0014053
1.0014356
1.0014665
1.0014982
1.0015304
1.0015633
1.0015965
1.0016305
1.0016647
1.0016998
1.0017354
1.0017713
1.0018075
1.0018435
1.0018795
1.0019151
1.0019503
1.0019851
1.0020191
1.0020526
1.0020854
1.0021176
1.0021492
1.0021803
1.002211
1.0022412
1.002271
1.0023004
1.0023292
1.0023572
1.0023843
1.0024102
1.0024349
1.0024581
1.0024799
1.0025004
1.0025191
1.0025364
1.0025521
1.0025662
1.0025785
1.0025893
1.0025979
1.0026055
1.0026097
1.0026142
1.0026145
1.0026119
1.0026071
1.0026003
1.0025903
1.0025764
1.0025597
1.0025405
1.0025191
1.0024949
1.0024663
1.0024357
1.0024007
1.0023651
1.0023248
1.0022831
1.0022384
1.0021946
1.0021464
1.0020986
1.0020477
1.0019926
1.0019268
1.0018609
1.001762
1.0008657
1.0008666
1.0008686
1.0008718
1.0008759
1.0008811
1.0008874
1.0008948
1.0009031
1.0009125
1.0009229
1.0009342
1.0009466
1.0009599
1.0009743
1.0009895
1.0010056
1.0010225
1.0010402
1.0010587
1.001078
1.0010982
1.0011192
1.001141
1.0011638
1.0011873
1.0012117
1.0012368
1.0012629
1.0012896
1.0013172
1.0013453
1.0013743
1.001404
1.0014343
1.0014653
1.001497
1.0015293
1.0015621
1.0015954
1.0016295
1.0016641
1.0016994
1.0017353
1.0017714
1.0018077
1.0018438
1.0018798
1.0019155
1.0019507
1.0019852
1.0020192
1.0020527
1.0020856
1.002118
1.0021498
1.0021812
1.0022123
1.002243
1.0022736
1.0023036
1.0023331
1.0023618
1.0023897
1.0024164
1.0024418
1.0024661
1.0024888
1.0025103
1.0025301
1.0025487
1.0025657
1.0025813
1.0025953
1.0026077
1.0026182
1.0026278
1.0026335
1.0026407
1.0026425
1.0026414
1.0026377
1.0026235
1.0026216
1.0026148
1.0026011
1.0025841
1.0025651
1.0025434
1.0025184
1.0024901
1.0024577
1.0024241
1.0023867
1.0023481
1.0023079
1.0022686
1.0022255
1.0021823
1.0021352
1.0020831
1.0020176
1.0019405
1.0018344
1.0008656
1.0008665
1.0008685
1.0008716
1.0008757
1.0008808
1.0008871
1.0008943
1.0009027
1.0009119
1.0009223
1.0009335
1.0009459
1.0009591
1.0009734
1.0009886
1.0010047
1.0010215
1.0010392
1.0010577
1.0010769
1.001097
1.001118
1.0011398
1.0011625
1.001186
1.0012104
1.0012355
1.0012615
1.0012882
1.0013157
1.0013439
1.0013729
1.0014025
1.001433
1.0014639
1.0014957
1.0015279
1.0015608
1.0015943
1.0016286
1.0016637
1.0016992
1.0017354
1.0017716
1.0018079
1.0018441
1.0018801
1.0019158
1.001951
1.0019858
1.0020198
1.0020535
1.0020865
1.002119
1.0021511
1.0021829
1.0022147
1.0022461
1.0022774
1.0023083
1.0023386
1.0023682
1.002397
1.0024247
1.0024512
1.0024766
1.0025006
1.0025234
1.0025449
1.002565
1.0025838
1.0026013
1.0026173
1.0026316
1.0026446
1.0026558
1.0026655
1.0026725
1.0026805
1.0026723
1.0026738
1.0026726
1.002667
1.0026581
1.0026461
1.0026303
1.0026139
1.0025965
1.0025763
1.0025522
1.0025232
1.0024917
1.0024565
1.0024212
1.0023848
1.00235
1.0023127
1.002275
1.0022302
1.0021797
1.0021092
1.0020204
1.0018908
1.0008654
1.0008663
1.0008683
1.0008714
1.0008754
1.0008805
1.0008867
1.0008939
1.0009021
1.0009114
1.0009216
1.0009328
1.0009451
1.0009583
1.0009725
1.0009876
1.0010036
1.0010204
1.0010381
1.0010565
1.0010758
1.0010958
1.0011168
1.0011385
1.0011612
1.0011846
1.001209
1.0012341
1.0012601
1.0012867
1.0013143
1.0013425
1.0013715
1.0014011
1.0014316
1.0014626
1.0014943
1.0015267
1.0015598
1.0015936
1.0016283
1.0016636
1.0016994
1.0017354
1.0017719
1.0018079
1.0018443
1.0018803
1.0019159
1.0019511
1.0019857
1.0020199
1.0020536
1.002087
1.0021201
1.002153
1.0021856
1.0022182
1.0022505
1.0022828
1.0023148
1.0023462
1.0023769
1.002407
1.0024359
1.0024638
1.0024906
1.0025163
1.0025408
1.0025641
1.0025864
1.0026073
1.002627
1.0026456
1.0026626
1.0026783
1.0026917
1.0027053
1.0027132
1.0027247
1.0027238
1.0027247
1.0027247
1.0027219
1.0027163
1.0027073
1.0026939
1.002679
1.0026623
1.002644
1.0026229
1.0025978
1.0025693
1.0025367
1.0025032
1.0024686
1.0024356
1.0024009
1.0023652
1.00232
1.0022653
1.0021857
1.0020342
1.0018694
1.0008653
1.0008662
1.0008681
1.0008711
1.0008751
1.0008801
1.0008862
1.0008934
1.0009016
1.0009108
1.0009209
1.0009321
1.0009442
1.0009574
1.0009715
1.0009865
1.0010025
1.0010193
1.0010369
1.0010553
1.0010745
1.0010946
1.0011155
1.0011372
1.0011598
1.0011832
1.0012075
1.0012326
1.0012586
1.0012853
1.0013128
1.001341
1.00137
1.0013997
1.0014302
1.0014614
1.0014931
1.0015257
1.001559
1.0015932
1.0016282
1.0016637
1.0016996
1.0017356
1.0017722
1.0018084
1.0018448
1.0018808
1.0019166
1.0019519
1.0019867
1.0020213
1.0020553
1.0020891
1.0021227
1.0021562
1.0021897
1.0022232
1.0022567
1.0022903
1.0023236
1.0023564
1.0023885
1.00242
1.0024505
1.0024803
1.0025089
1.0025365
1.002563
1.0025887
1.0026134
1.0026371
1.0026595
1.0026808
1.0027005
1.0027189
1.0027358
1.00275
1.0027638
1.0027753
1.0027842
1.0027843
1.0027848
1.0027836
1.0027787
1.0027703
1.0027631
1.0027506
1.0027343
1.0027177
1.0026979
1.0026757
1.0026502
1.0026212
1.0025899
1.0025558
1.0025213
1.0024826
1.0024403
1.0023799
1.0022935
1.0021807
1.0019841
1.001807
1.0008651
1.000866
1.0008679
1.0008709
1.0008748
1.0008797
1.0008858
1.0008929
1.000901
1.0009101
1.0009202
1.0009313
1.0009433
1.0009564
1.0009704
1.0009854
1.0010014
1.0010181
1.0010356
1.001054
1.0010732
1.0010932
1.001114
1.0011358
1.0011583
1.0011818
1.001206
1.0012311
1.0012571
1.0012837
1.0013113
1.0013395
1.0013686
1.0013984
1.0014289
1.0014602
1.0014921
1.0015249
1.0015586
1.0015931
1.0016283
1.0016639
1.0016999
1.0017361
1.0017727
1.001809
1.0018456
1.0018816
1.0019175
1.0019529
1.0019879
1.0020226
1.0020572
1.0020917
1.0021261
1.0021606
1.0021954
1.0022303
1.0022654
1.0023005
1.0023352
1.0023698
1.0024037
1.0024369
1.0024694
1.0025011
1.0025319
1.0025621
1.0025913
1.0026197
1.002647
1.0026735
1.0026987
1.0027228
1.0027455
1.0027662
1.0027866
1.0028019
1.0028217
1.0028308
1.0028487
1.0028511
1.0028519
1.0028504
1.0028443
1.0028394
1.0028318
1.002825
1.0028102
1.0027915
1.00277
1.0027467
1.0027203
1.0026909
1.002659
1.0026212
1.0025761
1.0025198
1.0024489
1.0023685
1.0022557
1.002123
1.0018805
1.0016783
1.0008649
1.0008659
1.0008677
1.0008706
1.0008744
1.0008793
1.0008853
1.0008923
1.0009003
1.0009094
1.0009194
1.0009304
1.0009424
1.0009554
1.0009693
1.0009842
1.0010001
1.0010168
1.0010343
1.0010527
1.0010718
1.0010918
1.0011125
1.0011343
1.0011568
1.0011802
1.0012044
1.0012295
1.0012554
1.0012822
1.0013097
1.0013381
1.0013671
1.001397
1.0014275
1.0014591
1.0014912
1.0015245
1.0015585
1.0015933
1.0016285
1.0016643
1.0017005
1.0017369
1.0017736
1.00181
1.0018466
1.0018827
1.0019188
1.0019544
1.0019898
1.0020251
1.0020604
1.0020958
1.0021315
1.0021674
1.0022039
1.0022405
1.0022773
1.0023142
1.0023509
1.0023873
1.0024233
1.0024587
1.0024936
1.0025278
1.0025611
1.0025937
1.0026256
1.0026566
1.0026869
1.0027161
1.0027443
1.0027709
1.0027961
1.0028191
1.0028413
1.0028587
1.0028795
1.0028917
1.0029092
1.0029212
1.0029147
1.0029159
1.0029107
1.0028887
1.002896
1.002887
1.00287
1.0028505
1.002825
1.0027936
1.0027561
1.0027148
1.0026692
1.0026203
1.002563
1.0024923
1.0023976
1.0022934
1.0021372
1.0019796
1.0016898
1.001474
1.0008647
1.0008657
1.0008675
1.0008703
1.0008741
1.0008789
1.0008847
1.0008917
1.0008996
1.0009086
1.0009185
1.0009295
1.0009413
1.0009543
1.0009682
1.000983
1.0009988
1.0010154
1.0010329
1.0010512
1.0010703
1.0010902
1.001111
1.0011327
1.0011551
1.0011786
1.0012028
1.0012279
1.0012538
1.0012806
1.0013082
1.0013366
1.0013657
1.0013958
1.0014265
1.0014582
1.0014909
1.0015245
1.0015587
1.0015936
1.0016291
1.0016651
1.0017015
1.0017381
1.0017749
1.0018115
1.0018482
1.0018845
1.0019209
1.001957
1.001993
1.0020292
1.0020656
1.0021024
1.0021396
1.0021774
1.0022157
1.0022543
1.0022932
1.0023323
1.0023713
1.00241
1.0024485
1.0024862
1.0025234
1.00256
1.0025957
1.002631
1.0026654
1.002699
1.0027318
1.0027634
1.0027936
1.0028228
1.0028492
1.0028739
1.0028962
1.0029158
1.002934
1.0029491
1.0029684
1.0029758
1.0029696
1.0029679
1.0029631
1.0029562
1.00294
1.002916
1.0028874
1.0028548
1.0028201
1.0027801
1.0027344
1.0026845
1.002627
1.0025652
1.0024824
1.0023912
1.0022564
1.0021261
1.0019177
1.0017422
1.0014099
1.001203
1.0008646
1.0008655
1.0008673
1.00087
1.0008737
1.0008784
1.0008842
1.000891
1.0008989
1.0009078
1.0009176
1.0009285
1.0009402
1.0009531
1.0009669
1.0009817
1.0009974
1.0010139
1.0010314
1.0010496
1.0010686
1.0010886
1.0011093
1.001131
1.0011535
1.0011769
1.0012011
1.0012263
1.0012521
1.001279
1.0013066
1.0013352
1.0013644
1.0013947
1.0014256
1.0014578
1.0014908
1.0015246
1.0015591
1.0015943
1.0016301
1.0016664
1.001703
1.0017398
1.0017767
1.0018137
1.0018505
1.0018874
1.0019241
1.001961
1.0019982
1.0020355
1.0020735
1.0021121
1.0021512
1.0021911
1.0022316
1.0022726
1.0023141
1.0023556
1.0023971
1.0024382
1.0024787
1.002519
1.0025583
1.0025972
1.002635
1.0026725
1.0027088
1.0027445
1.0027789
1.0028126
1.0028439
1.002874
1.0029004
1.0029249
1.0029457
1.0029647
1.0029794
1.0029949
1.0030072
1.003009
1.0030038
1.0029918
1.0029723
1.0029491
1.0029197
1.002886
1.0028471
1.0028058
1.0027579
1.0027065
1.0026444
1.00258
1.0025
1.00242
1.0023078
1.0021955
1.0020195
1.0018642
1.0016109
1.0014228
1.0010697
1.0008821
1.0008644
1.0008653
1.000867
1.0008696
1.0008732
1.0008778
1.0008835
1.0008903
1.0008981
1.0009069
1.0009166
1.0009274
1.0009391
1.0009519
1.0009656
1.0009803
1.0009959
1.0010124
1.0010298
1.001048
1.001067
1.0010869
1.0011076
1.0011292
1.0011518
1.0011752
1.0011994
1.0012246
1.0012505
1.0012775
1.0013051
1.0013339
1.0013633
1.0013938
1.0014253
1.0014578
1.0014911
1.0015252
1.00156
1.0015956
1.0016316
1.0016682
1.0017051
1.0017421
1.0017793
1.0018168
1.001854
1.0018915
1.0019291
1.0019672
1.0020058
1.0020449
1.0020848
1.0021255
1.002167
1.0022095
1.0022527
1.0022964
1.0023402
1.0023842
1.0024277
1.002471
1.0025139
1.0025558
1.0025971
1.0026375
1.0026767
1.0027154
1.0027527
1.0027896
1.0028246
1.0028588
1.0028903
1.0029191
1.0029431
1.0029656
1.0029823
1.0029953
1.0030076
1.0030161
1.0030094
1.0030018
1.0029811
1.0029578
1.0029262
1.0028858
1.0028426
1.0027931
1.0027395
1.0026836
1.0026203
1.0025521
1.0024708
1.0023882
1.0022818
1.0021833
1.0020434
1.0019111
1.001706
1.0015301
1.0012518
1.0010569
1.0007073
1.0005401
1.0008642
1.0008651
1.0008667
1.0008693
1.0008728
1.0008773
1.0008829
1.0008895
1.0008972
1.0009059
1.0009155
1.0009262
1.0009379
1.0009506
1.0009642
1.0009788
1.0009944
1.0010108
1.0010281
1.0010462
1.0010652
1.0010851
1.0011058
1.0011274
1.0011499
1.0011734
1.0011976
1.0012229
1.0012488
1.0012759
1.0013038
1.0013328
1.0013625
1.0013934
1.0014254
1.0014582
1.0014919
1.0015262
1.0015614
1.0015974
1.0016338
1.0016707
1.001708
1.0017455
1.0017831
1.0018212
1.0018592
1.0018977
1.0019367
1.0019764
1.0020169
1.0020582
1.0021004
1.0021438
1.0021881
1.0022332
1.002279
1.0023251
1.0023713
1.0024172
1.0024628
1.0025078
1.0025518
1.0025949
1.0026368
1.0026777
1.0027171
1.0027556
1.0027925
1.0028289
1.0028635
1.0028962
1.0029251
1.0029512
1.0029679
1.0029867
1.0030007
1.0029959
1.0029922
1.0029837
1.0029635
1.0029409
1.0029047
1.0028626
1.0028146
1.0027586
1.0026992
1.0026343
1.0025651
1.002491
1.0024104
1.0023247
1.0022226
1.0021194
1.0019936
1.001872
1.001715
1.0015632
1.0013478
1.0011563
1.0008777
1.0006807
1.0003486
1.0002027
1.000864
1.0008649
1.0008664
1.0008689
1.0008723
1.0008767
1.0008822
1.0008887
1.0008963
1.0009049
1.0009144
1.000925
1.0009366
1.0009492
1.0009628
1.0009773
1.0009927
1.001009
1.0010263
1.0010444
1.0010633
1.0010832
1.0011039
1.0011255
1.001148
1.0011715
1.0011957
1.0012211