-0.5 	1.0298632
-0.48412699 	1.0684149
-0.46825397 	0.96353118
-0.45238095 	0.97754313
-0.43650794 	1.0165984
-0.42063492 	0.98016522
-0.40476191 	0.93434375
-0.3888889 	0.93198258
-0.37301588 	0.95397241
-0.35714287 	0.96917152
-0.34126985 	0.96673974
-0.32539684 	0.9576642
-0.30952379 	0.95562458
-0.29365078 	0.96062613
-0.27777776 	0.96490797
-0.26190475 	0.96409239
-0.24603173 	0.96059039
-0.23015872 	0.95755432
-0.2142857 	0.95638873
-0.19841269 	0.95716532
-0.18253967 	0.96082661
-0.16666666 	0.96860681
-0.15079364 	0.97961837
-0.13492063 	0.9892213
-0.11904758 	0.99083425
-0.10317457 	0.981654
-0.087301552 	0.96583076
-0.071428537 	0.95077121
-0.055555522 	0.94286938
-0.039682507 	0.94358932
-0.023809493 	0.95011672
-0.0079364777 	0.95844134
0.0079365373 	0.96346432
0.023809552 	0.96119331
0.039682567 	0.95186813
0.055555582 	0.94053823
0.071428597 	0.93506019
0.087301612 	0.94195307
0.10317463 	0.9624846
0.11904764 	0.9911628
0.13492066 	1.0165937
0.15079367 	1.0262544
0.16666669 	1.0148578
0.1825397 	0.98753171
0.19841272 	0.95796439
0.21428573 	0.94104501
0.23015875 	0.94431364
0.24603176 	0.96379614
0.26190484 	0.98635225
0.27777785 	0.99900659
0.29365087 	0.99670486
0.30952388 	0.9856243
0.3253969 	0.97497807
0.34126991 	0.97002039
0.35714292 	0.97498178
0.37301594 	0.98653431
0.38888895 	0.99579711
0.40476197 	0.99288371
0.42063499 	0.982867
0.436508 	0.98578473
0.45238101 	0.99984804
0.46825403 	1.0042266
0.48412704 	0.99073526
0.5 	0.99463427
