/*--------------------------------*- C++ -*----------------------------------*\
| =========                 |                                                 |
| \\      /  F ield         | OpenFOAM: The Open Source CFD Toolbox           |
|  \\    /   O peration     | Version:  2406                                  |
|   \\  /    A nd           | Website:  www.openfoam.com                      |
|    \\/     M anipulation  |                                                 |
\*---------------------------------------------------------------------------*/
FoamFile
{
    version     2.0;
    format      ascii;
    arch        "LSB;label=32;scalar=64";
    class       volScalarField;
    location    "15";
    object      omega;
}
// * * * * * * * * * * * * * * * * * * * * * * * * * * * * * * * * * * * * * //

dimensions      [0 0 -1 0 0 0 0];

internalField   nonuniform List<scalar> 
20580
(
3.5304266
2.7435529
2.255744
1.9357856
1.7068507
1.536014
1.400177
1.2865554
1.1943376
1.1191874
1.0596464
1.0117129
0.97208324
0.93761342
0.90569902
0.8753178
0.84688144
0.81940695
0.79638704
0.774367
0.75693416
0.74376546
0.7330548
0.72385166
0.72087228
0.72149261
0.72393202
0.72841604
0.73564973
0.74858633
0.7725158
3.5393205
2.7507592
2.2636499
1.9453243
1.7151924
1.5433143
1.4069285
1.2925797
1.1999217
1.1243022
1.0640933
1.0158882
0.97603365
0.94207958
0.91073226
0.88066781
0.85213304
0.82438235
0.80003577
0.77745015
0.75948736
0.74641818
0.73585128
0.72747599
0.72297095
0.7231278
0.72402468
0.72812914
0.73233938
0.73914813
0.75937742
3.5423906
2.7537604
2.2692819
1.9497373
1.7215619
1.5502741
1.4136451
1.2997491
1.2059343
1.129395
1.068243
1.0196272
0.9798713
0.94590547
0.91485762
0.88512729
0.85681279
0.82938257
0.80479917
0.78199138
0.762383
0.74871372
0.73746827
0.72926134
0.72417915
0.72420043
0.72422161
0.72680003
0.73124466
0.73507949
0.74954961
3.5403931
2.7523501
2.2688389
1.949461
1.7238551
1.5546376
1.4183777
1.3046867
1.2106358
1.1338733
1.0726326
1.0239821
0.98395077
0.94988477
0.91899993
0.88981331
0.86132526
0.83494105
0.80954647
0.78696088
0.76621187
0.75107114
0.73906155
0.72960172
0.72395834
0.72391775
0.72389508
0.72521609
0.72995055
0.73396556
0.74400343
3.5408892
2.7538638
2.2687206
1.9510191
1.7274246
1.5591586
1.4219201
1.308743
1.2153821
1.1393091
1.0780454
1.0289986
0.98867654
0.95445606
0.92370514
0.89488156
0.86644884
0.8404206
0.81490587
0.79208129
0.77093277
0.75475379
0.74158941
0.7309576
0.72343921
0.72188494
0.72207416
0.72250942
0.72667081
0.73181987
0.74037943
3.5463423
2.7588734
2.2710567
1.9585909
1.7337951
1.5628551
1.4245357
1.3125337
1.2197254
1.1438977
1.0826002
1.0332645
0.9929715
0.95854521
0.92794433
0.89934168
0.87107978
0.84548126
0.81991379
0.7969421
0.77592129
0.75805453
0.74488414
0.73380274
0.72462552
0.72028325
0.72001663
0.72051687
0.7229728
0.72703531
0.73460452
3.5518843
2.7663799
2.2790831
1.9655611
1.7387148
1.5665145
1.4288933
1.3164944
1.2236111
1.1475247
1.0865035
1.0371025
0.99675314
0.96238406
0.9318205
0.9035329
0.87539935
0.84950021
0.82416821
0.80089023
0.78049994
0.76164912
0.74712011
0.7366528
0.72703496
0.72048777
0.71903565
0.71983508
0.72099729
0.7233605
0.73006921
3.5528623
2.7694391
2.2822541
1.9636646
1.7375117
1.5667157
1.4315859
1.3194083
1.2271429
1.1515798
1.0903871
1.0408274
1.0003963
0.96628714
0.93574817
0.90729376
0.87970871
0.85352245
0.82831459
0.80490005
0.7843975
0.76534135
0.74952284
0.73874274
0.72961135
0.72176709
0.71821452
0.71848863
0.71938999
0.7208959
0.72646806
3.5539729
2.771276
2.2846622
1.9641966
1.7379465
1.5684481
1.4341319
1.3232117
1.2317811
1.1564559
1.0947324
1.0447127
1.0038957
0.96949243
0.93894297
0.9106652
0.88331742
0.8572857
0.83224178
0.8087516
0.78804554
0.76883455
0.75255131
0.74109402
0.73135701
0.72298081
0.71856979
0.71673812
0.71715194
0.71766349
0.72123983
3.5611528
2.7798677
2.289702
1.9707236
1.7431239
1.5724095
1.4381533
1.3274733
1.2357805
1.159751
1.0979785
1.0478223
1.0066561
0.9721411
0.94178857
0.9133755
0.88662522
0.86075875
0.83565497
0.81298703
0.79188212
0.7725606
0.75576939
0.74391624
0.734248
0.72497183
0.71934147
0.71627522
0.71596
0.71552469
0.71754264
3.5758265
2.798496
2.3041414
1.985796
1.7540926
1.5812875
1.4462423
1.3336052
1.24014
1.1632221
1.1008346
1.0507824
1.0095305
0.97521672
0.94499782
0.91655775
0.89030336
0.86486238
0.84016421
0.81752046
0.7961113
0.77706778
0.75996898
0.74691768
0.73659446
0.72788107
0.72044932
0.71664953
0.71568577
0.71480982
0.715789
3.5745492
2.8062085
2.3143515
1.9928033
1.76206
1.5908113
1.4540184
1.3407925
1.2466367
1.1689444
1.1054069
1.054368
1.01278
0.97798809
0.94798452
0.91997002
0.89420849
0.86922135
0.84454129
0.82217829
0.80041002
0.78179896
0.76456912
0.74990627
0.73890764
0.73031513
0.72269611
0.71708378
0.71546558
0.71500028
0.71584389
3.5713533
2.8041483
2.3147195
1.992577
1.7646656
1.5955505
1.4582172
1.3461893
1.2522276
1.1739631
1.1102958
1.0582781
1.0162594
0.98113874
0.95116631
0.9236597
0.89800635
0.87357369
0.84920062
0.82722446
0.80504256
0.78638069
0.76941172
0.7540463
0.74154984
0.7328776
0.72476524
0.71800889
0.71480323
0.71438349
0.71534835
3.5758965
2.8100741
2.3172067
1.9965056
1.7688456
1.5984627
1.4615142
1.3494397
1.2549574
1.1764294
1.1128478
1.0607487
1.0191042
0.98436603
0.95443197
0.92732718
0.90190643
0.87723066
0.85419146
0.83132665
0.80984094
0.79044528
0.7738426
0.758199
0.74445331
0.73521141
0.72723739
0.72028482
0.71503353
0.7132882
0.71366707
3.591472
2.8304487
2.3303961
2.0104544
1.7789036
1.6058343
1.4687031
1.3548121
1.258865
1.1796843
1.1153856
1.0628415
1.0213253
0.98654977
0.95674406
0.93032449
0.90520212
0.88109929
0.85788077
0.8358077
0.81398211
0.79449429
0.77702165
0.76242943
0.74793448
0.7376925
0.7301467
0.7234377
0.71706228
0.71373633
0.71345251
3.5904388
2.8394369
2.3421092
2.0212078
1.7884088
1.6159321
1.478706
1.3642489
1.2671669
1.1868429
1.1208646
1.0674289
1.0246624
0.98942642
0.95949906
0.93298121
0.90837474
0.88460261
0.86174416
0.83977755
0.8187974
0.79833585
0.78086766
0.76596
0.75256296
0.74058959
0.73253293
0.72594382
0.72058096
0.71601243
0.71427644
3.5893648
2.8323908
2.3410473
2.0184011
1.7884348
1.6173751
1.4813986
1.3680524
1.271894
1.1915454
1.1252932
1.0715666
1.0288036
0.99326727
0.96357366
0.93654578
0.91274331
0.88829529
0.86641193
0.84312229
0.82343977
0.80238462
0.78575283
0.76982703
0.75674639
0.74314679
0.73461959
0.72830387
0.72258231
0.71725501
0.71408851
3.5897329
2.8322357
2.3426928
2.0203096
1.7910153
1.6188858
1.4831189
1.3695746
1.2736212
1.1934353
1.1270778
1.0737198
1.0307379
0.99543271
0.96592874
0.93883994
0.91534462
0.89209094
0.86974934
0.84744314
0.82767218
0.80650729
0.78860841
0.77381535
0.76039611
0.74614277
0.73553761
0.72915005
0.7235418
0.71762707
0.71291428
3.606584
2.8539495
2.3570638
2.0368235
1.8033962
1.6298152
1.4922475
1.3770075
1.2801175
1.1986598
1.1313989
1.077616
1.0341264
0.99834319
0.96854555
0.94179145
0.91855818
0.89562767
0.87357541
0.8516629
0.83198089
0.81139552
0.79325008
0.77855459
0.76473315
0.75034067
0.73930963
0.73192043
0.72591418
0.71975996
0.71411509
3.6083682
2.8712149
2.376856
2.0617172
1.8260111
1.6557177
1.5184118
1.4022331
1.3052066
1.2204739
1.1499237
1.0944492
1.0482028
1.0123416
0.98077226
0.95289471
0.93152815
0.90932436
0.88564302
0.86605176
0.84786489
0.82290662
0.80517364
0.79675109
0.78195054
0.76329636
0.75183368
0.74453387
0.73713965
0.73112344
0.72305157
3.6584469
2.9542598
2.4817325
2.1892527
1.9487927
1.7857051
1.650272
1.5255305
1.4324165
1.3309673
1.2518584
1.1926107
1.1378398
1.1007345
1.058428
1.0319054
1.0152727
0.99593965
0.96901971
0.95439753
0.93257354
0.9009913
0.89157008
0.88800677
0.87729078
0.84679873
0.83201618
0.8215577
0.79974274
0.79027909
0.7703871
4.0052798
3.7340205
3.4172912
3.26968
3.0655042
2.921078
2.7274999
2.5680509
2.4778205
2.3143292
2.2276771
2.1207607
2.048696
1.9665237
1.8903643
1.8771661
1.917105
1.8689896
1.7985717
1.7796711
1.7137219
1.6590858
1.7298005
1.8481335
1.7698039
1.6009223
1.6008769
1.5800985
1.5124931
1.4655273
1.3477196
12.662327
12.237182
11.754873
11.090527
10.602908
10.032214
9.7038209
9.23718
8.905576
8.592987
8.1617202
7.9809019
7.6409867
7.4563538
7.1681758
6.9364705
6.7825302
6.6393683
6.4922373
6.3596335
6.2488737
6.1152661
6.0106341
5.9534496
5.9031601
5.7543533
5.6577147
5.6142154
5.488004
5.4476725
5.3238465
5.5281852
1.5359782
0.78716263
0.72362549
0.71300036
0.71125947
0.71368064
0.71447121
0.71371512
0.71403751
0.71580928
0.71705413
0.71761447
0.72038223
0.7245877
0.7290013
0.73374043
0.73910426
0.745189
0.74903853
0.75539843
0.76554118
0.77480878
6.1705836
1.6049153
0.81455055
0.72849646
0.7149715
0.71312762
0.71441739
0.71506248
0.71422693
0.71465273
0.71646661
0.71841372
0.72027111
0.72364581
0.7279131
0.73230154
0.73691219
0.74208788
0.74858764
0.75489106
0.76046349
0.77034684
0.77713719
6.7443283
1.6824629
0.8355429
0.73432967
0.71765921
0.71506533
0.71566452
0.71710511
0.71760785
0.71782244
0.71876109
0.7212795
0.72453406
0.72715255
0.72938404
0.73404475
0.73948861
0.74653196
0.75355311
0.76082447
0.76649006
0.77740265
0.78336757
7.4607762
1.9647099
0.88351953
0.74492813
0.72060634
0.71644822
0.71716036
0.7203338
0.72166721
0.72213183
0.72312215
0.72589591
0.7295435
0.73307559
0.73384834
0.73834552
0.74477424
0.75062663
0.75725942
0.7651987
0.77248675
0.78500506
0.79543639
8.2246882
2.0967957
0.92724448
0.75795474
0.72625478
0.72033525
0.72098975
0.72365827
0.72748907
0.72816354
0.72908127
0.73232959
0.73557049
0.73878024
0.74055319
0.74406051
0.75278636
0.75902257
0.76247004
0.77003741
0.77718662
0.78983336
0.80314873
9.0879155
2.2359409
0.97183639
0.77699746
0.7347064
0.72763044
0.72844675
0.7304681
0.73330863
0.7337698
0.73389581
0.73640751
0.74096273
0.74516936
0.74872729
0.75175617
0.75776239
0.76552927
0.77111608
0.77885234
0.78470688
0.79354696
0.80781525
10.043508
2.4592697
1.0302431
0.79814938
0.74538962
0.73559549
0.73532797
0.73708685
0.7406559
0.74200282
0.74144039
0.74162874
0.74432755
0.74916852
0.75343251
0.75729387
0.76302182
0.77116025
0.77742484
0.78609469
0.79186307
0.79871788
0.8125343
11.095353
2.7122698
1.0876089
0.81985526
0.75765878
0.7443724
0.74291448
0.74403465
0.74663578
0.74874109
0.7495984
0.75029695
0.75240026
0.75675947
0.76106766
0.76370476
0.76723896
0.77417189
0.78141005
0.79165361
0.79845474
0.80542674
0.81982647
12.214456
2.9045406
1.1290427
0.83695338
0.76870765
0.75037532
0.74732822
0.7487465
0.75293067
0.75616226
0.75717917
0.75775952
0.75913214
0.76355003
0.76941482
0.77294442
0.77609464
0.78072932
0.78519309
0.79483394
0.80309525
0.80996475
0.82345734
13.417862
3.0733838
1.1665539
0.85125484
0.7796289
0.75785525
0.75380146
0.75438958
0.75805111
0.76229647
0.76417867
0.76496929
0.76649117
0.77129861
0.77718571
0.78002345
0.78240339
0.78788877
0.79282712
0.80181643
0.80977554
0.81470901
0.82502223
14.697635
3.3085928
1.2125416
0.86326253
0.78866829
0.76577523
0.76182016
0.76234916
0.76519342
0.76821364
0.76963182
0.77045724
0.7717995
0.77586729
0.78258549
0.78704144
0.79008046
0.79493311
0.80037312
0.80862768
0.81656787
0.82124221
0.82902943
15.978882
3.5706669
1.2634594
0.87613141
0.79856317
0.77413387
0.76962822
0.77049783
0.77293677
0.77451807
0.77526969
0.776365
0.77757409
0.78021173
0.78646276
0.79155878
0.79500736
0.79968023
0.80540101
0.81383657
0.82372159
0.82949006
0.83441624
17.20597
3.8509932
1.3259138
0.89362706
0.80992518
0.78329647
0.77692923
0.77670843
0.7784675
0.78054121
0.78170625
0.78185772
0.78274806
0.78527638
0.79110289
0.79632428
0.79924878
0.80256593
0.80682968
0.81543466
0.82600689
0.83386178
0.84056112
18.335333
4.1469507
1.4178503
0.92130571
0.82037856
0.79020286
0.78271126
0.7817188
0.78275246
0.78469071
0.78601548
0.78636635
0.7875097
0.79024552
0.79569179
0.80068251
0.80373233
0.80614863
0.8098492
0.81707245
0.82801626
0.83654402
0.84298436
19.319867
4.3639454
1.4865084
0.94677446
0.83155032
0.79728558
0.78796865
0.7862698
0.78747682
0.78848023
0.78885452
0.78979454
0.79180202
0.79460531
0.80046541
0.80633558
0.81011555
0.81171046
0.81345654
0.81911988
0.83013875
0.84043489
0.84640246
20.087967
4.5657633
1.5444192
0.96533596
0.84163211
0.8044313
0.79238193
0.78990502
0.79185056
0.79271788
0.79181368
0.7921479
0.79442241
0.79845974
0.80574894
0.81192874
0.81451745
0.81505541
0.81584964
0.82075874
0.83299807
0.8438921
0.84832769
20.611187
4.6992779
1.5872822
0.97597955
0.84609258
0.80848618
0.79555352
0.793576
0.79533552
0.79570552
0.79439891
0.79439614
0.79756995
0.8027291
0.80931358
0.81349091
0.81627473
0.81789453
0.81901299
0.82390963
0.83710863
0.84706181
0.85093515
20.822845
4.7722622
1.5861108
0.97536727
0.84717695
0.81060715
0.79752294
0.79466858
0.79591313
0.79619669
0.79518936
0.7955887
0.79927596
0.80468747
0.81049942
0.81397504
0.81611174
0.81773431
0.82020382
0.82698664
0.83907887
0.8477797
0.85312296
20.862353
4.9084678
1.5917875
0.96734907
0.84406963
0.81053209
0.79863042
0.79572889
0.79605259
0.79612868
0.79541675
0.79630312
0.80045735
0.80530387
0.81039323
0.81419223
0.81672768
0.81766613
0.81988161
0.82711494
0.84119862
0.85049701
0.85474087
20.369487
4.9278335
1.5882885
0.95588332
0.83745127
0.80877836
0.79848554
0.79583543
0.79597018
0.79519541
0.79451907
0.79632261
0.80099716
0.80576586
0.81048218
0.81457291
0.8171978
0.81788309
0.82006465
0.82908403
0.84498726
0.85342741
0.85692042
19.896
4.6595382
1.4929044
0.93058544
0.831547
0.80750963
0.79851392
0.79608091
0.7956329
0.79396832
0.79306368
0.79541284
0.80081668
0.8063288
0.81142196
0.81524604
0.81730904
0.81857479
0.8227559
0.83493161
0.84907611
0.85577917
0.85883315
19.165647
4.6913782
1.4649608
0.91442778
0.82980484
0.80785427
0.79902775
0.79620657
0.79525355
0.79393052
0.79353869
0.79638049
0.80248203
0.8099158
0.81476285
0.81671763
0.81759218
0.82021577
0.82937469
0.84201885
0.85224985
0.85625894
0.86000186
17.996114
4.6090439
1.4287664
0.90028468
0.82697912
0.80766543
0.79903772
0.79593075
0.79527145
0.79572729
0.79703714
0.80074225
0.80857134
0.81508073
0.81799382
0.81884539
0.8194539
0.82566412
0.83571747
0.84928369
0.85579374
0.85897141
0.86645126
17.043499
4.138363
1.3052685
0.87343393
0.81792625
0.80460309
0.79817961
0.79553667
0.79475755
0.79538755
0.79775202
0.80388536
0.81302221
0.81660201
0.81837175
0.81950935
0.82329703
0.83261481
0.846615
0.85586964
0.86039955
0.86556313
0.87665475
15.921747
4.0985988
1.2736084
0.86008916
0.81180407
0.80116247
0.79671771
0.7942297
0.79256967
0.7930255
0.79758201
0.80711069
0.81333087
0.81584876
0.81763528
0.82015685
0.82743503
0.84092571
0.8527048
0.85815749
0.86290688
0.87212039
0.89039003
14.649502
3.8543306
1.2119133
0.84968066
0.80920559
0.80027374
0.7964073
0.79298995
0.79174158
0.7928763
0.79922424
0.80957869
0.81302652
0.81489109
0.81696038
0.82177122
0.8331169
0.84755412
0.85389149
0.85840285
0.86715509
0.88538285
0.92373623
13.60092
3.5397912
1.1456136
0.84046615
0.80810031
0.80021741
0.79677302
0.79346693
0.79234784
0.79421523
0.80453987
0.8112671
0.81320633
0.81462408
0.81783963
0.8268709
0.84278703
0.85063366
0.85521856
0.86324433
0.88278858
0.91921993
0.93899309
12.336316
3.4704925
1.113152
0.83583424
0.80832578
0.80069889
0.79697947
0.79445023
0.79389971
0.79771651
0.80883913
0.81323013
0.81473915
0.81624687
0.82227747
0.8370291
0.8481107
0.85316891
0.86057361
0.87746995
0.90957992
0.93120081
0.95255778
11.33595
3.1160487
1.0583484
0.83240158
0.80770776
0.80043914
0.79731506
0.79614372
0.79825563
0.80704979
0.81322149
0.81487887
0.81642627
0.82012709
0.83024117
0.84526637
0.85211568
0.85887518
0.87346314
0.90434403
0.93138978
0.95521636
0.9841478
10.301658
2.977316
1.0184957
0.82942111
0.80619673
0.7999722
0.79842763
0.79902609
0.80303128
0.81275422
0.81506369
0.8152908
0.81774538
0.826041
0.84303038
0.85247821
0.85877905
0.87145304
0.90058636
0.9305106
0.95520762
0.9838495
1.0192792
9.3077357
2.5251551
0.95459639
0.82284255
0.8063329
0.80217613
0.8012075
0.8016907
0.80883344
0.81542002
0.81674895
0.81933992
0.82609239
0.83929712
0.85257348
0.85914721
0.87137335
0.90009786
0.93207046
0.95244763
0.98072407
1.0203571
1.0860388
8.6265075
2.231365
0.92300364
0.82176399
0.80789153
0.80366703
0.80231306
0.80392825
0.81217789
0.8167947
0.8202967
0.82637305
0.83501372
0.84872716
0.86103546
0.87265805
0.90358484
0.93430741
0.95422882
0.97887179
1.0190411
1.0934815
1.2407515
7.7696718
2.1926254
0.90916036
0.82156247
0.80941661
0.80763916
0.80880681
0.81461528
0.82207887
0.82505058
0.83079083
0.84322094
0.85570882
0.86853666
0.88379622
0.90736916
0.93296871
0.95506772
0.98329892
1.0281306
1.1078841
1.2691161
1.6217038
7.172812
2.097842
0.90521567
0.82666694
0.81602687
0.81422616
0.81616644
0.82560887
0.83122965
0.83454287
0.84285825
0.85564287
0.86777176
0.88387559
0.90454478
0.93145053
0.95968547
0.99332564
1.0492786
1.152424
1.3542797
1.7673167
2.6496439
6.4671036
1.8737348
0.88064039
0.83352269
0.82791588
0.82766408
0.83274973
0.84270606
0.8477047
0.85293813
0.86701553
0.88270416
0.89920126
0.92721207
0.95692967
0.99576903
1.0602041
1.170041
1.3752239
1.759647
2.4410871
3.4623082
4.797803
6.3463906
1.7334194
0.87627001
0.83769835
0.83280802
0.83647166
0.84386326
0.85276352
0.85998231
0.86932104
0.8872366
0.90951188
0.93029957
0.96012997
1.0064079
1.0800848
1.2062527
1.4287576
1.8117242
2.4083923
3.2254624
4.257522
5.0915505
6.3898307
1.6501524
0.874644
0.83882539
0.83446707
0.84141193
0.85066423
0.86082928
0.87350432
0.88706129
0.90998977
0.93814815
0.96490496
1.0033465
1.0655343
1.1725816
1.3748402
1.7421117
2.402847
3.2314342
3.9672118
4.4447285
4.7166477
6.6129691
1.6400711
0.87261356
0.83909136
0.83635477
0.84504658
0.85706854
0.86849921
0.88495209
0.90193988
0.92509603
0.95661253
0.99040707
1.048745
1.1537901
1.3607427
1.7780132
2.5318771
3.3023086
3.8525563
4.1899124
4.3607459
4.401195
6.9129308
1.6704746
0.87301438
0.83906201
0.83865687
0.84830442
0.86343613
0.87848335
0.89744523
0.92029195
0.94953778
0.99286928
1.0512285
1.150542
1.3380929
1.8078983
2.5657483
3.286324
3.7468992
4.0071923
4.1310705
4.1334026
4.0894865
7.1662184
1.773555
0.87882928
0.84217841
0.8427711
0.85140307
0.86682841
0.88329834
0.90619083
0.9353602
0.97740891
1.038154
1.1242139
1.2933903
1.6993471
2.4169738
3.1548999
3.6079388
3.8348249
3.9474878
3.932059
3.7877279
3.6749272
7.4622236
1.9826981
0.88856252
0.84089309
0.84296032
0.85295798
0.87092578
0.88895609
0.91492967
0.94679183
0.99467542
1.0656266
1.1922617
1.5036424
2.1172677
2.8673563
3.4062806
3.6619594
3.7771733
3.7524626
3.5756877
3.4457156
3.3331447
7.6617979
2.2879971
0.91590014
0.84076945
0.83999833
0.85089761
0.87223441
0.89414764
0.92099506
0.95797056
1.0189645
1.1184273
1.3207701
1.75909
2.427295
3.0762455
3.4506384
3.6081889
3.5978918
3.4332284
3.2809639
3.1686579
3.0768758
7.6798459
2.6437911
0.97131478
0.84494191
0.83950775
0.84792429
0.8707428
0.89694113
0.92457035
0.96466109
1.0296639
1.1448679
1.3778883
1.8422632
2.4855153
3.0914409
3.4069607
3.4711998
3.4049024
3.22292
3.0681328
2.9678471
2.8934952
7.6063267
3.1251648
1.113381
0.8588447
0.84168277
0.84813479
0.86955768
0.89815738
0.92648183
0.96536046
1.0277969
1.1418358
1.3712619
1.8267053
2.4576326
3.0515372
3.328203
3.3407583
3.2228954
3.0515027
2.9246228
2.822137
2.7528283
7.4609049
3.5233304
1.2674377
0.88902084
0.84834007
0.85240087
0.87093073
0.89994175
0.92847829
0.96490538
1.0222144
1.129236
1.3400718
1.7609918
2.3564138
2.9296598
3.2307278
3.2740777
3.1471549
2.9313025
2.7813051
2.6827801
2.6076447
7.2452967
3.9753094
1.486053
0.93744358
0.85927699
0.85875823
0.87297579
0.90173789
0.93040296
0.96549888
1.0142654
1.1018856
1.2742306
1.6229002
2.1557948
2.701361
3.0533531
3.1820332
3.1209053
2.9335621
2.756195
2.6233551
2.5287985
6.9781514
4.4290693
1.9158062
1.076616
0.89202076
0.87192578
0.87808847
0.90193882
0.93142811
0.96566287
1.003669
1.0726164
1.1966439
1.4533364
1.8847951
2.4286773
2.8639895
3.0731526
3.0774525
2.9794383
2.7861828
2.6334036
2.5349263
6.6990471
4.5641213
2.1101444
1.1925038
0.93719589
0.89559337
0.89560529
0.90663076
0.93321513
0.96673298
0.99902842
1.0513578
1.1307509
1.2929195
1.5916414
2.0447056
2.5216941
2.8952501
3.0017203
2.9718558
2.8900482
2.7161521
2.5565885
6.4818409
4.6730029
2.4317215
1.3262484
0.98654966
0.91434475
0.90753391
0.91451251
0.93594119
0.97052822
1.0003833
1.0410895
1.1013707
1.1954483
1.3860623
1.6830954
2.0983895
2.5115623
2.830706
2.9145824
2.893233
2.8302676
2.6904091
6.2879519
4.7191267
2.796878
1.6344688
1.1238688
0.96193276
0.93136195
0.9315255
0.94147378
0.96910032
1.0002554
1.0327581
1.0842421
1.1490496
1.2600625
1.4472426
1.7179841
2.0637354
2.4238452
2.7307476
2.8335524
2.8180153
2.7582117
5.8978632
4.496243
2.9048932
1.7742503
1.2311306
1.0310675
0.9653936
0.95117431
0.95372522
0.96938659
0.99782762
1.0261186
1.067072
1.1132814
1.1830619
1.2964491
1.4588608
1.6956662
1.9664345
2.2683779
2.584117
2.7079745
2.7739139
5.7056335
4.2584408
2.9981287
1.9073995
1.3217558
1.0691825
0.98405002
0.96592513
0.96957587
0.97592425
0.99359895
1.0209848
1.0539689
1.089421
1.1465698
1.2107293
1.3208073
1.4473936
1.6511991
1.8428137
2.1172287
2.3418048
2.5950753
5.7251235
4.0928691
2.980707
2.032268
1.436581
1.1457515
1.0257742
0.98838
0.979904
0.98159157
0.99068809
1.0125727
1.043864
1.0713043
1.1199541
1.1588958
1.2360896
1.3052817
1.4474671
1.5591512
1.7814364
1.9166511
2.2228804
5.7105101
3.5125208
2.8782188
2.0914898
1.5261691
1.2249726
1.0717718
1.0036877
0.98136854
0.98110408
0.98597425
0.99797791
1.0231152
1.042182
1.0814737
1.1089558
1.1652515
1.2087512
1.3038533
1.3746824
1.5276979
1.6213316
1.875506
5.7190811
3.3015647
2.8138213
2.1609854
1.5970435
1.2593333
1.084681
1.0042203
0.97808786
0.97467139
0.9753411
0.98041102
0.99648194
1.0114562
1.0431254
1.0640265
1.1063486
1.1347889
1.1987587
1.2427855
1.3416428
1.4053531
1.5963684
5.8488042
3.3221734
2.7555739
2.1704758
1.6047184
1.258448
1.0824357
1.0010539
0.96888142
0.96013045
0.9603135
0.96354854
0.97478022
0.98605028
1.0101576
1.0256534
1.0576074
1.0769108
1.1212192
1.1495951
1.2146607
1.2554839
1.3876025
6.1561563
3.305512
2.6476228
2.1354424
1.5811795
1.2417358
1.071314
0.99109083
0.95439388
0.94283355
0.94222393
0.94410552
0.95133066
0.95908828
0.97723815
0.98910621
1.0151677
1.029841
1.0619996
1.0813302
1.1252584
1.1510352
1.2377355
6.3324851
3.1880842
2.5161155
2.0142738
1.4959057
1.1880116
1.0392383
0.96575432
0.93282679
0.92079099
0.91904683
0.91955495
0.92401079
0.93001761
0.94547355
0.95527956
0.97664446
0.98829049
1.0121815
1.0259418
1.0581423
1.0762167
1.1341867
6.3888387
2.9262272
2.352134
1.8361338
1.3605086
1.1055608
0.98854398
0.93221939
0.90583766
0.89498153
0.89313678
0.89285223
0.89650278
0.9020915
0.91569974
0.92376374
0.94094223
0.95036711
0.96996302
0.98043381
1.0041875
1.0165029
1.0553064
6.3961623
2.6729832
2.1728051
1.6694247
1.2353645
1.028962
0.93931549
0.89757426
0.87680997
0.86797311
0.86723211
0.86713155
0.86994053
0.87482322
0.88690353
0.89389121
0.90846994
0.91629301
0.93199272
0.939318
0.95536654
0.96276237
0.99165195
6.3818779
2.4409078
1.988404
1.5049234
1.1230887
0.96081258
0.89429478
0.86451329
0.84933972
0.8427224
0.84238535
0.84252557
0.84506437
0.84942262
0.86034628
0.86668287
0.87914727
0.88479674
0.89576177
0.90074992
0.91210086
0.91787974
0.94111392
6.3503384
2.2445313
1.7937291
1.3395758
1.0244106
0.90279103
0.85534747
0.83481159
0.82446803
0.81990719
0.81935282
0.81961458
0.823691
0.82832784
0.83732479
0.84214997
0.85186691
0.85572987
0.86352896
0.86758559
0.8775691
0.88214627
0.89955483
6.308601
2.0941314
1.5967078
1.1823459
0.93977289
0.85403834
0.82219579
0.8084357
0.80178682
0.79922624
0.79926404
0.80063951
0.80650828
0.81057268
0.81673138
0.81979401
0.82696239
0.83034011
0.83683212
0.8398343
0.84810972
0.85126368
0.86283586
6.2653925
1.9728302
1.4139344
1.0479579
0.87096147
0.81410233
0.79401701
0.78530732
0.78136388
0.78057792
0.78216979
0.78503215
0.79060066
0.79321352
0.79725324
0.79962188
0.80542374
0.80858598
0.81428756
0.81650271
0.82265899
0.82540524
0.83684517
6.219179
1.8652971
1.2555884
0.94228584
0.81781689
0.78164482
0.76963577
0.76481755
0.76314271
0.76374513
0.7670686
0.77049827
0.77456845
0.77584482
0.77885845
0.7813536
0.78635533
0.78871253
0.79361277
0.79598027
0.80156665
0.80387864
0.81356396
6.1736224
1.7650812
1.1236912
0.8647289
0.77915592
0.75636081
0.74931835
0.74691267
0.74683591
0.74861506
0.75241043
0.75552362
0.75838442
0.75927256
0.76200497
0.76431296
0.76864879
0.77069143
0.77530868
0.77769115
0.78359249
0.78554736
0.79523446
6.1326173
1.669422
1.0177479
0.81004243
0.7516607
0.73714489
0.73299825
0.73204573
0.73295351
0.73565228
0.73909179
0.74132343
0.74321251
0.74421403
0.74682729
0.74846939
0.75209566
0.7544153
0.7591936
0.76147339
0.76681488
0.76912396
0.77490225
6.0959341
1.5870352
0.93758105
0.77274241
0.73228918
0.72275214
0.72030093
0.72019385
0.72153503
0.72425869
0.72704275
0.72872069
0.73005689
0.73098323
0.73328167
0.73464837
0.73791496
0.74031574
0.74502059
0.74702421
0.75178271
0.75289863
0.76090135
6.0644492
1.5165082
0.87900316
0.74755798
0.7186087
0.71199286
0.71045044
0.71078441
0.71241215
0.71479118
0.71682692
0.71822001
0.71941049
0.72017085
0.72181328
0.72301978
0.72602321
0.72832828
0.73224999
0.73415414
0.73799351
0.73582414
0.74039967
6.0372899
1.4594666
0.8379503
0.73044067
0.70877254
0.70398329
0.7029354
0.70334793
0.70498639
0.70696595
0.70847561
0.709597
0.71060782
0.7112317
0.71233304
0.7133181
0.71602363
0.71804069
0.72156515
0.72277488
0.72579011
0.73967201
0.80202087
6.0162328
1.4141885
0.8096189
0.71869726
0.70149078
0.69778458
0.69704658
0.69746114
0.69885197
0.70035579
0.70157
0.70258449
0.7034001
0.70392346
0.70473338
0.70561798
0.70780105
0.70959526
0.71221501
0.7137661
0.71586727
0.77699313
0.86535688
6.0009949
1.3751458
0.78955287
0.71041106
0.69600106
0.69294755
0.6923762
0.69278365
0.69396397
0.69505917
0.69592967
0.69677306
0.6975013
0.69798202
0.69863768
0.69936451
0.70118205
0.70244381
0.70498942
0.70550061
0.70819733
0.82002481
0.93015091
5.9892809
1.3529087
0.77668401
0.70454362
0.69184565
0.68928801
0.68878194
0.68903824
0.68992498
0.69077226
0.69141112
0.69202164
0.69261195
0.69313251
0.69365937
0.6942724
0.69559279
0.69679341
0.69821041
0.69987801
0.70189078
0.88885979
1.0274751
5.9835232
1.3421813
0.76994286
0.70050307
0.68866253
0.68643185
0.68598274
0.68612316
0.68670463
0.6872488
0.68766752
0.68815061
0.68877408
0.6893311
0.68983791
0.69028064
0.69132326
0.69213426
0.69385322
0.6942058
0.69781078
0.93998469
1.1363952
5.9826932
1.3381158
0.76753252
0.69759765
0.68612184
0.68415211
0.68374261
0.6838061
0.68422732
0.68464589
0.6849586
0.68530412
0.68580363
0.68633334
0.68683277
0.68703183
0.68774314
0.68813988
0.68925751
0.68997166
0.6982768
1.0033217
1.3075172
5.9888199
1.3411634
0.76756036
0.69572553
0.68421878
0.68243268
0.68207632
0.68209107
0.6823361
0.68258739
0.68279753
0.68300404
0.68337707
0.68378437
0.68416542
0.68446008
0.68491652
0.68600405
0.68680409
0.68973143
0.69939301
1.1319016
1.4900179
6.0011135
1.3489882
0.76823124
0.6944517
0.68273975
0.68104972
0.68073719
0.68072461
0.68085982
0.6810045
0.68111376
0.68132124
0.68157264
0.68202747
0.68246001
0.68269184
0.68306179
0.68353664
0.68362778
0.68578187
0.70620909
1.3345077
1.5426595
6.0194445
1.355247
0.76976639
0.69360137
0.68160269
0.67994639
0.67962035
0.67957156
0.67966898
0.67974976
0.67987637
0.67991075
0.68016028
0.68023598
0.68048998
0.68046565
0.68090558
0.68094594
0.6822701
0.68355463
0.70503121
1.204171
1.6618476
6.0434151
1.3690656
0.77231067
0.69301144
0.68076963
0.67912213
0.67879689
0.67872296
0.67877108
0.67886858
0.67895686
0.67909496
0.6791647
0.67940291
0.67962091
0.68009457
0.68033524
0.68103063
0.68267062
0.68595164
0.71650084
1.1576363
1.4945063
6.0703376
1.3777403
0.77361065
0.69263469
0.67997648
0.67839894
0.67818749
0.6782036
0.6783582
0.67851523
0.67863822
0.6788017
0.67890798
0.67933076
0.679685
0.68041711
0.68087086
0.68254839
0.68791203
0.71903795
0.88195313
1.5057546
1.9881149
6.1041521
1.4008247
0.77683735
0.69274214
0.6794406
0.67775106
0.67757707
0.67767271
0.67788549
0.67797586
0.67820109
0.67828099
0.67874358
0.67910877
0.68012695
0.68095325
0.68389268
0.68629598
0.69832551
0.7325119
1.0323464
2.84895
4.1280415
6.1416993
1.4358163
0.78214289
0.69333804
0.67918183
0.67725024
0.6770232
0.67706984
0.67718335
0.67731735
0.67743301
0.67779913
0.67821577
0.67898672
0.67986832
0.68207621
0.68413009
0.68933905
0.6993783
0.7234429
0.90617022
2.571109
6.0783354
6.1806833
1.4369789
0.78270442
0.69346351
0.67892588
0.67690146
0.6766472
0.67669575
0.67678911
0.67695534
0.67703006
0.67744462
0.67773723
0.67856726
0.67939632
0.68173949
0.68422728
0.68985459
0.70251572
0.72064792
0.84526275
1.6490233
3.0790546
6.2203568
1.4270404
0.78129562
0.69320101
0.67863809
0.67664831
0.67641851
0.67644471
0.6765668
0.67668291
0.67680853
0.67709631
0.67740243
0.67820584
0.67906761
0.68138765
0.68397308
0.68998716
0.70243759
0.73266866
0.90536883
2.269386
4.2772796
6.2591746
1.413591
0.77913219
0.69293616
0.67851801
0.67651937
0.67626816
0.67622649
0.67629893
0.676332
0.67646546
0.67656544
0.67692049
0.67751121
0.67838236
0.68064556
0.68287608
0.68912911
0.70022223
0.7529036
1.0588854
2.8460177
5.0127577
6.2982023
1.4029549
0.77707742
0.69282416
0.67850158
0.67647706
0.67621867
0.6761537
0.67622028
0.67621346
0.6763459
0.67636974
0.67674963
0.67698228
0.67797937
0.67906496
0.68109008
0.68538035
0.69375142
0.75786513
1.2436244
2.6492274
4.2309793
6.3366787
1.3900342
0.7749668
0.69270177
0.67853966
0.67651517
0.67624688
0.67618644
0.67623769
0.67625301
0.67634456
0.67642506
0.67669366
0.67700772
0.67758351
0.67890632
0.68005701
0.6841665
0.69220807
0.76419366
1.3583766
2.6159181
4.251008
6.3765774
1.3816441
0.77396398
0.69271911
0.6786455
0.67667908
0.67638646
0.67638882
0.67637383
0.6765543
0.67646547
0.67690971
0.6767584
0.67766479
0.67756393
0.67971738
0.6802109
0.68730326
0.71272665
0.89352956
1.8445571
3.5736577
5.8141788
6.4184229
1.384649
0.77457486
0.69302894
0.67875374
0.67674698
0.67641258
0.6764691
0.67643276
0.67669419
0.67658012
0.67704727
0.67690764
0.67780474
0.67782145
0.67987103
0.68132486
0.6910668
0.80297709
1.6187936
3.4824309