/*--------------------------------*- C++ -*----------------------------------*\
| =========                 |                                                 |
| \\      /  F ield         | OpenFOAM: The Open Source CFD Toolbox           |
|  \\    /   O peration     | Version:  2406                                  |
|   \\  /    A nd           | Website:  www.openfoam.com                      |
|    \\/     M anipulation  |                                                 |
\*---------------------------------------------------------------------------*/
FoamFile
{
    version     2.0;
    format      ascii;
    arch        "LSB;label=32;scalar=64";
    class       volScalarField;
    location    "195";
    object      nutMean;
}
// * * * * * * * * * * * * * * * * * * * * * * * * * * * * * * * * * * * * * //

dimensions      [0 2 -1 0 0 0 0];

internalField   nonuniform List<scalar> 
20580
(
8.8996213e-07
9.0329177e-07
8.7940893e-07
8.5575579e-07
8.3838614e-07
8.2623909e-07
8.1703603e-07
8.1043786e-07
8.0515702e-07
8.0039367e-07
7.971394e-07
7.9399587e-07
7.9284757e-07
7.9121236e-07
7.9128267e-07
7.9141501e-07
7.9441953e-07
7.9912859e-07
8.0515747e-07
8.1276591e-07
8.2043079e-07
8.2512268e-07
8.3230168e-07
8.5060897e-07
8.7616936e-07
9.003816e-07
9.2651423e-07
9.4698334e-07
9.7281839e-07
1.0188811e-06
1.0977436e-06
8.9092654e-07
9.1204723e-07
8.9626431e-07
8.7636651e-07
8.5564507e-07
8.3759737e-07
8.2370784e-07
8.1443552e-07
8.0763513e-07
8.016426e-07
7.9768309e-07
7.9384643e-07
7.9201141e-07
7.9058672e-07
7.8961597e-07
7.8994943e-07
7.9255683e-07
7.9812177e-07
8.0467141e-07
8.1337704e-07
8.2437759e-07
8.3258944e-07
8.3762452e-07
8.555795e-07
8.7979717e-07
9.1643939e-07
9.530662e-07
9.9383132e-07
1.0270273e-06
1.0660443e-06
1.108603e-06
8.9050353e-07
9.1566277e-07
9.0227551e-07
8.9095961e-07
8.7600835e-07
8.5858088e-07
8.401722e-07
8.2572141e-07
8.1524861e-07
8.0657494e-07
8.00588e-07
7.9557296e-07
7.9208218e-07
7.9017522e-07
7.8816501e-07
7.8790242e-07
7.897753e-07
7.945589e-07
8.0109258e-07
8.092484e-07
8.2063761e-07
8.3075678e-07
8.3790247e-07
8.5301955e-07
8.7412928e-07
9.1026447e-07
9.4558692e-07
9.8470712e-07
1.0278192e-06
1.0774241e-06
1.1488993e-06
8.9022662e-07
9.174643e-07
9.0491103e-07
8.9682573e-07
8.8747027e-07
8.7622199e-07
8.630536e-07
8.4708722e-07
8.3304555e-07
8.204994e-07
8.1070649e-07
8.0297876e-07
7.9665908e-07
7.9272394e-07
7.8934198e-07
7.8707999e-07
7.878304e-07
7.9105207e-07
7.9734108e-07
8.0485519e-07
8.1518571e-07
8.2677131e-07
8.3498537e-07
8.4954359e-07
8.6943774e-07
8.9913747e-07
9.4173966e-07
9.7890302e-07
1.013914e-06
1.0531931e-06
1.1248748e-06
8.9023563e-07
9.2120103e-07
9.0660568e-07
8.9985984e-07
8.9476694e-07
8.8830497e-07
8.8055843e-07
8.7115944e-07
8.5912167e-07
8.4603861e-07
8.3285239e-07
8.2169712e-07
8.1140616e-07
8.0316973e-07
7.9711459e-07
7.9170161e-07
7.8960702e-07
7.903242e-07
7.9461766e-07
8.011028e-07
8.1032521e-07
8.2306191e-07
8.3427377e-07
8.4876177e-07
8.69131e-07
9.0022709e-07
9.4446724e-07
9.936668e-07
1.0312493e-06
1.0805744e-06
1.122659e-06
8.9058199e-07
9.2832737e-07
9.1071633e-07
9.031883e-07
8.9874342e-07
8.9614696e-07
8.9165628e-07
8.8722183e-07
8.8042851e-07
8.7202897e-07
8.6177274e-07
8.4997264e-07
8.3866483e-07
8.2663863e-07
8.1714733e-07
8.074583e-07
8.009926e-07
7.9761539e-07
7.9806707e-07
8.0126198e-07
8.0800055e-07
8.1905902e-07
8.3000513e-07
8.4430756e-07
8.6272765e-07
8.933571e-07
9.3326298e-07
1.0030622e-06
1.0471825e-06
1.1343282e-06
1.1598835e-06
8.9313653e-07
9.3311524e-07
9.1432744e-07
9.0566566e-07
9.0019717e-07
8.9675941e-07
8.952668e-07
8.9507028e-07
8.9347484e-07
8.8965206e-07
8.8516505e-07
8.775087e-07
8.6947564e-07
8.5886957e-07
8.4769118e-07
8.3626499e-07
8.26206e-07
8.1908899e-07
8.1419441e-07
8.1322658e-07
8.1355633e-07
8.2072644e-07
8.2660001e-07
8.3683525e-07
8.5137728e-07
8.7128907e-07
9.0134509e-07
9.7027453e-07
1.0241872e-06
1.1166712e-06
1.1907647e-06
9.0463638e-07
9.6230838e-07
9.288674e-07
9.1156522e-07
9.0194779e-07
8.9664885e-07
8.9402543e-07
8.9402592e-07
8.957501e-07
8.9684322e-07
8.9757247e-07
8.9652446e-07
8.9267698e-07
8.8811983e-07
8.79952e-07
8.7163619e-07
8.6028651e-07
8.5225563e-07
8.4393419e-07
8.4024272e-07
8.3545956e-07
8.3630334e-07
8.3833569e-07
8.4103132e-07
8.4947105e-07
8.6299396e-07
8.8053756e-07
9.1432438e-07
9.6571981e-07
1.0329058e-06
1.1559234e-06
9.8027807e-07
1.0553075e-06
9.9646672e-07
9.4957049e-07
9.2282472e-07
9.0775724e-07
8.9926348e-07
8.9596477e-07
8.9486865e-07
8.9541295e-07
8.9628292e-07
8.9929253e-07
9.0026065e-07
9.0196784e-07
8.9968783e-07
8.9743951e-07
8.9186118e-07
8.8666534e-07
8.8014803e-07
8.7383553e-07
8.6836316e-07
8.6547976e-07
8.6839081e-07
8.7173181e-07
8.7454558e-07
8.8268459e-07
8.954859e-07
9.1820097e-07
9.61449e-07
1.0019052e-06
1.0822387e-06
9.5245665e-07
1.0591328e-06
1.0804503e-06
1.0645408e-06
1.0221119e-06
9.7816644e-07
9.4526517e-07
9.2512812e-07
9.119113e-07
9.0544919e-07
9.0136803e-07
9.0114711e-07
9.0092072e-07
9.0306769e-07
9.0390773e-07
9.0571092e-07
9.0513032e-07
9.0528038e-07
9.0559491e-07
9.0537142e-07
9.0428662e-07
9.0336594e-07
9.0498528e-07
9.1268629e-07
9.1858954e-07
9.3120932e-07
9.5038256e-07
9.7855994e-07
1.0156025e-06
1.0608916e-06
1.1059188e-06
8.9799794e-07
9.8056116e-07
1.0668478e-06
1.1204937e-06
1.1482032e-06
1.1488809e-06
1.1206518e-06
1.0774034e-06
1.0312033e-06
9.9435956e-07
9.6572626e-07
9.4752134e-07
9.3431727e-07
9.2689939e-07
9.2182944e-07
9.1973804e-07
9.1804711e-07
9.188658e-07
9.2099638e-07
9.2379351e-07
9.2714057e-07
9.3355203e-07
9.3944155e-07
9.5112034e-07
9.592607e-07
9.7252842e-07
9.902173e-07
1.0334077e-06
1.0714554e-06
1.1441098e-06
1.1743416e-06
8.8680621e-07
9.3415671e-07
9.8326936e-07
1.0567857e-06
1.1272409e-06
1.1886012e-06
1.2308102e-06
1.2586648e-06
1.2646514e-06
1.248966e-06
1.2156815e-06
1.1756987e-06
1.1334312e-06
1.0939464e-06
1.0586493e-06
1.0287195e-06
1.0044604e-06
9.8677579e-07
9.7468638e-07
9.6982341e-07
9.6658145e-07
9.6802855e-07
9.7423611e-07
9.8280213e-07
9.9215018e-07
9.9980383e-07
1.01124e-06
1.0390725e-06
1.0790552e-06
1.1497862e-06
1.2251777e-06
8.9658377e-07
9.615162e-07
9.5602131e-07
9.7979108e-07
1.0190476e-06
1.0764925e-06
1.1461045e-06
1.2149382e-06
1.2756779e-06
1.3240052e-06
1.3587049e-06
1.3815952e-06
1.3909753e-06
1.3870788e-06
1.3689133e-06
1.340961e-06
1.3017206e-06
1.2604165e-06
1.2173234e-06
1.1790678e-06
1.1457754e-06
1.1159917e-06
1.096112e-06
1.0854132e-06
1.0768052e-06
1.0676683e-06
1.0634202e-06
1.0722342e-06
1.0955886e-06
1.1375427e-06
1.1888028e-06
8.8511609e-07
9.487431e-07
9.5148224e-07
9.6198299e-07
9.7470302e-07
9.9764037e-07
1.0269027e-06
1.069314e-06
1.1193963e-06
1.1799239e-06
1.2432858e-06
1.3036009e-06
1.3584773e-06
1.4060245e-06
1.4453609e-06
1.4758085e-06
1.4954139e-06
1.5036973e-06
1.5029279e-06
1.4893917e-06
1.4690697e-06
1.4382903e-06
1.4055237e-06
1.3727438e-06
1.3425745e-06
1.3109256e-06
1.2809111e-06
1.262982e-06
1.2604751e-06
1.2845317e-06
1.2776451e-06
8.9671168e-07
9.5077111e-07
9.5031182e-07
9.6075835e-07
9.6638073e-07
9.7466282e-07
9.853301e-07
1.0015425e-06
1.0229685e-06
1.0527718e-06
1.0875135e-06
1.1282732e-06
1.1754778e-06
1.2276655e-06
1.2821359e-06
1.3377285e-06
1.3909064e-06
1.4389446e-06
1.4819014e-06
1.5186406e-06
1.5504798e-06
1.5820959e-06
1.6063991e-06
1.6349822e-06
1.6498016e-06
1.6639555e-06
1.6533909e-06
1.6592612e-06
1.6389422e-06
1.6639926e-06
1.6239702e-06
8.8097488e-07
9.3001391e-07
9.3272671e-07
9.4006034e-07
9.4689988e-07
9.5485518e-07
9.63098e-07
9.726081e-07
9.811919e-07
9.9368544e-07
1.0097166e-06
1.0283103e-06
1.0515219e-06
1.0793368e-06
1.1106414e-06
1.1474468e-06
1.1884029e-06
1.2358485e-06
1.2873726e-06
1.3438452e-06
1.4014666e-06
1.4635563e-06
1.5224565e-06
1.591772e-06
1.6520428e-06
1.7233194e-06
1.7781922e-06
1.8446534e-06
1.8975827e-06
1.9655989e-06
2.0091385e-06
8.8356723e-07
9.3649761e-07
9.3123199e-07
9.3100186e-07
9.320333e-07
9.3615654e-07
9.4069413e-07
9.4706497e-07
9.5198901e-07
9.5899752e-07
9.672529e-07
9.7633735e-07
9.8755525e-07
1.0009556e-06
1.0166473e-06
1.0343688e-06
1.0550478e-06
1.0792786e-06
1.1084986e-06
1.1441852e-06
1.1851376e-06
1.2338119e-06
1.2881943e-06
1.3581186e-06
1.4349453e-06
1.5229924e-06
1.6076516e-06
1.690786e-06
1.7849888e-06
1.8663329e-06
1.9857518e-06
8.8877847e-07
9.267901e-07
9.2408615e-07
9.2512967e-07
9.2552702e-07
9.2746132e-07
9.3041241e-07
9.338711e-07
9.3657994e-07
9.4080871e-07
9.4520953e-07
9.498845e-07
9.5562639e-07
9.6225208e-07
9.7044816e-07
9.7894074e-07
9.8874969e-07
9.9978331e-07
1.0139424e-06
1.0321536e-06
1.0556653e-06
1.0817845e-06
1.1147905e-06
1.1501804e-06
1.1983535e-06
1.2456587e-06
1.3125463e-06
1.3669941e-06
1.4530807e-06
1.5171753e-06
1.6454026e-06
8.8327166e-07
9.241898e-07
9.1911219e-07
9.209876e-07
9.2049402e-07
9.1998606e-07
9.2042806e-07
9.2187317e-07
9.2304228e-07
9.2579006e-07
9.2880686e-07
9.3160436e-07
9.3566791e-07
9.3930482e-07
9.451325e-07
9.4984266e-07
9.5621003e-07
9.6133793e-07
9.6959187e-07
9.7924783e-07
9.931748e-07
1.0101985e-06
1.0316658e-06
1.0541599e-06
1.0840646e-06
1.1151765e-06
1.1627714e-06
1.2049557e-06
1.2657545e-06
1.313338e-06
1.38886e-06
8.9084477e-07
9.3560611e-07
9.2765851e-07
9.3165464e-07
9.341934e-07
9.3663163e-07
9.3992142e-07
9.4416821e-07
9.4801959e-07
9.510348e-07
9.5400528e-07
9.580991e-07
9.6233855e-07
9.6730944e-07
9.724648e-07
9.7683174e-07
9.8202166e-07
9.8718299e-07
9.9677223e-07
1.0124455e-06
1.0318242e-06
1.054151e-06
1.071527e-06
1.0849167e-06
1.080279e-06
1.0664768e-06
1.0570597e-06
1.1001977e-06
1.142951e-06
1.2227942e-06
1.2477861e-06
8.7087019e-07
9.3800206e-07
9.7779462e-07
1.0407695e-06
1.1019821e-06
1.1515102e-06
1.2109518e-06
1.2524362e-06
1.315278e-06
1.3123884e-06
1.3423683e-06
1.371294e-06
1.3968824e-06
1.4270233e-06
1.4498041e-06
1.4715275e-06
1.4965193e-06
1.5234569e-06
1.5518969e-06
1.5746968e-06
1.5809726e-06
1.604858e-06
1.621728e-06
1.6435968e-06
1.6431103e-06
1.6207325e-06
1.5912801e-06
1.6013295e-06
1.5979338e-06
1.6117128e-06
1.5903568e-06
9.7856144e-07
1.5232966e-06
1.8481573e-06
2.0654061e-06
2.2470516e-06
2.280331e-06
2.4499391e-06
2.5495021e-06
2.6516503e-06
2.6930492e-06
2.749717e-06
2.777819e-06
2.8176388e-06
2.8904309e-06
2.9029487e-06
2.9721632e-06
3.0062712e-06
3.06985e-06
3.1148766e-06
3.1730543e-06
3.1826779e-06
3.2179293e-06
3.2285605e-06
3.2416385e-06
3.2296052e-06
3.1920926e-06
3.1449654e-06
3.1064452e-06
3.0941528e-06
3.0916434e-06
3.0375266e-06
8.7706386e-07
1.8707255e-06
2.2471865e-06
2.2508179e-06
1.9237102e-06
2.3392704e-06
1.8695388e-06
2.4849889e-06
1.8487799e-06
2.503079e-06
2.2566824e-06
2.1453152e-06
2.2136581e-06
2.0964445e-06
2.1877532e-06
2.1591341e-06
2.1744076e-06
2.1653815e-06
2.16915e-06
2.1641948e-06
2.1938409e-06
2.2044711e-06
2.2441206e-06
2.2720342e-06
2.3105396e-06
2.3415086e-06
2.3713896e-06
2.4057427e-06
2.4376195e-06
2.4894978e-06
2.5059035e-06
2.4039234e-06
3.1914127e-06
1.9013564e-06
1.3715724e-06
1.4474066e-06
1.6666496e-06
2.0268325e-06
2.1207886e-06
1.7892745e-06
1.415202e-06
1.2749881e-06
1.3089796e-06
1.2706228e-06
1.1941346e-06
1.1554597e-06
1.2158979e-06
1.2728268e-06
1.2675456e-06
1.2221358e-06
1.2029422e-06
1.2218173e-06
1.207739e-06
1.1690915e-06
2.1495232e-06
3.1070935e-06
1.8533946e-06
1.3897106e-06
1.5213733e-06
1.681471e-06
2.0809286e-06
2.3179011e-06
2.0458845e-06
1.635832e-06
1.3874475e-06
1.4354557e-06
1.4196222e-06
1.356133e-06
1.2647322e-06
1.288524e-06
1.3748147e-06
1.3897544e-06
1.3680596e-06
1.321434e-06
1.3309596e-06
1.3320467e-06
1.2774657e-06
1.9644392e-06
2.788534e-06
1.8520962e-06
1.4076335e-06
1.5354089e-06
1.7479564e-06
2.1457388e-06
2.4993807e-06
2.3587032e-06
1.9417867e-06
1.5573364e-06
1.5628527e-06
1.5605769e-06
1.5233863e-06
1.4245556e-06
1.3873672e-06
1.478459e-06
1.5207177e-06
1.5150369e-06
1.4561112e-06
1.4623328e-06
1.4734066e-06
1.4448515e-06
1.6900353e-06
2.5108059e-06
1.8285673e-06
1.5530636e-06
1.5887532e-06
1.7759849e-06
2.2616309e-06
2.7069846e-06
2.6621511e-06
2.3102529e-06
1.8182554e-06
1.7406697e-06
1.7445958e-06
1.7167595e-06
1.6385599e-06
1.5414452e-06
1.595138e-06
1.6679456e-06
1.7028486e-06
1.6524753e-06
1.60024e-06
1.613846e-06
1.5985848e-06
1.4990556e-06
2.2415225e-06
1.7768637e-06
1.6348575e-06
1.7261058e-06
1.824361e-06
2.3309986e-06
2.9998759e-06
3.0237211e-06
2.7506948e-06
2.221625e-06
1.9598074e-06
1.9807371e-06
1.9381128e-06
1.8861652e-06
1.77256e-06
1.7511584e-06
1.8349151e-06
1.8710676e-06
1.8834056e-06
1.8057223e-06
1.8061784e-06
1.7956632e-06
1.2666095e-06
2.0801546e-06
1.8260247e-06
1.7891678e-06
1.8731731e-06
1.8781267e-06
2.3034712e-06
3.315648e-06
3.4535446e-06
3.2273508e-06
2.7420036e-06
2.2795257e-06
2.2988878e-06
2.2602933e-06
2.1627521e-06
2.0593873e-06
1.9639158e-06
2.0618275e-06
2.1030818e-06
2.1173116e-06
2.0643734e-06
2.0126391e-06
2.029551e-06
1.1243655e-06
1.8106129e-06
1.8410028e-06
1.9365265e-06
2.0335936e-06
2.0080028e-06
2.3236756e-06
3.5387107e-06
3.982455e-06
3.8233068e-06
3.3830188e-06
2.7812199e-06
2.7164678e-06
2.6900996e-06
2.5410685e-06
2.4315818e-06
2.2766974e-06
2.3101583e-06
2.4085098e-06
2.4004223e-06
2.3787997e-06
2.2958147e-06
2.3026154e-06
9.8596788e-07
1.6301227e-06
1.8977198e-06
2.1507225e-06
2.2705379e-06
2.2239484e-06
2.4168822e-06
3.6642392e-06
4.5774378e-06
4.5080048e-06
4.1787204e-06
3.5261166e-06
3.2455906e-06
3.2734055e-06
3.1236535e-06
2.9042307e-06
2.7037927e-06
2.6438714e-06
2.8207067e-06
2.8248249e-06
2.755542e-06
2.6620498e-06
2.6107574e-06
8.9153311e-07
1.4652238e-06
2.0329621e-06
2.458996e-06
2.691873e-06
2.5701477e-06
2.7066297e-06
4.0206083e-06
5.3398464e-06
5.3855553e-06
5.1937682e-06
4.5218569e-06
4.0122637e-06
4.1170205e-06
4.0180635e-06
3.637097e-06
3.3159367e-06
3.1143896e-06
3.2412802e-06
3.4176352e-06
3.3090977e-06
3.1689097e-06
3.0227088e-06
8.413874e-07
1.3884093e-06
2.1867345e-06
2.8144833e-06
3.252933e-06
3.1312052e-06
3.2962471e-06
4.832186e-06
6.4299044e-06
6.6959591e-06
6.5587697e-06
5.8889815e-06
5.1708894e-06
5.3526812e-06
5.349839e-06
4.8732251e-06
4.2650592e-06
3.8668612e-06
3.8600915e-06
4.1775559e-06
4.1409575e-06
3.8898193e-06
3.6452436e-06
8.3251663e-07
1.3915392e-06
2.4144854e-06
3.3038991e-06
4.0296815e-06
4.0259063e-06
4.2915427e-06
6.2329976e-06
8.2767073e-06
8.8262392e-06
8.4694981e-06
7.8200539e-06
6.8923107e-06
7.3030541e-06
7.4381803e-06
6.9206115e-06
5.8025732e-06
5.0906791e-06
4.8375172e-06
5.2362446e-06
5.3334516e-06
5.0019908e-06
4.5764564e-06
8.4256673e-07
1.4256314e-06
2.7057296e-06
3.9232184e-06
5.0305647e-06
5.3380698e-06
5.9638227e-06
8.4815438e-06
1.1174745e-05
1.2224957e-05
1.1415814e-05
1.0644948e-05
9.5846455e-06
1.0390657e-05
1.0921006e-05
1.0217396e-05
8.3003932e-06
7.0002518e-06
6.424607e-06
6.8123448e-06
7.1465344e-06
6.7113309e-06
5.9005593e-06
9.0741231e-07
1.5518147e-06
3.0729438e-06
4.6690797e-06
6.2988646e-06
7.1858921e-06
8.6203508e-06
1.1939728e-05
1.5165864e-05
1.7019694e-05
1.5717734e-05
1.47303e-05
1.3899499e-05
1.52647e-05
1.6381738e-05
1.5238942e-05
1.1893754e-05
9.8251319e-06
8.9785795e-06
9.336485e-06
9.8903461e-06
9.2097567e-06
7.8024372e-06
9.7688979e-07
1.6920573e-06
3.4764792e-06
5.4793704e-06
7.7533813e-06
9.5003916e-06
1.2346476e-05
1.6521569e-05
2.0233748e-05
2.3050129e-05
2.1522883e-05
2.0520279e-05
2.0420334e-05
2.2902877e-05
2.4639206e-05
2.25942e-05
1.6849861e-05
1.365899e-05
1.2741381e-05
1.3237272e-05
1.4217493e-05
1.3030197e-05
1.0607779e-05
1.10331e-06
1.9190626e-06
3.9783723e-06
6.4406282e-06
9.475594e-06
1.2238658e-05
1.6828561e-05
2.1690566e-05
2.571351e-05
2.929186e-05
2.8706254e-05
2.809325e-05
2.8998474e-05
3.271896e-05
3.5275972e-05
3.2847484e-05
2.3829237e-05
1.9177388e-05
1.8345907e-05
1.9314752e-05
2.0878811e-05
1.8701922e-05
1.4313612e-05
1.2211645e-06
2.1353821e-06
4.5419898e-06
7.5704225e-06
1.1259228e-05
1.5288797e-05
2.155381e-05
2.7107259e-05
3.1348264e-05
3.572288e-05
3.6932236e-05
3.7061415e-05
3.8961719e-05
4.3416479e-05
4.662191e-05
4.4502867e-05
3.2596266e-05
2.6576158e-05
2.6054143e-05
2.8085453e-05
3.0222371e-05
2.6391268e-05
1.9152779e-05
1.3490208e-06
2.4026313e-06
5.0573833e-06
8.8327749e-06
1.320416e-05
1.8676457e-05
2.6507677e-05
3.2756188e-05
3.7101522e-05
4.22932e-05
4.5522803e-05
4.6863945e-05
4.9690147e-05
5.4673387e-05
5.8181159e-05
5.6400296e-05
4.3018036e-05
3.6321795e-05
3.6902812e-05
4.0800903e-05
4.3089111e-05
3.6469794e-05
2.5335818e-05
1.5493924e-06
2.7114152e-06
5.6097163e-06
1.0237574e-05
1.5380058e-05
2.2134138e-05
3.1808885e-05
3.8944186e-05
4.3506376e-05
4.9385765e-05
5.4564436e-05
5.6933313e-05
6.0683502e-05
6.6360506e-05
7.0170706e-05
6.854822e-05
5.5175525e-05
4.8604188e-05
5.0775236e-05
5.635146e-05
5.869359e-05
4.8696643e-05
3.3399707e-05
1.7384053e-06
2.9258354e-06
6.0453111e-06
1.1236615e-05
1.7485163e-05
2.5650782e-05
3.7389231e-05
4.5733019e-05
5.0836363e-05
5.7470372e-05
6.4488034e-05
6.7546835e-05
7.2151761e-05
7.878127e-05
8.2874199e-05
8.1619149e-05
6.9820589e-05
6.4617089e-05
6.8521937e-05
7.5417161e-05
7.6655568e-05
6.2506803e-05
4.3556752e-05
1.8329592e-06
3.0950659e-06
6.4714088e-06
1.2085242e-05
1.9686927e-05
2.944653e-05
4.3159921e-05
5.3044938e-05
5.9253786e-05
6.7336092e-05
7.6088688e-05
7.9330779e-05
8.5002127e-05
9.2900324e-05
9.7232535e-05
9.6746114e-05
8.7374994e-05
8.4461443e-05
8.8680852e-05
9.5585738e-05
9.5667875e-05
7.681716e-05
5.6229693e-05
1.8064174e-06
3.2244774e-06
6.8483109e-06
1.284844e-05
2.1847943e-05
3.3383421e-05
4.9052086e-05
6.081244e-05
6.9053609e-05
7.9751335e-05
8.939278e-05
9.2144862e-05
9.9980907e-05
0.00010942589
0.00011438764
0.00011593356
0.00010903467
0.00010803512
0.00011024911
0.0001165763
0.00011422265
9.0788044e-05
7.2017442e-05
1.7821938e-06
3.4218449e-06
7.2855538e-06
1.3621394e-05
2.4002367e-05
3.7246772e-05
5.4826039e-05
6.8975388e-05
8.0628703e-05
9.5168666e-05
0.00010494514
0.00010712098
0.00011773294
0.00012926495
0.00013607182
0.00014049252
0.00013457956
0.00013115559
0.00013217067
0.00013742717
0.00013176722
0.00010625853
9.2101269e-05
1.7742362e-06
3.9029058e-06
8.0548612e-06
1.4793371e-05
2.6232013e-05
4.0697113e-05
6.0294964e-05
7.7910334e-05
9.5154542e-05
0.00011356357
0.00012394606
0.00012547398
0.00013788366
0.00015209472
0.00016333864
0.00016710586
0.0001611942
0.00015314959
0.00015481687
0.00015917915
0.00014948857
0.00012494101
0.00011531132
2.0448546e-06
5.4167557e-06
9.8278169e-06
1.7062743e-05
2.9277862e-05
4.4136781e-05
6.517631e-05
8.8126434e-05
0.00011332222
0.00013411768
0.00014470439
0.00014507689
0.00016061704
0.00017966859
0.00019782845
0.00019376268
0.00018680492
0.00017644392
0.00017945036
0.00018296422
0.0001663805
0.00014593899
0.00013723769
2.6045713e-06
8.625397e-06
1.3766998e-05
2.1542112e-05
3.428605e-05
4.9036414e-05
7.1492372e-05
9.9733554e-05
0.00013270269
0.00015467837
0.00016534986
0.00016788431
0.00018701992
0.00021314969
0.00023202166
0.00022225946
0.00020915703
0.00020118213
0.00020572691
0.00020755923
0.0001822436
0.00016586619
0.00015156936
3.2934479e-06
1.3410518e-05
1.9330391e-05
2.8540179e-05
4.1884362e-05
5.6906481e-05
8.0888464e-05
0.0001147541
0.00015333567
0.00017598934
0.00018687827
0.0001939093
0.00021901184
0.00025263656
0.00026052513
0.00025026659
0.00023253187
0.00022812539
0.00023372719
0.00022255885
0.00019779954
0.00018050663
0.00015981945
4.2843548e-06
2.0045843e-05
2.7681353e-05
3.8675846e-05
5.3325331e-05
6.8234444e-05
9.4076562e-05
0.0001335797
0.0001747943
0.00020197245
0.00021234781
0.00022448684
0.00025873739
0.00029053488
0.00028774453
0.0002761253
0.00025756371
0.00025502723
0.00025630222
0.00023164838
0.00020961187
0.00018491512
0.00016533068
5.2646943e-06
2.7459368e-05
3.7700764e-05
5.1913045e-05
6.9537962e-05
8.6747439e-05
0.0001131232
0.00015825073
0.00019720821
0.00023037501
0.00024077391
0.00026012725
0.00030117442
0.00032094373
0.00031688723
0.0002972411
0.00027761714
0.0002766408
0.00026381035
0.00023837557
0.00021325985
0.00018676353
0.00016899577
5.5505755e-06
3.4674679e-05
4.9318251e-05
6.7221634e-05
8.8567937e-05
0.00010763986
0.00013873704
0.00018592043
0.00022397668
0.00026009645
0.00027070514
0.00029880622
0.000336578
0.00034436706
0.00034032707
0.00030765981
0.00029240895
0.00028813199
0.00026501988
0.00024087079
0.00021126123
0.00018821433
0.00016971286
5.9925868e-06
4.400288e-05
6.3085112e-05
8.3193299e-05
0.00010742359
0.00012942373
0.00016579765
0.00021240372
0.00025052358
0.00028277253
0.00029832052
0.0003339967
0.00036159656
0.00036068952
0.00034659608
0.00031238978
0.00030229593
0.00029025458
0.00026574964
0.00023846976
0.00020873518
0.00018927856
0.00017078665
6.4744854e-06
5.1633186e-05
7.5049218e-05
9.883969e-05
0.00012711552
0.00015323122
0.00019167651
0.00023483803
0.00027481948
0.00030483577
0.0003248286
0.00035827722
0.00037239055
0.00036925146
0.00034268924
0.00031621481
0.0003081664
0.00028880654
0.00026438354
0.00023371914
0.00020966895
0.00019221368
0.00017359406
6.8974973e-06
6.0576528e-05
8.8051714e-05
0.00011329109
0.00014375918
0.00017461448
0.00021551395
0.00025700493
0.00029584249
0.00032146627
0.00034738159
0.00037561235
0.00038050304
0.00037039023
0.00033652701
0.00031916506
0.00030871995
0.00028777872
0.0002607084
0.00023279252
0.00021342093
0.00019646137
0.00017777249
7.4108763e-06
6.8556135e-05
9.930125e-05
0.0001275078
0.00016090448
0.00019418541
0.00023398066
0.00027495666
0.00031243078
0.00034125372
0.00036698601
0.00038236503
0.00038010832
0.00036381015
0.00033711727
0.00032305712
0.00030674758
0.0002858551
0.00025925232
0.00023596548
0.00021949265
0.00020353492
0.0001867243
7.8171481e-06
7.675161e-05
0.00010985974
0.00013930113
0.00017347452
0.00020844636
0.00024878312
0.000289435
0.00032575899
0.00035468711
0.00037696713
0.00038781344
0.00038135642
0.00035930445
0.00033760508
0.00032540286
0.00031017496
0.00028865484
0.00026427636
0.00024476533
0.00023135361
0.00021605601
0.00019866293
8.5834892e-06
8.555705e-05
0.00012128396
0.00015371782
0.00018846526
0.00022560731
0.00026680548
0.00030646997
0.00034057056
0.00036517174
0.00037999247
0.00038333103
0.00037024276
0.0003501376
0.00033466591
0.00032299326
0.00030689591
0.00028476078
0.00026512494
0.00025171443
0.00024079144
0.00022584532
0.00020963859
8.6184078e-06
8.9263078e-05
0.00012730367
0.00016032421
0.00019335371
0.00022873798
0.00026710251
0.00030440299
0.00033790965
0.00036216753
0.00037710272
0.00038092087
0.00037169719
0.00035470234
0.00034226096
0.00033239726
0.00031928724
0.00030014714
0.00028177403
0.0002685796
0.0002573815
0.00024392278
0.00023081911
8.501068e-06
8.9871744e-05
0.00012980812
0.00016296079
0.00019442485
0.00022825149
0.00026414038
0.00029918772
0.00033135161
0.00035540394
0.00037124598
0.00037713257
0.00037165932
0.00035830125
0.00034723332
0.00033888124
0.0003288681
0.00031393498
0.00029776614
0.00028466103
0.000274225
0.00026433481
0.00025130918
8.220109e-06
9.0702517e-05
0.00013236499
0.00016572309
0.00019595437
0.00022774067
0.00026106433
0.00029372479
0.00032428424
0.00034808792
0.00036456346
0.00037215692
0.00036991398
0.0003602252
0.00035105238
0.00034438065
0.00033702118
0.0003256459
0.00031262986
0.0003011042
0.0002919216
0.00028503564
0.00027495345
7.9955362e-06
8.9792037e-05
0.00013394067
0.00016773143
0.0001971584
0.00022721611
0.00025794357
0.00028806962
0.00031676156
0.00034026647
0.0003572024
0.00036630192
0.00036687254
0.00036074987
0.00035364711
0.00034859521
0.00034344202
0.00033559491
0.00032602037
0.00031762757
0.0003112021
0.00030741913
0.00029892848
7.7473058e-06
8.9495275e-05
0.00013595043
0.00017004748
0.00019878783
0.00022673016
0.00025477654
0.00028230025
0.00030902237
0.00033194763
0.00034929226
0.00035975554
0.00036287623
0.00036019353
0.00035548526
0.00035216408
0.00034916338
0.00034494539
0.00033955164
0.0003348958
0.00033216377
0.00033126855
0.00032456152
7.5259047e-06
8.834922e-05
0.00013736442
0.00017202726
0.00020033548
0.0002262029
0.00025194771
0.0002768404
0.00030127142
0.00032339495
0.00034103241
0.00035266377
0.0003581345
0.00035868921
0.00035669935
0.0003552227
0.00035439232
0.00035371156
0.00035304203
0.00035275973
0.00035364017
0.00035567681
0.00035113286
7.3278593e-06
8.7554128e-05
0.00013883526
0.00017422953
0.00020215399
0.00022609694
0.00024967715
0.00027205274
0.00029390204
0.00031491615
0.00033260224
0.00034527305
0.00035288908
0.00035642918
0.00035737547
0.00035794499
0.00035947771
0.0003622904
0.0003659241
0.00036983184
0.00037371807
0.00037892285
0.00037805567
7.1424042e-06
8.5947154e-05
0.00013912331
0.00017574222
0.00020366764
0.00022636384
0.00024811603
0.00026820124
0.00028750987
0.00030695833
0.00032436566
0.00033793677
0.00034742725
0.00035360924
0.00035740165
0.00036013506
0.00036398607
0.00036965382
0.00037687603
0.00038461144
0.00039217315
0.00040100662
0.00040125064
7.0045436e-06
8.4095674e-05
0.00013822606
0.00017639362
0.00020479335
0.00022706733
0.00024731783
0.00026550232
0.00028246934
0.00029985758
0.00031670033
0.00033087402
0.00034199904
0.00035040308
0.00035675845
0.00036182789
0.0003678788
0.00037585916
0.00038604553
0.00039738033
0.00040919979
0.000421037
0.00042171866
6.8280164e-06
8.2242251e-05
0.00013681686
0.00017642658
0.00020539846
0.00022788742
0.00024707153
0.00026399807
0.00027906956
0.00029424568
0.00030996601
0.00032443807
0.00033688816
0.00034723123
0.00035583082
0.00036346671
0.00037169071
0.00038229088
0.00039496441
0.00040928368
0.0004240434
0.000437786
0.00043854592
6.688542e-06
7.9850413e-05
0.00013493553
0.00017599996
0.00020580909
0.00022877931
0.00024735901
0.00026345985
0.00027719282
0.00029038813
0.000304589
0.00031894136
0.00033230952
0.00034438352
0.00035504519
0.00036520267
0.00037627448
0.00038920251
0.00040382572
0.00041965206
0.0004353079
0.00045126275
0.00045223416
6.5169103e-06
7.7545971e-05
0.00013330184
0.00017544909
0.00020610722
0.00022956649
0.00024800965
0.00026368869
0.00027663697
0.00028835296
0.00030102805
0.00031471529
0.00032875809
0.00034221767
0.00035496835
0.00036778069
0.00038167116
0.00039636921
0.00041161246
0.00042757085
0.00044405027
0.0004616892
0.00046269713
6.3925454e-06
7.517583e-05
0.00013140167
0.00017486238
0.00020657495
0.00023050318
0.00024911633
0.00026454047
0.00027710989
0.00028797172
0.00029949898
0.00031232074
0.00032652691
0.00034140068
0.00035615386
0.0003715472
0.0003874255
0.00040320826
0.00041879449
0.00043484668
0.00045152317
0.0004697652
0.00046969409
6.2195962e-06
7.3374139e-05
0.0001299515
0.00017490736
0.00020737828
0.00023163742
0.00025062202
0.00026611745
0.00027890497
0.00028957551
0.00029999
0.00031217694
0.00032639872
0.00034240065
0.00035924874
0.00037650799
0.00039371104
0.00041048984
0.00042669268
0.00044219695
0.00045835617
0.00047623306
0.0004741815
6.128333e-06
7.1388645e-05
0.00012846724
0.00017496333
0.00020856475
0.00023328012
0.00025272115
0.00026843098
0.00028172719
0.00029280731
0.00030291526
0.00031468409
0.00032910319
0.0003459571
0.00036430756
0.00038285479
0.00040119562
0.00041867742
0.00043493515
0.00044969818
0.00046462229
0.00048117996
0.00047725465
5.9711246e-06
7.0008501e-05
0.00012769455
0.00017544866
0.00021027232
0.00023560991
0.0002555166
0.00027162626
0.00028536774
0.00029744802
0.00030843933
0.00032026591
0.00033492214
0.00035259818
0.00037153314
0.00039077435
0.00040968448
0.00042741058
0.00044303768
0.00045655869
0.00046935099
0.00048390559
0.00047846095
5.8932364e-06
6.8094052e-05
0.00012642261
0.00017562242
0.00021178007
0.0002382689
0.00025892932
0.00027574394
0.00029019277
0.0003034293
0.0003161911
0.00032874854
0.00034394011
0.00036204396
0.00038100442
0.00040011428
0.00041860575
0.0004354064
0.00044992536
0.00046212052
0.00047263724
0.00048390521
0.00047769281
5.7690295e-06
6.6982109e-05
0.0001258431
0.0001761329
0.00021343872
0.00024120524
0.00026294227
0.00028085755
0.0002964411
0.00031110247
0.00032575421
0.00034003861
0.00035585496
0.00037388588
0.00039236412
0.00041055624
0.00042771168
0.00044275446
0.00045537447
0.00046558309
0.00047364813
0.00048055033
0.00047332562
5.6895301e-06
6.5324843e-05
0.00012445332
0.0001760909
0.00021488731
0.00024434573
0.00026758709
0.00028699052
0.0003041917
0.00032044424
0.00033690957
0.00035346035
0.00036997306
0.00038755689
0.000404894
0.00042142643
0.00043659004
0.00044959941
0.00045975672
0.00046716467
0.00047195438
0.00047392573
0.00046504393
5.5989581e-06
6.4319453e-05
0.00012378402
0.00017647146
0.00021675019
0.00024792724
0.00027285924
0.00029414301
0.00031323232
0.00033130676
0.00034944455
0.00036793985
0.00038514304
0.00040202503
0.00041763579
0.00043178129
0.00044415503
0.0004544249
0.00046183149
0.0004657813
0.00046633523
0.00046373135
0.0004509668
5.5077526e-06
6.3156378e-05
0.00012267491
0.00017660019
0.00021865204
0.00025173363
0.00027859867
0.00030176334
0.00032286399
0.00034280383
0.00036229242
0.00038162442
0.00039940141
0.00041531938
0.00042852491
0.00043950835
0.00044824672
0.00045469674
0.0004586557
0.00045877194
0.00045472563
0.00044787827
0.00042963155
5.4530583e-06
6.2444669e-05
0.00012260269
0.00017763155
0.00022129548
0.00025620306
0.00028481661
0.00030967959
0.00033244877
0.00035376906
0.00037406902
0.00039324332
0.00041099237
0.0004252
0.00043520362
0.00044202167
0.00044634045
0.00044848607
0.00044805033
0.00044323103
0.00043484603
0.00042339216
0.00040069263
5.341991e-06
6.1782413e-05
0.00012240145
0.00017893188
0.00022459513
0.00026124246
0.00029137721
0.00031762932
0.0003413878
0.00036333909
0.00038347735
0.00040186418
0.00041814406
0.00042994372
0.00043636485
0.0004387338
0.00043823536
0.0004353244
0.00042966093
0.00042022625
0.00040798908
0.00039226849
0.00036792291
5.3247913e-06
6.1345272e-05
0.00012342589
0.00018157769
0.00022895908
0.00026702136
0.00029823083
0.00032518956
0.00034916554
0.00037074874
0.00038990323
0.00040669808
0.00042037903
0.00042906649
0.0004316114
0.0004296627
0.0004244591
0.00041691924
0.00040660538
0.00039334635
0.00037775343
0.00035878198
0.0003360945
5.2124691e-06
6.1375652e-05
0.00012454696
0.0001842699
0.00023331222
0.00027270529
0.00030469852
0.00033179313
0.00035531177
0.00037565401
0.00039298143
0.00040721585
0.00041737724
0.00042213976
0.00042111361
0.00041570573
0.00040701868
0.00039525779
0.0003806578
0.00036364662
0.0003449993
0.00032701317
0.00030864823
5.214273e-06
6.1584744e-05
0.00012644038