/*--------------------------------*- C++ -*----------------------------------*\
| =========                 |                                                 |
| \\      /  F ield         | OpenFOAM: The Open Source CFD Toolbox           |
|  \\    /   O peration     | Version:  2406                                  |
|   \\  /    A nd           | Website:  www.openfoam.com                      |
|    \\/     M anipulation  |                                                 |
\*---------------------------------------------------------------------------*/
FoamFile
{
    version     2.0;
    format      ascii;
    arch        "LSB;label=32;scalar=64";
    class       volScalarField;
    location    "195";
    object      omega_0;
}
// * * * * * * * * * * * * * * * * * * * * * * * * * * * * * * * * * * * * * //

dimensions      [0 0 -1 0 0 0 0];

internalField   nonuniform List<scalar> 
20580
(
3.5739951
2.6385575
2.1180487
1.7858759
1.5541808
1.3838596
1.2524592
1.1507716
1.0685347
0.99882001
0.94157545
0.89148859
0.8490458
0.81187291
0.77883533
0.74982803
0.72484543
0.7043544
0.68462067
0.66887349
0.65487905
0.64032664
0.62835624
0.62231332
0.62265023
0.6234367
0.62724486
0.6326171
0.63467026
0.64383705
0.6674637
3.575004
2.6318062
2.1136624
1.7850719
1.5556747
1.3897588
1.257519
1.1567397
1.0740551
1.0045953
0.946535
0.89629295
0.85251249
0.81586672
0.782091
0.75295471
0.72752849
0.70820701
0.68774881
0.67423421
0.66215552
0.64974606
0.63486005
0.62939376
0.63107716
0.63266947
0.63708029
0.6477785
0.65583347
0.67346145
0.67677329
3.5754944
2.6232746
2.1062701
1.7815896
1.5548323
1.3897828
1.2614384
1.159795
1.077632
1.0079759
0.9509478
0.89976206
0.85663269
0.81938804
0.78506195
0.75660043
0.72994493
0.71091947
0.68950358
0.67496487
0.66272616
0.6504617
0.63697986
0.62802946
0.62912577
0.6307739
0.63176402
0.63929239
0.65324281
0.66851454
0.69604219
3.5779086
2.6167844
2.093765
1.7718586
1.5502921
1.3878591
1.262624
1.1626546
1.0810108
1.011216
0.95406971
0.90307304
0.85891311
0.82285159
0.78681625
0.75947441
0.7324725
0.71227717
0.69279171
0.67652744
0.66442133
0.65025257
0.64036635
0.62797409
0.62879984
0.63203792
0.63347409
0.63746663
0.64514391
0.65311478
0.68012257
3.5861205
2.619486
2.0916528
1.7647353
1.5433147
1.3840582
1.26076
1.1655667
1.0854291
1.017761
0.95936416
0.90982254
0.86368862
0.8274706
0.79098123
0.76192563
0.73583167
0.71265331
0.69522494
0.67744897
0.66628796
0.65159492
0.64464235
0.63087013
0.63118146
0.63661244
0.64452707
0.65120016
0.65690175
0.66623629
0.67477172
3.5952972
2.6290696
2.0944317
1.7656029
1.5428016
1.3813176
1.2579575
1.164824
1.0872099
1.0230211
0.96664972
0.91811692
0.87367974
0.83568943
0.80052606
0.76744729
0.7427232
0.71606667
0.69787226
0.67965376
0.66683059
0.65317915
0.64677989
0.63296162
0.63064039
0.63603156
0.64584385
0.66229897
0.67438495
0.70302173
0.70141618
3.612437
2.6567994
2.1077732
1.771715
1.5447583
1.3801844
1.2560918
1.1625838
1.086506
1.023487
0.97013102
0.92210344
0.88177137
0.84268242
0.80992358
0.77685286
0.75132712
0.72439205
0.70396924
0.68550854
0.66918
0.65484858
0.64687446
0.63369625
0.62474451
0.628207
0.63785298
0.65531846
0.66909188
0.69917902
0.72298785
3.7923537
2.7742818
2.1582414
1.7904785
1.5500345
1.3788127
1.2508743
1.1545801
1.0773686
1.0163829
0.96505797
0.91882623
0.87997844
0.84289473
0.80999601
0.78176004
0.75383931
0.73150177
0.71072547
0.6927993
0.67525209
0.66002578
0.65005705
0.63743672
0.62486711
0.62027386
0.62470583
0.63076727
0.64257173
0.66351385
0.7121395
3.9431423
3.1277331
2.309475
1.8454572
1.5673937
1.3836598
1.2493182
1.1476029
1.0643209
0.99624913
0.94154474
0.89637967
0.85822815
0.82660356
0.79914248
0.77527367
0.75044401
0.73044299
0.71170825
0.69584451
0.67847505
0.66704806
0.6576724
0.64939442
0.6343784
0.62605061
0.62855172
0.63405781
0.64178189
0.65161033
0.6779767
3.8311201
3.0835125
2.3779449
1.9221176
1.6126722
1.407767
1.2624196
1.1545542
1.0679902
0.99666127
0.93623565
0.88476958
0.84099661
0.80394191
0.77323044
0.75039828
0.73247026
0.71931349
0.70621911
0.69254027
0.67904159
0.66937005
0.66429876
0.65858372
0.6541256
0.64881333
0.650825
0.65973099
0.66862439
0.68164268
0.69007345
3.6147299
2.9068999
2.3582282
1.9889891
1.7126446
1.4967829
1.3369026
1.2163399
1.1200451
1.0357642
0.96451031
0.90323138
0.85057928
0.80742293
0.77097187
0.7407033
0.71642789
0.69700402
0.68627978
0.67579095
0.6700174
0.66549876
0.66156469
0.65838161
0.65681496
0.65829492
0.66148908
0.67716272
0.6931476
0.72392727
0.72880838
3.6235965
2.8393046
2.3223612
1.9830283
1.7612981
1.6069681
1.4925101
1.3912519
1.3025947
1.2072248
1.1144206
1.0192823
0.92493642
0.85075856
0.79415708
0.75135325
0.72019657
0.6956366
0.67792386
0.66242212
0.65211803
0.64717172
0.64456972
0.64416779
0.64633659
0.6487808
0.65091603
0.66107972
0.68177863
0.71630868
0.74973409
3.8057822
2.8966932
2.3282983
1.9633682
1.7366121
1.592918
1.4886411
1.4015546
1.3287056
1.2584828
1.1841857
1.1122849
1.0446173
0.97034907
0.88861871
0.81259815
0.75696832
0.71855384
0.6926104
0.67201588
0.65824596
0.64863643
0.64211049
0.63845503
0.6384815
0.63644609
0.63389412
0.6362226
0.64809081
0.6714175
0.70710831
3.8697777
3.0440063
2.3797475
1.9777032
1.7209694
1.5453274
1.4178075
1.3249591
1.24585
1.1812193
1.1149229
1.061341
1.0145703
0.96378767
0.92682777
0.8971775
0.857552
0.81753909
0.78456055
0.75312883
0.72995873
0.71336779
0.69837349
0.68675203
0.67938554
0.67290011
0.66296859
0.66101479
0.66748289
0.68526324
0.70056769
3.7539014
2.9197271
2.3540256
1.9961633
1.7495763
1.5714503
1.4330533
1.3315404
1.2400894
1.1622947
1.0944966
1.0218719
0.9560378
0.91361923
0.89060039
0.88013826
0.87798472
0.88008903
0.88584233
0.89319208
0.89679804
0.89853108
0.89670513
0.88911977
0.88168866
0.87447284
0.85567108
0.8377994
0.81833132
0.81463314
0.80073996
3.6403127
2.7649936
2.26947
1.9660829
1.7476375
1.5869238
1.4571444
1.3530627
1.2531687
1.1695232
1.0946857
1.0180411
0.94964747
0.88773735
0.84752333
0.83899934
0.8413018
0.85017917
0.86738704
0.88595515
0.89956524
0.91212053
0.92583976
0.93745848
0.94601499
0.95048095
0.95744727
0.95954934
0.95624029
0.95294112
0.94746367
3.6329097
2.7278104
2.2066452
1.8799013
1.6626776
1.5021654
1.3778809
1.2790129
1.1923568
1.1249863
1.0567495
0.99272919
0.93594874
0.88689881
0.84923804
0.82523642
0.80820099
0.79663131
0.79205954
0.79556618
0.80003711
0.80469477
0.81509946
0.83114844
0.84561827
0.85543558
0.8669052
0.88388431
0.89740157
0.90251995
0.90999742
3.6358571
2.7350812
2.2083913
1.8774461
1.6539162
1.4921145
1.3779672
1.2802225
1.2179227
1.1465652
1.0777271
1.0166493
0.96035042
0.90916723
0.86466115
0.83119643
0.80567365
0.78549347
0.7711365
0.76466749
0.76252574
0.76051364
0.76164709
0.76839885
0.77428296
0.7776712
0.78097618
0.78823657
0.7958882
0.79634835
0.79937104
3.6836771
2.8906053
2.3481199
2.0146222
1.78319
1.5990748
1.4737163
1.3508181
1.2618686
1.1797872
1.101357
1.0343862
0.97488167
0.92262352
0.87982488
0.84674057
0.82431253
0.8092762
0.80118664
0.79951673
0.79898381
0.79642699
0.79583903
0.79905357
0.80065859
0.79942728
0.80045636
0.80388244
0.80728858
0.80586436
0.80087705
3.9099471
3.2110301
2.5771972
2.1536553
1.8554649
1.6239418
1.4785189
1.3491685
1.2739643
1.1984481
1.1360738
1.0805944
1.0285126
0.98401308
0.94491885
0.91292893
0.88779048
0.86334298
0.84367631
0.82854279
0.81659952
0.80643992
0.80221802
0.80326654
0.80616389
0.80989819
0.81793093
0.8326049
0.84213642
0.84765911
0.84151535
3.8202302
3.0872699
2.5439347
2.2404792
2.0235977
1.857636
1.7438102
1.6900703
1.6638706
1.5145396
1.4503755
1.3928667
1.332534
1.2660106
1.2013585
1.1428345
1.0975473
1.0587001
1.0335271
1.0193173
1.0098199
1.0010145
0.99565631
0.99867633
1.0042028
1.0083644
1.0120724
1.0268609
1.0378893
1.0440787
1.021571
4.064801
4.0284482
3.8817615
3.8433485
3.971229
3.7468263
4.0063112
3.7851891
4.1463627
3.303897
3.1392019
2.9830599
2.8525988
2.7248471
2.6201536
2.5303214
2.480204
2.4404907
2.4109132
2.4016012
2.3912828
2.3648926
2.329556
2.3158231
2.3035768
2.278264
2.2417636
2.2235103
2.2086136
2.1980514
2.1086421
12.923081
12.736897
12.683415
11.673872
11.938488
10.822128
11.294021
10.089936
10.886583
9.6529994
9.0600024
8.8304292
8.3942996
8.1872291
7.8751539
7.6686268
7.432114
7.2630312
7.04928
6.9107479
6.7709404
6.6124013
6.4671231
6.3432819
6.2754524
6.1394544
6.0147133
5.8753786
5.8390645
5.7522665
5.6728624
5.8230243
2.2576396
1.0750105
0.85310935
0.7994946
0.79019185
0.89109437
0.95797244
0.85813563
0.7473374
0.73010953
0.77122696
0.7636327
0.73361757
0.71194981
0.73662609
0.75230065
0.73605768
0.70583266
0.70339626
0.71959474
0.72219482
0.71133043
6.4441667
2.4069094
1.155004
0.89451385
0.814696
0.79348315
0.87035327
0.97122021
0.92061046
0.79334294
0.75374119
0.79647065
0.80763565
0.79919515
0.7570936
0.76210334
0.78741919
0.78193219
0.76081173
0.74808495
0.76526694
0.77007273
0.75598615
7.1121225
2.7451347
1.2980158
0.97252797
0.8571161
0.81215553
0.86907925
0.98195701
0.96770711
0.88855853
0.7935152
0.82559065
0.85107562
0.84674171
0.80797867
0.78781948
0.81560365
0.82131034
0.82043449
0.79954766
0.80628674
0.81457377
0.8078492
7.8599979
3.1048796
1.5013629
1.0952188
0.92329274
0.83428965
0.87473687
0.99057594
1.0053277
0.98848305
0.88034219
0.88442838
0.91527552
0.91040999
0.89171046
0.84578518
0.85505613
0.87543941
0.88850243
0.88195941
0.85606422
0.86070065
0.85205854
8.3988373
3.4434518
1.699684
1.2349716
1.0159813
0.87828631
0.89498533
1.0119759
1.0436083
1.0518514
0.98542496
0.9391624
0.97564749
0.97104757
0.96095779
0.92301402
0.91310903
0.93917999
0.94060097
0.93708456
0.91019593
0.91052165
0.91397749
9.1656915
3.7313582
1.9402092
1.4449103
1.1348638
0.97171469
0.95762089
1.0624546
1.0914359
1.0924125
1.0653217
0.98549453
1.0221817
1.0261226
1.0245801
1.0145071
0.98583854
1.005623
1.0060383
0.99573988
0.97433401
0.9546532
0.97077993
10.330654
4.4606063
2.3543579
1.7293609
1.3570168
1.1522188
1.070916
1.1481391
1.1798779
1.1664125
1.1581426
1.0757271
1.0932449
1.1265992
1.1141976
1.1107944
1.0727283
1.073816
1.0801446
1.0589892
1.0409159
1.0222756
1.0303449
11.522115
5.3666546
2.9433697
2.1196859
1.6423484
1.3698479
1.2160858
1.2755365
1.2992377
1.2815497
1.2858088
1.2404742
1.2293034
1.2721495
1.2669964
1.2485287
1.1966263
1.1679437
1.1831374
1.177839
1.1500736
1.1201979
1.1155458
12.294408
6.2432508
3.5254362
2.5358811
1.9335577
1.6030282
1.4159326
1.4431084
1.4279835
1.3926117
1.4121721
1.4125132
1.3812536
1.4231194
1.4167096
1.3604932
1.3216181
1.2749141
1.2830829
1.3065233
1.2990648
1.2730673
1.2528697
12.65116
6.9573228
4.0272149
3.0039735
2.4906481
2.0079803
1.7345496
1.7170655
1.6522439
1.5471164
1.5302282
1.5341318
1.5060803
1.5461515
1.5336416
1.4719371
1.4250194
1.3851793
1.390377
1.4209561
1.4301902
1.3976341
1.3764179
13.666791
8.0658969
4.8892112
3.7498768
3.1473418
2.5983296
2.2264515
2.1610652
2.0332108
1.853981
1.7164729
1.6631829
1.6248491
1.6675022
1.6867249
1.6534472
1.5608188
1.5130355
1.5076018
1.5501295
1.5531023
1.498917
1.4616331
15.320897
9.6201804
5.8395964
4.5901337
4.1365916
3.9301683
3.3062237
3.0674592
2.7264657
2.302528
2.0276859
1.9243543
1.8728923
1.9160424
2.0059074
1.9935847
1.8431427
1.7255552
1.6799285
1.7192101
1.7214995
1.6583815
1.5612744
16.761038
11.209761
6.9357014
5.4881829
5.1852327
5.3247031
5.2837105
4.493522
3.7395514
2.8491244
2.4560778
2.3511544
2.3009031
2.3398368
2.4528734
2.4553637
2.3292301
2.0926912
1.9644601
2.0066466
2.0346368
1.9266661
1.7197693
17.633008
12.244042
7.8555422
6.3190002
6.1226692
6.5630573
7.3155219
6.9532788
5.7839021
3.8508383
3.089148
2.8699014
2.7604006
2.7859539
2.850807
2.8605378
2.7894187
2.5008934
2.3790182
2.4215515
2.571602
2.4543476
2.0884679
18.043814
13.188055
8.6671053
7.0736964
6.9224981
7.6288567
8.7931598
8.8198411
7.7943418
5.4500071
4.095154
3.6161936
3.3618749
3.2919342
3.2650296
3.2166744
3.0362582
2.8293253
2.8093205
2.8448347
3.0157597
2.9668623
2.7036461
17.855658
13.696896
9.1073655
7.632437
7.540247
8.5335823
10.049188
10.280001
9.2665746
6.6701182
4.8978544
4.3122402
4.0873647
4.0360803
3.9564028
3.7933228
3.3312887
3.0848744
3.1401353
3.1649674
3.276722
3.2656355
3.0806155
17.526006
14.254109
9.3921546
7.9828647
7.9414783
9.2759882
11.049093
11.372152
10.309726
7.3353936
5.5721225
5.2352232
5.502048
5.6747413
5.6164769
5.1759137
3.9313318
3.4354184
3.440097
3.4498724
3.5590719
3.530943
3.2794482
16.992619
14.410204
9.4627488
8.1530424
8.1879372
9.8355162
11.756048
12.103344
10.984323
7.8041201
6.19187
6.145442
7.166402
8.1341488
8.1030067
6.9086241
4.4856885
3.830089
3.8910591
4.0516928
4.2239914
4.0640875
3.4385412
16.409798
14.339397
9.4920836
8.2706114
8.381976
10.211197
12.192065
12.539064
11.351743
8.0757849
6.6259678
6.7661257
8.354373
9.7627034
9.5545073
7.6435458
5.0018378
4.4532288
5.0480501
5.9620699
6.2388907
5.4285176
3.7420689
15.686793
14.072278
9.5389905
8.3651411
8.5864366
10.593426
12.488313
12.777927
11.442521
8.1786338
6.9865787
7.422386
9.5628998
10.746691
10.145909
7.6363814
5.6495311
5.4832795
6.9770456
8.0707092
7.9864074
6.239146
4.1288387
15.147671
13.809764
9.6808842
8.5087724
8.8085224
10.94908
12.720544
12.831713
11.245988
8.3035432
7.5511628
8.4573652
10.744798
11.437028
10.491807
7.5509926
6.1167229
6.2356272
8.1097332
9.0677585
8.4507098
5.9840145
4.6524493
14.564178
13.476969
10.071087
8.7669039
9.0597212
11.230621
12.913692
12.767524
10.828347
8.6301223
8.4151464
9.7347391
11.419655
11.734367
10.511686
7.6588762
6.6566986
7.4648773
9.5697416
10.107659
8.2581826
5.8633873
5.429759
13.845021
12.997565
10.665277
9.159204
9.3709917
11.351572
13.001788
12.573808
10.373581
9.1888432
9.2573658
10.633517
11.489739
11.481354
10.066608
8.0737941
7.7805804
9.28672
10.56502
10.055712
7.3308755
6.2456504
6.5110193
13.52731
12.7166
10.948092
9.5241576
9.7088442
11.424116
12.804153
12.01045
10.063268
9.4800776
9.8530995
10.962835
11.289567
10.95617
9.4625491
8.6559993
9.1255151
10.451635
10.868936
9.3148372
7.4546348
7.2273114
8.0346843
13.617358
12.685471
10.692516
9.5530206
9.7851795
11.248743
11.995814
10.972893
9.7931396
9.5270037
10.005167
10.712976
10.867887
10.131979
9.3369324
9.2699363
9.9306937
10.660149
10.400103
8.5169379
7.9088684
8.1960096
8.3293038
13.826765
12.374115
10.165525
9.4014858
9.5767968
10.340186
10.486558
9.8013897
9.4032355
9.3965439
9.8691235
10.235617
10.185525
9.5583812
9.2862018
9.4376286
9.9340169
10.10511
9.1770453
8.4442023
8.2606999
8.5129506
8.585679
14.016976
11.89419
9.7523121
8.973697
8.9402067
9.1506033
9.1277331
8.8763587
8.8712952
9.1333692
9.5267086
9.6307
9.4397635
9.1736176
9.1463422
9.2462907
9.2086616
8.8036586
8.4066346
8.3092517
8.4539741
8.6133096
8.712319
13.559267
11.441269
9.373086
8.3865572
8.2045316
8.2226988
8.2030322
8.1767448
8.3172256
8.6036212
8.8491279
8.8886278
8.7950623
8.6987901
8.6391326
8.471586
8.1421907
7.9821761
7.9947374
8.1918134
8.4171015
8.5981039
8.8515585
12.600309
10.621179
8.8958978
7.8337226
7.5740775
7.5558348
7.6449701
7.7400286
7.8236866
7.9110534
7.9780922
8.0281384
8.0515483
8.0259537
7.9065771
7.6881906
7.5517276
7.5564356
7.7988054
8.039539
8.1959832
8.3080825
8.7673785
11.479791
9.5982947
7.9781637
7.2129915
7.0814132
7.0750752
7.1179851
7.1786335
7.2088066
7.1722259
7.1094413
7.1050013
7.2253711
7.3307063
7.3163341
7.2142035
7.1807621
7.3699589
7.6430713
7.7778791
7.7808518
7.8946887
8.4493467
10.61097
8.7830282
7.2143245
6.5750846
6.4503998
6.4421457
6.5114506
6.6269258
6.6390946
6.5571799
6.4642742
6.4633745
6.6413684
6.7627156
6.75303
6.7318562
6.7957811
7.1269861
7.309094
7.3555897
7.4145652
7.7388729
8.3633804
9.594316
7.969512
6.6195692
5.9512786
5.7806787
5.7823182
5.956721
6.0891676
6.1075141
6.0483908
6.0172179
6.0893846
6.1711437
6.1749252
6.1444914
6.1667041
6.3399272
6.6413257
6.8626767
7.1208946
7.395455
7.8560655
8.2857464
8.8954283
7.5632955
6.0926643
5.4884988
5.3326331
5.3267896
5.4597879
5.5678245
5.6316671
5.6503861
5.6592216
5.6965728
5.7478483
5.7617836
5.7414486
5.7269161
5.9082468
6.2694308
6.6355846
7.0210598
7.333211
7.6824474
7.7814773
7.9773932
6.8439421
5.7485404
5.1661732
5.0036708
4.9881907
5.1078243
5.1794272
5.1994157
5.1710231
5.1630833
5.2297588
5.3014044
5.3240331
5.3251784
5.4700377
5.8253125
6.2265388
6.5511819
6.7497471
6.8481014
6.9420878
6.7778893
7.4792607
6.5105661
5.2628299
4.7690604
4.6808256
4.6942903
4.7876933
4.8177187
4.8088854
4.7865787
4.7976064
4.8678659
4.9439342
5.056049
5.2373408
5.5190705
5.8816805
6.1660157
6.2561582
6.1919239
5.9465637
5.6099303
5.2556949
6.8784802
6.0164684
5.0692233
4.5169852
4.3604066
4.3643224
4.4391417
4.4902997
4.5100624
4.5064878
4.5150078
4.5624336
4.6251538
4.7470386
4.9433598
5.2234873
5.5514067
5.7301508
5.6970697
5.3843272
4.9016277
4.3912756
3.7720548
6.8147542
6.0068802
5.0553374
4.3259004
4.1299574
4.0891445
4.140174
4.1985791
4.2371422
4.2578237
4.2819073
4.3299146
4.3874807
4.4909554
4.6482437
4.8731348
5.0896223
5.1313758
5.0073813
4.7044163
4.2554889
3.7426523
3.2166738
6.6545612
5.7593726
5.0633454
4.2337648
3.9440425
3.8873891
3.9179619
3.9625291
3.9996577
4.0187096
4.0377967
4.0762575
4.1311569
4.2347494
4.3908834
4.6042314
4.7603877
4.7494428
4.5626771
4.2113339
3.7457356
3.246277
2.7813298
6.7961936
5.5820477
5.0807792
4.2349924
3.7610494
3.7143013
3.7256116
3.7684935
3.802733
3.8199317
3.8255506
3.8383629
3.8685675
3.9554287
4.1121732
4.3331455
4.48108
4.4467364
4.2152914
3.8381193
3.3749068
2.9050186
2.4880793
6.8561931
4.9519111
5.0592666
4.3193484
3.7128257
3.4934663
3.5208606
3.5637207
3.6037523
3.6341225
3.6445308
3.6500901
3.6659818
3.7287509
3.8654028
4.0828543
4.2345485
4.1865354
3.9271023
3.5342985
3.0853704
2.6577615
2.2875618
7.221299
4.853048
5.0017026
4.5845839
3.7691915
3.4001264
3.3170436
3.3554971
3.4081262
3.4406698
3.4691778
3.4864255
3.5052216
3.5554619
3.6717161
3.8733945
4.0194473
3.9571618
3.6805942
3.2868498
2.8659053
2.4857336
2.157351
7.7272337
5.0303468
4.8560417
4.7322365
4.0373902
3.4495513
3.2154078
3.1956547
3.2304621
3.2789361
3.3005913
3.3212741
3.3435107
3.38609
3.4835804
3.6653824
3.8138443
3.7563771
3.4861759
3.1111896
2.721641
2.3756768
2.0762375
9.3773521
6.1907935
4.9414192
4.8221341
4.4286954
3.6141777
3.2388079
3.0805451
3.0933728
3.1271318
3.1633204
3.1736085
3.1847901
3.213698
3.2859992
3.439465
3.6041386
3.585021
3.3555686
3.0110857
2.6446211
2.3157595
2.0334643
10.565807
6.6419411
5.1506802
4.8280578
4.6179634
4.0245456
3.3394092
3.0718395
2.9604291
2.9866398
3.023263
3.0468939
3.0577384
3.0760038
3.1199795
3.2308987
3.4144055
3.4469814
3.2710597
2.9554037
2.6038511
2.2825176
2.0025286
11.523305
6.8508528
5.2377184
4.8184547
4.6849984
4.3809128
3.6627735
3.1472747
2.9454239
2.8586071
2.887446
2.9202353
2.9351852
2.9495834
2.9800719
3.0541845
3.2279834
3.3216446
3.2118083
2.9255917
2.5876414
2.2685053
1.9861234
11.977318
6.613877
5.1009883
4.7285542
4.6635241
4.5436987
4.1684125
3.3999315
3.0054471
2.8411333
2.7712796
2.7911811
2.8167998
2.8331046
2.8514018
2.8968263
3.0236936
3.1913801
3.1404186
2.9147446
2.5860338
2.2694881
1.9900241
12.506679
6.2786317
4.7056557
4.4749958
4.5154435
4.52352
4.4086899
3.9735992
3.2106187
2.8835193
2.7411543
2.6918075
2.7029351
2.7219236
2.7399274
2.7656008
2.8390228
3.0205949
3.0486496
2.9091022
2.6082709
2.2991628
2.0210565
12.634142
5.4167561
4.1028414
4.0798882
4.2285255
4.4374987
4.4252913
4.2690059
3.7481608
3.0536784
2.7730418
2.6454878
2.6172101
2.6244282
2.6390278
2.6552985
2.6965265
2.8192728
2.9507326
2.8940132
2.6745937
2.3596021
2.0716329
12.624379
4.577696
3.5966951
3.7128984
4.0360165
4.3052791
4.3990396
4.3382225
4.1001797
3.4967218
2.9027405
2.6632415
2.5485722
2.5310999
2.538458
2.5548004
2.5800811
2.6497512
2.8185692
2.8300013
2.7080702
2.4383001
2.1362124
12.306149
3.8812768
3.2361398
3.5031645
3.9091418
4.20489
4.3229155
4.308156
4.1771902
3.8399495
3.2236879
2.7492466
2.5522212
2.4667605
2.4542741
2.460903
2.4773501
2.5177773
2.6356252
2.7551252
2.7034187
2.5441013
2.2551196
11.801404
3.4592793
3.0029427
3.3722388
3.7867682
4.0879212
4.2199991
4.2265591
4.1444143
3.9042302
3.4470421
2.9443333
2.5983332
2.4395751
2.3818945
2.3750605
2.38138
2.4033667
2.467154
2.6216581
2.6651793
2.5887393
2.4073601
11.151895
3.1710473
2.8154439
3.2075972
3.5905652
3.8782978
4.0268206
4.061705
4.0300029
3.860771
3.4689896
3.0031618
2.6332168
2.4289229
2.334948
2.3036316
2.3016335
2.3097188
2.3404713
2.4292422
2.5806985
2.5691907
2.4705713
10.474487
2.9065623
2.6007363
2.9861437
3.3318587
3.5710306
3.730777
3.79715
3.7969619
3.7155788
3.4174005
2.9853793
2.6280079
2.41366
2.2975155
2.2463286
2.2330759
2.2352281
2.2483002
2.292284
2.4064891
2.509458
2.4908875
9.8391297
2.6457682
2.3361978
2.6894782
3.0338739
3.2291429
3.3541226
3.4363061
3.4651774
3.4148709
3.2384588
2.9068482
2.593708
2.3786142
2.2587504
2.1972338
2.1733867
2.1697012
2.1737385
2.1908304
2.2437375
2.3691854
2.4264184
9.4148345
2.4242396
2.0594361
2.3427431
2.6935278
2.8953656
2.9857536
3.0365466
3.0655103
3.0479576
2.9412839
2.7382448
2.5153303
2.3462099
2.2394143
2.1756941
2.1416292
2.1281191
2.1234958
2.1251567
2.1393363
2.1870901
2.2841297
9.141553
2.2501522
1.8063426
1.9971958
2.3089042
2.5557889
2.6612443
2.693784
2.7022464
2.6906632
2.6418308
2.5477723
2.4293537
2.3119515
2.2241411
2.166873
2.1325715
2.1150308
2.1085016
2.1049761
2.1017768
2.1076318
2.1482064
8.9462709
2.1200945
1.5979775
1.6956818
1.9379459
2.1826993
2.3396799
2.4008609
2.4138284
2.4034414
2.3763848
2.3344461
2.2864199
2.2414548
2.1875537
2.1448949
2.1162158
2.1014526
2.0982794
2.0982516
2.0967531
2.0961791
2.1034939
8.7916451
2.0123881
1.4303366
1.4513224
1.6244491
1.8276297
1.9999174
2.104286
2.1514935
2.1625182
2.1526329
2.1309168
2.106732
2.0924781
2.0902481
2.082822
2.0721407
2.0675759
2.070941
2.0788217
2.0855929
2.090036
2.1026481
8.6533422
1.9438429
1.302962
1.2643708
1.37325
1.5275066
1.6809022
1.8015981
1.8805247
1.9245076
1.9411775
1.9387559
1.9290587
1.9202211
1.9222492
1.9310402
1.9489232
1.9688823
1.9933309
2.016374
2.0415814
2.0573712
2.1054559
8.5107085
1.8656294
1.1976109
1.1223243
1.182302
1.2889666
1.4089077
1.5206164
1.6107151
1.677492
1.7219081
1.7459599
1.7552898
1.7563909
1.7588738
1.7641277
1.7756838
1.7925792
1.8205759
1.8509979
1.9027488
1.938894
2.0112436
8.3439446
1.7838932
1.1105559
1.0114301
1.0371805
1.1081092
1.1943232
1.282803
1.3645775
1.4358141
1.4954475
1.5410692
1.5730373
1.5931458
1.6065704
1.6163816
1.6266266
1.6376854
1.6571154
1.6753505
1.7109365
1.7407209
1.8180241
8.1493858
1.6903334
1.0253627
0.91394084
0.91920366
0.96947502
1.0323224
1.0986919
1.1638791
1.2250425
1.2819689
1.3337172
1.3783339
1.4146831
1.4433915
1.4657228
1.4840005
1.4986509
1.5158582
1.5299406
1.5533953
1.5737679
1.6311013
7.9413082
1.6365672
0.96235803
0.82795575
0.81636045
0.85051807
0.90078091
0.9551454
1.0091793
1.0603777
1.1082058
1.1537138
1.1967768
1.2365405
1.2719478
1.3027023
1.3290968
1.3508694
1.3713627
1.3875648
1.4075511
1.4234315
1.4682468
7.7194692
1.598381
0.92409388
0.76168631
0.73192139
0.74647387
0.78406775
0.82991773
0.87765241
0.92454987
0.96852686
1.0093367
1.0475514
1.0836186
1.1174906
1.1486703
1.1769098
1.2017345
1.2241666
1.2429082
1.2619049
1.2762768
1.3152877
7.4759086
1.5999843
0.92401664
0.73479714
0.6785441
0.67112812
0.68783596
0.7188295
0.75672711
0.79750652
0.83858166
0.87818581
0.91522059
0.94968263
0.98190118
1.0118333
1.0395198
1.0647362
1.0876351
1.1077783
1.1258783
1.1402695
1.1759326
7.2260656
1.6129861
0.93888177
0.73659307
0.66563281
0.63921501
0.63414527
0.64261957
0.66149535
0.68721317
0.71698084
0.7487526
0.78103996
0.81276063
0.84315731
0.87194084
0.89903036
0.92436299
0.94790052
0.96937189
0.98838046
1.0056661
1.0422037
6.9257475
1.7667503
1.0033913
0.76404644
0.67610635
0.64002295
0.62323573
0.61522224
0.614216
0.62071449
0.63334531
0.65022562
0.67006075
0.691782
0.71444324
0.73730438
0.75989346
0.78194676
0.80328774
0.82370871
0.84290215
0.86275095
0.89797718
6.718934
2.1910286
1.2720251
0.91023101
0.74958845
0.6745339
0.63733342
0.61865009
0.60842614
0.60167494
0.5988602
0.60077158
0.6064513
0.61532331
0.62649604
0.63937111
0.65342349
0.66821796
0.68343322
0.69884199
0.71431093
0.73099974
0.75850823
6.3523209
3.2507527
1.6343075
1.1366814
0.90370769
0.77432689
0.69490734
0.64757114
0.62074454
0.60554848
0.59636019
0.58998307
0.58638687
0.58562716
0.58743393
0.5911852
0.59670652
0.60351404
0.61138068
0.62012139
0.62956738
0.63949413
0.65571178
6.6583192
3.7203211
2.0571962
1.4007425
1.0781008
0.90183956
0.79162189
0.71891286
0.66739933
0.63234353
0.60953303
0.59588945
0.58760585
0.5825878
0.57948189
0.57802644
0.57818719
0.57956588
0.5821991
0.58572241
0.59020393
0.59450393
0.60141917
6.8994315
3.4379338
2.0206526
1.4679686
1.1828465
0.99927321
0.87464988
0.78730122
0.7249226
0.67953717
0.64610231
0.62137073
0.60358361
0.59145537
0.58363961
0.57889056
0.57595666
0.5742549
0.57387464
0.57445635
0.57588255
0.57741957
0.57910979
7.5559112
3.2737285
2.0244636
1.5425963
1.2630595
1.0668943
0.92924125
0.83117637
0.76041163
0.70843495
0.66989672
0.64099553
0.61927475
0.60321147
0.59130474
0.58270697
0.57653152
0.57270306
0.57035655
0.56928345
0.56954352
0.5702224
0.57041548
7.7649687
3.2207698
2.0844369
1.604961
1.2992106
1.0904966
0.94561438
0.84305355
0.76907983
0.71486481
0.67455043
0.64427582
0.62137807
0.60428296
0.59146686
0.58203049
0.57496291
0.56958559
0.56579224
0.56314204
0.56183554
0.56152498
0.56573675
8.2598775
3.4329582
2.1739117
1.6215853
1.2948594
1.0806206
0.9338735
0.8311158
0.75781672
0.70454225
0.66521281
0.63588148
0.61360372
0.59691441
0.58455933
0.57521034
0.56787869
0.56133556
0.55552764
0.5489082
0.54295507
0.53220705
0.53062599
8.875236
3.5006079
2.1581226
1.5786707
1.2360594
1.0197929
0.87786508
0.78186201
0.71536666
0.66813087
0.63388477
0.6087529
0.59036527
0.57758574
0.56814088
0.5586102
0.54791982
0.5324261
0.5113088
0.48521233
0.46381346
0.44427353
0.43968765
9.4643618
3.4363519
2.054168
1.459448
1.1293699
0.93126203
0.80576653
0.72311817
0.66732961
0.62823891
0.60041857
0.58140948
0.56835206
0.55536676
0.53665601
0.50544495
0.46631065
0.4307332
0.40740281
0.39635031
0.39316597
0.39604692
0.41042792
9.9677702
3.4207089
1.9578582
1.3487754
1.0316254
0.85065926
0.74079889
0.67067701
0.62433765
0.59242094
0.57136873
0.55531181
0.53100366
0.48762055
0.43703802
0.39890561
0.37947058
0.37148342
0.37050093
0.37297586
0.38094741
0.40222919
0.41301417
10.380904
3.5010431
1.8859917
1.2473509
0.94326356
0.78053933
0.6858052
0.62670872
0.58759245
0.56186072
0.53776439
0.4955856
0.43885292
0.39543446
0.37296357
0.36400394
0.36217487
0.36285556
0.36777189
0.37519739
0.39259713
0.41471378
0.41906978
10.716679
3.5806392
1.7984524
1.1492237
0.86622684
0.72270447
0.64137071
0.58972715
0.55569612
0.52284983
0.47061048
0.41864538
0.3866955
0.37064279
0.36372305
0.36197235
0.36235056
0.36472837
0.37256252
0.38298495
0.40666193
0.41732078
0.42559485
10.973558
3.5680276
1.6902774
1.058964
0.80281305
0.67724448
0.60564733
0.55893396
0.52083174
0.46882592
0.42045979
0.39434823
0.38076981
0.37132396
0.36658197
0.36577026
0.36664991
0.3699679
0.37820212
0.38938146
0.40924647
0.41667964
0.44034721
11.127452
3.4800377
1.5795476
0.98450797
0.75575237
0.64534518
0.57906299
0.53394404
0.48663192
0.43933999
0.4110559
0.39610631
0.38663625
0.37839902
0.37391328
0.37265826
0.3733554
0.37595207
0.38201526
0.39126888
0.40543212
0.41414464
0.45496403
11.181562
3.3222775
1.4724622
0.92651426
0.72422613
0.62750073
0.5661659
0.51814058
0.4730814
0.44009114
0.4194407
0.40607863
0.39684553
0.38968548
0.38382616
0.38070673
0.38048836
0.38172846
0.38613087
0.39216384
0.40169431
0.41204901
0.45939116
11.141366
3.1350004
1.3805261
0.88744117
0.70932789
0.62516644
0.56997267
0.52491268
0.48770473
0.46007805
0.43847112
0.42199888
0.41033655
0.40212485
0.39608127
0.39106822
0.38946058
0.38920893
0.39054398
0.39287835
0.39924083
0.40760626
0.44501285
11.013579
2.8981834
1.2986162
0.86285945
0.70915478
0.63802071
0.59370661
0.55633012
0.5234659
0.49403275
0.46876747
0.44774646
0.43111751
0.41875598
0.41063098
0.40492909
0.39995912
0.39682972
0.39600467
0.39617979
0.39973326
0.40569441
0.42535599
10.814177
2.5662333
1.2151148
0.84797741
0.71683244
0.65814699
0.62211931
0.59187006
0.56408965
0.53706917
0.51075655
0.48699454
0.46555283
0.4466454
0.43192952
0.42101181
0.41361366
0.40822746
0.40389862
0.40241526
0.40221828
0.40334649
0.41167838
10.571474
2.164753
1.1483089
0.846397
0.7308284
0.67785862
0.64561993
0.62006207
0.59719599
0.57549355
0.55425578
0.53305442
0.51205948
0.49119541
0.47160001
0.45368214
0.43795876
0.42579995
0.41695617
0.4118351
0.40932258
0.40824007
0.40842839
10.314341
2.0718495
1.140584
0.859045
0.75086653
0.69907507
0.66730939
0.64310489
0.62217653
0.602907
0.58513548
0.56836326
0.55177541
0.53474941
0.5177127
0.50050128
0.48316515
0.46602106
0.44866469
0.43309305
0.42080994
0.41429499
0.4113126
10.099632
2.0782634
1.1560587
0.883341
0.77304108
0.71940069
0.68687401
0.66263349
0.6417937
0.62316788
0.60652831
0.59117195
0.57683719
0.56269778
0.54895239
0.53540277
0.52155711
0.50787642
0.49361934
0.47873793
0.46252221
0.44563696
0.43002982
9.9174074
2.1090111
1.188719
0.91060682
0.79433192
0.73631848
0.70153298
0.67664538
0.65572592
0.63715833
0.62066923
0.60586095
0.59257759
0.57966054
0.56749091
0.55610558
0.54504337
0.53454863
0.52325755
0.51201612
0.50061928
0.48842873
0.47501254
9.710135
2.1588337
1.2226431
0.93330526
0.80974466
0.74714646
0.70965396
0.68361612
0.66242073
0.64369516
0.62704649
0.61187312
0.59870195
0.58661232
0.57535393
0.56534919
0.55583551
0.54754461
0.53928647
0.53098478
0.52290238
0.51456199
0.50613578
9.5669941
2.2042255
1.2532603
0.95325763
0.82308085
0.75552016
0.71451664
0.68622043
0.66407825
0.64539878
0.62897213
0.61356102
0.59960167
0.58712992
0.57607926
0.56643834
0.55726343
0.54932378
0.54249946
0.53655332
0.53123589
0.52599694
0.52131793
9.4452045
2.2632914
1.2903517
0.97450296
0.83586827
0.76280143
0.71806636
0.68768615
0.66462056
0.64552958
0.62889681
0.61342452
0.59934877
0.58658449
0.57513047
0.56515046
0.55573643
0.54755334
0.54075119
0.5350749
0.53020496
0.52568092
0.52241701
9.3090988
2.2995206
1.3174388