/*--------------------------------*- C++ -*----------------------------------*\
| =========                 |                                                 |
| \\      /  F ield         | OpenFOAM: The Open Source CFD Toolbox           |
|  \\    /   O peration     | Version:  2406                                  |
|   \\  /    A nd           | Website:  www.openfoam.com                      |
|    \\/     M anipulation  |                                                 |
\*---------------------------------------------------------------------------*/
FoamFile
{
    version     2.0;
    format      ascii;
    arch        "LSB;label=32;scalar=64";
    class       volScalarField;
    location    "195";
    object      p;
}
// * * * * * * * * * * * * * * * * * * * * * * * * * * * * * * * * * * * * * //

dimensions      [1 -1 -2 0 0 0 0];

internalField   nonuniform List<scalar> 
20580
(
1.0002843
1.0058899
1.0055827
1.0066846
1.0034535
1.0048586
1.004408
1.0057467
1.0041375
1.0048941
1.004014
1.0054569
1.0034918
1.0043714
1.0050786
1.0036486
1.0037336
1.0090317
1.0030715
1.0028723
1.0100075
1.0064683
1.0022211
1.0074329
1.0152258
1.0047401
0.99812952
1.0077115
1.0022818
0.99484335
1.0212828
0.99986427
1.0063503
1.0057629
1.0069128
1.0031606
1.0049845
1.0045236
1.0061814
1.0035611
1.0046702
1.0047903
1.005046
1.0031916
1.0048291
1.0050376
1.0024166
1.0054725
1.0092288
1.0007568
1.0051301
1.0115682
1.0041027
1.0033511
1.0112638
1.0164295
1.0005593
0.98994719
1.0070694
1.014282
0.99820351
1.0000241
1.0010305
1.0062966
1.0053442
1.0059196
1.0035555
1.005011
1.0048012
1.0057451
1.0036778
1.0041562
1.0055889
1.0046078
1.0032317
1.0052489
1.004916
1.0019633
1.0066883
1.0086763
0.99922777
1.0072403
1.0118088
1.0013235
1.0038602
1.0110784
1.0149315
0.99992444
0.98655696
1.0047586
1.0244999
1.0067284
0.98200831
1.0033706
1.0056802
1.0044134
1.0041339
1.0044254
1.0049439
1.0050444
1.0047534
1.0043941
1.0038926
1.0057243
1.0044492
1.0036535
1.0056329
1.0047116
1.0024332
1.0073361
1.0072773
0.99930522
1.0087604
1.0102976
0.99932993
1.0044603
1.0081137
1.0095565
1.0024867
0.99000717
1.0019618
1.0277745
1.0195824
0.98170602
1.005938
1.0048476
1.0033051
1.002595
1.0053027
1.0048558
1.0052158
1.0038124
1.0052148
1.004255
1.0052707
1.0043892
1.0044269
1.0056107
1.0047721
1.0035241
1.0073513
1.0052314
1.0009867
1.0094581
1.0072782
0.99884134
1.0063389
1.0048011
1.0018201
1.0051308
0.99968499
1.0011243
1.0199974
1.0275888
0.99733239
1.0076729
1.0042531
1.0025562
1.0018947
1.0059478
1.0046719
1.0051716
1.0034823
1.0055037
1.0048662
1.0046993
1.0041497
1.0053069
1.0052084
1.0045747
1.0050563
1.0069108
1.0030041
1.0035079
1.009916
1.0041679
0.99907649
1.0101455
1.0039263
0.99471281
1.0056035
1.0118486
1.0035087
1.0052284
1.0205452
1.0171163
1.007747
1.0041459
1.0025398
1.0021722
1.006132
1.0044349
1.0046896
1.0039138
1.0050876
1.0052134
1.0043394
1.0040274
1.0059493
1.0046073
1.0038627
1.0064384
1.0063852
1.0012388
1.0060278
1.0098364
1.0016596
0.99991277
1.0139114
1.0064511
0.99096144
1.0039043
1.0211255
1.0094133
0.99243407
0.99972881
1.021458
1.0060317
1.0044572
1.0032062
1.0035819
1.0056769
1.004383
1.0042008
1.0047095
1.0044807
1.0052968
1.0041149
1.0041573
1.0060746
1.0041117
1.0032721
1.0070027
1.0059404
1.0004198
1.0082271
1.0089859
0.99999409
1.0017389
1.0152
1.0097418
0.99233701
1.0015409
1.0233504
1.0162447
0.98868949
0.97949361
1.0069118
1.0033314
1.0050444
1.0042675
1.0055177
1.0048178
1.0045217
1.0039691
1.0052346
1.0041638
1.0054067
1.0039869
1.0043387
1.005797
1.0038795
1.0031748
1.0066446
1.0054099
1.000786
1.009519
1.0074028
1.0001411
1.0041115
1.0130777
1.0107848
0.99805917
1.0005883
1.0175524
1.0196977
0.99404574
0.97515963
0.98748068
1.0008898
1.0056315
1.0053398
1.0067545
1.0039448
1.0047844
1.0039902
1.0051484
1.0042596
1.0054085
1.0041225
1.0046699
1.0051573
1.0038074
1.0034715
1.0057275
1.0047003
1.0024765
1.0096559
1.0048665
1.0016182
1.0070665
1.0081997
1.0078579
1.0050375
1.0025925
1.0075315
1.0144113
1.0049126
0.98704945
0.98282007
0.99981784
1.0060327
1.0059105
1.0067682
1.003315
1.0051075
1.0045036
1.0046934
1.0045676
1.0048638
1.0045157
1.0050989
1.0042936
1.0040405
1.0041754
1.0047239
1.0039377
1.0047979
1.0091776
1.0022627
1.0031407
1.0109475
1.003346
1.0010436
1.0100806
1.0078791
0.99918649
1.0004492
1.0116182
1.0088001
0.99644106
1.0005476
1.0059441
1.0056004
1.0059171
1.0032225
1.0052327
1.0050533
1.0042384
1.0049783
1.0039123
1.0049974
1.0053841
1.0035559
1.0042382
1.0053582
1.0041453
1.0032699
1.0067765
1.0082657
1.0002611
1.0042702
1.0146512
1.0007731
0.99374588
1.0112891
1.0147908
0.99667695
0.98708867
1.0069858
1.0255868
1.018792
1.0029048
1.0054327
1.0045548
1.004344
1.0039233
1.0050379
1.0052719
1.0041756
1.005318
1.0033207
1.0053546
1.0054135
1.0033435
1.0042789
1.0063684
1.0040539
1.002961
1.0081343
1.0069437
0.99936118
1.0051029
1.0162056
1.0006703
0.99045137
1.0092483
1.0194939
0.99969925
0.9835973
0.99560062
1.0263487
1.033871
1.0057973
1.0048478
1.0033006
1.0026681
1.005122
1.0046443
1.005213
1.0045986
1.0051722
1.0037043
1.0052237
1.0053361
1.0035703
1.0044376
1.0064903
1.0042562
1.0031753
1.0086684
1.0054495
1.000265
1.00561
1.0147682
1.0024208
0.99253439
1.006568
1.018824
1.0060781
0.98953759
0.9909688
1.0126202
1.0313247
1.0076318
1.0044482
1.0024206
1.001973
1.0061418
1.004328
1.0047152
1.0051242
1.0045449
1.0046776
1.004722
1.0051962
1.0040116
1.0047599
1.005856
1.0047003
1.0039518
1.0081679
1.0038242
1.0029903
1.0060483
1.0103666
1.0042179
0.99907657
1.0061327
1.012048
1.0102109
1.0006607
0.99723017
1.0001471
1.012879
1.0073836
1.0044794
1.0023829
1.0026365
1.0065048
1.004275
1.0042141
1.0052523
1.0039929
1.0053459
1.0044507
1.0047386
1.0046101
1.0049122
1.0048468
1.0051253
1.0050411
1.00707
1.0021462
1.0062705
1.0075351
1.0042985
1.0036634
1.0078371
1.0087758
1.0029571
1.0060405
1.0127784
1.0089034
0.9980792
0.99254144
1.0055251
1.0048991
1.0033229
1.0039434
1.0059027
1.0045497
1.0042106
1.0049084
1.0038782
1.0052482
1.0046586
1.0040436
1.0052444
1.0049831
1.0036255
1.0051306
1.0059646
1.0059063
1.0007577
1.0089452
1.0095676
0.99966577
1.0005984
1.0145919
1.0127792
0.99688702
0.99579793
1.0160103
1.0214514
1.0053488
0.98468133
1.0025617
1.0053913
1.0047453
1.0054874
1.0043976
1.0049245
1.0045183
1.0042312
1.0042528
1.0049319
1.0051466
1.0035408
1.0056217
1.0050643
1.0026647
1.0047689
1.0064623
1.0050015
1.0001967
1.0099036
1.0113662
0.99769179
0.9975558
1.0161387
1.0163936
0.99541584
0.98776731
1.0092976
1.0266497
1.0135686
0.9890773
1.0001693
1.0057668
1.0058366
1.0065838
1.0030419
1.0051537
1.0049451
1.0038062
1.0046948
1.0050174
1.0054159
1.0035614
1.0054649
1.0051986
1.0026277
1.0044357
1.0065743
1.0044475
1.0009334
1.0090203
1.0115448
0.99870466
0.99711651
1.013276
1.0167304
0.99689334
0.98858263
1.0008376
1.0199985
1.017822
0.99851663
0.99978081
1.0057762
1.0060316
1.0065276
1.0027866
1.0050431
1.0052234
1.0037513
1.0050938
1.0053484
1.005173
1.0040079
1.0049386
1.0049935
1.0034276
1.0042529
1.0060725
1.0041702
1.0031044
1.0071803
1.0091392
1.0017735
1.0001823
1.0089924
1.0112771
1.001135
0.99540281
0.99990627
1.0077305
1.0125409
1.0065778
1.0016395
1.0053395
1.0050349
1.005418
1.0035785
1.0047711
1.0050236
1.0042917
1.004841
1.0051434
1.0048477
1.0046553
1.0045807
1.0045614
1.0046663
1.0044454
1.0051841
1.0039027
1.0060634
1.0055492
1.0045067
1.0056926
1.0052021
1.0065599
1.0029448
1.0037699
1.0057411
1.0058874
0.99946771
1.0008612
1.0079921
1.0051151
1.0048412
1.0034407
1.0035213
1.0050689
1.004631
1.0046333
1.0051476
1.0049751
1.0038919
1.0046868
1.0055418
1.0042087
1.0039243
1.0058019
1.0050009
1.00451
1.0033636
1.0089998
1.0047019
1.0001973
1.0071045
1.0113983
1.0063238
0.99620737
1.0015061
1.0158557
1.0149163
0.99836163
0.99028181
1.0029962
1.0076552
1.0047611
1.0022689
1.0020141
1.0063934
1.0046609
1.0044226
1.0057417
1.00448
1.0035566
1.0046355
1.0062886
1.0040283
1.0032777
1.0065303
1.0057471
1.0043219
1.0025734
1.0109235
1.0051668
0.99752711
1.0057083
1.0156717
1.0085077
0.9936003
0.99649384
1.0185036
1.023536
1.0029816
0.98638578
0.99638285
1.0203245
1.018872
1.0106584
0.99696817
0.98377743
0.97984472
0.98780844
1.0023027
1.0154681
1.0189429
1.0097673
0.99583636
0.99244664
1.0059575
1.0253875
1.0338254
1.0208676
0.98963372
0.96569545
0.96823804
0.99564094
1.0294753
1.0475814
1.0166936
1.0093981
1.0043217
1.0048339
1.0107654
1.0176798
1.0206284
1.015493
0.99948464
0.97907925
0.96850302
0.97480365
0.99714236
1.02546
1.0407695
1.0337415
1.0089994
0.98710728
0.98302429
0.99824316
1.0198489
1.0264748
1.0127207
0.97370853
0.97903753
0.99532593
1.01715
1.0351824
1.0429512
1.0337673
1.0136192
0.99206489
0.98119522
0.98578074
1.0013958
1.015324
1.0169026
1.0022214
0.98024308
0.9716717
0.98702529
1.0199189
1.0503754
1.0556683
1.0296895
0.98443378
0.97919543
0.99175458
1.0038959
1.0097111
1.0082904
0.99843568
0.9861361
0.98239629
0.99496311
1.019173
1.0432315
1.0536786
1.0431467
1.0080825
0.96717849
0.94627913
0.95550807
0.98744998
1.0249713
1.0494941
1.0432936
1.0137716
0.98514978
1.0401143
1.0363744
1.0199435
0.99492489
0.97060505
0.95260958
0.95184787
0.96939206
0.99878115
1.0292031
1.0495418
1.0470078
1.0223921
0.99734327
0.98339637
0.98866282
1.0059714
1.022109
1.0249114
1.0028824
0.96990001
0.95294246
0.96530669
1.0443703
1.0309425
1.0140849
0.99665425
0.98546674
0.98797872
0.99976751
1.0135419
1.0172939
1.0066233
0.98511261
0.96381861
0.95681398
0.96872168
1.0037157
1.0478461
1.0808378
1.0820463
1.0432313
0.98443589
0.93402239
0.91927847
0.93997607
0.96927055
0.96969238
0.98029315
1.0037354
1.0362286
1.0644632
1.0770646
1.065134
1.0323789
0.99085304
0.95323774
0.92809763
0.929244
0.95598028
0.99921652
1.0438772
1.0717501
1.0652369
1.0344037
0.99950657
0.97523918
0.96921221
0.98280896
0.93613995
0.94881663
0.97647646
1.0087873
1.036608
1.0555749
1.0566707
1.0420275
1.0213793
1.0013436
0.98701511
0.98589885
0.99594805
1.0097462
1.0134061
1.0021522
0.9806338
0.96107761
0.95884437
0.97628866
1.01275
1.0536287
1.0851541
1.0000059
1.0154656
1.0199523
1.0105002
0.98951555
0.96363273
0.94910924
0.9506907
0.96683554
0.99761651
1.0383546
1.079264
1.1010999
1.0928617
1.0496617
0.98978655
0.93503408
0.8978916
0.89617755
0.92637323
0.98495044
1.0618704
1.1275605
1.11425
1.0857076
1.0390157
0.99050449
0.9510061
0.92454587
0.9088303
0.90832951
0.92831182
0.97272604
1.0345582
1.0945561
1.1250233
1.1094375
1.067374
1.0123047
0.96377619
0.93010473
0.92271139
0.93915713
0.97498165
1.0155831
1.0480238
1.0885707
1.0663522
1.0406714
1.0106128
0.97896225
0.95372759
0.94440671
0.95488292
0.97889464
1.0014337
1.0126006
1.0116558
1.0109378
1.0131075
1.0193735
1.0247437
1.0197576
1.01732
1.0187524
1.026575
1.0253616
1.0072789
0.97433139
0.96838267
0.97658975
0.99530862
1.0170811
1.0356226
1.0487457
1.0583973
1.0652493
1.0581688
1.0323431
0.99251079
0.94901064
0.91546477
0.90430692
0.92080128
0.96120064
1.0226273
1.0867297
1.1361517
1.1407286
1.0994914
1.0316598
0.95750628
0.89672907
0.90995323
0.93987047
0.98760306
1.0513762
1.119963
1.1680445
1.1681692
1.1186639
1.0472729
0.97732284
0.92322405
0.88739486
0.8705139
0.87591631
0.91109868
0.97809135
1.0710583
1.1607982
1.2022123
1.167005
1.0764639
0.98042229
0.88700128
0.90205785
0.93443189
0.98427341
1.0481087
1.1161578
1.1645658
1.1691829
1.1269305
1.0611021
0.99472146
0.93872726
0.90349473
0.88850333
0.89385441
0.92060379
0.96793339
1.0308717
1.1036362
1.1492833
1.1491568
1.0988657
1.0286999
0.92073216
0.94066642
0.97112254
1.0087732
1.041411
1.0661617
1.0811929
1.0867316
1.0794589
1.0585339
1.0254899
0.98557712
0.95223629
0.9341789
0.93867263
0.96166013
0.9891494
1.0160197
1.0368959
1.0569671
1.0683108
1.068135
1.0501736
0.98246545
0.99760296
1.0174693
1.0289965
1.0264793
1.0117764
0.99837038
0.99678851
1.0100168
1.0287298
1.0356355
1.0258296
1.0092075
0.99754361
1.0008956
1.0109549
1.013153
1.0072574
0.99511026
0.984381
0.99194654
1.0122756
1.0338929
1.0473533
1.0514556
1.0491468
1.0342452
1.0052542
0.97083704
0.94571141
0.94044551
0.95907887
0.99363047
1.0280337
1.0488545
1.0562146
1.0560254
1.0551227
1.048245
1.031063
1.0022318
0.96870134
0.94302904
0.94131773
0.96885809
1.0106336
1.0890281
1.0831672
1.0636623
1.0325675
0.99146192
0.94919754
0.91952168
0.91386112
0.93541289
0.97556855
1.0235598
1.0602
1.0813842
1.0893846
1.0867713
1.0689632
1.0368084
0.99659429
0.95378814
0.92211184
0.91791615
0.94500968
0.99502863
1.0938966
1.0870928
1.0653573
1.0316082
0.987579
0.94285427
0.91289327
0.90898344
0.93339217
0.97493147
1.0250966
1.066304
1.0916142
1.1015873
1.0942025
1.0696069
1.0320866
0.98920739
0.94558252
0.91315442
0.91095729
0.94332392
0.9973472
1.0707565
1.0714706
1.0597322
1.0335997
0.99366112
0.95352114
0.92685419
0.92310605
0.94737971
0.99070785
1.0364258
1.068569
1.0833625
1.08349
1.0756188
1.0552299
1.0240233
0.98475087
0.94462785
0.91932462
0.92498551
0.96331305
1.0149901
1.0258976
1.0356938
1.0414136
1.0338497
1.0112645
0.97806826
0.95312042
0.95319398
0.97950581
1.0187123
1.0475856
1.0571315
1.0491553
1.0421726
1.0430947
1.0371769
1.0169515
0.98560005
0.95494067
0.94216933
0.9593306
0.9989601
1.0376641
0.96772825
0.98658472
1.0106659
1.0265564
1.0294923
1.0163518
1.0073958
1.0125275
1.0300722
1.0475881
1.0440773
1.0237785
0.99739994
0.98797311
0.99829837
1.0094479
1.0138633
0.99709092
0.98446053
0.98838189
1.013253
1.0428438
1.046742
0.90746758
0.93147435
0.96668861
1.0088244
1.0453243
1.0729095
1.0943494
1.0988706
1.0874695
1.0595602
1.0147153
0.96971457
0.93887366
0.93276886
0.9487987
0.97938033
1.0073176
1.029865
1.0499441
1.0741643
1.0780896
1.0601374
1.0113227
0.8692019
0.89107867
0.93245252
0.99408327
1.0702583
1.1432991
1.1914422
1.1819314
1.1155037
1.033541
0.9612572
0.91119165
0.88460973
0.8838577
0.90751302
0.95516231
1.0233225
1.101352
1.1584457
1.1584644
1.0987249
1.0162086
0.93816665
0.8853105
0.90490323
0.94732465
1.0099021
1.0860702
1.1604781
1.197311
1.1658255
1.0874614
0.99875953
0.92792376
0.8802926
0.85751574
0.85877737
0.90094991
0.98506196
1.0934479
1.1888726
1.2087627
1.1463311
1.045083
0.95056478
0.88461318
0.9732891
0.98131604
1.0038306
1.0293863
1.0517736
1.0675327
1.0718266
1.0626653
1.0332535
0.98807358
0.93692312
0.90149659
0.89359381
0.92295737
0.97965937
1.0524798
1.1198193
1.1531871
1.1288341
1.0599073
0.98252921
0.91671847
0.87946526
1.1004721
1.0666967
1.0277912
0.99583705
0.96675997
0.94988309
0.94700765
0.95911942
0.97769166
0.99287911
1.0011458
1.0078323
1.0242803
1.0349719
1.0441643
1.0405924
1.0257851
1.0094361
0.99543383
0.9873992
0.9760857
0.9609529
0.96053433
1.1014466
1.0733477
1.024386
0.97324662
0.93279602
0.90705179
0.90074237
0.91515984
0.95872969
1.0226663
1.0910379
1.1280496
1.1193318
1.0728934
1.0108281
0.9547478
0.91737706
0.9040382
0.91925902
0.95917606
1.023341
1.0927949
1.1277011
0.98968728
1.0084977
1.0131614
1.0004447
0.97458622
0.95573858
0.95351972
0.96796086
0.99670221
1.0342045
1.0728257
1.0971052
1.0844936
1.0377371
0.97662889
0.92185281
0.89129932
0.89843109
0.9375212
1.0012296
1.0677159
1.1146284
1.1246279
0.93138819
0.95062141
0.98289118
1.0229941
1.0539557
1.0636286
1.0505494
1.0267087
1.004883
0.9888528
0.97974742
0.97973383
0.9878059
0.99517682
0.99480959
0.99219647
0.99192052
0.99735853
1.0081728
1.0151035
1.0039696
0.98067135
0.96133188
0.96562516
0.96981544
0.98899505
1.0184129
1.0494365
1.0696037
1.0651996
1.0365631
0.99184094
0.95128888
0.92682124
0.92438319
0.9444439
0.98246516
1.0297035
1.0700096
1.0885529
1.0786594
1.0417246
0.98963567
0.94136812
0.90710234
0.89639845
1.0448023
1.0231999
1.0011825
0.98928363
0.98363139
0.98707082
0.99522934
1.0009199
0.99788685
0.98688444
0.9752552
0.97232894
0.98190554
0.99908405
1.0173094
1.0290292
1.0305457
1.0257928
1.0204577
1.0124586
1.0061375
0.99797542
0.97810159
1.0348639
1.0286598
1.0052453
0.97608969
0.95434259
0.94709803
0.95578269
0.97869829
1.0083637
1.0340491
1.0468747
1.0445531
1.0275655
1.0023126
0.97717921
0.95494267
0.94237285
0.94835395
0.97351176
1.0177188
1.0695229
1.1032747
1.0822783
0.97535087
0.98802331
0.99735026
0.99859848
0.99535277
0.9904592
0.98923398
0.9960664
1.0074878
1.0178969
1.0232705
1.0226201
1.0157733
1.0057388
0.99150471
0.97763849
0.96405054
0.95452269
0.95605004
0.97172414
0.99866879
1.0358846
1.0590131
0.97274716
0.97709795
0.99221428
1.0124553
1.0253907
1.0300527
1.0247267
1.0116287
0.99517714
0.97964083
0.96839117
0.96633725
0.9767609
0.99828687
1.0253798
1.0481316
1.0498495
1.0229127
0.97672817
0.94392933
0.93747659
0.96370925
1.0217404
1.0062561
1.0006381
0.99817016
1.0008657
1.0045829
1.0072495
1.0081668
1.0062459
1.0009628
0.99232772
0.98104094
0.97054457
0.96659832
0.97249373
0.98970342
1.0121026
1.0316312
1.0430381
1.0377325
1.0117774
0.98367668
0.96652791
0.96724017
1.0145699
1.0128252
1.0064175
0.99663304
0.98702344
0.97839107
0.9746302
0.97765824
0.98696594
0.99975525
1.0119184
1.0185222
1.015235
1.0045102
0.99116428
0.98077108
0.97707442
0.97878365
0.98809599
1.0025724
1.0104366
1.0072707
0.99958476
0.98676577
0.99364403
0.99773263
0.99799795
0.994228
0.98793557
0.98187388
0.97836111
0.98149792
0.99154231
1.005387
1.0191058
1.0268073
1.027286
1.0171709
0.99817676
0.97658785
0.96309479
0.96566541
0.98354045
1.0070947
1.0202243
1.0164623
0.98574638
0.98590966
0.99017733
0.99633908
1.0027242
1.0078788
1.0104882
1.0101273
1.0064377
1.0004982
0.9944521
0.98914111
0.98663048
0.98933176
0.99516797
0.99954633
0.99873348
0.99514188
0.9929279
0.99741359
1.0055199
1.0088187
1.0025556
1.0084983
1.0028879
0.99797967
0.9954043
0.99477379
0.99742015
1.0022999
1.0081788
1.0113761
1.0093483
1.000835
0.98678371
0.97304868
0.96576575
0.96844192
0.98059285
0.99768953
1.0097232
1.013292
1.0109773
1.0045552
0.99640759
0.98719502
1.0012205
1.0033259
1.0008245
0.99611142
0.99054554
0.98588754
0.98267557
0.9828066
0.98647799
0.99231864
0.99713364
0.9975611
0.99484445
0.99086597
0.98904453
0.99235207
0.99927517
1.0035992
1.0029827
0.99606868
0.98806493
0.9837689
0.98349919
0.98601561
0.98873943
0.99311537
0.99759305
1.0005007
0.99971234
0.99620083
0.990654
0.98543497
0.98360477
0.98696042
0.99371346
1.0015957
1.0068122
1.0093604
1.0092702
1.0045054
0.99807216
0.98919464
0.9801201
0.97593953
0.97920488
0.98978967
0.99822327
0.99405888
0.99208255
0.99387411
0.99842025
1.0041447
1.0082873
1.0075986
1.0031979
0.99679376
0.99147439
0.98988758
0.99144784
0.99418124
0.9957501
0.99464322
0.99060629
0.98547523
0.98201554
0.98187828
0.98516579
0.99143637
1.0000068
1.0047949
1.0022103
0.99611508
0.98998473
0.98667492
0.98690208
0.99018882
0.99426341
0.99724581
0.99719376
0.9955013
0.9931168
0.99132514
0.98984008
0.98710051
0.98383228
0.98012702
0.97944926
0.98268206
0.99228244
1.0001285
1.0036889
1.0011091
0.98863255
0.99225277
0.99490053
0.99508688
0.9928458
0.99018817
0.98807923
0.98742724
0.98829937
0.98972535
0.99120971
0.99294083
0.99413419
0.99504512
0.99515227
0.99369512
0.99139024
0.99000043
0.99151184
0.99705625
1.0001658
0.99848295
0.98974048
0.98729805
0.9877835
0.9915514
0.99675577
1.0011495
1.0019066
1.0003598
0.99801782
0.99546717
0.99355838
0.99210436
0.99072417
0.98977499
0.9901647
0.99177323
0.99273233
0.99377346
0.99324555
0.99181016
0.9906157
0.98800874
0.9848729
0.97979726
0.99792314
0.99370319
0.99091342
0.99008889
0.99039112
0.99113712
0.99108366
0.99051837
0.99044788
0.99145559
0.99224248
0.99171556
0.99022608
0.9876155
0.98590117
0.98584886
0.98702316
0.98763296
0.98688949
0.98431191
0.982097
0.98096185
0.9826646
0.99253322
0.99245853
0.99147408
0.99076627
0.99047761
0.99018562
0.98909628
0.9873563
0.98654504
0.98733194
0.9901802
0.99285417
0.99409099
0.99278591
0.99054886
0.98885038
0.98879612
0.9892218
0.98963678
0.98813742
0.98595003
0.98529842
0.98730223
0.98991769
0.98846073
0.98700346
0.9870178
0.98946681
0.99284171
0.9952541
0.99501508
0.9925151
0.98981091
0.98873646
0.98925837
0.99040678
0.99016126
0.98868284
0.98659308
0.98588862
0.98656591
0.98799159
0.98810679
0.98688793
0.98498628
0.98426483
0.99219008
0.99099341
0.98835199
0.98523607
0.98396005
0.98571491
0.98867651
0.99074744
0.99093212
0.98891199
0.98725624
0.98693634
0.98791104
0.98908917
0.98884519
0.98778099
0.98608763
0.98575066
0.98662207
0.98753979
0.98753842
0.98579849
0.98381991
0.98626056
0.98799129
0.9897612
0.98992271
0.98892224
0.98808485
0.98822906
0.98856775
0.9887638
0.98799965
0.98682167
0.98663434
0.98724766
0.98910369
0.99006961
0.99029142
0.9889954
0.98781351
0.98696548
0.98693292
0.98662243
0.98570358
0.98420618
0.98777883
0.98848545
0.99000529
0.9909528
0.99065137
0.98913211
0.98716829
0.98643263
0.9862853
0.9869115
0.98742611
0.98783618
0.98818832
0.98896538
0.98932163
0.98944814
0.98846197
0.98752515
0.98628162
0.98595646
0.98552608
0.98506924
0.98426141
0.99175059
0.99139094
0.99122773
0.99088817
0.99020549
0.98886633
0.98721723
0.98627469
0.98646424
0.98759361
0.98909932
0.99013262
0.99048425
0.99009335
0.98917093
0.98829827
0.9870617
0.98672891
0.98642816
0.98679962
0.98704852
0.98706585
0.98624024
0.9932988
0.99284285
0.99212873
0.9913731
0.99092588
0.9907007
0.99044856
0.9903286
0.99064112
0.99090874
0.99123414
0.99098877
0.99029776
0.98954599
0.98876309
0.98815199
0.98772399
0.98803741
0.98824985
0.98880274
0.98872206
0.98844526
0.98709448
0.99416632
0.99408778
0.99354961
0.99296375
0.99260167
0.99261491
0.99288147
0.99327623
0.99333273
0.99305893
0.99262403
0.9916019
0.99033797
0.98986417
0.98979649
0.99045852
0.99100191
0.99157984
0.99147083
0.99097509
0.98976344
0.98873957
0.9867465
0.99470255
0.99503843
0.99495728
0.99505126
0.99509512
0.99480605
0.99464324
0.9944107
0.99416546
0.99390438
0.99351134
0.99317556
0.99268851
0.99265997
0.99298244
0.99410778
0.99422241
0.99386103
0.99281952
0.99088799
0.98947142
0.98813867
0.98741294
0.99624432
0.99607591
0.99574492
0.99572518
0.99607234
0.99599309
0.99572498
0.99519272
0.99475953
0.99465306
0.99475688
0.99507264
0.99524314
0.99540335
0.99540699
0.99554672
0.99520728
0.99417479
0.99296827
0.99156383
0.99065002
0.99005807
0.9904735
0.99741139
0.99676786
0.99605395
0.99573362
0.99567905
0.99589165
0.99628488
0.99637379
0.99634069
0.99634556
0.99637
0.99671602
0.99684819
0.99661442
0.99607631
0.99546586
0.99489691
0.99437699
0.99424714
0.99426469
0.99420451
0.99421994
0.9944681
0.99728197
0.99711638
0.99669476
0.99656771
0.99661169
0.99687749
0.99740813
0.99755884
0.99736723
0.997302
0.99650447
0.99644167
0.99644095
0.99650481
0.99681466
0.99636382
0.99637019
0.99607975
0.99637144
0.99675515
0.9968466
0.99637729
0.99557421
0.99728634
0.99746337
0.9974804
0.99759935
0.99758419
0.99729153
0.99741982
0.99743608
0.99715589
0.99740496
0.99671824
0.99649099
0.9970152
0.99703286
0.99785593
0.99784232
0.99756787
0.9971617
0.99677482
0.99662753
0.99680663
0.99637206
0.99572979
0.99762726
0.9977203
0.99801608
0.99815931
0.99819462
0.99780696
0.99745133
0.99730451
0.99738204
0.9977071
0.99785041
0.99762799
0.99802365
0.99775111
0.99807048
0.99785137
0.99751557
0.99730755
0.9970195
0.99695075
0.99716174
0.9970901
0.99718851
0.9985074
0.9982705
0.99849153
0.9984753
0.99841873
0.99827096
0.99786539
0.99774829
0.99786924
0.99803058
0.99839457
0.99826848
0.99838849
0.99815472
0.99789605
0.99778269
0.99758344
0.99780471
0.99792212
0.99836311
0.99815395
0.99813437
0.99793658
0.99907396
0.99883708
0.99864116
0.99851138
0.9983941
0.99841377
0.99833361
0.99847067
0.99866591
0.99847437
0.99850464
0.9985087
0.9983545
0.99838485
0.99804711
0.99822323
0.99840475
0.99851535
0.99855021
0.99873444
0.99848294
0.99826646
0.99787095
0.9991256
0.99920844
0.99897171
0.99888707
0.99889338
0.9988659
0.99899762
0.99910255
0.9988993
0.99891238
0.99875064
0.9986624
0.9985851
0.99854445
0.9986786
0.99886422
0.9989883
0.99893328
0.99878055
0.99850095
0.99833273
0.99815547
0.99821879
0.99917892
0.99917272
0.99923226
0.99916532
0.99922456
0.99924019
0.99925948
0.99915629
0.99888552
0.99898233
0.99895671
0.99908099
0.99909335
0.99900288
0.99918752
0.99913998
0.99903858
0.99885314
0.99879504
0.99868094
0.99868647
0.99866884
0.99891424
0.99944317
0.99930193
0.99921615
0.99914495
0.99927016
0.99920706
0.99929105
0.99919615
0.99923365
0.99918125
0.99922914
0.99931671
0.99929697
0.99926604
0.99923884
0.9992156
0.9990777
0.99896839
0.99907278
0.9992689
0.99923616
0.99919445
0.99921869
0.99915687
0.99908331
0.99908518
0.99912483
0.99924211
0.99914631
0.99924003
0.99914215
0.99932254
0.99931554
0.99935185
0.99921211
0.99911679
0.99915705
0.99936931
0.99947319
0.9993546
0.99913761
0.99921275
0.99947527
0.99958015
0.99923945
0.99881745
0.99862368
0.99871999
0.99895943
0.99905191
0.99904435
0.999076
0.9990009
0.99894632
0.99905152
0.99907997
0.99916168
0.9992452
0.99930459
0.99929835
0.99916648
0.99918493
0.99932823
0.9994843
0.99938126
0.99910915
0.99912131
0.99931565
0.99932699
0.99876716
0.99864975
0.99887656
0.99863813
0.99855618
0.99864222
0.99886426
0.99892093
0.99885736
0.99879466
0.99894739
0.99912014
0.99895842
0.99903076
0.99913161
0.99916394
0.99893768
0.99900804
0.99923141
0.99917146
0.99906536
0.99911295
0.99900915
0.99830683
0.99826674
0.99822875
0.99824954
0.99828646
0.9983606
0.99840774
0.99870089
0.99880913
0.99854154
0.99834428
0.99868941
0.99895121
0.99893777
0.9988226
0.99874322
0.99865461
0.99890798
0.9992573
0.99894965
0.99855764
0.99862077
0.99912514
0.99822171
0.99819459
0.99749412
0.99755508
0.99816083
0.99862766
0.99841832
0.99794831
0.99778282
0.99812153
0.99857829
0.99878545
0.99838931
0.99797786
0.99826785
0.99888412
0.99878712
0.99829929
0.99833608
0.99862236
0.99858815
0.99853771
0.99871945
0.99889582
0.9979288
0.99724957
0.99762777
0.99855758
0.99879513
0.9981104
0.99740189
0.99752306
0.998232
0.99870996
0.99849342
0.99782366
0.99752365
0.99810983
0.99880856
0.99858968
0.99773851
0.99770148
0.99847809
0.99880462
0.99835603
0.99777603
0.99843195
0.99771671
0.99693466
0.99748917
0.99862699
0.99890464
0.99786263
0.99692461
0.99726414
0.9983617
0.99891476
0.99828421
0.9973343
0.99725024
0.99807171
0.99874059
0.99832506
0.99747805
0.99750911
0.99824439
0.99862112
0.99814427
0.9974461
0.99857985
0.99764765
0.99710689
0.99748554
0.99838939
0.99865919
0.99789194
0.99712873
0.99725856
0.99804337
0.99859269
0.9982255
0.99750876
0.9972932
0.99772825
0.99824298
0.99813076
0.99771298
0.99766843
0.99781741
0.99787049
0.99789767
0.99785946
0.99824571
0.99727561
0.99719174
0.99787631
0.99827355
0.99793215
0.99739441
0.99733606
0.99774215
0.99802863
0.99787727
0.99762702
0.99762831
0.9976456
0.99762807
0.99762531
0.99760519
0.99785134
0.99789017
0.99753071
0.99732585
0.99752117
0.99785922
0.99759408
0.99724672
0.99768453
0.99811773
0.99793049
0.99727651
0.99695873
0.99750152
0.99817876
0.99804288
0.99725715
0.99688131
0.99738942
0.99792162
0.99787282
0.99725296
0.996974
0.99761103
0.99786782
0.99733014
0.99690966
0.99704597
0.99786762
0.9971634
0.99738864
0.99813674
0.99823097
0.99750972
0.99684916
0.99704768
0.99767255
0.99805949
0.99785275
0.99710513
0.99675392
0.99711035
0.99771604
0.99795582
0.99709168
0.99670992
0.99721188
0.99771829
0.99749211
0.99650784
0.99652052
0.99732331
0.99724883
0.99753919
0.99825758
0.99810151
0.99730294
0.99689154
0.99714493
0.99785669
0.99814541
0.99752675
0.99698172
0.99682071
0.99714987
0.9977461
0.99781525
0.99720069
0.99654118
0.99664001
0.99723246
0.99754976
0.99694989
0.99625933
0.9964921
0.99771918
0.99743124
0.99777405
0.99795924
0.99768964
0.9974535
0.99747427
0.99748697
0.99761994
0.9975629
0.99726327
0.99731572
0.99743354
0.99741141
0.99730251
0.99702814
0.9968399
0.9966554
0.99687774
0.99733468
0.99711483
0.99656336
0.9961007
0.99791643
0.99762324
0.99763071
0.99759479
0.99752635
0.99766636
0.99793887
0.99784744
0.99736616
0.99720333
0.99745201
0.99766264
0.99760931
0.99726964
0.9968223
0.99682796
0.99725373
0.99741401
0.99704077
0.99672608
0.99657098
0.99675644
0.99665192
0.99789058
0.9975355
0.99746188
0.99766929
0.99779572
0.99774669
0.99775842
0.99777506
0.99750217
0.99719967
0.99730074
0.99757089
0.99767689
0.99749036
0.99704739
0.99683346
0.99707072
0.99728216
0.99716371
0.99671269
0.99642601
0.9967127
0.99694756
0.99759346
0.9976566
0.9977663
0.99773154
0.99768676
0.99759133
0.99754676
0.9976107
0.99759569
0.99751548
0.99732861
0.99727645
0.99738927
0.99754589
0.99743876
0.99702214
0.99667959
0.99691017
0.99728513
0.99724168
0.9966497
0.99621363
0.996289
0.99732438
0.99773328
0.9981244
0.99786465
0.99762485
0.99757527
0.9976112
0.99745982
0.99728822
0.99748715
0.99750606
0.99758551
0.99749112
0.99699193
0.99703326
0.99716787
0.99716354
0.99706543
0.9967876
0.99678748
0.99683625
0.99664752
0.99642649
0.99716982
0.99819879
0.99852713
0.99782464
0.99737394
0.99741897
0.99779647
0.99806176
0.99767277
0.99708311
0.9969796
0.99749851
0.99792676
0.99741619
0.99722697
0.99687718
0.9969266
0.99708405
0.99681321
0.99669278
0.9968183
0.99691344
0.99665653
0.99743761
0.99840972
0.99847621
0.99795356
0.99768375
0.99763972
0.99800537
0.99839601
0.99777106
0.99696224
0.99697081
0.99762579
0.99837762
0.99779631
0.99693638
0.99669131
0.99713544
0.99760476
0.99663939
0.99649837
0.99681786
0.99748063
0.99689696
0.99742219
0.99865687
0.99919157
0.9985703
0.99777625
0.99759663
0.99793123
0.99830357
0.99810503
0.99758964
0.99756804
0.99772366
0.99819012
0.99794161
0.99711603
0.99718826
0.99709002
0.99752167
0.99716365
0.99700808
0.99680187
0.99706488
0.99690778
0.99843609
0.99881072
0.99883697
0.99845021
0.99813804
0.99815396
0.99828007
0.99849888
0.99847981
0.99791717
0.99777763
0.99800523
0.99810231
0.99805327
0.99763613
0.99753138
0.99756485
0.99761299
0.99715338
0.99703733
0.99710661
0.99732724
0.99714298
0.99831157
0.99917748
0.99945999
0.99891915
0.99811267
0.99812263
0.99888927
0.99914076
0.99860259
0.99792387
0.99785538
0.99828965
0.99861658
0.99838782
0.99793309
0.99775666
0.99774157
0.99765084
0.9974442
0.99749719
0.99746995
0.99742192
0.99697066
0.99850222
0.99920127
0.999793
0.99957415
0.99862335
0.99801568
0.99854504
0.99951378
0.99939637
0.99825705
0.99768111
0.99841686
0.99936642
0.9990521
0.99779817
0.99729593
0.99808277
0.99867422
0.99792046
0.99721519
0.99743947
0.99797785
0.99776328
0.9985914
0.99920731
1.0000753
1.0000703
0.99914712
0.99819821
0.99814705
0.9991477
0.99998486
0.99942825
0.9980941
0.9978176
0.99885029
0.99957742