/*--------------------------------*- C++ -*----------------------------------*\
| =========                 |                                                 |
| \\      /  F ield         | OpenFOAM: The Open Source CFD Toolbox           |
|  \\    /   O peration     | Version:  2406                                  |
|   \\  /    A nd           | Website:  www.openfoam.com                      |
|    \\/     M anipulation  |                                                 |
\*---------------------------------------------------------------------------*/
FoamFile
{
    version     2.0;
    format      ascii;
    arch        "LSB;label=32;scalar=64";
    class       volScalarField;
    location    "155";
    object      rho_0;
}
// * * * * * * * * * * * * * * * * * * * * * * * * * * * * * * * * * * * * * //

dimensions      [1 -3 0 0 0 0 0];

internalField   nonuniform List<scalar> 
20580
(
1.003319
1.0040448
1.0008846
1.0028085
1.0032104
1.0032666
1.0035063
1.0042695
1.0047335
1.0044046
1.004673
1.0049499
1.0045501
1.0049607
1.0055045
1.0044317
1.0054915
1.0074877
1.0028452
1.0058934
1.0093122
1.0050793
1.0042671
1.009926
1.0121247
1.0023287
1.0021685
1.0080369
1.0016729
1.004499
1.0280251
1.0037139
1.004067
1.001286
1.002873
1.0030736
1.0034555
1.0035547
1.0042746
1.0043378
1.0042411
1.0051194
1.0046539
1.0044276
1.0054687
1.0050377
1.004002
1.0069143
1.006591
1.0018113
1.0080516
1.0091358
1.0037273
1.0060581
1.0118724
1.0105582
0.9978872
0.99809877
1.0122934
1.0104593
1.0001095
1.0110653
1.0033413
1.0040406
1.0023613
1.0029679
1.0030245
1.0036866
1.0036239
1.0042504
1.0038092
1.0041108
1.0054902
1.0045459
1.0041925
1.0059538
1.0048502
1.0038228
1.0076413
1.0056745
1.0014187
1.0094926
1.0081539
1.0019779
1.0068872
1.0115438
1.0094714
0.99721601
0.99613239
1.0140599
1.0190968
1.0003514
0.99248792
1.0023241
1.0039698
1.0036591
1.0031479
1.0031229
1.0038037
1.0038345
1.0041978
1.0035337
1.0042804
1.0053925
1.0046385
1.0042673
1.006032
1.004872
1.0040296
1.0076267
1.0047604
1.0020359
1.0098602
1.0065013
1.0011359
1.0073378
1.0087025
1.0077314
1.0007221
0.99774658
1.0125035
1.0240966
1.0064956
0.9837926
1.0011472
1.0036876
1.0045984
1.0034239
1.0033901
1.0036848
1.0040091
1.0040777
1.0037506
1.0047578
1.0049692
1.0047282
1.0048464
1.0056273
1.0049379
1.0046534
1.0069838
1.0038449
1.0037508
1.0095306
1.0043692
1.0016729
1.0081571
1.0051143
1.004604
1.0060991
1.0030732
1.0090647
1.021161
1.0148899
0.98995889
1.0004026
1.0034515
1.004717
1.0036015
1.0036715
1.0034433
1.004013
1.0038578
1.0042402
1.0051137
1.004493
1.0046152
1.0056294
1.005029
1.0049813
1.0055269
1.0059661
1.0030638
1.0058833
1.0086775
1.0025438
1.0029703
1.0100042
1.0028445
1.0006074
1.0104097
1.0106017
1.0054868
1.0102242
1.017566
1.0057354
1.000462
1.0033547
1.0039348
1.0034646
1.0037296
1.003194
1.0038647
1.0036003
1.0046815
1.0050681
1.0043167
1.004531
1.0060304
1.0045331
1.0049648
1.0063259
1.0050042
1.0027772
1.0078022
1.0075027
1.0014799
1.0047275
1.0125349
1.0027872
0.9975379
1.0117503
1.0174883
1.0044287
0.99747124
1.0091895
1.0193734
1.0011327
1.0034327
1.0027348
1.0031456
1.0035649
1.0030559
1.0034931
1.0034518
1.0049013
1.0046933
1.0044073
1.0046603
1.0058407
1.0042784
1.0047738
1.0066817
1.004344
1.0029697
1.0091249
1.0062345
1.0011951
1.0064516
1.0137352
1.0045079
0.99713801
1.009863
1.0203814
1.0065711
0.99070623
0.99592513
1.0195657
1.0019793
1.0037361
1.0017807
1.0028896
1.0032374
1.0031222
1.0030991
1.0035614
1.0047458
1.0043382
1.0044273
1.0050386
1.0053884
1.0042554
1.0045445
1.0065816
1.004088
1.0035943
1.0094094
1.0048677
1.001897
1.007537
1.0120959
1.0066285
0.99971625
1.0069603
1.0175651
1.0104694
0.99245921
0.989116
1.0093063
1.0030643
1.0041825
1.0014375
1.0027146
1.0029039
1.003329
1.0029836
1.0038939
1.0042934
1.0042756
1.0044964
1.0053101
1.0048937
1.0044048
1.0045424
1.0060733
1.0041103
1.0047869
1.008702
1.0032899
1.0037881
1.008326
1.0078526
1.0070253
1.004626
1.00519
1.0096815
1.011618
1.001338
0.99407344
0.99929282
1.0038206
1.004784
1.0019638
1.002798
1.0029014
1.0036372
1.0032486
1.0043455
1.0039483
1.0045016
1.0047306
1.0052792
1.004511
1.004752
1.0047821
1.0052105
1.0042257
1.0061968
1.0074051
1.0019123
1.0058254
1.0092774
1.0027616
1.0044726
1.0101392
1.0059698
1.0011123
1.0062371
1.011909
1.0067591
1.0000628
1.0035118
1.0049321
1.0030915
1.0031121
1.0031625
1.00384
1.0038328
1.0046916
1.0039131
1.0047835
1.0050942
1.0051915
1.0043293
1.0052488
1.0052616
1.0043759
1.0044305
1.0073554
1.0060288
1.0012734
1.0074109
1.0105048
0.9992717
1.0006201
1.0138024
1.0095177
0.99692961
0.99780982
1.0155717
1.0211513
1.0099319
1.0022339
1.0045877
1.0040998
1.0034566
1.0035375
1.003784
1.0043876
1.0046682
1.0040829
1.0046754
1.0053424
1.0051811
1.0042851
1.0055935
1.0058872
1.0040175
1.004671
1.0080548
1.004936
1.0013469
1.0084166
1.0115359
0.99829511
0.99852756
1.0143081
1.0138275
0.99783962
0.99329041
1.0104393
1.0274742
1.0212995
1.0011328
1.0038146
1.0043032
1.0035619
1.0038188
1.0035224
1.0045442
1.0042726
1.0043328
1.0042471
1.0052226
1.0052309
1.0043643
1.0056294
1.0062596
1.0040835
1.0048568
1.0080272
1.0042735
1.002312
1.0083915
1.0111147
0.99984719
0.99942077
1.011767
1.0152672
1.0022397
0.99589027
1.0029859
1.0211893
1.0244279
1.0004769
1.0032359
1.0040603
1.0036531
1.0039868
1.0033495
1.0041991
1.0038262
1.0045281
1.0039907
1.0049983
1.0052522
1.0045917
1.005472
1.0059964
1.0044032
1.0051186
1.0072146
1.0038309
1.0045026
1.0075425
1.0085986
1.0029339
1.0030483
1.0088724
1.0115025
1.0074697
1.0024617
1.0022508
1.0075445
1.0158511
1.000381
1.0029684
1.0034134
1.0036873
1.0038226
1.0033311
1.0036436
1.0035758
1.0046638
1.0042698
1.0049224
1.0050504
1.0051129
1.0052091
1.0052423
1.0049216
1.0056511
1.0059715
1.0033395
1.0072147
1.0068596
1.0043072
1.0056021
1.008384
1.007331
1.0037203
1.0084895
1.010855
1.0072576
0.99886495
1.0008362
1.0011623
1.003321
1.002636
1.0033255
1.0033872
1.0033902
1.00315
1.0035631
1.0045845
1.0048111
1.0048239
1.0046366
1.0057457
1.0049562
1.004437
1.0054518
1.0062333
1.0048752
1.0030658
1.0093421
1.0067349
1.0004756
1.0057548
1.0137079
1.007745
0.99733519
1.0037598
1.0172675
1.0145806
1.0002383
0.99104411
1.0025865
1.0040704
1.0022327
1.0028982
1.0030442
1.0035459
1.0030651
1.0036651
1.0043588
1.005168
1.0047448
1.0042362
1.006072
1.004717
1.0039018
1.0055763
1.0064369
1.0041442
1.0031434
1.010264
1.0071987
0.99842689
1.0045184
1.0162009
1.009408
0.99494981
0.99845887
1.0166312
1.020883
1.0057728
0.99123829
1.0036901
1.0049442
1.0025321
1.0028445
1.0029963
1.0037923
1.0034509
1.0040652
1.004018
1.0051207
1.0046943
1.0042401
1.0059703
1.00472
1.0038584
1.0053621
1.006297
1.0039339
1.0035411
1.0096525
1.0072913
0.99918898
1.0031246
1.0147339
1.0101523
0.99697593
0.99720129
1.0107469
1.0204589
1.0114379
0.99792139
1.0035255
1.0052292
1.0030584
1.002895
1.0031399
1.0038768
1.0039123
1.0042686
1.0040325
1.0048271
1.0046948
1.004711
1.0055683
1.0049349
1.0042982
1.0051037
1.0059165
1.0042496
1.0046083
1.0076639
1.0070107
1.0016721
1.0038547
1.0103127
1.0086679
1.0008702
1.000979
1.0060552
1.0117364
1.0122057
1.0060656
1.0024943
1.004685
1.0033106
1.003103
1.0033862
1.0037218
1.0040665
1.0041562
1.0038926
1.004378
1.0048038
1.0052533
1.0050229
1.0050898
1.0050121
1.0050261
1.005129
1.0048358
1.0062254
1.0053052
1.0053304
1.0055817
1.0059901
1.0058815
1.0042742
1.0059273
1.0075334
1.0060489
1.0023707
1.0060682
1.0106199
1.0011374
1.0037126
1.0033643
1.0035448
1.0037423
1.0036339
1.0040147
1.0040036
1.0046539
1.0040412
1.0049196
1.005639
1.0046096
1.0053151
1.0058223
1.0052713
1.004599
1.0052466
1.0080899
1.0038064
1.0031979
1.0089794
1.0095879
1.0037841
0.99970473
1.0078784
1.0154762
1.0102574
0.99780777
0.99858245
1.0105909
1.0006591
1.0031715
1.0036819
1.0047083
1.0043323
1.0042396
1.0037592
1.0052867
1.0047203
1.0038554
1.0055819
1.0062009
1.0048177
1.0056672
1.0066192
1.0058602
1.0047346
1.0054157
1.0098946
1.0037181
1.0017585
1.0099234
1.0132292
1.0046309
0.99727512
1.0062077
1.0206705
1.0161945
0.99954837
0.99449848
1.0075231
1.0225118
1.018379
1.0102015
1.0010624
0.99503658
0.99625474
1.002637
1.0089432
1.0122326
1.0081082
0.99846105
0.99371737
1.0019104
1.0202278
1.033002
1.0305906
1.0118439
0.98978966
0.9819582
0.99217458
1.0121286
1.0276229
1.0271662
1.0088586
1.0035463
1.0032444
1.0102016
1.0201708
1.0270722
1.0267865
1.0173472
1.0003318
0.98607846
0.98339151
0.99171703
1.0075438
1.0222117
1.0254037
1.0139276
0.99923053
0.9961047
1.0079417
1.0260635
1.0344641
1.0226448
0.99775804
0.98449199
0.98974439
1.0013404
1.0153278
1.0268055
1.0297083
1.0200653
1.007409
0.99988822
1.002776
1.0123947
1.0204193
1.0213535
1.009631
0.99180363
0.9786058
0.98065021
1.0003611
1.0299314
1.049919
1.044699
1.0171994
0.98696276
1.0065301
1.0113435
1.0113487
1.006144
0.99820421
0.98903238
0.98343687
0.98782338
1.0049204
1.0291326
1.0469013
1.0483393
1.0300896
1.0028023
0.98305261
0.98059084
0.99245165
1.0104304
1.0240465
1.0269791
1.0118346
0.9946593
0.99117761
1.0472697
1.0360667
1.0174848
0.99844378
0.98380776
0.97825195
0.98214121
0.99510197
1.010071
1.0235515
1.0289043
1.0195053
1.0031571
0.99529155
1.0058384
1.026945
1.0440016
1.044469
1.0228717
0.99119159
0.96610317
0.96287559
0.98109808
1.0229775
1.0140606
1.0078013
1.0058795
1.0122559
1.0256916
1.0365426
1.0359486
1.0224875
1.0009741
0.98154779
0.96802248
0.96753613
0.98370702
1.0159432
1.0552184
1.0792225
1.0686326
1.0303316
0.99067174
0.97036064
0.97110428
0.98826197
0.97364383
0.97398794
0.98625035
1.01199
1.0433202
1.0679722
1.0732314
1.0539191
1.0251139
0.99832683
0.98063864
0.97792201
0.98335749
0.99809688
1.0144486
1.0305339
1.0392867
1.0280503
1.0115064
1.0033757
1.012615
1.032642
1.0488951
0.97910289
0.99093185
1.0055088
1.0157739
1.0227276
1.0260284
1.0240636
1.0174372
1.0110514
1.009228
1.0222351
1.0452701
1.0605665
1.0554604
1.0299539
0.99754107
0.97522857
0.96315821
0.96511929
0.98459489
1.0245905
1.0795945
1.1185739
1.0611974
1.0534715
1.031916
1.0061824
0.98555437
0.97280659
0.965734
0.96272021
0.9743044
1.0041712
1.0505248
1.1011525
1.1241023
1.1010575
1.0506261
1.0014759
0.96927918
0.95895201
0.95796904
0.97637732
1.0095337
1.0569014
1.1018069
1.1132432
1.0815897
1.040897
1.0064647
0.98338125
0.97234856
0.97229172
0.97671486
0.98906256
1.007358
1.0333876
1.06657
1.0883589
1.0783035
1.0535428
1.0254878
1.0091446
1.0151339
1.0254904
1.0322924
1.0295536
1.0240325
1.0213208
1.0482207
1.0374574
1.0321568
1.0281093
1.0252314
1.0324893
1.0464448
1.0554962
1.0547854
1.0372029
1.0150723
1.0021191
0.9993531
1.0010287
1.0055581
1.0173339
1.044691
1.0882185
1.130739
1.1289478
1.0853778
1.0258472
0.98055558
0.97947416
0.9786647
0.98773384
1.0133701
1.0579353
1.116066
1.1627774
1.1627955
1.1154128
1.0523494
1.0009154
0.9753009
0.96886811
0.96505666
0.96556394
0.98275116
1.0270202
1.1057789
1.1903221
1.2139036
1.1513767
1.0596541
0.98859264
0.96365861
0.96516861
0.97645393
1.006916
1.0643411
1.1405075
1.2055424
1.2081604
1.1498945
1.0723917
1.0142241
0.98572528
0.98065109
0.98881976
0.98815584
0.9944023
1.0183094
1.0758117
1.1522555
1.2067007
1.1798815
1.1051152
1.0346308
0.99669167
1.0034228
1.0136033
1.0364207
1.0705619
1.1129038
1.1496627
1.1586328
1.1316664
1.0886154
1.0509925
1.0308987
1.0343393
1.050275
1.0506584
1.0445818
1.0403087
1.057396
1.0925292
1.135156
1.1379381
1.1113335
1.0764653
1.0744479
1.0738579
1.0660015
1.0606881
1.0632348
1.0744821
1.0878534
1.0928914
1.0839171
1.0733342
1.0731298
1.084783
1.1111071
1.1373949
1.1353391
1.1093869
1.071449
1.0479882
1.0529614
1.0724954
1.0834746
1.0781504
1.0745793
1.1689453
1.1466234
1.1053481
1.0705832
1.0503603
1.0489296
1.0540354
1.0567711
1.0498275
1.049082
1.0701473
1.1152821
1.1786433
1.2302495
1.2239606
1.1635231
1.0934607
1.0485016
1.0368888
1.0415782
1.0503824
1.0494288
1.0570793
1.2495877
1.2014979
1.1295838
1.0732437
1.0455667
1.042373
1.0476468
1.0507011
1.0410464
1.0390976
1.0663884
1.1313975
1.2232703
1.2995766
1.2946825
1.2070002
1.114669
1.0557267
1.0377172
1.0394277
1.0451106
1.0369173
1.045258
1.3018889
1.2365799
1.1483903
1.0810412
1.0509626
1.051584
1.059681
1.0627515
1.0505589
1.0460452
1.073918
1.1489089
1.2566553
1.3450347
1.3377196
1.2351921
1.1296647
1.0640709
1.047277
1.0471344
1.0528922
1.0379919
1.0460951
1.3295937
1.2585799
1.1642529
1.0931662
1.0636473
1.0666672
1.0762186
1.0782287
1.0653634
1.0618958
1.091967
1.1736265
1.2891268
1.3760321
1.3569178
1.2450169
1.1377416
1.0725547
1.0578527
1.060934
1.0650064
1.0482937
1.0588464
1.3439724
1.2724529
1.1778131
1.1083202
1.0806585
1.0852433
1.0957171
1.0988051
1.0879755
1.0882072
1.124018
1.2073082
1.316293
1.3885515
1.3522099
1.2398763
1.1388612
1.084804
1.0777992
1.0768204
1.0744896
1.0634406
1.082788
1.3279445
1.2751785
1.1945968
1.1321121
1.1034021
1.1090666
1.121568
1.1263703
1.1209661
1.1251898
1.1670628
1.2435544
1.3316546
1.3726876
1.3238943
1.2252116
1.1454946
1.1066469
1.1004187
1.1010812
1.0877202
1.0821176
1.1241327
1.2902024
1.2615779
1.2071317
1.1606174
1.1374435
1.1483031
1.1672573
1.1764393
1.1758973
1.1816228
1.2131957
1.263533
1.3123175
1.3260118
1.2823984
1.212782
1.1590308
1.1395324
1.1356385
1.1360395
1.1172278
1.122437
1.1783996
1.2466983
1.2378212
1.209531
1.1830702
1.1816843
1.2107061
1.253872
1.2655049
1.2529086
1.2382187
1.2360915
1.2510062
1.2603051
1.2615499
1.2355992
1.2006765
1.1854218
1.1872336
1.1941006
1.1881474
1.173598
1.1833935
1.2318567
1.235665
1.2285373
1.2057724
1.1972558
1.2283463
1.3027937
1.3872029
1.3875391
1.3256657
1.2583801
1.218173
1.2050458
1.1991956
1.1914326
1.180527
1.1888429
1.222201
1.2665427
1.2937526
1.2667131
1.2335451
1.2260628
1.2240668
1.3127914
1.2868381
1.2459393
1.2309836
1.2801457
1.3872587
1.4801553
1.4377911
1.3254652
1.230967
1.1829581
1.1610961
1.1491618
1.1356232
1.1479036
1.2040797
1.3020303
1.388082
1.3898927
1.3151795
1.2465242
1.2001803
1.1498628
1.4031029
1.3703875
1.3146773
1.2726662
1.2831245
1.3570836
1.4156126
1.3664296
1.285946
1.21833
1.1790199
1.1578867
1.1450432
1.145998
1.1911228
1.284213
1.3866308
1.4310025
1.3690038
1.2732747
1.2035113
1.144691
1.1069868
1.456311
1.3912758
1.3075204
1.2415182
1.2233055
1.2556238
1.2773549
1.267399
1.2522525
1.2421694
1.2318946
1.2264106
1.2271795
1.2413622
1.2734424
1.3119954
1.3293093
1.3090474
1.2608266
1.2219935
1.1865901
1.149224
1.1343321
1.4450426
1.3578612
1.2704482
1.2061342
1.1866476
1.1947868
1.2014563
1.203761
1.2359826
1.2890458
1.3354344
1.3475256
1.3238711
1.2887516
1.2594417
1.2296766
1.199672
1.1755994
1.1772026
1.2039854
1.2385001
1.2603024
1.2636755
1.3475357
1.2982869
1.2542603
1.2261599
1.2164414
1.2127145
1.2110175
1.2219937
1.2570721
1.3088709
1.353676
1.3604878
1.3229258
1.2657167
1.2087767
1.1604833
1.1337751
1.1346197
1.1678445
1.2312262
1.2974479
1.3408877
1.3353492
1.2645761
1.2354386
1.2394824
1.2671188
1.2957339
1.2990406
1.2832453
1.2657136
1.2596349
1.2619562
1.2647883
1.2636406
1.2549222
1.24146
1.2208202
1.1978819
1.1843739
1.1868371
1.2118803
1.2403396
1.2511448
1.2430574
1.2355016
1.267658
1.2265327
1.2293047
1.2716263
1.3176333
1.3329331
1.3147567
1.2795156
1.241065
1.2099596
1.1910462
1.1876414
1.2034768
1.2335413
1.2642694
1.2824125
1.2803976
1.2584822
1.2292586
1.1947186
1.1649419
1.1528061
1.1724544
1.3367174
1.2660921
1.2368469
1.245863
1.2583379
1.2678123
1.2712206
1.2656448
1.2490892
1.2246756
1.2041635
1.1973045
1.2071195
1.230501
1.2545174
1.2667868
1.2630498
1.2481829
1.229424
1.2111396
1.202641
1.2124405
1.2374826
1.3515749
1.2822095
1.2397369
1.225813
1.2171474
1.214033
1.2222199
1.2421105
1.2626412
1.272324
1.2663371
1.2492068
1.2298939
1.2146519
1.1989864
1.1858561
1.1813966
1.1911265
1.2195133
1.2683776
1.3254091
1.3636034
1.3502195
1.2998244
1.2558791
1.2401611
1.2433474
1.2401668
1.232233
1.2292923
1.2375081
1.2515078
1.2616187
1.2617668
1.2518677
1.236107
1.2145064
1.1902232
1.171056
1.1614511
1.1737433
1.2110438
1.2696835
1.3314894
1.3716826
1.3555028
1.2809009
1.2357957
1.2326418
1.2585602
1.2711003
1.2677365
1.2549707
1.2399893
1.2260967
1.2138655
1.2064646
1.2054645
1.2107758
1.219623
1.2295784
1.234804
1.2308089
1.2242869
1.2217548
1.2304287
1.2425218
1.2602257
1.2739077
1.3051191
1.2543125
1.2297171
1.2405512
1.251888
1.2542415
1.2510156
1.2426883
1.2294231
1.2129977
1.19624
1.185373
1.1828307
1.192069
1.2117538
1.2369796
1.26306
1.2840327
1.2848719
1.2620671
1.2331151
1.2031294
1.1877703
1.3059137
1.2714076
1.2344207
1.2265745
1.2245468
1.2212709
1.2195618
1.2216641
1.2256482
1.228125
1.2261132
1.2178944
1.2057482
1.1948142
1.1901193
1.1959512
1.2124439
1.2359424
1.2570434
1.2621866
1.2474098
1.2187831
1.1933019
1.2703333
1.2597159
1.2340904
1.225989
1.2244502
1.2190108
1.2125002
1.2105549
1.2142839
1.2214873
1.2289621
1.2318892
1.2277832
1.2174409
1.2038122
1.1926382
1.1903654
1.2012123
1.2184927
1.2349609
1.2413352
1.229561
1.207204
1.2462351
1.2429523
1.2309712
1.2262336
1.2331919
1.236469
1.2343397
1.2288929
1.2219336
1.2153819
1.2093923
1.2036185
1.1998206
1.1988128
1.2000179
1.2021836
1.2075537
1.2171243
1.2254569
1.2306206
1.2288324
1.2176047
1.1983766
1.2492948
1.2456451
1.234435
1.2213925
1.2227951
1.2281746
1.2308034
1.2312564
1.2278369
1.219016
1.2055495
1.1898395
1.1766088
1.1714018
1.1753556
1.1895488
1.2123006
1.2333292
1.2425989
1.2393363
1.2248848
1.2053043
1.1856154
1.240766
1.2433618
1.2367607
1.2208235
1.2117506
1.2085962
1.2075005
1.2082087
1.2098119
1.2108983
1.2080079
1.2004575
1.1910539
1.1825365
1.1799083
1.1870249
1.204551
1.2228057
1.2305294
1.2248577
1.2096349
1.1942136
1.1822638
1.2170702
1.2234219
1.2282182
1.2242891
1.2176611
1.2139255
1.210146
1.2048221
1.2012051
1.2003444
1.2010898
1.2023043
1.2015092
1.1983075
1.1951065
1.1950905
1.2012281
1.2108729
1.2133506
1.2067204
1.1962848
1.1892072
1.1878425
1.2126196
1.2138723
1.2187251
1.2210276
1.2208882
1.2219252
1.2225066
1.2194214
1.2127506
1.2047425
1.1980475
1.1932837
1.1900438
1.1866958
1.1834009
1.1827716
1.1879352
1.1988648
1.2061982
1.2067972
1.2032008
1.199164
1.1975291
1.2215888
1.2193348
1.217898
1.2155691
1.2117234
1.2098921
1.2107029
1.2119447
1.2107015
1.2060879
1.1996024
1.1924649
1.1852288
1.1785974
1.1719177
1.1693833
1.1733671
1.1876319
1.2026002
1.2128591
1.2143509
1.2090595
1.1996062
1.211819
1.2131187
1.2149653
1.2159463
1.2126759
1.2073262
1.2029453
1.2009123
1.2001809
1.1990635
1.1970334
1.1936814
1.1893467
1.1842533
1.1786247
1.1751737
1.1768058
1.1885312
1.2033835
1.21272
1.2129578
1.205341
1.1921888
1.2051965
1.2039509
1.2078723
1.2145756
1.2194198
1.218525
1.2138519
1.2087546
1.2042473
1.2007122
1.1973727
1.1931757
1.1883179
1.1828928
1.1777714
1.1738112
1.1753117
1.1834853
1.1967075
1.2042296
1.2029814
1.1965765
1.1873642
1.2192487
1.2093403
1.2055461
1.20755
1.2112379
1.2130736
1.2114369
1.2072497
1.2027216
1.2001486
1.1975851
1.1939836
1.1886673
1.1812744
1.1735217
1.1670067
1.1660485
1.1712097
1.183906
1.1940689
1.1967275
1.1948212
1.1921407
1.2171261
1.2073901
1.2025021
1.2020933
1.2043607
1.2072918
1.2077351
1.2051051
1.2006615
1.1975094
1.1962725
1.1955047
1.1928451
1.1869773
1.1793381
1.1708924
1.1661178
1.1679622
1.1773263
1.1903914
1.1974147
1.1983953
1.1972839
1.2207559
1.2049267
1.1981958
1.1980681
1.2009529
1.2065505
1.2112269
1.2116041
1.2078593
1.201901
1.1967097
1.1939485
1.1915353
1.1871822
1.1807254
1.1722612
1.1652609
1.1635464
1.1686976
1.1810179
1.191982
1.1956174
1.1948823
1.2185412
1.2014107
1.1947703
1.1933147
1.1946153
1.1991184
1.204653
1.2085338
1.2085414
1.2041744
1.1980912
1.1930724
1.189342
1.1865111
1.1817344
1.1751332
1.1675007
1.1619708
1.1627694
1.169926
1.182368
1.1907203
1.1935152
1.223876
1.1998233
1.1931698
1.1931965
1.1952126
1.1979694
1.2016236
1.2051181
1.2062262
1.2050018
1.2010489
1.1958398
1.1910553
1.188174
1.1845747
1.1799683
1.1730734
1.1656216
1.1617538
1.1633733
1.1715886
1.1822746
1.1905367
1.2260699
1.1982172
1.190085
1.1895262
1.1927516
1.1971667
1.2009514
1.2037243
1.2053571
1.2057052
1.2040315
1.2002711
1.1952148
1.1901704
1.1852609
1.1808063
1.1747797
1.1678657
1.1613361
1.1588731
1.1620912
1.1710786
1.1826102
1.2408779
1.2054978
1.1905439
1.1846564
1.1863986
1.1922616
1.198417
1.2030967
1.2065522
1.2082127
1.2080122
1.2057411
1.2005646
1.1938088
1.1871249
1.1811459
1.1755387
1.169849
1.1635377
1.1594678
1.1591524
1.1633326
1.1730987
1.2519669
1.2148024
1.1940348
1.1831577
1.1814174
1.1874625
1.1960633
1.2032603
1.2080524
1.2098832
1.2093419
1.2072508
1.2031235
1.1969529
1.1899515
1.183263
1.178119
1.1731634
1.1677641
1.1622966
1.1587051
1.1594622
1.1640003
1.2700858
1.2329711
1.2060652
1.1876519
1.1803851
1.1818608
1.1897277
1.1980045
1.2041576
1.2073593
1.2075396
1.2058463
1.2027115
1.1986607
1.1937138
1.1881431
1.1829616
1.1779009
1.1727014
1.1661084
1.1599208
1.1563825
1.1572796
1.2931691
1.2601781
1.227697
1.1999272
1.1832297
1.1777597
1.1802865
1.1878416
1.1952801
1.2006854
1.2035678
1.2042691
1.2028513
1.1996711
1.1952177
1.1899838
1.1847561
1.1795701
1.1744374
1.1683311
1.1616153
1.1560947
1.1546358
1.3246422
1.2984143
1.2624218
1.2252472
1.1965264
1.1806265
1.1750547
1.1765649
1.1834629
1.1906685
1.1960306
1.198807
1.1993225
1.1974142
1.1937936
1.1891802
1.1842575
1.1794881
1.1749246
1.170213
1.1653118
1.159776
1.1567672
1.3567902
1.3435259
1.310755
1.2685523
1.2285385
1.1984412
1.1808303
1.1737443
1.1729282
1.1770802
1.1831427
1.188017
1.1905786
1.1909512
1.1892678
1.1864762
1.1830742
1.1794631
1.1761534
1.1727247
1.1690757
1.164391
1.1602206
1.380984
1.3832326
1.3649298
1.3280385
1.2843038
1.2418738
1.207523
1.1857695
1.1752134
1.1706982
1.1705353
1.1734603
1.1772862
1.180732
1.182179
1.1819806
1.1806873
1.1784172
1.1762426
1.1734533
1.1705403
1.1665005
1.1625176
1.3905728
1.4051326
1.4039122
1.3849196
1.3526551
1.3115344
1.2674022
1.227703
1.1985079
1.1807705
1.1724259
1.168861
1.1677176
1.1689958
1.1712114
1.1732685
1.1745182
1.1741088
1.1735401
1.1716993
1.1699827
1.1671542
1.1646214
1.3990372
1.414594
1.4171995
1.4122787
1.3994089
1.3766964
1.3439243
1.3036738
1.2621257
1.2258005
1.1987197
1.1816843
1.1725714
1.168336
1.1658581
1.165029
1.1653407
1.1661522
1.1672219
1.1672923
1.1674409
1.1663573
1.1657604
1.4074519
1.4167473
1.4176402
1.4158063
1.4121669
1.4056455
1.3932357
1.3726931
1.3432774
1.3070661
1.2687464
1.2337264
1.2060346
1.1868623
1.174969
1.1683206
1.1652092
1.1631719
1.1624804
1.1618858
1.1620772
1.1620961
1.1627504
1.4115994
1.4153175
1.4146542
1.4129206
1.4106999
1.4076828
1.4038977
1.3981855
1.388372
1.3719125
1.3476331
1.316666
1.2823966
1.2490842
1.2205493
1.1983738
1.1828057
1.1725627
1.1664661
1.1629323
1.1609421
1.1595029
1.158782
1.4079622
1.4091092
1.4062566
1.4040704
1.4025541
1.4011764
1.3994224
1.3967717
1.3931673
1.388639
1.381777
1.3706595
1.3532514
1.3294939
1.3010273
1.2707852
1.2419782
1.2170484
1.1971695
1.1825493
1.1723966
1.1659124
1.1580491
1.3999351
1.398483
1.3934032
1.3897115
1.3873364
1.3859195
1.3852066
1.3847204
1.384047
1.3826057
1.3801489
1.3765385
1.3719381
1.3651942
1.3549741
1.3396087
1.3191303
1.2949346
1.2690617
1.2438462
1.2211165
1.2021264
1.1792391
1.3928463
1.3860753
1.3785631
1.3728129
1.3685638
1.36548
1.3634449
1.362424
1.3621969
1.3624399
1.3629226
1.3632376
1.3627387
1.3610541
1.3579084
1.3540726
1.348754
1.3410728
1.3300796
1.3147382
1.2956878
1.2739914
1.2462752
1.3849819
1.3736598
1.3636593
1.3555747
1.3490064
1.3435977
1.3391568
1.3357108
1.3333769
1.3321718
1.3319823
1.3327199
1.334122
1.3359623
1.3378416
1.3389979
1.3391945
1.3379463
1.3352088
1.3318594
1.3272688
1.3207258
1.3101481
1.3762982
1.3615267
1.3493678
1.3391279
1.3302775
1.3224936
1.3156338
1.3096068
1.3044385
1.3002133
1.2970145
1.2949432
1.2941283
1.2946789
1.2965191
1.299347
1.3028147
1.3066779
1.3104461
1.3133665
1.3152913
1.3160833
1.3159781
1.3670044
1.3496455
1.3355632
1.3233624
1.3124344
1.3025853
1.2937701
1.2857591
1.2783216
1.2714055
1.265152
1.2597751
1.2554147
1.2521923
1.2502732
1.2497959
1.2508175
1.253371
1.2574836
1.2628594
1.2690287
1.275657
1.2831948
1.3566978
1.3370458
1.3210683
1.306711
1.2938248
1.2824997
1.2724686
1.2631376
1.2540931
1.2454163
1.2373512
1.2299206
1.2229586
1.2164478
1.2106905
1.205944
1.2024398
1.2002862
1.1997397
1.2010143
1.2041049
1.2089017
1.2153709
1.3465432
1.3262963
1.3072769
1.2898834
1.2745844
1.2616846
1.2507187
1.2406462
1.2306609
1.220809
1.211624
1.20318
1.1949825
1.1867082
1.1786629
1.1712449
1.1645497
1.15847
1.153141
1.149097
1.1465635
1.1458869
1.1477963
1.3330995
1.312535
1.2904298
1.270339
1.2531595
1.2391437
1.2275905
1.2170062
1.2061927
1.1954409
1.1856643
1.1769487
1.1684718
1.1594212
1.1500927
1.1413438
1.1332761
1.125422
1.1175669
1.1101307
1.1034224
1.0978408
1.0958069
1.3158113
1.2942153
1.2699164
1.2481663
1.2297032
1.2146929
1.2025522
1.1915987
1.1805698
1.1695038
1.1592268
1.1501584
1.141413
1.1319707
1.1220545
1.1125871
1.1037922
1.0952205
1.0862043
1.0769394
1.0679057
1.05926
1.054599
1.2946179
1.2717354
1.2463039
1.2238133
1.2048272
1.1894986
1.1772077
1.1663776
1.1554356
1.1439188
1.1329127
1.123288
1.1143007
1.1047327
1.0942846
1.0838529
1.0742367
1.064863
1.0549127
1.0444175
1.0344979
1.025738
1.0211537
1.2715237
1.2460258
1.2203118
1.198573
1.180385
1.1652946
1.1529121
1.1420828
1.1311382
1.1194741
1.1081041
1.097803
1.0882457
1.0783545
1.0672927
1.0558493
1.0448215
1.034348
1.0247824
1.0163915
1.0101516
1.0059345
1.0045548
1.2489261
1.2212372
1.1956074
1.1748949
1.157639
1.1429794
1.1307936
1.1199075
1.108731
1.0969787
1.0852667
1.0743174
1.0641811
1.0534921
1.0414355
1.0290647
1.0182819
1.0107364
1.0062783
1.0035415
1.0019898
1.0011601
1.0014337
1.2282548
1.1988088
1.1731952
1.1534777
1.1371537
1.1232556
1.1111623
1.0996625
1.0883811
1.0767079
1.0645416
1.0528893
1.0416
1.0300167
1.0183702
1.0087204
1.0035263
1.0018737
1.0018005
1.0016138
1.001049
1.0006207
1.0006411
1.2099151
1.1791367
1.1535489
1.1345131
1.1192787
1.1058852
1.0935026
1.0816738
1.0700093
1.058028
1.0457367
1.033208
1.0210315
1.0109336
1.0043339
1.0013459
1.0004732
1.0007371
1.0013488
1.0012986
1.0007362
1.0001737
1.0004722
1.1934254
1.1618266
1.136673
1.1182555
1.1032962
1.0900182
1.0776433
1.065459
1.0534664
1.0412268
1.0281469
1.0153029
1.0058618
1.0020467
1.0013566
1.0006735
1.0000929
1.0002591
1.0008975
1.0012266
1.0006349
0.99996036
1.0002205
1.1786413
1.1463719
1.1217768
1.1035855
1.0888046
1.0756856
1.0633541
1.051179
1.038386
1.0250147
1.0120506
1.0035362
1.0010179
1.0008222
1.0007101
1.0003594
1.0000649
1.0001279
1.0006447
1.0009368
1.0006052
0.99987636
0.99973122
1.1658002
1.1319497
1.107904
1.0906415
1.0762264
1.0630252
1.0501168
1.0370803
1.0238786
1.0110114
1.0028218
1.0004301
1.0002469
1.000529
1.0006019
1.0002312
0.99985977
1.0000001
1.0005617
1.0006785
1.0002375
0.9997037
0.99965132
1.1535997
1.1191454
1.0958947
1.0789808
1.0644877
1.0510339
1.0378603
1.0243817
1.0110745
1.0025813
1.0004538
1.0003346
1.0002589
1.0001622
1.0002001
1.0001508
1.0000206
0.9999868
1.0001481
1.0001884
1.0000245
0.99970325
0.99981353
1.1424545
1.1074983
1.0847914
1.0682511
1.0538084
1.0398971
1.0260856
1.0127228
1.0034068
1.0007922
1.0003597
1.000147
0.999988
0.99994981
0.99999472
1.0001298
1.0002044
1.0000072
0.99978204
0.99968394
0.9998815
0.99994331
0.9999274
1.1315607
1.09692
1.0752337
1.0587093
1.0439586
1.0296032
1.0152985
1.0045531
1.0011752
1.0006473
1.0004597
1.0000538
0.99971782
0.99995727
1.0000794
1.0001358
1.0001262
0.99993359
0.99962963
0.99955758
0.9997054
0.99992015
0.999942
1.1215149
1.0875017
1.0667242
1.0501696
1.0348185
1.0198111
1.0067465
1.001389
1.0011301
1.0009566
1.0006816
0.99998952
0.99958457
1.0001678
1.0003202
1.000181
0.99974964
0.99949844
0.99954702
0.99993588
0.99980781
0.99960239
0.99930764
1.113689
1.0789453
1.0579522
1.0416863
1.0266408
1.0122518
1.0027696
1.0008811
1.0010303
1.0007198
1.0007469
1.0005254
1.0001682
1.0002923
1.0000785
1.0001768
1.0000832
0.99982682
0.99950531
0.99971596
0.99961198
0.99977045
0.99982436
1.1062682
1.0715797
1.0510894
1.0343262
1.0192687
1.0066598
1.0013313
1.001212
1.0016191
1.0015753
1.0013234
1.0002913
1.0000993
1.0008388
1.0011831
1.0012752
1.0000482
0.99937901
0.99935603
1.0001049
1.0004546
1.000093
0.99888897
1.1003133
1.0652976
1.0448072
1.0276972
1.0125951
1.0041623
1.002412
1.0023182
1.0021904
1.0015518
1.0014719
1.0015144
1.0018099
1.0019791
1.0012417
1.0012016
1.0012514
1.000791
1.0001601
1.0002463
1.0000727
1.0005272
1.0008061
1.0943717
1.0605971
1.0398596
1.0221681
1.0085618
1.003611
1.0033343
1.0033167
1.0029695
1.0030444
1.0036194
1.0033608
1.0025077
1.0029146
1.0034315
1.0033091
1.0025946
1.0019115
1.0013423
1.0014509
1.0022082
1.0014738
0.99990406
1.0896541
1.0560915
1.0357966
1.0180718
1.006589
1.0039578
1.004205
1.0050671
1.0054871
1.0050763
1.0051075
1.0061401
1.006473
1.0060827
1.0060272
1.0065066
1.0065223
1.0055659
1.0045651
1.0042074
1.0042964
1.00374
1.0026322
1.084542
1.0523235
1.0330697
1.0162099
1.0062587
1.0038741
1.0050526
1.0073877
1.0091128
1.0093956
1.0089294
1.0096867
1.0118139
1.0132
1.0127863
1.0117924
1.0123484
1.0133781
1.0126656
1.0101951
1.0088649
1.0097335
1.0102766
1.0831789
1.0481848
1.0276503
1.0131763
1.0079333
1.0075315
1.0079577
1.0088118
1.0114925
1.015263
1.0179067
1.0184367
1.0184477
1.0198931
1.0228319
1.024949
1.024681
1.0230983
1.022639
1.0232992
1.0233754
1.0218723
1.0197342
1.0783745
1.0467811
1.0274486
1.0124989
1.0070485
1.0081923
1.012079
1.0151613
1.0179567
1.0214322
1.0254367
1.0285659
1.0303705
1.0322954
1.035534
1.0388376
1.040139
1.0396398
1.03953
1.0409259
1.0420369
1.0409192
1.0386566
1.076036
1.0438225
1.0267838
1.0138203
1.0085934
1.0098982
1.0153475
1.0215377
1.0268053
1.0302423
1.0333132
1.0380143
1.0439782
1.0487105
1.0510369
1.0527914
1.0560783
1.059937
1.0617315
1.0613375
1.0616985
1.0639992
1.0654424
1.076369
1.0429053
1.0243648
1.0129851
1.0112419
1.0157571
1.0209185
1.0255243
1.0312601
1.0383044
1.0451976
1.0505944
1.0549699
1.0599213
1.0657514
1.0708582
1.074058
1.0762959
1.079535
1.0837099
1.0864237
1.086717
1.0861735
1.0744749
1.0433787
1.0265847
1.0152559
1.0124744
1.0171453
1.0240258
1.0312415
1.038227
1.0449317
1.0518064
1.0590495
1.066205
1.0725516
1.0779603
1.0829776
1.088011
1.0929706
1.0974142
1.1010696
1.1038793
1.1059091
1.1076043
1.0719909
1.0435718
1.0268486
1.0170363