/*--------------------------------*- C++ -*----------------------------------*\
| =========                 |                                                 |
| \\      /  F ield         | OpenFOAM: The Open Source CFD Toolbox           |
|  \\    /   O peration     | Version:  2406                                  |
|   \\  /    A nd           | Website:  www.openfoam.com                      |
|    \\/     M anipulation  |                                                 |
\*---------------------------------------------------------------------------*/
FoamFile
{
    version     2.0;
    format      ascii;
    arch        "LSB;label=32;scalar=64";
    class       volScalarField;
    location    "195";
    object      alphat;
}
// * * * * * * * * * * * * * * * * * * * * * * * * * * * * * * * * * * * * * //

dimensions      [1 -1 -1 0 0 0 0];

internalField   nonuniform List<scalar> 
20580
(
8.9271198e-07
9.4529965e-07
9.1480906e-07
8.8331194e-07
8.5200578e-07
8.314644e-07
8.1414881e-07
8.0513557e-07
7.9582965e-07
7.9335904e-07
7.8805943e-07
7.8786291e-07
7.8435305e-07
7.8359597e-07
7.8311747e-07
7.8257002e-07
7.8337707e-07
7.9013582e-07
7.8899946e-07
7.9484037e-07
8.0596034e-07
8.0629988e-07
8.1447758e-07
8.3792454e-07
8.6449174e-07
8.8955777e-07
9.2085392e-07
9.6822172e-07
9.997082e-07
1.0487224e-06
1.1784253e-06
8.9352398e-07
9.5309399e-07
9.2299013e-07
8.9452789e-07
8.6182638e-07
8.3616822e-07
8.1573859e-07
8.0681231e-07
7.9610022e-07
7.9189434e-07
7.8684626e-07
7.8363093e-07
7.8067141e-07
7.7849993e-07
7.7749627e-07
7.7505291e-07
7.7817079e-07
7.8335723e-07
7.8207114e-07
7.8937732e-07
8.0330518e-07
8.0023765e-07
8.0865164e-07
8.3176565e-07
8.5638745e-07
8.765119e-07
9.0771046e-07
9.6142688e-07
1.0209405e-06
1.0346879e-06
1.1472919e-06
8.9401938e-07
9.5464629e-07
9.2474497e-07
8.9820236e-07
8.6917651e-07
8.4704933e-07
8.2272023e-07
8.0938455e-07
7.9755995e-07
7.9226481e-07
7.870954e-07
7.8225558e-07
7.7789532e-07
7.7550027e-07
7.7392962e-07
7.6860212e-07
7.7401702e-07
7.7365759e-07
7.7257368e-07
7.8280687e-07
7.9602434e-07
7.9452592e-07
8.0106575e-07
8.2399054e-07
8.4487632e-07
8.6446449e-07
8.8473253e-07
9.3254122e-07
1.0140807e-06
1.0342078e-06
1.1093315e-06
8.956503e-07
9.5207608e-07
9.2373508e-07
8.9789622e-07
8.7204664e-07
8.510893e-07
8.358029e-07
8.1830432e-07
8.048271e-07
7.9749891e-07
7.916313e-07
7.8542587e-07
7.8073575e-07
7.7516227e-07
7.740498e-07
7.6648548e-07
7.7199497e-07
7.6981207e-07
7.6619515e-07
7.7904462e-07
7.8546863e-07
7.8700291e-07
7.9273849e-07
8.1386069e-07
8.3089276e-07
8.5311442e-07
8.8345771e-07
9.1562067e-07
9.7104276e-07
9.9994376e-07
1.0687012e-06
8.9794627e-07
9.5329248e-07
9.2280662e-07
8.9632974e-07
8.7515214e-07
8.5568689e-07
8.4186912e-07
8.3323019e-07
8.2461042e-07
8.1530129e-07
8.0684366e-07
7.9730328e-07
7.924488e-07
7.8228807e-07
7.7940567e-07
7.7105356e-07
7.7202001e-07
7.6939032e-07
7.6504484e-07
7.783528e-07
7.785427e-07
7.8468467e-07
7.9181768e-07
8.0871063e-07
8.2198673e-07
8.5205038e-07
8.9175927e-07
9.3422364e-07
9.7997672e-07
1.022682e-06
1.052595e-06
9.0066357e-07
9.5799919e-07
9.2443807e-07
8.9749365e-07
8.7714168e-07
8.5899779e-07
8.4644133e-07
8.4253166e-07
8.4497276e-07
8.4389734e-07
8.4304923e-07
8.3440055e-07
8.3096885e-07
8.1510279e-07
8.0279654e-07
7.9239302e-07
7.8244599e-07
7.7601369e-07
7.7123871e-07
7.8002476e-07
7.7722582e-07
7.8400484e-07
7.9317057e-07
8.03738e-07
8.1103663e-07
8.4535912e-07
8.9090241e-07
9.4649203e-07
9.8841085e-07
1.0826658e-06
1.0988809e-06
9.0649877e-07
9.6541011e-07
9.3186419e-07
9.0335913e-07
8.8062147e-07
8.6261177e-07
8.5238277e-07
8.4805518e-07
8.5393918e-07
8.5980685e-07
8.6483359e-07
8.6910151e-07
8.66645e-07
8.6084445e-07
8.5156221e-07
8.4544456e-07
8.2528896e-07
8.0961722e-07
7.9879935e-07
7.9419201e-07
7.8419982e-07
7.8865195e-07
7.9929855e-07
7.9878721e-07
7.9968842e-07
8.2504185e-07
8.6596387e-07
9.2242374e-07
9.5865492e-07
1.0516986e-06
1.1354179e-06
9.2237005e-07
1.0457891e-06
9.769974e-07
9.2807169e-07
8.8990495e-07
8.6691355e-07
8.5457541e-07
8.5271324e-07
8.5620022e-07
8.6286177e-07
8.695e-07
8.7528127e-07
8.7700231e-07
8.7558939e-07
8.7174385e-07
8.6866452e-07
8.6365866e-07
8.526609e-07
8.4969135e-07
8.4033537e-07
8.1937044e-07
8.1133901e-07
8.1787329e-07
8.0821315e-07
8.0098197e-07
8.209721e-07
8.5117662e-07
8.6915867e-07
8.9356635e-07
9.4539897e-07
1.0981736e-06
1.0532636e-06
1.0646745e-06
1.0115898e-06
9.5535073e-07
9.0218588e-07
8.7229856e-07
8.5596709e-07
8.5360519e-07
8.5129311e-07
8.5656145e-07
8.6139327e-07
8.6339893e-07
8.6849057e-07
8.7114278e-07
8.7034735e-07
8.6970209e-07
8.7019734e-07
8.6168095e-07
8.7256404e-07
8.7104773e-07
8.6530144e-07
8.6261198e-07
8.6956305e-07
8.5505303e-07
8.2883474e-07
8.3884172e-07
8.6199924e-07
8.8110704e-07
8.9855203e-07
9.1675554e-07
9.9950326e-07
9.3884273e-07
1.0318763e-06
1.0052428e-06
9.7723266e-07
9.2299658e-07
8.8949988e-07
8.6971299e-07
8.6488399e-07
8.6090364e-07
8.6156188e-07
8.606465e-07
8.5688433e-07
8.5348989e-07
8.4749058e-07
8.4579998e-07
8.5395001e-07
8.6411235e-07
8.6387912e-07
8.742668e-07
8.7651493e-07
8.8035583e-07
8.9896348e-07
9.0974026e-07
9.1821696e-07
9.1335481e-07
9.1367468e-07
9.2332776e-07
9.4402089e-07
9.5764231e-07
9.6819182e-07
1.0104136e-06
8.5391517e-07
9.1086761e-07
9.4738083e-07
9.524097e-07
9.561796e-07
9.5697886e-07
9.5113187e-07
9.5318163e-07
9.4823701e-07
9.3308864e-07
9.1405771e-07
8.949456e-07
8.7430427e-07
8.5688161e-07
8.4718267e-07
8.4344093e-07
8.4137468e-07
8.5056112e-07
8.6577567e-07
8.7355779e-07
8.84993e-07
9.0730375e-07
9.1568671e-07
9.3436591e-07
9.5960651e-07
9.7680816e-07
9.8984963e-07
1.0436893e-06
1.0886486e-06
1.1578052e-06
1.1442951e-06
8.6038335e-07
8.7037733e-07
8.7671911e-07
9.0794187e-07
9.4165884e-07
9.9202361e-07
1.0550311e-06
1.1141957e-06
1.1561151e-06
1.1619776e-06
1.1400425e-06
1.0917949e-06
1.0115356e-06
9.4053546e-07
8.94825e-07
8.674349e-07
8.5177802e-07
8.5560054e-07
8.6308054e-07
8.6936145e-07
8.8791933e-07
9.1409189e-07
9.1836427e-07
9.3535228e-07
9.6951318e-07
9.8877428e-07
9.9019706e-07
1.0217404e-06
1.0883461e-06
1.1812907e-06
1.2486709e-06
8.7351367e-07
9.54194e-07
9.1032004e-07
8.8627362e-07
9.0018858e-07
9.4124129e-07
1.0095447e-06
1.0694151e-06
1.1249622e-06
1.1570895e-06
1.1663509e-06
1.1519697e-06
1.1223076e-06
1.0935937e-06
1.0543452e-06
9.9245292e-07
9.4051667e-07
9.2213426e-07
9.140741e-07
9.1317054e-07
9.255323e-07
9.4846387e-07
9.4881727e-07
9.5923252e-07
9.9410289e-07
1.016691e-06
1.0108996e-06
1.0190238e-06
1.0684627e-06
1.1635126e-06
1.2264177e-06
9.4867608e-07
1.0160965e-06
9.7706739e-07
9.2017773e-07
8.9502528e-07
8.7556529e-07
8.869104e-07
9.1794609e-07
9.4474561e-07
9.7927322e-07
1.0069984e-06
1.0113491e-06
1.031817e-06
1.0503187e-06
1.0649072e-06
1.0842474e-06
1.1063234e-06
1.1408788e-06
1.1687012e-06
1.1908487e-06
1.2105184e-06
1.2312362e-06
1.2223495e-06
1.2105455e-06
1.2287224e-06
1.2393374e-06
1.2099241e-06
1.1859606e-06
1.1990668e-06
1.2706503e-06
1.2674904e-06
8.9590495e-07
1.0147647e-06
9.8278318e-07
9.6325939e-07
9.3747883e-07
9.1155948e-07
9.1015528e-07
9.3330169e-07
9.4603477e-07
9.5487707e-07
9.3531872e-07
9.0313258e-07
9.0794241e-07
9.4633993e-07
9.8160584e-07
1.0215809e-06
1.0623607e-06
1.1505441e-06
1.3070457e-06
1.4631915e-06
1.6196437e-06
1.7493534e-06
1.8337242e-06
1.8990521e-06
1.9621822e-06
2.0061434e-06
2.035271e-06
2.0237624e-06
2.0309927e-06
2.0251441e-06
1.9493997e-06
8.8672985e-07
9.4374963e-07
9.4551783e-07
9.5099231e-07
9.5617561e-07
9.5782112e-07
9.6957986e-07
9.9503686e-07
9.9537737e-07
9.7964981e-07
9.5675445e-07
9.2026009e-07
8.8240911e-07
8.773507e-07
9.0147662e-07
9.1547707e-07
9.4245359e-07
1.0106266e-06
1.163408e-06
1.3516387e-06
1.5211809e-06
1.6634003e-06
1.7873203e-06
1.8906908e-06
1.991124e-06
2.0780976e-06
2.1803903e-06
2.27227e-06
2.3323892e-06
2.3675308e-06
2.3946396e-06
8.8418207e-07
9.3124661e-07
9.1509451e-07
9.0702185e-07
9.0715921e-07
9.034911e-07
9.0967847e-07
9.306478e-07
9.3913666e-07
9.4404187e-07
9.3536685e-07
9.1120608e-07
8.8959804e-07
8.7716439e-07
8.6010468e-07
8.5225619e-07
8.6622561e-07
8.8361679e-07
9.0751114e-07
9.8157239e-07
1.0756816e-06
1.1749362e-06
1.2765435e-06
1.3979778e-06
1.5098268e-06
1.5912556e-06
1.7008492e-06
1.8349506e-06
1.9889007e-06
2.0444821e-06
2.1294347e-06
8.8367468e-07
9.3782041e-07
9.1809189e-07
9.096311e-07
9.0210404e-07
8.9703603e-07
9.0896412e-07
9.297201e-07
9.5790354e-07
9.7450643e-07
9.6463344e-07
9.4684934e-07
9.2447563e-07
8.9235461e-07
8.6195231e-07
8.4490591e-07
8.426057e-07
8.5404152e-07
8.6675121e-07
8.9411092e-07
9.2487046e-07
9.7456082e-07
1.0345848e-06
1.1178531e-06
1.1804363e-06
1.2134388e-06
1.2653789e-06
1.3408688e-06
1.4452829e-06
1.4771888e-06
1.5482282e-06
8.9486197e-07
1.0030023e-06
1.0034346e-06
1.0113618e-06
1.0083338e-06
9.9332392e-07
9.8765985e-07
9.7425361e-07
9.6350536e-07
9.6706272e-07
9.5514376e-07
9.3569885e-07
9.1095195e-07
8.8230428e-07
8.6287381e-07
8.6466747e-07
8.8041762e-07
8.9563905e-07
9.140273e-07
9.6624642e-07
1.0271149e-06
1.0731658e-06
1.1278258e-06
1.1960704e-06
1.2410143e-06
1.2582983e-06
1.2974978e-06
1.3551439e-06
1.4333968e-06
1.4640862e-06
1.4746125e-06
1.0138912e-06
1.0790601e-06
1.04809e-06
1.01742e-06
9.8807572e-07
9.5690754e-07
9.395757e-07
9.4173432e-07
9.3507691e-07
9.6170654e-07
9.8159529e-07
9.9859409e-07
1.0166021e-06
1.0195292e-06
1.0074637e-06
1.0145072e-06
1.0286073e-06
1.0418564e-06
1.0636906e-06
1.0997234e-06
1.135492e-06
1.1659861e-06
1.2091744e-06
1.2689861e-06
1.3177586e-06
1.3456928e-06
1.0446356e-06
1.4608724e-06
1.51529e-06
1.5556663e-06
1.5343249e-06
8.6463365e-07
9.4387231e-07
9.5087301e-07
1.0127058e-06
1.1928955e-06
1.2221044e-06
1.5230862e-06
1.5690015e-06
1.8293162e-06
1.6757703e-06
1.7492575e-06
1.7753555e-06
1.7659756e-06
1.765266e-06
1.7623944e-06
1.7650118e-06
1.7635554e-06
1.7762926e-06
1.8183688e-06
1.8831844e-06
1.9302201e-06
1.9874022e-06
2.0405263e-06
2.1141864e-06
1.4994697e-06
2.1848386e-06
1.7295521e-06
2.2465301e-06
1.694129e-06
1.1343945e-06
2.1564659e-06
9.3364631e-07
1.2764694e-06
1.869319e-06
1.9409346e-06
2.9930399e-06
2.9457524e-06
3.9149143e-06
3.8912612e-06
4.7727384e-06
4.5234244e-06
4.4093911e-06
4.2403482e-06
4.1404471e-06
4.0250393e-06
3.985531e-06
3.9736002e-06
4.0711392e-06
4.1523392e-06
4.2747367e-06
4.2800839e-06
3.8769967e-06
4.369458e-06
4.3823501e-06
4.1695372e-06
3.3628428e-06
3.9922749e-06
4.2828713e-06
4.2215517e-06
3.3513023e-06
2.7362073e-06
3.194284e-06
8.6874238e-07
1.7605756e-06
1.9775057e-06
2.3849392e-06
1.9795664e-06
2.9206678e-06
2.0107942e-06
3.4045426e-06
2.1001108e-06
3.6185262e-06
2.9247866e-06
2.6231826e-06
2.705811e-06
2.4704073e-06
2.503806e-06
2.4447609e-06
2.4627122e-06
2.3791381e-06
2.2459573e-06
2.3440208e-06
2.4054786e-06
2.2045448e-06
2.0992032e-06
2.2086859e-06
2.540472e-06
2.3731994e-06
1.9999188e-06
1.9170285e-06
2.3542162e-06
3.0647382e-06
2.5720226e-06
1.890841e-06
3.9953827e-06
2.0953327e-06
1.1827604e-06
1.4877075e-06
1.5346539e-06
2.0811608e-06
2.44575e-06
2.1435309e-06
1.4502725e-06
1.2916158e-06
1.3052254e-06
1.247904e-06
1.1396074e-06
1.1238569e-06
1.187975e-06
1.2280355e-06
1.1769268e-06
1.1060989e-06
1.1238074e-06
1.1996244e-06
1.2656176e-06
1.3150943e-06
1.8127524e-06
3.913583e-06
2.4573328e-06
1.6915818e-06
1.5789257e-06
1.6132164e-06
1.9874244e-06
2.4730086e-06
2.2908747e-06
1.6291446e-06
1.3547942e-06
1.4003386e-06
1.4016744e-06
1.3151571e-06
1.230268e-06
1.2483383e-06
1.3031882e-06
1.2840484e-06
1.2547503e-06
1.253832e-06
1.3188472e-06
1.3951047e-06
1.3560837e-06
3.0244122e-06
2.3647146e-06
1.1584703e-06
1.0727771e-06
1.7166697e-06
1.6981436e-06
1.96625e-06
2.4621675e-06
2.3958065e-06
2.0016655e-06
1.5322467e-06
1.5484736e-06
1.5486398e-06
1.4848874e-06
1.3147896e-06
1.2699231e-06
1.3439425e-06
1.3813547e-06
1.4223783e-06
1.4306757e-06
1.4503044e-06
1.4690227e-06
1.4840895e-06
2.0784124e-06
2.3420403e-06
1.9038786e-06
1.9407945e-06
1.4346431e-06
1.4334617e-06
1.9035481e-06
2.4030051e-06
2.5096434e-06
2.4582101e-06
1.938583e-06
1.8374664e-06
1.8127144e-06
1.7086751e-06
1.5469246e-06
1.4026421e-06
1.4532891e-06
1.5621525e-06
1.6363476e-06
1.644402e-06
1.5747277e-06
1.574487e-06
1.5846233e-06
1.1472708e-06
3.1968766e-06
1.6738628e-06
1.1718025e-06
1.6236359e-06
1.7415736e-06
1.9056149e-06
2.4596665e-06
2.6502823e-06
2.7124424e-06
2.3539943e-06
2.0338128e-06
2.010032e-06
1.9255284e-06
1.8198372e-06
1.6988029e-06
1.7115798e-06
1.8133566e-06
1.8326319e-06
1.8085962e-06
1.7121653e-06
1.6921864e-06
1.7300544e-06
1.1416521e-06
2.5337283e-06
2.0459664e-06
2.215309e-06
1.9563511e-06
1.206047e-06
1.3676109e-06
2.7370412e-06
2.8512888e-06
2.7883433e-06
2.5086463e-06
2.0796449e-06
2.0719552e-06
2.065114e-06
2.0351552e-06
1.9747065e-06
2.00875e-06
2.0967988e-06
2.0373826e-06
1.9218502e-06
1.8195249e-06
1.7793949e-06
1.8649184e-06
1.4299638e-06
1.3002286e-06
1.4252027e-06
1.911368e-06
1.6756433e-06
1.8069082e-06
2.4571128e-06
3.0926704e-06
3.1041406e-06
3.0273111e-06
2.827849e-06
2.3293223e-06
2.3032603e-06
2.3325097e-06
2.3309515e-06
2.2370591e-06
2.199008e-06
2.2158801e-06
2.2011165e-06
2.1267943e-06
2.0538232e-06
2.0349605e-06
2.089201e-06
1.044428e-06
1.1770442e-06
1.1891554e-06
1.8607279e-06
1.9590781e-06
1.6140594e-06
1.5642642e-06
2.278282e-06
3.6534048e-06
3.5597383e-06
3.5171949e-06
3.1708962e-06
3.0133722e-06
3.0813886e-06
2.985797e-06
2.737229e-06
2.4173961e-06
2.321367e-06
2.4088331e-06
2.4252193e-06
2.4065849e-06
2.4431586e-06
2.5057033e-06
1.0530329e-06
1.0229934e-06
2.4992211e-06
2.9941839e-06
2.7400981e-06
1.9636804e-06
1.7414175e-06
2.3597382e-06
3.7907141e-06
3.9494801e-06
4.1815906e-06
4.2847221e-06
3.9688315e-06
3.9534493e-06
3.7196655e-06
3.2719627e-06
2.908147e-06
2.707941e-06
2.7627929e-06
2.9090386e-06
2.9739359e-06
2.9667236e-06
3.0507254e-06
7.7627525e-07
1.8015761e-06
2.7748258e-06
2.3332759e-06
3.2231616e-06
3.0349734e-06
2.7983553e-06
3.4576188e-06
4.0449797e-06
4.1377445e-06
4.7036383e-06
4.9078448e-06
4.6211181e-06
4.5634583e-06
4.3097308e-06
3.8447213e-06
3.4417868e-06
3.2669052e-06
3.3129836e-06
3.5008297e-06
3.5872084e-06
3.5101062e-06
3.4531115e-06
1.1498866e-06
1.2544693e-06
3.133216e-06
4.1068912e-06
3.7119653e-06
3.2621363e-06
2.7247964e-06
3.2002823e-06
4.0961884e-06
5.4504026e-06
5.2974396e-06
4.9782067e-06
3.6548188e-06
4.4958224e-06
4.804067e-06
4.6434909e-06
4.1911522e-06
4.0346975e-06
4.1156999e-06
4.3430212e-06
4.2819264e-06
3.9609053e-06
3.6832742e-06
6.3660146e-07
9.2578088e-07
2.9466662e-06
4.7486677e-06
5.9615832e-06
5.1519108e-06
3.9127636e-06
4.9294554e-06
7.2019366e-06
7.3375386e-06
6.2416111e-06
5.7830116e-06
5.2434311e-06
5.3189769e-06
5.5368088e-06
5.5549692e-06
5.1886228e-06
5.0494279e-06
5.171542e-06
5.424049e-06
5.2498769e-06
4.6435015e-06
3.9984168e-06
4.6586387e-07
1.5093382e-06
3.1566657e-06
4.5195053e-06
7.2838734e-06
9.8097989e-06
1.0621114e-05
1.1776463e-05
1.2257223e-05
8.1258785e-06
7.5792194e-06
7.543835e-06
7.0254395e-06
7.2836858e-06
7.9025874e-06
7.9455614e-06
7.2578571e-06
6.386156e-06
6.2703224e-06
6.6950169e-06
6.8172568e-06
5.9782442e-06
4.7820108e-06
5.4180191e-07
1.6005997e-06
3.3297749e-06
4.9956246e-06
9.1046952e-06
1.3467669e-05
1.6898993e-05
1.8373698e-05
1.8894682e-05
1.5293021e-05
1.1196881e-05
1.030573e-05
9.3718441e-06
9.4465027e-06
1.0208821e-05
1.0242757e-05
9.8654446e-06
8.4645966e-06
8.0404694e-06
8.7793383e-06
9.873897e-06
8.8002224e-06
6.5840207e-06
8.3758266e-07
1.6389198e-06
3.3585765e-06
7.2435405e-06
1.2249309e-05
1.4023015e-05
1.8850815e-05
2.4613994e-05
3.0740269e-05
2.8327297e-05
2.0230523e-05
1.5774581e-05
1.3089536e-05
1.2909697e-05
1.3556361e-05
1.3440885e-05
1.2275888e-05
1.0786428e-05
1.0825729e-05
1.1423078e-05
1.2888074e-05
1.2435624e-05
1.044658e-05
1.0187205e-06
1.8403985e-06
4.1673991e-06
9.4037111e-06
1.6061786e-05
1.629818e-05
2.3781132e-05
3.1336322e-05
3.7608038e-05
3.8444537e-05
2.915027e-05
2.2822361e-05
1.6930786e-05
1.5775785e-05
1.8071854e-05
1.9202837e-05
1.5763011e-05
1.3084106e-05
1.2829628e-05
1.2957497e-05
1.4209479e-05
1.4169132e-05
1.3272024e-05
1.2471148e-06
2.4174908e-06
5.9040991e-06
1.0867845e-05
1.5946454e-05
2.0903157e-05
3.4109734e-05
4.4581241e-05
4.8998417e-05
4.0099073e-05
3.665646e-05
3.0925753e-05
3.1060128e-05
2.9774182e-05
3.3033391e-05
2.8877556e-05
1.9426622e-05
1.5470774e-05
1.5255525e-05
1.557735e-05
1.6834899e-05
1.6570385e-05
1.5080235e-05
1.3387895e-06
2.8500019e-06
7.2613106e-06
1.2036277e-05
1.6712059e-05
2.5925022e-05
4.7344722e-05
6.0758836e-05
5.9867552e-05
4.4487579e-05
4.7527755e-05
4.5996735e-05
5.3448293e-05
6.2334696e-05
6.3216884e-05
5.0132264e-05
2.7332552e-05
2.0430737e-05
2.0160485e-05
2.1176123e-05
2.3045761e-05
2.1484864e-05
1.6755228e-05
1.3163707e-06
2.9651922e-06
7.5653666e-06
1.3277612e-05
1.7336563e-05
2.8737693e-05
5.4396147e-05
7.0585828e-05
6.7217253e-05
4.8543906e-05
5.9732949e-05
6.4148524e-05
8.0358703e-05
9.6664674e-05
0.00010720149
7.4316251e-05
3.8353732e-05
2.8858356e-05
2.9984743e-05
3.5980944e-05
3.8724721e-05
3.2105003e-05
2.1054758e-05
1.2110896e-06
2.8349551e-06
7.9846715e-06
1.5129259e-05
1.9669178e-05
3.1813381e-05
5.4832399e-05
6.8304272e-05
6.6124668e-05
5.3113395e-05
6.9638018e-05
7.7749281e-05
9.7768318e-05
0.00011616292
0.00012252694
8.0241328e-05
4.8917608e-05
4.4151338e-05
5.7086243e-05
7.2564147e-05
7.4730629e-05
5.4153927e-05
2.9228763e-05
1.4225225e-06
2.7667302e-06
7.9181093e-06
1.6570554e-05
2.5160615e-05
3.4308797e-05
5.0941671e-05
6.2192372e-05
6.4166165e-05
6.4208131e-05
8.5972693e-05
0.00010161925
0.00011483151
0.0001316751
0.00014065898
8.6806775e-05
6.3246269e-05
6.4703074e-05
8.8408348e-05
0.00010330536
9.3485885e-05
5.685437e-05
3.4657498e-05
1.6330804e-06
2.9169518e-06
7.3855824e-06
1.5820522e-05
3.1851905e-05
3.6544414e-05
5.1417918e-05
6.1633882e-05
6.8884941e-05
0.00011556128
0.00012303892
0.00012175641
0.00013907776
0.000156451
0.00015778037
0.00010032409
7.9921699e-05
8.4147341e-05
0.00011335128
0.00012497444
9.3940735e-05
5.7372535e-05
4.6013735e-05
1.2549858e-06
3.690384e-06
7.4941309e-06
1.4431549e-05
3.3334264e-05
4.3820935e-05
5.9395522e-05
7.4521244e-05
0.00010578774
0.00014999627
0.00015352241
0.0001541523
0.00017387382
0.00018904315
0.00017623079
0.00012193353
0.00011019439
0.00013464395
0.00016850288
0.00015695713
9.3781729e-05
6.5627323e-05
6.254091e-05
1.1406455e-06
5.9578347e-06
8.03226e-06
1.4744159e-05
3.4352113e-05
7.2725749e-05
0.00011991595
0.00016471321
0.00018283774
0.00017078891
0.00017025959
0.00023802352
0.00024116986
0.00022685335
0.0001921101
0.0001702195
0.0001907122
0.00023588125
0.00024622433
0.00015769391
9.7817593e-05
8.4734796e-05
9.1186203e-05
1.490688e-06
6.7253732e-06
8.3923268e-06
1.7321577e-05
4.340348e-05
0.00010524089
0.00016050074
0.00019369922
0.00017617119
0.00018179601
0.00024966183
0.00025273767
0.00024895039
0.00023578661
0.00022604122
0.00024446784
0.00028216715
0.00030402942
0.0002468818
0.00014674422
0.00011441623
0.00010372498
9.8087324e-05
2.5381501e-06
7.5368463e-06
1.3467757e-05
2.7930826e-05
6.0060879e-05
7.4375432e-05
9.2168779e-05
0.00012605131
0.00023443522
0.00026276568
0.0002777222
0.00027374437
0.00027253963
0.0002713393
0.00028065699
0.00029827088
0.00031070246
0.00028959605
0.00019205378
0.00013992987
0.00012232736
0.00011402337
0.00011043397
5.3140658e-06
1.7113254e-05
2.4839635e-05
3.8582478e-05
5.5245511e-05
8.0275515e-05
0.00010465585
0.0001402491
0.00025818923
0.00029132124
0.0002709709
0.00021180398
0.00023005677
0.0003184613
0.00031072681
0.00029906747
0.0002695309
0.00020333661
0.00015972237
0.00014736534
0.00014685459
0.00014349533
0.00014170735
8.2443795e-06
2.39743e-05
3.1829688e-05
5.0074706e-05
9.1272657e-05
0.00014122768
0.00018286778
0.00023189793
0.00023466887
0.00024571449
0.00031955791
0.00035964648
0.00035369728
0.0003314723
0.00029491322
0.00025020735
0.00019481933
0.00016401808
0.00015675615
0.00016051645
0.00016679772
0.00017064189
0.00016962684
5.7570988e-06
2.0058511e-05
3.8627975e-05
6.5124236e-05
0.00011462765
0.00013996669
0.00017260423
0.00025392163
0.00030705858
0.00033509423
0.00034952358
0.00034987932
0.00033662065
0.00030163587
0.0002517417
0.00019836072
0.00016983846
0.000162128
0.00016262306
0.00016885192
0.00017257151
0.00017334757
0.00016487089
4.1946735e-06
1.8507345e-05
2.5415948e-05
5.8990763e-05
0.00012268535
0.00017398917
0.00023081382
0.00031246196
0.00032754842
0.00032841629
0.00027233922
0.00026855353
0.00028623121
0.00025728419
0.00021922883
0.00019226485
0.00018058557
0.00017451627
0.00017351039
0.00016900952
0.0001565577
0.00014727935
0.00014303604
5.1049242e-06
2.3607637e-05
3.8099274e-05
8.7165848e-05
0.00017031529
0.00023674866
0.00029787133
0.00032937389
0.00030459044
0.00031399745
0.00028622978
0.00026368155
0.0002468928
0.00022455356
0.00020300147
0.00019445743
0.0001904162
0.0001815015
0.00017193565
0.00015809922
0.00014913889
0.00014631748
0.00016761704
9.260979e-06
3.9467453e-05
7.2217485e-05
0.00012146167
0.0001796972
0.00021671297
0.00026528132
0.00032388199
0.00032942848
0.0003147845
0.00028302541
0.00025499449
0.00022776434
0.00019585702
0.00018199592
0.00017611614
0.00017011205
0.00016875092
0.00017154758
0.00017225898
0.00018239457
0.0002247341
0.00033268284
1.069287e-05
4.3688327e-05
8.4919967e-05
0.00013534529
0.00018784119
0.00023905216
0.00028321953
0.00030578186
0.00031387148
0.00030497951
0.00027653272
0.00024303841
0.00020594004
0.00017787857
0.00016448626
0.00015703572
0.00015309817
0.00016313031
0.00017981378
0.0002160903
0.00030101485
0.00045979904
0.00055683968
7.1797839e-06
3.8298733e-05
8.8261184e-05
0.00014522747
0.00020362064
0.0002564931
0.00029022926
0.00030254969
0.00030360786
0.00028129321
0.0002463783
0.00021164105
0.00018078361
0.0001665086
0.00015981639
0.00015911496
0.00016403899
0.00018828175
0.00023908535
0.00035324227
0.00048570111
0.0005705319
0.00060438638
7.0535613e-06
3.6379424e-05
7.241692e-05
0.00015782821
0.00022066033
0.00027214435
0.00028866446
0.0002864873
0.00026623422
0.00023072018
0.00019687813
0.00017171546
0.00016196726
0.00016143952
0.00017123414
0.00019054602
0.00023260609
0.00030084944
0.00039435426
0.00046759591
0.00051258406
0.00054805625
0.00052468482
1.1121773e-05
4.6361964e-05
9.348463e-05
0.00015161185
0.00021151262
0.00025721996
0.00027495035
0.00027532543
0.00025782215
0.0002246418
0.00019192277
0.00016651365
0.00015550152
0.00015491837
0.00016709706
0.00019280733
0.00024871013
0.00034925235
0.00046273883
0.00052179897
0.0005367642
0.00051409786
0.00047425501
8.5117785e-06
4.5213233e-05
8.7912623e-05
0.00014347147
0.00019726411
0.00024052508
0.0002584834
0.00026090826
0.00024916025
0.00022189481
0.00019329653
0.00017062442
0.00015929725
0.00015629327
0.00016381847
0.000186577
0.00024210956
0.0003372785
0.00043928324
0.00050214494
0.0005375111
0.00053450766
0.00043018051
8.0561372e-06
4.0032579e-05
7.6439643e-05
0.00013120042
0.00018510211
0.00022980262
0.00025202364
0.00025521331
0.0002439519
0.00021828098
0.00018946423
0.00016802291
0.00015826895
0.00015678958
0.00016528909
0.00019024368
0.00024885302
0.00034108361
0.00042876978
0.00049010208
0.00053489988
0.00055327683
0.00054805003
6.0722668e-06
3.3806404e-05
5.7896231e-05
0.00011220259
0.00017187817
0.00021782393
0.00024772158
0.00025664988
0.00024704724
0.00022061957
0.00018740301
0.00016115648
0.00014932325
0.00014805399
0.00015858422
0.00018890372
0.00025648584
0.00035498406
0.00043758037
0.00049701187
0.00054456437
0.00057238187
0.00051040055
8.739425e-06
4.1578801e-05
6.6107948e-05
0.0001007121
0.00014945135
0.00020188593
0.00023211407
0.00024734177
0.00024485522
0.00022532997
0.0001917271
0.00016133788
0.00014482557
0.00014087873
0.00015012705
0.00018168263
0.00025477426
0.00035907397
0.00044595271
0.00050719951
0.00055677365
0.00055919245
0.00059495057
7.0733118e-06
4.0454373e-05
5.7904088e-05
9.0201437e-05
0.00012822732
0.00017730462
0.00021594666
0.00023132015
0.00023239832
0.00022227158
0.00019579996
0.00016619358
0.00014751463
0.00014082632
0.0001476959
0.00017786475
0.00025015595
0.00035294164
0.00044072925
0.00050280561
0.00055738396
0.00059818821
0.00062040431
7.8030508e-06
3.7685342e-05
4.6945077e-05
6.380433e-05
0.00010681361
0.00015081664
0.00019685446
0.00022467627
0.00022677309
0.00021799578
0.00019823909
0.00016928334
0.00014796302
0.00014045266
0.00014437543
0.00017101234
0.00023930038
0.00033924642
0.00042894277
0.00049525292
0.00055772
0.00061079519
0.00064395937
8.328982e-06
3.7341933e-05
5.5068437e-05
6.4107755e-05
8.3939098e-05
0.00013238049
0.00016713753
0.0002082826
0.00022661368
0.00022005195
0.00020365317
0.00017553894
0.00014937934
0.00013658584
0.00013701191
0.00015586224
0.00021671399
0.00031504035
0.00041268371
0.00049165675
0.00056399859
0.00062620524
0.00066157433
1.0215498e-05
5.2203042e-05
6.9135129e-05
8.2775524e-05
9.4153488e-05
0.00011672228
0.00014593376
0.00017422471
0.00020918915
0.00021903758
0.00020928613
0.00018524092
0.00015584691
0.00013522972
0.00013212059
0.00014174925
0.00018796691
0.00028625776
0.00039090522
0.00048496359
0.00056677019
0.00063469105
0.00066771916
9.6528451e-06
6.9454254e-05
0.00010928125
0.00011137034
0.00010207119
0.00011437193
0.00013455416
0.00015820948
0.00017931923
0.00020496804
0.00020780736
0.00019335559
0.00016536262
0.00014146776
0.00012974968
0.00013296429
0.00016331585
0.00025204002
0.00036267268
0.00046549609
0.00055185483
0.00062156662
0.00065911171
9.6747523e-06
8.2102224e-05
0.00014262715
0.00016303734
0.00014147311
0.000124833
0.00013242849
0.00015186488
0.00016995215
0.00018456315
0.00020005992
0.00019695468
0.00017852606
0.0001484822
0.0001300256
0.00012862022
0.00014362191
0.00020638747
0.00032429653
0.00042739524
0.00051738738
0.00059208803
0.00064391125
9.8726764e-06
9.5683763e-05
0.00017189269
0.00021958455
0.00022180289
0.0001844605
0.00015696194
0.00014746933
0.00016344007
0.00017675313
0.00018673885
0.00019315703
0.00018502534
0.00016112708
0.00013541929
0.00012402796
0.00012918849
0.00016513162
0.00027070102
0.0003797213
0.00047784586
0.00056098168
0.00062617058
9.3401387e-06
0.00011337777
0.00020121181
0.0002565318
0.00026817836
0.00024402662
0.00021356586
0.00019226288
0.00016293452
0.00017253751
0.00018163118
0.00018599787
0.00018639068
0.00017348953
0.00014536876
0.00012661302
0.00012505869
0.00014060568
0.00020814358
0.00033064572
0.00043201637
0.00052566936
0.00060050438
8.6504576e-06
0.0001292421
0.00022052041
0.00025765937
0.00027171152
0.00027623202
0.00026509203
0.00025593036
0.00021925807
0.00017711864
0.00017958507
0.00018281082
0.00018410499
0.00017817843
0.00015960644
0.00013298375
0.00012203224
0.00012641045
0.00016037599
0.00026785873
0.00037773876
0.00047866601
0.00056148735
8.0659287e-06
0.00014123891
0.00023080503
0.00028856536
0.00029246071
0.00029612853
0.00029745483
0.00030234142
0.00030577687
0.00023004522
0.00018600703
0.00018214869
0.00018144187
0.00017926776
0.00016698717
0.00014245215
0.00012363905
0.00012215327
0.00013511538
0.00019644856
0.00032170684
0.00041658368
0.00050208248
7.2844422e-06
0.00014339588
0.00023098213
0.00028351119
0.00031363335
0.00032676593
0.00033066526
0.00033244777
0.00033999936
0.00029042007
0.00023066785
0.00019215558
0.00018175328
0.00017951437
0.00017210007
0.00015266435
0.00012997937
0.00012007403
0.00012310442
0.00015073249
0.00024517143
0.00036185355
0.00044135206
6.660579e-06
0.00013804531
0.0002241428
0.00026690442
0.0003072409
0.00034514164
0.00035349107
0.00035324769
0.00034656382
0.0003035745
0.0002542677
0.00021314774
0.0001896095
0.00018097087
0.00017456418
0.00015979909
0.00013701718
0.00012065156
0.00011897602
0.00012850362
0.00017399315
0.00029392084
0.00039904381
6.2267505e-06
0.00012593979
0.00021293293
0.00025032579
0.00027786648
0.00030660346
0.00031818925
0.00032709487
0.000326263
0.00030488759
0.00025598527
0.0002170161
0.00019321398
0.00018175336
0.00017514837
0.00016407371
0.00014457946
0.00012544318
0.00011558333
0.00011793297
0.00013684876
0.00020176641
0.00033244155
5.8166679e-06
0.00010860066
0.00019524416
0.00023598185
0.00025619293
0.0002595496
0.00026111205
0.00026281105
0.00027611227
0.0002850734
0.00025292521
0.00021769299
0.00019472705
0.00018422837
0.00017818718
0.00016871718
0.00015237033
0.00013212042
0.00011910074
0.00011418545
0.00011966256
0.00014708859
0.00024144071
5.6082996e-06
9.0461629e-05
0.00017049283
0.00021952436
0.00023730564
0.00023373893
0.0002306919
0.00023084755
0.00023647717
0.00024781309
0.00023972723
0.00021576655
0.00019782284
0.00018766318
0.0001813933
0.00017343011
0.00015963347
0.00014061937
0.00012455735
0.00011633247
0.00011525321
0.00012378464
0.00017108912
5.5057475e-06
7.6216023e-05
0.00014432099
0.00019738187
0.00022253241
0.00022921454
0.00022751435
0.00022500992
0.00022464841
0.00022753927
0.00023126761
0.00021642217
0.00020184359
0.0001936336
0.00018836905
0.00018224155
0.00017159594
0.00015418043
0.00013318237
0.00012036386
0.00011617076
0.00011694353
0.00013284192
5.4305769e-06
6.733906e-05
0.00012402018
0.00017402387
0.00020726267
0.000222021
0.00022798049
0.00022783179
0.00022569654
0.00022441246
0.00022558489
0.00021810071
0.00020859976
0.00019876808
0.0001931235
0.00018896558
0.0001833243
0.00017299563
0.0001553829
0.00013371158
0.00012112023
0.00011822227
0.00012192079
5.3605399e-06
6.3284974e-05
0.00011324256
0.00015689427
0.00018801619
0.00020714388
0.00021601951
0.00022352454
0.00022935564
0.00023347287
0.00023000628
0.00022070022
0.0002137591
0.00020737939
0.00019939576
0.00019327069
0.0001878724
0.00018163828
0.00017336984
0.00016060593
0.00014195047
0.00012735781
0.00012276247
5.2493435e-06
6.1513208e-05
0.00011066878
0.00014954995
0.00017625625
0.00019659615
0.00021233696
0.00022570708
0.00023331453
0.00023473214
0.00023066451
0.0002245815
0.00021711243
0.00021143398
0.00020710605
0.0002025561
0.0001967553
0.00018969505
0.00018195046
0.00017366291
0.00016324826
0.00015209552
0.00013802268
5.0982662e-06
6.1948728e-05
0.00011364751
0.00015103184
0.00017437676
0.00019032078
0.00020321507
0.00021430792
0.00022289314
0.00022761147
0.00022767322
0.00022435291
0.00021958862
0.00021396071
0.00020908117
0.00020571657
0.00020393123
0.00020115705
0.00019568376
0.00018807697
0.00017744895
0.0001686402
0.00015775911