/*--------------------------------*- C++ -*----------------------------------*\
| =========                 |                                                 |
| \\      /  F ield         | OpenFOAM: The Open Source CFD Toolbox           |
|  \\    /   O peration     | Version:  2406                                  |
|   \\  /    A nd           | Website:  www.openfoam.com                      |
|    \\/     M anipulation  |                                                 |
\*---------------------------------------------------------------------------*/
FoamFile
{
    version     2.0;
    format      ascii;
    arch        "LSB;label=32;scalar=64";
    class       volScalarField;
    location    "195";
    object      k;
}
// * * * * * * * * * * * * * * * * * * * * * * * * * * * * * * * * * * * * * //

dimensions      [0 2 -2 0 0 0 0];

internalField   nonuniform List<scalar> 
20580
(
3.1940007e-06
2.4855601e-06
1.9316736e-06
1.5712443e-06
1.3218663e-06
1.1474059e-06
1.0171113e-06
9.2330397e-07
8.4834667e-07
7.9012397e-07
7.4032623e-07
7.0004661e-07
6.6467799e-07
6.3457176e-07
6.0806042e-07
5.8561834e-07
5.6664956e-07
5.5325682e-07
5.3931059e-07
5.3083705e-07
5.2429909e-07
5.1421645e-07
5.1120586e-07
5.189264e-07
5.3253261e-07
5.5277981e-07
5.790399e-07
6.0952943e-07
6.3334962e-07
6.7759616e-07
7.7475784e-07
3.1985342e-06
2.4987107e-06
1.944592e-06
1.5901735e-06
1.3386132e-06
1.1586693e-06
1.023119e-06
9.2974144e-07
8.5335687e-07
7.933446e-07
7.4266897e-07
7.0023607e-07
6.6439199e-07
6.333378e-07
6.0622744e-07
5.8288711e-07
5.6429362e-07
5.514229e-07
5.37828e-07
5.3060236e-07
5.2775426e-07
5.1869442e-07
5.1238428e-07
5.1957889e-07
5.3427995e-07
5.5451139e-07
5.826844e-07
6.197948e-07
6.6290804e-07
6.9749604e-07
7.7666291e-07
3.1980842e-06
2.4945928e-06
1.9419901e-06
1.5946969e-06
1.3489097e-06
1.1737391e-06
1.0348876e-06
9.354384e-07
8.5770134e-07
7.9667829e-07
7.4594121e-07
7.0191987e-07
6.6520768e-07
6.334296e-07
6.0578086e-07
5.810133e-07
5.6265976e-07
5.4687653e-07
5.3319374e-07
5.2597061e-07
5.2330358e-07
5.1652095e-07
5.0907676e-07
5.1363148e-07
5.2618334e-07
5.4530001e-07
5.6423374e-07
5.9437952e-07
6.5097545e-07
6.8758402e-07
7.8191503e-07
3.2009885e-06
2.4825872e-06
1.9295702e-06
1.5874448e-06
1.3485667e-06
1.1777625e-06
1.0521516e-06
9.4872673e-07
8.6779841e-07
8.0466941e-07
7.5263e-07
7.0743769e-07
6.6921914e-07
6.3565638e-07
6.0731662e-07
5.8142415e-07
5.628651e-07
5.4572391e-07
5.3129393e-07
5.2406956e-07
5.1825145e-07
5.1215273e-07
5.0624929e-07
5.0831284e-07
5.193061e-07
5.3811669e-07
5.6349032e-07
5.8309166e-07
6.1424487e-07
6.4360689e-07
7.3571986e-07
3.2106706e-06
2.489849e-06
1.9272224e-06
1.5800229e-06
1.3463954e-06
1.180935e-06
1.058083e-06
9.6906097e-07
8.9223245e-07
8.2772941e-07
7.7158364e-07
7.2353648e-07
6.8266672e-07
6.4510136e-07
6.1473649e-07
5.8633631e-07
5.6544477e-07
5.4650842e-07
5.3176013e-07
5.2402396e-07
5.1623836e-07
5.1185796e-07
5.0835038e-07
5.0855173e-07
5.1855399e-07
5.403533e-07
5.7486761e-07
6.0776796e-07
6.350182e-07
6.6773956e-07
7.1070205e-07
3.2241705e-06
2.5123729e-06
1.9342131e-06
1.583585e-06
1.3483159e-06
1.183269e-06
1.0614493e-06
9.794602e-07
9.1556069e-07
8.6079801e-07
8.1264251e-07
7.6423542e-07
7.2367825e-07
6.7902136e-07
6.4092552e-07
6.0629113e-07
5.7861178e-07
5.5473773e-07
5.3719935e-07
5.2666734e-07
5.1692784e-07
5.125997e-07
5.0955181e-07
5.0735887e-07
5.1366617e-07
5.356439e-07
5.7069303e-07
6.249161e-07
6.6436871e-07
7.5025387e-07
7.5985614e-07
3.2601903e-06
2.5584809e-06
1.9621209e-06
1.5990884e-06
1.3551683e-06
1.18744e-06
1.0676413e-06
9.8368093e-07
9.2494541e-07
8.7720207e-07
8.3685076e-07
7.995525e-07
7.6138863e-07
7.2342896e-07
6.8820334e-07
6.5418454e-07
6.1757899e-07
5.8623699e-07
5.6030007e-07
5.4087139e-07
5.2432183e-07
5.1672373e-07
5.1221921e-07
5.0388754e-07
5.0289446e-07
5.1714806e-07
5.4422454e-07
6.0003541e-07
6.4488726e-07
7.359631e-07
8.079338e-07
3.4868479e-06
2.8929993e-06
2.1053234e-06
1.6585671e-06
1.3745915e-06
1.1922137e-06
1.0663062e-06
9.8174752e-07
9.19997e-07
8.7416391e-07
8.3710916e-07
8.0231382e-07
7.6884878e-07
7.3626457e-07
7.0488041e-07
6.7613085e-07
6.486278e-07
6.2385428e-07
6.0078026e-07
5.7870158e-07
5.5344315e-07
5.3515404e-07
5.2618137e-07
5.1163187e-07
5.0320772e-07
5.0893326e-07
5.2301972e-07
5.4166461e-07
5.7839784e-07
6.364857e-07
7.7876278e-07
4.1484052e-06
3.3196022e-06
2.3310946e-06
1.7574872e-06
1.4100751e-06
1.2037279e-06
1.0668987e-06
9.7646593e-07
9.038266e-07
8.5053316e-07
8.0918607e-07
7.7199539e-07
7.4271192e-07
7.1849553e-07
6.9436322e-07
6.7147822e-07
6.5082589e-07
6.2942839e-07
6.1720013e-07
6.0314341e-07
5.8722913e-07
5.7408324e-07
5.6680178e-07
5.510458e-07
5.2649938e-07
5.250336e-07
5.3517554e-07
5.5073125e-07
5.7856584e-07
6.0726894e-07
6.8359674e-07
3.5979013e-06
3.1709226e-06
2.3833507e-06
1.87083e-06
1.4852328e-06
1.2486246e-06
1.0953693e-06
9.9541732e-07
9.1711133e-07
8.5584318e-07
8.0383929e-07
7.5604795e-07
7.1554018e-07
6.7985709e-07
6.527448e-07
6.3854481e-07
6.3110202e-07
6.2068614e-07
6.135079e-07
6.0511747e-07
5.973798e-07
5.9907281e-07
6.0098857e-07
6.0148673e-07
5.9539822e-07
5.9178031e-07
5.9780536e-07
6.1654875e-07
6.370522e-07
6.6551381e-07
7.0504689e-07
3.0892852e-06
2.6370946e-06
2.2261279e-06
1.8862399e-06
1.6345082e-06
1.4277655e-06
1.2678974e-06
1.1560065e-06
1.0590746e-06
9.6357696e-07
8.7922363e-07
8.0585413e-07
7.4180753e-07
6.9026366e-07
6.5157314e-07
6.2298451e-07
6.013889e-07
5.9118745e-07
5.905438e-07
5.8957096e-07
5.9199631e-07
5.9943174e-07
6.0440469e-07
6.1493136e-07
6.2604743e-07
6.395737e-07
6.5508789e-07
7.0698061e-07
7.478292e-07
8.3288834e-07
8.3562601e-07
3.1186725e-06
2.4611059e-06
2.0289137e-06
1.7936431e-06
1.6552854e-06
1.5886489e-06
1.5693317e-06
1.5458766e-06
1.5010799e-06
1.3993706e-06
1.2665221e-06
1.1092475e-06
9.3383928e-07
7.9825301e-07
7.083443e-07
6.5020816e-07
6.1234252e-07
5.9267593e-07
5.8193257e-07
5.7597313e-07
5.7764366e-07
5.8565953e-07
5.9162097e-07
6.0536287e-07
6.2198259e-07
6.3490324e-07
6.4589347e-07
6.8176554e-07
7.3871898e-07
8.3108034e-07
9.2374042e-07
3.3201208e-06
2.7538601e-06
2.1136986e-06
1.7354818e-06
1.5594329e-06
1.4943854e-06
1.4976357e-06
1.494792e-06
1.4895696e-06
1.4532795e-06
1.3765392e-06
1.2770268e-06
1.1702277e-06
1.0586192e-06
9.3331098e-07
8.0469514e-07
7.1084251e-07
6.5915778e-07
6.3026214e-07
6.1412137e-07
6.0734809e-07
6.0832271e-07
6.089081e-07
6.1657796e-07
6.3078742e-07
6.3807504e-07
6.4065675e-07
6.5560695e-07
6.9491644e-07
7.6688672e-07
8.4581597e-07
3.6597712e-06
3.083876e-06
2.3213721e-06
1.8174407e-06
1.5353676e-06
1.3490798e-06
1.2532555e-06
1.212655e-06
1.1730835e-06
1.1541423e-06
1.1190104e-06
1.0697315e-06
1.0446576e-06
1.0095585e-06
9.828208e-07
9.701965e-07
9.4698893e-07
9.2744399e-07
9.1367523e-07
8.9669027e-07
8.8046021e-07
8.6940693e-07
8.5179267e-07
8.3546226e-07
8.3101676e-07
8.2278668e-07
7.9793754e-07
7.8928064e-07
8.0503119e-07
8.6287385e-07
8.6788722e-07
3.348436e-06
2.9547426e-06
2.3112273e-06
1.9212311e-06
1.6337349e-06
1.4285938e-06
1.3003422e-06
1.2385695e-06
1.1697531e-06
1.1065668e-06
1.0206632e-06
9.1988453e-07
8.6593307e-07
8.619718e-07
8.7085336e-07
8.9628894e-07
9.3024494e-07
1.0069103e-06
1.1547848e-06
1.3038702e-06
1.4463328e-06
1.5609637e-06
1.6383424e-06
1.6885562e-06
1.7223654e-06
1.7400335e-06
1.7269746e-06
1.692604e-06
1.664564e-06
1.6494127e-06
1.5462883e-06
3.2142125e-06
2.6021351e-06
2.1436126e-06
1.8671904e-06
1.6640193e-06
1.5159389e-06
1.4090603e-06
1.341797e-06
1.2442712e-06
1.1418825e-06
1.044507e-06
9.3415349e-07
8.3567822e-07
7.7650179e-07
7.616379e-07
7.6538824e-07
7.9014068e-07
8.5494258e-07
1.0076836e-06
1.1921024e-06
1.3609333e-06
1.5133509e-06
1.6506058e-06
1.7620802e-06
1.8712094e-06
1.9724862e-06
2.079644e-06
2.159308e-06
2.2154408e-06
2.2577334e-06
2.2823636e-06
3.2032651e-06
2.5324783e-06
2.0159643e-06
1.7013281e-06
1.5027884e-06
1.3534109e-06
1.2501636e-06
1.1866419e-06
1.1170905e-06
1.0585509e-06
9.8556965e-07
9.0234738e-07
8.2988018e-07
7.7547993e-07
7.2878343e-07
7.0092509e-07
6.9729332e-07
7.0106161e-07
7.1859628e-07
7.7617816e-07
8.5463438e-07
9.4580981e-07
1.0406943e-06
1.1502173e-06
1.2644286e-06
1.364017e-06
1.4801481e-06
1.6043304e-06
1.7571878e-06
1.8365255e-06
1.9582641e-06
3.2112724e-06
2.5564933e-06
2.0222225e-06
1.7022247e-06
1.4881731e-06
1.3344041e-06
1.2489856e-06
1.1870963e-06
1.1634408e-06
1.1138427e-06
1.0361759e-06
9.6055284e-07
8.8466062e-07
8.0868645e-07
7.4416988e-07
7.001403e-07
6.7596432e-07
6.6856776e-07
6.6840259e-07
6.7908509e-07
6.9950547e-07
7.4217404e-07
7.8942014e-07
8.4921845e-07
9.0289475e-07
9.4600867e-07
9.963582e-07
1.0501173e-06
1.1280641e-06
1.1636967e-06
1.2458476e-06
3.2996804e-06
2.8884369e-06
2.347858e-06
2.0290063e-06
1.7948923e-06
1.58314e-06
1.4508631e-06
1.3129349e-06
1.2122152e-06
1.1374183e-06
1.0482954e-06
9.6579639e-07
8.8502132e-07
8.1132484e-07
7.580198e-07
7.3007052e-07
7.2252106e-07
7.2254914e-07
7.3188843e-07
7.6771549e-07
8.1380184e-07
8.5523332e-07
8.9947856e-07
9.4667133e-07
9.8127201e-07
1.007272e-06
1.0465548e-06
1.0882525e-06
1.1399802e-06
1.1632879e-06
1.1806196e-06
3.9687031e-06
3.4516147e-06
2.6912851e-06
2.1821478e-06
1.8306186e-06
1.5490517e-06
1.3844758e-06
1.2675334e-06
1.1870835e-06
1.1485602e-06
1.1113011e-06
1.0762596e-06
1.0422425e-06
9.9988716e-07
9.4991701e-07
9.2366308e-07
9.0949505e-07
8.9693904e-07
8.9577607e-07
9.06854e-07
9.2126316e-07
9.3907761e-07
9.7034804e-07
1.0129655e-06
1.0536199e-06
1.0881261e-06
1.1428979e-06
1.2161116e-06
1.2688133e-06
1.3061213e-06
1.2831655e-06
3.3025357e-06
2.9041078e-06
2.4116598e-06
2.2609199e-06
2.4089772e-06
2.2633577e-06
2.6472747e-06
2.6437965e-06
3.0341412e-06
2.5297378e-06
2.5287569e-06
2.465399e-06
2.3466794e-06
2.2280842e-06
2.1110787e-06
2.0118461e-06
1.9294602e-06
1.8756297e-06
1.8719397e-06
1.9139832e-06
1.9431113e-06
1.9801725e-06
2.0250322e-06
2.1044171e-06
2.1636704e-06
2.1942704e-06
2.2212823e-06
2.299081e-06
2.3379486e-06
2.3392745e-06
2.1879621e-06
3.7825903e-06
5.133977e-06
7.2420759e-06
7.4370114e-06
1.1850129e-05
1.1005762e-05
1.5641143e-05
1.4672284e-05
2.10398e-05
1.4912124e-05
1.3796288e-05
1.2601857e-05
1.178212e-05
1.0936985e-05
1.0401526e-05
1.0023843e-05
1.0071319e-05
1.0106158e-05
1.0240413e-05
1.0336577e-05
1.0349695e-05
1.0265107e-05
1.0124007e-05
1.009175e-05
9.9925066e-06
9.7867452e-06
9.4744822e-06
9.2958204e-06
9.0558584e-06
8.8972002e-06
8.241158e-06
1.913275e-05
3.9668386e-05
6.1776327e-05
4.8495881e-05
7.8348933e-05
5.5390901e-05
8.8902667e-05
5.8719029e-05
0.00010262101
6.6459337e-05
5.5100592e-05
5.6303638e-05
4.8590519e-05
4.8723029e-05
4.4727862e-05
4.3637051e-05
4.0934779e-05
4.0049979e-05
3.8150858e-05
3.7356832e-05
3.5957718e-05
3.4922718e-05
3.4334535e-05
3.2818112e-05
3.2402098e-05
3.068851e-05
3.0821241e-05
2.9043257e-05
2.8728576e-05
2.6626352e-05
2.6631432e-05
2.4916852e-05
8.8758052e-06
2.4787333e-06
1.3678542e-06
1.2023367e-06
1.2285197e-06
1.8706326e-06
2.3408067e-06
1.8167775e-06
1.0664609e-06
9.3476387e-07
1.0078866e-06
9.5683553e-07
8.3209554e-07
7.8534257e-07
8.5336753e-07
9.0964576e-07
8.7154352e-07
7.9880115e-07
8.078093e-07
8.6592261e-07
8.9477294e-07
9.0320234e-07
2.5770067e-05
9.3761711e-06
2.8333645e-06
1.5076022e-06
1.2755355e-06
1.263338e-06
1.704099e-06
2.3742765e-06
2.1081364e-06
1.3088391e-06
1.0408664e-06
1.1332979e-06
1.133946e-06
1.0313053e-06
9.0238394e-07
9.2679167e-07
1.0177658e-06
1.0124822e-06
9.6503669e-07
9.3790861e-07
9.9393337e-07
1.0524292e-06
1.013722e-06
2.1904739e-05
1.0038607e-05
3.4297364e-06
1.7705518e-06
1.4331539e-06
1.3337701e-06
1.6645636e-06
2.3939526e-06
2.332108e-06
1.8001032e-06
1.2256783e-06
1.2751271e-06
1.3023776e-06
1.2393788e-06
1.0562853e-06
1.0099426e-06
1.1136319e-06
1.1430043e-06
1.148808e-06
1.1012074e-06
1.1207115e-06
1.169689e-06
1.2101157e-06
2.1924608e-05
1.0607315e-05
3.9583813e-06
2.1006625e-06
1.6395375e-06
1.4175522e-06
1.6746349e-06
2.4029137e-06
2.5310419e-06
2.3943389e-06
1.6500091e-06
1.5588778e-06
1.6070228e-06
1.5450496e-06
1.4078151e-06
1.2264886e-06
1.2773053e-06
1.3760162e-06
1.4253829e-06
1.3939249e-06
1.2993218e-06
1.334816e-06
1.3605272e-06
1.975307e-05
1.0642423e-05
4.4703056e-06
2.6069167e-06
1.991461e-06
1.5723908e-06
1.7563751e-06
2.5392056e-06
2.767827e-06
2.7902461e-06
2.2271567e-06
1.8347375e-06
1.9204264e-06
1.8699553e-06
1.7667097e-06
1.5730504e-06
1.5464085e-06
1.6690687e-06
1.688437e-06
1.6820864e-06
1.5764771e-06
1.578872e-06
1.6103647e-06
1.8009211e-05
1.0465871e-05
5.0109264e-06
3.2129544e-06
2.4538129e-06
1.9124426e-06
2.0244242e-06
2.8721483e-06
3.0684074e-06
3.0226097e-06
2.6789525e-06
2.0789051e-06
2.1642312e-06
2.1567863e-06
2.0753446e-06
1.9266325e-06
1.8543048e-06
1.9758242e-06
1.9794421e-06
1.927245e-06
1.8431497e-06
1.7808513e-06
1.8728815e-06
1.5085176e-05
1.0496649e-05
5.914703e-06
4.2135442e-06
3.2974759e-06
2.5595679e-06
2.4702473e-06
3.3727031e-06
3.6660975e-06
3.5464032e-06
3.3632274e-06
2.6044355e-06
2.618062e-06
2.6902146e-06
2.586958e-06
2.3935564e-06
2.2120232e-06
2.2377114e-06
2.2947833e-06
2.241048e-06
2.1618769e-06
2.0990627e-06
2.1503838e-06
1.3484914e-05
1.0603464e-05
6.9076191e-06
5.3714691e-06
4.309881e-06
3.3290707e-06
2.9639589e-06
4.0048031e-06
4.6460795e-06
4.5466022e-06
4.5362416e-06
3.9182045e-06
3.6540148e-06
3.8450038e-06
3.7222848e-06
3.38642e-06
2.88318e-06
2.7218155e-06
2.8764371e-06
2.8709448e-06
2.7242941e-06
2.6023209e-06
2.5860823e-06
1.3362863e-05
1.0954502e-05
8.5245491e-06
7.4081834e-06
5.7002107e-06
4.2323127e-06
3.6270582e-06
4.7310172e-06
5.480497e-06
5.4823591e-06
5.7133584e-06
5.6394934e-06
4.9969984e-06
5.1779061e-06
5.0371887e-06
4.4559527e-06
3.9734573e-06
3.6196316e-06
3.7267758e-06
3.9308048e-06
3.8578069e-06
3.5720188e-06
3.4249117e-06
1.4135374e-05
1.1554561e-05
1.0734758e-05
1.0378098e-05
9.2576077e-06
6.2754463e-06
5.0207068e-06
6.1719561e-06
6.9110105e-06
6.8496198e-06
6.9698799e-06
6.9267903e-06
6.1933087e-06
6.355418e-06
6.1906999e-06
5.5640844e-06
4.9785496e-06
4.6417912e-06
4.7124915e-06
5.0512001e-06
5.1254564e-06
4.7800844e-06
4.48645e-06
1.4655463e-05
1.2889165e-05
1.4860182e-05
1.543913e-05
1.4778361e-05
1.1172989e-05
8.4995576e-06
9.6949661e-06
1.0325624e-05
9.9131038e-06
8.8757496e-06
8.2896746e-06
7.3365645e-06
7.5735191e-06
7.7260991e-06
7.4204521e-06
6.3830585e-06
5.8829589e-06
5.8714115e-06
6.3446025e-06
6.347606e-06
5.7966722e-06
5.3580981e-06
1.5205436e-05
1.4509431e-05
1.7516205e-05
2.1370074e-05
2.3623572e-05
2.3701387e-05
1.9162049e-05
1.8952936e-05
1.8519808e-05
1.6076367e-05
1.2480982e-05
1.1196017e-05
9.9358066e-06
1.0294538e-05
1.1182264e-05
1.1033826e-05
9.2685477e-06
8.0152305e-06
7.5637376e-06
8.0204054e-06
8.0856213e-06
7.3348845e-06
6.2891891e-06
1.6662183e-05
1.7503974e-05
2.2515934e-05
3.1873882e-05
4.1018282e-05
4.617021e-05
4.7096121e-05
4.4288918e-05
4.027423e-05
2.9808793e-05
2.048745e-05
1.8122895e-05
1.6544505e-05
1.7391701e-05
1.9869184e-05
1.9885382e-05
1.6717652e-05
1.2371952e-05
1.0525589e-05
1.0946838e-05
1.1670936e-05
1.0524418e-05
8.1211839e-06
1.8569997e-05
1.9992078e-05
2.8154737e-05
4.0205552e-05
6.0713017e-05
8.7029577e-05
0.00010239534
0.00010488296
9.4809442e-05
6.3648967e-05
3.756115e-05
2.9748656e-05
2.6003154e-05
2.6189199e-05
2.9047691e-05
2.9258066e-05
2.7107049e-05
1.9960012e-05
1.6848843e-05
1.768142e-05
2.1186956e-05
1.9179906e-05
1.3073823e-05
2.4177296e-05
2.6128829e-05
3.6763199e-05
5.0079226e-05
7.9158055e-05
0.00013693571
0.00020360337
0.0002333521
0.00021182583
0.00014368759
7.9567579e-05
5.5341305e-05
4.299959e-05
4.0323013e-05
4.2013589e-05
4.1284072e-05
3.5753958e-05
2.8834164e-05
2.7783082e-05
2.8413374e-05
3.3624284e-05
3.2815796e-05
2.6240661e-05
2.6671124e-05
3.1560166e-05
4.7425722e-05
6.726449e-05
0.00011300935
0.00021588358
0.00034245762
0.00040173743
0.00037189186
0.0002556963
0.00013470432
9.2030254e-05
7.5527132e-05
7.1063295e-05
7.1008988e-05
6.6092592e-05
4.8805526e-05
3.8076455e-05
3.7588278e-05
3.7334916e-05
4.1743322e-05
4.2029369e-05
3.7984902e-05
3.3681915e-05
4.0838702e-05
5.8408336e-05
8.0223932e-05
0.00013707427
0.00027384507
0.00048309618
0.00057245377
0.00053052598
0.00035634215
0.00019063521
0.0001461486
0.00014832954
0.00015526211
0.00015678279
0.00012986629
6.8763502e-05
4.9812089e-05
4.932335e-05
4.9773965e-05
5.4780892e-05
5.4041626e-05
4.6230011e-05
3.5568724e-05
4.6456024e-05
6.658414e-05
8.9982557e-05
0.00015913411
0.00033331593
0.00061793622
0.0007330962
0.00067830293
0.00044460946
0.00027057616
0.00024900923
0.00032031359
0.00041474082
0.00042022986
0.0002921864
0.00010857139
7.2817231e-05
7.3575657e-05
7.9544231e-05
8.9144357e-05
8.1274318e-05
5.4143656e-05
3.420748e-05
4.7641793e-05
6.9074387e-05
9.9685179e-05
0.0001874959
0.00040455089
0.00074486274
0.00087942265
0.00080379136
0.00051307462
0.00035757032
0.00037370126
0.00057182017
0.000840468
0.00082819207
0.00047373058
0.00016943776
0.00011885812
0.00014135904
0.00019746636
0.00022046906
0.00016269463
7.3740724e-05
3.0862161e-05
4.6525563e-05
6.9272632e-05
0.00011340023
0.00022833382
0.00049901091
0.00086065185
0.0010024276
0.0009008082
0.00056585025
0.00042843071
0.00048414633
0.00081184373
0.0011188777
0.0010091588
0.00051316368
0.00024511902
0.00022178962
0.00036659683
0.00052887988
0.00053963523
0.00031374133
0.00011072487
3.1763726e-05
4.4387179e-05
6.9325609e-05
0.00012466243
0.00026839965
0.0006005285
0.00096340456
0.0010999141
0.00096659589
0.00063957514
0.00055514281
0.00070592076
0.0012611218
0.0015355559
0.0012446212
0.00055233933
0.00034149511
0.00036174162
0.00063977479
0.00081994557
0.00070285254
0.00031032139
0.00014186779
3.7158109e-05
4.482004e-05
6.754883e-05
0.00012160121
0.00027488021
0.00065527752
0.0010631333
0.0012098305
0.0010451189
0.00083930954
0.00086731929
0.001230973
0.0018484753
0.0019973476
0.0014601342
0.00065803044
0.00046291847
0.00054688487
0.00092074661
0.0010631152
0.00067570552
0.00029391214
0.00021245194
4.9319308e-05
5.2003786e-05
6.9571504e-05
0.00011564625
0.00026468241
0.00068195536
0.0011635845
0.001326413
0.0011941809
0.0011250044
0.0012885304
0.0018441845
0.0021995036
0.0021936455
0.0015413499
0.00085843205
0.0007324118
0.0010326326
0.0014130905
0.0012623828
0.00057500146
0.0003440592
0.00034341636
6.8773657e-05
6.8847322e-05
8.2646692e-05
0.00012260463
0.00027388398
0.00074313307
0.0012571899
0.0014309699
0.0014067507
0.0014423747
0.0017498661
0.0022634517
0.0023939448
0.00221267
0.0016245515
0.00129128
0.0014374189
0.0018889018
0.0019688499
0.0011224892
0.0005909672
0.00051472752
0.0006380678
0.00010075688
9.5023209e-05
0.00010698783
0.00015478239
0.00033896695
0.00085949498
0.0013272096
0.0015201071
0.0015908674
0.0017689776
0.0021467689
0.0023788231
0.0024103455
0.0021666838
0.0018912772
0.0019100357
0.0021581868
0.0023197701
0.0018458677
0.00096281466
0.00074499458
0.0007348111
0.00073722942
0.00014083971
0.00013230984
0.00014730507
0.00021882097
0.0004616649
0.00094641395
0.0013097583
0.0015588313
0.0017809545
0.0020334059
0.0023156757
0.0024057999
0.0024110981
0.0022694283
0.0021835206
0.0022212053
0.0023109769
0.0021594804
0.0013479068
0.00095469322
0.00085416682
0.00085441728
0.00085838794
0.00018334396
0.00017427512
0.00019753792
0.00029271217
0.00055963668
0.00096613656
0.0012646755
0.001578489
0.0018966527
0.0021706992
0.0023640336
0.0024180472
0.0024141538
0.0023353523
0.002254668
0.0021889521
0.0019936498
0.0014684548
0.0011249008
0.0010304439
0.0010444331
0.0010500755
0.0010546041
0.00020019642
0.00020695731
0.00024239091
0.00035725025
0.00063890954
0.00099081898
0.0012859817
0.0016322737
0.0019357391
0.0021755262
0.0023421775
0.0023622236
0.0023352244
0.0022508461
0.0020729233
0.0017931497
0.0013824685
0.0011617465
0.0011071508
0.0011259443
0.0011443393
0.0011414787
0.0011468977
0.00018638386
0.00021642407
0.00028156028
0.00042231063
0.00071556637
0.0010533589
0.0013921457
0.0017451556
0.001957357
0.0020977824
0.0021487075
0.0021377909
0.0020971413
0.0019394061
0.0016599434
0.0013226692
0.0011423187
0.0010927848
0.0011037086
0.0011262808
0.0011222791
0.0011135852
0.0011157824
0.00016492625
0.00021531406
0.00029828579
0.00047367566
0.0008032624
0.0011478412
0.0014989916
0.0017927181
0.0019165556
0.0019311126
0.001862964
0.0017814874
0.001717144
0.0015580048
0.0013220613
0.0011463289
0.0010763457
0.0010692964
0.0010967887
0.0010823168
0.0010126042
0.00098166049
0.0010274269
0.00015691314
0.00023251034
0.00034370193
0.00054675519
0.00086177435
0.0011764662
0.0015094919
0.0017398888
0.0017870315
0.001740731
0.0015952769
0.0014787516
0.0014097987
0.0012720985
0.001111887
0.0010348272
0.0010132117
0.0010246689
0.0010208462
0.00097665129
0.00095383505
0.00098559899
0.0011997976
0.00014711675
0.0002557255
0.00039765513
0.00059826296
0.00085488084
0.0011284702
0.0014259106
0.0016146481
0.0016486674
0.0015717265
0.0014218618
0.0013055155
0.0011793996
0.0010046008
0.00091940221
0.00088938474
0.00088499658
0.00092361655
0.00096708353
0.0010002747
0.0010819431
0.0013899334
0.0021485992
0.00014543829
0.00026833779
0.00042839928
0.00062025799
0.00084392078
0.0010793768
0.0013077002
0.0014200433
0.0014445777
0.0013851694
0.0012505894
0.0011133398
0.00096751669
0.00085493405
0.00080459573
0.0007799799
0.00079141843
0.00088639759
0.0010012133
0.0012090791
0.0016573112
0.0025443058
0.0031424868
0.00012674206
0.00025391533
0.00042367242
0.00061788286
0.0008359359
0.0010544672
0.001227008
0.0012933026
0.0012943792
0.0011879307
0.0010400199
0.00091010679
0.00079483743
0.00074215328
0.00072029017
0.00074227444
0.00081712725
0.00099325665
0.0012985381
0.001917749
0.0025984288
0.0030141645
0.003109546
0.00012549765
0.00025280447
0.00042009712
0.00061658462
0.00083472025
0.0010303389
0.0011216902
0.0011319813
0.0010643277
0.0009319463
0.00080728714
0.00071856219
0.00068553508
0.00068904688
0.0007406152
0.00084706231
0.0010842714
0.0014717136
0.0019960333
0.0023876291
0.0025367931
0.002558648
0.0022594799
0.00011279393
0.00023302492
0.00039747019
0.00056745704
0.00075920726
0.00092359436
0.0010059827
0.0010216777
0.0009660726
0.00084832164
0.00073477331
0.00065156721
0.00062076113
0.00063303694
0.00069996215
0.00083186917
0.0011074146
0.0015683747
0.0020571036
0.0022388582
0.0021686976
0.0019229
0.0015526339
0.00011448312
0.00022347245
0.00037125085
0.0005176291
0.00068086573
0.00082758398
0.00090496412
0.00092621306
0.00088871126
0.00079058322
0.00068901019
0.00061425412
0.0005840259
0.00059146794
0.00064572293
0.00076975531
0.0010306049
0.0014265503
0.0017921582
0.0019175422
0.0018755385
0.0016739999
0.0014125509
0.00010861693
0.00019024514
0.00032588206
0.00046465992
0.00060897232
0.00074791141
0.00083164798
0.00085570406
0.00082586764
0.00073991996
0.00064142676
0.00057086415
0.00054374276
0.00055273111
0.00060652915
0.0007347378
0.0009937082
0.001356315
0.0016310285
0.0017139124
0.0016609857
0.0014963711
0.0012988244
0.00011335566
0.00018308922
0.00030204006
0.00040437251
0.00053857657
0.00067042952
0.00076401381
0.00080214119
0.00078279248
0.00070720175
0.00060661909
0.00052734821
0.00049511716
0.00050185587
0.00055520965
0.00068841161
0.00095264452
0.001298631
0.0015189091
0.001580656
0.0015347137
0.001400874
0.001232539
0.00011540048
0.0001641524
0.00029007342
0.00036740595
0.00046680992
0.00059092203
0.00068263404
0.00073432687
0.00073480879
0.00068461789
0.00058973412
0.00050359649
0.00045990233
0.00045826531
0.00050452661
0.00063413856
0.00089867704
0.0012305211
0.0014302722
0.0014796668
0.0014409765
0.0013291502
0.0011795293
0.00012950221
0.00015537465
0.00026153584
0.00034843011
0.0004090456
0.00051052632
0.00060789217
0.00065947527
0.00067256213
0.00064844941
0.0005758747
0.00049280568
0.00044188984
0.00042991269
0.00046563525
0.0005858558
0.00084012054
0.0011537397
0.0013409083
0.0013835317
0.0013574284
0.0012750125
0.0011506618
0.00014877509
0.00015224291
0.00022034414
0.00032546692
0.00037942228
0.00043754139
0.00053312457
0.00060740434
0.00062304123
0.00061033271
0.00055934554
0.00048027667
0.00042175157
0.00040493477
0.00042731034
0.0005295299
0.00076427079
0.0010620456
0.0012525884
0.0013063388
0.0013005483
0.001246939
0.0011429883
0.0002292089
0.0001877542
0.0002257187
0.00031057679
0.00037094127
0.00040197349
0.00045362562
0.00053795719
0.00059006252
0.0005829091
0.00054929685
0.00047735198
0.00040883915
0.00037774158
0.0003873829
0.00045984662
0.00066445327
0.00095388813
0.0011685782
0.0012541409
0.0012691094
0.0012346679
0.0011411799
0.00030063366
0.0002834648
0.0002899766
0.00032788492
0.00037426486
0.0003975322
0.00041412915
0.00045408181
0.00052472249
0.00055500478
0.00053863826
0.00048279098
0.00040969197
0.00035931136
0.00035753006
0.00039732146
0.00055310915
0.00084076703
0.0010813572
0.0012065428
0.0012425824
0.0012225098
0.0011333747
0.00036315003
0.00039386669
0.00046940319
0.00043826528
0.00042302355
0.00041849008
0.0004168474
0.0004240626
0.00045059633
0.0005002152
0.00051274165
0.0004833284
0.00041664422
0.0003593669
0.00033410309
0.00035111015
0.00045365688
0.00071240775
0.00098271653
0.0011444789
0.001202737
0.0011943533
0.001118108
0.00039226036
0.00045296302
0.00060137431
0.00066138814
0.00061169762
0.0005191238
0.00045899226
0.00043451774
0.00043314758
0.00044647038
0.00047360452
0.00047127327
0.00043291074
0.00036355511
0.00032142534
0.00032328161
0.00037535781
0.00056349782
0.00086349014
0.0010540786
0.0011369931
0.0011485166
0.0011013259
0.00043046728
0.00050053165
0.00067216116
0.00081151925
0.00084643112
0.00078226656
0.00061577619
0.00049146691
0.00044499581
0.0004343305
0.00043720579
0.00044537094
0.00043007996
0.0003793035
0.00032271923
0.00029943915
0.00031966513
0.00043152255
0.00070630394
0.00094131245
0.0010638215
0.0011042997
0.0010847178
0.00043896922
0.00051390226
0.00068874988
0.0008735601
0.0010003848
0.0010080684
0.00092750224
0.00070228942
0.00051435436
0.00044843162
0.00043032573
0.00042098994
0.00041823768
0.0003920397
0.00033225914
0.00029285585
0.00029429024
0.00034471872
0.00052852356
0.0008167481
0.00098491686
0.001058931
0.0010625552
0.00043648081
0.00049793379
0.00066616132
0.00087685674
0.0010554546
0.0011556535
0.0011391023
0.0010276127
0.00074633221
0.00052177268
0.00044415623
0.00041708875
0.00040306416
0.00038876054
0.00035097374
0.00029615796
0.00027564196
0.00029291642
0.00039242663
0.00065136027
0.00087418985
0.00099754957
0.0010267649
0.00041213085
0.00046063146
0.00062845806
0.0008570709
0.0010572016
0.0011991645
0.0012447739
0.00120585
0.0010536722
0.000737726
0.00050777897
0.00042823351
0.00039796122
0.00038111995
0.00035455775
0.00030483794
0.00026791785
0.00026965957
0.00031129357
0.00046869016
0.00074647742
0.0009069865
0.00096951489
0.00037471673
0.00041813512
0.00058497564
0.00080297404
0.0010293683
0.0011923148
0.0012610008
0.0012479411
0.0011622003
0.00094183422
0.00066848441
0.0004813773
0.00040499503
0.00037700271
0.00035399065
0.00031432798
0.00026987783
0.0002528437
0.00026622217
0.00034482019
0.00056515009
0.00080511418
0.00091082399
0.00032927742
0.00036855176
0.00053345455
0.00072250732
0.00092524925
0.0011169249
0.0012219796
0.0012265999
0.0011560062
0.00097451908
0.00073953697
0.00054214186
0.00042663335
0.00037775897
0.00035174106
0.00031889997
0.00027463687
0.00024405787
0.0002446932
0.00027392875
0.00039151385
0.00065311742
0.00084749079
0.00028551819
0.00030643273
0.0004680128
0.00063393957
0.0007833064
0.000927851
0.0010612002
0.0011200905
0.0010871588
0.00094456144
0.00073378833
0.00054802639
0.00043297898
0.00037657241
0.00034724358
0.00031941403
0.00028112423
0.00024537008
0.00022842244
0.00023767534
0.0002886591
0.0004404882
0.00071471563
0.00024697121
0.00023877255
0.00038412772
0.00053900013
0.0006619355
0.00075364285
0.00083330436
0.00088412397
0.00089698178
0.00083289662
0.00068964098
0.0005364512
0.00043133665
0.00037655912
0.00034749921
0.00032131135
0.0002880945
0.00025032652
0.00022706626
0.00022003579
0.0002359887
0.00030509535
0.00050923083
0.00022214661
0.00018062662
0.00029343206
0.00043499525
0.00055425582
0.0006304724
0.00067331574
0.00069579234
0.00070183561
0.00067218445
0.00059784688
0.00050327579
0.00042618426
0.00037882829
0.00035075992
0.00032665421
0.00029672171
0.00026048148
0.00023116714
0.00021700467
0.00021708407
0.00023820724
0.00034251289
0.00020641173
0.00014006293
0.00021565074
0.00033045842
0.0004433419
0.00052937003
0.00057047553
0.00058272472
0.00057745133
0.00055786942
0.00052245301
0.00047232562
0.00042116026
0.00038551784
0.00036161741
0.00034137187
0.00031705497
0.0002833444
0.00024494708
0.00022212544
0.00021494983
0.00021753393
0.00025147504
0.00019510413
0.00011580359
0.00016230798
0.00024466143
0.00033720152
0.00042301652
0.00048240371
0.00050626811
0.0005063479
0.00049050098
0.00046611988
0.00043842962
0.00041098049
0.00038430012
0.00036491117
0.00035060189
0.00033623396
0.00031591721
0.00028422864
0.0002455316
0.0002230906
0.0002184113
0.00022603954
0.00018609284
0.0001028281
0.00013161315
0.0001867935
0.00025350617
0.00032399582
0.0003864485
0.00042832459
0.00044568637
0.00044242302
0.00042711588
0.00040609975
0.00038912947
0.00037528882
0.00036086375
0.0003489659
0.00033795834
0.0003265607
0.00031273773
0.00029140102
0.00025901375
0.00023357477
0.00022681245
0.00017788236
9.6344991e-05
0.00011650452
0.00015369003
0.00019850331
0.0002489889
0.00030018101
0.00034447501
0.00037467199
0.00038782692
0.00038591083
0.00037609152
0.00036234676
0.00035167543
0.0003451106
0.00033949918
0.00033310965
0.00032480673
0.00031566738
0.00030508351
0.0002907897
0.00027370439
0.00025486645
0.00016931636
9.3092688e-05
0.00010960062
0.0001368617
0.00016742387
0.00020096389
0.00023698258
0.00027270526
0.00030354808
0.00032545367
0.00033637751
0.00033757666
0.00033296567
0.00032523993
0.00031852202
0.00031470123
0.00031440604
0.00031348213
0.00031012795
0.00030344554
0.00029461161
0.00028580419
0.00027793938
0.00015983479
9.0482752e-05
0.00010581212
0.00012800351
0.00015105766
0.00017427402
0.00019838378
0.00022322604
0.00024747055
0.00026880259
0.00028492089
0.00029448188
0.00029796691
0.00029668437
0.00029362533
0.0002898491
0.00028764051
0.000287079
0.00028870599
0.00028986124
0.00028820253
0.00028331622
0.00028315322
0.00014959531