/*--------------------------------*- C++ -*----------------------------------*\
| =========                 |                                                 |
| \\      /  F ield         | OpenFOAM: The Open Source CFD Toolbox           |
|  \\    /   O peration     | Version:  2406                                  |
|   \\  /    A nd           | Website:  www.openfoam.com                      |
|    \\/     M anipulation  |                                                 |
\*---------------------------------------------------------------------------*/
FoamFile
{
    version     2.0;
    format      ascii;
    arch        "LSB;label=32;scalar=64";
    class       volScalarField;
    location    "195";
    object      rho;
}
// * * * * * * * * * * * * * * * * * * * * * * * * * * * * * * * * * * * * * //

dimensions      [1 -3 0 0 0 0 0];

internalField   nonuniform List<scalar> 
20580
(
0.99877038
1.0038056
1.0030359
1.0038834
1.0017239
1.0026807
1.0024369
1.0035856
1.0022683
1.0028719
1.0022514
1.0032425
1.0018464
1.0025325
1.0030001
1.0019501
1.0021485
1.0058692
1.0014943
1.00169
1.0067565
1.0040007
1.0011283
1.005112
1.0104243
1.00266
0.99818952
1.0049883
1.0011147
0.996619
1.0169071
0.99858747
1.0042301
1.0031888
1.0040418
1.001573
1.0028005
1.0025378
1.0038897
1.0018721
1.0027263
1.0028211
1.0029347
1.0016807
1.0028867
1.0029468
1.0011492
1.003468
1.0059139
0.9999355
1.0034121
1.0077685
1.0023572
1.0020561
1.0078006
1.0110509
0.99957485
0.99271408
1.0052749
1.00985
0.99837033
1.0009664
0.9994774
1.0041241
1.0029309
1.0033555
1.0018785
1.0028758
1.0027681
1.0035148
1.0019685
1.0023678
1.0034068
1.0026353
1.0017387
1.003196
1.0028566
1.0008585
1.0043624
1.0054663
0.99892271
1.0049638
1.0078633
1.0003871
1.0025274
1.0077045
1.00999
0.99917425
0.9905379
1.0042145
1.0175888
1.0041413
0.98727245
1.0011334
1.0035376
1.0023172
1.0021358
1.002503
1.0028998
1.0029894
1.0027111
1.0025
1.0021818
1.0034864
1.0025299
1.0020415
1.0034628
1.0027245
1.0011848
1.0048056
1.0044799
0.99902594
1.0060114
1.0067124
0.99901144
1.0029664
1.0055169
1.0063323
1.0012361
0.99302145
1.0022942
1.0204333
1.0133282
0.9864882
1.0030402
1.0027322
1.0015382
1.0011218
1.0031138
1.0029076
1.0031725
1.0019971
1.0031374
1.0024425
1.0031445
1.0025048
1.0025844
1.0034094
1.0027777
1.0019483
1.004734
1.0030478
1.0002831
1.0064056
1.0045142
0.99877566
1.0042756
1.0030076
1.0010074
1.0034763
0.99983689
1.0014811
1.0150621
1.019563
0.99766464
1.0044702
1.0022054
1.0010178
1.0007177
1.0035681
1.0028174
1.0031682
1.0017954
1.0033749
1.0028821
1.0027273
1.0023678
1.0031973
1.0030821
1.0026659
1.0030329
1.0043085
1.0014936
1.002126
1.0065937
1.002284
0.99907145
1.006934
1.0022081
0.99603864
1.0041861
1.0084309
1.0025851
1.0042006
1.0151594
1.0122974
1.0045342
1.0021965
1.0010277
1.0009434
1.0036946
1.0026093
1.0027723
1.0021859
1.0030782
1.0031236
1.0024705
1.0022996
1.0036459
1.0026334
1.0021881
1.0040245
1.0038447
1.000302
1.0039534
1.0064103
1.000543
0.99977914
1.0096769
1.0039019
0.9933508
1.0032719
1.0151985
1.006255
0.99446734
1.0004285
1.0161448
1.003187
1.0025978
1.0015402
1.0019292
1.0033831
1.0025096
1.0023623
1.0028463
1.002642
1.0031787
1.0023219
1.0024292
1.0037379
1.0022625
1.0017792
1.0044356
1.0035113
0.99979656
1.005534
1.0057534
0.99941782
1.0011741
1.0107086
1.0062842
0.99428817
1.001608
1.0169725
1.0109632
0.9915141
0.98609905
1.0064999
1.0011714
1.0032755
1.002344
1.0032705
1.002819
1.0025712
1.0021739
1.003296
1.0024242
1.0032712
1.0022449
1.002561
1.0035545
1.0021252
1.0017172
1.0041939
1.0031514
1.0000927
1.0064002
1.0046105
0.99958606
1.0028377
1.0091727
1.0071781
0.99830926
1.0007786
1.0129417
1.0136417
0.99537412
0.98302008
0.99324691
0.99963942
1.0039613
1.0031542
1.0041179
1.0022777
1.0027683
1.0022077
1.0032063
1.0024881
1.0032938
1.0023615
1.0027765
1.0031064
1.0021202
1.0019345
1.0035608
1.0026893
1.0013328
1.006402
1.002793
1.0007809
1.0048208
1.0055026
1.0052657
1.003274
1.001847
1.0055353
1.0103397
1.0033442
0.9913696
0.98955221
0.99901392
1.0044792
1.0037029
1.0042369
1.0019889
1.0031367
1.0027018
1.0028473
1.002727
1.0029316
1.0026852
1.0030772
1.0024744
1.0023309
1.0024279
1.0028332
1.0022232
1.0030012
1.0059553
1.000952
1.0019701
1.0073873
1.0018125
1.0005285
1.0069984
1.0051916
0.99907108
1.0005203
1.0085075
1.0063186
0.99817271
0.99953641
1.0043499
1.0035446
1.0037082
1.0019705
1.0033844
1.0032853
1.0025563
1.0031037
1.0023217
1.003112
1.0033429
1.0019857
1.0025624
1.0032658
1.0023976
1.0018322
1.0044071
1.0052194
0.99959951
1.0028712
1.0099272
0.99980306
0.99545267
1.0082593
1.0100338
0.99703049
0.99093712
1.0059499
1.0186368
1.0130656
1.0011411
1.0037996
1.0027937
1.0026314
1.0024204
1.0033092
1.0035356
1.0025677
1.003439
1.0019884
1.0034789
1.0034565
1.001935
1.0027017
1.0040621
1.0023728
1.0017136
1.0053887
1.0042805
0.99904599
1.0035901
1.0110851
0.99973371
0.99330169
1.007274
1.0137357
0.99929066
0.98854254
0.9983065
1.0203858
1.0244839
1.0032097
1.003019
1.0017708
1.0014079
1.0031516
1.0029733
1.0034221
1.0028811
1.0033536
1.0022782
1.0034258
1.0034253
1.0021676
1.0028494
1.0042216
1.0025579
1.0019226
1.0057991
1.003303
0.99977299
1.0039778
1.0101967
1.0011077
0.99484261
1.0053502
1.0136982
1.0040575
0.99288629
0.99477746
1.0110871
1.0235942
1.0045993
1.0025343
1.0010786
1.0009568
1.0038237
1.0026736
1.0029574
1.0032756
1.0028791
1.0029539
1.0030271
1.0033156
1.0024955
1.0030435
1.0037935
1.0028857
1.0024733
1.005423
1.0022532
1.0018312
1.0041869
1.0071041
1.0026204
0.99938504
1.004719
1.0089584
1.0073506
1.0006609
0.99867693
1.0012491
1.0106656
1.0044037
1.0025724
1.0010342
1.0014466
1.0040909
1.0025683
1.0025302
1.0034258
1.002488
1.0034452
1.0028002
1.0030025
1.0029291
1.0031044
1.0030841
1.0032282
1.0032388
1.0045808
1.0011417
1.0042486
1.0050396
1.002694
1.0024784
1.0055008
1.0060954
1.0019795
1.004523
1.0090634
1.0062688
0.99844673
0.99530733
1.0028442
1.0029691
1.0016385
1.0022382
1.0036361
1.0026758
1.0024554
1.0031642
1.0023844
1.0033351
1.0029005
1.0025294
1.0033957
1.0031272
1.0022382
1.0033202
1.0039261
1.0037399
1.0002666
1.0062335
1.0063829
0.9993408
1.0005578
1.0105217
1.0087747
0.99739718
0.99743476
1.0120201
1.0151618
1.0034367
0.9891052
1.0004818
1.0034631
1.0025806
1.003169
1.0025514
1.0028921
1.0026265
1.0025416
1.0026067
1.0030216
1.0031925
1.0021384
1.0036452
1.003147
1.0015298
1.0030987
1.0042716
1.0030945
0.99995025
1.0069971
1.007624
0.99794842
0.99859202
1.0119386
1.0114023
0.99645836
0.99196705
1.0080094
1.0197137
1.0097103
0.99238776
0.99884081
1.0040103
1.0034822
1.0040376
1.0017635
1.0032419
1.0031173
1.0022695
1.0029779
1.0030577
1.0034505
1.0021944
1.0035721
1.003259
1.0014998
1.0028773
1.0043503
1.0027157
1.0004633
1.0063748
1.0077572
0.99868375
0.99821844
1.0100097
1.0117775
0.9976465
0.99252882
1.0020906
1.0157921
1.0133531
0.99951594
0.99875175
1.0041708
1.0037842
1.0040961
1.0016864
1.0033185
1.0035193
1.0022764
1.0034928
1.0034158
1.0033954
1.0025908
1.0032306
1.0031912
1.0020961
1.0027549
1.0040115
1.0025838
1.0019685
1.0049362
1.0061588
1.0008691
1.000184
1.0066284
1.0079513
1.0006322
0.99717215
1.0007504
1.0065707
1.0097916
1.0052852
1.000171
1.003756
1.003116
1.0033682
1.0021645
1.0031011
1.0033346
1.0027317
1.0031793
1.0032784
1.0031996
1.0030416
1.0029423
1.0029386
1.0030026
1.0028623
1.0033501
1.0024788
1.0040251
1.0036162
1.0029238
1.00378
1.0035175
1.0043785
1.0018794
1.0026776
1.0040402
1.0041643
0.9996239
1.0010246
1.0062198
1.0027536
1.0032045
1.0019102
1.0021988
1.0032083
1.0030778
1.003042
1.0034262
1.0035297
1.0023568
1.0031562
1.003739
1.0027337
1.0026333
1.0039238
1.0033224
1.0029443
1.0022944
1.0062292
1.0030199
1.0000425
1.0052246
1.0080199
1.0041935
0.99724332
1.0016582
1.01173
1.0106251
0.99864678
0.9937155
1.0033373
1.0048533
1.00307
1.0013162
1.0018146
1.0044507
1.0038553
1.002941
1.0049894
1.0030642
1.0025341
1.003537
1.004719
1.002986
1.0026152
1.0047323
1.0041048
1.0031979
1.0020057
1.007889
1.0035957
0.99846857
1.0047038
1.0115921
1.006128
0.99578171
0.99863458
1.0146247
1.0175356
1.0026999
0.99154968
0.99950675
1.0169459
1.0145735
1.0079434
0.99854982
0.98996251
0.98761274
0.99304126
1.0026984
1.0118659
1.0143485
1.0072623
0.99697231
0.99546765
1.0069339
1.0213879
1.0261428
1.015372
0.99290998
0.97680223
0.97918364
0.99852397
1.0223371
1.0348143
1.0133066
1.0070478
1.0031516
1.004505
1.0101849
1.0159134
1.0173316
1.0122679
1.0001293
0.98638396
0.97983543
0.98399759
0.99939889
1.0199605
1.0311072
1.0252702
1.0067769
0.99179848
0.99103138
1.0034007
1.0181577
1.0203852
1.0091786
0.98351123
0.98621054
0.99729752
1.0131354
1.0270401
1.0331272
1.025508
1.010091
0.99519148
0.98987562
0.99487622
1.0052289
1.0130866
1.012956
1.0030127
0.98792657
0.98182582
0.99275203
1.0177255
1.041139
1.0438896
1.0227568
0.98944228
0.9900653
0.9973886
1.0041062
1.0077302
1.0074217
1.0014275
0.99203749
0.98836531
0.99764189
1.0173335
1.0371621
1.04388
1.0330934
1.0063291
0.97903461
0.96729806
0.97426294
0.99563136
1.0205401
1.0390171
1.0343561
1.0122076
0.99174739
1.0348304
1.0294216
1.015441
0.99735403
0.98227325
0.97161073
0.97097824
0.98185483
1.0010718
1.02321
1.0401006
1.0385716
1.0185439
0.99918148
0.99184838
1.0009871
1.0156503
1.0240186
1.0214489
1.0048433
0.9838643
0.97257466
0.98035624
1.0363163
1.0246129
1.0113471
0.99970536
0.99519059
1.0011028
1.0101477
1.0167974
1.0153793
1.0064715
0.99411773
0.98173348
0.9753307
0.9812381
1.0059834
1.0428234
1.0714714
1.0694173
1.035601
0.99223382
0.96149776
0.95442321
0.96799486
0.98485342
0.98206858
0.98744077
1.0049212
1.0324135
1.0575294
1.0675987
1.0544516
1.026338
0.99573966
0.97365174
0.96180698
0.96254415
0.9781016
1.0045028
1.0368877
1.0632523
1.0590404
1.0325975
1.0049796
0.99214225
0.99625567
1.0071546
0.96527721
0.97187136
0.98893431
1.0099532
1.0313432
1.0491945
1.0525671
1.0392234
1.0202909
1.004676
0.99999127
1.009597
1.0201613
1.0245774
1.0180409
1.0060983
0.99739699
0.98939344
0.9853085
0.99265838
1.0174218
1.0566895
1.0879055
1.0186069
1.0246895
1.0216934
1.0115201
0.99923498
0.98747881
0.98157246
0.9791954
0.98465148
1.0030621
1.0364702
1.0790185
1.1036454
1.0910947
1.0478732
0.99874152
0.96610826
0.95117546
0.94987042
0.96613643
1.0014825
1.0576343
1.1157746
1.1047727
1.0770281
1.036447
0.99966532
0.97619995
0.96623828
0.96218082
0.95942658
0.96691159
0.99043674
1.0326439
1.0858741
1.1219125
1.1080326
1.0676452
1.0197632
0.98864743
0.97937443
0.9827953
0.99032566
1.0039582
1.0252626
1.0537864
1.0869557
1.0647538
1.0408164
1.0189465
1.0030058
0.99770229
1.0017305
1.0078718
1.0157722
1.0182298
1.0198812
1.0279653
1.0426249
1.0471648
1.0428317
1.0348358
1.0307758
1.0457743
1.0670077
1.0707701
1.0534607
1.0237793
1.0001417
1.0094988
1.0066716
1.0105828
1.0246266
1.0476865
1.0780755
1.1037413
1.1071804
1.0844811
1.0451112
1.008345
0.98760414
0.98240585
0.98300316
0.98618501
0.99897857
1.0335827
1.0928716
1.1581107
1.1723082
1.1233243
1.0499128
0.99015947
0.96863057
0.96899766
0.97873152
1.0075147
1.0615762
1.1354472
1.1965929
1.19843
1.1398389
1.0635027
1.0038641
0.97655321
0.97193473
0.97618808
0.97246169
0.97973304
1.0104336
1.0797661
1.1705986
1.2275986
1.1904067
1.0960695
1.0135663
0.97442006
0.97657495
0.98636499
1.0145319
1.0670433
1.1391605
1.2019349
1.2119987
1.1587627
1.0849161
1.0267197
0.99809985
0.99751603
1.0085773
1.006807
1.0056108
1.0159255
1.0566416
1.1298388
1.1948303
1.1918958
1.1276596
1.0593033
1.0160884
1.0204427
1.0247362
1.0413614
1.0718711
1.1144186
1.1537436
1.1663476
1.1383926
1.094984
1.0600132
1.0440495
1.0503074
1.063462
1.0632855
1.0546906
1.043514
1.0548293
1.0883695
1.133738
1.1465449
1.1210642
1.0854779
1.0815953
1.0782172
1.0688678
1.064742
1.0718126
1.0895996
1.1089868
1.1167221
1.1031402
1.0854913
1.0775916
1.0842898
1.1100816
1.1336678
1.134027
1.1074574
1.0712264
1.0571249
1.0686093
1.0902965
1.1062582
1.0953729
1.0829473
1.1512639
1.1334824
1.1013901
1.0777686
1.0691646
1.0767275
1.0879146
1.0926987
1.0822877
1.0740895
1.0825956
1.1126905
1.1616259
1.1997307
1.1975626
1.1499819
1.0947019
1.0634241
1.0612777
1.0732912
1.0855389
1.0769239
1.074785
1.2029301
1.1721038
1.1232509
1.0871883
1.0726062
1.0772512
1.0862277
1.0895852
1.0807917
1.0756782
1.0936489
1.1363486
1.1978248
1.2436307
1.2385441
1.1777356
1.1101537
1.0705837
1.0644994
1.0734956
1.0835981
1.0705109
1.0721625
1.2255916
1.1913166
1.1381041
1.0987856
1.0826434
1.0870478
1.0968401
1.1012618
1.0943214
1.0897994
1.1108861
1.1600473
1.2265633
1.2717407
1.2565298
1.1871646
1.1174036
1.0800523
1.07664
1.0826776
1.0887083
1.0762053
1.0816139
1.2289483
1.1978635
1.1494356
1.1139469
1.1013692
1.1110894
1.1227532
1.125778
1.1172456
1.1148272
1.1384793
1.1868226
1.2464426
1.2764665
1.2485714
1.1805665
1.1229963
1.0962861
1.0984878
1.1033526
1.102931
1.0925958
1.1045357
1.2103118
1.1888793
1.1532202
1.1300626
1.1300202
1.1471543
1.1601938
1.16241
1.1542304
1.1511725
1.1701503
1.2086045
1.2442165
1.2556437
1.2248081
1.1712291
1.1325748
1.1239098
1.1317235
1.1386397
1.1266496
1.1171856
1.1393504
1.1853771
1.1726213
1.1502012
1.1404727
1.1572654
1.192289
1.2227609
1.2263907
1.2086191
1.1938129
1.1949039
1.2114166
1.2180566
1.2155587
1.1894242
1.1586905
1.1525758
1.1640964
1.1798164
1.1843963
1.1611151
1.1566731
1.1757156
1.1742803
1.1621712
1.142335
1.1443918
1.1821228
1.2516452
1.3157112
1.3166252
1.2726392
1.2267334
1.1986419
1.1902558
1.1797925
1.1699822
1.1504466
1.1475889
1.1748532
1.2195339
1.2519551
1.2471477
1.2088433
1.1930137
1.1901694
1.1643835
1.1505081
1.1343917
1.1478456
1.2166363
1.3287092
1.4235798
1.4054469
1.310453
1.2248534
1.1770553
1.1548703
1.1399796
1.124796
1.1174944
1.1437217
1.2145334
1.300554
1.3474321
1.3073187
1.238197
1.1965155
1.1552254
1.1955643
1.1724684
1.1527048
1.1704016
1.2502795
1.3741211
1.4534391
1.4017071
1.2969347
1.2103162
1.1640882
1.1355084
1.1174175
1.0970518
1.1135612
1.185483
1.2960429
1.3896269
1.3870455
1.3027634
1.2223703
1.1618049
1.1078414
1.2987315
1.2480139
1.202792
1.2002075
1.2483232
1.3193939
1.3477699
1.3099301
1.2567892
1.2130182
1.180115
1.156443
1.1427607
1.1469451
1.1871009
1.2623003
1.3370347
1.3658992
1.318645
1.2433049
1.1853395
1.1326305
1.0982748
1.4242619
1.3232715
1.2264807
1.1854418
1.1954814
1.2175953
1.2223839
1.2106439
1.2116068
1.225037
1.2395328
1.245293
1.2476162
1.2438559
1.2565099
1.2656649
1.2573897
1.2343153
1.2034383
1.1911721
1.1849839
1.1688042
1.1608141
1.4099223
1.3201656
1.2244568
1.1729048
1.1713418
1.170947
1.1651381
1.1606936
1.1923697
1.2537738
1.3190246
1.3480534
1.3279845
1.2814023
1.2339227
1.1887605
1.1525903
1.1306073
1.1344313
1.1702195
1.2265196
1.2794065
1.3002853
1.2820802
1.2507659
1.2153329
1.2023606
1.2070151
1.2046292
1.1975132
1.1991752
1.2242667
1.2645728
1.3030899
1.320728
1.2981369
1.2516059
1.198803
1.1495936
1.1185215
1.1171652
1.1462425
1.2033948
1.2612649
1.2991719
1.3030656
1.2081259
1.1853041
1.1875968
1.2286666
1.2785804
1.2942912
1.2757365
1.2482982
1.2317331
1.2228952
1.2158163
1.2122025
1.2104864
1.2118656
1.2097948
1.2031931
1.1968362
1.195245
1.2038119
1.2135348
1.2069403
1.1914182
1.1845926
1.2202232
1.1877095
1.1898746
1.2308298
1.2780182
1.2993976
1.2871562
1.2559558
1.2173707
1.1832913
1.1596612
1.1520844
1.1638744
1.1949916
1.233886
1.2643728
1.2757854
1.2618452
1.2318465
1.1926139
1.1606744
1.148284
1.1662513
1.2815704
1.2271613
1.2011191
1.2092822
1.2181635
1.2226398
1.2241711
1.224062
1.2194053
1.2073066
1.1925752
1.1842345
1.1877015
1.2022776
1.2178441
1.2254906
1.2243768
1.2187841
1.2199758
1.2251389
1.2421811
1.2636147
1.2755121
1.2640992
1.2297707
1.2044804
1.1956206
1.1859571
1.1794316
1.1829352
1.2002133
1.224287
1.2432141
1.2491006
1.2410534
1.2219947
1.1994116
1.1758657
1.1553703
1.1447349
1.1556871
1.1942323
1.2571344
1.3330019
1.3867512
1.377372
1.201913
1.1919321
1.1967225
1.2115081
1.2151173
1.2097649
1.2053263
1.2102145
1.2195266
1.2256585
1.2252999
1.2188481
1.2083971
1.1959233
1.1808417
1.1700663
1.165679
1.1761612
1.2034981
1.2440835
1.2856635
1.3204606
1.318117
1.1906267
1.1758184
1.1900993
1.2214557
1.2372888
1.2394149
1.2317549
1.2191041
1.2030958
1.185533
1.1709619
1.1646309
1.1698679
1.1861636
1.211248
1.2394259
1.2579429
1.2565383
1.234563
1.2136059
1.2021533
1.2028227
1.2212233
1.235538
1.195463
1.1914873
1.2073933
1.2162751
1.2174773
1.215332
1.2114888
1.2038902
1.1922928
1.177194
1.1635588
1.1567402
1.1607716
1.1803054
1.2123044
1.2494963
1.2794676
1.2834441
1.2537334
1.2101318
1.16995
1.1508398
1.287055
1.2144593
1.1956761
1.1985817
1.1967397
1.1890956
1.1833155
1.1835732
1.1886172
1.1951593
1.2005097
1.201065
1.194531
1.1846708
1.1782284
1.1818588
1.1979898
1.2157472
1.2287671
1.2308208
1.2164786
1.191899
1.1715539
1.2872235
1.2127661
1.1871011
1.1944091
1.198021
1.1930999
1.1856376
1.180271
1.1805563
1.1854069
1.1932951
1.2009258
1.2038127
1.2023844
1.1974485
1.1926604
1.1918293
1.1931877
1.1975972
1.2023137
1.2045897
1.1992268
1.1864061
1.2863162
1.2218155
1.1816881
1.1882375
1.2004196
1.2065993
1.2072651
1.2045721
1.1988222
1.1906512
1.1816703
1.1739879
1.1685464
1.1691909
1.1765134
1.1899577
1.2052365
1.2129259
1.2115399
1.2048182
1.1968662
1.1876946
1.1759002
1.3007049
1.2544567
1.194035
1.183202
1.1886348
1.194527
1.1982973
1.2013868
1.2015298
1.1963577
1.1847125
1.1689753
1.1539461
1.1459295
1.1501719
1.1695284
1.1994511
1.2203231
1.2234033
1.2114041
1.1930436
1.1763933
1.1636937
1.2806285
1.2634383
1.2139586
1.1848521
1.1800935
1.1800631
1.1784186
1.1774458
1.1785121
1.1803434
1.1801075
1.1755535
1.1691519
1.1631707
1.1630579
1.1745539
1.1960732
1.2104352
1.2103796
1.1955297
1.1772871
1.1655653
1.1613603
1.2440209
1.2439405
1.2286908
1.1964771
1.187214
1.187137
1.1858099
1.1809714
1.1749889
1.1708405
1.1700049
1.1711703
1.1733053
1.1744121
1.1768227
1.1838638
1.1949105
1.2007588
1.1943978
1.1790087
1.1655733
1.1615359
1.1676644
1.2233343
1.2285601
1.2280013
1.2113273
1.1922016
1.1896425
1.1928023
1.1922154
1.1874712
1.1799323
1.1723191
1.1669066
1.1638605
1.1624548
1.1629138
1.1669866
1.1767457
1.1845022
1.1841815
1.1782211
1.1726015
1.1721512
1.1775746
1.2167081
1.2217432
1.2267128
1.2180702
1.1970228
1.1804926
1.1768193
1.1789111
1.1805949
1.1788894
1.1747035
1.1688054
1.1628845
1.1574401
1.1528514
1.152869
1.1604117
1.1728477
1.1807534
1.1857138
1.1856824
1.1837018
1.1798592
1.1989407
1.2079344
1.2190815
1.2237509
1.2152158
1.1955353
1.1798554
1.1731631
1.1717318
1.1713426
1.1702986
1.1683564
1.1650038
1.1610911
1.1572065
1.1564939
1.1619183
1.1741938
1.1839942
1.1887069
1.1866811
1.1806781
1.1711064
1.1948575
1.1999948
1.2106506
1.2227365
1.2278747
1.2198344
1.201256
1.1863327
1.1783365
1.1739362
1.1704228
1.1663338
1.1615894
1.1572947
1.1538433
1.1529934
1.1575005
1.1688398
1.1790438
1.1813201
1.1766822
1.170012
1.1627951
1.2034749
1.201422
1.2045331
1.2115794
1.2178146
1.2177116
1.2080855
1.1910835
1.1784123
1.1731271
1.1704888
1.1671381
1.1624089
1.1559376
1.1496444
1.1456934
1.1477474
1.1562194
1.1679423
1.1726975
1.1706253
1.1667762
1.1654299
1.1991849
1.1969607
1.1998261
1.2057989
1.2131034
1.2173066
1.2141711
1.2021578
1.1857183
1.1742931
1.1702401
1.1686005
1.1661861
1.1611157
1.1544647
1.1480132
1.1461008
1.1503244
1.161661
1.1706348
1.1718884
1.1702226
1.169855
1.1989423
1.1903185
1.1914665
1.1974119
1.2072436
1.2172221
1.2218346
1.2178211
1.2036607
1.1857087
1.1731854
1.1672217
1.1640777
1.1600119
1.1543124
1.1471784
1.1424537
1.1438243
1.152005
1.1634219
1.1694226
1.1689877
1.1674237
1.2042145
1.1903149
1.1883183
1.191121
1.1981715
1.2078907
1.2157525
1.2173952
1.2119341
1.1969717
1.1800874
1.1688859
1.1634894
1.1601107
1.1557457
1.1498112
1.1431489
1.1405641
1.1442427
1.1544726
1.1644971
1.1675759
1.1666321
1.2032815
1.1867879
1.1855198
1.1899604
1.1975679
1.2059524
1.2129019
1.2148502
1.2124141
1.2039809
1.189514
1.1751974
1.165926
1.1615644
1.1579634
1.1535027
1.1469143
1.1413721
1.1410591
1.146239
1.1559691
1.1630781
1.1657338
1.2096662
1.1880694
1.1828311
1.1846059
1.1920775
1.2005293
1.206759
1.2097734
1.2083923
1.2029726
1.1932461
1.1813591
1.1706494
1.1637221
1.1588282
1.1543985
1.1483521
1.1418776
1.1380716
1.1397782
1.146831
1.1558468
1.1626108
1.2194817
1.194921
1.1834149
1.1791971
1.182048
1.1898043
1.1971615
1.2016362
1.2026738
1.1999803
1.193048
1.183119
1.173293
1.16528
1.1590463
1.1539829
1.1484765
1.1427346
1.1376174
1.1374175
1.1410565
1.1492155
1.1581967
1.2271983
1.2037702
1.1879378
1.1779777
1.1746268
1.1783216
1.18586
1.1921363
1.1952025
1.19415
1.189159
1.1809017
1.1718522
1.1642443
1.1584142
1.15376
1.1493589
1.1450245
1.1400268
1.1368588
1.1378609
1.1425402
1.1504882
1.2329732
1.2143588
1.1971883
1.183043
1.1743567
1.1711248
1.1735553
1.1790514
1.1829355
1.1836324
1.1808862
1.1751731
1.16832
1.1625754
1.1581292
1.1549954
1.151937
1.1486241
1.1439526
1.1391469
1.1358171
1.136778
1.1413017
1.236721
1.2245424
1.20946
1.1938561
1.1810024
1.1727717
1.1685147
1.1678515
1.1696537
1.1711599
1.1708358
1.1685598
1.1650042
1.1615674
1.158644
1.1567213
1.1540221
1.1506917
1.1461864
1.1403974
1.1356799
1.1328947
1.1347627
1.2395875
1.2329049
1.2215051
1.2070252
1.1923139
1.1796287
1.1711647
1.1661592
1.1633279
1.1624396
1.1625337
1.1624099
1.1614148
1.1599049
1.1580002
1.1561724
1.1538179
1.1506863
1.146916
1.1423961
1.1380404
1.1342352
1.1341941
1.2410353
1.2385306
1.2310589
1.2197327
1.2058064
1.1915085
1.1793588
1.1706373
1.1653997
1.1622706
1.160144
1.1590529
1.1582283
1.1571749
1.1556905
1.154002
1.1521482
1.1500937
1.148016
1.1455678
1.1427108
1.1393141
1.1376932
1.2399332
1.2410977
1.2379378
1.2308206
1.2201292
1.2071142
1.1937327
1.1815478
1.1720733
1.1657419
1.1611402
1.1586146
1.1566975
1.155337
1.154387
1.1529839
1.151959
1.150561
1.1494542
1.1481049
1.1462725
1.1433351
1.1401195
1.2360283
1.2416786
1.2420606
1.2389311
1.2320093
1.2215418
1.2092002
1.1961035
1.1838387
1.1742056
1.1663262
1.1612246
1.1583682
1.1562205
1.1553076
1.1539463
1.1525768
1.1511012
1.1496634
1.1482362
1.1469746
1.1448848
1.1422317
1.2329134
1.2412906
1.2435392
1.2433668
1.240209
1.2334653
1.2238034
1.2122144
1.2000019
1.1885967
1.1784891
1.1702495
1.1645872
1.1600937
1.157437
1.1551148
1.1532421
1.1517019
1.1502334
1.1489165
1.1478757
1.1464766
1.1449117
1.232916
1.2406002
1.2439875
1.2452902
1.2447966
1.2418787
1.2360977
1.2279683
1.2180373
1.2070935
1.1962852
1.1859193
1.1772682
1.1699547
1.1643219
1.1601266
1.1569147
1.1547729
1.1530185
1.1518094
1.1502814
1.1490289
1.1470305
1.2335521
1.2406979
1.2441817
1.2462288
1.2470631
1.246738
1.2445457
1.2405556
1.2345836
1.2264357
1.2172097
1.2073379
1.1974453
1.188402
1.1801681
1.1736529
1.1683803
1.1641661
1.160766
1.1582069
1.1557251
1.1537384
1.1504626
1.2342878
1.2414119
1.2451157
1.2478119
1.2496514
1.2505342
1.2505055
1.249219
1.2462789
1.2420215
1.2362529
1.2292999
1.2214537
1.213182
1.2050128
1.1973081
1.1901892
1.1837422
1.1780674
1.1731385
1.1689573
1.1654562
1.1604388
1.2357825
1.2432974
1.2480235
1.2514998
1.254207
1.2560143
1.2569693
1.2569476
1.25583
1.2540794
1.251242
1.2475711
1.2428914
1.2373275
1.2313919
1.2248615
1.2181275
1.2113939
1.2050359
1.199013
1.1935292
1.1884966
1.1816378
1.2385206
1.2484649
1.2547389
1.2598303
1.2640868
1.2670566
1.2690564
1.2699155
1.2700125
1.2692627
1.267831
1.2657671
1.2629624
1.259551
1.2555844
1.2511135
1.2461395
1.2409114
1.2356826
1.230452
1.2249948
1.2194517
1.2119324
1.2401001
1.2558472
1.2661336
1.2748777
1.2823553
1.2877427
1.2914364
1.2932476
1.2939993
1.2935199
1.2922819
1.2902661
1.2878186
1.2851111
1.282215
1.2789171
1.2751499
1.2710552
1.2669945
1.2629144
1.2585085
1.2533657
1.2466578
1.2403678
1.25906
1.2755516
1.2919366
1.3051927
1.3138134
1.318273
1.3198448
1.3196757
1.3182099
1.31606
1.313421
1.3105047
1.3073946
1.3041024
1.3008984
1.2977877
1.294736
1.2914347
1.2879485
1.2846799
1.2814897
1.2774677
1.2436665
1.2614819
1.2846356
1.3080762
1.3238275
1.3300907
1.3309338
1.3293404
1.3265012
1.3231392
1.3197715
1.3163308
1.3125485
1.3090597
1.3057346
1.3025252
1.2991662
1.2962451
1.2935996
1.2908861
1.2883448
1.2863258
1.2847185
1.2548741
1.2690687
1.2970866
1.3224777
1.3310132
1.3311956
1.3287096
1.324629
1.3195952
1.3139584
1.3083962
1.3035166
1.2988639
1.2943214
1.2900809
1.2862276
1.2826859
1.2798433
1.2774872
1.2749358
1.2726417
1.271453
1.2727592
1.2804567
1.2998113
1.3207786
1.3281418
1.3275289
1.3219608
1.3128327
1.302678
1.2930103
1.2842897
1.276272
1.2687293
1.2613786
1.25467
1.2491894
1.2445871
1.239951
1.2355785
1.2322211
1.2296387
1.227459
1.226466
1.2285242
1.3073601
1.3254613
1.326619
1.3215148
1.3098622
1.2944937
1.2782476
1.2632842
1.2505807
1.2396572
1.2295378
1.2197746
1.2105593
1.2024563
1.1957424
1.1896546
1.183412
1.1772576
1.1722336
1.1684089
1.1647649
1.1615943
1.1629226
1.3187678
1.3242344
1.3140265
1.293891
1.2717637
1.2508694
1.2317218
1.2153305
1.2021221
1.1910462
1.18058
1.1700304
1.1600619
1.1514789
1.1440868
1.1368912
1.1292254
1.1216126
1.114979
1.1091258
1.1030427
1.0961939
1.0959621
1.3055072
1.3014838
1.276595
1.2471958
1.2224234
1.2019217
1.1842749
1.1693108
1.1569169
1.1462524
1.1361951
1.1260669
1.1162535
1.1072256
1.0989074
1.0907715
1.0822537
1.0735842
1.0651914
1.0568514
1.0488061
1.0403266
1.0378445
1.2758577
1.256356
1.2251604
1.1975464
1.1758145
1.1579528
1.1429339
1.1302622
1.1191851
1.1087465
1.0984407
1.0884623
1.0789841
1.0696571
1.0601705
1.0504807
1.0407548
1.0316321
1.0234193
1.0162611
1.0110693
1.0068503
1.0059756
1.237542
1.2093079
1.1801518
1.1569666
1.1385605
1.1231507
1.1100841
1.0989176
1.0885331
1.0779135
1.0670708
1.056697
1.046921
1.0369094
1.0264741
1.0166332
1.0091739
1.0047421
1.002052
1.0000424
0.99892522
0.99848458
0.99901121
1.2027389
1.1725442
1.1466785
1.1266255
1.1102105
1.096346
1.0845669
1.0738273
1.0632423
1.0523632
1.0411187
1.0299726
1.0194217
1.0105349
1.0042493
1.0001221
0.99834707
0.99813374
0.99835144
0.99818591
0.99750084
0.99752723
0.99811821
1.1757045
1.1455645
1.1217947
1.103606
1.0885527
1.0756718
1.0642207
1.0535308
1.0426196
1.0310106
1.0195122
1.0093235
1.0025606
0.99959221
0.99848454
0.99775484
0.99723083
0.99731135
0.99779817
0.99814902
0.99780701
0.99737115
0.99755046
1.1555768
1.1249245
1.1024026
1.0859032
1.0720727
1.0596626
1.0480273
1.0366189
1.0253693
1.0143364
1.0052065
1.0002045
0.998406
0.99789111
0.9977184
0.99750538
0.99736904
0.99727716
0.99755704
0.99804974
0.99800091
0.99758738
0.99724588
1.1400082
1.1090221
1.0875486
1.0719263
1.058787
1.0468146
1.0353314
1.0238039
1.0126824
1.0042603
1.0000843
0.99866516
0.99813037
0.99768292
0.99729049
0.99731413
0.99767032
0.99784168
0.99766261
0.99757517
0.99759845
0.99774309
0.99764567
1.1275556
1.0963924
1.0760982
1.0614245
1.0487658
1.0367835
1.025317
1.0145979
1.0058484
1.0008788
0.99906731
0.998509
0.99820123
0.99783872
0.99741233
0.99727556
0.99751049
0.99771714
0.99769538
0.99746351
0.99740138
0.9977072
0.99789441
1.1172838
1.0866509
1.0676851
1.0534654
1.0410479
1.0293532
1.0185159
1.0094862
1.0035838
1.0006935
0.99925477
0.99851941
0.99817021
0.99801378
0.99777459
0.99739922
0.99716903
0.99739778
0.99773695
0.99777785
0.99746401
0.99725714
0.99738998
1.1090589
1.0793977
1.061751
1.0479472
1.0358286
1.0247763
1.0151367
1.0078259
1.0034938
1.0014698
1.0002138
0.9994068
0.99868993
0.99790532
0.99768637
0.99760709
0.99753504
0.99745197
0.99729066
0.99735354
0.99748594
0.99744087
0.99739274
1.1025049
1.0744124
1.0578159
1.0444148
1.0328525
1.0228348
1.0148373
1.0091979
1.0055218
1.0031069
1.0015947
1.0007924
1.0001193
0.99902835
0.99839236
0.99772132
0.99754219
0.99751002
0.99729606
0.9972292
0.99736533
0.99750093
0.99741627
1.0973444
1.0705021
1.0549173
1.0425812
1.0322521
1.0234993
1.0169262
1.0125803
1.009179
1.0066092
1.0049579
1.0038937
1.0029845
1.0012487
0.99964176
0.99870216
0.99847022
0.99829694
0.99728493
0.99709076
0.99732003
0.99783137
0.99750109
1.0926096
1.0674409
1.0535724
1.0424831
1.0332313
1.0260776
1.0210595
1.0176588
1.0149674
1.0126866
1.0109486
1.0092864
1.0078134
1.0058137
1.0035819
1.002074
1.0006331
0.99983824
0.99875345
0.99809806
0.99756311
0.99756682
0.99738728
1.0893455
1.0648682
1.0525804
1.0434614
1.0363837
1.0310349
1.0271125
1.0244196
1.0223505
1.0203555
1.0188202
1.0173867
1.0156453
1.013645
1.0112514
1.0089932
1.0067373
1.0045776
1.0023258
1.0006837
0.99944069
0.99865317
0.99793115
1.0859145
1.0640792
1.0539935
1.0466117
1.0408266
1.0369062
1.034599
1.0327795
1.0310472
1.0295416
1.0284921
1.027613
1.0264103
1.0245686
1.0222879
1.0198555
1.0171856
1.0142545
1.0111583
1.0082271
1.0053792
1.0029059
1.0005702
1.0836441
1.0646026
1.056753
1.0513479
1.0468841
1.0437867
1.0425039
1.0422231
1.0415657
1.0404019
1.039711
1.039792
1.0396966
1.0382768
1.0357992
1.033475
1.0316428
1.0292039
1.0254039
1.0213707
1.0177018
1.0141022
1.0100255
1.0824606
1.0664044
1.0608781
1.0571598
1.0539838
1.0517957
1.0511975
1.0520522
1.0531259
1.0532355
1.0527537
1.0530002
1.0539588
1.0541955
1.0527016
1.0504677
1.048747
1.0471689
1.0441961
1.039797
1.0355753
1.0319541
1.0274585
1.0836673
1.0693501
1.0645874
1.0626074
1.0619122
1.0616192
1.0615608
1.0620381
1.0634819
1.0657327
1.0677874
1.0688744
1.0693618
1.0700463
1.0708342
1.0707552
1.0694187
1.0674376
1.0652273
1.0624225
1.0588888
1.0548145
1.0499951
1.082568
1.0730681
1.0698308
1.0688781
1.0693884
1.0704617
1.0714703
1.0725974
1.0746785
1.0779722
1.0816046
1.0843138
1.0859275
1.0874698
1.0896203
1.0913305
1.0912801
1.0898958
1.0887268
1.0879517
1.0857317
1.0813096
1.0761565
1.0791727
1.0766696
1.075871
1.0758295
1.0764224
1.077861
1.0801279
1.08301
1.0861743
1.0896231
1.0935384
1.0978455
1.102015
1.1054809
1.1081467
1.1103161
1.1121088
1.113436
1.114214
1.114324
1.1129737
1.1099868
1.1063255
1.0861626
1.0816044
1.0818227
1.0826372
1.0836423
1.0852698
1.0880332
1.09179
1.0959377
1.1000284
1.1043989
1.1095699
1.1152872
1.1204443
1.1242534
1.1273397
1.1309282
1.1348951
1.1376593
1.1384673
1.1384464
1.1385933
1.1381037
1.0936994
1.0874083
1.0871586
1.0884946
1.0906221
1.0931273
1.095799
1.0990024
1.1031527
1.1082059
1.1136826
1.1191316
1.1245416
1.1301143
1.1358154
1.1413524
1.146396
1.1508065
1.1546031
1.1577627
1.160446
1.1627543
1.1641386
1.0953131
1.0925324
1.0926791
1.0940381
1.0963102
1.0991358
1.1022506
1.1056408
1.1094916
1.1140145