/*--------------------------------*- C++ -*----------------------------------*\
| =========                 |                                                 |
| \\      /  F ield         | OpenFOAM: The Open Source CFD Toolbox           |
|  \\    /   O peration     | Version:  2406                                  |
|   \\  /    A nd           | Website:  www.openfoam.com                      |
|    \\/     M anipulation  |                                                 |
\*---------------------------------------------------------------------------*/
FoamFile
{
    version     2.0;
    format      ascii;
    arch        "LSB;label=32;scalar=64";
    class       volScalarField;
    location    "195";
    object      TMean;
}
// * * * * * * * * * * * * * * * * * * * * * * * * * * * * * * * * * * * * * //

dimensions      [0 0 0 1 0 0 0];

internalField   nonuniform List<scalar> 
20580
(
1.0022273
1.0019415
1.0019215
1.001922
1.0019224
1.0019116
1.0019111
1.00192
1.0019314
1.0019444
1.001958
1.0019716
1.0019817
1.0019965
1.002002
1.0020135
1.0020171
1.0020012
1.0019828
1.0019524
1.0019208
1.0018967
1.0018866
1.0018289
1.00168
1.0015627
1.0015604
1.0015942
1.0014134
1.0010921
0.99984236
1.0021575
1.0019128
1.0019024
1.001905
1.0018993
1.0018965
1.0019032
1.001911
1.0019242
1.0019375
1.0019511
1.0019635
1.0019739
1.0019813
1.0019923
1.0019986
1.0019961
1.0019763
1.0019514
1.0019199
1.0018771
1.0018552
1.0018441
1.0017938
1.0016545
1.0014412
1.0012765
1.0012596
1.0012539
1.001251
1.0004135
1.0021805
1.0018937
1.0018964
1.0019102
1.0019017
1.0018975
1.0019041
1.0019134
1.0019249
1.0019363
1.0019473
1.0019572
1.0019639
1.0019707
1.0019787
1.0019801
1.0019669
1.0019431
1.0019095
1.0018695
1.0018196
1.0017852
1.0017641
1.0017197
1.0016016
1.0013893
1.0011293
1.000947
1.0008564
1.00094
1.0006861
1.0022803
1.001893
1.0018916
1.0019169
1.0019124
1.0019075
1.0019115
1.0019195
1.0019298
1.0019403
1.0019489
1.0019565
1.0019626
1.0019666
1.0019715
1.001969
1.0019537
1.0019263
1.0018873
1.0018443
1.0017928
1.0017379
1.0017075
1.001674
1.0015606
1.0013645
1.0011159
1.0008697
1.0006302
1.0004333
1.0004574
1.0023168
1.0019545
1.0019066
1.0019232
1.0019158
1.0019082
1.0019134
1.0019171
1.0019274
1.0019395
1.00195
1.0019577
1.0019633
1.0019683
1.0019695
1.0019653
1.0019508
1.0019243
1.0018822
1.0018344
1.0017698
1.0017045
1.0016619
1.0016277
1.0015503
1.0013928
1.0011841
1.0009095
1.0005907
1.0001961
0.99993862
1.0022171
1.0019599
1.0019192
1.0019136
1.0019004
1.0018955
1.0019034
1.0019103
1.0019224
1.001936
1.0019472
1.0019558
1.0019624
1.0019663
1.001971
1.0019675
1.0019548
1.0019282
1.0018873
1.0018402
1.0017741
1.0016927
1.0016379
1.0015944
1.0015021
1.0013777
1.0012405
1.0010262
1.0007226
1.0003271
0.99971413
1.0021753
1.0019209
1.0019195
1.0019137
1.001898
1.0018939
1.0019005
1.0019081
1.0019205
1.0019343
1.0019437
1.0019515
1.0019568
1.0019603
1.0019621
1.0019638
1.0019548
1.0019314
1.0018912
1.0018483
1.0017845
1.001697
1.0016213
1.0015407
1.0014188
1.0012732
1.0011281
1.0010002
1.0008272
1.0006411
1.0001003
1.0022103
1.0018871
1.0019002
1.0019242
1.0019116
1.001903
1.0019041
1.0019082
1.0019168
1.00193
1.0019391
1.0019452
1.0019487
1.001951
1.0019516
1.0019485
1.0019327
1.0019039
1.0018653
1.0018238
1.0017731
1.001692
1.0015856
1.001454
1.0013135
1.0011758
1.0010208
1.0008345
1.0006303
1.0004022
1.0002545
1.0022242
1.0018735
1.0018689
1.0019202
1.0019186
1.0019085
1.0019067
1.0019052
1.0019127
1.0019247
1.0019335
1.0019396
1.0019431
1.0019452
1.0019445
1.0019388
1.0019242
1.001894
1.0018517
1.0018086
1.0017549
1.00168
1.0015685
1.0014243
1.0012736
1.0011269
1.0009432
1.0007031
1.0004213
1.0000581
0.99984223
1.0020109
1.0017871
1.0018147
1.00187
1.0018854
1.0018898
1.0018982
1.0019045
1.001913
1.0019251
1.0019334
1.0019376
1.0019403
1.0019412
1.0019388
1.0019326
1.0019196
1.0018916
1.0018513
1.0018017
1.0017501
1.0016813
1.0016059
1.0014899
1.0013488
1.0012095
1.0010229
1.0007634
1.0004291
1.000045
0.99956295
1.0018375
1.0016061
1.0016782
1.0017262
1.0017624
1.0018026
1.0018379
1.0018658
1.0018861
1.0019069
1.001921
1.0019294
1.0019357
1.0019376
1.0019365
1.00193
1.0019216
1.0018964
1.0018597
1.001809
1.0017498
1.0016841
1.0016214
1.0015412
1.0014447
1.0013414
1.0012076
1.0010331
1.0007824
1.000525
0.99998323
1.0018603
1.0015743
1.0015957
1.0016553
1.0016832
1.0017044
1.0017363
1.0017694
1.0017997
1.001835
1.0018612
1.0018797
1.0018925
1.0019014
1.0019075
1.0019101
1.0019092
1.0018927
1.0018612
1.0018039
1.0017329
1.0016645
1.0015702
1.00145
1.0013469
1.0012766
1.0011949
1.0010559
1.00085
1.0005985
1.0003445
1.002037
1.0016464
1.0016051
1.0016455
1.0016526
1.0016556
1.0016673
1.0016865
1.0017124
1.0017464
1.001773
1.0017943
1.0018102
1.0018205
1.0018303
1.0018379
1.0018398
1.0018264
1.0018034
1.0017618
1.0016858
1.001588
1.0014524
1.0012754
1.0011143
1.0010111
1.0009274
1.0007843
1.0005652
1.0002221
1.0000241
1.0021121
1.0017531
1.0017149
1.0017119
1.001695
1.0016834
1.0016825
1.0016876
1.0016954
1.0017161
1.0017322
1.0017464
1.0017599
1.0017717
1.001776
1.0017752
1.0017724
1.001762
1.0017423
1.0017033
1.0016312
1.0015288
1.0013829
1.0012012
1.0010245
1.000865
1.0007111
1.0005289
1.0002892
0.99996845
0.99966784
1.0020033
1.0017234
1.001736
1.0017192
1.0017032
1.0017018
1.001706
1.0017116
1.0017151
1.0017326
1.0017402
1.0017449
1.0017504
1.0017554
1.0017561
1.0017519
1.001749
1.0017326
1.0017088
1.0016854
1.0016134
1.001534
1.0014266
1.0012933
1.0011435
1.0009587
1.0007608
1.0005945
1.0004077
1.0001868
0.99984571
1.0019348
1.0016627
1.0016766
1.0016843
1.0016794
1.0016773
1.001678
1.0016833
1.0016917
1.0017178
1.0017301
1.0017349
1.001741
1.0017454
1.0017465
1.0017442
1.0017416
1.0017261
1.0017015
1.0016667
1.0016263
1.0015773
1.0015126
1.0014276
1.0013236
1.001211
1.001093
1.0009586
1.000777
1.0005862
1.000314
1.0020711
1.0017092
1.0016934
1.0017118
1.0017032
1.0016918
1.0016849
1.0016822
1.001682
1.0017085
1.0017169
1.0017183
1.0017213
1.0017228
1.0017217
1.0017209
1.0017198
1.0017066
1.0016787
1.0016388
1.001596
1.0015421
1.0014756
1.0013766
1.0012628
1.0011634
1.0010819
1.0009631
1.0007908
1.0005425
1.0003665
1.0021357
1.0017563
1.001763
1.0017782
1.0017674
1.0017566
1.001748
1.0017482
1.0017317
1.0017529
1.0017523
1.0017469
1.0017452
1.0017404
1.0017337
1.0017285
1.0017215
1.0017031
1.0016673
1.0016166
1.0015497
1.0014545
1.0013377
1.0011978
1.0010451
1.0008839
1.0007224
1.0005489
1.0003642
1.0001206
0.99998971
1.0019646
1.0016808
1.0017197
1.0017113
1.001707
1.0017149
1.0017251
1.0017285
1.0017276
1.0017674
1.0017662
1.0017607
1.0017588
1.0017558
1.0017509
1.0017463
1.0017329
1.0017143
1.0016741
1.0016167
1.0015422
1.0014349
1.0012927
1.0011312
1.0009566
1.0007676
1.0005548
1.0003195
1.0000845
0.99985593
0.99969893
1.0019137
1.0016182
1.0016403
1.0016306
1.001629
1.0016341
1.0016301
1.0016512
1.0016239
1.0016885
1.0016984
1.0017009
1.0017093
1.0017123
1.0017147
1.001714
1.0017049
1.0016932
1.001664
1.0016192
1.001559
1.0014724
1.0013639
1.0012487
1.0011185
1.0009537
1.0007628
1.0005678
1.0003847
1.0002249
1.0000788
1.0019851
1.0016449
1.0016685
1.0016803
1.0016755
1.0016659
1.0016599
1.0016441
1.0016381
1.0016869
1.0016777
1.0016699
1.0016705
1.0016713
1.0016725
1.0016696
1.0016606
1.0016482
1.0016251
1.0016013
1.0015654
1.0015171
1.0014634
1.0014086
1.0013326
1.0012289
1.0011322
1.0010278
1.0009353
1.0008113
1.0006658
1.0020262
1.0016092
1.001685
1.0016283
1.0016153
1.0015825
1.0015779
1.0015717
1.0014932
1.0015816
1.0015635
1.0015453
1.0015367
1.0015174
1.0015133
1.0015102
1.0014921
1.0014728
1.0014446
1.0014131
1.0013698
1.001316
1.0012563
1.0011801
1.001094
1.0009806
1.0008563
1.0007136
1.0005762
1.0004135
1.0003084
1.0018853
1.0011756
1.0012748
1.0009929
1.0010739
1.0010813
1.0011327
1.0008636
1.0012087
1.0011781
1.0011599
1.0011145
1.0010952
1.001066
1.0011599
1.0011889
1.0010202
1.0010758
1.0010932
1.0010076
1.0009413
1.0008613
1.0007556
1.0006594
1.0005437
1.000403
1.0002048
0.99996112
0.99970703
0.9994673
0.99933477
0.99896036
1.0000097
1.0005034
1.0000005
0.99936441
0.999344
0.9997673
1.0001208
0.99979408
0.99907875
0.99899045
0.99966469
0.99992073
0.99921843
0.99879394
0.99925785
0.99976203
0.99945853
0.99901591
0.99932857
1.0000585
1.0000856
0.99924579
0.99868024
0.99971614
1.0003415
0.99996565
0.99915563
0.99873969
0.99911604
0.99982927
0.99984505
0.99879909
0.99811042
0.99880158
0.99968834
0.99921931
0.99812523
0.99812272
0.99895523
0.99931218
0.99845942
0.99789046
0.99846825
0.99932157
0.99907678
0.99808255
0.99931689
1.0001039
0.99969902
0.99859862
0.99785191
0.9984694
0.99949291
0.99969227
0.9983606
0.99712725
0.99777048
0.99913371
0.99917715
0.99760528
0.99682872
0.99766173
0.99871808
0.99825203
0.99679875
0.9968969
0.9981116
0.99867533
0.99706912
0.99861053
0.99972705
0.99936813
0.99780413
0.99647048
0.99725337
0.9987706
0.99947907
0.99806806
0.99589092
0.99605728
0.99788181
0.99896088
0.99744292
0.99537578
0.99573697
0.99744627
0.99801409
0.9959426
0.99485043
0.99595403
0.9973442
0.99593065
0.99775585
0.99920311
0.99901988
0.99706779
0.99501928
0.99564009
0.99765575
0.99905315
0.99785855
0.99465229
0.99372241
0.99586435
0.99814297
0.99745511
0.99390195
0.9928844
0.9949369
0.9970279
0.99582923
0.99276909
0.99296772
0.99499715
0.99455667
0.99667128
0.99848781
0.99855148
0.99619759
0.99331126
0.99328412
0.9957734
0.99814444
0.99766632
0.99373342
0.99076812
0.99267343
0.9961208
0.99733697
0.99365507
0.98999275
0.99137444
0.99474136
0.9957537
0.99200846
0.98969163
0.99141574
0.99270646
0.99523408
0.99752031
0.99788516
0.99516749
0.99135267
0.9902976
0.99313689
0.99661036
0.99740282
0.99327441
0.98797083
0.98873638
0.99280323
0.996132
0.99408569
0.98778535
0.98682655
0.99048833
0.99404961
0.99256031
0.98699889
0.98668741
0.9902239
0.99330859
0.99618372
0.99697246
0.99396336
0.98906829
0.98655461
0.98954053
0.99412859
0.99651288
0.9929106
0.98555032
0.98357459
0.98777522
0.99338712
0.99421208
0.98743661
0.98200763
0.98455371
0.99002784
0.99233946
0.98707852
0.98217958
0.98695319
0.99070154
0.9943922
0.99562046
0.99227214
0.98595164
0.98156329
0.98450508
0.99022934
0.99465643
0.99239847
0.98379063
0.97773857
0.98116016
0.98835659
0.992711
0.98796134
0.97864141
0.9778209
0.98332511
0.98930107
0.98794453
0.97997995
0.98257538
0.98719036
0.99201699
0.99377718
0.99010333
0.98208937
0.97557771
0.97815976
0.98489716
0.9915878
0.99137866
0.98227985
0.97231734
0.97346435
0.98109473
0.98898115
0.98787054
0.97728976
0.97078064
0.97480199
0.98317589
0.9868822
0.98037707
0.9773633
0.98289009
0.98907066
0.99141404
0.98718884
0.97713723
0.96844399
0.97026755
0.9779558
0.98700874
0.98919025
0.98026602
0.9674107
0.96439006
0.97173063
0.98258688
0.98606348
0.97669129
0.96473617
0.96509414
0.9738721
0.982614
0.98058545
0.97087855
0.97739454
0.98518449
0.98820471
0.98314481
0.97069432
0.95969266
0.96018181
0.96906888
0.98074944
0.98550745
0.97734261
0.96247375
0.9541366
0.96076716
0.97387479
0.98195584
0.97532004
0.9605362
0.95456857
0.96229753
0.97484082
0.97889173
0.9631527
0.97070763
0.98039621
0.98418207
0.97785703
0.96280698
0.94931279
0.94799715
0.95840398
0.97295619
0.98023443
0.9732242
0.95653219
0.94337313
0.94865745
0.96334519
0.9756202
0.97266794
0.95703491
0.94423232
0.94965792
0.96434048
0.9744558
0.95441876
0.96306459
0.97465124
0.97907019
0.9713273
0.95365271
0.9376761
0.93458871
0.94662979
0.96396582
0.97353435
0.96736269
0.94913092
0.9328331
0.93628887
0.9518373
0.96753285
0.96827914
0.95243811
0.93530365
0.93710507
0.95244982
0.96757086
0.94507147
0.95473613
0.9680327
0.97297468
0.96357352
0.94340725
0.92529051
0.92079763
0.93430474
0.9539806
0.96537446
0.95976045
0.94055391
0.92279128
0.92436822
0.94023159
0.95841388
0.96207392
0.94658676
0.92737266
0.92496253
0.94033113
0.95899065
0.93492506
0.94571526
0.96045692
0.96570074
0.95485806
0.93250247
0.91259823
0.90710074
0.92184812
0.9432887
0.95589365
0.95048542
0.9307502
0.91264729
0.91286992
0.9289684
0.94877616
0.95430874
0.93932872
0.91924405
0.91304957
0.9287106
0.94975526
0.92447923
0.93629166
0.95222477
0.95748637
0.94508859
0.920751
0.89940554
0.89334507
0.90922853
0.93203512
0.94539903
0.93990213
0.91993301
0.90205162
0.90153704
0.91812267
0.93892872
0.94544547
0.93076951
0.91017451
0.90166676
0.91810831
0.94067678
0.91338533
0.92611335
0.9430776
0.94847079
0.93493806
0.90878035
0.88590773
0.87929625
0.89609431
0.9200791
0.93401313
0.92851273
0.9084775
0.89090515
0.89028069
0.90768822
0.9291064
0.93569525
0.92090693
0.90007381
0.89100587
0.90888061
0.93225037
0.90147323
0.9151255
0.93303318
0.93883887
0.92458924
0.89676883
0.87224959
0.86512539
0.88267983
0.90762412
0.92193639
0.91630457
0.89626971
0.87916719
0.8793585
0.89794488
0.91942566
0.92499934
0.90953664
0.88901742
0.88130102
0.90129885
0.92461887
0.88827227
0.90321476
0.92229973
0.92878686
0.91406295
0.88461607
0.85843248
0.85100099
0.86914367
0.89479427
0.90924834
0.90321705
0.88309743
0.866768
0.86899305
0.88887709
0.90982477
0.91334777
0.89677863
0.87739191
0.87294137
0.89535074
0.91739734
0.87327882
0.88971279
0.91055577
0.91832291
0.90356003
0.87261376
0.84493134
0.83757223
0.85605933
0.88186915
0.89593354
0.88905706
0.86900066
0.8542002
0.85979221
0.88088814
0.90021797
0.90035785
0.88241461
0.86528587
0.86677063
0.89109635
0.9096963
0.85653498
0.87418955
0.89717363
0.90705216
0.89325649
0.8613826
0.83221391
0.82507221
0.84356757
0.86896254
0.88203184
0.87402855
0.85446724
0.84212051
0.85206866
0.87380561
0.89001473
0.88566173
0.86697452
0.85392927
0.86359282
0.88778419
0.90012388
0.83463216
0.85398773
0.88032914
0.8940222
0.88336289
0.85234678
0.82176895
0.81403261
0.83176575
0.85590967
0.86756528
0.85864717
0.84048252
0.83170742
0.84570544
0.86705751
0.87869185
0.86989155
0.85199806
0.84492843
0.86266979
0.88403675
0.88756015
0.80569854
0.82614614
0.85591758
0.87460561
0.86973702
0.84309044
0.81369183
0.80619013
0.82218172
0.84361073
0.85300052
0.84341296
0.8275887
0.82368434
0.8405034
0.86001642
0.86598306
0.85364697
0.83885225
0.84070393
0.86280805
0.87781208
0.8719688
0.77243305
0.79460387
0.8284915
0.85181772
0.8518612
0.83055279
0.8051416
0.79998616
0.81449654
0.83238022
0.83860548
0.8288541
0.81649149
0.81855922
0.83632178
0.85209726
0.85189172
0.83843669
0.82971848
0.84135696
0.86182973
0.86745488
0.85544385
0.74144778
0.76317392
0.79789269
0.82531903
0.83189544
0.81790252
0.7980354
0.79644353
0.80891634
0.82215736
0.82463815
0.81579833
0.80837588
0.81617414
0.8326591
0.84279339
0.83757619
0.82605105
0.82623989
0.84431421
0.85777674
0.85360015
0.8413217
0.73282989
0.75068825
0.77789667
0.7997512
0.80689136
0.80060015
0.79218319
0.7958167
0.80583961
0.81344572
0.81276511
0.8060552
0.80444427
0.81568645
0.82869872
0.83262372
0.82530281
0.81918364
0.82855101
0.8454884
0.84938159
0.83984257
0.83355924
0.73692659
0.75077655
0.76936117
0.78331386
0.78787753
0.78477979
0.78343484
0.79288242
0.80206608
0.80610668
0.80410809
0.80047277
0.80412709
0.81544736
0.82389745
0.82333016
0.8170126
0.81849761
0.83280731
0.84266595
0.83820016
0.829852
0.83251069
0.74598607
0.75658232
0.76717367
0.77276999
0.77371344
0.77507313
0.77870709
0.7890728
0.79778121
0.80026759
0.79867252
0.7985182
0.80529977
0.81465159
0.81883035
0.81643886
0.81399155
0.82203957
0.83435673
0.83566875
0.82825615
0.82569322
0.83636006
0.7538149
0.76080212
0.76607207
0.76611665
0.76495656
0.76860952
0.77701326
0.78713104
0.79439158
0.79626434
0.79609322
0.79903376
0.80657029
0.81305879
0.81430134
0.81253992
0.81511924
0.82545708
0.83142316
0.82718992
0.82241473
0.82721468
0.83700565
0.76073041
0.76527372
0.76653219
0.76385932
0.7621015
0.76665016
0.77672742
0.78674714
0.79265674
0.79433515
0.79572639
0.80057496
0.80733722
0.81127687
0.81146913
0.81196011
0.81815762
0.82605693
0.82602374
0.82155717
0.82183201
0.82941033
0.83121862
0.76485448
0.76776254
0.76716961
0.76389636
0.76296061
0.76812646
0.77804519
0.78711161
0.79184661
0.79377446
0.79660956
0.80198012
0.80726665
0.8094263
0.81002711
0.8131476
0.82003109
0.82353602
0.82086709
0.81901595
0.82308963
0.82740546
0.82281252
0.76858411
0.77029345
0.76882928
0.76580477
0.76578281
0.77099569
0.78013012
0.78808221
0.79203274
0.79441287
0.79808532
0.80307679
0.80703349
0.80867925
0.81047681
0.81500041
0.82007585
0.82024377
0.81799266
0.81897804
0.8231172
0.82273812
0.81719114
0.77062091
0.77188508
0.77027943
0.76798539
0.76910566
0.77439189
0.78236599
0.78890206
0.79229993
0.79510605
0.79912147
0.80352802
0.80642462
0.8082526
0.81133073
0.81602471
0.81865772
0.81743901
0.81682225
0.81966488
0.82168182
0.81887806
0.81627651
0.77261216
0.77375719
0.77241057
0.77080596
0.7727384
0.77805167
0.78492376
0.79022245
0.79347398
0.79668782
0.80068614
0.80433639
0.80686965
0.80948345
0.81303358
0.81607201
0.81659747
0.81592858
0.8171816
0.81933814
0.81933949
0.81827252
0.82092858
0.77315574
0.77438272
0.77371216
0.77275079
0.7745435
0.77911677
0.78497988
0.78987098
0.79304886
0.79608077
0.79975794
0.80333897
0.80592618
0.8084089
0.81168873
0.81468874
0.81569331
0.8154535
0.81681696
0.81938313
0.82086197
0.82134075
0.82421663
0.77338329
0.77459666
0.77440363
0.77392458
0.77548835
0.77934593
0.78443762
0.78900687
0.79218519
0.79503568
0.79840524
0.80186592
0.8045801
0.80702592
0.81004103
0.81311984
0.81483383
0.81516975
0.81643475
0.8190554
0.82152672
0.82305536
0.82591465
0.77342776
0.77440946
0.7745485
0.77453542
0.77604715
0.77941376
0.78390529
0.78816048
0.79131284
0.79401246
0.79712538
0.80045872
0.80323741
0.80569659
0.80853396
0.81160936
0.81383506
0.8147883
0.816121
0.81860612
0.82151245
0.82382063
0.82694464
0.77326293
0.77400228
0.77430661
0.77464039
0.7761679
0.77922298
0.78327736
0.78725792
0.79038402
0.79298218
0.79586966
0.79903961
0.80186811
0.80435061
0.80707947
0.81014025
0.8127388
0.81426054
0.81577935
0.81812336
0.82117097
0.82401982
0.82748872
0.77294353
0.77335802
0.77365296
0.77423537
0.77584892
0.77875079
0.78252233
0.78627803
0.7893737
0.7919327
0.79463018
0.79761836
0.80046175
0.80299847
0.80565376
0.80866543
0.81156294
0.81361469
0.81543056
0.81771499
0.82070376
0.8238399
0.82762474
0.77245239
0.77260714
0.77282363
0.77350113
0.77515749
0.7779695
0.78156261
0.78518044
0.78826823
0.79083214
0.79337527
0.79617386
0.7989963
0.80162443
0.80427859
0.80721361
0.81025696
0.81281516
0.8150114
0.81738835
0.82026136
0.82339344
0.8273436
0.77208261
0.77179946
0.7718506
0.77250685
0.77414899
0.77688394
0.78036125
0.78392232
0.787044
0.78965032
0.79209462
0.79471615
0.79748046
0.80019427
0.80292828
0.80583151
0.80891474
0.81181397
0.81443888
0.81703602
0.81988714
0.82289905
0.82677808
0.77212208
0.77121178
0.77095927
0.77144441
0.77294556
0.77553526
0.77888613
0.78243138
0.78564673
0.78835082
0.79076736
0.79325776
0.79594636
0.7987291
0.80156143
0.80451136
0.80761955
0.81070636
0.81367332
0.81655745
0.81949116
0.82241712
0.82613069
0.77286564
0.77117896
0.77036483
0.77048944
0.77170025
0.77403606
0.77719683
0.78070216
0.78402603
0.78688973
0.78936995
0.79180454
0.79442759
0.79723711
0.80016846
0.80320979
0.80638292
0.80960373
0.81280367
0.81591967
0.81897437
0.82191032
0.82552211
0.77377724
0.77163651
0.77030851
0.76990733
0.77064961
0.77256503
0.77541544
0.77878674
0.78217267
0.78521794
0.78786095
0.79034152
0.79294554
0.79576145
0.79875844
0.80191192
0.80519874
0.80856655
0.81191188
0.81516783
0.81833235
0.82135886
0.82499109
0.77479605
0.77268873
0.77092944
0.76990301
0.77000729
0.77134213
0.77372802
0.77681706
0.78015651
0.78334455
0.78620699
0.78884392
0.79150457
0.79434257
0.79738394
0.80063494
0.80406205
0.80757416
0.81103568
0.81438558
0.8176609
0.82082909
0.82455362
0.77567055
0.77388401
0.77200002
0.77051243
0.76994059
0.77057437
0.77235043
0.77498209
0.778115
0.78134107
0.78440628
0.78727849
0.79009501
0.79300925
0.79610665
0.7994378
0.80297919
0.8066192
0.81020671
0.81367207
0.81707577
0.82041166
0.82427133
0.77643025
0.77489224
0.77301745
0.77137916
0.77035376
0.77033772
0.77144279
0.77349728
0.77625036
0.77936303
0.78254278
0.78565044
0.78869539
0.79176652
0.79497051
0.79838507
0.80200942
0.80574866
0.80947938
0.8131084
0.81667289
0.82019243
0.82421281
0.77676793
0.77522681
0.77349625
0.77198308
0.7708662
0.77046051
0.7709991
0.77248716
0.77475978
0.77760495
0.78076692
0.78404064
0.7873288
0.79062628
0.79399939
0.79752577
0.80123402
0.80506995
0.8089432
0.81276769
0.81653438
0.82025468
0.82445288
0.77702989
0.77529017
0.77358533
0.77222474
0.77119995
0.77066926
0.7708719
0.77191824
0.77375761
0.77626496
0.77927983
0.7826098
0.7860951
0.78964195
0.79323478
0.7969179
0.80073517
0.80468329
0.80869996
0.81273144
0.81673224
0.82067886
0.82507244
0.77691846
0.77498893
0.77340676
0.7722416
0.77138073
0.77087661
0.7709356
0.77170851
0.77324383
0.77547714
0.7783008
0.78159043
0.78519008
0.78895081
0.79277826
0.79665743
0.80062191
0.80469846
0.80886796
0.8131005
0.81734918
0.82154281
0.82615263
0.77663328
0.77471907
0.77321369
0.77222294
0.77154591
0.7711551
0.77120895
0.7718727
0.7732407
0.77531075
0.77801084
0.7812388
0.7848862
0.78879726
0.79283365
0.79692459
0.80106953
0.8053045
0.80964497
0.81407345
0.81855602
0.82299446
0.82780061
0.77628799
0.7742876
0.77301135
0.77227153
0.77184848
0.77167129
0.77185802
0.77256989
0.77391922
0.77594925
0.77861642
0.78184902
0.78553525
0.78954604
0.79374861
0.7980434
0.80239517
0.8068194
0.81134731
0.81597383
0.82065904
0.82531502
0.83026142
0.7758431
0.77403869
0.77297212
0.77251808
0.77242717
0.7725932
0.77308005
0.77402318
0.77554031
0.77768537
0.78045396
0.78378004
0.78756181
0.79167773
0.79602279
0.80050782
0.80507656
0.80971674
0.81444369
0.81925917
0.82411701
0.82895009
0.83396179
0.7752973
0.77365978
0.77300073
0.77297779
0.77334699
0.77401165
0.77498399
0.77637437
0.77827501
0.78074069
0.7837777
0.78732397
0.7912915
0.79558158
0.80010141
0.80478191
0.80957135
0.8144398
0.81937976
0.82437667
0.82939449
0.83435617
0.83934013
0.77469001
0.77350491
0.77326627
0.77372098
0.77465076
0.77593544
0.77756277
0.77958075
0.78206798
0.78505599
0.78853404
0.79244988
0.79672321
0.80127784
0.80604433
0.81096549
0.81600021
0.82111431
0.82627607
0.83146624
0.83664769
0.84171753
0.84658834
0.7740075
0.77327043
0.77366431
0.77474185
0.77633769
0.77834861
0.78073553
0.78350783
0.78670635
0.79035048
0.79440783
0.79882117
0.80351972
0.80843772
0.81353411
0.81876884
0.82409565
0.8294785
0.8348798
0.84027209
0.84560746
0.85074632
0.85544919
0.7736104
0.77339915
0.77443306
0.77615709
0.77846043
0.78123994
0.78442874
0.78801186
0.79198559
0.79634132
0.80104499
0.80602888
0.8112324
0.81660223
0.82210515
0.82771026
0.83337375
0.83903693
0.84465474
0.8501977
0.85558504
0.86065266
0.86508015
0.77335516
0.77370705
0.77554246
0.77801452
0.78106923
0.78463686
0.78863651
0.79302998
0.79778405
0.8028561
0.80820857
0.81378543
0.81952372
0.82538117
0.83132321
0.83730872
0.84326982
0.84914371
0.85489898
0.86051578
0.86588622
0.87076439
0.87471949
0.7734414
0.77460488
0.7772241
0.78040887
0.78419681
0.78854438
0.79335157
0.79853367
0.80403
0.80979015
0.81576243
0.82190582
0.82816399
0.83449191
0.84083864
0.84711915
0.85328123
0.85931464
0.86519312
0.87084276
0.87608216
0.88049424
0.88370554
0.77378561
0.77588877
0.77937349
0.78331009
0.78782703
0.79293379
0.79852039
0.80446037
0.81065798
0.81705552
0.82360998
0.83026363
0.83698134
0.84369574
0.85031523
0.85679981
0.86314257
0.86932323
0.87527757
0.88085497
0.88562558
0.88919217
0.89166264
0.7746655
0.7779017
0.78219507
0.78680455
0.79196691
0.79774986
0.80404788
0.81069671
0.81755989
0.82455692
0.83163573
0.83874658
0.84581762
0.85276769
0.85956733
0.86623104
0.87273002
0.87899531
0.88487282
0.88995426
0.89376047
0.89652617
0.89851823
0.77594427
0.78040591
0.78553484
0.79081871
0.79657634
0.80294301
0.80984802
0.8171299
0.82461436
0.83217276
0.83973126
0.84722233
0.85453168
0.86163332
0.86859361
0.87539643
0.88196403
0.88814162
0.89350705
0.89753385
0.9004571
0.90276761
0.90447548
0.7777801
0.78361064
0.78953506
0.79542837
0.80169088
0.80852138
0.8159009
0.82369475
0.83171495
0.83978607
0.84777265
0.85554547
0.86304036
0.87032383
0.87742091
0.88428272
0.8907568
0.89645011
0.90075835
0.90386198
0.90630245
0.90832674
0.90980636
0.7800494
0.78725342
0.79401215
0.80053937
0.80729009
0.81451096
0.82224473
0.83040862
0.83883463
0.8473181
0.85564101
0.86363043
0.87133412
0.87881633
0.88602628
0.89283655
0.89890938
0.90360797
0.90695465
0.90955965
0.91170191
0.91350807
0.91477275
0.78289761
0.79149961
0.79905331
0.80616566
0.8133634
0.82092571
0.8289294
0.83733878
0.84602297
0.85476963
0.86329908
0.87149501
0.87942121
0.88707294
0.89433686
0.90089638
0.90611045
0.90981913
0.91263769
0.91494498
0.91686722
0.91849857
0.91957559
0.78622144
0.79614329
0.80449609
0.81221017
0.81987169
0.82777438
0.83601428
0.84459114
0.85340661
0.86223839
0.87084852
0.87922675
0.88735929
0.89512759
0.90226062
0.90816931
0.9124196
0.91554936
0.91806412
0.92015857
0.92190681
0.923393
0.92431519
0.7900701
0.80132252
0.81042412
0.81870773
0.82681527
0.83505072
0.84351332
0.85221434
0.86106187
0.86983537
0.87844537
0.88693619
0.89518987
0.90292406
0.90959576
0.91459694
0.91819851
0.92101588
0.92332209
0.92525194
0.92686314
0.92823097
0.92903205
0.79432363
0.80678983
0.81665451
0.82553989
0.83411462
0.84267946
0.85134997
0.86014363
0.86894261
0.87758086
0.88613638
0.89463089
0.90283405
0.9102456
0.91612179
0.92033763
0.92355298
0.92617406
0.92834188
0.93014621
0.93165333
0.93293226
0.93364151
0.79907054
0.81265719
0.8232309
0.83267555
0.84165269
0.85049035
0.85933359
0.86818775
0.87689909
0.88541406
0.89389137
0.90227508
0.91016554
0.91685631
0.92182193
0.92551514
0.92847548
0.93093457
0.93298902
0.93471074
0.93613571
0.93734511
0.93799525
0.80426499
0.81885409
0.83010315
0.84002468
0.84931439
0.85836958
0.86733962
0.87620381
0.88480658
0.89322995
0.90160312
0.90971073
0.91696453
0.92266137
0.92683449
0.9301332
0.93287671
0.93518663
0.93712951
0.93876941
0.94013783
0.94128993
0.94191273
0.80988866
0.82539346
0.83716827
0.84743357
0.85696397
0.86617059
0.87520092
0.8840063
0.89249895
0.90084285
0.909045
0.91667629
0.92300574
0.92766481
0.93120851
0.93414757
0.93665732
0.93880171
0.94062401
0.94216927
0.94346715
0.94457331
0.94518509
0.81591533
0.83218619
0.84432123
0.85481831
0.86448212
0.87374835
0.88276444
0.89146657
0.8998572
0.90810399
0.91600288
0.92292154
0.9281908
0.93198316
0.93500309
0.93758236
0.93982118
0.94176489
0.94343536
0.94486503
0.9460651
0.94709674
0.94769761
0.82207039
0.83892775
0.85132206
0.86193249
0.87164856
0.88092005
0.88988287
0.89847326
0.9067784
0.91486553
0.92229225
0.92830891
0.93258095
0.93572507
0.93829783
0.94051505
0.9424501
0.94414797
0.9456218
0.94689172
0.94796043
0.94887532
0.94944346
0.82824348
0.84555056
0.85804208
0.86868201
0.87839993
0.88764145
0.89652057
0.90500569
0.91321918
0.92102314
0.92779216
0.93283442
0.93631001
0.93895852
0.94114888
0.94301524
0.94462941
0.94603832
0.94726679
0.94833645
0.94925281
0.9500437
0.9505657
0.83420045
0.85179333
0.86434652
0.87499377
0.88469355
0.89388467
0.90266413
0.9110474
0.91912366
0.9265055
0.93245177
0.93658698
0.93947459
0.9417152
0.94355576
0.9450965
0.94640989
0.94754855
0.94854796
0.94943554
0.95021767
0.95091185
0.95138227
0.83990724
0.85765401
0.87022566
0.8808691
0.89053288
0.89964963
0.9083156
0.91658118
0.92440769
0.93121951
0.93629038
0.93967703
0.94210695
0.94400492
0.9455491
0.94683521
0.94793092
0.94888355
0.94972031
0.95046278
0.95111618
0.95170255
0.95208871
0.84540737
0.86321935
0.87578526
0.88639668
0.89599258
0.90500475
0.91353332
0.92163137
0.92907635
0.93516008
0.93937537
0.94219148
0.944276
0.94593304
0.94729395
0.94842631
0.94937741
0.95018776
0.95088128
0.95148423
0.95200807
0.95246946
0.95274716
0.85062183
0.86843689
0.88097035
0.89153232
0.90104379
0.90992962
0.91828986
0.92614533
0.93309612
0.93836292
0.94183896
0.94426191
0.94613497
0.94765447
0.94890387
0.94993537
0.95078398
0.95148423
0.95205889
0.9525334
0.95292149
0.95324187
0.95338204
0.85562973
0.87344531
0.88592566
0.89640563
0.90580095
0.91451986
0.92266055
0.9301684
0.93648404
0.94093727
0.94388279
0.9460613
0.94780335
0.94922708
0.95039782
0.95136097
0.95213932
0.95276608
0.9532557
0.95363382
0.95390828
0.9540996
0.95410022
0.86044572
0.87818602
0.89059468
0.90097894
0.91024134
0.91876639
0.92664555
0.93372389
0.93930609
0.94305157
0.94564954
0.94766161
0.9492999
0.95064641
0.95175921
0.95267346
0.95341047
0.95399512
0.954438
0.95475834
0.95496002
0.95505862
0.95494764
0.86514684
0.88277339
0.89509189
0.90535294
0.91445165
0.92274747
0.93031645
0.93687625
0.9416967
0.9448958
0.94724215
0.94911234
0.95064658
0.95191492
0.95296843
0.95383949
0.95454363
0.95510187
0.95552382
0.95582395
0.95599922
0.95605921
0.95589276
0.86970144
0.88715152
0.89936698
0.90949354
0.91840775
0.92645834
0.93368718
0.93962134
0.94371881
0.94652551
0.94867344
0.9504083
0.95183518
0.95301906
0.95400451
0.95482327
0.95549174
0.95602894
0.95643815
0.95674107
0.95692636
0.95700086
0.95683688
0.87413986
0.89145051
0.9035373
0.91350752
0.92221687
0.93000912
0.93683925
0.94205083
0.94553278
0.9480347
0.94999697
0.95158494
0.9528911
0.95397292
0.95487303
0.95562208
0.95623762
0.95673969
0.95713307
0.95743536
0.95764136
0.95775463
0.95763589
0.87843933
0.89555984
0.90751027
0.91732334
0.92583384
0.93336985
0.93967545
0.94414463
0.94717631
0.94942921
0.95120961
0.95263967
0.95380849
0.95476935
0.95556469
0.95622493
0.95677005
0.95722014
0.95758375
0.95787693
0.95809196
0.95823678
0.95816359
0.8827077
0.89959166
0.91135702
0.92098712
0.92929348
0.93653725
0.94220135
0.9460289
0.94872133
0.95075373
0.95234484
0.9536006
0.95461019
0.95542651
0.95609192
0.9566384
0.9570881
0.95746173
0.95777246
0.95803048
0.95823193
0.95838437
0.95833037
0.88686354
0.90348436
0.91504065
0.92448653
0.93259902
0.93942072
0.94437296
0.94773193
0.95016293
0.95199925
0.95340606
0.95448428
0.95531867
0.95596555
0.95647011
0.95686832
0.95718811
0.95745238
0.95767725
0.95787074
0.95803276
0.95816891
0.95810632
0.89084162
0.90719031
0.91854035
0.92781554
0.93569382
0.94193297
0.94625996
0.94928015
0.95149928
0.95315568
0.95438826
0.95529065
0.95594695
0.95641435
0.95674245
0.95697093
0.95713315
0.95725569
0.95735535
0.95744467
0.95753023