/*--------------------------------*- C++ -*----------------------------------*\
| =========                 |                                                 |
| \\      /  F ield         | OpenFOAM: The Open Source CFD Toolbox           |
|  \\    /   O peration     | Version:  2406                                  |
|   \\  /    A nd           | Website:  www.openfoam.com                      |
|    \\/     M anipulation  |                                                 |
\*---------------------------------------------------------------------------*/
FoamFile
{
    version     2.0;
    format      ascii;
    arch        "LSB;label=32;scalar=64";
    class       volScalarField;
    location    "9";
    object      k;
}
// * * * * * * * * * * * * * * * * * * * * * * * * * * * * * * * * * * * * * //

dimensions      [0 2 -2 0 0 0 0];

internalField   nonuniform List<scalar> 
62344
(
4.3483901e-06
3.591083e-06
2.9171767e-06
2.4100849e-06
2.0718854e-06
1.8456522e-06
1.6909658e-06
1.5918197e-06
1.5321908e-06
1.4751535e-06
1.4152025e-06
1.3417212e-06
1.2669092e-06
1.19105e-06
1.1290796e-06
1.0794845e-06
1.045721e-06
1.0197716e-06
1.0044266e-06
9.9720102e-07
9.9302003e-07
9.9147359e-07
9.9112215e-07
9.8945441e-07
9.9063204e-07
9.8861908e-07
9.943541e-07
1.000138e-06
1.0048444e-06
1.0138798e-06
1.0335527e-06
1.0798393e-06
1.115838e-06
1.1572824e-06
1.2151071e-06
1.3677355e-06
1.5334169e-06
1.8075034e-06
2.0009007e-06
2.3745749e-06
2.6766457e-06
3.1866733e-06
3.5918622e-06
3.9718735e-06
4.3797628e-06
4.713072e-06
5.3840669e-06
5.9497608e-06
6.6092999e-06
7.1734315e-06
7.9971113e-06
8.7065625e-06
1.0114593e-05
1.1261562e-05
1.3329896e-05
4.3505101e-06
3.6004454e-06
2.93001e-06
2.4196423e-06
2.0822948e-06
1.8536182e-06
1.6988263e-06
1.5980723e-06
1.5332522e-06
1.4800933e-06
1.4200708e-06
1.3470957e-06
1.2696407e-06
1.1976356e-06
1.1342815e-06
1.0830827e-06
1.046075e-06
1.019709e-06
9.9934951e-07
9.9183473e-07
9.8755494e-07
9.8370439e-07
9.8173336e-07
9.8119279e-07
9.842996e-07
9.8089777e-07
9.8510171e-07
9.8865354e-07
9.9171233e-07
9.9269454e-07
1.0044264e-06
1.0366597e-06
1.0634273e-06
1.089611e-06
1.1225984e-06
1.2113828e-06
1.3132025e-06
1.4801022e-06
1.6239592e-06
1.9679805e-06
2.2558144e-06
2.7420849e-06
3.2243341e-06
3.6050154e-06
4.1119009e-06
4.4301385e-06
5.1352049e-06
5.7758047e-06
6.7258809e-06
7.4839267e-06
8.4024592e-06
9.1861153e-06
1.0050407e-05
1.1314338e-05
1.322964e-05
4.3508044e-06
3.6098671e-06
2.9444288e-06
2.4296135e-06
2.0889572e-06
1.8587107e-06
1.7023542e-06
1.6013246e-06
1.5357966e-06
1.4837731e-06
1.4222881e-06
1.3535298e-06
1.2770158e-06
1.2052279e-06
1.1429721e-06
1.0898947e-06
1.0504465e-06
1.0255194e-06
1.005357e-06
9.9680945e-07
9.9050084e-07
9.8602922e-07
9.8368122e-07
9.8041752e-07
9.8365406e-07
9.8134322e-07
9.8583766e-07
9.8919398e-07
9.9168158e-07
9.9438512e-07
1.0080114e-06
1.0419465e-06
1.0691483e-06
1.099653e-06
1.1314671e-06
1.2085855e-06
1.2820696e-06
1.3915711e-06
1.4911617e-06
1.704361e-06
1.9759368e-06
2.2179651e-06
2.6987532e-06
2.9941108e-06
3.4972428e-06
3.8296959e-06
4.6325603e-06
5.2628362e-06
6.3219286e-06
6.9676807e-06
7.8108527e-06
8.6709469e-06
9.2727096e-06
1.0247098e-05
1.2255081e-05
4.3527287e-06
3.6173399e-06
2.956264e-06
2.4406059e-06
2.0984082e-06
1.8652892e-06
1.7045923e-06
1.6032402e-06
1.5404327e-06
1.4882306e-06
1.4289824e-06
1.359292e-06
1.2874764e-06
1.2136981e-06
1.1465434e-06
1.0956396e-06
1.0558233e-06
1.0292925e-06
1.0079905e-06
9.9808134e-07
9.9197542e-07
9.8687426e-07
9.8596342e-07
9.8247039e-07
9.824943e-07
9.8073318e-07
9.8628164e-07
9.8960871e-07
9.9249049e-07
9.94129e-07
1.0112192e-06
1.0453975e-06
1.0681711e-06
1.0989473e-06
1.1334283e-06
1.2047125e-06
1.2655624e-06
1.3585799e-06
1.4630907e-06
1.5934333e-06
1.8825011e-06
2.04974e-06
2.378819e-06
2.5957491e-06
3.0360015e-06
3.3495776e-06
3.9984119e-06
4.4744922e-06
5.3268674e-06
6.0394509e-06
7.2365826e-06
7.8965523e-06
8.9652771e-06
9.7265375e-06
1.151555e-05
4.3541718e-06
3.6279481e-06
2.9675337e-06
2.4511253e-06
2.1050047e-06
1.8695488e-06
1.7086168e-06
1.6061197e-06
1.5420489e-06
1.4899486e-06
1.4339982e-06
1.3656911e-06
1.2955242e-06
1.2205584e-06
1.1533077e-06
1.1021658e-06
1.0596069e-06
1.0308731e-06
1.0109956e-06
1.0000824e-06
9.9283418e-07
9.886395e-07
9.8693658e-07
9.8489868e-07
9.8260874e-07
9.8041349e-07
9.8706712e-07
9.9094305e-07
9.9392785e-07
9.9660341e-07
1.0170685e-06
1.0458321e-06
1.0649483e-06
1.0930076e-06
1.1299189e-06
1.1972241e-06
1.2490639e-06
1.3277101e-06
1.4128629e-06
1.5228934e-06
1.7538926e-06
1.8994094e-06
2.1889344e-06
2.3872096e-06
2.813039e-06
3.1412995e-06
3.6986136e-06
4.0483072e-06
4.6571227e-06
5.112732e-06
6.0327049e-06
6.5899196e-06
7.6578904e-06
8.3992961e-06
9.896072e-06
4.3552595e-06
3.6363605e-06
2.9779402e-06
2.4607264e-06
2.1115857e-06
1.874594e-06
1.7143606e-06
1.6093762e-06
1.5421724e-06
1.4936184e-06
1.4386636e-06
1.3748491e-06
1.3016601e-06
1.2272505e-06
1.1608715e-06
1.1080557e-06
1.0655856e-06
1.0353561e-06
1.0160298e-06
1.0039506e-06
9.9600097e-07
9.9265153e-07
9.8932523e-07
9.8899735e-07
9.8601749e-07
9.8272184e-07
9.8822221e-07
9.9254553e-07
9.964663e-07
1.0011266e-06
1.0231637e-06
1.0488334e-06
1.0656837e-06
1.0888356e-06
1.1285725e-06
1.1851349e-06
1.2393663e-06
1.2966897e-06
1.3711219e-06
1.4690003e-06
1.6503083e-06
1.7762871e-06
2.0220084e-06
2.1972363e-06
2.6106539e-06
2.9676623e-06
3.5362137e-06
3.8519745e-06
4.3914473e-06
4.7261811e-06
5.5238089e-06
6.1018242e-06
7.1028335e-06
7.8166643e-06
9.0638135e-06
4.3563452e-06
3.6435633e-06
2.9877366e-06
2.4674068e-06
2.1171541e-06
1.8798188e-06
1.7191748e-06
1.6129107e-06
1.5440736e-06
1.4966248e-06
1.4415624e-06
1.3795461e-06
1.3061288e-06
1.23137e-06
1.1635642e-06
1.1103729e-06
1.0682127e-06
1.0379995e-06
1.0175876e-06
1.0054786e-06
9.9767491e-07
9.9493463e-07
9.9085872e-07
9.9022349e-07
9.8705685e-07
9.83454e-07
9.8731299e-07
9.9051517e-07
9.9435179e-07
1.0007186e-06
1.0248381e-06
1.0486372e-06
1.0654433e-06
1.0820988e-06
1.1246631e-06
1.1764723e-06
1.2298142e-06
1.2794088e-06
1.3599757e-06
1.4537391e-06
1.6001517e-06
1.7081239e-06
1.9300139e-06
2.0829416e-06
2.4517607e-06
2.7746487e-06
3.3162939e-06
3.5992369e-06
4.0588304e-06
4.3714538e-06
4.9321826e-06
5.5684997e-06
6.3749731e-06
7.3503631e-06
8.4400447e-06
4.3574243e-06
3.650465e-06
2.9981682e-06
2.4748845e-06
2.1244249e-06
1.8858668e-06
1.7228705e-06
1.6157701e-06
1.5478988e-06
1.4997883e-06
1.4447069e-06
1.3818499e-06
1.3133759e-06
1.2385866e-06
1.1711916e-06
1.1181546e-06
1.0747391e-06
1.0437818e-06
1.0220894e-06
1.0109211e-06
1.0017229e-06
9.9782733e-07
9.9442499e-07
9.9328895e-07
9.8946421e-07
9.865732e-07
9.9003789e-07
9.9203025e-07
9.9407756e-07
1.0021493e-06
1.0268172e-06
1.0485993e-06
1.0670029e-06
1.0816702e-06
1.1209017e-06
1.1713712e-06
1.227755e-06
1.275186e-06
1.3617186e-06
1.4571143e-06
1.5906769e-06
1.6829587e-06
1.8770605e-06
2.0143514e-06
2.3446539e-06
2.616643e-06
3.0899841e-06
3.3968228e-06
3.8753383e-06
4.1958655e-06
4.6287152e-06
5.1030453e-06
5.8687387e-06
6.4837023e-06
7.3775419e-06
4.3590591e-06
3.6578296e-06
3.007981e-06
2.4833071e-06
2.1314515e-06
1.8911799e-06
1.7258775e-06
1.6170813e-06
1.5511093e-06
1.5015974e-06
1.450459e-06
1.3872103e-06
1.3192692e-06
1.2453411e-06
1.1762916e-06
1.1216365e-06
1.0793876e-06
1.0481756e-06
1.0235847e-06
1.0127281e-06
1.0043754e-06
1.0008136e-06
9.9674051e-07
9.9417008e-07
9.8908017e-07
9.866748e-07
9.9073946e-07
9.9164195e-07
9.9212466e-07
1.0007457e-06
1.0245743e-06
1.0456344e-06
1.0635442e-06
1.0810942e-06
1.1223099e-06
1.1688255e-06
1.2267459e-06
1.2772839e-06
1.3681571e-06
1.46498e-06
1.6002615e-06
1.6836987e-06
1.856533e-06
1.9809843e-06
2.2855143e-06
2.5228719e-06
2.9219507e-06
3.2191824e-06
3.6710715e-06
4.0889618e-06
4.5178765e-06
5.0038961e-06
5.725336e-06
6.2829971e-06
7.0109145e-06
4.3603505e-06
3.6646626e-06
3.0175184e-06
2.4921887e-06
2.1379004e-06
1.8963988e-06
1.7286075e-06
1.6191659e-06
1.5536328e-06
1.5041888e-06
1.4556586e-06
1.3963594e-06
1.3266243e-06
1.2527345e-06
1.1824697e-06
1.1253454e-06
1.0829865e-06
1.0509642e-06
1.0243434e-06
1.0130337e-06
1.0075406e-06
1.0031785e-06
9.9809106e-07
9.9496092e-07
9.8946827e-07
9.8730118e-07
9.9181818e-07
9.9203237e-07
9.9193351e-07
1.0008922e-06
1.022972e-06
1.0433662e-06
1.0603635e-06
1.0820882e-06
1.1256243e-06
1.1701167e-06
1.2248517e-06
1.2780557e-06
1.3663021e-06
1.4623737e-06
1.5942526e-06
1.686945e-06
1.8435838e-06
1.9553896e-06
2.2148712e-06
2.5077252e-06
2.7437197e-06
3.0653927e-06
3.3804509e-06
3.8500032e-06
4.2952028e-06
4.7573831e-06
5.3207032e-06
5.8664167e-06
6.4993343e-06
4.3616109e-06
3.6713013e-06
3.0258581e-06
2.5002584e-06
2.1435498e-06
1.9004605e-06
1.7318008e-06
1.621574e-06
1.5545121e-06
1.5059521e-06
1.4568716e-06
1.400766e-06
1.3316067e-06
1.2581753e-06
1.1867816e-06
1.1307554e-06
1.0868514e-06
1.0526494e-06
1.0269792e-06
1.013729e-06
1.0078846e-06
1.0041865e-06
9.9826931e-07
9.9503904e-07
9.8987798e-07
9.8691877e-07
9.9110937e-07
9.9111995e-07
9.9014085e-07
1.0002162e-06
1.0210809e-06
1.0402669e-06
1.0570786e-06
1.0798853e-06
1.1258354e-06
1.168972e-06
1.2185584e-06
1.2748403e-06
1.3535145e-06
1.4548767e-06
1.5760949e-06
1.6916427e-06
1.8367331e-06
1.9494425e-06
2.1888314e-06
2.5222717e-06
2.6843363e-06
2.9884324e-06
3.2802456e-06
3.7875824e-06
4.2248149e-06
4.7299812e-06
5.1874239e-06
5.8144393e-06
6.2727311e-06
4.3622884e-06
3.6774609e-06
3.0331448e-06
2.5076584e-06
2.1493926e-06
1.9039694e-06
1.7355454e-06
1.6237978e-06
1.5540947e-06
1.5061958e-06
1.4580756e-06
1.4014736e-06
1.3360224e-06
1.2624739e-06
1.190727e-06
1.1355481e-06
1.0906737e-06
1.0561322e-06
1.0319476e-06
1.0162492e-06
1.0086855e-06
1.0065478e-06
1.0007906e-06
9.9803544e-07
9.9296892e-07
9.8846669e-07
9.9189909e-07
9.9190702e-07
9.9044902e-07
1.0006331e-06
1.0207496e-06
1.0394691e-06
1.0552116e-06
1.0769681e-06
1.1235133e-06
1.1647756e-06
1.2074017e-06
1.2671134e-06
1.3384025e-06
1.4397891e-06
1.5502591e-06
1.6700046e-06
1.8180707e-06
1.9312013e-06
2.1667659e-06
2.4828432e-06
2.6335666e-06
2.9239174e-06
3.242442e-06
3.7005919e-06
4.1129783e-06
4.6303884e-06
5.2042156e-06
5.8309716e-06
6.1276053e-06
4.3631114e-06
3.6833863e-06
3.0408198e-06
2.5140028e-06
2.1550306e-06
1.9080295e-06
1.7388768e-06
1.6262505e-06
1.5548884e-06
1.5072612e-06
1.4608353e-06
1.4053313e-06
1.3416633e-06
1.2665683e-06
1.1947097e-06
1.1369679e-06
1.0928879e-06
1.0579487e-06
1.0331727e-06
1.0173723e-06
1.0089059e-06
1.0068047e-06
1.002071e-06
9.9972888e-07
9.9512476e-07
9.9059558e-07
9.933633e-07
9.9371006e-07
9.9235343e-07
1.000808e-06
1.0200821e-06
1.0384933e-06
1.0528643e-06
1.0749684e-06
1.120913e-06
1.1606979e-06
1.1965928e-06
1.2588145e-06
1.3287535e-06
1.4162208e-06
1.5299135e-06
1.63055e-06
1.7830627e-06
1.8946856e-06
2.1260154e-06
2.3701031e-06
2.5377391e-06
2.8384371e-06
3.1710748e-06
3.5612697e-06
3.9070151e-06
4.4648896e-06
5.1131454e-06
5.6378351e-06
5.940215e-06
4.3637519e-06
3.6882307e-06
3.0485126e-06
2.51995e-06
2.1607912e-06
1.9128766e-06
1.7410857e-06
1.6280903e-06
1.5576779e-06
1.5107908e-06
1.465862e-06
1.4127108e-06
1.3497382e-06
1.2741971e-06
1.202337e-06
1.141663e-06
1.0982621e-06
1.0614677e-06
1.0354214e-06
1.0200632e-06
1.0107423e-06
1.007883e-06
1.0038464e-06
1.0009192e-06
9.9618648e-07
9.9205949e-07
9.9459767e-07
9.9554886e-07
9.9463918e-07
1.0022246e-06
1.0205728e-06
1.0380098e-06
1.0522695e-06
1.0735313e-06
1.1214456e-06
1.1598273e-06
1.1952246e-06
1.245944e-06
1.3164124e-06
1.4046948e-06
1.5119004e-06
1.5958059e-06
1.7442759e-06
1.8642898e-06
2.0902271e-06
2.2620744e-06
2.4717695e-06
2.7071965e-06
3.0270783e-06
3.2707731e-06
3.6165505e-06
4.191568e-06
4.8047787e-06
5.1757613e-06
5.6560021e-06
4.3647876e-06
3.6934291e-06
3.0556338e-06
2.5261156e-06
2.166311e-06
1.917061e-06
1.7432686e-06
1.6290326e-06
1.5596327e-06
1.5135105e-06
1.4712484e-06
1.4176703e-06
1.3568774e-06
1.2824597e-06
1.2092005e-06
1.150482e-06
1.1058517e-06
1.06816e-06
1.0417753e-06
1.023555e-06
1.0132575e-06
1.0107644e-06
1.0070453e-06
1.0028019e-06
9.9794958e-07
9.9454138e-07
9.965138e-07
9.9706059e-07
9.964859e-07
1.0038863e-06
1.0214352e-06
1.0380015e-06
1.0528378e-06
1.0736751e-06
1.1228087e-06
1.1626347e-06
1.199557e-06
1.2453744e-06
1.3058001e-06
1.4134613e-06
1.4957083e-06
1.587184e-06
1.7223562e-06
1.8711736e-06
2.0564263e-06
2.2593801e-06
2.4532896e-06
2.6617837e-06
2.8863616e-06
3.1089798e-06
3.5220196e-06
3.9442693e-06
4.37865e-06
4.6775586e-06
5.0778947e-06
4.3653523e-06
3.6977305e-06
3.062272e-06
2.5323906e-06
2.1710567e-06
1.9209166e-06
1.7463594e-06
1.6302734e-06
1.560435e-06
1.51388e-06
1.4727473e-06
1.4206095e-06
1.3607498e-06
1.2880413e-06
1.213933e-06
1.1565809e-06
1.1088726e-06
1.0718322e-06
1.0443747e-06
1.0253409e-06
1.0137997e-06
1.0099366e-06
1.0069795e-06
1.0031525e-06
9.9891169e-07
9.9557438e-07
9.9625034e-07
9.9606438e-07
9.9624399e-07
1.0028831e-06
1.0190705e-06
1.0358029e-06
1.0511332e-06
1.0733113e-06
1.1228558e-06
1.1665233e-06
1.2061423e-06
1.2547418e-06
1.3105902e-06
1.4259071e-06
1.512174e-06
1.6099975e-06
1.7160254e-06
1.897769e-06
2.0618494e-06
2.2832923e-06
2.4515687e-06
2.669448e-06
2.8557029e-06
3.1161558e-06
3.5123271e-06
3.8969271e-06
4.2048625e-06
4.5772859e-06
4.8996292e-06
4.366361e-06
3.7028127e-06
3.0697725e-06
2.5381489e-06
2.175253e-06
1.9251556e-06
1.7494011e-06
1.6314815e-06
1.5608257e-06
1.5138603e-06
1.4723646e-06
1.4240216e-06
1.3633038e-06
1.290915e-06
1.2169511e-06
1.1585054e-06
1.1092492e-06
1.0727559e-06
1.0436476e-06
1.0263531e-06
1.0140185e-06
1.0082129e-06
1.0058851e-06
1.0034693e-06
9.9999371e-07
9.9656945e-07
9.9605875e-07
9.9475917e-07
9.9592823e-07
1.0021762e-06
1.0171192e-06
1.0338161e-06
1.049002e-06
1.07423e-06
1.1208543e-06
1.1734006e-06
1.2123458e-06
1.2722986e-06
1.3319442e-06
1.4531767e-06
1.549515e-06
1.6726187e-06
1.7545761e-06
1.9490361e-06
2.1211259e-06
2.3616488e-06
2.5033368e-06
2.7411199e-06
2.9108036e-06
3.219501e-06
3.5363792e-06
3.9754197e-06
4.2327434e-06
4.6518835e-06
4.98839e-06
4.3668984e-06
3.7064571e-06
3.0758963e-06
2.5427956e-06
2.1794846e-06
1.9294716e-06
1.7523199e-06
1.6326111e-06
1.5618465e-06
1.5149632e-06
1.4727053e-06
1.4270698e-06
1.3652941e-06
1.2929785e-06
1.2210368e-06
1.1587457e-06
1.1090876e-06
1.071416e-06
1.0406814e-06
1.023024e-06
1.011572e-06
1.004974e-06
1.0008507e-06
9.9852225e-07
9.9528491e-07
9.9264302e-07
9.9221553e-07
9.8936335e-07
9.906081e-07
9.9697188e-07
1.0115745e-06
1.0279833e-06
1.0426629e-06
1.0722577e-06
1.1157754e-06
1.1712448e-06
1.2159402e-06
1.2893275e-06
1.3536825e-06
1.481338e-06
1.5773682e-06
1.7386416e-06
1.8272818e-06
2.0235921e-06
2.2037885e-06
2.4700936e-06
2.6149415e-06
2.8517236e-06
3.0122023e-06
3.3348009e-06
3.6007942e-06
4.0208901e-06
4.2558293e-06
4.6635109e-06
5.0418405e-06
4.3679029e-06
3.7114313e-06
3.0823601e-06
2.5479416e-06
2.1836404e-06
1.9325741e-06
1.7547782e-06
1.6336667e-06
1.5627057e-06
1.517166e-06
1.4757019e-06
1.4290083e-06
1.3689379e-06
1.2968277e-06
1.2256687e-06
1.1600337e-06
1.1108504e-06
1.0717648e-06
1.0403777e-06
1.020891e-06
1.0108191e-06
1.0042958e-06
9.9903326e-07
9.9624639e-07
9.9306682e-07
9.9149882e-07
9.9123074e-07
9.8717359e-07
9.8785012e-07
9.9427732e-07
1.0083103e-06
1.0237242e-06
1.0380258e-06
1.0669955e-06
1.106293e-06
1.1592512e-06
1.2021965e-06
1.2819232e-06
1.347081e-06
1.4740837e-06
1.5649513e-06
1.7386728e-06
1.8355968e-06
2.034304e-06
2.2035799e-06
2.4759426e-06
2.6460652e-06
2.9001961e-06
3.0840945e-06
3.3941664e-06
3.6547727e-06
4.0384701e-06
4.2462808e-06
4.5997089e-06
4.9659759e-06
4.368218e-06
3.7136751e-06
3.08584e-06
2.5519934e-06
2.186717e-06
1.9343234e-06
1.7564815e-06
1.6347773e-06
1.5621956e-06
1.5177598e-06
1.4769684e-06
1.4275714e-06
1.3694277e-06
1.2974159e-06
1.2252064e-06
1.158133e-06
1.1094056e-06
1.068842e-06
1.0367817e-06
1.0145095e-06
1.0037366e-06
9.9660689e-07
9.9155042e-07
9.8796133e-07
9.8447207e-07
9.82714e-07
9.8137556e-07
9.7624214e-07
9.7562851e-07
9.8196666e-07
9.9417788e-07
1.0069197e-06
1.020591e-06
1.0452933e-06
1.0765634e-06
1.1166613e-06
1.1480853e-06
1.2118328e-06
1.2673591e-06
1.3633533e-06
1.4374436e-06
1.5768535e-06
1.6751345e-06
1.8680328e-06
2.0261416e-06
2.2748971e-06
2.4694768e-06
2.7258504e-06
2.9592766e-06
3.2389759e-06
3.5215854e-06
3.8403481e-06
4.0783402e-06
4.3291344e-06
4.6741995e-06
4.369309e-06
3.7180771e-06
3.0901785e-06
2.5543349e-06
2.1869033e-06
1.9333582e-06
1.7550419e-06
1.6325942e-06
1.5562897e-06
1.5099392e-06
1.4690081e-06
1.4180059e-06
1.3612602e-06
1.2906584e-06
1.2186057e-06
1.1540168e-06
1.1067732e-06
1.0660863e-06
1.0336643e-06
1.0114215e-06
9.9957993e-07
9.9240407e-07
9.8731324e-07
9.8341044e-07
9.7900794e-07
9.7654049e-07
9.7382581e-07
9.6714345e-07
9.6462979e-07
9.7003704e-07
9.7995034e-07
9.8901691e-07
1.0002552e-06
1.0196733e-06
1.0451697e-06
1.0698836e-06
1.0927349e-06
1.1342319e-06
1.1796077e-06
1.2307746e-06
1.2829667e-06
1.339821e-06
1.4253679e-06
1.5228734e-06
1.6467119e-06
1.75745e-06
1.9463408e-06
2.1006088e-06
2.3552273e-06
2.5361016e-06
2.8076685e-06
2.9720469e-06
3.2674057e-06
3.3821638e-06
3.7163975e-06
4.369776e-06
3.7135753e-06
3.083418e-06
2.54686e-06
2.1789532e-06
1.925369e-06
1.7457004e-06
1.620627e-06
1.5373372e-06
1.4834297e-06
1.4402456e-06
1.3915617e-06
1.3385943e-06
1.2767403e-06
1.210765e-06
1.154432e-06
1.1122178e-06
1.074391e-06
1.0435516e-06
1.0223585e-06
1.0088902e-06
1.0010198e-06
9.9555285e-07
9.9086939e-07
9.8482779e-07
9.8031218e-07
9.7655818e-07
9.682725e-07
9.6419287e-07
9.6833268e-07
9.7680541e-07
9.8386753e-07
9.9331727e-07
1.0105414e-06
1.0349398e-06
1.0543234e-06
1.0751147e-06
1.1074796e-06
1.1528254e-06
1.1891289e-06
1.2309184e-06
1.2631988e-06
1.3266448e-06
1.3904825e-06
1.4738495e-06
1.5325659e-06
1.6249464e-06
1.7064508e-06
1.8313773e-06
1.9279695e-06
2.0507673e-06
2.1142657e-06
2.2200519e-06
2.2552461e-06
2.3887421e-06
4.371212e-06
3.6961661e-06
3.0639523e-06
2.5338441e-06
2.1721073e-06
1.9213572e-06
1.7370568e-06
1.6041614e-06
1.5099503e-06
1.4431291e-06
1.39587e-06
1.3542804e-06
1.3154912e-06
1.2739062e-06
1.2311411e-06
1.2011938e-06
1.1794537e-06
1.155972e-06
1.134066e-06
1.1182033e-06
1.10646e-06
1.0974474e-06
1.0919151e-06
1.0873777e-06
1.0793018e-06
1.0714519e-06
1.0646728e-06
1.0533927e-06
1.0460408e-06
1.0471503e-06
1.0539763e-06
1.0589212e-06
1.0660364e-06
1.0786494e-06
1.0978123e-06
1.1156983e-06
1.134353e-06
1.1618185e-06
1.2050065e-06
1.2385914e-06
1.2733279e-06
1.2999461e-06
1.3519779e-06
1.4094625e-06
1.4757396e-06
1.5181158e-06
1.5725209e-06
1.6277051e-06
1.7054552e-06
1.7692913e-06
1.8378599e-06
1.8762394e-06
1.9196501e-06
1.9411588e-06
1.9882308e-06
4.3558753e-06
3.6764677e-06
3.1218941e-06
2.6718216e-06
2.3541515e-06
2.1119978e-06
1.9069366e-06
1.7454518e-06
1.6367407e-06
1.5601954e-06
1.4991381e-06
1.459492e-06
1.4450684e-06
1.4421435e-06
1.4487603e-06
1.4695208e-06
1.5049013e-06
1.5210885e-06
1.5228459e-06
1.5234129e-06
1.5245561e-06
1.5224495e-06
1.5245407e-06
1.531438e-06
1.532604e-06
1.5283216e-06
1.5198856e-06
1.5047986e-06
1.4870607e-06
1.4818961e-06
1.4932805e-06
1.502779e-06
1.5122649e-06
1.5185479e-06
1.5300851e-06
1.5527107e-06
1.5710104e-06
1.590727e-06
1.6274371e-06
1.6562928e-06
1.6862646e-06
1.7140312e-06
1.7513297e-06
1.7957793e-06
1.8427567e-06
1.867199e-06
1.8988094e-06
1.9456664e-06
1.9980851e-06
2.0459214e-06
2.0891242e-06
2.115494e-06
2.125549e-06
2.1480389e-06
2.1292009e-06
4.2532563e-06
4.0690255e-06
4.2071225e-06
4.2599427e-06
4.1836802e-06
3.97365e-06
3.7191418e-06
3.4839612e-06
3.3568623e-06
3.2900396e-06
3.1894226e-06
3.0920084e-06
3.0827502e-06
3.0876848e-06
3.1317279e-06
3.2019461e-06
3.3365782e-06
3.4265352e-06
3.467109e-06
3.4995825e-06
3.532179e-06
3.5847674e-06
3.6523903e-06
3.7230786e-06
3.7727977e-06
3.8126995e-06
3.8328072e-06
3.8280989e-06
3.8015587e-06
3.7861213e-06
3.8210164e-06
3.8567077e-06
3.9133382e-06
3.9331757e-06
3.9517613e-06
4.0247007e-06
4.0728651e-06
4.09628e-06
4.130464e-06
4.160838e-06
4.1852216e-06
4.220098e-06
4.2331826e-06
4.2506628e-06
4.2484877e-06
4.2206198e-06
4.1752261e-06
4.1812838e-06
4.1859267e-06
4.1804093e-06
4.1599526e-06
4.1186427e-06
4.06548e-06
4.0249166e-06
3.8169126e-06
4.874478e-06
6.9936455e-06
1.0383603e-05
1.1687983e-05
1.2406896e-05
1.2745153e-05
1.2853975e-05
1.2816413e-05
1.2873847e-05
1.3049787e-05
1.310642e-05
1.3019217e-05
1.3075926e-05
1.3085127e-05
1.3153781e-05
1.3284766e-05
1.3557327e-05
1.3875325e-05
1.4121836e-05
1.4316999e-05
1.4542711e-05
1.4914473e-05
1.5345226e-05
1.5755488e-05
1.6058547e-05
1.6361237e-05
1.6669282e-05
1.6831135e-05
1.6854712e-05
1.6901608e-05
1.7105349e-05
1.7242313e-05
1.7428108e-05
1.7544059e-05
1.7648689e-05
1.783996e-05
1.7874472e-05
1.7868658e-05
1.7954534e-05
1.8048683e-05
1.7966224e-05
1.78076e-05
1.765295e-05
1.7518266e-05
1.755887e-05
1.74167e-05
1.70183e-05
1.6759171e-05
1.6486018e-05
1.6264069e-05
1.6089696e-05
1.5855808e-05
1.5446667e-05
1.5172279e-05
1.4425038e-05
2.5572033e-05
3.8132409e-05
3.0215349e-05
2.7066098e-05
2.8646031e-05
3.3287928e-05
3.7033803e-05
3.9252186e-05
4.0107943e-05
4.0678269e-05
4.1365441e-05
4.2469407e-05
4.3580489e-05
4.4410717e-05
4.4191932e-05
4.310025e-05
4.2211623e-05
4.1765526e-05
4.1477749e-05
4.1299626e-05
4.1443412e-05
4.2321574e-05
4.4220177e-05
4.6907415e-05
4.9601973e-05
5.2276558e-05
5.534268e-05
5.7730268e-05
5.8140625e-05
5.7637444e-05
5.7618318e-05
5.7645764e-05
5.7083727e-05
5.6741066e-05
5.7337606e-05
5.7587612e-05
5.6630683e-05
5.5099474e-05
5.4402982e-05
5.4735286e-05
5.4583567e-05
5.2975675e-05
5.0874225e-05
4.9683777e-05
4.9469075e-05
5.0404073e-05
5.0916263e-05
5.0518306e-05
5.0706186e-05
5.1728667e-05
5.3715652e-05
5.6031256e-05
5.7671332e-05
5.8123268e-05
5.7668333e-05
5.5975313e-05
1.4758773e-05
4.0380701e-06
2.1905194e-06
2.0133473e-06
2.3728228e-06
3.7670654e-06
4.9864798e-06
5.439011e-06
5.5751677e-06
5.5865227e-06
5.4448823e-06
5.5639619e-06
6.0781553e-06
6.5476554e-06
6.8549532e-06
6.962614e-06
7.1729416e-06
7.8560043e-06
8.3729609e-06
9.2801461e-06
1.0015945e-05
1.1005131e-05
1.2809451e-05
1.4436625e-05
1.55426e-05
1.4832638e-05
5.281575e-05
1.56443e-05
4.4369271e-06
2.2969394e-06
2.0572914e-06
2.3926841e-06
3.8899546e-06
5.4623273e-06
6.0940248e-06
6.2673956e-06
6.2189199e-06
6.0351322e-06
6.1566563e-06
6.5720418e-06
7.0670824e-06
7.5434303e-06
7.8137525e-06
8.0548638e-06
8.6067217e-06
9.0511238e-06
9.867846e-06
1.075235e-05
1.2493633e-05
1.4656186e-05
1.6642734e-05
1.7866205e-05
1.81691e-05
5.0019005e-05
1.6178372e-05
4.8492007e-06
2.4312591e-06
2.1324696e-06
2.4671714e-06
4.0653876e-06
5.951614e-06
6.6975209e-06
6.9138892e-06
6.8932491e-06
6.6970224e-06
6.7717182e-06
7.039446e-06
7.5547182e-06
8.2961808e-06
8.834958e-06
9.1137297e-06
9.4856594e-06
9.9230582e-06
1.0780894e-05
1.2242353e-05
1.3487076e-05
1.6805666e-05
1.8588376e-05
2.2143917e-05
2.2502316e-05
4.7052027e-05
1.6476187e-05
5.1187386e-06
2.5523131e-06
2.2237287e-06
2.5691196e-06
4.2231846e-06
6.3007272e-06
7.1675954e-06
7.4354701e-06
7.4195679e-06
7.2160269e-06
7.2592321e-06
7.6049125e-06
8.5728306e-06
9.5544749e-06
1.0206155e-05
1.0204768e-05
1.0491557e-05
1.0853565e-05
1.1498325e-05
1.3379992e-05
1.4970996e-05
1.9288706e-05
2.0582813e-05
2.5392849e-05
2.5426641e-05
4.4977997e-05
1.637536e-05
5.2173712e-06
2.6482764e-06
2.3181469e-06
2.6934348e-06
4.4520788e-06
6.9648118e-06
8.0464856e-06
8.2930665e-06
8.1722724e-06
7.756373e-06
7.9115515e-06
8.5359824e-06
1.0009185e-05
1.116272e-05
1.1586159e-05
1.1486423e-05
1.1646693e-05
1.2155999e-05
1.2542614e-05
1.5094207e-05
1.7796354e-05
2.179603e-05
2.224164e-05
2.8132507e-05
2.7696101e-05
4.6000413e-05
1.6005382e-05
5.3404602e-06
2.7836779e-06
2.4338131e-06
2.8368055e-06
4.6716189e-06
7.8187372e-06
9.2299139e-06
9.6040795e-06
9.401452e-06
8.7869672e-06
8.9933735e-06
9.6889821e-06
1.1163108e-05
1.2167894e-05
1.2947827e-05
1.2975634e-05
1.3320391e-05
1.4107035e-05
1.4740469e-05
1.7825266e-05
1.9934692e-05
2.3163139e-05
2.4586648e-05
3.1204257e-05
3.2397475e-05
4.6327045e-05
1.5534788e-05
5.408685e-06
2.9031189e-06
2.5390362e-06
2.9288672e-06
4.7375987e-06
8.2714822e-06
1.0107915e-05
1.0997271e-05
1.119958e-05
1.0792966e-05
1.073676e-05
1.1182488e-05
1.225899e-05
1.3165942e-05
1.417077e-05
1.4572498e-05
1.5162992e-05
1.6535837e-05
1.7200917e-05
2.0303708e-05
2.2513353e-05
2.4888373e-05
2.8335244e-05
3.3663064e-05
3.6994889e-05
4.2386347e-05
1.5184864e-05
5.5093139e-06
3.0131358e-06
2.6138134e-06
2.9748293e-06
4.7032316e-06
9.0248341e-06
1.1740789e-05
1.3116342e-05
1.3536213e-05
1.2858426e-05
1.2223191e-05
1.2770446e-05
1.3921349e-05
1.4815952e-05
1.6291382e-05
1.6951765e-05
1.7704092e-05
1.9480512e-05
2.0525436e-05
2.2676801e-05
2.5379891e-05
2.927273e-05
3.4434068e-05
3.6721736e-05
4.2320337e-05
4.0107348e-05
1.4903157e-05
5.6988436e-06
3.1774031e-06
2.7438764e-06
3.136424e-06
5.0227659e-06
1.0114665e-05
1.3379256e-05
1.4829829e-05
1.5041618e-05
1.3863327e-05
1.3024738e-05
1.3658134e-05
1.555853e-05
1.7039261e-05
1.9079383e-05
2.0275407e-05
2.0819905e-05
2.2341613e-05
2.394168e-05
2.6253081e-05
2.8610214e-05
3.3217514e-05
4.0824521e-05
4.258756e-05
5.334902e-05
4.264729e-05
1.4906155e-05
5.9354234e-06
3.3888143e-06
2.9913554e-06
3.5155428e-06
5.838948e-06
1.190537e-05
1.5368195e-05
1.6690799e-05
1.6732973e-05
1.514431e-05
1.4045668e-05
1.4880731e-05
1.7492942e-05
1.937203e-05
2.2429156e-05
2.4515015e-05
2.5117237e-05
2.536376e-05
2.7548383e-05
3.0230551e-05
3.4346822e-05
3.7605121e-05
4.7529284e-05
5.1493575e-05
6.7645912e-05
4.4313586e-05
1.4859354e-05
6.0163772e-06
3.5923307e-06
3.2975632e-06
4.0157123e-06
6.8752235e-06
1.3670264e-05
1.7984226e-05
1.9588186e-05
1.9687478e-05
1.7931394e-05
1.6011919e-05
1.7121512e-05
2.0123111e-05
2.2158804e-05
2.6046099e-05
2.9206592e-05
3.0038634e-05
2.9474144e-05
3.1913677e-05
3.3700321e-05
3.9580837e-05
4.4384072e-05
5.6181252e-05
6.15469e-05
8.0393569e-05
4.5311889e-05
1.4552466e-05
5.8927843e-06
3.78665e-06
3.5996471e-06
4.5998509e-06
8.0765469e-06
1.5709302e-05
2.0742752e-05
2.2809164e-05
2.3066561e-05
2.1416125e-05
1.8405988e-05
1.9970416e-05
2.3482944e-05
2.5598045e-05
2.9344021e-05
3.2671405e-05
3.3776509e-05
3.2787562e-05
3.532947e-05
3.7422156e-05
4.4330794e-05
5.4787475e-05
6.4831649e-05
7.0118411e-05
9.2331946e-05
5.4309939e-05
1.4167839e-05
5.9648584e-06
4.0429008e-06
3.9442649e-06
5.1501294e-06
9.2448844e-06
1.8621599e-05
2.4640771e-05
2.6983758e-05
2.7522263e-05
2.6143897e-05
2.2636912e-05
2.4650408e-05
2.9217806e-05
3.053004e-05
3.264576e-05
3.6060818e-05
3.7253793e-05
3.607944e-05
3.9903214e-05
4.2533009e-05
5.0637034e-05
6.7865204e-05
7.617729e-05
8.1445721e-05
0.00010465625
6.0577842e-05
1.4572503e-05
6.0851919e-06
4.2055993e-06
4.1831163e-06
5.3624778e-06
9.5478026e-06
2.061724e-05
2.9154973e-05
3.3578306e-05
3.5200785e-05
3.3999457e-05
2.9441389e-05
3.1742423e-05
3.6955326e-05
3.7832227e-05
3.9782228e-05
4.2132938e-05
4.2997635e-05
4.1348214e-05
4.3776142e-05
5.1135839e-05
6.6088962e-05
8.25361e-05
8.8548415e-05
9.6399408e-05
0.00012691704
5.8187674e-05
1.5896669e-05
6.3297062e-06
4.2797188e-06
4.2943725e-06
5.4837166e-06
9.7788066e-06
2.2307925e-05
3.570633e-05
4.3844585e-05
4.7158469e-05
4.5006071e-05
3.7641957e-05
3.9963552e-05
4.6264031e-05
4.9279937e-05
5.2097967e-05
5.6257748e-05
5.6378364e-05
5.3338785e-05
5.4383476e-05
6.6529578e-05
8.3014626e-05
9.0589536e-05
9.5271877e-05
0.00010293809
0.00013977007
5.8294002e-05
1.7473748e-05
6.7668592e-06
4.5256787e-06
4.6456029e-06
6.2611182e-06
1.1697957e-05
2.7021751e-05
4.4212219e-05
5.4293506e-05
5.7201341e-05
5.3815057e-05
4.329006e-05
4.4688567e-05
5.2124083e-05
5.6983726e-05
6.0934947e-05
7.1562043e-05
7.6132239e-05
7.6289675e-05
7.6331871e-05
9.2186536e-05
0.0001036047
0.00010749936
0.00011201316
0.00012287242
0.00016123692
6.2593345e-05
1.8782996e-05
7.2095005e-06
5.0270172e-06
5.493138e-06
8.2757076e-06
1.6604501e-05
3.5819865e-05
5.5204248e-05
6.3490615e-05
6.4913983e-05
6.0257065e-05
4.9825815e-05
4.9818888e-05
5.9487145e-05
6.707957e-05
6.9992943e-05
7.9614259e-05
9.0915862e-05
9.6872254e-05
9.8955878e-05
0.00011713605
0.00013065559
0.00013162408
0.00014128658
0.00015203244
0.00018128352
6.6680101e-05
1.9707591e-05
7.7696766e-06
5.8796657e-06
7.0027863e-06
1.182921e-05
2.4066949e-05
4.8723975e-05
6.9407047e-05
7.5192867e-05
7.5196064e-05
6.8333463e-05
5.7759726e-05
5.7273959e-05
6.9421662e-05
8.0733471e-05
8.5171451e-05
9.7723116e-05
0.00011552361
0.00012629548
0.00012609122
0.00013671814
0.00016042198
0.0001679507
0.00019328627
0.00021424688
0.00022491866
8.4425668e-05
2.1056739e-05
8.659211e-06
7.1141516e-06
9.2960471e-06
1.6962125e-05
3.4663474e-05
6.6678475e-05
9.1572931e-05
9.7602211e-05
9.6987485e-05
8.6870862e-05
7.2538612e-05
6.9753823e-05
8.3785094e-05
0.00010111139
0.00011176104
0.00012828298
0.00015174375
0.00016443913
0.00016583463
0.00017179313
0.00019678741
0.00021026142
0.000247956
0.00029902266
0.00030995674
0.00011775302
2.3066268e-05
9.7590781e-06
8.3203986e-06
1.1489124e-05
2.142334e-05
4.4066074e-05
8.3544088e-05
0.00011821042
0.00012895243
0.00012894442
0.00011929487
9.9676153e-05
9.4461085e-05
0.00011309014
0.000132864
0.00014566472
0.00016060479
0.00018403007
0.00020028375
0.00021005424
0.0002274913
0.00025156806
0.00028170028
0.00030902956
0.00039455548
0.00042486052
0.00015444506
2.858534e-05
1.1336791e-05
9.3354015e-06
1.2072493e-05
2.1691048e-05
4.4845886e-05
8.797965e-05
0.00013912779
0.00016087585
0.00016448956
0.00015875912
0.0001383341
0.00013165384
0.00015215722
0.0001803275
0.00019330847
0.00020858681
0.00022901413
0.00023769172
0.00024823434
0.00027688958
0.00030252705
0.00039024533
0.00041276974
0.00049321399
0.00054086193
0.0001727586
3.5975328e-05
1.3279731e-05
1.0399906e-05
1.2309581e-05
2.0203318e-05
4.0800433e-05
8.4887171e-05
0.00014451983
0.00017792378
0.00018921404
0.00019048274
0.00018150616
0.00018389697
0.00021261281
0.00026508297
0.00028741795
0.00031699941
0.00033308936
0.00032269509
0.00031307333
0.00032925058
0.00034587189
0.0004852539
0.00059851832
0.00069476811
0.00069541836
0.00018157574
4.1375597e-05
1.5120863e-05
1.1616378e-05
1.3319804e-05
2.1029872e-05
4.1684705e-05
8.8254143e-05
0.00015266438
0.0001978378
0.00021911583
0.00022989391
0.00022825035
0.00023228665
0.00026170098
0.0003456073
0.00040134888