/*--------------------------------*- C++ -*----------------------------------*\
| =========                 |                                                 |
| \\      /  F ield         | OpenFOAM: The Open Source CFD Toolbox           |
|  \\    /   O peration     | Version:  2406                                  |
|   \\  /    A nd           | Website:  www.openfoam.com                      |
|    \\/     M anipulation  |                                                 |
\*---------------------------------------------------------------------------*/
FoamFile
{
    version     2.0;
    format      ascii;
    arch        "LSB;label=32;scalar=64";
    class       volScalarField;
    location    "9";
    object      nut;
}
// * * * * * * * * * * * * * * * * * * * * * * * * * * * * * * * * * * * * * //

dimensions      [0 2 -1 0 0 0 0];

internalField   nonuniform List<scalar> 
96472
(
8.3654247e-07
9.1243806e-07
9.1995896e-07
8.5679706e-07
7.9024697e-07
7.5550172e-07
7.5596513e-07
7.7932245e-07
8.0648019e-07
8.2451851e-07
8.2831665e-07
8.1900046e-07
8.034026e-07
7.8769288e-07
7.7515069e-07
7.6689804e-07
7.6186355e-07
7.5874163e-07
7.5686944e-07
7.5553037e-07
7.5443891e-07
7.536504e-07
7.5344532e-07
7.5345617e-07
7.5367414e-07
7.5402443e-07
7.5445332e-07
7.5490191e-07
7.5555466e-07
7.5658644e-07
7.5812248e-07
7.6030935e-07
7.6366846e-07
7.6896612e-07
7.7571166e-07
7.7997046e-07
7.8386105e-07
7.8712427e-07
7.8876473e-07
7.9029264e-07
7.9442051e-07
8.0055329e-07
8.0895216e-07
8.1833347e-07
8.3222587e-07
8.4267273e-07
8.616489e-07
8.7298377e-07
8.9542041e-07
9.1090896e-07
9.3300644e-07
9.576637e-07
9.7934339e-07
1.008575e-06
1.0509362e-06
8.3616847e-07
9.1162572e-07
9.1994715e-07
8.577096e-07
7.9118277e-07
7.5565372e-07
7.551202e-07
7.7781808e-07
8.0499972e-07
8.2354035e-07
8.2821362e-07
8.19769e-07
8.0477406e-07
7.8921029e-07
7.7660488e-07
7.6810667e-07
7.6276462e-07
7.5947397e-07
7.5758612e-07
7.5620603e-07
7.5502878e-07
7.5406439e-07
7.536548e-07
7.5356421e-07
7.536986e-07
7.5390832e-07
7.5446904e-07
7.5470811e-07
7.5505306e-07
7.5529111e-07
7.555603e-07
7.5590386e-07
7.5674434e-07
7.5822591e-07
7.6150795e-07
7.660535e-07
7.7458617e-07
7.8107181e-07
7.8647831e-07
7.9154008e-07
7.9529294e-07
8.0141064e-07
8.0551239e-07
8.1355361e-07
8.2034828e-07
8.3283234e-07
8.4170405e-07
8.591409e-07
8.7057467e-07
8.9439208e-07
9.0857045e-07
9.3176233e-07
9.5584372e-07
9.7384301e-07
1.0148772e-06
8.3599852e-07
9.1105568e-07
9.2018469e-07
8.5880179e-07
7.9230724e-07
7.5597532e-07
7.543998e-07
7.7652306e-07
8.0381048e-07
8.2288171e-07
8.2822879e-07
8.2026063e-07
8.0543684e-07
7.8988126e-07
7.7728046e-07
7.6866705e-07
7.6335519e-07
7.600198e-07
7.5806982e-07
7.566808e-07
7.5562507e-07
7.546626e-07
7.5421097e-07
7.541374e-07
7.5424767e-07
7.5440358e-07
7.5490869e-07
7.5518575e-07
7.5562363e-07
7.5597528e-07
7.5660233e-07
7.5707801e-07
7.5789227e-07
7.5865446e-07
7.6025874e-07
7.620105e-07
7.6558289e-07
7.7026983e-07
7.7760428e-07
7.8713919e-07
7.924961e-07
8.0097102e-07
8.0519075e-07
8.1374381e-07
8.1863935e-07
8.2953173e-07
8.3538507e-07
8.4940894e-07
8.5714899e-07
8.7132928e-07
8.8993788e-07
9.0290096e-07
9.2844836e-07
9.4287342e-07
9.7837041e-07
8.3577049e-07
9.1048748e-07
9.2040438e-07
8.5990848e-07
7.9347235e-07
7.5633517e-07
7.5369251e-07
7.7513772e-07
8.0247452e-07
8.2214386e-07
8.28398e-07
8.2116027e-07
8.0672244e-07
7.9123265e-07
7.7843431e-07
7.6959531e-07
7.6404899e-07
7.6054861e-07
7.5848991e-07
7.5704689e-07
7.5597099e-07
7.549833e-07
7.5446226e-07
7.5436611e-07
7.5439868e-07
7.5457281e-07
7.5495068e-07
7.5520092e-07
7.5557246e-07
7.5591646e-07
7.5649818e-07
7.5719074e-07
7.5795311e-07
7.5920613e-07
7.6020238e-07
7.6213399e-07
7.6361159e-07
7.6688665e-07
7.6990548e-07
7.7694116e-07
7.8226457e-07
7.9402851e-07
7.9992344e-07
8.1151721e-07
8.1642547e-07
8.273172e-07
8.3319748e-07
8.4261798e-07
8.5375374e-07
8.6145994e-07
8.7698344e-07
8.8627903e-07
9.0597793e-07
9.1756306e-07
9.4588064e-07
8.3561541e-07
9.1005329e-07
9.2070422e-07
8.6103407e-07
7.9463817e-07
7.5668558e-07
7.5299428e-07
7.7381783e-07
8.0123179e-07
8.2143547e-07
8.2844171e-07
8.2181166e-07
8.0771412e-07
7.9231506e-07
7.794451e-07
7.7048237e-07
7.6479211e-07
7.6118533e-07
7.5904967e-07
7.5757747e-07
7.5654179e-07
7.5549828e-07
7.549368e-07
7.5483165e-07
7.5477365e-07
7.5491619e-07
7.5510939e-07
7.5548541e-07
7.5569327e-07
7.5606622e-07
7.5637618e-07
7.570795e-07
7.5767973e-07
7.5906638e-07
7.6009293e-07
7.6227216e-07
7.6357183e-07
7.6651111e-07
7.6838871e-07
7.7298364e-07
7.7607394e-07
7.8380509e-07
7.8880657e-07
8.0098341e-07
8.0784656e-07
8.1985328e-07
8.3029785e-07
8.3697186e-07
8.499031e-07
8.5667538e-07
8.7060838e-07
8.7821551e-07
8.939357e-07
9.0294773e-07
9.2384395e-07
8.3542592e-07
9.0967624e-07
9.2104517e-07
8.6216629e-07
7.9581571e-07
7.5707556e-07
7.5233696e-07
7.725184e-07
7.9998896e-07
8.2074023e-07
8.2853826e-07
8.22573e-07
8.088718e-07
7.9354556e-07
7.8055915e-07
7.7140473e-07
7.6554363e-07
7.6179906e-07
7.5956866e-07
7.5799161e-07
7.569884e-07
7.5594593e-07
7.5535517e-07
7.5520418e-07
7.5510358e-07
7.5523993e-07
7.5540115e-07
7.5561777e-07
7.5577502e-07
7.5606819e-07
7.5630673e-07
7.5685795e-07
7.5737153e-07
7.5861806e-07
7.595624e-07
7.6177917e-07
7.6310192e-07
7.661651e-07
7.6783981e-07
7.718163e-07
7.7415509e-07
7.7919977e-07
7.840317e-07
7.89364e-07
7.9853221e-07
8.04867e-07
8.1864001e-07
8.2580265e-07
8.4056388e-07
8.4826726e-07
8.6353183e-07
8.7127237e-07
8.8654212e-07
8.9460402e-07
9.1234836e-07
8.3531138e-07
9.0935883e-07
9.2140207e-07
8.6331035e-07
7.9701816e-07
7.575052e-07
7.5172065e-07
7.7121605e-07
7.9868212e-07
8.1996172e-07
8.2858139e-07
8.2331348e-07
8.1003848e-07
7.9481432e-07
7.8174344e-07
7.7237265e-07
7.6631225e-07
7.6243557e-07
7.6014967e-07
7.5852152e-07
7.5748083e-07
7.5643854e-07
7.5580312e-07
7.5556553e-07
7.5544723e-07
7.5559426e-07
7.5573146e-07
7.5590676e-07
7.5604433e-07
7.5624641e-07
7.5640582e-07
7.5681553e-07
7.5723127e-07
7.5825417e-07
7.5905975e-07
7.6101018e-07
7.6233511e-07
7.6531754e-07
7.6704026e-07
7.7022261e-07
7.7370447e-07
7.7627275e-07
7.8186883e-07
7.8535305e-07
7.9270547e-07
7.9725145e-07
8.0702975e-07
8.1308819e-07
8.2596577e-07
8.333215e-07
8.4863333e-07
8.5662974e-07
8.7277716e-07
8.8092763e-07
8.9887825e-07
8.3522131e-07
9.0913863e-07
9.2179201e-07
8.6442926e-07
7.9821803e-07
7.5801138e-07
7.5119502e-07
7.6995729e-07
7.9735335e-07
8.1916365e-07
8.2864489e-07
8.241364e-07
8.1130638e-07
7.9615948e-07
7.8295393e-07
7.7339368e-07
7.6711494e-07
7.6305313e-07
7.6068003e-07
7.5904401e-07
7.5799139e-07
7.5693657e-07
7.56277e-07
7.5598216e-07
7.5585932e-07
7.5595847e-07
7.560134e-07
7.5613064e-07
7.5625197e-07
7.5637024e-07
7.565001e-07
7.5681054e-07
7.5716005e-07
7.5797743e-07
7.5872914e-07
7.6015467e-07
7.6198746e-07
7.6357347e-07
7.6656407e-07
7.6850555e-07
7.7235033e-07
7.7473041e-07
7.7966732e-07
7.8275096e-07
7.8912901e-07
7.9290033e-07
8.0086213e-07
8.0561637e-07
8.1569389e-07
8.2172782e-07
8.3427472e-07
8.4133488e-07
8.5560764e-07
8.6336538e-07
8.8068102e-07
8.3517771e-07
9.0896014e-07
9.2221469e-07
8.6562378e-07
7.9949793e-07
7.5847413e-07
7.5054113e-07
7.6860439e-07
7.9606633e-07
8.1850764e-07
8.2884119e-07
8.2504069e-07
8.1259244e-07
7.9750555e-07
7.8412719e-07
7.7438594e-07
7.6793433e-07
7.6373991e-07
7.6126569e-07
7.5954705e-07
7.5851027e-07
7.574579e-07
7.5679404e-07
7.5645947e-07
7.5635033e-07
7.5638669e-07
7.5642144e-07
7.5651359e-07
7.5657586e-07
7.5665479e-07
7.5674816e-07
7.5689213e-07
7.5724951e-07
7.5771793e-07
7.5866796e-07
7.5953008e-07
7.6140418e-07
7.6273783e-07
7.6551298e-07
7.6721481e-07
7.7084126e-07
7.7299414e-07
7.7766294e-07
7.8043461e-07
7.8627788e-07
7.8970912e-07
7.9675541e-07
8.0082913e-07
8.0933014e-07
8.1424503e-07
8.2440112e-07
8.3008881e-07
8.4196755e-07
8.4844981e-07
8.6344158e-07
8.3516617e-07
9.0884308e-07
9.2266902e-07
8.6681045e-07
8.007351e-07
7.5894302e-07
7.4994802e-07
7.6735319e-07
7.9479632e-07
8.1771644e-07
8.2872912e-07
8.2552827e-07
8.1349146e-07
7.9853382e-07
7.8511327e-07
7.7521845e-07
7.6860352e-07
7.6432727e-07
7.6184873e-07
7.6008088e-07
7.590092e-07
7.5796583e-07
7.5729433e-07
7.5690189e-07
7.5680587e-07
7.5676793e-07
7.5686985e-07
7.5688512e-07
7.5692641e-07
7.5693548e-07
7.5701149e-07
7.5711061e-07
7.573582e-07
7.577334e-07
7.5851182e-07
7.5924615e-07
7.6086982e-07
7.620745e-07
7.645485e-07
7.6615665e-07
7.6940938e-07
7.7145829e-07
7.7567256e-07
7.7822239e-07
7.8360144e-07
7.8670972e-07
7.931777e-07
7.9681017e-07
8.0446313e-07
8.0858118e-07
8.1739237e-07
8.2222516e-07
8.3221257e-07
8.3772293e-07
8.499975e-07
8.3519096e-07
9.0880233e-07
9.2312922e-07
8.6795187e-07
8.0200309e-07
7.5953436e-07
7.4950538e-07
7.6614109e-07
7.9339365e-07
8.1671344e-07
8.2841975e-07
8.2591094e-07
8.1433503e-07
7.9954284e-07
7.8610874e-07
7.760719e-07
7.6928644e-07
7.6487978e-07
7.6236157e-07
7.6064099e-07
7.595676e-07
7.5850032e-07
7.5780484e-07
7.5739215e-07
7.5730049e-07
7.5723992e-07
7.573005e-07
7.5729351e-07
7.5730766e-07
7.5730245e-07
7.5733884e-07
7.5740754e-07
7.575177e-07
7.5777756e-07
7.5841556e-07
7.5905377e-07
7.604696e-07
7.6153479e-07
7.638273e-07
7.6526483e-07
7.6829665e-07
7.7012528e-07
7.7395642e-07
7.7630052e-07
7.8116417e-07
7.83975e-07
7.8986392e-07
7.9327153e-07
7.9999542e-07
8.0398703e-07
8.1175497e-07
8.1613085e-07
8.2488797e-07
8.2974001e-07
8.4024114e-07
8.3525298e-07
9.0882649e-07
9.2360214e-07
8.6904284e-07
8.0324151e-07
7.6019823e-07
7.4918351e-07
7.6502191e-07
7.9202437e-07
8.1567694e-07
8.2806394e-07
8.2627127e-07
8.1517388e-07
8.0055525e-07
7.8701887e-07
7.7688038e-07
7.6993361e-07
7.654311e-07
7.6284829e-07
7.6111392e-07
7.6009761e-07
7.5902333e-07
7.5831364e-07
7.5792838e-07
7.5784818e-07
7.5776916e-07
7.5778825e-07
7.5776843e-07
7.5777091e-07
7.5775204e-07
7.5775944e-07
7.5775726e-07
7.578299e-07
7.5799231e-07
7.5846254e-07
7.5900569e-07
7.6022235e-07
7.6119035e-07
7.63252e-07
7.645836e-07
7.6734286e-07
7.6899851e-07
7.7248008e-07
7.7456546e-07
7.7892764e-07
7.8152792e-07
7.8693202e-07
7.8987213e-07
7.9631905e-07
7.9970324e-07
8.0702641e-07
8.1088137e-07
8.1894592e-07
8.2312795e-07
8.3253457e-07
8.3538299e-07
9.087625e-07
9.2415085e-07
8.7023337e-07
8.0454577e-07
7.6086945e-07
7.4879991e-07
7.6384319e-07
7.906861e-07
8.1475379e-07
8.2786508e-07
8.2678871e-07
8.1615076e-07
8.0167625e-07
7.8800846e-07
7.7769208e-07
7.7055733e-07
7.6596192e-07
7.6338272e-07
7.6159943e-07
7.605846e-07
7.5953344e-07
7.5882238e-07
7.5842145e-07
7.5833187e-07
7.5825435e-07
7.5828879e-07
7.5827744e-07
7.5827013e-07
7.5822981e-07
7.5821672e-07
7.5817756e-07
7.5823595e-07
7.5833079e-07
7.5862919e-07
7.5907207e-07
7.6008667e-07
7.609517e-07
7.6280974e-07
7.640509e-07
7.665698e-07
7.6811071e-07
7.712646e-07
7.731378e-07
7.7713411e-07
7.7946113e-07
7.8430808e-07
7.8714947e-07
7.9288282e-07
7.9616658e-07
8.0287069e-07
8.0633446e-07
8.1384518e-07
8.1767267e-07
8.2589057e-07
8.3560005e-07
9.086897e-07
9.2475796e-07
8.7143164e-07
8.0582535e-07
7.6155878e-07
7.4849211e-07
7.6274125e-07
7.8935806e-07
8.1373519e-07
8.2749893e-07
8.2709011e-07
8.1692611e-07
8.0263154e-07
7.8895873e-07
7.7846507e-07
7.7113281e-07
7.6639505e-07
7.6380998e-07
7.6207412e-07
7.6106256e-07
7.600127e-07
7.593e-07
7.5887977e-07
7.5878864e-07
7.5873554e-07
7.5877325e-07
7.5874427e-07
7.5872041e-07
7.5867942e-07
7.5867826e-07
7.5863727e-07
7.5866228e-07
7.58745e-07
7.589267e-07
7.5928435e-07
7.601285e-07
7.6087972e-07
7.625304e-07
7.6363347e-07
7.659593e-07
7.6735517e-07
7.702289e-07
7.7196832e-07
7.7555802e-07
7.7769016e-07
7.8212652e-07
7.8473582e-07
7.8991097e-07
7.9301947e-07
7.9899173e-07
8.0250518e-07
8.0919259e-07
8.1264886e-07
8.2005402e-07
8.3581336e-07
9.0863721e-07
9.2539383e-07
8.7264149e-07
8.0713727e-07
7.622865e-07
7.4822871e-07
7.6165572e-07
7.8801787e-07
8.1269958e-07
8.271491e-07
8.2750024e-07
8.1784675e-07
8.0373267e-07
7.8997303e-07
7.7929103e-07
7.7172664e-07
7.6687174e-07
7.6419583e-07
7.6246404e-07
7.6150612e-07
7.6043223e-07
7.5974646e-07
7.5935926e-07
7.5928607e-07
7.5923925e-07
7.592657e-07
7.5923871e-07
7.5923934e-07
7.592156e-07
7.5921699e-07
7.5918185e-07
7.5917782e-07
7.5923687e-07
7.5933932e-07
7.5960267e-07
7.6029583e-07
7.6096801e-07
7.6241644e-07
7.634447e-07
7.6555666e-07
7.6685527e-07
7.695166e-07
7.7108082e-07
7.7434781e-07
7.7627148e-07
7.8034723e-07
7.8255059e-07
7.8741964e-07
7.9006364e-07
7.9579146e-07
7.9901686e-07
8.0470013e-07
8.0806719e-07
8.1560638e-07
8.3617111e-07
9.0863462e-07
9.2608117e-07
8.7388273e-07
8.0846147e-07
7.6302482e-07
7.4796153e-07
7.6057201e-07
7.8669976e-07
8.1169296e-07
8.2683454e-07
8.2791965e-07
8.1877797e-07
8.0485425e-07
7.9096256e-07
7.8009255e-07
7.7230153e-07
7.6732469e-07
7.6461458e-07
7.6284192e-07
7.619046e-07
7.6081555e-07
7.6013342e-07
7.5976864e-07
7.597278e-07
7.5969329e-07
7.5975383e-07
7.5975017e-07
7.5977936e-07
7.597707e-07
7.5977072e-07
7.5974191e-07
7.597416e-07
7.5976326e-07
7.5985081e-07
7.6004079e-07
7.6059619e-07
7.6118008e-07
7.6244337e-07
7.6335568e-07
7.6530211e-07
7.6649685e-07
7.6893929e-07
7.7035836e-07
7.7337088e-07
7.7512636e-07
7.7873751e-07
7.8095573e-07
7.8478091e-07
7.8806237e-07
7.9310462e-07
7.9547032e-07
8.0072286e-07
8.0499678e-07
8.1142506e-07
8.3642544e-07
9.0864714e-07
9.2677907e-07
8.7512317e-07
8.0980791e-07
7.6379271e-07
7.477341e-07
7.595141e-07
7.8539267e-07
8.1068552e-07
8.2653354e-07
8.2834254e-07
8.1972989e-07
8.0597615e-07
7.9203086e-07
7.8093192e-07
7.729355e-07
7.6777055e-07
7.6498636e-07
7.6322879e-07
7.6229934e-07
7.6119074e-07
7.6051484e-07
7.6011999e-07
7.6006879e-07
7.6004429e-07
7.6017068e-07
7.6021678e-07
7.6026995e-07
7.6026765e-07
7.6027321e-07
7.6026922e-07
7.6029595e-07
7.6029669e-07
7.6038561e-07
7.6049765e-07
7.609307e-07
7.6146575e-07
7.6263434e-07
7.6349939e-07
7.6533105e-07
7.6645731e-07
7.6867873e-07
7.7000466e-07
7.726411e-07
7.7429482e-07
7.7763386e-07
7.7966857e-07
7.8285037e-07
7.8654061e-07
7.9049156e-07
7.9275794e-07
7.9768388e-07
8.0232707e-07
8.0754058e-07
8.3697977e-07
9.0880604e-07
9.2757627e-07
8.7640423e-07
8.1117159e-07
7.6456459e-07
7.474812e-07
7.58446e-07
7.8412856e-07
8.09817e-07
8.2641648e-07
8.2900639e-07
8.2088907e-07
8.0724806e-07
7.9324773e-07
7.8185664e-07
7.7359122e-07
7.6826241e-07
7.6532116e-07
7.6349768e-07
7.626332e-07
7.6153721e-07
7.6083037e-07
7.6045317e-07
7.6043432e-07
7.6043318e-07
7.6056509e-07
7.6061411e-07
7.6072226e-07
7.6077042e-07
7.6081959e-07
7.6085788e-07
7.6091077e-07
7.6091552e-07
7.6096239e-07
7.6104974e-07
7.6138349e-07
7.6187652e-07
7.629108e-07
7.6369327e-07
7.6536865e-07
7.6640927e-07
7.6851836e-07
7.6965841e-07
7.7217465e-07
7.7362152e-07
7.7671082e-07
7.7852124e-07
7.8147268e-07
7.8512838e-07
7.8811027e-07
7.9085552e-07
7.949484e-07
7.996559e-07
8.0473317e-07
8.3724264e-07
9.0900247e-07
9.2842171e-07
8.7772234e-07
8.1254366e-07
7.6532915e-07
7.4727033e-07
7.5744585e-07
7.8291953e-07
8.0891509e-07
8.2618802e-07
8.2953756e-07
8.2193187e-07
8.0848119e-07
7.9435407e-07
7.8275932e-07
7.7421318e-07
7.6873082e-07
7.6565991e-07
7.638188e-07
7.6291305e-07
7.6179374e-07
7.6110732e-07
7.6071281e-07
7.6072054e-07
7.6073498e-07
7.6089746e-07
7.6100588e-07
7.6116624e-07
7.612568e-07
7.6132099e-07
7.6137923e-07
7.6146513e-07
7.6151712e-07
7.6152649e-07
7.6163378e-07
7.6185374e-07
7.6230762e-07
7.6331835e-07
7.6411033e-07
7.658406e-07
7.6689739e-07
7.6865427e-07
7.6969296e-07
7.717894e-07
7.7320803e-07
7.7610807e-07
7.7799882e-07
7.8062442e-07
7.8365991e-07
7.8648948e-07
7.8945743e-07
7.9333093e-07
7.9799421e-07
8.0207991e-07
8.381145e-07
9.0932644e-07
9.2924623e-07
8.7901016e-07
8.139693e-07
7.6613678e-07
7.470208e-07
7.5639777e-07
7.817074e-07
8.0811526e-07
8.2611389e-07
8.3024785e-07
8.2307022e-07
8.097255e-07
7.9545663e-07
7.8352317e-07
7.7474748e-07
7.6904482e-07
7.6585829e-07
7.6391924e-07
7.6307374e-07
7.6196526e-07
7.6118055e-07
7.6079877e-07
7.608386e-07
7.6087589e-07
7.6102754e-07
7.611785e-07
7.6139883e-07
7.6153172e-07
7.6167739e-07
7.6180496e-07
7.6192879e-07
7.6202286e-07
7.6203981e-07
7.6215838e-07
7.6232838e-07
7.6271629e-07
7.6361e-07
7.6431532e-07
7.658786e-07
7.6692088e-07
7.6866575e-07
7.6962878e-07
7.7157255e-07
7.728882e-07
7.7561074e-07
7.7734612e-07
7.7986613e-07
7.8234296e-07
7.854074e-07
7.8819877e-07
7.9169858e-07
7.9650613e-07
7.9972904e-07
8.38236e-07
9.0956702e-07
9.3013562e-07
8.8035948e-07
8.1534244e-07
7.6692687e-07
7.4687384e-07
7.5544386e-07
7.8047736e-07
8.0712535e-07
8.2569941e-07
8.3042363e-07
8.2363405e-07
8.1033464e-07
7.9592579e-07
7.8376832e-07
7.7464858e-07
7.6877109e-07
7.6538671e-07
7.6347312e-07
7.6256223e-07
7.6149115e-07
7.6075529e-07
7.6026114e-07
7.6026766e-07
7.6033777e-07
7.6057015e-07
7.6080213e-07
7.6109048e-07
7.6130955e-07
7.6149396e-07
7.6173337e-07
7.6200098e-07
7.6217474e-07
7.6223634e-07
7.6229192e-07
7.6243397e-07
7.6280053e-07
7.6370004e-07
7.6465314e-07
7.6657468e-07
7.6771296e-07
7.6892818e-07
7.6964659e-07
7.7116674e-07
7.7301531e-07
7.7550469e-07
7.76913e-07
7.7895273e-07
7.8069537e-07
7.8409127e-07
7.8726488e-07
7.9122388e-07
7.951159e-07
7.97489e-07
8.3946528e-07
9.1041313e-07
9.312894e-07
8.8146416e-07
8.1655465e-07
7.6777508e-07
7.4685214e-07
7.5446861e-07
7.7892607e-07
8.0558206e-07
8.2432721e-07
8.2941512e-07
8.226854e-07
8.0925235e-07
7.9462476e-07
7.8203443e-07
7.7269397e-07
7.6655278e-07
7.6296066e-07
7.6083969e-07
7.6011391e-07
7.5909807e-07
7.5824715e-07
7.578624e-07
7.5790858e-07
7.5801216e-07
7.5826621e-07
7.5854403e-07
7.5891311e-07
7.5926447e-07
7.5958743e-07
7.5996754e-07
7.6029551e-07
7.6058801e-07
7.6077959e-07
7.6095724e-07
7.6116905e-07
7.6150625e-07
7.6239865e-07
7.6310524e-07
7.6468329e-07
7.6594828e-07
7.6747642e-07
7.6836537e-07
7.6972034e-07
7.7150361e-07
7.735142e-07
7.7538801e-07
7.7717827e-07
7.7919986e-07
7.8288467e-07
7.8501982e-07
7.8879112e-07
7.9189153e-07
7.9513265e-07
8.3935865e-07
9.1003109e-07
9.316393e-07
8.8180824e-07
8.170977e-07
7.6807837e-07
7.459478e-07
7.5186624e-07
7.750371e-07
8.011072e-07
8.1951578e-07
8.2446718e-07
8.1786983e-07
8.0468746e-07
7.902008e-07
7.7752495e-07
7.6762995e-07
7.6083909e-07
7.5662727e-07
7.5425892e-07
7.5324409e-07
7.5241516e-07
7.5172255e-07
7.5126305e-07
7.5139609e-07
7.5157522e-07
7.5200782e-07
7.5258627e-07
7.5327826e-07
7.5367595e-07
7.540405e-07
7.5431211e-07
7.5467649e-07
7.5514873e-07
7.5551162e-07
7.5561972e-07
7.5579298e-07
7.559927e-07
7.5659992e-07
7.5814119e-07
7.6066666e-07
7.6212839e-07
7.6282481e-07
7.6345006e-07
7.6504719e-07
7.6705476e-07
7.6869657e-07
7.7091851e-07
7.7244122e-07
7.7379184e-07
7.7653586e-07
7.7922019e-07
7.8334402e-07
7.8663024e-07
7.8910825e-07
8.4054748e-07
9.0937111e-07
9.3141794e-07
8.7800905e-07
8.1309132e-07
7.6404727e-07
7.3904318e-07
7.4022866e-07
7.5936013e-07
7.8336233e-07
7.9983762e-07
8.0526737e-07
8.0245481e-07
7.9564003e-07
7.8814985e-07
7.799446e-07
7.7157364e-07
7.6476272e-07
7.5876514e-07
7.5615581e-07
7.5290692e-07
7.5333588e-07
7.535367e-07
7.5421477e-07
7.5530883e-07
7.5651832e-07
7.5798551e-07
7.6119858e-07
7.6230317e-07
7.6333609e-07
7.634812e-07
7.6302955e-07
7.6283016e-07
7.6125222e-07
7.5948728e-07
7.5786409e-07
7.5799357e-07
7.585291e-07
7.5930881e-07
7.6182904e-07
7.6806682e-07
7.6968722e-07
7.6920168e-07
7.6807492e-07
7.681452e-07
7.6840871e-07
7.6888399e-07
7.697029e-07
7.7058889e-07
7.7099537e-07
7.7156043e-07
7.7313703e-07
7.7444229e-07
7.7834116e-07
7.8027926e-07
8.3132584e-07
9.0174844e-07
9.5284846e-07
8.9761996e-07
8.2043649e-07
7.6450224e-07
7.3845937e-07
7.4992484e-07
7.7687859e-07
8.0058197e-07
8.2020626e-07
8.150077e-07
8.3239971e-07
8.4679951e-07
8.7474394e-07
8.8984747e-07
8.9800858e-07
8.9861149e-07
8.928404e-07
8.9469313e-07
8.8859473e-07
8.9756131e-07
9.0109978e-07
9.1060994e-07
9.1156335e-07
9.230811e-07
9.2666504e-07
9.4172933e-07
9.4481596e-07
9.4628672e-07
9.4338169e-07
9.4073582e-07
9.3660228e-07
9.2571208e-07
9.1649926e-07
9.0197346e-07
9.0261361e-07
9.1391689e-07
9.1761492e-07
9.2945881e-07
9.663136e-07
9.787023e-07
9.7407328e-07
9.5642268e-07
9.4446408e-07
9.3217655e-07
9.2259698e-07
9.1639422e-07
9.0116707e-07
8.8970085e-07
8.7978975e-07
8.7361686e-07
8.7052948e-07
8.6958851e-07
8.6323108e-07
7.5104391e-07
1.1926026e-06
1.3665087e-06
1.5719856e-06
1.4737978e-06
1.2420274e-06
1.2048226e-06
1.2547453e-06
1.4293503e-06
1.4598434e-06
1.3774948e-06
1.2171815e-06
1.2018692e-06
1.2473703e-06
1.3418298e-06
1.3863301e-06
1.4153916e-06
1.4327453e-06
1.4430843e-06
1.4867223e-06
1.4474776e-06
1.527516e-06
1.5222935e-06
1.5610575e-06
1.548935e-06
1.6051541e-06
1.5808597e-06
1.6280907e-06
1.6153555e-06
1.620623e-06
1.5901229e-06
1.585499e-06
1.5615021e-06
1.4957916e-06
1.5286586e-06
1.4566642e-06
1.4775146e-06
1.5795912e-06
1.5390587e-06
1.5587188e-06
1.6848784e-06
1.716695e-06
1.6709403e-06
1.5897517e-06
1.5086226e-06
1.5018292e-06
1.4479949e-06
1.4310676e-06
1.4104211e-06
1.3970863e-06
1.3569173e-06
1.3012125e-06
1.2825067e-06
1.2777387e-06
1.2615516e-06
3.6501361e-07
1.1382312e-06
1.8636464e-06
2.1086556e-06
2.370052e-06
2.4614359e-06
2.4856927e-06
2.5289954e-06
2.4671608e-06
2.329011e-06
2.2653185e-06
2.2157888e-06
2.4325022e-06
2.5042641e-06
2.6392887e-06
2.6432462e-06
2.6300546e-06
2.5808075e-06
2.5471168e-06
2.5232072e-06
2.4921139e-06
2.5215244e-06
2.3704529e-06
2.5511807e-06
2.3866377e-06
2.6030032e-06
2.3534164e-06
2.6517179e-06
2.3497244e-06
2.6823273e-06
2.3775244e-06
2.7118631e-06
2.3925073e-06
2.6599471e-06
2.3757927e-06
2.4641894e-06
2.547696e-06
2.4542154e-06
2.2865606e-06
2.4383741e-06
2.2262673e-06
2.3097333e-06
2.1299696e-06
2.2117577e-06
2.2222012e-06
2.1130473e-06
2.1226284e-06
2.0170071e-06
2.0392476e-06
2.0505291e-06
1.8948878e-06
1.9500758e-06
1.8903978e-06
1.8667113e-06
1.8298285e-06
1.6748759e-06
1.2540762e-06
8.6731169e-07
7.8239187e-07
7.9085828e-07
7.9733311e-07
7.9991033e-07
8.0232688e-07
8.0426802e-07
8.0738731e-07
8.1076767e-07
8.1465375e-07
8.1921352e-07
8.2432159e-07
8.3028195e-07
8.3709589e-07
8.4525718e-07
8.5544892e-07
8.6912054e-07
8.870199e-07
9.0576517e-07
9.1976298e-07
9.3211201e-07
9.5451608e-07
9.8726994e-07
1.0259041e-06
1.0586711e-06
1.6867913e-06
1.3368247e-06
9.0837602e-07
7.9190729e-07
7.9594803e-07
8.0312084e-07
8.0552211e-07
8.0870902e-07
8.1051208e-07
8.1388002e-07
8.1719416e-07
8.2114137e-07
8.2600041e-07
8.3167098e-07
8.3783224e-07
8.4498791e-07
8.5311157e-07
8.6240583e-07
8.7526249e-07
8.9221705e-07
9.1214895e-07
9.2785076e-07
9.382618e-07
9.5870341e-07
9.8981559e-07
1.0297244e-06
1.0615243e-06
1.5439993e-06
1.3892309e-06
9.4206731e-07
8.0258647e-07
8.0073448e-07
8.0876764e-07
8.1148895e-07
8.134829e-07
8.1563246e-07
8.1862138e-07
8.2216652e-07
8.2664667e-07
8.3130035e-07
8.3691589e-07
8.4347752e-07
8.508978e-07
8.5959903e-07
8.7012627e-07
8.8346765e-07
9.0105612e-07
9.2203521e-07
9.4073875e-07
9.5221293e-07
9.6775463e-07
9.9670293e-07
1.0381644e-06
1.0672126e-06
1.3561114e-06
1.3092485e-06
9.3440726e-07
8.043974e-07
8.0250468e-07
8.1112681e-07
8.1436104e-07
8.1866044e-07
8.2079824e-07
8.2463111e-07
8.2881891e-07
8.3415177e-07
8.3995864e-07
8.4582095e-07
8.5197727e-07
8.5867727e-07
8.6620588e-07
8.761924e-07
8.8783755e-07
9.0497736e-07
9.2638124e-07
9.4729002e-07
9.6215276e-07
9.7702222e-07
1.0017066e-06
1.0496814e-06
1.0801066e-06
1.3791449e-06
1.266983e-06
9.3355454e-07
8.074667e-07
8.0619096e-07
8.1547321e-07
8.1960608e-07
8.2527941e-07
8.2811584e-07
8.3219162e-07
8.3582134e-07
8.4010617e-07
8.4506586e-07
8.5171973e-07
8.5876047e-07
8.6692361e-07
8.7561167e-07
8.854078e-07
8.9720412e-07
9.1273465e-07
9.3348029e-07
9.5321133e-07
9.6932596e-07
9.8482465e-07
1.0056884e-06
1.0527894e-06
1.0875738e-06
1.2100787e-06
1.1726021e-06
9.3595777e-07
8.1663186e-07
8.1264475e-07
8.2344163e-07
8.2813779e-07
8.3253681e-07
8.3464969e-07
8.3936446e-07
8.4382778e-07
8.4877828e-07
8.5362253e-07
8.5930133e-07
8.6601348e-07
8.7376121e-07
8.8369741e-07
8.9363747e-07
9.0662853e-07
9.2241813e-07
9.436702e-07
9.6464739e-07
9.8281408e-07
9.9889692e-07
1.0167247e-06
1.0572765e-06
1.0915302e-06
1.1177637e-06
1.1278127e-06
9.2705327e-07
8.2098577e-07
8.1549948e-07
8.2825912e-07
8.3405941e-07
8.397348e-07
8.429041e-07
8.4716041e-07
8.5150884e-07
8.570977e-07
8.6303268e-07
8.6907427e-07
8.7610504e-07
8.8358858e-07
8.9288509e-07
9.0246215e-07
9.1454074e-07
9.2901413e-07
9.4926013e-07
9.7434877e-07
9.9198868e-07
1.0130873e-06
1.0288593e-06
1.0687374e-06
1.1000364e-06
9.5574992e-07
1.05947e-06
9.2009132e-07
8.2408384e-07
8.1835865e-07
8.3155146e-07
8.3830674e-07
8.4627998e-07
8.4886578e-07
8.5404782e-07
8.5888054e-07
8.6530746e-07
8.7208081e-07
8.7916443e-07
8.8660907e-07
8.9500291e-07
9.0377931e-07
9.1462364e-07
9.2524047e-07
9.3925705e-07
9.5822362e-07
9.8157865e-07
1.000339e-06
1.0231361e-06
1.0381861e-06
1.0752548e-06
1.1083562e-06
8.5729156e-07
9.6079263e-07
9.1086445e-07
8.258667e-07
8.2443603e-07
8.3754279e-07
8.4637755e-07
8.5537253e-07
8.5946677e-07
8.6434306e-07
8.6851604e-07
8.7392117e-07
8.7996453e-07
8.8706778e-07
8.9496548e-07
9.0415159e-07
9.1374758e-07
9.2542435e-07
9.3580267e-07
9.5031071e-07
9.6805205e-07
9.9096547e-07
1.0101903e-06
1.033243e-06
1.0508359e-06
1.084661e-06
1.1170424e-06
6.3542489e-07
9.1372279e-07
8.986747e-07
8.3011762e-07
8.3324924e-07
8.4731861e-07
8.5739713e-07
8.6566087e-07
8.6963281e-07
8.7421308e-07
8.7868697e-07
8.841506e-07
8.9010434e-07
8.9678421e-07
9.0410639e-07
9.1311263e-07
9.235279e-07
9.351999e-07
9.4831495e-07
9.6164118e-07
9.8068894e-07
1.0031754e-06
1.0219185e-06
1.0456879e-06
1.0622064e-06
1.0943705e-06
1.1271639e-06
4.4596206e-07
7.790128e-07
8.6860739e-07
7.2965834e-07
7.4216085e-07
8.6223212e-07
8.7221969e-07
8.785126e-07
8.8351088e-07
8.878718e-07
8.9172401e-07
8.9566061e-07
9.0045583e-07
9.0621929e-07
9.127377e-07
9.2053565e-07
9.2990342e-07
9.4092641e-07
9.5381655e-07
9.6686155e-07
9.8583309e-07
1.0106973e-06
1.0312375e-06
1.0580971e-06
1.0752183e-06
1.1063445e-06
1.1404459e-06
3.9756399e-07
6.5039241e-07
8.5007136e-07
7.0757897e-07
7.0179791e-07
8.7033313e-07
8.8142162e-07
8.8706187e-07
8.8974666e-07
8.9351652e-07
8.9902531e-07
9.0544051e-07
9.1225732e-07
9.1968042e-07
9.2760645e-07
9.3615566e-07
9.4522256e-07
9.5513549e-07
9.6684722e-07
9.7946389e-07
9.9434333e-07
1.0173875e-06
1.0369473e-06
1.0631512e-06
1.083585e-06
1.1139447e-06
1.1485936e-06
4.0277804e-07
6.4664075e-07
8.5408029e-07
7.9697598e-07
7.7484462e-07
8.7258689e-07
8.8378076e-07
8.9298225e-07
8.9877166e-07
9.0264535e-07
9.0626917e-07
9.1221968e-07
9.1906006e-07
9.2681072e-07
9.3597434e-07
9.4609692e-07
9.568521e-07
9.6947191e-07
9.8165123e-07
9.9578939e-07
1.010698e-06
1.0330866e-06
1.0511737e-06
1.0756186e-06
1.0950768e-06
1.1234102e-06
1.1591421e-06
2.834314e-07
6.6173825e-07
8.6689413e-07
8.5565342e-07
8.3613542e-07
8.7630517e-07
8.9260361e-07
9.0329307e-07
9.1149909e-07
9.1744784e-07
9.2307422e-07
9.2748995e-07
9.3261788e-07
9.3890073e-07
9.4635707e-07
9.5481625e-07
9.6517297e-07
9.7647063e-07
9.8913331e-07
1.0026849e-06
1.018118e-06
1.0408355e-06
1.0599831e-06
1.0849528e-06
1.1045897e-06
1.131614e-06
1.1668419e-06
1.5692268e-07
6.2844345e-07
8.6383213e-07
8.0771611e-07
7.5900637e-07
7.7016866e-07
9.035076e-07
9.1254475e-07
9.2114205e-07
9.2805942e-07
9.346343e-07
9.4130938e-07
9.4764362e-07
9.5458719e-07
9.6217084e-07
9.7114411e-07
9.8138102e-07
9.9275496e-07
1.005673e-06
1.0182293e-06
1.0324815e-06
1.0545144e-06
1.0725694e-06
1.0971903e-06
1.1159224e-06
1.1373532e-06
1.1720773e-06
9.1473712e-08
5.5789773e-07
8.6228853e-07
7.3616668e-07
7.0531956e-07
7.0624532e-07
9.1362235e-07
9.2754238e-07
9.3588236e-07
9.410668e-07
9.4535915e-07
9.5138357e-07
9.5811904e-07
9.6551576e-07
9.7324237e-07
9.8225749e-07
9.9192759e-07
1.0038756e-06
1.0173685e-06
1.0316609e-06
1.0451907e-06
1.0675417e-06
1.0869311e-06
1.1126894e-06
1.1334929e-06
1.1512758e-06
1.1845907e-06
7.4356062e-08
4.4991038e-07
8.6304624e-07
7.5337341e-07
6.7549281e-07
6.9027799e-07
8.8970241e-07
9.4201934e-07
9.513208e-07
9.5800624e-07
9.6207864e-07
9.6662742e-07
9.7204971e-07
9.7868535e-07
9.8637107e-07
9.9485822e-07
1.0042025e-06
1.014974e-06
1.0273654e-06
1.0412844e-06
1.0540504e-06
1.07474e-06
1.0938681e-06
1.1202566e-06
1.1437457e-06
1.160009e-06
1.1911693e-06
7.4443764e-08
3.6177085e-07
8.1136465e-07
7.5447791e-07
6.7093512e-07
7.0378268e-07
8.3485864e-07
9.5259439e-07
9.6159903e-07
9.6919324e-07
9.748483e-07
9.8009617e-07
9.8546424e-07
9.9233551e-07
1.000249e-06
1.0094932e-06
1.0193312e-06
1.0305478e-06
1.0425784e-06
1.0563396e-06
1.0689756e-06
1.088943e-06
1.1061267e-06
1.1304459e-06
1.1561554e-06
1.1712291e-06
1.1985963e-06
8.259301e-08
3.153126e-07
7.4648754e-07
7.5128859e-07
6.6087758e-07
6.9979675e-07
7.9699891e-07
9.6346972e-07
9.7344491e-07
9.8206677e-07
9.8857039e-07
9.9473775e-07
1.000466e-06
1.006398e-06
1.0133519e-06
1.0215771e-06
1.0310588e-06
1.0419294e-06
1.0541972e-06
1.0685528e-06
1.0810349e-06
1.102549e-06
1.1191379e-06
1.1416726e-06
1.1697274e-06
1.1859299e-06
1.2094633e-06
9.8111278e-08
2.968026e-07
7.0430658e-07
7.7141975e-07
6.6812883e-07
6.756689e-07
7.6803659e-07
9.7369538e-07
9.8654781e-07
9.9532252e-07
1.0017998e-06
1.0084605e-06
1.0152755e-06
1.0221628e-06
1.0297192e-06
1.03747e-06
1.0467388e-06
1.0564667e-06
1.067267e-06
1.0815588e-06
1.0919263e-06
1.1125223e-06
1.1289036e-06
1.1492715e-06
1.1781891e-06
1.1955066e-06
1.2181286e-06
1.2077715e-07
2.8308659e-07
6.733538e-07
7.8241507e-07
6.8266004e-07
6.7080953e-07
7.4172226e-07
9.8391707e-07
9.992754e-07
1.0082112e-06
1.0142865e-06
1.0205361e-06
1.0277111e-06
1.0356557e-06
1.043973e-06
1.0526678e-06
1.0626815e-06
1.0724597e-06
1.0833796e-06
1.0979914e-06
1.1075711e-06
1.1276121e-06
1.1440642e-06
1.1627879e-06
1.1909493e-06
1.2088183e-06
1.2297973e-06
1.5032006e-07
2.8136066e-07
6.5744759e-07
7.8394356e-07
6.8077304e-07
6.9810384e-07
7.3790823e-07
9.2568159e-07
1.0136974e-06
1.0234294e-06
1.0289863e-06
1.0341524e-06
1.040355e-06
1.0474022e-06
1.0552577e-06
1.0648175e-06
1.0743233e-06
1.0849366e-06
1.0952221e-06
1.1097558e-06
1.1186237e-06
1.1377571e-06
1.1544103e-06
1.1704076e-06
1.1998286e-06
1.2183468e-06
1.2397309e-06
1.862217e-07
2.9197755e-07
6.4606105e-07
7.91143e-07
6.8691727e-07
7.1764142e-07
7.4477437e-07
8.8396916e-07
1.022222e-06
1.0332348e-06
1.041463e-06
1.0472526e-06
1.0536263e-06
1.0602769e-06
1.0681376e-06
1.0775243e-06