/*--------------------------------*- C++ -*----------------------------------*\
| =========                 |                                                 |
| \\      /  F ield         | OpenFOAM: The Open Source CFD Toolbox           |
|  \\    /   O peration     | Version:  2406                                  |
|   \\  /    A nd           | Website:  www.openfoam.com                      |
|    \\/     M anipulation  |                                                 |
\*---------------------------------------------------------------------------*/
FoamFile
{
    version     2.0;
    format      ascii;
    arch        "LSB;label=32;scalar=64";
    class       volScalarField;
    location    "9";
    object      omega_0;
}
// * * * * * * * * * * * * * * * * * * * * * * * * * * * * * * * * * * * * * //

dimensions      [0 0 -1 0 0 0 0];

internalField   nonuniform List<scalar> 
62344
(
4.3461609
3.4613093
2.8418007
2.4501838
2.198473
2.021345
1.8841545
1.7723412
1.676635
1.585062
1.4980948
1.4129056
1.3363398
1.2678756
1.2130642
1.170497
1.1402882
1.1178453
1.1028593
1.0942894
1.0891665
1.0861255
1.0843988
1.0825479
1.0827388
1.081217
1.0831264
1.0858388
1.0875138
1.0911081
1.0985411
1.1179399
1.1355752
1.1522697
1.1760938
1.2294415
1.2996665
1.3900702
1.458255
1.5532072
1.6346584
1.7467348
1.8511737
1.9349988
2.0066148
2.0696817
2.1674105
2.2564956
2.3517442
2.4268795
2.5247379
2.6131126
2.7739
2.900528
3.0831422
4.3503348
3.4690072
2.8502611
2.456917
2.2052873
2.0276761
1.8909907
1.7792025
1.6810914
1.5915955
1.5042462
1.4203197
1.3418469
1.2749884
1.2193269
1.1752225
1.1427188
1.1194982
1.1019349
1.0921849
1.0869107
1.0823889
1.0799864
1.0782441
1.0796437
1.0777287
1.078856
1.0805863
1.0816548
1.0822371
1.0854596
1.0994613
1.1126916
1.1237806
1.1369818
1.171084
1.214856
1.2788644
1.3322759
1.4322543
1.5243151
1.6513821
1.7612284
1.8634229
1.9526794
2.0186102
2.120941
2.221306
2.368331
2.4816291
2.6044597
2.7016642
2.7821219
2.9264367
3.0913883
4.3547017
3.4760261
2.856955
2.4616305
2.2091503
2.0317218
1.8947776
1.7830229
1.6858235
1.595651
1.5078821
1.4248084
1.3470951
1.2798685
1.2245309
1.1794906
1.1456819
1.1227365
1.1053741
1.095353
1.0889765
1.0840459
1.0812402
1.078135
1.0790795
1.0776858
1.0790547
1.0807273
1.0815269
1.0828
1.0870881
1.1022724
1.1154872
1.1285022
1.1407332
1.1710967
1.2036023
1.2461105
1.2846272
1.3558556
1.4333508
1.5287475
1.6307547
1.717173
1.8243272
1.9032019
2.0404879
2.1390779
2.306416
2.4248657
2.5448885
2.6370468
2.6966526
2.8275257
2.999748
4.3588027
3.4831602
2.8639509
2.4678792
2.2151397
2.0367738
1.8985729
1.787323
1.6917317
1.6011868
1.5148104
1.4305439
1.354818
1.2866437
1.2284693
1.1837419
1.1495984
1.1257408
1.1074373
1.0966279
1.0898093
1.0843501
1.0823127
1.0794163
1.0788387
1.0772694
1.0792577
1.080996
1.082062
1.0825877
1.088382
1.1041391
1.1151725
1.1280479
1.1412666
1.1700874
1.1968276
1.2330452
1.2738093
1.3179762
1.4104581
1.4687499
1.5580551
1.6162181
1.7226697
1.8076602
1.9111591
2.0064556
2.1582195
2.2985672
2.456859
2.5459414
2.6791025
2.7635195
2.9375783
4.3628021
3.4903134
2.8696253
2.4728547
2.2187471
2.0397469
1.9022755
1.7916728
1.695216
1.605952
1.520668
1.4372602
1.3614804
1.2924165
1.2336569
1.1887863
1.1528151
1.1272684
1.1091787
1.0980095
1.0900081
1.0852522
1.0825957
1.0803576
1.0790884
1.076932
1.0793068
1.0813469
1.0826267
1.0833143
1.0907724
1.1044767
1.1135632
1.1254897
1.1394435
1.1672494
1.1899952
1.221348
1.2522675
1.2925574
1.3711891
1.4217552
1.5038342
1.5682845
1.6698233
1.7386498
1.8571738
1.9441222
2.062631
2.1388004
2.2646099
2.350398
2.5064727
2.6092285
2.7768963
4.3661958
3.4970536
2.8762422
2.4786633
2.2227723
2.0433353
1.9066672
1.7961314
1.6994526
1.6129885
1.5281471
1.4466621
1.3689167
1.2990171
1.2400404
1.193899
1.1575785
1.1307875
1.112341
1.1005575
1.091793
1.0873278
1.0838656
1.0820934
1.0805362
1.0778061
1.0796536
1.0817085
1.0835208
1.0848194
1.0933185
1.1059741
1.1139221
1.1238801
1.1382111
1.1634334
1.1854097
1.2085785
1.2366647
1.2718273
1.3372833
1.3806164
1.4569127
1.5170611
1.6160246
1.6951761
1.8249244
1.9076238
2.0222637
2.0763819
2.1857362
2.2731863
2.4157838
2.5330663
2.6896577
4.3696078
3.5025688
2.8817139
2.4827107
2.2262768
2.0471185
1.9105862
1.7997307
1.7032579
1.616648
1.5319931
1.4505871
1.3728627
1.30276
1.2431224
1.1960932
1.1594973
1.1326544
1.1135137
1.1015562
1.093017
1.0883107
1.0846534
1.0827373
1.080751
1.0780215
1.0793211
1.0807599
1.0825322
1.084403
1.0942126
1.1061765
1.1138415
1.1211488
1.1368977
1.159214
1.1821688
1.2018386
1.2315757
1.2650883
1.3206988
1.3583244
1.4293941
1.4765559
1.5740296
1.6522262
1.7807804
1.8531563
1.9489646
2.0094057
2.1064154
2.2013304
2.3123821
2.4679856
2.6142467
4.3728523
3.5083634
2.8876769
2.487339
2.2309441
2.0513161
1.9141508
1.8034277
1.7080583
1.6209294
1.5363234
1.4542166
1.3783183
1.3080301
1.2485183
1.2013305
1.1634673
1.1361168
1.1163524
1.1042274
1.0952842
1.0897445
1.0862726
1.0842966
1.0817096
1.0793456
1.0806182
1.0814229
1.0822295
1.0848713
1.0951937
1.1062256
1.1143822
1.1208863
1.1356193
1.1573587
1.1811262
1.2005095
1.2321058
1.2663238
1.317489
1.3499436
1.4124707
1.4546689
1.5441508
1.6135437
1.7309406
1.8038521
1.9076064
1.9759186
2.0500899
2.1252121
2.234771
2.3362887
2.468352
4.3761508
3.5139847
2.8929419
2.4917265
2.235102
2.054863
1.9172311
1.80654
1.7119348
1.6243505
1.5409253
1.4586399
1.382641
1.3124047
1.2520531
1.2041017
1.1668127
1.1392708
1.1181494
1.1054281
1.0967566
1.0913144
1.0872181
1.0848688
1.0815424
1.0792252
1.0808031
1.0811965
1.0810313
1.0838349
1.0940359
1.1046483
1.112594
1.1202971
1.1358191
1.1565535
1.1808019
1.2015506
1.234581
1.2690952
1.3203342
1.3499431
1.4048644
1.4439564
1.5269631
1.5922576
1.6896293
1.764305
1.8647142
1.9508489
2.0223
2.1138629
2.221878
2.3124138
2.4219665
4.379128
3.519697
2.898544
2.4964471
2.2390411
2.0585279
1.9204218
1.8100424
1.715393
1.6280777
1.5453857
1.4648748
1.3879064
1.3173808
1.2562617
1.2069546
1.1696864
1.1416078
1.1192316
1.1061835
1.0986178
1.092784
1.0880921
1.0852523
1.0819385
1.0795406
1.0812416
1.0814939
1.080839
1.083741
1.0933273
1.103546
1.1109415
1.1203152
1.1371096
1.1574943
1.1796422
1.2017614
1.2335918
1.2687117
1.3179861
1.3512205
1.3991396
1.4364506
1.5089361
1.587514
1.6502757
1.7262081
1.8053947
1.8975086
1.9697909
2.0711411
2.1615044
2.252659
2.3526351
4.3820577
3.5249927
2.9033327
2.5007381
2.2423221
2.061628
1.9235182
1.8132103
1.7182511
1.6316887
1.5483929
1.4691777
1.3921003
1.3215123
1.2597842
1.2105127
1.1723885
1.1430302
1.1209367
1.1070637
1.0990487
1.0936476
1.0884703
1.0852419
1.0822173
1.0793762
1.0808393
1.0811411
1.0800587
1.0834318
1.0925694
1.1022463
1.1095079
1.1190813
1.1370769
1.1573493
1.1770731
1.199845
1.2281032
1.266517
1.311847
1.3516237
1.3960838
1.4356298
1.5036451
1.5874548
1.6375135
1.7110926
1.7833331
1.8790672
1.9541235
2.0609466
2.1417997
2.2468293
2.3229447
4.3846109
3.5300695
2.9078678
2.5050245
2.2458215
2.0644376
1.9268768
1.81617
1.7206579
1.6344249
1.5517517
1.4717186
1.3957848
1.3250523
1.2630856
1.2142473
1.1753233
1.1455068
1.123861
1.1089496
1.0997241
1.0951541
1.0899648
1.0866099
1.0835699
1.0800202
1.0811186
1.0814294
1.0802614
1.0836191
1.0924689
1.1019712
1.1087913
1.1177144
1.1358608
1.1559433
1.1736262
1.1956899
1.2223993
1.2613978
1.302051
1.3440068
1.3889562
1.4306447
1.4962291
1.5763097
1.6286606
1.7010424
1.7721047
1.8578483
1.934392
2.0432901
2.1440114
2.2492298
2.3012592
4.3872329
3.5348718
2.9123046
2.5086921
2.2491341
2.0673832
1.929818
1.8190857
1.7234716
1.6372507
1.5555134
1.4754313
1.3997985
1.3284323
1.2662035
1.2159389
1.1773358
1.1472452
1.1248363
1.1100263
1.1001278
1.0952426
1.0906935
1.0874379
1.0844887
1.0809932
1.0816864
1.0820224
1.0810722
1.0836123
1.0921223
1.1014713
1.107821
1.1168655
1.1341785
1.1553078
1.1701156
1.1910517
1.2183129
1.2546162
1.2934659
1.3314136
1.3763057
1.4187525
1.4818246
1.5486454
1.6077231
1.6811014
1.7502016
1.8296177
1.9013403
2.0139363
2.126728
2.2195186
2.2704898
4.389536
3.5392503
2.9168447
2.5122328
2.2526687
2.0705413
1.932164
1.8217264
1.7270419
1.6409719
1.5598884
1.4805561
1.4049791
1.3332978
1.2706229
1.2189067
1.1805725
1.1495949
1.1264649
1.1117454
1.1013406
1.0954688
1.0913875
1.0880596
1.0850609
1.0818488
1.0823067
1.0826763
1.0819881
1.0842295
1.0922243
1.1010527
1.1075576
1.115982
1.1342962
1.1543274
1.1701902
1.1863587
1.2145555
1.2479751
1.2888222
1.3210802
1.3623506
1.4061706
1.468426
1.5264198
1.5831669
1.6473653
1.7092603
1.7747075
1.8489308
1.9556614
2.06847
2.1438159
2.2253915
4.392022
3.5436683
2.921131
2.5156874
2.2560085
2.0733818
1.934473
1.8238406
1.729995
1.6444598
1.5640599
1.4844134
1.4095896
1.3382169
1.274508
1.2235315
1.1845882
1.1530533
1.1298605
1.1136772
1.1030577
1.0969979
1.092894
1.0891171
1.0860315
1.0833413
1.0835823
1.0835696
1.0830061
1.0851723
1.0926661
1.1009113
1.1078016
1.1158856
1.1355342
1.1550028
1.1719848
1.1866776
1.2129114
1.247331
1.2849203
1.3194969
1.3557809
1.4047402
1.4610045
1.5259258
1.5764812
1.6298972
1.6858508
1.7384372
1.8231665
1.9024249
1.985852
2.0563393
2.1259367
4.3940479
3.5476925
2.9252588
2.5192149
2.2590335
2.0760528
1.937123
1.8261188
1.7323396
1.6470177
1.5669183
1.4876151
1.4132068
1.3421029
1.2777109
1.2276128
1.1872418
1.1558936
1.1324091
1.1154896
1.1041076
1.0975009
1.0935144
1.0899346
1.0870485
1.0843224
1.0840715
1.0835359
1.083308
1.0851577
1.092058
1.1002167
1.1074173
1.1159849
1.1364324
1.156551
1.1749285
1.1912368
1.2156316
1.2535736
1.2896837
1.3266851
1.3591772
1.4115818
1.4626461
1.5298632
1.5798017
1.6306263
1.6796592
1.7392857
1.8194369
1.8970076
1.9616927
2.0344008
2.0892868
4.3964861
3.5519192
2.9294953
2.5224983
2.2616805
2.0788692
1.9397159
1.8284629
1.7345432
1.6492928
1.5687822
1.4912395
1.4162658
1.3451147
1.2809322
1.2304441
1.1890767
1.1577905
1.1334733
1.1172828
1.1056672
1.098444
1.0944688
1.091587
1.0888844
1.0860498
1.0853981
1.0842694
1.0844319
1.0860768
1.0924961
1.1004285
1.1077362
1.117463
1.1376434
1.1602901
1.1786626
1.2006851
1.2241478
1.2681875
1.3031009
1.3455959
1.3770274
1.4313182
1.4817498
1.5487749
1.5961636
1.6496249
1.6920954
1.7604535
1.8292743
1.9185498
1.9704227
2.0457771
2.1015284
4.398345
3.5555022
2.9333351
2.5255217
2.264453
2.0818661
1.9424164
1.8309652
1.7373066
1.652272
1.5715921
1.4951884
1.4197097
1.3485522
1.2853949
1.2333296
1.1918996
1.160126
1.1353037
1.1190626
1.1081048
1.1007232
1.0959136
1.0931152
1.0903656
1.0879299
1.0873908
1.0854206
1.0855073
1.0872301
1.0936189
1.1013415
1.1085617
1.1201017
1.1396808
1.1643701
1.184881
1.213575
1.2382972
1.287532
1.3230414
1.3745101
1.4082243
1.4628043
1.5144288
1.5820518
1.6250869
1.6786605
1.7160838
1.7839669
1.842599
1.9317137
1.9785393
2.0507407
2.1070895
4.4008106
3.5596804
2.9372426
2.5288965
2.2674911
2.0848458
1.9456158
1.834158
1.7410197
1.6566737
1.5768081
1.500292
1.425941
1.3555698
1.2937112
1.240682
1.2003639
1.1684863
1.1439874
1.1270335
1.1170481
1.1100906
1.1048968
1.1018811
1.0991299
1.0973075
1.0970094
1.0943497
1.0937784
1.0955891
1.1019872
1.1094224
1.1166969
1.1287647
1.1486697
1.1743463
1.1973946
1.2329644
1.2617517
1.3175577
1.3601993
1.4194502
1.4593283
1.516016
1.5683552
1.6352098
1.6807996
1.7375922
1.7747403
1.8411684
1.8920687
1.975537
2.0176852
2.0857857
2.131769
4.4023792
3.5631511
2.941143
2.5333775
2.272116
2.0897566
1.951328
1.8405783
1.7480571
1.6652307
1.587214
1.5104889
1.4385678
1.3699777
1.3090688
1.2570131
1.2184904
1.1870996
1.1634581
1.1458915
1.1361028
1.1294518
1.1246148
1.1212833
1.11846
1.1165689
1.1157485
1.1121997
1.1107123
1.1126776
1.1191568
1.12653
1.134302
1.146973
1.1684974
1.1954894
1.220558
1.2626561
1.296248
1.3556693
1.4018174
1.4674541
1.5210339
1.5924092
1.6587947
1.739614
1.7980227
1.8724416
1.9194477
1.9843265
2.0322923
2.1041341
2.1388706
2.2002901
2.2219867
4.4056563
3.5696173
2.9488581
2.5428548
2.2835157
2.1031309
1.9664615
1.8576619
1.7665226
1.6856667
1.610677
1.535283
1.4665374
1.4009382
1.3415569
1.2921068
1.2562274
1.2261324
1.2036268
1.1873723
1.1782786
1.1732582
1.1692027
1.1656129
1.1621147
1.1591548
1.1569916
1.1519475
1.148986
1.150326
1.1563005
1.1626
1.1697309
1.1824884
1.2043173
1.2319472
1.2571915
1.3039765
1.3446786
1.4092727
1.4613593
1.5362157
1.599786
1.6802507
1.7536413
1.8410114
1.9064517
1.9950939
2.0554879
2.1327675
2.1881044
2.2702923
2.3096813
2.3844207
2.404114
4.4105017
3.583689
2.9710726
2.5727565
2.3199822
2.1435576
2.0083755
1.9010794
1.8105876
1.7294612
1.655346
1.5808437
1.5136059
1.4517606
1.3954198
1.352274
1.3218577
1.2962296
1.2776451
1.265442
1.2588845
1.2564039
1.2544294
1.2526133
1.2495451
1.2455794
1.2420678
1.2349952
1.2298757
1.2295594
1.2348824
1.2406669
1.2466569
1.2581498
1.2779076
1.3043309
1.3274266
1.3713682
1.4114978
1.4760502
1.5269491
1.59991
1.6674702
1.7643123
1.8450119
1.9403622
2.0161455
2.1150274
2.189292
2.2836075
2.3476163
2.4297314
2.4680568
2.5429729
2.5641697
4.4361657
3.6415224
3.045561
2.6507433
2.3986848
2.2217022
2.0835216
1.9771594
1.8914424
1.81274
1.7421414
1.6732419
1.616942
1.5717826
1.5337599
1.5138296
1.5073124
1.5003334
1.4961524
1.4958291
1.4986011
1.5023747
1.504667
1.5073461
1.507513
1.5033306
1.4984875
1.4887631
1.4773174
1.4729269
1.4776456
1.4847139
1.4910753
1.4975457
1.5117515
1.5357358
1.5564931
1.5923331
1.6267288
1.6840462
1.7285351
1.7955573
1.859185
1.955822
2.0323165
2.1254924
2.2022507
2.3028553
2.3817522
2.4863883
2.557131
2.638223
2.6732612
2.749093
2.7665518
4.484527
3.7458498
3.2141421
2.8771255
2.673319
2.5281723
2.4060545
2.3169309
2.2573114
2.2063323
2.1523754
2.0994697
2.0737501
2.0724082
2.0786999
2.1072036
2.1607581
2.202232
2.2293246
2.2512496
2.2744893
2.2966122
2.3101477
2.3253661
2.3376762
2.3401032
2.3375123
2.3276585
2.3040935
2.2885841
2.2938262
2.308621
2.3201281
2.3177603
2.3203614
2.3437267
2.3691176
2.3885213
2.4076952
2.4404989
2.4754684
2.5303086
2.5741541
2.6385742
2.6862471
2.739344
2.8019456
2.8947578
2.9598978
3.0479341
3.1182335
3.1922034
3.2267079
3.3167349
3.3145553
4.5109964
4.2963501
4.3351926
4.3977169
4.4446976
4.4554543
4.4187676
4.3690004
4.3587927
4.3701823
4.3661719
4.3365878
4.3552694
4.3883056
4.4417026
4.5449569
4.6840341
4.7881187
4.858855
4.9076115
4.9551021
5.0190509
5.0679749
5.120084
5.1677555
5.1995867
5.2133425
5.2140331
5.1919094
5.1612993
5.1751301
5.2098413
5.2468206
5.2448553
5.2384777
5.2789882
5.3251965
5.3462962
5.3485189
5.3549312
5.3797505
5.4249527
5.4433808
5.4484415
5.4358598
5.4248885
5.4137712
5.4650314
5.4959111
5.5079025
5.5187823
5.5147755
5.5028997
5.5140136
5.3924274
7.189946
9.889478
11.194541
11.754834
12.153001
12.454596
12.641436
12.717736
12.82417
13.008606
13.163281
13.195156
13.30462
13.412242
13.533592
13.724942
13.873214
14.054261
14.18081
14.252085
14.302249
14.461783
14.58822
14.732215
14.872741
14.987142
15.043993
15.082464
15.07986
15.055233
15.145756
15.221501
15.318265
15.336378
15.331308
15.446673
15.61049
15.623185
15.596175
15.617658
15.648508
15.763857
15.737796
15.635434
15.580826
15.51717
15.366154
15.370673
15.324965
15.19573
15.11162
15.030558
14.929367
14.872714
14.404474
54.67916
54.819573
54.594748
54.341861
54.213569
54.431038
54.823097
55.08434
55.266938
55.450836
55.558401
55.453941
55.578845
55.756104
55.992504
56.297486
56.276204
56.336488
56.447717
56.48238
56.481219
56.459428
56.314089
56.32408
56.578383
56.803454
56.785678
57.151444
57.707495
57.809158
57.616436
57.761768
58.072919
57.997211
57.642649
57.728807
58.361018
58.731491
58.247605
57.574961
57.67585
58.52996
59.075238
58.737053
57.651599
56.776801
56.818499
57.347814
57.426914
56.831148
55.882161
55.3294
55.526359
56.175278
56.883743
59.416635
15.299396
5.6789976
3.4500774
2.8295888
2.6078352
2.4684004
2.3056018
2.2210314
2.2013359
2.2056081
2.1855024
2.2059125
2.2862653
2.3558763
2.3971723
2.4056589
2.4300882
2.5234678
2.6024806
2.7299714
2.8030024
2.8904321
3.0466958
3.2128454
3.3102503
3.2216806
64.005602
16.867338
6.1263709
3.5868538
2.9013746
2.6809305
2.5632951
2.4121934
2.3373773
2.3156803
2.302949
2.2737228
2.2926083
2.3511652
2.414936
2.4737058
2.5063548
2.546062
2.6362832
2.7038727
2.8041446
2.89935
3.0363014
3.2312215
3.3990224
3.4919769
3.493014
68.638086
18.372471
6.6526624
3.7344862
2.9892852
2.7841491
2.6695219
2.5277324
2.4375956
2.400633
2.3820566
2.353542
2.3677356
2.4137581
2.4825138
2.5780655
2.6503842
2.6943064
2.744557
2.7931957
2.8646726
3.0062612
3.1329212
3.4436689
3.5881093
3.7753258
3.7283117
72.885073
19.509972
7.0009917
3.8962298
3.1210858
2.9024269
2.7750463
2.6167304
2.5226921
2.4835813
2.4607733
2.4219074
2.4298751
2.4741982
2.601757
2.7242748
2.8090911
2.8160615
2.8509924
2.8929319
2.9463844
3.1224189
3.2846968
3.6467772
3.7350026
4.0352392
3.9848265
76.043965
20.132851
7.2243576
4.0295443
3.2704274
3.0561856
2.9319515
2.7613851
2.6635167
2.600691
2.5619682
2.5000279
2.5106273
2.580582
2.7445916
2.8808916
2.9493758
2.9366894
2.9591618
3.0176441
3.0471744
3.2859097
3.499233
3.8108364
3.8402302
4.2178995
4.2002872
78.51519
21.064471
7.6400058
4.2409748
3.4595742
3.2585906
3.1367408
2.9319447
2.8336722
2.7563283
2.6900746
2.6244585
2.6515505
2.7330849
2.888657
2.987012
3.0644169
3.0762465
3.1271864
3.1965653
3.2367038
3.5049301
3.6734375
3.883547
3.9772281
4.3758749
4.3929082
83.385075
21.919497
7.9751981
4.483705
3.6748798
3.4624234
3.3394624
3.1081277
2.9866041
2.9055185
2.8716261
2.8195417
2.8385958
2.9066345
3.0247879
3.1116497
3.2048113
3.2230959
3.2549258
3.3676391
3.4347684
3.7157834
3.8454914
4.0127543
4.2176759
4.4833277
4.5715993
91.464037
23.780793
8.615887
4.8301621
3.911016
3.6738324
3.5728176
3.3521041
3.2619152
3.1736651
3.1332901
3.0302138
2.9902849
3.0501965
3.1870451
3.2856658
3.4143029
3.4382268
3.4611958
3.5882257
3.693163
3.8795201
4.0252648
4.2426722
4.5364887
4.638897
4.8817212
101.01209
26.617139
9.6437071
5.2813915
4.2086837
3.9908221
3.9461295
3.708968
3.5886275
3.4635393
3.3334164
3.1625583
3.081921
3.1453492
3.3176421
3.417601
3.5792135
3.6752829
3.7205572
3.849128
3.9479461
4.1030357
4.2648465
4.4547151
4.8528954
4.9048182
5.3712555
109.76256
29.215781
10.528897
5.7269746
4.6554407
4.5125555
4.4288124
4.1023202
3.9168967
3.7181324
3.53214
3.3186647
3.2008829
3.2511963
3.4413986
3.5472681
3.7594381
3.9390236
4.0209477
4.1033518
4.2366138
4.3480843
4.5489305
4.6615538
5.1021341
5.2301549
5.8523937
114.68691
30.710015
11.087582
6.1428304
5.1394751
4.9381878
4.7636227
4.3792792
4.2161283
4.0261167
3.8075268
3.5655225
3.3703052
3.4084601
3.6098192
3.7437309
4.000146
4.2155731
4.3005164
4.2880402
4.4464693
4.540218
4.8263815
5.0265243
5.4237356
5.6050851
6.2188167
113.66608
31.145223
11.329145
6.571681
5.6011573
5.3499524
5.1638471
4.7737436
4.6193408
4.3883564
4.1247409
3.8381638
3.5534689
3.6212827
3.8673221
4.009133
4.2487716
4.4334804
4.4718274
4.4054272
4.5761348
4.69566
5.0647997
5.4933809
5.8461475
5.9987621
6.6019266
115.03682
32.010744
11.945988
7.2280172
6.3107298
6.0684785
5.8268013
5.4187453
5.2358022
4.9109199
4.5435637
4.1923146
3.9070498
3.9802672
4.2278453
4.3405082
4.4815805
4.6258092
4.6704646
4.5952472
4.7884724
4.9177607
5.3046752
5.8936797
6.2110206
6.4391417
7.0642439
125.19817
34.125359
13.007709
8.03421
6.9455236
6.6776576
6.4562165
6.1076372
5.9382563
5.6196381
5.2417414
4.8552041
4.494619
4.494194
4.6416576
4.6935691
4.8269502
4.9721777
4.9867502
4.8857814
5.0032961
5.2921334
5.7938861
6.2977465
6.5092459
6.7290497
7.492649
140.22449
39.626572
14.976793
8.9528902
7.5027935
7.1995106
6.9773493
6.7712118
6.7553696
6.5735505
6.1877997
5.6984109
5.1729893
5.0697771
5.1279395
5.1510876
5.2432221
5.4817909
5.5376598
5.4210371
5.4194127
5.7988186
6.3082096
6.5954917
6.7176331
6.92528
7.7920392
154.40814
45.220731
17.23775
10.134138
8.3461723
8.0368651
7.7847244
7.6880073
7.7805173
7.6038189
7.0772798
6.403314
5.639443
5.4616935
5.5274416
5.5496249
5.6280834
5.9303748
6.0982527
6.0731623
6.0680891
6.5225053
6.8907054
7.0224516
7.1792543
7.4902385
8.2379816
165.4291
49.07854
18.866754
11.190928
9.3617675
9.137776
8.7527686
8.7562703
8.8072112
8.5222094
7.7950701
6.932942
6.1649399
5.9117489
6.034093
6.050952
6.075412
6.30888
6.6081434
6.7494537
6.7878728
7.3000317
7.6422704
7.6368614
7.8186883
7.9927195
8.5501738
164.51388
50.04805
19.936457
12.363539
10.57588
10.103722
9.7164997
9.7200481
9.7077943
9.2901726
8.4086766
7.4501233
6.7120518
6.4704694
6.6216268
6.6233288
6.6328015
6.8470991
7.2944031
7.5509566
7.5697174
7.9546864
8.3804202
8.4007597
8.7391055
8.9338189
9.0925925
155.20481
49.639993
20.641406
13.51205
11.589418
10.955015
10.781297
10.846628
10.785929
10.280489
9.3149261
8.2260985
7.3821085
7.0861923
7.2414433
7.3197782
7.3814867
7.5321921
7.9988223
8.3315576
8.4100026
8.6426928
9.2056564
9.3730278
9.7590304
10.092082
10.008803
155.38381
49.548114
21.695036
14.88557
12.909051
12.340161
12.232462
12.365731
12.317261
11.761099
10.692534
9.439977
8.4290336
8.0629109
8.144906
8.1187076
8.1660983
8.3447203
8.6542664
9.0184534
9.1686107
9.4557523
9.9071345
10.444002
10.743558
11.331235
11.321311
167.70482
52.769265
24.151314
16.56663
14.218417
13.686105
13.587003
13.702471
13.881127
13.477192
12.415982
11.056433
9.931622
9.4504678
9.4244393
9.3258853
9.2259226
9.3509255
9.4253524
9.6138479
9.7667225
10.13279
10.440352
11.448011
11.794547
12.734513
13.009081
186.69548
61.233704
28.03389
18.566029
15.548767
14.640054
14.482516
14.58067
14.791363
14.620383
13.790462
12.483414
11.48053
11.116032
11.229681
11.279914
11.078526
10.974945
10.853917
10.727231
10.591665
10.823759
10.967716
12.296431
13.034324
14.212498
14.900615
200.96467
67.721895
31.374217
20.387796
16.813864
15.657046
15.400703
15.497254
15.663918
15.574195
14.992538
13.938253
12.873734
12.506224
12.68939
13.050051
13.054047
13.029351
12.778876
12.365893
12.088985
12.042817
12.12905
13.409011
14.537966
15.43734
16.106305
211.80924
69.865317
32.86351
21.831264
18.015957
16.830364
16.5408
16.657626
16.868427
16.865115
16.499594
15.405045
14.35462
13.875143
14.008439
14.480176
14.622637
14.910314
14.868932
14.377489
14.008019
13.643452
13.60794
15.019717
16.35916
16.760939
17.097307
218.17865
71.020237
34.548115
23.501325
19.500335
18.010231
17.579914
17.716509
17.951649
18.015754
17.749179
16.673512
15.785184
15.475795
15.568293
15.946192
16.143582
16.359352
16.466067
16.216863
15.948092
15.621111
15.750315
17.024851
17.977975
17.9013
18.141503
221.11702
71.599421
35.728052
24.658523
20.622441
19.237133
18.614439
18.486745
18.561497
18.570456
18.354224
17.528024
16.995005
16.833022
16.987982
17.449239
17.563121
17.558286
17.441204
17.207533
17.370521
17.838093
18.558042
19.140214
19.070239
18.767373
19.173183
221.02413
73.431731
38.507835
26.812177
21.851461
19.820601
18.981081
18.867567
18.970883
18.959265
18.767793
18.3023
18.031966
17.931916
18.186714
18.549418
18.636504
18.570471
18.306289
18.107573
18.434201
19.725491
21.344752
21.162585
20.05124
19.555653
20.045275
218.6848
72.744731
38.811388
27.740163
23.028343
20.627921
19.490081
19.254018
19.251918
19.329074
19.267857
18.950022
18.764628
18.70449
18.878824
19.212703
19.34821
19.302484
19.084939
18.972506
19.374771
20.75711
22.763976
22.916154
21.131359
20.188683
20.539269
213.89746
70.369014
38.277659
28.126512
23.369266
20.791268
19.787343
19.58941
19.677505
19.703824
19.589758
19.340909
19.217185
19.229849
19.47727
19.648758
19.757016
19.771857
19.75608
19.667891
20.008494
21.152342
23.17421
23.757535
22.039271
20.74907
20.787678
209.86798
66.488725
37.094946
27.878451
23.179743
20.606729
19.723223
19.582685
19.794515
19.916761
19.850334
19.687278
19.593606
19.624177
19.819583
20.026181
20.252046
20.372049
20.379935
20.134363
20.238251
21.16942
23.225249
24.015369
22.50071
21.05563
20.914911
208.04852
63.383686
36.12943
27.747596
23.047988
20.356232
19.488277
19.36433
19.588798
19.935796
20.069365
20.105681
20.035574
20.029132
20.157949
20.380119
20.759698
21.05496
20.991492
20.473415
20.262913
21.124421
23.236865
23.949695
22.414604
21.064526
21.014496
207.46329
62.192695
36.362752
28.481289
22.98303
19.868123
19.016941
18.976032
19.371401
19.984792
20.401914
20.586746
20.603367
20.540703
20.514633
20.630398
21.041719
21.421774
21.295945
20.588352
20.210741
21.062036
23.101771
23.762826
22.262741
20.755941
20.873868
207.30581
61.038666
36.670117
28.956057
22.429501
19.312382
18.668339
18.821458
19.413786
20.148568
20.677034
20.948202
21.013304
20.898254
20.728478
20.733001
21.133264
21.583678
21.458432
20.641565
20.117011
20.807062
22.749746
23.543779
22.151702
20.387496
20.60725
205.95505
60.459591
36.755244
28.826389
21.802573
19.090929
18.596947
18.876897
19.627931
20.497225
21.029595
21.26538
21.307503
21.138209
20.826186
20.72815
21.10918
21.694449
21.723467
20.842752
20.093451
20.445533
22.233029
23.36659
22.282992
20.269382
20.239758
200.36023
61.674479
37.179822
28.458205
21.434305
19.033854
18.617001
18.933851
19.858248
20.875544
21.456937
21.675352
21.652999
21.305523
20.801476
20.591886
20.969299
21.802488
22.128921
21.307301
20.219435
20.097063
21.60308
23.106136
22.602934
20.513384
19.876476
191.51473
64.722491
38.338883
28.314011
21.153424
18.847689
18.463964
18.803283
19.927497
21.242
22.052958
22.289201
22.210291
21.598202
20.785461
20.372743
20.664144
21.782847
22.76591
22.155163
20.498024
19.783236
20.817492
22.814277
23.174855
21.157484
19.644382
183.08587
67.398863
39.857991
28.626916
21.140143
18.766163
18.337653
18.620253
19.97029
21.761697
22.829749
23.110025
23.104333
22.281742
20.984868
20.317306
20.474086
21.591807
23.253593
23.351046
21.228744
19.766783
20.122634
22.494179
23.81114
22.340396
19.773615
175.99011
69.634612
40.918554
28.434826
21.159499
18.888144
18.435364
18.679634
20.299823
22.55438
23.852254
24.217983
24.309632
23.423148
21.626986
20.517497
20.509512
21.439992
23.609012
24.593555
22.550179
20.152585
19.844678
22.160744
24.451552
23.671954
20.543279
168.04362
71.987338
41.939357
28.407201
21.370272
19.07844
18.651462
19.045339
21.05012
24.129766
25.685553
25.95163
25.95263
24.645857
22.624831
21.152138
20.883678
21.738401
24.231996
25.917935
24.31263
20.850126
19.961148
21.94738
24.996617
25.0719
22.031113
159.2257
74.188702
43.129648
29.029113
22.017935
19.563392
19.129886
19.695787
22.103173
25.808303
27.60039
27.873701
27.861887
26.527211
24.039872
22.306704
21.737011
22.476299
25.089653
27.141816
26.125527
22.002535
20.391752
21.962733
25.584171
26.414118
23.811518
151.49455
76.48969
45.169349
31.118101
23.476875
20.593196
19.899452
20.26442
22.540516
26.575581
28.833268
29.255461
29.302487
28.013489
25.26122
23.464911
22.739461
23.288413
25.792321
27.886183
27.436971
23.240955
21.203058
22.193496
26.132291
27.667073
25.561023
149.09849
77.827981
46.441759
32.994071
25.484584
22.142397
21.049964
21.095811
22.854223
26.386549
28.87702
29.476803
29.597554
28.684191
26.250371
24.591979
23.973302
24.470987
26.548458
28.03524
27.560463
24.143416
22.182751
22.809043
26.416339
28.607628
26.927001
150.01976
76.360692
46.181364
33.22106
26.554595
23.643825
22.611818
22.466039
23.430828
26.037489
28.427628
29.064349
29.180893
28.577777
26.869216
25.713561
25.256619
25.694403
27.151749
27.880991
27.082688
24.25807
22.940681
23.586954
26.918229
29.442909
27.945057
149.92022
72.908688
44.531675
32.887163
27.481715
25.045149
24.145153
23.879995
24.034787
25.494317
27.477114
28.20804
28.394898
28.301401
27.426721
26.725115
26.431172
26.708204
27.418298
27.533085
26.449694
24.256325
23.536499
24.305257
27.423841
30.25865
28.739973
143.96755
69.660226
43.36066
32.772094
27.80213
25.554542
24.920113
24.858888
24.902368
25.536202
26.990097
27.941256
28.435571
28.475271
28.108306
27.668416
27.437306
27.534898
27.654962
27.345964
26.169521
24.452755
24.110648
24.890334
28.009999
30.866574
29.162024
131.97316
67.079081
42.464486
32.457653
27.68571
25.488436
24.769301
24.922017
25.252103
25.965674
27.215659
28.440774
29.376969
29.614432
29.167156
28.69803
28.388267
28.321061
28.266597
27.683016
26.479816
25.051588
24.73201
25.522478
28.520343
30.735577
28.867979
121.78653
63.269477
39.769115
31.254534
27.661785
25.898623
25.119583
25.314487
25.692102
26.579708
28.040228
29.541621
30.671444
30.802996
30.085684
29.423974
29.227675
29.283538
29.175369
28.53497
27.327429
25.947329
25.611962
26.47906
28.420228
29.275562
28.107521
110.69397
60.117912
38.841887
30.80605
27.390189
25.739123
25.319885
25.521027
26.20979
27.529863
28.896924
30.117917
30.892192
30.800737
30.148056
29.754277
30.007881
30.388335
30.45815
29.705494
28.323155
27.121006
26.968493
27.209627
27.477018
27.388267
27.254533
99.910919
56.8826
36.66778
29.279913
26.786197
25.733859
25.676834
25.926997
26.771591
27.873549
28.850207
29.586033
29.746066
29.64598
29.508379
29.885126
30.786055
31.515588
31.512868
30.5544
29.296359
28.52775
27.962453
27.001366
26.285935
26.126773
26.502154
90.437404
50.334482
33.258997
28.018673
26.964616
26.621369
26.411119
26.530918
27.038388
27.805695
28.330677
28.473542
28.451916
28.494855
28.921915
29.871692
31.168842
31.996595
31.859969
31.024023
29.978905
28.944778
27.76929
26.628805
25.995496
25.810284
26.346549
77.565636
41.256734
29.760959
27.658557
27.660647
27.607792
27.255016
27.224599
27.359297
27.492756
27.535218
27.549748
27.660621
28.083288
28.776592
29.666798
30.765967
31.578734
31.439073
30.565549
29.447817
28.408644
27.620878
26.935576
26.302378
26.124259
26.986508
60.882723
35.254008
29.303909
28.476506
28.257513
27.841593
27.649328
27.511148
27.334561
27.056333
26.815096
26.827415
27.09111
27.712478
28.345943
28.85225
29.421742
29.920729
29.925362
29.342598
28.609711
28.068163
27.673539
27.248856
26.862139
26.917332
28.641576
53.214275
36.396673
31.54132
29.833673
29.019852
28.587098
28.345711
28.101062
27.713686
27.010278
26.407026
26.231023
26.448045
26.869438
27.078525
26.993123
26.951452
27.23518
27.757558
28.174439
28.179856
27.943509
27.691346
27.437262
27.237121
27.779768
29.743169
57.01754
39.129259
32.598231
30.121981
29.519761
29.38996
29.230397
28.785822
28.01823
26.95558
25.894993
25.335854
25.141349
24.960782
24.638923
24.188345
23.960445
24.298726
25.362713
26.645508
27.472294
27.601765
27.371409
27.274262
27.421852
28.365843
30.174477
60.466051