/*--------------------------------*- C++ -*----------------------------------*\
| =========                 |                                                 |
| \\      /  F ield         | OpenFOAM: The Open Source CFD Toolbox           |
|  \\    /   O peration     | Version:  2406                                  |
|   \\  /    A nd           | Website:  www.openfoam.com                      |
|    \\/     M anipulation  |                                                 |
\*---------------------------------------------------------------------------*/
FoamFile
{
    version     2.0;
    format      ascii;
    arch        "LSB;label=32;scalar=64";
    class       volScalarField;
    location    "9";
    object      p_0;
}
// * * * * * * * * * * * * * * * * * * * * * * * * * * * * * * * * * * * * * //

dimensions      [1 -1 -2 0 0 0 0];

internalField   nonuniform List<scalar> 
96472
(
1.0066503
1.0125178
1.0137487
1.0135716
1.0096811
1.0042261
0.9994904
0.99619943
0.99440287
0.99361449
0.99292107
0.99200431
0.99108595
0.99061578
0.9903419
0.99008486
0.98970052
0.98914451
0.98810976
0.98673495
0.98515374
0.98375945
0.98231078
0.98082782
0.97948581
0.9782881
0.97705682
0.97598435
0.97505128
0.97413772
0.97323804
0.97243323
0.97175692
0.9712329
0.9708669
0.97058632
0.97036481
0.97017976
0.97001684
0.96993151
0.96975423
0.96974329
0.9696436
0.96965467
0.96937961
0.96942309
0.96944223
0.96917144
0.9689825
0.96885962
0.96875339
0.96861098
0.96809547
0.96806494
0.96753691
1.0066844
1.0126063
1.0138849
1.0137381
1.009816
1.0043334
0.99953249
0.9961836
0.99439183
0.993531
0.99267799
0.99166207
0.99069551
0.99016591
0.98990103
0.98982722
0.98948886
0.98889851
0.98797524
0.98670902
0.98527166
0.98377801
0.98242309
0.98109163
0.97959225
0.97819465
0.9770162
0.97593536
0.97491256
0.97390389
0.97296992
0.97214092
0.97147955
0.97098583
0.97057812
0.97022113
0.96995133
0.96975829
0.96962779
0.9694139
0.96939471
0.96926693
0.96915455
0.96910565
0.96908504
0.96897403
0.96885257
0.9687372
0.96868783
0.96862084
0.96835838
0.96806758
0.96808333
0.96784185
0.9675106
1.0067423
1.0127258
1.0140365
1.0138908
1.0099739
1.0044873
0.99961777
0.99618023
0.99433256
0.99349219
0.99262129
0.99146191
0.99047838
0.98990135
0.98966744
0.98945502
0.98927425
0.988707
0.98781308
0.98645483
0.98513928
0.98374934
0.9822971
0.98097984
0.97963932
0.97829372
0.9770942
0.9759279
0.97476323
0.97370077
0.97276705
0.97197352
0.97130427
0.97070466
0.97019769
0.96983644
0.96955307
0.96931077
0.96910708
0.96907253
0.96886701
0.96881314
0.96880697
0.96870429
0.96863558
0.96862605
0.96853583
0.96851681
0.96839387
0.96810141
0.96810759
0.9680375
0.9677474
0.96746202
0.9674452
1.0067728
1.0128189
1.014186
1.0140754
1.0101279
1.004649
0.99975632
0.99623008
0.99427557
0.99337721
0.99250507
0.99132819
0.99028087
0.98970771
0.98944343
0.98918108
0.98894938
0.98847487
0.98764554
0.98642485
0.9849951
0.98363359
0.98217293
0.98074203
0.97942053
0.97818239
0.97691197
0.97571857
0.97464331
0.97361333
0.97260769
0.97172736
0.97095473
0.97029907
0.96978056
0.96938708
0.96911505
0.96885769
0.96873188
0.96846408
0.96847335
0.96833933
0.96820907
0.96819871
0.96817941
0.96805977
0.96805259
0.96794492
0.96780225
0.96800619
0.96771839
0.96744764
0.96752105
0.96726314
0.96730188
1.0068376
1.012944
1.0143461
1.0142601
1.0103072
1.0047937
0.99988014
0.99632244
0.99430432
0.9932682
0.9922869
0.99106617
0.9899386
0.98935748
0.98901303
0.988952
0.98875616
0.98826422
0.98742583
0.98634369
0.98503562
0.98360332
0.98221643
0.98088795
0.97945283
0.97806767
0.97676267
0.9755808
0.97450281
0.97339981
0.97235484
0.97139239
0.97057499
0.96993099
0.96947141
0.96903884
0.96867886
0.96845872
0.9681868
0.9681891
0.96793104
0.96788823
0.96788452
0.96779117
0.96774441
0.96776717
0.96769192
0.96764814
0.96775503
0.96734746
0.96737829
0.96744613
0.9671519
0.96711979
0.96653346
1.0068614
1.0130458
1.014504
1.0144622
1.0105196
1.0050013
1.0000248
0.99641933
0.9943867
0.99332182
0.99221921
0.99086773
0.98969153
0.98899585
0.98865513
0.98857299
0.98847845
0.98811588
0.98731438
0.98605834
0.98484548
0.98352297
0.98214846
0.98086216
0.97948717
0.97809607
0.97684172
0.97562206
0.97438532
0.97318211
0.9721163
0.9711825
0.97039575
0.96972167
0.96912066
0.96865855
0.96825364
0.9679586
0.96783321
0.96754816
0.96754079
0.96739661
0.96725028
0.96727536
0.96721166
0.96719463
0.96717731
0.96716757
0.96696243
0.96722313
0.96704062
0.96694437
0.96667165
0.96664975
0.96693981
1.0069324
1.0131862
1.0146731
1.0146649
1.0107292
1.0052064
1.000196
0.99652361
0.99440692
0.99335369
0.99225889
0.99082967
0.98958383
0.98885925
0.98855102
0.9883257
0.98815109
0.98781208
0.98714885
0.986013
0.98465243
0.9833415
0.9819408
0.98053605
0.97919657
0.97791301
0.97666997
0.97543817
0.97420523
0.97304218
0.97192447
0.97095027
0.97010329
0.96933651
0.96868885
0.96815947
0.96780449
0.96753408
0.96729069
0.96721419
0.96701139
0.96690729
0.96696468
0.96677627
0.96687948
0.9668317
0.9667763
0.96679475
0.96694999
0.96656239
0.9667404
0.96646624
0.96675194
0.96643468
0.96604907
1.0069491
1.0133013
1.0148421
1.0148824
1.0109339
1.0054413
1.0004031
0.99666962
0.99445347
0.99331944
0.99217722
0.990749
0.98943207
0.98865035
0.98823269
0.98811174
0.98796592
0.98750306
0.98679592
0.98591352
0.98466697
0.98329358
0.98188434
0.98055229
0.97918786
0.97783352
0.97645887
0.97516398
0.97397305
0.9728169
0.97169264
0.97065011
0.96970747
0.96891893
0.96833834
0.96781021
0.9673924
0.96711213
0.96688837
0.96670467
0.9665244
0.96652392
0.96623541
0.96638456
0.96621764
0.96618679
0.96633715
0.96632837
0.96608984
0.96643439
0.96616336
0.96635856
0.96592735
0.96608739
0.96602733
1.007023
1.0134359
1.0150076
1.0150826
1.0111604
1.0056451
1.0006047
0.99683035
0.99459755
0.99333734
0.99207822
0.99054876
0.98916672
0.98837152
0.98781278
0.98777995
0.98778321
0.9874669
0.98668599
0.98559485
0.98451456
0.98320427
0.98183518
0.98057884
0.97922677
0.97784658
0.97648573
0.97521565
0.97395729
0.97269894
0.97151155
0.97040132
0.96945021
0.96870643
0.96803153
0.96745709
0.96701706
0.96662941
0.9664342
0.9661677
0.96615452
0.96585111
0.96601672
0.9658252
0.96583401
0.96596497
0.96584721
0.96582411
0.96600524
0.96588813
0.96591021
0.96571062
0.96594837
0.96568007
0.96586434
1.0070355
1.0135546
1.0151634
1.0152967
1.0113639
1.005872
1.0008141
0.99700258
0.99474266
0.99347172
0.99216353
0.99051059
0.98908694
0.98820453
0.98770949
0.98749218
0.98739105
0.98717751
0.98663639
0.98549743
0.98424909
0.98300475
0.98167111
0.98029737
0.9789426
0.97761013
0.97636893
0.97511093
0.97379464
0.97247683
0.97123669
0.97017451
0.96922987
0.96839824
0.96763741
0.96701409
0.96650014
0.96620289
0.96586651
0.9658101
0.96550175
0.96560423
0.96535188
0.9653071
0.96535167
0.96528133
0.96532568
0.9653603
0.9655549
0.96526379
0.96543047
0.96551493
0.96536662
0.96552422
0.96501646
1.0071081
1.01368
1.0153416
1.0154993
1.0116117
1.0061163
1.0010633
0.99718277
0.9948219
0.99355499
0.99223875
0.99057529
0.98903521
0.98806957
0.98764157
0.98736754
0.9872394
0.98686677
0.98627865
0.98546863
0.9842351
0.98293203
0.98157026
0.98018107
0.978833
0.97751298
0.97615546
0.97480275
0.9734879
0.97222498
0.97101969
0.96989442
0.96887635
0.96799044
0.96724297
0.96663686
0.96614733
0.96573114
0.96555054
0.96523451
0.96521346
0.96498814
0.96493241
0.96497339
0.96492869
0.96485473
0.96490885
0.96519855
0.96464077
0.96530266
0.96496052
0.96517145
0.96492291
0.96502365
0.96503357
1.0071273
1.0138055
1.0154984
1.0157163
1.0118592
1.006359
1.0012784
0.99739806
0.99496745
0.99361091
0.9922046
0.99050212
0.98892748
0.98789892
0.98724234
0.98715091
0.98708973
0.98679612
0.98605429
0.98515922
0.98414437
0.98284922
0.98148334
0.98023313
0.97893003
0.97756401
0.97612624
0.97477801
0.97348408
0.97219733
0.97093741
0.96973644
0.96867861
0.96775355
0.96698742
0.96633742
0.96580358
0.96541206
0.96505736
0.96486403
0.96466427
0.96454197
0.96449344
0.96439486
0.96426275
0.96441949
0.96457261
0.9641187
0.96493138
0.96423169
0.96484166
0.96446352
0.96477572
0.96438381
0.96501024
1.007189
1.013921
1.0156409
1.0159109
1.0120888
1.0066471
1.0015277
0.99760627
0.99516032
0.99372665
0.99224608
0.99041936
0.98877753
0.98771257
0.98695092
0.98682368
0.98683561
0.98663562
0.98609374
0.98501792
0.98390442
0.98267942
0.98136179
0.98003496
0.97870713
0.97735381
0.9760633
0.97477662
0.97343416
0.97204708
0.97071032
0.9695
0.96842996
0.96751172
0.96670054
0.96597057
0.96537451
0.96493769
0.96459751
0.9643787
0.96416087
0.96409651
0.96403492
0.96390967
0.96407494
0.96399716
0.96383686
0.96427866
0.96387631
0.96434331
0.96429333
0.9638742
0.96451243
0.96442333
0.96403102
1.0072174
1.0140373
1.0157842
1.0161106
1.0122973
1.0068857
1.001779
0.99780064
0.99532226
0.99388975
0.99242937
0.99053717
0.9888441
0.98768112
0.98706448
0.98669378
0.98664062
0.98630801
0.98582123
0.98500356
0.9838482
0.98263755
0.98128942
0.97987185
0.97850613
0.97721455
0.97590657
0.97454226
0.97312987
0.97174889
0.97045778
0.96924766
0.96817676
0.96720357
0.96634184
0.96561342
0.96501315
0.96454059
0.96422191
0.96391997
0.96381521
0.96367405
0.9635248
0.96357578
0.96341008
0.96345646
0.96354435
0.9636406
0.96353609
0.96389179
0.96330077
0.96423419
0.96386972
0.96375115
0.96373199
1.0072659
1.0141556
1.0159312
1.0162964
1.0125107
1.0071262
1.0020281
0.99801852
0.99547132
0.99399774
0.99247892
0.9906315
0.98885635
0.98761838
0.9869392
0.98659338
0.98648385
0.98628334
0.98558365
0.98477042
0.98378349
0.98256396
0.98124961
0.97994085
0.97862325
0.97728847
0.97585401
0.97445185
0.97311106
0.97177615
0.97045463
0.96919561
0.96803811
0.96703457
0.96611734
0.96536413
0.96474878
0.96426786
0.96385198
0.96361115
0.96335848
0.96320895
0.96316912
0.9630432
0.9630832
0.96304953
0.96325659
0.96288803
0.96351549
0.96304823
0.96337767
0.96388017
0.9629568
0.96327306
0.96419569
1.0072999
1.0142474
1.0160608
1.0164816
1.0127327
1.0073698
1.0022667
0.9982467
0.99566041
0.99410484
0.99249321
0.99054755
0.98873577
0.98752996
0.98660613
0.9864366
0.98634469
0.98615547
0.985619
0.98469129
0.98363081
0.98238472
0.98108922
0.97981315
0.97854902
0.97721726
0.97586928
0.97452394
0.97316675
0.97176076
0.97036186
0.9690518
0.96787553
0.96684127
0.96593328
0.96513478
0.96445515
0.96390443
0.96348977
0.96314707
0.96295259
0.9627943
0.96267955
0.96262704
0.96266706
0.96268391
0.96251461
0.96298903
0.96259933
0.96280798
0.96339526
0.96247356
0.96289873
0.96397849
0.96273906
1.0073465
1.0143451
1.016178
1.0166597
1.0129604
1.007621
1.0025264
0.99846532
0.99584435
0.99426997
0.99264705
0.99059228
0.98873201
0.9873909
0.98653784
0.98620883
0.986224
0.98590014
0.98546485
0.98467298
0.98362435
0.98242902
0.98108322
0.97967685
0.97832559
0.9770177
0.97573947
0.97439887
0.97297081
0.97151501
0.97011908
0.96884844
0.96767875
0.96663312
0.9657003
0.96485503
0.96415339
0.96357903
0.9631333
0.96281271
0.96257859
0.9624357
0.96230135
0.96236502
0.9621657
0.96227494
0.96234886
0.96222711
0.96243855
0.96258796
0.96235979
0.96241225
0.96322981
0.96285506
0.96195512
1.0073731
1.0144413
1.016291
1.0168212
1.013167
1.007851
1.0027615
0.99866372
0.99599918
0.99445681
0.9928671
0.99078847
0.98888552
0.98742509
0.98665682
0.98622268
0.98611664
0.98590993
0.98524647
0.98444173
0.98352665
0.98244007
0.98115335
0.97976377
0.97838447
0.97708358
0.97573636
0.97433179
0.97290278
0.97151872
0.97016725
0.9688656
0.96766902
0.96657235
0.9655608
0.96467355
0.96396229
0.963379
0.96290477
0.96255704
0.96228251
0.96205509
0.96203877
0.96176786
0.96198907
0.9618082
0.96196122
0.96197298
0.96204456
0.9620426
0.96208903
0.96247041
0.96265668
0.96118537
0.96333526
1.0074141
1.0145136
1.0163869
1.0169805
1.0133608
1.0080876
1.0029963
0.9988871
0.99616415
0.99454167
0.99289883
0.99086566
0.98890861
0.98749455
0.98648591
0.98607044
0.98595978
0.98582882
0.98527446
0.98443048
0.98339867
0.9822377
0.98099155
0.97974024
0.97847298
0.97718236
0.97582322
0.97444051
0.97306191
0.97165903
0.97024637
0.96886923
0.96759617
0.9664653
0.96545999
0.96458777
0.96381341
0.96317561
0.9626613
0.962252
0.96193614
0.96178488
0.96153312
0.96163605
0.9614233
0.96160725
0.9615036
0.96166891
0.96156677
0.96177996
0.96192938
0.9618649
0.96162989
0.96209221
0.96279143
1.0074399
1.0145769
1.0164726
1.0171262
1.0135375
1.0083087
1.0032352
0.99909543
0.99636467
0.9946582
0.99296709
0.99083952
0.98879526
0.98740333
0.98633137
0.98593304
0.98588573
0.98561398
0.98521578
0.98450029
0.98350101
0.98228584
0.98097271
0.97963182
0.9783412
0.97704162
0.97574718
0.97441591
0.97302948
0.97156036
0.97011725
0.96872626
0.9674763
0.96636073
0.9653475
0.96445115
0.96365746
0.9629674
0.96242252
0.96198556
0.96168818
0.96143196
0.96134229
0.96122545
0.96121094
0.96123751
0.96127236
0.9612027
0.96142251
0.96152972
0.96121073
0.96184144
0.96116379
0.96276495
0.96087515
1.0074807
1.0146345
1.0165404
1.0172556
1.0137001
1.0085261
1.0034517
0.99927784
0.99652999
0.99483516
0.99316206
0.99098321
0.98894159
0.98734281
0.98643997
0.98598551
0.98580268
0.98556609
0.98503663
0.984302
0.98345433
0.98240833
0.98116013
0.97976704
0.9783541
0.97702808
0.97575912
0.97442907
0.97298927
0.97154348
0.97012249
0.96881116
0.96757963
0.96641903
0.96535573
0.96438778
0.96356813
0.96289626
0.96231467
0.96187165
0.96150611
0.96125544
0.96111097
0.960895
0.96102056
0.96084115
0.9609666
0.96101849
0.96112262
0.96093137
0.96134963
0.96122664
0.96145708
0.96138993
0.96114872
1.0074964
1.0146887
1.0166021
1.0173764
1.0138421
1.0087194
1.0036622
0.99947533
0.99664092
0.99499114
0.99332964
0.99115476
0.98911289
0.98747728
0.98647579
0.98596476
0.98581816
0.98565026
0.98509847
0.9842953
0.98334037
0.98229673
0.98108707
0.97979365
0.97847823
0.97721693
0.97593797
0.97458684
0.97317314
0.97176335
0.97035429
0.96899662
0.9676949
0.96648311
0.96539157
0.96439075
0.96353278
0.96281208
0.9622371
0.96173147
0.96132633
0.96108797
0.96077992
0.96082753
0.96056749
0.96073924
0.96066355
0.96074622
0.96074423
0.96078838
0.96127274
0.96048598
0.96171282
0.96037621
0.96194365
1.0075317
1.0147183
1.0166494
1.0174766
1.013996
1.0089097
1.0038608
0.99965288
0.996779
0.99506603
0.99338863
0.99119285
0.9890808
0.98755785
0.9863597
0.98578366
0.98572891
0.98555229
0.98512044
0.98442323
0.98347522
0.98235537
0.98108801
0.97979277
0.97852599
0.97725817
0.97596914
0.97466325
0.973293
0.97186371
0.97042864
0.96900909
0.96767623
0.96644483
0.96536368
0.96443182
0.96359167
0.96285132
0.9621655
0.96162149
0.96122947
0.96089523
0.96072096
0.96050884
0.96050957
0.96046572
0.96047312
0.96053206
0.9604557
0.96094226
0.96035386
0.96100961
0.96085826
0.96081337
0.96116302
1.0075436
1.0147444
1.0166763
1.0175684
1.014101
1.0090799
1.0040426
0.99981312
0.99695131
0.99515754
0.99347823
0.9912659
0.98907739
0.98748137
0.9863569
0.98578297
0.98561577
0.98543058
0.98499153
0.98433807
0.98349801
0.98246124
0.98127769
0.97998015
0.97859437
0.97724131
0.97597599
0.97470969
0.97335146
0.971897
0.9704551
0.96908791
0.96780702
0.9666263
0.96554006
0.96449943
0.96358586
0.9628057
0.96213907
0.96160925
0.96119342
0.96084677
0.96060296
0.96039236
0.96038605
0.96025228
0.96033232
0.96025804
0.96049828
0.96041092
0.96030714
0.96115426
0.95994061
0.96139596
0.9603533
1.007576
1.0147405
1.0166861
1.017635
1.0142543
1.0092506
1.0042148
0.99996823
0.99706471
0.99527171
0.99365456
0.99145193
0.98929852
0.98754381
0.98652404
0.98592935
0.98566552
0.98550167
0.9850356
0.984329
0.98348718
0.98247835
0.98130963
0.98004961
0.97870193
0.97743397
0.97620585
0.97494174
0.97355615
0.97212937
0.9707236
0.969374
0.96808334
0.96685712
0.9656483
0.96463094
0.96376048
0.96294742
0.96224524
0.9616635
0.96116291
0.96081677
0.96049623
0.96039615
0.96018102
0.96019148
0.96013253
0.96016047
0.96031903
0.9600574
0.96072566
0.96017286
0.9604405
0.96084724
0.96030128
1.0075898
1.0147637
1.0166754
1.0177016
1.014261
1.0093832
1.0043609
1.0001018
0.99713077
0.9953568
0.99375919
0.99156049
0.98941422
0.98770781
0.98653872
0.98586774
0.98567892
0.98554004
0.98512623
0.98445767
0.98358748
0.98260637
0.98141572
0.98010914
0.97882466
0.97761594
0.97636957
0.97513489
0.97378749
0.9723988
0.97098266
0.96960515
0.96827623
0.96701822
0.96599268
0.96463334
0.96390188
0.96308223
0.96232484
0.96176746
0.96128513
0.96082587
0.96051999
0.96031057
0.96018511
0.96013063
0.96003736
0.96013396
0.96001135
0.96023688
0.9603579
0.95994032
0.96092247
0.95998746
0.96073927
1.0076073
1.014704
1.0166667
1.0177091
1.0144086
1.0095177
1.0045003
1.0002285
0.99724715
0.99544499
0.99384149
0.99159259
0.98940296
0.98772357
0.98649764
0.98582095
0.98560381
0.98546574
0.9850754
0.98446148
0.98367239
0.98268163
0.98153664
0.98035309
0.9790219
0.9777138
0.97643688
0.97523936
0.97392024
0.97256452
0.97110524
0.96976676
0.96843478
0.96720521
0.96608298
0.96512915
0.96405625
0.96328897
0.96248156
0.96179805
0.96131347
0.96092014
0.960569
0.96028237
0.96022928
0.9600166
0.95998607
0.96001885
0.96004295
0.96018755
0.95996091
0.96041503
0.96019208
0.9603564
0.96061025
0.96044874
0.96052279
0.96081096
0.96096467
0.96095148
0.96107267
0.96180307
0.96201893
0.96179775
0.96242207
0.96313571
0.96311802
0.96329295
0.96394723
0.96423463
0.96437653
0.96482713
0.9653176
0.96533898
0.96581574
0.96614177
0.96615144
0.96675385
0.9667166
0.96703566
0.96728201
0.96736772
0.9605544
0.9607072
0.96077532
0.96090617
0.96119235
0.96143562
0.96146451
0.96188879
0.96227174
0.96232618
0.96275448
0.96305715
0.96340298
0.9636677
0.96391418
0.96440891
0.96457108
0.96482078
0.96523521
0.96538081
0.9656668
0.96602803
0.9660312
0.96646325
0.96652305
0.96672689
0.96692115
0.9607795
0.96082209
0.96096562
0.96105036
0.96118128
0.96142545
0.96172303
0.96181161
0.96215747
0.9624933
0.96255222
0.96306283
0.96317399
0.96353637
0.96389014
0.96390508
0.96447644
0.96454968
0.96482756
0.96512937
0.96528977
0.96555669
0.96579851
0.96585415
0.96614236
0.96624092
0.96636931
0.96078866
0.96089172
0.96100954
0.96123635
0.9613536
0.96142846
0.96174145
0.96195703
0.96203402
0.96245242
0.96264164
0.962771
0.96325146
0.96325144
0.96366181
0.96394739
0.96391423
0.96447922
0.96444516
0.96479836
0.96497489
0.96511627
0.9653776
0.96551928
0.9656115
0.96581542
0.96585451
0.96088603
0.96115102
0.96115959
0.96125644
0.96153117
0.9615933
0.96169767
0.96205054
0.96213193
0.96225972
0.96267388
0.96273903
0.96292634
0.96337338
0.96326573
0.96373324
0.9639064
0.96389665
0.96444933
0.96422351
0.96483456
0.96465938
0.96501602
0.9649929
0.96534512
0.96516539
0.96552503
0.96105749
0.96130054
0.96133076
0.96137041
0.96153692
0.96179052
0.96173947
0.96194597
0.96232041
0.96221362
0.96246824
0.96286059
0.9627279
0.96312544
0.96333598
0.96326043
0.96382593
0.96363422
0.96409146
0.96410663
0.96423926
0.9645019
0.96454543
0.96467438
0.96474714
0.964883
0.96493724
0.96125908
0.96132185
0.96142383
0.96149837
0.96151069
0.96177137
0.96191435
0.96188614
0.96214373
0.96242667
0.96233964
0.96259198
0.96291977
0.96271509
0.96325269
0.96320261
0.96328044
0.96376757
0.96340339
0.96412074
0.96372234
0.96426544
0.96401838
0.96445417
0.96415566
0.96456714
0.96433848
0.96157178
0.96130253
0.96154063
0.96173469
0.96151518
0.96166434
0.96202202
0.9619678
0.96194151
0.96242986
0.96231541
0.96238495
0.96284926
0.96259602
0.9629442
0.96312206
0.96305768
0.96338174
0.96337702
0.96351875
0.96368344
0.9636657
0.96383894
0.96383818
0.96398334
0.96390869
0.96399331
0.96148347
0.9615256
0.96139103
0.96175363
0.96178196
0.96154387
0.96196431
0.96211348
0.96182459
0.96228445
0.96240079
0.96216015
0.96264809
0.96264642
0.96253929
0.9630271
0.96280485
0.9630858
0.96318841
0.96311651
0.96346781
0.96320455
0.96363306
0.963267
0.96367854
0.96339709
0.96360346
0.96146842
0.96151924
0.96143959
0.96160215
0.96191372
0.96170889
0.96160942
0.96215445
0.96203609
0.96177469
0.96247085
0.96218452
0.96214244
0.9627869
0.96216666
0.96288054
0.96260154
0.9627069
0.96306254
0.96263715
0.96333525
0.96267882
0.9633722
0.96283358
0.96327376
0.96292323
0.96320524
0.96144158
0.96183705
0.9615681
0.96139359
0.96188477
0.96181072
0.96147436
0.96205492
0.96192835
0.96168173
0.96233886
0.96194616
0.9620915
0.9624675
0.96206707
0.96257533
0.9623456
0.96254338
0.96263963
0.96245044
0.96282238
0.96253022
0.96277521
0.96265313
0.96268486
0.9626137
0.96267547
0.96150227
0.96182567
0.96161365
0.96136524
0.96175873
0.96174993
0.9614546
0.96187568
0.96183247
0.96164308
0.96200979
0.96187567
0.96192641
0.96217929
0.96193826
0.96225723
0.96216846
0.96210348
0.96252296
0.96202107
0.96255429
0.96210238
0.96246248
0.962138
0.96239772
0.96208837
0.96226621
0.96134764
0.96170459
0.96140721
0.96136199
0.96174278
0.96147949
0.96143689
0.96177019
0.96152733
0.96170639
0.9617732
0.96164762
0.96188468
0.96176477
0.96183839
0.96196136
0.96191174
0.9618988
0.96200608
0.96189927
0.96207541
0.96178781
0.96209527
0.96167668
0.96201154
0.96155172
0.96192143
0.96134638
0.96138848
0.96134554
0.96146441
0.9613642
0.96137606
0.96159009
0.96133687
0.96155212
0.96159077
0.96136235
0.96177001
0.96146091
0.9616322
0.9617235
0.96144902
0.96188151
0.9613735
0.96187341
0.96152262
0.96157455
0.96160215
0.96155011
0.96138743
0.96152427
0.96110983
0.96144866
0.96131641
0.96136579
0.961384
0.9613044
0.96128711
0.96146919
0.96129206
0.96125338
0.96144861
0.96132221
0.96133642
0.96135762
0.96138317
0.96144884
0.96121335
0.96141184
0.96149894
0.96113372
0.96147852
0.96118206
0.96125424
0.9612984
0.96093898
0.96117427
0.96100278
0.96072236
0.96091683
0.96137574
0.96132217
0.96115201
0.96127966
0.96122389
0.9611282
0.9612494
0.96116207
0.96105736
0.96131183
0.96112026
0.9609632
0.96128435
0.96105077
0.96104316
0.96121257
0.96087182
0.96106535
0.96109232
0.96077741
0.9609323
0.96085955
0.96061252
0.96072792
0.96055002
0.96030918
0.96047683
0.96115962
0.96105895
0.96109764
0.96104843
0.96097555
0.96096063
0.96103627
0.9609376
0.96083166
0.96109633
0.96073324
0.96093734
0.96103615
0.96051256
0.96103069
0.96072684
0.960643
0.96082515
0.9605033
0.96062331
0.96049483
0.96046987
0.96018537
0.96036352
0.96006443
0.95994953
0.95985485
0.96086761
0.960967
0.96089833
0.96065626
0.96084802
0.96094819
0.96061549
0.96064725
0.9608772
0.96060245
0.96055487
0.96074042
0.96048588
0.96054332
0.96063649
0.96028629
0.96047938
0.96045448
0.96017035
0.96017086
0.96015907
0.9601135
0.9598214
0.95991791
0.95955694
0.95957046
0.95943042
0.96066891
0.96078375
0.96062792
0.96049813
0.96067679
0.96057009
0.96042135
0.96061202
0.96043514
0.96027069
0.96052884
0.96032514
0.96014481
0.96037395
0.96019814
0.95999507
0.96018753
0.96005339
0.95979708
0.95987606
0.95984311
0.95959915
0.9594202
0.95952969
0.9592209
0.95912904
0.95893624
0.96058905
0.96036323
0.96033874
0.96051765
0.96034474
0.96020594
0.96024949
0.96026233
0.96017608
0.96007524
0.96020293
0.95988741
0.95996648
0.96018254
0.95960621
0.95985318
0.95978776
0.95971941
0.95942147
0.95957176
0.95941558
0.95913232
0.95916323
0.95910644
0.95876831
0.95866495
0.95856501
0.96026421
0.96016566
0.96010252
0.96015763
0.96009545
0.95987265
0.96013546
0.95987995
0.95970022
0.96012094
0.95959167
0.95968911
0.9597367
0.95959834
0.95962676
0.95915907
0.95974804
0.95905524
0.95928398
0.95915586
0.95895843
0.95884266
0.95865841
0.95881771
0.95831844
0.95823754
0.95806776
0.96000211
0.95980902
0.95992635
0.9597339
0.95966399
0.95990988
0.95957324
0.9595001
0.95965951
0.95955868
0.95958411
0.95912307
0.95942579
0.95946675
0.95889895
0.95929254
0.95897179
0.95898173
0.95870294
0.95876719
0.95878821
0.95827829
0.9583544
0.95814275
0.95825959
0.95769563
0.95765392
0.95959642
0.95955207
0.95973159
0.95938398
0.95937278
0.95958619
0.95920377
0.9593316
0.95926397
0.95910935
0.95933726
0.95872961
0.95929699
0.95894416
0.9585565
0.95900945
0.9584791
0.95888791
0.95802236
0.95852555
0.95831097
0.95803729
0.95799023
0.95756356
0.95795
0.95733469
0.95734012
0.95928241
0.95930351
0.95932324
0.95903161
0.95919815
0.95920082
0.95890864
0.9589876
0.95886026
0.95903362
0.95875854
0.95852956
0.95888353
0.95852859
0.95848295
0.9582975
0.9583402
0.95840801
0.95779761
0.95807599
0.95777823
0.95783876
0.95765239
0.95715012
0.95744766
0.95708366
0.95704686
0.95909117
0.95883588
0.95883706
0.95884404
0.9589541
0.95896744
0.95841687
0.9586613
0.9587686
0.95853632
0.95850022
0.95801562
0.95863417
0.95829324
0.95803027
0.95797232
0.95775728
0.95832091
0.95736134
0.95781491
0.95713671
0.95765713
0.95727917
0.95689536
0.95692486
0.95673424
0.9567156
0.95880384
0.95858366
0.95837981
0.95865413
0.95867176
0.95837508
0.9583246
0.95814213
0.95852162
0.95834907
0.95786664
0.95811824
0.95784621
0.95820994
0.95772479
0.9574716
0.9577641
0.95739969
0.95764155
0.957005
0.95719803
0.9569975
0.95703319
0.95663243
0.95655849
0.95639621
0.95631952
0.95846713
0.9583343
0.95805122
0.95834433
0.95829023
0.95811442
0.9581334
0.95770632
0.9582068
0.95794462
0.95771282
0.95783261
0.9572878
0.95800829
0.9573113
0.95741937
0.95726793
0.95696304
0.95750433
0.95658001
0.95711572
0.95634414
0.95687437
0.9563584
0.95633387
0.95598101
0.95594776
0.95822911
0.95790643
0.95782128
0.9579532
0.95800152
0.9579852
0.95757632
0.95762628
0.9577389
0.9576621
0.95765257
0.95712897
0.95737682
0.95736857
0.95721414
0.9571255
0.95668998
0.95699775
0.95684137
0.95673909
0.95642312
0.95631781
0.95628868
0.95627334
0.95596272
0.95578916
0.95558457
0.95780105
0.95767116
0.95756769
0.95770261
0.95769703
0.95744171
0.95745876
0.95739481
0.95743214
0.95750146
0.95705827
0.95705823
0.95708353
0.95704566
0.9570767
0.95657458
0.95669817
0.95653055
0.95669542
0.95637763
0.95623445
0.9560639
0.95598127
0.95595127
0.95574534
0.95562097
0.95540467
0.95742294
0.95745263
0.95734809
0.95747939
0.95728303
0.95711791
0.95725605
0.95707432
0.95732086
0.95702334
0.95686075
0.95687063
0.95667697
0.95700614
0.9564893
0.95667792
0.9562668
0.95638437
0.9563669
0.95604508
0.95624799
0.955665
0.95596866
0.95543376
0.9556838
0.95538049
0.9553401
0.95715396
0.95716164
0.95714389
0.95719939
0.95697763
0.95701487
0.95689665
0.95688357
0.9570027
0.9567102
0.95685273
0.95650044
0.95657547
0.95654941
0.95634764
0.95659554
0.95601738
0.95630608
0.95581687
0.95604406
0.95596021
0.9556961
0.95565637
0.95521562
0.95543406
0.95527709
0.95525558
0.95697601
0.9568552
0.95692747
0.95686819
0.95687459
0.95688279
0.95660141
0.95671046
0.95658439
0.95670674
0.95667049
0.95635911
0.95641325
0.95611243
0.95647261
0.95622623
0.9562116
0.95592486
0.95566768
0.95593623
0.95567994
0.95585712
0.95530869
0.95534844
0.95512145
0.95527219
0.95509741
0.95680682
0.95665999
0.95668631
0.95662605
0.95677832
0.95666351
0.95651827
0.95649723
0.95637095
0.95662442
0.9563948
0.95638994
0.95616565
0.95606369
0.95631831
0.95598949
0.95625345
0.95566812
0.95583435
0.95567923
0.95564665
0.95570353
0.95523496
0.95541998
0.95504872
0.95525192
0.95498049
0.95661113
0.95656472
0.95654311
0.9565443
0.95658206
0.95643961
0.95648135
0.95638203
0.9564214
0.95641925
0.95622565
0.95631462
0.95605149
0.95622602
0.95611035
0.95596701
0.9560437
0.95563304
0.95593194
0.95559163
0.95571014
0.95550328
0.95532371
0.95535327
0.95516184
0.95519609
0.95498199
0.95637949
0.95651479
0.95658016
0.95657037
0.95641305
0.95630793
0.95635793
0.95639669
0.95647819
0.95630984
0.95622017
0.95614123
0.95612479
0.95625135
0.95606902
0.95603817
0.95589253
0.95580583
0.9558764
0.95573602
0.95568953
0.95554435
0.95544431
0.9553788
0.95529635
0.95519822
0.95509224
0.95638259
0.95652267
0.95660119
0.95653823
0.95638516
0.95632282
0.95637133
0.95646352
0.95647142
0.95635339
0.95624734
0.95615802
0.95622464
0.95621667
0.95618872
0.95608831
0.95595644
0.9559524
0.95583765
0.95590986
0.95572231
0.95573855
0.95556494
0.95550795
0.95539192
0.95531151
0.95523467
0.95656839
0.95657341
0.9566495
0.95660412
0.95651722
0.95644532
0.95646031
0.95652119
0.95652019
0.95644418
0.95635881
0.95631207
0.95634409
0.95635583
0.95629789
0.95619745
0.95607764
0.95607643
0.95603067
0.9560859
0.95595517
0.95584622
0.95569545
0.95560936
0.95560232
0.95557997
0.95550613
0.95672205
0.9567522
0.95676381
0.95671636
0.95667993
0.95661564
0.95666305
0.95669864
0.95664753
0.95662736
0.95648637
0.95649851
0.95652108
0.95655487
0.95649481
0.9564324
0.9562627
0.95630809
0.95623688
0.95630902
0.95619399
0.95607541
0.95594823
0.95587082
0.95588019
0.95586439
0.95577178
0.95690858
0.95694579
0.95697605
0.95694181
0.95692287
0.95690704
0.95683092
0.95695187
0.95686621
0.95684304
0.95685268
0.95668463
0.95684771
0.95671037
0.95676249
0.95670214
0.95655359
0.95664706
0.95646739
0.95661746
0.95639241
0.95644995
0.95623317
0.95627827
0.95616458
0.9561828
0.95606033
0.95717829
0.95720843
0.95722989
0.95727133
0.95718731
0.95720108
0.95714505
0.95713468
0.95725194
0.95707627
0.95728159
0.95698939
0.9571887
0.95698573
0.95705845
0.95703304
0.95692577
0.95704362
0.95676713
0.95698467
0.95663558
0.95689784
0.95654354
0.95677364
0.95646272
0.95657947
0.95638833
0.9575439
0.95756919
0.95754053
0.95757518
0.95757132
0.95749314
0.95760719
0.95738891
0.95767943
0.95738032
0.95766239
0.95736412
0.95752238
0.95740635
0.95740523
0.95749934
0.95728774
0.95751088
0.95708567
0.9574463
0.95695685
0.95742439
0.95694633
0.95727498
0.95687698
0.95700667
0.95682786
0.95801587
0.95798632
0.95795385
0.95795559
0.95807887
0.95787616
0.95811506
0.95775061
0.95809209
0.95781547
0.95807221
0.95785323
0.95788094
0.95786911
0.95778537
0.95800974
0.95766877
0.95806715
0.95741452
0.95802795
0.95732191
0.95801815
0.95742434
0.95777266
0.95737996
0.95745676
0.95735816
0.95855971
0.95849573
0.95846461
0.95836827
0.95864079
0.95838313
0.95866399
0.95822248
0.95850981
0.95829171
0.95853541
0.95848739
0.95829124
0.95850811
0.95799091
0.95873134
0.95791141
0.95884246
0.95780349
0.95858053
0.95788758
0.95832896
0.95816671
0.9580934
0.9581498
0.95788999
0.95800315
0.9591382
0.95905572
0.95905923
0.95881455
0.95918402
0.95891014
0.95921494
0.95889141
0.95887409
0.9590155
0.95870227
0.95940602
0.95852987
0.95942053
0.95831662
0.95925411
0.95859548
0.95900624
0.95899102
0.95848388
0.95918801
0.95815072
0.95928317
0.95823735
0.95908029
0.95840198
0.95868523
0.9596576
0.95961228
0.95975918
0.95960897
0.95944474
0.95974
0.95923462
0.96001818
0.95914254
0.95987739
0.95918057
0.95955883
0.95965727
0.95920278
0.96006762
0.95873411
0.96013273
0.95868953
0.96004856