/*--------------------------------*- C++ -*----------------------------------*\
| =========                 |                                                 |
| \\      /  F ield         | OpenFOAM: The Open Source CFD Toolbox           |
|  \\    /   O peration     | Version:  2406                                  |
|   \\  /    A nd           | Website:  www.openfoam.com                      |
|    \\/     M anipulation  |                                                 |
\*---------------------------------------------------------------------------*/
FoamFile
{
    version     2.0;
    format      ascii;
    arch        "LSB;label=32;scalar=64";
    class       volScalarField;
    location    "9";
    object      rho;
}
// * * * * * * * * * * * * * * * * * * * * * * * * * * * * * * * * * * * * * //

dimensions      [1 -3 0 0 0 0 0];

internalField   nonuniform List<scalar> 
96472
(
1.0041712
1.008388
1.0086433
1.0089015
1.0066488
1.0030965
0.99981523
0.99740975
0.99600268
0.99527497
0.99466523
0.99396029
0.99332238
0.99307634
0.99299418
0.9928647
0.99264845
0.99226687
0.99151964
0.99051952
0.98939303
0.98840527
0.98735815
0.98630707
0.98537848
0.98454563
0.98366876
0.98289206
0.98222324
0.98158056
0.98096162
0.98041355
0.97995488
0.97958171
0.97933408
0.9791298
0.97898267
0.97881282
0.97870094
0.97859761
0.97848564
0.978438
0.97834712
0.97832833
0.97809799
0.9781862
0.97809458
0.97797
0.97783964
0.97776532
0.97767291
0.97758149
0.97727888
0.97722181
0.97685228
1.0042003
1.0084549
1.0087305
1.009009
1.0067295
1.0031566
0.99983858
0.9974007
0.9959965
0.99520365
0.99448139
0.99371136
0.99303063
0.99274691
0.99265901
0.99268345
0.99247832
0.99208572
0.99142511
0.99051957
0.98947143
0.98840754
0.98744637
0.98648826
0.98542528
0.98444577
0.98360685
0.98284266
0.9821316
0.98142005
0.98076077
0.98016901
0.97971071
0.97937127
0.97909758
0.97885052
0.97867602
0.97854106
0.97844878
0.97828219
0.9782736
0.97814859
0.97806385
0.97798475
0.97797101
0.97780844
0.97777699
0.97763461
0.97762889
0.97756224
0.97742845
0.97722449
0.97719277
0.97707096
0.97685821
1.0042389
1.0085466
1.0088347
1.0091146
1.006829
1.0032561
0.99989506
0.9973984
0.9959636
0.99518118
0.99443048
0.99354911
0.99285258
0.99252738
0.99246544
0.99241256
0.99232851
0.99193928
0.99130206
0.99033306
0.98939487
0.98839394
0.98736868
0.98644265
0.98547448
0.98450702
0.98366429
0.98284191
0.98201362
0.98125307
0.980592
0.98003109
0.97957015
0.97915176
0.97881149
0.97855338
0.97836699
0.97819124
0.97808036
0.97803983
0.97791087
0.97785449
0.97785003
0.97774474
0.97767874
0.97767422
0.97756194
0.97755346
0.97744954
0.97727912
0.97723521
0.977202
0.97703535
0.97684277
0.97674215
1.0042677
1.0086194
1.0089324
1.0092384
1.0069256
1.0033638
0.99998969
0.99743264
0.99592341
0.99511377
0.99436491
0.99345808
0.99271893
0.99238912
0.99231179
0.99220108
0.99208966
0.99177135
0.99118043
0.99028572
0.98926795
0.98830217
0.987256
0.98624405
0.98531639
0.98444547
0.98355177
0.9827023
0.98192733
0.98118985
0.98048471
0.97986839
0.97933479
0.9788669
0.97849924
0.97821434
0.97802913
0.97784664
0.97776812
0.97758728
0.97761451
0.9775074
0.97743469
0.97740922
0.97739416
0.97726538
0.97726025
0.97716252
0.97704977
0.97718576
0.97698119
0.9768479
0.97680017
0.97664946
0.97677751
1.004309
1.0087154
1.0090447
1.0093692
1.0070463
1.0034614
1.0000761
0.99749821
0.99594244
0.99503204
0.99420858
0.99327726
0.99247359
0.99214237
0.99200696
0.992035
0.99193508
0.9916074
0.99101717
0.99024747
0.98929292
0.98826768
0.98727507
0.98631861
0.98530637
0.98433985
0.98341631
0.98257765
0.9818187
0.98104414
0.98030253
0.97962164
0.97904467
0.97858364
0.97826554
0.9779507
0.97771399
0.97754368
0.97737844
0.97736315
0.97720336
0.97717551
0.97718144
0.97711268
0.97707529
0.97710752
0.97701796
0.97699828
0.97703486
0.97679392
0.9767706
0.9767489
0.97664528
0.9765721
0.97611573
1.0043314
1.0087939
1.0091498
1.0095065
1.0071856
1.003597
1.0001775
0.99757192
0.99600768
0.99506647
0.99414421
0.99312005
0.99227795
0.99186649
0.99172247
0.99176245
0.99174554
0.9914974
0.99092247
0.99003673
0.98917325
0.98821703
0.98724019
0.98633356
0.9853529
0.98435965
0.98346513
0.98260021
0.98173068
0.98087389
0.98012227
0.97945607
0.97890055
0.97842831
0.97802023
0.97769561
0.97740336
0.97720546
0.97709498
0.97692242
0.97689333
0.97681456
0.97669552
0.97675123
0.97668299
0.97667352
0.97666259
0.97664971
0.97651725
0.97665861
0.9765137
0.97652073
0.97619454
0.97621817
0.97642206
1.0043784
1.0088999
1.0092656
1.0096513
1.0073273
1.0037401
1.0002957
0.99764382
0.99603274
0.99510427
0.99417694
0.99308313
0.99218772
0.9917446
0.99163173
0.99156479
0.99150184
0.99129397
0.99081757
0.98997822
0.9890112
0.98808128
0.9870846
0.98609327
0.98514452
0.98423499
0.98336318
0.98249266
0.98160564
0.98076931
0.97997583
0.97929166
0.97870267
0.97816848
0.97770585
0.97733579
0.97708402
0.97688331
0.97673007
0.97665356
0.97653079
0.97644504
0.97649612
0.97636827
0.97643014
0.97643363
0.97636277
0.97641394
0.97648116
0.976287
0.97634589
0.97612153
0.97633049
0.97608751
0.97589225
1.0043925
1.0089876
1.0093782
1.0097994
1.0074608
1.003893
1.0004375
0.99775041
0.99606524
0.99508932
0.99413584
0.99303714
0.99208765
0.99160478
0.99142501
0.99141703
0.99135015
0.99104514
0.99056118
0.98992592
0.98901232
0.98802778
0.98702108
0.98606374
0.98510109
0.98415369
0.98318846
0.98227009
0.98142036
0.98060083
0.97980459
0.97907379
0.97840977
0.97785112
0.97743448
0.97706623
0.97677019
0.97659832
0.97640745
0.97632764
0.97615242
0.97618765
0.97596287
0.97607569
0.97596168
0.97593527
0.97604577
0.97605
0.97593796
0.97607592
0.97595966
0.97609607
0.97576923
0.97590988
0.97574512
1.0044448
1.0090888
1.0094896
1.0099393
1.0076092
1.0040326
1.0005844
0.99786668
0.99616641
0.99509929
0.99405626
0.99289419
0.9918915
0.99139249
0.99110131
0.99117097
0.99122704
0.9910111
0.99045308
0.98969582
0.98892102
0.98797333
0.98699408
0.98610214
0.98514501
0.98416819
0.98319291
0.98228386
0.9813912
0.98050357
0.97966463
0.97887969
0.97819898
0.97767905
0.97720956
0.9768169
0.9765067
0.97623695
0.97611264
0.97591151
0.97591272
0.97570797
0.97579603
0.97570704
0.97567639
0.97578282
0.97570245
0.97572161
0.97573939
0.97584285
0.97575576
0.97564164
0.97576399
0.97560178
0.97576944
1.0044523
1.0091783
1.0095925
1.0100848
1.0077445
1.0041856
1.0007276
0.99799467
0.99628546
0.99519896
0.99410895
0.99284472
0.99181537
0.99126257
0.99099463
0.99095021
0.99095078
0.99083042
0.99043008
0.98959511
0.98871506
0.98782526
0.98687316
0.98590905
0.98495064
0.98400587
0.98312596
0.98223464
0.98129591
0.98035403
0.97947077
0.9787162
0.9780493
0.97747269
0.97692882
0.97649602
0.9761293
0.97593252
0.97567661
0.97565916
0.97543964
0.975502
0.97535377
0.97529893
0.97533118
0.97532108
0.9753312
0.97531351
0.97558051
0.97524933
0.97543526
0.97546904
0.97542437
0.97546898
0.97515717
1.0045056
1.0092726
1.0097126
1.0102239
1.0079122
1.0043569
1.0009071
0.998125
0.99634868
0.9952745
0.99417419
0.99289447
0.99177587
0.99115225
0.99095623
0.99085015
0.9908153
0.99058586
0.99018849
0.98958786
0.98868555
0.98775841
0.98678936
0.98579233
0.98483762
0.98390645
0.98296031
0.98200314
0.9810594
0.98015079
0.97928806
0.97850192
0.9777836
0.97716632
0.97663177
0.97620605
0.97585381
0.97557622
0.97544127
0.97524702
0.9752018
0.97510426
0.97502004
0.97508419
0.97506668
0.97499817
0.9750134
0.97529369
0.9748177
0.97536628
0.97506711
0.97527334
0.97503273
0.97519372
0.97507111
1.0045161
1.0093659
1.0098143
1.0103741
1.0080756
1.0045186
1.0010607
0.99828008
0.99645217
0.99531894
0.99415926
0.99285312
0.99170192
0.99103211
0.99068927
0.99070999
0.99071797
0.99051689
0.98999413
0.98937606
0.98863877
0.98770231
0.98672503
0.98582997
0.98490869
0.9839495
0.98292225
0.9819527
0.98102505
0.98011286
0.97922508
0.97837699
0.97762673
0.97697438
0.97642957
0.97598228
0.97560853
0.97533829
0.9750973
0.97495335
0.97484314
0.9747347
0.97471181
0.9746742
0.97456675
0.97468325
0.97481074
0.97451023
0.97504035
0.97460133
0.97498054
0.97480236
0.97492739
0.97467634
0.97513745
1.0045625
1.0094529
1.009907
1.0105065
1.0082247
1.0047183
1.0012366
0.99843459
0.99659414
0.99539975
0.99417716
0.99278281
0.99158512
0.99088556
0.99043773
0.99045461
0.99053043
0.99042587
0.99002146
0.98924229
0.98845703
0.98757565
0.9866366
0.98570976
0.98477304
0.98380745
0.98288078
0.98196595
0.98101376
0.98002814
0.97907217
0.97821132
0.97744611
0.97679964
0.97622501
0.97571936
0.97529582
0.97500298
0.97474629
0.97462221
0.97443909
0.97442865
0.97438645
0.97431421
0.97441657
0.97439394
0.97429928
0.97453671
0.97440979
0.97459183
0.97470204
0.97428759
0.97477101
0.97468885
0.97450783
1.004579
1.0095379
1.010001
1.0106438
1.0083636
1.0048831
1.0014165
0.99857518
0.99671873
0.99552749
0.99431209
0.99285002
0.99161137
0.99085006
0.99049792
0.99035072
0.99038901
0.99018378
0.98984981
0.9892413
0.988399
0.98753228
0.98657176
0.98556393
0.98459805
0.98368166
0.982767
0.98180403
0.98079283
0.97979853
0.97887051
0.97800873
0.97725126
0.97656866
0.97595779
0.97544681
0.97501676
0.97468919
0.9744678
0.97425959
0.9741954
0.97410653
0.97400813
0.97405121
0.97397421
0.97399865
0.9740177
0.97424061
0.97400327
0.9744013
0.97394673
0.97446844
0.97440629
0.97430199
0.97411302
1.0046156
1.0096265
1.0100976
1.0107714
1.0085054
1.0050498
1.0015962
0.99873139
0.99682731
0.99561597
0.99436168
0.99293482
0.99163483
0.99079855
0.99043434
0.99027431
0.99026472
0.99013803
0.98965296
0.98908175
0.98836193
0.98748897
0.98654791
0.98560563
0.98466798
0.98372873
0.9827144
0.98171004
0.98074347
0.97978591
0.97884644
0.97795618
0.97713465
0.97642596
0.97577522
0.97524979
0.97481488
0.97448587
0.97419204
0.97403759
0.9738583
0.97377951
0.97373845
0.97369899
0.97368085
0.97368745
0.97388019
0.9735734
0.97407893
0.97376923
0.97384989
0.97443159
0.97371822
0.97377673
0.9745622
1.0046356
1.0096965
1.0101796
1.0108981
1.0086558
1.005216
1.0017658
0.99889637
0.9969622
0.9956929
0.99437322
0.99288149
0.9915467
0.99073598
0.99018668
0.99016358
0.99016285
0.99007412
0.98967326
0.98899899
0.98824422
0.987351
0.98643238
0.98553477
0.98464146
0.9836965
0.98272552
0.98176003
0.98079618
0.97979739
0.97880129
0.97786479
0.97702395
0.97629106
0.97563884
0.9750784
0.97460156
0.9742249
0.97392841
0.97369943
0.97356094
0.97345525
0.97339786
0.97333965
0.97342148
0.97342235
0.97332795
0.97365824
0.97343488
0.97350509
0.97399167
0.97340602
0.97350131
0.97431503
0.9737315
1.0046701
1.009764
1.0102528
1.0110205
1.0088072
1.0053927
1.0019513
0.99905456
0.99709822
0.99581009
0.99447619
0.99289485
0.99152673
0.99062735
0.99009973
0.98998375
0.99007199
0.98988112
0.98958268
0.98899964
0.98823033
0.98736472
0.98640486
0.98541686
0.98447086
0.9835425
0.98263347
0.98168451
0.98066762
0.97962291
0.97861615
0.97770408
0.97686597
0.97612258
0.9754645
0.97487341
0.97437324
0.97397271
0.97365727
0.97343673
0.97327465
0.97319988
0.97308731
0.97318123
0.97301632
0.97313979
0.9731642
0.97315969
0.97322794
0.97338066
0.97328595
0.97316799
0.97376145
0.97384862
0.97281097
1.0046861
1.009837
1.0103234
1.011131
1.0089462
1.0055528
1.002121
0.99919691
0.99721251
0.99595969
0.99464366
0.99303223
0.99162704
0.99062496
0.9901842
0.98998719
0.99000068
0.98986788
0.98940927
0.9888414
0.9881759
0.9873902
0.98646303
0.98546208
0.98448314
0.98356345
0.98261444
0.98161604
0.98059
0.97959223
0.97862184
0.97769493
0.97684412
0.97606826
0.97534863
0.97472254
0.97422027
0.97381543
0.97347902
0.97324593
0.97305997
0.97290486
0.97291013
0.97272935
0.97289315
0.97278115
0.97292602
0.97288961
0.97299728
0.97299312
0.97295557
0.97326757
0.97350879
0.97243395
0.97370372
1.0047158
1.0098863
1.0103848
1.0112376
1.0090753
1.0057182
1.0022874
0.99935637
0.9973325
0.99603051
0.99468152
0.99310685
0.99166142
0.99067655
0.99007875
0.98988893
0.9898742
0.98982324
0.98941503
0.98880162
0.98806519
0.9872403
0.98635741
0.98546587
0.98456151
0.9836489
0.98268415
0.98169218
0.98070079
0.9797004
0.97869304
0.97771268
0.9768042
0.97599383
0.97527309
0.97465392
0.97410815
0.973667
0.97330433
0.97302652
0.97280137
0.97270845
0.97253958
0.97259947
0.9724971
0.97261368
0.97256462
0.97270872
0.97261121
0.97274401
0.97290134
0.97282049
0.97277842
0.97274785
0.97374025
1.0047315
1.0099359
1.0104322
1.0113384
1.0091948
1.0058731
1.0024584
0.99950815
0.99747283
0.99610688
0.99472519
0.99308716
0.99157219
0.99061915
0.98993682
0.98976202
0.98981605
0.98967297
0.98939683
0.98886941
0.98812934
0.98725119
0.9863156
0.98537646
0.98447205
0.98355755
0.98263356
0.98168307
0.98069766
0.97964607
0.97860937
0.97760791
0.97670664
0.97590788
0.97518496
0.97455245
0.97399209
0.97350958
0.97312132
0.97281946
0.97260755
0.97244805
0.97236355
0.97233812
0.97228611
0.9723736
0.97238044
0.9723403
0.97248161
0.97260181
0.97235807
0.97278208
0.97230262
0.97347214
0.97231163
1.0047638
1.0099687
1.0104714
1.0114207
1.0093048
1.0060249
1.002613
0.99963739
0.99759705
0.99624045
0.99486501
0.99317414
0.99165602
0.99055522
0.98999865
0.98979089
0.98975646
0.9896194
0.98926035
0.98874067
0.9881204
0.98735725
0.9864529
0.98545446
0.98445853
0.98352259
0.98262157
0.98167865
0.98065077
0.97961118
0.9785889
0.97764352
0.97676176
0.97593401
0.97517792
0.97449568
0.97391745
0.97344312
0.97303289
0.97272229
0.97247612
0.9723011
0.9722236
0.97205088
0.97218331
0.97205368
0.97215924
0.97218972
0.97228206
0.97217019
0.97235192
0.97245836
0.9723978
0.97270978
0.97215645
1.0047701
1.0100156
1.0104991
1.0115071
1.0093966
1.0061598
1.002762
0.99977662
0.99768105
0.99636641
0.99499445
0.99330483
0.99178883
0.99063083
0.99003384
0.98979284
0.98976087
0.98967813
0.98928136
0.98870612
0.98802512
0.98727917
0.98642103
0.98549492
0.98454968
0.98365148
0.98274866
0.98178679
0.98077122
0.97976005
0.9787516
0.9777873
0.97686064
0.97599382
0.9752118
0.97449435
0.97388249
0.97337727
0.97297473
0.97262219
0.97234287
0.97218675
0.97196621
0.97200396
0.97184606
0.97196102
0.97193091
0.97199073
0.9720159
0.97196868
0.97242623
0.97179914
0.97269123
0.97179329
0.97280907
1.0048041
1.0100235
1.0105233
1.0115636
1.0095044
1.0062914
1.0029019
0.9999055
0.99777873
0.99642516
0.99504798
0.99334477
0.99177727
0.99070025
0.989946
0.98965505
0.9897017
0.9896196
0.98931419
0.98880355
0.98811009
0.98730474
0.9864008
0.98548579
0.98458691
0.98369677
0.98278502
0.98185071
0.98087252
0.97985165
0.97882592
0.97780891
0.97685415
0.97596737
0.97518681
0.97451875
0.97392756
0.97340951
0.97291568
0.97253602
0.97226684
0.97204545
0.97190596
0.97178782
0.97176533
0.97178814
0.97177381
0.97183976
0.9717632
0.97211927
0.97178331
0.97204042
0.97224063
0.97190694
0.97244855
1.0048031
1.0100583
1.0105232
1.01164
1.009564
1.0064069
1.0030291
1.0000199
0.99790238
0.9964905
0.9951149
0.99339362
0.99176238
0.99065071
0.98991924
0.98962396
0.98961256
0.98952635
0.9892312
0.98877073
0.98815257
0.98740306
0.98654579
0.98561435
0.98463297
0.98367982
0.98277995
0.9818806
0.98091469
0.97987647
0.97883888
0.97785429
0.97693516
0.97608043
0.97531926
0.97456203
0.97391799
0.97337248
0.97290156
0.97252296
0.97224311
0.97199962
0.97184186
0.97167179
0.97170567
0.97160694
0.9716806
0.97163938
0.97177894
0.97181142
0.97158212
0.97231924
0.97145398
0.97241041
0.97179515
1.0048593
1.0100472
1.0105273
1.0116661
1.0096805
1.0065273
1.003149
1.0001348
0.99800306
0.99660034
0.9952625
0.99353734
0.99192178
0.99068191
0.9900513
0.98975226
0.98966353
0.98959317
0.98927106
0.98877023
0.98816576
0.98744155
0.9866003
0.98570499
0.984738
0.98383696
0.98296082
0.98207059
0.9810758
0.98005398
0.97904265
0.97808062
0.97715626
0.97628495
0.97540835
0.97468358
0.97406713
0.97349712
0.9729949
0.97258739
0.97224528
0.97201096
0.97178062
0.97171111
0.97157384
0.97158291
0.97154819
0.97156015
0.97171526
0.9714884
0.9719304
0.97170935
0.97162425
0.9722208
0.97163609
1.0049188
1.0102211
1.0105823
1.0117947
1.0096905
1.0066317
1.0032781
1.0002882
0.99814133
0.99677522
0.99543835
0.99368505
0.99206479
0.99084006
0.99012529
0.98978452
0.98974123
0.98969757
0.98941323
0.98894112
0.98831051
0.98759712
0.98674276
0.98582064
0.98490122
0.98405222
0.9831719
0.98230102
0.98133306
0.98033183
0.97931605
0.97833233
0.97738939
0.97645778
0.97580737
0.97468992
0.97423378
0.97369055
0.97312447
0.97272706
0.9724149
0.97210078
0.9718735
0.97173268
0.9716269
0.97162532
0.97155637
0.97163497
0.97155053
0.97167075
0.97184344
0.97143654
0.97216446
0.97161162
0.97200293
1.004977
1.0105892
1.0109778
1.0120767
1.0101926
1.0067537
1.0034073
1.0006209
0.99851197
0.9971454
0.99583124
0.99373324
0.99202859
0.99111085
0.99035247
0.98991587
0.98974049
0.98970799
0.98951537
0.98911333
0.98856336
0.98779158
0.98691197
0.98614516
0.9852016
0.98425646
0.98331343
0.98250529
0.98151817
0.98057087
0.97948137
0.97856528
0.97759694
0.97675514
0.97589226
0.97530968
0.97444963
0.97391382
0.97335912
0.97287576
0.97252704
0.97227088
0.97204696
0.97182196
0.97186671
0.97164918
0.971613
0.97169402
0.9716976
0.97182041
0.97165624
0.97189166
0.97186305
0.97180729
0.97215221
0.97199016
0.97193886
0.97208109
0.97216854
0.97215127
0.97233086
0.9728614
0.97290701
0.97283235
0.97339859
0.97381527
0.97374905
0.97396196
0.97442705
0.97456797
0.97469927
0.97505346
0.97535498
0.97536998
0.97574788
0.97588108
0.97593994
0.97635658
0.97631829
0.97659388
0.9767166
0.97677051
0.97201415
0.97206834
0.97207785
0.97215869
0.97238593
0.97253076
0.97257222
0.97293479
0.97316067
0.97322111
0.97356823
0.97376766
0.97400758
0.97417625
0.97436988
0.97470687
0.97479133
0.97501428
0.97528258
0.97536627
0.9755865
0.9757863
0.97583723
0.97616097
0.97619512
0.97635477
0.97644917
0.97224902
0.97221861
0.97221795
0.97226073
0.97235291
0.9725527
0.97274668
0.97281755
0.97311515
0.97333168
0.97339494
0.97377275
0.97382266
0.97411298
0.97430592
0.9743369
0.97474251
0.97475818
0.97499808
0.97516826
0.97525238
0.97545777
0.97560533
0.97569673
0.97590967
0.97596926
0.97604073
0.97227192
0.97215703
0.97223943
0.97238345
0.97244573
0.97252674
0.97277405
0.97291138
0.97299317
0.97332344
0.97343129
0.97355764
0.97389149
0.97386306
0.97419703
0.97432012
0.97434866
0.97472486
0.97468141
0.97495647
0.9750134
0.97511302
0.97530372
0.975426
0.97550322
0.97566682
0.97562747
0.97227933
0.97237144
0.97232747
0.97240729
0.972604
0.97262069
0.97274604
0.97300943
0.97305331
0.97318315
0.97349158
0.97350658
0.97367255
0.97396401
0.97386606
0.9742365
0.97427357
0.97434945
0.97467255
0.97451786
0.9749501
0.9747718
0.9750642
0.97504487
0.97533651
0.97519934
0.97540594
0.97240947
0.97255983
0.97248286
0.97248955
0.97264815
0.97280198
0.97275931
0.97295459
0.97321194
0.9731327
0.97336536
0.97361088
0.97351559
0.97382851
0.97390034
0.97390303
0.97426575
0.97410421
0.97447703
0.97440162
0.97454857
0.97465728
0.97473702
0.97481535
0.97494675
0.97500141
0.97503602
0.9725303
0.97256706
0.97254699
0.97257638
0.97260877
0.97280539
0.9728949
0.97287941
0.97311144
0.97328645
0.97323543
0.97346453
0.97363368
0.97350709
0.97391924
0.97378808
0.97394951
0.97419405
0.97398771
0.97446997
0.97414457
0.97457138
0.97431997
0.9747271
0.97448172
0.97486344
0.9746275
0.97284963
0.97254252
0.97266046
0.97274409
0.97258707
0.97274937
0.97297785
0.9729136
0.972975
0.9733032
0.97318563
0.97332073
0.97359022
0.97340809
0.97369195
0.97375252
0.97375084
0.97396403
0.97394471
0.97406689
0.97414427
0.97413421
0.97422232
0.97427174
0.97437645
0.974399
0.97440861
0.97281239
0.97263583
0.97256305
0.97281045
0.9727574
0.97265983
0.97299573
0.9730144
0.97286946
0.9732391
0.97324248
0.97312779
0.97347848
0.97341448
0.97339336
0.97371234
0.97352255
0.97378299
0.97377919
0.97379918
0.97397479
0.97380826
0.97406663
0.97383814
0.97415621
0.9740197
0.97413417
0.9726763
0.9726271
0.97254176
0.97270071
0.97290661
0.97273928
0.9727397
0.97312481
0.97296782
0.9728893
0.97336444
0.97305623
0.97319006
0.9735064
0.97307862
0.97367194
0.97330965
0.97356146
0.97363388
0.97347325
0.97384846
0.9734339
0.97385755
0.97349379
0.97382297
0.97365905
0.97383911
0.97261525
0.97291575
0.97262364
0.97257739
0.97290452
0.97277032
0.97265306
0.97308287
0.97287686
0.97283493
0.9732698
0.97291173
0.97313277
0.97327104
0.97303362
0.97340559
0.97315538
0.97340394
0.97336808
0.97328859
0.97351936
0.97327259
0.97345681
0.97332105
0.97338803
0.97336813
0.9734812
0.97279928
0.97295393
0.97270283
0.97257303
0.97283114
0.97274492
0.97261416
0.97293853
0.97283655
0.97278537
0.97302581
0.9728812
0.9729739
0.97309696
0.97292225
0.97317696
0.97303275
0.97307311
0.9732899
0.9729619
0.97335632
0.97293733
0.97327451
0.9729043
0.97319733
0.97294314
0.97317769
0.97268882
0.97282354
0.97253045
0.97254319
0.97277588
0.97255821
0.97262195
0.97280652
0.97264626
0.97283628
0.97281738
0.97277388
0.9729187
0.9727912
0.97289153
0.97291962
0.97288126
0.97290846
0.97292463
0.9728751
0.97298817
0.97276141
0.97297286
0.9726144
0.97288089
0.97256225
0.97288222
0.97253237
0.97253372
0.97248853
0.97256861
0.97247717
0.97254816
0.9726571
0.97251119
0.97273748
0.97266768
0.97258974
0.97286291
0.97257698
0.97278789
0.97272328
0.9726412
0.97285294
0.97249253
0.97289175
0.97255837
0.97268134
0.97259475
0.97259288
0.97244287
0.97249776
0.97224888
0.97251894
0.97240189
0.9725691
0.97252399
0.97245683
0.97248676
0.97260202
0.97247025
0.9724911
0.972607
0.97252386
0.97256349
0.97253293
0.97257977
0.97259555
0.97240586
0.97258151
0.9725678
0.97235494
0.97258882
0.972293
0.97247264
0.97236713
0.97218496
0.97229262
0.97212876
0.97197384
0.97211612
0.97258859
0.97252978
0.9724089
0.97252165
0.97242264
0.97238778
0.9724831
0.97238841
0.97236317
0.9725309
0.97235113
0.97232354
0.9724846
0.97226656
0.97235091
0.97239704
0.97214191
0.97231062
0.97226844
0.97206726
0.97218857
0.97206989
0.97195315
0.97198094
0.97180647
0.97166521
0.97179405
0.97237838
0.97239591
0.97237976
0.97232119
0.97228956
0.972286
0.97231095
0.97222184
0.97224313
0.97235736
0.97205635
0.97232873
0.97226057
0.97194581
0.97232087
0.97199894
0.97205312
0.97209031
0.97187461
0.97194032
0.97187027
0.97180685
0.97163049
0.97173676
0.97145215
0.97141522
0.97134374
0.97220658
0.97233652
0.97223342
0.97206307
0.97222318
0.97224096
0.97200811
0.9721094
0.97220463
0.97198723
0.97204386
0.9721002
0.97189349
0.97199402
0.97198626
0.97173549
0.97189671
0.9718145
0.97164275
0.97162709
0.97159954
0.97153775
0.97138291
0.97141987
0.97109376
0.97111544
0.97102488
0.97205227
0.97218187
0.97205365
0.97201541
0.97210637
0.9719602
0.97191442
0.97205975
0.97188129
0.97182253
0.97198229
0.97177538
0.97173039
0.97184968
0.97164621
0.97157015
0.9716893
0.97152378
0.97136592
0.97141088
0.9713751
0.97119302
0.97108931
0.97110893
0.97087694
0.97081926
0.97065696
0.97200502
0.97189763
0.9719217
0.97200768
0.97185697
0.97178743
0.97179515
0.97179102
0.9717315
0.97169559
0.9717352
0.97146525
0.97165116
0.97165481
0.9712767
0.97150055
0.97137073
0.97132027
0.97109244
0.97124149
0.97101496
0.97090529
0.97088492
0.97082781
0.97054398
0.9705062
0.97038098
0.97172939
0.97180593
0.97174412
0.97177789
0.97166715
0.9715855
0.97176198
0.97145745
0.97150699
0.97169609
0.97129224
0.97145125
0.97136857
0.97135678
0.97124566
0.97105913
0.97136629
0.97081371
0.97113321
0.97085802
0.97082051
0.9706146
0.97063137
0.97059609
0.97028732
0.97017673
0.97005829
0.97152225
0.97155468
0.97163683
0.97144864
0.97144271
0.97157973
0.97130755
0.97131944
0.97139065
0.97132431
0.97129551
0.97098895
0.97129028
0.97108953
0.97083398
0.9711015
0.97080147
0.97083633
0.97056313
0.97075193
0.97056553
0.97033242
0.97030302
0.97022842
0.97019907
0.96981545
0.9697676
0.97118164
0.97136073
0.9714983
0.97121594
0.97127603
0.97130865
0.9710619
0.97123502
0.97107587
0.97105321
0.9710688
0.97073196
0.9712058
0.97069049
0.97064648
0.97082108
0.97052045
0.97073433
0.97007135
0.97060972
0.97019351
0.97021876
0.96997641
0.96990328
0.96998844
0.96958484
0.9695528
0.9709392
0.97116323
0.97114981
0.97100509
0.97117889
0.97104769
0.97087024
0.97093083
0.97087055
0.97099979
0.97066135
0.97062841
0.97081884
0.97051997
0.97052109
0.97033058
0.97044769
0.97034011
0.96998017
0.97019476
0.96989944
0.9700463
0.96972929
0.96958095
0.96968204
0.96942668
0.9693412
0.97073535
0.97078515
0.97085874
0.97085348
0.97099597
0.97088219
0.97052209
0.97079412
0.9707369
0.97064431
0.97049378
0.97026346
0.97071677
0.97027008
0.97024525
0.97003347
0.97010806
0.9702545
0.96964788
0.96998737
0.96945076
0.96997608
0.96940743
0.96942284
0.96928644
0.96926874
0.96911362
0.97045563
0.97055796
0.97054644
0.97076348
0.97069573
0.97052348
0.97045694
0.97037563
0.97065205
0.97036015
0.97017517
0.97028853
0.97010075
0.97033666
0.96982008
0.96988813
0.96991525
0.96973061
0.96976836
0.96934873
0.96957735
0.96936052
0.96939287
0.96905011
0.96909964
0.96895172
0.96892347
0.97014629
0.97033269
0.97031091
0.97053072
0.97039809
0.97037067
0.97027759
0.97006728
0.97042805
0.97005906
0.97010028
0.96998947
0.96976496
0.97017348
0.96952722
0.96983434
0.96946037
0.9695509
0.96959522
0.9690839
0.96941421
0.9688831
0.96934987
0.96879894
0.96892832
0.96857745
0.96867684
0.96986245
0.97002232
0.97015716
0.97021995
0.97023734
0.97018451
0.96992388
0.97004773
0.97002055
0.96998228
0.96988173
0.96958532
0.96982713
0.9696702
0.96958548
0.96939869
0.96921318
0.96944249
0.96923236
0.96913547
0.96886324
0.96889844
0.96886524
0.96882729
0.96856699
0.9684675
0.96836568
0.96944968
0.96982678
0.96996334
0.97007967
0.96996422
0.96979434
0.9698648
0.96981744
0.96988396
0.96979666
0.96945631
0.96955897
0.96952076
0.96954671
0.96940209
0.96905141
0.96916776
0.96905762
0.96919471
0.96882793
0.96877266
0.96859997
0.96866385
0.96854826
0.96845212
0.96828753
0.9682
0.96910745
0.96961279
0.96977824
0.9698897
0.96966164
0.96961772
0.96965962
0.96959696
0.96976521
0.96943201
0.96941445
0.96929986
0.96930048
0.96941268
0.96902765
0.9691646
0.96876645
0.96902542
0.96879013
0.96875319
0.96865931
0.96839633
0.96852614
0.96819827
0.9683964
0.96812046
0.96811455
0.96883478
0.96934336
0.96961839
0.96963449
0.96949097
0.96952768
0.96938428
0.96947934
0.9694615
0.96929426
0.96935354
0.96904752
0.96921109
0.96902656
0.96902885
0.96901565
0.96867242
0.96886468
0.96843867
0.96875503
0.96845622
0.96843695
0.96822012
0.96807421
0.9681741
0.96808628
0.96804115
0.96860198
0.96910161
0.96943281
0.96940097
0.9694345
0.96935699
0.96921608
0.96931309
0.96919443
0.96931904
0.96913845
0.96901225
0.96897703
0.96883429
0.96906231
0.96876702
0.96882658
0.9684713
0.9684829
0.96853091
0.96840825
0.9684173
0.9680356
0.9681088
0.96795714
0.96806335
0.96791196
0.96835255
0.96893037
0.96923425
0.96926765
0.96933836
0.96918722
0.96916079
0.96911513
0.96910494
0.96921121
0.96897516
0.96901467
0.96875876
0.96885607
0.96886459
0.96869457
0.96878378
0.96834054
0.96858717
0.96829952
0.96844242
0.96823596
0.96807908
0.96809398
0.96791985
0.96798714
0.9678201
0.96813409
0.9687973
0.96909959
0.96920578
0.96916876
0.96907192
0.9691122
0.96903239
0.96911986
0.96902001
0.96891811
0.96891865
0.96873878
0.96890947
0.96869767
0.9687062
0.96860392
0.96841244
0.96858391
0.96826943
0.96842173
0.96812165
0.96816042
0.96806563
0.96800588
0.96792134
0.96781204
0.96788699
0.96869939
0.96908559
0.96917052
0.96906897
0.9690142
0.96903819
0.96905815
0.96908328
0.9689509
0.96891344
0.96881759
0.96884075
0.96884897
0.96869622
0.96868678
0.9685469
0.96855181
0.96853675
0.9684007
0.96833304
0.96821898
0.9681908
0.96814911
0.96805826
0.9679335
0.96785589
0.96777011
0.96864784
0.96907028
0.96912519
0.96904438
0.96902342
0.9690586
0.96910136
0.969073
0.96898695
0.96890788
0.96885777
0.96889346
0.96883113
0.96879817
0.96868661
0.9686416
0.96861067
0.96854033
0.96852151
0.96834878
0.9683797
0.96824254
0.96825662
0.96811115
0.9680421
0.96796211
0.96778443
0.96862299
0.96911859
0.96919052
0.96912865
0.96907733
0.96909595
0.96914869
0.96913136
0.96906394
0.968986
0.96893969
0.96895324
0.96893877
0.96888476
0.96879062
0.96871271
0.96868729
0.96864674
0.96866895
0.96854188
0.96848888
0.96834334
0.96830722
0.96825801
0.96824033
0.96818867
0.96778764
0.96867951
0.96917992
0.96926945
0.9692423
0.96919186
0.96924417
0.96925275
0.96923894
0.96918077
0.96907288
0.96906681
0.96907642
0.96907665
0.96904697
0.96895222
0.96884863
0.9688449
0.96878829
0.96885217
0.96873084
0.96866376
0.96851262
0.96846704
0.9684482
0.96845262
0.96839881
0.96778674
0.96875766
0.96929149
0.96940972
0.96942515
0.96938995
0.96937951
0.96944949
0.96935904
0.96935994
0.96929577
0.96920475
0.96931247
0.96917333
0.96925814
0.96911581
0.96906606
0.9690628
0.96897532
0.96905625
0.96889301
0.9689155
0.96872803
0.96875647
0.96867172
0.96868829
0.96861483
0.96795555
0.96885806
0.96945254
0.96963503
0.96959794
0.96963706
0.9695449
0.96962157
0.96959465
0.96953501
0.96960812
0.96939641
0.96958052
0.96932614
0.96949456
0.96929641
0.96936718
0.96929387
0.96923579
0.96927336
0.96910134
0.96919591
0.96897275
0.96910234
0.96890086
0.9689782
0.96885189
0.96800449
0.96902028
0.96963109
0.96986891
0.96982702
0.96986167
0.96983406
0.96978604
0.96991569
0.96971057
0.96992149
0.96960585
0.96985186
0.96956785
0.96977057
0.96958188
0.96967221
0.96958094
0.9695042
0.9695562
0.96935628
0.96955935
0.96926351
0.96949167
0.96918438
0.96931472
0.96916301
0.96834095
0.96924168
0.9698662
0.9701505
0.97017008
0.9701224
0.97020479
0.9699913
0.9702513
0.9699638
0.97025089
0.96989267
0.97012616
0.96985397
0.97006591
0.96990757
0.9699742
0.96993576
0.9697482
0.96995387
0.9695945
0.97002528
0.96956896
0.9699045
0.96950766
0.96966484
0.96953191
0.96878657
0.96953617
0.97018796
0.97044309
0.97058714
0.97046919
0.97061635
0.97027964
0.97057301
0.97026223
0.97063323
0.97028057
0.97044858
0.97022824
0.97023581
0.97041654
0.97009921
0.97057699
0.9698494
0.97052167
0.96978644
0.97045925
0.96995839
0.97026826
0.96997974
0.97002063
0.96998538
0.96866364
0.96984546
0.97056163
0.97071272
0.97102824
0.97080581
0.97110886
0.97064986
0.97090499
0.97067196
0.97082301
0.97093637
0.97056043
0.97098084
0.97021324
0.97106503
0.97025561
0.97104016
0.97038899
0.97065793
0.97055466
0.97035523
0.9708252
0.97027525
0.97077915
0.97028743
0.97053325
0.96942016
0.9701505
0.97110145
0.97112364
0.97132785
0.97128646
0.97117978
0.97149059
0.97089775
0.97151335
0.97075292
0.97146927
0.97092329
0.97119425
0.97116484
0.97073634
0.97142863
0.97049459
0.97160116