/*--------------------------------*- C++ -*----------------------------------*\
| =========                 |                                                 |
| \\      /  F ield         | OpenFOAM: The Open Source CFD Toolbox           |
|  \\    /   O peration     | Version:  2406                                  |
|   \\  /    A nd           | Website:  www.openfoam.com                      |
|    \\/     M anipulation  |                                                 |
\*---------------------------------------------------------------------------*/
FoamFile
{
    version     2.0;
    format      ascii;
    arch        "LSB;label=32;scalar=64";
    class       volVectorField;
    location    "9";
    object      U_0;
}
// * * * * * * * * * * * * * * * * * * * * * * * * * * * * * * * * * * * * * //

dimensions      [0 1 -1 0 0 0 0];

internalField   nonuniform List<vector> 
62344
(
(0.11802646 0.0009973961 -1.5487731e-21)
(0.11304681 0.0033080898 -8.0682286e-22)
(0.11731856 0.0066888109 -1.6873347e-21)
(0.11414141 0.0092252042 8.6895585e-22)
(0.11051184 0.01230352 0)
(0.11373185 0.013342696 3.7791306e-21)
(0.11887983 0.014054878 -3.9645145e-21)
(0.12156898 0.014443974 2.0442596e-21)
(0.12041026 0.012265052 0)
(0.11741324 0.015181553 0)
(0.11386973 0.014699043 9.1937267e-21)
(0.11028711 0.018691304 -1.9825307e-20)
(0.10897828 0.01858318 6.5205994e-22)
(0.11011155 0.020624507 2.1278393e-20)
(0.11263018 0.017818599 -1.0743571e-20)
(0.11497654 0.016667789 1.0438124e-20)
(0.113577 0.017875626 -1.1549386e-20)
(0.11115282 0.019061126 0)
(0.11086586 0.017352741 0)
(0.10826147 0.012521346 -8.1222066e-22)
(0.10515269 0.015159949 -4.2170777e-22)
(0.10346801 0.01668395 4.3966964e-22)
(0.10157304 0.01973932 9.1385461e-22)
(0.10015703 0.018595135 -3.0324493e-20)
(0.098616988 0.022640623 3.1569761e-20)
(0.099440662 0.02160246 0)
(0.09796001 0.019690807 0)
(0.095983602 0.019147531 -2.7778983e-22)
(0.10014515 0.014992544 -3.6523888e-20)
(0.11080449 0.0062810518 3.9028494e-20)
(0.1142318 -0.00081999239 4.0432703e-20)
(0.10006104 0.0078271493 -4.0899574e-20)
(0.08868075 0.015146807 -3.3828192e-22)
(0.091675363 0.0086783036 4.4530778e-20)
(0.096248061 -0.0033235112 -4.6455002e-20)
(0.08254988 0.0012569706 -3.7961157e-22)
(0.061923701 0.017042059 -5.1403417e-20)
(0.066007938 0.013580684 1.0416213e-19)
(0.09839455 -0.015161271 -1.0854835e-19)
(0.1236636 -0.037199153 5.2254286e-22)
(0.11517322 -0.028089793 -2.4125007e-21)
(0.086464758 -0.0036109376 1.2078682e-19)
(0.063316541 0.015105756 -6.3045359e-20)
(0.073118026 0.0085965679 0)
(0.11005309 -0.020403362 -6.6009588e-20)
(0.1384097 -0.052993108 1.4118939e-19)
(0.13673237 -0.070913025 1.2065719e-21)
(0.11572451 -0.069948653 -1.5067904e-19)
(0.098787105 -0.057527137 7.8142356e-20)
(0.097855018 -0.037853178 0)
(0.10120391 -0.019812486 0)
(0.090690471 -0.0061027397 9.2069587e-20)
(0.068004206 -0.0030757208 -9.3295937e-20)
(0.053895356 -0.018984378 -1.8307824e-22)
(0.060821523 -0.046793946 -9.900231e-20)
(0.11779528 0.00097422669 -8.1765804e-22)
(0.11247334 0.0029720598 8.516093e-22)
(0.11663767 0.0057009154 2.6670779e-21)
(0.11368525 0.0093031873 -2.7718177e-21)
(0.11029168 0.012076658 0)
(0.11355411 0.013370441 3.9925274e-21)
(0.11889422 0.013224189 -5.2248608e-21)
(0.12169585 0.012697715 -5.3762528e-21)
(0.12049121 0.014798784 5.6015214e-21)
(0.11766923 0.014126785 0)
(0.11338521 0.016170854 0)
(0.10970315 0.018060234 6.3281609e-22)
(0.10892778 0.020069455 -6.5591959e-22)
(0.11004247 0.020310857 9.5256129e-21)
(0.11272088 0.018972397 -1.1372519e-20)
(0.11495134 0.019007664 0)
(0.11404443 0.019631251 0)
(0.11153338 0.018157317 0)
(0.111886 0.018706754 1.3160713e-20)
(0.1094667 0.016672039 4.6261312e-22)
(0.10505224 0.017817543 2.0370124e-23)
(0.10299777 0.018768782 -4.5306094e-20)
(0.10160417 0.021014372 3.0586983e-20)
(0.10057913 0.021283346 0)
(0.098517023 0.021837912 3.3327851e-20)
(0.099691544 0.020327197 -2.1719654e-22)
(0.098563086 0.020096889 -7.2420158e-20)
(0.096610249 0.02058074 3.7747155e-20)
(0.10083647 0.017894719 -3.0429736e-22)
(0.11149687 0.010842462 -4.0575334e-20)
(0.1142566 0.0074587286 4.2082151e-20)
(0.10045932 0.014265357 3.417802e-22)
(0.091094837 0.015677518 -4.5029657e-20)
(0.095170427 0.0077260963 9.4720868e-20)
(0.09875283 0.00046092047 -4.9360973e-20)
(0.085337476 0.0063826998 4.0073313e-22)
(0.066987172 0.012532213 0)
(0.070154873 0.0030242995 0)
(0.094670882 -0.013680404 2.2389948e-22)
(0.11394419 -0.016921902 5.9136245e-20)
(0.11056166 -0.0038922597 -1.2319999e-19)
(0.092749865 0.0077283919 6.4340549e-20)
(0.077046845 0.0043022253 6.7112358e-20)
(0.081621053 -0.015147155 -1.385326e-19)
(0.11067138 -0.039453941 7.3885893e-20)
(0.14247747 -0.057640565 0)
(0.14563705 -0.061372666 0)
(0.11942569 -0.051737429 0)
(0.085430829 -0.032827738 1.6606835e-22)
(0.070487461 -0.010164392 -1.7609045e-22)
(0.084899855 0.0028898113 0)
(0.11586206 -0.0056823334 1.1336625e-24)
(0.13291103 -0.029389459 -1.8818955e-22)
(0.12545547 -0.052972514 3.0513408e-22)
(0.10129735 -0.071764097 -9.9002821e-23)
(0.11748647 0.0010947925 8.629763e-22)
(0.11207851 0.0031846922 -8.9890123e-22)
(0.11596487 0.0046603748 -9.3495766e-22)
(0.11276608 0.0082690709 9.7770275e-22)
(0.10947122 0.011814499 -1.019704e-21)
(0.11320751 0.012929859 1.0587866e-21)
(0.11877962 0.012843331 2.197527e-21)
(0.12123816 0.012762553 0)
(0.12036297 0.014521283 3.546577e-21)
(0.11749925 0.013407982 -5.5530032e-21)
(0.11318723 0.016423226 0)
(0.10933536 0.015670558 -6.6802754e-22)
(0.10828786 0.017630891 -2.482098e-24)
(0.11002592 0.018955524 -1.7630888e-24)
(0.11270853 0.017432873 1.197634e-20)
(0.11483996 0.016644665 -1.1678532e-20)
(0.1144092 0.017724356 0)
(0.11198536 0.016738617 0)
(0.11192619 0.015722986 0)
(0.10954135 0.016839954 0)
(0.10512956 0.016009272 0)
(0.10268654 0.016955593 1.6300184e-20)
(0.10108345 0.018257539 -1.6392845e-20)
(0.10055437 0.020818033 -5.3445739e-22)
(0.099146069 0.021760571 5.5188706e-22)
(0.10017842 0.018264827 0)
(0.098629311 0.01849269 0)
(0.096655035 0.01952088 3.1066947e-22)
(0.10176276 0.017078723 3.2230356e-22)
(0.11336005 0.007880227 0)
(0.11549288 0.0052791868 0)
(0.10222979 0.012540998 -4.6740903e-20)
(0.094562931 0.013196789 9.5504217e-20)
(0.099236193 0.0045967229 -5.0255471e-20)
(0.10074511 -0.0012345258 -2.0226236e-22)
(0.086381855 0.006320826 5.4859576e-20)
(0.070002147 0.012241582 -5.6107055e-20)
(0.073385978 0.0016339985 0)
(0.092169133 -0.014328697 4.5475106e-25)
(0.1042798 -0.015145896 0)
(0.1009005 -0.00056776155 6.5603588e-20)
(0.092256401 0.010997119 -6.8250473e-20)
(0.086256276 0.0071633349 -7.0494958e-20)
(0.090763658 -0.01395277 7.3418644e-20)
(0.11073657 -0.038834102 7.2935284e-25)
(0.13505339 -0.049870118 0)
(0.14263826 -0.043598711 0)
(0.12154371 -0.02803175 -1.6489272e-22)
(0.084028912 -0.011301896 -9.2836118e-20)
(0.054807406 -0.0025625034 9.2040595e-20)
(0.06119592 -0.0076559616 0)
(0.098483604 -0.022485795 9.578507e-20)
(0.14357473 -0.040304068 -1.0565473e-19)
(0.16668983 -0.052409154 1.0705858e-19)
(0.15250935 -0.061234463 -1.063484e-19)
(0.11719667 0.00081129364 -4.541907e-22)
(0.1117564 0.002998312 -1.4248916e-21)
(0.11556205 0.0047483506 2.9694044e-21)
(0.11214291 0.0072333222 -2.0551216e-21)
(0.10906566 0.010506232 -3.2191161e-21)
(0.11304332 0.012074325 3.3602949e-21)
(0.11870832 0.012864822 -5.7818823e-21)
(0.12130622 0.013710732 9.6208215e-21)
(0.12052503 0.01205945 -5.6077168e-21)
(0.1175212 0.013667925 1.300067e-21)
(0.11332107 0.014163578 6.7828716e-22)
(0.10979865 0.015178097 1.1305217e-20)
(0.10798789 0.015545849 -1.0207203e-20)
(0.1098473 0.01732069 1.2865322e-20)
(0.11298707 0.016275808 -7.6105843e-23)
(0.11488424 0.016135926 -2.7059881e-20)
(0.11463789 0.017422614 1.3175322e-20)
(0.11265687 0.016911811 -4.4300477e-22)
(0.11196484 0.013525036 1.4744615e-20)
(0.11007025 0.016416288 -1.4804525e-20)
(0.10602227 0.01346777 0)
(0.10278049 0.014640002 0)
(0.10035932 0.015762679 -1.6701495e-20)
(0.099337622 0.018371543 1.8644664e-20)
(0.099788384 0.02146864 1.8004062e-20)
(0.10158515 0.017220402 -1.9369183e-20)
(0.098858599 0.017384107 -2.0139904e-20)
(0.096739752 0.018128404 2.0626122e-20)
(0.10301711 0.014887864 0)
(0.11465705 0.004792265 0)
(0.11495201 0.0055471303 0)
(0.10248588 0.014524729 0)
(0.097074687 0.014362002 0)
(0.1028974 0.0059187711 0)
(0.10243391 0.00077715982 2.1344847e-22)
(0.087984686 0.0076306946 -5.766273e-20)
(0.075487478 0.011180325 5.9315771e-20)
(0.080612697 -0.0016345889 2.4094795e-22)
(0.093493649 -0.015553269 -5.0169906e-22)
(0.09684758 -0.013196901 6.6666839e-20)
(0.091965883 0.00081142232 -6.856734e-20)
(0.090262761 0.010139651 7.1083957e-20)
(0.098027282 0.001922516 -7.5071488e-20)
(0.10810719 -0.021413503 7.6994755e-20)
(0.11522887 -0.042348848 -1.6078321e-19)
(0.12151332 -0.043056931 2.7998085e-22)
(0.1248884 -0.02602155 -8.0490646e-22)
(0.11774749 -0.00398543 -2.5850685e-21)
(0.097929038 0.0097117768 -3.5819633e-21)
(0.075692249 0.002489157 -2.0746707e-21)
(0.067438538 -0.021186225 1.0269932e-19)
(0.084641233 -0.043506498 0)
(0.11730943 -0.055977558 1.0674029e-19)
(0.14729782 -0.051151549 -2.5208097e-21)
(0.15503884 -0.039532104 -1.1588124e-19)
(0.11695569 0.00070439844 9.6069367e-22)
(0.11130542 0.0025045261 1.0003559e-21)
(0.11511453 0.0052810365 1.0417701e-21)
(0.11163287 0.007054964 0)
(0.10839211 0.0095316962 0)
(0.11240032 0.011895726 0)
(0.11825092 0.012624785 -6.1313901e-22)
(0.12139227 0.01337645 5.066554e-21)
(0.1205046 0.01175102 -4.6179064e-21)
(0.11752447 0.013736554 -6.8646915e-22)
(0.11353611 0.013022162 -5.7221056e-21)
(0.10972803 0.01491475 5.9494735e-21)
(0.10804643 0.01653199 -1.3077198e-20)
(0.10981155 0.016115041 1.2871185e-20)
(0.11285548 0.015644075 0)
(0.11447671 0.016060211 0)
(0.11470722 0.016560573 8.9936353e-22)
(0.1135075 0.016331956 4.6643292e-22)
(0.11233493 0.012399792 -1.5476728e-20)
(0.1105171 0.014832307 1.5680751e-20)
(0.10687947 0.012800794 0)
(0.10275742 0.013725673 0)
(0.10011441 0.015556485 -5.7165492e-22)
(0.098079025 0.016473828 0)
(0.099522605 0.019640122 -1.9202314e-20)
(0.10263841 0.01678323 2.046068e-20)
(0.099292828 0.017482691 0)
(0.096849921 0.017298222 0)
(0.10412093 0.012793229 0)
(0.11537455 0.0031146462 0)
(0.11352109 0.0064580211 0)
(0.10234472 0.015083681 0)
(0.099682615 0.014140529 -2.0902799e-22)
(0.1063168 0.0056761336 -2.1612074e-22)
(0.10498258 0.0012785749 0)
(0.089625003 0.0068232362 -2.3532321e-22)
(0.079606246 0.0088058664 3.1207359e-20)
(0.085713484 -0.0033187052 -3.3122345e-20)
(0.094096749 -0.014074127 2.6505943e-22)
(0.090648616 -0.0094322618 2.7499238e-22)
(0.083216371 0.003030063 0)
(0.08650557 0.0087411432 2.959403e-22)
(0.10407068 -0.0017116933 9.4829768e-25)
(0.12153711 -0.021787251 8.1503306e-20)
(0.12252286 -0.035938186 1.0616037e-21)
(0.10944816 -0.031679485 -8.6011241e-20)
(0.10009221 -0.011474806 -1.7632478e-22)
(0.098485774 0.012819055 0)
(0.10232445 0.023349657 -1.9326228e-22)
(0.10776584 0.0090037282 -1.9640245e-22)
(0.1057666 -0.019851944 1.0799371e-19)
(0.096609429 -0.043577886 -1.1121734e-19)
(0.094889127 -0.050555577 1.0948207e-22)
(0.10478017 -0.039585899 6.3075698e-24)
(0.11256092 -0.017420922 -1.1850929e-22)
(0.11677456 0.00076905087 0)
(0.11088305 0.0023695641 0)
(0.11469005 0.0053127624 -1.0986525e-21)
(0.11136401 0.0075229565 0)
(0.10797805 0.0095274067 2.3882505e-21)
(0.11200754 0.011499524 -1.8696725e-21)
(0.11807744 0.01144172 6.4582303e-22)
(0.12147558 0.011521838 0)
(0.12068571 0.012801955 6.9246923e-22)
(0.11795333 0.012120978 0)
(0.11398043 0.012968222 -7.5522776e-22)
(0.10975993 0.013523442 -5.4742605e-21)
(0.10815578 0.016212241 1.302526e-20)
(0.11012288 0.015122955 -6.7865814e-21)
(0.11298793 0.015463985 0)
(0.11462794 0.014417489 0)
(0.11470122 0.013331599 4.784239e-25)
(0.11415046 0.013934054 -4.9163027e-22)
(0.11287577 0.012000747 0)
(0.11085728 0.011676423 0)
(0.10755014 0.012571212 5.5727693e-22)
(0.10273891 0.012293445 1.7961008e-20)
(0.10018165 0.014755603 -3.8914987e-20)
(0.098010887 0.015478285 2.0296385e-20)
(0.099294267 0.016357217 2.0275983e-20)
(0.1026544 0.01513743 -2.1592666e-20)
(0.099780114 0.017622554 -2.2418232e-20)
(0.09771229 0.016940772 2.3273689e-20)
(0.10549553 0.01102226 -2.387013e-20)
(0.11571345 0.0024619545 5.0260453e-20)
(0.11191386 0.0074569563 -2.6296827e-20)
(0.10201032 0.015238785 2.1324204e-22)
(0.10165217 0.013971434 4.4111867e-22)
(0.1093446 0.0054450396 4.5642661e-22)
(0.10765074 0.0022265426 0)
(0.092293858 0.0070939191 -3.1680287e-20)
(0.084236261 0.0065926773 6.5824895e-20)
(0.091313502 -0.005498031 -3.4635016e-20)
(0.096016141 -0.014341751 -2.7737807e-22)
(0.087761604 -0.0085054328 -2.8838051e-22)
(0.078389153 0.0020815893 0)
(0.083377756 0.0044881585 -3.937675e-20)
(0.1052741 -0.0071439577 1.7569254e-21)
(0.12836251 -0.023075068 4.3480664e-20)
(0.12918971 -0.028872057 0)
(0.10728863 -0.021498709 0)
(0.083546931 -0.0057057599 -4.9368788e-20)
(0.078189951 0.011261443 5.0894847e-20)
(0.095064906 0.015808429 -2.0624646e-24)
(0.12194611 0.0031062339 1.071528e-19)
(0.13680525 -0.016527765 -2.27291e-19)
(0.12629021 -0.031715902 2.3690141e-19)
(0.1012036 -0.036861234 -1.2029343e-19)
(0.080350144 -0.026842201 -1.2365499e-22)
(0.072188147 -0.0095962073 1.3275732e-22)
(0.11655771 0.00081557667 5.3596742e-22)
(0.11049467 0.0025272267 -5.5495785e-22)
(0.11419433 0.0045362824 -2.3241397e-21)
(0.11091779 0.0073435555 2.417567e-21)
(0.10752383 0.0096863494 3.1513117e-21)
(0.11165394 0.010463139 -6.5497037e-21)
(0.11790731 0.010546938 2.0560414e-21)
(0.12113219 0.010813735 -7.0789645e-22)
(0.1207521 0.013285533 -7.3321139e-22)
(0.11807821 0.011690205 -6.0979428e-21)
(0.11389143 0.013051688 6.3722787e-21)
(0.10952171 0.013493398 0)
(0.10778126 0.014789854 0)
(0.10978631 0.014442449 -4.4616784e-22)
(0.1129268 0.015709489 -4.6512711e-22)
(0.11514182 0.013878967 7.7217041e-21)
(0.11486878 0.012404315 -2.4482393e-20)
(0.11422286 0.013483091 1.7689923e-20)
(0.11339992 0.013554975 -1.7326703e-20)
(0.11091587 0.0098992581 3.5836793e-20)
(0.10784619 0.012640294 -5.5864932e-22)
(0.10316453 0.012201816 -3.8764944e-20)
(0.099884392 0.013952512 2.096531e-20)
(0.098097195 0.016400741 2.1027055e-20)
(0.098888541 0.015254485 -2.1887229e-20)
(0.10191778 0.014566842 0)
(0.099626038 0.017816079 -2.3658064e-20)
(0.09854247 0.017659501 2.4552297e-20)
(0.10684987 0.010502043 3.9733163e-22)
(0.11559623 0.0034368002 4.1125396e-22)
(0.11038537 0.0094632055 6.4317289e-22)
(0.10159835 0.016062183 -2.2473111e-22)
(0.10315569 0.013608589 -4.6475519e-22)
(0.11141923 0.0055563404 -2.4057254e-22)
(0.10970879 0.0036785732 0)
(0.095134656 0.008221607 0)
(0.088250223 0.0063434607 -3.4535102e-20)
(0.095795026 -0.005676018 7.2742727e-20)
(0.097497354 -0.012501837 -3.6995037e-20)
(0.085957688 -0.0067588664 -1.5279226e-22)
(0.074622948 0.0029609527 0)
(0.080890481 0.003161022 0)
(0.10423241 -0.0089975242 -4.2939407e-20)
(0.12812265 -0.020410367 4.593768e-20)
(0.13112639 -0.01967117 -4.7222689e-20)
(0.11092295 -0.0097052719 4.7841105e-20)
(0.081949229 0.0016391596 2.0135901e-22)
(0.068246478 0.0079603211 -5.3426086e-20)
(0.082881027 0.0045455626 5.5972434e-20)
(0.11494496 -0.0050934002 0)
(0.14278642 -0.01343645 6.1028644e-25)
(0.14649337 -0.01673231 -6.1236234e-20)
(0.12333099 -0.016486334 1.27177e-19)
(0.090004124 -0.0087700078 -1.3587064e-19)
(0.063999977 -0.0014575022 6.9544057e-20)
(0.11633754 0.00067657758 0)
(0.11022432 0.0027085439 1.1772176e-21)
(0.11384585 0.0038870369 3.2671785e-24)
(0.11050487 0.0066180834 -1.2779782e-21)
(0.107301 0.0093613987 7.2672892e-25)
(0.11154343 0.0093588352 6.9091962e-22)
(0.11774322 0.0099753065 -1.4261341e-21)
(0.120848 0.010865718 3.7445519e-21)
(0.12077651 0.011487168 0)
(0.11834169 0.011638044 0)
(0.11388437 0.011330778 -5.8769761e-21)
(0.10956073 0.013125337 6.9897746e-21)
(0.10778272 0.013158062 0)
(0.10952451 0.012497445 4.6965337e-22)
(0.11286083 0.013094946 4.8968245e-22)
(0.11551179 0.011841382 0)
(0.11495346 0.012124571 -8.419681e-21)
(0.1139908 0.013056866 -5.3328672e-22)
(0.11429139 0.013638631 9.7074744e-21)
(0.11162812 0.0082960833 0)
(0.10789461 0.010087205 1.9855529e-20)
(0.10353544 0.011713431 -4.1171625e-20)
(0.099610699 0.012419229 2.1064995e-20)
(0.097725779 0.015618111 -2.2541803e-20)
(0.099031634 0.014429811 2.3465466e-20)
(0.10144548 0.013054118 0)
(0.099232814 0.015368758 0)
(0.09946622 0.01547732 0)
(0.10835139 0.0075477939 -4.1975988e-22)
(0.11535804 0.0020029876 -4.33299e-22)
(0.10921754 0.0090169205 -2.9367133e-20)
(0.1016658 0.014266603 3.0099909e-20)
(0.10456689 0.010914707 2.4461547e-22)
(0.11296436 0.0030719173 0)
(0.1112484 0.0030417834 0)
(0.097715676 0.0085033396 2.7537127e-22)
(0.09248864 0.0054715755 0)
(0.10030299 -0.0065667271 -2.9759645e-22)
(0.10063772 -0.01211763 -4.0232382e-20)
(0.086024227 -0.0070099265 4.0939535e-20)
(0.073166952 0.00039320137 4.3042612e-20)
(0.079261369 -0.00053160915 -4.4948701e-20)
(0.10191265 -0.011527018 4.5429734e-20)
(0.12394584 -0.019415537 -4.8536067e-20)
(0.12814161 -0.014138373 -4.9679969e-20)
(0.11378408 -0.0016490104 -1.9016319e-21)
(0.090313909 0.0077272635 1.0866753e-19)
(0.073036699 0.006122948 -5.6012722e-20)
(0.076968218 -0.0054111728 0)
(0.099791213 -0.016420166 -5.8954348e-20)
(0.12660132 -0.018037897 1.257175e-19)
(0.14151608 -0.010380956 -6.5492477e-20)
(0.13426289 0.00063251926 0)
(0.10967934 0.010205196 -1.3633997e-22)
(0.080545571 0.010939083 7.5634578e-20)
(0.11612676 0.00049151361 0)
(0.10994411 0.0025868709 0)
(0.11353655 0.0037299591 0)
(0.11005902 0.0057371291 2.0307993e-21)
(0.10696191 0.0084941135 -3.4986383e-21)
(0.11129817 0.0089770297 2.9009044e-21)
(0.11742128 0.0098071379 -3.8052652e-21)
(0.12070957 0.011042854 -7.8515007e-22)
(0.12072429 0.0098000621 -8.1263947e-22)
(0.11845221 0.0116952 -7.638244e-21)
(0.11391211 0.010294866 6.1894557e-21)
(0.10943882 0.012627636 0)
(0.10787729 0.013242322 7.6126444e-21)
(0.10941562 0.01203961 -4.481993e-23)
(0.11267477 0.011800988 -1.7056797e-20)
(0.11537829 0.011012183 8.5773948e-21)
(0.11474546 0.012666289 -5.5564731e-22)
(0.11387578 0.012964308 -5.7882669e-22)
(0.11513658 0.012508392 -4.3195875e-25)
(0.11270207 0.0091781803 3.1225438e-22)
(0.10785008 0.0084767882 3.2640173e-22)
(0.10343916 0.012232153 3.3962806e-22)
(0.09935774 0.012934479 0)
(0.097006991 0.014877802 0)
(0.099146568 0.014664224 -2.460637e-20)
(0.10156739 0.012973193 2.5735021e-20)
(0.09905961 0.01412022 0)
(0.10022941 0.014307017 0)
(0.10959713 0.0065272706 0)
(0.11483633 0.0023254543 2.2908475e-22)
(0.10805125 0.0094072367 0)
(0.10170073 0.01395438 3.1730957e-20)
(0.10590987 0.010143635 -3.3203208e-20)
(0.11383013 0.0021288632 2.6855537e-22)
(0.11133022 0.003852493 -3.6210974e-20)
(0.099499351 0.010425567 3.6472217e-20)
(0.096312174 0.0063690806 0)
(0.10391428 -0.0053898986 3.98257e-20)
(0.10345441 -0.010205585 -4.1631878e-20)
(0.087963418 -0.0054101028 1.6970714e-22)
(0.07298888 1.7635957e-05 4.5965511e-20)
(0.077333249 -0.0027387246 -4.7422661e-20)
(0.098615492 -0.012536861 0)
(0.11817846 -0.017794653 5.0556409e-20)
(0.12125082 -0.0095262066 -5.1876234e-20)
(0.11134552 0.0049326994 4.2366042e-22)
(0.096503957 0.015277391 0)
(0.086303706 0.010037503 5.961799e-20)
(0.086111193 -0.007743291 -6.2181788e-20)
(0.094962312 -0.021761698 6.3757089e-20)
(0.1083633 -0.021706512 -6.7281472e-20)
(0.12069878 -0.0076375937 -6.9176928e-20)
(0.12359511 0.011508861 1.4397223e-19)
(0.11818692 0.02564149 1.8401773e-21)
(0.10075217 0.026115377 1.8695865e-21)
(0.11596967 0.00043846074 -6.2598336e-22)
(0.10969897 0.0021949088 -6.5414869e-22)
(0.11332801 0.0038785102 -1.3666096e-21)
(0.1097906 0.0053078779 -1.2249035e-23)
(0.10670295 0.007336139 1.474387e-21)
(0.11106359 0.0087859999 3.057505e-21)
(0.11716776 0.0094726871 -3.2120923e-21)
(0.12078236 0.010085628 8.2697587e-22)
(0.12068761 0.0088490045 4.2702322e-21)
(0.11846599 0.010318331 -9.840666e-21)
(0.11402357 0.0098170429 4.5358532e-22)
(0.10928219 0.011184793 7.7616993e-21)
(0.10789674 0.012229714 5.0348167e-22)
(0.10945373 0.011669421 0)
(0.11257181 0.010971636 5.448954e-22)
(0.11512061 0.010271455 -5.6339896e-22)
(0.11462128 0.011682622 -3.642866e-25)
(0.11414784 0.011135952 1.2146781e-21)
(0.11564295 0.008957113 -6.3013115e-22)
(0.11364533 0.0095545382 1.0234297e-20)
(0.10799848 0.0070809952 -2.2355636e-20)
(0.10322612 0.010969116 1.1454362e-20)
(0.099314087 0.012469274 0)
(0.096747461 0.012488477 -1.2331456e-20)
(0.098919464 0.01283958 1.2484184e-20)
(0.10176653 0.011951178 -4.1646717e-22)
(0.098959774 0.01273504 -4.3342882e-22)
(0.10075769 0.012562619 0)
(0.11055188 0.0057460682 0)
(0.11455318 0.0023746336 -2.4104856e-22)
(0.10702285 0.0086103755 0)
(0.10184074 0.012954452 0)
(0.10748361 0.008719242 -3.448476e-20)
(0.11484099 0.0005837097 -5.358992e-23)
(0.11088079 0.0032987895 7.5062834e-20)
(0.10084376 0.010885053 -3.9105222e-20)
(0.10008865 0.0061074521 0)
(0.10772573 -0.0054043854 1.6484541e-22)
(0.10619454 -0.0092274427 -1.7088994e-22)
(0.091053038 -0.0043467373 -1.7914389e-22)
(0.075329383 -0.00086150374 -4.8155992e-20)
(0.07742663 -0.006564731 4.992165e-20)
(0.095576951 -0.016049451 0)
(0.11162288 -0.018346708 0)
(0.11350334 -0.0086206932 -2.1838701e-22)
(0.10606811 0.006814493 -2.2547491e-22)
(0.09857291 0.016587668 -6.0427694e-20)
(0.097687471 0.010483393 6.2154702e-20)
(0.099463182 -0.0066281607 6.4510627e-20)
(0.098106706 -0.020335874 -6.7895225e-20)
(0.094347881 -0.019933799 -1.3623049e-22)
(0.095447713 -0.0051700496 7.2542191e-20)
(0.09962212 0.015677833 -7.6255741e-20)
(0.10764328 0.031037096 0)
(0.11076392 0.033349737 -8.0651384e-20)
(0.11585965 0.0005053916 9.9058242e-22)
(0.10942928 0.0017424502 -3.425476e-22)
(0.11306228 0.0038502951 7.1545812e-22)
(0.10957094 0.0052808614 7.4801729e-22)
(0.10638848 0.0064829547 3.1124822e-21)
(0.11073221 0.008549986 -5.6584924e-21)
(0.11696301 0.0093650283 3.3841959e-21)
(0.12078274 0.0089743444 0)
(0.1206907 0.0091152441 4.0685731e-21)
(0.1184698 0.0089746807 -3.2974379e-21)
(0.11417933 0.010146146 -9.8216881e-22)
(0.10920438 0.010478082 0)
(0.10774398 0.010680615 -1.0612601e-21)
(0.10932908 0.011927321 5.5149437e-22)
(0.11257007 0.010891165 -5.7443445e-22)
(0.11504541 0.010372597 -1.8806001e-25)
(0.11468628 0.011022851 -9.2367108e-21)
(0.11450483 0.010187289 1.9809909e-20)
(0.11565086 0.006693433 -1.0655092e-20)
(0.11405947 0.010023728 0)
(0.10865403 0.0074104445 -3.6116561e-22)
(0.10303189 0.0091377112 0)
(0.099575308 0.011421553 -3.9341485e-22)
(0.096894442 0.010764186 0)
(0.098557883 0.011113685 -7.2565912e-25)
(0.10159556 0.011375014 4.390693e-22)
(0.098885619 0.012540804 4.5516138e-22)
(0.10083061 0.011451158 1.4943501e-20)
(0.11100382 0.0058729479 -2.2733459e-22)
(0.11437642 0.0034399292 -1.6343257e-20)
(0.10624987 0.0085121085 3.4082714e-20)
(0.10169662 0.012351325 -7.0466561e-20)
(0.10878714 0.0081883417 3.7231938e-20)
(0.11589319 0.00072240103 -2.9607298e-22)
(0.11012909 0.0037681826 -3.0922537e-22)
(0.10098827 0.011811976 3.2420081e-22)
(0.10326951 0.0072458409 0)
(0.11085982 -0.0036707604 1.7284446e-22)
(0.10834137 -0.0072783539 1.8027409e-22)
(0.093811168 -0.0018008762 0)
(0.079268325 0.0010338055 -3.9717591e-22)
(0.079719124 -0.0070500161 0)
(0.093587739 -0.017545032 2.1167519e-22)
(0.10527007 -0.018094068 -5.6542836e-20)
(0.1053646 -0.0071652416 5.8876637e-20)
(0.098783264 0.0085354701 0)
(0.096514222 0.017757699 -1.2353185e-22)
(0.10423107 0.01202901 0)
(0.11181717 -0.0014298 6.8717128e-20)
(0.10822138 -0.012356656 -7.1110719e-20)
(0.093693294 -0.013629927 1.4530279e-22)
(0.08014343 -0.0022960404 0)
(0.076632715 0.013991858 -7.9992465e-23)
(0.088699297 0.026930658 0)
(0.10579039 0.032001427 8.4187002e-23)
(0.11577581 0.00060019143 -3.4870359e-22)
(0.10921436 0.0013978848 1.0850897e-21)
(0.11281736 0.0033994411 -7.5385059e-22)
(0.10944069 0.0051270632 1.581411e-21)
(0.10617872 0.0059492533 -2.4603217e-21)
(0.11041079 0.0077589025 3.1237079e-26)
(0.11684685 0.0088516822 -3.5370467e-21)
(0.12073997 0.0078021073 3.6884853e-21)
(0.12071372 0.0089551838 3.3287877e-21)
(0.11854805 0.0078416726 -8.4200971e-21)
(0.11429502 0.0095856786 5.1081337e-22)
(0.10949438 0.0095410864 4.3075413e-21)
(0.10750932 0.0085277916 -8.3589872e-21)
(0.10898561 0.011327255 8.7146597e-21)
(0.11253574 0.0094478656 6.0300666e-22)
(0.11498633 0.0090026878 -9.3906999e-21)
(0.11464318 0.0094366378 1.0417095e-20)
(0.11497034 0.0092403214 0)
(0.11558764 0.0057322796 1.1540373e-20)
(0.1142369 0.0093953151 -2.3375305e-20)
(0.10962365 0.0076640099 -6.1870494e-23)
(0.10317942 0.0065688502 1.2302796e-20)
(0.099760765 0.0089314973 1.4085971e-20)
(0.097189761 0.0091314897 -2.7031697e-20)
(0.098043219 0.0094596877 1.4699678e-20)
(0.10110313 0.010863128 -2.3010836e-22)
(0.098870964 0.012521267 2.3930272e-22)
(0.10088572 0.010211388 1.5526152e-20)
(0.11109802 0.0052540391 -1.7023734e-20)
(0.11433712 0.0038590372 2.680596e-22)
(0.10598103 0.0076590476 0)
(0.10158189 0.010566976 1.8496022e-20)
(0.10964282 0.006482067 -3.3694627e-22)
(0.11677611 0.00050828431 -1.9967346e-20)
(0.10945943 0.0036758681 4.8792101e-22)
(0.10086137 0.011122534 -2.1637565e-20)
(0.10561414 0.0072057904 2.2639608e-20)
(0.11412984 -0.002773648 -1.8358939e-22)
(0.11062403 -0.0064975397 1.893418e-22)
(0.096151804 -0.0014675113 0)
(0.083487063 0.0018606852 -5.3384384e-20)
(0.083805871 -0.0071608892 5.565187e-20)
(0.09329339 -0.018908473 -1.1223e-22)
(0.099838739 -0.019750833 -5.8990044e-20)
(0.09772868 -0.0079953618 6.1105796e-20)
(0.091508587 0.0075566435 1.2695557e-22)
(0.093480706 0.01530612 1.2965026e-22)
(0.10574117 0.010687551 6.8048295e-20)
(0.11834686 0.0015197376 -7.2682992e-20)
(0.11773113 -0.0044217368 -2.8929014e-22)
(0.1007059 -0.0036331097 0)
(0.077797146 0.0036631046 0)
(0.063602577 0.013764753 -7.5699618e-25)
(0.070180249 0.021244431 0)
(0.091625643 0.024504642 -8.9814697e-23)
(0.11572275 0.00062601706 -7.3209895e-22)
(0.10904222 0.0012799719 -7.6506314e-22)
(0.1125681 0.0028168411 3.1837874e-21)
(0.10925465 0.0047664732 -1.6525291e-21)
(0.10597149 0.0058478566 1.7269004e-21)
(0.11008274 0.0069987 -2.7000585e-21)
(0.11669629 0.0082370397 -3.7259633e-21)
(0.12067124 0.0074343967 3.8976116e-21)
(0.12077583 0.0084647788 4.0184821e-21)
(0.11862364 0.0077905381 -7.8403935e-21)
(0.11432885 0.0087443984 3.818195e-21)
(0.10980642 0.0089421229 0)
(0.10729756 0.0078833174 5.8853597e-22)
(0.10869116 0.010854052 0)
(0.11259526 0.0080658969 0)
(0.11496043 0.0077431106 1.0217151e-20)
(0.11458775 0.0083479795 -1.0964131e-20)
(0.11536628 0.008589514 -3.5646967e-22)
(0.11556477 0.0063064691 1.5085464e-25)
(0.11427893 0.0085479314 0)
(0.11067833 0.0082852554 1.3320451e-20)
(0.10374932 0.0052996665 -1.2533346e-20)
(0.099758339 0.0068961865 4.3150682e-25)
(0.09710779 0.0085807195 1.3835898e-20)
(0.097486869 0.008973134 -3.0015169e-20)
(0.10049448 0.010934356 1.5196841e-20)
(0.09898945 0.013210805 -1.6431247e-20)
(0.1011845 0.0099677957 4.7722047e-22)
(0.11098717 0.0049379287 1.7974553e-20)
(0.11430632 0.004482011 1.7636424e-20)
(0.10596554 0.0076014051 -1.8445165e-20)
(0.10139261 0.0093952429 0)
(0.10982377 0.0053350217 -3.1771024e-22)
(0.11718154 0.00085746517 1.135781e-25)
(0.10915975 0.0044519066 -1.7141942e-22)
(0.10037228 0.010629557 2.2925763e-20)
(0.10676182 0.0073998956 -4.3470768e-22)
(0.1169112 -0.00097748556 -2.5006286e-20)
(0.11327987 -0.0047849094 2.5448433e-20)
(0.098057895 -0.00057203472 -5.3533808e-20)
(0.086893786 0.0026096744 1.1450339e-22)
(0.088876167 -0.0056371111 5.7897901e-20)
(0.096135164 -0.017572244 -3.0597906e-20)
(0.096622133 -0.020797276 -1.2075876e-22)
(0.09056657 -0.0097313688 -3.2488466e-20)
(0.084419985 0.0055712557 3.380457e-20)
(0.088532348 0.0123592 0)
(0.10369022 0.0093990056 -3.5972084e-20)
(0.11956938 0.003713933 3.830129e-20)
(0.12239749 0.0019702445 3.0377175e-22)
(0.10883968 0.0059888216 0)
(0.085146995 0.012312776 -8.8054342e-20)
(0.064344385 0.01712004 -1.6772609e-21)
(0.061517851 0.019177087 9.2815522e-20)
(0.07795784 0.017076054 9.2823308e-23)
(0.11565945 0.0005684401 -2.7973105e-26)
(0.10892586 0.0012387502 -1.6071589e-21)
(0.11238863 0.0023007308 0)
(0.10907712 0.0041032413 8.7492523e-22)
(0.10583881 0.0056620964 1.3674833e-21)
(0.10982217 0.0061812263 1.4121488e-21)
(0.11649885 0.0071175964 -5.9024526e-21)
(0.12058506 0.0071174446 -4.8608948e-22)
(0.12079201 0.007254959 -5.1230161e-22)
(0.11873231 0.0076085969 8.2727752e-21)
(0.11442009 0.0073694101 -4.0198742e-21)
(0.11000166 0.0077424364 -4.7904991e-21)
(0.10714645 0.007765265 3.7128157e-21)
(0.1086165 0.0095375096 0)
(0.11264159 0.0066296153 0)
(0.11479553 0.0066185089 -1.1114345e-20)
(0.11443339 0.0072772298 2.1850978e-23)
(0.11541492 0.0071249982 1.2415541e-20)
(0.11567392 0.0063995775 -3.9006433e-22)
(0.11440764 0.0065510929 1.296837e-20)
(0.1113682 0.0078521419 -1.3577052e-20)
(0.10468951 0.005359666 -4.4239335e-22)
(0.09979248 0.0054338134 -2.2967017e-22)
(0.096909325 0.0080156617 -1.5292826e-20)
(0.096963927 0.0082899491 1.5867393e-20)
(0.09973711 0.010331762 2.5663884e-22)
(0.0991807 0.01327329 0)
(0.10175121 0.0096986438 0)
(0.11082909 0.0042805488 0)
(0.11428441 0.004310373 5.9543764e-22)
(0.10642395 0.0073058663 -3.1086573e-22)
(0.10148694 0.0081073464 0)
(0.10967506 0.0037576985 1.6737921e-22)
(0.11728223 0.0005705829 3.4620428e-22)
(0.1090849 0.0048478312 0)
(0.10001573 0.0095643322 2.3740026e-20)
(0.10706019 0.0061528057 -2.5035149e-20)
(0.1187745 -0.0006785353 0)
(0.11617624 -0.0035664173 2.1027738e-22)
(0.1002388 -0.00015141988 2.1976924e-22)
(0.089412943 0.0019081349 0)
(0.093182606 -0.0048651666 0)
(0.09998668 -0.015736776 3.1918691e-20)
(0.097336088 -0.021105481 -3.2748251e-20)
(0.085694246 -0.012453925 0)
(0.078003206 0.0011615353 0)
(0.082639484 0.0082053028 -1.4597873e-22)
(0.099568221 0.0074182219 1.4958118e-22)
(0.11653165 0.0040382388 0)
(0.12218124 0.005595334 -4.1389205e-20)
(0.11272709 0.012751006 4.2344111e-20)
(0.092579035 0.020721836 -8.9195225e-23)
(0.072173459 0.023629125 4.7737918e-20)
(0.064845627 0.019560899 -9.8150401e-20)
(0.0728987 0.010218933 5.1311374e-20)
(0.11562854 0.00047615228 1.6244847e-21)
(0.10883147 0.0012616774 -2.5214984e-24)
(0.11224973 0.002032553 8.7854619e-22)
(0.10888457 0.0034510131 -9.2169093e-22)