/*--------------------------------*- C++ -*----------------------------------*\
| =========                 |                                                 |
| \\      /  F ield         | OpenFOAM: The Open Source CFD Toolbox           |
|  \\    /   O peration     | Version:  2406                                  |
|   \\  /    A nd           | Website:  www.openfoam.com                      |
|    \\/     M anipulation  |                                                 |
\*---------------------------------------------------------------------------*/
FoamFile
{
    version     2.0;
    format      ascii;
    arch        "LSB;label=32;scalar=64";
    class       volScalarField;
    location    "125";
    object      alphat;
}
// * * * * * * * * * * * * * * * * * * * * * * * * * * * * * * * * * * * * * //

dimensions      [1 -1 -1 0 0 0 0];

internalField   nonuniform List<scalar> 
20580
(
8.9487191e-07
9.4785866e-07
9.1682964e-07
8.8039066e-07
8.617134e-07
8.4538245e-07
8.3665714e-07
8.289403e-07
8.1921866e-07
8.1189481e-07
8.0341413e-07
8.0014171e-07
7.9224704e-07
7.8755385e-07
7.8185232e-07
7.8094652e-07
7.7986161e-07
7.8569314e-07
7.9879046e-07
8.0489123e-07
8.1582909e-07
8.2982414e-07
8.5904203e-07
8.7231568e-07
9.3650528e-07
9.7573417e-07
1.0233648e-06
1.0190585e-06
1.0325915e-06
1.0879459e-06
1.1113038e-06
8.9678215e-07
9.5689777e-07
9.291962e-07
9.040764e-07
8.8927114e-07
8.6888198e-07
8.5358653e-07
8.3858408e-07
8.2528479e-07
8.1644785e-07
8.0789509e-07
8.0401004e-07
7.9544129e-07
7.9018739e-07
7.8446268e-07
7.8158682e-07
7.7866828e-07
7.9162497e-07
8.0094093e-07
8.0751956e-07
8.202948e-07
8.3862798e-07
8.5432022e-07
8.7363138e-07
9.2043187e-07
1.0259438e-06
1.0885877e-06
1.1556682e-06
1.1795701e-06
1.2425829e-06
1.2260598e-06
8.9669334e-07
9.6311406e-07
9.3182076e-07
9.1413856e-07
9.0699197e-07
8.9160589e-07
8.7413296e-07
8.5365524e-07
8.3634939e-07
8.2373682e-07
8.1353813e-07
8.069444e-07
7.9798727e-07
7.9138486e-07
7.8590507e-07
7.8279908e-07
7.7453378e-07
7.8924967e-07
7.9636421e-07
7.9844474e-07
8.1573824e-07
8.3437806e-07
8.4739387e-07
8.6202971e-07
9.0214182e-07
1.0059108e-06
1.0786518e-06
1.1458167e-06
1.166595e-06
1.2817601e-06
1.3878124e-06
8.965536e-07
9.6622872e-07
9.3436658e-07
9.1959657e-07
9.1046778e-07
8.9952591e-07
8.8892862e-07
8.6946941e-07
8.5255697e-07
8.37289e-07
8.2448373e-07
8.1370207e-07
8.0393298e-07
7.9475744e-07
7.8899576e-07
7.8366633e-07
7.7523306e-07
7.8502465e-07
7.9344915e-07
7.893785e-07
8.0858911e-07
8.2455201e-07
8.3431492e-07
8.4641156e-07
8.8037391e-07
9.4635454e-07
1.0492609e-06
1.1252798e-06
1.1463304e-06
1.2339124e-06
1.3543632e-06
8.9654867e-07
9.6987811e-07
9.3329267e-07
9.1956372e-07
9.1222717e-07
9.0615516e-07
8.9299774e-07
8.7889814e-07
8.6577733e-07
8.5477269e-07
8.431887e-07
8.2995863e-07
8.2033768e-07
8.060185e-07
7.9830443e-07
7.8891752e-07
7.8164663e-07
7.8558494e-07
7.9243204e-07
7.8720286e-07
8.0813276e-07
8.2165849e-07
8.3077997e-07
8.4679699e-07
8.7895591e-07
9.3479384e-07
9.969292e-07
1.1112136e-06
1.1554783e-06
1.2894775e-06
1.3581677e-06
8.9691616e-07
9.7453437e-07
9.3486053e-07
9.1913372e-07
9.0830343e-07
9.0679195e-07
8.9640066e-07
8.8279102e-07
8.7238005e-07
8.6544453e-07
8.609815e-07
8.4704826e-07
8.4366396e-07
8.2919504e-07
8.2120739e-07
8.0684732e-07
8.007347e-07
7.9567897e-07
7.9765805e-07
7.9300182e-07
8.1169154e-07
8.2026353e-07
8.2470176e-07
8.4381845e-07
8.7156503e-07
9.1348692e-07
9.5909529e-07
1.0836641e-06
1.1613538e-06
1.3047817e-06
1.3661181e-06
9.0433433e-07
9.7151358e-07
9.3361945e-07
9.1731624e-07
9.0526849e-07
9.0085324e-07
8.8993283e-07
8.8548926e-07
8.7634577e-07
8.7134666e-07
8.6594154e-07
8.5972031e-07
8.5564083e-07
8.5051013e-07
8.4444837e-07
8.3235846e-07
8.3367591e-07
8.2909414e-07
8.2303439e-07
8.2104613e-07
8.2869805e-07
8.3010691e-07
8.2360404e-07
8.4366046e-07
8.6832722e-07
8.7752023e-07
8.9596261e-07
9.9285843e-07
1.1107954e-06
1.2891014e-06
1.3886568e-06
9.5245927e-07
1.0033458e-06
9.4884614e-07
9.2231414e-07
9.0794853e-07
8.995523e-07
8.8685893e-07
8.8101824e-07
8.7592669e-07
8.7387686e-07
8.6716826e-07
8.6323886e-07
8.5802256e-07
8.5652773e-07
8.5165689e-07
8.4921809e-07
8.5265471e-07
8.5657744e-07
8.5292806e-07
8.6414631e-07
8.7292043e-07
8.7102955e-07
8.5922791e-07
8.6407069e-07
8.850215e-07
8.8878053e-07
8.8865971e-07
9.2544424e-07
1.0188116e-06
1.1375946e-06
1.3259795e-06
1.2660648e-06
1.2250108e-06
1.0801562e-06
9.9092757e-07
9.4939203e-07
9.2281884e-07
9.0214383e-07
8.8951578e-07
8.7872687e-07
8.7511762e-07
8.6368853e-07
8.6090487e-07
8.5416717e-07
8.5408251e-07
8.4818609e-07
8.4788536e-07
8.5199039e-07
8.5688531e-07
8.5696473e-07
8.7532151e-07
8.8973525e-07
8.9783625e-07
9.0534764e-07
9.2733576e-07
9.4596611e-07
9.5347782e-07
9.4899419e-07
9.7406896e-07
1.049763e-06
1.1527898e-06
1.2460768e-06
1.0771523e-06
1.1857133e-06
1.200194e-06
1.1956275e-06
1.1531395e-06
1.0666959e-06
1.0051119e-06
9.6060868e-07
9.2589901e-07
9.0679741e-07
8.8661175e-07
8.7566651e-07
8.6328529e-07
8.578964e-07
8.5138311e-07
8.4799138e-07
8.4923967e-07
8.483795e-07
8.5336229e-07
8.7360325e-07
8.8774264e-07
8.9667496e-07
9.206623e-07
9.5093755e-07
9.8715395e-07
1.0266742e-06
1.0767951e-06
1.1336074e-06
1.1819311e-06
1.3005939e-06
1.3348855e-06
8.7215785e-07
9.6757773e-07
1.125187e-06
1.214511e-06
1.2822635e-06
1.299442e-06
1.2788106e-06
1.2272805e-06
1.1549324e-06
1.0974059e-06
1.0386612e-06
9.9535676e-07
9.5940068e-07
9.321336e-07
9.1053024e-07
8.9314117e-07
8.8307228e-07
8.7290704e-07
8.7081801e-07
8.8329758e-07
8.9239756e-07
9.0316347e-07
9.306694e-07
9.6189059e-07
9.8038642e-07
1.01998e-06
1.0807783e-06
1.1860918e-06
1.2361879e-06
1.3733934e-06
1.4278407e-06
8.976705e-07
9.8793127e-07
9.7807275e-07
1.0597544e-06
1.1382885e-06
1.2272301e-06
1.2577226e-06
1.2772842e-06
1.3042778e-06
1.3056139e-06
1.3027869e-06
1.2836476e-06
1.256346e-06
1.2184446e-06
1.1914284e-06
1.1474048e-06
1.1151316e-06
1.0711412e-06
1.0342379e-06
1.010273e-06
9.8483554e-07
9.5953543e-07
9.8089022e-07
9.9556132e-07
9.9383405e-07
1.005534e-06
1.0545022e-06
1.1258612e-06
1.1963925e-06
1.2795854e-06
1.4258972e-06
9.9297914e-07
1.0638178e-06
1.0100187e-06
1.0003555e-06
1.0101954e-06
1.0239367e-06
1.0696917e-06
1.1037655e-06
1.1589978e-06
1.1946817e-06
1.227236e-06
1.2475076e-06
1.2512868e-06
1.254564e-06
1.2705888e-06
1.2891017e-06
1.296719e-06
1.3123849e-06
1.3344924e-06
1.3383315e-06
1.3352719e-06
1.2937645e-06
1.2894417e-06
1.2666862e-06
1.1875386e-06
1.1285783e-06
1.1247437e-06
1.1658397e-06
1.2003097e-06
1.2245615e-06
1.302881e-06
8.9810151e-07
1.0248931e-06
1.0134186e-06
1.0191369e-06
1.02704e-06
1.0322569e-06
1.0291781e-06
1.0249661e-06
1.0246915e-06
1.0272513e-06
1.0268986e-06
1.0412943e-06
1.0535624e-06
1.0683477e-06
1.1008413e-06
1.1355064e-06
1.16544e-06
1.2034887e-06
1.265318e-06
1.3080371e-06
1.3351161e-06
1.3707728e-06
1.4244856e-06
1.487687e-06
1.51325e-06
1.5045096e-06
1.5208452e-06
1.5497272e-06
1.5620061e-06
1.5418103e-06
1.4904972e-06
9.7825713e-07
1.0439896e-06
1.0031702e-06
1.0062152e-06
1.0181186e-06
1.029865e-06
1.0293361e-06
1.0308629e-06
1.0266242e-06
1.0238218e-06
1.0227324e-06
1.0183026e-06
1.0013837e-06
1.002264e-06
9.9142746e-07
9.988167e-07
9.9680793e-07
1.0045861e-06
1.0329645e-06
1.0715582e-06
1.1063471e-06
1.1857591e-06
1.2487681e-06
1.3608163e-06
1.4389826e-06
1.5307923e-06
1.5883482e-06
1.6997413e-06
1.7860888e-06
1.9368572e-06
1.9495401e-06
8.7109538e-07
9.8557039e-07
9.5607825e-07
9.4123144e-07
9.3683769e-07
9.4665688e-07
9.5780503e-07
9.7408996e-07
9.8165936e-07
9.9117632e-07
1.0017403e-06
1.0047253e-06
9.9332898e-07
9.9820837e-07
9.9237919e-07
9.8956058e-07
9.8456941e-07
9.8629629e-07
9.9472101e-07
9.9649598e-07
1.0137268e-06
1.0449423e-06
1.0738802e-06
1.1244334e-06
1.1856715e-06
1.3262842e-06
1.4065691e-06
1.5340218e-06
1.6614348e-06
1.8352279e-06
2.0193773e-06
9.0126713e-07
9.8532597e-07
9.5254491e-07
9.3024431e-07
9.1492571e-07
9.0724752e-07
9.0280907e-07
9.0425875e-07
8.9790316e-07
9.0043299e-07
9.0805001e-07
9.1691123e-07
9.1441228e-07
9.2718091e-07
9.3797876e-07
9.4012905e-07
9.4688549e-07
9.5334244e-07
9.6627572e-07
9.6840665e-07
9.8473014e-07
1.0169394e-06
1.0359844e-06
1.0454463e-06
1.0846759e-06
1.1538785e-06
1.2242534e-06
1.2487243e-06
1.3318994e-06
1.4392711e-06
1.7192687e-06
8.7940538e-07
9.6519063e-07
9.33358e-07
9.0697995e-07
8.9459174e-07
8.8408209e-07
8.7681517e-07
8.6956828e-07
8.6047168e-07
8.5705144e-07
8.5368684e-07
8.4899442e-07
8.473438e-07
8.4787411e-07
8.4930165e-07
8.4888499e-07
8.5123478e-07
8.5649919e-07
8.6733601e-07
8.7509479e-07
8.9391371e-07
9.2663379e-07
9.4584978e-07
9.5027124e-07
9.7626524e-07
1.0297061e-06
1.0871102e-06
1.0957198e-06
1.1237479e-06
1.163041e-06
1.2798171e-06
8.797522e-07
9.1356073e-07
8.9594542e-07
8.8424288e-07
8.8560876e-07
8.7987415e-07
8.764963e-07
8.6728546e-07
8.6157983e-07
8.5704471e-07
8.5420457e-07
8.4806825e-07
8.4696347e-07
8.453978e-07
8.4321488e-07
8.3907567e-07
8.3888049e-07
8.375081e-07
8.4066861e-07
8.3874645e-07
8.5244088e-07
8.8065768e-07
8.9950814e-07
9.0442781e-07
9.3283906e-07
9.8907594e-07
1.0442463e-06
1.0961875e-06
1.1234009e-06
1.1861387e-06
1.2498511e-06
8.8133207e-07
9.7282433e-07
9.3142046e-07
9.1545683e-07
9.162851e-07
9.1679736e-07
9.2407266e-07
9.2347538e-07
9.3029322e-07
9.3449139e-07
9.3935732e-07
9.4183433e-07
9.4573825e-07
9.5410165e-07
9.5554691e-07
9.5840991e-07
9.5856257e-07
9.6522395e-07
9.7030774e-07
9.8234805e-07
1.0044278e-06
1.0453017e-06
8.7896615e-07
1.1034426e-06
9.5632781e-07
1.2054797e-06
7.0199785e-07
1.1426207e-06
1.3380202e-06
1.1340018e-06
1.4235149e-06
8.9193129e-07
1.0070005e-06
1.0730806e-06
1.1066209e-06
1.1406351e-06
1.1801554e-06
1.2384663e-06
1.2922999e-06
1.3517191e-06
1.4000698e-06
1.4411995e-06
1.483897e-06
1.520305e-06
1.570928e-06
1.6052777e-06
1.6463349e-06
1.6804035e-06
1.71678e-06
1.7420073e-06
1.8027899e-06
1.8555507e-06
1.724461e-06
1.3124895e-06
2.0778063e-06
2.1359895e-06
2.2459904e-06
1.2144241e-06
1.3901099e-06
2.4319251e-06
2.0622536e-06
2.411878e-06
1.1060336e-06
2.0610036e-06
2.1618474e-06
2.3426426e-06
2.3125113e-06
2.3080306e-06
2.4539561e-06
2.558142e-06
2.6478522e-06
2.732846e-06
2.7878767e-06
2.9061339e-06
2.9550771e-06
3.0851408e-06
3.1322706e-06
3.2387106e-06
3.3315049e-06
3.4285234e-06
3.4845794e-06
3.5819965e-06
3.6956863e-06
3.6045662e-06
3.3884473e-06
4.0075979e-06
4.1343987e-06
4.2073492e-06
3.3597309e-06
3.2672253e-06
4.4118546e-06
4.4673257e-06
4.4112269e-06
1.152033e-06
2.4221037e-06
2.793575e-06
2.2681743e-06
2.3729917e-06
2.1568688e-06
2.1020014e-06
2.0367026e-06
2.005312e-06
2.0231905e-06
2.0133183e-06
1.9869467e-06
2.0333554e-06
2.1062099e-06
2.0915435e-06
2.1218584e-06
2.1228854e-06
2.2215551e-06
2.2709699e-06
2.1438947e-06
2.12785e-06
2.3283075e-06
2.5570387e-06
2.3304154e-06
2.0626954e-06
2.1139061e-06
2.6624395e-06
3.1012444e-06
2.4269499e-06
1.9972298e-06
2.0230387e-06
2.709279e-06
4.0117779e-06
2.352453e-06
1.3632407e-06
1.3784724e-06
1.3722656e-06
1.7466911e-06
2.1627e-06
2.144853e-06
1.7610714e-06
1.4817992e-06
1.6111312e-06
1.6244562e-06
1.5057139e-06
1.3515231e-06
1.3705082e-06
1.4747769e-06
1.5655619e-06
1.5982956e-06
1.5379347e-06
1.505945e-06
1.3465676e-06
1.1299191e-06
3.0920794e-06
3.5900553e-06
2.4035865e-06
1.9033347e-06
1.5083208e-06
1.4133316e-06
1.7170106e-06
2.342797e-06
2.3764351e-06
2.1617853e-06
1.744608e-06
1.8764386e-06
1.839254e-06
1.7110524e-06
1.4743534e-06
1.4693733e-06
1.6166651e-06
1.7789688e-06
1.8824369e-06
1.8098003e-06
1.7646311e-06
1.6700066e-06
1.4337116e-06
1.7429313e-06
4.6350505e-06
3.3421582e-06
1.9234087e-06
1.7189925e-06
1.5002605e-06
1.7554795e-06
2.5071975e-06
2.7085113e-06
2.6129557e-06
2.0692884e-06
2.0706243e-06
2.0140261e-06
1.9176833e-06
1.7293199e-06
1.6758506e-06
1.7995905e-06
1.9761606e-06
1.9897391e-06
1.90352e-06
1.8742964e-06
1.8849977e-06
1.8425483e-06
1.4882436e-06
4.4492749e-06
2.6496513e-06
2.2102594e-06
1.8669437e-06
1.4242206e-06
2.0014477e-06
2.8872606e-06
3.2543503e-06
3.2726684e-06
2.5136133e-06
2.3182851e-06
2.3416378e-06
2.3616598e-06
2.3017132e-06
2.0764512e-06
2.1121934e-06
2.1852851e-06
2.1655697e-06
2.0525166e-06
1.9831788e-06
2.0452635e-06
2.1132327e-06
2.9074166e-06
2.6172072e-06
3.169984e-06
2.884542e-06
1.8921689e-06
1.7521139e-06
2.4631327e-06
3.4126082e-06
3.7881449e-06
3.875378e-06
3.3900897e-06
2.7031364e-06
2.8164112e-06
2.8385006e-06
2.9172924e-06
2.7228214e-06
2.5261588e-06
2.5434369e-06
2.4867041e-06
2.487164e-06
2.408462e-06
2.4153847e-06
2.4446531e-06
2.3033786e-06
2.5136664e-06
1.8761749e-06
2.1558787e-06
2.3484662e-06
2.5882332e-06
2.675806e-06
3.9164546e-06
4.307476e-06
4.3793153e-06
4.2029848e-06
3.4582564e-06
3.5433591e-06
3.4907046e-06
3.2749557e-06
3.0674369e-06
2.7525794e-06
2.8444249e-06
3.0065142e-06
3.1747439e-06
3.3077492e-06
3.300673e-06
3.3005034e-06
1.9825913e-06
1.9867287e-06
3.7075875e-06
3.8101429e-06
3.08921e-06
1.972645e-06
2.1796692e-06
4.1713074e-06
4.9534155e-06
5.140485e-06
5.3339413e-06
4.7700761e-06
4.6203264e-06
4.4602983e-06
3.9522534e-06
3.523248e-06
3.079717e-06
3.0835153e-06
3.2945436e-06
3.5215067e-06
3.9185761e-06
4.163391e-06
4.2045074e-06
1.0657865e-06
3.4859407e-06
3.3446229e-06
2.7897816e-06
3.6137189e-06
3.4676284e-06
3.5122861e-06
5.0411693e-06
6.2089383e-06
6.5243565e-06
7.1367735e-06
6.6815452e-06
6.0048841e-06
5.8725189e-06
5.2788539e-06
4.3844364e-06
3.8779755e-06
3.7636977e-06
4.092575e-06
4.2536874e-06
4.3216198e-06
4.3936288e-06
4.4579414e-06
1.6708292e-06
2.8483513e-06
4.5532131e-06
4.1598209e-06
4.4056591e-06
4.0217798e-06
3.468651e-06
5.0972992e-06
8.6675883e-06
8.8218368e-06
9.1535232e-06
9.0233374e-06
7.9896791e-06
8.2897221e-06
7.8121684e-06
6.3032784e-06
5.3257499e-06
5.0631274e-06
5.4119707e-06
5.710445e-06
5.3203902e-06
4.9123087e-06
4.5906874e-06
1.1946475e-06
1.6365126e-06
3.5217481e-06
5.6910485e-06
6.6446444e-06
4.5220956e-06
4.6890804e-06
8.7884105e-06
1.2898118e-05
1.2224935e-05
1.1460781e-05
1.1103162e-05
1.0105219e-05
1.0447566e-05
1.0786605e-05
1.0059503e-05
8.1484489e-06
7.30657e-06
7.812748e-06
8.9395314e-06
7.8751711e-06
6.1249492e-06
5.3976567e-06
6.7601955e-07
2.2906619e-06
3.3903182e-06
4.4693617e-06
6.3788038e-06
9.9745462e-06
1.0790057e-05
1.6234857e-05
1.9278308e-05
1.49034e-05
1.604092e-05
1.5738381e-05
1.4393341e-05
1.509879e-05
1.645676e-05
1.5915516e-05
1.2736525e-05
1.0920541e-05
1.0625352e-05
1.2304862e-05
1.2067614e-05
9.7263971e-06
7.5803828e-06
7.53738e-07
2.221406e-06
3.2088271e-06
5.4782665e-06
9.702215e-06
1.0751048e-05
1.4220178e-05
1.9993029e-05
2.7559153e-05
2.7233832e-05
2.5683276e-05
2.5082962e-05
2.2886761e-05
2.5053701e-05
2.7398439e-05
2.55487e-05
1.9521786e-05
1.5494704e-05
1.3747756e-05
1.4805181e-05
1.667265e-05
1.4921979e-05
1.1227521e-05
1.1401393e-06
2.1365909e-06
4.1000282e-06
9.2284635e-06
1.2467833e-05
1.3192349e-05
1.824183e-05
2.460949e-05
3.3009333e-05
3.7839152e-05
3.4712174e-05
3.4697895e-05
3.5374322e-05
4.4010848e-05
4.7652602e-05
4.1339909e-05
2.8582747e-05
2.2539321e-05
1.9895589e-05
2.0337153e-05
2.3212909e-05
2.2884777e-05
1.8732099e-05
1.5049536e-06
2.6719213e-06
8.3768481e-06
1.2121966e-05
1.4892633e-05
2.0935971e-05
3.523255e-05
4.7600242e-05
5.2329359e-05
5.0692108e-05
5.1370285e-05
5.3242025e-05
6.2546836e-05
8.5158414e-05
8.5969616e-05
6.9191809e-05
4.284119e-05
3.2388905e-05
3.02493e-05
3.1073323e-05
3.4675454e-05
3.3280741e-05
2.6481793e-05
2.3734657e-06
4.2536811e-06
1.1179838e-05
1.5520798e-05
2.277021e-05
3.7307029e-05
5.696095e-05
6.7584195e-05
7.0947094e-05
7.5682893e-05
7.6642159e-05
8.6818412e-05
0.0001174424
0.00015752401
0.00015996376
0.00011847316
6.3337082e-05
4.7456395e-05
4.3295464e-05
4.431334e-05
5.1598464e-05
4.6979078e-05
3.3792292e-05
3.2725524e-06
6.0110558e-06
1.2764809e-05
1.746978e-05
2.7826174e-05
4.4240144e-05
7.057057e-05
8.2848535e-05
8.6405383e-05
9.1504989e-05
9.5925097e-05
0.00011192683
0.00016013369
0.00021767679
0.00022711112
0.00017511513
9.9205088e-05
7.7133615e-05
7.2262669e-05
7.9719281e-05
8.6835439e-05
7.4397409e-05
5.0105921e-05
3.9428466e-06
7.3693351e-06
1.5945453e-05
2.1677277e-05
3.4521707e-05
5.5344442e-05
8.5396838e-05
9.8315799e-05
0.00010142608
0.0001071562
0.00011546675
0.00013623463
0.00019790772
0.00027051559
0.00028732326
0.00023353755
0.0001524631
0.00012598801
0.00012585087
0.0001374918
0.00014061037
0.00012107198
7.8635154e-05
3.9716963e-06
8.5916868e-06
1.5181769e-05
2.7468579e-05
4.4729702e-05
7.1078948e-05
0.00010149337
0.00011520364
0.00011992954
0.0001320624
0.00014872154
0.00017589178
0.00024853715
0.00032263211
0.00033697359
0.00027915415
0.00019036585
0.00016018413
0.00016228639
0.00018003546
0.00018360665
0.00016082804
0.00010739508
3.6468217e-06
8.9344599e-06
1.3968925e-05
2.8105749e-05
5.9554721e-05
9.3223512e-05
0.00012089876
0.00013483204
0.00014324711
0.00016605377
0.00019040807
0.00023040424
0.00031486625
0.00037847655
0.00037728069
0.00031375255
0.00024237642
0.00021999602
0.00023658369
0.00025206427
0.00024595781
0.00021092361
0.00014782439
2.8751792e-06
7.4125623e-06
1.5154595e-05
2.9747932e-05
5.3919594e-05
0.00010670962
0.00014302444
0.00016060293
0.0001768059
0.00015715864
0.00022432482
0.00029810005
0.00038199694
0.00034569559
0.00040146281
0.00036191886
0.00031743772
0.0003070549
0.00032915983
0.00033813482
0.00031938912
0.00025995806
0.00020453617
2.9696484e-06
5.9138751e-06
1.8305529e-05
4.4031499e-05
6.5175882e-05
9.0227079e-05
0.00012128378
0.00013223712
0.00012990354
0.0001638348
0.00031109587
0.00037698484
0.00025252907
0.00026026096
0.00032727275
0.0004407488
0.00041575703
0.00041644946
0.00042402424
0.00042220624
0.00039044299
0.00031192067
0.00026290744
3.9861731e-06
5.6106482e-06
1.8904346e-05
5.4888966e-05
0.00011037732
9.2028292e-05
9.4925565e-05
0.00010994175
0.00015432639
0.00036263291
0.00040860997
0.00026438618
0.00023001558
0.00025186088
0.00033422635
0.00054008321
0.00053354341
0.00047829817
0.00039848065
0.00039814414
0.00045209646
0.0003817727
0.00034861518
2.8105859e-06
8.2813569e-06
2.3549926e-05
6.1060686e-05
0.00013540744
0.00011774501
0.00013194566
0.00018360556
0.00034458925
0.00046945307
0.00035128123
0.00029921697
0.00030308922
0.00033170911
0.00044354404
0.00065714805
0.00068561647
0.00042987865
0.00039435912
0.00046832524
0.00058044263
0.00051227886
0.00048373729
2.1812298e-06
1.228742e-05
3.0785077e-05
7.819232e-05
0.00016715751
0.00026329269
0.00036136727
0.00046050615
0.00046512658
0.00041264408
0.0004853025
0.0005750191
0.00060207056
0.00065541952
0.00064468288
0.00063179768
0.00066708007
0.00076958792
0.000894698
0.00083516732
0.00073231506
0.00064463294
0.00057038387
2.9359604e-06
1.0704571e-05
4.044251e-05
9.912276e-05
0.00019326692
0.00020887163
0.00023099379
0.00034811221
0.00059677668
0.00062752494
0.00064476087
0.00066183079
0.0006392552
0.00058873747
0.00067598916
0.00089478885
0.0010338868
0.0010564139
0.0010225546
0.00093165326
0.00080484425
0.0006994875
0.00060967778
6.0149136e-06
1.7748697e-05
5.0864378e-05
0.00010425721
0.00015170018
0.00018644722
0.00023713254
0.00034745137
0.00062505301
0.00070204925
0.0005146494
0.00040176364
0.00047772265
0.00088280963
0.0010087235
0.0010054827
0.00061650006
0.00062922307
0.00099760509
0.00096303197
0.00085988742
0.0007588926
0.0006669682
8.7237691e-06
2.0390153e-05
3.9082476e-05
7.9477928e-05
0.00017228463
0.0002657818
0.00037594843
0.00050849986
0.00050014653
0.00057401338
0.00077187373
0.00099575473
0.0010577607
0.0010696742
0.0010288181
0.00088671385
0.00081954797
0.00081724496
0.001024773
0.0010204819
0.00096148548
0.00075893119
0.00071310274
6.6548872e-06
2.61579e-05
3.3338158e-05
4.5387274e-05
7.1253415e-05
0.0001158204
0.00024774371
0.00046159306
0.00063238891
0.00079009077
0.00073346476
0.0010147767
0.0011087862
0.00109867
0.001055631
0.0010163269
0.0010007286
0.0010238273
0.001037947
0.0010765008
0.00101596
0.00087132715
0.00070659232
8.546262e-06
5.2456304e-05
5.412744e-05
6.0212105e-05
7.3826727e-05
9.4644347e-05
0.00015776577
0.00030826298
0.00050711292
0.000631733
0.00055776142
0.00063753431
0.0010839988
0.0011429432
0.0011469101
0.00085349985
0.0010006384
0.0010995295
0.0010718155
0.00099698913
0.00087667869
0.00073752809
0.00060733664
1.0234677e-05
0.00010226005
0.00012305147
0.00012080203
0.00010347492
9.9713248e-05
0.00014218472
0.00026844817
0.00038390519
0.00062868425
0.00078296237
0.00093539912
0.0010737004
0.0011850032
0.0012437812
0.0012339205
0.0011828039
0.00109766
0.00097707423
0.00083508738
0.00070484525
0.00059727259
0.00050082329
1.2818559e-05
0.00015726121
0.00016509734
0.00014020811
0.00011569708
0.00011415512
0.00016498483
0.00030562924
0.00051297709
0.0006976587
0.00085579807
0.00098883017
0.0010923504
0.0011610484
0.0011981283
0.0011939382
0.0011383417
0.0010306565
0.00088297203
0.00072445966
0.00059065544
0.00048290536
0.0003790483
1.3368866e-05
0.00017490475
0.00020299053
0.00017184823
0.00016281618
0.0001717627
0.00025824076
0.00042040049
0.00061341731
0.00079311911
0.00093712288
0.0010352971
0.0010807826
0.0010914556
0.0010903339
0.0010799589
0.0010426813
0.0009549341
0.00081319178
0.00064774566
0.00049583882
0.00036841797
0.00026677237
1.3109389e-05
0.00016889594
0.00018580316
0.00021282534
0.00027638997
0.00032381041
0.00042339433
0.00055325648
0.00069427234
0.00083350099
0.00095645749
0.0010370127
0.0010587565
0.0010435175
0.0010153175
0.00097716921
0.000921824
0.00082630897
0.00068265824
0.00051885919
0.00038143452
0.00029465902
0.00025329263
1.4440372e-05
0.00023546005
0.00029906928
0.00031591405
0.00040892402
0.00047045809
0.00055704231
0.00065340585
0.00075167264
0.00085479352
0.00095533759
0.0010257548
0.0010515199
0.0010382605
0.00098765242
0.00090645973
0.0007945
0.00065042
0.00049477291
0.00037975897
0.0003229246
0.00030539145
0.00030233388
1.7499692e-05
0.00026063377
0.00037079564
0.00043217222
0.00048728026
0.00056030088
0.00064911512
0.0007400599
0.00082656521
0.0008991197
0.00094272926
0.00096107881
0.00095557334
0.00091577975
0.00084267849
0.0007387228
0.00061238822
0.00048411565
0.000387123
0.0003450224
0.00033889912
0.00035678954
0.00040254417
1.5920018e-05
0.00024956109
0.00038902726
0.00046717154
0.0005263498
0.00059728851
0.0006839261
0.00077462344
0.00085115544
0.00090248398
0.0009234969
0.00091548049
0.00088531365
0.00083473245
0.00076717272
0.00068357683
0.00058503596
0.00048325178
0.00041010664
0.00037976721
0.00037811927
0.00039676643
0.00043436206
1.3308116e-05
0.00022849995
0.00038103894
0.00048524022
0.00055972741
0.00062855046
0.00069802295
0.00076683897
0.00082692622
0.00087180829
0.00089489827
0.00089162199
0.0008625058
0.00080938002
0.0007365091
0.00065038161
0.00055944789
0.00047756939
0.00042514158
0.00041003606
0.00042032086
0.00044724999
0.00048145777
1.2560616e-05
0.00021232695
0.00036441467
0.00047842662
0.00056570393
0.00063883284
0.00070359388
0.00075954234
0.00080411103
0.00083553125
0.00085320302
0.00085537841
0.00083869572
0.00079942663
0.00073614365
0.00065469629
0.00056563601
0.0004864084
0.00043797936
0.00042955099
0.00044667388
0.00048277348
0.00052048579
1.2312687e-05
0.00020028635
0.00034672588
0.00046032069
0.00054773236
0.00062145911
0.0006870046
0.00074376666
0.0007886652
0.00081853787
0.0008320174
0.00082892884
0.00081009383
0.00077421891
0.0007205204
0.00065271341
0.00057841835
0.00051154841
0.00046886969
0.00046204163
0.00047818544
0.00051535626
0.00055488136
1.1045231e-05
0.0001863971
0.00032676637
0.00044105628
0.00052958771
0.00060182213
0.00066402312
0.00071879252
0.00076458703
0.00079776479
0.00081435688
0.00081231216
0.00079124768
0.00075273353
0.00069924722
0.00063772628
0.00057681228
0.00052676023
0.00049830221
0.00049972315
0.00051879706
0.00055648276
0.00059544132
1.0102876e-05
0.00017536094
0.00030698923
0.0004211227
0.00051323853
0.00058788395
0.00064866937
0.00069801669
0.00073641653
0.00076325263
0.00077699776
0.00077638679
0.00076118803
0.00073103183
0.00068614226
0.00063280297
0.00058006442
0.00053945007
0.00052200676
0.00052852658
0.00055286827
0.00059270802
0.00063142669
1.0152704e-05
0.00017034212
0.00029226946
0.00040044657
0.00049026508
0.00056440085
0.00062509532
0.00067330475
0.00070884368
0.00073124847
0.00074031139
0.00073723195
0.00072356069
0.00070029674
0.00066708739
0.00062699127
0.00058631626
0.00055514221
0.00054532746
0.0005549141
0.00058513904
0.00062953446
0.00067879804
1.0036124e-05
0.00016797335
0.00028178167
0.00038298217
0.00046749783
0.00053742438
0.00059491517
0.00064147243
0.00067738712
0.00070168893
0.00071319757
0.00071149607
0.000697969
0.00067484872
0.00064456056
0.00061135118
0.00058103176
0.00056285307
0.00056145765
0.00058080114
0.00062170155
0.00067679909
0.00073917416
9.6827306e-06
0.00016635948
0.00027392512
0.00036961314
0.00045084496
0.00051845499
0.00057314073
0.00061603141
0.00064805309
0.0006697577
0.00068092437
0.00068113079
0.00067065949
0.00065055958
0.0006235962
0.00059543037
0.00057415008
0.00056729436
0.00058090058
0.00061601263
0.00067379976
0.00074163713
0.00081372976
9.8732765e-06
0.00016760682
0.00027115151
0.00036007144
0.00043557567
0.0004996136
0.00055213401
0.00059300925
0.00062224787
0.0006401202
0.00064750022
0.00064548942
0.00063594614
0.00061995655
0.00060038406
0.00058254053
0.00057413848
0.00058499131
0.00061393911
0.00067138803
0.00074252984
0.00081791805
0.00088935907
1.0113871e-05
0.00016952583
0.00027168577
0.00035490298
0.00042335349
0.00048123657
0.00052902363
0.00056700611
0.0005951142
0.00061257892
0.0006192066
0.00061656641
0.00060697747
0.00059369313
0.00058142029
0.00057641633
0.00058832133
0.00061441253
0.00066770276
0.00073968376
0.00081486379
0.00086224376
0.00091469206
9.9219415e-06
0.0001705604
0.00027309563
0.00035345516
0.0004174595
0.00047031827
0.00051293022
0.00054607094
0.00057019796
0.00058527904
0.00059078542
0.00058850972
0.00058100262
0.00057270573
0.00057111288
0.00058566722
0.00061202492
0.00066367579
0.00073363027
0.00078681913
0.00085744587
0.00093331643
0.00098396728
1.0215812e-05
0.00017226038
0.00027592478
0.00035375573
0.00041332668
0.00046153996
0.0004994571
0.00052787664
0.00054734983
0.00055860555
0.00056235026
0.00056092219
0.00055839119
0.00056146915
0.00057886342
0.0006069862
0.00066003575
0.00073149076
0.0007820146
0.00084336545
0.00093058248
0.0010019534
0.00097933957
1.0488145e-05
0.00017399321
0.00027848737
0.00035379552
0.00040872221
0.00045185958
0.00048527316
0.00050981513
0.00052624932
0.00053551309
0.00053947811
0.00054195071
0.00054954285
0.00056969267
0.00060043601
0.00065689582
0.00073013945
0.00077578651
0.000830181
0.00089593462
0.00098371755
0.0010337436
0.00089159179
1.0677529e-05
0.00017440951
0.00028081543
0.00035509826
0.00040679473
0.00044566809
0.00047478937
0.00049529579
0.00050852075
0.00051670463
0.00052300502
0.00053351842
0.00055610821
0.00058989469
0.00065025574
0.00072716231
0.00079599352
0.00085775639
0.00092117866
0.00097543267
0.0010193827
0.0010445063
0.00084370903
1.0697917e-05
0.00017443821
0.00028160737
0.00035515568
0.0004044254
0.00043963499
0.00046455932
0.00048078863
0.00049104541
0.00050003816
0.00051277957
0.00053809174
0.00057505562
0.00063993724
0.00072124333
0.00080728672
0.00089062381
0.00096405195
0.00099685286
0.001007458
0.00098544751
0.00099250436
0.00079863646
1.136342e-05
0.00017454623
0.0002835036
0.00035575205
0.00040189286
0.00043327933
0.00045395546
0.00046688965
0.00047719913
0.0004917726
0.00051757735
0.00055612036
0.00062300146
0.00070786903
0.00079847626
0.00088700066
0.00096559514
0.00098721451
0.00099914649
0.0010002914
0.00097943982
0.00096201896
0.00076922303
1.127991e-05
0.00017227532
0.00028051187
0.00035216913
0.00039673317
0.00042613931
0.00044451447
0.00045575897
0.0004685396
0.00049248846
0.00053116845
0.00059489674
0.00068138944
0.00077578164
0.00087022622
0.00095629656
0.0010268625
0.0010725652
0.001093934
0.0010826905
0.0010330591
0.00094894744
0.00072168035
1.2144786e-05
0.00017040537
0.00027852995
0.00034822884
0.0003902037
0.00041747059
0.00043496476
0.00044697713
0.00046537008
0.00050049446
0.00055804243
0.00064256345
0.00073977389
0.00084042786
0.0009360596
0.0010188074
0.0010794672
0.001113804
0.0011189676
0.0010877195
0.00097887614
0.00084875867
0.00065779477
1.2002026e-05
0.0001659915
0.00027318877
0.00034413209
0.00038627321
0.00041172514
0.00042765213
0.00044123008
0.00046771564
0.00051686147
0.00059298641
0.00069050926
0.00079514518
0.00089983883
0.00099567784
0.0010745479
0.0011256607
0.0011504504
0.0011262936
0.0010143721
0.00089163411
0.00077084669
0.00063503325
1.3352625e-05
0.00016497318
0.00027053887
0.0003377969
0.00037845753
0.0004045784
0.00042113018
0.00043623775
0.00046917024
0.00052913293
0.00061893672
0.00072618729
0.00083844739
0.0009475035
0.0010444393
0.0011197653
0.0011648377
0.0011830369
0.0011166814
0.0010145653
0.00089762588
0.00078279774
0.00063532037
1.4828963e-05
0.00015594465
0.00026004818
0.00032741029
0.00036739273
0.0003924575
0.00041174035
0.00043059855
0.00046810311
0.00053513553
0.00063175289
0.00074547416
0.00086487197
0.00097958031
0.0010801366
0.001156287
0.0012000056
0.0012157723
0.0011784854
0.0010754044
0.00094633027
0.00081772957
0.00064895896
1.1904955e-05
0.00014792408
0.00025052899
0.00031807936
0.0003585449
0.000382327
0.00039904241
0.00042135772
0.00046363577
0.00053663636
0.00063904569
0.00075845184
0.0008835699
0.0010031393
0.001107404
0.0011859612
0.0012310019
0.0012485548
0.0012312808
0.0011490619
0.0010032403
0.00085806598
0.00068838777
1.4004934e-05
0.00012068151
0.00022845031
0.00030395413
0.0003493234
0.0003755499
0.00039052851
0.00040673705
0.00044908366
0.00052747133
0.00063385246
0.00075776911
0.00088803108
0.0010125013
0.0011211266
0.0012052926
0.0012565099
0.0012796432
0.0012720322
0.0012315956
0.0010969926
0.00094738658
0.00077933646
6.5468968e-06
8.4334656e-05
0.00018573387
0.00027148043
0.00032911232
0.00036173412
0.00038155105
0.00039450438
0.00042173423
0.00049358304
0.0006031019
0.0007288176
0.00086118071
0.00099139676
0.001109062
0.0012053724
0.0012711519
0.0013049843
0.0013119923
0.0012891577
0.0012370705
0.0010942517
0.00091909353
6.497874e-06
7.3555574e-05
0.00015682004
0.00023470633
0.00029689691
0.00034075022
0.00036672075
0.0003840745
0.0003991302
0.00044124099