/*--------------------------------*- C++ -*----------------------------------*\
| =========                 |                                                 |
| \\      /  F ield         | OpenFOAM: The Open Source CFD Toolbox           |
|  \\    /   O peration     | Version:  2406                                  |
|   \\  /    A nd           | Website:  www.openfoam.com                      |
|    \\/     M anipulation  |                                                 |
\*---------------------------------------------------------------------------*/
FoamFile
{
    version     2.0;
    format      ascii;
    arch        "LSB;label=32;scalar=64";
    class       volScalarField;
    location    "125";
    object      nut;
}
// * * * * * * * * * * * * * * * * * * * * * * * * * * * * * * * * * * * * * //

dimensions      [0 2 -1 0 0 0 0];

internalField   nonuniform List<scalar> 
20580
(
8.9385151e-07
9.463173e-07
9.1456374e-07
8.7968502e-07
8.5883179e-07
8.443356e-07
8.3532571e-07
8.2710154e-07
8.1835336e-07
8.1105958e-07
8.0280082e-07
7.9853487e-07
7.9130723e-07
7.8704605e-07
7.8099003e-07
7.7921302e-07
7.802577e-07
7.863841e-07
7.9526728e-07
8.0438608e-07
8.1805261e-07
8.2808645e-07
8.5589107e-07
8.745134e-07
9.4253041e-07
9.7292629e-07
1.0135352e-06
1.017054e-06
1.0304633e-06
1.0750835e-06
1.1116434e-06
8.9567305e-07
9.5542056e-07
9.2719501e-07
9.0358227e-07
8.8607133e-07
8.6802486e-07
8.5206736e-07
8.3691177e-07
8.2470319e-07
8.1577579e-07
8.069634e-07
8.0222406e-07
7.949213e-07
7.8989736e-07
7.8305672e-07
7.8019234e-07
7.8039083e-07
7.9109151e-07
7.9680624e-07
8.0886773e-07
8.2200849e-07
8.3490616e-07
8.5282386e-07
8.7759768e-07
9.2615136e-07
1.018279e-06
1.0692e-06
1.150568e-06
1.1896433e-06
1.2397716e-06
1.2114e-06
8.9536932e-07
9.6121653e-07
9.3022476e-07
9.1331711e-07
9.0423654e-07
8.9061399e-07
8.724027e-07
8.5236857e-07
8.3583215e-07
8.2318885e-07
8.1232236e-07
8.0521054e-07
7.9773243e-07
7.9117062e-07
7.8428849e-07
7.8148251e-07
7.7690261e-07
7.8765054e-07
7.920385e-07
8.0119315e-07
8.1651559e-07
8.2881421e-07
8.4636769e-07
8.6575957e-07
9.0571911e-07
9.9839097e-07
1.0581767e-06
1.1381921e-06
1.1837401e-06
1.293928e-06
1.3653037e-06
8.9499572e-07
9.6355293e-07
9.3304199e-07
9.1801537e-07
9.0872904e-07
8.9811586e-07
8.8708433e-07
8.686024e-07
8.5180493e-07
8.3679677e-07
8.230665e-07
8.1220478e-07
8.0376984e-07
7.9432838e-07
7.8755726e-07
7.8231957e-07
7.7737854e-07
7.8258303e-07
7.8979825e-07
7.9270062e-07
8.0811194e-07
8.1838662e-07
8.3342197e-07
8.4799953e-07
8.8047508e-07
9.4173753e-07
1.0356596e-06
1.117082e-06
1.1628117e-06
1.2566003e-06
1.3429429e-06
8.9486247e-07
9.6629389e-07
9.3192801e-07
9.1718512e-07
9.1155442e-07
9.0428637e-07
8.9133931e-07
8.7831235e-07
8.6464999e-07
8.541149e-07
8.4174911e-07
8.2883778e-07
8.2003572e-07
8.0517233e-07
7.9713596e-07
7.8770085e-07
7.8266027e-07
7.8260915e-07
7.90377e-07
7.9017408e-07
8.0621044e-07
8.1627581e-07
8.3130534e-07
8.4537993e-07
8.7439107e-07
9.3321081e-07
9.9449641e-07
1.1057336e-06
1.1640553e-06
1.3124248e-06
1.364202e-06
8.9516139e-07
9.7027285e-07
9.3319334e-07
9.1614485e-07
9.0821292e-07
9.0464563e-07
8.9525342e-07
8.8221896e-07
8.7107871e-07
8.6435345e-07
8.5973115e-07
8.4639565e-07
8.4302419e-07
8.2787971e-07
8.2031419e-07
8.0601656e-07
8.0013367e-07
7.9254872e-07
7.9746915e-07
7.9517203e-07
8.0838793e-07
8.1620187e-07
8.2775815e-07
8.4141122e-07
8.6222584e-07
9.126793e-07
9.6687821e-07
1.0849726e-06
1.1572127e-06
1.3121632e-06
1.3809931e-06
9.0255579e-07
9.6726445e-07
9.3164498e-07
9.1415643e-07
9.0490087e-07
8.9875426e-07
8.893516e-07
8.8457122e-07
8.7514176e-07
8.6976705e-07
8.6492126e-07
8.5944225e-07
8.5464122e-07
8.4876719e-07
8.4389896e-07
8.3206647e-07
8.3160615e-07
8.2612021e-07
8.2454561e-07
8.2221836e-07
8.2423527e-07
8.2773843e-07
8.2852706e-07
8.4263389e-07
8.5684739e-07
8.748844e-07
9.0811836e-07
1.0010397e-06
1.0980339e-06
1.2729876e-06
1.3924751e-06
9.5071854e-07
9.9961526e-07
9.4666329e-07
9.1962981e-07
9.066009e-07
8.9783326e-07
8.8651407e-07
8.7960698e-07
8.7485257e-07
8.7206574e-07
8.6625066e-07
8.6311992e-07
8.5674985e-07
8.5453144e-07
8.5125513e-07
8.4944249e-07
8.4977133e-07
8.5404252e-07
8.5581484e-07
8.6399502e-07
8.6748397e-07
8.7026688e-07
8.6486168e-07
8.6476914e-07
8.7492811e-07
8.8384227e-07
8.9974578e-07
9.3644052e-07
1.0069196e-06
1.107538e-06
1.3083759e-06
1.264023e-06
1.221688e-06
1.0777348e-06
9.8911332e-07
9.46832e-07
9.216342e-07
9.0151637e-07
8.8780325e-07
8.7767617e-07
8.7343338e-07
8.6275716e-07
8.6069828e-07
8.5274574e-07
8.5225362e-07
8.4750283e-07
8.4842694e-07
8.4906277e-07
8.5516732e-07
8.6042005e-07
8.7368655e-07
8.8466189e-07
8.9803558e-07
9.0968876e-07
9.2837068e-07
9.4032781e-07
9.4796475e-07
9.5465708e-07
9.829995e-07
1.0448078e-06
1.121988e-06
1.214569e-06
1.0754101e-06
1.1834371e-06
1.1978424e-06
1.1945964e-06
1.149105e-06
1.0657547e-06
1.003595e-06
9.5888246e-07
9.2474184e-07
9.0542059e-07
8.8562788e-07
8.7514971e-07
8.618117e-07
8.5665191e-07
8.5025581e-07
8.4841972e-07
8.4678296e-07
8.4782856e-07
8.5614194e-07
8.705641e-07
8.8439299e-07
8.9805515e-07
9.2101087e-07
9.4987227e-07
9.875679e-07
1.0245003e-06
1.0744403e-06
1.1352435e-06
1.1826071e-06
1.2854438e-06
1.3058412e-06
8.70682e-07
9.6603678e-07
1.1232679e-06
1.2140017e-06
1.2777228e-06
1.2981037e-06
1.2757814e-06
1.2255609e-06
1.153292e-06
1.0962989e-06
1.0375146e-06
9.9410963e-07
9.5780933e-07
9.3150028e-07
9.090664e-07
8.9290274e-07
8.8127061e-07
8.7351621e-07
8.7215995e-07
8.7897624e-07
8.907778e-07
9.0661169e-07
9.2678049e-07
9.5659635e-07
9.8426732e-07
1.0247265e-06
1.0732005e-06
1.1761834e-06
1.2351097e-06
1.3835446e-06
1.4250706e-06
8.9617955e-07
9.8605347e-07
9.7650187e-07
1.0590851e-06
1.1351971e-06
1.2252893e-06
1.254261e-06
1.27595e-06
1.3021434e-06
1.3048214e-06
1.3013806e-06
1.281014e-06
1.2543176e-06
1.218262e-06
1.1893795e-06
1.1457377e-06
1.1136999e-06
1.0727042e-06
1.0340222e-06
1.0043971e-06
9.8460923e-07
9.6525613e-07
9.74527e-07
9.8520532e-07
9.9767824e-07
1.0156978e-06
1.0482213e-06
1.1071502e-06
1.1883959e-06
1.2968876e-06
1.4522068e-06
9.914819e-07
1.0608875e-06
1.0082689e-06
9.9868227e-07
1.008617e-06
1.0217006e-06
1.0670156e-06
1.1026782e-06
1.1569623e-06
1.1940842e-06
1.2259579e-06
1.2443537e-06
1.2492017e-06
1.2546755e-06
1.2683886e-06
1.2858561e-06
1.2954483e-06
1.3143542e-06
1.3318916e-06
1.3301618e-06
1.3365033e-06
1.3021501e-06
1.2816877e-06
1.2504356e-06
1.189873e-06
1.1410214e-06
1.1238335e-06
1.1442817e-06
1.1851224e-06
1.2355837e-06
1.3342758e-06
8.9650636e-07
1.0209666e-06
1.0113168e-06
1.0159843e-06
1.0262578e-06
1.0296417e-06
1.0274019e-06
1.023582e-06
1.022979e-06
1.0265422e-06
1.0257844e-06
1.0388286e-06
1.0518039e-06
1.068324e-06
1.0992503e-06
1.1321239e-06
1.1642624e-06
1.2047996e-06
1.2612619e-06
1.3009808e-06
1.3369738e-06
1.3776284e-06
1.4189461e-06
1.472249e-06
1.5129326e-06
1.5161346e-06
1.5243866e-06
1.5323694e-06
1.5394794e-06
1.5413409e-06
1.5129073e-06
9.7610671e-07
1.0390339e-06
1.0005683e-06
1.0020299e-06
1.0174078e-06
1.0271961e-06
1.0284381e-06
1.0288268e-06
1.025269e-06
1.0226402e-06
1.0214398e-06
1.0163951e-06
9.9994487e-07
1.0015412e-06
9.904671e-07
9.9604647e-07
9.958013e-07
1.0047808e-06
1.0290463e-06
1.0682989e-06
1.1074265e-06
1.187864e-06
1.2454934e-06
1.3565057e-06
1.4379397e-06
1.5340828e-06
1.5892437e-06
1.6991405e-06
1.7745018e-06
1.922073e-06
1.9491651e-06
8.6898529e-07
9.8061235e-07
9.5332416e-07
9.3730265e-07
9.3554522e-07
9.4450047e-07
9.5733402e-07
9.7174813e-07
9.8076038e-07
9.8946467e-07
1.0002383e-06
1.0033161e-06
9.9236522e-07
9.9638877e-07
9.9169148e-07
9.8748185e-07
9.837895e-07
9.8524609e-07
9.9076894e-07
9.9644746e-07
1.0147333e-06
1.0421561e-06
1.0708505e-06
1.1289517e-06
1.1882315e-06
1.3201429e-06
1.4004101e-06
1.5414311e-06
1.6729229e-06
1.8256093e-06
1.9943222e-06
8.993278e-07
9.8138035e-07
9.5014799e-07
9.273129e-07
9.1273116e-07
9.0570205e-07
9.0209951e-07
9.023316e-07
8.9720306e-07
8.9861628e-07
9.0655536e-07
9.159879e-07
9.1394513e-07
9.2466432e-07
9.3722554e-07
9.3897961e-07
9.464139e-07
9.5130538e-07
9.6264595e-07
9.706798e-07
9.8655035e-07
1.0098479e-06
1.0313981e-06
1.0537348e-06
1.0918762e-06
1.1432342e-06
1.210757e-06
1.2518374e-06
1.3520604e-06
1.4451265e-06
1.6938745e-06
8.7795703e-07
9.6290422e-07
9.3170333e-07
9.0583937e-07
8.9192448e-07
8.8299148e-07
8.7543674e-07
8.685064e-07
8.5960334e-07
8.5538939e-07
8.5225721e-07
8.4845726e-07
8.4707455e-07
8.4531703e-07
8.4842836e-07
8.4847445e-07
8.5103666e-07
8.5429792e-07
8.6439078e-07
8.7813974e-07
8.9622858e-07
9.1861857e-07
9.3946539e-07
9.5771251e-07
9.8512091e-07
1.0205924e-06
1.0691696e-06
1.09285e-06
1.1393081e-06
1.1762908e-06
1.2680046e-06
8.7852562e-07
9.1244722e-07
8.9494294e-07
8.8434462e-07
8.8297875e-07
8.7887497e-07
8.7433883e-07
8.6701071e-07
8.6025404e-07
8.555364e-07
8.5269858e-07
8.4761889e-07
8.465628e-07
8.43007e-07
8.4213433e-07
8.3889241e-07
8.3872455e-07
8.354294e-07
8.3823284e-07
8.4139504e-07
8.5456737e-07
8.7419449e-07
8.9255181e-07
9.0937901e-07
9.3962182e-07
9.8370644e-07
1.0277294e-06
1.0889738e-06
1.1318577e-06
1.1976521e-06
1.2476801e-06
8.8015442e-07
9.7163271e-07
9.3049456e-07
9.1569867e-07
9.1389001e-07
9.1555148e-07
9.214995e-07
9.2334694e-07
9.2849878e-07
9.3307546e-07
9.3775962e-07
9.4102201e-07
9.448679e-07
9.5202743e-07
9.5403801e-07
9.578898e-07
9.5810447e-07
9.6315368e-07
9.6852929e-07
9.8367212e-07
1.0053579e-06
1.041002e-06
8.7452662e-07
1.1054324e-06
9.5928795e-07
1.2022837e-06
6.9674428e-07
1.1353962e-06
1.3387805e-06
1.1381401e-06
1.4260987e-06
8.9055185e-07
1.0047735e-06
1.0715515e-06
1.1055604e-06
1.138281e-06
1.1780853e-06
1.2355199e-06
1.2913568e-06
1.3490702e-06
1.3982735e-06
1.4392694e-06
1.4819747e-06
1.517851e-06
1.5689271e-06
1.6025501e-06
1.6444967e-06
1.6784191e-06
1.7137374e-06
1.7414642e-06
1.800517e-06
1.8524805e-06
1.7224017e-06
1.3127932e-06
2.0758485e-06
2.1303012e-06
2.2392541e-06
1.2170078e-06
1.3913996e-06
2.4195543e-06
2.0519535e-06
2.4098214e-06
1.1038678e-06
2.0528397e-06
2.1569324e-06
2.3350105e-06
2.3082657e-06
2.3026126e-06
2.4502857e-06
2.5529437e-06
2.6433563e-06
2.7293213e-06
2.7843907e-06
2.9006154e-06
2.9477895e-06
3.0835521e-06
3.1268355e-06
3.2328547e-06
3.3241972e-06
3.4226301e-06
3.4879809e-06
3.5706161e-06
3.6767357e-06
3.6057157e-06
3.4054654e-06
4.0042873e-06
4.0976499e-06
4.1835775e-06
3.3849059e-06
3.2981525e-06
4.3904009e-06
4.4042233e-06
4.3737807e-06
1.1492277e-06
2.4075791e-06
2.7839494e-06
2.2554099e-06
2.3678561e-06
2.1503131e-06
2.0995972e-06
2.0293841e-06
2.001918e-06
2.019575e-06
2.0101244e-06
1.9820454e-06
2.0264977e-06
2.1053128e-06
2.087847e-06
2.1169421e-06
2.1160178e-06
2.2165518e-06
2.2745914e-06
2.1360213e-06
2.1103487e-06
2.3269674e-06
2.5758527e-06
2.3339163e-06
2.0377316e-06
2.0930495e-06
2.6802725e-06
3.1461616e-06
2.426367e-06
1.9623589e-06
1.9914556e-06
2.7170724e-06
4.0394064e-06
2.3626729e-06
1.354881e-06
1.3540901e-06
1.3394527e-06
1.7076145e-06
2.1399788e-06
2.1570029e-06
1.7862943e-06
1.4976297e-06
1.6117312e-06
1.6102452e-06
1.4896447e-06
1.3523421e-06
1.3894765e-06
1.4942542e-06
1.5546431e-06
1.5510214e-06
1.4820484e-06
1.4747125e-06
1.3634718e-06
1.1707099e-06
3.1300616e-06
3.6189412e-06
2.4079782e-06
1.8959959e-06
1.4978761e-06
1.4056444e-06
1.7177805e-06
2.3504178e-06
2.3681573e-06
2.123911e-06
1.69458e-06
1.8237417e-06
1.8144005e-06
1.7296226e-06
1.5172854e-06
1.513521e-06
1.6385488e-06
1.7561446e-06
1.819762e-06
1.7486763e-06
1.7421112e-06
1.6875847e-06
1.4593726e-06
1.7081043e-06
4.5514086e-06
3.3142772e-06
1.9354054e-06
1.7528462e-06
1.5426006e-06
1.8002358e-06
2.5352443e-06
2.6832202e-06
2.5386591e-06
1.9915437e-06
2.0140804e-06
2.0009119e-06
1.9361984e-06
1.7455645e-06
1.6724664e-06
1.7755398e-06
1.943841e-06
1.9766322e-06
1.9257638e-06
1.9208015e-06
1.9198563e-06
1.835044e-06
1.4305705e-06
4.335619e-06
2.6253211e-06
2.2239292e-06
1.892715e-06
1.4375826e-06
2.0051311e-06
2.8687477e-06
3.2253444e-06
3.2567914e-06
2.5265108e-06
2.3564612e-06
2.3859783e-06
2.3687447e-06
2.2416401e-06
1.9708599e-06
1.9980198e-06
2.1176764e-06
2.1851082e-06
2.132761e-06
2.0703064e-06
2.0995028e-06
2.103559e-06
2.9102529e-06
2.6354626e-06
3.1879204e-06
2.8689302e-06
1.8442751e-06
1.6770223e-06
2.3421834e-06
3.2931099e-06
3.7553347e-06
3.9459884e-06
3.5165052e-06
2.8120151e-06
2.8974471e-06
2.8462934e-06
2.8339794e-06
2.5792853e-06
2.3974494e-06
2.4806953e-06
2.4927187e-06
2.5207182e-06
2.4164097e-06
2.3888311e-06
2.3883655e-06
2.3873488e-06
2.5931595e-06
1.9019018e-06
2.1309284e-06
2.2609226e-06
2.4467889e-06
2.5429132e-06
3.7981173e-06
4.2754226e-06
4.4203166e-06
4.2381101e-06
3.439972e-06
3.4881816e-06
3.4262591e-06
3.2350571e-06
3.0574406e-06
2.7796216e-06
2.9015368e-06
3.0532613e-06
3.1420522e-06
3.1467854e-06
3.0505425e-06
3.0664321e-06
1.9890355e-06
1.9725453e-06
3.6642838e-06
3.7712446e-06
3.0784894e-06
1.9760893e-06
2.1987309e-06
4.2288759e-06
5.0040305e-06
5.0988287e-06
5.1123078e-06
4.4184549e-06
4.2534728e-06
4.2193403e-06
3.907768e-06
3.6182361e-06
3.2298949e-06
3.245118e-06
3.4160875e-06
3.5219698e-06
3.7238801e-06
3.7774252e-06
3.8217451e-06
9.8838948e-07
3.2943691e-06
3.2599386e-06
2.8018301e-06
3.698617e-06
3.5830498e-06
3.6567676e-06
5.2465666e-06
6.3627946e-06
6.4790307e-06
6.7810192e-06
6.0974126e-06
5.4504847e-06
5.4823706e-06
5.1397173e-06
4.4249709e-06
3.9558255e-06
3.8143023e-06
4.111537e-06
4.219888e-06
4.2196398e-06
4.2162115e-06
4.2589557e-06
1.549786e-06
2.6944464e-06
4.4099673e-06
4.1215535e-06
4.4315731e-06
4.0607017e-06
3.4710418e-06
5.0588618e-06
8.533927e-06
8.6836613e-06
8.9932485e-06
8.7915234e-06
7.715167e-06
8.0503041e-06
7.6532352e-06
6.1792459e-06
5.1352606e-06
4.7377466e-06
4.9999135e-06
5.357405e-06
5.1850733e-06
4.9510167e-06
4.7107026e-06
1.1860568e-06
1.63175e-06
3.5030654e-06
5.5933999e-06
6.3886715e-06
4.2254738e-06
4.2788591e-06
8.0251598e-06
1.2060576e-05
1.1881816e-05
1.1540146e-05
1.136844e-05
1.0355129e-05
1.0724579e-05
1.0963443e-05
9.9800564e-06
7.6915641e-06
6.4784174e-06
6.6867771e-06
7.8644128e-06
7.4205758e-06
6.169972e-06
5.6352004e-06
6.9936631e-07
2.3736916e-06
3.4820176e-06
4.4568886e-06
6.0357915e-06
8.858966e-06
9.1721019e-06
1.3938444e-05
1.7417246e-05
1.4333171e-05
1.6180791e-05
1.6141967e-05
1.4741458e-05
1.5395186e-05
1.6719237e-05
1.5924401e-05
1.2255083e-05
9.8617876e-06
9.0874163e-06
1.0560988e-05
1.0908093e-05
9.4071203e-06
7.6561212e-06
7.7251999e-07
2.263774e-06
3.2308343e-06
5.3743476e-06
9.1520455e-06
9.6790339e-06
1.2360627e-05
1.7413875e-05
2.4753537e-05
2.5530987e-05
2.4999981e-05
2.4825558e-05
2.2494982e-05
2.4187107e-05
2.6372343e-05
2.4622534e-05
1.8783083e-05
1.4625256e-05
1.2524568e-05
1.3236798e-05
1.5073671e-05
1.3878261e-05
1.074773e-05
1.0993077e-06
2.0527862e-06
3.9386791e-06
8.8358404e-06
1.1829497e-05
1.2312376e-05
1.6789958e-05
2.2561155e-05
3.047731e-05
3.5370992e-05
3.2676577e-05
3.244965e-05
3.2406911e-05
3.9281322e-05
4.2622074e-05
3.7809493e-05
2.7049762e-05
2.1802379e-05
1.9159505e-05
1.9225685e-05
2.1823531e-05
2.1475229e-05
1.743989e-05
1.3331919e-06
2.4010124e-06
7.7471971e-06
1.1490717e-05
1.4283599e-05
2.0004099e-05
3.3413242e-05
4.5048226e-05
4.9729315e-05
4.8198802e-05
4.7995392e-05
4.7875287e-05
5.3469389e-05
6.9926268e-05
7.138593e-05
6.0391388e-05
3.9814545e-05
3.1479031e-05
2.9751837e-05
3.0310422e-05
3.3613881e-05
3.1846719e-05
2.4799569e-05
1.9601765e-06
3.638778e-06
1.0094435e-05
1.4641084e-05
2.1845319e-05
3.565469e-05
5.3994683e-05
6.3838231e-05
6.7706702e-05
7.2397623e-05
7.1568399e-05
7.6590639e-05
9.6266208e-05
0.00012228802
0.00012525936
9.9053149e-05
5.7602831e-05
4.5783245e-05
4.2540796e-05
4.3373611e-05
5.0103265e-05
4.5267516e-05
3.1903188e-05
2.5793584e-06
4.9834317e-06
1.1329512e-05
1.6308277e-05
2.64093e-05
4.1673077e-05
6.5664092e-05
7.6686993e-05
8.0895161e-05
8.6250024e-05
8.8609131e-05
9.7215674e-05
0.00012803773
0.00016328275
0.00017108976
0.00014158744
8.7710537e-05
7.2889002e-05
7.0042497e-05
7.7332739e-05
8.3788022e-05
7.1349292e-05
4.7164852e-05
3.0287905e-06
5.9843215e-06
1.3896041e-05
1.9883499e-05
3.2148545e-05
5.0973097e-05
7.7549444e-05
8.8854155e-05
9.2831643e-05
9.8695335e-05
0.0001041456
0.00011565404
0.0001545248
0.00019828262
0.00021129582
0.00018385846
0.00013107092
0.00011612829
0.00011963256
0.00013138998
0.0001338764
0.00011481985
7.3149581e-05
2.9994176e-06
6.8489349e-06
1.2977835e-05
2.4649859e-05
4.0683551e-05
6.3904814e-05
9.0093976e-05
0.00010183515
0.00010717836
0.00011844434
0.0001302671
0.0001448855
0.00018874956
0.00023125301
0.00024340228
0.00021586822
0.00016020134
0.00014430117
0.00015102132
0.00016912039
0.00017230746
0.00015019283
9.821956e-05
2.7220365e-06
7.0178848e-06
1.171881e-05
2.4605227e-05
5.2554962e-05
8.1363781e-05
0.0001045455
0.00011632139
0.0001246814
0.00014453434
0.0001609983
0.00018261188
0.00023125052
0.00026533056
0.00026966303
0.0002407404
0.00020159004
0.00019438023
0.00021513362
0.00023229323
0.00022725529
0.00019320979
0.00013201905
2.160993e-06
5.8023394e-06
1.2478397e-05
2.5272223e-05
4.5888725e-05
8.967853e-05
0.0001192254
0.000133742
0.00014811931
0.00013097303
0.00018045004
0.00022592707
0.00027260805
0.00024013838
0.00028827513
0.00027805408
0.00026083148
0.00026511882
0.00029210264
0.00030427854
0.00028824244
0.00023205386
0.00017660087
2.3032305e-06
4.6980536e-06
1.4932153e-05
3.6189372e-05
5.2897141e-05
7.1948884e-05
9.5750891e-05
0.00010420843
0.00010235383
0.00012772886
0.00023575515
0.0002752938
0.00017887543
0.00018355801
0.00023894371
0.00033888142
0.0003359708
0.00034968892
0.00036512987
0.000367768
0.00033959005
0.00026610095
0.00021574239
3.2468536e-06
4.6046571e-06
1.554055e-05
4.4164607e-05
8.5286241e-05
6.8208525e-05
6.8826261e-05
7.9090364e-05
0.00011113285
0.00026209251
0.00029590641
0.00019163649
0.00016718967
0.00018483335
0.00025060486
0.00041603773
0.00042240202
0.00038674559
0.00032596548
0.00032645537
0.00036767097
0.0003059946
0.00027283564
2.3777578e-06
7.0248073e-06
1.974313e-05
4.8752919e-05
9.983957e-05
7.98875e-05
8.5167434e-05
0.00011832704
0.0002298495
0.00032727967
0.00025442916
0.0002230279
0.00022958146
0.00025408322
0.00034209754
0.00050536833
0.00052267172
0.0003235348
0.00029409308
0.00035089805
0.00044115568
0.00039616083
0.0003784922
1.8284764e-06
1.034629e-05
2.552187e-05
6.1034998e-05
0.00011804725
0.00016740656
0.00021748113
0.00028274275
0.00030451389
0.00028925356
0.00035812996
0.00043907506
0.00046863474
0.00051505015
0.00049896037
0.00047061237
0.00047235434
0.00052528343
0.00061158405
0.00059488049
0.00055065133
0.00050907281
0.00046708223
2.2918556e-06
8.4375316e-06
3.1493509e-05
7.3532913e-05
0.00013318339
0.00013463113
0.00014465456
0.00022167188
0.00039630706
0.00043755002
0.00047035229
0.00049726145
0.00048710145
0.00044635787
0.00049789946
0.00062984149
0.00069540803
0.00069671368
0.0006960585
0.00067516941
0.0006225927
0.00056857982
0.00051026194
4.2904438e-06
1.3022424e-05
3.8085614e-05
7.7019692e-05
0.00010820456
0.00012863695
0.00016111911
0.00023539665
0.00042358964
0.00047729791
0.00035136228
0.00027687299
0.00033338676
0.0006203542
0.00071163784
0.00070864679
0.00043302797
0.00044362654
0.00071602207
0.00071241791
0.00066014978
0.00060059085
0.00053582721
5.842386e-06
1.4227129e-05
2.8712255e-05
5.9969649e-05
0.0001295629
0.00019508846
0.00026908114
0.00035716729
0.00034039303
0.00037499628
0.00048707672
0.00062676058
0.00069227543
0.00073638815
0.00074197333
0.00066164913
0.00062219716
0.00061953258
0.00076453313
0.00074319399
0.00069114592
0.00055054341
0.00052898732
4.5852834e-06
1.7938199e-05
2.3243127e-05
3.252424e-05
5.183179e-05
8.3934908e-05
0.00017523523
0.00031747925
0.0004233569
0.00051366108
0.00046598771
0.0006457814
0.00073322789
0.00076772626
0.00077720998
0.00077316417
0.00077272824
0.00078305562
0.00076553885
0.00075792695
0.00069322912
0.00060042131
0.00050998655
6.0229009e-06
3.6509267e-05
3.6872255e-05
4.0276585e-05
4.9261117e-05
6.3405594e-05
0.0001059111
0.00020774354
0.0003432465
0.00042997548
0.00038079831
0.00043613549
0.00074495029
0.00079545278
0.0008139143
0.00061776134
0.00073196504
0.00080770962
0.00078017851
0.00071635328
0.00062390283
0.00052966013
0.00044589462
6.973418e-06
6.9664445e-05
8.3453238e-05
8.1061582e-05
6.9101693e-05
6.6874952e-05
9.5887889e-05
0.00018274765
0.00026471442
0.00044059047
0.0005547134
0.00066233703
0.00075076323
0.00081100232
0.00083972054
0.00084093214
0.00082933455
0.00079667817
0.0007301957
0.00063477285
0.00053739189
0.00045249645
0.00037495759
8.5277541e-06
0.00010499534
0.00011203468
9.6696753e-05
8.0678613e-05
8.0025527e-05
0.00011497033
0.0002092196
0.00034675835
0.00047296563
0.00058646846
0.0006857274
0.00076064927
0.00080525985
0.00082551964
0.00082502753
0.00080217167
0.0007501397
0.00066436993
0.00055796402
0.00045776845
0.00037023143
0.00028450803
9.1553196e-06
0.0001182588
0.00013754923
0.00011780216
0.00011297276
0.0001199573
0.00017920462
0.00028619527
0.00040944543
0.00052539255
0.00062780702
0.00071132191
0.00076270921
0.00078470389
0.00078996327
0.0007813753
0.00075157636
0.00068886013
0.00059111606
0.00047693585
0.00037003376
0.0002773381
0.00020068173
9.2124403e-06
0.00011641536
0.00012576716
0.00014266129
0.00018587682
0.00022035224
0.00029097697
0.00038136248
0.00047717052
0.00056998895
0.00065375932
0.00071591912
0.00074630136
0.00075283509
0.00074413018
0.0007190618
0.00067414874
0.00059871276
0.00049200256
0.00037485921
0.00027748119
0.00021579793
0.00018617035
1.0091417e-05
0.00016294604
0.00020492528
0.00021416158
0.00027551182
0.00031823948
0.00038165175
0.0004548272
0.00052889984
0.00060238591
0.00066936613
0.00071386927
0.00073187878
0.00073025409
0.00070675825
0.0006597276
0.00058539501
0.0004827434
0.00036844198
0.00028157892
0.00023602134
0.00021842777
0.00021257216
1.2097508e-05
0.00017938367
0.00025653707
0.00029987738
0.00033745644
0.00038599643
0.00044571339
0.00050989653
0.00057458309
0.00063128429
0.0006660192
0.00068005704
0.00067648165
0.00065048245
0.00060314503
0.00053480293
0.00044934847
0.00035992098
0.00029054201
0.00025871037
0.00025072193
0.00025847925
0.00028715236
1.1207019e-05
0.00017289214
0.00026950334
0.00032543517
0.00036798947
0.00041724083
0.00047502364
0.00053425162
0.00058594178
0.00062536898
0.00064848283
0.00065306067
0.00063995118
0.00060891276
0.00056193802
0.00050010123
0.00042598398
0.00035003026
0.00029609874
0.00027441419
0.00027456528
0.00029026356
0.00032036017
9.5893033e-06
0.00016124896
0.00026542364
0.00033576712
0.00038726768
0.00043625857
0.00048639147
0.00053558362
0.00057851584
0.00061129213
0.00063070447
0.00063384595
0.00061973025
0.00058772072
0.00053990136
0.00047990929
0.00041297388
0.0003502013
0.00030822705
0.00029429533
0.00030081251
0.0003225991
0.000353122
9.0894798e-06
0.00015100637
0.00025619145
0.00033315361
0.00039161075
0.00044219803
0.00048949709
0.00053281403
0.00056913254
0.00059574629
0.00061130452
0.00061431151
0.00060284339
0.00057490113
0.00053073765
0.00047470927
0.00041328699
0.00035754992
0.00032199847
0.00031426016
0.00032528492
0.00035172582
0.00038232819
8.8949161e-06
0.00014246718
0.00024535046
0.00032486282
0.00038586934
0.00043726654
0.00048337592
0.0005243032
0.00055805611
0.00058216076
0.00059522624
0.00059653332
0.00058549412
0.00056080385
0.00052208164
0.0004731607
0.00042017164
0.0003728145
0.00034275666
0.00033834661
0.00035079271
0.00037914624
0.00041074281
8.0907198e-06
0.00013395732
0.00023299755
0.0003136044
0.0003764263
0.00042797219
0.00047243241
0.00051114555
0.00054306149
0.00056619986
0.00057880295
0.00058000118
0.00056940001
0.00054668054
0.00051185968
0.0004690661
0.00042460468
0.00038682938
0.00036435644
0.00036406907
0.0003780618
0.00040763544
0.00044043684
7.495452e-06
0.00012767945
0.00022104809
0.00030080571
0.00036483602
0.00041709577
0.00046067855
0.00049705762
0.000526071
0.00054676411
0.00055796755
0.00055910095
0.00055017311
0.00053102368
0.00050139322
0.00046487393
0.000427449
0.00039746742
0.00038337893
0.00038663112
0.00040416905
0.0004355911
0.00046945811
7.5289064e-06
0.00012439515
0.00021169058
0.00028828844
0.00035138391
0.00040335359
0.00044632159
0.00048136636
0.00050853868
0.00052723277
0.00053673909
0.0005370671
0.00052888074
0.00051265753
0.00048834879
0.0004586973
0.00042877647
0.00040618534
0.00039963888
0.00040773865
0.00043175271
0.00046782818
0.00050989321
7.4730112e-06
0.00012321865
0.00020520905
0.00027776418
0.00033838503
0.00038867402
0.00043017049
0.00046380311
0.00048984759
0.00050781234
0.00051708181
0.0005174653
0.00050970831
0.00049477386
0.0004736926
0.00044947055
0.0004269125
0.00041358457
0.00041360521
0.00043018864
0.00046394986
0.00050952835
0.00056192067
7.2761336e-06
0.00012320908
0.00020108486
0.00026952169
0.00032736858
0.0003757957
0.00041557541
0.00044738315
0.00047155085
0.00048805112
0.00049659782
0.00049714701
0.00049033153
0.00047710524
0.00045919547
0.00044013081
0.00042549373
0.0004211279
0.00043226747
0.0004604956
0.00050741953
0.00056407147
0.00062612585
7.4235709e-06
0.00012454561
0.00020011965
0.00026425923
0.0003182957
0.000364056
0.0004018378
0.00043186039
0.00045427841
0.00046899984
0.00047605465
0.00047592768
0.0004696499
0.00045848375
0.00044482253
0.00043270717
0.00042768785
0.00043705639
0.00046038266
0.00050639035
0.00056518944
0.00063069869
0.00069667973
7.616604e-06
0.00012632234
0.00020135244
0.00026211571
0.00031202049
0.00035418389
0.00038895638
0.00041661679
0.00043728841
0.00045068152
0.00045666722
0.00045613918
0.00045036489
0.00044155114
0.00043320683
0.00043039789
0.00044070388
0.0004625392
0.00050634926
0.0005666344
0.00063253165
0.00068037231
0.00073512264
7.53016e-06
0.00012800879
0.0002035614
0.00026208096
0.00030856722
0.00034724653
0.00037873624
0.00040344672
0.00042159319
0.0004331712
0.00043795883
0.00043732947
0.00043308526
0.00042835374
0.00042866769
0.00044135527
0.00046376417
0.00050691454
0.00056640673
0.00061575124
0.00068182042
0.00075545896
0.00081141076
7.7606511e-06
0.00012972041
0.00020660484
0.0002636094
0.00030694722
0.00034217967
0.00037034488
0.00039193798
0.00040723191
0.00041652385
0.00042029932
0.00042033691
0.00041971517
0.00042361708
0.0004387644
0.00046289224
0.00050751974
0.00056854867
0.00061610026
0.0006752177
0.00075835066
0.00083163783
0.00082813696
7.9746058e-06
0.00013129494
0.00020940914
0.00026535501
0.00030602173
0.00033797437
0.00036286902
0.00038140749
0.00039414473
0.00040179023
0.00040569059
0.0004087503
0.00041607293
0.00043352565
0.00046011197
0.00050803992
0.00057127851
0.00061555333
0.00066951728
0.00073556194
0.00082261549
0.00088032629
0.00077365732
8.1677625e-06
0.0001323676
0.00021227658
0.0002676739
0.00030608021
0.0003349943
0.00035673138
0.00037225606
0.00038265247
0.00038967755
0.0003957841
0.0004056665
0.00042549341
0.00045499686
0.00050665888
0.00057352192
0.00063670395
0.00069709546
0.0007616583
0.00082108953
0.00087369865
0.00091157928
0.00075018541
8.2130189e-06
0.00013290858
0.00021370315
0.00026874401
0.00030551353
0.00033191332
0.00035085587
0.00036361158
0.0003722572
0.00038043004
0.00039206216
0.00041410596
0.00044623971
0.00050169522
0.0005722726
0.00064934508
0.00072731765
0.00080034694
0.00084198348
0.00086612062
0.00086258268
0.00088459244
0.00072554849
8.7426577e-06
0.00013344054
0.00021605566
0.00027057315
0.00030538763
0.00032923499
0.00034528114
0.0003557879
0.00036471598
0.00037747113
0.00039965794
0.00043285682
0.00048987698
0.00056336962
0.00064424589
0.00072650185
0.00080370282
0.00083565664
0.00086049083
0.00087668245
0.00087373288
0.00087355074
0.00071168528
8.7097451e-06
0.00013225864
0.00021475665
0.0002691748
0.00030304561
0.0003255983
0.00034006016
0.00034944442
0.00036057343
0.00038109003
0.00041423869
0.00046871162
0.00054349122
0.00062736774
0.00071427701
0.00079719994
0.00086978404
0.00092329835
0.00095717969
0.00096302077
0.00093437468
0.00087309991
0.00067610776
9.4143681e-06
0.00013133877
0.00021414239
0.00026736937
0.00029949193
0.00032062722
0.00033463246
0.00034491636
0.00036085622
0.00039088187
0.0004400999
0.00051283076
0.00059835776
0.00068949059
0.00077926739
0.00086085009
0.00092584963
0.00096979872
0.00098933146
0.00097703471
0.00089381529
0.00078808509
0.0006213897
9.3512931e-06
0.00012848202
0.00021094496
0.00026542017
0.00029788072
0.00031783501
0.00033087019
0.00034269265
0.00036545016
0.0004073296
0.00047250669
0.00055720993
0.00065035816
0.00074620495
0.00083721056
0.00091621443
0.00097343236
0.001009259
0.0010028456
0.00091749053
0.00081991611
0.00072074115
0.00060352523
1.0436908e-05
0.00012821961
0.00020979934
0.0002616873
0.00029318114
0.00031381702
0.0003275463
0.00034085046
0.00036912334
0.00042026786
0.00049731206
0.00059093581
0.00069133243
0.00079168545
0.00088438187
0.00096094568
0.0010132242
0.0010432156
0.0009985483
0.00092060869
0.00082722359
0.0007329312
0.00060420281
1.1613946e-05
0.00012167553
0.00020248826
0.00025469604
0.00028580028
0.00030571908
0.00032170466
0.00033816604
0.00037042555
0.00042774663
0.00051091051
0.00061040672
0.00071714364
0.0008224897
0.00091835052
0.00099549608
0.001046295
0.0010737794
0.0010546374
0.00097573024
0.0008710676
0.00076376239
0.00061490644
9.3660944e-06
0.00011590289
0.00019590477
0.00024848076
0.00028009401
0.000299051
0.00031303317
0.00033223493
0.00036841992
0.000430802
0.0005190366
0.00062344563
0.00073485428
0.00084396068
0.00094250525
0.0010213109
0.0010728458
0.0011013015
0.0010993208
0.0010388576
0.00091901105
0.00079661011
0.00064760963
1.1131616e-05
9.513342e-05
0.00017948323
0.0002384509
0.0002739774
0.00029484587
0.00030740937
0.00032167876
0.00035779456
0.00042432875
0.0005154349
0.00062315812
0.00073854515
0.00085146529
0.00095322919
0.0010361136
0.0010921725
0.0011246687
0.0011303664
0.0011066497
0.00099706194
0.00087129525
0.00072531002
5.2450769e-06
6.708332e-05
0.00014690063
0.00021403557
0.00025913812
0.00028491515
0.00030109973
0.00031257867
0.00033632014
0.00039708309
0.00049024346
0.0005988932
0.00071530301
0.00083208242
0.0009403104
0.0010321847
0.0010993641
0.0011399499
0.0011576389
0.0011490296
0.001113873
0.00099538937
0.00084464537
5.196812e-06
5.8776617e-05
0.00012495765
0.00018630576
0.00023504824
0.00026949933