/*--------------------------------*- C++ -*----------------------------------*\
| =========                 |                                                 |
| \\      /  F ield         | OpenFOAM: The Open Source CFD Toolbox           |
|  \\    /   O peration     | Version:  2406                                  |
|   \\  /    A nd           | Website:  www.openfoam.com                      |
|    \\/     M anipulation  |                                                 |
\*---------------------------------------------------------------------------*/
FoamFile
{
    version     2.0;
    format      ascii;
    arch        "LSB;label=32;scalar=64";
    class       volScalarField;
    location    "125";
    object      p;
}
// * * * * * * * * * * * * * * * * * * * * * * * * * * * * * * * * * * * * * //

dimensions      [1 -1 -2 0 0 0 0];

internalField   nonuniform List<scalar> 
20580
(
1.0030195
1.003145
1.0050373
1.0021899
1.0055957
1.0028895
1.0032888
1.0041497
1.0025343
1.0024381
1.0020061
1.0037778
1.0027224
1.0019118
1.0024806
1.0041114
1.0004234
0.99944818
1.0069448
1.0020274
0.9968867
1.0034538
1.0060009
0.99755318
0.99126948
1.0035676
1.0136417
1.003435
1.0032117
1.0173931
0.99866867
1.003083
1.0030058
1.0045918
1.0018372
1.0059978
1.0025384
1.0035948
1.0038418
1.0020677
1.0021468
1.0025176
1.0041149
1.0019792
1.001461
1.0034393
1.0036168
0.99791343
1.0014723
1.0081571
0.99866846
0.9974952
1.0067205
1.0033634
0.99449419
0.99106024
1.0093548
1.0251166
1.007004
0.98840366
1.0033047
1.0167986
1.0035444
1.0035909
1.0038164
1.0024005
1.0052998
1.002671
1.003861
1.0032018
1.0019533
1.0019119
1.0029863
1.0040371
1.0015193
1.0012953
1.0037954
1.003507
0.9966097
1.0032641
1.0085738
0.99608719
0.99882077
1.0097872
1.0025541
0.99445955
0.99407743
1.0094371
1.0266208
1.0098497
0.97936831
0.98540003
1.0216358
1.0042132
1.0047662
1.0031319
1.0036313
1.0038338
1.0032524
1.003981
1.0025127
1.0023202
1.0018083
1.0033138
1.0036037
1.0013427
1.0016615
1.0034606
1.003499
0.99695777
1.0048507
1.0074203
0.99493029
1.0008667
1.0109144
1.0022629
0.99779564
0.99960442
1.0061772
1.0178965
1.010439
0.97968999
0.97188403
1.0084072
1.0047094
1.0061948
1.0029702
1.0048652
1.0022689
1.0039
1.0036563
1.002028
1.0028819
1.0020769
1.0033623
1.0029096
1.0015133
1.0023774
1.0029624
1.0031333
0.9989671
1.005949
1.0046529
0.99539832
1.0034217
1.0097834
0.99963131
1.0025567
1.0076248
1.0025511
1.0031973
1.0067174
0.98898034
0.97262844
0.98877741
1.0048644
1.0072026
1.0033865
1.0057158
1.001352
1.0043109
1.0028012
1.0019615
1.0030863
1.0027589
1.0030872
1.0020885
1.0019696
1.0031337
1.0024604
1.0023395
1.0017722
1.0063345
1.0013656
0.99670102
1.0059498
1.0076768
0.99530674
1.003878
1.0155797
1.0020831
0.98889857
0.99756342
1.0041113
0.99019841
0.98075666
1.0048167
1.0072011
1.0040411
1.005928
1.0016913
1.0043001
1.0019393
1.0024656
1.0028694
1.0035054
1.0027399
1.0014471
1.0024832
1.0038252
1.0018833
1.0013513
1.0041719
1.0060633
0.99841042
0.99841273
1.0080287
1.0048847
0.99211925
1.001283
1.0188442
1.0051564
0.98134778
0.98703467
1.014556
1.0171324
0.99470301
1.0045114
1.0062353
1.0045664
1.0051703
1.0031257
1.003772
1.0016185
1.0032063
1.00264
1.0038843
1.0025534
1.0011881
1.002902
1.0042319
1.0016689
1.0004168
1.0054203
1.00526
0.99609631
1.000531
1.0093095
1.0021941
0.99120393
0.99826472
1.0157072
1.008342
0.98264685
0.98169043
1.0134714
1.0362856
1.0188249
1.003896
1.0047165
1.0046339
1.0036725
1.0047678
1.002939
1.0020832
1.0036306
1.0025892
1.0037198
1.002532
1.0012989
1.003165
1.00395
1.0021392
0.99988666
1.0055479
1.0039116
0.99510325
1.0028506
1.0085914
1.0005518
0.99359668
0.99796709
1.0078198
1.0080865
0.99135296
0.98537539
1.0033254
1.035087
1.0351934
1.0032893
1.0031988
1.0041492
1.00228
1.0058021
1.0023187
1.0031679
1.0034535
1.0026666
1.003127
1.0025126
1.0017464
1.0032766
1.002969
1.0028086
1.0001328
1.0048641
1.0019624
0.99610711
1.0051836
1.006059
0.99843622
0.99970719
1.0016206
0.99933876
1.0025476
1.0026686
0.99680577
0.99714481
1.0132924
1.0283013
1.0030806
1.0024143
1.0034396
1.0015461
1.0057535
1.0023183
1.0041894
1.0028429
1.0028906
1.0023215
1.0024172
1.0025965
1.003232
1.0018542
1.0031244
1.0012572
1.0037401
1.0000068
0.99836016
1.0073111
1.0034546
0.99504492
1.0058927
1.0083991
0.9950534
0.99318757
1.0092871
1.0117742
1.0011959
0.98897894
1.0000188
1.0032077
1.0028386
1.0029425
1.0017722
1.0045779
1.0029066
1.0045207
1.0022164
1.0031364
1.0016077
1.0022427
1.0035745
1.0031287
1.0010022
1.0031228
1.0028343
1.0026871
0.9987751
1.000687
1.0087977
1.0012946
0.99192705
1.0087766
1.0153622
0.99534716
0.98564508
1.0071527
1.0235501
1.0099064
0.98154604
0.97245152
1.0035238
1.0043785
1.0030126
1.0031756
1.0029687
1.0036854
1.0040839
1.0020888
1.003258
1.0013557
1.0020544
1.0041171
1.003088
1.0005091
1.0029551
1.0041593
1.0021754
0.99844717
1.0030069
1.0092402
0.99960658
0.99094764
1.007727
1.0183373
0.99780674
0.98407939
0.99930831
1.0250231
1.0181339
0.98722273
0.96512894
1.0042793
1.0062259
1.0037009
1.0051775
1.0019243
1.0042683
1.0031072
1.0026905
1.003135
1.0016511
1.0020907
1.0038958
1.0030292
1.0006294
1.0025017
1.0047325
1.0021416
0.99887502
1.0047656
1.0081549
0.99883142
0.99295972
1.004778
1.014426
1.0004681
0.9883548
0.99494991
1.0135295
1.0194587
0.99930036
0.97694255
1.0048557
1.0075259
1.00466
1.0066145
1.0018244
1.0044206
1.0020522
1.0036358
1.0026281
1.0023822
1.0024092
1.0033007
1.0027033
1.0016578
1.001901
1.0044543
1.0020833
1.0001217
1.0057492
1.0048809
0.99924929
0.99756087
1.0035661
1.0044542
1.0009604
0.9965183
0.9981663
0.99908309
1.007387
1.00938
0.99843693
1.0048956
1.0077419
1.0051114
1.0065247
1.002632
1.0039712
1.0015512
1.0041437
1.0019675
1.0031839
1.0027915
1.0026946
1.002027
1.0032332
1.0016341
1.0035519
1.0017716
1.0019383
1.0061709
1.0007883
0.99893765
1.0040185
1.0044613
0.99478986
0.99660257
1.0062793
1.0060019
0.99334427
0.98921405
1.0055874
1.0160581
1.004503
1.0062987
1.0046337
1.0051318
1.0040168
1.0031876
1.0019682
1.0036951
1.0017383
1.0035561
1.0030379
1.0021591
1.0013536
1.0044582
1.0018543
1.0023471
1.0013342
1.0034683
1.0060492
0.99748558
0.99748373
1.010008
1.0070289
0.98954444
0.98999472
1.0120074
1.0156222
0.99683234
0.97830225
0.99169659
1.0182256
1.003758
1.003963
1.0036498
1.0027446
1.0050205
1.0026149
1.003087
1.0024676
1.0021585
1.0034678
1.003209
1.0017239
1.0011146
1.0049052
1.0022693
1.0014042
1.0009652
1.0041414
1.0056572
0.99593094
0.99630049
1.0120908
1.0102445
0.98958277
0.98634848
1.0106266
1.0228167
1.0035187
0.97988542
0.98130551
1.0091096
1.0030698
1.0020719
1.0025839
1.0009214
1.0050408
1.0024296
1.0042078
1.0012002
1.0029303
1.0031814
1.0033435
1.001589
1.0013319
1.0046594
1.0026498
1.0010981
1.0008756
1.0040674
1.0049687
0.99631508
0.99655345
1.0101131
1.0114676
0.99266367
0.98891504
1.0056779
1.0210919
1.0087563
0.98810286
0.9837382
0.99845488
1.002921
1.002015
1.0022013
1.0005718
1.0044632
1.0026297
1.0044817
1.0008152
1.0033934
1.0027273
1.0031006
1.0019317
1.0019161
1.0036834
1.0029545
1.001482
1.0012479
1.0036139
1.0033116
0.99876019
0.99890461
1.0058102
1.0075085
0.99789585
0.99526336
1.0029149
1.0098022
1.0084645
0.99866643
0.99347997
0.99549741
1.0033026
1.003484
1.0028304
1.0022278
1.0037185
1.0031867
1.003911
1.0016744
1.0033986
1.0024139
1.0024868
1.0024284
1.0028622
1.0023687
1.0029613
1.0021472
1.0021774
1.0030709
1.000945
1.0022058
1.002699
1.0021203
0.99998515
1.001438
1.0038399
1.0044933
0.99716006
0.99825075
1.0068016
1.0068886
1.0010748
1.0041044
1.0060191
1.004106
1.0051615
1.0031639
1.0038247
1.0026191
1.0033773
1.002856
1.0022715
1.0020993
1.0029472
1.0038267
1.0010658
1.0026444
1.0027839
1.0033091
1.0027475
0.99873149
1.0043713
1.0074201
0.99998563
0.99290634
1.0004288
1.012142
1.0081082
0.98960494
0.98556326
1.0047402
1.018509
1.0112294
1.0049533
1.007909
1.0052843
1.0073973
1.002615
1.0041845
1.0015295
1.0049346
1.002351
1.0023756
1.0019916
1.0030939
1.0044889
1.0003826
1.0021369
1.0030605
1.0041656
1.0029676
0.99733291
1.0042649
1.0111917
1.000595
0.9890245
0.99627675
1.0155668
1.0132683
0.98976741
0.97765649
0.99647984
1.0209264
1.0194395
0.99301617
0.98922056
0.99327609
1.0065467
1.0215033
1.0306384
1.0298837
1.0140033
0.98995304
0.97500729
0.97875974
0.99478122
1.0096066
1.0127231
0.99694357
0.97877383
0.97929485
1.0049567
1.0359899
1.0479568
1.0284951
0.9826868
0.94823711
0.97777315
0.98557851
0.99599455
1.0040706
1.0074195
1.0049485
0.99725466
0.99422741
1.0026043
1.0189595
1.0328204
1.0340646
1.0168446
0.98278496
0.95482198
0.95206071
0.97519546
1.0134751
1.0434629
1.0445537
1.0154753
0.9831989
0.97080745
1.0213453
1.0215635
1.0101393
0.98980742
0.96907471
0.9558227
0.96001503
0.98113355
1.0108948
1.0366662
1.0473712
1.0339931
1.0066991
0.98320485
0.97804111
0.99034247
1.0086905
1.0176501
1.0057909
0.97793707
0.95909994
0.96871772
0.9997938
1.0501591
1.0336304
1.0113124
0.98826996
0.9734084
0.97483655
0.98666793
1.0027295
1.0099222
1.0033728
0.98505741
0.96895492
0.96873122
0.99163103
1.0284418
1.0598956
1.0668473
1.0381369
0.9834616
0.9374248
0.92689916
0.95081502
0.99597785
0.9910566
0.98617619
0.99023924
1.0037218
1.0260499
1.046692
1.0580229
1.0433676
1.0096424
0.97009948
0.93660972
0.92902034
0.9478615
0.9887317
1.0346578
1.0643007
1.0604397
1.025638
0.98960283
0.96925909
0.97307252
0.99205073
1.0155666
0.93818832
0.94812652
0.97537939
1.0120431
1.0457088
1.0656421
1.0589588
1.034569
1.0060224
0.98023618
0.96974598
0.97878491
0.99735517
1.0123306
1.010826
0.9926861
0.96619973
0.95423102
0.96617627
1.0027983
1.0477175
1.0821841
1.0812471
0.97442536
0.99440796
1.0080561
1.0090406
0.9949324
0.97902813
0.96717426
0.96645942
0.97846717
1.0043682
1.040671
1.0738813
1.0855834
1.0590268
1.007026
0.95045588
0.90690471
0.89908853
0.92540778
0.98272274
1.054988
1.110755
1.108841
1.0818744
1.0627904
1.0267224
0.98634254
0.95284259
0.92810589
0.91215193
0.91807279
0.94863864
1.0002161
1.0577635
1.0984159
1.1010739
1.0691012
1.0215827
0.97220059
0.93988707
0.93243686
0.94837538
0.98043444
1.0147417
1.0327853
1.0267936
1.0816294
1.0601071
1.0314535
0.99943158
0.96898202
0.94738287
0.94748421
0.9642794
0.9897773
1.0062935
1.0091313
1.0025167
0.99858117
0.99663994
0.99975736
1.0085807
1.0190649
1.033362
1.046255
1.0410583
1.0096113
0.96566293
0.92266378
0.97257832
0.97732607
0.9912805
1.0092129
1.0275158
1.043249
1.0571757
1.0644296
1.0527297
1.0186404
0.97173624
0.92766606
0.9014423
0.90054854
0.92834021
0.9810324
1.0538571
1.1196664
1.1483934
1.1174329
1.0418588
0.96026734
0.89903732
0.90385683
0.91269117
0.93739079
0.98313173
1.0476443
1.1139333
1.1532113
1.1432575
1.0893783
1.0214785
0.96003981
0.9167736
0.88869007
0.88272759
0.90014585
0.94618722
1.0189007
1.0993474
1.1482743
1.1382759
1.0789308
1.0023458
0.93769258
0.90072679
0.91794638
0.94937839
0.99352952
1.0410611
1.0820132
1.1055455
1.1023472
1.077835
1.0401574
0.99501146
0.95263577
0.9279996
0.92541192
0.94028846
0.96974338
1.0022938
1.0284755
1.0496625
1.0550319
1.0526998
1.0375242
1.0030344
0.96004282
0.9789992
1.0017241
1.0176779
1.0187946
1.0074758
0.99384636
0.99514886
1.0092675
1.024997
1.0283939
1.0204507
1.006871
1.0024679
1.0097501
1.0160707
1.0072319
0.98308105
0.96018743
0.95131282
0.967129
0.99862494
1.0309836
1.0569668
1.0571725
1.0456534
1.0197962
0.98245554
0.94456786
0.9179583
0.9132934
0.9347104
0.97446418
1.0221539
1.0630455
1.0886229
1.0979729
1.087708
1.0574678
1.0114231
0.95859497
0.91362818
0.88809219
0.89735808
0.94042913
1.0052779
1.14142
1.1160699
1.0665442
1.00818
0.95265013
0.90843002
0.88141646
0.87676703
0.89300132
0.93380597
0.99658841
1.0682156
1.1313491
1.1645775
1.1510234
1.0936538
1.016098
0.94671013
0.89360994
0.8636864
0.86676598
0.90117454
0.9689084
1.1916696
1.1464635
1.0740454
0.99848049
0.93641005
0.89166935
0.86667399
0.86228744
0.87796057
0.91568435
0.97704211
1.0601142
1.1445355
1.1989361
1.1879747
1.1154481
1.0255844
0.94719841
0.88937213
0.85616363
0.85033043
0.88019475
0.94471367
1.2078218
1.156162
1.0780606
0.99733668
0.93226663
0.88800935
0.86196936
0.85483009
0.86800084
0.90559389
0.96997845
1.0584168
1.1513661
1.2113842
1.2003597
1.1257445
1.0335964
0.95076897
0.89034501
0.85589827
0.8470307
0.87094948
0.93299327
1.2105799
1.1587978
1.080735
0.9998648
0.93337667
0.88730711
0.85926775
0.85157551
0.86532261
0.90427956
0.97067363
1.0615991
1.1558509
1.214314
1.2000434
1.1243827
1.0334516
0.95109333
0.89007689
0.85484465
0.84599684
0.86987397
0.93200232
1.1977661
1.1523535
1.0791836
1.0024948
0.9380818
0.89037094
0.86112229
0.85413243
0.86970806
0.91072062
0.97966957
1.0722439
1.1608587
1.2085361
1.1852862
1.1095088
1.0208639
0.94254349
0.88779542
0.85490447
0.84931393
0.87876864
0.94494347
1.1555689
1.1268948
1.0745159
1.0100325
0.94930652
0.9013594
0.87226304
0.86658325
0.8863815
0.93268901
1.0050144
1.0865466
1.1530046
1.1781494
1.1458159
1.0793227
1.0058199
0.93781905
0.88808273
0.86082285
0.8643071
0.90123928
0.97299941
1.0804209
1.0743531
1.0546629
1.0209919
0.97672352
0.93166237
0.90243884
0.90091934
0.92945305
0.98013457
1.0374317
1.0825303
1.1087618
1.1109352
1.0875574
1.0458595
0.99400761
0.94012755
0.89834591
0.88146037
0.89881849
0.94867862
1.0175292
0.98327215
0.99642478
1.008797
1.0137755
1.0061609
0.99084523
0.97752033
0.98638692
1.0123104
1.036092
1.0428325
1.0337419
1.0208559
1.0162309
1.0162185
1.0078782
0.98443211
0.95694824
0.93869126
0.94317566
0.97419132
1.0124795
1.0437453
0.90491503
0.92179252
0.95000767
0.98912276
1.0335211
1.0769523
1.1053997
1.1084272
1.0829012
1.0385463
0.99021305
0.94847464
0.92871593
0.93075892
0.94817995
0.9752711
1.000162
1.022415
1.0412634
1.0502457
1.0468164
1.0278677
1.0007343
0.88942226
0.90437341
0.93599947
0.98728515
1.0570276
1.1324201
1.1733495
1.1491102
1.077603
0.99672413
0.93206706
0.88997311
0.87264633
0.88099061
0.92296535
0.99180582
1.073556
1.1348072
1.1449314
1.1024256
1.0351318
0.96673555
0.91436998
0.9611585
0.96733586
0.98971871
1.0172717
1.045707
1.0700898
1.079904
1.0677754
1.0316393
0.98031217
0.92667114
0.89291938
0.88913451
0.91834905
0.97478754
1.0474014
1.118498
1.1559731
1.1284324
1.0563436
0.97399414
0.90933276
0.87327291
1.0830165
1.0581276
1.0292767
0.99964499
0.97145798
0.95424549
0.95032431
0.96303786
0.98151112
0.99338641
0.99906175
0.99794925
1.0004177
1.0101758
1.0176802
1.0234259
1.0304035
1.0373526
1.0346876
1.0105733
0.96892983
0.93062796
0.9172383
1.098616
1.0742628
1.0312581
0.98114173
0.93667748
0.90570014
0.89823284
0.91829377
0.96786824
1.0356215
1.0971486
1.1178509
1.0832244
1.0283487
0.9737745
0.93420281
0.91867152
0.93482667
0.97287366
1.0198378
1.047486
1.0426138
1.023505
0.96820997
0.99026681
1.0014939
1.0008169
0.98801779
0.96971912
0.96163842
0.9730093
1.0006016
1.0383141
1.0743243
1.0879138
1.0572647
0.99929543
0.9409422
0.90669999
0.89951817
0.92674641
0.98648895
1.0590848
1.1127699
1.1112564
1.0592082
0.94405791
0.9588136
0.98988276
1.0275764
1.0543807
1.0615381
1.0475981
1.0210629
0.99681456
0.97855988
0.97330855
0.9826821
0.99678769
1.000013
0.98870187
0.97544901
0.97592609
0.98308879
1.0024813
1.0246165
1.0442536
1.0453811
1.0279441
1.0004881
0.98837094
0.98634266
0.99896412
1.0143412
1.0284279
1.0321496
1.0119404
0.97933689
0.94829455
0.93417964
0.94475286
0.9763538
1.0225005
1.0589894
1.0624345
1.0373776
0.99991186
0.9661023
0.94794784
0.95179596
0.972621
0.99923446
1.0364174
1.0160907
0.98623168
0.96261519
0.95355016
0.96211487
0.98045957
1.0005974
1.0099512
1.0022037
0.99029279
0.98322597
0.98961685
1.0078751
1.0310133
1.0428784
1.0309086
0.99827786
0.96115844
0.93775756
0.93871175
0.96288168
0.99692461
0.99774888
1.0035074
0.99721558
0.98256605
0.97078562
0.97056927
0.98277048
1.0046788
1.0280236
1.0400889
1.0311029
1.0057587
0.97957324
0.96562129
0.96739662
0.98262665
1.0019311
1.0139862
1.0146301
1.0071354
0.9973205
0.98909271
0.98487554
0.97328271
0.98525775
1.006352
1.0207728
1.0198131
1.0076731
0.99399748
0.98728837
0.99065216
1.001319
1.0106755
1.0079835
0.99126102
0.97140807
0.96217017
0.96885916
0.9891365
1.0133104
1.0309684
1.0353157
1.0285107
1.011945
0.98766914
0.99385141
0.98997462
0.99676316
1.0097099
1.0197438
1.0170436
1.0009223
0.97975331
0.96731675
0.97042222
0.98646361
1.0065223
1.0187507
1.0171897
1.0058286
0.99407064
0.98722709
0.98487266
0.9847668
0.98956088
0.99904188
1.0122353
1.02046
1.0184316
1.0062954
0.99172586
0.98453725
0.98705896
0.99637034
1.0040414
1.0034907
0.99622445
0.98916068
0.98896942
0.9966866
1.0070664
1.0144517
1.015635
1.0096733
0.99772949
0.98191214
0.96594335
0.95856841
0.9655104
0.98728253
1.0115057
1.0044057
1.0065567
0.99906343
0.98785613
0.98214837
0.98439109
0.99482592
1.0085057
1.0169561
1.0152796
1.0053707
0.99251085
0.98360056
0.98101176
0.98497212
0.99472414
1.0065397
1.0147873
1.0150907
1.0057291
0.99100481
0.97978036
0.97823692
0.98582894
0.99174219
1.0005614
1.005662
1.0046583
1.0008108
0.99716883
0.9970641
0.99984232
1.0034442
1.0047299
1.0019973
0.99640977
0.99063055
0.98569287
0.98319905
0.98608421
0.99469974
1.0058203
1.013172
1.0130756
1.0057392
0.99502403
0.99436607
0.99343221
0.99809482
1.0052927
1.0112045
1.01164
1.006619
0.99816854
0.99033099
0.9861829
0.98674942
0.99170464
0.99913559
1.0067477
1.0105109
1.0081632
1.0002111
0.99080608
0.98567364
0.98660717
0.9913239
0.99619714
0.99830197
1.009214
1.0051263
1.0000365
0.99648976
0.99542957
0.99652569
0.99822781
0.99877763
0.99799215
0.9964614
0.99472905
0.99350989
0.99476641
0.99874771
1.0042855
1.0083983
1.0081883
1.0032752
0.99560163
0.98906971
0.98654036
0.98837109
0.99265586
1.0008434
1.0020356
1.0005399
0.99696234
0.99338044
0.99140751
0.99156449
0.99464635
0.99992095
1.0057443
1.0094648
1.0092986
1.0047569
0.99791816
0.99217315
0.98935251
0.99032136
0.99372452
0.997736
1.0006587
1.001565
1.0005839
0.99904661
0.9938369
0.99521154
0.99796467
1.0011955
1.0035191
1.0044618
1.0034118
1.0014172
0.99975902
0.99951255
1.0006826
1.0020576
1.002662
1.0013207
0.99794656
0.99413774
0.99161395
0.99177744
0.99499843
0.99982071
1.0031833
1.0029077
0.99880065
1.0032622
1.0014991
1.0003745
1.000449
1.0016051
1.0033718
1.0046159
1.0043442
1.0020636
0.99839609
0.99454673
0.99233183
0.99241065
0.9950283
0.99926835
1.003486
1.0058362
1.0054831
1.0031168
1.0003778
0.99854417
0.99723626
0.99541766
1.0042352
1.0040621
1.0025305
1.0000916
0.99770254
0.99624436
0.99602243
0.9972579
0.99936295
1.0014079
1.0025187
1.0021534
1.0005505
0.99893845
0.9989618
1.000943
1.0034935
1.0044398
1.0024221
0.99821637
0.99446067
0.99343226
0.9952003
0.99763578
0.99889874
1.0005109
1.0020391
1.0028876
1.0027033
1.001529
1.0001449
0.99936932
1.000021
1.0020655
1.0045096
1.0059034
1.0052293
1.0026633
0.99972339
0.99801243
0.99771361
0.99786281
0.99777748
0.99770005
0.99861278
1.0007431
1.0029206
1.0020219
1.0015893
1.0019219
1.002897
1.0041065
1.0050178
1.0049199
1.003342
1.000899
0.99900098
0.99823482
0.99936777
1.0008517
1.0015542
1.0009374
0.99988742
0.99963498
1.0006602
1.0023751
1.003779
1.0042108
1.0036862
1.0051894
1.0048255
1.0035863
1.0016121
0.99975042
0.99896143
0.99948254
1.0009971
1.002745
1.0036038
1.0032293
1.0021063
1.0013494
1.0014728
1.0024879
1.0033596
1.0036427
1.0035052
1.0033568
1.003319
1.0030782
1.0021488
1.0005892
0.99972719
1.0012223
1.0029311
1.0041908
1.0043106
1.0034205
1.0024775
1.0021711
1.0027644
1.0038478
1.0045924
1.0045911
1.0039308
1.003146
1.0027581
1.0028409
1.002939
1.0027786
1.0023343
1.0018214
1.0014076
1.0011031
1.000792
1.0032758
1.002892
1.0036664
1.0048281
1.0057429
1.0059477
1.0051609
1.0040397
1.0029376
1.0023931
1.0022844
1.0023199
1.0023976
1.0023576
1.0024972
1.0028108
1.0031966
1.00343
1.0033426
1.0030835
1.0028799
1.0028622
1.0032709
1.0068687
1.005891
1.0044598
1.0031671
1.0022007
1.0018817
1.0019525
1.0022978
1.0027932
1.0032244
1.0036836
1.0040815
1.0043915
1.0046805
1.0047949
1.0047958
1.0046183
1.0043137
1.0039867
1.0036323
1.0033364
1.0031953
1.0034687
1.0031567
1.0036013
1.0036389
1.0034721
1.0032923
1.0034067
1.0040331
1.0049246
1.0056774
1.0060148
1.0057799
1.0051575
1.0044574
1.0039184
1.0036115
1.003417
1.0032889
1.0032125
1.0032531
1.0033987
1.0035943
1.0034534
1.0040265
1.0037023
1.0040192
1.0046464
1.005141
1.0053089
1.0053345
1.005324
1.0052165
1.0049396
1.0043876
1.0036373
1.0029899
1.0027704
1.0030272
1.0036295
1.0042727
1.004701
1.004825
1.0048355
1.0048109
1.0047344
1.0045198
1.0044547
1.0049289
1.0048496
1.0048569
1.0047314
1.0044296
1.0041389
1.0038974
1.0038009
1.0037585
1.0037269
1.0038089
1.0041582
1.0046932
1.0053584
1.0058187
1.0058846
1.0055053
1.00485
1.0041783
1.0036901
1.0034637
1.0033693
1.0035427
1.0044882
1.0044612
1.0044726
1.0043904
1.0042551
1.0041499
1.0042198
1.0045038
1.0047195
1.0049399
1.0050583
1.0051291
1.0051732
1.0050883
1.0047649
1.0042808
1.0037123
1.003294
1.0031633
1.0034452
1.0039225
1.0043068
1.0045628
1.0046884
1.0045514
1.0045035
1.0044469
1.0043706
1.0043356
1.0044715
1.0046655
1.004787
1.0047719
1.0045693
1.0043622
1.0041642
1.0039998
1.0038665
1.0037634
1.0037877
1.0039972
1.0043228
1.0046579
1.0049753
1.0052667
1.0053411
1.0046195
1.0044825
1.0043785
1.004308
1.0042742
1.0042209
1.00431
1.0044164
1.0044844
1.0043907
1.0041401
1.0039687
1.003895
1.004011
1.0042493
1.0045119
1.0047348
1.0048901
1.0048999
1.0046178
1.0040889
1.0036839
1.0036461
1.0044698
1.0043761
1.0042483
1.004193
1.0041998
1.0041793
1.0041854
1.0042059
1.0042645
1.0042334
1.0041528
1.0041435
1.0041753
1.0042778
1.0042999
1.0042403
1.0041571
1.0041185
1.0041621
1.0041653
1.0039649
1.0036377
1.0035646
1.0043766
1.0043192
1.0042954
1.004262
1.0043109
1.0043093
1.0042705
1.0041078
1.0039483
1.0037804
1.0037523
1.0038695
1.0040392
1.0041976
1.0041281
1.0039055
1.0036323
1.0034322
1.0034066
1.0035467
1.0037589
1.0038858
1.0039508
1.0041759
1.0042761
1.0042159
1.0041331
1.0040762
1.0040803
1.0041221
1.0040691
1.0039066
1.0036577
1.003451
1.0034093
1.0035118
1.0036384
1.003632
1.0034681
1.0033046
1.0033171
1.0034886
1.0036565
1.0037127
1.0036518
1.0034949
1.0047436
1.0043483
1.0042857
1.004149
1.0040148
1.0039118
1.003822
1.0038126
1.0037318
1.0036205
1.003493
1.0033788
1.0033721
1.00338
1.0033324
1.0031653
1.0029084
1.0028023
1.0029569
1.0032295
1.0034
1.0034169
1.0033138
1.0038162
1.0041074
1.0041002
1.0042057
1.0041926
1.0041228
1.0039846
1.0037406
1.0035762
1.0033599
1.0031801
1.0030134
1.0028871
1.0028448
1.0028438
1.0028408
1.0028033
1.0027282
1.0026696
1.0026223
1.0025236
1.0024386
1.002463
1.0038639
1.0039443
1.0038334
1.0038238
1.0038145
1.0037263
1.0036182
1.0034778
1.0033477
1.0031679
1.0030966
1.0029854
1.0027814
1.0025446
1.0023477
1.002197
1.0021459
1.0021853
1.0022454
1.0022647
1.0021556
1.001923
1.0017022
1.0038636
1.003722
1.0037421
1.0037186
1.0037343
1.0036464
1.0035538
1.0034018
1.003254
1.003049
1.0029466
1.0027843
1.002619
1.0024385
1.0021385
1.0019178
1.0017353
1.0016155
1.001559
1.0015509
1.0015765
1.0015086
1.0012957
1.0036866
1.0037397
1.0036818
1.0036616
1.003716
1.003628
1.0036149
1.0035256
1.0033987
1.0032165
1.0030294
1.0027001
1.0024429
1.0021806
1.0019107
1.0017305
1.0015825
1.0014407
1.0012834
1.001141
1.0010432
1.0009667
1.0008006
1.0041868
1.0042118
1.0041609
1.0041422
1.0041224
1.0039845
1.0038955
1.0037557
1.0036007
1.0034963
1.003259
1.0029397
1.0025639
1.0022042
1.0019467
1.001735
1.001472
1.0012345
1.0010425
1.0008615
1.0006588
1.0004947
1.0002723
1.0044805
1.0046055
1.0047184
1.0047084
1.0045957
1.0044243
1.0042908
1.0041555
1.0039452
1.0037616
1.003491
1.0032724
1.0029418
1.0025943
1.0022919
1.0019958
1.0016172
1.001253
1.0009134
1.0006596
1.0004218
1.0001824
0.99965928
1.0047728
1.0048663
1.004911
1.0048302
1.0046615
1.0045583
1.0045536
1.0045781
1.0044238
1.0041352
1.003804
1.0036612
1.0034798
1.0031891
1.0027477
1.0022658
1.001877
1.0015014
1.0010504
1.000682
1.0003759
1.0000361
0.99950897
1.0048959
1.0049282
1.0048809
1.0047759
1.0047073
1.004732
1.0048077
1.0048644
1.004796
1.0045625
1.0042571
1.0040511
1.0038566
1.0035993
1.0031757
1.0026989
1.0023828
1.0021008
1.0017127
1.0012036
1.0006739
1.0001811
0.99957235
1.0049152
1.0047975
1.0047369
1.0047651
1.0048595
1.0049922
1.0049736
1.0048361
1.0047096
1.0046189
1.0045908
1.0045036
1.0042637
1.003979
1.0036633
1.0033737
1.0031098
1.0026914
1.0022258
1.0017399
1.0013418
1.0008762
1.000218
1.0046183
1.0046832
1.0047364
1.0047761
1.0047648
1.0047797
1.0047613
1.0046925
1.0046503
1.0046424
1.0046778
1.0046519
1.0045094
1.0043052
1.0040457
1.0038451
1.0036511
1.003291
1.0028851
1.0023959
1.0020157
1.0016811
1.0012085
1.004421
1.0044796
1.0045189
1.0045451
1.0045351
1.0045064
1.0045094
1.004536
1.0045943
1.0046467
1.0046017
1.0044813
1.0043887
1.0043789
1.00432
1.0041789
1.0039385
1.0037201
1.0035056
1.0032249
1.0028349
1.0024187
1.0019764
1.0042316
1.0041923
1.0041642
1.0042143
1.0042677
1.0043352
1.0043834
1.0043911
1.0043781
1.004401
1.0044049
1.0043426
1.0042988
1.0042982
1.0043231
1.0043229
1.0041773
1.0040144
1.0038512
1.0037567
1.0034612
1.0029923
1.0026041
1.0037704
1.0038821
1.0039939
1.0040184
1.0040036
1.0040427
1.0041325
1.00417
1.0041047
1.0040713
1.0041398
1.0042634
1.0042998
1.0041884
1.0040649
1.0040886
1.0041401
1.0041683
1.0040381
1.0038621
1.0037009
1.0035599
1.0034617
1.0032715
1.003626
1.0038081
1.0038184
1.0036639
1.0035214
1.0035647
1.0038108
1.0040017
1.003971
1.0038642
1.0038361
1.0039334
1.0040357
1.0039937
1.0039281
1.003938
1.0039674
1.0039297
1.0037631
1.0037095
1.0037054
1.0037192
1.0032247
1.00327
1.0031622
1.0031714
1.003255
1.0033256
1.0034084
1.0035168
1.0036235
1.0035896
1.0035519
1.0034387
1.0035355
1.0037103
1.0038577
1.0038685
1.0037355
1.0036288
1.003677
1.0038531
1.0038942
1.003752
1.0036298
1.0031051
1.0026997
1.002402
1.0025287
1.0028858
1.003299
1.003373
1.0030537
1.0027847
1.002961
1.0031288
1.0033196
1.0034993
1.0032774
1.0032676
1.0033318
1.0033675
1.0034503
1.0035216
1.0035638
1.0034824
1.003444
1.0035751
1.0025626
1.0022029
1.0019351
1.0021723
1.0026719
1.0029136
1.0026815
1.0022926
1.0024437
1.0028751
1.0028468
1.0029903
1.0029189
1.0026607
1.0029038
1.0029319
1.0031324
1.0031552
1.002998
1.0029233
1.0031914
1.0032549
1.0029738
1.0025378
1.0017843
1.0009714
1.0012026
1.0020343
1.0027629
1.0026501
1.0020805
1.0018262
1.0020421
1.002129
1.002814
1.003046
1.002405
1.0022059
1.0021883
1.0030134
1.0031608
1.0024684
1.0023438
1.0026644
1.0031417
1.0030776
1.0023262
1.0014517
1.0007901
1.001261
1.0022235
1.0023246
1.0016674
1.0012538
1.0016119
1.0019137
1.0021114
1.0022791
1.0022834
1.0020492
1.002156
1.002094
1.0021652
1.002579
1.0022978
1.0022331
1.002502
1.0024798
1.0023771
1.0025179
1.0014035
1.0005805
1.0005266
1.0012084
1.0022091
1.0027025
1.0017477
1.000419
1.0009048
1.0023856
1.0027577
1.0020132
1.0009754
1.0012398
1.0021222
1.0023797
1.0027466
1.0016803
1.0014116
1.001857
1.0027397
1.0023838
1.0020718
1.0010657
1.0007402
1.001056
1.0015755
1.0018168
1.0016874
1.0016626
1.0013467
1.0007955
1.0015154
1.0024558
1.0021575
1.0010002
1.0005399
1.0023009
1.0026196
1.001807
1.0015722
1.0014832
1.0015695
1.0018053
1.0025244
1.0023051
1.0006956
1.0000647
1.001446
1.0025498
1.0022155
1.0010665
1.0002474
1.0009509
1.0022065
1.0023497
1.0016958
1.0008072
1.000357
1.0014612
1.0029473
1.0024347
1.0007762
1.0003727
1.0013191
1.0027469
1.0022235
1.0013335
1.0022093
1.0014837
1.0002555
1.0007281
1.0021198
1.002465
1.0014816
1.0008101
1.0009605
1.0013071
1.0012833
1.0016138
1.0019784
1.0012087
1.0006558
1.0014691
1.0019189
1.0015649
1.0010358
1.0012091
1.001708
1.0015459
1.0011222
1.0023131
1.0007426
1.0002783
1.0011035
1.0022216
1.0023209
1.0012068
1.0000416
1.0003427
1.0019441
1.0025794
1.0014362
1.000397
1.0004859
1.0011624
1.0016548
1.0017574
1.0017699
1.0005752
0.99991011
1.0007042
1.0026412
1.0028915
1.0026816
1.0011818
0.99947204
0.99993973
1.0016271
1.0026171
1.0018599
1.0004042
0.99984044
1.000871
1.0022714
1.0018693
1.0001846
0.99962761
1.0009937
1.0023991
1.0015063
0.99998336
0.99946805
1.0013213
1.0022752
1.000731
0.99929049
1.0006836
1.001029
1.0014164
1.0012571
1.0004805
1.00008
1.0007205
1.001794
1.0019593
1.0004518
0.99898303
1.0000442
1.0022232
1.0021569
0.99990535
0.99887779
1.0003499
1.0020796
1.0011993
0.99942018
0.99948918
1.000976
1.0016276
1.0017359
1.0004412
0.99895656
0.9996899
1.0015964
1.0021967
1.000674
0.99910144
0.99963944
1.001256
1.0013253
0.99994564
0.99956836
1.0008127
1.0013091
0.99987197
0.99894264
1.0000593
1.0012085
1.0006034
0.99931696
0.99939123
1.0004744
0.9998671
1.0010648
1.0004956
0.99935792
0.9994199
1.0007029
1.001235
1.0001785
0.99908059
0.99970496
1.0011051
1.0009076
0.9993053
0.99892832
1.0003152
1.0006846
0.99946641
0.99911913
1.000094
1.0005306
0.9996542
0.99851152
0.99860004
0.99872054
1.0003874
1.0011948
1.0002465
0.99880549
0.99881396
1.0001534
1.0009884
1.0001981
0.99902314
0.99911956
0.99999784
0.99995515
0.99922436
0.99939617
0.99993271
0.99960705
0.99903902
0.99914655
0.99936577
0.99911692
0.99914319
0.99927007
0.99880633
0.99943449
1.0003824
1.0004109
0.99947968
0.99860415
0.9988235
0.99968986
0.99996993
0.99952393
0.99933437
0.99964882
0.99944061
0.99853948
0.99840759
0.99946277
1.0000418
0.99925717
0.99829512
0.99836867
0.9989144
0.9993132
0.99911805
0.99946311
0.9990861
0.99921811
0.99944442
0.99932429
0.99902805
0.99904833
0.99943545
0.99959918
0.99913897
0.99868814
0.99894656
0.99938977
0.99909671
0.99842872
0.99860018
0.99934524
0.99922052
0.99820006
0.99770621
0.99842231
0.99930328
0.99916896
0.99951438
0.999132
0.99889304
0.99895265
0.99920866
0.99937453
0.99928437
0.99907322
0.99898354
0.99893085
0.99873865
0.99862679
0.99893609
0.99925891
0.99901277
0.99844523
0.99818469
0.99840955
0.99858054
0.9984378
0.99832813
0.99833845
0.99814149
0.99892396
0.99935397
0.99953529
0.99941123
0.99918589
0.9990947
0.99908319
0.99900418
0.99890635
0.99887302
0.99888286
0.99899528
0.99902009
0.99885515
0.99875646
0.99854606
0.99830916
0.99830627
0.99846081
0.99850372
0.99833806
0.99792908
0.99775137
0.99917443
0.99946272
0.99961686
0.99950908
0.99926044
0.99928387
0.99935719
0.99924214
0.99905376
0.99874529
0.99872836
0.99925439
0.9994265
0.99908755
0.99884302
0.9985042
0.99836938
0.99854404
0.99865316
0.99864919
0.99828872
0.99779286
0.99768396
0.99948739
0.99987956
0.99995907
0.99960475
0.99917076
0.9991146