/*--------------------------------*- C++ -*----------------------------------*\
| =========                 |                                                 |
| \\      /  F ield         | OpenFOAM: The Open Source CFD Toolbox           |
|  \\    /   O peration     | Version:  2406                                  |
|   \\  /    A nd           | Website:  www.openfoam.com                      |
|    \\/     M anipulation  |                                                 |
\*---------------------------------------------------------------------------*/
FoamFile
{
    version     2.0;
    format      ascii;
    arch        "LSB;label=32;scalar=64";
    class       volScalarField;
    location    "125";
    object      p_0;
}
// * * * * * * * * * * * * * * * * * * * * * * * * * * * * * * * * * * * * * //

dimensions      [1 -1 -2 0 0 0 0];

internalField   nonuniform List<scalar> 
20580
(
1.0020288
1.0031667
1.0062124
1.0021416
1.0049839
1.0033698
1.0033918
1.0041536
1.002756
1.0024892
1.0018682
1.0036218
1.0030865
1.0020356
1.0023619
1.0042435
1.0014955
0.99857367
1.0063039
1.0037299
0.99669287
1.0023754
1.0064754
0.99968814
0.9903149
0.99963416
1.0126454
1.0048529
1.001948
1.0181882
1.0086822
1.0020234
1.0029387
1.0058415
1.0018272
1.0054705
1.0030447
1.0037984
1.003939
1.0024071
1.0021546
1.0021896
1.0041309
1.0024445
1.0013933
1.0031918
1.0043276
0.99873498
0.99986885
1.0084316
1.00035
0.99629871
1.0058041
1.0046485
0.99594865
0.98873728
1.0034191
1.0242305
1.0125671
0.99019317
1.0002956
1.019601
1.0027711
1.0034542
1.0045037
1.0024966
1.0050974
1.0029571
1.0039709
1.0034312
1.0022763
1.0018742
1.0025739
1.0041531
1.0020172
1.0010979
1.0034692
1.0044439
0.99707771
1.0013869
1.0094112
0.99777265
0.99679483
1.0089522
1.0045407
0.99524318
0.99176344
1.0043182
1.0256656
1.0169551
0.98416566
0.98068014
1.0148963
1.0040419
1.0046093
1.0028664
1.0038054
1.0040383
1.0031662
1.0039599
1.0027995
1.0025634
1.0017518
1.0029093
1.0037464
1.0017529
1.0014278
1.0031732
1.0042366
0.99711118
1.0031523
1.0085339
0.99634043
0.99842411
1.0105214
1.0040876
0.998164
0.99837612
1.0037374
1.0171901
1.0161931
0.98602631
0.96822167
0.99652805
1.005256
1.0061157
1.0018596
1.004967
1.002807
1.0035212
1.0035407
1.002242
1.0029451
1.0020325
1.0031806
1.00303
1.001631
1.0021222
1.0027681
1.0034619
0.9987403
1.0047577
1.0060574
0.99601545
1.0011078
1.0103678
1.0008524
1.0015837
1.0079829
1.0037454
1.0034227
1.0090295
0.99428547
0.97188454
0.97831
1.0058824
1.0073064
1.0020473
1.0055601
1.0019355
1.0039182
1.0026506
1.0020692
1.0029119
1.0026415
1.0032504
1.0022174
1.0017167
1.0029416
1.002397
1.002322
1.0010636
1.0059822
1.0028646
0.9963063
1.0041824
1.0091044
0.99646332
1.001168
1.01598
1.0065219
0.99079832
0.99576574
1.004965
0.99220617
0.97837998
1.0057954
1.0074648
1.0032487
1.0055085
1.0019556
1.0041021
1.0019203
1.002396
1.0025872
1.0033075
1.003142
1.0016041
1.0019736
1.0037979
1.0020926
1.0011177
1.0031291
1.0067047
0.99958086
0.99719472
1.0069831
1.0069647
0.99320069
0.99770949
1.0179172
1.0108703
0.98469713
0.98270821
1.0092257
1.0193988
0.99937656
1.0050485
1.0064842
1.0047271
1.0047038
1.0029422
1.0037941
1.0017874
1.0029113
1.0023396
1.0037977
1.0029606
1.0013538
1.0023493
1.0043187
1.0021626
1.0000942
1.0043675
1.0065968
0.9968296
0.99878282
1.0087918
1.0047561
0.99202509
0.99498607
1.0135613
1.0128121
0.98646935
0.97753692
1.0043223
1.0348492
1.0274279
1.0037969
1.0047952
1.0056212
1.0034564
1.0042641
1.0031694
1.0023526
1.0032498
1.0022926
1.0038217
1.002779
1.0014088
1.0027249
1.0040418
1.0026755
0.99966996
1.0047617
1.0054013
0.99550192
1.0009186
1.0086597
1.0026434
0.99415463
0.99584712
1.005863
1.0096522
0.99433843
0.98299464
0.99574741
1.029235
1.04111
1.002572
1.0030221
1.0053193
1.0024762
1.005234
1.0026541
1.0033369
1.0032186
1.0024733
1.0032691
1.0025882
1.0017476
1.0030841
1.0030761
1.0031316
1.0001754
1.0044536
1.003321
0.99600666
1.0034371
1.0071239
0.99923071
0.99933536
1.0012897
0.99915729
1.00138
1.0032344
0.99645477
0.99505394
1.0079202
1.0285088
1.0020231
1.0020166
1.004043
1.0021067
1.0054901
1.0025188
1.0040556
1.0027979
1.0029306
1.0024207
1.0023743
1.0024322
1.0033727
1.0020129
1.0031505
1.0014665
1.0037596
1.0011135
0.99753874
1.0060848
1.0053742
0.99487816
1.0036956
1.0098609
0.99733896
0.99137247
1.0062888
1.0129451
1.0040625
0.99028584
0.99622818
1.0023404
1.0023449
1.0026652
1.0024481
1.0047768
1.0028559
1.0041753
1.0023152
1.0034381
1.0016508
1.0020842
1.0032227
1.0035445
1.0011388
1.0028545
1.0029499
1.0031518
0.99934922
0.99934751
1.0083687
1.003698
0.99132352
1.0051461
1.0170716
0.99964923
0.98503312
1.001439
1.023659
1.0156672
0.98866973
0.97061708
1.0033437
1.0041349
1.002166
1.0035387
1.0034462
1.0035293
1.0037767
1.0023607
1.0037362
1.0014004
1.00181
1.0036951
1.0035838
1.0005674
1.0024431
1.0040622
1.0029639
0.99836501
1.0014932
1.0093621
1.0023065
0.99018121
1.0036304
1.0193295
1.0032064
0.98452762
0.99408621
1.0220893
1.0244812
0.99589074
0.96778079
1.0047408
1.0064271
1.0028618
1.0049339
1.0023731
1.0041204
1.003014
1.0030914
1.0035422
1.0017925
1.0018274
1.0036274
1.0033928
1.000664
1.001943
1.0044892
1.0029415
0.99833687
1.0035171
1.00843
1.0013272
0.99225059
1.0018182
1.0145037
1.004751
0.98916523
0.99231961
1.0092223
1.0220224
1.0061896
0.98135607
1.0057754
1.0080116
1.0043381
1.0058855
1.0020352
1.0042773
1.0022625
1.0039028
1.0027232
1.0025565
1.0021888
1.0032695
1.0028192
1.0016938
1.0015781
1.0041295
1.0026471
0.99939858
1.0050642
1.0054676
1.0005231
0.99689013
1.0025302
1.0047725
1.0019681
0.99712839
0.99752545
0.99771671
1.0051909
1.0105166
1.0015557
1.0058834
1.008212
1.005453
1.0057008
1.0024098
1.0039168
1.0020112
1.0040989
1.0017741
1.0032397
1.002632
1.0028142
1.0019332
1.0031468
1.0016787
1.0032084
1.0020872
1.0010935
1.0061322
1.0019084
0.99847288
1.0033361
1.0054226
0.99628832
0.99463613
1.0051172
1.0065754
0.99592691
0.98701186
1.000656
1.0144222
1.004849
1.0065518
1.0051863
1.004544
1.0035318
1.0032639
1.0024156
1.0034371
1.0014295
1.0034507
1.0030671
1.0023836
1.0011298
1.0042083
1.0022102
1.0021713
1.0014765
1.0025545
1.0067069
0.99890508
0.99580807
1.0085056
1.0094753
0.99231683
0.98701384
1.0077739
1.017277
1.0020074
0.97936319
0.98501067
1.0119216
1.0033534
1.0038145
1.0039837
1.002932
1.0047155
1.0027152
1.0031419
1.0021624
1.0018843
1.0032206
1.0034864
1.0020831
1.0007911
1.0045748
1.0028185
1.0015215
1.00093
1.0033323
1.0067709
0.9974435
0.99424477
1.009625
1.0132161
0.99321118
0.98379399
1.0048367
1.0236387
1.0094229
0.98373647
0.97757684
1.0011126
1.00219
1.0015004
1.0025075
1.00179
1.0050682
1.00254
1.0038651
1.0010495
1.0027578
1.002814
1.0036751
1.0020043
1.0010026
1.0043393
1.003218
1.0014293
1.0006831
1.0035163
1.0060858
0.99759616
0.99499372
1.0075323
1.0137022
0.99605243
0.98745588
1.0009014
1.0200338
1.0143403
0.99223444
0.98310562
0.99326817
1.0019714
1.0014195
1.0018276
1.0014757
1.0047159
1.0027633
1.0039963
1.0007492
1.0033437
1.0024037
1.0032918
1.002236
1.0017599
1.0034958
1.0032937
1.0018157
1.0010209
1.0034374
1.0039794
0.99955267
0.99801486
1.0043784
1.0083729
1.0000123
0.99441189
1.0010587
1.008955
1.0102195
1.0020269
0.99423671
0.99464852
1.0028911
1.0031867
1.0025072
1.0027424
1.0040755
1.0032878
1.0035128
1.0017343
1.0033418
1.0023346
1.0024874
1.0024891
1.0029029
1.0023768
1.0029112
1.0023075
1.0019847
1.0032885
1.0010616
1.0020284
1.002555
1.0024567
1.0001389
1.0008295
1.0034869
1.0054272
0.99831379
0.9968507
1.0057722
1.0081087
1.0036417
1.0044735
1.006253
1.0041299
1.0048841
1.0031782
1.0037543
1.0026653
1.0035297
1.0029625
1.0025044
1.0019938
1.0026608
1.0039573
1.0013513
1.002238
1.002767
1.0030747
1.0033889
0.99856841
1.002955
1.007853
1.0019579
0.99315502
0.99758462
1.0109202
1.0108296
0.9933203
0.98363653
0.99932787
1.0170345
1.0147246
1.0058315
1.0084806
1.0055623
1.0063366
1.0022973
1.0039586
1.0020985
1.0050484
1.0025775
1.0028245
1.0018308
1.002516
1.0046273
1.0009214
1.0015995
1.0028624
1.0037702
1.0038922
0.99714315
1.0021205
1.0114126
1.0035699
0.98998173
0.99270322
1.0125323
1.0167418
0.99515712
0.97704728
0.98965674
1.0160706
1.0217105
0.9995945
0.99375051
0.99412471
1.0042392
1.018653
1.0285606
1.0301836
1.0167052
0.99080906
0.97034308
0.97016311
0.98718965
1.0076665
1.0193469
1.010467
0.98994865
0.9808794
0.99666548
1.0254643
1.0422154
1.0317787
0.99155161
0.95209363
0.97421348
0.98158494
0.99395239
1.0057763
1.014186
1.0154637
1.0074555
0.99949013
1.0005369
1.0105243
1.0220522
1.026636
1.0166508
0.98783724
0.95879213
0.95069266
0.9694379
1.008758
1.0460231
1.0557495
1.0302782
0.98967199
0.96468107
1.0108434
1.0146917
1.0081975
0.99264871
0.97375974
0.96074155
0.96227783
0.9799135
1.0095981
1.0383102
1.0527771
1.0429711
1.0132605
0.98186944
0.96750615
0.97471932
0.99596625
1.0134153
1.0152811
0.99606823
0.97326216
0.9725734
0.99380881
1.053868
1.037966
1.0132325
0.98614698
0.96628162
0.96216485
0.97293262
0.99360199
1.0094629
1.0138056
1.0029359
0.98523476
0.97723085
0.98940702
1.0183617
1.0474315
1.0586794
1.0392564
0.99004563
0.94015781
0.92361619
0.94378786
0.98852154
1.0074153
0.9989523
0.99627237
1.0001519
1.0136206
1.0321189
1.0456123
1.0389179
1.0119553
0.97445475
0.94040773
0.92800955
0.94275258
0.98409431
1.0351878
1.0728668
1.0775357
1.0422575
0.99354058
0.95849924
0.95269281
0.96939084
1.0002034
0.94154992
0.94808009
0.97239371
1.0107893
1.0500054
1.0743904
1.0730161
1.0457024
1.0104566
0.97581996
0.95513197
0.95711773
0.97516689
0.99986577
1.0142944
1.0124073
0.99396561
0.97612238
0.9755874
0.99695267
1.0287808
1.058032
1.0660662
0.95561726
0.97676468
0.99961302
1.011311
1.009678
1.0012981
0.99042107
0.98585268
0.9885121
1.0004398
1.0239957
1.0518088
1.0672514
1.0516064
1.0097979
0.95666735
0.91388454
0.90276597
0.92550142
0.98055963
1.0524356
1.1139801
1.1208965
1.0608627
1.0521669
1.0259348
0.99057863
0.95772124
0.93194196
0.91519241
0.91838383
0.94666768
0.99965756
1.0609057
1.1069736
1.1148059
1.0806594
1.0256332
0.96677755
0.92409972
0.91147424
0.92563653
0.96549451
1.017094
1.0566507
1.0645192
1.1017845
1.0736101
1.0329111
0.99294858
0.95826441
0.93280657
0.92768519
0.9410423
0.96909874
0.99982845
1.0222366
1.0338841
1.0363795
1.0276859
1.0167474
1.0060241
0.9965919
0.9989774
1.0096675
1.0166784
1.0082175
0.9830071
0.95057307
1.0029922
1.0022306
1.0093374
1.0131926
1.0128748
1.0124659
1.0204673
1.0331083
1.036074
1.0188562
0.9835702
0.94384997
0.91986019
0.92139528
0.94734549
0.9911841
1.0489138
1.0993605
1.1241902
1.101876
1.0386099
0.96341571
0.90534023
0.9140138
0.92287469
0.94637411
0.98946835
1.046463
1.1046084
1.1408484
1.1342781
1.0857438
1.0213373
0.96095452
0.91571822
0.88624147
0.8761291
0.89428044
0.94424002
1.022981
1.1123199
1.1684453
1.1544497
1.0826717
0.99618989
0.92429908
0.89146654
0.90618401
0.93627902
0.98353564
1.0437202
1.1038034
1.1428259
1.1383755
1.0971331
1.0384913
0.98132807
0.93166856
0.90562765
0.90132333
0.91311601
0.94929818
0.99960265
1.0514507
1.0952908
1.1047936
1.0863044
1.0413712
0.98202977
0.92758039
0.94824354
0.97773191
1.0103274
1.0319173
1.0408181
1.0417363
1.0445457
1.0472132
1.0415431
1.019904
0.99090794
0.96661007
0.95939114
0.9702833
0.99007944
1.0046637
1.0053427
0.99946016
1.0011672
1.0120387
1.0257333
1.0271887
1.0079684
1.0191512
1.0281441
1.0232486
1.0038272
0.97610561
0.95296348
0.95002665
0.96936859
1.0014842
1.0305322
1.0450208
1.0464949
1.0440498
1.0423759
1.0346188
1.0113316
0.97595693
0.9412643
0.92231488
0.93457037
0.97179776
1.0214162
1.0938967
1.0841152
1.0565565
1.0178622
0.97206521
0.93137169
0.90455275
0.89895921
0.91629398
0.95701686
1.0122889
1.0636123
1.1002918
1.1158555
1.1076031
1.0737685
1.0191889
0.96089661
0.91152839
0.88350499
0.89011882
0.92664303
0.9888694
1.1533693
1.1244462
1.0699056
1.0087612
0.95163272
0.90655417
0.87944143
0.87446582
0.89146572
0.93229735
0.99306302
1.0630741
1.1258513
1.1627479
1.1536385
1.0997345
1.0254768
0.95706675
0.90110996
0.86874379
0.86563557
0.89756235
0.9608643
1.1802987
1.1412158
1.0759413
1.0054722
0.94506652
0.89773151
0.86810208
0.86049839
0.87754461
0.91835093
0.98273819
1.0645381
1.1408614
1.1866533
1.1735209
1.1106435
1.0325552
0.95851237
0.89871272
0.86451894
0.85675245
0.88308734
0.9447646
1.185113
1.1447243
1.0784301
1.0069379
0.94533983
0.89603697
0.86486856
0.85707755
0.87496776
0.91726524
0.98348713
1.0673949
1.1446755
1.1900103
1.1750452
1.1108943
1.0328929
0.95868091
0.89782143
0.86244811
0.85436805
0.88112873
0.94361126
1.1631968
1.1321888
1.0763522
1.0110564
0.95138651
0.90247975
0.87181342
0.86530166
0.88372164
0.92761854
0.99638505
1.07525
1.1417738
1.1735561
1.1542407
1.0959371
1.0229514
0.95177398
0.89835154
0.86524756
0.86294619
0.89446293
0.95938683
1.1086137
1.0955719
1.0656638
1.0204096
0.96876473
0.92218954
0.89261596
0.88716171
0.9097159
0.95697956
1.0218271
1.0806274
1.1195715
1.1297374
1.1086829
1.064835
1.0091778
0.95148234
0.90540916
0.87980146
0.88658517
0.92491545
0.99039635
1.032142
1.0374629
1.0361834
1.0233246
0.99538925
0.96193618
0.93684353
0.93901971
0.96671281
1.0077622
1.0425251
1.058868
1.0605778
1.0574896
1.04924
1.0304123
0.99941307
0.95981214
0.92488971
0.91334032
0.93358711
0.97756681
1.0266861
0.94624237
0.96197055
0.98354586
1.0047374
1.0199959
1.0275984
1.0329941
1.0408015
1.0502148
1.0466568
1.0256625
0.99682564
0.97564777
0.97098813
0.98062794
0.99176354
0.99116956
0.98555422
0.98292234
0.992679
1.0133404
1.0297937
1.0312532
0.88778909
0.90466422
0.93503121
0.98158822
1.0416607
1.1091122
1.1515316
1.1461084
1.0970072
1.0294897
0.96743593
0.92113569
0.90042409
0.90159893
0.92340702
0.96502358
1.0146921
1.0622914
1.0950547
1.0944438
1.0643089
1.0184215
0.97077569
0.89716817
0.9112614
0.94285669
0.9936212
1.0604378
1.1293565
1.1656265
1.1417312
1.0722678
0.99235978
0.92684612
0.8830523
0.86508829
0.875797
0.92198457
0.99827881
1.0895166
1.1581896
1.165765
1.1121868
1.0298135
0.95153702
0.89629416
0.99385254
0.99444271
1.0071478
1.0192852
1.0296371
1.0374745
1.0399719
1.0371131
1.019039
0.98380386
0.94112375
0.91109424
0.91162912
0.94118491
0.99047626
1.0477259
1.1025676
1.1302694
1.1095627
1.048791
0.97516298
0.91313666
0.87869517
1.1066399
1.0743318
1.0335492
0.99243948
0.95528017
0.93198065
0.9256763
0.93934556
0.96788544
1.0000392
1.0273218
1.0390473
1.0374828
1.0286542
1.0166885
1.0015919
0.99359663
0.99808665
1.0075587
1.0070796
0.98712908
0.95877407
0.94706305
1.0776237
1.0634767
1.0292849
0.98406365
0.93900659
0.90651868
0.89916866
0.91963022
0.97033367
1.0413286
1.1066762
1.1319267
1.093615
1.0283586
0.96444007
0.91927563
0.90011847
0.91526067
0.9577256
1.0214322
1.0724269
1.0812989
1.0532926
0.95007492
0.97360217
0.99476248
1.0079935
1.0067982
0.99414932
0.98447102
0.98915591
1.0048137
1.0276482
1.0519504
1.0642235
1.0457398
1.0003209
0.94779556
0.91426468
0.90789802
0.93268859
0.98711406
1.0533471
1.1068208
1.1140935
1.0674676
0.9503953
0.96188009
0.98885107
1.0256718
1.0580118
1.0704153
1.0583279
1.0285234
0.99504429
0.96598731
0.95384328
0.96229296
0.98377901
1.0031351
1.0088562
1.0023059
0.99806256
0.99302495
0.99639805
1.0049203
1.0179328
1.0247445
1.0212005
1.0148524
0.99826919
0.98615935
0.98789173
0.99826688
1.0132258
1.0226349
1.0112559
0.98398421
0.9532236
0.93752096
0.9448999
0.97479132
1.0216622
1.0635974
1.072249
1.0468869
1.0030414
0.96059329
0.93589598
0.93731178
0.96080718
0.99396799
1.0341912
1.0174845
0.98656433
0.96029738
0.94859202
0.95495869
0.97490738
1.0003962
1.0184916
1.0169023
1.0033578
0.99108183
0.98914763
0.99881507
1.0168209
1.030669
1.026746
1.0023804
0.97029363
0.94743123
0.94492334
0.96448218
0.99448748
0.9872331
0.99810593
1.0004198
0.99233513
0.98085017
0.97718409
0.98499618
1.0017097
1.0227925
1.0371868
1.0323097
1.0093774
0.98071056
0.96186933
0.95957056
0.97295078
0.99537148
1.0157196
1.0249114
1.0214911
1.0103443
0.99508777
0.9824781
0.97344733
0.9827341
1.0053644
1.0232246
1.025815
1.0138901
0.99542336
0.98264265
0.98154288
0.9910039
1.0045696
1.0094064
0.999373
0.98091296
0.96773685
0.96885994
0.98488005
1.0073289
1.0260686
1.0329989
1.0283461
1.015137
0.99343873
1.0006001
0.99317597
0.99417742
1.0036045
1.0135216
1.0142031
1.0021972
0.98275273
0.96890551
0.96982604
0.98437112
1.0054192
1.0205986
1.0219716
1.0113308
0.9976632
0.98740578
0.98179476
0.97883108
0.98133785
0.99041546
1.0064879
1.0215375
1.019133
1.0080164
0.99185004
0.98172213
0.98236289
0.99233571
1.0038392
1.0080931
1.0033085
0.99453351
0.98977101
0.99282788
1.000817
1.0087496
1.0131469
1.0114427
1.0032577
0.98934291
0.97191756
0.95988796
0.9612313
0.97880548
1.003286
0.99949138
1.004122
1.0001806
0.99089556
0.98510076
0.98561016
0.99400956
1.0067777
1.0163251
1.0163152
1.0071553
0.99355619
0.98296958
0.97869582
0.9812382
0.99053561
1.0036682
1.0148139
1.0188745
1.0125553
0.99840189
0.98397746
0.97731814
0.98472371
0.98992676
1.0000102
1.0079819
1.0087083
1.0045419
0.99887298
0.99557811
0.99602724
0.99890211
1.0014074
1.001254
0.99860041
0.99479425
0.99003172
0.98598925
0.9856535
0.99112433
1.0008464
1.0096057
1.0121788
1.0074123
0.99758194
0.99779591
0.99546758
0.99806703
1.0038525
1.0092623
1.0105034
1.0064387
0.99828089
0.99007277
0.9854937
0.98555858
0.99055247
0.99850945
1.0072988
1.0126126
1.0112083
1.0031957
0.99223322
0.98468985
0.98368259
0.98789301
0.99369229
0.99754203
1.0096629
1.0060266
1.0002394
0.99535061
0.99309582
0.99359817
0.99583476
0.99785055
0.99917671
0.99932377
0.99821647
0.99635732
0.99570614
0.99743435
1.0010545
1.0048597
1.0059913
1.0030823
0.9972416
0.99144351
0.98861304
0.98954608
0.99300829
0.99856307
1.0003999
1.0000333
0.9975771
0.994639
0.99277004
0.99252858
0.99504776
0.9998943
1.0057618
1.009835
1.0099782
1.0056342
0.99829654
0.99143422
0.98758947
0.98801832
0.99198202
0.99725966
1.0016371
1.003391
1.0021829
0.99951161
0.99438167
0.99525943
0.99789735
1.0013548
1.0043419
1.0058241
1.0050649
1.0028157
1.0001715
0.99837356
0.99828171
0.99924276
1.0004683
1.000479
0.9988006
0.99622485
0.99410903
0.9937326
0.99584494
0.99959599
1.0023241
1.001943
0.99792904
1.0045934
1.0026367
1.0008863
1.0001536
1.0005144
1.0018578
1.0032231
1.0034502
1.001807
0.99864717
0.99498438
0.99250641
0.99220322
0.99465503
0.99912614
1.0039249
1.0069199
1.0067529
1.0038538
0.99991283
0.99709292
0.99565809
0.99469783
1.0030843
1.0033501
1.0023212
1.0002357
0.99796421
0.99625929
0.99569222
0.99664303
0.99882535
1.0013691
1.0032351
1.003677
1.0024733
1.0005085
0.99948326
1.0002573
1.0019963
1.0028628
1.0012402
0.99758475
0.99416938
0.99346187
0.99575031
0.99757005
0.99856331
1.0002878
1.0021291
1.003458
1.0037429
1.0027735
1.0012058
0.99990876
0.99981291
1.0012427
1.0035164
1.0052371
1.0051289
1.0028356
0.99961654
0.99739754
0.99693938
0.99754382
0.99831732
0.99894491
0.99997826
1.0016331
1.003944
1.0028292
1.0019289
1.0017005
1.0022252
1.0032542
1.0042966
1.004667
1.0036277
1.0013721
0.9991977
0.99789579
0.99862469
1.0001819
1.0013477
1.0012691
1.0005098
1.0002477
1.0012347
1.0029011
1.0042248
1.0043296
1.0032545
1.004431
1.0044404
1.0035616
1.0018309
0.99995042
0.99887868
0.99913538
1.000558
1.0024768
1.0037834
1.0038521
1.0028817
1.0019629
1.0017383
1.002608
1.0034907
1.0038769
1.0036755
1.0032837
1.002945
1.0024953
1.0014865
0.99996623
0.99956548
1.0008629
1.0027692
1.0044657
1.005014
1.0043873
1.0033588
1.0026224
1.0027829
1.0035498
1.0042463
1.0043513
1.0038007
1.0030256
1.0025448
1.002523
1.0026537
1.0025858
1.0021989
1.0016976
1.001278
1.0011149
1.0010686
1.0043506
1.0036004
1.003776
1.0044529
1.0052194
1.0054782
1.0048769
1.0038697
1.0027831
1.002169
1.0020682
1.0022015
1.0024281
1.0025476
1.0027212
1.0030089
1.003363
1.0035972
1.003538
1.0032647
1.0030231
1.0029627
1.0033718
1.0066945
1.0057676
1.004284
1.0028631
1.0018229
1.0015859
1.0018457
1.0024434
1.0031278
1.0036664
1.0041333
1.0044592
1.0046732
1.0048359
1.0048295
1.0047058
1.0044402
1.0041303
1.0038635
1.0035805
1.0033004
1.0031376
1.0033676
1.0027811
1.0033232
1.003592
1.0037072
1.0037389
1.0039554
1.0045708
1.0053166
1.0058715
1.0060308
1.0055974
1.0048641
1.0040885
1.0035608
1.0033346
1.0032456
1.0032408
1.0032689
1.0033703
1.0035538
1.003742
1.0035423
1.0040477
1.004043
1.0042257
1.0047694
1.0052023
1.0053605
1.0053347
1.0051954
1.0049397
1.004558
1.0039757
1.0033506
1.002891
1.0028619
1.0032886
1.0039758
1.0046408
1.0050195
1.005029
1.004938
1.0048085
1.0046552
1.0044021
1.0043024
1.0050069
1.0048519
1.0047446
1.0045785
1.0042864
1.0040148
1.003816
1.0037647
1.0037743
1.0038405
1.0040542
1.0044783
1.005044
1.0056061
1.0059083
1.0058008
1.0052622
1.0045465
1.0038702
1.0034494
1.0033372
1.0032977
1.0035108
1.00454
1.0044522
1.0044023
1.004341
1.0042613
1.0042267
1.0043541
1.00464
1.0048474
1.0050392
1.0051103
1.0051189
1.0050727
1.0048843
1.0044963
1.0039897
1.0034921
1.0032208
1.0032625
1.0036913
1.004205
1.0045991
1.0048138
1.0047607
1.0045736
1.0044644
1.0044146
1.0043712
1.0043791
1.0045214
1.0046705
1.0047616
1.0046881
1.0044568
1.0042511
1.0040681
1.0039455
1.0038898
1.0038657
1.0039529
1.0042093
1.0045495
1.0048132
1.0049716
1.0051061
1.0050984
1.0046416
1.004473
1.0043332
1.0042628
1.004276
1.0042716
1.004356
1.00441
1.0044575
1.0043327
1.0041178
1.0039862
1.0039597
1.0041142
1.0043379
1.0045774
1.004771
1.0048974
1.0049035
1.0046322
1.0040509
1.0035118
1.003405
1.0044696
1.0043732
1.0042489
1.0041887
1.0042234
1.0042344
1.0042424
1.0042082
1.0042206
1.0041625
1.004132
1.0041811
1.0042886
1.0044109
1.004367
1.0042119
1.0040359
1.003948
1.004006
1.0040948
1.0040187
1.0037571
1.0036543
1.0043693
1.0043201
1.0043005
1.0042666
1.0043117
1.0043308
1.0043102
1.0041432
1.0039457
1.0037296
1.0037035
1.0038154
1.0040217
1.0042105
1.0041391
1.0038879
1.0035861
1.0034062
1.0034197
1.0035915
1.0038142
1.0039443
1.0039818
1.0041954
1.0042922
1.0042205
1.0041243
1.0040385
1.0040307
1.0040752
1.0040465
1.0039207
1.0036864
1.0034884
1.0034375
1.0035231
1.0036349
1.0036265
1.00345
1.0032667
1.0032944
1.0035247
1.0037501
1.0038063
1.0036935
1.0034742
1.0046928
1.004315
1.0042748
1.0041682
1.0040631
1.0039614
1.0038482
1.0038132
1.0037067
1.003619
1.0034948
1.0033931
1.0033772
1.0033645
1.0033303
1.0031847
1.002947
1.0028298
1.0029523
1.0031995
1.0033542
1.003369
1.0032931
1.003832
1.0041113
1.004104
1.004189
1.004182
1.0041411
1.0039545
1.0037333
1.0035391
1.0033651
1.0031947
1.0030303
1.0028862
1.0028122
1.0027871
1.0028071
1.0028215
1.0027875
1.002732
1.002649
1.002504
1.0023773
1.0023764
1.0038481
1.0039181
1.0038439
1.0038153
1.0037993
1.0037171
1.0035762
1.0034687
1.0033319
1.0031628
1.0031239
1.003021
1.0028143
1.0025632
1.0023389
1.0021673
1.0021198
1.0021617
1.0022218
1.0022497
1.0021671
1.0019674
1.0017432
1.0038707
1.0037051
1.003755
1.003714
1.003743
1.0036627
1.0035596
1.0034568
1.0032726
1.0030785
1.0029514
1.0027648
1.0025898
1.0023895
1.0021519
1.0019484
1.0017782
1.0016492
1.0015595
1.0015304
1.0015632
1.0015209
1.0013328
1.0037448
1.0037692
1.0037329
1.00368
1.0037346
1.0036428
1.003612
1.0035732
1.003423
1.0032849
1.0030413
1.0027017
1.0024417
1.0021584
1.0019041
1.0017461
1.0016196
1.0014857
1.001318
1.0011375
1.0010238
1.0009687
1.0008386
1.0042185
1.0042293
1.0041958
1.0042037
1.0042014
1.0040657
1.0039174
1.0037732
1.0035955
1.0035354
1.0032662
1.0029589
1.0025734
1.0022198
1.0019906
1.00176
1.0014794
1.0012588
1.0010683
1.0008635
1.0006448
1.0004796
1.0002968
1.0045619
1.0046386
1.0047117
1.0047155
1.0046378
1.0045094
1.004336
1.0041552
1.0039229
1.0037861
1.0035477
1.0033296
1.0029643
1.0026081
1.0023413
1.0020265
1.0016323
1.0012253
1.0008989
1.0006947
1.0004787
1.0002198
0.9996918
1.0047933
1.0049001
1.0049363
1.0048382
1.0046645
1.0045856
1.0045822
1.004607
1.0044537
1.0041777
1.0038682
1.0037143
1.0034895
1.0031668
1.0027609
1.0023033
1.0019354
1.0014974
1.0010477
1.0007097
1.0004314
1.0000893
0.99952521
1.0048615
1.0049528
1.0049392
1.0048388
1.0047203
1.0047226
1.0048125
1.0049043
1.0048617
1.004599
1.0042647
1.0040475
1.0038731
1.003621
1.0032049
1.0027231
1.0024344
1.0021379
1.0017596
1.0012343
1.0006966
1.0001946
0.99956836
1.0049205
1.0048112
1.0047478
1.0047966
1.004896
1.005009
1.0049824
1.0048487
1.0047302
1.0046404
1.004596
1.0045019
1.0043029
1.0040334
1.0037031
1.0033884
1.0031263
1.0027197
1.0022679
1.0017731
1.0013593
1.0008982
1.0002559
1.0046474
1.0046947
1.0047208
1.0047557
1.0047693
1.0047947
1.0047887
1.0047123
1.0046406
1.0046468
1.0047014
1.0046829
1.0045518
1.0043139
1.0040453
1.0038596
1.003675
1.0033385
1.0029094
1.0024228
1.0020483
1.001741
1.0012488
1.0044048
1.004483
1.0045308
1.0045503
1.004532
1.0045007
1.0045173
1.0045555
1.0045995
1.0046478
1.0046108
1.0045029
1.0044169
1.0043766
1.00432
1.0041866
1.003964
1.0037812
1.0035368
1.0032345
1.0028263
1.0024479
1.0020164
1.0042364
1.0041893
1.0041664
1.0042226
1.0042694
1.0043277
1.0043652
1.004381
1.0043852
1.0044222
1.0044239
1.0043356
1.0042732
1.0042901
1.0043544
1.0043641
1.0041971
1.0040085
1.0038423
1.003761
1.003484
1.0030195
1.0026033
1.0038183
1.0038611
1.0039452
1.0039801
1.0039984
1.0040699
1.0041592
1.0041637
1.0040744
1.0040423
1.0041339
1.0042704
1.0043023
1.0041912
1.0040742
1.0041018
1.0041508
1.0041324
1.0040144
1.0038734
1.0037393
1.0035508
1.0034217
1.0032139
1.0035958
1.0038336
1.0038442
1.0036667
1.0035098
1.0035581
1.0037973
1.0039641
1.0039349
1.0038481
1.0038736
1.0039725
1.0040237
1.0039377
1.003883
1.0039574
1.004014
1.0039342
1.0037115
1.0036799
1.0037339
1.0037508
1.0030597
1.0032934
1.0032855
1.003268
1.0032284
1.0031954
1.0032953
1.003525
1.0037316
1.003627
1.0034977
1.0033582
1.0034811
1.0037603
1.0038902
1.0038344
1.003688
1.0036177
1.0037005
1.0038494
1.0038597
1.0037415
1.0036482
1.0029325
1.0027518
1.0025389
1.0025756
1.0028307
1.0031598
1.0033014
1.0031216
1.0028526
1.0029339
1.0031116
1.0032056
1.0034525
1.0033353
1.0033061
1.0033147
1.0032953
1.0034036
1.0035146
1.003562
1.0034627
1.003429
1.0035669
1.0023468
1.0022927
1.0021027
1.0022454
1.0025764
1.0027625
1.0026382
1.0023427
1.0024279
1.002909
1.0028951
1.0028427
1.0028774
1.0026614
1.0029339
1.0030056
1.0030158
1.0030679
1.0030164
1.0029916
1.0031442
1.0031373
1.0029265
1.0022409
1.0019089
1.0012595
1.00134
1.0018926
1.0025078
1.0025815
1.0022216
1.001877
1.0021561
1.002109
1.0024911
1.0030032
1.0025305
1.0022973
1.0022775
1.0027606
1.003081
1.0025522
1.0024259
1.0025733
1.0030549
1.0031001
1.0021
1.0016102
1.0011079
1.0012282
1.0019528
1.0021955
1.0017909
1.0013763
1.0016863
1.0019401
1.001976
1.0020954
1.0022734
1.0022227
1.002269
1.0021147
1.0019274
1.0024593
1.0023708
1.002345
1.0026592
1.0023657
1.00209
1.0024367
1.0014106
1.0007081
1.0007501
1.0012584
1.0018958
1.0023727
1.001979
1.0008695
1.0008945
1.0021014
1.0025819
1.0020737
1.0012025
1.0012709
1.0021566
1.0021748
1.0025844
1.001961
1.0014979
1.0019115
1.0023579
1.0022388
1.0020187
1.0012117
1.0007421
1.0010914
1.0015815
1.0017618
1.0015542
1.0015639
1.0016817
1.0011917
1.0012906
1.0020173
1.0020863
1.0014481
1.0007324
1.0020627
1.0025767
1.0017404
1.0016651
1.0014347
1.0015215
1.0018393
1.002921
1.0021252
1.001002
1.0001567
1.0012597
1.0025109
1.0022542
1.0011268
1.0003251
1.0009123
1.0022689
1.0024331
1.0015169
1.0007463
1.0005144
1.001628
1.0029598
1.0023565
1.0005517
1.0002454
1.0015866
1.003209
1.0020894
1.0005739
1.0018533
1.0018363
1.0006796
1.0006959
1.0018031
1.0023126
1.001542
1.0009195
1.0010847
1.0014203
1.0012283
1.0012799
1.0019696
1.0016735
1.0007577
1.0010527
1.0017392
1.0019166
1.0014332
1.000793
1.0012076
1.0019646
1.0017334
1.0025368
1.0009018
1.0000082
1.0007745
1.0021871
1.0025863
1.0014707
0.99998486
0.99997123
1.0017783
1.0030013
1.0017643
1.000066
1.0000595
1.0012953
1.0022718
1.0018088
1.0011162
1.0002707
1.0003125
1.0013448
1.0024087
1.0021007
1.0021056
1.0015593
1.0000262
1.0000964
1.0012457
1.002051
1.0017308
1.0009262
1.000428
1.0006944
1.001537
1.00158
1.0006776
1.0002861
1.000852
1.0016982
1.0012536
1.0004071
0.9999829
1.0010095
1.0019929
1.0007057
0.99940483
1.0008907
1.0009783
1.0010817
1.0011108
1.000689
1.0003397
1.0007225
1.0015081
1.0017786
1.0006807
0.9991814
0.99981918
1.0019595
1.0023059
1.000263
0.99880979
0.99993398
1.0019816
1.001584
0.99955248
0.9991617
1.0007651
1.0019786
1.0013134
1.0008401
0.9992974
0.99948803
1.0011651
1.0021913
1.001001
0.99912206
0.99918292
1.0010802
1.001873
1.0004106
0.9991588
1.0000661
1.0013608
1.0005751
0.9990842
0.99950711
1.0009199
1.0009676
0.99969607
0.99906261
0.99983349
0.99941027
1.0011014
1.0011463
0.99971768
0.99894866
0.99995937
1.0011826
1.0008396
0.99950435
0.99931049
1.0005229
1.0009926
0.99977589
0.99887639
0.9998709
1.0007308
0.99985728
0.99912981
0.99978807
1.0003673
0.99973454
0.99864621
0.99863435
0.99867587
1.0001142
1.0012274
1.0005909
0.99903524
0.99857868
0.9997364
1.0009237
1.0004699
0.99915437
0.99890083
0.99984884
1.0001636
0.99929475
0.99904733
0.99982484
0.99995603
0.99919694
0.99886435
0.99908977
0.99916439
0.99941506
0.99950678
0.99909828
0.99924779
1.0000152
1.0003221
0.99968957
0.99879129
0.99873695
0.99947733
0.99993618
0.99964446
0.9993382
0.9995014
0.99941893
0.99864267
0.9983448
0.99934976
1.0001193
0.9993306
0.99817085
0.99824089
0.99902889
0.99940033
0.99902907
0.99972491
0.99903554
0.99891406
0.99919082
0.99936564
0.99926653
0.99917481
0.99933935
0.99946605
0.99910762
0.99865738
0.99879456
0.99933318
0.99933217
0.99864716
0.99844884
0.99900455
0.99913061
0.99837937
0.99784993
0.99842466
0.99920845
0.99900046
0.9995868
0.99913827
0.99879284
0.99883056
0.99918925
0.99946198
0.99933301
0.9990057
0.99887433
0.99893752
0.99885034
0.99863045
0.99880501
0.99921158
0.99912156
0.99848229
0.99800169
0.9982258
0.9986768
0.99869631
0.99840525
0.99808934
0.9978425
0.99884867
0.99932906
0.99960398
0.99948178
0.99917232
0.99899724
0.99900534
0.9990084
0.99894285
0.99890924
0.99889909
0.99897802
0.99898212
0.99881401
0.99867304
0.99855843
0.99836629
0.9983539
0.99845763
0.99845012
0.99827544
0.9978933
0.99776606
0.9991061
0.99943093
0.99963488
0.99956841
0.99927833
0.99924439
0.99934197
0.99926298
0.99902825
0.99872924
0.99861903
0.99915468
0.99957599
0.99921038
0.99880958
0.99840764
0.99826833
0.99856058
0.99875132
0.99866384
0.99827809
0.99767646
0.99763768
0.99927456
0.99979342
1.000117
0.99984923
0.99927097
0.99903571