/*--------------------------------*- C++ -*----------------------------------*\
| =========                 |                                                 |
| \\      /  F ield         | OpenFOAM: The Open Source CFD Toolbox           |
|  \\    /   O peration     | Version:  2406                                  |
|   \\  /    A nd           | Website:  www.openfoam.com                      |
|    \\/     M anipulation  |                                                 |
\*---------------------------------------------------------------------------*/
FoamFile
{
    version     2.0;
    format      ascii;
    arch        "LSB;label=32;scalar=64";
    class       volScalarField;
    location    "160";
    object      k;
}
// * * * * * * * * * * * * * * * * * * * * * * * * * * * * * * * * * * * * * //

dimensions      [0 2 -2 0 0 0 0];

internalField   nonuniform List<scalar> 
20580
(
3.2166116e-06
2.5346608e-06
1.9715685e-06
1.5803281e-06
1.3148949e-06
1.1361284e-06
1.0084685e-06
9.1629604e-07
8.4062482e-07
7.7986755e-07
7.284194e-07
6.8630023e-07
6.5102153e-07
6.1858661e-07
5.9419035e-07
5.7143475e-07
5.5478387e-07
5.4515222e-07
5.3555545e-07
5.3259033e-07
5.317721e-07
5.3394758e-07
5.3391217e-07
5.6826839e-07
6.1056067e-07
6.3228865e-07
6.4905287e-07
6.4237695e-07
6.5544759e-07
7.0157256e-07
7.4783234e-07
3.2274652e-06
2.5570283e-06
2.0058082e-06
1.6260797e-06
1.3526127e-06
1.1623473e-06
1.0214674e-06
9.2392269e-07
8.4652431e-07
7.8515884e-07
7.3408198e-07
6.9147438e-07
6.5546077e-07
6.2399918e-07
5.9674553e-07
5.742106e-07
5.5678512e-07
5.4927902e-07
5.3686895e-07
5.3517202e-07
5.3778908e-07
5.3536538e-07
5.4028271e-07
5.6656643e-07
6.2682626e-07
7.0266616e-07
7.4498776e-07
7.9096636e-07
8.2117792e-07
8.8952265e-07
8.5129324e-07
3.2266566e-06
2.5533389e-06
2.0011047e-06
1.6353911e-06
1.3721296e-06
1.185353e-06
1.0443403e-06
9.3909806e-07
8.5652965e-07
7.9159838e-07
7.3927278e-07
6.9577157e-07
6.5857636e-07
6.2839304e-07
5.9971882e-07
5.7660763e-07
5.567674e-07
5.4780538e-07
5.3341902e-07
5.268562e-07
5.3049561e-07
5.2820887e-07
5.2919821e-07
5.4454337e-07
5.8663427e-07
6.7258007e-07
7.3207804e-07
7.631695e-07
8.1675112e-07
8.9921834e-07
1.0260266e-06
3.2247663e-06
2.5327251e-06
1.9744371e-06
1.6221987e-06
1.3698803e-06
1.1883142e-06
1.0561272e-06
9.5330723e-07
8.703151e-07
8.0225878e-07
7.4718749e-07
7.0144615e-07
6.6236582e-07
6.3153273e-07
6.026693e-07
5.7738872e-07
5.5811427e-07
5.4546959e-07
5.3332597e-07
5.2194953e-07
5.2320591e-07
5.2091013e-07
5.2069309e-07
5.3033597e-07
5.5921282e-07
6.1678553e-07
7.1285454e-07
7.6617235e-07
7.936815e-07
8.5459458e-07
9.8960463e-07
3.2251515e-06
2.5329764e-06
1.9479852e-06
1.5889349e-06
1.3516216e-06
1.1820238e-06
1.0542581e-06
9.5766138e-07
8.8080936e-07
8.153795e-07
7.6046251e-07
7.1184658e-07
6.7003683e-07
6.36613e-07
6.0750972e-07
5.8024047e-07
5.6059372e-07
5.4557587e-07
5.3356976e-07
5.2162084e-07
5.2207009e-07
5.2078101e-07
5.211877e-07
5.3006332e-07
5.5483401e-07
6.0180827e-07
6.8717603e-07
7.8639033e-07
8.4104805e-07
9.6472397e-07
1.0148754e-06
3.2318977e-06
2.5570633e-06
1.9486152e-06
1.5849339e-06
1.3439285e-06
1.1706009e-06
1.046424e-06
9.542335e-07
8.8276485e-07
8.2069483e-07
7.6882999e-07
7.2305639e-07
6.823184e-07
6.470857e-07
6.1693587e-07
5.8905144e-07
5.6845728e-07
5.5064639e-07
5.3707184e-07
5.2534384e-07
5.2363827e-07
5.2039502e-07
5.1803913e-07
5.2500722e-07
5.4069218e-07
5.8165014e-07
6.4584284e-07
7.734772e-07
8.4534791e-07
1.0222597e-06
1.0843543e-06
3.2360165e-06
2.5680585e-06
1.9571077e-06
1.5891742e-06
1.3433084e-06
1.1667316e-06
1.0417974e-06
9.4988266e-07
8.7981184e-07
8.2136325e-07
7.7271055e-07
7.3327657e-07
6.9818013e-07
6.6869455e-07
6.388339e-07
6.1312819e-07
5.9180143e-07
5.718627e-07
5.5480233e-07
5.4187829e-07
5.3345399e-07
5.2619505e-07
5.191707e-07
5.1954125e-07
5.2326771e-07
5.359564e-07
5.709825e-07
6.8447448e-07
7.9220317e-07
9.8485641e-07
1.0960356e-06
3.2813434e-06
2.6057146e-06
1.9926665e-06
1.6052498e-06
1.3466096e-06
1.1680863e-06
1.0411284e-06
9.5029974e-07
8.7744618e-07
8.2290378e-07
7.7684013e-07
7.4258094e-07
7.1413179e-07
6.9175188e-07
6.6896649e-07
6.5104364e-07
6.3414533e-07
6.1729584e-07
6.0094844e-07
5.8960092e-07
5.7381331e-07
5.5911328e-07
5.4916271e-07
5.4054089e-07
5.3552804e-07
5.3704365e-07
5.5323474e-07
6.0097648e-07
6.7906203e-07
7.8101394e-07
1.0205235e-06
3.625101e-06
3.0447659e-06
2.1814917e-06
1.688084e-06
1.3817974e-06
1.1848698e-06
1.0467292e-06
9.5297348e-07
8.7748528e-07
8.2262006e-07
7.7627879e-07
7.4242015e-07
7.1587082e-07
6.9396628e-07
6.759218e-07
6.603278e-07
6.4614247e-07
6.3125274e-07
6.2085717e-07
6.15731e-07
6.0347097e-07
5.972631e-07
6.0133648e-07
6.0394521e-07
6.009836e-07
5.9781364e-07
6.094238e-07
6.4711619e-07
7.2525793e-07
8.0104683e-07
9.0065045e-07
4.6041193e-06
3.7518812e-06
2.6477389e-06
1.9916381e-06
1.5399501e-06
1.2620409e-06
1.0825044e-06
9.6821519e-07
8.8426923e-07
8.2413295e-07
7.7616353e-07
7.3791167e-07
7.0863344e-07
6.8257832e-07
6.6074547e-07
6.4264469e-07
6.255045e-07
6.0966161e-07
6.0285544e-07
5.9937507e-07
5.9598992e-07
5.9888009e-07
6.1230468e-07
6.2981726e-07
6.46387e-07
6.7650146e-07
7.2374547e-07
7.9896159e-07
8.5991978e-07
9.8824775e-07
1.0115404e-06
3.6034896e-06
3.3184457e-06
2.6450255e-06
2.1562238e-06
1.775913e-06
1.4751867e-06
1.2201157e-06
1.047285e-06
9.3687426e-07
8.6258079e-07
8.0893688e-07
7.6591078e-07
7.3154727e-07
7.0111242e-07
6.7392536e-07
6.4978071e-07
6.274685e-07
6.0780863e-07
5.9478096e-07
5.8536235e-07
5.7652724e-07
5.8132621e-07
5.9724139e-07
6.1521791e-07
6.3068354e-07
6.6463794e-07
7.1556916e-07
8.2426968e-07
8.9012812e-07
1.0719135e-06
1.1407251e-06
3.1132009e-06
2.5117278e-06
2.2067446e-06
1.9297966e-06
1.7063269e-06
1.5005471e-06
1.3578951e-06
1.2539389e-06
1.1538646e-06
1.0828636e-06
1.0338943e-06
9.8871445e-07
9.4271782e-07
8.9645154e-07
8.4526171e-07
7.983471e-07
7.5564722e-07
7.1483935e-07
6.8202733e-07
6.5384399e-07
6.2566456e-07
6.0712926e-07
6.1222183e-07
6.167455e-07
6.1951869e-07
6.2938589e-07
6.5637657e-07
7.1267505e-07
8.0340408e-07
9.6316097e-07
1.2026334e-06
3.1319464e-06
2.4707665e-06
2.0430161e-06
1.7349439e-06
1.5195914e-06
1.3667126e-06
1.2864814e-06
1.2336286e-06
1.2073114e-06
1.2079555e-06
1.2168045e-06
1.2271195e-06
1.234595e-06
1.238975e-06
1.2308312e-06
1.2104753e-06
1.1764362e-06
1.1289192e-06
1.0882308e-06
1.0366647e-06
9.6716658e-07
9.0272515e-07
8.4792539e-07
7.833787e-07
7.3778275e-07
6.9006739e-07
6.9084465e-07
7.0863263e-07
7.5624354e-07
8.1028812e-07
9.5334683e-07
3.3469771e-06
2.9623221e-06
2.3312243e-06
1.8969185e-06
1.5772867e-06
1.3737266e-06
1.2172082e-06
1.1267903e-06
1.0851632e-06
1.0602689e-06
1.0593107e-06
1.0656434e-06
1.0791686e-06
1.0948407e-06
1.1130837e-06
1.1257396e-06
1.1272605e-06
1.1252798e-06
1.1252978e-06
1.1208298e-06
1.1146068e-06
1.1166383e-06
1.1327544e-06
1.1455099e-06
1.1300557e-06
1.104266e-06
1.081572e-06
1.0593385e-06
1.0497809e-06
1.0653954e-06
1.0809948e-06
3.926116e-06
3.3657341e-06
2.5387163e-06
2.062528e-06
1.7049059e-06
1.4455249e-06
1.2629361e-06
1.1382969e-06
1.0576298e-06
1.0039475e-06
9.6136708e-07
9.2100187e-07
9.0079616e-07
8.8212186e-07
8.5885764e-07
8.520637e-07
8.4017356e-07
8.4284469e-07
8.489953e-07
8.6092831e-07
8.8835439e-07
9.2034223e-07
9.6959405e-07
1.0670468e-06
1.1150001e-06
1.1943113e-06
1.2520386e-06
1.361221e-06
1.435956e-06
1.6017464e-06
1.6250275e-06
3.4661471e-06
2.9551321e-06
2.2722275e-06
1.8668088e-06
1.571258e-06
1.3624258e-06
1.2172076e-06
1.1120256e-06
1.0258238e-06
9.7284716e-07
9.3065994e-07
8.903729e-07
8.6820869e-07
8.5476189e-07
8.353239e-07
8.1575204e-07
8.0426313e-07
7.8652968e-07
7.7302901e-07
7.5637786e-07
7.5703713e-07
7.6605045e-07
7.8012962e-07
8.2193481e-07
9.0088185e-07
1.0038042e-06
1.0948318e-06
1.2293191e-06
1.3844969e-06
1.5614577e-06
1.764176e-06
3.2138378e-06
2.5810094e-06
2.0503809e-06
1.7172691e-06
1.4881558e-06
1.3237654e-06
1.2042525e-06
1.1062643e-06
1.0262033e-06
9.7027227e-07
9.1064177e-07
8.5219579e-07
8.0960353e-07
7.880325e-07
7.6836913e-07
7.5587697e-07
7.5267588e-07
7.5052476e-07
7.431238e-07
7.3618528e-07
7.3564713e-07
7.3891603e-07
7.4047931e-07
7.5153836e-07
7.8436824e-07
8.3032069e-07
8.6182369e-07
9.0026651e-07
1.0252497e-06
1.1531374e-06
1.4273532e-06
3.2187235e-06
2.5663358e-06
2.0722084e-06
1.7696096e-06
1.5689041e-06
1.4187542e-06
1.3088586e-06
1.2192264e-06
1.1384327e-06
1.0649147e-06
9.8636138e-07
9.0453492e-07
8.3194842e-07
7.7293487e-07
7.2292829e-07
6.8900334e-07
6.6438212e-07
6.5204833e-07
6.4393361e-07
6.4225656e-07
6.49642e-07
6.5755222e-07
6.5991616e-07
6.6601938e-07
6.8812715e-07
7.1631085e-07
7.4032982e-07
7.565884e-07
7.9399064e-07
8.4575058e-07
9.3646832e-07
3.2954244e-06
2.7995932e-06
2.2068905e-06
1.8395436e-06
1.5767404e-06
1.4027129e-06
1.2653931e-06
1.173927e-06
1.096562e-06
1.0131847e-06
9.3241105e-07
8.6131571e-07
7.9725504e-07
7.4320393e-07
6.9902841e-07
6.6321143e-07
6.3653002e-07
6.1298455e-07
5.9836368e-07
5.861248e-07
5.8794102e-07
5.9491097e-07
6.0143282e-07
6.1310474e-07
6.4206648e-07
6.8198316e-07
7.3241769e-07
7.8060721e-07
8.3302037e-07
9.0346765e-07
9.6024455e-07
3.4260849e-06
2.8857148e-06
2.1891126e-06
1.788562e-06
1.5293147e-06
1.3362405e-06
1.2149281e-06
1.1259881e-06
1.0555911e-06
9.9474489e-07
9.401163e-07
8.8183533e-07
8.3246942e-07
7.863412e-07
7.4401131e-07
7.126642e-07
6.9446645e-07
6.8375944e-07
6.8427527e-07
6.9718348e-07
7.2296042e-07
7.6729924e-07
8.038393e-07
8.4523792e-07
8.9345158e-07
9.7766987e-07
1.0390797e-06
1.1212075e-06
1.1655474e-06
1.2849992e-06
1.2900957e-06
3.148002e-06
2.6708847e-06
2.2744361e-06
2.2370973e-06
2.2142925e-06
2.035959e-06
2.0101297e-06
1.8961672e-06
1.819973e-06
1.7679849e-06
1.7272837e-06
1.6174375e-06
1.5593073e-06
1.4919636e-06
1.4386703e-06
1.416047e-06
1.5196882e-06
1.6467086e-06
1.8250643e-06
2.0103092e-06
2.1952604e-06
2.3978249e-06
2.5289471e-06
2.6227563e-06
2.72846e-06
2.9090761e-06
3.0320843e-06
3.1165815e-06
3.124068e-06
3.1708146e-06
3.0560506e-06
3.7711236e-06
5.5519434e-06
7.7890146e-06
8.2350787e-06
1.0667304e-05
8.9384039e-06
9.9189493e-06
9.0263635e-06
8.4660489e-06
8.3892967e-06
8.318441e-06
7.6647538e-06
7.5590614e-06
7.1309063e-06
7.0953671e-06
7.7001298e-06
8.6807921e-06
9.6011619e-06
1.0500572e-05
1.1160455e-05
1.1591838e-05
1.1981167e-05
1.2080272e-05
1.2036509e-05
1.1974962e-05
1.2064185e-05
1.208311e-05
1.202736e-05
1.1808907e-05
1.1580947e-05
1.1060873e-05
1.766955e-05
4.2119148e-05
6.8271397e-05
5.3358524e-05
7.7619794e-05
5.7682574e-05
7.1277498e-05
5.7683771e-05
6.3336841e-05
5.5163086e-05
6.2090926e-05
5.4874149e-05
5.398844e-05
5.1769055e-05
4.6692766e-05
4.3839601e-05
4.2098694e-05
4.0302955e-05
3.9297493e-05
3.8162432e-05
3.7623955e-05
3.6458488e-05
3.6058109e-05
3.551283e-05
3.5637983e-05
3.4612839e-05
3.4319541e-05
3.3339031e-05
3.3716334e-05
3.2734147e-05
3.2318911e-05
3.0801075e-05
1.2095195e-05
3.6342992e-06
1.541023e-06
1.0933516e-06
1.0037258e-06
1.4637087e-06
1.9690626e-06
1.9053773e-06
1.4359368e-06
1.1586852e-06
1.3931804e-06
1.3563672e-06
1.2091524e-06
1.0384449e-06
1.1107482e-06
1.2760803e-06
1.3217552e-06
1.2533957e-06
1.1429567e-06
1.1393912e-06
1.0371991e-06
8.4777561e-07
3.1902134e-05
1.3084277e-05
4.3538129e-06
1.9432509e-06
1.2975437e-06
1.0954666e-06
1.4938501e-06
2.3240058e-06
2.3328003e-06
1.9522372e-06
1.3923833e-06
1.654519e-06
1.6612447e-06
1.5769126e-06
1.3047869e-06
1.3104596e-06
1.4982662e-06
1.5811941e-06
1.5777294e-06
1.4152456e-06
1.4082886e-06
1.3807729e-06
1.2179224e-06
3.0502949e-05
1.394762e-05
5.2377926e-06
2.4982004e-06
1.6436938e-06
1.2794793e-06
1.6756948e-06
2.6507881e-06
2.787941e-06
2.5968387e-06
1.7373956e-06
1.8676705e-06
1.9202427e-06
1.8907858e-06
1.6967096e-06
1.5672599e-06
1.7345271e-06
1.8354428e-06
1.8098812e-06
1.6404184e-06
1.6377817e-06
1.677785e-06
1.6619212e-06
3.1251955e-05
1.5031846e-05
6.3965379e-06
3.424016e-06
2.3305035e-06
1.6612862e-06
2.0860252e-06
3.2771408e-06
3.5934329e-06
3.6014429e-06
2.4593361e-06
2.3192534e-06
2.4509362e-06
2.4907054e-06
2.408138e-06
2.0100896e-06
2.0491777e-06
2.1412611e-06
2.2016458e-06
2.1276064e-06
1.9629072e-06
1.9959475e-06
1.9603781e-06
2.6740564e-05
1.6652496e-05
8.6052516e-06
5.2116879e-06
3.5474052e-06
2.3677049e-06
2.7810142e-06
4.3248503e-06
4.7400587e-06
4.9721179e-06
4.1861707e-06
3.1063105e-06
3.3725056e-06
3.3262429e-06
3.3404837e-06
2.9407247e-06
2.6338887e-06
2.7939758e-06
2.7751653e-06
2.8322383e-06
2.6622036e-06
2.6604585e-06
2.5748263e-06
2.6402641e-05
1.8049595e-05
1.0628557e-05
6.9345849e-06
4.8028691e-06
3.2466382e-06
3.4672383e-06
5.1557057e-06
5.783388e-06
6.1051381e-06
5.933304e-06
4.4483006e-06
4.5694768e-06
4.4663028e-06
4.076704e-06
3.7814692e-06
3.3115456e-06
3.5210737e-06
3.8168448e-06
3.9258014e-06
3.8880794e-06
3.7631441e-06
3.8008284e-06
2.5161155e-05
1.9411543e-05
1.2607232e-05
8.9917337e-06
6.3368958e-06
4.5527823e-06
4.5517348e-06
6.5603661e-06
7.6591298e-06
7.9014315e-06
8.0447187e-06
6.5866383e-06
6.2923134e-06
6.1770315e-06
5.5179735e-06
4.9125741e-06
4.2345435e-06
4.2794115e-06
4.6224483e-06
4.7581586e-06
4.7776563e-06
4.6355924e-06
4.6761431e-06
2.4604951e-05
2.0932289e-05
1.6005363e-05
1.364692e-05
9.7377435e-06
7.1160054e-06
6.8918353e-06
1.0162175e-05
1.2039371e-05
1.1732594e-05
1.1809845e-05
1.0368623e-05
9.2985627e-06
9.6296589e-06
9.1376087e-06
7.6003475e-06
6.2011498e-06
5.8182108e-06
6.4373796e-06
6.5596484e-06
6.0752388e-06
5.537314e-06
5.3465356e-06
2.3521109e-05
2.2786832e-05
2.2329353e-05
2.2294715e-05
1.9574629e-05
1.3818657e-05
1.2811655e-05
1.9410287e-05
2.2260772e-05
1.9954901e-05
1.931222e-05
1.7499385e-05
1.603371e-05
1.7743345e-05
1.7648535e-05
1.4473811e-05
1.0866845e-05
9.0574016e-06
9.5062246e-06
1.0224207e-05
9.3337923e-06
7.8534665e-06
6.6365355e-06
2.1509187e-05
2.4875483e-05
2.7642854e-05
3.0305072e-05
3.1601257e-05
2.9326832e-05
2.7917881e-05
4.2527656e-05
4.7508377e-05
3.9512869e-05
3.2075232e-05
2.8995216e-05
2.5468719e-05
2.8248901e-05
2.9791451e-05
2.7521832e-05
1.986573e-05
1.5239409e-05
1.5697853e-05
1.9901249e-05
1.9065231e-05
1.4575741e-05
1.0354794e-05
2.4638807e-05
3.0008242e-05
3.9798689e-05
4.773856e-05
5.5685067e-05
6.0472744e-05
6.6050581e-05
0.00010216937
0.00011546938
9.328431e-05
6.485918e-05
5.5306226e-05
4.4996288e-05
5.0681219e-05
6.0072194e-05
5.717713e-05
3.8149117e-05
2.6534555e-05
2.3075926e-05
2.7673399e-05
3.1181422e-05
2.7939571e-05
2.0286375e-05
2.7328322e-05
3.8085655e-05
5.433072e-05
6.5845112e-05
8.2409537e-05
0.0001140918
0.00016600567
0.00024111037
0.00024426353
0.00021719515
0.00015297659
0.00012243455
9.9439039e-05
0.00011919477
0.00015751988
0.00013900715
8.1180372e-05
4.9614644e-05
3.789331e-05
4.1253087e-05
5.148782e-05
5.0502211e-05
3.6721648e-05
3.6375458e-05
5.4982481e-05
8.1052516e-05
9.9062014e-05
0.00014220776
0.00023113654
0.00037600229
0.00050677548
0.00050173916
0.00042074753
0.00029303188
0.00025590738
0.00027215398
0.00037482341
0.00045291015
0.00032476682
0.00015396323
9.5400957e-05
7.6104307e-05
7.6908326e-05
9.6174299e-05
9.5873201e-05
6.9037494e-05
4.6806097e-05
7.5232128e-05
0.0001132577
0.0001410519
0.00022366712
0.00039982141
0.00069517275
0.00084859532
0.00083603172
0.00070973928
0.00055546918
0.000552492
0.00070485549
0.0011597688
0.0011976269
0.00075256259
0.00031140506
0.00020127207
0.00017713768
0.0001805093
0.00024203417
0.00022601357
0.00014267242
5.7473997e-05
9.2353163e-05
0.0001462405
0.00018973463
0.00031586149
0.00058214779
0.00096935831
0.0011315876
0.0010983497
0.00090471091
0.00077627246
0.00085188754
0.0013235962
0.0020513859
0.0020537775
0.0012640495
0.00052229221
0.00037743133
0.00037248159
0.00044869542
0.00057291567
0.00047385147
0.0002366261
6.7434614e-05
0.00011184381
0.00019285389
0.00025698314
0.00043261101
0.00078829649
0.0011922018
0.0013494653
0.0012843336
0.0010620592
0.0010000097
0.0011716784
0.0019679182
0.0028032488
0.0027257056
0.0017148633
0.00084014731
0.00069014194
0.00084300867
0.001207519
0.0013468438
0.0010243653
0.00045258487
7.7572976e-05
0.00012684768
0.00022655303
0.00031797223
0.00053360703
0.00094390042
0.0013452261
0.0015058617
0.0014497329
0.0012876276
0.0012970417
0.0015575041
0.0025554865
0.00342547
0.0032980415
0.0022041846
0.0012521048
0.0011031556
0.0014295962
0.0018322113
0.0018823299
0.0014368141
0.00066199611
8.0852379e-05
0.00013815168
0.00025826904
0.00037686881
0.00062424436
0.0010653014
0.0014663268
0.0016351326
0.0016025003
0.0015105479
0.0015671936
0.001936199
0.0030835887
0.0039238944
0.0036725356
0.0024792364
0.0015965487
0.0014807284
0.0019153199
0.0022909822
0.0022687824
0.0017123937
0.00088969672
7.9713133e-05
0.00014078849
0.00026881975
0.00042272688
0.00072201546
0.0012122954
0.0016271562
0.001815524
0.0018236652
0.0018036812
0.0019120663
0.0024149465
0.0036820445
0.0044691551
0.0040781547
0.0028623198
0.0023271431
0.0023595941
0.003068519
0.0033900769
0.0031017704
0.0021389373
0.001289281
7.6221892e-05
0.0001362703
0.00026346528
0.00044501294
0.00079326822
0.0013348176
0.0017964112
0.0020263043
0.0020799225
0.0021242395
0.0023025171
0.0029781392
0.0043480317
0.0050732073
0.0045825109
0.0035679598
0.0032603955
0.0036102742
0.0043813529
0.0045903662
0.0040757688
0.0026770971
0.001722524
7.3206902e-05
0.00011784866
0.00022756323
0.00044088587
0.00084080825
0.0014432769
0.0019529795
0.002252178
0.0023912919
0.0025292989
0.0028440008
0.0037423213
0.0049631303
0.0054729467
0.0049823166
0.0044016891
0.0042590939
0.0048007875
0.0052893539
0.0053478616
0.0045493034
0.0030386952
0.0023468857
7.2154822e-05
0.00010257646
0.00019143283
0.00040045037
0.0008417426
0.0015177077
0.0020694865
0.0024607692
0.0027310922
0.0030048031
0.0035609038
0.0045122659
0.0053232355
0.0055837568
0.0053700817
0.0051388588
0.0052188087
0.0057711585
0.0059643929
0.0056630181
0.0046380979
0.0035969215
0.0034580857
7.5859557e-05
9.5387714e-05
0.00016611846
0.00035150241
0.00079601835
0.0015254604
0.0021998003
0.0027570499
0.0032006042
0.0036135903
0.0042200284
0.0048768639
0.0053428273
0.0055796959
0.0056535059
0.005731536
0.0060048085
0.0062839428
0.0062996104
0.0057393332
0.0047779116
0.0043304338
0.0042462207
8.7581366e-05
9.885482e-05
0.00015089162
0.00030359796
0.00073342453
0.0015344532
0.0023442133
0.0030809461
0.0036374138
0.0040419923
0.0044950562
0.0049176965
0.005254001
0.0055281423
0.0057513144
0.0059960249
0.0063610526
0.0065170511
0.0062873314
0.0055925806
0.0048106024
0.0043548757
0.0040099803
0.0001125415
0.00011821423
0.00015724243
0.00029643666
0.00072399367
0.0015796743
0.0024713308
0.0032741809
0.0038205061
0.0041876731
0.0045836766
0.0049194511
0.0052011295
0.0054749543
0.0057461114
0.0060672389
0.0063598315
0.0063328966
0.005824047
0.0050546096
0.0043732035
0.003906462
0.0034717651
0.00016172755
0.00016348426
0.00019791216
0.00035656533
0.00082543429
0.0016369523
0.0024692598
0.0032519028
0.0038217986
0.0042472078
0.0046421853
0.0049509648
0.0052198912
0.0055134631
0.005713485
0.0058745141
0.0058037817
0.0053836717
0.0048785693
0.0043683662
0.0039054446
0.0034024485
0.0028318302
0.00020898466
0.00020404314
0.00025348584
0.00044475306
0.00094524448
0.0016858637
0.0024073986
0.0031136216
0.0037217154
0.00423601
0.0046771205
0.0049681882
0.0052332193
0.0054363048
0.0054250151
0.0051614351
0.0046512089
0.004164636
0.0039010657
0.0036935836
0.0033116245
0.0027351552
0.002402478
0.00023634331
0.00024606579
0.00032058464
0.00056744682
0.0011187652
0.0017762735
0.0024261723
0.0030634613
0.0036216847
0.0041211899
0.0045089964
0.0047524787
0.0049340768
0.0049404577
0.004663073
0.0041772092
0.0036394352
0.0032751395
0.0031004499
0.0028872582
0.0025474047
0.0023335849
0.0022927871
0.00024176893
0.0002785056
0.00039879132
0.00071899976
0.0012859425
0.0018998848
0.0025092132
0.0030783809
0.0035384894
0.0038540007
0.004038559
0.0041443853
0.0042096473
0.0041743469
0.0039242556
0.0034837444
0.0029965723
0.0026897855
0.0025461612
0.0024141176
0.002293242
0.0022515832
0.0023379855
0.0002488169
0.00033844842
0.00052124228
0.00088094275
0.0014115805
0.0019627098
0.0025017932
0.0029761194
0.003310669
0.0034680778
0.0035033394
0.0034882032
0.0034724984
0.0034227482
0.0032333198
0.0028822445
0.0025509493
0.0024135544
0.0023840124
0.0024036443
0.002385619
0.0024845262
0.0028719589
0.00025962526
0.00046570066
0.00067033503
0.0010162054
0.0014525154
0.0019056772
0.0023463055
0.0027365865
0.0030139571
0.0031270373
0.0031260727
0.0030615007
0.002985883
0.0028643517
0.0026234742
0.0023193118
0.0021972611
0.002207946
0.0023822239
0.002564575
0.0027791527
0.0030796876
0.0034286042
0.0002694599
0.00057583065
0.00078491062
0.0010923331
0.0014499155
0.0018202599
0.0021745136
0.0024737354
0.00267246
0.0027712705
0.0027878664
0.002721498
0.0025987372
0.002412846
0.0021692701
0.0020250012
0.0019978599
0.0021436164
0.0024935838
0.0029254944
0.0032196857
0.0034021512
0.0035236027
0.00026768837
0.00064408767
0.00083100674
0.0011150605
0.0014499192
0.0017802957
0.0020589716
0.0022723446
0.0023883838
0.0024302102
0.0024029499
0.0023244666
0.0022211414
0.0020922953
0.0019903225
0.0019559383
0.0020491086
0.002356391
0.0028079665
0.0030969767
0.0032486426
0.0033023581
0.0032017299
0.0002704261
0.00067100118
0.00083314557
0.0010961005
0.0014035257
0.0016989463
0.0019487397
0.0021114636
0.0021586731
0.0021350185
0.0020363962
0.0019156024
0.0018557747
0.0018515168
0.0019048602
0.0020374644
0.0023124691
0.0027144693
0.0029521852
0.0030209926
0.0029934917
0.0028919364
0.0025548344
0.00028400888
0.00069439883
0.00084669611
0.001091882
0.0013598064
0.0016027328
0.0017958935
0.0019057799
0.0019314319
0.0018820955
0.0017706607
0.0016968262
0.0016888196
0.0017690566
0.0019271929
0.002184516
0.0024994164
0.0027470224
0.0028173666
0.0027217655
0.0024552309
0.0021346031
0.0017180691
0.00026166916
0.00067742101
0.0008272004
0.0010393066
0.0012581024
0.0014485281
0.0015942064
0.0016826764
0.0017201155
0.0016988045
0.0016234695
0.0015715331
0.0015776264
0.0016696011
0.0018444195
0.0020781274
0.0023198771
0.0024684077
0.0024490893
0.0022436152
0.0019185407
0.0015454556
0.0011978197
0.00024959146
0.00064123945
0.00078737136
0.00097718063
0.0011728943
0.0013385003
0.0014570527
0.0015185048
0.0015338711
0.0015061097
0.001449052
0.0014164949
0.0014372733
0.0015365984
0.0017055167
0.0018992559
0.0020518247
0.0021128818
0.0020614827
0.0018992985
0.0016375147
0.0013361987
0.0010534789
0.00023262592
0.00060461745
0.00074382572
0.00091083752
0.0010824515
0.0012311083
0.0013384298
0.001389459
0.0013922465
0.0013541163
0.0012964353
0.0012710938
0.001307381
0.0014288543
0.0016101637
0.0017877414
0.0018975537
0.0019136776
0.0018264011
0.001654506
0.0014324274
0.0011916566
0.00096585348
0.00022974815
0.00059050844
0.00072073361
0.0008601369
0.00099817874
0.0011178176
0.0012078431
0.0012554568
0.0012621939
0.0012292543
0.0011805851
0.001163104
0.0012099834
0.0013386888
0.0015128914
0.001668106
0.0017472102
0.0017413386
0.0016500775
0.0014934036
0.0013060174
0.0011211623
0.00095131183
0.00020540936
0.00055200212
0.00068582735
0.00081445378
0.00093205561
0.001028199
0.0010970076
0.0011314446
0.0011359521
0.0011102543
0.001079532
0.0010797144
0.0011465142
0.0012860326
0.0014521179
0.0015791017
0.001630011
0.0016107034
0.0015248921
0.0013935568
0.001246445
0.001106225
0.00097935461
0.00019624412
0.00052462745
0.00065424146
0.00077304369
0.00088018657
0.00096489042
0.0010192329
0.0010400488
0.0010338948
0.0010050419
0.00098372142
0.0010000291
0.001087773
0.0012378452
0.0013952639
0.0014985226
0.0015311057
0.0015060701
0.0014338715
0.0013351674
0.0012292862
0.0011290542
0.0010405989
0.00017544747
0.00048190661
0.0006083044
0.0007225195
0.00082243217
0.00089997962
0.00094752219
0.00096269996
0.00095044845
0.00091910898
0.00090250876
0.00093079409
0.0010337068
0.0011888526
0.0013367277
0.0014246131
0.0014518016
0.0014349235
0.0013845377
0.0013160349
0.0012429019
0.0011742176
0.0011155207
0.00017185563
0.00046523145
0.00058421444
0.00068072954
0.00076479325
0.00083025047
0.00087012512
0.0008828271
0.00087062649
0.00084386297
0.00083496729
0.00087674325
0.00099289594
0.0011501173
0.0012882596
0.0013668801
0.0013939828
0.001389738
0.0013596155
0.00131607
0.0012697431
0.00122964
0.0011908673
0.00014421372
0.00040734012
0.00053639947
0.00063473867
0.00071300516
0.00077085986
0.0008044895
0.00081437884
0.00080190893
0.00077916342
0.00077717525
0.0008305818
0.00095636169
0.0011124347
0.0012416633
0.0013161289
0.0013464293
0.0013523772
0.0013430056
0.0013245927
0.0013074433
0.0012903549
0.001264343
0.00013124133
0.00038040911
0.00050143234
0.00058959126
0.00066444938
0.00072064121
0.00075202035
0.0007592449
0.00074536532
0.00072404107
0.00072484816
0.00078312289
0.00091102929
0.0010626955
0.0011853071
0.0012615446
0.0013023425
0.0013243801
0.0013375735
0.0013462816
0.0013547723
0.0013562504
0.0013390008
0.00010562555
0.00031470718
0.00045169398
0.0005422987
0.00061276972
0.00066711566
0.00070007428
0.00070815892
0.00069410786
0.00067173086
0.00067179301
0.00072996987
0.00085626582
0.0010061096
0.0011297996
0.0012141824
0.001269666
0.0013102349
0.0013452478
0.0013803387
0.0014105637
0.0014216069
0.0014112144
9.9134735e-05
0.00029207575
0.00042053225
0.00050327976
0.00056727706
0.00061655488
0.0006490411
0.00066113118
0.00065148506
0.00062862314
0.00062310905
0.00067526999
0.00079873726
0.00094916155
0.0010782231
0.0011723591
0.001241422
0.0012979474
0.0013516605
0.0014090803
0.0014600146
0.0014805231
0.0014765879
8.9457315e-05
0.0002238271
0.00036005037
0.00045161633
0.00052052865
0.00057330865
0.0006070999
0.00062144015
0.00061703117
0.00059748411
0.00058531654
0.00062213325
0.00073611716
0.0008848042
0.001018354
0.0011206787
0.0012006411
0.0012711421
0.0013413576
0.0014162886
0.001491931
0.0015325595
0.001540569
9.7252572e-05
0.00021269992
0.0003313177
0.00040691543
0.00046808665
0.00052382357
0.00056550024
0.00058538887
0.00058326584
0.00056823156
0.00054870629
0.00056878864
0.00065930629
0.00080626724
0.00094457429
0.0010571175
0.0011489599
0.0012330433
0.0013189324
0.0014091928
0.0015037373
0.0015755967
0.001599265
9.9293311e-05
0.00017862526
0.00031089664
0.00038422292
0.00043252047
0.00047562414
0.0005185032
0.00054935786
0.00055648274
0.0005464577
0.00052208693
0.00052172713
0.00057781871
0.00071373359
0.00086305453
0.00098637316
0.0010898027
0.0011851806
0.0012827302
0.0013871869
0.0014941361
0.0015905875
0.0016395073
0.00011536925
0.00016329927
0.00027255953
0.00036539776
0.00041687722
0.00044861087
0.00047711895
0.00050696716
0.0005271872
0.00052794068
0.00051324636
0.00049204515
0.00051468663
0.00060601266
0.00076369563
0.00090225291
0.0010141658
0.0011149458
0.0012179291
0.0013300995
0.0014498082
0.0015652196
0.0016535118
0.00011819856
0.00012286418
0.00019496769
0.00032251591
0.00039941664
0.00043867862
0.00046138101
0.00047795357
0.00049290961
0.00050160442
0.00049798004
0.00048184824
0.00047673411
0.00051581466
0.00063306379
0.00079454987
0.00092253717
0.0010279015
0.0011317944
0.0012457784
0.0013719936
0.001503965
0.0016227309
0.00015171975
0.00011693802
0.00014943662
0.00023425059
0.00034815001
0.00041948103
0.00045057718
0.00046439281
0.00047281747
0.00047721862
0.0004760307
0.00046865742
0.00045401739
0.00046378246
0.0005174364
0.0006483642
0.00080905835
0.00093294892
0.0010379669
0.0011484084
0.001274529
0.0014133088
0.0015510699
0.00016154351
0.00011211954
0.00013739147
0.00019542631
0.00028848368
0.00037838063
0.00043454949
0.00046151366
0.00047170459
0.00047287216
0.00047047723
0.00046372375
0.00044937067
0.00043856915
0.00045376161
0.00051482152
0.00064910846
0.00080899046
0.00093427534
0.0010416201
0.0011576724
0.0012945833
0.0014396159
0.00019735058
0.00012306425
0.00013958351
0.00018753439
0.00026616549
0.00035013572
0.00042644917
0.00046657372
0.00047850921
0.00047809362
0.00047414464
0.00046605494
0.00045166071
0.00043574751
0.00042689905
0.00044343599
0.00050400539
0.00063395249
0.00079384993
0.00092394989
0.0010350259
0.0011582621
0.0012944615
0.0002126878
0.00013631074
0.00015411461
0.00019807493
0.00026693232
0.00034511436
0.00042292798
0.00048886431
0.00051028716
0.00050502101
0.00049232102
0.00047832237
0.00046142674
0.00044131591
0.00042569648
0.00041740702
0.00043197153
0.0004861064
0.00060505586
0.00076492737
0.00090367804
0.00102638
0.001146927
0.00024522893
0.0001568656
0.00017183249
0.00021668599
0.00027750642
0.0003450554
0.00041905143
0.00049275171
0.00055613108
0.00057980764
0.00056222259
0.00052462626
0.00049311749
0.0004626773
0.00043611627
0.00041866627
0.00041002909
0.00042038551
0.00046392813
0.00056642442
0.00072212393
0.00087806658
0.0010102108
0.00026698765
0.00016673018
0.0001838548
0.00022759485
0.00028114448
0.00034212325
0.00041158817
0.00048703246
0.00055775628
0.00062334358
0.00066062421
0.00064498206
0.00060093855
0.00052984925
0.00047715405
0.00043851096
0.0004157131
0.00040566039
0.00041057747
0.00044163925
0.00052273348
0.000670103
0.00084694648
0.000283709
0.00016839815
0.00018507293
0.00022592157
0.00027394057
0.00032839414
0.00039097024
0.00046377749
0.00054305906
0.00061908791
0.00068770818
0.00073489685
0.00072834397
0.00069239439
0.00061206238
0.00051346369
0.00045220375
0.00041843692
0.00040531909
0.00040341075
0.00042338813
0.00048990424
0.00064751443
0.00028529827
0.00015207801
0.00017060528
0.00021080003
0.00025605498
0.000308806
0.00036943591
0.00043907611
0.00051720924
0.00059988339
0.00068127161
0.00075432974
0.00080611288
0.00080888822
0.00078244472
0.00070746008
0.00057347786
0.00047976763
0.00042787982
0.00040564495
0.00039800949
0.0004123277
0.00048041821
0.00027900183
0.00012485774
0.00014920858
0.000191585
0.000237876
0.00029058748
0.00035151759
0.00042262708
0.0005040719
0.00059128324
0.00067853723
0.00076287456
0.00083867356
0.00089143055
0.0008967635
0.00087276016
0.00080395458
0.00066185651
0.00052082171
0.00044286204
0.00040729513
0.00039563624
0.00041011888
0.00026574453
0.00010491103
0.00013485455
0.00017579136
0.00022077139
0.00027167262
0.00033119654
0.00040270466
0.00048750262
0.00058239495
0.0006793796
0.00077458091
0.00086346289
0.00093922907
0.00098815689
0.00098902495
0.00096508324
0.0008958778
0.00075323953
0.00057690453
0.00046684879