/*--------------------------------*- C++ -*----------------------------------*\
| =========                 |                                                 |
| \\      /  F ield         | OpenFOAM: The Open Source CFD Toolbox           |
|  \\    /   O peration     | Version:  2406                                  |
|   \\  /    A nd           | Website:  www.openfoam.com                      |
|    \\/     M anipulation  |                                                 |
\*---------------------------------------------------------------------------*/
FoamFile
{
    version     2.0;
    format      ascii;
    arch        "LSB;label=32;scalar=64";
    class       volScalarField;
    location    "160";
    object      nutMean;
}
// * * * * * * * * * * * * * * * * * * * * * * * * * * * * * * * * * * * * * //

dimensions      [0 2 -1 0 0 0 0];

internalField   nonuniform List<scalar> 
20580
(
8.8927991e-07
8.9997742e-07
8.778974e-07
8.553077e-07
8.3830177e-07
8.260108e-07
8.1682626e-07
8.0968599e-07
8.0384508e-07
7.9838805e-07
7.9445965e-07
7.9046437e-07
7.8868105e-07
7.8631505e-07
7.8603862e-07
7.8569178e-07
7.8848066e-07
7.9295932e-07
7.9900707e-07
8.0631016e-07
8.1385398e-07
8.1821158e-07
8.2413411e-07
8.4197965e-07
8.6449639e-07
8.8755008e-07
9.1255617e-07
9.3385568e-07
9.6209899e-07
1.0093761e-06
1.0892357e-06
8.9016225e-07
9.0678911e-07
8.9101486e-07
8.7375145e-07
8.5494434e-07
8.372656e-07
8.2363305e-07
8.1393678e-07
8.0683014e-07
8.003435e-07
7.9584922e-07
7.913231e-07
7.8871197e-07
7.8654126e-07
7.8484884e-07
7.8437364e-07
7.8640031e-07
7.9148432e-07
7.9796085e-07
8.063237e-07
8.1700839e-07
8.2487787e-07
8.296353e-07
8.4637586e-07
8.6828323e-07
9.0035918e-07
9.3531348e-07
9.7219556e-07
1.0040605e-06
1.0421963e-06
1.0899425e-06
8.8970147e-07
9.094533e-07
8.9426704e-07
8.8353277e-07
8.714808e-07
8.5630167e-07
8.3936381e-07
8.2517012e-07
8.1453832e-07
8.0560196e-07
7.9929062e-07
7.936748e-07
7.8968025e-07
7.8682307e-07
7.8437469e-07
7.82865e-07
7.8427464e-07
7.8797812e-07
7.9432259e-07
8.0190224e-07
8.1305546e-07
8.2275256e-07
8.3017455e-07
8.4440869e-07
8.6425052e-07
8.9581898e-07
9.285305e-07
9.6339051e-07
1.0048354e-06
1.0517504e-06
1.1203256e-06
8.8928177e-07
9.0995019e-07
8.9600994e-07
8.8698723e-07
8.7808133e-07
8.687783e-07
8.5854106e-07
8.4435324e-07
8.3144135e-07
8.1909725e-07
8.0923831e-07
8.0108504e-07
7.9462456e-07
7.8993251e-07
7.8622413e-07
7.8301616e-07
7.8297377e-07
7.8531975e-07
7.9073645e-07
7.9771271e-07
8.072289e-07
8.1847417e-07
8.2641163e-07
8.4064484e-07
8.5995107e-07
8.8777067e-07
9.2660618e-07
9.5969823e-07
9.9072153e-07
1.0276509e-06
1.0965442e-06
8.8908402e-07
9.1214847e-07
8.9732332e-07
8.8865047e-07
8.829049e-07
8.7641843e-07
8.7025145e-07
8.6372414e-07
8.5411439e-07
8.4258475e-07
8.3036447e-07
8.1946561e-07
8.0931301e-07
8.0061341e-07
7.9414855e-07
7.8831647e-07
7.8529632e-07
7.8547202e-07
7.8869294e-07
7.9452992e-07
8.027688e-07
8.1446686e-07
8.251974e-07
8.3904179e-07
8.5862769e-07
8.8800028e-07
9.3182816e-07
9.759927e-07
1.0102657e-06
1.0519473e-06
1.0926468e-06
8.8945261e-07
9.1684132e-07
9.0004945e-07
8.9104377e-07
8.8538953e-07
8.8150192e-07
8.7700552e-07
8.7356e-07
8.6928389e-07
8.6388844e-07
8.5624946e-07
8.4580765e-07
8.3540939e-07
8.2426139e-07
8.1455381e-07
8.0530075e-07
7.9759758e-07
7.9387124e-07
7.9285343e-07
7.954308e-07
8.0103253e-07
8.1133914e-07
8.2095266e-07
8.3492513e-07
8.5174483e-07
8.7974468e-07
9.1859785e-07
9.8520135e-07
1.0267232e-06
1.1075941e-06
1.1303089e-06
8.9307463e-07
9.205388e-07
9.0157131e-07
8.9206404e-07
8.8568406e-07
8.8104079e-07
8.7854226e-07
8.779184e-07
8.7737499e-07
8.7515353e-07
8.7345317e-07
8.6925966e-07
8.6374319e-07
8.5541158e-07
8.4480012e-07
8.3449887e-07
8.2411154e-07
8.1725413e-07
8.1132815e-07
8.0937656e-07
8.0791867e-07
8.1394546e-07
8.1855862e-07
8.2776935e-07
8.4185686e-07
8.6019935e-07
8.8921722e-07
9.5597683e-07
1.0079049e-06
1.0935539e-06
1.1593342e-06
9.0909974e-07
9.5931248e-07
9.1942749e-07
8.9912449e-07
8.8757913e-07
8.8072686e-07
8.7706675e-07
8.7550428e-07
8.7669209e-07
8.7814304e-07
8.801748e-07
8.8160253e-07
8.8026515e-07
8.7964559e-07
8.7404378e-07
8.6819528e-07
8.5755597e-07
8.501143e-07
8.4157296e-07
8.3795859e-07
8.323448e-07
8.3194983e-07
8.3233207e-07
8.3298879e-07
8.4046719e-07
8.5249474e-07
8.6810624e-07
8.9983778e-07
9.4962198e-07
1.0150613e-06
1.1319461e-06
1.0156487e-06
1.0855538e-06
1.0099556e-06
9.4934559e-07
9.1528578e-07
8.9540478e-07
8.8446963e-07
8.7852722e-07
8.7574844e-07
8.7543292e-07
8.7543936e-07
8.788773e-07
8.8096975e-07
8.8493398e-07
8.8570936e-07
8.867485e-07
8.8446332e-07
8.81376e-07
8.7599447e-07
8.6973966e-07
8.6425787e-07
8.6030924e-07
8.624562e-07
8.6405451e-07
8.6492933e-07
8.7223541e-07
8.82948e-07
9.0341632e-07
9.4384977e-07
9.8209341e-07
1.0584634e-06
9.4485094e-07
1.0578239e-06
1.0959537e-06
1.0862896e-06
1.0370695e-06
9.8246176e-07
9.4113609e-07
9.1526496e-07
8.9779282e-07
8.8860066e-07
8.819621e-07
8.8033081e-07
8.7886546e-07
8.8065186e-07
8.8182083e-07
8.8457891e-07
8.8665449e-07
8.9003789e-07
8.9396609e-07
8.9680286e-07
8.9805892e-07
8.9784208e-07
8.9915e-07
9.0472502e-07
9.0969614e-07
9.1951748e-07
9.3720625e-07
9.6028036e-07
9.9463842e-07
1.0330081e-06
1.0779961e-06
8.5644291e-07
9.2943062e-07
1.0331989e-06
1.1023787e-06
1.1473155e-06
1.1603037e-06
1.1365071e-06
1.0903008e-06
1.0378945e-06
9.9473661e-07
9.5945256e-07
9.3617558e-07
9.1876703e-07
9.0785682e-07
9.0028919e-07
8.9653911e-07
8.9389078e-07
8.9466253e-07
8.9784431e-07
9.0279266e-07
9.094641e-07
9.2000003e-07
9.2899494e-07
9.4194762e-07
9.5152379e-07
9.6382709e-07
9.8040698e-07
1.0208457e-06
1.0543153e-06
1.1245018e-06
1.1439905e-06
8.7709179e-07
9.1013133e-07
9.3202608e-07
9.9707144e-07
1.0696643e-06
1.1423916e-06
1.1970492e-06
1.2407e-06
1.2605786e-06
1.2573189e-06
1.2295756e-06
1.1896221e-06
1.1432365e-06
1.0977401e-06
1.0556999e-06
1.0194231e-06
9.8933972e-07
9.6642948e-07
9.5011301e-07
9.4299461e-07
9.3908207e-07
9.4076417e-07
9.4964891e-07
9.6096893e-07
9.7277102e-07
9.8411504e-07
9.9814248e-07
1.0278887e-06
1.0655857e-06
1.1359411e-06
1.2054596e-06
9.1075981e-07
9.8946596e-07
9.5852747e-07
9.5270791e-07
9.6565565e-07
1.0045458e-06
1.0675056e-06
1.1367387e-06
1.2027867e-06
1.2618329e-06
1.3094112e-06
1.3451301e-06
1.3663482e-06
1.3722132e-06
1.3609425e-06
1.3355264e-06
1.2943504e-06
1.2483132e-06
1.1989548e-06
1.1542332e-06
1.1153565e-06
1.081276e-06
1.0576444e-06
1.0458619e-06
1.0376605e-06
1.0310747e-06
1.0315452e-06
1.0442125e-06
1.0705538e-06
1.1138828e-06
1.1666273e-06
8.8810398e-07
9.6913694e-07
9.7666844e-07
9.8023489e-07
9.7684124e-07
9.7888253e-07
9.8404695e-07
1.0061553e-06
1.037243e-06
1.0842372e-06
1.1418326e-06
1.2010583e-06
1.2583197e-06
1.3104032e-06
1.3559778e-06
1.395065e-06
1.4254299e-06
1.4444144e-06
1.4537525e-06
1.448602e-06
1.4335294e-06
1.404237e-06
1.3693843e-06
1.3309538e-06
1.2942581e-06
1.2570141e-06
1.2236581e-06
1.2036262e-06
1.2018735e-06
1.2247721e-06
1.224359e-06
9.0114651e-07
9.5735915e-07
9.5840297e-07
9.7192796e-07
9.7601619e-07
9.8057078e-07
9.8299206e-07
9.8840925e-07
9.9463329e-07
1.0054229e-06
1.0206483e-06
1.0433293e-06
1.0741763e-06
1.1132333e-06
1.1588123e-06
1.2088116e-06
1.2603135e-06
1.3092243e-06
1.3562816e-06
1.3993533e-06
1.4412338e-06
1.4822374e-06
1.5211393e-06
1.5602688e-06
1.5882383e-06
1.6093361e-06
1.6054837e-06
1.6117227e-06
1.5907233e-06
1.6104432e-06
1.5626744e-06
8.7322517e-07
9.1505997e-07
9.1583645e-07
9.2124614e-07
9.2724656e-07
9.3563993e-07
9.4410919e-07
9.5320155e-07
9.6018546e-07
9.6771518e-07
9.7613997e-07
9.853439e-07
9.9628715e-07
1.0096568e-06
1.0253385e-06
1.0459991e-06
1.0703566e-06
1.1041846e-06
1.1443993e-06
1.1943946e-06
1.2491586e-06
1.3135851e-06
1.3740557e-06
1.451569e-06
1.5146417e-06
1.5981268e-06
1.6573404e-06
1.7376282e-06
1.7980496e-06
1.8785381e-06
1.9332308e-06
8.7720279e-07
9.2502503e-07
9.1239045e-07
9.0531328e-07
8.9957885e-07
8.9881834e-07
8.9856928e-07
9.0179436e-07
9.0439863e-07
9.1034832e-07
9.1675625e-07
9.2399991e-07
9.320369e-07
9.4125844e-07
9.5101153e-07
9.6116507e-07
9.7230212e-07
9.8537161e-07
1.0025422e-06
1.0250833e-06
1.052504e-06
1.0893697e-06
1.1323794e-06
1.1953761e-06
1.2671949e-06
1.3543313e-06
1.441029e-06
1.5271497e-06
1.6274091e-06
1.7116182e-06
1.8387774e-06
8.8180379e-07
9.0878068e-07
9.0120329e-07
8.9705754e-07
8.9095366e-07
8.8653548e-07
8.8225011e-07
8.799601e-07
8.7741103e-07
8.7661748e-07
8.7699364e-07
8.780661e-07
8.8063988e-07
8.843529e-07
8.8960462e-07
8.9523314e-07
9.0159279e-07
9.0871752e-07
9.1782e-07
9.3044743e-07
9.4655873e-07
9.6544541e-07
9.8839193e-07
1.0146552e-06
1.0511891e-06
1.086852e-06
1.1443395e-06
1.1874508e-06
1.2703028e-06
1.3249894e-06
1.4647565e-06
8.7473019e-07
8.9631999e-07
8.8688798e-07
8.8429579e-07
8.798314e-07
8.7524951e-07
8.7163852e-07
8.6867565e-07
8.6597967e-07
8.6340247e-07
8.6209005e-07
8.6072285e-07
8.613804e-07
8.6174179e-07
8.6422069e-07
8.6587318e-07
8.6933377e-07
8.7170505e-07
8.7688006e-07
8.8363597e-07
8.9407161e-07
9.0801881e-07
9.2422156e-07
9.4251755e-07
9.6548763e-07
9.9007614e-07
1.0290094e-06
1.0605918e-06
1.1131803e-06
1.1480038e-06
1.2115803e-06
8.7431767e-07
9.1202973e-07
8.9975525e-07
9.0032478e-07
9.0089517e-07
9.0021485e-07
9.0131235e-07
9.0171502e-07
9.0289636e-07
9.0246836e-07
9.0270013e-07
9.0380485e-07
9.0579864e-07
9.0830027e-07
9.1149414e-07
9.1428494e-07
9.1759506e-07
9.2136877e-07
9.2890513e-07
9.4252872e-07
9.5906157e-07
9.7728399e-07
9.8960081e-07
9.9766671e-07
9.819195e-07
9.5491403e-07
9.2760896e-07
9.6159892e-07
9.9484956e-07
1.0676583e-06
1.0809749e-06
8.6598598e-07
9.4473516e-07
9.8796607e-07
1.0503783e-06
1.1008739e-06
1.1433947e-06
1.1855108e-06
1.2175124e-06
1.2659776e-06
1.2752374e-06
1.2977613e-06
1.3244779e-06
1.3484658e-06
1.375312e-06
1.400765e-06
1.424044e-06
1.4502924e-06
1.4768178e-06
1.5023228e-06
1.5169692e-06
1.5113451e-06
1.5232674e-06
1.5313608e-06
1.542772e-06
1.5371951e-06
1.5063279e-06
1.4696012e-06
1.4673636e-06
1.4579955e-06
1.4549626e-06
1.4208624e-06
1.0138258e-06
1.6914545e-06
1.9200835e-06
2.1480389e-06
2.2320514e-06
2.2597247e-06
2.381844e-06
2.429724e-06
2.5200771e-06
2.5685664e-06
2.6044267e-06
2.6561072e-06
2.7110273e-06
2.7718419e-06
2.8228111e-06
2.8959711e-06
2.9367359e-06
2.9986288e-06
3.0366412e-06
3.0799856e-06
3.0771577e-06
3.0978704e-06
3.098725e-06
3.100766e-06
3.0863066e-06
3.0431699e-06
2.996988e-06
2.9523554e-06
2.9397468e-06
2.9308543e-06
2.8790261e-06
9.5719191e-07
2.0177727e-06
2.4741313e-06
2.259962e-06
1.9621094e-06
2.2459428e-06
1.8728013e-06
2.2798017e-06
1.8583232e-06
2.2547653e-06
2.0959546e-06
2.0689854e-06
2.0987717e-06
2.0344901e-06
2.1011274e-06
2.0824859e-06
2.1094315e-06
2.1042681e-06
2.1119786e-06
2.1096192e-06
2.1422492e-06
2.1534757e-06
2.1950951e-06
2.2214615e-06
2.2584941e-06
2.2868202e-06
2.3170827e-06
2.3516031e-06
2.3828443e-06
2.4328182e-06
2.4432043e-06
2.3476147e-06
3.0161638e-06
1.722214e-06
1.1961613e-06
1.2663662e-06
1.4712471e-06
1.8814786e-06
2.0330408e-06
1.7249895e-06
1.3557295e-06
1.2471799e-06
1.2824997e-06
1.2385737e-06
1.157521e-06
1.1278623e-06
1.1873475e-06
1.2382157e-06
1.228469e-06
1.1811081e-06
1.1686784e-06
1.1880816e-06
1.1796989e-06
1.1584407e-06
2.0891306e-06
2.9406575e-06
1.660689e-06
1.1846462e-06
1.3372203e-06
1.4741645e-06
1.9170915e-06
2.2058256e-06
1.9732159e-06
1.5588264e-06
1.3465542e-06
1.40269e-06
1.380145e-06
1.310094e-06
1.2252781e-06
1.25235e-06
1.3351947e-06
1.3448492e-06
1.3185314e-06
1.274201e-06
1.2860554e-06
1.2910668e-06
1.2516656e-06
1.9131821e-06
2.6196383e-06
1.6702851e-06
1.187393e-06
1.3149724e-06
1.5335368e-06
1.9666544e-06
2.3655009e-06
2.2767784e-06
1.8534637e-06
1.4952514e-06
1.5155842e-06
1.51074e-06
1.4697461e-06
1.367356e-06
1.34223e-06
1.4328795e-06
1.4633288e-06
1.4536346e-06
1.3961842e-06
1.4020389e-06
1.4153454e-06
1.3974825e-06
1.6196329e-06
2.3546415e-06
1.6533353e-06
1.33195e-06
1.3599302e-06
1.5759827e-06
2.0584043e-06
2.5526394e-06
2.5502573e-06
2.2105599e-06
1.727885e-06
1.6743909e-06
1.6781309e-06
1.6498785e-06
1.5633701e-06
1.4795236e-06
1.5348831e-06
1.603921e-06
1.6229072e-06
1.5742727e-06
1.5242315e-06
1.5367278e-06
1.5256083e-06
1.4342783e-06
2.0831484e-06
1.6019358e-06
1.4147401e-06
1.4817346e-06
1.6239896e-06
2.121883e-06
2.8198852e-06
2.8708642e-06
2.627742e-06
2.093875e-06
1.8681765e-06
1.8891408e-06
1.8498605e-06
1.7896201e-06
1.6792312e-06
1.671406e-06
1.7545072e-06
1.7762723e-06
1.7769829e-06
1.7060941e-06
1.70541e-06
1.6967762e-06
1.2015412e-06
1.9303576e-06
1.6495753e-06
1.5584337e-06
1.6175848e-06
1.678552e-06
2.0942939e-06
3.1168107e-06
3.2429681e-06
3.0682169e-06
2.5667913e-06
2.1383332e-06
2.1596236e-06
2.1301564e-06
2.0395239e-06
1.9273999e-06
1.8516833e-06
1.949203e-06
1.9823283e-06
1.9824795e-06
1.927049e-06
1.8794905e-06
1.8875419e-06
1.0662234e-06
1.6701112e-06
1.6664954e-06
1.6959026e-06
1.7750139e-06
1.7945927e-06
2.1001956e-06
3.320515e-06
3.7073322e-06
3.6076922e-06
3.1494361e-06
2.5644248e-06
2.5108133e-06
2.4860859e-06
2.3600042e-06
2.2494532e-06
2.1180455e-06
2.15254e-06
2.2402379e-06
2.2270388e-06
2.1922937e-06
2.1173546e-06
2.1165129e-06
9.2864758e-07
1.5010815e-06
1.7200999e-06
1.8974811e-06
1.9812868e-06
1.9726673e-06
2.161633e-06
3.3985947e-06
4.2222413e-06
4.1835573e-06
3.8530942e-06
3.1926922e-06
2.9328591e-06
2.9346913e-06
2.8191033e-06
2.6347674e-06
2.4624724e-06
2.4313433e-06
2.561137e-06
2.5670952e-06
2.5041658e-06
2.4102397e-06
2.3630923e-06
8.4466591e-07
1.3476467e-06
1.8461934e-06
2.1951534e-06
2.3711485e-06
2.2271061e-06
2.3656755e-06
3.6356346e-06
4.8466309e-06
4.9007202e-06
4.7351803e-06
4.0443324e-06
3.5281816e-06
3.5615986e-06
3.4767537e-06
3.1697778e-06
2.9111069e-06
2.7902032e-06
2.892275e-06
2.9984604e-06
2.9245489e-06
2.8012534e-06
2.6860621e-06
7.9979175e-07
1.2769469e-06
1.9960705e-06
2.5317204e-06
2.8944965e-06
2.675775e-06
2.7919831e-06
4.242854e-06
5.6868082e-06
5.944476e-06
5.8222351e-06
5.1135075e-06
4.3632215e-06
4.4386234e-06
4.3998278e-06
4.0364839e-06
3.5661284e-06
3.3048111e-06
3.333751e-06
3.5447605e-06
3.5231558e-06
3.3258605e-06
3.1176024e-06
7.9591529e-07
1.2905516e-06
2.2365773e-06
3.006171e-06
3.6227531e-06
3.4575281e-06
3.553151e-06
5.3569133e-06
7.2279373e-06
7.725401e-06
7.3830893e-06
6.6374894e-06
5.5421971e-06
5.7173404e-06
5.8369083e-06
5.4697118e-06
4.6071648e-06
4.1042737e-06
3.9550807e-06
4.2338595e-06
4.3205852e-06
4.1059599e-06
3.7446118e-06
8.0580957e-07
1.3317837e-06
2.5346396e-06
3.6147679e-06
4.5601784e-06
4.6888193e-06
4.998151e-06
7.3591526e-06
9.8137217e-06
1.0702316e-05
9.9079465e-06
8.9705494e-06
7.4541422e-06
7.6569983e-06
8.241991e-06
7.8210892e-06
6.3607113e-06
5.3525994e-06
4.8853753e-06
5.1178132e-06
5.4838091e-06
5.3022225e-06
4.6727073e-06
8.780027e-07
1.4770815e-06
2.9234429e-06
4.3826527e-06
5.8227304e-06
6.5090921e-06
7.5217283e-06
1.0703249e-05
1.3611924e-05
1.5037328e-05
1.3777186e-05
1.2491532e-05
1.0886296e-05
1.1142638e-05
1.2445743e-05
1.1754899e-05
9.2750687e-06
7.4164358e-06
6.5003456e-06
6.5403196e-06
7.165311e-06
7.003601e-06
6.0474331e-06
9.4624361e-07
1.6221084e-06
3.322942e-06
5.1840501e-06
7.2404057e-06
8.7868676e-06
1.1251238e-05
1.5417325e-05
1.8910951e-05
2.1083784e-05
1.9113207e-05
1.7583561e-05
1.6446516e-05
1.7607488e-05
1.9008592e-05
1.7643131e-05
1.3310674e-05
1.0274444e-05
9.0085854e-06
8.880671e-06
9.9198264e-06
9.623414e-06
8.1702127e-06
1.0789248e-06
1.865848e-06
3.8396851e-06
6.1361511e-06
8.9041472e-06
1.1523233e-05
1.5927401e-05
2.0795297e-05
2.4653978e-05
2.7323338e-05
2.5726595e-05
2.4474329e-05
2.4576954e-05
2.7609874e-05
2.9644587e-05
2.666349e-05
1.9000313e-05
1.4463308e-05
1.3039983e-05
1.2915596e-05
1.4747494e-05
1.3868371e-05
1.107662e-05
1.195695e-06
2.0815711e-06
4.3873071e-06
7.1876323e-06
1.0552892e-05
1.453471e-05
2.0862286e-05
2.6472658e-05
3.0548637e-05
3.3595379e-05
3.335095e-05
3.3110086e-05
3.4989134e-05
3.9375632e-05
4.2193532e-05
3.8751662e-05
2.6837689e-05
2.0574426e-05
1.9148871e-05
1.9626673e-05
2.219123e-05
2.0051493e-05
1.4870526e-05
1.3244736e-06
2.3469889e-06
4.9184585e-06
8.3436508e-06
1.2382973e-05
1.7924626e-05
2.5990109e-05
3.2303665e-05
3.6374534e-05
3.9973312e-05
4.1797545e-05
4.3051795e-05
4.6762522e-05
5.2125044e-05
5.5399845e-05
5.2026767e-05
3.6592792e-05
2.8869186e-05
2.7947486e-05
3.0380803e-05
3.3419257e-05
2.8839122e-05
1.9803257e-05
1.5346048e-06
2.6469808e-06
5.4229494e-06
9.6618298e-06
1.4404541e-05
2.1320436e-05
3.1383319e-05
3.8644145e-05
4.2854784e-05
4.7101982e-05
5.0973582e-05
5.3484881e-05
5.8813223e-05
6.5314563e-05
6.9042849e-05
6.5474703e-05
4.8017702e-05
3.9668775e-05
4.0362486e-05
4.5416974e-05
4.7972963e-05
3.993157e-05
2.6316863e-05
1.727757e-06
2.8402432e-06
5.774632e-06
1.0516205e-05
1.6335938e-05
2.4783483e-05
3.7054589e-05
4.5568398e-05
5.0257188e-05
5.5362618e-05
6.1234662e-05
6.4837457e-05
7.1376986e-05
7.8997004e-05
8.3040201e-05
7.9300812e-05
6.2388147e-05
5.5251627e-05
5.9008302e-05
6.6518685e-05
6.7115195e-05
5.3202324e-05
3.4650423e-05
1.8189989e-06
2.9930546e-06
6.1115383e-06
1.1167653e-05
1.8377215e-05
2.8523394e-05
4.286383e-05
5.2992779e-05
5.8791569e-05
6.5557645e-05
7.3349746e-05
7.7631215e-05
8.5197144e-05
9.4015413e-05
9.8245397e-05
9.4515729e-05
7.9934708e-05
7.5465036e-05
8.1315452e-05
8.9085101e-05
8.7904979e-05
6.6911816e-05
4.5359585e-05
1.770715e-06
3.101178e-06
6.3843459e-06
1.1678071e-05
2.0262739e-05
3.2212114e-05
4.8695186e-05
6.0823056e-05
6.8747121e-05
7.8252631e-05
8.711438e-05
9.1275667e-05
0.00010068546
0.00011108225
0.00011575262
0.00011321294
0.00010204936
0.00010089305
0.00010565774
0.00011260225
0.00010774752
7.9839491e-05
5.9537657e-05
1.7253099e-06
3.2874955e-06
6.7159457e-06
1.2105019e-05
2.1825904e-05
3.5432686e-05
5.4020527e-05
6.8874275e-05
8.0321485e-05
9.362089e-05
0.00010313811
0.00010685367
0.00011856943
0.00013097717
0.00013743232
0.00013738289
0.00012905533
0.00012727272
0.00012980891
0.00013509279
0.00012476967
9.3984191e-05
7.8660032e-05
1.7135562e-06
3.8176344e-06
7.3566819e-06
1.2808729e-05
2.3015626e-05
3.7616312e-05
5.8437896e-05
7.7086869e-05
9.4321737e-05
0.00011171535
0.00012253748
0.00012525063
0.00013837907
0.0001533288
0.0001644531
0.00016454033
0.00015774576
0.0001511773
0.00015351382
0.00015648855
0.00013972423
0.00011216895
0.00010237394
2.0828642e-06
5.8071016e-06
9.235055e-06
1.4654183e-05
2.4814696e-05
3.9140493e-05
6.0937051e-05
8.571375e-05
0.00011130384
0.00013140531
0.00014288112
0.00014380249
0.00016041637
0.00018071712
0.00019987321
0.00019255278
0.00018539512
0.00017526032
0.00017875923
0.00017934148
0.00015523664
0.00013396074
0.0001257501
2.8880056e-06
1.0160117e-05
1.4045783e-05
1.9183495e-05
2.8745459e-05
4.2005762e-05
6.4344258e-05
9.3906677e-05
0.00012704826
0.00014965836
0.00016133407
0.00016487191
0.00018593514
0.00021491637
0.00023366644
0.00022217543
0.00020732197
0.00020011434
0.00020477976
0.0002008611
0.00017133578
0.00015439845
0.00014123093
3.6867426e-06
1.6276754e-05
2.054057e-05
2.6519138e-05
3.535555e-05
4.8016473e-05
7.0434336e-05
0.00010460696
0.00014313142
0.00016748314
0.0001798414
0.0001890774
0.00021780867
0.00025545407
0.00026104264
0.00024998216
0.0002303073
0.00022725735
0.00023159727
0.00021259117
0.00018664821
0.00016930995
0.00015117427
4.8095858e-06
2.4335967e-05
3.0169312e-05
3.6840284e-05
4.6111154e-05
5.7299558e-05
8.0594023e-05
0.00011781744
0.00015970671
0.00019044404
0.00020251628
0.00021859296
0.00025832006
0.00029143893
0.00028795141
0.00027375208
0.00025543652
0.00025357527
0.00025043666
0.0002220089
0.00019906364
0.00017557584
0.00015803909
5.9033234e-06
3.3060554e-05
4.1354477e-05
5.0306251e-05
6.1916426e-05
7.5493777e-05
9.7339654e-05
0.00013889172
0.0001778591
0.00021566735
0.00022859074
0.00025392815
0.00030095743
0.00031866971
0.00031705896
0.00029302262
0.00027475649
0.00027370412
0.00025537812
0.00022937696
0.00020316836
0.00017875617
0.00016215577
5.8890309e-06
4.1048764e-05
5.3670697e-05
6.5751599e-05
8.100132e-05
9.6181732e-05
0.00012262265
0.00016569633
0.00020368605
0.00024330575
0.00025865092
0.00029351769
0.00033429463
0.0003414025
0.00033888409
0.00030356406
0.0002898875
0.00028320648
0.00025708081
0.00023044367
0.00020115523
0.00017998417
0.00016046134
6.2594645e-06
5.2181248e-05
6.8893766e-05
8.1470046e-05
9.849834e-05
0.00011754719
0.00014972945
0.00019142298
0.00023042008
0.00026540188
0.00028752261
0.00032953951
0.00035672775
0.00035801994
0.00034248337
0.00030931225
0.00029860911
0.00028248005
0.00025597441
0.0002259842
0.00019740473
0.00017737964
0.00015762227
6.7278265e-06
5.9747235e-05
8.0087758e-05
9.6391171e-05
0.00011795009
0.00014110543
0.00017483918
0.0002136209
0.00025476821
0.00028753715
0.00031548419
0.00035322392
0.00036695626
0.00036520736
0.00033781709
0.00031254735
0.00030090005
0.00027884381
0.00025079602
0.00021834717
0.00019404472
0.00017554116
0.00015762859
7.0273705e-06
6.9175259e-05
9.2654719e-05
0.0001095828
0.00013395626
0.00016159914
0.00019683419
0.00023570404
0.0002754446
0.00030567208
0.00033853956
0.00036789228
0.00037420131
0.00036366919
0.00033127734
0.0003129308
0.00029785496
0.00027362253
0.00024225821
0.00021350435
0.00019352166
0.0001773617
0.00016054251
7.5201814e-06
7.6498282e-05
0.00010238475
0.00012243644
0.00014979902
0.00017863096
0.00021383537
0.00025394994
0.00029202172
0.00032639145
0.00035632891
0.00037222362
0.00037261327
0.00035455538
0.0003284892
0.0003115208
0.00029165557
0.00026604415
0.0002363116
0.00021283204
0.0001965688
0.00018252711
0.00016847707
7.8935814e-06
8.4490813e-05
0.00011213536
0.00013330206
0.0001609311
0.00019097963
0.00022819811
0.00026816826
0.00030601316
0.00034106291
0.00036582241
0.00037691816
0.00037130298
0.00034922381
0.0003270321
0.00031024591
0.00029012799
0.00026434725
0.00023858972
0.00021917132
0.00020658103
0.00019423702
0.0001816117
8.6007855e-06
9.2329741e-05
0.00012156965
0.00014580529
0.00017403113
0.00020709173
0.00024633883
0.00028591274
0.00032277357
0.00035077223
0.0003674825
0.00037077254
0.00035756375
0.00033581062
0.00031773976
0.00030153134
0.00028111175
0.00025601145
0.00023519995
0.00022229006
0.00021343013
0.00020381023
0.00019515326
8.7017884e-06
9.5389947e-05
0.00012734557
0.00015244482
0.00017889922
0.00021039185
0.00024697196
0.00028400279
0.00031969313
0.00034650042
0.00036327186
0.00036730363
0.000357289
0.00033898184
0.00032372112
0.00030967131
0.00029252392
0.00027037382
0.0002507347
0.00023759986
0.00022842226
0.00021891792
0.00021173301
8.4887359e-06
9.559532e-05
0.00012964548
0.00015533264
0.00018028136
0.00021005931
0.00024434215
0.00027878514
0.0003124288
0.00033844889
0.00035618486
0.00036238134
0.00035622019
0.00034182699
0.00032840607
0.0003164305
0.00030281101
0.000284658
0.00026639358
0.00025291502
0.00024374936
0.00023722665
0.00022938255
8.3700708e-06
9.5879623e-05
0.00013203971
0.00015838313
0.0001824558
0.00020994377
0.00024148849
0.00027318465
0.00030457554
0.00032987453
0.0003481251
0.00035615124
0.00035325552
0.00034273429
0.00033164978
0.00032192739
0.00031132027
0.00029686061
0.00028143016
0.00026916455
0.00026070451
0.00025620823
0.00025055092
7.9847978e-06
9.4376189e-05
0.00013357204
0.00016077221
0.00018437124
0.00020995522
0.00023848983
0.00026732865
0.00029620677
0.00032080406
0.00033926141
0.00034891234
0.00034886154
0.00034207256
0.00033348824
0.00032599254
0.00031797537
0.00030729635
0.00029531263
0.0002858816
0.0002796362
0.00027723942
0.00027147652
7.8931798e-06
9.3542063e-05
0.00013569053
0.00016360182
0.00018685166
0.0002100972
0.00023539147
0.00026134177
0.00028757724
0.00031123945
0.00032976791
0.00034079989
0.00034332676
0.00034004648
0.00033420038
0.00032898783
0.00032353676
0.00031683963
0.0003092553
0.00030341134
0.00030044713
0.00030006033
0.00029460972
7.4856396e-06
9.1723872e-05
0.00013716593
0.00016609907
0.0001892242
0.00021017027
0.00023269164
0.0002557438
0.00027901901
0.00030143832
0.0003198708
0.00033191368
0.00033677368
0.00033670262
0.00033384175
0.0003309131
0.00032806829
0.00032531843
0.00032293282
0.00032159686
0.00032193504
0.00032377838
0.00031968794
7.4151136e-06
9.0208164e-05
0.00013851483
0.00016890254
0.00019201985
0.00021087854
0.00023076766
0.00025103586
0.00027100451
0.00029171951
0.00030973807
0.00032247813
0.00032939168
0.00033216655
0.00033238682
0.00033180608
0.00033179241
0.00033319031
0.00033597925
0.00033951389
0.0003429514
0.00034767549
0.0003472334
7.0211686e-06
8.7741503e-05
0.00013820872
0.00017062687
0.00019430611
0.00021207819
0.00022969361
0.00024749861
0.00026432299
0.00028261476
0.00029972624
0.00031287609
0.00032135121
0.00032655917
0.00032987906
0.00033187578
0.00033497052
0.00034046681
0.0003481741
0.00035659922
0.0003640148
0.00037249316
0.00037284575
6.9982819e-06
8.5219809e-05
0.00013678493
0.00017142994
0.00019610773
0.00021383619
0.00022970894
0.00024532851
0.00025943387
0.00027463571
0.0002903348
0.0003033843
0.00031295021
0.0003201236
0.00032625855
0.0003311983
0.00033781288
0.00034736899
0.00035980716
0.00037289365
0.00038497074
0.00039641865
0.00039668566
6.6274496e-06
8.2681888e-05
0.00013474211
0.00017131137
0.0001969888
0.00021549975
0.00023040579
0.00024445845
0.0002564979
0.00026853395
0.00028196359
0.00029441064
0.00030457747
0.00031334148
0.00032178684
0.00033020905
0.0003405007
0.0003544624
0.00037112034
0.00038845199
0.00040432421
0.00041774184
0.00041793865
6.5956304e-06
7.9951326e-05
0.00013279387
0.00017124095
0.00019785436
0.00021724152
0.00023173869
0.00024464053
0.00025530777
0.00026456095
0.00027524027
0.00028642197
0.00029661677
0.00030659759
0.00031704968
0.00032899067
0.00034368722
0.00036171984
0.0003817964
0.00040165274
0.00041904664
0.00043551135
0.00043654479
6.3178373e-06
7.67457e-05
0.00013066674
0.00017091386
0.00019865724
0.00021873852
0.00023333688
0.00024541402
0.00025544042
0.00026267548
0.00027061155
0.00027973468
0.00028967966
0.00030040074
0.00031296861
0.00032840793
0.00034726347
0.00036835224
0.00039007537
0.00041112529
0.00043085356
0.00044989324
0.00045220186
6.2656826e-06
7.4546509e-05
0.00012934985
0.00017128094
0.00020043179
0.00022096739
0.0002357497
0.0002471279
0.00025640999
0.00026253309
0.00026825072
0.00027522995
0.0002842926
0.00029580924
0.00031032005
0.00032900907
0.00035061795
0.00037351674
0.00039675873
0.00041963923
0.00044122346
0.00046196375
0.00046467986
6.0564269e-06
7.2452537e-05
0.00012827495
0.00017225032
0.00020260057
0.00022349763
0.00023863213
0.00024986172
0.00025850264
0.00026427983
0.00026812725
0.0002734172
0.00028141088
0.00029338287
0.00031008872
0.00033093554
0.00035419561
0.0003786862
0.00040374232
0.00042796819
0.00045059879
0.00047217428
0.00047418502
6.0058283e-06
7.1384203e-05
0.00012834362
0.00017423139
0.00020587723
0.00022711228
0.00024241804
0.00025347261
0.00026195538
0.00026777051
0.00027076816
0.00027479196
0.00028218112
0.00029442796
0.00031253039
0.00033466797
0.00035935069
0.00038510472
0.00041106747
0.00043595434
0.00045881935
0.00048006227
0.00048156421
5.8399439e-06
6.9968633e-05
0.00012842977
0.00017641192
0.00020957537
0.00023144012
0.00024697865
0.00025805368
0.00026627466
0.00027264
0.00027625249
0.00027993497
0.00028713092
0.00029982131
0.00031817571
0.00034085213
0.00036626571
0.00039269329
0.00041839465
0.0004425363
0.00046416576
0.00048444623
0.00048584022
5.7562656e-06
6.9125173e-05
0.00012898856
0.00017876224
0.00021344445
0.00023642293
0.00025240067
0.00026368578
0.00027189194
0.00027877068
0.00028438597
0.00028876888
0.00029661728
0.00030958313
0.0003276413
0.00034986736
0.00037465864
0.00040003553
0.00042456257
0.00044709348
0.00046672452
0.00048511001
0.00048705367
5.6406226e-06
6.7980559e-05
0.00012916976
0.00018077537
0.00021681123
0.00024118063
0.0002579855
0.00026998306
0.00027891284
0.00028670835
0.0002944871
0.00030127447
0.00031019838
0.00032334388
0.00034081491
0.00036173098
0.00038472917
0.00040778879
0.00042975054
0.00044943539
0.00046610518
0.00048138566
0.00048361421
5.5225879e-06
6.6890812e-05
0.00012909252
0.00018237292
0.00021991173
0.00024587395
0.00026385308
0.00027701743
0.00028740954
0.00029667887
0.00030656387
0.00031679531
0.00032725036
0.00034043564
0.00035694197
0.00037594876
0.00039635273
0.00041666793
0.00043502083
0.000450466
0.00046275679
0.00047366137
0.00047467005
5.4447018e-06
6.5537798e-05
0.00012820607
0.00018319015
0.00022246906
0.00025018767
0.00026974003
0.00028465839
0.00029697464
0.00030837598
0.00032046907
0.0003338765
0.00034624763
0.00035946885
0.00037464301
0.00039123871
0.00040832171
0.00042479829
0.00043887424
0.00044900526
0.00045606491
0.00046175903
0.00045747271
5.2906156e-06
6.4092632e-05
0.00012694243
0.00018328877
0.00022441699
0.00025401366
0.00027554172
0.00029240691
0.00030702297
0.0003208191
0.00033499519
0.00035020502
0.00036449886
0.00037779706
0.00039107109
0.00040449566
0.0004172922
0.00042846836
0.00043730072
0.00044190563
0.00044312423
0.00044301346
0.00043004063
5.2613735e-06
6.2723907e-05
0.0001253117
0.00018281156
0.00022574888
0.00025731864
0.00028094909
0.00029993769
0.00031677662
0.00033258535
0.00034835554
0.0003642556
0.00037964692
0.00039228629
0.00040274781
0.00041171328
0.0004192174
0.00042470175
0.00042738757
0.00042536633
0.00041990575
0.00041290429
0.00039221697
5.0721036e-06
6.1140074e-05
0.00012345
0.00018207096
0.00022698414
0.00026044882
0.00028599989
0.00030702708
0.00032552261
0.00034265475
0.0003589402
0.00037460866
0.00038933125
0.00040066574
0.00040791002
0.00041204691
0.00041371411
0.00041275133
0.00040879006
0.00040034948
0.00038888193
0.00037495435
0.0003501763
5.084308e-06
5.9887375e-05
0.00012205674
0.0001815691
0.00022825465
0.00026352869
0.00029072471
0.00031314359
0.00033262745
0.00035014598
0.00036607985
0.00038052888
0.00039285909
0.00040227634
0.0004060888
0.00040556728
0.00040155534
0.00039503591
0.00038526511
0.00037165113
0.0003552598
0.00033548033
0.00031132789
4.8852337e-06
5.8723441e-05
0.00012096574
0.00018118621
0.00022941614
0.00026634383
0.00029489133
0.00031808236
0.00033776357
0.00035471727
0.00036928708
0.00038141606
0.00039061342
0.00039629104
0.00039704515
0.00039334459
0.00038576537
0.00037422158
0.00035881482
0.00034005336
0.000318592
0.00029901128
0.00028009055
4.9210925e-06
5.8357651e-05