/*--------------------------------*- C++ -*----------------------------------*\
| =========                 |                                                 |
| \\      /  F ield         | OpenFOAM: The Open Source CFD Toolbox           |
|  \\    /   O peration     | Version:  2406                                  |
|   \\  /    A nd           | Website:  www.openfoam.com                      |
|    \\/     M anipulation  |                                                 |
\*---------------------------------------------------------------------------*/
FoamFile
{
    version     2.0;
    format      ascii;
    arch        "LSB;label=32;scalar=64";
    class       volScalarField;
    location    "160";
    object      omega_0;
}
// * * * * * * * * * * * * * * * * * * * * * * * * * * * * * * * * * * * * * //

dimensions      [0 0 -1 0 0 0 0];

internalField   nonuniform List<scalar> 
20580
(
3.5918196
2.6660826
2.1394297
1.7959738
1.5575455
1.3827626
1.2489695
1.1436815
1.0576093
0.98551473
0.92546161
0.87362177
0.82891815
0.78956027
0.75632693
0.72720049
0.70390465
0.6853066
0.66928157
0.65454093
0.6443641
0.63256469
0.62896813
0.63482727
0.64507022
0.64741331
0.64773575
0.63369788
0.63330312
0.64987826
0.6661497
3.5956279
2.6570999
2.1367268
1.7977047
1.5607636
1.3876959
1.2530771
1.1483016
1.0621361
0.99040591
0.93048561
0.87859511
0.83372973
0.79585074
0.76124767
0.73283958
0.70865674
0.69139967
0.67488845
0.66154834
0.65601876
0.64228397
0.63717556
0.64404658
0.66347033
0.68602854
0.69883766
0.70542459
0.70863397
0.71747497
0.70222383
3.596585
2.6359606
2.1232132
1.7933942
1.559847
1.388067
1.2555857
1.1514204
1.0653392
0.99403824
0.9343332
0.88331594
0.83785429
0.80131986
0.76644852
0.73797843
0.71227878
0.69486629
0.67616924
0.66094641
0.65429819
0.64448038
0.63287078
0.6354172
0.64861269
0.67657242
0.69363167
0.70004328
0.71236194
0.73509795
0.76634338
3.5968991
2.6140236
2.0937459
1.7743175
1.5517968
1.3852095
1.2550817
1.1519602
1.0673661
0.99681676
0.93719287
0.8866557
0.84137959
0.80468312
0.77047167
0.74158243
0.71527896
0.69795631
0.67855356
0.66338809
0.65293612
0.64655919
0.63339646
0.63386038
0.64249017
0.66037609
0.69407531
0.70547624
0.70915677
0.7241499
0.76090424
3.5983869
2.6105596
2.0770785
1.7528746
1.5328722
1.3736593
1.2500968
1.1502566
1.0672659
0.99835966
0.93947137
0.88930824
0.84507734
0.80710618
0.77397206
0.74412675
0.71774147
0.69938069
0.67931394
0.66577416
0.65381746
0.6481784
0.63667082
0.63651031
0.64321762
0.6581886
0.68790908
0.72263319
0.73509507
0.76597608
0.77444431
3.6081309
2.6182322
2.0756317
1.7498212
1.5269644
1.3645601
1.2394937
1.1437124
1.0648914
0.99727098
0.94052061
0.88995792
0.84878549
0.80992194
0.7776643
0.74698325
0.72214134
0.70155219
0.68162786
0.66798265
0.65588773
0.6486867
0.6375042
0.63416779
0.63882757
0.65184681
0.67545932
0.71999029
0.74148066
0.79492247
0.80563931
3.6095905
2.6287722
2.0804289
1.7515116
1.5265817
1.361033
1.2358928
1.1375421
1.0596145
0.9936061
0.9395309
0.88981976
0.85151797
0.81337088
0.78377837
0.75192981
0.73090813
0.70700951
0.68845499
0.67304005
0.66045309
0.64958832
0.63970229
0.62998867
0.62848745
0.63136486
0.64457538
0.68917302
0.72872519
0.7865518
0.81841813
3.6226968
2.6619372
2.1021695
1.7598273
1.5283096
1.3612371
1.2348037
1.1353533
1.0561907
0.9910485
0.93751965
0.89032939
0.85221253
0.81789582
0.78902216
0.76060104
0.74028768
0.71719014
0.70048068
0.68413957
0.67167698
0.65659572
0.64847791
0.63914454
0.63047858
0.62864412
0.63251675
0.64943587
0.68380389
0.72043826
0.79776586
3.8274846
2.8345033
2.1878268
1.7974868
1.5439129
1.3678293
1.2366187
1.1362809
1.0544185
0.9874619
0.93262295
0.88716191
0.84917824
0.81600604
0.78764844
0.76081188
0.73982726
0.71904587
0.70228557
0.68964645
0.6759821
0.66501304
0.66042824
0.65920789
0.65216954
0.64996012
0.65320336
0.66765369
0.6976557
0.72891043
0.75918818
3.9961081
3.3044245
2.4521909
1.9408501
1.6119619
1.4008009
1.2515973
1.1424975
1.0563477
0.98758339
0.92919668
0.88052278
0.83876434
0.80373987
0.77257503
0.74588562
0.72299446
0.70282461
0.68816378
0.67774385
0.66757898
0.66164416
0.6623725
0.66412059
0.66671662
0.67523826
0.68951382
0.71717605
0.73738946
0.78203577
0.79345852
3.8124307
3.1158426
2.4874677
2.0661709
1.7529897
1.5057516
1.3131481
1.1787272
1.0791394
1.0031712
0.94125358
0.89002089
0.84557834
0.80758737
0.77437389
0.74461163
0.71890689
0.69650528
0.67831726
0.66520992
0.65154305
0.64545158
0.64929031
0.65238422
0.65528082
0.6657927
0.68367018
0.72099736
0.74176891
0.79309684
0.81939178
3.6071481
2.8565102
2.3742029
2.0239722
1.7566033
1.559366
1.4113444
1.2884656
1.1807955
1.0969364
1.0289511
0.97154558
0.91973294
0.87251595
0.83154373
0.79350788
0.76050483
0.73134401
0.70680056
0.68651574
0.66678438
0.65160923
0.64828738
0.64597985
0.6414844
0.64078782
0.65028379
0.6705351
0.70537121
0.7587264
0.82854333
3.6161118
2.8416082
2.3221689
1.9599817
1.7085801
1.5283433
1.3984352
1.3015192
1.2278622
1.1698761
1.1246792
1.0853608
1.0494865
1.0136951
0.97941192
0.94573751
0.91101949
0.87608661
0.84625561
0.81280599
0.77834577
0.74625174
0.71740358
0.69372812
0.67562138
0.65457501
0.65343078
0.66021025
0.67482845
0.69325781
0.74042971
3.7748718
2.9789737
2.4039204
2.0069345
1.7238589
1.5232906
1.3734885
1.2684354
1.1912565
1.1289646
1.0824491
1.0460939
1.0139437
0.98599598
0.96082227
0.93857386
0.91488069
0.89402535
0.87656809
0.859712
0.84487351
0.83119879
0.82364383
0.81766828
0.80340182
0.78172809
0.76156081
0.75091365
0.74952884
0.75314902
0.76302748
3.8988799
3.1384489
2.4533097
2.0385285
1.7477453
1.5382426
1.3844323
1.2697531
1.1830299
1.1127886
1.0531434
1.0040317
0.96189515
0.92482835
0.89266723
0.86430813
0.84150239
0.8216296
0.80476054
0.79380453
0.78699488
0.78806182
0.79226071
0.80408756
0.81222696
0.82224863
0.83226814
0.84745247
0.86238704
0.88863558
0.88689226
3.7867529
2.8737119
2.2938746
1.9329042
1.678595
1.4942575
1.3562587
1.2508149
1.1644249
1.0953684
1.0359348
0.98835058
0.9483731
0.91575997
0.88358612
0.85693647
0.82861615
0.80751062
0.78631701
0.76445319
0.75333108
0.74252855
0.74121878
0.74664321
0.76257444
0.78319201
0.80384736
0.82734217
0.85745157
0.89246667
0.92831785
3.6419899
2.7331146
2.2136048
1.8818066
1.6521
1.4817759
1.3504995
1.2471168
1.1605003
1.0896824
1.0264834
0.97015202
0.92115476
0.88418307
0.85116086
0.82933024
0.80659442
0.79156827
0.77392383
0.75777088
0.74567427
0.73727838
0.72711445
0.7239736
0.72941096
0.7379682
0.74328461
0.75039198
0.77707781
0.8080476
0.86782763
3.6344306
2.742074
2.2400088
1.9244866
1.7098271
1.5441539
1.4168715
1.3133148
1.2215711
1.1440876
1.0730257
1.0042926
0.94320065
0.89019031
0.84504296
0.8103657
0.77979506
0.75647785
0.73762549
0.72377536
0.71356739
0.70880729
0.70037761
0.69430183
0.69632858
0.70297805
0.70526318
0.70689563
0.7119164
0.72500969
0.74832418
3.7159518
2.8461263
2.3081599
1.9724759
1.7372335
1.5618651
1.4265259
1.3222444
1.2321352
1.1495849
1.0758273
1.0080603
0.9484803
0.89517417
0.84965738
0.81068494
0.77834567
0.74947932
0.72654035
0.70800463
0.69491669
0.68879372
0.68272527
0.67974573
0.68456897
0.6957277
0.70895599
0.72331426
0.73418012
0.75311251
0.76701158
3.83355
2.947084
2.3401293
1.9851084
1.7426912
1.561593
1.4270898
1.3205619
1.2325673
1.1558352
1.088311
1.0245648
0.96961758
0.91910768
0.87366336
0.83442001
0.80292016
0.77636821
0.75640758
0.74117613
0.73235759
0.73248953
0.73321782
0.73456149
0.74434156
0.76493606
0.7873311
0.81613846
0.83003083
0.8674543
0.87366341
3.678889
2.9923965
2.4527521
2.1604492
1.9576532
1.7707009
1.6405072
1.5320647
1.4460641
1.3724801
1.309637
1.2401821
1.1794851
1.1147243
1.0633095
1.0353987
1.0261328
1.0261202
1.0350095
1.0428706
1.0543765
1.073452
1.0841931
1.086801
1.0962952
1.1194582
1.1438561
1.167242
1.1707936
1.1927754
1.1782121
4.0047767
4.090401
3.9475549
3.8236344
3.8216416
3.4733575
3.4226914
3.1784115
3.0377612
2.9478682
2.8819221
2.7305027
2.6391456
2.53159
2.4349508
2.4389433
2.4675344
2.4841113
2.5071224
2.5144387
2.5244605
2.5561594
2.5584201
2.5374709
2.5143862
2.5275649
2.5359549
2.5318517
2.4932354
2.4617626
2.3911879
12.918278
12.782831
12.849911
11.812389
11.917846
10.896216
10.829397
10.068406
9.8804085
9.3423186
9.2446368
8.7927633
8.5349672
8.2717191
7.9318273
7.6749692
7.4575591
7.2674748
7.1013879
6.9180627
6.7875053
6.672571
6.5602088
6.4098176
6.3051881
6.2336613
6.1883828
6.060255
5.9353288
5.826603
5.799509
6.0679306
2.5825471
1.2747515
0.93635684
0.80835878
0.76573479
0.87123606
0.96710547
0.94255955
0.84565016
0.79320226
0.87175789
0.8706427
0.84970448
0.80134924
0.82135558
0.86419706
0.87229967
0.84412396
0.80676488
0.80048483
0.75996319
0.69821676
6.6567305
2.763543
1.3881689
1.0213975
0.86029738
0.78943063
0.87814414
1.020633
1.0207063
0.95920333
0.85288967
0.92757806
0.94005059
0.92834887
0.87013507
0.87262835
0.91862689
0.93840943
0.93295934
0.88020438
0.87435816
0.8592715
0.80928185
7.1475264
3.0816166
1.5860403
1.15846
0.94228863
0.83312765
0.91194961
1.0764733
1.0989216
1.0803702
0.92682483
0.96641851
0.99358022
0.99466596
0.9728323
0.93613776
0.97417582
0.99556124
0.99020923
0.93810509
0.92668747
0.92965984
0.91754783
7.9492244
3.4582361
1.8418783
1.3500447
1.1119371
0.93369661
0.99273079
1.1613438
1.1956624
1.2037775
1.054691
1.042498
1.0766465
1.0881325
1.0957389
1.0362543
1.0446586
1.0586966
1.0680157
1.0510705
1.0004189
1.0008401
0.97944853
8.8576528
4.2285319
2.3261586
1.7003054
1.359031
1.1104216
1.1289182
1.2839514
1.3275612
1.352092
1.2619394
1.1493949
1.2079991
1.2156271
1.2352593
1.202774
1.1518651
1.1754943
1.1670683
1.1709744
1.1367381
1.134136
1.1155183
9.7736558
4.8709916
2.873658
2.1040094
1.6413143
1.3351404
1.2805529
1.3927955
1.4383177
1.4688725
1.4556161
1.3217337
1.3592929
1.3605123
1.3283452
1.3120249
1.258379
1.2858318
1.31718
1.3300155
1.3267797
1.3001516
1.2955348
10.252576
5.4650242
3.2492289
2.4470611
1.9133069
1.5981882
1.4897365
1.578101
1.6106082
1.6179374
1.6381937
1.5367155
1.5385545
1.5328486
1.4664706
1.4266973
1.3640948
1.3718173
1.4128189
1.4285723
1.4410791
1.4271493
1.4261864
10.844222
6.2693709
3.9478357
3.1378295
2.3747337
2.0052843
1.8637146
1.9733539
1.9912587
1.93508
1.9415701
1.85499
1.8194522
1.8526383
1.8016192
1.677018
1.5657696
1.5397396
1.6099989
1.633762
1.5834236
1.5233388
1.5031535
12.173384
7.4809135
4.9015721
4.0310663
3.3142218
2.7545434
2.5427416
2.6823208
2.6179748
2.398484
2.3694815
2.2704542
2.2222677
2.3491181
2.3577708
2.2032372
2.016914
1.8777741
1.9093635
1.9501946
1.8760456
1.7370895
1.6199607
13.639652
9.1202329
6.059208
4.9808111
4.3054143
3.9140007
3.6774123
3.8160617
3.6236377
3.1094763
2.8240493
2.7377388
2.6498414
2.7606195
2.8063283
2.7270141
2.4684517
2.3307694
2.371364
2.581884
2.5311291
2.268789
1.9551755
14.899195
10.627863
7.1927807
5.8994817
5.5012803
5.5294629
5.5440677
5.7105089
5.4061071
4.4596154
3.6709606
3.4123313
3.1942283
3.3297339
3.5230092
3.4602137
2.9969809
2.7352867
2.6946192
2.9086198
3.0450821
2.8887887
2.5778285
15.522308
11.887302
8.2901621
7.0494967
6.8405687
7.3674647
8.2562391
8.3087123
7.8643555
6.716148
5.3035389
4.6288298
4.2734301
4.5602212
5.1271571
4.9270023
4.0068095
3.3783322
3.1021015
3.2972343
3.6414373
3.5864132
3.1523254
15.607412
13.263593
9.2873734
8.1964791
8.1661778
9.2720019
10.550361
10.676698
10.066297
8.2165196
6.9105961
6.528441
6.616203
7.4029506
8.1225694
7.282254
5.7065989
4.3886121
3.9524334
4.0182762
4.4272681
4.3971194
3.7988166
15.561554
14.644102
10.18436
9.151778
9.2700087
10.932368
12.186816
12.277769
11.450943
9.1956596
8.0963191
8.1964021
9.3635574
11.233023
10.992274
9.0313279
6.4916775
5.737572
5.5857961
5.5775497
6.6199385
6.4461156
5.2445526
15.827362
15.596916
10.890481
9.8139771
9.973489
11.766876
13.033451
13.186504
12.28477
9.8619742
8.7370619
9.0282364
11.013637
13.09014
12.656007
10.113868
7.5496371
7.0810658
7.758125
9.2000286
9.9145274
9.0508513
6.4929649
16.278589
16.097845
11.397109
10.192213
10.331234
12.160114
13.417798
13.57669
12.52663
10.047915
9.0387277
9.5111619
11.936313
13.905683
13.363976
10.694235
8.2824329
7.9383755
9.3587923
10.916473
11.149038
10.17692
7.2688037
16.615948
16.345019
11.841581
10.510463
10.577425
12.235145
13.499797
13.672356
12.583149
10.205957
9.3480184
9.9215762
12.417508
14.201583
13.610438
11.049765
8.9071065
8.6696213
10.302405
11.599942
11.715081
10.717059
7.8968137
16.550391
16.152926
11.980242
10.688857
10.707341
12.282386
13.529924
13.68143
12.553863
10.340828
9.6323587
10.276451
12.759714
14.35965
13.624162
11.089735
9.4796815
9.4128505
11.085632
12.038549
12.007512
10.898054
8.4494348
15.977559
15.83102
12.05131
10.960791
11.023091
12.599352
13.704921
13.802647
12.64395
10.586951
10.077656
10.804123
13.24112
14.554383
13.56951
11.067939
10.057202
10.241524
11.821675
12.445601
12.250781
10.948116
9.0471118
15.235788
15.393852
11.979626
11.034806
11.254738
12.930395
13.89395
13.933463
12.742792
10.855386
10.544721
11.405943
13.757214
14.69184
13.416038
11.142791
10.480967
11.008263
12.362308
12.789078
12.417067
10.9408
9.5482233
14.515637
14.484856
11.78483
11.03426
11.346749
12.999096
13.953833
13.834959
12.559112
11.09187
11.059119
12.036618
13.833166
14.257925
12.816953
11.220165
10.860585
11.575641
12.594949
12.86123
12.277502
10.686974
10.049676
13.915888
13.488295
11.494596
10.917341
11.274124
12.845836
13.769749
13.457083
11.997786
11.129005
11.3333
12.354403
13.267112
13.183645
11.996306
11.220795
11.14467
11.927577
12.513266
12.540118
11.551655
10.648576
10.75521
13.503902
12.522113
10.911224
10.579597
10.97958
12.427219
13.225404
12.662473
11.388784
10.985976
11.226097
11.953981
12.236635
11.870371
11.145921
10.900122
11.149308
11.858532
12.191026
11.739402
10.922444
10.684116
10.945365
13.166331
11.906398
10.239296
9.9479263
10.407266
11.774079
12.348419
11.702526
10.803383
10.522152
10.751495
11.135105
11.184507
10.781662
10.472777
10.547593
11.011754
11.521941
11.541443
10.901405
10.487124
10.366472
10.429042
13.189999
11.645897
9.7664506
9.3787609
9.816419
10.894996
11.176913
10.54158
10.022671
9.8996579
10.166126
10.328915
10.287705
9.9874505
9.9180508
10.160141
10.633291
10.882922
10.58302
10.111926
9.8758022
9.8290533
9.768769
13.695546
11.259158
9.3230306
8.8506747
9.0928429
9.5946534
9.6363729
9.374725
9.2310682
9.3135169
9.5286071
9.5983943
9.4872478
9.3802265
9.4542886
9.6487713
9.7544784
9.6475437
9.4827135
9.4033954
9.4247644
9.3621089
9.2811883
14.018351
10.506569
8.8403064
8.2207521
8.1957631
8.3538851
8.36204
8.3447709
8.4604697
8.6650555
8.8093202
8.8224804
8.796551
8.8156817
8.8428153
8.7704059
8.5972658
8.4953897
8.5953666
8.834405
8.9751848
8.9881506
9.0624152
13.932035
10.142224
8.5189144
7.6505211
7.4597026
7.458356
7.5008354
7.6010781
7.7390684
7.8727679
7.9486843
7.9819635
8.0298613
8.0758058
8.0267661
7.8848529
7.7744902
7.7893213
8.0263673
8.2439932
8.3870355
8.509204
8.8042613
13.480348
9.7326717
8.1705769
7.1365064
6.8556806
6.8268699
6.9114218
7.0226504
7.0808429
7.0799681
7.0598889
7.0690742
7.1639735
7.2899764
7.3511361
7.3318117
7.3014081
7.3868915
7.6591847
7.8604989
7.9748045
8.0066615
8.2096083
13.042734
9.2898099
7.4983063
6.5063564
6.2546817
6.229517
6.2815342
6.3644213
6.3976018
6.3732575
6.3320308
6.3323524
6.4389116
6.5981761
6.7321696
6.811644
6.8777651
7.058421
7.380734
7.5436757
7.5672374
7.5393642
7.6953159
12.541103
8.5946607
6.8004603
5.8818785
5.6293874
5.5906965
5.6511137
5.7666238
5.8485376
5.8746094
5.8686733
5.8906944
6.0035714
6.1410451
6.2244974
6.2726649
6.3599337
6.6357723
6.9796706
7.1290388
7.1297517
7.1030768
7.1641952
11.932786
7.8852595
6.1184848
5.3531197
5.1314841
5.0929955
5.1551629
5.2458666
5.3186292
5.3795982
5.4411457
5.5206833
5.6325187
5.7377368
5.8047815
5.8561717
5.968658
6.2275406
6.4553485
6.5759954
6.5706502
6.5123004
6.4727468
11.252316
7.03841
5.4985514
4.9395675
4.7946863
4.7717658
4.8157171
4.8851072
4.9457028
4.9918758
5.0387328
5.1265542
5.2723799
5.4240834
5.5294837
5.6113001
5.7453237
5.8901959
5.9558591
5.9451094
5.827902
5.7330033
5.5686717
10.709652
6.3333368
4.9789591
4.5288051
4.4296479
4.4422771
4.5129019
4.5796336
4.614036
4.6290409
4.6497457
4.7245065
4.8804886
5.0732554
5.2492341
5.3965136
5.4988995
5.5263369
5.4676674
5.2930377
5.0877387
4.9484583
4.6979154
10.268097
5.6834527
4.5222941
4.1830605
4.1130872
4.1283373
4.2039872
4.2883382
4.3564257
4.4030438
4.4493506
4.5374398
4.6839622
4.8523185
4.9851854
5.0506797
5.0536074
4.9629245
4.7908735
4.5477402
4.2482839
3.9738366
3.6403752
9.5801991
5.352173
4.2813136
3.9637132
3.8813069
3.8761012
3.9210412
3.9858249
4.0573031
4.125222
4.1922814
4.2876942
4.4216375
4.5533459
4.6172076
4.6033922
4.5292423
4.4038306
4.2078265
3.9139384
3.5566908
3.1317137
2.6249664
9.4472996
5.1118426
4.0693513
3.7731634
3.7020332
3.6966605
3.7238251
3.7629265
3.8046952
3.8489888
3.9051653
3.9927299
4.1137383
4.2270789
4.271216
4.2340072
4.1196711
3.9492444
3.7296681
3.4566504
3.116473
2.7072577
2.2550681
9.2023358
4.8476154
3.8616768
3.5770339
3.5066456
3.5076061
3.5392611
3.5743279
3.6026289
3.6280284
3.6637656
3.7316006
3.8383135
3.944305
3.9857041
3.9395298
3.8119605
3.6232531
3.3794137
3.0864744
2.7527957
2.3844113
2.0091298
9.1366726
4.7116481
3.7120356
3.4108901
3.3219083
3.3085909
3.3340937
3.3731863
3.4083555
3.4370454
3.4703066
3.5290776
3.621719
3.7047616
3.7241594
3.6600228
3.5202268
3.3194718
3.0691596
2.7767662
2.4613191
2.1538371
1.8766468
8.6956844
4.4974234
3.5628442
3.2727469
3.1761077
3.1505254
3.1616336
3.1895019
3.2203855
3.252044
3.292572
3.358834
3.4512749
3.5126242
3.509655
3.419941
3.2585092
3.0442115
2.7910146
2.5139643
2.2416107
2.0041419
1.8130978
8.5837982
4.3757137
3.4316251
3.1452144
3.0543706
3.0310881
3.034355
3.0491162
3.0666021
3.08787
3.1250774
3.1936033
3.2849317
3.3288293
3.3037482
3.1927197
3.0143267
2.7911574
2.5463647
2.3033703
2.0877421
1.9198033
1.8036006
8.2103849
4.1785398
3.3084017
3.0221463
2.9284585
2.9047489
2.9082002
2.9209265
2.9327844
2.9470782
2.9791012
3.046173
3.1273752
3.154858
3.1080388
2.9793274
2.7916176
2.5727654
2.3528218
2.1549906
1.995722
1.8839519
1.8169288
8.1322219
4.0854564
3.2029143
2.9164791
2.8084758
2.7766089
2.7747523
2.7865875
2.8004669
2.8174128
2.8521458
2.9220747
2.991397
3.0027824
2.9326554
2.7880803
2.5972364
2.3934244
2.2070269
2.0544518
1.944304
1.8764167
1.8361761
7.576303
3.9448128
3.1098474
2.8238067
2.7136403
2.6729922
2.6657194
2.6717837
2.682642
2.699531
2.7370017
2.808695
2.8650236
2.8602344
2.7693509
2.6143589
2.4288488
2.2477526
2.0968662
1.9871424
1.9191313
1.8808435
1.8534865
7.3267337
3.9773886
3.0923177
2.7471034
2.6327165
2.5871141
2.5746053
2.5760424
2.5808915
2.592202
2.626134
2.6932112
2.7376902
2.7186001
2.6159208
2.4606754
2.2895614
2.1353273
2.0192315
1.94725
1.9110159
1.8905218
1.8675432
6.7284632
4.0087551
3.1063049
2.7258694
2.5524087
2.5036787
2.4819867
2.4789305
2.4821863
2.4895749
2.5173871
2.5783042
2.6173763
2.5921105
2.4872404
2.3385927
2.1841567
2.0540147
1.9666701
1.9249377
1.9070199
1.8946208
1.8720695
6.5816991
4.2810242
3.1752889
2.7367168
2.5166599
2.4243944
2.4031011
2.3915593
2.3908903
2.3963136
2.4184244
2.4731681
2.512769
2.4885266
2.3869705
2.244614
2.1021006
1.9885517
1.9251662
1.9024654
1.89598
1.8897346
1.8706782
6.3661469
4.4068964
3.3532586
2.7933615
2.5256086
2.3823866
2.3325607
2.324949
2.3175029
2.3164183
2.3291671
2.3738187
2.4178655
2.3966129
2.3017272
2.1676811
2.0341444
1.9328384
1.8855979
1.8746968
1.8789195
1.8803375
1.8687404
6.600741
4.7241983
3.6918467
2.9255654
2.5649526
2.3844593
2.2808953
2.2514058
2.2504801
2.2455818
2.246027
2.2719702
2.3207844
2.3148437
2.2313236
2.1064143
1.9813743
1.8886004
1.8497715
1.8460375
1.8610647
1.8698912
1.8644376
6.7037412
4.562623
3.8425213
3.2307855
2.6753786
2.4127686
2.2784152
2.1987129
2.1776673
2.1811617
2.1792677
2.1868197
2.2214482
2.2405859
2.1854882
2.0700594
1.9473647
1.8532695
1.8131269
1.8109488
1.8330378
1.8510412
1.8513142
7.1793647
4.4717778
3.8477023
3.4876616
2.9628709
2.5198331
2.3077197
2.1987788
2.1334975
2.1131176
2.117671
2.1217044
2.1375763
2.1634038
2.1392389
2.0524823
1.9335366
1.830693
1.7749101
1.7661866
1.7878157
1.8196232
1.8316422
7.2966192
4.1041027
3.6957367
3.5149688
3.2712302
2.8156742
2.4222547
2.2327661
2.1368813
2.0808295
2.0548411
2.0574138
2.066309
2.0877139
2.0848952
2.0369257
1.9331033
1.8277661
1.7517434
1.7238438
1.7371479
1.7738124
1.8056388
8.0675223
4.2197334
3.3559281
3.3933731
3.306719
3.1211844
2.7438325
2.3657636
2.1823224
2.0903264
2.0390893
2.0075956
2.0007618
2.0117716
2.0270898
2.0098628
1.9392868
1.8359985
1.7516565
1.6988162
1.6909673
1.7191996
1.7595222
8.2854306
3.9500031
2.9987235
3.0230612
3.1835358
3.1444462
3.0175053
2.716992
2.3443367
2.1543403
2.0574709
2.0063077
1.9703699
1.9505827
1.9554223
1.9599632
1.9329756
1.8622797
1.7636988
1.6965775
1.6600516
1.6676758
1.7008527
8.9916497
4.1950886
2.9288615
2.7090348
2.8356195
3.0508211
3.0424035
2.958629
2.7325154
2.3747084
2.1511631
2.0375875
1.977892
1.941199
1.9141887
1.8987545
1.898648
1.8660083
1.7979537
1.7094177
1.6560275
1.6341133
1.6432342
9.269234
4.2548096
2.9056963
2.5229259
2.5457239
2.7109039
2.9383392
2.9713949
2.9229135
2.7691672
2.4630113
2.1789913
2.0365761
1.9615136
1.9174732
1.8830735
1.8581013
1.8473249
1.8100241
1.7454968
1.6692558
1.6303386
1.607002
9.8336087
4.593384
2.8965221
2.3523168
2.2468139
2.3118577
2.5243609
2.8076429
2.9013364
2.8832957
2.7963973
2.5845772
2.2758029
2.069402
1.9607262
1.8987063
1.859256
1.8284358
1.8025704
1.7652188
1.7050213
1.6434941
1.6051987
10.187892
4.4715726
2.6566714
2.0394307
1.9009657
1.9279622
2.0342436
2.2782968
2.6128788
2.7993447
2.8279261
2.7891608
2.6705479
2.4239803
2.1431065
1.9851761
1.8945767
1.8391743
1.8031471
1.770003
1.729437
1.6810512
1.6249152
10.451437
3.9373313
2.1546575
1.6628816
1.5646999
1.5885212
1.6733201
1.850067
2.0879813
2.3942091
2.665751
2.7581169
2.7425609
2.679511
2.5418336
2.2915851
2.0441691
1.9084662
1.8288457
1.782078
1.7399116
1.7067859
1.6680831
10.467323
3.2976622
1.733641
1.3567366
1.3120358
1.3501236
1.4595451
1.6135769
1.7946709
2.0013168
2.2352153
2.4998505
2.658324
2.6781904
2.6519504
2.570448
2.4026402
2.1591632
1.94527
1.8339717
1.765847
1.7201549
1.6917675
10.358995
3.0339662
1.4608266
1.1547053
1.1486279
1.2168165
1.3443928
1.4851245
1.6413314
1.8094044
1.9840776
2.1741306
2.3817036
2.5580783
2.6156955
2.5978079
2.5461027
2.4360294
2.2437892
2.0108353
1.8512309
1.7589329
1.7050527
10.137607
2.7497652
1.2590979
1.015771
1.0364424
1.1361624
1.2696853
1.4083375
1.5525382
1.7033902
1.8552355
2.006806
2.1626534
2.3197168
2.4658701
2.543428
2.5363231
2.5030369
2.4292053
2.2863587
2.0802008
1.8773984
1.7317568
9.8254073
2.5271549
1.1246673
0.91553497
0.9434566
1.0556601
1.1979562
1.3438132
1.487386
1.6304185
1.7704859
1.9056731
2.0373137
2.1668035
2.2909947
2.3994789
2.4698608
2.4767121
2.4509392
2.3919688
2.2732496
2.1160601
1.8998279
9.4842603
2.3548624
1.0346037
0.83597018
0.84609057
0.95182008
1.0994153
1.2590158
1.4126908
1.5553887
1.6915216
1.8227136
1.9447032
2.0577971
2.1633307
2.2583648
2.3372162
2.3962115
2.4139249
2.3894725
2.3288559
2.2464443
2.0722699
9.1688033
2.2133462
0.97207729
0.7623251
0.74949686
0.82568726
0.9574598
1.1204652
1.2925193
1.4527467
1.5943268
1.7255946
1.8497787
1.9620283
2.0598494
2.1447483
2.2187254
2.2815234
2.3275695
2.3458657
2.3202895
2.2706259
2.158046
8.9086671
2.0710167
0.9265971
0.69997054
0.66667224
0.70276066
0.7967293
0.93239364
1.0986618
1.2769085
1.444537
1.5926694
1.7262135
1.8484322
1.9550506
2.0428292
2.1146714
2.1743423
2.2225733
2.2565901
2.2699209
2.2536967
2.2059983
8.6732703
1.8616149
0.88700113
0.65577209
0.60445068
0.60815683
0.6576685
0.74613369
0.87054761
1.0265523
1.1990848
1.370637
1.5331502
1.679569
1.8098326
1.9208415
2.007811
2.0727582
2.1209369
2.1554417
2.1741321
2.1901786
2.1733124
8.444856
1.6888201
0.86491724
0.63184061
0.55861073
0.5443578
0.55997737
0.60672473
0.68072029
0.78284794
0.91424741
1.0680624
1.232064
1.3997743
1.5629449
1.7135924
1.8437341
1.9461521
2.0193292
2.0687161
2.1008138
2.1312299
2.1377647
8.2267529
1.6339874
0.86462931
0.62610812
0.5349721
0.50424286
0.50076402
0.51762559
0.5554661
0.61313691
0.69134413
0.7914739
0.913483
1.0535076
1.2062174
1.3680496
1.5329491
1.6913702
1.8304173
1.934765
2.0088638
2.0705231
2.1186011
8.0269584
1.6315872
0.87403466
0.62874321
0.52738384
0.48262057
0.46782459
0.46812671
0.48271462
0.51109808
0.55328147
0.61025687
0.68307996
0.7721342
0.87706946
0.99793278
1.1346882
1.2864446
1.4498443
1.6199793
1.7777832
1.8999052
1.9841692
7.8431756
1.6442117
0.89802582
0.63914184
0.5292947
0.47682648
0.4517664
0.44355057
0.44502968
0.45640481
0.47702148
0.50688227
0.54650434
0.5971171
0.65962471
0.73428002
0.82079698
0.9215929
1.0393663
1.1741061
1.3212194
1.4721369
1.6008767
7.6786941
1.6670701
0.92745443
0.65984539
0.53987122
0.48086372
0.45069276
0.43590249
0.43086288
0.43213358
0.44008614
0.45440136
0.47496752
0.50197142
0.5359964
0.5781472
0.62907732
0.68877579
0.75840713
0.84031485
0.93524452
1.0391434
1.1472149
7.5358262
1.7178487
0.98554145
0.70312013
0.57090303
0.50138385
0.46269987
0.44179916
0.43199897
0.4289916
0.43001569
0.43498511
0.44390751
0.45713492
0.47479464
0.49736048
0.5255133
0.55932975
0.59871244
0.64422556
0.69683441
0.75574597
0.8220723
7.420096
1.7953852
1.0897015
0.79548152
0.64826278
0.56335676
0.50978699
0.47490364
0.45318541
0.44106117
0.43591579
0.43570411
0.43869305
0.44378652
0.45113637
0.46146922
0.47545295
0.49350221
0.51530387
0.5403123
0.56831345
0.59856065
0.63482854
7.3261856
1.8825559
1.2129084
0.91752464
0.75772997
0.65908575
0.59282918
0.54605511
0.5115197
0.48591363
0.46765474
0.45541132
0.44897305
0.44758232
0.44952947
0.45280947
0.4574838
0.46462361
0.47473106
0.48747589
0.50199527
0.5162562
0.53515923
7.2434754
2.0638755
1.4120811
1.0848499
0.89190176
0.76665003
0.68065789
0.61892181
0.573443
0.53933353
0.51358432
0.49415873
0.47932608
0.46831026
0.46098505
0.45742411
0.4569662
0.45774034
0.4601676
0.46473795
0.4711053
0.47616939
0.4844255
7.1593027
2.7611396
1.7558617
1.3069777
1.0493587
0.8818989
0.76694814
0.6850604
0.62540709
0.58093672
0.54749462
0.52206885
0.50266672
0.48782121
0.47656384
0.4682302
0.46201425
0.45835738
0.45676537
0.45706895
0.45885459
0.45987821
0.46213454
7.6408212
2.9836249
1.9534668
1.4667185
1.1680492
0.96832454
0.82926708
0.73010379
0.6584016
0.60526356
0.5656393
0.535793
0.51287211
0.49539068
0.48197853
0.47173372
0.46397224
0.45830506
0.45436557
0.45184726
0.45132124
0.44953591
0.44858955
7.964995
3.1637374
2.0735823
1.5632722
1.236078
1.0123585
0.85674518
0.7468564
0.66835823
0.61106623
0.56862768
0.53687241
0.51272607
0.49438363
0.48040057
0.46955883
0.46103033
0.45393453
0.44753396
0.44127275
0.43646295
0.4298909
0.42698815
8.494234
3.3236322
2.187637
1.6268481
1.2616829
1.0186028
0.85405238
0.73950981
0.65862974
0.60026456
0.55713624
0.524973
0.50079055
0.482929
0.46961801
0.45789028
0.44685805
0.43544111
0.42408782
0.41380571
0.40754566
0.40375509
0.40323917
8.9639487
3.5717105
2.303016
1.6529217
1.2490822
0.98718079
0.81386329
0.69827282
0.62002548
0.56524342
0.52592783
0.49815198
0.47849443
0.46193803
0.44561611
0.42857031
0.41261934
0.40024095
0.39233096
0.38839009
0.3875163
0.38800415
0.39244144
9.513561
3.8724605
2.3950232
1.6378434
1.1837137
0.90915015
0.74324571
0.63909343
0.5707378
0.52430035
0.49321836
0.47048291
0.44915389
0.42652139
0.40637899
0.39156929
0.38336931
0.37968264
0.37883959
0.37983613
0.38268117
0.38535642
0.39294465
10.069971
4.1852465
2.4255178
1.552161
1.0726941
0.81295691
0.66512841
0.57584876
0.52084688
0.4861819
0.45905128
0.43150648
0.40648499
0.38912731
0.3804153
0.37683251
0.37624485
0.37658458
0.37828851
0.3822093
0.38485617
0.38954713
0.39764446
10.635455
4.4536031
2.3719512
1.4012037
0.94094488
0.71275428
0.5905289
0.52329434
0.48370281
0.44914486
0.41765469
0.39599721
0.38522357
0.38062125
0.37925907
0.3791375
0.38019066
0.38225665
0.38687867
0.39082054
0.39365741
0.40249998
0.4057442
11.151874
4.5967189
2.1983191
1.2172672
0.80830842
0.62578718
0.5381714
0.48835949
0.44631932
0.41579873
0.40031626
0.39313157
0.39009931
0.38948603
0.38976031
0.39113285
0.39339456
0.39624429
0.40034453
0.4028069
0.40810377
0.41639439
0.41585208
11.592453
4.5998297
1.9563202
1.0352512
0.70968136
0.57797552
0.50710647
0.45603904
0.42774192
0.41660376
0.41124749
0.40862901
0.40740673
0.40689529
0.40709519
0.40812437
0.40986439
0.41269795
0.41587974
0.41879971
0.42547168
0.42883499
0.43282046
11.908657
4.4814928
1.6917815
0.91195129
0.65745418
0.54406483
0.48020702
0.45230238
0.4425528
0.43690517
0.43306232
0.43029338
0.4284083
0.42701419
0.4264754
0.42688371
0.42785525
0.43011359
0.43329176
0.43732267
0.44224132
0.44639992
0.47048583
12.069371
4.2813681
1.475573
0.84054995
0.62219709
0.52305105
0.48829692
0.47566039
0.46814324
0.46179277
0.45696866
0.45330677
0.45052819
0.44828363
0.44690345
0.4464026
0.44726697
0.44921525
0.45248404
0.45595061
0.4610473
0.46993127
0.51639858
12.061167
4.0167223
1.3500866
0.78393037
0.59265424
0.53775675
0.5182521
0.5072997
0.49777826
0.48983296
0.48321252
0.47792131
0.47348197
0.46995487
0.46739542
0.46615207
0.46636819
0.46753186
0.47057499
0.47507563
0.48410341
0.49858205
0.54274118
11.880967
3.7370182
1.2589415
0.73636497
0.60548908
0.56919884
0.55274435
0.54059053
0.52944698
0.51962742
0.51090376
0.50334421
0.49678058
0.49156354
0.48755565
0.48520874
0.48480907
0.48565506
0.48853
0.49400799
0.50425848
0.52034542
0.55245631
11.55531
3.4507378
1.1586832
0.7198757
0.63097478
0.60378487
0.58871125
0.5753922
0.56270753
0.55070665
0.54042116
0.53072192
0.52208801
0.51481229
0.50832552
0.50368814
0.5021106
0.50225876
0.50442064
0.50912896
0.51741789
0.53080269
0.55317466
11.123236
3.1569293
1.0552962
0.73010739
0.6715579
0.65176666
0.63806534
0.62159743
0.60491097
0.58942766
0.57470766
0.56164374
0.5504798
0.54076086
0.53253358
0.52512647
0.52032059
0.51883661
0.51864843
0.52035402
0.52477408
0.53380664
0.54925765
10.60211
2.8477074
1.0167615
0.76462291
0.72414589
0.70739785
0.68729403
0.66698609
0.64825238
0.63069713
0.61501659
0.59934132
0.58491925
0.57206155
0.56039805