/*--------------------------------*- C++ -*----------------------------------*\
| =========                 |                                                 |
| \\      /  F ield         | OpenFOAM: The Open Source CFD Toolbox           |
|  \\    /   O peration     | Version:  2406                                  |
|   \\  /    A nd           | Website:  www.openfoam.com                      |
|    \\/     M anipulation  |                                                 |
\*---------------------------------------------------------------------------*/
FoamFile
{
    version     2.0;
    format      ascii;
    arch        "LSB;label=32;scalar=64";
    class       volVectorField;
    location    "160";
    object      U;
}
// * * * * * * * * * * * * * * * * * * * * * * * * * * * * * * * * * * * * * //

dimensions      [0 1 -1 0 0 0 0];

internalField   nonuniform List<vector> 
20580
(
(0.081202731 -0.00081863728 9.5017663e-22)
(0.082733253 -0.00063918816 1.3284135e-19)
(0.09089929 0.00030839432 -1.2617987e-21)
(0.090212037 0.00038758195 2.2200114e-20)
(0.088876694 0.0010863835 6.3471654e-23)
(0.089303116 0.0013821521 1.3414954e-20)
(0.088556586 0.0017572033 -1.1918899e-20)
(0.087587212 0.0024987716 -9.147633e-21)
(0.086962385 0.0020787681 -1.1823181e-20)
(0.086171615 0.0017255775 0)
(0.085207007 0.0020841669 7.9516724e-21)
(0.083848463 0.0036033146 2.2513889e-20)
(0.083294249 0.0025991345 -9.4412782e-21)
(0.082612225 0.0016213879 -6.6405712e-22)
(0.081294248 0.0031935658 -1.5199299e-20)
(0.080391873 0.0037527072 2.7033485e-20)
(0.081377974 -0.0012779667 7.166407e-20)
(0.079154612 0.0010227417 6.7857511e-21)
(0.076315665 0.0046659459 3.2423246e-20)
(0.07891229 -0.0035569217 -3.8508208e-21)
(0.077549018 -0.0046436343 -6.2011501e-22)
(0.07276955 0.0016039362 4.9228216e-21)
(0.073406288 -0.0028412234 -6.0629768e-20)
(0.079117764 -0.014581148 1.0886327e-19)
(0.077939322 -0.018193347 1.3203944e-19)
(0.070374675 -0.010235061 1.1660037e-19)
(0.070270837 -0.0018141411 9.9215837e-20)
(0.073670084 -0.0044404793 -1.1481445e-20)
(0.067556237 -0.020798445 -6.407249e-20)
(0.06499068 -0.032685138 9.7874599e-20)
(0.087147229 -0.032754371 9.3389312e-20)
(0.079297121 -0.00026246777 0)
(0.080423178 -0.0003231355 -1.1434784e-19)
(0.088970296 0.00011884368 -5.2168119e-20)
(0.088622838 0.00089058279 5.5701244e-21)
(0.088566694 0.00026309901 -2.2981292e-20)
(0.088513689 0.0015570019 -4.1433433e-22)
(0.088038341 0.0018005406 -2.9441569e-20)
(0.087524974 0.0020063146 -1.4200451e-20)
(0.086951916 0.0019705069 -1.512012e-20)
(0.086141824 0.0017213603 -1.0398144e-20)
(0.084941696 0.0023188389 -3.2291117e-20)
(0.084041879 0.0032198488 -1.4528379e-21)
(0.083818673 0.0021970604 -1.2565826e-20)
(0.082767069 0.0018418471 -3.9245676e-22)
(0.081458306 0.0028292563 1.7387223e-20)
(0.081700664 0.002638822 1.1433388e-21)
(0.081906433 -0.00080798902 -6.6035747e-21)
(0.078614431 0.0024249006 8.0695037e-20)
(0.078577983 0.0029360602 0)
(0.081121379 -0.0039380561 -3.4438686e-20)
(0.077189494 -0.0023096797 0)
(0.074180796 0.0017555708 3.264453e-20)
(0.077597141 -0.004666918 6.3463063e-20)
(0.080170491 -0.0099617266 6.2516228e-22)
(0.074857739 -0.0084619503 7.5069065e-20)
(0.066616334 -0.0052498252 -4.9748266e-20)
(0.070278914 -0.0043535511 3.0300593e-20)
(0.082097922 -0.0094270077 7.1401753e-21)
(0.080159303 -0.023411223 1.7542482e-19)
(0.068286249 -0.035320673 1.0296501e-20)
(0.073029515 -0.029699383 -2.8261382e-19)
(0.077724403 0.00047719823 0)
(0.078664055 0.00070523301 0)
(0.0868316 3.6597203e-05 2.5234141e-19)
(0.087001521 0.001358742 1.7994377e-19)
(0.087384897 -0.00016792852 -1.0039336e-19)
(0.087535973 0.0015142675 -2.8606074e-22)
(0.087403182 0.0016483736 3.4510424e-20)
(0.087068484 0.0013194545 -4.2891772e-20)
(0.086601815 0.001836679 0)
(0.085958818 0.0017445869 -1.6923393e-20)
(0.08481104 0.0024970741 6.9219425e-21)
(0.084202818 0.002628479 1.5568187e-20)
(0.084104204 0.0018899542 0)
(0.082975411 0.0023055089 1.1187479e-21)
(0.081784833 0.0021080649 -1.4626089e-21)
(0.082456662 0.0014852288 5.2722311e-21)
(0.082214493 5.9507291e-05 4.543072e-21)
(0.078704479 0.0032388485 1.6402722e-21)
(0.080044771 0.0011453384 5.3219239e-20)
(0.082290595 -0.0035298341 0)
(0.077233709 -0.00017242642 0)
(0.075598039 0.00077195236 -4.7086423e-21)
(0.07981674 -0.0053705348 7.2674749e-21)
(0.0810989 -0.0060501576 8.9324892e-20)
(0.075934549 -0.0012749352 3.1469786e-20)
(0.06795233 -0.0034786137 -8.86877e-21)
(0.070381954 -0.010419398 5.5913566e-20)
(0.084750491 -0.014868801 3.245595e-20)
(0.089730566 -0.021665799 -7.3105009e-20)
(0.074331557 -0.032391799 -6.1158312e-20)
(0.059533934 -0.030602342 2.5042357e-20)
(0.076214324 0.00065150024 0)
(0.077159501 0.0015392626 3.4364062e-23)
(0.085095504 9.6298356e-05 4.7088379e-21)
(0.085386274 0.0014368645 3.1264206e-21)
(0.085904698 -9.4931024e-05 -2.428784e-19)
(0.086258722 0.001204995 2.6858287e-21)
(0.086514033 0.0013943826 3.5387152e-20)
(0.086342734 0.0008564956 0)
(0.085985536 0.0016085686 -7.8647867e-23)
(0.085483639 0.0018042884 -9.5824648e-21)
(0.084514444 0.0027192645 -1.3235691e-20)
(0.084213083 0.0019351942 1.4711991e-20)
(0.084081158 0.0016476103 6.8238308e-25)
(0.08305056 0.0027951636 -6.2089027e-21)
(0.082117089 0.0018046624 2.256875e-20)
(0.082925622 0.00035364627 2.0440071e-21)
(0.0821989 0.0012480785 5.6790698e-20)
(0.079122369 0.0039384429 -2.2153611e-22)
(0.081306285 -0.00087855849 -1.4225732e-21)
(0.082515247 -0.0025218692 5.6476353e-21)
(0.077287551 0.0022646503 -1.048704e-20)
(0.077121039 -0.00037817333 3.4513092e-20)
(0.080853132 -0.0068988239 -7.8566915e-21)
(0.080403337 -0.0040897241 1.1451351e-19)
(0.077539445 0.0033797097 0)
(0.072961455 -0.0016435483 -6.4476423e-21)
(0.072330463 -0.015553983 -6.0081119e-20)
(0.083427825 -0.020601817 4.8899081e-21)
(0.092779078 -0.017860142 5.7724082e-21)
(0.082346316 -0.021992185 -7.5148244e-20)
(0.057755195 -0.027885934 -7.8416534e-20)
(0.075501266 0.00031531909 0)
(0.076436842 0.001914518 -2.3519347e-19)
(0.084081603 0.00042417654 -1.9580954e-19)
(0.084212911 0.0011289659 -2.4102821e-19)
(0.084604724 0.00041003133 -8.2635679e-22)
(0.085032597 0.00080721784 -6.6689612e-20)
(0.085474113 0.0011297489 0)
(0.085454028 0.00081006811 3.0658331e-20)
(0.085229195 0.0012303012 -1.960311e-20)
(0.084766235 0.001875428 -5.1351258e-20)
(0.084083513 0.0028045967 -2.0709854e-20)
(0.084029635 0.001348389 -1.3611772e-22)
(0.083720832 0.0015694794 -2.0776014e-20)
(0.082943504 0.0030495158 6.302211e-21)
(0.082429083 0.0017894356 1.7610808e-20)
(0.082950274 -0.0004366535 -6.9417184e-21)
(0.081787245 0.0022858339 8.6325682e-20)
(0.079815009 0.0040405132 4.6047874e-20)
(0.082243735 -0.0024634919 -4.9175505e-20)
(0.08201631 -0.0014984302 0)
(0.077574578 0.0036587155 -5.6684358e-21)
(0.07918824 -0.001319342 8.7464386e-21)
(0.081652248 -0.0084996433 9.5557665e-21)
(0.078592953 -0.0047326369 6.1394106e-21)
(0.078235545 0.0033503019 0)
(0.080123118 -0.0015075063 1.8693866e-19)
(0.078429111 -0.017804528 -9.367849e-20)
(0.081422132 -0.024136365 -1.1897549e-19)
(0.089961825 -0.013748207 2.063229e-19)
(0.088990331 -0.0075019146 3.5986944e-20)
(0.069575093 -0.016205436 1.5301383e-19)
(0.075386843 -0.00021618946 -1.704508e-19)
(0.076260735 0.0016172969 -1.3278996e-21)
(0.0837217 0.00072903931 3.5395122e-23)
(0.083691411 0.00049867352 5.039428e-20)
(0.083833751 0.0010162521 -1.0422101e-20)
(0.084157495 0.00053569194 -4.5255757e-22)
(0.084562731 0.00091800765 2.2097375e-20)
(0.084549669 0.0010628052 -1.0669512e-23)
(0.084371486 0.00077401719 -3.7892297e-21)
(0.083882856 0.0018904743 8.0039627e-20)
(0.083551706 0.0026172791 -2.5214147e-20)
(0.083613186 0.0011335325 -1.5404342e-20)
(0.083071001 0.0016816362 -2.0073673e-20)
(0.082598123 0.003057105 3.576686e-21)
(0.082569105 0.0018738056 2.125099e-20)
(0.082585042 -0.00043783647 4.8440405e-22)
(0.081083177 0.0028902419 9.0483526e-20)
(0.080567255 0.0036574885 7.0042826e-20)
(0.082831819 -0.0029825659 -2.3504519e-21)
(0.081065884 -0.00039152208 0)
(0.077840903 0.0041574213 7.4286563e-22)
(0.081458736 -0.0020210306 -2.1005542e-19)
(0.082751313 -0.008362395 -4.7978503e-20)
(0.07666879 -0.006137803 0)
(0.077507714 -0.00043536591 -5.5605179e-20)
(0.085576881 -0.0040250724 -1.086015e-19)
(0.085852827 -0.017634594 9.0118341e-20)
(0.080376098 -0.024507509 -1.7263282e-19)
(0.082453681 -0.011180358 -1.573626e-19)
(0.090938456 0.0035037173 -5.6996434e-20)
(0.086905279 0.0010700834 2.0318189e-19)
(0.07546651 -0.00083414249 3.8228281e-21)
(0.076268554 0.0012365075 -8.5373804e-20)
(0.083635442 0.00086797134 2.9259087e-22)
(0.083480758 -9.0515622e-05 1.2466474e-19)
(0.08347745 0.001466444 -7.1958671e-20)
(0.083740536 0.00055742777 9.9439656e-20)
(0.083940173 0.00079652408 -8.8745771e-20)
(0.083855393 0.0012470449 -2.3475381e-23)
(0.083561559 0.00049971746 4.6809516e-22)
(0.0829667 0.0018785827 -1.0118027e-20)
(0.082892191 0.0021210018 5.5928793e-22)
(0.082926921 0.0012953632 -4.9125401e-22)
(0.082178742 0.0019191343 1.1809101e-20)
(0.081983827 0.0027068312 4.2216287e-23)
(0.082382023 0.0019505003 -1.7312945e-20)
(0.08190155 0.00020562095 3.4594158e-21)
(0.080165834 0.0029105268 -6.8446899e-22)
(0.080961893 0.0025281582 -1.5042878e-19)
(0.082886882 -0.0030431515 0)
(0.07980502 0.00071037036 8.2996335e-20)
(0.077949181 0.0034642771 -6.3109399e-21)
(0.083011175 -0.0034144609 -7.3136194e-20)
(0.083715667 -0.0063434399 -1.6128346e-20)
(0.075958424 -0.005268233 -2.0924555e-20)
(0.075933012 -0.0053035652 -6.3106044e-20)
(0.086954921 -0.00759163 -1.3209013e-20)
(0.090600593 -0.013985089 -9.3194072e-20)
(0.080576259 -0.019344225 8.9285786e-21)
(0.074725949 -0.012448829 -3.9724459e-19)
(0.084802762 0.002780633 2.6374049e-19)
(0.099480453 0.0085416455 -1.8794298e-20)
(0.076353633 -0.00093128743 -1.1869276e-18)
(0.077015323 0.00098669515 0)
(0.084136018 0.00052507105 -2.582723e-19)
(0.083692918 -0.00037976314 -2.0743176e-19)
(0.083417481 0.0015346377 1.9407398e-19)
(0.083511485 0.00081934992 -1.5012727e-22)
(0.083485579 0.00075761484 -4.1877135e-20)
(0.083343846 0.0012172565 -2.2131507e-22)
(0.082835417 0.000685763 -1.8144789e-20)
(0.082132381 0.0017941962 2.6742885e-20)
(0.082144222 0.0014633409 5.6138218e-21)
(0.08201382 0.0015475297 -4.2589219e-22)
(0.081141276 0.0021781688 -2.6353462e-22)
(0.08103299 0.0019560395 -5.4274953e-21)
(0.0816192 0.0018418856 9.2025894e-21)
(0.080799364 0.001063635 1.24902e-20)
(0.079046006 0.0027238381 -1.2398221e-20)
(0.080804399 0.00096659269 -5.8223508e-20)
(0.082045533 -0.0024139243 4.1008664e-22)
(0.078246552 0.0020989106 -1.4622413e-21)
(0.077900439 0.0017156934 9.1633359e-21)
(0.083079759 -0.0051497466 -4.0564231e-22)
(0.083310434 -0.0035309325 0)
(0.076490887 -0.0019816009 -1.1708101e-20)
(0.075516054 -0.0082762836 7.3258942e-21)
(0.085525774 -0.011171854 -1.7394444e-19)
(0.091405713 -0.0089798892 2.5456099e-20)
(0.081214406 -0.0091975396 -1.5498528e-19)
(0.069020735 -0.012396512 5.264467e-20)
(0.073914753 -0.0071084032 -3.2987255e-19)
(0.096799504 -0.0017672605 -9.5144342e-20)
(0.080643339 -0.00068052487 5.0274628e-19)
(0.079611872 0.0014646089 -1.0322263e-23)
(0.085439106 0.00012338916 -4.1377642e-20)
(0.084378814 -0.00026243987 -2.6300134e-19)
(0.083733275 0.0011347019 1.2020506e-21)
(0.08361637 0.0010657947 -8.452463e-23)
(0.083295578 0.00077884039 1.7537868e-20)
(0.083021856 0.0010500486 -8.730761e-24)
(0.082221991 0.0013125857 -1.0214137e-20)
(0.081363865 0.0015560069 -1.6661768e-20)
(0.081206829 0.00093376461 -9.7951762e-21)
(0.080812999 0.0017290193 0)
(0.079944229 0.0024241694 4.4040557e-22)
(0.079717327 0.0010838693 1.7583407e-21)
(0.08016578 0.0014541844 -2.1089131e-20)
(0.079263423 0.001894829 -6.9039891e-21)
(0.07766934 0.0024434629 -1.9757584e-21)
(0.079748252 -0.00071439472 3.5895774e-20)
(0.080122201 -0.0011469207 -5.0283489e-20)
(0.076530165 0.0034736908 -2.8090249e-20)
(0.077748787 -0.00021069953 6.6040828e-20)
(0.081944569 -0.0064678111 3.3251953e-22)
(0.081605556 -0.00062606432 -1.0313659e-20)
(0.077712254 0.0028028362 -7.9867426e-21)
(0.07679976 -0.0078862319 3.7603605e-21)
(0.082755612 -0.013731984 1.0084584e-19)
(0.088682632 -0.005499161 -1.6748847e-19)
(0.084204798 0.0012038803 -4.5387304e-20)
(0.07175001 -0.006643482 -2.0099771e-19)
(0.068336047 -0.017353331 6.8491531e-20)
(0.08513512 -0.019647907 -1.8598011e-19)
(0.094389552 0.00069901808 1.2016955e-18)
(0.083902952 0.001669879 4.9165694e-23)
(0.088192796 -0.00012457801 -4.7798944e-20)
(0.086233121 0.00014693088 2.8105423e-19)
(0.08474989 0.00054662734 -2.108238e-22)
(0.084233191 0.0010105815 0)
(0.083541844 0.00083265366 -3.9151785e-20)
(0.082858497 0.00088934208 -3.6731511e-20)
(0.081924494 0.0018602624 -1.1568326e-20)
(0.081011977 0.001075971 -1.44759e-20)
(0.080463502 0.00051979295 2.6717754e-23)
(0.079719171 0.0017622068 7.6834192e-23)
(0.078969554 0.0024725461 0)
(0.078564143 0.00048788121 4.2108607e-20)
(0.078552927 0.000750754 1.910743e-20)
(0.07758519 0.0024770787 1.6556269e-21)
(0.076452199 0.0020819713 5.6866084e-20)
(0.078200564 -0.0019258318 2.1279801e-20)
(0.077450008 0.00036712357 -7.4876889e-20)
(0.074788767 0.0043430729 -1.988757e-21)
(0.077373348 -0.0012414709 1.0476022e-19)
(0.079573598 -0.007005482 -5.7064312e-20)
(0.077771882 0.0010461579 -1.6601526e-19)
(0.077923722 0.0063107903 2.6315131e-20)
(0.079217311 -0.0046265481 -2.796578e-19)
(0.079827797 -0.013817625 1.0487243e-21)
(0.082285814 -0.0039671367 2.4360501e-21)
(0.084701098 0.0075587018 4.0996282e-20)
(0.081197511 0.0021360716 -2.5772077e-19)
(0.074804137 -0.020397016 -2.907009e-19)
(0.07732772 -0.032257359 1.8508068e-19)
(0.10941165 0.0015796234 1.3458768e-20)
(0.091493793 0.0021631995 2.1190142e-22)
(0.093538533 0.00023919043 -5.2863297e-20)
(0.090758136 0.00076721832 3.6724705e-22)
(0.087866225 0.00010504436 -9.8291949e-22)
(0.086128073 0.00062109826 -2.230826e-19)
(0.084620581 0.00086006329 -7.1429841e-20)
(0.08331962 0.00077347633 -3.7855591e-23)
(0.08227471 0.001910368 -2.2581263e-20)
(0.081377562 0.00059787296 1.0127703e-20)
(0.080485175 0.0003573239 4.4018407e-21)
(0.079530863 0.0017154281 -2.0904545e-20)
(0.079073709 0.0022613805 0)
(0.078628878 0.00033968489 -9.7116148e-23)
(0.078077515 0.00021415991 3.5219531e-20)
(0.077121485 0.0025170644 3.1052035e-22)
(0.076629928 0.0015326979 -2.2779611e-21)
(0.077609386 -0.0022669947 2.432138e-23)
(0.07567094 0.0014899492 -5.8303112e-21)
(0.074120078 0.0043502579 -2.5530376e-22)
(0.077892806 -0.001743253 -1.079659e-19)
(0.077697246 -0.0063800943 -2.8528773e-20)
(0.073646445 0.0008471679 -6.6153172e-22)
(0.077102582 0.0061794419 -3.8071583e-20)
(0.082183574 -0.0014336444 -7.2670679e-20)
(0.078694376 -0.011067187 -2.4589026e-20)
(0.075035928 -0.0051002465 1.8501322e-19)
(0.080523927 0.0065187301 -1.7320791e-19)
(0.089327879 0.0058788361 2.403222e-20)
(0.088203128 -0.014376875 3.5007547e-19)
(0.079780993 -0.03306169 4.2936703e-20)
(0.11136823 0.0019305754 9.1164873e-19)
(0.096351873 0.0025355301 0)
(0.098520134 0.00081810078 5.2743083e-20)
(0.09573338 0.0013394898 3.0797781e-19)
(0.092437452 -6.6536301e-05 2.1260559e-19)
(0.089928544 0.00017798527 1.2307595e-20)
(0.087650437 0.00073709083 -6.0538218e-22)
(0.085577772 0.00076317845 -5.9975746e-24)
(0.084000935 0.0014893548 1.283289e-20)
(0.082800798 0.00040604118 6.9376622e-21)
(0.081463817 0.00051330442 2.6907877e-21)
(0.080354906 0.0014939309 6.5143709e-23)
(0.080119711 0.0016547318 -1.3891751e-20)
(0.079713896 0.00037749462 0)
(0.078598085 0.00010655235 1.9544109e-20)
(0.077661255 0.0020663264 4.6884995e-20)
(0.077819497 0.0010131413 -5.8607323e-20)
(0.078016924 -0.0017983134 -2.6142922e-20)
(0.075249416 0.0023489796 5.2284065e-22)
(0.074764465 0.0035108801 -4.1250798e-20)
(0.079271495 -0.0018812048 -6.0155852e-20)
(0.077072596 -0.0037207863 1.9286949e-21)
(0.070703813 0.0002564425 9.0013258e-20)
(0.075319975 0.0026459393 5.3745182e-20)
(0.083915055 -0.0014956127 6.0715521e-20)
(0.079432322 -0.0064472454 -5.5439513e-20)
(0.069931295 -0.0066032392 -6.8674452e-20)
(0.07309141 -1.4173681e-05 -3.4609843e-21)
(0.088687417 0.0014238961 -1.3506976e-19)
(0.098056762 -0.0060008546 -1.0114278e-19)
(0.089788841 -0.021439167 1.356945e-19)
(0.11028147 0.00207979 -4.8775284e-19)
(0.096623431 0.002706231 -2.7751797e-19)
(0.099702305 0.0013717027 2.3531616e-22)
(0.097365605 0.0014443672 3.99021e-21)
(0.095006612 2.5426045e-05 1.3888176e-22)
(0.093398179 2.1296114e-05 -2.7230302e-19)
(0.091643422 0.0004797643 1.1836364e-20)
(0.089658085 0.00074808525 -4.6030038e-24)
(0.087987734 0.00068555764 4.7093517e-24)
(0.086533836 0.00046713854 -5.3411224e-21)
(0.084901729 0.00095868415 2.9157784e-22)
(0.083702047 0.0013317744 3.0394478e-21)
(0.083492905 0.001040826 2.0137296e-22)
(0.082933414 0.00081710515 -5.8858525e-22)
(0.081376488 0.00033142795 0)
(0.080257907 0.0012377235 0)
(0.080661673 0.00042988279 3.3994209e-20)
(0.080080678 -0.00097902433 -3.1969845e-21)
(0.076815581 0.0027608236 3.2383695e-20)
(0.077062717 0.0012772357 -9.470116e-21)
(0.081410491 -0.0028295573 -1.2380101e-20)
(0.078484428 -0.00035912296 -3.8188638e-21)
(0.071223949 0.0004366273 0)
(0.07496295 -0.0031445514 0)
(0.084085785 -0.004782185 0)
(0.081560723 -0.0019266216 -2.1760774e-20)
(0.070528023 -0.0043888128 2.07266e-21)
(0.06916878 -0.0080398172 2.6827211e-20)
(0.083070373 -0.0086778708 4.2504909e-20)
(0.096991775 -0.0053848226 -1.4918147e-20)
(0.095886607 -0.0069700728 -4.1326031e-20)
(0.10688557 0.0013666881 -2.1419639e-19)
(0.094717609 0.0019093866 -4.1204459e-21)
(0.098480914 0.0014161515 2.1155865e-22)
(0.096634446 0.0011375677 -2.8907362e-19)
(0.094769847 0.00041670601 0)
(0.093681467 0.00024671422 -3.0901882e-22)
(0.092605479 0.00041511368 -5.559919e-20)
(0.091656005 0.00082886063 -4.974538e-20)
(0.091066516 -4.8181768e-05 -9.8160523e-23)
(0.090246881 0.00085099734 2.9551173e-21)
(0.089078537 0.0014195121 2.1662514e-21)
(0.088219395 0.0011740661 0)
(0.088190828 0.0003197823 2.8057795e-21)
(0.087762942 0.0014146188 -2.6047033e-20)
(0.086382212 0.00096765782 2.7431562e-20)
(0.08536635 0.00074594751 1.3867203e-21)
(0.085782483 0.00014896926 -1.1718654e-21)
(0.084584265 0.00048695833 3.3240096e-21)
(0.081523647 0.0032971206 -1.2461628e-20)
(0.082124945 -0.00094321739 -9.9030482e-21)
(0.085019725 -0.0034481199 -2.981786e-22)
(0.08224161 0.0028181465 -5.3069611e-20)
(0.076416087 0.0025980313 7.1626799e-20)
(0.078456477 -0.0074832487 0)
(0.08470162 -0.0078220066 8.4871736e-21)
(0.083967937 0.0007462752 -3.2696801e-20)
(0.076197332 0.0013402222 -1.7209258e-19)
(0.072310467 -0.011464356 6.4987236e-20)
(0.080053064 -0.017580222 1.0295648e-19)
(0.092283616 -0.0096927461 1.3141168e-19)
(0.09722067 0.0019097983 6.212367e-20)
(0.096933989 0.00015349831 2.2203469e-19)
(0.089528967 0.00044221527 8.7411094e-20)
(0.094581764 0.0007295654 -6.8872056e-22)
(0.093582927 0.00028606908 7.8094056e-20)
(0.092492129 0.00046437705 3.3745224e-20)
(0.092010076 0.00041390971 1.4241344e-22)
(0.091593919 0.00038053208 1.5190764e-19)
(0.091254413 0.00063367752 1.0774823e-20)
(0.090866097 -0.00053042565 3.4366638e-22)
(0.090170783 0.0010498638 1.0864691e-22)
(0.089506926 0.0015758852 -7.4954423e-21)
(0.089154299 0.0010778663 2.5213204e-22)
(0.08918824 -0.00012192215 5.3448691e-22)
(0.089085941 0.0016800254 3.6177301e-22)
(0.088302642 0.0014572092 3.8273731e-20)
(0.087659667 0.00030671083 8.1005655e-23)
(0.088253614 -0.00060922884 1.849047e-20)
(0.087107297 0.0014147594 4.0169633e-21)
(0.085330223 0.0032389858 -5.2170979e-22)
(0.086593068 -0.0027759105 0)
(0.087819212 -0.0039577198 -1.0655243e-19)
(0.08558684 0.0047586298 -2.1936026e-21)
(0.083543244 0.0046478084 1.564843e-19)
(0.08486063 -0.0089059628 -3.9312988e-21)
(0.086198858 -0.010158192 -7.0928831e-20)
(0.085448154 0.0017971816 2.3743994e-19)
(0.084415583 0.0066098977 3.9862761e-20)
(0.082517165 -0.0077814714 7.0737296e-22)
(0.081322423 -0.021020448 -4.9560789e-21)
(0.085663936 -0.014403692 -1.4551133e-19)
(0.091330482 0.0027888548 2.4309983e-21)
(0.085127506 -0.0011589869 -3.0555751e-19)
(0.084245979 -0.00032200658 1.160923e-22)
(0.090272329 -0.00023092757 -4.901925e-20)
(0.089516952 -0.00031278849 -2.3188627e-21)
(0.089048696 0.00050046599 1.1545997e-21)
(0.089006576 0.00053214493 2.4640165e-20)
(0.089004531 0.00030994712 0)
(0.089148423 0.00015885349 -6.4087215e-23)
(0.088843319 -0.00054907243 -1.8038725e-23)
(0.088277335 0.0010024319 6.6304917e-20)
(0.087987827 0.0016712774 3.7209807e-23)
(0.087984492 0.00095731974 -1.2850363e-22)
(0.087886903 -0.00030146381 5.5557642e-21)
(0.087872975 0.0014685097 5.6108294e-20)
(0.087684088 0.0020514691 -2.9883888e-20)
(0.087219269 0.00056605723 -1.6039963e-22)
(0.087390724 -0.00035664379 -1.4961612e-22)
(0.086165198 0.0024558458 -5.0921811e-22)
(0.085916307 0.0030165502 0)
(0.08763121 -0.0031170067 9.0714334e-20)
(0.08661546 -0.0039380399 -1.0806668e-19)
(0.084710571 0.0048366761 5.9728784e-20)
(0.087244247 0.0046379525 5.0875539e-20)
(0.08947946 -0.0069441891 2.106721e-21)
(0.085912375 -0.010458105 -1.9138869e-20)
(0.083283939 0.0010772876 -1.0395769e-19)
(0.088246418 0.0076533475 3.8409685e-20)
(0.093197104 -0.00081145383 -1.103968e-19)
(0.088337714 -0.015631267 9.2081671e-20)
(0.081842506 -0.016517289 -6.211056e-20)
(0.082597906 -0.0022049398 -9.1377258e-21)
(0.082855078 -0.0012148991 -4.686066e-19)
(0.083313552 -0.00070829949 -2.8061473e-23)
(0.089852559 -0.0011424261 4.8700921e-22)
(0.089134701 -0.00091605835 3.9438477e-19)
(0.088696736 0.00019846932 -1.3767945e-21)
(0.088636339 4.9177646e-05 1.2279817e-19)
(0.088553211 8.1746129e-05 0)
(0.088582675 -0.00038044006 0)
(0.088057221 -0.0002232643 6.2373509e-23)
(0.087264458 0.00043992072 0)
(0.08697904 0.0015483286 2.3515786e-20)
(0.086963285 0.000881761 4.2712671e-20)
(0.086353148 1.9824344e-05 0)
(0.085897999 0.0010059343 7.5073287e-20)
(0.085895921 0.0017245545 -1.4461023e-20)
(0.085562492 0.00041988241 -4.5934807e-20)
(0.085187877 -0.00048193267 -1.4686348e-21)
(0.083874956 0.0020786976 1.0198889e-21)
(0.084843723 0.001654459 5.1390157e-20)
(0.086981915 -0.0025670366 6.1419459e-20)
(0.084071914 -0.0029015662 6.1883973e-20)
(0.081872487 0.0030396215 9.9952736e-22)
(0.087495706 0.003274107 -2.2164078e-20)
(0.091652355 -0.0033127093 5.9038838e-20)
(0.084880521 -0.0067414778 -3.5610204e-20)
(0.07912466 -0.00011469361 -2.3328894e-19)
(0.086485728 0.0049415428 3.8429535e-21)
(0.097726164 0.0027614983 1.343243e-20)
(0.095508027 -0.0054939694 -2.4272673e-19)
(0.082742511 -0.011408204 -1.0262223e-19)
(0.076256188 -0.0061869967 1.2245229e-19)
(0.083672505 -0.0015130989 4.5885681e-19)
(0.084254464 -0.00035245216 -4.8057455e-23)
(0.091188508 -0.0011852851 -1.51203e-19)
(0.09067071 -0.00075850613 -3.2884775e-19)
(0.090432919 7.5558619e-05 1.5375302e-19)
(0.090409614 -0.00042976033 5.0025835e-22)
(0.090278412 6.0549246e-05 1.9027409e-22)
(0.090175098 -0.00057581039 -8.0632543e-20)
(0.089490189 0.00057391279 -1.604745e-20)
(0.08856952 0.00026036753 -6.5607544e-21)
(0.088180889 0.0011039058 -9.3069362e-22)
(0.088130212 0.00036356497 2.0459596e-22)
(0.087210762 0.00041082131 2.2347681e-21)
(0.086390878 0.00068005892 6.8993398e-21)
(0.086207254 0.0012839425 5.008912e-21)
(0.085484605 0.00092752012 -3.2455536e-20)
(0.084164331 0.00043960315 8.2451565e-21)
(0.082397684 0.0019614841 -6.6042642e-22)
(0.083584262 0.00041032984 5.9211212e-21)
(0.085550334 -0.0012223123 6.8263316e-22)
(0.081608638 -0.00027044315 7.7208254e-21)
(0.078483474 0.00098721977 -1.2859948e-20)
(0.084814844 0.00012228494 5.4630306e-20)
(0.090647642 -0.0014784751 7.5520249e-23)
(0.083496543 -0.00021542636 -2.9143483e-20)
(0.07523187 -0.00041494315 8.7923466e-21)
(0.081297254 -0.00076333724 2.6836543e-21)
(0.095244566 -0.00080617327 -1.0299825e-19)
(0.098843221 0.0010009472 5.6976451e-20)
(0.08655503 -0.00054385327 -8.4510596e-20)
(0.075728242 -0.0044269674 -1.4695805e-19)
(0.085976505 -0.00041547887 5.2274913e-19)
(0.086544424 0.00052894549 -1.0639342e-22)
(0.093938541 -0.00073413511 -8.4907566e-22)
(0.093710822 -0.00043455504 -9.5068426e-22)
(0.093824076 -0.00020374008 -3.4738417e-20)
(0.093841792 -0.00078334542 -1.9375279e-20)
(0.093761262 -6.2722191e-05 -6.4728001e-20)
(0.09349955 -0.00047932891 2.220878e-20)
(0.092810338 0.0008996828 -9.8001533e-21)
(0.091868154 2.0341685e-05 3.1297983e-22)
(0.091194903 0.00054499667 1.8022779e-20)
(0.090760935 9.4928268e-05 6.1747554e-20)
(0.089266302 0.0011619366 1.0251454e-21)
(0.087661785 0.00021802987 2.4360131e-20)
(0.086853157 -0.00027373397 -1.6323886e-22)
(0.085875746 0.00018382272 7.8787797e-21)
(0.084198973 0.00035141718 -1.5869299e-20)
(0.082372261 0.00088599006 0)
(0.083349717 -0.0019100334 1.0167477e-22)
(0.084904523 -0.00078626908 -6.9793189e-22)
(0.081399136 0.002384061 4.1039685e-20)
(0.078076664 -0.00044833952 3.6262322e-20)
(0.083181752 -0.004789695 3.4677775e-21)
(0.088693818 -0.0017574836 6.0974665e-20)
(0.083842822 0.0051521903 -6.1781153e-21)
(0.07596027 0.0018396211 8.004728e-20)
(0.078808605 -0.0073070527 2.1049895e-20)
(0.090155777 -0.0082418571 9.7022606e-20)
(0.095906704 0.00090809725 -1.9357143e-19)
(0.089911392 0.0078044307 1.0220347e-19)
(0.080805203 0.001563695 3.3909618e-19)
(0.094868609 0.00018244515 -8.3970068e-20)
(0.09145914 0.0022029456 -9.094552e-20)
(0.096851327 0.00056952474 -1.3399819e-20)
(0.09593165 0.00064052131 -2.8623752e-19)
(0.095579529 -5.5858718e-05 5.0700285e-22)
(0.095358388 -0.00038755771 2.0451444e-22)
(0.09517884 -4.7390324e-05 -1.0080998e-22)
(0.094854933 0.00018790152 -2.7332909e-20)
(0.094169703 0.00099458579 2.8322692e-20)
(0.09293921 0.00067632671 -2.0672638e-20)
(0.091834315 -0.0002845396 1.6375053e-20)
(0.090940428 -0.00058352484 -1.384261e-22)
(0.0893968 0.0015837871 -2.499038e-21)
(0.088034344 -8.2722713e-05 8.5589543e-24)
(0.086979301 -0.00073268926 -6.8511489e-20)
(0.086002166 0.00040441932 1.59919e-20)
(0.084202429 0.0012592258 3.4904563e-22)
(0.08280723 0.0010700899 5.0274761e-23)
(0.083221096 -0.0028804278 -1.4127854e-21)
(0.083799799 0.0002636064 -1.1006429e-19)
(0.081807492 0.0053587709 4.0416448e-21)
(0.079815803 0.00061810834 -1.6726317e-19)
(0.082462237 -0.0073094113 -6.0832395e-21)
(0.085629027 -0.0016951486 1.8435387e-19)
(0.083740807 0.0088837388 -1.726648e-20)
(0.080514236 0.0063363823 1.045306e-19)
(0.081351132 -0.0092555968 3.580885e-19)
(0.086057348 -0.013533344 7.6299672e-20)
(0.089939737 -0.0013614296 1.0448565e-19)
(0.089956097 0.010799039 6.8040565e-20)
(0.087087051 0.0080890448 -4.2881765e-20)
(0.10532137 0.0019242151 1.1214418e-18)
(0.092107134 0.0023494375 -4.4829378e-21)
(0.096872066 0.0011585177 1.4703692e-21)
(0.095466331 0.0010876622 -2.6501662e-21)
(0.094823055 3.9468263e-05 -9.9648571e-22)
(0.09448055 -8.3684256e-05 1.8637521e-22)
(0.093998842 5.3608433e-05 -1.402578e-22)
(0.093568431 0.0005486227 1.8113055e-22)
(0.092932641 0.00010363593 1.0383303e-23)
(0.091971767 0.00049877588 7.3244987e-24)
(0.09089972 -0.00040383414 -5.8663272e-23)
(0.089796793 -0.00063777136 -6.9874388e-20)
(0.088583428 0.0015991624 2.5818324e-20)
(0.087833065 -0.00040412832 3.4985835e-23)
(0.086735294 -0.0020664913 2.8339149e-23)
(0.086039901 -0.00074769601 -3.9223667e-22)
(0.08486071 0.00063200607 -8.90556e-22)
(0.084482846 0.00018553359 6.9200415e-22)
(0.084285788 -0.0039257534 -8.5182061e-21)
(0.083521903 -0.00034925535 1.3623659e-19)
(0.083269795 0.0055208758 1.5827198e-20)
(0.083882322 0.00078371195 1.119421e-21)
(0.084251684 -0.008140327 1.7868639e-21)
(0.083340242 -0.0037045217 -2.8432079e-21)
(0.083087328 0.0076719063 -5.4146792e-20)
(0.086227476 0.0070617803 -5.1821322e-20)
(0.088110532 -0.0078370587 -2.2615449e-21)
(0.085245611 -0.016321086 3.280994e-20)
(0.083318642 -0.0063539564 1.1427085e-19)
(0.086671949 0.0070760277 -2.0794777e-19)
(0.091624176 0.0087223216 -4.8582876e-21)
(0.10138696 0.00065684978 1.6407252e-20)
(0.090895024 0.0019746404 2.6930149e-19)
(0.095017801 0.0014546795 -1.4746036e-19)
(0.094134516 0.0013672772 3.3251272e-19)
(0.092661896 -3.895258e-06 1.920191e-19)
(0.092667706 0.0002731456 1.825818e-20)
(0.091992113 0.00038631289 -1.3914547e-19)
(0.092110692 0.00074681931 -1.0388564e-22)
(0.091487615 0.0001116363 -3.213764e-21)
(0.091003817 0.000966199 -1.6011094e-20)
(0.090684851 -0.00093969149 -1.530475e-20)
(0.089888472 -0.00089329024 3.6268604e-22)
(0.089605085 0.0013405537 5.9667876e-20)
(0.089953515 -0.00039774321 1.1171688e-19)
(0.088922028 -0.001155184 -7.2809762e-22)
(0.088059435 -0.00025756956 -5.570406e-20)
(0.087829131 0.00094272988 1.9746392e-22)
(0.088742824 0.00065192275 3.9981761e-20)
(0.088458971 -0.0025513794 2.3829751e-22)
(0.086350235 -0.00049072362 1.0081549e-19)
(0.087346685 0.0045837147 -4.5791534e-20)
(0.090772264 0.001749707 -9.9281519e-22)
(0.090276351 -0.0047760152 6.1679944e-21)
(0.085502075 -0.0035008583 -1.2999917e-19)
(0.084950057 0.0051941321 8.986154e-21)
(0.092889591 0.0065033399 -3.6709786e-21)
(0.098471134 -0.0023486548 -3.8762098e-19)
(0.091856051 -0.010931035 0)
(0.082874396 -0.0074947033 -5.690674e-20)
(0.085184312 0.0027314142 -2.8675411e-19)
(0.095561677 0.0065996774 -4.7485803e-20)
(0.095696071 0.00071340226 -2.0075211e-19)
(0.098730417 0.00065396646 0)
(0.083109328 5.2982112e-05 7.0260979e-22)
(0.10710109 0.00033003403 3.4464859e-20)
(0.079294023 -2.7000073e-05 2.0358932e-20)
(0.10628026 -0.00036452512 -3.1423354e-22)
(0.086706018 0.00020145489 -8.3214263e-20)
(0.10509384 -0.0002415786 2.1237143e-20)
(0.092808819 -0.00024396359 -3.5876848e-21)
(0.10511785 -5.8908842e-05 -2.9092857e-22)
(0.091886707 0.00049662676 -6.0748287e-22)
(0.10103898 -0.00076749963 5.8932244e-21)
(0.10158582 0.00026083062 -2.2932726e-20)
(0.099343209 -0.00012091208 3.599636e-20)
(0.10459448 -0.0017968201 3.0048698e-21)
(0.10534531 -0.00055378154 -3.0328585e-23)
(0.10561533 -0.00021343131 1.9603839e-20)
(0.10753989 -0.00010990822 7.0300522e-21)
(0.10635582 -0.00070203051 3.4039047e-20)
(0.10369444 -0.00047505569 -7.8209356e-23)
(0.10555887 0.00058929744 -5.030405e-20)
(0.11035635 0.0001727918 -1.0219431e-20)
(0.10870435 -0.001263111 -1.0495245e-20)
(0.10201488 -0.0013027346 1.442368e-20)
(0.10049156 0.00037660074 4.7591728e-20)
(0.11029107 0.00097564059 -4.0268798e-20)
(0.11759125 -0.00057775621 3.0668433e-21)