/*--------------------------------*- C++ -*----------------------------------*\
| =========                 |                                                 |
| \\      /  F ield         | OpenFOAM: The Open Source CFD Toolbox           |
|  \\    /   O peration     | Version:  2406                                  |
|   \\  /    A nd           | Website:  www.openfoam.com                      |
|    \\/     M anipulation  |                                                 |
\*---------------------------------------------------------------------------*/
FoamFile
{
    version     2.0;
    format      ascii;
    arch        "LSB;label=32;scalar=64";
    class       volScalarField;
    location    "21";
    object      k;
}
// * * * * * * * * * * * * * * * * * * * * * * * * * * * * * * * * * * * * * //

dimensions      [0 2 -2 0 0 0 0];

internalField   nonuniform List<scalar> 
96472
(
3.3724638e-06
2.7950556e-06
2.2610409e-06
1.9198423e-06
1.6068725e-06
1.3599438e-06
1.2028529e-06
1.111714e-06
1.0474522e-06
9.8352951e-07
9.1188034e-07
8.3834364e-07
7.7308907e-07
7.2305206e-07
6.9017678e-07
6.7124538e-07
6.6098948e-07
6.5294074e-07
6.4305454e-07
6.2860274e-07
6.0946857e-07
5.8632469e-07
5.6177313e-07
5.3733026e-07
5.1542756e-07
4.9728424e-07
4.8376519e-07
4.7495101e-07
4.7049776e-07
4.6934143e-07
4.6952632e-07
4.7100702e-07
4.7360533e-07
4.7862319e-07
4.8070436e-07
4.8606341e-07
4.9077731e-07
4.9437184e-07
5.0485428e-07
5.0942905e-07
5.2322216e-07
5.2397431e-07
5.3683006e-07
5.4406873e-07
5.5682283e-07
5.6649751e-07
5.7285954e-07
5.8055928e-07
5.8583652e-07
5.9852294e-07
6.1582857e-07
6.4246225e-07
6.7001438e-07
7.1281607e-07
7.7413697e-07
3.3661099e-06
2.7918332e-06
2.2573368e-06
1.9183644e-06
1.6086519e-06
1.3624351e-06
1.2040657e-06
1.1121548e-06
1.048629e-06
9.8604308e-07
9.1567206e-07
8.4258486e-07
7.7687463e-07
7.2579127e-07
6.916711e-07
6.7180109e-07
6.6096329e-07
6.531441e-07
6.4390879e-07
6.3048545e-07
6.1259627e-07
5.9023304e-07
5.6622114e-07
5.4161609e-07
5.1896997e-07
4.9984944e-07
4.8518584e-07
4.7529367e-07
4.6982443e-07
4.6762868e-07
4.6737321e-07
4.6762934e-07
4.6855752e-07
4.7113373e-07
4.7424472e-07
4.7687923e-07
4.7914841e-07
4.8102174e-07
4.8276027e-07
4.8416498e-07
4.8786931e-07
4.9206553e-07
4.9892369e-07
5.1203096e-07
5.2349533e-07
5.4778013e-07
5.6184092e-07
5.807505e-07
5.8801732e-07
6.0393974e-07
6.136193e-07
6.3523832e-07
6.5417703e-07
6.7432269e-07
7.2383288e-07
3.3635129e-06
2.7903286e-06
2.2563699e-06
1.9209551e-06
1.6132924e-06
1.3660848e-06
1.2058234e-06
1.112957e-06
1.0499944e-06
9.8854269e-07
9.1918851e-07
8.464054e-07
7.8021785e-07
7.2817049e-07
6.9300421e-07
6.7232469e-07
6.6118428e-07
6.5354812e-07
6.4490179e-07
6.3211635e-07
6.147723e-07
5.9280894e-07
5.6880357e-07
5.4431548e-07
5.2147491e-07
5.0199138e-07
4.8680864e-07
4.7607638e-07
4.6986666e-07
4.6715517e-07
4.666578e-07
4.6689579e-07
4.6758911e-07
4.6967544e-07
4.7249053e-07
4.755879e-07
4.7774063e-07
4.8030048e-07
4.8155716e-07
4.827686e-07
4.8247781e-07
4.830615e-07
4.8439963e-07
4.884576e-07
4.9322219e-07
5.0543686e-07
5.1716738e-07
5.4459587e-07
5.6108708e-07
5.8773326e-07
6.0370962e-07
6.2153427e-07
6.440737e-07
6.5930659e-07
6.9503006e-07
3.361399e-06
2.7895385e-06
2.2562099e-06
1.924416e-06
1.6183594e-06
1.3700841e-06
1.2080283e-06
1.1141664e-06
1.0515161e-06
9.9113344e-07
9.2272574e-07
8.5031452e-07
7.8364105e-07
7.3065013e-07
6.9441082e-07
6.7286415e-07
6.6132713e-07
6.5392513e-07
6.4577561e-07
6.3388289e-07
6.1731259e-07
5.9614165e-07
5.7244857e-07
5.4803262e-07
5.2468885e-07
5.0461671e-07
4.8865349e-07
4.7709916e-07
4.7008582e-07
4.6670475e-07
4.6584424e-07
4.6595234e-07
4.6644378e-07
4.6800056e-07
4.7071503e-07
4.7365976e-07
4.7568953e-07
4.7817955e-07
4.7950434e-07
4.8112169e-07
4.8114996e-07
4.8099066e-07
4.809902e-07
4.8248642e-07
4.845866e-07
4.9074357e-07
4.9596415e-07
5.0680947e-07
5.212973e-07
5.3596312e-07
5.6537489e-07
5.8137252e-07
6.14401e-07
6.309789e-07
6.7015191e-07
3.3602787e-06
2.7890147e-06
2.2561197e-06
1.9274661e-06
1.623051e-06
1.3739222e-06
1.2101652e-06
1.1153978e-06
1.0529876e-06
9.9367031e-07
9.2619431e-07
8.5416876e-07
7.870976e-07
7.3322604e-07
6.9589352e-07
6.7355384e-07
6.6148458e-07
6.5420549e-07
6.4645045e-07
6.3531616e-07
6.1951623e-07
5.9899109e-07
5.7555406e-07
5.5126333e-07
5.2775546e-07
5.0715328e-07
4.9055803e-07
4.7826497e-07
4.7040374e-07
4.6635194e-07
4.6497168e-07
4.6496942e-07
4.6527536e-07
4.6632334e-07
4.6882504e-07
4.7178721e-07
4.740944e-07
4.7639081e-07
4.7810332e-07
4.7951542e-07
4.7997242e-07
4.7989822e-07
4.7928039e-07
4.7982223e-07
4.8127032e-07
4.8400799e-07
4.8962811e-07
4.9447257e-07
5.0491138e-07
5.1247296e-07
5.2949428e-07
5.4054781e-07
5.6479338e-07
5.7917932e-07
6.1912152e-07
3.3590512e-06
2.7889053e-06
2.2566375e-06
1.9313799e-06
1.6283462e-06
1.3781356e-06
1.2125919e-06
1.1167561e-06
1.0545463e-06
9.9612467e-07
9.296118e-07
8.5797005e-07
7.9056744e-07
7.3587194e-07
6.9747246e-07
6.7430902e-07
6.6171967e-07
6.5449716e-07
6.4717582e-07
6.36758e-07
6.216456e-07
6.0194247e-07
5.7884005e-07
5.5468477e-07
5.3099899e-07
5.0985537e-07
4.9257383e-07
4.7956137e-07
4.7090379e-07
4.6617024e-07
4.6426614e-07
4.640214e-07
4.6423229e-07
4.6496225e-07
4.6696125e-07
4.6973138e-07
4.721462e-07
4.7419569e-07
4.7598442e-07
4.7738279e-07
4.7803153e-07
4.7813217e-07
4.7697797e-07
4.7698355e-07
4.7763269e-07
4.7922077e-07
4.831307e-07
4.8652033e-07
4.9415527e-07
4.9944589e-07
5.1120963e-07
5.1866291e-07
5.3485485e-07
5.4511635e-07
5.7310645e-07
3.3560339e-06
2.7887199e-06
2.2567529e-06
1.9338082e-06
1.6326886e-06
1.3818326e-06
1.2147398e-06
1.1179342e-06
1.0559583e-06
9.9844332e-07
9.3292173e-07
8.6173748e-07
7.9408898e-07
7.3855986e-07
6.9922881e-07
6.7509598e-07
6.6202356e-07
6.5475092e-07
6.4782546e-07
6.3810327e-07
6.2367691e-07
6.0468653e-07
5.8204553e-07
5.5810001e-07
5.3428885e-07
5.1272737e-07
4.9482706e-07
4.8110605e-07
4.71664e-07
4.6620394e-07
4.6372534e-07
4.6317746e-07
4.633075e-07
4.6381761e-07
4.653456e-07
4.6801187e-07
4.7050633e-07
4.7252548e-07
4.7437561e-07
4.7570201e-07
4.7662876e-07
4.7661665e-07
4.7608771e-07
4.7448229e-07
4.7464427e-07
4.7540205e-07
4.7773744e-07
4.801217e-07
4.8577061e-07
4.8982995e-07
4.9879236e-07
5.0449871e-07
5.166853e-07
5.2421784e-07
5.4319468e-07
3.3471816e-06
2.7867828e-06
2.2521768e-06
1.9330369e-06
1.6352785e-06
1.3848631e-06
1.2166839e-06
1.1191574e-06
1.0573518e-06
1.0007855e-06
9.3616158e-07
8.6552385e-07
7.9764263e-07
7.413547e-07
7.0105773e-07
6.760305e-07
6.6237175e-07
6.5499552e-07
6.4840366e-07
6.3928942e-07
6.2565209e-07
6.073884e-07
5.8519307e-07
5.6140916e-07
5.3756717e-07
5.1562632e-07
4.9718117e-07
4.8276403e-07
4.7253598e-07
4.6637183e-07
4.633172e-07
4.6239478e-07
4.6243229e-07
4.6275223e-07
4.6379726e-07
4.6621521e-07
4.6872247e-07
4.7073772e-07
4.7250312e-07
4.7383419e-07
4.7494551e-07
4.751704e-07
4.746936e-07
4.730348e-07
4.7201871e-07
4.7217718e-07
4.7312412e-07
4.7476491e-07
4.7860197e-07
4.8156031e-07
4.8844243e-07
4.9280501e-07
5.0266372e-07
5.0856759e-07
5.2311049e-07
3.3319181e-06
2.7817201e-06
2.246327e-06
1.9311953e-06
1.6370471e-06
1.3875194e-06
1.2185672e-06
1.1204351e-06
1.0587721e-06
1.003116e-06
9.394744e-07
8.6929883e-07
8.0127656e-07
7.442705e-07
7.0294117e-07
6.7706631e-07
6.6277363e-07
6.5522003e-07
6.4896228e-07
6.4039705e-07
6.2748042e-07
6.099682e-07
5.8827403e-07
5.6471698e-07
5.4098026e-07
5.1864657e-07
4.996356e-07
4.8459138e-07
4.7361102e-07
4.6670772e-07
4.6307603e-07
4.617419e-07
4.6161953e-07
4.6182693e-07
4.6255779e-07
4.6456183e-07
4.6707856e-07
4.6911838e-07
4.709369e-07
4.7226062e-07
4.7341e-07
4.7387054e-07
4.7374537e-07
4.7212524e-07
4.7063168e-07
4.6977787e-07
4.7012297e-07
4.7094019e-07
4.7327949e-07
4.7552135e-07
4.8035208e-07
4.839292e-07
4.9133131e-07
4.9622701e-07
5.0754559e-07
3.3049485e-06
2.7688046e-06
2.2401978e-06
1.9300623e-06
1.639298e-06
1.3904964e-06
1.2207542e-06
1.121892e-06
1.0603975e-06
1.0055164e-06
9.4284686e-07
8.7314248e-07
8.049923e-07
7.4726083e-07
7.0500534e-07
6.7816415e-07
6.632871e-07
6.5551761e-07
6.4952293e-07
6.4149748e-07
6.2919373e-07
6.1239046e-07
5.9128897e-07
5.6806144e-07
5.4440708e-07
5.2184135e-07
5.0229805e-07
4.8661095e-07
4.749169e-07
4.6724584e-07
4.6301375e-07
4.6122269e-07
4.6087314e-07
4.6099966e-07
4.614958e-07
4.6297001e-07
4.6546607e-07
4.6755585e-07
4.6932744e-07
4.7067689e-07
4.718738e-07
4.7249247e-07
4.7266518e-07
4.7161224e-07
4.6957437e-07
4.6795139e-07
4.6770166e-07
4.6800363e-07
4.6917882e-07
4.7052558e-07
4.7413599e-07
4.7660553e-07
4.8244276e-07
4.8617384e-07
4.9510301e-07
3.310209e-06
2.7716502e-06
2.2430283e-06
1.9345027e-06
1.6444711e-06
1.3948025e-06
1.2235073e-06
1.123597e-06
1.0621183e-06
1.0079681e-06
9.4617507e-07
8.7701596e-07
8.0873877e-07
7.5031294e-07
7.0714184e-07
6.7933242e-07
6.6385076e-07
6.5579845e-07
6.4997743e-07
6.4245218e-07
6.3085204e-07
6.1474198e-07
5.9423592e-07
5.7131087e-07
5.4771708e-07
5.2505478e-07
5.0506083e-07
4.8877468e-07
4.7639256e-07
4.6797511e-07
4.6310097e-07
4.6079256e-07
4.6015987e-07
4.6021829e-07
4.6054067e-07
4.6157872e-07
4.6389899e-07
4.6609183e-07
4.6790714e-07
4.6931652e-07
4.7050587e-07
4.7127386e-07
4.7160239e-07
4.7128678e-07
4.6949331e-07
4.670399e-07
4.6615384e-07
4.6589897e-07
4.6622469e-07
4.6710524e-07
4.6927528e-07
4.7112366e-07
4.7542523e-07
4.7816856e-07
4.8497675e-07
3.3106773e-06
2.7742376e-06
2.2454171e-06
1.9383272e-06
1.6492158e-06
1.3989752e-06
1.2262751e-06
1.1254588e-06
1.0638907e-06
1.0105503e-06
9.4961846e-07
8.809875e-07
8.1260206e-07
7.5355057e-07
7.0938814e-07
6.8068632e-07
6.6450231e-07
6.5612344e-07
6.504236e-07
6.4329782e-07
6.3238154e-07
6.1700059e-07
5.9713767e-07
5.7452585e-07
5.5113709e-07
5.2835551e-07
5.0792354e-07
4.9106952e-07
4.7801702e-07
4.6888487e-07
4.6334445e-07
4.605351e-07
4.5956688e-07
4.5951872e-07
4.5972354e-07
4.6044867e-07
4.6241611e-07
4.6463644e-07
4.6652097e-07
4.6794419e-07
4.6920374e-07
4.7001634e-07
4.7054994e-07
4.7043744e-07
4.6950798e-07
4.666384e-07
4.6530983e-07
4.6392309e-07
4.6402625e-07
4.6434795e-07
4.6550719e-07
4.6683224e-07
4.6966928e-07
4.7180156e-07
4.7709124e-07
3.3443402e-06
2.7926183e-06
2.2593668e-06
1.9496913e-06
1.6579481e-06
1.4049702e-06
1.2298898e-06
1.1276667e-06
1.0658494e-06
1.0131062e-06
9.5306183e-07
8.8491044e-07
8.1646532e-07
7.5679151e-07
7.1166563e-07
6.8204205e-07
6.6516931e-07
6.5642304e-07
6.508992e-07
6.4417254e-07
6.3386474e-07
6.1913982e-07
5.9992354e-07
5.7769612e-07
5.5449734e-07
5.3169094e-07
5.108583e-07
4.9343547e-07
4.7977837e-07
4.6993539e-07
4.6371857e-07
4.6039421e-07
4.5904848e-07
4.5881123e-07
4.5894457e-07
4.5944611e-07
4.6093826e-07
4.6320317e-07
4.6514651e-07
4.6668306e-07
4.6793042e-07
4.6883511e-07
4.6952024e-07
4.696159e-07
4.6917414e-07
4.6696904e-07
4.651331e-07
4.6336455e-07
4.6236583e-07
4.62296e-07
4.6283157e-07
4.63427e-07
4.6539405e-07
4.6704693e-07
4.7068194e-07
3.3536133e-06
2.8009375e-06
2.2683465e-06
1.9576458e-06
1.6645826e-06
1.4100157e-06
1.2332e-06
1.1298084e-06
1.067907e-06
1.0157761e-06
9.5665608e-07
8.8902658e-07
8.2054558e-07
7.6022486e-07
7.1418743e-07
6.8356989e-07
6.660091e-07
6.5684785e-07
6.5135759e-07
6.450222e-07
6.3530429e-07
6.2121964e-07
6.0267742e-07
5.8093016e-07
5.578537e-07
5.3512797e-07
5.1403517e-07
4.9607789e-07
4.8180566e-07
4.7124569e-07
4.6431003e-07
4.6043888e-07
4.5869668e-07
4.5824606e-07
4.583151e-07
4.5864088e-07
4.5970525e-07
4.6184467e-07
4.6387742e-07
4.6545625e-07
4.6678757e-07
4.6771315e-07
4.685152e-07
4.6880666e-07
4.687121e-07
4.6706071e-07
4.6547901e-07
4.6295464e-07
4.6195425e-07
4.6070894e-07
4.6060008e-07
4.609931e-07
4.6201457e-07
4.6310717e-07
4.6557611e-07
3.3888504e-06
2.821643e-06
2.2880427e-06
1.9725311e-06
1.674701e-06
1.4166734e-06
1.2373369e-06
1.132414e-06
1.0701509e-06
1.0185343e-06
9.60129e-07
8.9306866e-07
8.2448921e-07
7.6360384e-07
7.1663599e-07
6.8508412e-07
6.6681804e-07
6.5727182e-07
6.517474e-07
6.4574569e-07
6.3663104e-07
6.2319842e-07
6.0528533e-07
5.838898e-07
5.6103237e-07
5.3838397e-07
5.1704829e-07
4.9864366e-07
4.8379132e-07
4.7258813e-07
4.6498598e-07
4.6056424e-07
4.5839809e-07
4.5768836e-07
4.5768402e-07
4.5787725e-07
4.5857171e-07
4.6042064e-07
4.6252748e-07
4.6425007e-07
4.6568966e-07
4.6668386e-07
4.6757682e-07
4.680436e-07
4.6816428e-07
4.6750667e-07
4.6558112e-07
4.6326588e-07
4.6190645e-07
4.6012543e-07
4.5960747e-07
4.5938214e-07
4.5971161e-07
4.602668e-07
4.6186e-07
3.3933466e-06
2.8233009e-06
2.292571e-06
1.9783166e-06
1.6805724e-06
1.4215627e-06
1.2407418e-06
1.1347917e-06
1.0723064e-06
1.0213082e-06
9.6373832e-07
8.9724861e-07
8.2869115e-07
7.6730218e-07
7.1934864e-07
6.8693113e-07
6.6786212e-07
6.5787177e-07
6.5228033e-07
6.4654505e-07
6.379603e-07
6.2515003e-07
6.0789951e-07
5.8697306e-07
5.6446414e-07
5.4192005e-07
5.2039195e-07
5.0152502e-07
4.8610659e-07
4.7427466e-07
4.6598457e-07
4.609352e-07
4.5830704e-07
4.5728703e-07
4.5712266e-07
4.5725694e-07
4.5773056e-07
4.5914574e-07
4.6128697e-07
4.6313917e-07
4.6464439e-07
4.6574767e-07
4.6666805e-07
4.6729392e-07
4.6762079e-07
4.6738433e-07
4.6639212e-07
4.6357576e-07
4.618899e-07
4.5988273e-07
4.5936426e-07
4.5836964e-07
4.5822935e-07
4.5821209e-07
4.5871928e-07
3.4025448e-06
2.8333379e-06
2.3041247e-06
1.9868165e-06
1.6864367e-06
1.4259635e-06
1.2439656e-06
1.1371521e-06
1.0745045e-06
1.0239628e-06
9.6719766e-07
9.0117454e-07
8.3264517e-07
7.7071999e-07
7.2193377e-07
6.8861239e-07
6.6883469e-07
6.5842309e-07
6.5277863e-07
6.4739957e-07
6.3923094e-07
6.2697103e-07
6.1024685e-07
5.8983472e-07
5.675268e-07
5.4510257e-07
5.2352936e-07
5.0426641e-07
4.8834263e-07
4.7597086e-07
4.6703674e-07
4.6135983e-07
4.5827691e-07
4.5690727e-07
4.565547e-07
4.5662433e-07
4.5695001e-07
4.5794125e-07
4.6001257e-07
4.6195507e-07
4.6359016e-07
4.6478259e-07
4.6580559e-07
4.664814e-07
4.6704899e-07
4.6706968e-07
4.6678612e-07
4.6468302e-07
4.6227964e-07
4.5996151e-07
4.592536e-07
4.5851867e-07
4.5765343e-07
4.5679914e-07
4.5698543e-07
3.4101726e-06
2.8398152e-06
2.3095382e-06
1.9915407e-06
1.6912736e-06
1.4303411e-06
1.2473323e-06
1.1395832e-06
1.0768169e-06
1.0267384e-06
9.7075271e-07
9.0537086e-07
8.3695847e-07
7.745749e-07
7.2495707e-07
6.9066121e-07
6.7015625e-07
6.5923255e-07
6.5336669e-07
6.4821546e-07
6.4051342e-07
6.2881933e-07
6.1276219e-07
5.92881e-07
5.7084155e-07
5.4856634e-07
5.2701198e-07
5.0745104e-07
4.9096842e-07
4.7799106e-07
4.6841141e-07
4.620814e-07
4.5850514e-07
4.5676367e-07
4.5618166e-07
4.5620243e-07
4.5638533e-07
4.5706895e-07
4.588529e-07
4.6087245e-07
4.6258123e-07
4.6392729e-07
4.6497721e-07
4.657794e-07
4.6638237e-07
4.6668888e-07
4.665955e-07
4.6562883e-07
4.63113e-07
4.6029111e-07
4.5955898e-07
4.5808768e-07
4.574101e-07
4.561252e-07
4.55846e-07
3.4157489e-06
2.8461578e-06
2.3170689e-06
1.9978663e-06
1.6962085e-06
1.4342013e-06
1.250162e-06
1.1417384e-06
1.0788746e-06
1.0293224e-06
9.7396373e-07
9.0908665e-07
8.4070877e-07
7.779553e-07
7.2754767e-07
6.924511e-07
6.7126222e-07
6.5991619e-07
6.5393925e-07
6.4899673e-07
6.4173599e-07
6.3050695e-07
6.1496889e-07
5.9538514e-07
5.737037e-07
5.5156847e-07
5.3001026e-07
5.1020655e-07
4.9332777e-07
4.7993092e-07
4.6977518e-07
4.6280835e-07
4.5873093e-07
4.5663419e-07
4.557983e-07
4.5567793e-07
4.5580624e-07
4.5625024e-07
4.5762175e-07
4.5965091e-07
4.6146918e-07
4.6288634e-07
4.6406403e-07
4.6484392e-07
4.6560443e-07
4.6605462e-07
4.6629556e-07
4.6579402e-07
4.640405e-07
4.6101637e-07
4.5992144e-07
4.5823434e-07
4.5753377e-07
4.56184e-07
4.55224e-07
3.4241702e-06
2.8536954e-06
2.3238491e-06
2.0042154e-06
1.7023768e-06
1.4394247e-06
1.2541101e-06
1.1447688e-06
1.0815906e-06
1.0324068e-06
9.7771139e-07
9.1334739e-07
8.4511248e-07
7.8200027e-07
7.3074306e-07
6.9478743e-07
6.7278205e-07
6.6087174e-07
6.5467658e-07
6.4994851e-07
6.430685e-07
6.3238726e-07
6.1743764e-07
5.9841773e-07
5.7702242e-07
5.550651e-07
5.3356381e-07
5.1354376e-07
4.9616958e-07
4.8219803e-07
4.7143591e-07
4.6386398e-07
4.5926809e-07
4.5681279e-07
4.5572521e-07
4.5545799e-07
4.5553163e-07
4.5583371e-07
4.5679958e-07
4.5872705e-07
4.6051919e-07
4.6205582e-07
4.6325237e-07
4.6409043e-07
4.6480996e-07
4.6536212e-07
4.6568836e-07
4.6549416e-07
4.6449398e-07
4.6147999e-07
4.6011219e-07
4.5829763e-07
4.5728006e-07
4.5583758e-07
4.5481112e-07
3.4283549e-06
2.8579904e-06
2.3287861e-06
2.0088924e-06
1.7063567e-06
1.44266e-06
1.2566415e-06
1.1470101e-06
1.084075e-06
1.0352864e-06
9.8110292e-07
9.1697372e-07
8.4872209e-07
7.8512667e-07
7.3313715e-07
6.96374e-07
6.7374959e-07
6.6159858e-07
6.5554598e-07
6.5134941e-07
6.4520439e-07
6.3520345e-07
6.2064876e-07
6.0195897e-07
5.8056097e-07
5.5843436e-07
5.368063e-07
5.1650759e-07
4.9885776e-07
4.8454201e-07
4.7322426e-07
4.6513105e-07
4.6016421e-07
4.5742119e-07
4.5613055e-07
4.5575816e-07
4.5580048e-07
4.5604997e-07
4.5693862e-07
4.5887292e-07
4.6068924e-07
4.6222476e-07
4.633998e-07
4.6423032e-07
4.6492349e-07
4.6563856e-07
4.6598293e-07
4.6603856e-07
4.6534127e-07
4.6302833e-07
4.6115294e-07
4.6005793e-07
4.5886203e-07
4.5769836e-07
4.5564372e-07
3.4377455e-06
2.8665428e-06
2.3365164e-06
2.0165392e-06
1.7138416e-06
1.4488145e-06
1.2611493e-06
1.1503311e-06
1.0873512e-06
1.0396579e-06
9.8682135e-07
9.2326288e-07
8.5453129e-07
7.8997219e-07
7.3654365e-07
6.9898101e-07
6.7612024e-07
6.645497e-07
6.5976274e-07
6.5754792e-07
6.5408948e-07
6.4699038e-07
6.3419071e-07
6.157873e-07
5.933442e-07
5.695469e-07
5.4611415e-07
5.2441022e-07
5.054873e-07
4.9024236e-07
4.7866585e-07
4.7064399e-07
4.6575523e-07
4.6315354e-07
4.622142e-07
4.621458e-07
4.6232829e-07
4.6312691e-07
4.6560235e-07
4.6828632e-07
4.7037338e-07
4.7211852e-07
4.7332959e-07
4.7387685e-07
4.7440526e-07
4.7485239e-07
4.7527278e-07
4.7533255e-07
4.7495592e-07
4.7341903e-07
4.705558e-07
4.6962352e-07
4.6815513e-07
4.6748294e-07
4.6497322e-07
3.442055e-06
2.8743178e-06
2.3447911e-06
2.0270499e-06
1.7236211e-06
1.4565157e-06
1.264755e-06
1.1531825e-06
1.0941613e-06
1.0537305e-06
1.0082541e-06
9.4668547e-07
8.7418717e-07
8.054566e-07
7.4985702e-07
7.1239665e-07
6.9358267e-07
6.906381e-07
6.9295637e-07
7.0148943e-07
7.0893955e-07
7.1239229e-07
7.1118817e-07
7.0105154e-07
6.7292335e-07
6.3614955e-07
6.0139426e-07
5.698158e-07
5.46562e-07
5.2772083e-07
5.1547273e-07
5.1000774e-07
5.0757546e-07
5.0705787e-07
5.0784378e-07
5.1159719e-07
5.1782962e-07
5.2766938e-07
5.3950082e-07
5.4716971e-07
5.5243683e-07
5.5617812e-07
5.5763897e-07
5.5792301e-07
5.5831381e-07
5.5867391e-07
5.5866593e-07
5.5835444e-07
5.5736329e-07
5.5422604e-07
5.4984861e-07
5.4807246e-07
5.4568972e-07
5.4449063e-07
5.3490379e-07
3.4897426e-06
2.9578993e-06
2.4374134e-06
2.1283348e-06
1.8107177e-06
1.5247063e-06
1.3137865e-06
1.203278e-06
1.173636e-06
1.1761362e-06
1.1743408e-06
1.1442646e-06
1.0542151e-06
9.5703901e-07
8.9443991e-07
8.7611318e-07
8.771396e-07
8.9548131e-07
9.5740999e-07
1.0423075e-06
1.0987934e-06
1.143794e-06
1.1597871e-06
1.1653495e-06
1.1566298e-06
1.1007088e-06
9.9918919e-07
9.0710761e-07
8.683538e-07
8.2270148e-07
8.0946706e-07
8.1169948e-07
8.146765e-07
8.2155862e-07
8.5199449e-07
9.1294822e-07
9.3927555e-07
9.8499645e-07
1.050931e-06
1.0857807e-06
1.1166238e-06
1.1367226e-06
1.1381797e-06
1.1332988e-06
1.1295791e-06
1.1315989e-06
1.1363324e-06
1.1362421e-06
1.1328377e-06
1.1206033e-06
1.0998989e-06
1.0891447e-06
1.0819984e-06
1.0789407e-06
1.0384605e-06
3.7679812e-06
3.3320843e-06
2.8210483e-06
2.6458683e-06
2.3501031e-06
2.0213669e-06
1.8345207e-06
1.829058e-06
1.9098666e-06
2.1968159e-06
2.4360358e-06
2.492495e-06
2.4633286e-06
2.3172165e-06
2.2099648e-06
2.202559e-06
2.2493559e-06
2.4609585e-06
2.8092812e-06
3.1457683e-06
3.3434251e-06
3.5595727e-06
3.6313341e-06
3.7067762e-06
3.7107867e-06
3.6552955e-06
3.434414e-06
3.0749664e-06
2.9948585e-06
2.8623385e-06
2.8185951e-06
2.8560902e-06
2.9415038e-06
3.0064483e-06
3.1922122e-06
3.4890411e-06
3.6013299e-06
3.7729923e-06
4.0851449e-06
4.2112991e-06
4.3567316e-06
4.4613518e-06
4.4714395e-06
4.4359191e-06
4.3831548e-06
4.3801176e-06
4.4116936e-06
4.4688081e-06
4.4762523e-06
4.4660656e-06
4.4079548e-06
4.3283942e-06
4.2833776e-06
4.2751326e-06
4.1588304e-06
3.8412591e-06
4.0182564e-06
4.2159074e-06
5.3210185e-06
6.1864564e-06
6.3331591e-06
6.447651e-06
6.8074235e-06
7.6730527e-06
8.9655798e-06
9.8445944e-06
1.0170197e-05
1.0161934e-05
1.0023119e-05
9.9260089e-06
1.0022157e-05
1.0363228e-05
1.1209299e-05
1.1798194e-05
1.2509016e-05
1.2797585e-05
1.3435375e-05
1.3645037e-05
1.4166298e-05
1.4273929e-05
1.4296713e-05
1.3886465e-05
1.3179395e-05
1.3326943e-05
1.2945506e-05
1.2973841e-05
1.3577987e-05
1.3785148e-05
1.3954936e-05
1.4619422e-05
1.5073684e-05
1.5273391e-05
1.5844808e-05
1.6702365e-05
1.6750715e-05
1.7083793e-05
1.7217624e-05
1.7227668e-05
1.6874631e-05
1.6714449e-05
1.6662082e-05
1.6836729e-05
1.6991903e-05
1.7098031e-05
1.7032559e-05
1.6997507e-05
1.6893275e-05
1.688004e-05
1.6967366e-05
1.6856783e-05
7.2249349e-06
2.8898115e-05
2.9756499e-05
3.545479e-05
3.8258122e-05
4.0788765e-05
3.9227233e-05
3.6948901e-05
3.5704043e-05
3.563824e-05
3.6097917e-05
3.6896422e-05
3.7756181e-05
3.8264711e-05
3.8364221e-05
3.7967797e-05
3.7549731e-05
3.7224493e-05
3.7108408e-05
3.7179508e-05
3.7443228e-05
3.7810548e-05
3.8425443e-05
3.9058592e-05
4.0209568e-05
4.1159025e-05
4.274673e-05
4.3149701e-05
4.3510753e-05
4.4035863e-05
4.2787343e-05
4.2106208e-05
4.2454275e-05
4.1763716e-05
4.1021895e-05
4.1291098e-05
4.0820555e-05
4.0231037e-05
4.0170898e-05
4.0476461e-05
3.9863847e-05
4.0368979e-05
3.9927633e-05
4.0467301e-05
3.9503113e-05
3.9719048e-05
3.8805508e-05
3.902946e-05
3.8300091e-05
3.8565652e-05
3.7685682e-05
3.7789824e-05
3.6916252e-05
3.6659797e-05
3.6462656e-05
3.5583253e-05
1.799395e-05
4.6670144e-06
1.1778156e-06
5.59808e-07
4.6739925e-07
4.5494098e-07
4.5397736e-07
4.5445158e-07
4.5539012e-07
4.5728823e-07
4.5939263e-07
4.6280707e-07
4.6716026e-07
4.726536e-07
4.7947994e-07
4.8810277e-07
4.9871483e-07
5.1189295e-07
5.2801942e-07
5.4881833e-07
5.7614724e-07
6.1779367e-07
6.7728871e-07
7.0739087e-07
7.3833792e-07
7.7947358e-07
3.6471569e-05
1.8497534e-05
5.0698777e-06
1.2953011e-06
5.8504029e-07
4.7156789e-07
4.5517118e-07
4.5326358e-07
4.5407071e-07
4.5559423e-07
4.577092e-07
4.6039012e-07
4.6416572e-07
4.6876751e-07
4.7481392e-07
4.820947e-07
4.9114799e-07
5.0204898e-07
5.1503924e-07
5.3106194e-07
5.5112835e-07
5.7767974e-07
6.175059e-07
6.7983314e-07
7.1787177e-07
7.4969826e-07
7.8253104e-07
3.4302856e-05
1.9257468e-05
5.514761e-06
1.4626708e-06
6.2640468e-07
4.7913304e-07
4.5613546e-07
4.5349568e-07
4.543017e-07
4.5621628e-07
4.5895329e-07
4.6235747e-07
4.6663718e-07
4.7173123e-07
4.7820886e-07
4.8617296e-07
4.9566346e-07
5.0728385e-07
5.2107624e-07
5.3704226e-07
5.5629943e-07
5.8118857e-07
6.1725375e-07
6.8280244e-07
7.2981736e-07
7.6664107e-07
7.9412456e-07
3.4692722e-05
1.955429e-05
6.1163991e-06
1.6825419e-06
6.7581168e-07
4.886264e-07
4.582e-07
4.5430484e-07
4.5509684e-07
4.5738384e-07
4.607498e-07
4.6476774e-07
4.6976294e-07
4.7551235e-07
4.8257118e-07
4.9096814e-07
5.0092506e-07
5.1272928e-07
5.2714576e-07
5.439094e-07
5.6404414e-07
5.8801837e-07
6.1859401e-07
6.8309645e-07
7.3681971e-07
7.8450183e-07
8.095275e-07
3.2006482e-05
2.0432915e-05
6.5093889e-06
1.8267062e-06
7.2418612e-07
5.015555e-07
4.6116145e-07
4.5544781e-07
4.5637506e-07
4.5876407e-07
4.6275928e-07
4.6745299e-07
4.72829e-07
4.7932088e-07
4.8694913e-07
4.9573364e-07
5.0604459e-07
5.182399e-07
5.3262165e-07
5.5029131e-07
5.7036746e-07
5.9538351e-07
6.2279577e-07
6.8307942e-07
7.410599e-07
7.994902e-07
8.2960842e-07
3.2490894e-05
2.0619339e-05
6.9500799e-06
2.0931651e-06
8.1882981e-07
5.2603451e-07
4.6722722e-07
4.5824635e-07
4.5889803e-07
4.61877e-07
4.6644376e-07
4.7124555e-07
4.7691128e-07
4.8336699e-07
4.9137147e-07
5.0062102e-07
5.1138479e-07
5.2416668e-07
5.3900914e-07
5.5706405e-07
5.7682809e-07
6.0318292e-07
6.2864473e-07
6.8365941e-07
7.4434283e-07
8.1102037e-07
8.4977889e-07
2.9034327e-05
2.0889255e-05
7.6783368e-06
2.4489243e-06
9.1789747e-07
5.4939464e-07
4.7305737e-07
4.6213877e-07
4.6231784e-07
4.6501732e-07
4.6964106e-07
4.7445488e-07
4.8054245e-07
4.8744007e-07
4.9576288e-07
5.057465e-07
5.1728822e-07
5.3068609e-07
5.4594898e-07
5.6412328e-07
5.8422742e-07
6.1037312e-07
6.3392265e-07
6.8460113e-07
7.4554769e-07
8.1892113e-07
8.6665891e-07
2.8525502e-05
2.0880267e-05
8.3070223e-06
2.6682299e-06
9.7141756e-07
5.6234273e-07
4.7607352e-07
4.6437034e-07
4.6492121e-07
4.6736857e-07
4.725469e-07
4.7808702e-07
4.8486193e-07
4.928716e-07
5.0178165e-07
5.122894e-07
5.2448715e-07
5.3863822e-07
5.5466647e-07
5.7311428e-07
5.9366157e-07
6.2031051e-07
6.4230523e-07
6.8734367e-07
7.4537525e-07
8.2355827e-07
8.7849195e-07
2.7144338e-05
2.0751476e-05
8.4512213e-06
2.7419518e-06
1.0018919e-06
5.7259974e-07
4.7919761e-07
4.663528e-07
4.6794217e-07
4.7128567e-07
4.7825892e-07
4.8562733e-07
4.9352831e-07
5.0213924e-07
5.1188918e-07
5.2259732e-07
5.3484504e-07
5.4856314e-07
5.6447407e-07
5.8324446e-07
6.0370626e-07
6.324779e-07
6.5419465e-07
6.9604536e-07
7.4762355e-07
8.2682611e-07
8.8872e-07
2.3250291e-05
2.0812214e-05
8.6944494e-06
2.8616539e-06
1.057838e-06
5.9234299e-07
4.8579937e-07
4.7080296e-07
4.7503931e-07
4.8045609e-07
4.889838e-07
4.9680369e-07
5.049578e-07
5.1388173e-07
5.2387806e-07
5.3495965e-07
5.4736392e-07
5.6089906e-07
5.7636439e-07
5.9452115e-07
6.1441122e-07
6.4356179e-07
6.6524141e-07
7.066876e-07
7.5337201e-07
8.3065247e-07
8.9978097e-07
2.1964361e-05
2.0765014e-05
8.9462866e-06
3.1009727e-06
1.184478e-06
6.4122205e-07
5.0377257e-07
4.8086829e-07
4.8580009e-07
4.9213189e-07
4.9946059e-07
5.0676702e-07
5.1468587e-07
5.2335956e-07
5.3352685e-07
5.4489475e-07
5.579196e-07
5.7276049e-07
5.8903838e-07
6.0817733e-07
6.2765126e-07
6.5669539e-07
6.7746667e-07
7.1802673e-07
7.6015634e-07
8.324222e-07
9.06425e-07
1.8791856e-05
2.0828278e-05
1.0204822e-05
3.9317654e-06
1.5309247e-06
7.4923231e-07
5.3369737e-07
4.905683e-07
4.9332412e-07
5.0150489e-07
5.0665188e-07
5.1299302e-07
5.2044059e-07
5.2904294e-07
5.3925569e-07
5.5092345e-07
5.6470461e-07
5.8062175e-07
5.9850512e-07
6.1962509e-07
6.3985191e-07
6.7103246e-07
6.9163874e-07
7.3157477e-07
7.7022129e-07
8.348437e-07
9.0893516e-07
1.6280092e-05
1.9692379e-05
1.0905094e-05
4.3929238e-06
1.6790257e-06
7.9234068e-07
5.4534071e-07
4.9465505e-07
4.9566952e-07
5.041634e-07
5.09704e-07
5.1597041e-07
5.2380412e-07
5.3261394e-07
5.4310013e-07
5.5523383e-07
5.6922479e-07
5.8559798e-07
6.0389899e-07
6.259429e-07
6.4731922e-07
6.8142477e-07
7.0302918e-07
7.4341993e-07
7.8359005e-07
8.4192684e-07
9.1286938e-07
1.7469694e-05
2.001476e-05
1.240258e-05
5.0175599e-06
1.8674302e-06
8.357481e-07
5.5650145e-07
4.976956e-07
4.9731547e-07
5.0622069e-07
5.153804e-07
5.2250833e-07
5.3066754e-07
5.4006912e-07
5.5098855e-07
5.6377891e-07
5.7804278e-07
5.9434817e-07
6.1233861e-07
6.3381049e-07
6.5397491e-07
6.8773639e-07
7.1031576e-07
7.489415e-07
7.9219516e-07
8.4906185e-07
9.1957607e-07
1.9643577e-05
1.9680133e-05
1.2974828e-05
5.2446337e-06
1.9235911e-06
8.5289651e-07
5.6196214e-07
4.9974686e-07
4.9846546e-07
5.0885934e-07
5.2353882e-07
5.3430161e-07
5.4529865e-07
5.5685882e-07
5.6945656e-07
5.8314168e-07
5.9793313e-07
6.1398932e-07
6.3103688e-07
6.5136457e-07
6.6870664e-07
7.0038805e-07
7.2308388e-07
7.5567133e-07
7.9672116e-07
8.5350678e-07
9.2503568e-07
2.4580321e-05
1.8135074e-05
1.166614e-05
4.7436157e-06
1.8534102e-06
8.584006e-07
5.6926223e-07
5.0342423e-07
5.0194812e-07
5.1593402e-07
5.3910517e-07
5.5041552e-07
5.6137428e-07
5.7323224e-07
5.8572368e-07
5.9893189e-07
6.137155e-07
6.2884943e-07
6.4637925e-07
6.6809577e-07
6.8546749e-07
7.1634014e-07
7.4011308e-07
7.6885767e-07
8.0318891e-07
8.5774296e-07
9.3077362e-07
3.5240537e-05
2.0264351e-05
1.239639e-05
5.2061252e-06
2.1084471e-06
9.5475267e-07
6.0913979e-07
5.1901393e-07
5.1617355e-07
5.3243043e-07
5.6063182e-07
5.7802583e-07
5.8790165e-07
5.9725711e-07
6.0723248e-07
6.1823471e-07
6.3061567e-07
6.4435605e-07
6.5927443e-07
6.8080177e-07
6.9775761e-07
7.2834123e-07
7.5379997e-07
7.830222e-07
8.1258822e-07
8.6099304e-07
9.3484121e-07
4.0295355e-05
2.9118935e-05
1.7021027e-05
7.4278967e-06
2.900363e-06
1.2261514e-06
7.0236175e-07
5.5398663e-07
5.3269688e-07
5.4184312e-07
5.6843678e-07
5.8997253e-07
6.0032123e-07
6.1067574e-07
6.2182266e-07
6.3415961e-07
6.4747744e-07
6.6252232e-07
6.7815737e-07
6.9833931e-07
7.1372717e-07
7.4245277e-07
7.6902016e-07
7.9876484e-07
8.2759591e-07
8.6791499e-07
9.3969675e-07
5.4468239e-05
2.7278436e-05
1.5660215e-05
6.6109982e-06
2.6679667e-06
1.1824237e-06
6.9494972e-07
5.5483586e-07
5.3378604e-07
5.418997e-07
5.6813233e-07
5.903451e-07
6.022432e-07
6.1362209e-07
6.26148e-07
6.4057658e-07
6.5643838e-07
6.7453427e-07
6.9216804e-07
7.1561212e-07
7.3239254e-07
7.6134653e-07
7.8851773e-07
8.1835486e-07
8.4750869e-07
8.8162845e-07
9.4759854e-07
5.9694418e-05
2.1136035e-05
1.1165119e-05
5.2699032e-06
2.375335e-06
1.1522529e-06
6.9280602e-07
5.5652742e-07
5.34668e-07
5.4229427e-07
5.6816699e-07
5.9193641e-07
6.0758374e-07
6.1997266e-07
6.3293233e-07
6.4724061e-07
6.6323257e-07
6.8166698e-07
6.9951866e-07
7.2462717e-07
7.4334282e-07
7.7384323e-07
8.0290024e-07
8.3268617e-07
8.6274429e-07
8.938922e-07
9.5262563e-07
7.811533e-05
3.0312489e-05
1.2293045e-05
5.8930802e-06
2.7218654e-06
1.2713017e-06
7.3596401e-07
5.704708e-07
5.4131364e-07
5.4626922e-07
5.7057956e-07
5.9752023e-07
6.233743e-07
6.3801185e-07
6.4999119e-07
6.6279724e-07
6.7781296e-07
6.9624182e-07
7.1420236e-07
7.4080878e-07
7.5907449e-07
7.8814738e-07
8.1781785e-07
8.470162e-07
8.7733518e-07
9.0562828e-07
9.5912728e-07
6.7415669e-05
3.266645e-05
1.6594548e-05
8.7219444e-06
4.0470331e-06
1.7484028e-06
8.9745251e-07
6.1919004e-07
5.608013e-07
5.5795101e-07
5.756096e-07
6.0857823e-07
6.4290437e-07
6.661936e-07
6.7839062e-07
6.9034871e-07
7.0351493e-07
7.2028839e-07
7.3624158e-07
7.6084431e-07
7.7900921e-07
8.054775e-07
8.3561796e-07
8.644428e-07
8.9625815e-07
9.2227142e-07
9.7161591e-07
4.0541236e-05
2.6680856e-05
1.6697898e-05
9.5637769e-06
4.4531611e-06
1.9136822e-06
9.5933783e-07
6.4151017e-07
5.6877694e-07
5.6226267e-07
5.7763018e-07
6.1454511e-07
6.5278501e-07
6.7471288e-07
6.8767699e-07
7.0050931e-07
7.1347447e-07
7.3072356e-07