/*--------------------------------*- C++ -*----------------------------------*\
| =========                 |                                                 |
| \\      /  F ield         | OpenFOAM: The Open Source CFD Toolbox           |
|  \\    /   O peration     | Version:  2406                                  |
|   \\  /    A nd           | Website:  www.openfoam.com                      |
|    \\/     M anipulation  |                                                 |
\*---------------------------------------------------------------------------*/
FoamFile
{
    version     2.0;
    format      ascii;
    arch        "LSB;label=32;scalar=64";
    class       volScalarField;
    location    "21";
    object      k_0;
}
// * * * * * * * * * * * * * * * * * * * * * * * * * * * * * * * * * * * * * //

dimensions      [0 2 -2 0 0 0 0];

internalField   nonuniform List<scalar> 
62344
(
4.4765235e-06
3.5185529e-06
2.9608067e-06
2.4884536e-06
2.1079668e-06
1.8063584e-06
1.6064567e-06
1.4772795e-06
1.3989262e-06
1.3275666e-06
1.2358217e-06
1.1615943e-06
1.088604e-06
1.0185591e-06
9.8191463e-07
9.830198e-07
9.8950756e-07
1.0033496e-06
1.0162068e-06
1.0374505e-06
1.0510036e-06
1.0677497e-06
1.086286e-06
1.0966218e-06
1.0997048e-06
1.0876097e-06
1.1048468e-06
1.1681442e-06
1.307474e-06
1.5369366e-06
1.8849726e-06
2.1821529e-06
2.7169013e-06
3.2560769e-06
4.5936698e-06
6.2281157e-06
8.8084403e-06
1.1566521e-05
1.7138161e-05
2.2777159e-05
3.3329969e-05
4.4726513e-05
6.2005054e-05
7.7052834e-05
0.00010010073
0.00014457746
0.00018782115
0.00023227462
0.00027771491
0.00032366196
0.00038447898
0.0004365261
0.00049512177
0.0005465024
0.00065024393
4.4834467e-06
3.524794e-06
2.9658206e-06
2.5039677e-06
2.1172107e-06
1.8208152e-06
1.6076661e-06
1.4817237e-06
1.3987525e-06
1.3385953e-06
1.2371752e-06
1.1548368e-06
1.0862389e-06
1.0201745e-06
9.715791e-07
9.638409e-07
9.717336e-07
9.8753386e-07
1.010578e-06
1.0207247e-06
1.0245173e-06
1.0462955e-06
1.0655788e-06
1.071785e-06
1.0617268e-06
1.0251112e-06
1.0206418e-06
1.0455741e-06
1.1160167e-06
1.2809062e-06
1.561439e-06
1.9001464e-06
2.2764991e-06
2.7515977e-06
3.9681884e-06
5.3183872e-06
7.1041542e-06
8.9923354e-06
1.2896629e-05
1.7146696e-05
2.6934566e-05
3.7894205e-05
5.9534021e-05
7.5645059e-05
0.00010594323
0.00014424045
0.00018211757
0.00021306977
0.00024690156
0.00027220518
0.00031488697
0.00035530377
0.00041457964
0.00045362312
0.00052318787
4.490316e-06
3.5319675e-06
2.977224e-06
2.5178025e-06
2.1278821e-06
1.8230304e-06
1.6176259e-06
1.4833211e-06
1.402252e-06
1.3422715e-06
1.2618826e-06
1.168599e-06
1.0966917e-06
1.0218073e-06
9.7318554e-07
9.6699723e-07
9.7250223e-07
9.8102818e-07
1.0087552e-06
1.0272946e-06
1.0289355e-06
1.0426869e-06
1.0596994e-06
1.072657e-06
1.0481974e-06
1.0127506e-06
1.0154342e-06
1.0401156e-06
1.1013679e-06
1.2328378e-06
1.4916144e-06
1.8514391e-06
2.2059432e-06
2.7252727e-06
3.9182786e-06
5.0845874e-06
6.3996978e-06
8.2639673e-06
1.133802e-05
1.488355e-05
2.3231241e-05
3.5011407e-05
5.3671879e-05
7.3656081e-05
0.00010572625
0.00013876226
0.00018337422
0.00021892462
0.00025787665
0.00028307438
0.00032020041
0.00035846145
0.00041303416
0.00046113955
0.00049699253
4.4955958e-06
3.5365843e-06
2.984443e-06
2.5250105e-06
2.1448041e-06
1.8332044e-06
1.6223437e-06
1.4907257e-06
1.411949e-06
1.3425198e-06
1.2676328e-06
1.1713087e-06
1.0966878e-06
1.0315467e-06
9.7837573e-07
9.675383e-07
9.7135685e-07
9.8344133e-07
1.01598e-06
1.0457531e-06
1.0458088e-06
1.0462119e-06
1.0539022e-06
1.0665227e-06
1.0405489e-06
1.0201558e-06
1.0209168e-06
1.0443701e-06
1.1041874e-06
1.2220468e-06
1.4504217e-06
1.784532e-06
2.1429207e-06
2.7439552e-06
3.9079713e-06
4.9544595e-06
6.039809e-06
8.015778e-06
1.0342633e-05
1.2908252e-05
1.8958887e-05
3.0596229e-05
4.1860922e-05
6.5425269e-05
8.6835112e-05
0.00012368388
0.00017052051
0.0002193938
0.00026673729
0.00031966497
0.00037478694
0.00044451035
0.00049627239
0.00057016619
0.00060054867
4.4966875e-06
3.5398787e-06
2.991951e-06
2.5395792e-06
2.152685e-06
1.8415033e-06
1.6270149e-06
1.5002857e-06
1.4052452e-06
1.3514147e-06
1.2653207e-06
1.1774141e-06
1.1060944e-06
1.0410908e-06
9.8441777e-07
9.6561256e-07
9.6785702e-07
9.855344e-07
1.022071e-06
1.0434839e-06
1.0492236e-06
1.0524447e-06
1.053922e-06
1.0547182e-06
1.0351645e-06
1.0357665e-06
1.0365795e-06
1.0580351e-06
1.10109e-06
1.1842325e-06
1.3257148e-06
1.558412e-06
1.9330997e-06
2.5110445e-06
3.4458334e-06
4.3214867e-06
5.4534377e-06
7.5221689e-06
9.542396e-06
1.1844579e-05
1.7048986e-05
2.6555183e-05
3.6185876e-05
5.6592385e-05
7.636878e-05
0.00011187015
0.00014277105
0.00018981575
0.00023745146
0.00029843527
0.00036193733
0.00044902062
0.00052441783
0.00064136535
0.00071635408
4.5015753e-06
3.5448467e-06
3.0053119e-06
2.5503047e-06
2.1549651e-06
1.8480529e-06
1.6396817e-06
1.4941287e-06
1.4196334e-06
1.355783e-06
1.2838876e-06
1.1891106e-06
1.1195916e-06
1.0484498e-06
9.92182e-07
9.711376e-07
9.6793542e-07
9.8262787e-07
1.0193871e-06
1.0532961e-06
1.0630924e-06
1.067509e-06
1.0698997e-06
1.0596124e-06
1.0441402e-06
1.0426495e-06
1.0491824e-06
1.066653e-06
1.093895e-06
1.15227e-06
1.2711616e-06
1.451406e-06
1.7687796e-06
2.2898422e-06
3.1098067e-06
4.0009777e-06
5.1915862e-06
7.2959588e-06
9.1633319e-06
1.159957e-05
1.6662342e-05
2.2923994e-05
3.0665982e-05
4.7889112e-05
6.4723368e-05
9.1249673e-05
0.00010935405
0.00014735423
0.00018980935
0.00024412136
0.00030263148
0.00038755788
0.0004724231
0.00057662366
0.00067081146
4.5070425e-06
3.551574e-06
3.014059e-06
2.5538295e-06
2.170173e-06
1.8599557e-06
1.6419947e-06
1.5010734e-06
1.4300991e-06
1.3660189e-06
1.2898735e-06
1.191263e-06
1.122699e-06
1.0517046e-06
9.9313031e-07
9.765396e-07
9.7032141e-07
9.8010199e-07
1.0122544e-06
1.0605086e-06
1.0690901e-06
1.0651354e-06
1.0644236e-06
1.0581019e-06
1.0453809e-06
1.0382048e-06
1.0518798e-06
1.0637257e-06
1.085043e-06
1.138916e-06
1.21794e-06
1.4024481e-06
1.6291077e-06
2.0966697e-06
2.754685e-06
3.6939006e-06
4.8125188e-06
7.0032988e-06
8.7058126e-06
1.1748342e-05
1.6966219e-05
2.2216348e-05
2.9181416e-05
4.4757787e-05
5.7240642e-05
7.5968379e-05
9.3821334e-05
0.00013232393
0.00017272494
0.00021464695
0.00026032457
0.00031449957
0.00038522162
0.00046057674
0.00054965138
4.5107757e-06
3.5596859e-06
3.0179613e-06
2.5620645e-06
2.184852e-06
1.8722856e-06
1.6475684e-06
1.5120705e-06
1.4199018e-06
1.3747857e-06
1.2936958e-06
1.1933226e-06
1.1258787e-06
1.0619759e-06
1.002059e-06
9.7657217e-07
9.7456777e-07
9.8374782e-07
1.0138492e-06
1.0552181e-06
1.0642601e-06
1.0631946e-06
1.0574117e-06
1.0545302e-06
1.046536e-06
1.0373885e-06
1.0511161e-06
1.0572191e-06
1.0782571e-06
1.1286097e-06
1.1886195e-06
1.3643181e-06
1.5759809e-06
2.0069518e-06
2.5552002e-06
3.44347e-06
4.4736882e-06
6.5980152e-06
8.3524168e-06
1.1580395e-05
1.6653223e-05
2.1640269e-05
2.8148439e-05
4.0609845e-05
4.9392484e-05
6.4918338e-05
8.4082007e-05
0.00012277827
0.00016168824
0.00020506881
0.00025419539
0.00030970125
0.00037478188
0.00044064798
0.00051208884
4.515086e-06
3.5672516e-06
3.0248812e-06
2.5749508e-06
2.1862111e-06
1.8793727e-06
1.6595096e-06
1.5069693e-06
1.4218717e-06
1.3767541e-06
1.3057222e-06
1.2084225e-06
1.1330381e-06
1.0690497e-06
1.0083158e-06
9.7313571e-07
9.7729188e-07
9.896912e-07
1.0180706e-06
1.0530649e-06
1.075857e-06
1.0893882e-06
1.0838204e-06
1.0766019e-06
1.0633315e-06
1.0451741e-06
1.0460116e-06
1.0446209e-06
1.0677958e-06
1.1182337e-06
1.1752599e-06
1.3334213e-06
1.5260651e-06
1.9554358e-06
2.4232203e-06
3.2778542e-06
4.13793e-06
6.0091213e-06
7.8364903e-06
1.1312375e-05
1.572603e-05
2.0776264e-05
2.7575079e-05
3.7410384e-05
4.5820509e-05
6.0910674e-05
8.1429801e-05
0.00011695716
0.00015583186
0.00020573181
0.00026562502
0.00034324951
0.00042831222
0.00051981083
0.00059638271
4.5202111e-06
3.5708186e-06
3.0320889e-06
2.5850842e-06
2.1879222e-06
1.8818056e-06
1.6590649e-06
1.507122e-06
1.4354253e-06
1.3733349e-06
1.3113576e-06
1.2202164e-06
1.1390303e-06
1.0696308e-06
1.0068774e-06
9.7501165e-07
9.8181198e-07
9.9061614e-07
1.0122969e-06
1.0481609e-06
1.0803876e-06
1.106184e-06
1.1126612e-06
1.1047138e-06
1.0753337e-06
1.048581e-06
1.0443493e-06
1.0436056e-06
1.0726482e-06
1.1248513e-06
1.1760734e-06
1.2987641e-06
1.464547e-06
1.863515e-06
2.3210267e-06
3.1356092e-06
3.9384168e-06
5.6336139e-06
7.3074521e-06
1.0655383e-05
1.434691e-05
1.9093268e-05
2.6214165e-05
3.4634636e-05
4.2975833e-05
5.8847152e-05
8.1044295e-05
0.00011137072
0.00015159197
0.00020691726
0.00027257727
0.00036145917
0.00047259288
0.00060001578
0.00070204632
4.5237109e-06
3.5735322e-06
3.0361805e-06
2.5916721e-06
2.2000488e-06
1.8860844e-06
1.6573098e-06
1.5179826e-06
1.4415777e-06
1.3713156e-06
1.3153126e-06
1.2262594e-06
1.1399956e-06
1.0726965e-06
1.0112705e-06
9.8168742e-07
9.8229819e-07
9.8808655e-07
1.0060194e-06
1.0421453e-06
1.0749359e-06
1.0948148e-06
1.1095261e-06
1.1073886e-06
1.0677456e-06
1.0442958e-06
1.0437173e-06
1.0538605e-06
1.0930822e-06
1.1415552e-06
1.186007e-06
1.2732407e-06
1.4170088e-06
1.7746946e-06
2.1966983e-06
2.9751168e-06
3.7594546e-06
5.3002615e-06
6.8988076e-06
9.7711094e-06
1.2985674e-05
1.7095045e-05
2.4675023e-05
3.2149743e-05
4.0279182e-05
5.6781259e-05
8.0263582e-05
0.00010716199
0.00014674562
0.00020166676
0.00026805415
0.00035800629
0.00047374229
0.00060962198
0.00072333715
4.5255678e-06
3.5776366e-06
3.0413877e-06
2.5984054e-06
2.2138613e-06
1.8982168e-06
1.66689e-06
1.5233333e-06
1.4421651e-06
1.3752412e-06
1.3250067e-06
1.2355442e-06
1.1383679e-06
1.0791225e-06
1.023072e-06
9.8460608e-07
9.753953e-07
9.8507213e-07
1.0066356e-06
1.044432e-06
1.0793033e-06
1.0885064e-06
1.0931647e-06
1.0892851e-06
1.0571848e-06
1.0354383e-06
1.0352147e-06
1.0535484e-06
1.094318e-06
1.1361443e-06
1.1777009e-06
1.2534401e-06
1.3928158e-06
1.7241782e-06
2.0989247e-06
2.8111412e-06
3.6524853e-06
4.9155404e-06
6.6921147e-06
8.9384299e-06
1.1682924e-05
1.5311579e-05
2.2544982e-05
2.9672695e-05
3.791509e-05
5.3925379e-05
7.6371122e-05
0.00010105177
0.00013750947
0.00018896004
0.00025372324
0.0003365001
0.00043786305
0.00055262781
0.0006560045
4.5269787e-06
3.5828099e-06
3.0498811e-06
2.6061866e-06
2.2200799e-06
1.9089059e-06
1.6789148e-06
1.5235791e-06
1.44227e-06
1.38405e-06
1.3373395e-06
1.2500226e-06
1.1487217e-06
1.0868661e-06
1.0350687e-06
9.8565592e-07
9.7092127e-07
9.8088709e-07
1.0049529e-06
1.0444466e-06
1.0892279e-06
1.1036251e-06
1.0971661e-06
1.084012e-06
1.0569196e-06
1.0340877e-06
1.0257274e-06
1.0375595e-06
1.0697634e-06
1.107034e-06
1.1573014e-06
1.2329835e-06
1.383599e-06
1.6854245e-06
2.0329355e-06
2.6787711e-06
3.5502227e-06
4.4001899e-06
6.2369826e-06
8.2061838e-06
1.1005548e-05
1.4330866e-05
2.0945303e-05
2.791783e-05
3.688087e-05
5.0575071e-05
7.0835992e-05
9.5224822e-05
0.00012998627
0.00017490543
0.00023227528
0.00030609296
0.00038954364
0.00047363935
0.00055174599
4.5288798e-06
3.5853605e-06
3.0568568e-06
2.6120018e-06
2.2229183e-06
1.909031e-06
1.6801738e-06
1.5272398e-06
1.442465e-06
1.3880644e-06
1.3397885e-06
1.2541634e-06
1.1631079e-06
1.09336e-06
1.0408416e-06
9.9046759e-07
9.7469746e-07
9.7987494e-07
9.9819887e-07
1.0353765e-06
1.0859324e-06
1.1127568e-06
1.1141559e-06
1.0945484e-06
1.0620088e-06
1.0384963e-06
1.023576e-06
1.0293081e-06
1.0560039e-06
1.0920384e-06
1.149124e-06
1.218042e-06
1.396504e-06
1.6196506e-06
1.9934575e-06
2.5282229e-06
3.4263953e-06
4.1648144e-06
5.7579246e-06
7.6592679e-06
1.0670495e-05
1.3826526e-05
1.9691576e-05
2.6099974e-05
3.6294825e-05
4.7820968e-05
6.5854095e-05
8.8453582e-05
0.00012322516
0.00016254962
0.0002114767
0.00027748569
0.00035132126
0.00041608608
0.0004720933
4.5314767e-06
3.5861975e-06
3.0604496e-06
2.6165721e-06
2.2270469e-06
1.9064837e-06
1.6746627e-06
1.5304871e-06
1.4416131e-06
1.3845089e-06
1.3365778e-06
1.25087e-06
1.1666358e-06
1.093839e-06
1.03675e-06
9.9259348e-07
9.7637448e-07
9.7874741e-07
9.9332398e-07
1.0244804e-06
1.0673768e-06
1.1018297e-06
1.1140429e-06
1.10275e-06
1.0691755e-06
1.0442436e-06
1.0289626e-06
1.0285208e-06
1.0515733e-06
1.0900344e-06
1.1486891e-06
1.2145354e-06
1.3853745e-06
1.5878078e-06
1.9545089e-06
2.3739871e-06
3.2425993e-06
3.9611051e-06
5.4738683e-06
7.2307779e-06
1.0238906e-05
1.3385892e-05
1.8982158e-05
2.4905655e-05
3.478092e-05
4.5273462e-05
6.1027386e-05
8.0876043e-05
0.00011186369
0.00014794811
0.00019198929
0.0002500419
0.00031847231
0.00037764397
0.00042376931
4.5342511e-06
3.5879611e-06
3.0629388e-06
2.6216908e-06
2.2347981e-06
1.9115181e-06
1.6746103e-06
1.5292169e-06
1.4429253e-06
1.3805737e-06
1.3295517e-06
1.2502481e-06
1.1573059e-06
1.0844322e-06
1.0275956e-06
9.8955595e-07
9.72154e-07
9.7632637e-07
9.9370188e-07
1.0267301e-06
1.0601663e-06
1.0804123e-06
1.0970915e-06
1.1014925e-06
1.0786142e-06
1.0476313e-06
1.0323422e-06
1.0285804e-06
1.0481462e-06
1.0884397e-06
1.1418379e-06
1.2069537e-06
1.3739589e-06
1.5588829e-06
1.8944217e-06
2.2397078e-06
2.9896955e-06
3.6703777e-06
5.0855269e-06
6.6288773e-06
9.6229532e-06
1.2605056e-05
1.7757082e-05
2.3257006e-05
3.2090492e-05
4.1202483e-05
5.5760752e-05
7.1790641e-05
9.6423411e-05
0.00012995945
0.00017051604
0.00022220804
0.00028447647
0.00034130829
0.00038527963
4.5360618e-06
3.592109e-06
3.0678536e-06
2.6291108e-06
2.2446602e-06
1.9259843e-06
1.6840747e-06
1.5291742e-06
1.4471384e-06
1.3847181e-06
1.3281457e-06
1.2609742e-06
1.1554639e-06
1.0762298e-06
1.0267883e-06
9.8896515e-07
9.696697e-07
9.7689056e-07
9.989689e-07
1.0373191e-06
1.0710358e-06
1.0790183e-06
1.0905571e-06
1.1002846e-06
1.0832454e-06
1.0510092e-06
1.0329621e-06
1.027395e-06
1.0418048e-06
1.0745791e-06
1.1241445e-06
1.1868409e-06
1.3486798e-06
1.5232532e-06
1.8158867e-06
2.0917304e-06
2.7083042e-06
3.3091245e-06
4.5434066e-06
5.7899837e-06
8.4839969e-06
1.1197583e-05
1.5825528e-05
2.0520546e-05
2.8532676e-05
3.6809803e-05
5.0249256e-05
6.4511212e-05
8.2969705e-05
0.00010977378
0.00014478408
0.00018968123
0.00024331067
0.00029692796
0.00033897244
4.5368452e-06
3.596993e-06
3.0745498e-06
2.6367461e-06
2.2527241e-06
1.9427701e-06
1.6985064e-06
1.5353045e-06
1.455013e-06
1.3977513e-06
1.3401539e-06
1.2821716e-06
1.1742648e-06
1.0777716e-06
1.0394168e-06
9.9773334e-07
9.7655784e-07
9.8277621e-07
1.0080479e-06
1.051532e-06
1.0900415e-06
1.0964895e-06
1.0988951e-06
1.0972857e-06
1.0785353e-06
1.0472669e-06
1.0241542e-06
1.0129974e-06
1.022225e-06
1.0441873e-06
1.0813765e-06
1.1350697e-06
1.2767188e-06
1.4300894e-06
1.6685955e-06
1.8662354e-06
2.3130441e-06
2.7774399e-06
3.7308152e-06
4.6693249e-06
6.6125508e-06
9.1781137e-06
1.2435591e-05
1.7551401e-05
2.331014e-05
3.0226837e-05
4.1842321e-05
5.5953995e-05
7.0947858e-05
9.0317921e-05
0.00011656518
0.00015158869
0.00019372581
0.00024136352
0.00028133988
4.5380797e-06
3.60172e-06
3.0810963e-06
2.6428541e-06
2.2593602e-06
1.9503638e-06
1.7063932e-06
1.545559e-06
1.4588199e-06
1.40859e-06
1.3550792e-06
1.2950225e-06
1.1930079e-06
1.0915458e-06
1.0547403e-06
1.0078385e-06
9.8541558e-07
9.872297e-07
1.0100528e-06
1.0475804e-06
1.0863769e-06
1.1026091e-06
1.1039116e-06
1.0872423e-06
1.0649467e-06
1.0398631e-06
1.0185831e-06
1.0039548e-06
1.009877e-06
1.0261814e-06
1.0554504e-06
1.1052874e-06
1.2306938e-06
1.3625935e-06
1.5537951e-06
1.706184e-06
2.0368915e-06
2.3859615e-06
3.0701607e-06
3.9003267e-06
5.0320289e-06
7.2027504e-06
9.4160073e-06
1.3323348e-05
1.865752e-05
2.3809041e-05
3.1859519e-05
4.5844412e-05
5.9144881e-05
7.4641791e-05
9.2666286e-05
0.00011753619
0.00014619381
0.00018223977
0.00021943406
4.5385337e-06
3.6024921e-06
3.0825001e-06
2.6447489e-06
2.2604163e-06
1.9475823e-06
1.7041974e-06
1.5477692e-06
1.4560684e-06
1.4048589e-06
1.3560279e-06
1.2903665e-06
1.195336e-06
1.1012608e-06
1.0583552e-06
1.0112429e-06
9.892535e-07
9.8830067e-07
1.0075894e-06
1.0378494e-06
1.0750171e-06
1.1013092e-06
1.106909e-06
1.0893057e-06
1.0682178e-06
1.0566978e-06
1.0497097e-06
1.0420408e-06
1.0501595e-06
1.069981e-06
1.0972755e-06
1.144897e-06
1.2631705e-06
1.3818421e-06
1.533147e-06
1.6681617e-06
1.9572627e-06
2.288358e-06
2.8757671e-06
3.708131e-06
4.5818066e-06
6.3614682e-06
8.4967499e-06
1.0951738e-05
1.5416169e-05
1.9731775e-05
2.4873273e-05
3.4277415e-05
4.5050392e-05
5.8108804e-05
7.1725527e-05
8.8756989e-05
0.00010902468
0.00013203336
0.00016240769
4.540905e-06
3.6034362e-06
3.0809218e-06
2.6431048e-06
2.2564609e-06
1.9362638e-06
1.6921211e-06
1.5386651e-06
1.4405333e-06
1.3850341e-06
1.3402701e-06
1.2749138e-06
1.192421e-06
1.1113912e-06
1.0659353e-06
1.0305857e-06
1.0187564e-06
1.0229946e-06
1.0463924e-06
1.0879212e-06
1.1347259e-06
1.1801386e-06
1.2024548e-06
1.2063676e-06
1.2114281e-06
1.228578e-06
1.2609728e-06
1.2835141e-06
1.3248433e-06
1.3948431e-06
1.4407628e-06
1.5040891e-06
1.6449217e-06
1.7976644e-06
1.9510274e-06
2.1048614e-06
2.4271017e-06
2.7923765e-06
3.243226e-06
4.0720333e-06
4.8744824e-06
6.3622157e-06
8.5144479e-06
1.0426326e-05
1.4273991e-05
1.7920696e-05
2.2129719e-05
2.7142571e-05
3.4028672e-05
4.1558148e-05
5.2358994e-05
6.2060822e-05
7.7161975e-05
9.095651e-05
0.00011573038
4.5398043e-06
3.5986316e-06
3.0689987e-06
2.6295306e-06
2.2440159e-06
1.9255673e-06
1.6832457e-06
1.530355e-06
1.4337394e-06
1.3830477e-06
1.3463041e-06
1.3013723e-06
1.2537358e-06
1.2020043e-06
1.1835923e-06
1.1908162e-06
1.2008167e-06
1.2302494e-06
1.2998053e-06
1.3948323e-06
1.4842453e-06
1.5708888e-06
1.6425174e-06
1.6992066e-06
1.8035688e-06
1.8963008e-06
2.0189571e-06
2.108336e-06
2.273555e-06
2.5056349e-06
2.6320648e-06
2.7691091e-06
2.9731603e-06
3.304511e-06
3.5471689e-06
3.8211691e-06
4.3939534e-06
5.0493166e-06
5.6019187e-06
6.4788809e-06
7.2398005e-06
8.3007293e-06
1.0452802e-05
1.2036332e-05
1.513783e-05
1.7829977e-05
2.1500182e-05
2.4515614e-05
3.0050649e-05
3.4400351e-05
4.1171092e-05
4.6175675e-05
5.5160429e-05
6.2268145e-05
7.7601695e-05
4.5383827e-06
3.5837346e-06
3.0449668e-06
2.6145564e-06
2.2600023e-06
1.9806071e-06
1.7634307e-06
1.6350584e-06
1.5618724e-06
1.554265e-06
1.5574394e-06
1.5866212e-06
1.6464e-06
1.7052708e-06
1.7921177e-06
1.9043774e-06
2.0014823e-06
2.1087027e-06
2.2986663e-06
2.5014538e-06
2.7027351e-06
2.8845441e-06
3.0883074e-06
3.2889424e-06
3.6374702e-06
3.9087902e-06
4.2469286e-06
4.5139092e-06
4.9939472e-06
5.6585157e-06
6.0084154e-06
6.3532218e-06
6.7233986e-06
7.5074971e-06
8.1136767e-06
8.674882e-06
9.7971481e-06
1.1235793e-05
1.2551817e-05
1.3976614e-05
1.529626e-05
1.6217022e-05
1.8022174e-05
1.9319036e-05
2.133537e-05
2.2596783e-05
2.5060075e-05
2.6807775e-05
3.0695991e-05
3.3260876e-05
3.7848401e-05
4.1035623e-05
4.6596716e-05
5.0302471e-05
5.7707511e-05
4.5048401e-06
3.5629764e-06
3.1092521e-06
2.7846342e-06
2.598961e-06
2.5043665e-06
2.4336539e-06
2.4505023e-06
2.4952121e-06
2.6198148e-06
2.8030266e-06
3.0398072e-06
3.3796061e-06
3.7427325e-06
4.0860273e-06
4.4820546e-06
4.7552864e-06
5.0060367e-06
5.3925692e-06
5.7322838e-06
6.1485459e-06
6.5140039e-06
7.0140293e-06
7.5729468e-06
8.3827722e-06
9.1125726e-06
9.8430214e-06
1.0511026e-05
1.1492757e-05
1.2952282e-05
1.3788725e-05
1.4615586e-05
1.5470609e-05
1.7062282e-05
1.8609136e-05
1.9616928e-05
2.1599983e-05
2.3913755e-05
2.6523079e-05
2.9293192e-05
3.1831777e-05
3.359351e-05
3.5287968e-05
3.6735193e-05
3.7960583e-05
3.8604174e-05
3.9235122e-05
3.9127419e-05
3.9404561e-05
3.981384e-05
4.1153366e-05
4.214246e-05
4.5023751e-05
4.666566e-05
4.948074e-05
4.3830625e-06
3.9307419e-06
4.0760393e-06
4.3739771e-06
4.8349208e-06
5.3571259e-06
5.8336442e-06
6.2272404e-06
6.6896657e-06
7.1375161e-06
7.6819819e-06
8.1494584e-06
8.849761e-06
9.6742455e-06
1.035775e-05
1.1121636e-05
1.1621199e-05
1.2066122e-05
1.2591679e-05
1.2948518e-05
1.3538239e-05
1.4120959e-05
1.4984916e-05
1.6120036e-05
1.7358041e-05
1.855486e-05
1.965722e-05
2.0774796e-05
2.2063913e-05
2.3870823e-05
2.5112877e-05
2.6213183e-05
2.78976e-05
2.9772907e-05
3.1408556e-05
3.2146956e-05
3.3066026e-05
3.4699488e-05
3.6725827e-05
3.9060577e-05
4.1520129e-05
4.3581812e-05
4.5112695e-05
4.5891863e-05
4.7032834e-05
4.7643164e-05
4.8053419e-05
4.7908904e-05
4.7705386e-05
4.7046873e-05
4.6562093e-05
4.5703227e-05
4.5530705e-05
4.5160296e-05
4.585183e-05
5.6540556e-06
7.9861889e-06
1.0694421e-05
1.2063086e-05
1.3434426e-05
1.4459e-05
1.5410976e-05
1.6094487e-05
1.6607116e-05
1.6994003e-05
1.7167746e-05
1.7397145e-05
1.7836645e-05
1.8529767e-05
1.8935196e-05
1.9458207e-05
1.9864901e-05
2.0307036e-05
2.0407803e-05
2.0418699e-05
2.0539607e-05
2.0943281e-05
2.1522532e-05
2.227893e-05
2.3361651e-05
2.4537211e-05
2.5750241e-05
2.6815948e-05
2.7985017e-05
2.9131432e-05
2.9857707e-05
3.0600264e-05
3.1973078e-05
3.4122252e-05
3.5627149e-05
3.632402e-05
3.6475151e-05
3.7287351e-05
3.8477072e-05
3.9906466e-05
4.1608269e-05
4.3097665e-05
4.4549028e-05
4.5923848e-05
4.6777448e-05
4.721924e-05
4.7366587e-05
4.7886665e-05
4.8651169e-05
4.8740023e-05
4.8529497e-05
4.7866865e-05
4.693557e-05
4.5360248e-05
4.5663358e-05
5.311183e-05
7.3172812e-05
5.8345984e-05
4.5094922e-05
3.7341779e-05
3.0496338e-05
2.5763653e-05
2.3398747e-05
2.2881346e-05
2.3520015e-05
2.4807346e-05
2.5395257e-05
2.5286242e-05
2.5361776e-05
2.4611895e-05
2.3449298e-05
2.2757819e-05
2.2998707e-05
2.3924904e-05
2.4668272e-05
2.4629745e-05
2.5262141e-05
2.7584971e-05
3.1468409e-05
3.5268437e-05
3.806503e-05
4.0171917e-05
4.1757141e-05
4.2857425e-05
4.3519297e-05
4.2438293e-05
4.004604e-05
3.8412027e-05
3.9432192e-05
4.2324151e-05
4.4716007e-05
4.5934737e-05
4.5136208e-05
4.4437787e-05
4.4947634e-05
4.6793386e-05
4.9649977e-05
5.2775293e-05
5.5071556e-05
5.6120589e-05
5.6828682e-05
5.8597682e-05
6.0800547e-05
6.2922979e-05
6.3508078e-05
6.2355072e-05
6.0245243e-05
5.7588676e-05
5.628562e-05
5.6391945e-05
5.5781994e-05
4.6863461e-05
4.7607735e-05
5.3599584e-05
6.5716031e-05
8.8458291e-05
0.00012904684
0.00017954164
0.00024262541
0.00031472372
0.00038049149
0.00042997649
0.00047408554
0.00054142669
0.00064911987
0.00078075114
0.00086166914
0.00084330354
0.00074766428
0.00063420625
0.00067126862
0.00082615318
0.00089544179
0.00077015423
0.00062556464
0.0006671461
0.0008087299
5.5579623e-05
4.8207797e-05
5.0171841e-05
5.7243728e-05
7.0990172e-05
9.7483596e-05
0.00014020377
0.00019357463
0.0002694077
0.00036145188
0.00043819307
0.00049149567
0.00054621406
0.00063304716
0.00075879107
0.00090126803
0.00099825081
0.0010066981
0.00092763741
0.0007731845
0.00079931323
0.00095167311
0.0010570875
0.00093592701
0.00070688839
0.00077331115
0.00097090549
5.8089241e-05
4.8418047e-05
5.1807258e-05
6.0377103e-05
7.635623e-05
0.00010520689
0.00014989317
0.00021537991
0.00032060187
0.00043365045
0.0005180299
0.00057649373
0.0006425084
0.00074195416
0.00088097884
0.0010403891
0.0011634916
0.0011858343
0.0011143296
0.00096910207
0.00098297426
0.0011118281
0.0012181967
0.0011189847
0.00083233304
0.00084751775
0.0010525211
6.0863106e-05
4.6783047e-05
5.1750003e-05
6.3635495e-05
8.163435e-05
0.00011232134
0.00016252753
0.00025421573
0.00038690089
0.00050390103
0.0005855419
0.00064824222
0.0007218772
0.00083439383
0.00099863301
0.0011853934
0.001340504
0.0013883507
0.0013327144
0.0012076165
0.0011915346
0.0012849806
0.0013945604
0.0013116095
0.0010066108
0.00093709738
0.0011210326
6.0644329e-05
4.4385737e-05
5.1187039e-05
6.7165275e-05
8.6031778e-05
0.00011813584
0.00018347538
0.00030840333
0.00045512292
0.00056550864
0.00063816858
0.00069697174
0.00077289261
0.00089823685
0.0010809687
0.0012938434
0.0014878778
0.0015869246
0.001561818
0.0014511133
0.0013952031
0.0014690068
0.0015972513
0.0015056146
0.0012012006
0.0010648245
0.0012222277
5.8367656e-05
4.209701e-05
4.9753786e-05
6.8062019e-05
8.9627227e-05
0.00012920249
0.00022037928
0.00037771111
0.00052071636
0.00061393206
0.00067318576
0.00072598166
0.00080433189
0.0009374203
0.0011298125
0.0013625529
0.0016074031
0.0017704494
0.0017804005
0.0016775441
0.0016124459
0.0016977583
0.0018377953
0.0017200081
0.0014010123
0.0012147835
0.0013440764
5.4985658e-05
3.9550541e-05
4.7539015e-05
6.8218347e-05
9.5028702e-05
0.00015123181
0.00027523002
0.00043453029
0.00055468598
0.00062928523
0.00068032092
0.00073292872
0.00081955475
0.0009663926
0.0011761466
0.0014411644
0.0017391326
0.0019454986
0.0019753584
0.0018932957
0.0018574296
0.0019672501
0.0021198471
0.0019747042
0.0016205986
0.001374195
0.001480094
5.3501712e-05
3.6357011e-05
4.5466276e-05
7.0250012e-05
0.00010815386
0.00018363758
0.00031585926
0.00045487842
0.00055548828
0.00062233364
0.0006719723
0.00073065044
0.0008286179
0.00099579533
0.0012437632
0.0015582144
0.0018888324
0.0020974659
0.0021270551
0.0020841018
0.0021087991
0.0022605808
0.0024248165
0.0022722815
0.0018843778
0.0015475207
0.0016210416
5.1759755e-05
3.5293886e-05
4.5901026e-05
7.4156609e-05
0.00012048041
0.0002044699
0.00032998831
0.0004538163
0.00054918592
0.00061526406
0.00066579587
0.00073124998
0.00084218844
0.0010345958
0.0013182299
0.001667264
0.001998067
0.002185974
0.0022403809
0.0022478761
0.0023301675
0.0025264872
0.0027070653
0.0025929447
0.0021899605
0.0017490179
0.0017770222
4.8484999e-05
3.4979427e-05
4.6501235e-05
7.6880821e-05
0.0001235748
0.00020606331
0.00032323384
0.00044088788
0.00053852355
0.00060975402
0.00066454469
0.00073553414
0.00085970486
0.0010749381
0.0013801499
0.0017272341
0.0020334268
0.0022291878
0.0023299718
0.0023918553
0.0025239649
0.0027443471
0.0029426913
0.0028868406
0.0025060978
0.0019848258
0.0019445077
4.5595685e-05
3.3537883e-05
4.4816519e-05
7.4359283e-05
0.00011927911
0.00019581054
0.0003034163
0.00041481102
0.00051344366
0.00058656234
0.0006436825
0.0007223159
0.00086260375
0.0011007093
0.0014170325
0.0017549121
0.0020531026
0.0022700269
0.0024225506
0.0025379206
0.0027092855
0.0029425542
0.0031519796
0.0031432519
0.0027980625
0.0022354722
0.0021082144
4.5573674e-05
3.0287222e-05
4.0720905e-05
6.8139816e-05
0.00010975001
0.00017767758
0.00026929796
0.00036463485
0.00045387929
0.00052651007
0.00058259824
0.00066723612
0.0008332255
0.0011070389
0.0014490941
0.0017998889
0.0021061582
0.0023401402
0.0025279699
0.0026857533
0.0028811384
0.0031285169
0.0033470059
0.0033680301
0.0030576821
0.0024844851
0.0022802483
4.3541127e-05
2.7878266e-05
3.6132935e-05
6.0725462e-05
9.9196237e-05
0.00015385059
0.00021745309
0.00028390476
0.00035657024
0.00042034411
0.00047067614
0.00058107898
0.00080629998
0.0011184765
0.0014903952
0.0018658443
0.0021956443
0.0024551601
0.002657123
0.0028182128
0.0030230691
0.0032837999
0.0035202943
0.0035635315
0.0032810722
0.002722463
0.0024642738
4.1175296e-05
2.6565878e-05
3.2945956e-05
5.4455953e-05
8.834792e-05
0.00012245562
0.00015971757
0.00020453763
0.00025512593
0.00029033337
0.00036349804
0.0005373875
0.00080824852
0.0011705515
0.0015721551
0.0019686512
0.0023197869
0.002592555
0.0028079656
0.0029728432
0.0031581221
0.0034130542
0.003652103
0.0037118708
0.003456713
0.0029335134
0.0026490852
4.1936301e-05
2.4784924e-05
2.8924948e-05
4.3706471e-05
6.9846049e-05
9.1354256e-05
0.00012012609
0.00015522691
0.00017856675
0.00022389143
0.00033025112
0.00057086715
0.00091738626
0.001315399
0.0017268855
0.0021243612
0.002477676
0.0027570858
0.0029855687
0.0031666413
0.003347264
0.0035583297
0.0037583348
0.0038057407
0.0035812846
0.0031113336
0.0028178242
4.6628301e-05
2.4232858e-05
2.5833499e-05
3.3689106e-05
5.0667296e-05
7.4076531e-05
0.00010239127
0.00011804191
0.0001454013
0.00022702887
0.0004468065
0.00079866315
0.0011771821
0.0015738898
0.0019689099
0.0023399589
0.0026695285
0.0029456793
0.0031866924
0.0034022057
0.0035882455
0.0037581393
0.0038847755
0.0038817956
0.0036683913
0.0032521709
0.0029526413
6.082232e-05
2.6077466e-05
2.4392933e-05
2.8152693e-05
3.7498988e-05
5.630858e-05
6.967944e-05
9.8862831e-05
0.00019396719
0.00044036266
0.00082638624
0.0011937276
0.0015577225
0.0019264648
0.0022828314
0.00261306
0.0029046874
0.0031589453
0.0034021082
0.0036466919
0.0038503379
0.0040008667
0.0040708544
0.0039914005
0.0037530924
0.0033652729
0.0030514555
9.111957e-05
3.1433296e-05
2.4525977e-05
2.6810513e-05
3.2783287e-05
4.685854e-05
9.0531984e-05
0.00023180644
0.00055038687
0.00096071726
0.0013273259
0.0016638224
0.0019912226
0.0023149763
0.0026245796
0.0029134649
0.0031728584
0.0034051227
0.0036299521
0.0038646244
0.00407498
0.0042316785
0.0042851274
0.0041640562
0.0038818729
0.0034855568
0.003134015
0.00011691086
3.7861404e-05
2.7340124e-05
3.0860253e-05
5.2616548e-05
0.00013812128
0.00036687852
0.00075790422
0.001154188
0.001518198
0.0018472692
0.0021502951
0.0024351634
0.002707659
0.0029703616
0.0032261422
0.0034667349
0.0036766639
0.0038662752
0.0040596195
0.0042453806
0.0044060854
0.0044663495
0.0043484831
0.0040599713
0.0036459722
0.0032425267
0.00013030232
4.8441519e-05
4.6653995e-05
8.9007289e-05
0.00024058284
0.00056251209
0.00093543312
0.0013007801
0.0016538444
0.0019914703
0.0023083646
0.0026008582
0.0028659777
0.0031063594
0.0033316414
0.0035533642
0.003763033
0.0039413074
0.0040958614
0.0042487996
0.0043959363
0.0045201219
0.0045730276
0.0044789795
0.0042215827
0.003830179
0.0033869479
0.00014003823
7.4821262e-05
0.00013592903
0.0003309833
0.00067076113
0.0010099547
0.0013437172
0.0016791704
0.0020174308
0.0023549682
0.0026852644
0.0029971987
0.00327573
0.0035139624
0.0037133816
0.0038909869
0.0040513924
0.0041909049
0.0043172039
0.0044385901
0.0045493475
0.0046146193
0.0046108285
0.004514829
0.0043042504
0.0039655758
0.0035305471
0.00015797562
0.00015325846
0.00034102077
0.00065971075
0.00098047987
0.0012978408
0.0016175727
0.0019457458
0.0022830505
0.002626593
0.0029764006
0.0033185513
0.0036273222
0.0038856363
0.0040850062
0.0042392275
0.0043599955
0.0044633224
0.0045536671
0.004637675
0.0046933399
0.004693677
0.0046150064
0.0044814826
0.0042869837
0.0040162832
0.0036329568
0.0001848173
0.00027888646
0.00056529693
0.0008794855
0.0012001634
0.001515406
0.0018312962
0.0021543666
0.0024883889
0.0028347472
0.0031927476
0.0035530534
0.0038923393
0.0041900304
0.0044280304
0.0045959856
0.004711287
0.0047893084
0.0048359624
0.0048401841
0.0048029554
0.0047133744
0.0045590131
0.0043866025
0.0042033205
0.0039709264
0.0036590676
0.0002240949
0.00043354674
0.00073411575
0.001055555
0.0013770657
0.0016907172
0.002002763
0.0023201829
0.0026473722
0.0029888093
0.0033471656
0.0037187213
0.0040890148
0.0044369221
0.0047370904