/*--------------------------------*- C++ -*----------------------------------*\
| =========                 |                                                 |
| \\      /  F ield         | OpenFOAM: The Open Source CFD Toolbox           |
|  \\    /   O peration     | Version:  2406                                  |
|   \\  /    A nd           | Website:  www.openfoam.com                      |
|    \\/     M anipulation  |                                                 |
\*---------------------------------------------------------------------------*/
FoamFile
{
    version     2.0;
    format      ascii;
    arch        "LSB;label=32;scalar=64";
    class       volScalarField;
    location    "21";
    object      nut;
}
// * * * * * * * * * * * * * * * * * * * * * * * * * * * * * * * * * * * * * //

dimensions      [0 2 -1 0 0 0 0];

internalField   nonuniform List<scalar> 
62344
(
1.0305575e-06
1.0274261e-06
1.0551881e-06
1.0565296e-06
1.0325483e-06
9.9470451e-07
9.7266994e-07
9.7223123e-07
9.9093554e-07
1.007782e-06
1.0044771e-06
1.0009887e-06
9.8337084e-07
9.6122098e-07
9.6139741e-07
9.8297972e-07
1.000106e-06
1.0313235e-06
1.0730415e-06
1.1146178e-06
1.1461182e-06
1.1701039e-06
1.1943298e-06
1.2152403e-06
1.2320351e-06
1.2336458e-06
1.2492894e-06
1.2954421e-06
1.399395e-06
1.5431817e-06
1.7737345e-06
1.9534052e-06
2.27729e-06
2.5607178e-06
3.2236576e-06
3.8726924e-06
4.7599445e-06
5.7090801e-06
7.338864e-06
8.644166e-06
1.1077823e-05
1.3498509e-05
1.6852223e-05
1.8817132e-05
2.192628e-05
2.842205e-05
3.4148226e-05
3.9786279e-05
4.5430994e-05
5.0649398e-05
5.7886842e-05
6.4262259e-05
7.1789903e-05
7.7435784e-05
8.6190918e-05
1.030875e-06
1.0266894e-06
1.0540535e-06
1.0582065e-06
1.0334517e-06
9.9797581e-07
9.7104774e-07
9.715935e-07
9.8772119e-07
1.0088428e-06
1.0028094e-06
9.9480864e-07
9.8182461e-07
9.6009272e-07
9.551058e-07
9.6896491e-07
9.86767e-07
1.0174245e-06
1.064058e-06
1.0983463e-06
1.126356e-06
1.15255e-06
1.1771799e-06
1.1935564e-06
1.2044532e-06
1.1919973e-06
1.1931544e-06
1.2121159e-06
1.2658133e-06
1.3822273e-06
1.5746566e-06
1.7906043e-06
2.0337583e-06
2.2875009e-06
2.9552305e-06
3.5006148e-06
4.1903289e-06
4.8877857e-06
6.1201191e-06
7.38926e-06
9.8475384e-06
1.1992629e-05
1.64893e-05
1.8605269e-05
2.3095991e-05
2.8396604e-05
3.3507312e-05
3.7458932e-05
4.2139875e-05
4.5514489e-05
5.0889597e-05
5.5477633e-05
6.297945e-05
6.7965716e-05
7.5887159e-05
1.031231e-06
1.0266003e-06
1.0554339e-06
1.061058e-06
1.035745e-06
9.9793355e-07
9.7379694e-07
9.7114593e-07
9.8712724e-07
1.0101387e-06
1.0123652e-06
1.0007966e-06
9.8660135e-07
9.5998094e-07
9.5347753e-07
9.7015753e-07
9.8885376e-07
1.0120958e-06
1.0583473e-06
1.0995329e-06
1.1264831e-06
1.1464599e-06
1.1697337e-06
1.1918291e-06
1.1965438e-06
1.1822746e-06
1.1888828e-06
1.2075759e-06
1.2547011e-06
1.3518389e-06
1.5276538e-06
1.7590509e-06
1.9861957e-06
2.2591134e-06
2.9278285e-06
3.4097655e-06
3.9162162e-06
4.6439542e-06
5.6855268e-06
6.7815277e-06
8.9656464e-06
1.1713556e-05
1.5726844e-05
1.8985216e-05
2.4048426e-05
2.8498835e-05
3.4558748e-05
3.8910926e-05
4.4175938e-05
4.7412261e-05
5.2381354e-05
5.7097187e-05
6.3753452e-05
6.9494922e-05
7.337967e-05
1.0313855e-06
1.0261895e-06
1.0555235e-06
1.0616604e-06
1.0395115e-06
1.0000017e-06
9.7440564e-07
9.716588e-07
9.8888625e-07
1.0090926e-06
1.0140603e-06
1.0012413e-06
9.8589086e-07
9.6379e-07
9.5359418e-07
9.7125305e-07
9.8647111e-07
1.0086941e-06
1.0594598e-06
1.1089551e-06
1.1316586e-06
1.1470783e-06
1.1656315e-06
1.1905953e-06
1.1912812e-06
1.1858973e-06
1.1909136e-06
1.2084311e-06
1.2548455e-06
1.3449637e-06
1.4984381e-06
1.716452e-06
1.9437254e-06
2.2618996e-06
2.9173521e-06
3.3582863e-06
3.7647853e-06
4.5662888e-06
5.4379603e-06
6.1435051e-06
7.8398365e-06
1.097477e-05
1.3104514e-05
1.8175543e-05
2.1494551e-05
2.7507591e-05
3.4178094e-05
4.0436657e-05
4.6390941e-05
5.3305295e-05
6.0302831e-05
6.9460184e-05
7.5711782e-05
8.4286474e-05
8.632228e-05
1.0309823e-06
1.0259956e-06
1.0562947e-06
1.0646429e-06
1.0413478e-06
1.0022418e-06
9.7555672e-07
9.7367019e-07
9.8475774e-07
1.0109e-06
1.0125521e-06
1.0032028e-06
9.905556e-07
9.6846411e-07
9.5626663e-07
9.6763915e-07
9.8334152e-07
1.009927e-06
1.0606459e-06
1.1052728e-06
1.1300274e-06
1.148543e-06
1.1666988e-06
1.1861517e-06
1.1867084e-06
1.1938414e-06
1.1985757e-06
1.2150255e-06
1.2504727e-06
1.3190459e-06
1.4209713e-06
1.5724521e-06
1.8140284e-06
2.1395268e-06
2.6747349e-06
3.0742949e-06
3.534672e-06
4.3838412e-06
5.1456936e-06
5.8122113e-06
7.4199848e-06
1.0029017e-05
1.1881983e-05
1.6373192e-05
1.9741966e-05
2.6585278e-05
3.1545219e-05
3.8730608e-05
4.496481e-05
5.3086333e-05
6.1011731e-05
7.2466932e-05
8.2248028e-05
9.7020597e-05
0.00010435357
1.0311397e-06
1.0259561e-06
1.0576303e-06
1.0659965e-06
1.0414669e-06
1.0036794e-06
9.7873461e-07
9.7007564e-07
9.8893379e-07
1.0112908e-06
1.0193032e-06
1.0076398e-06
9.9814547e-07
9.7219294e-07
9.5775294e-07
9.6919836e-07
9.8358426e-07
1.006701e-06
1.0562445e-06
1.1057453e-06
1.1339174e-06
1.1562848e-06
1.1776644e-06
1.1909926e-06
1.1909493e-06
1.1965858e-06
1.2044302e-06
1.2199181e-06
1.2459291e-06
1.2933182e-06
1.3866561e-06
1.5125494e-06
1.7134088e-06
2.0290549e-06
2.5043166e-06
2.9254722e-06
3.4334679e-06
4.3129197e-06
4.9876925e-06
5.7484596e-06
7.4390256e-06
9.0451532e-06
1.0631781e-05
1.463979e-05
1.7764041e-05
2.3163225e-05
2.6016486e-05
3.2657961e-05
3.9334828e-05
4.7652449e-05
5.5995099e-05
6.8149543e-05
7.9452028e-05
9.387236e-05
0.00010533546
1.0313218e-06
1.0262064e-06
1.0580305e-06
1.0658151e-06
1.0451278e-06
1.0066853e-06
9.7849999e-07
9.7111462e-07
9.9170214e-07
1.0134793e-06
1.0205509e-06
1.0079552e-06
1.0000258e-06
9.7381915e-07
9.5756697e-07
9.7081298e-07
9.8486196e-07
1.0047974e-06
1.046348e-06
1.1067971e-06
1.1355756e-06
1.1546286e-06
1.173927e-06
1.1875117e-06
1.1902069e-06
1.1918744e-06
1.2044792e-06
1.2185112e-06
1.2401998e-06
1.2826114e-06
1.3436295e-06
1.4849209e-06
1.6267373e-06
1.9226983e-06
2.2949976e-06
2.7740722e-06
3.2592484e-06
4.2140707e-06
4.8006121e-06
5.8217192e-06
7.5394473e-06
8.8085333e-06
1.0297715e-05
1.4136544e-05
1.6501229e-05
2.0157541e-05
2.2972257e-05
3.0191471e-05
3.716274e-05
4.367727e-05
5.0398338e-05
5.8759685e-05
6.9339002e-05
8.0643468e-05
9.390951e-05
1.0313179e-06
1.026364e-06
1.0573379e-06
1.0666227e-06
1.0480794e-06
1.0097896e-06
9.7905104e-07
9.7373798e-07
9.862347e-07
1.0147526e-06
1.0214158e-06
1.007817e-06
1.000476e-06
9.7936677e-07
9.6274141e-07
9.6862433e-07
9.8790765e-07
1.0049643e-06
1.0436799e-06
1.1005924e-06
1.1297389e-06
1.1530506e-06
1.1704472e-06
1.1835427e-06
1.1863127e-06
1.1888405e-06
1.2033403e-06
1.2148651e-06
1.2355205e-06
1.273676e-06
1.3204119e-06
1.4566436e-06
1.5992411e-06
1.8708374e-06
2.1754306e-06
2.6573377e-06
3.1118765e-06
4.0578701e-06
4.6704428e-06
5.7906362e-06
7.4221329e-06
8.6402836e-06
1.0168163e-05
1.3328593e-05
1.491448e-05
1.8046583e-05
2.1366873e-05
2.8824652e-05
3.5664485e-05
4.2673573e-05
5.0046413e-05
5.8383324e-05
6.8353354e-05
7.8525775e-05
8.941367e-05
1.0314399e-06
1.0264809e-06
1.0574654e-06
1.0686068e-06
1.0476455e-06
1.011316e-06
9.8210307e-07
9.7034024e-07
9.8533265e-07
1.013932e-06
1.0258858e-06
1.0139455e-06
1.0025928e-06
9.8356696e-07
9.6477942e-07
9.6599778e-07
9.8934864e-07
1.0063737e-06
1.0442312e-06
1.0966228e-06
1.1330083e-06
1.164814e-06
1.1875784e-06
1.1975042e-06
1.1947699e-06
1.191442e-06
1.2010541e-06
1.2067366e-06
1.2272328e-06
1.264962e-06
1.3090492e-06
1.4322205e-06
1.5690813e-06
1.8426007e-06
2.0897712e-06
2.576879e-06
2.9708883e-06
3.8152746e-06
4.46481e-06
5.7623542e-06
7.1090166e-06
8.4018874e-06
1.0175255e-05
1.2685064e-05
1.4222182e-05
1.7247913e-05
2.1157627e-05
2.8082032e-05
3.4905142e-05
4.333301e-05
5.2791274e-05
6.4403787e-05
7.6701025e-05
8.9655341e-05
0.00010067474
1.0316975e-06
1.0259493e-06
1.0576946e-06
1.0698215e-06
1.047178e-06
1.0113498e-06
9.808572e-07
9.690448e-07
9.8845286e-07
1.0111216e-06
1.0275088e-06
1.0174383e-06
1.004624e-06
9.8446159e-07
9.6060026e-07
9.6642576e-07
9.9033136e-07
1.0076405e-06
1.0380757e-06
1.0915019e-06
1.1357612e-06
1.1717891e-06
1.1988942e-06
1.2141668e-06
1.2035167e-06
1.1940759e-06
1.1988607e-06
1.2045726e-06
1.2290989e-06
1.2692987e-06
1.3079243e-06
1.4045341e-06
1.5278212e-06
1.7839671e-06
2.0294519e-06
2.5072079e-06
2.8802577e-06
3.6677083e-06
4.2656006e-06
5.5963925e-06
6.6830816e-06
7.9397158e-06
9.9163072e-06
1.2071204e-05
1.3656848e-05
1.687247e-05
2.1301363e-05
2.7157649e-05
3.4355082e-05
4.4001848e-05
5.4737924e-05
6.8343711e-05
8.4369701e-05
0.00010161561
0.00011552067
1.0317398e-06
1.0254877e-06
1.057436e-06
1.0704007e-06
1.0495064e-06
1.0121728e-06
9.7921008e-07
9.7180932e-07
9.8868795e-07
1.008504e-06
1.0285998e-06
1.0181904e-06
1.0049944e-06
9.856272e-07
9.6086219e-07
9.6687841e-07
9.8976925e-07
1.0066922e-06
1.0317236e-06
1.0825673e-06
1.1309418e-06
1.164347e-06
1.1941519e-06
1.2128912e-06
1.199343e-06
1.192755e-06
1.1964463e-06
1.2078376e-06
1.24148e-06
1.2798712e-06
1.3132696e-06
1.383803e-06
1.4914158e-06
1.7242821e-06
1.9537569e-06
2.4163733e-06
2.7880278e-06
3.5215058e-06
4.134684e-06
5.2988016e-06
6.28914e-06
7.3656138e-06
9.5623323e-06
1.1439644e-05
1.3065346e-05
1.6546041e-05
2.1357377e-05
2.6482384e-05
3.3773528e-05
4.3538169e-05
5.4753457e-05
6.9275953e-05
8.6629267e-05
0.00010531102
0.00012058224
1.0315935e-06
1.0253038e-06
1.0573234e-06
1.0709328e-06
1.0524579e-06
1.0152527e-06
9.8150214e-07
9.7250179e-07
9.8743266e-07
1.0080733e-06
1.0321185e-06
1.0214603e-06
1.0036853e-06
9.8874308e-07
9.6771486e-07
9.6444688e-07
9.849459e-07
1.0056521e-06
1.0323965e-06
1.0780809e-06
1.1282601e-06
1.1596945e-06
1.1842577e-06
1.1979732e-06
1.189581e-06
1.1846605e-06
1.1889195e-06
1.2065822e-06
1.2419117e-06
1.2751994e-06
1.3060087e-06
1.3699497e-06
1.4721868e-06
1.6892191e-06
1.895082e-06
2.3155484e-06
2.7393349e-06
3.3266166e-06
4.0911127e-06
4.9799126e-06
5.8637303e-06
6.8413205e-06
8.9612295e-06
1.0679343e-05
1.2434294e-05
1.6072542e-05
2.0804603e-05
2.5460516e-05
3.240678e-05
4.1848356e-05
5.2919151e-05
6.6907916e-05
8.3472397e-05
0.00010070215
0.00011534023
1.0313859e-06
1.0253432e-06
1.0577377e-06
1.0715568e-06
1.0533559e-06
1.0175867e-06
9.8502134e-07
9.7113591e-07
9.86612e-07
1.0091569e-06
1.0366324e-06
1.0284019e-06
1.0070618e-06
9.9300315e-07
9.7499315e-07
9.6237256e-07
9.822482e-07
1.0022508e-06
1.029545e-06
1.0767739e-06
1.1306892e-06
1.1636315e-06
1.1876541e-06
1.1955638e-06
1.1858202e-06
1.1806106e-06
1.180624e-06
1.1928971e-06
1.2218758e-06
1.2512061e-06
1.287679e-06
1.3493593e-06
1.4614197e-06
1.6583108e-06
1.852553e-06
2.2260666e-06
2.6975767e-06
3.059018e-06
3.9018584e-06
4.6361042e-06
5.615002e-06
6.5166336e-06
8.4160719e-06
1.0059423e-05
1.2115132e-05
1.529758e-05
1.9662434e-05
2.4338404e-05
3.0988177e-05
3.9301841e-05
4.935913e-05
6.2157553e-05
7.6632562e-05
9.0941288e-05
0.0001033937
1.0312686e-06
1.0249078e-06
1.0578054e-06
1.0715622e-06
1.0532766e-06
1.0165749e-06
9.847743e-07
9.7110834e-07
9.8509248e-07
1.0093239e-06
1.035191e-06
1.0305462e-06
1.0118669e-06
9.9670131e-07
9.7887265e-07
9.6315106e-07
9.812817e-07
1.000314e-06
1.0224074e-06
1.0698913e-06
1.1280673e-06
1.1635935e-06
1.1918989e-06
1.204107e-06
1.1885522e-06
1.1816197e-06
1.1777921e-06
1.1851302e-06
1.2094424e-06
1.2383223e-06
1.2799435e-06
1.3328508e-06
1.4708904e-06
1.5959258e-06
1.8286313e-06
2.1141564e-06
2.6192113e-06
2.9272812e-06
3.6399042e-06
4.3540106e-06
5.4690352e-06
6.3107916e-06
7.9267245e-06
9.3846865e-06
1.184653e-05
1.4445673e-05
1.8394092e-05
2.2786267e-05
2.9468163e-05
3.6697887e-05
4.5286337e-05
5.6874723e-05
6.9821539e-05
8.1392758e-05
9.1147714e-05
1.0312169e-06
1.0241964e-06
1.057224e-06
1.0712898e-06
1.0535278e-06
1.0148693e-06
9.8181158e-07
9.7111829e-07
9.8252041e-07
1.0062351e-06
1.0313443e-06
1.0276223e-06
1.013082e-06
9.9618011e-07
9.7628049e-07
9.6431351e-07
9.7756378e-07
9.9683903e-07
1.0179567e-06
1.0605063e-06
1.1138548e-06
1.1558046e-06
1.18535e-06
1.2034955e-06
1.1915436e-06
1.1827078e-06
1.1772281e-06
1.1799568e-06
1.1999947e-06
1.2299907e-06
1.2719821e-06
1.3197469e-06
1.4476289e-06
1.562393e-06
1.7965356e-06
1.9924487e-06
2.4846266e-06
2.7941522e-06
3.4744055e-06
4.1104327e-06
5.2482286e-06
6.1074755e-06
7.6353057e-06
8.9218914e-06
1.1271457e-05
1.3504476e-05
1.6912384e-05
2.0751398e-05
2.6668634e-05
3.3257451e-05
4.0941769e-05
5.124157e-05
6.237352e-05
7.3788407e-05
8.1851635e-05
1.0312203e-06
1.0237025e-06
1.0565323e-06
1.0712641e-06
1.0546552e-06
1.0156101e-06
9.8062826e-07
9.6929695e-07
9.8109311e-07
1.0027484e-06
1.026105e-06
1.0249879e-06
1.0077901e-06
9.8979626e-07
9.6977758e-07
9.6192515e-07
9.7138263e-07
9.9405273e-07
1.0182685e-06
1.0572539e-06
1.1045941e-06
1.1403464e-06
1.1684973e-06
1.1920328e-06
1.1927524e-06
1.1782656e-06
1.1711384e-06
1.1709324e-06
1.1863711e-06
1.2161593e-06
1.2547953e-06
1.2959342e-06
1.4162271e-06
1.5200595e-06
1.7234047e-06
1.8778e-06
2.2896208e-06
2.5776051e-06
3.2285433e-06
3.750993e-06
4.8757071e-06
5.7170849e-06
7.134608e-06
8.2849336e-06
1.0361482e-05
1.2138775e-05
1.5189583e-05
1.8192715e-05
2.2828642e-05
2.8897324e-05
3.6012899e-05
4.5106664e-05
5.604614e-05
6.5940998e-05
7.3325724e-05
1.0310859e-06
1.0235029e-06
1.0562896e-06
1.0717362e-06
1.056459e-06
1.0192005e-06
9.827045e-07
9.6783127e-07
9.8093009e-07
1.0024072e-06
1.0236908e-06
1.0276892e-06
1.0057504e-06
9.8455076e-07
9.6727579e-07
9.5848635e-07
9.6871365e-07
9.9315301e-07
1.0192865e-06
1.0563965e-06
1.10028e-06
1.1317384e-06
1.1577008e-06
1.1794491e-06
1.1804039e-06
1.1646104e-06
1.1538633e-06
1.1513147e-06
1.1609787e-06
1.1813126e-06
1.2162685e-06
1.2470221e-06
1.3531222e-06
1.4436925e-06
1.6009557e-06
1.7152859e-06
2.0482391e-06
2.2811896e-06
2.8516785e-06
3.2445081e-06
4.1999286e-06
4.9973349e-06
6.3402038e-06
7.2874893e-06
9.1624474e-06
1.0769159e-05
1.3478544e-05
1.6074873e-05
1.9405643e-05
2.4164367e-05
3.0245891e-05
3.7913065e-05
4.7256937e-05
5.6287315e-05
6.0976886e-05
1.0308984e-06
1.0234978e-06
1.0563933e-06
1.0722325e-06
1.0576319e-06
1.0235464e-06
9.8665317e-07
9.6822361e-07
9.8231582e-07
1.0053918e-06
1.026791e-06
1.0352496e-06
1.0125784e-06
9.8316045e-07
9.7070378e-07
9.5692482e-07
9.6947566e-07
9.9182655e-07
1.0161044e-06
1.0545008e-06
1.096122e-06
1.116095e-06
1.1434448e-06
1.1549528e-06
1.1482899e-06
1.1323459e-06
1.1147927e-06
1.1052292e-06
1.1083468e-06
1.1147247e-06
1.1349829e-06
1.1528792e-06
1.2188037e-06
1.2910198e-06
1.405114e-06
1.4643386e-06
1.6986006e-06
1.8556449e-06
2.2719166e-06
2.5767359e-06
3.2200251e-06
3.9887015e-06
4.9272094e-06
6.217834e-06
7.4426028e-06
8.8117483e-06
1.1122962e-05
1.369491e-05
1.6326148e-05
1.9610597e-05
2.3452287e-05
2.9628356e-05
3.674837e-05
4.4491349e-05
5.1367197e-05
1.0307078e-06
1.0233279e-06
1.0562845e-06
1.0721505e-06
1.0581421e-06
1.0242614e-06
9.8778571e-07
9.6899018e-07
9.8088185e-07
1.0052725e-06
1.0276514e-06
1.0345481e-06
1.0129575e-06
9.8187439e-07
9.6982885e-07
9.5019291e-07
9.6108787e-07
9.7854205e-07
9.9661088e-07
1.0285083e-06
1.0485754e-06
1.0121304e-06
1.1041324e-06
1.1075195e-06
1.0954921e-06
1.081577e-06
1.0631488e-06
1.0482691e-06
1.0457064e-06
1.0432169e-06
9.0568844e-07
8.9299709e-07
7.5821556e-07
1.1563794e-06
1.2411161e-06
1.2745689e-06
1.4269148e-06
1.5305511e-06
1.8002519e-06
2.0783338e-06
2.4179255e-06
3.0412542e-06
3.6476995e-06
4.6758865e-06
5.9063189e-06
6.8882435e-06
8.4306982e-06
1.1056086e-05
1.3353798e-05
1.5870937e-05
1.5321533e-05
1.8186583e-05
2.6712653e-05
3.2129734e-05
3.8577006e-05
1.0304699e-06
1.0224534e-06
1.0549084e-06
1.0704594e-06
1.0557515e-06
1.0199899e-06
9.8308087e-07
9.632788e-07
9.7257155e-07
9.930362e-07
1.0142074e-06
1.0173506e-06
9.9598016e-07
9.6611594e-07
9.5058849e-07
9.3038432e-07
9.3681235e-07
8.8132217e-07
9.6130962e-07
9.8541823e-07
8.88523e-07
8.6306691e-07
8.9374315e-07
1.0534103e-06
1.0426468e-06
1.0358915e-06
1.0280976e-06
1.0185109e-06
1.0153965e-06
7.7343667e-07
6.4718848e-07
6.0950159e-07
5.3102141e-07
9.7624044e-07
1.1408842e-06
7.9680293e-07
1.2120336e-06
1.3896564e-06
1.6080371e-06
1.8848627e-06
2.1310022e-06
2.6296675e-06
3.1980063e-06
3.7662127e-06
4.8331497e-06
5.6404028e-06
6.562546e-06
8.2244459e-06
1.0080704e-05
1.2164355e-05
1.0955463e-05
1.1572411e-05
1.5421282e-05
2.242572e-05
2.7162272e-05
1.0301265e-06
1.0209267e-06
1.0514359e-06
1.065002e-06
1.0472464e-06
1.0066354e-06
9.6646413e-07
9.4433997e-07
9.4670185e-07
9.6112897e-07
9.7882142e-07
9.8156891e-07
9.6378706e-07
9.3924178e-07
9.2392037e-07
9.1105523e-07
9.1726463e-07
7.7480025e-07
9.4005766e-07
8.3179989e-07
7.3556106e-07
7.7355022e-07
8.0182122e-07
1.0556157e-06
1.0662701e-06
1.0796956e-06
1.0986758e-06
1.1083865e-06
1.1033205e-06
7.0175984e-07
6.4009304e-07
6.0594568e-07
5.3867348e-07
1.0616072e-06
1.2304303e-06
6.766875e-07
9.4195575e-07
1.5137806e-06
1.6297526e-06
1.8796641e-06
2.0858239e-06
2.4714429e-06
3.0205678e-06
3.4079068e-06
4.3098317e-06
4.9836202e-06
5.7541747e-06
6.4825222e-06
7.5994469e-06
8.6341368e-06
7.9935471e-06
7.7694903e-06
9.147243e-06
1.2676666e-05
1.8865686e-05
1.0283908e-06
1.0155873e-06
1.0393793e-06
1.0456466e-06
1.0227871e-06
9.7903431e-07
9.3657198e-07
9.1263353e-07
9.1184611e-07
9.2513907e-07
9.4207314e-07
9.5228131e-07
9.4982376e-07
9.4057234e-07
9.4198623e-07
9.5125721e-07
9.5923921e-07
9.7796347e-07
1.015467e-06
7.6948658e-07
7.223295e-07
8.4644016e-07
1.0659802e-06
1.210303e-06
1.2673803e-06
1.0938788e-06
1.3527942e-06
1.3856244e-06
1.4561312e-06
1.0074436e-06
9.325134e-07
9.1327784e-07
8.6906596e-07
1.7420631e-06
1.771142e-06
9.3962433e-07
1.2168203e-06
1.8947554e-06
2.1928781e-06
2.449061e-06
2.593292e-06
2.7951965e-06
3.2437389e-06
3.4918325e-06
4.1285221e-06
4.596256e-06
5.2633504e-06
5.6526676e-06
6.5403427e-06
7.008994e-06
6.19727e-06
5.7371664e-06
5.9920721e-06
7.2414568e-06
1.0850874e-05
1.0199231e-06
9.9592177e-07
1.0062352e-06
1.0056502e-06
9.8987938e-07
9.5459649e-07
9.1966986e-07
9.0354455e-07
9.0459535e-07
9.2549652e-07
9.5041226e-07
9.8269832e-07
1.0181875e-06
1.0563932e-06
1.094215e-06
1.0649399e-06
1.1606289e-06
1.1935951e-06
1.2503881e-06
9.4119116e-07
9.0922013e-07
1.068333e-06
1.4612699e-06
1.5244529e-06
1.6276623e-06
1.3535895e-06
1.6171711e-06
1.8409077e-06
1.9596395e-06
1.7271339e-06
1.6942806e-06
1.7447746e-06
1.7856596e-06
2.5110547e-06
2.6250788e-06
1.7854057e-06
2.1584467e-06
2.8179735e-06
3.3788516e-06
3.6776605e-06
3.8978003e-06
4.0265473e-06
3.8338725e-06
3.9992293e-06
4.6547437e-06
4.7974031e-06
5.1453625e-06
5.373006e-06
5.9045467e-06
5.479293e-06
5.0454828e-06
4.8421388e-06
4.6792864e-06
4.9165762e-06
5.7948851e-06
9.3280372e-07
9.6425817e-07
9.7245749e-07
9.7486708e-07
9.9183406e-07
9.8984735e-07
9.8910807e-07
1.0045541e-06
1.0213842e-06
1.052579e-06
1.1017042e-06
1.1611301e-06
1.2372672e-06
1.3360061e-06
1.2231619e-06
1.2438486e-06
1.5025492e-06
1.5380109e-06
1.3845795e-06
1.2311726e-06
1.2465421e-06
1.3709473e-06
1.8143972e-06
1.9151769e-06
1.8770165e-06
1.8134015e-06
2.0435999e-06
2.3763186e-06
2.5161334e-06
2.6001566e-06
2.5917262e-06
2.8051416e-06
3.0984201e-06
3.3381441e-06
3.5534141e-06
3.6102132e-06
3.7227661e-06
4.264952e-06
4.5768832e-06
4.9265809e-06
5.213188e-06
5.3936462e-06
4.6544982e-06
4.5889859e-06
5.4243953e-06
5.7985674e-06
5.8210389e-06
5.8088328e-06
5.7893301e-06
4.8585973e-06
4.4282418e-06
4.4278063e-06
4.1607442e-06
3.9633535e-06
4.007205e-06
8.585632e-07
9.2702112e-07
9.4945381e-07
1.0033757e-06
1.0777113e-06
1.1299046e-06
1.1836333e-06
1.2292156e-06
1.2838859e-06
1.30374e-06
1.3354532e-06
1.3095793e-06
1.3969343e-06
1.5420214e-06
1.424455e-06
1.4387081e-06
1.5966569e-06
1.6628465e-06
1.53874e-06
1.4702125e-06
1.4792482e-06
1.569628e-06
1.8474402e-06
2.0009095e-06
1.909635e-06
1.9623716e-06
2.1079972e-06
2.3509658e-06
2.5393321e-06
2.602003e-06
2.6494891e-06
2.7115893e-06
3.0098998e-06
3.180373e-06
3.3114647e-06
3.3533335e-06
3.3808425e-06
3.5957652e-06
3.7533313e-06
3.9401797e-06
4.137432e-06
4.2991397e-06
4.4344464e-06
4.512413e-06
4.5897517e-06
4.6074161e-06
4.6474342e-06
4.6756704e-06
4.6726579e-06
4.6253843e-06
4.1968988e-06
4.0765124e-06
3.6714722e-06
3.2852853e-06
3.2370512e-06
7.0234646e-07
7.6622641e-07
9.202525e-07
1.0108657e-06
1.0910669e-06
1.1184112e-06
1.1586021e-06
1.1739881e-06
1.1906804e-06
1.1724663e-06
1.1694878e-06
1.1637411e-06
1.1760906e-06
1.2163511e-06
1.2036885e-06
1.223945e-06
1.2323298e-06
1.2329775e-06
1.2083089e-06
1.1878384e-06
1.1823288e-06
1.1985573e-06
1.2375505e-06
1.278821e-06
1.3261677e-06
1.3714478e-06
1.4295312e-06
1.5003699e-06
1.5578524e-06
1.5853906e-06
1.6042946e-06
1.63088e-06
1.66992e-06
1.7796234e-06
1.8896797e-06
1.8519396e-06
1.9210139e-06
1.9476799e-06
2.0031085e-06
2.0208126e-06
2.141367e-06
2.1911275e-06
2.2510327e-06
2.3187086e-06
2.3488951e-06
2.3537492e-06
2.3700253e-06
2.4266466e-06
2.4918022e-06
2.5165931e-06
2.5058646e-06
2.4681481e-06
2.4026824e-06
2.3405131e-06
2.2727557e-06
9.7624712e-07
1.3300021e-06
1.0614324e-06
8.2173726e-07
6.783063e-07
5.5588872e-07
4.7080179e-07
4.3038252e-07
4.2331103e-07
4.3740718e-07
4.5863696e-07
4.6377367e-07
4.6107825e-07
4.6034723e-07
4.3862955e-07
4.1842061e-07
4.1104432e-07
4.1684169e-07
4.3237218e-07
4.3987974e-07
4.3813924e-07
4.5979948e-07
5.1638925e-07
5.9355363e-07
6.535473e-07
6.9371453e-07
7.2685527e-07
7.5327837e-07
7.6992462e-07
7.6729609e-07
7.3047267e-07
6.8700424e-07
6.7956592e-07
7.258595e-07
7.8450311e-07
8.0659601e-07
8.0482454e-07
7.8114013e-07
7.7852982e-07
8.1040062e-07
8.6463092e-07
9.2158597e-07
9.6722574e-07
9.9518461e-07
1.0081051e-06
1.0241494e-06
1.0640528e-06
1.1087612e-06
1.1410989e-06
1.1351997e-06
1.098114e-06
1.0471296e-06
1.003155e-06
9.8823709e-07
1.0007094e-06
9.9390559e-07
2.167297e-06
3.7444234e-06
5.3229731e-06
9.1399107e-06
1.3896256e-05
2.0393419e-05
2.923384e-05
4.1073839e-05
5.1498077e-05
6.5260509e-05
7.9592952e-05
8.8819046e-05
8.3095592e-05
0.00011691654
0.00013148898
0.00013886447
0.0001326442
0.00012177063
0.00010689938
0.00011139119
0.00012544041
0.0001246958
0.00010530525
8.7393315e-05
9.0327612e-05
0.00010058491
9.8566964e-07
2.3228313e-06
4.9348041e-06
7.4761911e-06
1.0264693e-05
1.4453178e-05
2.0917034e-05
2.9429261e-05
4.1998003e-05
5.856018e-05
6.5690514e-05
5.8714737e-05
5.875993e-05
7.9804672e-05
0.00013067969
0.00014669841
0.00012459233
0.00015660013
0.00014687697
0.00012815286
0.00012975268
0.00014192059
0.00014433113
0.00012649702
9.7180031e-05
0.00010168818
0.00011423306
9.0412618e-07
2.3128742e-06
4.886911e-06
7.4545738e-06
1.0416481e-05
1.4675538e-05
2.0929925e-05
3.0376844e-05
4.6618605e-05
6.6522728e-05
6.4781737e-05
5.8517347e-05
6.8232371e-05
9.0962803e-05
9.8338267e-05
9.9226544e-05
0.00012076795
0.00017767404
0.00017102443
0.00014215705
0.00015341297
0.00016273361
0.00016555982
0.00014875737
0.00011253459
0.00011057247
0.00012124592
9.1360084e-07
2.1261342e-06
4.6364094e-06
7.4979118e-06
1.0433419e-05
1.4935073e-05
2.1659329e-05
3.4349247e-05
5.2681338e-05
6.3508646e-05
7.3891241e-05
9.6514863e-05
0.00011772957
0.00011471521
9.3947713e-05
0.00010793186
0.00014602312
0.00015189684
0.00013482038
0.00017693534
0.00017899377
0.000185685
0.00018906346
0.00017196382
0.00013341856
0.00012056538
0.00012859235
8.8459744e-07
1.934108e-06
4.2962578e-06
5.5710702e-06
7.2363435e-06
9.6145574e-06
1.4000771e-05
2.2189115e-05
3.4400784e-05
5.0317122e-05
7.8780561e-05
0.00010685035
0.00012041515
0.00011596651
0.00013532888
0.00018134915
0.00018553221
0.00014832354
0.00016177827
0.0002091277
0.00020449796
0.00019590616
0.0002149487
0.0001959397
0.00015615609
0.00013416538
0.00013938789
7.7718949e-07
1.8079675e-06
4.2004983e-06
4.8875132e-06
6.0964105e-06
8.2773877e-06
1.3090509e-05
2.268015e-05
3.4288098e-05
4.7833825e-05
6.617734e-05
8.0265567e-05
8.6894693e-05
0.00011509105
0.00016222802
0.00018684681
0.00020143932
0.00021863404
0.00023487741
0.00020525824
0.00016124504
0.00020066573
0.00024369331
0.00022188162
0.00017949
0.00015022882
0.00015158355
6.7893401e-07
1.6518722e-06
3.9665231e-06
4.8356386e-06
6.4136548e-06
9.9256338e-06
1.8304868e-05
3.2015143e-05
4.7078021e-05
5.8770863e-05
6.4502012e-05
6.8798101e-05
8.7292497e-05
0.00012038159
0.00013606305
0.00014801573
0.00021543101
0.00024245753
0.0002495756
0.00017710208
0.0001891104
0.00025822637
0.00027335423
0.00025054834
0.00020473166
0.00016767374
0.00016536453
6.2798707e-07
1.4761844e-06
3.6431059e-06
5.7029046e-06
8.7262144e-06
1.647395e-05
3.4666812e-05
5.0946061e-05
6.2880678e-05
7.2855957e-05
8.4250478e-05
9.9277626e-05
0.00011752102
0.00011097064
0.00010950891
0.00014554195
0.00023156243
0.00025183148
0.00018479358
0.00018927018
0.00027376856
0.00028775057
0.00030181983
0.00028116157
0.00023350258
0.00018646867
0.00017911931
5.9372548e-07
1.4324066e-06
3.7897488e-06
7.8669508e-06
1.3350012e-05
2.2561518e-05
3.5884249e-05
4.8782331e-05
5.9288571e-05
6.8690612e-05
8.0536027e-05
9.6873578e-05
9.3737173e-05
9.8710818e-05
0.00014837509
0.0002067452
0.00023725769
0.00017560748
0.00016679074
0.00022040869
0.00029152056
0.00031083401
0.00032615253
0.00031044711
0.00024448315
0.00020700228
0.00019289237
5.4201088e-07
1.3969965e-06
3.8040903e-06
8.0279076e-06
1.3445129e-05
2.2161093e-05
3.3676627e-05
4.4880303e-05
5.4907564e-05
6.464926e-05
5.9392596e-05
5.6149825e-05
6.5329856e-05
0.00010721868
0.00017560396
0.00020791594
0.00020215623
0.00018291318
0.00021120264
0.00028232892
0.00030723166
0.00032921884
0.0003454262
0.00033518027
0.00029110752
0.00021852212
0.00020721824
4.8104986e-07
1.24339e-06
3.4679633e-06
7.494254e-06
1.2624278e-05
2.0405414e-05
3.0231073e-05
4.0329552e-05
4.5304012e-05
4.3619605e-05
4.5371743e-05
5.4946551e-05
7.5792169e-05
0.00011337537
0.00013026958
0.00013088055
0.00015355078
0.00021592653
0.00028257205
0.00030007784
0.00032097437
0.00034332883
0.00036159367
0.00035563324
0.00031821889
0.00025204444
0.00022096369
4.3933938e-07
1.0239187e-06
2.893799e-06
6.3588256e-06
9.422637e-06
1.378678e-05
1.8732011e-05
2.3190904e-05
2.7858393e-05
3.4105257e-05
4.6873986e-05
7.3151903e-05
9.8207411e-05
0.00011114296
0.00010041371
0.00010812361
0.00012997678
0.0001781165
0.00029046648
0.00031079035
0.00033381715
0.00035877866
0.00037621496
0.00037305706
0.00033888606
0.00027368368
0.00023691842
3.8569913e-07
8.4900324e-07
2.40409e-06
4.9794848e-06
6.7115743e-06
8.9270449e-06
1.1753453e-05
1.5732564e-05
2.1621623e-05
3.0311705e-05
4.4805957e-05
5.9122474e-05
8.9543947e-05
0.00012644555
0.00012266116
0.00013096665
0.00013664073
0.00014754631
0.00018506485
0.00027559462
0.00034627104
0.00037179149
0.00039004774
0.00038857116
0.00035677783
0.00029434536
0.00025307464
3.4615764e-07
7.5420097e-07
2.121326e-06
4.59168e-06
5.949609e-06
7.7665635e-06
1.0320628e-05
1.4592619e-05
2.1026764e-05
2.6902388e-05
3.3922993e-05
5.3535544e-05
8.7076534e-05
0.00012880026
0.00017159372
0.00021263566
0.00019469153
0.00016840904
0.00016381835
0.00018275406
0.00026799411
0.00038491808
0.00040193914
0.0004008849
0.00036509253
0.0003130918
0.00026926741
3.4825682e-07
6.7325458e-07
1.7382839e-06
3.7551506e-06
6.3013425e-06
8.8610281e-06
1.2032971e-05
1.5341176e-05
1.7175107e-05
2.0569762e-05
3.0912045e-05
5.7351209e-05
9.7918449e-05
0.00014217259
0.00018521843
0.00022524142
0.00026078343
0.00028678562
0.00021298306
0.00018192651
0.00019471259
0.00028191494
0.00041357946
0.00041010759
0.00038245775
0.0003165119
0.00028398414
3.8587431e-07
6.0425298e-07
1.3095905e-06
2.5280464e-06
4.6269757e-06
7.1698657e-06
9.8930222e-06
1.1305546e-05
1.3514359e-05
2.0609211e-05
4.2509942e-05
8.1789549e-05
0.00012512922
0.00016800494
0.00020862098
0.00024548729
0.0002783604
0.0003076781
0.00033603516
0.0002667341
0.00020907728
0.00022452727
0.00031582478
0.00041914407
0.00039133914
0.00034229461
0.00029378527
4.9019257e-07
6.1556581e-07
1.1486923e-06
1.9835948e-06
3.1755998e-06
5.0506288e-06
6.3382553e-06
8.884423e-06
1.7009936e-05
3.9938668e-05
8.0335978e-05
0.0001223669
0.00016310385
0.00020213221
0.00023849145
0.00027138561
0.00030079341
0.00032762883
0.00035414733
0.00038149675
0.00036205701
0.00026498971
0.00026084709
0.00032555898
0.00040086235
0.00035381374
0.00030672664
6.8722694e-07
7.3922659e-07
1.1144118e-06
1.7309839e-06
2.5303448e-06
3.8784509e-06
7.4950674e-06
1.9103788e-05
4.7207518e-05
8.83947e-05
0.0001292987
0.00016786988
0.00020441945
0.00023914144
0.0002710862
0.00029992236
0.0003257655
0.00034974906
0.00037407849
0.00039911183
0.00042286042
0.00044351116
0.00032492284
0.00028217954
0.00031700873
0.00036653878
0.00031640373
8.1706284e-07
8.6545519e-07
1.1632948e-06
1.873282e-06
3.7246906e-06
1.0233553e-05
2.8184192e-05
6.22807e-05
0.00010177835
0.00014064697
0.00017702226
0.00020055164
0.00020642477
0.00024108139
0.00030387163
0.00032897748
0.00035135565
0.00037225918
0.0003939166
0.00040259448
0.00043664647
0.0004537316
0.00046198218
0.00037358819
0.00028568154
0.0002766943
0.00032910469
8.4732506e-07
9.8926221e-07
1.7705285e-06
4.7671163e-06
1.3669156e-05
4.0836955e-05
7.5279672e-05
0.00011265298
0.00014895354
0.00018327551
0.00021557606
0.0002473558
0.00022081327
0.00020643456
0.00021726175
0.00025300883
0.00033633551
0.00039480056
0.00041375649
0.00043335839
0.0003663023
0.00039315613
0.00046653028
0.00045915137
0.00035960387
0.00024580602
0.00023514188
8.5009672e-07
1.2881157e-06
4.3888092e-06
1.4923338e-05
4.2838269e-05
7.6826079e-05
0.00011297339
0.0001484005
0.00018197263
0.00021366454
0.0002444952
0.00027553398
0.00029154953
0.00022640101
0.00020147581
0.00020225443
0.00023374225
0.00032641483
0.00043320632
0.0004485163
0.00043696103
0.00031066891
0.0003080236
0.00038168684
0.00043693312
0.00030907671
0.00021481429
8.9241145e-07
2.2906342e-06
9.2081463e-06
3.2529772e-05
6.4762083e-05
0.00010130997
0.00013793846
0.00017275413
0.00020515679
0.00023593712
0.00026609785
0.00029680844
0.00032753215
0.00030288789
0.00022939236
0.00020190876
0.00020351283
0.00023940576
0.00036679675
0.00046188709
0.00046741347
0.00033894225
0.00024176819
0.00022812741
0.00029447214
0.00039980391
0.00033403869
9.8181784e-07
3.8877573e-06
1.7116306e-05
4.4318536e-05
8.0843259e-05
0.00011941086
0.00015633463
0.00019052295
0.0002222603
0.00025277263
0.00028261531
0.00031282488
0.00034316515
0.00037281274
0.00030715268
0.00024502913
0.00022061788