/*--------------------------------*- C++ -*----------------------------------*\
| =========                 |                                                 |
| \\      /  F ield         | OpenFOAM: The Open Source CFD Toolbox           |
|  \\    /   O peration     | Version:  2406                                  |
|   \\  /    A nd           | Website:  www.openfoam.com                      |
|    \\/     M anipulation  |                                                 |
\*---------------------------------------------------------------------------*/
FoamFile
{
    version     2.0;
    format      ascii;
    arch        "LSB;label=32;scalar=64";
    class       volScalarField;
    location    "21";
    object      p;
}
// * * * * * * * * * * * * * * * * * * * * * * * * * * * * * * * * * * * * * //

dimensions      [1 -1 -2 0 0 0 0];

internalField   nonuniform List<scalar> 
62344
(
1.0121946
1.0201832
1.0170914
1.0107771
1.0094868
1.017316
1.0167972
1.0209616
1.0331366
1.0308616
1.0247496
1.0212816
1.0227849
1.0203508
1.0233235
1.0284545
1.0250884
1.0207543
1.0224943
1.0220543
1.0377764
1.0462269
1.0345972
1.0355604
1.0331589
1.0117273
1.0125072
1.030195
1.0317818
1.0278948
1.0296824
1.0074932
0.98282163
1.005475
1.0672774
1.1022131
1.0767169
1.0135107
0.98063423
0.98252799
0.99466394
1.0064449
1.0318246
1.0692689
1.0968343
1.0988323
1.0800148
1.0691796
1.078275
1.083119
1.0643108
1.0286257
0.99525911
0.98001208
0.98805203
1.0139396
1.0208841
1.0162083
1.0114989
1.0103453
1.0192686
1.0193033
1.023461
1.0342323
1.0365053
1.0307426
1.0206286
1.0159568
1.0196962
1.02051
1.0273384
1.0314965
1.0239531
1.0273075
1.0198939
1.0299201
1.0474955
1.0438397
1.046016
1.0343351
1.0097441
1.0091599
1.0245605
1.0280695
1.0286766
1.0271976
0.99915776
0.97927284
1.0050505
1.0579059
1.0934728
1.0719743
1.0099996
0.96830185
0.97867602
1.0080323
1.0226572
1.0349202
1.0655847
1.0965044
1.0945865
1.0616559
1.0194478
0.99504733
1.0078282
1.0440311
1.0598314
1.0460636
1.0212717
0.9988314
1.0148979
1.0199907
1.0151892
1.0140344
1.0120229
1.0172127
1.0179385
1.0240458
1.0303946
1.0368916
1.0381959
1.0225829
1.0125681
1.018105
1.0142761
1.0189864
1.0296443
1.0240682
1.0335443
1.0339017
1.0297932
1.0422905
1.0481187
1.0552799
1.0395811
1.0149584
1.0133341
1.0224832
1.0233059
1.0260686
1.0208519
0.99372609
0.98277578
1.0095531
1.0561364
1.0801869
1.0577216
1.0025199
0.96403895
0.97409176
1.0130779
1.038271
1.0472505
1.0599243
1.0800703
1.0838146
1.0609852
1.0172127
0.98048872
0.97260598
1.0035387
1.0502473
1.0804321
1.0819553
1.0616757
1.0141179
1.0188602
1.0154277
1.0157637
1.0125858
1.0130069
1.0171437
1.0254442
1.0281915
1.032993
1.0407261
1.0244182
1.0154597
1.0195202
1.0130796
1.0132846
1.0201998
1.0213889
1.0367759
1.0446056
1.0344461
1.0335386
1.0407575
1.0532521
1.0395158
1.0195723
1.0191245
1.0226417
1.0206873
1.0233644
1.0136404
0.99026125
0.99005169
1.0194675
1.0574105
1.0716746
1.044083
0.99236904
0.95772482
0.96726229
1.0155032
1.0537543
1.0660081
1.0625785
1.0601266
1.0590097
1.049203
1.026765
0.99258893
0.96811926
0.97077111
1.0075892
1.0613721
1.1022866
1.1167399
1.0123911
1.0182048
1.0170897
1.0162434
1.0122987
1.0107036
1.0186587
1.0270857
1.0304498
1.0325078
1.0368523
1.0249081
1.0220198
1.0212904
1.0165817
1.0142995
1.0122365
1.0197546
1.0382116
1.0433989
1.0362238
1.0284988
1.0310322
1.042787
1.0328123
1.0201634
1.0225471
1.0237371
1.0225375
1.0250062
1.0099117
0.98713565
0.99496018
1.029524
1.0599352
1.0643955
1.0352273
0.98700117
0.95569039
0.96502176
1.0112063
1.0597399
1.0827673
1.0769558
1.051805
1.0313106
1.0281357
1.0281771
1.0211302
1.0010415
0.98224531
0.98443468
1.0175523
1.0663404
1.107036
1.0113954
1.0182926
1.0184418
1.0152878
1.0125555
1.0117688
1.0210877
1.0268062
1.0334551
1.0377982
1.0306094
1.0235487
1.0276355
1.0211434
1.0197767
1.0193816
1.0115069
1.0205924
1.039128
1.0354739
1.0325361
1.0307107
1.0281553
1.0349928
1.0264051
1.0197364
1.0241872
1.0244276
1.0266638
1.0301764
1.0109113
0.98685366
0.99794731
1.0353356
1.0611484
1.0589512
1.0289216
0.98738439
0.96383714
0.97000327
1.0067791
1.0579112
1.0909636
1.0901284
1.0555809
1.0152352
1.0038022
1.018272
1.0372625
1.0420913
1.0274091
1.0074404
0.99814681
1.011397
1.0457494
1.0116215
1.0189279
1.018549
1.0139221
1.0133315
1.0155663
1.0226372
1.0244243
1.0351401
1.0440078
1.0268762
1.0221318
1.0297943
1.017903
1.0181143
1.0231337
1.0174512
1.0235865
1.0374111
1.0281655
1.0280628
1.0366482
1.0335402
1.0353666
1.0255783
1.021301
1.0247007
1.0229082
1.0282514
1.033573
1.0120871
0.9879354
0.999769
1.0373379
1.0600633
1.0545404
1.0246906
0.99164456
0.97837819
0.98442232
1.0082261
1.0477713
1.0841563
1.0913021
1.0620975
1.0179993
0.99159562
1.0019061
1.0338376
1.0613858
1.0653951
1.0455283
1.0140328
0.98942378
0.9882563
1.0125754
1.0197744
1.0175852
1.0134954
1.0138058
1.0186854
1.0224581
1.0223999
1.0343656
1.0462903
1.0270656
1.0215697
1.0276727
1.0135842
1.0132687
1.0223717
1.025996
1.0277294
1.0324378
1.0232583
1.026145
1.0418015
1.0423725
1.0421351
1.0302937
1.0247621
1.0239041
1.0183046
1.0249038
1.0322309
1.0118957
0.98936999
1.0010234
1.0370409
1.0576021
1.0497019
1.0193601
0.99577505
0.99375281
1.002538
1.0139473
1.0383423
1.0696231
1.0841409
1.0659284
1.0281493
0.9966525
0.99228303
1.015974
1.050845
1.0741681
1.0710576
1.0432773
1.0042956
0.97223741
1.013498
1.0201823
1.0163942
1.0143309
1.0131862
1.0190972
1.0209586
1.0222916
1.0330502
1.0450409
1.0300908
1.0221876
1.0237794
1.0115164
1.0082737
1.0198609
1.0316442
1.0293575
1.0260417
1.0187328
1.0259598
1.0439691
1.0491701
1.0500392
1.0369712
1.0286071
1.0222254
1.012035
1.0181683
1.0266808
1.0098644
0.99088693
1.0030082
1.0366307
1.0546282
1.0440746
1.0134123
0.99634027
1.0047721
1.0186033
1.0239464
1.0336568
1.0521342
1.0659863
1.060508
1.0380142
1.0122185
0.99850459
1.0065918
1.0328874
1.0596108
1.0707989
1.0631
1.0341916
0.99344955
1.0138709
1.0199091
1.0159269
1.0156449
1.0120068
1.0178517
1.0192289
1.0236517
1.0330707
1.0413861
1.0335196
1.0242162
1.02088
1.013012
1.006633
1.0174244
1.0330554
1.0270128
1.0203892
1.0137718
1.0254729
1.044025
1.0525438
1.0551734
1.0420391
1.0313351
1.0202153
1.0061648
1.0112425
1.0198083
1.0065344
0.99231722
1.0056188
1.0370213
1.0524865
1.0393095
1.0077329
0.99288069
1.0086078
1.0299637
1.0359094
1.0359945
1.0384612
1.0426103
1.0440444
1.0382661
1.0272494
1.0156068
1.0109242
1.0192699
1.0357314
1.0482298
1.0508549
1.0418841
1.0183478
1.0137574
1.0194659
1.0160546
1.0167242
1.0111938
1.0162747
1.0179895
1.0255044
1.0341143
1.0376745
1.0363907
1.026691
1.019829
1.0174896
1.0089387
1.0165354
1.0299429
1.0227498
1.0169814
1.010362
1.0245315
1.043033
1.0526984
1.0563356
1.0439212
1.0322524
1.0182558
1.0021999
1.006368
1.0147544
1.0038835
0.99392873
1.0087216
1.0380472
1.0515182
1.0365129
1.0040197
0.98811077
1.0063103
1.0347807
1.0471571
1.0441304
1.0327988
1.0217201
1.019848
1.0267623
1.0327479
1.0326249
1.0262343
1.0183775
1.0157069
1.0187154
1.0242505
1.0262675
1.0227403
1.0133419
1.0190933
1.0165193
1.0170734
1.0112171
1.0153199
1.0175745
1.0266023
1.0351519
1.0351851
1.0383273
1.0286724
1.0200945
1.0218052
1.0138903
1.0176797
1.0239854
1.0183018
1.015476
1.0100609
1.0241494
1.0418123
1.0509628
1.054812
1.0435299
1.0317001
1.0167209
1.0005543
1.0043335
1.0123673
1.0030521
0.99627835
1.0115361
1.0386461
1.0505119
1.0348805
1.0030714
0.98506118
1.0013486
1.0351006
1.054878
1.0545681
1.034466
1.007807
0.99683554
1.0087914
1.0302284
1.0434829
1.0435659
1.0310371
1.0120538
0.99703593
0.99503992
1.0015077
1.0106948
1.0128828
1.0188808
1.0171637
1.0167122
1.0118974
1.0149247
1.0177832
1.0268887
1.0353658
1.0341879
1.0391865
1.0297441
1.0205623
1.023622
1.0189934
1.0201586
1.0173141
1.0142025
1.0158349
1.0128618
1.0257704
1.0407726
1.0484912
1.0521341
1.0422397
1.0307235
1.0159498
1.0006279
1.0045317
1.0120568
1.0037416
0.99918825
1.0141364
1.0382985
1.048515
1.0336521
1.0042997
0.98535603
0.99827034
1.0322465
1.0574889
1.06286
1.0397764
1.0032388
0.98112162
0.99005985
1.0197588
1.0457079
1.0556343
1.0482184
1.0234801
0.99582721
0.97801244
0.97672058
0.98927066
1.0125679
1.0187745
1.0178214
1.0160246
1.0128963
1.0150174
1.0182511
1.0262594
1.0346824
1.0345465
1.0392729
1.0298766
1.0206702
1.0227303
1.0234422
1.0227846
1.0116746
1.0114364
1.017864
1.0180464
1.0284696
1.0397561
1.0458817
1.0494846
1.0408916
1.0299788
1.0159775
1.0016364
1.0059253
1.01303
1.0051794
1.0023219
1.0166671
1.0369984
1.0453265
1.0318191
1.0060963
0.98825196
0.99796844
1.0282775
1.0575294
1.0686004
1.046326
1.0053848
0.97603837
0.97666189
1.005342
1.0380998
1.057013
1.0596311
1.0401774
1.0093582
0.98131676
0.96645254
0.96979453
1.0124603
1.0188458
1.0182443
1.0154408
1.0137575
1.0151821
1.0188143
1.0251845
1.033746
1.0360946
1.038723
1.0290553
1.020199
1.0195883
1.0258968
1.0246531
1.0079281
1.0096494
1.0211034
1.0236491
1.031069
1.0388231
1.0438217
1.0471865
1.0399713
1.0298407
1.0168184
1.0032692
1.0076201
1.0141381
1.0066087
1.005597
1.0191471
1.0353452
1.0409742
1.0287704
1.0070018
0.99264678
0.9996684
1.0255395
1.0563067
1.0717145
1.0527741
1.0123959
0.97880901
0.97198291
0.99216769
1.0243868
1.0476423
1.059037
1.052235
1.0274064
0.9983753
0.97482023
0.96450845
1.0125266
1.0189839
1.0185091
1.0151858
1.0142418
1.0151983
1.0193458
1.0241376
1.0330225
1.0383846
1.0377015
1.027467
1.0194221
1.0151947
1.0262979
1.0252628
1.0062149
1.0089501
1.0240407
1.0285547
1.0325415
1.0378162
1.0422639
1.0454939
1.0394029
1.0301863
1.0186216
1.0056878
1.0091418
1.0145025
1.0072776
1.0082578
1.0216802
1.0342842
1.0363643
1.0246559
1.0063018
0.99686126
1.0029042
1.0246332
1.054209
1.0719239
1.0583494
1.0213626
0.98709289
0.9745941
0.984811
1.0097755
1.0331422
1.0481194
1.0530391
1.0403219
1.0165718
0.99268463
0.976102
1.0126816
1.0191513
1.0186388
1.0152536
1.0142889
1.0151162
1.0197603
1.0233586
1.0326762
1.0408964
1.0365173
1.025599
1.0187642
1.0110159
1.0248198
1.0248316
1.0060768
1.0092241
1.0262952
1.0315649
1.0325789
1.0367271
1.0415163
1.0446434
1.039117
1.0308477
1.0211984
1.0088143
1.0105019
1.013703
1.0065833
1.0095515
1.023945
1.0344563
1.0325537
1.0199348
1.004051
0.99987293
1.00658
1.0253438
1.051495
1.0699672
1.061592
1.0297282
0.99808868
0.98246075
0.9845397
0.99918033
1.0179303
1.0325403
1.0429295
1.0437741
1.0310224
1.0122858
0.99487357
1.012841
1.0193024
1.0186325
1.0155714
1.0140615
1.015005
1.0199917
1.0228613
1.0325154
1.0431741
1.035429
1.0239138
1.0184329
1.0081705
1.0223739
1.0234453
1.0070688
1.0100587
1.0275664
1.032054
1.0310164
1.035524
1.0417553
1.0447532
1.0390789
1.031571
1.0239477
1.0122736
1.0118817
1.0119197
1.0042565
1.0092368
1.0256706
1.0358712
1.0305211
1.0155037
1.0007412
1.0011551
1.0102491
1.0271864
1.0496359
1.0662003
1.0616154
1.0359772
1.0092107
0.99371216
0.99005221
0.99494861
1.0054521
1.0165857
1.0272627
1.0358356
1.0357986
1.0265743
1.0140499
1.012938
1.0194262
1.0185218
1.0159777
1.0136803
1.0149474
1.019982
1.0225987
1.032486
1.0447816
1.0346707
1.022755
1.0186715
1.0072852
1.0193459
1.021776
1.0089356
1.0117549
1.0278546
1.0300456
1.0280985
1.034332
1.0428794
1.0460101
1.0393566
1.0321448
1.0262192
1.0156413
1.01336
1.0095672
1.000336
1.0067903
1.0266191
1.0383317
1.0305658
1.0122418
0.99703487
1.0005388
1.0131092
1.0295392
1.0486118
1.061792
1.0593087
1.039461
1.0186072
1.0057746
0.99939245
0.9965971
0.99758621
1.0022607
1.0103225
1.0207539
1.0301318
1.0328308
1.0286517
1.0129634
1.0194853
1.0182959
1.0163559
1.0133099
1.0149601
1.0197546
1.0225912
1.0323826
1.0454006
1.0343694
1.0223029
1.0196173
1.0084859
1.0163891
1.019843
1.0113099
1.0142764
1.0273426
1.0264143
1.0238593
1.0331094
1.0443986
1.0482018
1.0401331
1.032508
1.0277208
1.0185872
1.0148941
1.0070704
0.995346
1.0025487
1.0265337
1.0412643
1.0327121
1.0107097
0.99381909
0.99838081
1.0146206
1.0318578
1.0487185
1.0583991
1.0550804
1.0399863
1.0250564
1.0160705
1.0099816
1.0025725
0.99505894
0.99169888
0.99444656
1.0037172
1.0173202
1.0296001
1.0360962
1.0129205
1.0194616
1.0180206
1.0166353
1.0130519
1.0150703
1.0193731
1.0227239
1.0321661
1.0449872
1.0344839
1.0225704
1.0211151
1.0114323
1.0138292
1.0178236
1.0138459
1.0171667
1.0266146
1.0219249
1.0192154
1.0317197
1.0463218
1.0511609
1.0414731
1.0326928
1.028481
1.0209076
1.0164091
1.004834
0.98992674
0.9969741
1.0250817
1.0439143
1.0363937
1.0110287
0.99164247
0.99551095
1.0144682
1.0337537
1.0497423
1.0558889
1.0501946
1.0384923
1.0284307
1.0238393
1.0196899
1.0105623
0.9972962
0.98616878
0.98163663
0.9864851
1.0006274
1.019256
1.0357132
1.0128435
1.0193559
1.0177442
1.016806
1.0129225
1.0152851
1.0189133
1.0229369
1.0318336
1.0437705
1.0348834
1.0234431
1.022956
1.0154916
1.0118818
1.0158912
1.0164222
1.0200801
1.0259178
1.017574
1.0146442
1.0300518
1.0482087
1.0545265
1.0431237
1.0328073
1.0286741
1.0225715
1.0178165
1.0032004
0.98482572
0.9907253
1.0219948
1.0460717
1.0409643
1.0130687
0.99073391
0.99272903
1.0125551
1.034729
1.0511878
1.0544091
1.0463231
1.0358035
1.0292779
1.0288851
1.027562
1.0186701
1.0025894
0.98546977
0.97346654
0.97193217
0.9832379
1.0045436
1.0285446
1.0127236
1.019238
1.0174912
1.0168812
1.0128914
1.0155592
1.018432
1.0231707
1.0314215
1.0420913
1.0354418
1.024697
1.0248836
1.0199965
1.0105902
1.0139966
1.0187207
1.0227243
1.0253015
1.0140509
1.0104488
1.0281535
1.0497363
1.057854
1.0448043
1.0329722
1.0285503
1.0235991
1.0190817
1.0023329
0.98064101
0.98440361
1.0176318
1.0471121
1.0455161
1.0165036
0.99137076
0.99052868
1.0094167
1.0346652
1.0528067
1.0542834
1.0439524
1.0330378
1.0285806
1.0311447
1.0331989
1.0259593
1.009229
0.98827214
0.97002495
0.96178138
0.96806739
0.98843646
1.0162302
1.012642
1.0191089
1.0172936
1.0169032
1.0129296
1.0158288
1.0179924
1.0233632
1.0309854
1.0403095
1.0360674
1.0260416
1.0266427
1.0243212
1.009886
1.0122605
1.0205524
1.0249332
1.0247845
1.0115737
1.0068371
1.0261301
1.0506787
1.0607511
1.0466965
1.0333935
1.0284753
1.0244783
1.0202317
1.0023182
0.97776961
0.97874289
1.0123319
1.0469161
1.049416
1.0204385
0.99320872
0.98896535
1.0058336
1.0335567
1.054019
1.0550151
1.0429676
1.0306567
1.0271293
1.0317961
1.0366468
1.0323668
1.0164026
0.99344453
0.97064948
0.95646577
0.95697057
0.97347939
1.0015191
1.0125317
1.0189932
1.0171665
1.0168927
1.0129999
1.0160424
1.0176527
1.0234727
1.0305708
1.0387556
1.0365576
1.0271717
1.0280251
1.0279718
1.0096368
1.010917
1.0218631
1.0267689
1.0245115
1.0100665
1.0040853
1.0240491
1.0510112
1.062834
1.048477
1.0337271
1.0282738
1.0247384
1.0213082
1.0030374
0.97622331
0.97428808
1.0068105
1.045992
1.0529414
1.0244891
0.99532983
0.9878264
1.0023424
1.0314798
1.054716
1.056382
1.0432874
1.0291242
1.0249888
1.0308867
1.03798
1.0372909
1.0235613
1.0000933
0.97438802
0.95538682
0.95020832
0.96195155
0.98657497
1.0125023
1.0189661
1.0170973
1.0168722
1.0130673
1.016176
1.0174092
1.023513
1.0303023
1.0376903
1.0369042
1.0279929
1.0288993
1.0305713
1.009655
1.0095963
1.022596
1.0276006
1.0246469
1.0093597
1.0022166
1.0219805
1.0508191
1.0652225
1.0501171
1.0342293
1.0281456
1.0246578
1.022269
1.0043541
0.97596947
0.96960548
1.0010448
1.0439639
1.0571125
1.0289684
0.99802129
0.98597721
0.99830063
1.027977
1.0541401
1.0599318
1.046167
1.0303536
1.0241368
1.0291021
1.0374765
1.0403044
1.0299279
1.0076547
0.98032953
0.95749284
0.94662436
0.95100213
0.97164652
1.012438
1.0189027
1.0170713
1.0168686
1.0131295
1.0162293
1.0172362
1.0235098
1.0301086
1.036994
1.0371135
1.0285572
1.0293365
1.0320312
1.0099875
1.0091251
1.0227672
1.0276961
1.0251058
1.0095913
1.0016729
1.0200653
1.0491878
1.0648299
1.0516599
1.0352387
1.0288019
1.0250503
1.0231684
1.0066622
0.97892463
0.96862475
0.99563143
1.0383625
1.056612
1.0334061
1.0031732
0.98782011
0.99535259
1.0227473
1.0496005
1.0591379
1.0484454
1.0324383
1.0249208
1.0275454
1.0358971
1.040599
1.0341664
1.0150736
0.9898359
0.96596586
0.95058901
0.94931587
0.96335742
0.99724464
1.0115743
1.0275556
1.0405124
1.0494947
1.0523039
1.0481323
1.0374095
1.0218204
1.0035923
0.98530229
0.97254651
0.97172617
0.98685428
1.0072837
1.0159426
1.0074766
0.98390636
0.95689944
0.96092565
1.0081675
1.0784671
1.1240988
1.100918
1.0334386
0.99889519
1.0079378
1.0547016
1.0681778
1.0745785
1.0760858
1.0727111
1.064236
1.0515818
1.0367727
1.0216665
1.0087117
0.99889264
0.99800414
1.0073772
1.0225122
1.0285238
1.0157422
0.98780253
0.95611749
0.94571323
0.97543652
1.0370823
1.0914122
1.0998491
1.0554003
1.0084878
1.0122636
1.027083
1.0913593
1.0969833
1.0926634
1.0842871
1.0729554
1.0600282
1.0473616
1.0367091
1.029598
1.0280708
1.0325267
1.0429857
1.0552932
1.0595234
1.0456859
1.016238
0.9815551
0.95716527
0.97020581
1.0147861
1.0664908
1.0825091
1.0539208
1.0015534
0.9815685
1.012449
1.0286849
1.0857729
1.0822005
1.0688736
1.0587766
1.0492739
1.0412306
1.0360692
1.0358164
1.0411017
1.0519166
1.066867
1.0813432
1.0883954
1.0797148
1.0545168
1.0217918
0.99555813
0.99538462
1.0269226
1.0700443
1.0854049
1.0563822
1.0070112
0.9608542
0.96495155
0.99525316
1.0121006
1.0437036
1.0339945
1.0243381
1.0182747
1.0145131
1.015042
1.0205711
1.0313499
1.0461128
1.0631375
1.0782633
1.0867562
1.0832309
1.0661684
1.0441694
1.0302904
1.0325117
1.0601666
1.0963669
1.1156486
1.0878026
1.0325143
0.97800865
0.94650156
0.95681925
0.97023509
0.98985048
0.99613389
0.98928112
0.98706798
0.98825428
0.992139
0.99927939
1.0101389
1.0236792
1.0364954
1.0471997
1.05253
1.0515104
1.0412784
1.0284491
1.0276736
1.0434671
1.0781383
1.1207707
1.1487404
1.131719
1.0789279
1.0203947
0.97366656
0.95735359
0.95656928
0.95629537
0.97754071
0.97801267
0.97608932
0.97932587
0.98533024
0.99317131
1.0018087
1.0096606
1.0145979
1.0157061
1.0118485
1.004014
0.99314683
0.98579431
0.99040183
1.0144613
1.0585281
1.1116941
1.1477917
1.1529269
1.1147149
1.0645738
1.021881
0.99505338
0.98403372
0.96820291
0.95996295
0.98398579
0.99084212
0.99521634
1.0046435
1.0115314
1.0159213
1.0171054
1.0141766
1.006397
0.99403756
0.97836068
0.96218842
0.95376015
0.95631314
0.97670284
1.0159065
1.0668264
1.108644
1.1258807
1.1066284
1.0735542
1.0472855
1.0332696
1.0285832
1.0192867
0.99523723
0.98278074
1.0042653
1.0297431
1.0359687
1.0407965
1.0419186
1.039138
1.0312652
1.0187748
1.0028992
0.98547765
0.96865246
0.95592917
0.9531069
0.96759974
0.99685462
1.0333755
1.064331
1.0756073
1.0625958
1.0403106
1.0229567
1.0248
1.040676
1.0545818
1.0564103
1.0373273
1.0213167
1.0299651
1.0653354
1.0675208
1.0644498
1.0571924
1.0472325
1.0348335
1.0210574
1.0077511
0.99639028
0.99005506
0.99000412
0.99986728
1.0200731
1.043149
1.0576487
1.052611
1.0301393
1.0004808
0.9800483
0.97779948
0.99818822
1.0308797
1.0625053
1.0828774
1.0810294
1.0640277
1.0525984
1.0644708
1.0615094
1.0544842
1.0460406
1.0369363
1.0282743
1.0221919
1.0201617
1.0233677
1.0329786
1.0490062
1.0695785
1.085035
1.0891636
1.0735508
1.040638
1.0004833
0.96492809
0.94650431
0.94766272
0.97004803
1.0057227
1.0487446
1.0886943
1.1088973
1.0986673
1.0697821
1.0299637
1.0244248
1.0188532
1.0153302
1.0146894
1.0176433
1.0252579
1.0378031
1.0554807
1.0771273
1.0988668
1.116668
1.121263
1.1085434
1.0780302
1.0370579
0.99578885
0.962443
0.94260746
0.93750955
0.94836758
0.97707451
1.0218786
1.0727625
1.1095892
1.1124002
1.0828262
0.99038492
0.98776419
0.98778315
0.99190039
1.0004623
1.0138903
1.0320419
1.0533462
1.0757287
1.0958788
1.1112658
1.1186264
1.1143565
1.0984417
1.0722847
1.0420406
1.0128949
0.98451305
0.96171695
0.94413991
0.94146021
0.95880305
0.99712254
1.0450094
1.0859352
1.1020808
1.0877997
0.98119624
0.98305772
0.98885566
0.99841901
1.0115769
1.0275869
1.0450566
1.0622203
1.0768843
1.0875221
1.0925549
1.0897061
1.0805526
1.0687035
1.0567068
1.0450359
1.0321795
1.0151686
0.99281772
0.97079199
0.95815639
0.96349037
0.98435078
1.018086
1.0500246
1.0733204
1.0796977
1.0100258
1.0164097
1.025297
1.0356106
1.0459593
1.0556409
1.0632219
1.0677994
1.0693019
1.06684
1.0604924
1.0510941
1.0414002
1.0345788
1.0328906
1.0352723
1.036826
1.0360465
1.0271205
1.0136517
1.0002412
0.99316818
0.99284257
1.0012015
1.0160945
1.0368321
1.054776
1.0625899
1.0710187
1.0778618
1.083051
1.0855403
1.0848802
1.0807856
1.0733212
1.0624423
1.049391
1.034343
1.0198744
1.0088241
1.0036436
1.0046375
1.010571
1.0204531
1.0341724
1.0480852
1.0574738
1.054908
1.0407378
1.0204281
1.002913
0.99465935
1.0018101
1.0195423
1.1127569
1.1176356
1.1176938
1.115434
1.1105692
1.1026729
1.0915722
1.0772406
1.0608286
1.0424012
1.0225538
1.0037164
0.98900556
0.97979485
0.97638058
0.98032055
0.99355368
1.017307
1.0500704
1.0819632
1.0984414
1.0894088
1.058927
1.0210344
0.99177022
0.98043479
0.98617153
1.1299786
1.1307368
1.126699
1.1217048
1.114124
1.1040264
1.0920601
1.0782985
1.0628753
1.0451025
1.0249723
1.0037406
0.98355545
0.9672685
0.95785823
0.95752795
0.9696286
0.99634605
1.0358699
1.0789617
1.1113993
1.117714
1.0936345
1.0508254
1.0082869
0.97920784
0.96660965
1.1186232
1.1157148
1.1101102
1.104619
1.0985052
1.0919298
1.0847002
1.0761662
1.0655905
1.0520573
1.0349942
1.0144492
0.99174439
0.97046401
0.95462164
0.94892233
0.95659689
0.9788004
1.0138584
1.0563184
1.0956492
1.1166547
1.1114953
1.0815594
1.0377302
0.99529733
0.96678927
1.0886825
1.0854653
1.0819555
1.078834
1.0758488
1.0732629
1.0706889
1.0677582
1.0633359
1.0557606
1.0442295
1.0281427
1.0081925
0.98738862
0.96996942
0.96019085
0.96115951
0.97433273
0.99888498
1.0317762
1.0671235
1.09559
1.1079778
1.0974554
1.0649281
1.020068
0.98011982
1.0537792
1.0510413
1.0490374
1.0480775
1.0479197
1.0488877
1.0505372
1.0519998
1.0524017
1.0510514
1.047069
1.0392138
1.0273314
1.0128576
0.99876724
0.9879943
0.983954
0.98840448
1.0016677
1.0216401
1.0449923
1.0677852
1.0836549
1.0857217
1.0673237
1.0352455
0.99900887
1.0209068
1.0184874
1.0172771
1.0176499
1.0192676
1.0222658
1.0264181
1.0311882
1.0360024
1.040119
1.0432332
1.0445291
1.0433182
1.0403492
1.0357936
1.0305969
1.026609
1.0251497
1.0264216
1.0296018
1.0338149
1.037328
1.039886
1.0401411
1.034636
1.0233091
1.0116837
0.99181267
0.98933846
0.98856147
0.98947062
0.99206108
0.99619006
1.0016634
1.008281
1.0158566
1.0242482
1.0333564
1.0431176
1.05341
1.0640997
1.0742524
1.0820267
1.0849775
1.0810854
1.0690778
1.0497715
1.0264758
1.0012999
0.98034679
0.96960864
0.97196009
0.98507625
1.010102
0.96552189
0.96315031
0.96271617
0.96353348
0.96589498
0.9700637
0.97607162
0.98403542
0.99415145
1.0067814
1.0222215
1.0408112
1.0626031
1.0868185
1.1118171
1.1339626
1.1461548
1.1414496
1.1154954
1.0708998
1.0165869
0.96255531
0.91857766
0.89553394
0.89923157
0.93621318
0.99553364
0.94297553
0.9412241
0.94146595
0.94296325
0.94556668
0.94969159
0.95596543
0.96504358
0.97763563
0.99445809
1.0160647
1.0427258
1.0741695
1.1088801
1.1438501
1.1735557
1.1895898
1.1834096
1.1487348
1.0875692
1.0106793
0.9351223
0.87612935
0.84361547
0.84689871
0.8941464
0.97393581
0.92746697
0.92667765
0.92780757
0.9300765
0.93376999
0.93935083
0.94735574
0.95841772
0.97338515
0.99310843
1.0181994
1.0488425
1.0839011
1.1210215
1.1562128
1.1854507
1.1983563
1.1911019
1.158571
1.0996129
1.0212593
0.93908028
0.87203519
0.83340243
0.8324508
0.87245538
0.95176909
0.92350703
0.92413808
0.92744029
0.9310877
0.93614111
0.94273413
0.95135959
0.9628938
0.97823391
0.99759267
1.0211893
1.0487748
1.0791243
1.1100761
1.1382488
1.1591631
1.1690004
1.1662066
1.1478521
1.1107783
1.0541436
0.98541347
0.91798782
0.87105838
0.8565589
0.87645162
0.93259746
0.94084397
0.94311642
0.94710406
0.95213889
0.95824115
0.96519139
0.97291231
0.9814967
0.99113551
1.0020741
1.0148869
1.030087
1.0476391
1.0664276
1.0846715
1.1007311
1.1139771
1.121366
1.1256508
1.1230083
1.1041379
1.0663048
1.0095286
0.95252881
0.9132219
0.89993225
0.91417024
0.98210067
0.98532781
0.98953636
0.99434424
0.99946499
1.003724
1.0060787
1.0058793
1.0031555
0.99837682
0.99318946
0.98967514
0.98982986
0.99588119
1.0078479
1.0255281
1.0469138
1.0722624
1.1042829
1.1350419
1.1584158
1.1580978
1.121253
1.0551075
0.98171306
0.92432783
0.8931794
1.0443125
1.0478539
1.0498606
1.0505102
1.0492848
1.045342
1.0375277
1.0246794
1.0064337
0.98440528
0.96167107
0.94091978
0.92630577
0.92184534
0.93044108
0.95315955
0.98887866
1.0356735
1.0913611
1.1505197
1.2035313
1.2312435
1.2118865
1.1413003
1.0414033
0.94506455
0.87393207
1.110233
1.1125609
1.1097515
1.1033644
1.0930518
1.0782029
1.0583013
1.0328757
1.0021484
0.96801384
0.9339775
0.90328866
0.88076936
0.87133633
0.87938847
0.90609547
0.95282317
1.0166031
1.0911991
1.1681552
1.2356413
1.2689417
1.2476017
1.1753378
1.0700274
0.95762917
0.86626986
1.1446019
1.1443688
1.1380443
1.1265748
1.1099031
1.0882052
1.0620646
1.03199
0.9984969
0.9631261
0.92895262
0.8980157
0.87469054
0.86441661
0.87097998
0.89655342
0.94667762
1.0177362
1.1016717
1.1823765
1.2466447
1.2642509
1.2356993
1.1589511
1.0587568
0.95705564
0.87075269
1.1246514
1.1216774
1.1144735
1.1037409
1.089603
1.0718287
1.0509272
1.0275567
1.0026824
0.97691431
0.951183
0.92789869
0.910164
0.9020628
0.90683536
0.92984194
0.97503002
1.041402
1.1184251
1.1861838
1.2259585
1.2264156
1.1876412
1.11209
1.0265533
0.94447474
0.88474653
1.0606657
1.0577083
1.0543542
1.0502691
1.0451294
1.0385749
1.0305209
1.0213397
1.0107423
0.99972245
0.98850535
0.97798049
0.97035834
0.96834204
0.97489216
0.99329291
1.0285136
1.0775525
1.1297977
1.1706382
1.1868177
1.1671385
1.1226611
1.0587111
0.98539004
0.93453504
0.9026795
0.98416174
0.98454838
0.98658496
0.99090155
0.99685986
1.0031978
1.0093086
1.0144464
1.0189293
1.0224822
1.0260171
1.0291529
1.0325268
1.0379294
1.0465634
1.0600633
1.0798982
1.1034908
1.1268616
1.1429359
1.1400927
1.1096848
1.0652654
1.0105754
0.96121408
0.93070908
0.91947825
0.92686353
0.92952483
0.93536755
0.94493798
0.95795519
0.97346685
0.99064339
1.0078188
1.023916
1.0395695
1.0542487
1.0677951
1.0787652
1.0868846
1.0933856
1.0995808
1.1056053
1.1110031
1.1149099
1.1142669
1.0994497
1.0697036
1.0295319
0.98582793
0.95082648
0.9333671
0.93192571
0.90658225
0.90911475
0.91489021
0.92443603
0.93791069
0.95523783
0.97595432
0.99871404
1.0218816
1.0444678
1.0656284
1.0837392
1.0977115
1.1065518
1.1102045
1.1101253
1.1083302
1.1059979
1.1026464
1.0962091
1.0812545
1.0545324
1.0200874
0.98454029
0.95587658
0.94388511
0.94407811
0.89766001
0.90045956
0.90667688
0.91716155
0.93209114
0.95151531
0.97457533
0.99953709
1.0247877
1.0488574
1.0697029
1.0855521
1.0956052
1.0997592
1.098731
1.0952786
1.0918981
1.0904018
1.0908812
1.0901733
1.0819619
1.0633966
1.0370954
1.006003
0.9802702
0.9650743
0.96013832
0.87254831
0.87692387
0.8860888
0.90123231
0.92227659
0.94910975
0.9800047
1.0124386
1.0436009
1.0698076
1.0875022
1.094644
1.0914795
1.0806668
1.0665995
1.0551937
1.0514747
1.0568677
1.0703748
1.0852439
1.0935076
1.0894112
1.0728981
1.0456465
1.0199984
0.9981342
0.98205136
0.85473752
0.86374763
0.87996415
0.90302765
0.93151485
0.96196893
0.99286412
1.020737
1.0447398
1.0613631
1.0662079
1.0572964
1.0368929
1.0116911
0.99002312
0.97991019
0.98601689
1.0089044
1.0470258
1.092974
1.127614
1.1399029
1.1288198
1.1009232
1.0655282
1.0306042
1.0006448
1.1962368
1.1856668
1.1643774
1.1322455
1.0898166
1.0390629
0.98255101
0.92535764
0.8735729
0.83303528
0.80938763
0.80585654
0.81939507
0.85212498
0.89795216
0.95775767
1.0311419
1.1110019
1.1856068
1.2360795
1.2534321
1.2350715
1.1934188
1.1342213
1.0736251
1.023906
0.98525601
1.1708592
1.1686917
1.1613801
1.1478119
1.1272091
1.0983752
1.0624042
1.0220877
0.97904136
0.93641951
0.89756317
0.86475652
0.8389196
0.82117653
0.81159694
0.81403089
0.8391412
0.89268915
0.98087991
1.0871625
1.1796084
1.2151859
1.1706907
1.0996113
1.0302418
0.97674523
0.94207612
0.77257157
0.79516178
0.83752242
0.91131631
1.0083075
1.1124121
1.2131109
1.2934809
1.3374103
1.3313101
1.267423
1.1478554
1.0129839
0.87475569
0.7599288
0.68083632
0.64353522
0.64480239
0.69830653
0.80940943
0.96343665
1.1094011
1.1669274
1.09451
1.0050337
0.94096463
0.90350086
0.62852357
0.64840833
0.68672077
0.75713334
0.85617829
0.97225572
1.0973988
1.2247954
1.3367013
1.4097954
1.4132849
1.3278777
1.1808249
1.0082109
0.84152484
0.71509232
0.63387577
0.60365104
0.62486293
0.70894105
0.86872088
1.0831906
1.2640222
1.2754355
1.1074795
0.96500614
0.90336371
0.74596159
0.75926704
0.78201433
0.82046849
0.87490725
0.94343631
1.0226145
1.1066493
1.188146
1.2511672
1.2690164
1.233597
1.1477369
1.0290806
0.89843601
0.77874137
0.68936701
0.64245758
0.64695236
0.7077458
0.84248299
1.0630718
1.3179598
1.4495574
1.2949941
1.0667744
0.94339378
0.86112334
0.86695242
0.87937884
0.90095238
0.93319968
0.97429115
1.0211118
1.0699693
1.1104869
1.1338894
1.1323257
1.1027711
1.0410198
0.96225943
0.87277992
0.78879348
0.72300402
0.68641223
0.68917817
0.7367968
0.84543392
1.0269808
1.2487498
1.387263
1.2998988
1.1003535
0.95318558
0.89997182
0.90525598
0.91674673
0.93496474
0.95977614
0.98951565
1.0211917
1.0503062
1.0702493
1.0760255
1.0624597
1.0292526
0.97762303
0.91218834
0.84442879
0.78348557
0.74007052
0.71944303
0.73074942
0.77884563
0.87540766
1.0232991
1.1791577
1.2536578
1.1838094
1.0310394
0.89701685
0.87156394
0.87814369
0.89107225
0.91053932
0.93635795
0.9671816
1.0000737
1.0307413
1.0527819
1.0598241
1.0477453
1.0162586
0.96812877
0.90380957
0.84284734
0.78703619
0.75051083
0.73681399
0.75645026
0.81203186
0.9085873
1.0402883
1.1589171
1.1960421
1.1256527
0.98989297
0.86648782
0.81567014
0.82114309
0.8332206
0.85259954
0.88105795
0.918554
0.96212699
1.0066023
1.0449034
1.0687449
1.0714154
1.0495174
1.0050573
0.94418608
0.87548062
0.81575873
0.77301903
0.75398665
0.76700449
0.8148569
0.90415308
1.0307168
1.1502832
1.2009749
1.1539135
1.0378562
0.91630711
0.78083247
0.7830733
0.79428731
0.81229735
0.83907332
0.87575632
0.92258894
0.97660434
1.0314248
1.0789157
1.1051036
1.1023323
1.0687977
1.0095564
0.93635113
0.8637112
0.80664983
0.77261098
0.76863225
0.79822432
0.86345673
0.97053573
1.0937823
1.1839283
1.1944886
1.1278179
1.0274988
0.79343223
0.7931415
0.80081909
0.81456842
0.83588826
0.86586988
0.90512616
0.95307614
1.0069934
1.0612237
1.1050242
1.1250585
1.1120093
1.0658316
0.99745129
0.92092496
0.85007349
0.79921569
0.77600249
0.78007214
0.81676806
0.89070221
0.9961287
1.1061243
1.1750492
1.1838043
1.142773
0.85392938
0.85153384
0.85435406
0.86247429
0.8761405
0.89468081
0.91721071
0.94404917