/*--------------------------------*- C++ -*----------------------------------*\
| =========                 |                                                 |
| \\      /  F ield         | OpenFOAM: The Open Source CFD Toolbox           |
|  \\    /   O peration     | Version:  2406                                  |
|   \\  /    A nd           | Website:  www.openfoam.com                      |
|    \\/     M anipulation  |                                                 |
\*---------------------------------------------------------------------------*/
FoamFile
{
    version     2.0;
    format      ascii;
    arch        "LSB;label=32;scalar=64";
    class       volScalarField;
    location    "21";
    object      p_0;
}
// * * * * * * * * * * * * * * * * * * * * * * * * * * * * * * * * * * * * * //

dimensions      [1 -1 -2 0 0 0 0];

internalField   nonuniform List<scalar> 
62344
(
1.0127285
1.0204824
1.0183229
1.0119529
1.0084875
1.0158862
1.0187982
1.0219201
1.0325578
1.0331145
1.0261577
1.0214432
1.0220442
1.020034
1.0223697
1.029612
1.0277012
1.0218257
1.0244094
1.0207441
1.0312168
1.0454105
1.036788
1.0335805
1.0369823
1.0166535
1.0114119
1.0278587
1.0330671
1.0267719
1.0300353
1.0166713
0.98599308
0.98998073
1.0458788
1.0975824
1.0964287
1.0421587
0.99474081
0.98566051
0.99080153
0.9965333
1.0122279
1.0451566
1.0788565
1.0949454
1.0858764
1.0721002
1.0787754
1.0955303
1.0904106
1.0608455
1.0168756
0.98442852
0.97770987
1.0140471
1.0217696
1.0180698
1.013407
1.0103042
1.0176766
1.0207495
1.0226812
1.0333823
1.0383737
1.0335145
1.0220936
1.0144113
1.0168443
1.018209
1.0253366
1.0329877
1.0269552
1.0295116
1.0231806
1.0249328
1.0449428
1.0452027
1.0471823
1.0414155
1.0152278
1.0076284
1.0220141
1.0286744
1.0278886
1.0311865
1.0105293
0.98096062
0.99088346
1.0392041
1.0858459
1.0891197
1.0379509
0.98251289
0.97511604
1.0004145
1.0182446
1.0229813
1.0460424
1.0840314
1.1019218
1.0842689
1.0450227
1.0101515
1.0031187
1.0318215
1.0610101
1.0598056
1.0354046
1.0039164
1.014741
1.0217092
1.0167909
1.0153689
1.0129464
1.0172144
1.0182405
1.0226043
1.0308453
1.0364454
1.039623
1.0257363
1.0122935
1.0168204
1.0138345
1.01564
1.0291688
1.0261091
1.0314567
1.0355682
1.0291447
1.0399066
1.0466155
1.0568835
1.0473223
1.0196867
1.0111609
1.0201065
1.0235573
1.0258691
1.0274055
1.0043362
0.983079
0.9963317
1.0402761
1.0752615
1.0726645
1.0240493
0.9747031
0.96672204
1.0007636
1.0298511
1.0404735
1.0484158
1.0713193
1.0891614
1.0820416
1.0465278
1.0011445
0.97299725
0.98275417
1.0249493
1.0673002
1.0836508
1.0760607
1.0139886
1.0203715
1.0162164
1.0162681
1.0135479
1.0137827
1.016651
1.0248691
1.0295928
1.0312835
1.0402584
1.0283577
1.0166622
1.0210365
1.0155016
1.0120779
1.018826
1.020238
1.0320525
1.0432593
1.0369191
1.0339286
1.037778
1.052476
1.0449261
1.0217866
1.0166354
1.0213857
1.0211719
1.024653
1.0223055
0.99866428
0.98798871
1.0074867
1.0459366
1.0711806
1.0598812
1.0118034
0.9657984
0.95664461
0.99403519
1.0387649
1.0595997
1.060587
1.0593376
1.0626074
1.0607532
1.0458538
1.0143536
0.97928699
0.96252362
0.97870569
1.0266112
1.078816
1.1138707
1.0124368
1.0187949
1.0168807
1.0162614
1.0125043
1.0111837
1.0174061
1.0270614
1.0314181
1.0314839
1.0361088
1.0275724
1.0229599
1.0241059
1.0199307
1.016122
1.0117449
1.0149365
1.033466
1.0414819
1.038011
1.030921
1.0287542
1.0404439
1.035121
1.0193758
1.0201441
1.02379
1.0226907
1.0263945
1.0183006
0.99264856
0.98906388
1.0169262
1.053956
1.0681707
1.0527178
1.0064984
0.96273811
0.95371576
0.98607945
1.0380892
1.0719933
1.0796702
1.0621778
1.0392484
1.0322685
1.0307803
1.0279273
1.0111014
0.98671905
0.97328032
0.98829711
1.0318035
1.0822589
1.0116089
1.018109
1.0181235
1.0153701
1.0122251
1.0121105
1.019433
1.0266612
1.0322672
1.0376926
1.0316161
1.0238792
1.0274116
1.0229238
1.0210025
1.0220634
1.0122544
1.0144348
1.0353726
1.0361648
1.0322429
1.0322943
1.0270218
1.0328837
1.0271441
1.017488
1.0222675
1.0251708
1.0259048
1.0314008
1.018258
0.98959282
0.98852734
1.0217725
1.056948
1.0660979
1.0470988
1.0050785
0.96992623
0.96077755
0.98399301
1.032364
1.075953
1.0940525
1.0739475
1.0345269
1.0061559
1.008876
1.0269407
1.0409891
1.0333726
1.0131392
0.99498513
0.99466775
1.0199352
1.0120102
1.0185976
1.0189926
1.0145523
1.0129266
1.0153718
1.0214639
1.024158
1.0323829
1.0447026
1.0300905
1.0203872
1.0287283
1.0181902
1.0164251
1.0241311
1.0184141
1.0189859
1.0352193
1.0318818
1.0268658
1.0365131
1.0334582
1.0351108
1.0267882
1.01962
1.0240901
1.0237125
1.0261269
1.0344732
1.0192021
0.98932832
0.98900867
1.0235041
1.0567375
1.062753
1.041872
1.005574
0.9816484
0.9778009
0.99249313
1.026266
1.0688504
1.0937554
1.0806866
1.0411769
1.0009824
0.99169028
1.0135814
1.0471347
1.0647021
1.0575568
1.0317325
1.0011002
0.98412954
1.0128557
1.0198962
1.018748
1.0145366
1.0137282
1.0181335
1.0223501
1.02241
1.0312833
1.0474369
1.0312183
1.0194979
1.02694
1.0139076
1.0095289
1.0206534
1.0254773
1.026773
1.0328513
1.0277161
1.0250965
1.0402352
1.041963
1.0432241
1.032784
1.0247148
1.0250252
1.0192473
1.0218495
1.0325211
1.01896
0.99074352
0.99108992
1.0241596
1.0546318
1.0576225
1.0337966
1.0040615
0.99253242
0.99759312
1.0044773
1.023174
1.0553645
1.0828242
1.0814887
1.0503537
1.0118794
0.9892514
0.9979911
1.0307663
1.0644462
1.077038
1.0642127
1.0309783
0.99211705
1.0136662
1.020938
1.0178042
1.0153968
1.0136779
1.0187206
1.0217807
1.0225838
1.0312365
1.0457568
1.03335
1.0211278
1.0244288
1.0130545
1.0052868
1.0155024
1.0301169
1.0317679
1.0289507
1.0219625
1.0242012
1.0414903
1.0477527
1.0512535
1.0402125
1.0299422
1.0250833
1.0136739
1.0152394
1.0267988
1.0166172
0.99271196
0.99461499
1.0256226
1.0527536
1.0519536
1.0253231
0.99920024
0.99910155
1.012895
1.0195164
1.0255743
1.0420706
1.0627847
1.0696935
1.0546241
1.027501
1.0030943
0.99735848
1.0149903
1.0444393
1.0665793
1.0725625
1.057485
1.0229373
1.0139856
1.0212251
1.0170711
1.016507
1.0130584
1.0173295
1.0203368
1.0238214
1.0326035
1.0413998
1.0350381
1.0245563
1.022668
1.0157049
1.0062655
1.012016
1.030898
1.0308597
1.0242615
1.0150272
1.0219974
1.040447
1.0499674
1.0561207
1.0457964
1.0335986
1.0243012
1.0083335
1.0088247
1.0203563
1.0129534
0.99424912
0.9985236
1.0277367
1.0520381
1.0480524
1.0190024
0.99316273
0.99851645
1.0214288
1.0325432
1.0334679
1.0357479
1.0421904
1.0477527
1.0462252
1.0365867
1.0232833
1.0116215
1.0117611
1.0243764
1.0417041
1.0528996
1.0526131
1.0411792
1.0138474
1.0209791
1.0169776
1.0173645
1.0124986
1.0154104
1.0189602
1.0249886
1.0344348
1.0372093
1.0363479
1.0282798
1.0217181
1.0202393
1.011144
1.0122364
1.027977
1.0258454
1.0200669
1.0097648
1.0190572
1.0386463
1.0497269
1.0572453
1.0480125
1.0350717
1.0230025
1.0044996
1.0042361
1.0155997
1.0097657
0.99535518
1.0022887
1.0300659
1.0523476
1.0462623
1.0160525
0.98844295
0.99377515
1.0230967
1.0425208
1.0448177
1.0378981
1.0274443
1.0221554
1.0262184
1.0325967
1.0352463
1.0314662
1.0224635
1.0159896
1.0159577
1.0226368
1.0285035
1.031189
1.0134235
1.0205625
1.0172935
1.0176863
1.0125154
1.0144721
1.0181342
1.0253899
1.0356767
1.0346687
1.037423
1.0309773
1.021108
1.0231536
1.0168759
1.0156136
1.0233725
1.019503
1.0173352
1.008348
1.0176002
1.037265
1.0482449
1.0556898
1.0475628
1.0347615
1.0217116
1.0027349
1.0021218
1.0130835
1.0082201
0.99688422
1.0054145
1.0313054
1.051995
1.0448958
1.0157242
0.98668487
0.98919579
1.0203079
1.0477628
1.0565919
1.0459801
1.0215681
1.0011061
1.0023332
1.0202551
1.0373654
1.0449256
1.0398334
1.0244238
1.0055818
0.99616071
0.99893623
1.0076624
1.0130076
1.0201108
1.0179184
1.0174848
1.0130097
1.0145822
1.0179228
1.0250979
1.0357985
1.0339571
1.0382891
1.0323351
1.0204847
1.0233251
1.0213284
1.0204824
1.0186122
1.0139063
1.0161558
1.0107557
1.0192163
1.036912
1.046524
1.052825
1.0459404
1.0337406
1.0208941
1.0026082
1.0020039
1.0123696
1.008051
0.99902032
1.0081112
1.0313841
1.0497777
1.0430438
1.016479
0.98828994
0.98816448
1.016675
1.0485425
1.0646176
1.0547627
1.022741
0.9900878
0.98280651
1.0029438
1.0316682
1.0505594
1.0546384
1.0404584
1.0140601
0.98858613
0.97623153
0.98003634
1.012746
1.0197838
1.0185994
1.0170502
1.0135541
1.0152508
1.0180975
1.024243
1.0348884
1.0346912
1.0388725
1.0321257
1.0199142
1.0209625
1.0239487
1.025041
1.0147311
1.0101025
1.0168482
1.015893
1.0234037
1.0371555
1.0448642
1.0497863
1.0439941
1.0327017
1.0207462
1.0034441
1.0030199
1.0127256
1.008521
1.001412
1.0108993
1.0308923
1.0459959
1.0399535
1.0167029
0.99206745
0.98999115
1.0137958
1.0469437
1.068813
1.062674
1.0275927
0.98996607
0.97272193
0.98744492
1.0191212
1.0456273
1.0595328
1.0542268
1.0300919
0.99906839
0.97456882
0.96408758
1.0126683
1.019597
1.0190416
1.0166806
1.0139826
1.0159153
1.018443
1.023501
1.0335707
1.0365396
1.0390766
1.0307196
1.0196546
1.0167982
1.0242361
1.0280132
1.011919
1.0079522
1.0187444
1.0219031
1.0282482
1.03765
1.0432471
1.0471793
1.0423093
1.0321152
1.0213204
1.0050836
1.0046318
1.0133515
1.0089461
1.0037726
1.0137466
1.0304314
1.0413959
1.0357812
1.0157825
0.99641238
0.99391538
1.0132514
1.0445074
1.0701332
1.0682402
1.0344636
0.99566068
0.97254121
0.97821594
1.0052682
1.033939
1.0522401
1.0589467
1.0442682
1.0175551
0.98950685
0.96791851
1.0127431
1.0195136
1.0192502
1.0165685
1.0141869
1.0161929
1.0188364
1.0232275
1.0323532
1.0389007
1.0388981
1.0286331
1.0198225
1.0125015
1.0227765
1.0289792
1.0102161
1.0070037
1.0204982
1.0271136
1.031935
1.0378068
1.0420346
1.0452171
1.0409929
1.032047
1.0227159
1.0076597
1.0066255
1.0137071
1.0087699
1.0055596
1.0165098
1.0309713
1.0372534
1.0310963
1.0134844
0.99979424
0.99867227
1.0146597
1.0426212
1.0690027
1.0712077
1.0420201
1.0040929
0.97860787
0.97657147
0.99431403
1.0194675
1.0388593
1.0515019
1.0503558
1.0328761
1.0082518
0.9846475
1.0129037
1.0195233
1.0192326
1.0166847
1.0140967
1.0160458
1.0191997
1.023334
1.0314799
1.0412391
1.0384572
1.0265221
1.0203012
1.0093929
1.0203587
1.0281376
1.0094775
1.0068584
1.0218067
1.0301642
1.0334351
1.0373487
1.041547
1.0441649
1.0401052
1.0322434
1.0247698
1.0110395
1.0089363
1.0134495
1.0074667
1.0062263
1.0188453
1.0324794
1.0346145
1.0264923
1.0099524
1.0014858
1.0034702
1.0174531
1.0414477
1.066474
1.0716116
1.0482334
1.0138262
0.98839789
0.98115814
0.98923947
1.0064116
1.0231821
1.0369018
1.0455199
1.0410365
1.025885
1.0056829
1.0130581
1.0195629
1.0191145
1.0169315
1.0138173
1.0156926
1.0194885
1.0235955
1.0309209
1.0431745
1.0378335
1.0248353
1.0208925
1.0080287
1.0176837
1.0260263
1.0095384
1.0072301
1.0225375
1.0306609
1.0323715
1.0362141
1.0416887
1.0442467
1.0397375
1.0324741
1.0269949
1.0147132
1.01148
1.0126843
1.0049223
1.0052286
1.0202508
1.0347091
1.0339893
1.0227532
1.0058582
1.0011859
1.0074016
1.0209437
1.0414123
1.0632329
1.0697581
1.0517432
1.0228131
1.0002106
0.99027235
0.99042805
0.99798632
1.008994
1.0207663
1.0320969
1.0384702
1.0352877
1.0236267
1.0131414
1.0196349
1.0188973
1.0172051
1.0135278
1.0153082
1.019616
1.0237729
1.0306559
1.0443838
1.0371984
1.0238042
1.0215094
1.0085433
1.0153649
1.023182
1.0103674
1.0084605
1.0230298
1.0286988
1.0289565
1.0343928
1.0423252
1.0455079
1.0400696
1.0327268
1.028786
1.0180853
1.0140803
1.0117381
1.0013722
1.0022444
1.0203973
1.0373345
1.0354868
1.0204675
1.0019791
0.99900294
1.0094373
1.0242892
1.0422687
1.0602916
1.0659417
1.0522034
1.0295679
1.011357
1.0017217
0.99674042
0.99526297
0.99804422
1.004795
1.0149878
1.0269534
1.0345316
1.0341957
1.0131602
1.0197532
1.0186529
1.0174183
1.0133523
1.0150298
1.0195459
1.0237835
1.0305156
1.0447092
1.0367665
1.0234662
1.0222147
1.0106617
1.0137347
1.0201381
1.0117477
1.010719
1.0233744
1.0254314
1.0239201
1.03193
1.0431887
1.0478804
1.0412996
1.0330445
1.0297876
1.0207808
1.0164778
1.0108478
0.9972482
0.99774346
1.0190379
1.0397914
1.0385173
1.0199462
0.99894933
0.99563017
1.0095468
1.0267586
1.0436732
1.0582198
1.0609309
1.0504258
1.0331265
1.0205127
1.0131391
1.0061455
0.99784348
0.99209306
0.9913973
0.99770259
1.0100911
1.024447
1.0348835
1.0131229
1.0199009
1.0184549
1.0175358
1.0133412
1.0149228
1.0193039
1.0235817
1.0304371
1.0441948
1.0366416
1.023742
1.0230174
1.0139359
1.0128212
1.0172538
1.0135469
1.0137888
1.0239337
1.0218606
1.0182606
1.0290816
1.044077
1.0510086
1.0433542
1.03346
1.0300745
1.0226635
1.0185024
1.0101245
0.99300854
0.99201075
1.0163889
1.0416035
1.0426545
1.0212531
0.99711704
0.99195009
1.0078624
1.0278681
1.0454825
1.056904
1.0560518
1.0466076
1.0339531
1.0264903
1.0227358
1.0162816
1.0044158
0.99165037
0.98291911
0.98237849
0.99169293
1.0084527
1.0270423
1.0130525
1.0200283
1.0183432
1.0175674
1.01348
1.0149919
1.0189373
1.0232671
1.0303699
1.0430447
1.0367899
1.0245096
1.0239437
1.0178657
1.0125219
1.0147239
1.0154451
1.017338
1.0248011
1.0187837
1.012939
1.0259324
1.0448183
1.0545109
1.0459661
1.0340213
1.0298984
1.0237623
1.0201262
1.009666
0.98912377
0.98580548
1.0120847
1.0426159
1.0472849
1.024196
0.99655082
0.98888334
1.0046334
1.0272606
1.0469913
1.0564735
1.0525388
1.0421018
1.0325553
1.0293252
1.0296332
1.0254234
1.0126215
0.99535983
0.97978616
0.97147123
0.97463357
0.9898593
1.0125064
1.0129693
1.0201096
1.0183191
1.0175459
1.0137115
1.0151849
1.0185043
1.0229016
1.0303235
1.0415359
1.037136
1.0255846
1.0249007
1.0220005
1.0126158
1.0125132
1.0172321
1.0208828
1.0259156
1.0165182
1.0084991
1.0227194
1.0451771
1.0578895
1.0487185
1.03476
1.0295113
1.0242578
1.0213658
1.0095336
0.98602529
0.97977945
1.0066923
1.0421257
1.0517502
1.0284634
0.99757626
0.98701154
1.0004135
1.0250179
1.0479509
1.0567444
1.0507488
1.0382969
1.030007
1.029624
1.0336344
1.0323519
1.0208768
1.0017869
0.98105869
0.96578235
0.96191479
0.97246354
0.99510251
1.0128991
1.0201636
1.0183569
1.0175044
1.0139753
1.0154283
1.0180745
1.0225207
1.0302742
1.0399709
1.0375891
1.0267558
1.0257572
1.0259062
1.0129379
1.0106888
1.01871
1.0240427
1.0270758
1.0151908
1.0051169
1.0196471
1.0449756
1.0608726
1.0513446
1.0357366
1.0292584
1.0246185
1.0223358
1.0099448
0.98413822
0.974499
1.0005991
1.0401088
1.0552066
1.0332335
1.0000661
0.98638097
0.99620908
1.0216879
1.0479194
1.0574004
1.0503463
1.0357833
1.0271047
1.0284149
1.0350141
1.0369871
1.0281591
1.0091987
0.98549928
0.9648916
0.95460891
0.95917918
0.97849329
1.0128026
1.0201811
1.0184203
1.0174557
1.0142147
1.0156582
1.0177264
1.0221637
1.0301971
1.0386097
1.0379772
1.0277675
1.0264145
1.029132
1.0134087
1.0093748
1.0196924
1.0267563
1.028098
1.0147449
1.0027622
1.0169199
1.0442172
1.0631535
1.0535846
1.0368414
1.0290978
1.0244953
1.023098
1.0107815
0.98350838
0.970456
0.99493343
1.0371719
1.0580287
1.0377421
1.0032924
0.98621924
0.99239874
1.0178634
1.0467267
1.0587571
1.0511998
1.0349926
1.0243679
1.026031
1.0341908
1.0392823
1.0340569
1.0167692
0.99202978
0.96780812
0.95228411
0.95119549
0.96548378
1.0127991
1.0202524
1.0185063
1.0174237
1.0143818
1.0158261
1.0174922
1.0218504
1.0301342
1.0376908
1.0383117
1.0284755
1.0267882
1.0314043
1.0139208
1.0084069
1.0200616
1.0283026
1.0289004
1.0149283
1.0013931
1.0145353
1.0430764
1.064904
1.0560445
1.0379646
1.0292507
1.0242519
1.0236519
1.0120135
0.98405594
0.96733883
0.98850977
1.0333109
1.0607534
1.0430498
1.007496
0.98618959
0.98826434
1.0131021
1.0441086
1.0605698
1.0543189
1.0371585
1.0242062
1.0239831
1.0318781
1.0395344
1.0380954
1.0237081
0.99964151
0.9732951
0.95349661
0.94618702
0.95337604
1.0127364
1.0202374
1.0185448
1.0174196
1.0145211
1.015917
1.0173518
1.0216342
1.0299631
1.0371279
1.0385379
1.0289578
1.0269182
1.0326451
1.0144185
1.0081428
1.0200656
1.0285649
1.029608
1.0155556
1.0013653
1.0128231
1.0410774
1.0641037
1.0572647
1.0393931
1.0301994
1.0247072
1.0241484
1.0136979
0.9871845
0.96765308
0.98439848
1.0265675
1.0583143
1.0466167
1.0136751
0.98994839
0.98713386
1.0081725
1.0377455
1.0575239
1.0553796
1.0392843
1.0263021
1.0236161
1.0298198
1.0382162
1.0395294
1.028971
1.0079652
0.9832127
0.9613725
0.94951115
0.95114059
0.97033004
0.98022319
0.99778683
1.0137215
1.0291522
1.0406194
1.0447296
1.0404486
1.0275784
1.0085311
0.98713226
0.96932632
0.95974642
0.96950503
0.99311034
1.0153197
1.0232289
1.0121015
0.98207715
0.96423554
0.99028423
1.0567102
1.1184164
1.1232938
1.0551764
0.98715909
0.99374967
1.0207055
1.0360061
1.0494256
1.059299
1.0641321
1.0626816
1.0542075
1.0397227
1.0216151
1.0023035
0.98571555
0.97623363
0.9794265
0.99676292
1.0142475
1.0177455
1.0025438
0.9750442
0.95047325
0.95996602
1.0123222
1.0808593
1.1185713
1.0929611
1.030775
0.99851039
1.0166294
1.0742628
1.0856529
1.0878647
1.0853615
1.0783793
1.0670141
1.0527865
1.0379438
1.0236528
1.0126102
1.0080128
1.0106022
1.0220358
1.0346839
1.035125
1.0180925
0.98776798
0.95557042
0.95036042
0.9839846
1.0433066
1.087499
1.0856187
1.0400673
0.99929112
1.0107557
1.0286665
1.0936657
1.0964522
1.0879125
1.0786395
1.0674507
1.055016
1.0437226
1.0350585
1.031335
1.0338936
1.0425238
1.0550829
1.0670492
1.0681979
1.05161
1.0205545
0.98821014
0.96973053
0.98841583
1.0329094
1.0723639
1.0739831
1.0359927
0.98755378
0.97619994
1.0071221
1.021338
1.0731548
1.0656871
1.0535185
1.0437851
1.035558
1.0299597
1.0286337
1.0318357
1.0407048
1.0540553
1.0695805
1.0821569
1.0869957
1.0770042
1.053207
1.0265594
1.0097874
1.0180283
1.0527171
1.0885837
1.087782
1.0474878
0.9955347
0.95521041
0.96467983
0.98925971
1.0016954
1.0254073
1.0167665
1.0098559
1.0056696
1.0039142
1.0063594
1.0138543
1.025831
1.0400886
1.0549796
1.0666211
1.072833
1.0683406
1.0531502
1.0396633
1.0358888
1.0490091
1.0832737
1.1180631
1.1252391
1.0859411
1.0272102
0.97496432
0.95013459
0.95940142
0.96962227
0.98343335
0.99043553
0.98442527
0.98369549
0.98598143
0.99113288
0.99893336
1.008553
1.0183359
1.0263151
1.0315576
1.0314684
1.0266228
1.018348
1.0132619
1.0227171
1.049483
1.0919436
1.1326382
1.1549867
1.1288558
1.0738765
1.0205997
0.98039812
0.96627296
0.96245538
0.96070723
0.9782237
0.98437449
0.98429899
0.99070682
0.99674201
1.0021986
1.0077847
1.0112632
1.0106437
1.0053895
0.99587839
0.98423232
0.9751041
0.97190529
0.98277385
1.0134507
1.0611327
1.1108701
1.1416305
1.1373589
1.1008427
1.0599464
1.0269405
1.0078854
0.99587504
0.97816624
0.96905497
0.98950156
1.007429
1.0127059
1.0203945
1.0248925
1.0261489
1.023384
1.0157051
1.0038294
0.98819923
0.97151177
0.95709186
0.95121068
0.95812044
0.98201507
1.0203764
1.0638612
1.0954934
1.1015149
1.0813278
1.0552771
1.0412663
1.0394704
1.0402353
1.0318035
1.008721
0.99436022
1.0101543
1.0455141
1.0494802
1.0507646
1.0483146
1.0423354
1.0321546
1.0183027
1.0024773
0.98670768
0.97366134
0.96644991
0.96900234
0.98585215
1.0130119
1.0407966
1.0571575
1.0545257
1.0372232
1.0165476
1.0073056
1.0195466
1.0433402
1.0607169
1.0642068
1.0481848
1.0292846
1.0301506
1.0640941
1.0642902
1.0594834
1.0513241
1.0410831
1.0297931
1.0190083
1.010085
1.0046408
1.0044733
1.0116238
1.026476
1.0450855
1.0603017
1.0609814
1.0439132
1.014632
0.9849429
0.96771759
0.96874665
0.99391442
1.0290038
1.0617195
1.0826956
1.0838443
1.0658041
1.0464303
1.047889
1.0437979
1.0369742
1.0312091
1.0260822
1.0225436
1.0221092
1.0259223
1.0353145
1.0508138
1.0700489
1.0880308
1.0984302
1.0944918
1.0716605
1.0349644
0.99495708
0.96117422
0.94566958
0.94675097
0.96652096
1.0006842
1.0426524
1.0818976
1.1032941
1.0940308
1.0628704
1.0110443
1.0072205
1.0040862
1.0042843
1.0082024
1.0162188
1.0285126
1.0447382
1.0645743
1.0855165
1.1041818
1.116367
1.1173086
1.1027684
1.0734823
1.0367065
1.0001456
0.96936374
0.94868979
0.93877662
0.94661162
0.97215411
1.0147051
1.063349
1.0990199
1.1036377
1.0781765
0.98687403
0.98689339
0.98988091
0.99646949
1.0070726
1.0216618
1.039552
1.0592962
1.0784081
1.0943418
1.1047837
1.1073589
1.1004088
1.0862148
1.0668207
1.0446652
1.0210941
0.99582604
0.97108043
0.94996519
0.94359572
0.95863637
0.9919373
1.0369574
1.0745731
1.0919905
1.084915
0.9976146
1.0015564
1.0083509
1.0180797
1.0301352
1.043276
1.0562585
1.067751
1.0764789
1.0810741
1.0802681
1.0745735
1.0656953
1.0565455
1.0499742
1.0455109
1.0388227
1.024209
1.0036312
0.98065837
0.96678389
0.9693223
0.98594656
1.0129084
1.0412347
1.0635727
1.0746356
1.0379514
1.0450904
1.0535704
1.0612271
1.0675544
1.0721065
1.0741102
1.0729171
1.0680293
1.0597676
1.0494273
1.0379541
1.028748
1.0247151
1.0263485
1.0311493
1.0354427
1.0369674
1.0331535
1.0243798
1.0127712
1.0042483
1.0002952
1.0027561
1.0114223
1.0284438
1.0474976
1.0908485
1.0971269
1.1003818
1.1018278
1.1004875
1.0957159
1.0875313
1.075972
1.0617002
1.0446758
1.0265188
1.0111205
1.0010191
0.99716548
0.998432
1.0042144
1.0144098
1.0305423
1.0484387
1.0633451
1.0656162
1.0535339
1.0318869
1.0094122
0.99530791
0.99692775
1.0121901
1.1235316
1.1262517
1.124829
1.1209983
1.1144643
1.1048918
1.0922968
1.0768974
1.0595167
1.0396601
1.0189067
0.99998914
0.98504693
0.97524315
0.97090206
0.97400684
0.98656857
1.0110469
1.0452092
1.079867
1.1008779
1.096709
1.0689237
1.0307474
0.99825665
0.98172417
0.98179322
1.1269711
1.125952
1.1209802
1.1158177
1.1086863
1.1000981
1.0892537
1.0765113
1.0611422
1.0431526
1.0232116
1.0024571
0.98196424
0.9646787
0.95341869
0.95182712
0.96323889
0.98902228
1.0272242
1.0703444
1.105229
1.1173623
1.1000382
1.0618182
1.018851
0.98534003
0.96691102
1.1086837
1.1058683
1.101266
1.0973363
1.0929302
1.0874005
1.0804427
1.0720146
1.0618323
1.0490942
1.0328813
1.0128003
0.99006629
0.968718
0.95293587
0.94694592
0.95344584
0.97359697
1.0060442
1.0467553
1.0868555
1.1131083
1.1152142
1.0915574
1.0500767
1.0037194
0.96756618
1.0794874
1.0768059
1.0737744
1.0713013
1.0693391
1.0676041
1.0654624
1.062348
1.0579377
1.051312
1.0409597
1.0259771
1.0072892
0.98737416
0.97043436
0.96061178
0.96092935
0.97275581
0.99565883
1.0274549
1.0632241
1.0945421
1.1108898
1.1045341
1.0735012
1.0258703
0.97932046
1.0474697
1.0453852
1.0434823
1.0425955
1.0426494
1.0436738
1.0452557
1.04683
1.0477268
1.0471715
1.0438234
1.0372483
1.0272237
1.0148642
1.0022156
0.99231561
0.98825689
0.9921508
1.0046624
1.0238472
1.0471497
1.0700061
1.0848275
1.0852165
1.0678796
1.033048
0.99442801
1.0163152
1.0142698
1.0132505
1.0139458
1.0159546
1.0190519
1.0229226
1.0271992
1.0314941
1.0355708
1.0390558
1.0414591
1.0422039
1.0419415
1.0406233
1.0384824
1.0364071
1.0352261
1.0353076
1.0362492
1.037063
1.0364223
1.0343628
1.0304735
1.0254744
1.0126873
1.0046856
0.98749218
0.98500349
0.984139
0.9848099
0.987118
0.99084564
0.99577281
1.0019168
1.0093446
1.0182077
1.0285095
1.0402817
1.053431
1.0677655
1.0822471
1.0941359
1.0999324
1.0963931
1.0809331
1.0550216
1.024264
0.99268247
0.96614959
0.95245241
0.95485318
0.97133983
1.0030855
0.96081471
0.95860437
0.95815593
0.95874693
0.96042586
0.96364606
0.968897
0.97657473
0.98717451
1.0011895
1.0189837
1.0407863
1.0665046
1.0950585
1.1243803
1.1500763
1.1638084
1.1572945
1.1259933
1.0728693
1.0095244
0.94870912
0.90053537
0.87654101
0.88225102
0.92358904
0.98874505
0.93934625
0.93771006
0.93773085
0.93864606
0.94089836
0.94493386
0.95134053
0.96089981
0.97455867
0.99308508
1.0170819
1.0469098
1.0819661
1.1202528
1.1575185
1.1901118
1.2054801
1.1965728
1.1563899
1.0879328
1.0035063
0.9229551
0.86225847
0.83042157
0.83632483
0.88478558
0.96686275
0.92534169
0.92487688
0.9258907
0.92765611
0.93070262
0.935619
0.94319675
0.95444803
0.97062133
0.99227274
1.0198553
1.0532095
1.0910863
1.1308264
1.1678244
1.1963412
1.2093064
1.201307
1.1660728
1.1032948
1.0212853
0.93662346
0.86907871
0.83070444
0.82966891
0.86753326
0.9440125
0.92633921
0.92754429
0.93036265
0.93342968
0.93741701
0.94287028
0.9504562
0.96093846
0.97500257
0.99332745
1.0167068
1.0457747
1.0786145
1.111306
1.1411738
1.1640426
1.1776582
1.1758817
1.1589527
1.1236711
1.0660941
0.99624325
0.92839137
0.88082845
0.86375904
0.87735778
0.92203653
0.95223716
0.95448891
0.95787176
0.96170539
0.96593288
0.97007102
0.97381712
0.97761252
0.98234505
0.98912945
0.99884979
1.0128328
1.0312698
1.0531922
1.0780278
1.0996723
1.1176106
1.1319975
1.142664
1.1451695
1.129796
1.0918484
1.033416
0.97204902
0.92597852
0.90137395
0.89999114
1.0071867
1.0103336
1.0128449
1.0144741
1.0145877
1.0120848
1.0064076
0.99753693
0.986187
0.9743805
0.96396251
0.95809601
0.95951556
0.96958543
0.98920051
1.0152754
1.0474102
1.0842776
1.1251808
1.1659191
1.1952968
1.1956035
1.1554416
1.0811051
0.99689246
0.92638268
0.87765497
1.0878092
1.09014
1.0882634
1.0826761
1.0728776
1.058102
1.0377553
1.0118617
0.98194162
0.95087843
0.92225991
0.89938839
0.88634257
0.88748417
0.90426656
0.93634203
0.98385552
1.0436877
1.1124291
1.1848627
1.2473506
1.2772522
1.2510325
1.1702103
1.0581559
0.94783858
0.86117552
1.1632121
1.163445
1.155232
1.1399756
1.1181583
1.0902064
1.0566701
1.0182186
0.97661453
0.93495518
0.89656791
0.86456957
0.84310423
0.83732384
0.8504027
0.88272441
0.93777046
1.0120861
1.1021106
1.1957282
1.2801505
1.3222538
1.2985329
1.213388
1.0908612
0.9623352
0.85519302
1.1914008
1.1883163
1.1760202
1.1564863
1.1304341
1.0985749
1.0622822
1.0227941
0.98128063
0.94013445
0.90186793
0.86897759
0.84483861
0.83396963
0.83994591
0.86784132
0.92028177
0.99818878
1.0972397
1.1987771
1.2825401
1.3216671
1.2971778
1.2141174
1.0935262
0.96521211
0.86262789
1.1612079
1.1564294
1.1452438
1.1292723
1.1093699
1.0856453
1.0587478
1.0294628
0.99880998
0.96697463
0.93561638
0.90655937
0.88332318
0.87002026
0.87115781
0.8909205
0.93570166
1.0061517
1.0953408
1.1854675
1.2558409
1.2844491
1.2589435
1.1866336
1.0743489
0.968868
0.87837125
1.0912892
1.0877553
1.0833345
1.0777404
1.0706168
1.0610698
1.0490386
1.0348273
1.0184773
1.0004858
0.98085155
0.96051446
0.94196023
0.92924479
0.92700533
0.93939077
0.97013508
1.0231006
1.0906762
1.1590687
1.2116417
1.2301416
1.2057712
1.1469645
1.0615935
0.96659199
0.90300689
1.0083902
1.0096229
1.0130776
1.018797
1.0259921
1.0330369
1.0378692
1.0392214
1.0376119
1.0324273
1.0235545
1.0111516
0.99703662
0.98482234
0.97864277
0.98311924
1.0016278
1.0353983
1.0800069
1.1285102
1.1672896
1.1807273
1.1606556
1.1155484
1.048987
0.97583495
0.92443217
0.95056477
0.95395276
0.96109427
0.97212417
0.98660702
1.0032963
1.0199265
1.0344109
1.0455555
1.0519853
1.0521781
1.0466369
1.0364013
1.024543
1.0150018
1.0123301
1.0202833
1.0408142
1.0719371
1.1080658
1.1385014
1.1501716
1.1361902
1.101138
1.0465502
0.98658332
0.93983333
0.91255728
0.91763581
0.92784251
0.94321914
0.96317352
0.98609676
1.0097797
1.0318415
1.0502873
1.062885
1.0676398
1.0641891
1.0539535
1.0401947
1.0275287
1.0210919
1.0246994
1.0400482
1.0666298
1.099694
1.1295223
1.144586
1.1365556
1.1075535
1.0573703
0.9986462
0.95175072
0.88725067
0.89392646
0.90665189
0.92565448
0.95027092
0.97843124
1.0074843
1.0353052
1.0587149
1.0730634
1.0758147
1.0664783
1.0481327
1.0264802
1.0088049
1.0005335
1.0064866
1.0272952
1.0614416
1.1027613
1.1402826
1.1609557
1.1564452
1.124794
1.0731367
1.0099031
0.95948953
0.96003686
0.96423792
0.97173187
0.98096606
0.99044444
0.99897787
1.0040751
1.0067406
1.0057969
0.99888357
0.9858822
0.96975261
0.95432062
0.94264496
0.9376684
0.94530773
0.97055769
1.0142617
1.0744628
1.1419435
1.1943897
1.2157085
1.199348
1.1488939
1.0786807
1.0080214
0.9542784
1.2948853
1.2789542
1.2470712
1.2005263
1.1413061
1.0726511
0.99723002
0.92147234
0.85155156
0.79870848
0.7687948
0.76502359
0.78275848
0.8211298
0.87426198
0.94150413
1.0244766
1.1170045
1.2042057
1.2698197
1.2990281
1.2839079
1.2237829
1.1370279
1.0453612
0.96982102
0.92046486
1.1197554
1.1242241
1.1299795
1.1350438
1.1365153
1.1299341
1.1132559
1.0847781
1.0439079
0.99196491
0.93218369
0.87226748
0.81873554
0.7769716
0.75311039
0.7494569
0.77214086
0.82775519
0.92120011
1.0450579
1.1718723
1.2416917
1.2096028
1.1066797
1.0034896
0.92449294
0.87884108
0.75856524
0.79028437
0.85045097
0.9402769
1.0501195
1.1700572
1.2839455
1.3690223
1.4045121
1.3716226
1.2677321
1.1099529
0.94990626
0.80715536
0.70038316
0.63129834
0.60085665
0.60992762
0.6704378
0.78827084
0.96178988
1.1510583
1.2521504
1.1808715
1.0312939
0.92276113
0.86487263
0.62267591
0.64674804
0.69499851
0.77182187
0.87323094
0.99468774
1.1316607
1.2699752
1.3918231
1.4603398
1.4434321
1.3240815
1.1477735
0.9640936
0.8095101
0.69423225
0.61912387
0.59065092
0.61421523
0.69609837
0.85753245
1.0933993
1.3322297
1.4081245
1.2180427
1.0029759
0.90014339
0.71125814
0.72512143
0.75024961
0.7911834
0.84956311
0.92611895
1.019166
1.1230504
1.2232529
1.2986371
1.3243374
1.2824347
1.1805564
1.0471987
0.90778487
0.7815712
0.68782041
0.63670365
0.63487792
0.68945645
0.80836284
1.0147665
1.284339
1.4860749
1.3846572
1.1295483
0.95496892
0.80484383
0.81264674
0.82649027
0.8518697
0.89092518
0.94257883
1.0049659
1.0746561
1.1386202
1.1839813
1.1966394
1.1678613
1.1004026
1.0067547
0.90268272
0.8029075
0.72459312
0.67695924
0.67031524
0.70892237
0.79930445
0.95595655
1.1732632
1.3549383
1.3231328
1.1315784
0.95994718
0.83399748
0.84062611
0.85424112
0.8767422
0.90913539
0.9511743
1.0012862
1.0542852
1.102444
1.1326233
1.1354424
1.1064451
1.0476546
0.96783749
0.88060289
0.79944162
0.73914286
0.70470252
0.7043529
0.74157918
0.82150303
0.95488761
1.1204082
1.2332396
1.2041877
1.0581336
0.9105269
0.80991162
0.8161475
0.82982517
0.85165275
0.882833
0.92389278
0.97384544
1.0279585
1.0780685
1.1126531
1.1217861
1.0998091
1.0471638
0.97269966
0.89005329
0.81162325
0.7543567
0.72171246
0.72411619
0.76383096
0.84406703
0.97183728
1.1184967
1.2039398
1.1769172
1.0529341
0.91171015
0.77650864
0.78039341
0.79305153
0.81325525
0.84317726
0.88375121
0.93504349
0.99392984
1.0529563
1.1031649
1.1292247
1.1224802
1.0816986
1.0137033
0.93197972
0.85079744
0.78631813
0.7452141
0.73942148
0.76916977
0.83853123
0.95454617
1.0969611
1.200625
1.2090122
1.1253387
0.99804954
0.77801735
0.77933597
0.78932282
0.8061562
0.8309218
0.86494199
0.90921505
0.96300755
1.0221704
1.0810529
1.1237576
1.1388571
1.117889
1.0632622
0.98673922
0.90429503
0.83075178
0.77855983
0.75597723
0.76737252
0.81385251
0.89972146
1.0214061
1.1448226
1.2099389
1.1945389
1.1175969
0.82638277
0.82514703
0.83026282
0.84140573
0.8591435
0.8829777
0.91225908
0.94780778
0.98993897
1.0354085
1.077275
1.1052036
1.1081644
1.0800565
1.0257351
0.95752884
0.88584426
0.82425592
0.78604758
0.77588578
0.7936746
0.84482157
0.92970557
1.0379825
1.1353021
1.1870781
1.1876487
0.91774341
0.91403302
0.91314962
0.91513778
0.91988932
0.92649416
0.93454408
0.94464819