/*--------------------------------*- C++ -*----------------------------------*\
| =========                 |                                                 |
| \\      /  F ield         | OpenFOAM: The Open Source CFD Toolbox           |
|  \\    /   O peration     | Version:  2406                                  |
|   \\  /    A nd           | Website:  www.openfoam.com                      |
|    \\/     M anipulation  |                                                 |
\*---------------------------------------------------------------------------*/
FoamFile
{
    version     2.0;
    format      ascii;
    arch        "LSB;label=32;scalar=64";
    class       surfaceScalarField;
    location    "21";
    object      phi;
}
// * * * * * * * * * * * * * * * * * * * * * * * * * * * * * * * * * * * * * //

dimensions      [1 0 -1 0 0 0 0];

oriented        oriented;

internalField   nonuniform List<scalar> 
192068
(
0.00094449968
2.6873776e-05
-3.9795381e-05
0.00094451386
-1.6217602e-05
6.4215181e-06
0.00092573952
-1.5854418e-05
1.2981772e-05
0.00090208112
-3.1237716e-05
2.7011591e-05
0.00087876625
-6.4130722e-05
6.3376819e-05
0.00085858076
-0.00011304801
0.00011740647
0.00084243403
-0.00017284578
0.00018237576
0.00083142009
-0.00022688452
0.00024274601
0.00082499872
-0.00028198105
0.00029425966
0.00082140118
-0.00032153933
0.00033789465
0.00081745625
-0.00036026439
0.00037427886
0.00081229296
-0.00038340256
0.00039689126
0.0008076496
-0.00039640737
0.00041150591
0.00080549267
-0.00039939777
0.00041535994
0.00080607023
-0.00039765126
0.00040609891
0.00080997521
-0.00038339128
0.00039884906
0.00081533673
-0.00036809346
0.00037444965
0.0008222653
-0.00034433242
0.000350415
0.0008296962
-0.00032251735
0.000323065
0.00083793093
-0.00029495609
0.00030014609
0.00084717018
-0.00027045673
0.00028393464
0.00085657517
-0.00025096109
0.00025966015
0.00086578454
-0.00023037635
0.00023548613
0.00087375721
-0.00020900268
0.00021206112
0.00088144418
-0.00018116004
0.00019169952
0.00088697448
-0.00015469894
0.00016225455
0.00089147937
-0.0001255212
0.00013742461
0.00089424378
-0.00010011128
0.00010812015
0.0008958529
-7.2925783e-05
7.7101718e-05
0.00089670666
-4.4956264e-05
4.9149969e-05
0.00089722199
-1.8109917e-05
2.1065507e-05
0.00089684021
7.4603663e-06
-5.5680821e-06
0.00089741237
3.4142017e-05
-3.2861844e-05
0.00089755499
5.819574e-05
-5.7034299e-05
0.00089873295
8.1637262e-05
-8.2391669e-05
0.00090019817
0.00010319905
-0.00010496858
0.00090247687
0.00012567591
-0.00012864897
0.00090578688
0.0001463009
-0.00015110321
0.00091012347
0.00016908684
-0.000174904
0.00091564266
0.00019037849
-0.00019790293
0.0009230757
0.00021368516
-0.00022131142
0.00093151068
0.00023476056
-0.00024687898
0.000942963
0.00025766085
-0.00026919507
0.00095641103
0.00028008782
-0.00029554816
0.00097228286
0.00030020234
-0.00031865494
0.00098986126
0.00032232487
-0.0003441777
0.0010117241
0.00034241201
-0.00036161745
0.001034391
0.00036172637
-0.00038824861
0.0010598973
0.00037890887
-0.00040725977
0.0010844805
0.00039541447
-0.00042716048
0.0011148458
0.00041197811
-0.00043724219
0.0011418319
0.00042330779
-0.00045864449
0.0011739722
0.00043694997
-0.00046597056
0.0012080556
0.00044303146
-0.0004814922
0.00046228202
0.001237353
-0.00049509839
0.00094697175
1.7096177e-05
0.00094406632
-2.3644878e-05
0.00092502454
-1.8650865e-05
0.00090124136
-3.4149488e-05
0.00087848235
-6.4288303e-05
0.00085922259
-0.00010900922
0.0008441596
-0.00016275328
0.00083334034
-0.00021641155
0.00082709762
-0.00026603887
0.0008232708
-0.00030946677
0.00081933469
-0.00034095957
0.00081381947
-0.00037025384
0.0008094338
-0.00038107365
0.00080735766
-0.00038621353
0.00080853382
-0.00038612074
0.00081248108
-0.00037198774
0.00081809415
-0.00035686107
0.00082460193
-0.00033627093
0.00083217751
-0.0003125862
0.00084041533
-0.00029051037
0.00084933188
-0.00026366812
0.00085867458
-0.00024035251
0.0008678113
-0.00022081288
0.00087675487
-0.00019960127
0.00088409581
-0.00017446863
0.00088988317
-0.00015285326
0.00089450321
-0.00012510305
0.00089766512
-9.7231912e-05
0.00089958602
-7.0003748e-05
0.00090071519
-4.3806776e-05
0.00090100565
-1.6584257e-05
0.00090154928
9.0737599e-06
0.00090219212
3.3930943e-05
0.00090281135
5.6967376e-05
0.00090392564
8.0029097e-05
0.00090546884
0.00010105745
0.00090784419
0.00012174473
0.00091095916
0.00014166318
0.00091617464
0.00016223011
0.00092253212
0.00018244684
0.00093088181
0.00020247641
0.0009405181
0.00022339889
0.00095234917
0.00024370814
0.0009650119
0.00026321381
0.00098083256
0.00028438767
0.0009979456
0.00030315651
0.0010158454
0.00032045929
0.0010375508
0.00033908156
0.0010580026
0.00035402057
0.0010850828
0.00037086386
0.0011075704
0.00038317843
0.0011369647
0.00039349248
0.0011638012
0.00040765819
0.0011905585
0.00040836795
0.00043197302
0.0012268507
0.000950488
7.8329764e-06
0.00094707169
-2.9484195e-05
0.00092785637
-2.1728389e-05
0.00090365402
-3.7765941e-05
0.000880416
-6.4099982e-05
0.00086075797
-0.00010519294
0.00084541474
-0.00015270306
0.000834503
-0.00020526984
0.00082808953
-0.00024936438
0.0008242173
-0.00029425315
0.00081993494
-0.0003274717
0.00081445717
-0.00035434841
0.00080985016
-0.00036841464
0.00080767315
-0.00037558928
0.00080920088
-0.00037007471
0.00081309534
-0.00036508625
0.00081909808
-0.00034611425
0.00082593023
-0.00032580757
0.0008334244
-0.0003002103
0.00084164023
-0.0002776311
0.00085002833
-0.00025953496
0.00085928699
-0.00023488152
0.00086869723
-0.00021086982
0.00087773665
-0.00018745948
0.00088478883
-0.0001682111
0.00089138676
-0.00014363463
0.00089640765
-0.00011986148
0.00090032838
-9.2967335e-05
0.00090322662
-6.517378e-05
0.00090520569
-4.007251e-05
0.00090699509
-1.4563625e-05
0.00090776063
9.8114491e-06
0.00090904463
3.3799283e-05
0.00091013766
5.6032855e-05
0.00091210703
7.7637554e-05
0.00091413159
9.777706e-05
0.00091689762
0.00011769291
0.0009202705
0.00013593408
0.00092499622
0.00015447822
0.00093132295
0.00017302173
0.00093969088
0.0001924612
0.0009496783
0.0002107882
0.00096087525
0.000228868
0.0009755983
0.00024879543
0.00098980005
0.00026515652
0.0010075724
0.00028329641
0.0010258672
0.00030105987
0.0010458921
0.00031534285
0.0010683339
0.00033341448
0.0010897921
0.0003428752
0.0011135825
0.00035904671
0.0011390146
0.00036660239
0.0011624466
0.00037921939
0.0011936308
0.00038480541
0.00039538021
0.0012168536
0.00095397222
-1.0624944e-06
0.00095033274
-3.5977289e-05
0.00093104925
-2.3370711e-05
0.0009062634
-3.9232125e-05
0.00088230828
-6.3144957e-05
0.00086212417
-9.9273136e-05
0.0008463702
-0.00014596658
0.00083543098
-0.00019141035
0.00082869637
-0.00023768586
0.00082475493
-0.00027590955
0.00082032455
-0.00031399611
0.00081493499
-0.00033669931
0.00081030044
-0.00035402976
0.00080854225
-0.00036018264
0.00080989982
-0.00035844185
0.00081435131
-0.00035271835
0.00082050124
-0.0003377786
0.0008276013
-0.00031781261
0.0008349678
-0.00029709789
0.00084285719
-0.00027064748
0.00085137056
-0.00024840819
0.00086055122
-0.00022789859
0.00086998026
-0.00020556838
0.00087857189
-0.00018400314
0.00088656265
-0.0001613733
0.0008935033
-0.00013441042
0.00089928675
-0.00010924477
0.00090371351
-8.5641197e-05
0.0009068565
-6.1074741e-05
0.00090946922
-3.6315781e-05
0.00091134686
-1.2143366e-05
0.00091267267
1.0558659e-05
0.0009143413
3.3187804e-05
0.00091600256
5.5149226e-05
0.00091805693
7.5705616e-05
0.00092046593
9.5176239e-05
0.00092317408
0.00011279721
0.0009267325
0.00013056853
0.00093146435
0.00014806335
0.00093769056
0.0001654485
0.00094514447
0.00018187525
0.00095454083
0.00019948034
0.00096578302
0.00021682519
0.00097809046
0.00023221798
0.00099275517
0.00024990103
0.0010095327
0.00026486748
0.0010266124
0.00028057094
0.0010479694
0.00029451601
0.0010670706
0.00030848747
0.0010905865
0.00031990406
0.0011134333
0.00033336399
0.0011364412
0.00033941993
0.0011646222
0.0003531943
0.0011845602
0.00035287742
0.00037045652
0.001215531
0.00095664329
-9.9084178e-06
0.00095317611
-4.143358e-05
0.0009339319
-2.6026613e-05
0.00090865579
-4.2723492e-05
0.00088408872
-6.2058579e-05
0.00086328263
-9.3238491e-05
0.00084725135
-0.00013551224
0.00083599184
-0.00017631296
0.00082913074
-0.00022440424
0.00082494214
-0.0002612247
0.00082066889
-0.00029781387
0.00081522076
-0.00032376899
0.00081087788
-0.00033872094
0.00080915709
-0.00034432841
0.00081058035
-0.00034857397
0.00081541907
-0.00033716629
0.0008216063
-0.00032784318
0.00082854547
-0.00030989645
0.0008361139
-0.0002902046
0.00084402561
-0.00026834583
0.00085256445
-0.00023981399
0.00086159362
-0.00021708217
0.00087063045
-0.00019719216
0.00087939809
-0.00017864495
0.00088817409
-0.0001534455
0.00089525693
-0.00013286523
0.00090129164
-0.00010769152
0.00090615099
-8.3545387e-05
0.0009099321
-6.0418946e-05
0.00091314297
-3.6187164e-05
0.00091571151
-1.2945743e-05
0.00091774945
9.8258056e-06
0.0009199854
3.1572184e-05
0.00092215782
5.262569e-05
0.00092483526
7.2212031e-05
0.00092759119
9.0613871e-05
0.00093085003
0.0001086762
0.00093474501
0.00012495966
0.00093965061
0.00014104052
0.00094553152
0.00015647705
0.00095333058
0.00017326981
0.00096226052
0.00018770932
0.00097243652
0.00020364409
0.00098495951
0.00021804698
0.00099856853
0.00023384044
0.00101366
0.00024644911
0.0010311043
0.00026255501
0.001048689
0.00027297021
0.001069612
0.00028857547
0.001089494
0.00029570119
0.0011117257
0.00030933891
0.0011347528
0.00031455523
0.0011576746
0.00032697466
0.0011834564
0.00032822178
0.00034293193
0.0012082649
0.00095975005
-1.9163399e-05
0.00095671205
-4.7659913e-05
0.00093753483
-2.6749974e-05
0.00091171328
-4.1518195e-05
0.00088625741
-5.9833867e-05
0.00086462145
-8.9236223e-05
0.00084815949
-0.00012462022
0.00083637518
-0.00016712554
0.00082942405
-0.00020672725
0.00082500725
-0.00024925111
0.00082082194
-0.00027830293
0.00081549237
-0.00030816462
0.00081137311
-0.00032275326
0.00080949358
-0.00033191049
0.0008114905
-0.0003332752
0.00081615057
-0.00032789024
0.00082268079
-0.00031571421
0.00082972263
-0.0002992897
0.00083732543
-0.0002766447
0.00084550253
-0.00025570108
0.00085365949
-0.00023556845
0.00086251036
-0.00021153879
0.00087151116
-0.000188324
0.0008809076
-0.00016620512
0.00088902704
-0.00014493082
0.00089642681
-0.00012618324
0.0009027484
-0.000105217
0.00090805194
-8.1365817e-05
0.00091255685
-5.7284384e-05
0.00091619204
-3.4678168e-05
0.00091923341
-1.2446825e-05
0.00092184883
9.6939735e-06
0.00092444343
3.0157777e-05
0.0009269673
4.9899786e-05
0.0009297412
6.8811286e-05
0.00093298487
8.6795612e-05
0.00093620661
0.00010253786
0.00094030016
0.00011877515
0.00094505629
0.00013338949
0.00095121772
0.00014808098
0.00095822156
0.00016167273
0.00096717203
0.00017625919
0.0009770221
0.0001905294
0.00098896789
0.0002040108
0.0010016903
0.00021794003
0.0010166712
0.00023011794
0.001032437
0.00024373225
0.0010503643
0.00025371777
0.0010681292
0.00026569457
0.0010885943
0.00027481138
0.0011087654
0.0002856786
0.0011315622
0.00029198401
0.0011520524
0.00030041588
0.0011781603
0.00030494404
0.00031312257
0.0011981692
0.0009634933
-2.8796959e-05
0.00096142287
-5.5352872e-05
0.00094223855
-2.9685806e-05
0.00091534789
-4.3019417e-05
0.00088857921
-5.6080321e-05
0.00086596683
-8.0653339e-05
0.00084876764
-0.00011419227
0.00083670526
-0.00015564713
0.00082938484
-0.0001936683
0.00082511592
-0.00023246831
0.0008207502
-0.00026645922
0.00081576846
-0.00029145674
0.00081159118
-0.00030936149
0.0008099505
-0.00031976512
0.00081205206
-0.00031749991
0.00081682176
-0.00031821057
0.00082360362
-0.00030552322
0.00083100037
-0.00028965631
0.00083860608
-0.00026995436
0.00084651703
-0.00024604556
0.00085462974
-0.00022691973
0.00086337737
-0.00020634086
0.00087271419
-0.00018202369
0.00088196714
-0.00015916069
0.0008899226
-0.00014178825
0.00089789666
-0.0001175193
0.00090478048
-9.5610853e-05
0.000910562
-7.4685228e-05
0.0009153244
-5.2581654e-05
0.00091945577
-3.1770252e-05
0.00092316219
-1.0830202e-05
0.00092604365
9.3074682e-06
0.00092903311
2.9045041e-05
0.00093202519
4.7877713e-05
0.00093520876
6.5468008e-05
0.00093857545
8.2103339e-05
0.00094229093
9.8289281e-05
0.00094620817
0.00011168199
0.0009512372
0.00012610461
0.00095687251
0.0001389316
0.00096443137
0.00015377187
0.00097250518
0.00016526365
0.00098246534
0.00017890306
0.00099324846
0.00018986294
0.0010060235
0.0002033998
0.001019724
0.00021377291
0.0010348505
0.00022634772
0.0010509089
0.00023461958
0.0010698885
0.00024865759
0.0010870425
0.00025271851
0.0011082166
0.00026536645
0.0011260859
0.00026736831
0.001151011
0.0002799783
0.0011679468
0.00027828278
0.00029244835
0.0011950113
0.00097215922
-3.850934e-05
0.00096882755
-5.9775363e-05
0.0009479753
-2.8062264e-05
0.00091921505
-3.8693295e-05
0.00089074482
-5.0332695e-05
0.00086702753
-7.2444658e-05
0.00084920111
-0.0001051093
0.00083694531
-0.00013922905
0.00082935333
-0.00018087677
0.00082496217
-0.00021491726
0.00082068379
-0.00025273476
0.00081587251
-0.0002747547
0.000811794
-0.00029448411
0.00081055955
-0.00030121878
0.0008123444
-0.00030638314
0.00081757955
-0.00030252604
0.00082437031
-0.00029420101
0.00083175895
-0.00028040215
0.00083944981
-0.00026465985
0.00084725872
-0.00024398526
0.00085568449
-0.00021712152
0.00086443895
-0.00019478536
0.00087352046
-0.00017466911
0.00088209593
-0.00015733757
0.00089105447
-0.00013641022
0.00089928593
-0.00011485228
0.00090643851
-9.2269601e-05
0.00091260789
-7.1412367e-05
0.00091747643
-5.2345334e-05
0.00092213879
-3.1395635e-05
0.0009260182
-1.1485125e-05
0.00092939884
7.7265263e-06
0.00093268334
2.6339815e-05
0.00093590672
4.4185701e-05
0.00093930322
6.0966881e-05
0.00094299954
7.7123481e-05
0.00094641514
9.1027401e-05
0.00095087425
0.00010623454
0.00095556959
0.00011835693
0.00096187147
0.00013172126
0.00096832473
0.00014282094
0.00097667317
0.0001549763
0.00098571099
0.00016697045
0.00099644944
0.00017749518
0.0010083078
0.00018923616
0.0010210799
0.00019755747
0.0010353101
0.00020914593
0.001052653
0.00021878462
0.0010664855
0.0002260633
0.001086644
0.00023473427
0.0011028453
0.00024298442
0.0011248606
0.00024801451
0.001142786
0.0002563351
0.0011652518
0.00025701508
0.00026572338
0.001184177
0.00098547017
-4.3995025e-05
0.00097556147
-6.0206931e-05
0.00095119769
-2.4879378e-05
0.00092087493
-3.6609964e-05
0.00089170278
-4.5447737e-05
0.00086762941
-6.4512692e-05
0.0008496409
-9.4919197e-05
0.00083702449
-0.00012677235
0.00082933648
-0.00016875438
0.00082469673
-0.00020342925
0.00082070188
-0.00023379819
0.00081586493
-0.00026250105
0.00081220199
-0.00027798913
0.00081077803
-0.00028683003
0.00081284165
-0.0002939073
0.00081819132
-0.00028748284
0.00082500201
-0.00028282852
0.00083240292
-0.00026950925
0.000840216
-0.00025155645
0.00084842721
-0.0002332898
0.00085674086
-0.00021145799
0.00086515903
-0.00018912125
0.00087397488
-0.00016742379
0.0008830886
-0.00014786516
0.00089211802
-0.0001248878
0.00090026481
-0.00010880011
0.00090745151
-9.1285803e-05
0.00091376549
-7.0848673e-05
0.00091934
-5.1021316e-05
0.0009243508
-3.1144459e-05
0.00092864188
-1.2445039e-05
0.00093254922
6.1847499e-06
0.00093613313
2.3747653e-05
0.0009396187
4.0553428e-05
0.00094342592
5.6472223e-05
0.00094705128
7.1386842e-05
0.00095131855
8.6478171e-05
0.00095515145
9.7905913e-05
0.0009605486
0.0001115482
0.00096582258
0.00012174201
0.00097294104
0.00013439717
0.00098046847
0.00014368507
0.0009894043
0.00015480542
0.00099941374
0.00016417371
0.0010101723
0.00017398124
0.0010231241
0.00018367132
0.0010376097
0.00019455277
0.001049845
0.00019848937
0.0010680105
0.00021100569
0.0010833662
0.00021532611
0.0011013703
0.00022315353
0.0011202974
0.00022835534
0.0011374556
0.00023327741
0.0011573866
0.00023586039
0.00024578017
0.001178965
0.00099888116
-4.4407107e-05
0.00098108546
-5.058313e-05
0.00095349444
-1.6857817e-05
0.00092194803
-2.9557777e-05
0.00089237511
-3.7821536e-05
0.00086814135
-5.6842328e-05
0.00085004315
-8.0938374e-05
0.00083709598
-0.00011649124
0.00082932734
-0.00014982492
0.00082461479
-0.00019056361
0.00082050889
-0.00021927375
0.00081600097
-0.00024597634
0.00081237591
-0.00026263303
0.00081092229
-0.00027477848
0.00081346004
-0.00027515107
0.00081848098
-0.00027751089
0.0008256614
-0.00026923
0.0008333714
-0.00025744125
0.00084126892
-0.0002399647
0.00084945192
-0.0002196807
0.00085749985
-0.00020327705
0.00086581372
-0.00018317626
0.00087494598
-0.00016053074
0.00088455194
-0.00013723047
0.00089276328
-0.00012100436
0.00090108616
-0.00010148834
0.00090869888
-8.3214623e-05
0.00091535414
-6.5550197e-05
0.00092128106
-4.6202788e-05
0.00092642958
-2.901639e-05
0.00093114887
-1.155427e-05
0.00093522755
5.395085e-06
0.0009390632
2.1884025e-05
0.00094277804
3.7634965e-05
0.0009466585
5.2925657e-05
0.00095077967
6.7042565e-05
0.00095437014
7.9498574e-05
0.00095902768
9.2827974e-05
0.00096337386
0.0001025211
0.00096945391
0.00011384173
0.00097548687
0.00012320887
0.00098317227
0.00013330079
0.00099171233
0.00014391985
0.0010006697
0.00015106905
0.0010124208
0.0001623843
0.0010238677
0.00016844021
0.0010353458
0.00017632017
0.0010513415
0.00018568987
0.0010653586
0.0001927133
0.0010796872
0.00019565705
0.0010994242
0.00020748123
0.0011121918
0.00020498991
0.0011340785
0.00021696852
0.0011521629
0.00021628086
0.00022234712
0.0011692445
0.0009980938
-4.6244583e-05
0.00098170771
-4.3909235e-05
0.00095430493
-1.0489812e-05
0.00092278413
-2.537725e-05
0.00089306395
-3.2047819e-05
0.00086871723
-4.862445e-05
0.00085024259
-7.3621737e-05
0.00083728262
-0.00010610189
0.00082913688
-0.00014039078
0.00082450277
-0.00017376173
0.00082031721
-0.00020719215
0.0008161074
-0.00022922112
0.0008123966
-0.00024811778
0.0008113926
-0.00025856294
0.00081361641
-0.00026095042
0.00081891411
-0.0002640548
0.00082618763
-0.00025644478
0.00083399967
-0.00024702088
0.00084199519
-0.00023423421
0.00084998196
-0.00021520358
0.00085829786
-0.00019366912
0.00086667806
-0.00017360701
0.00087596267
-0.0001529232
0.00088467311
-0.00013411563
0.00089329202
-0.00011889462
0.00090206903
-9.8656929e-05
0.00091001291
-7.8030451e-05
0.00091707419
-6.0505855e-05
0.00092282133
-4.5014771e-05
0.00092831713
-2.8461619e-05
0.00093328556
-1.215429e-05
0.00093767064
3.8579233e-06
0.00094174836
1.9149823e-05
0.00094573604
3.3923617e-05
0.00094976348
4.7885182e-05
0.00095376592
6.1239557e-05
0.00095801282
7.3619587e-05
0.00096176593
8.3860828e-05
0.00096697935
9.5760725e-05
0.00097215276
0.00010486088
0.00097885368
0.00011528373
0.00098613839
0.00012375528
0.00099361673
0.00013167448
0.0010036663
0.0001408201
0.0010129938
0.00014808816
0.001023674
0.00015444837
0.0010379717
0.00016568579
0.0010490349
0.00016699194
0.0010623246
0.00017546838
0.0010804749
0.00018216797
0.0010909139
0.00018454234
0.0011128779
0.00019225137
0.0011273047
0.00019600792
0.001142543
0.00019439648
0.00020323418
0.001162654
0.0010020139
-4.6543267e-05
0.00098345165
-3.4358024e-05
0.00095526137
-2.3821614e-06
0.00092344589
-1.9169504e-05
0.00089357458
-2.5702468e-05
0.00086908185
-4.0475786e-05
0.00085047571
-6.2960629e-05
0.00083740143
-8.8708927e-05
0.00082912458
-0.00012774917
0.00082430888
-0.00015854414
0.00082027565
-0.00019263847
0.00081608749
-0.00021480042
0.00081259794
-0.00023391351
0.00081175461
-0.00024015223
0.00081377906
-0.00024865368
0.00081943913
-0.0002452796
0.00082651729
-0.00024326291
0.0008343105
-0.00023398701
0.0008424045
-0.00022161113
0.0008506365
-0.00020728746
0.000859106
-0.00018597297
0.00086752841
-0.00016444686
0.00087633779
-0.00014541883
0.00088482351
-0.00012997812
0.00089415193
-0.00010796833
0.00090297011
-9.1829484e-05
0.00091075255
-7.6884041e-05
0.00091772345
-5.990641e-05
0.0009239035
-4.455333e-05
0.00092969954
-2.8078991e-05
0.00093491334
-1.2742343e-05
0.0009395672
2.16954e-06
0.00094381128
1.6372427e-05
0.00094786593
2.9975025e-05
0.00095199811
4.3141607e-05
0.00095615621
5.514996e-05
0.00096010982
6.6976549e-05
0.00096464349
7.8154584e-05
0.00096910538
8.7297917e-05
0.00097476408
9.6397638e-05
0.00098097106
0.00010564375
0.00098730532
0.00011235047
0.00099594188
0.00012259577
0.0010036548
0.00012726773
0.0010134276
0.00013569452
0.001025397
0.00014292165
0.0010341478
0.00014679245
0.0010479058
0.0001544091
0.0010622575
0.00016124635
0.0010726941
0.00016221316
0.0010922621
0.00017256652
0.0011043205
0.0001710732
0.0011187666
0.0001761282
0.0011378184
0.00017920341
0.00018690251
0.0011561733
0.00098824091
-5.3435294e-05
0.00097861695
-3.3921345e-05
0.00095384868
2.152625e-06
0.00092350975
-1.5676336e-05
0.00089401998
-1.9895481e-05
0.00086947801
-3.2893715e-05
0.00085083532
-5.320215e-05
0.00083740162
-8.0326021e-05
0.00082911345
-0.0001146063
0.00082403116
-0.00014947265
0.00082020657
-0.0001747437
0.00081602416
-0.00020148137
0.00081296225
-0.00021503244
0.00081181903
-0.00022638892
0.00081429151
-0.00023184603
0.00081969959
-0.00023117393
0.00082690031
-0.00022895513
0.00083486564
-0.00022137637
0.00084304137
-0.00020700923
0.0008515699
-0.00019140486
0.00085985185
-0.00017612162
0.00086798743
-0.00015861216
0.00087653516
-0.00014003058
0.00088619181
-0.00011831106
0.00089498405
-0.00010043403
0.00090347752
-8.4261476e-05
0.00091144449
-7.0494119e-05
0.00091856641
-5.6398798e-05
0.00092527574
-3.9771668e-05
0.00093110501
-2.6003082e-05
0.00093651605
-1.2292026e-05
0.00094130346
1.0603017e-06
0.00094572621
1.4126298e-05
0.00094997223
2.6904596e-05
0.00095417886
3.906247e-05
0.00095857123
5.0928552e-05
0.00096278971
6.1443632e-05
0.00096679846
7.1028375e-05
0.00097146022
8.019409e-05
0.00097692175
8.8746462e-05
0.00098235293
9.5403828e-05
0.00098977853
0.00010385946
0.00099625347
0.00010982341
0.001005004
0.00011749712
0.0010147583
0.00012445594
0.00102248
0.00012732579
0.001035785
0.00013697616
0.0010463328
0.00013921695
0.0010576893
0.00014497209
0.0010733569
0.00014976248
0.0010845589
0.00015337206
0.001098295
0.00015458755
0.0011168005
0.00016328918
0.0011324159
0.00016182293
0.00016381597
0.0011439136
0.000985566
-6.0340541e-05
0.00097681459
-3.5133952e-05
0.0009526765
5.1626951e-06
0.000922976
-1.2282478e-05
0.00089395611
-1.4851343e-05
0.000869639
-2.6434896e-05
0.00085096746
-4.2395507e-05
0.00083747303
-7.0250072e-05
0.00082902042
-0.00010023742
0.00082403691
-0.00013574343
0.00082005458
-0.00016211921
0.00081626232
-0.00018513125
0.00081307323
-0.00020046063
0.00081205678
-0.00021328646
0.00081465025
-0.00021244522
0.00081979884
-0.00021868604
0.00082715654
-0.00021392787
0.00083536999
-0.0002068101
0.00084361374
-0.00019766089
0.00085204996
-0.00018129241
0.00086023514
-0.00016719702
0.00086847198
-0.00014972933
0.0008775662
-0.00013079039
0.00088685807
-0.00011007723
0.00089526557
-9.9244187e-05
0.00090390525
-8.258422e-05
0.00091226912
-6.4471339e-05
0.00091993788
-5.0071399e-05
0.00092631132
-3.7158719e-05
0.00093222404
-2.4733594e-05
0.00093776074
-1.2236365e-05
0.00094267684
-1.3570004e-07
0.00094730788
1.1993775e-05
0.00095166777
2.3754846e-05
0.00095599128
3.4990974e-05
0.00096023776
4.5067561e-05
0.00096437645
5.5421249e-05
0.00096841019
6.3687256e-05
0.00097309094
7.2575846e-05
0.00097768444
7.9401916e-05
0.0009842053
8.8402991e-05
0.00098983603
9.3309202e-05
0.00099772919
0.00010163524
0.0010050824
0.00010542054
0.0010129707
0.00011188266
0.0010238984
0.00011756368
0.0010329568
0.00012294595
0.0010435689
0.00012484941
0.0010566351
0.00013242738
0.0010672983
0.00013346034
0.001079787
0.00013767313
0.0010968047
0.00014262901
0.0011085301
0.00014343346
0.0011198064
0.00014259796
0.00015059398
0.0011392032
0.00097111745
-7.0157687e-05
0.00096733671
-4.0867718e-05
0.0009464468
5.1390584e-06
0.00091944162
-1.2919176e-05
0.00089243454
-1.1998983e-05
0.00086933622
-2.0842781e-05
0.00085099275
-3.441553e-05
0.00083770499
-5.928378e-05
0.00082901048
-9.0724423e-05
0.00082394946
-0.00011967543
0.00081989506
-0.00015153138
0.00081632124
-0.00016806386
0.00081311921
-0.00018601325
0.0008126218
-0.0001927092
0.0008147165
-0.00019833673
0.00082017738
-0.00020069457
0.00082746283
-0.00019835223
0.00083548185
-0.00019351691
0.0008438424
-0.00018580339
0.00085215103
-0.00017452204
0.00086070599
-0.00015681476
0.00086913804
-0.00013871631
0.00087800775
-0.00012214717
0.00088632384
-0.00010918245
0.00089546966
-9.1554077e-05
0.00090459278
-7.6068372e-05
0.00091290003
-6.2173047e-05
0.00092052645
-4.7728288e-05
0.00092693275
-3.6750105e-05
0.00093312676
-2.442365e-05
0.00093880825
-1.2084388e-05
0.00094395219
-9.8940601e-07
0.00094874746
9.980657e-06
0.00095312305
2.0368052e-05
0.00095729766
3.0141954e-05
0.00096174831
3.9997943e-05
0.00096564145
4.8180843e-05
0.00097002984
5.7567668e-05
0.00097417129
6.4721242e-05
0.0009795828
7.2335786e-05
0.0009846109
7.8228135e-05
0.00099133487
8.4827525e-05
0.00099740713
8.9886444e-05
0.0010051992
9.5859014e-05
0.0010134832
0.00010069906
0.0010222448
0.00010536618
0.0010305176
0.00010808958
0.0010432976
0.00011564586
0.0010520523
0.00011666633
0.0010631357
0.00011872265
0.001079027
0.00012718151
0.0010868198
0.00012246265
0.0011012293
0.00012932243
0.0011170195
0.00013023652
0.00013504816
0.0011309115
0.00096899671
-7.9368698e-05
0.00096435295
-4.5652333e-05
0.00094341276
5.0309417e-06
0.00091707057
-1.3033265e-05
0.00089105998
-1.109958e-05
0.00086878538
-1.6179067e-05
0.00085084521
-2.8346127e-05
0.00083770759
-4.6283076e-05
0.00082902306
-8.1013238e-05
0.00082372967
-0.00010834222
0.00081999552
-0.0001341732
0.00081631646
-0.00015623334
0.00081360023
-0.00016979784
0.00081286716
-0.00017656423
0.00081498162
-0.00018405321
0.00082049542
-0.00018152511
0.00082751883
-0.00018232419
0.0008355479
-0.00017853261
0.00084391533
-0.00016901382
0.00085256406
-0.00015929845
0.00086114185
-0.00014560647
0.0008694755
-0.00013061026
0.00087770847
-0.00011524036
0.00088691085
-0.00010118271
0.00089630567
-8.2011052e-05
0.00090506121
-6.7183651e-05
0.00091332496
-5.672456e-05
0.00092067474
-4.5685831e-05
0.00092762729
-3.276836e-05
0.00093401275
-2.1329237e-05
0.00093965404
-1.1592358e-05
0.00094490288
-1.4325246e-06
0.00094963565
7.950311e-06
0.00095393497
1.7181103e-05
0.0009583099
2.640385e-05
0.00096243588
3.4888162e-05
0.00096686715
4.371376e-05
0.00097060476
5.0291058e-05
0.00097510712
5.7832899e-05
0.00097957234
6.3570937e-05
0.00098509018
7.0129522e-05
0.0009905673
7.4626502e-05
0.00099762239
8.1150795e-05
0.0010040614
8.4505524e-05
0.0010125879
9.0600981e-05
0.0010189903
9.2340208e-05
0.0010317181
0.0001009118
0.0010373861
9.8676019e-05
0.0010484942
0.00010424606
0.0010628281
0.00010939192
0.0010678807
0.00010749518
0.0010844052
0.00011228813
0.0010964624
0.00011587113
0.0011095297
0.00011464271
0.00011570354
0.0011190082
0.0009675164
-8.7178317e-05
0.00096082477
-4.8893247e-05
0.00093875938
5.8163169e-06
0.00091266039
-1.4295028e-05
0.00088783582
-1.0665033e-05
0.00086690653
-1.3269739e-05
0.00085012349
-1.9950855e-05
0.00083745593
-3.9058468e-05
0.00082898365
-6.7227303e-05
0.00082349032
-9.9359196e-05
0.00081966849
-0.00011998272
0.00081625716
-0.00014155382
0.00081385628
-0.00015154223
0.00081299776
-0.00016315926
0.00081562002
-0.00016293295
0.0008207019
-0.00016674122
0.00082774548
-0.0001661231
0.00083595492
-0.00016217919
0.00084423348
-0.00015575154
0.00085299652
-0.00014338204
0.0008612008
-0.00013453972
0.00086936463
-0.00012187697
0.00087772563
-0.00010843782
0.00088767774
-8.8809428e-05
0.00089647665
-7.8429115e-05
0.00090503192
-6.5793232e-05
0.00091366257
-5.0895468e-05
0.00092168199
-3.9610507e-05
0.00092866105
-2.8675111e-05
0.00093475767
-1.9276788e-05
0.00094052688
-1.0572214e-05
0.00094569446
-2.1565891e-06
0.0009505505
6.1119007e-06
0.00095503896
1.4715643e-05
0.00095930606
2.3249665e-05
0.00096364817
3.0683685e-05
0.0009674656
3.7451794e-05
0.00097153184
4.4487632e-05
0.00097549555
5.0278731e-05
0.00098017298
5.6123752e-05
0.00098495297
6.1481324e-05
0.00099109167
6.7124885e-05
0.00099676683
7.1361712e-05
0.0010040578
7.5681664e-05
0.0010103823
7.9497118e-05
0.0010201177
8.3635307e-05
0.0010258949
8.5465592e-05
0.0010358975
8.9063208e-05
0.001047855
9.425586e-05
0.0010530635
9.2244316e-05
0.00106754
9.7621302e-05
0.0010788317
9.9499188e-05
0.0010883656
9.8865139e-05
0.0010982366
9.9885926e-05
0.00010546999
0.0011151923
0.00096749785
-9.4735606e-05
0.00096020078
-5.0892531e-05
0.00093782109
7.8377627e-06
0.000911645
-1.5376348e-05
0.0008871218
-1.0815619e-05
0.00086651746
-1.2402441e-05
0.00084980905
-1.4755034e-05
0.0008371824
-3.3457874e-05
0.00082857395
-5.6660895e-05
0.0008232499
-8.4933184e-05
0.00081941251
-0.000109512
0.0008165419
-0.00012545623
0.00081405417
-0.00013721435
0.00081358178
-0.00014543153
0.00081584974
-0.00014528161
0.00082073052
-0.00015056993
0.00082771607
-0.00014886992
0.00083571063
-0.00014646556
0.00084411077
-0.00014249228
0.00085248463
-0.00013429163
0.00086093886
-0.00012346742
0.00086930977
-0.00011084902
0.00087831563
-9.6999104e-05
0.00088709436
-8.4493069e-05
0.00089612663
-7.3526718e-05
0.00090527201
-6.0996317e-05
0.00091403928
-4.7678472e-05
0.00092215597
-3.5100264e-05
0.00092892165
-2.6613509e-05
0.00093506977
-1.8446388e-05
0.00094093384
-9.8181964e-06
0.00094617279
-2.5255638e-06
0.0009510751
5.2719702e-06
0.00095563103
1.3136732e-05
0.0009596465
1.9701498e-05
0.00096370152
2.6193725e-05
0.0009676786
3.2286652e-05
0.00097135885
3.8215765e-05
0.00097545504
4.3949896e-05
0.00097971008
4.8913317e-05
0.00098476473
5.4078089e-05
0.00098980462
5.8229911e-05
0.00099581971
6.225724e-05
0.0010021895
6.6499616e-05
0.0010089989
6.8751891e-05
0.0010159542
7.2336719e-05
0.0010241327
7.4920689e-05
0.0010338408
7.9008982e-05
0.0010403162
7.9403566e-05
0.0010508717
8.231376e-05
0.001063221
8.6286797e-05
0.0010683017
8.2877584e-05
0.0010830508
8.8099182e-05
0.0010941662
8.8788326e-05
8.983031e-05
0.0011045432
0.00096679249
-0.00010191192
0.00095904613
-5.2479513e-05
0.00093563192
8.940629e-06
0.00090946767
-1.6360457e-05
0.00088527134
-1.1432872e-05
0.00086526547
-9.9390137e-06
0.00084890518
-1.0260317e-05
0.00083668086
-2.3508966e-05
0.00082800764
-4.9822873e-05
0.00082252994
-7.1288958e-05
0.00081879966
-9.6634539e-05
0.00081612278
-0.00011096487
0.0008140576
-0.00012463986
0.00081402217
-0.00012648796
0.00081613863
-0.00013108751
0.00082133827
-0.0001301262