/*--------------------------------*- C++ -*----------------------------------*\
| =========                 |                                                 |
| \\      /  F ield         | OpenFOAM: The Open Source CFD Toolbox           |
|  \\    /   O peration     | Version:  2406                                  |
|   \\  /    A nd           | Website:  www.openfoam.com                      |
|    \\/     M anipulation  |                                                 |
\*---------------------------------------------------------------------------*/
FoamFile
{
    version     2.0;
    format      ascii;
    arch        "LSB;label=32;scalar=64";
    class       volScalarField;
    location    "21";
    object      rho;
}
// * * * * * * * * * * * * * * * * * * * * * * * * * * * * * * * * * * * * * //

dimensions      [1 -3 0 0 0 0 0];

internalField   nonuniform List<scalar> 
62344
(
1.0070949
1.01409
1.0109991
1.0066088
1.0064369
1.0119621
1.0107582
1.0138682
1.022733
1.0206322
1.0164516
1.0143279
1.0158613
1.0142294
1.0169435
1.0212143
1.0187696
1.0152044
1.0166218
1.0175573
1.0295041
1.0341318
1.0253436
1.0269047
1.0243873
1.0094634
1.0117422
1.0251928
1.0256391
1.023357
1.025342
1.008936
0.99394428
1.0161646
1.066304
1.0948862
1.0763412
1.0326543
1.0145405
1.0218416
1.0382386
1.0564107
1.0869923
1.1270046
1.1566575
1.1622782
1.1500064
1.1419693
1.1458128
1.1423921
1.1231118
1.0945209
1.0732684
1.0672764
1.0776594
1.0082872
1.0145978
1.0105946
1.0070784
1.0067591
1.0134044
1.012736
1.0160739
1.0237349
1.0248853
1.0209091
1.0137148
1.0109677
1.0143521
1.0152891
1.0201645
1.0227931
1.017444
1.0204193
1.0150692
1.0231126
1.0346462
1.0311059
1.0333097
1.0249652
1.0083721
1.0094228
1.0204436
1.021962
1.0227925
1.0219891
1.0018916
0.99079228
1.0133001
1.0558345
1.0828554
1.0636414
1.0198241
0.9946814
1.0092427
1.0401314
1.0597309
1.0774263
1.1079134
1.1372589
1.1409443
1.1205763
1.0939809
1.0812007
1.0971901
1.1289035
1.1432414
1.1360213
1.1216117
1.1063003
1.0089531
1.0139764
1.0100149
1.0089849
1.0076152
1.0116525
1.0122545
1.0168708
1.0209647
1.0258566
1.026844
1.0151922
1.0084106
1.0131187
1.0107476
1.0139865
1.0211938
1.0177825
1.0258147
1.0252703
1.0220632
1.0307582
1.0344441
1.0397393
1.0285937
1.0123161
1.012717
1.0189348
1.0185452
1.0208473
1.0170589
0.99823617
0.9930373
1.0155503
1.0518674
1.0695604
1.0500025
1.0118104
0.98973789
1.0063821
1.0450632
1.0692628
1.0776883
1.0915296
1.1109657
1.1182816
1.10574
1.0788073
1.0593559
1.0630777
1.0965826
1.140421
1.1700314
1.1778818
1.166147
1.0084367
1.0133105
1.0102251
1.0102295
1.0079208
1.0085114
1.0120215
1.0178962
1.0193749
1.0234551
1.0287787
1.0162524
1.0100187
1.0135629
1.009234
1.0095246
1.0147233
1.0164766
1.0284454
1.03297
1.0245894
1.0242161
1.0299257
1.0388445
1.0285007
1.0152871
1.0163335
1.0186437
1.0167963
1.0188549
1.0117305
0.99615512
0.99875623
1.0227993
1.0519979
1.0613056
1.0388315
1.004666
0.98655628
1.0046222
1.0512295
1.083344
1.0906459
1.089525
1.0917299
1.0957976
1.0939048
1.0829226
1.0632
1.0524295
1.0628301
1.100412
1.1509793
1.1911276
1.2087153
1.0072857
1.0128299
1.0113696
1.0105526
1.007893
1.0069475
1.0131029
1.0190244
1.0212401
1.0228047
1.0255027
1.0165878
1.014934
1.0143291
1.0110935
1.0098746
1.0095283
1.0162686
1.0292703
1.031719
1.0257499
1.0205726
1.0236341
1.0321637
1.0239586
1.0153555
1.01794
1.018898
1.0183084
1.0203225
1.0093325
0.9943978
1.0031309
1.0309028
1.0535797
1.0552829
1.0318652
1.0009252
0.98636662
1.0048124
1.0509107
1.0894785
1.104045
1.0980112
1.0826831
1.074619
1.0818829
1.0916041
1.0926524
1.0818352
1.0721962
1.079961
1.1130549
1.1578636
1.1961802
1.0065975
1.0128602
1.0121978
1.0098943
1.0082818
1.0077091
1.0147537
1.0188063
1.0238237
1.0263663
1.0207123
1.0159994
1.0193598
1.0142168
1.0133325
1.0135376
1.0093432
1.0171742
1.0296659
1.0257189
1.0236743
1.0224086
1.02168
1.0268782
1.0195559
1.0148418
1.0184464
1.0188612
1.0210859
1.0240464
1.0100297
0.99443954
1.006024
1.0357016
1.0543505
1.0506238
1.0270275
1.0010999
0.99154114
1.0064491
1.0441895
1.0857399
1.1080223
1.1049498
1.0800644
1.0571898
1.0624243
1.0869754
1.1119101
1.1212364
1.1132395
1.1005157
1.0970058
1.1120365
1.1442317
1.0066551
1.0133376
1.0122052
1.0090147
1.0090066
1.0104686
1.0156063
1.0169059
1.0250574
1.0307175
1.0178409
1.0153429
1.0209954
1.0122843
1.0127274
1.0168264
1.0135497
1.0186786
1.0279824
1.0201743
1.0207925
1.0266911
1.024806
1.0263204
1.0186673
1.0158205
1.0185983
1.017464
1.0219713
1.0260702
1.0103636
0.99472946
1.0069062
1.0365184
1.0526355
1.0463057
1.0231681
1.0037179
1.0007846
1.0133885
1.039181
1.0724648
1.0993455
1.1029222
1.0815259
1.0545231
1.0484712
1.0721075
1.1094127
1.1389371
1.1461197
1.1318827
1.1087992
1.0925243
1.0966809
1.0072556
1.0139365
1.0116158
1.0087915
1.0092878
1.0126727
1.0152109
1.0150832
1.0240956
1.0320625
1.017887
1.015033
1.0194389
1.0094051
1.0097824
1.0167854
1.0195839
1.0205828
1.0237769
1.0166659
1.0196173
1.030679
1.0306256
1.0301034
1.021485
1.0184243
1.0182263
1.0144228
1.0198351
1.0250424
1.0097856
0.99504812
1.0067409
1.0351203
1.0496499
1.0415277
1.0188813
1.0062806
1.0109974
1.023727
1.0382141
1.0600314
1.084668
1.0951984
1.0821107
1.0593386
1.046851
1.0582186
1.089275
1.1252806
1.148202
1.1474346
1.1267162
1.0992271
1.0794577
1.0078803
1.0142004
1.0108943
1.009349
1.0086974
1.0129659
1.0140007
1.0147877
1.0227502
1.0310736
1.0202586
1.0154065
1.0163959
1.0076606
1.0061127
1.0151155
1.0234133
1.0209157
1.018708
1.0137685
1.0199595
1.0328718
1.0357522
1.0353642
1.0259814
1.0214456
1.0176273
1.0106813
1.0155919
1.0214214
1.0082917
0.99555386
1.0070086
1.0336783
1.0465653
1.0364626
1.014046
1.0064765
1.0191967
1.0347641
1.0428129
1.0529275
1.0691068
1.0810199
1.078988
1.0671061
1.0562622
1.0569823
1.0736057
1.1019636
1.1275715
1.1395524
1.1365338
1.1176378
1.0922813
1.0081526
1.0139999
1.0106301
1.0102259
1.0076227
1.0121788
1.0128724
1.0159304
1.0227255
1.028675
1.0230422
1.0166126
1.014011
1.0083524
1.0044826
1.0134139
1.0243575
1.0192235
1.014616
1.0105898
1.020144
1.0333738
1.0385456
1.0391342
1.0295641
1.0234791
1.0164901
1.0071065
1.0114247
1.0171685
1.0063319
0.99645024
1.0082621
1.0333429
1.0441983
1.0322116
1.0093439
1.0038247
1.0229085
1.0436602
1.050313
1.0521262
1.0563688
1.0627409
1.0686486
1.0702471
1.0689176
1.0670988
1.0701357
1.0825015
1.1005477
1.1154902
1.1244237
1.1257412
1.1157112
1.0081263
1.013686
1.010679
1.0109387
1.0069153
1.0112327
1.0122176
1.0176589
1.0236636
1.0262591
1.0253386
1.0180953
1.0130738
1.0113666
1.0058203
1.0125844
1.0220895
1.0166045
1.0124655
1.0083916
1.0197149
1.0327812
1.0386836
1.0400272
1.0308657
1.0238642
1.0148166
1.0042566
1.0081587
1.0139392
1.0047696
0.99766566
1.0102696
1.033813
1.0430324
1.029494
1.0059542
0.9998152
1.0214925
1.0474593
1.0578151
1.0558882
1.0491042
1.0454106
1.0516785
1.0653799
1.0772513
1.0819411
1.0796527
1.076818
1.079979
1.0905368
1.1061278
1.121635
1.1335076
1.0078962
1.0133672
1.0108836
1.0110861
1.006886
1.0105534
1.0120884
1.0188035
1.0246667
1.0246808
1.0268338
1.019383
1.0132896
1.0146762
1.0094405
1.0130014
1.0176146
1.0138591
1.0116994
1.0082922
1.0193847
1.0317579
1.0373202
1.0389585
1.0305455
1.0229611
1.0129276
1.0024063
1.0063107
1.0121282
1.0041673
0.99935351
1.0120748
1.033999
1.0420551
1.0281747
1.0048231
0.99691715
1.0168326
1.0471228
1.0624285
1.0611331
1.0463793
1.0311116
1.0331683
1.0538642
1.0789324
1.0931145
1.0937293
1.0844458
1.073819
1.0724955
1.0870791
1.1115986
1.1404783
1.0075957
1.0131779
1.0112115
1.0107604
1.0074109
1.0102102
1.0123521
1.0192497
1.0250314
1.0240725
1.0275052
1.0202531
1.0138367
1.0162916
1.0133991
1.0144756
1.0125727
1.0111087
1.012374
1.0104925
1.0204822
1.0307021
1.0353229
1.0371472
1.0296555
1.0218387
1.011514
1.001418
1.0056385
1.0113435
1.0044384
1.0012674
1.0136047
1.0331566
1.0403584
1.0273701
1.0056309
0.99627945
1.0128293
1.0435689
1.062495
1.0649624
1.0467751
1.0231693
1.0175288
1.0381718
1.0717404
1.0958122
1.1032811
1.0964772
1.0797659
1.0690394
1.0743032
1.0980076
1.1350634
1.0073659
1.0130699
1.011625
1.010231
1.0082499
1.0101444
1.0126737
1.0188562
1.0246367
1.0243344
1.0275909
1.0205024
1.0140882
1.0159708
1.0169266
1.0161426
1.0083344
1.0091981
1.0141074
1.0143909
1.0221886
1.0296443
1.0332121
1.035395
1.0289284
1.0212563
1.011036
1.0014077
1.0058759
1.0115683
1.0053458
1.0034617
1.0150682
1.0315411
1.0376516
1.0260491
1.0070716
0.99759733
1.010831
1.0384859
1.0605396
1.0668081
1.0482998
1.0203618
1.0078651
1.0228486
1.0574596
1.0878934
1.1026089
1.10283
1.0888645
1.0745181
1.0723703
1.0878539
1.12193
1.0072527
1.0131346
1.0119544
1.0098577
1.0090078
1.0101058
1.0129697
1.0179152
1.023882
1.0252511
1.0270487
1.0199634
1.0137935
1.01405
1.0188967
1.017317
1.0055111
1.0078436
1.0165953
1.0184577
1.0236716
1.0285638
1.0314758
1.0338622
1.0286202
1.021362
1.0115599
1.0022758
1.0067075
1.0122326
1.0065276
1.0060174
1.0167345
1.0298484
1.0340127
1.0236601
1.0077703
1.0002074
1.0104005
1.0340543
1.057509
1.0667894
1.0502648
1.0218473
1.0040441
1.0119296
1.0401378
1.0715649
1.089854
1.097765
1.0926341
1.0809877
1.0759133
1.0830714
1.1054667
1.0072708
1.0132755
1.0122192
1.009733
1.0094775
1.0099776
1.0131886
1.0168227
1.0231852
1.0266372
1.0260981
1.018793
1.0131245
1.0109498
1.0192971
1.0176167
1.0041149
1.0072006
1.0188271
1.0220064
1.0244486
1.0275183
1.0301644
1.0327975
1.0285696
1.0219126
1.013031
1.0040257
1.0077758
1.0126614
1.0074701
1.0084159
1.0187297
1.0287524
1.0302793
1.0203867
1.0072946
1.0030344
1.0114784
1.0310697
1.0537428
1.0649891
1.0524817
1.0256396
1.0054936
1.0063101
1.0255879
1.0519694
1.0709199
1.0819462
1.0863976
1.0815835
1.0769517
1.0795728
1.0921719
1.0073541
1.0134539
1.0124125
1.009846
1.009582
1.0098517
1.0133275
1.0159242
1.0227708
1.0282717
1.0250276
1.0173828
1.0124563
1.0078281
1.0181503
1.0172488
1.0039218
1.0073356
1.0205706
1.0242411
1.0243826
1.0267357
1.0296069
1.0323505
1.0286097
1.0226446
1.0151393
1.0064897
1.0089227
1.0123562
1.0074786
1.0099028
1.0207763
1.0288595
1.0271062
1.0167471
1.0059132
1.0053293
1.0132987
1.0297435
1.049773
1.0620915
1.0539176
1.0302835
1.0104803
1.0061891
1.0170799
1.0352246
1.0514628
1.0622483
1.0709582
1.0749498
1.0741184
1.0746692
1.0801504
1.007455
1.0136242
1.0124906
1.0101059
1.0094448
1.009786
1.0133849
1.0152936
1.0225507
1.0298716
1.0241523
1.0161048
1.0120674
1.0056386
1.0162961
1.0162103
1.0046358
1.0080054
1.021546
1.0245557
1.0233154
1.0260699
1.0300471
1.0324945
1.0286651
1.0233049
1.0173265
1.00925
1.0100883
1.0111672
1.0061921
1.0102637
1.0225762
1.0299772
1.0254067
1.013405
1.0039584
1.0066578
1.0157563
1.0300078
1.0470476
1.0584223
1.053771
1.0346883
1.0173415
1.0107985
1.0149001
1.0247787
1.0355601
1.0441324
1.0525764
1.0613113
1.066271
1.0680499
1.0707819
1.0075137
1.0137725
1.0124727
1.0104171
1.0091605
1.0098339
1.0133232
1.0149625
1.0225
1.0310737
1.0236188
1.0152173
1.0121753
1.0047596
1.0139368
1.0150774
1.0061404
1.0092784
1.0216868
1.0229948
1.0212438
1.0254258
1.0312065
1.033401
1.0287422
1.0236782
1.0190827
1.0118723
1.011204
1.0093042
1.0033914
1.0088801
1.0237668
1.0318956
1.0251946
1.0109839
1.0016312
1.0068729
1.0182891
1.0314813
1.0456891
1.0548143
1.0527582
1.0384913
1.0248003
1.0186694
1.0186713
1.0214674
1.0255209
1.0301833
1.0367572
1.0459248
1.0554366
1.0616262
1.0650424
1.0075234
1.0138289
1.0123303
1.010708
1.0088495
1.0099244
1.0131781
1.0149454
1.0224196
1.031575
1.0234131
1.0148622
1.0128714
1.0053699
1.0115223
1.0137736
1.0079806
1.0111357
1.021119
1.0201365
1.0180604
1.0247078
1.0324894
1.0348593
1.0289844
1.0236475
1.0201825
1.0141039
1.0122371
1.0070914
0.99945738
1.005879
1.024138
1.0341908
1.0266162
1.0098341
0.99951114
1.0060216
1.020238
1.0337952
1.0459281
1.0525585
1.0507652
1.0407581
1.0317056
1.027383
1.0263688
1.0245928
1.0221056
1.0217497
1.0253519
1.0335208
1.0451093
1.056247
1.0637454
1.0074961
1.0137734
1.0121173
1.0109168
1.0085774
1.0100597
1.0129647
1.0151467
1.0222863
1.0313196
1.0234928
1.0150264
1.0140131
1.0072461
1.0093265
1.0123674
1.0099195
1.0131978
1.0202921
1.0165393
1.0145743
1.0237509
1.0340205
1.0368267
1.0295429
1.02343
1.0206627
1.0158111
1.0132011
1.004977
0.99500962
1.0016204
1.0232432
1.036322
1.0292741
1.0099799
0.9979426
1.0045616
1.0211305
1.0362775
1.0474084
1.0513234
1.0484164
1.0419654
1.0372864
1.0360333
1.0354551
1.0315872
1.0244072
1.0187333
1.0180911
1.0240949
1.0364962
1.0519462
1.0648043
1.0074621
1.0136357
1.0118679
1.0110328
1.0083859
1.0102637
1.0127256
1.0154905
1.0221092
1.030489
1.0237795
1.0156828
1.01544
1.0100299
1.0076208
1.0110201
1.0119398
1.0152981
1.0194935
1.0131281
1.0112851
1.0226754
1.0355148
1.0391792
1.0304367
1.0232964
1.0207444
1.0170918
1.0141458
1.0034482
0.99085538
0.99680533
1.0210422
1.0381881
1.0325545
1.0113045
0.99725598
1.002792
1.0207463
1.0383879
1.0496392
1.0510122
1.0463424
1.0419718
1.0410077
1.0437149
1.0446218
1.0400072
1.0301103
1.0199899
1.0144781
1.0174744
1.0297039
1.0488187
1.0672813
1.0073884
1.0135042
1.011608
1.011075
1.0082745
1.0105043
1.0125
1.0159243
1.0219343
1.0293819
1.0242526
1.0167094
1.0170558
1.0133062
1.0065907
1.0098105
1.0138109
1.017273
1.0189147
1.0104765
1.0083673
1.0216552
1.0370241
1.0418081
1.0317034
1.0234703
1.0207729
1.0179744
1.0151475
1.0027334
0.98757356
0.99201936
1.018003
1.039219
1.0359675
1.0136654
0.99731488
1.0009233
1.0190805
1.0396204
1.052072
1.0517249
1.0448892
1.0406504
1.0424156
1.0485236
1.0523415
1.0484274
1.0372597
1.0235401
1.0132824
1.0120989
1.0223311
1.0434007
1.0673656
1.0073502
1.0133945
1.0114175
1.0111083
1.0082687
1.0107685
1.0123741
1.0164119
1.0218281
1.0283543
1.0249976
1.0179755
1.0186828
1.0166501
1.0062806
1.0088382
1.015363
1.0190283
1.0186015
1.0088059
1.0060083
1.0207671
1.0383978
1.0444323
1.0336067
1.0242413
1.0210856
1.018897
1.0161377
1.0028356
0.98555997
0.98799728
1.0143635
1.0395593
1.0391814
1.016542
0.99798709
0.99834277
1.0157237
1.0394221
1.0540782
1.0529063
1.0438326
1.0377718
1.0406472
1.0496962
1.0570066
1.055632
1.0444778
1.027968
1.0128965
1.006336
1.0127352
1.0327583
1.0603003
1.0072865
1.0133472
1.0113617
1.0112125
1.008418
1.011104
1.0124345
1.0169326
1.0218746
1.0276957
1.0258748
1.0193136
1.0202429
1.0196818
1.0065411
1.0082105
1.0165732
1.0204809
1.0186027
1.007952
1.0043377
1.0197494
1.0393388
1.0465986
1.035758
1.0252757
1.0216221
1.0194952
1.017117
1.0035388
0.98456651
0.98496112
1.0104951
1.0396246
1.0425676
1.0200623
0.99919106
0.99596252
1.011104
1.0364465
1.0546702
1.0542795
1.0436679
1.0346705
1.0358722
1.045468
1.0557607
1.058805
1.0502199
1.0330499
1.014213
1.0018916
1.0017773
1.0165077
1.0414479
1.007379
1.0134755
1.0115655
1.0115343
1.0087959
1.0115196
1.0126358
1.0174089
1.0220973
1.0274467
1.0268217
1.0206176
1.0215426
1.0221225
1.0070465
1.00761
1.0173917
1.021044
1.0187979
1.0076169
1.0032535
1.0185445
1.0395607
1.0488167
1.0375364
1.0264698
1.022443
1.0201287
1.0181826
1.0047035
0.9844967
0.98137651
1.0059322
1.0381682
1.0462428
1.0246431
1.0017428
0.99384038
1.0056914
1.0307396
1.0519593
1.0554578
1.0445558
1.033239
1.0304415
1.0375194
1.0482131
1.0546785
1.0498677
1.0348416
1.0153662
0.99927199
0.9928379
0.99890009
1.018281
1.0077234
1.0138346
1.0121078
1.0120655
1.0092871
1.0118594
1.0127546
1.0176273
1.0221596
1.0271939
1.0274398
1.0215844
1.0224409
1.0236658
1.0076906
1.0075642
1.0177292
1.0210787
1.0189924
1.0078501
1.0028909
1.0171076
1.0383829
1.0486328
1.0388287
1.027469
1.0234264
1.0210787
1.0193636
1.0068384
0.98695042
0.98056552
1.000925
1.0330568
1.0451354
1.0283439
1.0065842
0.99593191
1.002774
1.0244131
1.0453337
1.0522471
1.0444162
1.032962
1.0278533
1.0308898
1.0390331
1.0448293
1.0428276
1.0316748
1.0160252
1.0005878
0.99119317
0.99212405
1.0042134
1.0324251
1.0552611
1.0815745
1.0966658
1.0961645
1.0864483
1.0760042
1.0680219
1.067219
1.0771242
1.0962902
1.1215526
1.1501053
1.1755013
1.185898
1.1754506
1.1450848
1.106225
1.0767018
1.0807251
1.1193049
1.1753356
1.2141912
1.2003097
1.151754
1.1182241
1.1027515
1.0780387
1.1053818
1.126523
1.1279093
1.1152749
1.0962082
1.0803544
1.0713686
1.076356
1.099946
1.136266
1.1800759
1.2217348
1.2474255
1.2436887
1.2125589
1.1630414
1.11342
1.0907636
1.1080878
1.1533581
1.192306
1.1974011
1.1684259
1.1406973
1.1365593
1.1273009
1.1056911
1.1322069
1.1441957
1.1341434
1.1136425
1.0925011
1.0791576
1.0779434
1.0984369
1.1411372
1.1961684
1.2531275
1.2979051
1.3138796
1.2936713
1.2490275
1.1940529
1.1492289
1.1402488
1.1617008
1.1915979
1.1936203
1.16722
1.13175
1.1252654
1.1397768
1.1354296
1.1054897
1.1248073
1.1257869
1.1119263
1.092905
1.0789323
1.0761024
1.0908069
1.1291901
1.1862605
1.2513727
1.3114171
1.3517371
1.3589501
1.3331373
1.2891408
1.2434451
1.2190242
1.2206422
1.2332987
1.2241583
1.1846784
1.1401981
1.1065376
1.1150664
1.1271095
1.1270397
1.0808707
1.090725
1.0905717
1.0793044
1.0678872
1.0655015
1.074925
1.1029391
1.1515836
1.2142036
1.2784418
1.3335657
1.3680366
1.3744063
1.358026
1.3344247
1.3158103
1.3135198
1.3136414
1.2971712
1.2447405
1.1809025
1.1280125
1.1020721
1.1104015
1.1092525
1.1151169
1.052761
1.0586448
1.0612009
1.0577552
1.0570404
1.0635706
1.0792951
1.110659
1.15763
1.213251
1.2683776
1.3179738
1.3539852
1.3732706
1.3822692
1.3876787
1.3975028
1.4022661
1.3886416
1.3334745
1.2566611
1.1860839
1.1350954
1.1171556
1.1133695
1.1027629
1.1134533
1.0441677
1.0497
1.0559443
1.0590974
1.0656957
1.0746833
1.088408
1.1134357
1.1492434
1.189925
1.2351405
1.2821071
1.3288753
1.3707733
1.406363
1.4400805
1.4642092
1.4565084
1.414137
1.3382285
1.2625376
1.2009118
1.1626393
1.14555
1.1291016
1.1136147
1.12943
1.0559673
1.0645198
1.0767815
1.0855408
1.0920076
1.0946449
1.0996274
1.1132014
1.1349261
1.1652777
1.2071613
1.2624065
1.322497
1.3819384
1.4351118
1.4757866
1.4870418
1.4589109
1.3931463
1.3214565
1.2632721
1.2225448
1.1992172
1.1829673
1.1611591
1.1434738
1.1574795
1.0883343
1.0985047
1.1105478
1.1183343
1.1193675
1.1142517
1.1109048
1.1152465
1.1309689
1.1620749
1.2105022
1.2718496
1.3434343
1.413529
1.4675928
1.4900521
1.4732708
1.4193491
1.35516
1.2967792
1.2591132
1.23942
1.2294947
1.223722
1.2087129
1.1899225
1.1906575
1.1174983
1.1279471
1.1387195
1.1417904
1.1354888
1.1248258
1.1176479
1.1209433
1.140309
1.1815598
1.2410986
1.3130206
1.3903368
1.4588701
1.496681
1.488642
1.4446436
1.3818004
1.3224575
1.2768957
1.2512672
1.2418247
1.2456915
1.2567811
1.2590655
1.2418418
1.2217393
1.1183481
1.1287865
1.1399094
1.141809
1.1331745
1.1232502
1.1190452
1.1284957
1.1577213
1.2081011
1.2747598
1.353119
1.4323162
1.4946944
1.5137016
1.4872528
1.4328243
1.3700322
1.3143452
1.2699313
1.2423768
1.2333766
1.2456216
1.2735405
1.2955136
1.2856863
1.2481651
1.0955473
1.1065581
1.1192929
1.1221614
1.118308
1.1151448
1.1198285
1.1379786
1.1733163
1.2233311
1.2831545
1.3571087
1.4385437
1.5025716
1.522477
1.4974319
1.4477854
1.3909341
1.3336552
1.2811469
1.2415544
1.2256773
1.2381693
1.2728791
1.3063077
1.3070901
1.2702887
1.0731176
1.0868697
1.1018584
1.1074958
1.1100584
1.113626
1.1252811
1.1476432
1.1794139
1.2162615
1.2608641
1.3275763
1.4139615
1.4899835
1.5270542
1.5198017
1.4865705
1.4354182
1.3750969
1.3093063
1.2565929
1.2303761
1.2355188
1.2626918
1.2938331
1.30426
1.2836947
1.0765204
1.0920679
1.1083741
1.1166405
1.1231047
1.1301968
1.1411253
1.1573531
1.1766414
1.1984966
1.2323933
1.2972999
1.3924446
1.4804274
1.5312905
1.5416402
1.5248546
1.4864621
1.4265522
1.3571358
1.2955538
1.2574275
1.2434006
1.2526897
1.2698974
1.2838531
1.2832156
1.1080343
1.123596
1.1414438
1.1496999
1.1545664
1.1581571
1.1632199
1.1698944
1.1771941
1.1890657
1.2278695
1.3122998
1.4140191
1.4937007
1.5369197
1.5495462
1.5422556
1.5196958
1.475757
1.4184207
1.357258
1.3055926
1.2684717
1.2499933
1.2475295
1.2566318
1.2664686
1.1559425
1.1709993
1.1826207
1.1870449
1.1886515
1.189232
1.1904814
1.1914383
1.1942761
1.2177256
1.2862174
1.3806753
1.4627968
1.5147244
1.5357358
1.537093
1.5311618
1.5203474
1.5026483
1.4733186
1.425997
1.3662913
1.3075436
1.2623362
1.2366067
1.2317368
1.2406482
1.1990561
1.20799
1.2140684
1.218185
1.2218704
1.2252815
1.2264111
1.2283151
1.2512792
1.3174158
1.4040212
1.4743223
1.5162587
1.5299425
1.523414
1.5118937
1.5019933
1.4985051
1.501247
1.4982885
1.4739126
1.4213191
1.3528634
1.2882603
1.2427181
1.2207172
1.2179717
1.2140151
1.2230482
1.2342503
1.2461601
1.2536631
1.2564247
1.2658835
1.3060422
1.3853239
1.4702377
1.5301003
1.5586087
1.5583431
1.5378323
1.5113475
1.4861311
1.4710642
1.4693436
1.4783772
1.4878606
1.48294
1.4494875
1.3910268
1.3241461
1.2672328
1.2292829
1.209435
1.2113367
1.2271768
1.2450531
1.2551969
1.2669998
1.3007613
1.3737873
1.4660717
1.5456389
1.5984171
1.6219796
1.6174338
1.5894614
1.5483293
1.5049079
1.469535
1.4479181
1.4407817
1.4448167
1.4543766
1.4592305
1.4451546
1.4100944
1.3596019
1.3041537
1.2547762
1.2202207
1.2016432
1.2209047
1.2390265
1.2702309
1.3406809
1.4384256
1.5297823
1.5999297
1.6465855
1.6702837
1.6717341
1.6514856
1.6121731
1.5625074
1.5131204
1.4714689
1.441825
1.4249221
1.4188593
1.4203344
1.4238028
1.4216322
1.4076744
1.3791155
1.3374595
1.2888464
1.244595
1.1923282
1.2104762
1.2606578
1.3639685
1.4763811
1.5629889
1.6234255
1.6634063
1.6867439
1.6953379
1.6887643
1.6658739
1.6274228
1.5806123
1.5332902
1.4899546
1.4545333
1.4286828
1.4123565
1.403179
1.3978535
1.3932623
1.3859116
1.3719514
1.3450653
1.3119179
1.274394
1.1826804
1.2234868
1.3477684
1.4799641
1.569299
1.62476
1.6597213
1.6814818
1.6930852
1.6947826
1.6868666
1.666878
1.6366592
1.6006861
1.5627509
1.5253403
1.4901697
1.4583668
1.4305652
1.4064332
1.3850254
1.3651882
1.3478664
1.3340911
1.3198352
1.3075481
1.2964771
1.1798162
1.2757046
1.4394476
1.550997
1.6115875
1.6458098
1.6662093
1.6777534
1.6833842
1.68271
1.67512
1.6610415
1.6422237
1.620558
1.597518
1.5730793
1.5446933
1.5101527
1.4689375
1.4232199
1.3773857
1.3337907
1.2978441
1.2756102
1.2687535
1.2784569
1.3025297
1.1933874
1.3488032
1.5049899
1.5859147
1.6257436
1.6473471
1.6593172
1.666299
1.6692137
1.6685235
1.6647846
1.6589562
1.6521352
1.6449479
1.6367928
1.6253339
1.604474
1.5683517
1.5128697
1.4435479
1.3701278
1.3024531
1.2490601
1.2172644
1.2111761
1.2407416
1.2951669
1.2324288
1.4163668
1.5487552
1.6085522
1.6367354
1.6508483
1.6582318
1.6625666
1.6648078
1.6660936
1.6672444
1.6688941
1.6714285
1.6743341
1.6752165
1.6691931
1.6499503
1.6106063
1.5473529
1.4638104
1.3718082
1.2866071
1.2213439
1.1820746
1.1759263
1.211291
1.2818137
1.3033339
1.4831765
1.5908389
1.6362559
1.6575501
1.6682498
1.6750619
1.679303
1.682399
1.6853626
1.6887281
1.6928446
1.6971107
1.7001184
1.6986811
1.6899335
1.6660747
1.6248992
1.5644524
1.4851269
1.3959927
1.3075721
1.2338704
1.1886633
1.1777964
1.2034647
1.2698998
1.4058043
1.5648223
1.6516549
1.6864874
1.7027455
1.711183
1.7156881
1.718229
1.7200936
1.7209302
1.7203603
1.7186117
1.7154132
1.7094792
1.6987209
1.6803232
1.6531341
1.6158624
1.5686614
1.5120301
1.447241
1.3762659
1.3011509
1.2444841
1.2177068
1.2211525
1.2614099
1.5449841
1.6784905
1.7455964
1.7719603
1.7839926
1.7892834
1.7895512
1.7855171
1.77745
1.7655403
1.7503909
1.7329725
1.7143579
1.6945025
1.672861
1.6493336
1.6243529
1.5959438
1.5697961
1.5459058
1.5192026
1.479613
1.4167054
1.3464986
1.2869895
1.2541314
1.2525885
1.7211639
1.8303225
1.8805997
1.8972249
1.9020102
1.8982045
1.8868721
1.8681776
1.8424226
1.8097448
1.7721271
1.7330776
1.6949193
1.6606818
1.6321732
1.6110717
1.5939434
1.5817866
1.5815977
1.5882778
1.5980342
1.5914252
1.5463717
1.4619459
1.3638917
1.2845152
1.2399246
1.9242948
2.0120524
2.0438829
2.0462921
2.0345737
2.0127871
1.9833044
1.9462052
1.9005176
1.8475269
1.7904685
1.7315971
1.6767455
1.6307556
1.5981736
1.5822695
1.5799144
1.5904141
1.6130996
1.6444942
1.674648
1.6835252
1.6448495
1.5527319
1.4288633
1.3137485
1.2312096
2.118708
2.1831642
2.1942159
2.1769752
2.1443567
2.1021076
2.0539331
2.0008545
1.9422127
1.8789413
1.8122776
1.7443937
1.6810822
1.6292173
1.5963139
1.5838571
1.5935796
1.6245279
1.6687906
1.71389
1.7488025
1.7484608
1.6919762
1.5890007
1.4643601
1.3394436
1.241066
2.235533
2.2695824
2.2636298
2.2315119
2.1853797
2.1319932
2.0758067
2.0189256
1.9613438
1.9022558
1.8426746
1.7816078
1.722883
1.6732383
1.6395288
1.625455
1.6415068
1.6842417
1.7397909
1.7862695
1.809822
1.7828698
1.7110094
1.5939865
1.4681277
1.3566796
1.2665769
2.2409354
2.2565891
2.2429191
2.2086135
2.1630159
2.1131285
2.0627082
2.015476
1.971048
1.9291788
1.8886967
1.8478334
1.8068676
1.7694604
1.7379995
1.720912
1.7284288
1.7627715
1.8074963
1.8380378
1.8356372
1.7929767
1.7074505
1.5838963
1.4642775
1.3651032
1.3027549
2.1875867
2.1961966
2.1784599
2.1464015
2.1076955
2.0684597
2.032677
2.0011219
1.9763071
1.9568189
1.9408386
1.9264238
1.9106222
1.8925515
1.8710904
1.8486975
1.8372143
1.8399605
1.8499367
1.8513047
1.8297632
1.7734662
1.6870113
1.5720278
1.4548452
1.3765578
1.3392553
2.1420576
2.1451789
2.1236127
2.0913539
2.0596091
2.0321112
2.0109075
1.9968928
1.9887298
1.9883969
1.9926545
2.0000202
2.0047555
2.0025125
1.9874257
1.9575105
1.9202394
1.8831958
1.8563569
1.8350482
1.798677
1.7361493
1.6551287
1.5505348
1.4518177
1.3914237
1.3702959
2.1462641
2.1326067
2.0974427
2.0610864
2.0315903
2.0119065
2.0035479
2.0045804
2.0118224
2.024703
2.0431546
2.0619192
2.0724076
2.0711917
2.0483019
2.0044621
1.9494291
1.8948115
1.8509434
1.8136277
1.7668636
1.7036309
1.6271664
1.5363862
1.453867
1.4056438
1.3929375
2.1895091
2.1542146
2.1064714
2.067547
2.0389007
2.022613
2.0200161
2.0287063
2.0456662
2.0670797
2.089961
2.1075122
2.1131682
2.0996853
2.0645688
2.0129066
1.95661
1.9029697
1.8562647
1.8132185
1.7626186
1.6979048
1.6219551
1.540601
1.4709962
1.4289417
1.4191619
2.2229552
2.1884062
2.144291
2.1107255
2.0904349
2.0836389
2.0894801
2.1061423
2.1289463
2.1529741
2.1720055
2.1789678
2.167859
2.1358004
2.0865287
2.0306326
1.9773431
1.9316557
1.8924131
1.8521191
1.7999781
1.7326399
1.6566367
1.5779083
1.5143493
1.4763074
1.4599844
2.4109402
2.3811442
2.3281527
2.2838268
2.2579797
2.2548766
2.2729785
2.3078948
2.3531143
2.3982504
2.4291945
2.4291052
2.3894672
2.3151213
2.2224548
2.1360887
2.0689765
2.0228264
1.9895204
1.9514617
1.8976137
1.826398
1.7439963
1.6610612
1.596161
1.5519952
1.5241701
2.9136659
2.8388458
2.7535362
2.6995401
2.6798292
2.6922946
2.7379287
2.817031
2.9256509
3.0528221
3.1636261
3.2013847
3.1308666
2.9823636
2.8001644
2.6422702
2.5227861
2.4313103
2.3582666
2.2849276
2.1862088
2.0642882
1.9357305
1.8192795
1.7256361
1.6572203
1.6069445
4.2467236
4.245106
4.2070588
4.1506803
4.0834616
4.0149165
3.9519879
3.8922255
3.8409454
3.806959
3.7945829
3.8053358
3.8248311
3.8622325
3.8835787
3.8942598
3.8855396
3.8261802
3.6806177
3.4062992
3.0388018
2.6572386
2.3304052
2.0726125
1.8886538
1.7672465
1.68246
5.0893142
5.3459988
5.4142348
5.3745685
5.2523455
5.0829866
4.8931432
4.7043549
4.5175901
4.3367691
4.1733115
4.0404087
3.9501186
3.9058261
3.8798781
3.8567349
3.8548227
3.8720121
3.9265204
3.9395078
3.7861951
3.3800439
2.8363003
2.3901731
2.0877336
1.8940661
1.7659625
5.8605891
5.8363271
5.621979
5.3682823
5.1948393
5.1296698
5.158308
5.2250283
5.2697493
5.1894203
4.9278506
4.5072547
4.0814432
3.683468
3.3777124
3.1791755
3.094685
3.0975557
3.214156
3.4437054
3.7163237
3.8328144
3.5487296
2.9448407
2.4502475
2.12761
1.912832
5.3551881
5.122313
4.6986655
4.3375994
4.0879143
3.9612941
3.9657662
4.0850845
4.2678248
4.4530954
4.4908393
4.2787735
3.8892173
3.4600526
3.0701739
2.8084635
2.6825972
2.683425
2.7940925
3.0332695
3.447887
3.9586608
4.2649611
3.9413008
3.1617171
2.5463141
2.1746236
3.8719169
3.5307226
3.1800899
2.9841072
2.9140046
2.9316139
3.0187625
3.1497629
3.3046603
3.4595781
3.5346388
3.4906345
3.3239163
3.0815367
2.8217701
2.6032393
2.4775725
2.452097
2.5410666
2.7500222
3.1489876
3.757023
4.4335728
4.6616425
3.9468353
3.0682627
2.5127761
2.7366225
2.6536221
2.618174
2.6211296
2.6550038
2.7143725
2.7902027
2.8729612
2.9466714
2.9967917
3.0029095
2.9555352
2.8417893
2.6976954
2.5401314
2.4106047
2.3260209
2.3062578
2.3717006
2.5366114
2.8640353
3.3892283
4.0369888
4.3999593
4.0019306
3.2922955
2.7437759
2.613353
2.5914392
2.5863253
2.5995616
2.628393
2.668661
2.7145341
2.755693
2.7813983
2.7842758
2.7529712
2.6877438
2.5902214
2.4712592
2.3589605
2.2707608
2.2178538
2.2133084
2.2768293
2.4231034
2.6961364
3.1046276
3.5588124
3.797569
3.5915836
3.1495762
2.759532
2.5296125
2.5121508
2.510248
2.5250235
2.5540089
2.5934184
2.6386043
2.6785595
2.7016448
2.6988796
2.6635747
2.5944316
2.4999249
2.3786789
2.2726394
2.1848202
2.1363596
2.1339245
2.1997745
2.3443006
2.5865128
2.9117515
3.2250587
3.3664373
3.2415286
2.9549193
2.6836781
2.3893623
2.3725607
2.3698489
2.385651
2.4227434
2.4794802
2.5470889
2.612329
2.6620102
2.6852251
2.6720853
2.615409
2.5198727
2.3988145
2.2703316
2.1668787
2.0996102
2.0781313
2.1186938
2.230424
2.4313828
2.7087958
2.9742885
3.1080401
3.0497597
2.8545075
2.6456986
2.2852495
2.2657987
2.265863
2.2817662
2.3185083
2.376709
2.4541459
2.5437117
2.6303436
2.6976796
2.7248417
2.6987869
2.6159487
2.4879399
2.3421741
2.2072424
2.1064719
2.0509167
2.0502209
2.113593
2.2497875
2.4668989
2.7057452
2.8769084
2.9049486
2.8035824
2.6429347
2.2853526
2.2645012
2.2616015
2.2720704
2.2974753
2.341248
2.4064622
2.4905692
2.5843241
2.6745852
2.7409726
2.7570941
2.7078881
2.5970985
2.4502615
2.2953938
2.1627847
2.0736203
2.0353269
2.0449449
2.1186348
2.2651589
2.4675347
2.6635774
2.7765475
2.7888591
2.7147305
2.3925529
2.3705508
2.3611045
2.3623369
2.3742168
2.3977638
2.4322123
2.4779693
2.5350609
2.6008282
2.6649281
2.70746
2.707177
2.6513589
2.5482922
2.4194502
2.2897613
2.1808754
2.1108154
2.0901461
2.1205873
2.2027553
2.3384935
2.509091
2.6689437
2.775843
2.8178309
2.5928838
2.5696791
2.552644
2.5378118
2.5248524
2.5130891
2.5033494
2.4978065
2.499439
2.5094708
2.5263569
2.5480858
2.5697278
2.5823236
2.5729583
2.5366893
2.4784495
2.4099062
2.3435919
2.2993348
2.2964651
2.3402799
2.429942
2.5589515
2.708723
2.8502425
2.9566121
2.7956452
2.7758747
2.7499733
2.7165393
2.6749952
2.627302
2.5775155
2.5285536
2.4837009
2.4461499
2.4177834
2.4020575
2.4057148
2.4343697
2.4849997
2.5483762
2.6109384
2.6625335
2.6971028
2.7160965
2.7237644
2.7434086