/*--------------------------------*- C++ -*----------------------------------*\
| =========                 |                                                 |
| \\      /  F ield         | OpenFOAM: The Open Source CFD Toolbox           |
|  \\    /   O peration     | Version:  2406                                  |
|   \\  /    A nd           | Website:  www.openfoam.com                      |
|    \\/     M anipulation  |                                                 |
\*---------------------------------------------------------------------------*/
FoamFile
{
    version     2.0;
    format      ascii;
    arch        "LSB;label=32;scalar=64";
    class       volScalarField;
    location    "21";
    object      T;
}
// * * * * * * * * * * * * * * * * * * * * * * * * * * * * * * * * * * * * * //

dimensions      [0 0 0 1 0 0 0];

internalField   nonuniform List<scalar> 
62344
(
1.0050628
1.0060076
1.0060251
1.0041399
1.0030294
1.0052896
1.0059738
1.0069955
1.0101713
1.0100217
1.0081628
1.0068545
1.0068145
1.0060346
1.0062728
1.0070888
1.0062015
1.0054658
1.0057755
1.0044184
1.0080343
1.0116949
1.0090239
1.008428
1.0085618
1.0022418
1.0007551
1.0048783
1.0059882
1.0044333
1.0042321
0.99856903
0.98880863
0.98947943
1.000912
1.006691
1.0003481
0.98146083
0.96657878
0.96152578
0.95802932
0.9527014
0.94924649
0.9487698
0.94827833
0.94541161
0.93913715
0.93625862
0.94105594
0.94811405
0.94764368
0.93979448
0.92731527
0.91823555
0.91684913
1.005605
1.0061948
1.0055538
1.0043884
1.0035611
1.0057857
1.0064838
1.0072693
1.0102531
1.0113369
1.0096312
1.0068194
1.004934
1.0052675
1.0051413
1.0070312
1.0085085
1.0063965
1.0067494
1.0047521
1.0066527
1.0124181
1.0123487
1.0122958
1.0091407
1.0013596
0.99973851
1.0040334
1.0059753
1.0057521
1.0050955
0.99727041
0.98837255
0.99185776
1.0019609
1.009804
1.0078333
0.99036551
0.97347847
0.96971234
0.96913847
0.96501498
0.96054764
0.96179335
0.96416339
0.95936802
0.94741859
0.93186892
0.92031606
0.91855291
0.92481782
0.92703988
0.9208125
0.9105386
0.90285653
1.0058911
1.0059304
1.005122
1.0050036
1.0043734
1.0054952
1.0056142
1.0070549
1.0092353
1.0107559
1.0110542
1.0072791
1.0041218
1.0049208
1.0034901
1.00493
1.0082741
1.006175
1.0075341
1.0084177
1.0075622
1.0111871
1.0132183
1.0149457
1.0106809
1.0026092
1.0006084
1.0034815
1.004673
1.0051137
1.0037284
0.995481
0.98966559
0.99409362
1.0040575
1.0099344
1.0073506
0.99081698
0.97403366
0.96791347
0.96939293
0.97101472
0.97175552
0.97104408
0.97218963
0.96917764
0.95952415
0.942904
0.9255509
0.91489556
0.91515017
0.92092855
0.9234206
0.91855928
0.91041242
1.0056328
1.0054758
1.0051491
1.0054772
1.0046274
1.0044566
1.0050604
1.0074143
1.008648
1.0093183
1.0116123
1.0080342
1.0053861
1.0058767
1.0038095
1.0037236
1.0053961
1.0048317
1.0080992
1.0112633
1.0096192
1.0091011
1.010516
1.0138678
1.010709
1.0042198
1.0027452
1.0039239
1.0038257
1.0044251
1.0018868
0.99408243
0.99128367
0.99674153
1.005144
1.0097691
1.0050542
0.98775922
0.97077472
0.96281107
0.96601379
0.97268577
0.97740899
0.97526672
0.97105116
0.96642724
0.95913462
0.94814162
0.93358537
0.919889
0.9133823
0.91564644
0.92214609
0.92541349
0.92390556
1.0050674
1.0053058
1.0056548
1.0056304
1.0043702
1.0037293
1.005483
1.0079098
1.0090171
1.0094858
1.0110663
1.0081835
1.0069806
1.006862
1.0054271
1.0043807
1.0026816
1.0034293
1.008686
1.0113199
1.01021
1.0077655
1.0072264
1.0102913
1.0086456
1.0047341
1.004525
1.0047484
1.0041521
1.0045894
1.0005729
0.99269598
0.99185388
0.99866162
1.0060313
1.0086343
1.0032573
0.98608787
0.96889884
0.96039902
0.96221807
0.97270291
0.98072662
0.9808231
0.97147905
0.95969798
0.95031981
0.94189476
0.93454166
0.92531698
0.91610508
0.91154565
0.91419692
0.92095427
0.92547505
1.0047655
1.0053626
1.0061678
1.0053397
1.0042376
1.0040277
1.006241
1.0078512
1.0094064
1.0111372
1.0096953
1.0074294
1.0081176
1.0068286
1.0063585
1.0057649
1.0021427
1.0033595
1.0091885
1.0095095
1.0086558
1.0081192
1.0063369
1.0079013
1.0067169
1.004822
1.0056359
1.0054624
1.0054617
1.0059851
1.0008719
0.99237074
0.99197068
0.99964572
1.0064465
1.0079252
1.0018432
0.98629866
0.97205872
0.9637868
0.96417179
0.97436801
0.98460346
0.98658536
0.97733052
0.96031411
0.94482142
0.93679312
0.93286453
0.92941182
0.92289949
0.91542488
0.90988199
0.90949895
0.9139306
1.0049326
1.0055158
1.0062663
1.0048626
1.0042853
1.0050439
1.0069218
1.0073925
1.0098353
1.0128932
1.008876
1.0066853
1.008617
1.0055496
1.0053183
1.0062019
1.0038484
1.004817
1.0091711
1.0078322
1.0071212
1.0096973
1.0085218
1.0088132
1.0067834
1.0053942
1.0059901
1.0053498
1.0061441
1.0073112
1.0017049
0.993169
0.99291084
1.0007897
1.0070554
1.0078693
1.0014871
0.98797047
0.97761022
0.97141562
0.97021126
0.97697409
0.98618242
0.98946333
0.98203517
0.9653637
0.94575292
0.93451931
0.93187732
0.93190821
0.92956612
0.92370643
0.91453147
0.90563005
0.90113304
1.0052805
1.0057566
1.0058998
1.0046619
1.0044755
1.0059365
1.0071377
1.0072071
1.0100274
1.0137848
1.0090163
1.0064389
1.0080758
1.0041393
1.0034516
1.0054931
1.006288
1.0070016
1.0084588
1.0064833
1.0064011
1.0107905
1.0113969
1.011679
1.0086225
1.0062222
1.0055753
1.0038256
1.0049692
1.007012
1.0020886
0.99429267
0.99431983
1.0018545
1.0075751
1.0078473
1.0004689
0.9895591
0.98294202
0.97930119
0.97662544
0.97953821
0.98612853
0.98990265
0.98504462
0.97055682
0.9520472
0.93769102
0.93270576
0.93385056
0.93552097
0.93343581
0.92594413
0.913637
0.90067121
1.0055728
1.0058971
1.0054397
1.0049349
1.0044492
1.0060518
1.0068608
1.0073935
1.01007
1.0135453
1.0096359
1.0066772
1.0072634
1.0038255
1.0021469
1.0046738
1.0080416
1.0082678
1.007198
1.0048959
1.005882
1.0107431
1.0129538
1.0141728
1.0107106
1.0070102
1.0045175
1.0013385
1.0025358
1.0051482
1.0015588
0.99531127
0.99602642
1.0028553
1.0077032
1.0073432
0.9993741
0.98992804
0.98584618
0.9843812
0.98190715
0.98169699
0.98412364
0.98609212
0.98287189
0.97273662
0.95830139
0.94467391
0.93757966
0.93731451
0.93972738
0.93966529
0.93538698
0.92533609
0.9095172
1.0056711
1.0058267
1.0052402
1.0053632
1.00435
1.0056037
1.0062748
1.0075993
1.0101143
1.0123557
1.0102404
1.0074784
1.0067731
1.00462
1.0021398
1.0039565
1.0084901
1.0076414
1.005689
1.0031477
1.0052227
1.0103062
1.0134777
1.0154342
1.0121158
1.0076749
1.0036638
0.99906399
0.99981892
1.0025943
1.0002002
0.9958513
0.99737742
1.0035588
1.0079364
1.0068754
0.99840293
0.98909675
0.98601864
0.98687551
0.98628547
0.98466659
0.98304708
0.98105695
0.97697537
0.9701172
0.96101739
0.95174482
0.94466831
0.94158662
0.94110455
0.93970242
0.93457117
0.92550853
0.91273338
1.0055847
1.0057008
1.0053178
1.0057219
1.0042481
1.004985
1.0057013
1.0077085
1.0102081
1.0111223
1.010778
1.0084419
1.006667
1.0060532
1.0030994
1.0039009
1.0076827
1.0060439
1.0044593
1.0019531
1.0047225
1.0099254
1.0134919
1.0156798
1.0126636
1.0081918
1.0033879
0.997951
0.9982228
1.0008031
0.99911713
0.99625337
0.99846685
1.0040947
1.0081347
1.0068169
0.99807605
0.98829247
0.98513626
0.98789499
0.98992357
0.98886363
0.98445689
0.97733761
0.96973264
0.96375128
0.95868712
0.95441784
0.95052165
0.9457277
0.94048667
0.93414035
0.92597759
0.91497371
0.90227835
1.005402
1.0056496
1.0055741
1.0059207
1.0043005
1.0047158
1.0054196
1.0076539
1.0102319
1.0102502
1.0111922
1.0091118
1.0067146
1.007025
1.0044072
1.0046173
1.0062596
1.004381
1.0037319
1.0017532
1.0046731
1.009744
1.0131508
1.0152581
1.0125985
1.0085419
1.003744
0.99815153
0.99803425
1.0002353
0.99888846
0.9969219
0.99946676
1.0044933
1.0081145
1.0065211
0.99825578
0.98810643
0.98477135
0.98851786
0.99289216
0.9938123
0.98861375
0.97739757
0.96483276
0.95722998
0.95485809
0.95459522
0.95413447
0.9507493
0.94247987
0.92964025
0.91533263
0.90096081
0.88620173
1.0052462
1.0056278
1.0058852
1.0058875
1.0044525
1.004666
1.0053639
1.0074938
1.0100811
1.0098767
1.0113676
1.0093016
1.0066328
1.0072119
1.0055193
1.005601
1.0046816
1.0030589
1.0034177
1.0023437
1.0051811
1.0097696
1.012718
1.0144491
1.0122209
1.008694
1.0043843
0.99921013
0.99889843
1.0007043
0.99930527
0.99792254
1.0005236
1.0049759
1.0078393
1.0061137
0.99867528
0.98903484
0.98562447
0.98914939
0.99528737
0.99802487
0.99331311
0.98051981
0.96421907
0.95365609
0.95149708
0.95427565
0.95681262
0.95598645
0.94787128
0.93151501
0.91036821
0.88953811
0.87155458
1.005163
1.00563
1.0061242
1.005734
1.0046074
1.0048231
1.0055067
1.0072652
1.0098032
1.0099685
1.0113674
1.0091849
1.0064896
1.0066523
1.0064061
1.0065356
1.0033116
1.0022169
1.0037034
1.0036028
1.0061437
1.0098197
1.0122614
1.013607
1.0116259
1.00854
1.0048866
1.0002274
1.0000481
1.001444
0.99983351
0.99886318
1.0015743
1.0052895
1.0073954
1.0056226
0.9990306
0.99063117
0.98727433
0.99016897
0.99716064
1.0016791
0.99811618
0.98532095
0.9684207
0.9548441
0.95071341
0.95422838
0.95864635
0.96082813
0.95528537
0.93935805
0.91509048
0.88840202
0.86439761
1.0051691
1.0056361
1.0062147
1.0055277
1.0047063
1.0050245
1.0057688
1.0071404
1.0096329
1.0105755
1.0113658
1.008913
1.0063173
1.0054606
1.0068693
1.0072103
1.0024027
1.0017908
1.0044336
1.0050963
1.0072254
1.0099735
1.0119682
1.0128869
1.0110343
1.0083004
1.0051974
1.0009902
1.0009056
1.0018815
1.0000796
0.99958115
1.0023719
1.0053366
1.0067316
1.0049912
0.99923643
0.99244004
0.98937741
0.99176466
0.99886217
1.0046158
1.0023882
0.99074971
0.97486565
0.96052333
0.95388009
0.95597184
0.96126752
0.96472009
0.96302504
0.95043211
0.92793194
0.90005082
0.87248898
1.0052169
1.0056326
1.006213
1.0053992
1.0047186
1.0051681
1.006076
1.007193
1.0096135
1.0114416
1.0113073
1.008513
1.006215
1.004198
1.0068673
1.0075127
1.0020904
1.0017361
1.0051163
1.0064064
1.0078988
1.0100211
1.0117442
1.0122922
1.0105315
1.0080954
1.0055177
1.0016545
1.0013545
1.0018171
0.99980797
0.99984221
1.0028953
1.0053762
1.0059052
1.004183
0.99901349
0.9938446
0.99152214
0.99375652
1.0004415
1.0065106
1.0055741
0.99582898
0.9816989
0.96848199
0.96023958
0.95988967
0.96472313
0.96873433
0.96929347
0.96184977
0.94393352
0.91951525
0.89372478
1.0052877
1.0056208
1.006149
1.005354
1.0046613
1.0052121
1.0063472
1.0073168
1.0096838
1.0122767
1.0112082
1.0080748
1.0062294
1.003162
1.0065496
1.0074532
1.0021456
1.0018737
1.0056082
1.0071495
1.0080002
1.0097303
1.011566
1.0119066
1.010214
1.0080205
1.0059678
1.0023086
1.0015643
1.0013294
0.99911032
0.99965124
1.0031032
1.0054388
1.0053028
1.0031342
0.99814785
0.99457163
0.99336856
0.99572643
1.0016394
1.0074143
1.0072809
0.99946013
0.98773595
0.97641663
0.96800534
0.96518129
0.96810779
0.97203199
0.97382746
0.97099707
0.95987682
0.94195025
0.92105006
1.0053451
1.0056009
1.0060651
1.0054099
1.0045725
1.0051674
1.0065186
1.0074527
1.009744
1.0129157
1.0110098
1.0076843
1.0062886
1.0025168
1.0059793
1.0071186
1.0024209
1.002036
1.0058925
1.0073176
1.0075246
1.009213
1.0113657
1.0118719
1.0101227
1.0080769
1.0065075
1.0029949
1.0017745
1.0007432
0.9980753
0.99898262
1.0030251
1.0057214
1.0049867
1.00207
0.99679459
0.99453276
0.99457731
0.99725982
1.002471
1.0073477
1.0074432
1.0012447
0.99200689
0.98309528
0.97551595
0.97089024
0.97092494
0.97361674
0.97594977
0.9759951
0.97142059
0.96116599
0.94701732
1.0053829
1.0055759
1.0059737
1.0055023
1.0044778
1.0050627
1.0065703
1.0075227
1.0097654
1.0132939
1.0107959
1.0074237
1.0064171
1.0025127
1.0053338
1.0065981
1.0027772
1.0024528
1.0060359
1.0068913
1.0067112
1.0086845
1.0113187
1.0122006
1.0103169
1.0082698
1.0070019
1.0037239
1.0021311
1.0002596
0.99695395
0.99792762
1.0027851
1.0062362
1.0052382
1.0012433
0.99541023
0.99370819
0.9949122
0.99811617
1.0027941
1.0066141
1.0062213
1.0009328
0.99395584
0.9873406
0.98107361
0.97565146
0.97275953
0.97289458
0.97450161
0.97593333
0.97602339
0.97287518
0.96583078
1.0053984
1.0055782
1.0058919
1.0055871
1.0044203
1.0049852
1.00649
1.0075323
1.0097436
1.0134015
1.0107046
1.0073307
1.0066591
1.0030984
1.0048104
1.005986
1.003302
1.0031052
1.0060939
1.006153
1.005695
1.0081981
1.0115335
1.0128922
1.0108337
1.0086549
1.0073881
1.00442
1.0026239
0.99997818
0.99588544
0.99668821
1.0023383
1.0068386
1.0059369
1.0008661
0.99430421
0.992404
0.99449305
0.99812498
1.0026669
1.005548
1.0041058
0.9992574
0.99355415
0.98898805
0.98403291
0.9785073
0.97353734
0.97058797
0.96985786
0.97116203
0.97340942
0.97477118
0.97400679
1.005383
1.00561
1.0058317
1.0056558
1.0044355
1.0049597
1.0063254
1.0074632
1.0096635
1.0132515
1.0107378
1.0074313
1.0070029
1.0041551
1.0044602
1.0053886
1.0038869
1.0039162
1.0061958
1.005297
1.0045735
1.007783
1.0118956
1.0138241
1.0115869
1.0090498
1.0076591
1.0050162
1.0031653
0.99985678
0.99489067
0.99536026
1.0017957
1.0073252
1.0069162
1.0010375
0.99368593
0.99098948
0.99347462
0.99756358
1.0022273
1.0043417
1.0016951
0.99666586
0.99146166
0.98822922
0.98477361
0.97961796
0.97353398
0.96803335
0.96419238
0.96327419
0.96539331
0.96892315
0.97267845
1.0053406
1.0056423
1.0058063
1.0057093
1.0044979
1.0049693
1.006109
1.0073318
1.0095131
1.0128876
1.010845
1.0076395
1.0074008
1.0054065
1.0042278
1.0048171
1.0044286
1.004709
1.0063005
1.0043874
1.0033206
1.0072119
1.0122576
1.0147677
1.0123113
1.0092934
1.0077676
1.0053866
1.0036186
0.9997521
0.99391375
0.99389953
1.000932
1.0075926
1.0081437
1.0017435
0.99345903
0.98996406
0.99197431
0.99647544
1.0014744
1.0032311
0.99998052
0.99407925
0.98873138
0.98579036
0.98366795
0.97948274
0.97328253
0.96615545
0.95957284
0.95523903
0.95487353
0.95778487
0.96370438
1.0052951
1.0056564
1.0058147
1.0057417
1.0045781
1.0050014
1.0058578
1.0071318
1.0092826
1.0123457
1.0109233
1.0078553
1.0076955
1.0066015
1.0039724
1.0041445
1.004842
1.0053578
1.0062674
1.0035364
1.0020633
1.0063596
1.0122574
1.0154009
1.0126973
1.009283
1.0076182
1.0055244
1.0038746
0.99959963
0.99297926
0.99232203
0.99963441
1.0075943
1.0092161
1.002799
0.99403892
0.98961403
0.99051615
0.9952327
1.0006974
1.0024316
0.99910253
0.99268375
0.98672697
0.98342442
0.98180858
0.97856879
0.97297527
0.96554222
0.95730863
0.9502831
0.94692064
0.94732113
0.95209102
1.0052522
1.0056379
1.0058088
1.0057303
1.0046217
1.0050054
1.0055486
1.0068381
1.0089607
1.0116245
1.0107988
1.0079226
1.0078129
1.0075445
1.0035819
1.0033914
1.0051099
1.0057937
1.0060691
1.0027426
1.0008229
1.0052529
1.0118258
1.0156236
1.0126632
1.0089346
1.0072361
1.0054768
1.0040281
0.99948317
0.99209455
0.99063223
0.99799617
1.0070758
1.0098477
1.0038321
0.99521104
0.99060606
0.99026201
0.99435609
0.99994289
1.0020019
0.99917038
0.99314288
0.98700916
0.98294641
0.9807373
0.97795995
0.97311949
0.96641487
0.95828997
0.95044282
0.94493568
0.9426005
0.94456083
1.0052062
1.0055706
1.0057387
1.0056163
1.0045427
1.0048832
1.0051531
1.0064303
1.0085091
1.0107609
1.0104124
1.0077082
1.0076269
1.0081291
1.0030747
1.0026835
1.0052028
1.0061609
1.0057999
1.0020968
0.99974776
1.0042155
1.0112296
1.0155116
1.0122789
1.0082421
1.0065099
1.005142
1.0041197
0.99949942
0.99152507
0.98916305
0.99635271
1.0061237
1.0099493
1.0043388
0.99613469
0.99182994
0.99133364
0.99520697
1.0000425
1.0019933
0.99963442
0.99463853
0.98949251
0.98605192
0.98315741
0.97967988
0.97461524
0.96809681
0.96073223
0.95358211
0.94852158
0.94632887
0.94730999
1.0050849
1.0054166
1.0054676
1.0052761
1.0042331
1.0046024
1.0047128
1.0059987
1.0080266
1.009969
1.0098182
1.0072253
1.0072006
1.008265
1.0025893
1.0019704
1.0051144
1.0064204
1.0057401
1.0017286
0.99896545
1.0033726
1.0108289
1.0156412
1.0121246
1.0075585
1.0055765
1.0044387
1.0040125
0.99965131
0.99133753
0.98800465
0.99514046
1.0055816
1.0103883
1.0042203
0.996284
0.99208714
0.99265012
0.99731888
1.0020721
1.0042379
1.0015415
0.99720647
0.99388065
0.99188616
0.98975623
0.98637014
0.98100641
0.97372751
0.96549266
0.95818949
0.95345217
0.95204839
0.95420179
1.0046775
1.0049979
1.0049032
1.0047449
1.003806
1.0043177
1.0044242
1.0057797
1.0077757
1.0095397
1.0094144
1.0068245
1.0067433
1.008171
1.0022785
1.0015482
1.0049493
1.0064798
1.0059984
1.0017267
0.99878461
1.002907
1.0104046
1.0154449
1.0123506
1.007561
1.0052515
1.0038887
1.0037316
0.9998241
0.99186714
0.98782162
0.99471038
1.005135
1.0109801
1.0049217
0.99661038
0.99185412
0.99259818
0.99837293
1.0040808
1.0065477
1.0038569
0.99949208
0.99714599
0.99675489
0.9969808
0.99595018
0.99169356
0.9839076
0.97422283
0.96539746
0.95903415
0.95685107
0.95931453
0.9659235
0.95860002
0.9500544
0.94879536
0.95742358
0.96857153
0.97409589
0.97133632
0.95745993
0.93173227
0.89875961
0.86714221
0.84490114
0.83951702
0.84938398
0.86429975
0.8798263
0.88942614
0.88873128
0.88914813
0.90070775
0.91758138
0.92579961
0.91719411
0.89727288
0.89328624
0.91401997
0.9783513
0.96634193
0.95388864
0.95405253
0.96183473
0.97083289
0.97336652
0.96770777
0.94918924
0.91705475
0.87910024
0.84571103
0.82454572
0.81969729
0.82699379
0.83768406
0.84932623
0.85872048
0.86701859
0.88028731
0.89918412
0.91537836
0.9185293
0.90326592
0.88409685
0.89063776
0.91109832
0.98703722
0.96888844
0.95496111
0.95603963
0.96346391
0.97027567
0.97053533
0.9617463
0.93732925
0.90091691
0.86319432
0.83230536
0.8130735
0.80640754
0.80830802
0.81362267
0.82203574
0.83287532
0.85087119
0.873534
0.8950081
0.90691161
0.90293158
0.88495908
0.87229869
0.88828622
0.90598655
0.98216374
0.96211991
0.94944483
0.95219941
0.96007695
0.96505551
0.96279699
0.94958641
0.92198885
0.88674925
0.85255658
0.8245601
0.80518197
0.79452053
0.7910031
0.79261382
0.80064425
0.81654138
0.84129623
0.86762703
0.8866532
0.89170292
0.88318879
0.86834217
0.865375
0.8830129
0.89801597
0.96561277
0.94798739
0.93926617
0.94345367
0.95001803
0.95264156
0.94943383
0.9350914
0.9084115
0.87558339
0.84341912
0.81492437
0.7918135
0.77572939
0.7688869
0.77208513
0.78469571
0.80711814
0.83460054
0.86006193
0.87391836
0.87434256
0.86701848
0.8588373
0.86168682
0.87467389
0.88766436
0.94620991
0.93447786
0.93014149
0.93429306
0.93859996
0.93955064
0.93592378
0.92168544
0.89535895
0.86313438
0.82982309
0.79782271
0.76904639
0.74890418
0.74346779
0.75195077
0.77147411
0.79925604
0.8272396
0.84869856
0.8585663
0.86030487
0.85778305
0.8569555
0.85916521
0.86718048
0.87793511
0.93664241
0.92987363
0.92743999
0.9303481
0.93194553
0.9321888
0.92764808
0.91123082
0.88380331
0.85034559
0.81287348
0.77462009
0.74182536
0.72251254
0.72133607
0.7350472
0.75924465
0.78804258
0.81528577
0.83297717
0.84320082
0.85092014
0.85585655
0.85900468
0.85749763
0.86202347
0.87122251
0.93832564
0.93489607
0.93300505
0.93182164
0.93032344
0.92916389
0.92229024
0.90405568
0.87586023
0.83959362
0.79706621
0.75550884
0.72311108
0.70676228
0.70789295
0.72288594
0.74553579
0.77172613
0.7943368
0.81240148
0.82902532
0.84517852
0.85771129
0.86163478
0.85710588
0.85946858
0.86763035
0.94616349
0.94307086
0.93719108
0.9316692
0.92832511
0.92552174
0.91706677
0.89926147
0.87135617
0.83355346
0.78969559
0.74938578
0.72024273
0.70522337
0.70412888
0.71429042
0.73008048
0.7486494
0.76766547
0.78884341
0.81390539
0.83964678
0.85773513
0.86327556
0.85820737
0.85830436
0.86503807
0.95332083
0.94642713
0.93477698
0.92590672
0.9222737
0.91999356
0.91357613
0.89901968
0.87378889
0.83792132
0.79768292
0.76150084
0.7336871
0.71503831
0.70666205
0.70709409
0.71307438
0.72404082
0.7410804
0.76576224
0.79774111
0.8301323
0.85294339
0.86162689
0.85859581
0.85681336
0.86155643
0.95182327
0.94039787
0.92505876
0.9161248
0.91507113
0.91544455
0.91344916
0.9040005
0.88394913
0.85504238
0.82290415
0.79045333
0.75753796
0.7286858
0.70922153
0.69970422
0.69825891
0.70430985
0.72013304
0.74623076
0.78079945
0.81542147
0.84194395
0.85485562
0.855951
0.85453674
0.857083
0.94013536
0.92577502
0.91026421
0.90479788
0.90734256
0.91256518
0.91554809
0.91196978
0.89956959
0.88048629
0.85637833
0.82282792
0.77944233
0.73776345
0.70807584
0.69255696
0.68780074
0.69193937
0.70678432
0.73177298
0.7638543
0.7971703
0.82531337
0.84278353
0.84940793
0.85105008
0.85242443
0.92290351
0.90881475
0.89646927
0.89562369
0.90126917
0.91043968
0.91714051
0.91783333
0.91208664
0.90102144
0.88135171
0.84260718
0.78810876
0.73721666
0.70219096
0.68564184
0.68136283
0.68587128
0.69938057
0.72109862
0.74921583
0.77927562
0.8070469
0.82760369
0.8393155
0.8449847
0.84739672
0.91145073
0.90017919
0.89216692
0.89412671
0.900696
0.90920968
0.91581138
0.91780047
0.91521787
0.90740436
0.88653012
0.83997929
0.77601044
0.72188781
0.6900753
0.67787212
0.67690292
0.68294212
0.69595545
0.71532346
0.73957213
0.76623857
0.79165948
0.81271927
0.82685699
0.83601417
0.84139922
0.9115466
0.9046034
0.89824481
0.90076513
0.90593174
0.91148245
0.91403259
0.9127306
0.90834718
0.89720778
0.86368412
0.80095502
0.73648173
0.69262721
0.67205178
0.6681126
0.67227834
0.68174533
0.69599501
0.71463335
0.7369566
0.76070227
0.78270697
0.8009647
0.81448462
0.8250874
0.83284731
0.91924019
0.91461854
0.91141715
0.91239171
0.91325274
0.91225193
0.90785501
0.9008609
0.88961108
0.86176236
0.80417358
0.7386772
0.6896536
0.66259091
0.6541728
0.65745538
0.66645606
0.68022043
0.69749135
0.7177489
0.73976802
0.76172397
0.78041543
0.79448885
0.80434497
0.81333053
0.82178111
0.92802648
0.92520184
0.92061759
0.9156515
0.90890825
0.89993349
0.89005327
0.87700594
0.84779448
0.79124615
0.72830302
0.68079788
0.6522664
0.64041224
0.64091552
0.6484051
0.66148944
0.67888061
0.69946476
0.72213206
0.74525473
0.76647652
0.78272944
0.7925676
0.79806457
0.80316213
0.80968267
0.93077715
0.92452261
0.91286018
0.90012808
0.88869403
0.87870393
0.86268525
0.82562222
0.76723879
0.71083847
0.66987198
0.64399719
0.631154
0.62898116
0.63377702
0.64430859
0.6591335
0.67808854
0.7006797
0.72517589
0.74945596
0.77110904
0.78620589
0.79358645
0.79565956
0.79656756
0.7992234
0.9234609
0.90917116
0.89161589
0.88003554
0.8670121
0.83945359
0.78956845
0.73404671
0.68941683
0.65818637
0.63810491
0.62719615
0.62394937
0.62678079
0.63433831
0.64572903
0.66066993
0.67935305
0.7017204
0.72630257
0.75083967
0.77268804
0.78824099
0.79549633
0.79571082
0.7932063
0.79230615
0.90599394
0.88906548
0.87322949
0.84932032
0.80246372
0.74613655
0.6998956
0.66737758
0.64578178
0.63208396
0.62463788
0.6225557
0.62536184
0.6319251
0.64103852
0.65253836
0.6666264
0.68377899
0.70400501
0.7264312
0.74948754
0.77065564
0.78709732
0.79576681
0.79623122
0.79145736
0.78750025
0.88379883
0.86828659
0.83213418
0.7684023
0.70978877
0.67107747
0.6471108
0.63243645
0.62392441
0.61996513
0.62002019
0.62382444
0.63126216
0.64080014
0.65138764
0.66310299
0.67647337
0.69182852
0.70921664
0.72808899
0.74756853
0.76639135
0.7819069
0.79136961
0.79350995
0.78910772
0.78390823
0.86321362
0.83244577
0.7547856
0.68761726
0.64950443
0.62917894
0.61842737
0.613261
0.61190152
0.61371763
0.61844381
0.62663739
0.6374676
0.64993895
0.66280086
0.67564986
0.68892025
0.702943
0.71749309
0.73206524
0.74642235
0.75984177
0.77150449
0.77966196
0.7839123
0.782616
0.78033208
0.84064932
0.77552241
0.68676382
0.63795716
0.61557943
0.60528813
0.60116244
0.60097038
0.60346033
0.6086891
0.61688441
0.62798948
0.6414528
0.6566249
0.67245022
0.68783921
0.70238961
0.71587754
0.72778917
0.73760244
0.74523412
0.75071673
0.7553649
0.76011287
0.76607407
0.770519
0.77549173
0.80905911
0.71407702
0.6396822
0.60755637
0.59412446
0.58886362
0.58823633
0.59055098
0.59558013
0.60339601
0.61402568
0.62738858
0.64316899
0.66070021
0.67926498
0.69767916
0.71434858
0.72780133
0.73733671
0.74185191
0.74196434
0.73903188
0.73541439
0.73569315
0.74244426
0.75455862
0.76865202
0.76513515
0.66453351
0.60788501
0.58621805
0.57771452
0.57527435
0.57649633
0.58045352
0.58723579
0.59687951
0.60942703
0.62479984
0.6426649
0.66228062
0.68280664
0.70306699
0.72098454
0.73475959
0.74238639
0.74297067
0.73674904
0.72681195
0.71734791
0.71367294
0.72019643
0.73817564
0.75980998
0.71161052
0.62479197
0.58321848
0.56841696
0.56334291
0.56307509
0.56556406
0.57072298
0.57856919
0.58925448
0.60293809
0.6195734
0.63867377
0.65937784
0.68065255
0.70147705
0.71926855
0.73303055
0.7405594
0.74041603
0.73156422
0.71818553
0.70674714
0.70112505
0.70678601
0.72495232
0.74948287
0.65692371
0.59057006
0.56152129
0.55208642
0.54978282
0.55092485
0.55450562
0.56039847
0.56870915
0.57968168
0.59358981
0.61024474
0.6290748
0.64936444
0.67006161
0.68984471
0.70714121
0.72172328
0.73173918
0.73462641
0.72838078
0.71600447
0.70551919
0.69993463
0.70341897
0.71772429
0.73932872
0.60896617
0.56188315
0.54256708
0.53733596
0.53713239
0.53942849
0.54366221
0.54969833
0.55761601
0.56757306
0.5798053
0.5944041
0.61109647
0.62934497
0.64839243
0.66737869
0.6857968
0.70263431
0.71706746
0.72643961
0.72678708
0.72066392
0.71258824
0.70741097
0.70957925
0.71757344
0.72982416
0.57060211
0.5383351
0.52618078
0.52410408
0.52547775
0.52877498
0.53319869
0.53842757
0.54447581
0.55166667
0.56044993
0.57105014
0.58399767
0.59968154
0.61748771
0.63654966
0.65680678
0.6778799
0.69820654
0.71463619
0.72489981
0.7277104
0.72508563
0.72171377
0.71978742
0.71959205
0.72034906
0.54269832
0.52078808
0.51365937
0.51337207
0.5157266
0.51935002
0.52313033
0.52650068
0.52955716
0.53282272
0.53710531
0.54338211
0.55244214
0.56528669
0.58218968
0.60239966
0.6259059
0.65119676
0.67656085
0.69961853
0.71867647
0.73134774
0.73677577
0.73502654
0.72883268
0.7193642
0.70981515
0.52401365
0.50960888
0.50576174
0.50683323
0.50973365
0.51291469
0.51525548
0.51621682
0.51598233
0.51519062
0.51536067
0.51782335
0.52392946
0.53481846
0.55088641
0.57208102
0.59791318
0.62578308
0.65388553
0.68158055
0.70656354
0.72574718
0.73736287
0.7396703
0.7307126
0.71494483
0.69800402
0.51200353
0.5042195
0.50275145
0.50484773
0.50787605
0.51041635
0.51163899
0.51115751
0.50908766
0.50630688
0.50413228
0.50404744
0.50768955
0.51661246
0.53123749
0.5515702
0.57671202
0.60426908
0.63322012
0.66192438
0.68882102
0.7091094
0.72220414
0.7270764
0.72116057
0.70543903
0.68748441
0.50186644
0.49706715
0.49688479
0.4997433
0.503742
0.50722314
0.50948855
0.50983279
0.50870469
0.5063882
0.50361824
0.50215448
0.50372431
0.50979494
0.52176914
0.54031878
0.56411296
0.5907748
0.61876975
0.64535271
0.66786471
0.68401021
0.69556336
0.70212228
0.70106407
0.69186991
0.67913442
0.48485608
0.48160864
0.48399019
0.48931576
0.49586309
0.50210015
0.50697673
0.51038303
0.5114293
0.51089116
0.5093182
0.50766583
0.50787508
0.51165904
0.5210284
0.53729284
0.55982178
0.58563836
0.61072177
0.63233082
0.64861756
0.6581109
0.66547272
0.67346782
0.67731542
0.67889204
0.67401536
0.45944648
0.45895819
0.46457814
0.47380818
0.48400393
0.49367222
0.50191648
0.50801194
0.51235129
0.51422391
0.51489916
0.51457075
0.51503828
0.51831305
0.52659196
0.54153593
0.56237632
0.58596655
0.60702794
0.62283641
0.6338501
0.63916378
0.64361424
0.6517586
0.66207567
0.66888912
0.67100644
0.43184931
0.43586281
0.44595576
0.45846553
0.47152926
0.48385247
0.49444409
0.50275752
0.50894902
0.51344247
0.51599016
0.51786419
0.52053669
0.52476243
0.53380048
0.54856601
0.56714257
0.58633909
0.60234627
0.61438507
0.62226002
0.62789574
0.63271398
0.6416531
0.65399762
0.66401334
0.66903561
0.41405691
0.4220164
0.43432316
0.44711688
0.46000758
0.47227863
0.4831414
0.49229062
0.49953437
0.50528615
0.50987905
0.51422628
0.51946193
0.52700789
0.53774106
0.55150311
0.56645376
0.58119518
0.594013
0.60456481
0.61343586
0.62107802
0.62892398
0.63906186
0.64981519
0.66054773
0.66523572
0.40381342
0.4114678
0.42283253
0.43452391
0.4458834
0.45665994
0.46641957
0.47458149
0.48135865
0.4871663
0.49249504
0.49819511
0.50538535
0.51491616
0.52658268
0.53937753
0.55220412
0.56449025
0.57644926
0.58860808
0.60109668
0.61374301
0.62602407
0.63755419
0.64732042
0.65370761
0.65763536
0.36191171
0.368278
0.38059701
0.39461462
0.40845172
0.42091388
0.43115399
0.43868449
0.44349733
0.44607791
0.44767975
0.45063627
0.45678737
0.4667858
0.47991909
0.49398355
0.50820961
0.52247029
0.53800593
0.55611797
0.5762535
0.59648017
0.61519459
0.62950447
0.63903169
0.64312908
0.64431811
0.29335439
0.30425985
0.31957572
0.33451134
0.34760198
0.35730415
0.36263295
0.36234461
0.3570962
0.3476659
0.33702051
0.33026191
0.33118368
0.33922426
0.35355859
0.37085883
0.39084406
0.41496285
0.44398065
0.47834031
0.51578461
0.55220091
0.58314871
0.60514186
0.6174692
0.62188669
0.62269968
0.28168437
0.27930178
0.2767673
0.27278526
0.26688523
0.25880037
0.24862173
0.2377449
0.22743673
0.21881887
0.21330061
0.21176995
0.21423019
0.22062995
0.23121749
0.24594064
0.26537908
0.29036814
0.32212138
0.36288014
0.41247539
0.46479465
0.51210735
0.54724181
0.56845996
0.57937871
0.58560385
0.23006206
0.21861033
0.21450474
0.21356334
0.21461041
0.21608834
0.21712081
0.21726396
0.21671741
0.2159254
0.21507197
0.21402679
0.21237813
0.21024381
0.20918084
0.21106717
0.21768586
0.23054894
0.24980871
0.27596378
0.3115548
0.35951744
0.41275232
0.46005465
0.49347333
0.51568649
0.53346276
0.13182477
0.13624339
0.14897274
0.16975922
0.19409774
0.21685821
0.23517591
0.24755457
0.25378987
0.25654287
0.25719567
0.25466817
0.24819234
0.23748132
0.22498306
0.21415479
0.20794834
0.20816471
0.21725948
0.23504004
0.25924429
0.2894479
0.32882932
0.37166999
0.410176
0.44226325
0.47233631
0.11736711
0.12658494
0.14615216
0.17455107
0.20944115
0.24543868
0.27671772
0.29982102
0.31320406
0.31658744
0.31470366
0.31034044
0.30361476
0.29138572
0.27409654
0.25462024
0.23629159
0.22495522
0.22363695
0.23372152
0.25195723
0.27362526
0.2963734
0.32360744
0.35027753
0.37898122
0.41541112
0.19265932
0.21504559
0.24590927
0.27494578
0.30024195
0.32181435
0.33875255
0.35134334
0.35953615
0.36165278
0.35902259
0.35340159
0.34529624
0.33395015
0.31839417
0.29914293
0.27824266
0.26200308
0.2545985
0.25735979
0.26754065
0.28295563
0.29726781
0.31095392
0.32810917
0.34767995
0.3754385
0.31466617
0.32670499
0.33587455
0.34372643
0.3514868
0.35893755
0.36596296
0.37242699
0.3768611
0.37836741
0.37707585
0.37312024
0.36632512
0.35669649
0.34359604
0.32721779
0.31083268
0.29763003
0.29058368
0.29046472
0.29518949
0.30301288
0.30932673
0.31528965
0.3248176
0.33422045
0.34739888
0.34437405
0.34932523
0.35445884
0.35966213
0.36515667
0.37079071
0.37619374
0.38114012
0.38478786
0.38646474
0.38593163
0.3829426
0.377428
0.36911848
0.35796614
0.34503186
0.33368738
0.32505291
0.32095016
0.32142454
0.32468937
0.32960415
0.33133427
0.33012081
0.32960621
0.32735782
0.32506091
0.34454412
0.34955817
0.35497346
0.36060592
0.36662248