/*--------------------------------*- C++ -*----------------------------------*\
| =========                 |                                                 |
| \\      /  F ield         | OpenFOAM: The Open Source CFD Toolbox           |
|  \\    /   O peration     | Version:  2406                                  |
|   \\  /    A nd           | Website:  www.openfoam.com                      |
|    \\/     M anipulation  |                                                 |
\*---------------------------------------------------------------------------*/
FoamFile
{
    version     2.0;
    format      ascii;
    arch        "LSB;label=32;scalar=64";
    class       volScalarField;
    location    "21";
    object      T;
}
// * * * * * * * * * * * * * * * * * * * * * * * * * * * * * * * * * * * * * //

dimensions      [0 0 0 1 0 0 0];

internalField   nonuniform List<scalar> 
96472
(
1.0019156
1.0015348
1.0011679
1.0006602
1.0000715
0.99955383
0.99923905
0.9992239
0.99930753
0.99935472
0.99918261
0.99889475
0.99849182
0.99815952
0.99798683
0.99801708
0.99828127
0.99876979
0.99938518
1.0000842
1.000708
1.0012374
1.0016791
1.0019536
1.0020881
1.0021059
1.0020033
1.0018527
1.0017066
1.0015847
1.0014568
1.0013546
1.0012869
1.0012259
1.0011697
1.0011248
1.0010866
1.0010499
1.0010088
1.000961
1.0008901
1.0007813
1.0007162
1.0005619
1.000449
1.0003385
1.0002345
0.9999907
0.99997488
0.99977773
0.99972178
0.99956547
0.99937644
0.9994094
0.99907165
1.0018994
1.0015041
1.0011257
1.0006098
1.0000111
0.9994876
0.99916881
0.9991455
0.99924187
0.99930963
0.99919297
0.99889881
0.99852844
0.99818803
0.99796328
0.99800458
0.99821055
0.9986576
0.99924222
0.99991066
1.0005995
1.0011563
1.0015808
1.0018634
1.0020326
1.0020126
1.0019512
1.001811
1.0016525
1.0015165
1.0013911
1.0012964
1.0012062
1.0011423
1.0010796
1.0010369
1.000993
1.0009685
1.0009283
1.0008819
1.0008004
1.0007539
1.0006064
1.0005471
1.0004106
1.0002954
1.0001185
1.0000661
0.99986029
0.99976507
0.99964424
0.99948025
0.99945443
0.99917306
0.99921662
1.0018807
1.0014631
1.0010713
1.0005498
0.99994481
0.99941592
0.99909404
0.99904961
0.99918883
0.99925962
0.99919109
0.99891658
0.9985526
0.99819289
0.99797796
0.99794697
0.9981574
0.99856893
0.99917308
0.99980757
1.0004429
1.001043
1.0015114
1.0018362
1.0019586
1.0019516
1.0018585
1.0017412
1.0016042
1.0014523
1.0013223
1.0012207
1.0011293
1.0010512
1.000993
1.0009455
1.000912
1.0008676
1.0008423
1.0007941
1.0007525
1.0006363
1.0005973
1.0004617
1.0003693
1.0002343
1.0001474
0.99994249
0.99985879
0.99972122
0.9995647
0.99948228
0.99928826
0.99925023
0.99912791
1.0018626
1.0014253
1.0010152
1.0004937
0.99988866
0.99934993
0.99900964
0.99896833
0.99911721
0.99922991
0.9991649
0.99895032
0.99857183
0.99821092
0.99799136
0.99790074
0.99808654
0.99848361
0.9990476
0.99971259
1.0003282
1.0009096
1.0014044
1.0017475
1.0018917
1.0019535
1.0018704
1.001728
1.0015796
1.0014273
1.0012868
1.0011608
1.0010592
1.00098
1.0009148
1.0008638
1.0008156
1.0007909
1.0007492
1.0007264
1.0006436
1.0006308
1.0004963
1.0004464
1.000318
1.0002312
1.0000631
0.99997767
0.99983894
0.99966325
0.99959728
0.99942407
0.99931402
0.99922675
0.99896053
1.0018447
1.0013835
1.0009617
1.0004281
0.99981716
0.99928298
0.99892097
0.99890406
0.99902842
0.99919941
0.99915363
0.99895994
0.99860752
0.99824907
0.99796874
0.99790198
0.99801652
0.998376
0.99889421
0.99954224
1.0002328
1.0008129
1.0012878
1.0016169
1.0018329
1.0018776
1.0018345
1.0016925
1.0015213
1.0013704
1.0012215
1.0010953
1.0009909
1.0009039
1.0008324
1.0007819
1.0007475
1.0006994
1.0006914
1.0006408
1.0006269
1.0005132
1.0004945
1.0003653
1.0003115
1.0001651
1.0000957
0.99992216
0.9998173
0.99969026
0.99955813
0.99940554
0.99935451
0.99905737
0.99920843
1.0018256
1.0013481
1.0009066
1.0003719
0.99976004
0.99920966
0.99885504
0.99882188
0.99897678
0.99914365
0.99916069
0.99896682
0.99863968
0.99827434
0.99797251
0.9978785
0.99796668
0.99829287
0.99881376
0.99942008
1.0000799
1.0007015
1.0012004
1.0015617
1.0017872
1.0017981
1.00174
1.0016223
1.0014683
1.001311
1.0011574
1.0010325
1.0009193
1.0008261
1.0007518
1.0006931
1.0006517
1.0006398
1.0005937
1.0005755
1.0005095
1.0004919
1.0003975
1.0003406
1.0002426
1.0001456
1.0000228
0.99992266
0.99979238
0.99965333
0.99956346
0.99942074
0.99928413
0.9992558
0.9989502
1.0018056
1.0012995
1.0008493
1.0003078
0.99969004
0.99913609
0.99877683
0.9987258
0.99891532
0.99909454
0.99915176
0.99898955
0.99866675
0.99827828
0.99800019
0.99782567
0.99791461
0.99820941
0.9987139
0.9993357
0.99993529
1.0005419
1.0010848
1.0015029
1.0017055
1.0017849
1.0017316
1.0016058
1.00146
1.0012854
1.0011276
1.0009872
1.0008686
1.0007678
1.0006832
1.0006264
1.0005863
1.0005341
1.0005346
1.0004827
1.0004773
1.0003927
1.000356
1.0002827
1.0002003
1.0001111
1.0000339
0.99985797
0.99980226
0.99966557
0.99952411
0.99941622
0.99930086
0.99913708
0.99910753
1.0017763
1.0012569
1.0007881
1.0002464
0.99963499
0.99907658
0.99870179
0.99866676
0.99884374
0.99906925
0.99912079
0.99901481
0.99868786
0.99831466
0.99800783
0.99781274
0.99786061
0.99812537
0.99856758
0.99917174
0.99983076
1.0004403
1.0009706
1.0013611
1.0015944
1.00172
1.0017146
1.0015911
1.0014211
1.0012517
1.0010894
1.0009367
1.0008111
1.0007055
1.0006174
1.0005491
1.0004998
1.0004879
1.0004446
1.000437
1.0003896
1.0003647
1.0003225
1.0002289
1.000177
1.0000606
0.99994634
0.99991473
0.999774
0.99961097
0.99957396
0.99933554
0.99936827
0.99914309
0.99909486
1.0017387
1.0012027
1.0007311
1.0001825
0.99956734
0.9990051
0.99861792
0.99860153
0.99876323
0.9990263
0.99912836
0.999015
0.99872908
0.9983605
0.99799376
0.99782372
0.99781477
0.99804028
0.99846707
0.99902692
0.99968867
1.0003206
1.0008514
1.0012491
1.0015577
1.0016424
1.0016225
1.0015249
1.0013602
1.001201
1.0010331
1.000885
1.0007523
1.0006387
1.0005431
1.0004767
1.0004322
1.0003923
1.0003986
1.0003603
1.0003416
1.0002946
1.0002365
1.0002029
1.0001036
1.0000334
0.99999907
0.99982427
0.99972186
0.99969313
0.99943046
0.99949862
0.99919868
0.99923133
0.99904504
1.0017024
1.0011572
1.0006727
1.0001245
0.99951312
0.99894462
0.99856646
0.9985269
0.99872193
0.99896889
0.99912585
0.99902159
0.99875574
0.99836984
0.99802557
0.99780001
0.99777295
0.99797855
0.99839958
0.99895269
0.99954293
1.0001614
1.0007328
1.0011959
1.001492
1.0016085
1.0015849
1.001488
1.0013525
1.0011768
1.0010049
1.0008479
1.000711
1.0005918
1.0004988
1.0004137
1.0003737
1.0003417
1.0003119
1.0002876
1.0002646
1.0002261
1.0002136
1.000109
1.0000836
1.0000238
0.99987682
0.99984371
0.99979149
0.99954386
0.99960162
0.99929977
0.99934344
0.99922611
0.99910589
1.0016878
1.0011261
1.0006328
1.0000787
0.99946348
0.99888682
0.9984986
0.99844513
0.9986683
0.99893263
0.99910027
0.99905057
0.99878617
0.99839409
0.99805876
0.99776785
0.997745
0.99790463
0.99827627
0.99882081
0.9994271
1.0000377
1.0006082
1.0010793
1.0013488
1.0015311
1.0015717
1.0014861
1.0013333
1.0011521
1.0009801
1.0008123
1.0006703
1.0005482
1.0004452
1.0003705
1.0002991
1.0002731
1.0002532
1.0002396
1.0001963
1.0001923
1.0001262
1.0001148
1.0000587
0.99993604
0.99993273
0.99981598
0.99966628
0.99966255
0.99946674
0.99941012
0.99939549
0.9991277
0.99902453
1.0016718
1.0010958
1.0005894
1.0000303
0.99941211
0.99883527
0.99842974
0.99840382
0.99858993
0.99890949
0.99908271
0.99905699
0.99880445
0.99843993
0.99805549
0.99778908
0.99770698
0.99784629
0.99817262
0.99866255
0.99929687
0.99992399
1.0004926
1.0009219
1.0012752
1.0014509
1.0014889
1.0014344
1.0012744
1.0011163
1.0009415
1.0007753
1.0006284
1.0004985
1.0003906
1.0002971
1.0002514
1.0001997
1.0001984
1.0001618
1.0001745
1.0001147
1.0001122
1.0000423
0.99998312
0.99997359
0.99986191
0.99974663
0.99974258
0.99959353
0.99949208
0.99945741
0.99924504
0.99914917
0.9992349
1.0016833
1.0010859
1.0005697
0.99999861
0.99937352
0.99878815
0.99838104
0.99835121
0.99854274
0.99886108
0.99908285
0.99905671
0.9988416
0.99847775
0.99806881
0.99780447
0.99768476
0.99779183
0.99812111
0.99858532
0.99916983
0.99978066
1.0003481
1.0008326
1.0012288
1.0014134
1.0014321
1.0013765
1.0012609
1.0010972
1.0009201
1.0007506
1.0005983
1.0004635
1.0003516
1.0002674
1.0001943
1.0001749
1.0001351
1.0001325
1.0000788
1.000077
1.0000357
1.0000083
0.99998703
0.99989438
0.99979777
0.99981564
0.99966801
0.9995706
0.99958311
0.99931608
0.99934422
0.9993228
0.99905995
1.0016803
1.0010696
1.0005442
0.99996677
0.99933384
0.99874092
0.99833105
0.99828011
0.99850141
0.99880868
0.99907517
0.99906541
0.99887102
0.9984815
0.99811259
0.9977816
0.99766031
0.99774525
0.99803595
0.99850568
0.99905549
0.99963903
1.0002238
1.0007645
1.0010939
1.0013204
1.0014102
1.0013678
1.0012573
1.0010852
1.0008999
1.0007257
1.0005726
1.0004379
1.000321
1.0002231
1.0001681
1.0001004
1.0001007
1.0000654
1.0000606
1.0000285
1.000004
0.99997071
0.99993425
0.99985517
0.99988931
0.9996725
0.99969101
0.99966455
0.99939046
0.99950344
0.9993392
0.99922954
0.99905473
1.0016958
1.0010673
1.0005307
0.99994529
0.9993057
0.99870564
0.99829145
0.99823442
0.99845753
0.99878864
0.99903495
0.99909333
0.99888413
0.99852328
0.99813923
0.99778471
0.99764921
0.99770588
0.99794003
0.99836474
0.99893216
0.99953428
1.0001184
1.0006049
1.0009762
1.0012253
1.0013399
1.0013367
1.001206
1.0010508
1.0008821
1.0007053
1.0005514
1.0004104
1.0002855
1.0001859
1.000102
1.0000765
1.0000386
1.0000267
1.0000172
0.999983
0.99996644
0.99992539
0.99988859
0.99989089
0.9997109
0.99978671
0.99968337
0.99949511
0.99960727
0.99938934
0.99931472
0.9992454
0.99929092
1.0016909
1.0010575
1.0005199
0.99992421
0.99927556
0.99866994
0.99823596
0.9981968
0.99838976
0.99875952
0.99902908
0.99908936
0.99890518
0.99857104
0.99813507
0.99782007
0.99763654
0.99766225
0.99789748
0.99827179
0.9988292
0.99940986
0.99998776
1.0004624
1.0009218
1.0011936
1.0012742
1.0012662
1.0011792
1.0010381
1.0008648
1.0006954
1.0005308
1.0003827
1.0002542
1.0001569
1.0000797
1.0000288
1.0000068
0.99999014
0.99995862
0.99994698
0.99990728
0.99989823
0.99986872
0.99978948
0.99980373
0.9997117
0.99961513
0.99963897
0.99952176
0.99933603
0.99947385
0.99929397
0.99910499
1.0016873
1.0010465
1.0004956
0.99990373
0.99925009
0.99864366
0.99820783
0.99816066
0.99835934
0.99870903
0.99902833
0.99908557
0.99893314
0.99858063
0.99817445
0.99783129
0.99763024
0.99764091
0.99784658
0.99823425
0.99872905
0.99928568
0.99985029
1.0004094
1.0008228
1.0011007
1.0012389
1.0012358
1.0011792
1.0010382
1.0008559
1.0006827
1.0005142
1.0003637
1.0002451
1.0001332
1.0000578
0.9999971
0.99996587
0.99993964
0.99993312
0.99990424
0.99990574
0.99984239
0.9998481
0.99978246
0.99977809
0.99965731
0.99968644
0.99960001
0.999428
0.99955557
0.99935245
0.99920041
0.9991912
1.001681
1.001034
1.0004892
0.99988288
0.99922939
0.9986108
0.99817571
0.99809981
0.99833129
0.99867381
0.99899802
0.99910333
0.99895962
0.99860521
0.99822195
0.99782462
0.99761794
0.99761198
0.99777311
0.99813897
0.99862207
0.99917495
0.99974575
1.0003064
1.0006957
1.0009861
1.001174
1.0012197
1.0011504
1.0010074
1.0008475
1.0006699
1.0005103
1.0003612
1.000229
1.0001221
1.0000225
0.99997172
0.99993598
0.99992281
0.99989515
0.99990329
0.99984305
0.99986804
0.99977549
0.99979724
0.99967908
0.99974169
0.99962972
0.99954762
0.99959354
0.99940454
0.99931915
0.99930882
0.99925672
1.0016769
1.0010267
1.0004641
0.99986601
0.9992106
0.99859209
0.99814362
0.99807567
0.99828223
0.99866309
0.9989761
0.99911142
0.99895977
0.99864916
0.99822827
0.99785187
0.99763362
0.99759338
0.99773297
0.99803719
0.99852883
0.99908406
0.99966971
1.0001429
1.0006104
1.0009498
1.0011115
1.0011591
1.001112
1.0009986
1.0008436
1.0006704
1.0005098
1.000358
1.0002138
1.0000944
1.0000141
0.99994724
0.99991902
0.99988533
0.99988388
0.99983865
0.99985423
0.99978114
0.99979313
0.99971069
0.99976157
0.99964318
0.99961966
0.9996368
0.99943579
0.99948315
0.9994079
0.9993159
0.99912226
1.0016727
1.0010168
1.0004511
0.99985111
0.9991935
0.99857356
0.99811509
0.99805087
0.99823745
0.99862899
0.99897664
0.99910855
0.99898252
0.99867933
0.99824856
0.99788709
0.99763152
0.99757466
0.99771141
0.99801028
0.99845661
0.99898948
0.99953639
1.0000578
1.0005341
1.0008809
1.001067
1.001114
1.001091
1.0010055
1.0008462
1.0006749
1.0005063
1.0003485
1.000209
1.000092
0.99999808
0.99993639
0.99988682
0.99986451
0.99983689
0.99984053
0.99979988
0.99979296
0.99976717
0.99973459
0.99970665
0.99963792
0.99968664
0.99949697
0.99956851
0.99947334
0.99935143
0.9992465
0.9992953
1.00167
1.0010097
1.0004451
0.99984169
0.99918412
0.99855823
0.99810312
0.99801762
0.99822359
0.99859033
0.99896967
0.99910601
0.99901683
0.99868843
0.99829616
0.9978959
0.99762791
0.9975589
0.99766643
0.99796761
0.99838156
0.99889515
0.99941933
1.0000046
1.0004403
1.0007644
1.0009969
1.0011011
1.0010893
1.0009915
1.000844
1.0006804
1.0005077
1.0003513
1.0002152
1.0000987
0.99999722
0.99991445
0.99986978
0.99984519
0.99983623
0.99981058
0.99979786
0.99980169
0.99972759
0.99975681
0.9996518
0.99969132
0.99959018
0.99956259
0.99958168
0.99936977
0.99938398
0.99937466
0.99931616
1.0016673
1.0010038
1.000434
0.99983438
0.99917917
0.99854518
0.99807861
0.99798427
0.99819782
0.99857334
0.99893999
0.99912204
0.99902446
0.99872244
0.9983283
0.99791072
0.9976485
0.99755767
0.99762895
0.9978782
0.99828771
0.99880498
0.999369
0.99987536
1.0003359
1.000704
1.0009418
1.0010615
1.0010606
1.0009753
1.0008508
1.0006861
1.0005209
1.0003649
1.0002256
1.0000948
0.9999898
0.99990955
0.99986314
0.99983396
0.99981439
0.99979252
0.99980283
0.9997274
0.99976558
0.99966958
0.99969763
0.99963602
0.99958661
0.99962597
0.99940469
0.99954171
0.99937856
0.99945046
0.99919455
1.0016637
1.0009963
1.0004242
0.99982699
0.99917205
0.99853729
0.99807023
0.99797241
0.99815624
0.99855771
0.99892213
0.99912115
0.99902321
0.99875831
0.99833777
0.99794366
0.99765608
0.99754235
0.99760807
0.99782475
0.99821415
0.99871704
0.99926194
0.99974555
1.0002351
1.0006464
1.0009011
1.0010093
1.0010249
1.00098
1.0008626
1.0007028
1.0005349
1.0003756
1.0002246
1.0000917
0.99997906
0.99990019
0.99984173
0.99980585
0.99977128
0.99977298
0.99972433
0.99974885
0.99969054
0.99969057
0.99965392
0.99962625
0.99961981
0.99949407
0.9995618
0.99946059
0.9993957
0.99940688
0.99923313
1.0016522
1.0009716
1.0003908
0.99980213
0.99915517
0.99852425
0.99804848
0.99793396
0.99810716
0.99848773
0.99888499
0.99907501
0.99902586
0.99875805
0.9983593
0.99796819
0.99764914
0.99750829
0.99754647
0.99775541
0.99810101
0.99857502
0.99905888
0.99962654
1.000123
1.0005144
1.0007996
1.0009683
1.0010045
1.0009717
1.0008601
1.0007075
1.0005381
1.0003717
1.0002157
1.0000805
0.99996495
0.99986653
0.99978593
0.99973681
0.9997178
0.99968298
0.99968145
0.99965996
0.99963699
0.99963181
0.99958868
0.99957547
0.99952321
0.99948759
0.9995367
0.99929647
0.99950918
0.99923086
0.99935194
1.0015739
1.0008769
1.0002873
0.99970982
0.99910126
0.9984936
0.99802024
0.99786587
0.99801198
0.99834636
0.99873343
0.99894651
0.99893395
0.99869486
0.9983466
0.99794222
0.99761527
0.9974353
0.99741556
0.99755541
0.99783854
0.99824846
0.99875627
0.99932039
0.99984585
1.0002944
1.0006452
1.000888
1.0009756
1.0009561
1.0008597
1.0007158
1.0005465
1.0003673
1.0001979
1.0000412
0.99989915
0.99977387
0.99966851
0.99960226
0.99955505
0.99951953
0.99949768
0.99946011
0.99947714
0.99940573
0.99942604
0.99935667
0.99934252
0.99935247
0.9992165
0.99928056
0.99927818
0.99910018
0.99924777
1.0013981
1.0007115
1.0000513
0.99942727
0.99888234
0.99835256
0.99791364
0.99771379
0.99780097
0.9980897
0.99841951
0.99864893
0.99864872
0.99849292
0.99819538
0.99782023
0.99750346
0.99729509
0.99723964
0.99728702
0.99745952
0.99772407
0.99816186
0.99869486
0.99934347
0.99999036
1.0004736
1.0007978
1.0009154
1.0009738
1.0009253
1.0007836
1.0006106
1.0004295
1.0002356
1.0000375
0.99985948
0.99968958
0.99954467
0.99943967
0.9993581
0.99928138
0.99920554
0.99919861
0.99912496
0.99913429
0.99906534
0.99904915
0.99900652
0.99897132
0.99892036
0.99902102
0.99876341
0.99897544
0.99878358
1.0012403
1.0004551
0.99964949
0.99902778
0.99840399
0.99793561
0.99762792
0.99740652
0.99748442
0.99781122
0.99810267
0.99823878
0.99826482
0.99816489
0.99794217
0.99764814
0.99736407
0.99719136
0.99713528
0.99718096
0.99718586
0.99716592
0.99704891
0.99779642
0.99893776
0.99984769
1.0004991
1.0008439
1.0010798
1.0010612
1.0010423
1.0009919
1.0008522
1.0006872
1.0004829
1.000266
1.0000229
0.99980607
0.99957863
0.99940838
0.9992819
0.99917271
0.9990798
0.99897656
0.99893612
0.99887249
0.99882873
0.99877741
0.99872139
0.99866739
0.99863826
0.99856045
0.99853354
0.99858149
0.9983951
0.99843966
0.99875822
0.99901231
0.99918293
0.99926507
0.99921214
0.99914269
0.99917613
0.99914857
0.99904971
0.99908705
0.99902997
0.9989782
0.99908271
0.99899577
0.99894549
0.99899323
0.99891522
0.99895021
0.99892642
0.99892374
0.99896623
0.9988707
0.99898758
0.99894647
0.99900053
0.99908403
0.99831611
0.99868089
0.99899354
0.99908807
0.99908959
0.99913135
0.99907677
0.99902071
0.99903178
0.99899702
0.99892826
0.9989297
0.99889122
0.9988143
0.99889197
0.99883015
0.99880407
0.99880955
0.99875087
0.99877959
0.99876942
0.99877707
0.9987905
0.99877317
0.998811
0.99882759
0.99884531
0.99827795
0.99861287
0.99887703
0.99901948
0.99901966
0.99894088
0.99898326
0.99891807
0.99885633
0.99886262
0.99881919
0.99878104
0.99875103
0.99873975
0.99864451
0.99872469
0.99863969
0.99865345
0.99863436
0.99859702
0.99861552
0.99859567
0.99863043
0.99861457
0.99862001
0.99864963
0.99866045
0.99817384
0.99853068
0.99879897
0.99884094
0.99890174
0.99886586
0.99875388
0.99882667
0.99872145
0.99867901
0.9986981
0.99859943
0.99861624
0.99855695
0.99856919
0.99848228
0.99855465
0.99848631
0.99852182
0.99847634
0.99845264
0.99846939
0.99842269
0.99847679
0.99845595
0.99845373
0.99851862
0.99809715
0.99838655
0.99864364
0.99876364
0.99867665
0.99873856
0.99868758
0.99854582
0.998652
0.99854204
0.99846022
0.99853971
0.99837671
0.9984342
0.99835731
0.99838352
0.99833056
0.99838348
0.99834091
0.99837343
0.99834186
0.99830213
0.99832705
0.99827539
0.998314
0.99830463
0.99831408
0.9979719
0.9982522
0.99850454
0.99858373
0.9985595
0.99852503
0.99852688
0.99847164
0.99838614
0.9984391
0.99835607
0.99829672
0.99834332
0.99821608
0.9982509
0.99822482
0.99815763
0.99821547
0.99817773
0.99817847
0.99821469
0.99816528
0.99819602
0.99812478
0.99815365
0.99812465
0.99815234
0.99787948
0.9981543
0.99832187
0.99839344
0.99843214
0.99830489
0.99832363
0.99832986
0.99818945
0.99824136
0.99821407
0.99810909
0.99819202
0.9980955
0.99810285
0.99807503
0.99806113
0.99801614
0.99801059
0.99803509
0.99798184
0.99805457
0.99798084
0.99803046
0.99794401
0.99797224
0.99796587
0.99774408
0.99803199
0.99816036
0.99818752
0.99822167
0.99820203
0.99811627
0.9981019
0.99812681
0.99796602
0.99804608
0.99801332
0.99788224
0.99802676
0.99788557
0.9979121
0.99793017
0.9978207
0.99790239
0.99778813
0.99787636
0.99779523
0.99788023
0.99779349
0.99783693
0.99776376
0.99779816
0.99762932
0.99787014
0.99801397
0.99800644
0.99801119
0.99802598
0.99795174
0.99791609
0.99792983
0.99783531
0.99781779
0.99783814
0.9977904
0.99773943
0.99782384
0.99769603
0.99774345
0.99774947
0.99764947
0.99774452
0.9976199
0.99768717
0.9976271
0.99769036
0.99761292
0.99763579
0.9976072
0.99751043
0.99767907
0.99786425
0.99784665
0.99780358
0.99785747
0.99778271
0.99769887
0.99775846
0.99768962
0.99760807
0.99766926
0.99759518
0.99760015
0.99761866
0.99754304
0.99758213
0.9975562
0.99753429
0.9975471
0.99753412
0.99748051
0.99749403
0.99745646
0.99748008
0.99743565
0.99745551
0.99747941
0.99754579
0.99767498
0.99771986
0.99759743
0.99763305
0.99767424
0.99751497
0.99751344
0.99757874
0.99742843
0.99748663
0.99745835
0.99737794
0.9974661
0.99739337
0.99736711
0.99741227
0.99734019
0.99734917
0.99739653
0.99730081
0.99735497
0.99724647
0.99732096
0.99720674
0.9972948
0.99727838
0.99732786
0.99743953
0.997559
0.99740813
0.99742785
0.99750656
0.99731113
0.99738076
0.99738254
0.99723447
0.99737867
0.99723251
0.9972597
0.997284
0.99718377
0.99725668
0.99718036
0.99722795
0.99713018
0.99721555
0.99710972
0.99721256
0.99705335
0.9971657
0.99699172
0.99710817
0.99748084
0.99710678
0.99728122
0.99724977
0.997253
0.99726205
0.99722798
0.99723426
0.9971734
0.99713714
0.99717783
0.99710687
0.99710198
0.99709632
0.99703381
0.99709272
0.99702313
0.99702007
0.99703461
0.99701541
0.99696569
0.99700005
0.99694211
0.99693219
0.99691653
0.99686501
0.99684877
0.99714758
0.99713989
0.99706417
0.99707824
0.99700787
0.99710157
0.99705682
0.99699164
0.9970821
0.9969674
0.99696328
0.99696416
0.99692172
0.99697462
0.99681802
0.99694421
0.99683169
0.99683407
0.99689309
0.99675889
0.99686352
0.99678289
0.99679151
0.9967272
0.9967314
0.99667164
0.99665292
0.99573087
0.99606795
0.99644423
0.99663238
0.99679012
0.99685102
0.99685494
0.99687184
0.99686621
0.99683288
0.99679394
0.99680166
0.99677398
0.99672991
0.99675202
0.99669467
0.99670971
0.99669034
0.99665383
0.99665593
0.99662638
0.99664256
0.99654634
0.99661516
0.9964948
0.99652769
0.99642475
0.99787134
0.99675156
0.99690983
0.99677233
0.99681165
0.99670636
0.99671963
0.99670074
0.99670651
0.99669499
0.99659882
0.99667792
0.99655511
0.99660004
0.99662016
0.99643568
0.99660429
0.99648158
0.99650344
0.99649111
0.99644904
0.99642638
0.99640158
0.99641618
0.99629872
0.99634763
0.99623722
0.99644675
0.99705376
0.99658037
0.99664659
0.99662563
0.99657238
0.99657481
0.99657042
0.99647825
0.99650069
0.99651537
0.99642562
0.99643668
0.99645864
0.99637479
0.99635039
0.99639549
0.99634923
0.99629306
0.99632505
0.99628129
0.99623441
0.99623524
0.99621755
0.99610377
0.99616735
0.99604475
0.99511531
0.99463854
0.9950307
0.99556666
0.99595973
0.99614308
0.99629658
0.99625753
0.99637087
0.99636186
0.99626879
0.99635939
0.99622587
0.99632978
0.99620677
0.99620547
0.99627767
0.99607545
0.99622912
0.99605844
0.99619972
0.99598036
0.99610272
0.99599996
0.99593035
0.99600475
0.99583124
0.99689912
0.9954683
0.99587429
0.99592858
0.99624786
0.99618967
0.99626619
0.99617336
0.99626269
0.99616441
0.99614701
0.99619149
0.99610859
0.9961383
0.9960771
0.99609163
0.99604513
0.99600675
0.99602489
0.99594081
0.9959718
0.99582625
0.99594318
0.99579489
0.99577364
0.99578801
0.99566576
0.99709111
0.9971487
0.99611719
0.99639233
0.99632178
0.99622213
0.9962223
0.9961081
0.99610453
0.99601963
0.99599007
0.99603726
0.99596273
0.99594012
0.99594817
0.9959047
0.99587052
0.99585209
0.99584017
0.99579357
0.9957673
0.9956732
0.99576933
0.99559532
0.99560183
0.99557374
0.99553254
0.99608391
0.99572974
0.99566157
0.99564761
0.99593618
0.99593312
0.99595797
0.99595617
0.99586358
0.9958547
0.99586712
0.99575376
0.99588416
0.99564631
0.99581517
0.99572668
0.99560951
0.99576657
0.99556701
0.9957164
0.99548232
0.99557773
0.99550909
0.9954467
0.995405
0.99539393
0.99535287
0.99513018
0.99497785
0.99480424
0.99497467
0.99521783
0.99543351
0.99560127
0.99561643
0.99561344
0.9956413
0.99565984
0.99557993
0.99563377
0.99550577
0.99563556
0.99551841
0.99546804
0.99553416
0.99545137
0.99543982
0.99540375
0.99535309
0.99535974
0.99525861
0.99525661
0.99520011
0.99515783
0.99498788
0.99501417
0.99481173
0.9950034
0.99513699
0.99536602
0.99547453
0.9954009
0.99553157
0.99543854
0.99548323
0.99546658
0.99533461
0.9954806
0.9953256
0.99540397
0.99527104
0.99528848
0.99535294
0.99513774
0.99531386
0.99504455
0.99526838
0.99500587
0.99511243
0.99498866
0.99498709
0.99501078
0.99510075
0.99491587
0.99504555
0.99516597
0.99531608
0.99533629
0.99533701
0.99535233
0.99531643
0.99535484
0.99523915
0.99527305
0.9952444
0.99520752
0.99521914
0.99508203
0.99519152
0.99508898
0.9950188
0.99503543
0.99492999
0.99505212
0.99484179
0.99490375
0.99482199
0.99480795
0.99489299
0.99506814
0.9949203
0.99503879
0.99513078
0.99524137
0.99517774
0.99515168
0.99524235
0.99510165
0.99517183
0.99505364
0.99506628
0.99510668
0.99496821
0.99503866
0.99486464
0.99504179
0.99483638
0.99488047
0.99481175
0.99478325
0.99483745
0.99466115
0.99469987
0.99459614
0.99460315
0.99472712
0.99498295
0.99484745
0.99498266
0.99506425
0.99505827
0.9950258
0.99499161
0.99497836
0.99503734
0.9948531
0.99493787
0.99486493
0.99485571
0.99490625
0.99468892
0.99483594
0.99469183
0.99474587
0.99467318
0.99458561
0.99463588
0.99452747
0.99458851
0.99441537
0.99443263
0.99437392
0.99481229
0.9948332
0.9946787
0.99482326
0.99486997
0.9948676
0.99485273
0.99480749
0.99480032
0.99485522
0.99468416
0.99477723
0.9946645
0.99469633
0.99473571
0.99452037
0.99467494
0.99444946
0.99463413
0.99445558
0.99441888
0.99440697
0.99431391
0.99443783
0.99422528
0.99427725
0.99417568
0.99488115
0.99456158
0.99439871
0.99451467
0.99458134
0.99464296
0.99466269
0.99458804
0.99464531
0.99458264
0.9945612
0.99458442
0.99443191
0.99456923
0.99441924
0.99446859
0.99440553
0.99430674
0.99441506
0.99422329
0.99432325
0.99417605
0.99420108
0.99414982
0.99411127
0.99411385
0.99405335
0.99469511
0.99420906
0.99407624
0.99413456
0.99429693
0.99438999
0.99441037
0.99444886
0.99435768
0.99439853
0.99438594
0.99433774
0.99436412
0.99424789
0.9942747
0.99423697
0.99426795
0.9941735
0.99414415
0.99409269
0.99408194
0.99414105
0.99398092
0.99399169
0.99385668
0.99398693
0.99390819
0.99418214
0.99387938
0.99380891
0.99385467
0.99403101
0.99408785
0.99421691
0.99424576
0.99418297
0.99421052
0.99411612
0.99420331
0.99416961
0.99411144
0.99410941
0.99397673
0.99414658
0.99396283
0.99404854
0.99387983
0.99390099
0.99393671
0.99381778
0.99386033
0.99366844
0.99377947
0.99369154
0.99365493
0.99358657
0.99360715
0.99369961
0.99378926
0.99389619
0.99401928
0.9940297
0.99407075
0.99396062
0.99395623
0.99399569
0.99396938
0.99401342
0.99387899
0.99388297
0.99387859
0.99384142
0.99386978
0.99373887
0.99373463
0.99371509
0.99366107
0.99365859
0.99356751
0.99358236
0.99352632
0.99347948
0.99337986
0.99349007
0.99356368
0.99365395
0.99375235
0.99379417
0.9938681
0.99386348
0.99381137
0.99380952
0.99379718
0.99379154
0.99379807
0.99376837
0.99370286
0.99375465
0.99364069
0.99369412
0.99358247
0.99358555
0.99358641
0.99348397
0.99348215
0.99338285
0.99342552
0.99338497
0.99349547
0.99326332
0.99332304
0.99344977
0.99356739
0.99361898
0.99362953
0.9936338
0.9936503
0.99368331
0.99364633
0.99365737
0.99358479
0.99355658
0.99360451
0.9935327
0.99363057
0.99347832
0.99347793
0.99341696
0.9933944
0.99346718
0.99332747
0.99335296
0.99320281
0.99325166
0.99321345
0.9935206
0.9930772
0.99309373
0.99326705
0.99344468
0.99349192
0.99348455
0.99344376
0.99342137
0.99351465
0.99348487
0.99351561
0.9934386
0.9933799
0.99341091
0.99334161
0.99346264
0.9933181
0.99334796
0.99322953
0.99323625
0.99325814
0.99319168
0.99321448
0.99308747
0.99309962
0.99302898
0.99368808
0.99291145
0.99296718
0.99305453
0.99322925
0.99330757
0.99333913
0.99330244
0.99325868
0.993302
0.99328318
0.99332789
0.99329667
0.9932453
0.99324407
0.99316385
0.9932577
0.99315115
0.99322679
0.99308549
0.99311034
0.99306528
0.99303374
0.99305385
0.99295139
0.99296693
0.99288648
0.99405205
0.9930726
0.99289997
0.99302565
0.9930841
0.99315841
0.99315654
0.99316344
0.99313956
0.99315399
0.99311314
0.99314188
0.99310794
0.99310834
0.99309567
0.9930502
0.99309089
0.99299985
0.9930668
0.99295255
0.99298616
0.99293806
0.99290172
0.99290271
0.9928146
0.99283354
0.99276554
0.99441356
0.99296689
0.99277092
0.99285535
0.99291239
0.99297434
0.99298714
0.99299638
0.99301026
0.99302076
0.99298911
0.99299175
0.99292525
0.99294779
0.99294063
0.99292332
0.99295444
0.99286444
0.99288844
0.99280971
0.99282093
0.99281954
0.99276957
0.99276788
0.9926731
0.99268522
0.99262597
0.99370167
0.99278231
0.99243248
0.99251157
0.99260557
0.99268696
0.99275653
0.9928024
0.99284475
0.99282567
0.9928157
0.99282071
0.99279194
0.99279317
0.99279382
0.99277592
0.99278532
0.99274285
0.99273397
0.99270586
0.99267548
0.99269247
0.99263756
0.99262743
0.99256347
0.99255418
0.99250628
0.99295814
0.99261088
0.99230073
0.99231683
0.99247899
0.99257535
0.99263505
0.99265946
0.99267383
0.99268545
0.99270679
0.99270829
0.99268859
0.99266446
0.99266141
0.99267304
0.99267037
0.99266762
0.99261095
0.99259502
0.99255809
0.992576
0.99254425
0.99252133
0.99246509
0.99242806
0.99238334
0.99256832
0.99242277
0.992173
0.9921868
0.99233855
0.99249164
0.99254613
0.99256031
0.99256472
0.99258386
0.99260135
0.99259634
0.99258108
0.99256189
0.99254931
0.99257055
0.99254855
0.99255832
0.99248888
0.99249691
0.992448
0.99247567
0.9924295
0.99241539
0.99234568
0.99231175
0.99227888
0.99233928
0.99224079
0.9920228
0.99204197
0.99218805
0.99234854
0.99244248
0.99244904
0.99247031
0.99245667
0.99248217
0.99247318
0.99246995
0.99246355
0.99242942
0.99244893
0.99241047
0.99244061
0.99238923
0.99241086
0.99234987
0.99236314
0.99229938
0.99231185
0.99224397
0.9922435
0.99219391
0.99228215
0.99210459
0.99191426
0.99192791
0.99206086
0.99220444
0.99232706
0.99234018
0.99239051
0.99233679
0.99237787
0.99234201
0.99236009
0.99234795
0.99232064
0.99233594
0.99227286
0.99234238
0.99224898
0.99235052
0.99220016
0.99229125
0.99215466
0.99222136
0.99215074
0.99216736
0.99210804
0.99228378
0.99205205
0.99187254
0.99187387
0.99196928
0.99209849
0.99219542
0.99228047
0.99228283
0.99229537
0.99226594
0.9922691
0.99225111
0.99228126
0.99223125
0.99228595
0.99216708
0.99227905
0.99213749
0.99227134
0.99213278
0.99220943
0.99210558
0.99213253
0.99209573
0.99207652
0.99204172
0.99223081
0.99200591
0.99181652
0.99181849
0.99191065
0.99199729
0.99210217
0.99216178
0.99217603
0.99220446
0.99213945
0.99221646
0.9920912
0.99226151
0.9920728
0.99225712
0.99207154
0.99217859
0.99211582
0.99208724
0.99217925
0.99200196
0.99216294
0.99195475
0.99208336
0.9919588
0.99199938
0.99218515
0.99190063
0.99173735
0.99172165
0.99181935
0.9918733
0.99200127
0.99208713
0.99205366
0.9921474
0.99203295
0.99212956
0.9920731
0.99206042
0.99214182
0.99196131
0.99216854
0.99190376
0.99214906
0.99194717
0.9920695
0.9919936
0.99195568
0.99200102
0.99188831
0.99199024
0.9918872
0.99214699
0.99187769
0.9916777
0.99163456
0.99176135
0.99176779
0.99193564
0.9919351
0.99200007
0.99205283
0.99197963
0.99207949
0.99198687
0.99204936
0.9920365
0.99195223
0.99204349
0.99190512
0.99205325
0.99191207
0.99200877
0.99187699
0.99193628
0.99188781
0.99191619
0.99187191