/*--------------------------------*- C++ -*----------------------------------*\
| =========                 |                                                 |
| \\      /  F ield         | OpenFOAM: The Open Source CFD Toolbox           |
|  \\    /   O peration     | Version:  2406                                  |
|   \\  /    A nd           | Website:  www.openfoam.com                      |
|    \\/     M anipulation  |                                                 |
\*---------------------------------------------------------------------------*/
FoamFile
{
    version     2.0;
    format      ascii;
    arch        "LSB;label=32;scalar=64";
    class       volVectorField;
    location    "21";
    object      U_0;
}
// * * * * * * * * * * * * * * * * * * * * * * * * * * * * * * * * * * * * * //

dimensions      [0 1 -1 0 0 0 0];

internalField   nonuniform List<vector> 
62344
(
(0.086991849 0.00054182495 -2.2120353e-21)
(0.082879666 0.0023734559 -1.1528783e-21)
(0.096626174 0.0038938958 -2.388672e-21)
(0.10341614 0.0041006709 1.2549926e-21)
(0.1068628 0.0016373171 0)
(0.10685547 0.0007836313 5.4022842e-21)
(0.10470844 0.0064849421 -5.6094283e-21)
(0.10187363 0.0059820425 2.9325553e-21)
(0.095740352 0.0092920341 0)
(0.092528718 0.010915422 0)
(0.094515782 0.014691241 1.317362e-20)
(0.097963033 0.013521921 -2.8420494e-20)
(0.10012558 0.0075076548 9.0508458e-22)
(0.10054926 0.0042238676 3.0564686e-20)
(0.098901624 0.0080966673 -1.5357851e-20)
(0.093169933 0.0095698104 1.5070551e-20)
(0.088406731 0.013054781 -1.6757389e-20)
(0.084532148 0.016072042 0)
(0.078352701 0.01943096 0)
(0.073583235 0.0205636 -1.1762132e-21)
(0.067586379 0.013494637 -6.133717e-22)
(0.059526675 0.017535708 6.3890866e-22)
(0.058106435 0.022753299 1.3302511e-21)
(0.055042137 0.031064433 -4.4401345e-20)
(0.052670287 0.035453141 4.5673675e-20)
(0.060228899 0.027069906 0)
(0.063122527 0.02173887 0)
(0.055111484 0.02359145 -4.0025848e-22)
(0.051068111 0.023095369 -5.3180483e-20)
(0.05259753 0.023378581 5.6001751e-20)
(0.051870155 0.028923343 5.7621171e-20)
(0.058916905 0.023320871 -6.024121e-20)
(0.073167837 0.0053088579 -4.8732502e-22)
(0.069684592 0.0021271457 6.5906089e-20)
(0.041201169 0.02358061 -6.4893257e-20)
(0.015565528 0.049695609 -5.4683129e-22)
(0.01881293 0.057882402 -7.1280008e-20)
(0.04975983 0.039802937 1.5006126e-19)
(0.077228527 0.0091668965 -1.5532133e-19)
(0.081659762 -0.015447434 1.474292e-22)
(0.077458995 -0.026424101 -7.7201845e-22)
(0.075009972 -0.023921061 1.6702717e-19)
(0.069637151 -0.01598292 -8.6252857e-20)
(0.054931039 -0.0050700369 0)
(0.039892613 0.010427338 -9.5816458e-20)
(0.039001211 0.021538381 1.952491e-19)
(0.049869732 0.024625343 -1.0711386e-21)
(0.060499036 0.019515283 -2.1143431e-19)
(0.055280892 0.011144919 1.0892896e-19)
(0.040530119 -0.00035389965 0)
(0.03071263 -0.016517888 0)
(0.037732449 -0.032320214 1.2022335e-19)
(0.060671073 -0.045769759 -1.2949666e-19)
(0.08332518 -0.053618048 -2.5999944e-22)
(0.091723066 -0.055869907 -1.3457522e-19)
(0.087133375 -0.00030402495 -1.168903e-21)
(0.082529448 0.0024838458 1.2152803e-21)
(0.0964722 0.002280653 3.7881821e-21)
(0.10361594 0.0018182511 -3.9612675e-21)
(0.10697552 0.0030358499 0)
(0.10657503 0.004275256 5.7022923e-21)
(0.1047373 0.0033156052 -7.403592e-21)
(0.10161569 0.0040180461 -7.7760856e-21)
(0.095642695 0.0085050035 8.0396381e-21)
(0.092216392 0.0063920399 0)
(0.093349086 0.0099701571 0)
(0.098099775 0.013212247 9.0733386e-22)
(0.10102694 0.010575993 -9.386754e-22)
(0.10036749 0.00959849 1.3644515e-20)
(0.099085713 0.012457787 -1.6158843e-20)
(0.094091208 0.009635246 0)
(0.088245053 0.0086062044 0)
(0.084661897 0.010215299 0)
(0.078313691 0.0095731934 1.9076945e-20)
(0.074278366 0.014363177 5.7748812e-22)
(0.070075892 0.017704224 2.2326591e-22)
(0.061125037 0.016474136 -6.5331652e-20)
(0.056471816 0.016316599 4.4296825e-20)
(0.052135631 0.024063402 0)
(0.05244114 0.027306637 4.7888767e-20)
(0.061954163 0.020750971 -8.2500708e-22)
(0.064215965 0.019124115 -1.0458922e-19)
(0.055972705 0.022770694 5.4333278e-20)
(0.051184553 0.023265998 -4.4111902e-22)
(0.050062071 0.024889615 -5.9437094e-20)
(0.049723197 0.02882887 6.085404e-20)
(0.05930231 0.021316099 4.9209366e-22)
(0.071981993 0.010978189 -6.5169767e-20)
(0.064858577 0.018287281 1.3695395e-19)
(0.036729287 0.037533749 -6.9211249e-20)
(0.0091783469 0.051366348 5.8105639e-22)
(0.010932154 0.047611845 0)
(0.043094938 0.026537284 0)
(0.075718857 0.0040228491 3.1780715e-22)
(0.081482741 -0.010367225 8.5617834e-20)
(0.069096466 -0.011461603 -1.7487169e-19)
(0.061290644 -0.0035807506 9.0570231e-20)
(0.060968213 0.0055938156 9.4840828e-20)
(0.052259892 0.012700702 -1.9623278e-19)
(0.03425472 0.019137329 1.0018261e-19)
(0.025333305 0.020897252 0)
(0.035707185 0.016250579 0)
(0.060650295 0.0054193136 0)
(0.084810236 -0.013640602 2.2163559e-22)
(0.088130411 -0.035862675 -2.2745682e-22)
(0.071409624 -0.052053605 0)
(0.051516783 -0.057888022 4.3502502e-24)
(0.047684934 -0.055140563 -2.5446527e-22)
(0.060104361 -0.046688307 3.8956071e-22)
(0.0783444 -0.035161375 -1.4168123e-22)
(0.086742945 0.00053519306 1.2331232e-21)
(0.082238234 0.0019720022 -1.2822299e-21)
(0.096507448 0.00037076397 -1.3354841e-21)
(0.10325828 2.6062414e-05 1.3904548e-21)
(0.10618093 0.0028912041 -1.4477571e-21)
(0.10683008 0.0054490056 1.4990619e-21)
(0.10491678 0.0015983816 3.1231256e-21)
(0.10085745 0.0045562536 0)
(0.095653279 0.008164232 5.1316131e-21)
(0.092423967 0.0059600237 -7.9630988e-21)
(0.092230575 0.0075932202 0)
(0.097095129 0.010980848 -9.5623582e-22)
(0.10079462 0.011063899 -1.1812902e-24)
(0.099945585 0.012473303 -2.1759413e-24)
(0.099490477 0.013517637 1.722105e-20)
(0.095613641 0.011838616 -1.6763451e-20)
(0.08937894 0.0081354744 0)
(0.085635107 0.0043902087 0)
(0.078192387 0.0049523762 0)
(0.071916529 0.0089918987 0)
(0.069432915 0.018652528 0)
(0.063316406 0.019555075 2.3580965e-20)
(0.056591657 0.016268819 -2.3678102e-20)
(0.050411964 0.02041213 -7.7131086e-22)
(0.052172016 0.020969965 7.9782974e-22)
(0.062243984 0.015548974 0)
(0.063825256 0.017164459 0)
(0.056474241 0.022408041 4.4764971e-22)
(0.051603591 0.022414018 4.6886753e-22)
(0.049339976 0.023835081 0)
(0.051059467 0.02423462 0)
(0.063025029 0.012702087 -6.6380198e-20)
(0.073494181 0.0042378094 1.3809322e-19)
(0.06375506 0.014579342 -7.1124055e-20)
(0.036668577 0.035275973 -2.9531266e-22)
(0.011793542 0.0476144 7.7933655e-20)
(0.014214599 0.03895003 -8.1034664e-20)
(0.043242191 0.014353733 0)
(0.073706213 -0.0075655196 -2.8910347e-24)
(0.078396454 -0.016407348 0)
(0.058290672 -0.012157537 9.2835724e-20)
(0.040349547 0.00086408981 -9.5451108e-20)
(0.033769491 0.015708502 -1.0076637e-19)
(0.032824351 0.027545445 1.0355959e-19)
(0.026042519 0.030650896 2.437404e-24)
(0.018391862 0.023583708 0)
(0.021358539 0.010708838 0)
(0.04153527 -0.0031001427 -2.3098553e-22)
(0.071327155 -0.015315018 -1.1968542e-19)
(0.090893478 -0.025174474 1.2613152e-19)
(0.088643543 -0.031972953 0)
(0.066977685 -0.038927199 1.3519912e-19)
(0.046411544 -0.041659662 -1.359996e-19)
(0.035266276 -0.038804556 1.4210315e-19)
(0.045032085 -0.032745755 -1.4620205e-19)
(0.08673108 0.0010996043 -6.4737014e-22)
(0.082372331 -0.00011317837 -2.0240743e-21)
(0.096598386 -0.0012254585 4.2274994e-21)
(0.10274743 -0.00013086707 -2.938677e-21)
(0.10576404 0.0017764952 -4.5839814e-21)
(0.10688556 0.0044556026 4.7500783e-21)
(0.10502027 0.00099953483 -8.2494085e-21)
(0.10044657 0.0047100384 1.3741601e-20)
(0.095736019 0.0053718164 -8.076927e-21)
(0.092346714 0.00717288 1.8728807e-21)
(0.091756458 0.0081184494 9.7047858e-22)
(0.09649322 0.0068679259 1.6039278e-20)
(0.10022715 0.0084739873 -1.4730495e-20)
(0.099419471 0.011743402 1.8382582e-20)
(0.099586271 0.011088171 -7.9090067e-23)
(0.096996963 0.013093689 -3.8905405e-20)
(0.091726291 0.0095663761 1.8976268e-20)
(0.08723008 0.0020974917 -6.3788905e-22)
(0.078489611 0.0066197572 2.1477498e-20)
(0.070371593 0.0096392935 -2.1459305e-20)
(0.067503923 0.014885153 0)
(0.064197055 0.019023121 0)
(0.058110103 0.017483515 -2.4410241e-20)
(0.050784805 0.018668468 2.6702428e-20)
(0.052200839 0.016426459 2.5820698e-20)
(0.061169925 0.011978267 -2.822463e-20)
(0.062270184 0.016340735 -2.9062104e-20)
(0.056318529 0.021397829 2.9685136e-20)
(0.051580898 0.020480506 0)
(0.048375616 0.021782923 0)
(0.051704348 0.019805748 0)
(0.064117915 0.0078694291 0)
(0.07027145 0.0027036943 0)
(0.056880125 0.017020458 0)
(0.031438789 0.040338981 3.1143679e-22)
(0.012374822 0.052066699 -8.2341774e-20)
(0.017919708 0.041260893 8.6188936e-20)
(0.047056956 0.017383371 3.4397585e-22)
(0.077416781 -0.0045569789 -7.0982322e-22)
(0.084412968 -0.013827794 9.4105682e-20)
(0.061691207 -0.010121617 -9.4380595e-20)
(0.033784283 0.00049671174 1.0242981e-19)
(0.017541683 0.016048196 -1.0559477e-19)
(0.017828258 0.029049252 1.1042045e-19)
(0.023113803 0.033148703 -2.2843094e-19)
(0.024031522 0.022018817 -7.275177e-23)
(0.024417007 0.0017348363 1.2125877e-21)
(0.030756497 -0.015639389 3.0441287e-21)
(0.049322955 -0.024626786 4.2251038e-21)
(0.073476193 -0.026587727 3.7269442e-21)
(0.088600148 -0.025812985 1.3727809e-19)
(0.080904488 -0.026973366 0)
(0.056731236 -0.030010406 1.4850565e-19)
(0.026866358 -0.030250447 6.1610801e-21)
(0.016819137 -0.034072247 -1.5524014e-19)
(0.086705335 0.0014233925 1.3728733e-21)
(0.082510606 -0.00081669916 1.4291253e-21)
(0.096327553 -0.00039185108 1.4871971e-21)
(0.10238164 0.0010350045 0)
(0.10532135 0.0013003341 0)
(0.10684067 0.0027693014 0)
(0.10483006 0.0014333107 -8.6872365e-22)
(0.10022213 0.0044406854 7.279084e-21)
(0.095409379 0.0012671601 -6.6100444e-21)
(0.092172267 0.0075768342 -9.8549508e-22)
(0.092031878 0.010519805 -8.1593213e-21)
(0.096582492 0.0032763661 8.5483948e-21)
(0.099089499 0.0056991014 -1.8782047e-20)
(0.099066824 0.0089178355 1.8285768e-20)
(0.099280619 0.0055285058 0)
(0.096855682 0.0097069802 0)
(0.093875354 0.0097633915 1.2919734e-21)
(0.088181579 0.0046191233 6.7283381e-22)
(0.078201666 0.010579645 -2.2632031e-20)
(0.070736575 0.013094409 2.2629706e-20)
(0.066763946 0.010347654 0)
(0.063445181 0.014246547 0)
(0.05880996 0.017813122 -8.2791586e-22)
(0.051646883 0.019631691 0)
(0.052932977 0.016146931 -2.7800387e-20)
(0.060124184 0.012716142 2.98008e-20)
(0.060827727 0.017285964 0)
(0.05716892 0.019672863 0)
(0.052976666 0.016970109 0)
(0.049017132 0.017658963 0)
(0.053693288 0.014202899 0)
(0.066688202 0.0029207059 0)
(0.069095053 -0.00046114289 -2.9933213e-22)
(0.051572345 0.014758682 -3.1398394e-22)
(0.027381504 0.036352264 0)
(0.013518209 0.045409282 -3.4341071e-22)
(0.020683267 0.03505616 4.4498878e-20)
(0.047019652 0.013348065 -4.8077877e-20)
(0.074572589 -0.0030339023 3.7401647e-22)
(0.083428918 -0.0059592429 3.8151272e-22)
(0.064099898 0.0013796121 0)
(0.032164907 0.010486537 4.1960796e-22)
(0.0078329 0.021551502 -1.6547934e-24)
(0.0026857248 0.031687564 1.1624655e-19)
(0.015663116 0.034006789 -2.3019295e-21)
(0.031935426 0.023762028 -1.2484626e-19)
(0.038014272 0.0034121769 -2.5210313e-22)
(0.036327513 -0.015459682 0)
(0.037236923 -0.025098164 -2.6386485e-22)
(0.048209107 -0.023777505 -2.7688292e-22)
(0.067387192 -0.016948608 1.4263109e-19)
(0.079228806 -0.0087302225 -1.4923981e-19)
(0.073893526 -0.0064322157 1.5144068e-22)
(0.049813095 -0.0082729022 -6.2958344e-24)
(0.028597677 -0.020778309 -1.6506372e-22)
(0.086723928 0.0011927369 0)
(0.08248212 4.8924561e-05 0)
(0.09599849 0.0014894838 -1.5675456e-21)
(0.1023902 0.0022376467 0)
(0.10522883 0.0015271778 3.3981302e-21)
(0.10680148 0.0010017235 -2.642571e-21)
(0.10482029 0.0030853992 9.1779005e-22)
(0.10055086 0.0040632299 0)
(0.095401845 0.00021205921 1.0009878e-21)
(0.090488589 0.0068593582 0)
(0.092394654 0.011842432 -1.0806915e-21)
(0.097332384 0.002286479 -7.8639689e-21)
(0.098353401 0.0049575578 1.8654225e-20)
(0.099266378 0.0059613847 -9.680074e-21)
(0.099438244 0.0010137769 0)
(0.096148527 0.0044459963 0)
(0.094379581 0.0080575236 2.2965567e-24)
(0.088948372 0.0096153308 -7.1255512e-22)
(0.07798249 0.013828513 0)
(0.07211247 0.014200169 0)
(0.067885383 0.0070208761 8.0223933e-22)
(0.06245972 0.0086192781 2.586044e-20)
(0.057894965 0.016069426 -5.6202554e-20)
(0.052209538 0.020750438 2.9264699e-20)
(0.053979044 0.017914847 2.9401306e-20)
(0.059536815 0.015657265 -3.1391592e-20)
(0.059968024 0.018733433 -3.2443127e-20)
(0.058163112 0.018286083 3.3633654e-20)
(0.054312208 0.014873325 -3.5268886e-20)
(0.049101237 0.015625211 7.2521277e-20)
(0.054229486 0.012420477 -3.8434022e-20)
(0.067264307 0.0033277747 3.0469058e-22)
(0.066771588 0.0028547897 6.3220554e-22)
(0.046355713 0.017800253 6.6106115e-22)
(0.023665435 0.035530529 0)
(0.014220643 0.04099071 -4.5591517e-20)
(0.025040247 0.028784217 9.5418358e-20)
(0.049012794 0.0080593723 -5.0270951e-20)
(0.071773933 -0.0038370253 -3.9737631e-22)
(0.079622316 0.00015331587 -4.0159637e-22)
(0.065865281 0.012315863 0)
(0.036321823 0.021458768 -5.8036888e-20)
(0.0074558631 0.028191357 -1.4600152e-21)
(-0.0048393075 0.032062318 6.1034588e-20)
(0.0061549846 0.029413054 0)
(0.031470528 0.019416728 0)
(0.049688101 0.0042595122 -6.7108524e-20)
(0.048222099 -0.010195433 6.9301164e-20)
(0.038642343 -0.018838013 1.9846521e-24)
(0.032567999 -0.018309434 1.462248e-19)
(0.039912881 -0.010445286 -3.0130867e-19)
(0.056472055 0.00059962935 3.1440419e-19)
(0.071311727 0.0080416185 -1.6377161e-19)
(0.073846536 0.0087794003 -1.6490093e-22)
(0.060123362 -0.0014972734 1.6312971e-22)
(0.086580026 0.00071974792 7.6553432e-22)
(0.082287465 0.001420556 -7.9187241e-22)
(0.095720104 0.0027383321 -3.3026558e-21)
(0.1022979 0.0027726878 3.4488114e-21)
(0.10534019 0.0025838214 4.4852279e-21)
(0.10656679 0.00050468152 -9.3078507e-21)
(0.104463 0.0046672875 2.8939719e-21)
(0.10126364 0.0038783962 -1.0111291e-21)
(0.095317994 0.0024310113 -1.0559534e-21)
(0.089245531 0.0065768493 -8.7248752e-21)
(0.092773226 0.0098861107 9.143265e-21)
(0.097703907 0.003576082 0)
(0.097954489 0.0063943493 0)
(0.099876075 0.0058740227 -6.3626907e-22)
(0.099979397 0.0011101163 -6.6147105e-22)
(0.095526391 0.00087253257 1.1070988e-20)
(0.093128003 0.0050458241 -3.5345971e-20)
(0.08835079 0.013486787 2.5516911e-20)
(0.078575064 0.016201804 -2.4969396e-20)
(0.074569591 0.01190345 5.2111319e-20)
(0.070169361 0.0046939212 -7.8455805e-22)
(0.061334177 0.0048343851 -5.589679e-20)
(0.055803715 0.012748462 3.0321605e-20)
(0.051572728 0.020007347 3.0421286e-20)
(0.054007337 0.01944242 -3.1846661e-20)
(0.058719924 0.018620523 0)
(0.05997725 0.020408325 -3.4162252e-20)
(0.059878392 0.017308529 3.5520974e-20)
(0.056083873 0.013655697 5.7863007e-22)
(0.049964591 0.014121519 6.0107662e-22)
(0.054891925 0.010845006 9.2782062e-22)
(0.067968804 0.0034711585 -3.213359e-22)
(0.065790703 0.005588236 -6.6758612e-22)
(0.044537234 0.018955265 -3.4894646e-22)
(0.022336456 0.032473191 0)
(0.01637431 0.033408291 0)
(0.028641048 0.019902664 -4.9694718e-20)
(0.049390737 0.000934134 1.0475983e-19)
(0.065202669 -0.0059021127 -5.3385635e-20)
(0.069562907 0.0051956996 -2.1835544e-22)
(0.060986625 0.021424579 0)
(0.038863034 0.033276166 0)
(0.010914874 0.037295328 -6.3916309e-20)
(-0.0063177052 0.035985551 6.4587456e-20)
(-0.00071347578 0.028592465 -6.5906592e-20)
(0.023799971 0.01845103 7.071011e-20)
(0.049342509 0.0094479795 2.7880152e-22)
(0.055996273 0.0010598776 -7.424555e-20)
(0.045263234 -0.0038037072 7.4844376e-20)
(0.028560886 -0.005682778 0)
(0.021580058 -0.0026904817 2.2428637e-24)
(0.028825895 0.0043303062 -8.1991501e-20)
(0.048571807 0.011690801 1.7099384e-19)
(0.070543622 0.015186521 -1.7739057e-19)
(0.080104139 0.011612584 9.1860387e-20)
(0.086460933 0.00032632057 0)
(0.082016751 0.0024861089 1.6737098e-21)
(0.095595164 0.0028732563 -7.5862691e-25)
(0.10223315 0.0025191048 -1.8167763e-21)
(0.10553636 0.0034308427 3.3997297e-25)
(0.10645218 0.0013193261 9.800872e-22)
(0.10408757 0.0053579906 -2.0376703e-21)
(0.10150595 0.0035184166 5.3228974e-21)
(0.095349008 0.0048768912 0)
(0.088927927 0.0062087156 0)
(0.092668783 0.0061171284 -8.3499602e-21)
(0.097699769 0.0062119237 1.0059692e-20)
(0.097780466 0.008240124 0)
(0.10050196 0.0069483499 6.7308912e-22)
(0.10105724 0.004661936 7.0036462e-22)
(0.095742956 0.00034360295 0)
(0.091377575 0.003930557 -1.2178756e-20)
(0.087024816 0.014618708 -8.334073e-22)
(0.080213534 0.015801609 1.3909392e-20)
(0.077241579 0.0066310698 0)
(0.072337504 0.0017181973 2.8778229e-20)
(0.061463365 0.0030593377 -5.9440839e-20)
(0.053753944 0.0098937445 3.0522566e-20)
(0.049887732 0.017554572 -3.2643425e-20)
(0.053037226 0.019280896 3.42102e-20)
(0.057784249 0.019921375 0)
(0.060137901 0.021065896 0)
(0.061795863 0.017322086 0)
(0.057827674 0.014052322 -6.0951755e-22)
(0.050502402 0.014387569 -6.3667625e-22)
(0.054523024 0.010684942 -4.1712877e-20)
(0.066728276 0.005039965 4.4046703e-20)
(0.06428719 0.0089902169 3.5198586e-22)
(0.043459445 0.021753513 0)
(0.02288328 0.03205766 0)
(0.019101268 0.029770156 4.0156043e-22)
(0.032932302 0.014993868 0)
(0.051356244 -0.003589287 -4.2959033e-22)
(0.059346751 -0.0075790915 -5.6950735e-20)
(0.058820606 0.0054739975 5.8411248e-20)
(0.053176005 0.024231401 6.1264981e-20)
(0.039677185 0.037008814 -6.2959234e-20)
(0.018978162 0.040347982 6.7091338e-20)
(-3.994124e-05 0.034021189 -6.8105304e-20)
(-0.0026963827 0.023561769 -7.0336302e-20)
(0.014071736 0.012247352 2.1542147e-21)
(0.039525995 0.0070398241 1.5073893e-19)
(0.05460353 0.0068900841 -7.7681708e-20)
(0.051625049 0.0076125268 0)
(0.035166485 0.0063476821 -8.3156042e-20)
(0.01859113 0.0049875954 1.70275e-19)
(0.011491702 0.003946147 -8.832696e-20)
(0.02168312 0.0046673313 0)
(0.04387497 0.0060632837 -1.8494363e-22)
(0.068479383 0.0087187349 9.4837332e-20)
(0.086263056 0.00036580961 0)
(0.081795144 0.0029360899 0)
(0.095608505 0.0020581202 0)
(0.10205542 0.0018159189 2.8689286e-21)
(0.10550007 0.0037415233 -4.9684785e-21)
(0.10627101 0.0020665462 4.1344949e-21)
(0.10413655 0.0047488597 -5.3635225e-21)
(0.10147661 0.0023401034 -1.1201432e-21)
(0.095257486 0.00640585 -1.171252e-21)
(0.08940188 0.0050749398 -1.0932743e-20)
(0.092294121 0.0024396225 8.8949361e-21)
(0.097027859 0.0076762342 0)
(0.097701293 0.0085498486 1.0855225e-20)
(0.10077749 0.0064540234 -1.0631712e-22)
(0.10200761 0.0081614321 -2.4254902e-20)
(0.096211802 0.0031604599 1.2216205e-20)
(0.089859742 0.0054297327 -8.0433422e-22)
(0.0859865 0.013064192 -8.3419033e-22)
(0.08203453 0.012422752 -3.624223e-24)
(0.079604042 0.0020866296 4.4810798e-22)
(0.073441298 -0.0007858774 4.6959399e-22)
(0.061747316 0.0031430867 4.9092402e-22)
(0.052716422 0.0087740475 0)
(0.048546345 0.015599704 0)
(0.051668991 0.018276588 -3.5767914e-20)
(0.056780631 0.019485078 3.7435846e-20)
(0.060014933 0.020273424 0)
(0.063373451 0.016226285 0)
(0.059666573 0.01372767 0)
(0.052052808 0.013941423 3.3368701e-22)
(0.055173403 0.009281708 0)
(0.065911429 0.0043323227 4.5983896e-20)
(0.063047285 0.0096500713 -4.7577992e-20)
(0.043263854 0.022255147 3.8948226e-22)
(0.024588737 0.030650964 -5.264741e-20)
(0.022221501 0.027570558 5.3894189e-20)
(0.03703679 0.012452031 0)
(0.053416748 -0.0041612021 5.7734433e-20)
(0.054713373 -0.0073860424 -5.95971e-20)
(0.046983271 0.0052180816 2.4249762e-22)
(0.042066401 0.024018955 6.5221553e-20)
(0.036372744 0.03936307 -6.6917367e-20)
(0.02532825 0.044682371 0)
(0.011913406 0.036499799 7.298308e-20)
(0.0056167856 0.021226793 -7.5126873e-20)
(0.011423339 0.0060886862 6.0518289e-22)
(0.027719697 0.0014124449 0)
(0.04275996 0.0066562878 8.1394747e-20)
(0.048078469 0.014272197 -8.4430322e-20)
(0.040134971 0.019113021 8.8250538e-20)
(0.025935465 0.016794098 -8.8739438e-20)
(0.013094975 0.011321138 -9.4266084e-20)
(0.010104967 0.0044648395 1.931839e-19)
(0.016187904 0.00048512661 -2.1586379e-21)
(0.037535412 -0.00032524878 -3.392383e-21)
(0.086109124 0.00043724949 -8.9423316e-22)
(0.081699583 0.0025492443 -9.2876716e-22)
(0.095659585 0.001182851 -1.9335029e-21)
(0.10189641 0.001502409 3.0679398e-24)
(0.10549944 0.003311381 2.1030666e-21)
(0.10614403 0.002252706 4.3642856e-21)
(0.10442081 0.0032034105 -4.5280325e-21)
(0.10139909 0.00079955743 1.180389e-21)
(0.09538528 0.0062640247 6.1875223e-21)
(0.089828074 0.0045407523 -1.4094422e-20)
(0.091722717 0.00058299046 7.5289967e-22)
(0.096231513 0.0078399528 1.1138561e-20)
(0.097822936 0.0069269855 7.1967764e-22)
(0.10047111 0.00396176 0)
(0.10236332 0.0090015162 7.7197398e-22)
(0.097148673 0.0073682902 -8.0821927e-22)
(0.089340132 0.007589516 9.1785247e-25)
(0.08578706 0.0089702365 1.7604134e-21)
(0.083594219 0.0071283485 -9.1747095e-22)
(0.081682384 -0.00068670482 1.4782911e-20)
(0.074218641 -0.0018335238 -3.2278913e-20)
(0.061707783 0.0033983652 1.6418386e-20)
(0.051755304 0.0087851992 0)
(0.047007008 0.01419427 -1.7907387e-20)
(0.050225126 0.016652962 1.8180691e-20)
(0.055592334 0.018085542 -6.0339706e-22)
(0.060002673 0.018417835 -6.25833e-22)
(0.064470682 0.014575905 0)
(0.061049822 0.012702964 0)
(0.053315173 0.01316609 -3.5218318e-22)
(0.05580082 0.0081042482 0)
(0.064415366 0.0035694615 0)
(0.061072724 0.0096702659 -5.1011052e-20)
(0.042913448 0.022405653 -1.7751939e-21)
(0.025573592 0.03022359 1.0989078e-19)
(0.024475969 0.026863871 -5.7752001e-20)
(0.040184093 0.012739803 0)
(0.056113692 -0.0015672068 2.389897e-22)
(0.0534792 -0.0049945377 -2.4490661e-22)
(0.039968639 0.0046427066 -2.5409306e-22)
(0.031020899 0.020978982 -6.8317038e-20)
(0.028959375 0.037671764 7.0900906e-20)
(0.027843435 0.045374416 0)
(0.023863391 0.038173399 0)
(0.018801237 0.020000305 -3.0501634e-22)
(0.017062134 0.0018887973 -3.2023017e-22)
(0.020324133 -0.004709451 -8.3567829e-20)
(0.028686231 0.00049708805 8.741913e-20)
(0.036013362 0.012182502 8.9301466e-20)
(0.037033176 0.022583359 -9.2561772e-20)
(0.030278548 0.025703512 -1.8578123e-22)
(0.020509297 0.020522349 9.9208219e-20)
(0.013837203 0.0091773138 -1.0147127e-19)
(0.010351217 -0.0011950437 0)
(0.017766722 -0.010388689 -1.0610148e-19)
(0.085982393 0.00054779711 1.4149835e-21)
(0.081654124 0.0016456103 -4.886557e-22)
(0.095678404 0.00065175044 1.0201737e-21)
(0.10168213 0.0014664043 1.064056e-21)
(0.10543103 0.0022826418 4.431436e-21)
(0.10621199 0.0026339173 -8.0348013e-21)
(0.10474636 0.0017811953 4.7738558e-21)
(0.10127177 -1.3436451e-05 0)
(0.095214374 0.0051923382 5.8724823e-21)
(0.090435052 0.0044095012 -4.7335736e-21)
(0.091096301 0.00095867088 -1.4033014e-21)
(0.0955284 0.0071979321 0)
(0.098472993 0.0044907093 -1.5233683e-21)
(0.099966306 0.00064206719 7.8967004e-22)
(0.10163843 0.0070428096 -8.2039863e-22)
(0.097637144 0.010877905 -1.5533443e-24)
(0.09028265 0.010125411 -1.3373596e-20)
(0.086683181 0.0043435036 2.872068e-20)
(0.084628524 0.0021911889 -1.546366e-20)
(0.083002315 -0.0015625989 0)
(0.07452465 -0.00067007632 -5.2129537e-22)
(0.061476961 0.0048206409 0)
(0.051251022 0.0095343834 -5.6872022e-22)
(0.045949722 0.013255544 0)
(0.048538401 0.014659806 -4.9898195e-25)
(0.054354147 0.015820186 6.3722738e-22)
(0.059791176 0.015924114 6.6029184e-22)
(0.06557648 0.012299067 2.1863354e-20)
(0.062541139 0.010862134 1.2778663e-22)
(0.055012811 0.010962834 -2.3478893e-20)
(0.056920333 0.0056347238 4.8905879e-20)
(0.06391852 0.0015170172 -1.0222745e-19)
(0.059757711 0.008228118 5.303778e-20)
(0.042625237 0.020619953 -4.338128e-22)
(0.026588328 0.027826102 -4.5354641e-22)
(0.02626236 0.024271379 4.7117129e-22)
(0.041855395 0.011781541 0)
(0.057770961 0.00060321837 2.5070947e-22)
(0.053847879 -0.0013162483 2.5926401e-22)
(0.036058235 0.0059675723 0)
(0.021762834 0.020148593 -5.6347144e-22)
(0.018776056 0.035608583 0)
(0.024675278 0.045040169 3.0458593e-22)
(0.031869962 0.040046471 -7.9194367e-20)
(0.034031107 0.021178761 8.2717787e-20)
(0.029208929 0.0010002235 0)
(0.022435556 -0.0089231994 -1.7164172e-22)
(0.018739214 -0.0066438537 0)
(0.020493449 0.0050881725 9.39451e-20)
(0.025025932 0.018689401 -9.8099755e-20)
(0.028414161 0.026221252 1.9814943e-22)
(0.027653053 0.022918285 0)
(0.023226831 0.01175612 -1.0226765e-22)
(0.016335069 -0.0011733539 0)
(0.014920385 -0.015615503 1.0959471e-22)
(0.085942791 0.00060383995 -4.9807971e-22)
(0.081638128 0.00068491468 1.547811e-21)
(0.095614855 0.00035090414 -1.0754024e-21)
(0.10150586 0.0016937746 2.2368593e-21)
(0.1053182 0.0011526144 -3.5030176e-21)
(0.10650103 0.0030639812 -4.7807383e-25)
(0.10501016 0.00067669524 -5.0553407e-21)
(0.10125859 0.00021133616 5.2507462e-21)
(0.094955488 0.0037611539 4.8065999e-21)
(0.090789641 0.0044973977 -1.2130005e-20)
(0.090738751 0.0025391995 7.5025552e-22)
(0.095182718 0.0061416324 6.1805204e-21)
(0.09925247 0.002623239 -1.2043287e-20)
(0.099792371 -0.0015222026 1.2455939e-20)
(0.10044129 0.0033115921 8.6045809e-22)
(0.097492527 0.012290256 -1.358566e-20)
(0.091921271 0.011387066 1.4913081e-20)
(0.088289983 0.0011704773 0)
(0.085289723 -0.0014218718 1.6672755e-20)
(0.083510952 -0.0016289703 -3.3789607e-20)
(0.07480722 0.0016418842 -2.5101069e-22)
(0.061568033 0.0067346432 1.7637316e-20)
(0.051367877 0.010261328 2.0409298e-20)
(0.045575643 0.011949991 -3.9211327e-20)
(0.047600721 0.012559127 2.1433951e-20)
(0.053160369 0.013332528 -3.3550918e-22)
(0.059398036 0.013150691 3.4768884e-22)
(0.066093682 0.010282985 2.2678472e-20)
(0.063770873 0.0092832674 -2.4241932e-20)
(0.056471212 0.0090984057 3.8823386e-22)
(0.057819169 0.0037537786 0)
(0.062807526 0.00039987373 2.6921378e-20)
(0.05778236 0.0076483333 4.840766e-22)
(0.041917364 0.019653914 -2.8743309e-20)
(0.027544811 0.025693237 7.1664775e-22)
(0.027899944 0.021126304 -3.1280667e-20)
(0.042632435 0.0098319273 3.3244815e-20)
(0.058070732 0.0010380266 -2.648761e-22)
(0.054996614 0.0016523484 2.7236295e-22)
(0.035379723 0.0084209582 0)
(0.01618279 0.019739913 -7.6376001e-20)
(0.0095441549 0.032602003 7.9085943e-20)
(0.017588374 0.041336953 -1.5848877e-22)
(0.033738974 0.037966487 -8.3501198e-20)
(0.045420839 0.021700469 8.7050399e-20)
(0.042535559 0.0030204341 1.7327765e-22)
(0.029808483 -0.0084316404 1.824894e-22)
(0.01602256 -0.0089961463 9.6582609e-20)
(0.0086112262 -0.0011380791 -9.9694854e-20)
(0.010168615 0.010185851 -4.0412335e-22)
(0.018052104 0.019466713 0)
(0.027706742 0.020318758 0)
(0.032148237 0.012502245 1.8275706e-24)
(0.02857583 4.9886548e-05 0)
(0.023019068 -0.015056021 -1.1149296e-22)
(0.085996053 0.00061638089 -1.0455464e-21)
(0.08166673 -6.9726527e-05 -1.0876661e-21)
(0.095523867 0.00020028309 4.531511e-21)
(0.10138442 0.0018316122 -2.3629778e-21)
(0.10525271 9.5842282e-05 2.4515307e-21)
(0.10662244 0.0032860325 -3.8104388e-21)
(0.10525398 0.00011759711 -5.3135104e-21)
(0.10130403 0.0010791849 5.5188197e-21)
(0.094765625 0.0025393983 5.7836783e-21)
(0.090910747 0.004359717 -1.1314558e-20)
(0.090479608 0.0042905101 5.4596087e-21)
(0.095088185 0.0047030962 0)
(0.099882374 0.0022845661 8.4457903e-22)
(0.10000921 -0.0018628963 0)
(0.099106154 -0.00039004139 0)
(0.096629812 0.011725939 1.4656129e-20)
(0.093697629 0.011200455 -1.5759851e-20)
(0.090142884 -0.0004231139 -5.102737e-22)
(0.085958443 -0.0034220276 -1.157768e-25)
(0.083203969 -0.0008866015 0)
(0.074649573 0.0045272666 1.9283591e-20)
(0.061979418 0.0082540735 -1.7962925e-20)
(0.051914988 0.010471316 -1.0169333e-24)
(0.045947295 0.010562772 1.9990264e-20)
(0.047234826 0.010351398 -4.3522973e-20)
(0.052188182 0.011004716 2.201415e-20)
(0.058774705 0.010663063 -2.3622729e-20)
(0.066148716 0.0086543821 6.0450466e-22)
(0.064794136 0.0080805722 2.5552782e-20)
(0.058170517 0.0074035538 2.5314903e-20)
(0.058954059 0.001916075 -2.6974942e-20)
(0.062157363 -0.00099640139 0)
(0.056124868 0.006407183 -4.5963562e-22)
(0.041351015 0.018134355 5.0030568e-26)
(0.029088421 0.022759449 -2.5194028e-22)
(0.029400093 0.017479352 3.3234562e-20)
(0.042833703 0.0063759528 -9.3064689e-22)
(0.057290784 2.3037054e-06 -3.6216993e-20)
(0.055586979 0.0028788102 3.6734792e-20)
(0.036191078 0.010769269 -7.6925633e-20)
(0.013831965 0.020562683 -5.983475e-22)
(0.0025467471 0.030700729 8.3336296e-20)
(0.0094597371 0.03691243 -4.3727462e-20)
(0.030400621 0.033568647 -1.7445061e-22)
(0.04934436 0.021946382 -4.5459937e-20)
(0.053129858 0.0078056024 4.6884123e-20)
(0.039402367 -0.0025013761 0)
(0.019261842 -0.0058569685 -5.1412548e-20)
(0.0040329028 -0.0036542705 5.2284418e-20)
(-0.0021871307 0.0024571188 4.2684158e-22)
(0.0034775946 0.0090608453 0)
(0.017684083 0.011534319 -1.1365175e-19)
(0.031072913 0.009245645 2.4536606e-21)
(0.036378062 0.0018263156 1.1914431e-19)
(0.033926077 -0.0098190152 1.1913244e-22)
(0.086095791 0.00053845639 1.8200233e-25)
(0.081716984 -0.00054527629 -2.292915e-21)
(0.095404384 0.00012597352 0)
(0.10143069 0.001755294 1.2443424e-21)
(0.10522919 -0.00052761296 1.933793e-21)
(0.10658212 0.0029233214 2.0098146e-21)
(0.10544128 3.5390554e-05 -8.3680014e-21)
(0.10135861 0.002218565 -7.7576597e-22)
(0.09490072 0.0014313175 -7.9169194e-22)
(0.090697467 0.0036717699 1.1913487e-20)
(0.090435413 0.005669537 -5.7511418e-21)
(0.095107471 0.0035768655 -6.7960889e-21)
(0.10020156 0.0031865821 5.3835945e-21)
(0.10041504 -0.00022764839 0)
(0.097925431 -0.0024998981 0)
(0.095565832 0.0094477707 -1.5884565e-20)
(0.095233146 0.0089209884 1.210014e-22)
(0.092124379 -0.00077425677 1.7793012e-20)
(0.086265119 -0.0043263392 -5.6285996e-22)
(0.082558794 9.6424688e-05 1.8802065e-20)
(0.0745975 0.0069120104 -1.9467968e-20)
(0.062728038 0.0087844239 -6.3622335e-22)
(0.052722025 0.0096190741 -3.3309735e-22)
(0.046331896 0.0093079401 -2.2091659e-20)
(0.046923015 0.0083442639 2.3004043e-20)
(0.051272746 0.0087590563 3.7194984e-22)
(0.058078819 0.0086172538 0)
(0.066116889 0.0076228125 0)
(0.065548729 0.0079097949 0)
(0.059845652 0.0068094675 8.6255845e-22)
(0.059944436 0.00085358306 -4.5012592e-22)
(0.061590932 -0.0021073934 0)
(0.054454714 0.0057941048 2.4299674e-22)
(0.040702881 0.017589516 5.0904886e-22)
(0.030305223 0.021313999 0)
(0.03141075 0.015203822 3.4505731e-20)
(0.042759274 0.0038607271 -3.6517345e-20)
(0.055508673 -0.0019200267 0)
(0.05488244 0.0024279546 3.0279577e-22)
(0.037399908 0.011073222 3.1615713e-22)
(0.013985285 0.01954253 0)
(-0.0014844167 0.027302008 0)
(0.0019923829 0.031000319 4.5078422e-20)
(0.023774065 0.027272164 -4.8289853e-20)
(0.047660578 0.019564209 0)