/*--------------------------------*- C++ -*----------------------------------*\
| =========                 |                                                 |
| \\      /  F ield         | OpenFOAM: The Open Source CFD Toolbox           |
|  \\    /   O peration     | Version:  2406                                  |
|   \\  /    A nd           | Website:  www.openfoam.com                      |
|    \\/     M anipulation  |                                                 |
\*---------------------------------------------------------------------------*/
FoamFile
{
    version     2.0;
    format      ascii;
    arch        "LSB;label=32;scalar=64";
    class       volScalarField;
    location    "85";
    object      k;
}
// * * * * * * * * * * * * * * * * * * * * * * * * * * * * * * * * * * * * * //

dimensions      [0 2 -2 0 0 0 0];

internalField   nonuniform List<scalar> 
20580
(
3.1731501e-06
2.4199884e-06
1.9171675e-06
1.5722378e-06
1.3338949e-06
1.1605575e-06
1.0315249e-06
9.3460577e-07
8.57221e-07
7.935627e-07
7.4063451e-07
6.9640844e-07
6.599482e-07
6.2552349e-07
5.9800183e-07
5.7276821e-07
5.5106545e-07
5.3534458e-07
5.2060756e-07
5.1046504e-07
5.0299199e-07
4.9316697e-07
4.8813131e-07
4.8951038e-07
4.9742962e-07
5.0462181e-07
5.1155873e-07
5.2614117e-07
5.3560414e-07
5.6113852e-07
6.1338774e-07
3.1777457e-06
2.4277088e-06
1.9488155e-06
1.6054338e-06
1.3601365e-06
1.175798e-06
1.0416461e-06
9.4194814e-07
8.6378133e-07
7.983482e-07
7.4631874e-07
7.0061211e-07
6.6432876e-07
6.2887861e-07
5.9966131e-07
5.7423713e-07
5.5108489e-07
5.3728264e-07
5.2187844e-07
5.1479092e-07
5.1144976e-07
5.021142e-07
4.9602237e-07
5.0051281e-07
5.1189935e-07
5.2476873e-07
5.3487107e-07
5.5956976e-07
5.8282231e-07
6.2385055e-07
6.3331262e-07
3.1762246e-06
2.4232377e-06
1.9479864e-06
1.6205406e-06
1.3804048e-06
1.1924779e-06
1.0547001e-06
9.5026786e-07
8.6973777e-07
8.0313277e-07
7.5041743e-07
7.0459548e-07
6.6730772e-07
6.3342978e-07
6.023951e-07
5.777243e-07
5.5275938e-07
5.3834858e-07
5.2196899e-07
5.1279441e-07
5.1001757e-07
5.027563e-07
4.9480817e-07
4.9817805e-07
5.0807215e-07
5.2231534e-07
5.2958554e-07
5.4651084e-07
5.7888137e-07
6.1794714e-07
6.8398226e-07
3.1764896e-06
2.4113093e-06
1.9342695e-06
1.617679e-06
1.3825551e-06
1.2031161e-06
1.0675886e-06
9.613681e-07
8.7977217e-07
8.1080068e-07
7.5693667e-07
7.0915052e-07
6.7062444e-07
6.3656732e-07
6.0562573e-07
5.8029536e-07
5.5669807e-07
5.4054173e-07
5.2451045e-07
5.1371871e-07
5.0905867e-07
5.0296263e-07
4.9538357e-07
4.9741158e-07
5.0553943e-07
5.2441661e-07
5.3470475e-07
5.4520133e-07
5.6614992e-07
5.9264119e-07
6.5459051e-07
3.1782961e-06
2.4146402e-06
1.9299835e-06
1.610708e-06
1.3806399e-06
1.210108e-06
1.079177e-06
9.7347307e-07
8.9048222e-07
8.1932363e-07
7.6358992e-07
7.1522093e-07
6.7472901e-07
6.4078691e-07
6.0864485e-07
5.8267535e-07
5.5952466e-07
5.4244317e-07
5.2649798e-07
5.1686251e-07
5.1055006e-07
5.0545547e-07
4.9956568e-07
5.0050202e-07
5.0648299e-07
5.2598036e-07
5.5463292e-07
5.7216671e-07
5.8758433e-07
6.1560121e-07
6.4296082e-07
3.1828696e-06
2.4343974e-06
1.9357459e-06
1.6131071e-06
1.3822324e-06
1.2185152e-06
1.0934515e-06
9.921412e-07
9.099351e-07
8.3653125e-07
7.7646242e-07
7.2541185e-07
6.8224695e-07
6.4700752e-07
6.1300144e-07
5.8579829e-07
5.6219385e-07
5.4329826e-07
5.2731647e-07
5.1771758e-07
5.1181004e-07
5.0711922e-07
5.0364628e-07
5.0370355e-07
5.0630654e-07
5.227344e-07
5.5145466e-07
5.9721893e-07
6.2594572e-07
6.9951187e-07
7.0560112e-07
3.1879485e-06
2.4506805e-06
1.9367106e-06
1.6122634e-06
1.380718e-06
1.2173357e-06
1.0971152e-06
1.0058836e-06
9.2951779e-07
8.6094394e-07
8.0171191e-07
7.4737618e-07
6.9874555e-07
6.5986233e-07
6.2269326e-07
5.9279918e-07
5.6774742e-07
5.4629207e-07
5.2968139e-07
5.1897728e-07
5.1128916e-07
5.055116e-07
5.0282791e-07
5.0070467e-07
4.9979775e-07
5.0921477e-07
5.3273669e-07
5.8060336e-07
6.152035e-07
6.8906058e-07
7.5307282e-07
3.2060695e-06
2.4520733e-06
1.9408832e-06
1.6072688e-06
1.3715004e-06
1.2131963e-06
1.0950858e-06
1.0081283e-06
9.3762664e-07
8.7902175e-07
8.2501739e-07
7.772793e-07
7.3089917e-07
6.9045389e-07
6.4887457e-07
6.1161308e-07
5.8189656e-07
5.5588522e-07
5.367701e-07
5.2327823e-07
5.1173749e-07
5.0542659e-07
5.0393404e-07
5.0141358e-07
4.9642852e-07
4.9858843e-07
5.1175666e-07
5.319957e-07
5.6398595e-07
6.0991107e-07
7.2241324e-07
3.3831265e-06
2.6485299e-06
2.0174982e-06
1.6314418e-06
1.3798455e-06
1.2119534e-06
1.0885235e-06
9.9907224e-07
9.3237649e-07
8.775792e-07
8.2912592e-07
7.8833475e-07
7.5150675e-07
7.1640288e-07
6.8389485e-07
6.4896587e-07
6.1795448e-07
5.8708821e-07
5.5936725e-07
5.3811079e-07
5.1989706e-07
5.1100104e-07
5.1016663e-07
5.0866992e-07
5.0464683e-07
5.060944e-07
5.1734587e-07
5.3630959e-07
5.6110571e-07
5.8319264e-07
6.4014699e-07
4.0290114e-06
3.3716307e-06
2.4123158e-06
1.8018378e-06
1.4577261e-06
1.2409971e-06
1.0974579e-06
9.9974998e-07
9.2197362e-07
8.6328865e-07
8.1590416e-07
7.7548848e-07
7.4372242e-07
7.1327923e-07
6.8584439e-07
6.5919979e-07
6.3323647e-07
6.094428e-07
5.9249982e-07
5.7236352e-07
5.5144895e-07
5.3574656e-07
5.2810244e-07
5.246862e-07
5.2471731e-07
5.2812481e-07
5.4095881e-07
5.652013e-07
6.0386125e-07
6.3285156e-07
6.5728854e-07
3.2422261e-06
3.0818681e-06
2.6023558e-06
2.1389737e-06
1.7377754e-06
1.4022203e-06
1.1940477e-06
1.0594464e-06
9.6173801e-07
8.8792591e-07
8.281036e-07
7.8010782e-07
7.3967283e-07
7.0297357e-07
6.7290669e-07
6.4663551e-07
6.2335035e-07
6.0469231e-07
5.9297331e-07
5.8114136e-07
5.7047299e-07
5.680887e-07
5.6504857e-07
5.5967356e-07
5.6079984e-07
5.6600779e-07
5.766526e-07
6.1014904e-07
6.5121631e-07
7.3146601e-07
7.4553006e-07
3.2782534e-06
2.6915413e-06
2.3743219e-06
2.0859781e-06
1.8456188e-06
1.6758668e-06
1.5223162e-06
1.369923e-06
1.2294465e-06
1.1115211e-06
9.956507e-07
8.9722088e-07
8.1771035e-07
7.529537e-07
7.0117009e-07
6.5988297e-07
6.2679857e-07
6.0203692e-07
5.872673e-07
5.7597323e-07
5.6784214e-07
5.7011684e-07
5.7226214e-07
5.7218746e-07
5.7535367e-07
5.8226861e-07
5.878565e-07
6.0398503e-07
6.3979869e-07
7.105935e-07
7.917779e-07
3.632452e-06
3.0089903e-06
2.3594765e-06
1.9553155e-06
1.7133601e-06
1.6171958e-06
1.5412428e-06
1.4817832e-06
1.4300339e-06
1.3600946e-06
1.2943963e-06
1.21023e-06
1.1142497e-06
1.0131859e-06
9.1586518e-07
8.1490654e-07
7.2353999e-07
6.610061e-07
6.2211972e-07
5.958129e-07
5.7786592e-07
5.7453518e-07
5.7566255e-07
5.7525218e-07
5.7787248e-07
5.8343969e-07
5.8661061e-07
5.9377563e-07
6.1559331e-07
6.5462079e-07
7.2185022e-07
3.3519214e-06
3.0412677e-06
2.4482246e-06
2.0214346e-06
1.7023684e-06
1.4883776e-06
1.3770157e-06
1.3036621e-06
1.2686526e-06
1.2187522e-06
1.1816554e-06
1.1513033e-06
1.1034124e-06
1.0495314e-06
9.9344672e-07
9.4763141e-07
9.0541557e-07
8.5391295e-07
8.0048832e-07
7.5223921e-07
7.0233497e-07
6.6618701e-07
6.4642491e-07
6.3178411e-07
6.2516023e-07
6.2305449e-07
6.2495578e-07
6.2881399e-07
6.4659974e-07
6.8748679e-07
7.202073e-07
3.2098877e-06
2.6225251e-06
2.3035404e-06
2.0167529e-06
1.742016e-06
1.536382e-06
1.3866813e-06
1.2821687e-06
1.1959339e-06
1.1194048e-06
1.0567126e-06
9.9608591e-07
9.4651997e-07
8.9713307e-07
8.5974576e-07
8.4587692e-07
8.4295597e-07
8.3736692e-07
8.3606159e-07
8.3784341e-07
8.43121e-07
8.6474107e-07
8.871655e-07
8.8913665e-07
8.8762513e-07
8.8552229e-07
8.8438508e-07
8.7497925e-07
8.7270935e-07
8.9067679e-07
8.7379941e-07
3.3535518e-06
2.7601068e-06
2.1408163e-06
1.8264488e-06
1.6303563e-06
1.5017518e-06
1.4030466e-06
1.3275578e-06
1.2457851e-06
1.1712822e-06
1.1024581e-06
1.0221635e-06
9.4361403e-07
8.7725234e-07
8.1457522e-07
7.5579486e-07
7.2628393e-07
7.2659715e-07
7.3105886e-07
7.4689047e-07
7.7860253e-07
8.2880709e-07
8.7363353e-07
9.3556045e-07
9.838875e-07
1.044718e-06
1.0947519e-06
1.1756342e-06
1.2162063e-06
1.3134218e-06
1.3167199e-06
3.6214523e-06
3.1448433e-06
2.3550088e-06
1.8697065e-06
1.5491677e-06
1.3637473e-06
1.259112e-06
1.1944692e-06
1.1355111e-06
1.0898305e-06
1.0465988e-06
9.8964756e-07
9.257758e-07
8.6874615e-07
8.0803334e-07
7.5522644e-07
7.1775933e-07
6.838426e-07
6.5933919e-07
6.564417e-07
6.6219082e-07
6.7415535e-07
7.0321092e-07
7.7071672e-07
8.320463e-07
9.038835e-07
9.6331632e-07
1.0600611e-06
1.1412372e-06
1.2211062e-06
1.2971179e-06
3.0789582e-06
2.7001306e-06
2.3027135e-06
1.9771382e-06
1.6688177e-06
1.4154958e-06
1.252078e-06
1.1302612e-06
1.0340199e-06
9.5531591e-07
8.9676586e-07
8.4629822e-07
8.0477551e-07
7.7109228e-07
7.3572342e-07
7.0473777e-07
6.7498832e-07
6.4966293e-07
6.2807033e-07
6.1569156e-07
6.1357402e-07
6.1151013e-07
6.1284931e-07
6.2730503e-07
6.5224276e-07
6.7107645e-07
7.0133423e-07
7.3624908e-07
8.1322602e-07
8.5902151e-07
9.6864534e-07
3.3907029e-06
2.86734e-06
2.2611174e-06
1.9070878e-06
1.676092e-06
1.5108213e-06
1.3779521e-06
1.2614923e-06
1.1507661e-06
1.0485124e-06
9.6244237e-07
8.8392545e-07
8.2152791e-07
7.694619e-07
7.2391913e-07
6.8569566e-07
6.5442004e-07
6.2854976e-07
6.0808516e-07
5.9408977e-07
5.8930602e-07
5.8617145e-07
5.8560293e-07
5.9421784e-07
6.0933966e-07
6.2258538e-07
6.4567049e-07
6.6613323e-07
7.0656041e-07
7.3608538e-07
7.7709715e-07
3.2575796e-06
2.7272407e-06
2.2224094e-06
1.87416e-06
1.6162964e-06
1.4694338e-06
1.383288e-06
1.326928e-06
1.2776675e-06
1.2297506e-06
1.1704353e-06
1.101445e-06
1.0322785e-06
9.6440771e-07
8.9880062e-07
8.4256987e-07
7.9191699e-07
7.4977753e-07
7.1716551e-07
6.9508138e-07
6.8707084e-07
6.8420081e-07
6.8253419e-07
6.9396085e-07
7.1569192e-07
7.436303e-07
7.6563014e-07
8.0418138e-07
8.2985055e-07
8.7898871e-07
8.7009389e-07
3.4591954e-06
3.1726042e-06
2.6928654e-06
2.4170266e-06
2.1680099e-06
2.0147526e-06
1.8886909e-06
1.8112429e-06
1.7657587e-06
1.7434776e-06
1.7286437e-06
1.7186373e-06
1.7124607e-06
1.7055102e-06
1.6949383e-06
1.670557e-06
1.6485277e-06
1.6421092e-06
1.6294259e-06
1.6392033e-06
1.6691673e-06
1.6853654e-06
1.6797458e-06
1.701113e-06
1.7578711e-06
1.8140625e-06
1.8452819e-06
1.8968631e-06
1.9279122e-06
1.954492e-06
1.8329246e-06
4.7194633e-06
1.1810279e-05
8.8025296e-06
8.6078863e-06
7.7751896e-06
7.43407e-06
7.0263401e-06
6.702569e-06
6.54236e-06
6.4497244e-06
6.3781395e-06
6.3454034e-06
6.471916e-06
6.4599433e-06
6.7773037e-06
6.7874232e-06
6.8896339e-06
7.137366e-06
7.3113179e-06
7.6365719e-06
7.9037791e-06
8.0771623e-06
8.1235746e-06
8.1753351e-06
8.3363171e-06
8.4447487e-06
8.4911968e-06
8.4418544e-06
8.3641869e-06
8.2979936e-06
7.8861758e-06
2.2413762e-05
9.3731392e-05
5.2684751e-05
5.7832625e-05
4.4846835e-05
4.6524939e-05
4.0100344e-05
4.0476641e-05
3.7767003e-05
3.7737629e-05
3.6861433e-05
3.6664072e-05
3.6326605e-05
3.6292811e-05
3.5955048e-05
3.6079443e-05
3.5886813e-05
3.590839e-05
3.5520569e-05
3.5331475e-05
3.5187286e-05
3.43205e-05
3.4425825e-05
3.3615182e-05
3.3382325e-05
3.2031556e-05
3.1928207e-05
3.0923351e-05
3.0682854e-05
2.9361628e-05
2.8845778e-05
2.801757e-05
8.6042791e-06
2.1324627e-06
9.6736557e-07
8.1424263e-07
9.4461854e-07
1.3271534e-06
1.4311498e-06
1.0724877e-06
8.2011317e-07
7.79482e-07
8.5572997e-07
8.3703505e-07
7.5808654e-07
7.1491647e-07
7.8630397e-07
8.4284445e-07
8.0802059e-07
7.351741e-07
7.2738287e-07
7.4945368e-07
7.4626083e-07
7.1565201e-07
2.8586331e-05
9.7281788e-06
2.6154406e-06
1.1376876e-06
8.8756878e-07
9.6955927e-07
1.3769939e-06
1.598984e-06
1.3051018e-06
9.4322066e-07
8.4648705e-07
9.4038852e-07
9.7354102e-07
9.5283928e-07
8.5973148e-07
8.7259971e-07
9.6378307e-07
9.5556561e-07
8.9502424e-07
8.5168235e-07
8.899394e-07
8.9451638e-07
8.3643867e-07
2.6797203e-05
1.0376437e-05
3.0908855e-06
1.3510686e-06
1.0282406e-06
1.058328e-06
1.445666e-06
1.7953264e-06
1.6505953e-06
1.1744099e-06
9.4806172e-07
1.0209375e-06
1.1028207e-06
1.0991473e-06
9.9689392e-07
9.5955193e-07
1.0606973e-06
1.0792796e-06
1.0674456e-06
9.9942106e-07
1.0210142e-06
1.0359404e-06
1.0065479e-06
2.5362963e-05
1.1294032e-05
3.8310948e-06
1.7170996e-06
1.2386115e-06
1.1755466e-06
1.5206186e-06
2.0044887e-06
1.9489475e-06
1.5988848e-06
1.1613678e-06
1.1747287e-06
1.2838085e-06
1.2748046e-06
1.2139522e-06
1.0867093e-06
1.1379958e-06
1.2377766e-06
1.284351e-06
1.2508242e-06
1.1670265e-06
1.1743238e-06
1.1325803e-06
2.4553894e-05
1.1823176e-05
4.3991799e-06
2.1064631e-06
1.489081e-06
1.3265135e-06
1.6058765e-06
2.2985391e-06
2.3464509e-06
2.1913404e-06
1.6064797e-06
1.4274674e-06
1.554244e-06
1.5516737e-06
1.5427119e-06
1.4293452e-06
1.3800336e-06
1.507131e-06
1.5488437e-06
1.5691349e-06
1.4351744e-06
1.4345044e-06
1.411462e-06
2.3428046e-05
1.1879126e-05
4.8658319e-06
2.6084535e-06
1.9094308e-06
1.6554125e-06
1.8631345e-06
2.8207428e-06
2.8969155e-06
2.7327141e-06
2.1066613e-06
1.6613611e-06
1.8722355e-06
1.897068e-06
1.877247e-06
1.8716508e-06
1.7427136e-06
1.878084e-06
1.890547e-06
1.8734415e-06
1.7971154e-06
1.6838322e-06
1.7179485e-06
2.0434489e-05
1.2113428e-05
5.659948e-06
3.3254793e-06
2.4839889e-06
2.137417e-06
2.281749e-06
3.4022725e-06
3.4297189e-06
3.160317e-06
2.5378375e-06
1.9533139e-06
2.0794748e-06
2.2013678e-06
2.1669449e-06
2.2070515e-06
2.0951471e-06
2.1336876e-06
2.2022819e-06
2.1163791e-06
2.0932883e-06
1.9867889e-06
2.0333248e-06
1.8054265e-05
1.2130319e-05
6.4051078e-06
4.1348713e-06
3.1403571e-06
2.6805824e-06
2.7110969e-06
4.0856376e-06
4.2942373e-06
3.9678804e-06
3.3775683e-06
2.533154e-06
2.5005918e-06
2.7102073e-06
2.6584511e-06
2.6177337e-06
2.4594157e-06
2.3873856e-06
2.5322842e-06
2.5295839e-06
2.4847397e-06
2.3823833e-06
2.3498892e-06
1.5977991e-05
1.2122169e-05
7.2585296e-06
5.3191803e-06
4.065062e-06
3.4854727e-06
3.4011837e-06
5.3146468e-06
6.1221413e-06
5.7803223e-06
5.383484e-06
4.0334943e-06
3.4795057e-06
3.8310997e-06
3.83043e-06
3.5446414e-06
3.2942254e-06
2.973073e-06
3.2050136e-06
3.3887485e-06
3.2329107e-06
3.1459705e-06
2.9481478e-06
1.5066342e-05
1.2181518e-05
8.4515889e-06
7.0882867e-06
6.0311598e-06
5.211079e-06
4.8445938e-06
7.195346e-06
8.2965221e-06
7.8847242e-06
7.6823252e-06
6.5489597e-06
5.0650163e-06
5.4371361e-06
5.3018527e-06
4.776067e-06
4.6376742e-06
4.2553019e-06
4.257957e-06
4.4605851e-06
4.4907212e-06
4.3099498e-06
3.9354955e-06
1.4779565e-05
1.2256669e-05
1.0369606e-05
9.8358281e-06
9.1063716e-06
7.2924471e-06
6.4848289e-06
9.1169758e-06
1.0683694e-05
1.0162705e-05
9.3032033e-06
8.0289718e-06
6.3400744e-06
6.4694892e-06
6.5322102e-06
6.184355e-06
5.74272e-06
5.5103168e-06
5.4480556e-06
5.8637029e-06
5.8640977e-06
5.3328647e-06
5.1490497e-06
1.3981187e-05
1.2390154e-05
1.1757355e-05
1.1916113e-05
1.1972914e-05
1.0690384e-05
9.1486203e-06
1.2677201e-05
1.4963642e-05
1.4043057e-05
1.1466691e-05
9.4761335e-06
7.6121754e-06
7.4900098e-06
7.8330878e-06
7.728967e-06
7.0201403e-06
6.8253742e-06
6.6802986e-06
7.2393639e-06
7.2859638e-06
6.8241392e-06
6.1868228e-06
1.3677851e-05
1.2895338e-05
1.4046231e-05
1.490924e-05
1.6219135e-05
1.6955014e-05
1.5536387e-05
2.1398595e-05
2.5075184e-05
2.2521408e-05
1.6121776e-05
1.2724955e-05
1.0286679e-05
9.8308387e-06
1.0699292e-05
1.0730247e-05
9.5211818e-06
8.8571209e-06
8.4387536e-06
8.9011483e-06
9.4485761e-06
8.6957121e-06
7.3541608e-06
1.4106629e-05
1.3691163e-05
1.6185785e-05
1.9114932e-05
2.5453255e-05
2.9531965e-05
3.1081947e-05
4.3208699e-05
5.2349125e-05
4.5106922e-05
2.9850619e-05
2.2239886e-05
1.7261851e-05
1.6526351e-05
1.9150307e-05
1.9246187e-05
1.6245109e-05
1.2873776e-05
1.1594365e-05
1.1765178e-05
1.3184755e-05
1.2364918e-05
9.7187514e-06
1.4977122e-05
1.508686e-05
1.903468e-05
2.2988347e-05
3.2099576e-05
4.4257703e-05
5.3806621e-05
6.9536217e-05
7.7599199e-05
6.7951304e-05
5.0768892e-05
4.4385783e-05
3.3711814e-05
2.9639845e-05
3.1194683e-05
3.0918448e-05
2.6550499e-05
2.1061463e-05
1.9169558e-05
1.9235654e-05
2.28598e-05
2.1727095e-05
1.6127142e-05
1.5111111e-05
1.5918935e-05
2.116258e-05
2.445924e-05
3.2909781e-05
5.2884242e-05
7.7716771e-05
0.00010016013
9.9613448e-05
8.1317929e-05
6.0587538e-05
5.669244e-05
4.72859e-05
4.0906597e-05
4.0526614e-05
4.0738091e-05
3.5556159e-05
3.1167654e-05
3.2015543e-05
3.1545662e-05
3.2732511e-05
3.1809609e-05
2.589573e-05
1.5935031e-05
1.715259e-05
2.2634472e-05
2.5568721e-05
3.6140349e-05
6.7573435e-05
0.00012329425
0.00015795339
0.00014566694
0.00010224338
6.7719293e-05
6.2227972e-05
5.9751766e-05
5.5795117e-05
5.4654904e-05
5.1483468e-05
3.9420254e-05
3.4466141e-05
3.8684187e-05
4.0479772e-05
4.3686939e-05
4.3632525e-05
3.6474236e-05
1.5652937e-05
1.8090361e-05
2.4635952e-05
2.8406331e-05
4.4502463e-05
9.4103767e-05
0.00019932369
0.00025014693
0.00022292802
0.00012961594
7.7943432e-05
7.2388792e-05
8.1914972e-05
8.7422305e-05
8.5078883e-05
6.9744374e-05
4.3410573e-05
3.7182948e-05
4.5023613e-05
5.2344233e-05
5.6342066e-05
5.3508516e-05
3.9843952e-05
1.435855e-05
1.8197417e-05
2.6121793e-05
3.2357036e-05
5.6040314e-05
0.00012609174
0.0002651372
0.00032493802
0.00028244464
0.00015321933
9.8955209e-05
0.00010104975
0.0001454786
0.00018403933
0.00017640375
0.00011465482
5.2932662e-05
4.4201913e-05
5.7952405e-05
7.9244828e-05
8.8130779e-05
7.5449544e-05
4.3806931e-05
1.2922728e-05
1.7661656e-05
2.621795e-05
3.4971598e-05
6.5849418e-05
0.00015742913
0.00032785972
0.00039452634
0.00032951317
0.00017955905
0.00013494188
0.0001682133
0.00032333828
0.00042645346
0.0003718832
0.00016862827
7.5758778e-05
6.7579182e-05
0.00010787873
0.00014666891
0.0001346788
8.5821889e-05
4.8153584e-05
1.3649247e-05
1.7141914e-05
2.5045837e-05
3.8930615e-05
8.1745857e-05
0.00020369027
0.00039974144
0.00046799032
0.0003697776
0.00020305294
0.00016796235
0.00023441502
0.00046559696
0.00057556063
0.0004534659
0.00018202044
0.00010542348
0.00010943202
0.00019352086
0.0002406109
0.00022115171
0.0001004747
5.8445597e-05
1.6167227e-05
1.7642927e-05
2.4581693e-05
4.2531776e-05
0.00010026582
0.00026208391
0.00046718416
0.00052257091
0.00039028147
0.00023018381
0.0002130568
0.00032915235
0.00060733067
0.00068091855
0.00045648358
0.00020510286
0.0001563259
0.00023763806
0.00042959129
0.00047334785
0.00022504058
0.00010456373
8.2428766e-05
1.9606886e-05
1.9880061e-05
2.5978166e-05
4.7757521e-05
0.00012206018
0.00032753311
0.00052145216
0.00054835014
0.00039198632
0.00028161399
0.00030447568
0.00053150412
0.00076576046
0.00077229905
0.00041876324
0.00024542913
0.00024014495
0.00042924056
0.00059133912
0.00049104799
0.00020421436
0.00012900059
0.00013795577
2.3269953e-05
2.3316292e-05
3.0206672e-05
5.6552762e-05
0.00014736509
0.00039488826
0.00054279509
0.00054791924
0.00042535863
0.00039591934
0.00051803427
0.00079324965
0.00086631226
0.00073192689
0.00040749437
0.00031149428
0.00039910638
0.00060923601
0.00065943062
0.00040852127
0.00021980056
0.00019973983
0.00025818036
2.7112445e-05
2.8014325e-05
3.7831788e-05
7.6226903e-05
0.00020590928
0.00044287367
0.00054928431
0.00055312404
0.00051905013
0.0005582579
0.00072507423
0.00084134419
0.00084265369
0.00062692538
0.00044401333
0.00043467215
0.00055925709
0.00065033673
0.00060522962
0.000345753
0.00028119768
0.0002964143
0.00029612984
2.969777e-05
3.4065773e-05
5.3800878e-05
0.00011726808
0.00028228231
0.00045371263
0.00053069194
0.00055973332
0.00059497079
0.00068086113
0.00080206833
0.00083183031
0.00079425347
0.00060051692
0.00052558577
0.00053678664
0.00059127413
0.00061949485
0.00046967736
0.00036641979
0.00033072831
0.00031632641
0.00030385823
3.2088139e-05
4.033917e-05
7.291816e-05
0.00016184482
0.00033319157
0.00043950486
0.00049306406
0.00054990917
0.00063622612
0.00073931451
0.00080515279
0.00081678959
0.00073255844
0.00061176915
0.00056792607
0.00056097395
0.00056563674
0.00050872674
0.00041103946
0.00036646411
0.00034549677
0.00034014618
0.00035072553
3.4117529e-05
4.7731873e-05
9.5457898e-05
0.00020496828
0.00035422374
0.00041898738
0.00046817066
0.00055314348
0.00066288771
0.0007457925
0.00079539922
0.00077775534
0.00068590008
0.00061284852
0.00057043499
0.00053317039
0.00048165616
0.00040986981
0.00038406751
0.00037789568
0.00038933674
0.00042764764
0.00047545098
3.4137972e-05
5.1118684e-05
0.00010497265
0.00022148924
0.00035790585
0.00041641027
0.00047391896
0.00058249128
0.00066992117
0.00072581692
0.00074657065
0.00070512543
0.0006432458
0.0005902352
0.00053288884
0.00046384781
0.00040018099
0.00038454924
0.00039025123
0.00042477153
0.00046169138
0.00048795743
0.00053347481
3.3128365e-05
5.1243655e-05
0.00010836634
0.00023752263
0.00037004757
0.00042903576
0.00050033072
0.0006132447
0.00067111256
0.0006899327
0.00065211595
0.00059119053
0.00056709699
0.0005480799
0.00049283402
0.00041258052
0.00038580426
0.00039174623
0.00043815519
0.00046552041
0.00046919682
0.00048157439
0.000557957
3.2749836e-05
5.5158727e-05
0.00012182394
0.00025763604
0.0003717234
0.00043295409
0.00052832917
0.00062725166
0.00064790941
0.0006197452
0.00053385783
0.00050514226
0.00051543757
0.00052085899
0.00045231694
0.00040227119
0.00039291595
0.00044744807
0.00048105907
0.00047360811
0.00045651516
0.00048883312
0.00065067999
3.4405345e-05
6.3612764e-05
0.0001406824
0.00027385357
0.00036291752
0.00041575364
0.00051914083
0.00059108855
0.00059076949
0.00053490856
0.00047552212
0.00046592242
0.00047563572
0.0004506971
0.00039867647
0.00038883946
0.00041478472
0.00047455188
0.00048579634
0.00047787662
0.000489242
0.00063366834
0.0010226439
3.4835228e-05
7.3250956e-05
0.00016414315
0.0002873742
0.00035054384
0.00039331129
0.00048458253
0.00054271954
0.00055684598
0.00048617491
0.0004393595
0.00043182182
0.00044012806
0.00041709347
0.00037354243
0.00036426148
0.00040513175
0.00047602458
0.00051221059
0.00054758404
0.00068775188
0.0011541128
0.0019481901
3.3315115e-05
7.6293824e-05
0.00017281103
0.00028471933
0.00033824763
0.0003863145
0.00046763492
0.00050185497
0.00048370322
0.00041339018
0.00039569463
0.00040270637
0.00040436414
0.00036701621
0.00034705059
0.00034897518
0.00040630203
0.00049206247
0.00058202763
0.00079098271
0.0014066682
0.0021988822
0.0025039118
3.3337128e-05
8.4899634e-05
0.00018625001
0.00028637791
0.00033850399
0.00039083339
0.00044090283
0.00044072774
0.00039727737
0.00035506248
0.00034485571
0.0003462575
0.00035336012
0.00035334617
0.00035930176
0.00039871118
0.00051181253
0.00067108498
0.00093257715
0.0013879053
0.0019189973
0.0023625897
0.0024969441
3.3471011e-05
8.7776973e-05
0.00018529663
0.00027049377
0.00031425062
0.00036151294
0.00039494407
0.00039873743
0.00036334006
0.00031954609
0.00030157627
0.00030077171
0.00031791419
0.00033171105
0.00035002336
0.00039320047
0.00051634477
0.00071767889
0.0010233112
0.0014016797
0.0017989817
0.0020639199
0.0020876823
3.3306437e-05
9.1163021e-05
0.00018430317
0.00025626485
0.00029059168
0.00032185356
0.00034441413
0.00035214208
0.00033196709
0.00029559418
0.00027773333
0.0002741923
0.00028786389
0.00030062865
0.00031848465
0.0003678633
0.00049840045
0.00071139615
0.00102954
0.0013965923
0.0017018911
0.0018482087
0.0018247481
3.055085e-05
9.2081426e-05
0.000180872
0.00024375681
0.00027186542
0.00029333863
0.00030677071
0.00031115549
0.00029670873
0.00026869226
0.00025633871
0.00025443257
0.0002672467
0.00028094224
0.00030004682
0.00036576054
0.00050188807
0.00073440534
0.00107281
0.0014255198
0.0016759373
0.0017741467
0.0016757814
2.9310777e-05
9.1013084e-05
0.00017439856
0.00023108731
0.00025787897
0.00027517029
0.00028239873
0.00028138614
0.000263956
0.00024180475
0.0002330665
0.00023109777
0.00024067209
0.00025614667
0.00029607605
0.00037926207
0.00054570104
0.00082592809
0.0011710387
0.0014559187
0.0016434605
0.0017277336
0.0015370593
2.9626736e-05
9.2309751e-05
0.00017033704
0.00021914843
0.00024318487
0.00025601569
0.00025940178
0.0002543011
0.00023682026
0.00022044317
0.00021310169
0.00021016971
0.00021846354
0.00024299621
0.00030037589
0.00042100656
0.00065858273
0.00099036428
0.001291395
0.0014799095
0.0015747324
0.0016192616
0.0013683479
2.9993766e-05
9.5146273e-05
0.00016706817
0.00020836122
0.00022652062
0.0002331667
0.00023361754
0.00022653482
0.00021008569
0.00020036389
0.0001968058
0.00019636481
0.00020987632
0.00024797006
0.00033371768
0.00053031607
0.00085266251
0.0011476947
0.0013438013
0.0014326628
0.0014205319
0.0013730807
0.0011479711
2.9526784e-05
9.5891936e-05
0.00016202014
0.00019748199
0.00021169449
0.00021504829
0.00021315417
0.00020344156
0.00018891548
0.00018399425
0.00018375607
0.00018781682
0.00021537501
0.00027667238
0.0004286583
0.00073152454
0.0010322076
0.0012252716
0.0013062455
0.0013018171
0.0012019451
0.0010776449
0.00093267468
2.9355336e-05
9.4851136e-05
0.00015322606
0.00018682427
0.00020024927
0.00020350507
0.00020069902
0.00018870692
0.00017585344
0.0001727605
0.00017446868
0.00018754297
0.00023033664
0.000342155
0.00060280293
0.00091017858
0.0011129066
0.0011984351
0.0012132754
0.0011407851
0.0010107945
0.00088370583
0.00080966847
3.1115853e-05
9.6910492e-05
0.00014812709
0.00017620904
0.00018794178
0.00019091226
0.00018772646
0.00017567002
0.00016574815
0.00016369344
0.00016770961
0.00019309964
0.0002685956
0.00047115031
0.00076792887
0.00099732819
0.0011031881
0.0011379584
0.001097524
0.0010033378
0.00089537625
0.00081121779
0.00076484916
3.3424711e-05
9.6107122e-05
0.00014479618
0.00016889092
0.00017701623
0.00017799974
0.00017324877
0.00016135352
0.00015493833
0.00015482385
0.00016788389
0.00021144725
0.00034807634
0.00061406285
0.00088446818
0.0010226708
0.0010736002
0.0010628397
0.0010006049
0.00092175462
0.00085511593
0.00079799375
0.00074822427
3.433944e-05
9.5818126e-05
0.0001379441
0.00016009036
0.00016636448
0.00016624769
0.00016091553
0.00015047003
0.00014648466
0.00014965621
0.00017405369
0.0002575098
0.00046529505
0.00074734782
0.00093960002
0.0010165689
0.0010299966
0.0010007222
0.00094548579
0.00089784617
0.00085225455
0.00080132541
0.00074234525
3.7115191e-05
9.2437318e-05
0.00013237372
0.00015193214
0.00015747091
0.0001565636
0.00015047528
0.00014179753
0.000139701
0.00014825766
0.00019079004
0.00032207648
0.00057199501
0.00082057162
0.00094181041
0.0009841653
0.00098513416
0.00096002489
0.0009315202
0.00090408008
0.00087480915
0.00082318468
0.00074443411
3.8859572e-05
9.0902168e-05
0.00012595871
0.00014443675
0.00014914883
0.00014802383
0.00014127848
0.00013404126
0.00013359765
0.00015001192
0.00021575019
0.00038657597
0.00064250022
0.00083644377
0.0009230334
0.0009521186
0.00095767439
0.0009550161
0.00094792693
0.00094276004
0.00091543656
0.00084993077
0.0007514682
4.1981701e-05
8.980521e-05
0.00011878995
0.00013530165
0.00013942925
0.00013806002
0.00013163031
0.00012662354
0.00012887828
0.00015421366
0.00024655774
0.00044046057
0.0006760731
0.00083181527
0.00090588757
0.00093980361
0.00095945689
0.00097396769
0.00098597261
0.00098699806
0.00095538062
0.00087909908
0.0007708179
4.6340061e-05
8.5258138e-05
0.00011228998
0.00012712089
0.00013126054
0.00013043194
0.00012456459
0.00012057847
0.00012461178
0.0001559735
0.00026001195
0.00046139085
0.00067951582
0.00082119076
0.00088886191
0.00093165693
0.00096726007
0.0010010668
0.0010202246
0.0010221377
0.00099131692
0.00091725112
0.00081630017
4.9543253e-05
8.0116746e-05
0.00010433012
0.00011793143
0.00012216857
0.00012208957
0.00011796687
0.00011510933
0.00012005601
0.00015430268
0.00025903949
0.00045806334
0.00066573955
0.00079273926
0.00086304201
0.00091686975
0.00096924495
0.0010240214
0.0010510087
0.0010559378
0.0010317287
0.00096668118
0.00087490344
5.1555075e-05
7.5718734e-05
9.7867721e-05
0.00011092506
0.00011489459
0.00011456669
0.00011074384
0.00010812707
0.0001131573
0.00014733028
0.00024882062
0.00043903048
0.0006336791
0.0007551071
0.00083211681
0.00089926267
0.00096627166
0.001033964
0.0010787601
0.0010890683
0.001073287
0.0010184192
0.00093711758
5.2812438e-05
7.0329431e-05
8.9956125e-05
0.0001028808
0.00010808379
0.0001088295
0.00010612335
0.00010231656
0.00010525315
0.00013232106
0.00022598564
0.00039989986
0.00058149163
0.00070878958
0.00079470908
0.00087002135
0.0009496332
0.0010257907
0.0010837446
0.0011067877
0.0011035424
0.0010680272
0.0010016779
5.2033245e-05
6.6551004e-05
8.2283811e-05
9.4649351e-05
0.00010022235
0.00010142605
0.00010021857
9.6619907e-05
9.753087e-05
0.00011348635
0.00018378719
0.00034002843
0.00051612882
0.00064352371
0.00073808885
0.00082281633
0.00090863723
0.00099379094
0.0010652892
0.0011057273
0.0011203882
0.0011147284
0.0010748719
4.9223368e-05
6.3761701e-05
7.6326525e-05
8.822465e-05
9.4126267e-05
9.6079863e-05
9.5312173e-05
9.2396619e-05
9.0169409e-05
9.8164724e-05
0.00013912805
0.00025692012
0.00043560335
0.00057156015
0.00066300752
0.00074768583
0.00084061393
0.00093715553
0.0010244797
0.0010879368
0.0011225329
0.0011388009
0.0011351505
4.4876177e-05
5.9587389e-05
6.8931322e-05
7.9897869e-05
8.6757459e-05
8.977051e-05
9.0561786e-05
8.9419079e-05
8.6119867e-05
8.8474001e-05
0.00010666668
0.00017368051
0.00032043527
0.00048473453
0.00059132648
0.00066627676
0.00074619885
0.00084373732
0.00094802779
0.0010406252
0.0011017204
0.0011349871
0.0011461945
3.8228688e-05
5.7476113e-05
6.383064e-05
7.4378366e-05
8.0918101e-05
8.4155497e-05
8.5251565e-05
8.5129803e-05
8.3650877e-05
8.302261e-05
8.9414469e-05
0.00011896101
0.00020103181
0.00034968444
0.00049279839
0.00058894714
0.00065933298
0.00073460054
0.0008286252
0.00093572514
0.0010366314
0.001101876
0.0011347139
3.3114993e-05
5.3628214e-05
5.8796622e-05
6.7215842e-05
7.4746364e-05
7.96333e-05
8.1863727e-05
8.1837877e-05
8.1012588e-05
7.9260718e-05
8.1172992e-05
9.1867033e-05
0.00012731468
0.00021115499
0.00034539058
0.00047372459
0.00057036858
0.00064375344
0.00071446733
0.00079788053
0.00089713758
0.0010042049
0.0010771677
2.4728024e-05
5.0380659e-05
5.5651726e-05
6.1323603e-05
6.8362211e-05
7.3136787e-05
7.6537723e-05
7.8771641e-05
7.8973561e-05
7.7786787e-05
7.7005711e-05
7.9893711e-05
9.222077e-05
0.00012682312
0.00020177419
0.00031504111
0.00043172675
0.00053115377
0.00061256208
0.0006833503
0.00075754083
0.00084279992
0.0009312203
1.4886778e-05
4.6117206e-05
5.4140398e-05
5.8491401e-05
6.4191154e-05
6.9039802e-05
7.1532261e-05
7.3761401e-05
7.5848379e-05
7.6291228e-05
7.5648649e-05
7.5976368e-05
7.9099716e-05
9.0398307e-05
0.00011930385
0.00017890621
0.00026858562
0.00036939757
0.00046803416
0.00055505498
0.0006320324
0.00070603331
0.00078581512
1.2727165e-05
3.3259027e-05
5.0424877e-05
5.3690549e-05
5.8968155e-05
6.4669107e-05
6.8302928e-05
7.0209055e-05
7.1504691e-05