/*--------------------------------*- C++ -*----------------------------------*\
| =========                 |                                                 |
| \\      /  F ield         | OpenFOAM: The Open Source CFD Toolbox           |
|  \\    /   O peration     | Version:  2406                                  |
|   \\  /    A nd           | Website:  www.openfoam.com                      |
|    \\/     M anipulation  |                                                 |
\*---------------------------------------------------------------------------*/
FoamFile
{
    version     2.0;
    format      ascii;
    arch        "LSB;label=32;scalar=64";
    class       volScalarField;
    location    "85";
    object      nut;
}
// * * * * * * * * * * * * * * * * * * * * * * * * * * * * * * * * * * * * * //

dimensions      [0 2 -1 0 0 0 0];

internalField   nonuniform List<scalar> 
20580
(
8.9212322e-07
9.0282824e-07
8.8161748e-07
8.5677107e-07
8.373662e-07
8.2121672e-07
8.096826e-07
8.0219467e-07
7.966e-07
7.9200693e-07
7.8881727e-07
7.8646987e-07
7.8629266e-07
7.8293728e-07
7.8246794e-07
7.8085478e-07
7.794702e-07
7.8176175e-07
7.8281091e-07
7.8727502e-07
7.9360927e-07
7.9733403e-07
8.0732432e-07
8.1689382e-07
8.346352e-07
8.4906612e-07
8.6348186e-07
8.8645711e-07
9.0397757e-07
9.3476501e-07
9.8928752e-07
8.9341315e-07
9.0749744e-07
8.9647826e-07
8.7434452e-07
8.5065993e-07
8.2818639e-07
8.1330195e-07
8.0369804e-07
7.9790422e-07
7.9189238e-07
7.8962538e-07
7.8566058e-07
7.8551698e-07
7.813703e-07
7.7878038e-07
7.7767745e-07
7.7448977e-07
7.788564e-07
7.7948793e-07
7.8661267e-07
7.9713712e-07
7.994988e-07
8.0915377e-07
8.2437566e-07
8.4328913e-07
8.6502017e-07
8.8114505e-07
9.1376079e-07
9.4216234e-07
9.9010391e-07
1.0041902e-06
8.9293767e-07
9.0961699e-07
8.9892394e-07
8.8345039e-07
8.6348641e-07
8.3898614e-07
8.2075504e-07
8.0800518e-07
7.9957533e-07
7.9279814e-07
7.8924502e-07
7.853356e-07
7.8397579e-07
7.8109943e-07
7.7715415e-07
7.7599829e-07
7.7174168e-07
7.7528434e-07
7.7477771e-07
7.81127e-07
7.9168285e-07
7.9772215e-07
8.0157937e-07
8.1887511e-07
8.3662494e-07
8.603907e-07
8.7441575e-07
8.9779727e-07
9.3644064e-07
9.8126671e-07
1.0490933e-06
8.9222554e-07
9.0955831e-07
9.0026051e-07
8.8674146e-07
8.6723591e-07
8.470512e-07
8.2958367e-07
8.1536271e-07
8.0646293e-07
7.9720506e-07
7.9314648e-07
7.8644459e-07
7.8455113e-07
7.8040803e-07
7.7671422e-07
7.7503739e-07
7.7093989e-07
7.7396574e-07
7.7260667e-07
7.7798329e-07
7.8538285e-07
7.9463827e-07
7.9692619e-07
8.1424407e-07
8.3066372e-07
8.5947672e-07
8.7840328e-07
8.9497733e-07
9.2089565e-07
9.5212881e-07
1.0195818e-06
8.9145763e-07
9.1061275e-07
9.0137067e-07
8.8891226e-07
8.7173588e-07
8.534216e-07
8.3852233e-07
8.236356e-07
8.1366567e-07
8.0263264e-07
7.9687604e-07
7.9053648e-07
7.857532e-07
7.8280584e-07
7.7598441e-07
7.7507692e-07
7.7014817e-07
7.7204411e-07
7.7128596e-07
7.7748811e-07
7.8247946e-07
7.9207111e-07
7.9570473e-07
8.1156714e-07
8.2572828e-07
8.5237052e-07
8.9223449e-07
9.1884063e-07
9.3957893e-07
9.7177633e-07
1.0032713e-06
8.9082093e-07
9.1515799e-07
9.0388088e-07
8.9142921e-07
8.7539383e-07
8.61823e-07
8.5044082e-07
8.3940406e-07
8.2942052e-07
8.1705009e-07
8.0640387e-07
7.9883399e-07
7.9058492e-07
7.8744085e-07
7.7828842e-07
7.7606817e-07
7.7093954e-07
7.7034399e-07
7.6873438e-07
7.7507671e-07
7.8022423e-07
7.8921298e-07
7.9552683e-07
8.0989652e-07
8.2152557e-07
8.4388141e-07
8.803424e-07
9.3493847e-07
9.6650863e-07
1.0437925e-06
1.0549296e-06
8.9119193e-07
9.1804878e-07
9.0429695e-07
8.9237871e-07
8.767655e-07
8.6449538e-07
8.555648e-07
8.5189599e-07
8.4685624e-07
8.3910862e-07
8.2921173e-07
8.1895788e-07
8.0545187e-07
7.9867042e-07
7.8745613e-07
7.8156302e-07
7.7595603e-07
7.7222782e-07
7.7006967e-07
7.7348075e-07
7.7841274e-07
7.8375512e-07
7.9256679e-07
8.0133232e-07
8.1381599e-07
8.2896947e-07
8.5736479e-07
9.1530942e-07
9.5330558e-07
1.0289431e-06
1.0901683e-06
8.9467075e-07
9.1488587e-07
9.0414175e-07
8.9072722e-07
8.7468849e-07
8.6657557e-07
8.5817754e-07
8.5653702e-07
8.5537578e-07
8.5648257e-07
8.5180709e-07
8.4773628e-07
8.3758155e-07
8.2863499e-07
8.1419871e-07
7.989862e-07
7.8969491e-07
7.8093768e-07
7.768535e-07
7.7635078e-07
7.7811803e-07
7.8250921e-07
7.9196625e-07
7.9881672e-07
8.0604913e-07
8.1857134e-07
8.3661946e-07
8.6228792e-07
9.0173813e-07
9.5084288e-07
1.0621668e-06
9.1000708e-07
9.6196469e-07
9.2512534e-07
8.9873821e-07
8.7794177e-07
8.6670222e-07
8.594102e-07
8.5770554e-07
8.5815466e-07
8.5903619e-07
8.5865197e-07
8.5943114e-07
8.5993453e-07
8.551737e-07
8.5256471e-07
8.3940551e-07
8.3032518e-07
8.1540912e-07
8.0133539e-07
7.9092223e-07
7.8627468e-07
7.874228e-07
7.968645e-07
8.0353601e-07
8.0967522e-07
8.2324723e-07
8.4037884e-07
8.6449519e-07
8.9700533e-07
9.223938e-07
9.8371516e-07
1.0301869e-06
1.0794562e-06
1.0229492e-06
9.5305093e-07
9.083074e-07
8.8050071e-07
8.6510282e-07
8.6038608e-07
8.575824e-07
8.5695067e-07
8.5852836e-07
8.5734531e-07
8.6050309e-07
8.5790968e-07
8.575024e-07
8.5395758e-07
8.4888835e-07
8.4362171e-07
8.4281423e-07
8.3472448e-07
8.2364226e-07
8.1622873e-07
8.1415908e-07
8.1958777e-07
8.2622389e-07
8.3748765e-07
8.5532925e-07
8.8341066e-07
9.3021009e-07
9.6107708e-07
9.9148952e-07
8.8081892e-07
1.005118e-06
1.0498673e-06
1.0430062e-06
1.010196e-06
9.5243294e-07
9.1579384e-07
8.9559872e-07
8.836315e-07
8.7576774e-07
8.6985961e-07
8.6551452e-07
8.6376556e-07
8.5932655e-07
8.5552597e-07
8.5267462e-07
8.4784109e-07
8.4500208e-07
8.4665379e-07
8.4919138e-07
8.5063268e-07
8.5910138e-07
8.6432839e-07
8.6496549e-07
8.7370978e-07
8.8170856e-07
8.95375e-07
9.3232505e-07
9.7255821e-07
1.0499456e-06
1.0618729e-06
8.8285646e-07
9.1727534e-07
9.7383698e-07
1.0059279e-06
1.0191865e-06
1.0387766e-06
1.0542234e-06
1.0517507e-06
1.0344802e-06
1.017135e-06
9.8711144e-07
9.5398483e-07
9.2581584e-07
9.0202425e-07
8.822717e-07
8.6738304e-07
8.551693e-07
8.5061865e-07
8.5030631e-07
8.5305876e-07
8.5604452e-07
8.6905714e-07
8.7903031e-07
8.8704258e-07
8.9790168e-07
9.111428e-07
9.1931446e-07
9.3718742e-07
9.7149108e-07
1.0360057e-06
1.106414e-06
9.4000589e-07
9.9252042e-07
9.6718755e-07
9.5475105e-07
9.5838295e-07
1.0036542e-06
1.0397904e-06
1.0746485e-06
1.1081305e-06
1.1228137e-06
1.1358121e-06
1.1319227e-06
1.1120361e-06
1.0804136e-06
1.0442754e-06
9.9775972e-07
9.4265914e-07
9.0686692e-07
8.8662198e-07
8.7687571e-07
8.7067691e-07
8.8062872e-07
8.9284235e-07
9.0124066e-07
9.1032456e-07
9.249862e-07
9.3384247e-07
9.4483362e-07
9.7054793e-07
1.0081377e-06
1.0652704e-06
8.9349295e-07
1.01413e-06
1.0001686e-06
9.7935504e-07
9.5763775e-07
9.416609e-07
9.5720961e-07
9.7741171e-07
1.0148732e-06
1.0355159e-06
1.0551181e-06
1.0814218e-06
1.0870507e-06
1.0835627e-06
1.0732436e-06
1.0670875e-06
1.0637893e-06
1.0549341e-06
1.0367808e-06
1.024019e-06
1.0014742e-06
9.8074638e-07
9.7283764e-07
9.6854064e-07
9.6859368e-07
9.7454447e-07
9.8170499e-07
9.8831834e-07
1.0073453e-06
1.0509785e-06
1.0738924e-06
8.8824984e-07
9.3575161e-07
9.7394824e-07
9.8559752e-07
9.7620801e-07
9.6544436e-07
9.6009708e-07
9.6479904e-07
9.6959872e-07
9.7113337e-07
9.7894054e-07
9.7496792e-07
9.7356241e-07
9.6851327e-07
9.6764945e-07
9.8196029e-07
1.0079546e-06
1.0291525e-06
1.0527789e-06
1.0735042e-06
1.0971801e-06
1.1422043e-06
1.1866549e-06
1.211265e-06
1.2270357e-06
1.2433935e-06
1.2546139e-06
1.2556208e-06
1.255307e-06
1.2686814e-06
1.2458342e-06
8.9106392e-07
9.764658e-07
9.4070343e-07
9.3963611e-07
9.4607719e-07
9.5687302e-07
9.7362526e-07
9.9173274e-07
9.9743932e-07
1.0010281e-06
1.0046629e-06
9.9007805e-07
9.7026351e-07
9.5014323e-07
9.2878879e-07
9.0454006e-07
9.0534906e-07
9.3070022e-07
9.5783021e-07
9.8606825e-07
1.030943e-06
1.1001942e-06
1.1562837e-06
1.2306507e-06
1.2839912e-06
1.3559935e-06
1.4079922e-06
1.4949992e-06
1.5357645e-06
1.6310041e-06
1.6382597e-06
9.3894892e-07
1.0249762e-06
9.870873e-07
9.5100953e-07
9.2062221e-07
9.0944577e-07
9.1887969e-07
9.3691674e-07
9.4899615e-07
9.6326828e-07
9.7577053e-07
9.7237869e-07
9.5913723e-07
9.4506495e-07
9.2398185e-07
9.0402544e-07
8.9670351e-07
8.8526227e-07
8.8119346e-07
8.9767089e-07
9.2082194e-07
9.4330534e-07
9.8303079e-07
1.0668726e-06
1.136225e-06
1.2215211e-06
1.2863218e-06
1.3899405e-06
1.4665607e-06
1.5488021e-06
1.6199721e-06
8.5145661e-07
9.1241916e-07
9.4386004e-07
9.6429714e-07
9.5611615e-07
9.284874e-07
9.1555771e-07
9.0629088e-07
8.9833719e-07
8.9011183e-07
8.8828725e-07
8.835039e-07
8.8035417e-07
8.8054677e-07
8.7315649e-07
8.6770131e-07
8.5973911e-07
8.5362475e-07
8.4981653e-07
8.5150405e-07
8.6309001e-07
8.7508773e-07
8.8943606e-07
9.143994e-07
9.4985856e-07
9.7963257e-07
1.0239931e-06
1.0676315e-06
1.1589825e-06
1.2101119e-06
1.334758e-06
8.8198871e-07
9.5677921e-07
9.3366875e-07
9.3296082e-07
9.3540697e-07
9.4431288e-07
9.5420803e-07
9.5902636e-07
9.537574e-07
9.3905402e-07
9.2458032e-07
9.0508671e-07
8.906768e-07
8.7764099e-07
8.6434122e-07
8.5366119e-07
8.4497323e-07
8.3760159e-07
8.338168e-07
8.3269243e-07
8.3869164e-07
8.4753079e-07
8.5703476e-07
8.7478478e-07
8.9610556e-07
9.1529029e-07
9.4831135e-07
9.7272492e-07
1.0210266e-06
1.0526206e-06
1.1024043e-06
8.7469217e-07
9.3768622e-07
9.3328668e-07
9.237734e-07
9.0970729e-07
9.1473334e-07
9.3750908e-07
9.6592495e-07
9.8966851e-07
1.0088828e-06
1.0170728e-06
1.0160768e-06
1.0107693e-06
9.9878214e-07
9.8235481e-07
9.6725792e-07
9.5080836e-07
9.3729805e-07
9.2867916e-07
9.2604643e-07
9.3282503e-07
9.4415066e-07
9.5451686e-07
9.7338576e-07
8.8912759e-07
8.8115427e-07
1.0522184e-06
8.2194496e-07
1.1119219e-06
8.1306044e-07
1.1491601e-06
8.9140448e-07
1.0087503e-06
1.0705288e-06
1.1082985e-06
1.1367526e-06
1.1613539e-06
1.1826734e-06
1.21137e-06
1.2474836e-06
1.2896621e-06
1.3288473e-06
1.3654847e-06
1.4000235e-06
1.4301544e-06
1.46005e-06
1.4858149e-06
1.5132782e-06
1.5443e-06
1.5711492e-06
1.6087759e-06
1.3510058e-06
1.698448e-06
1.7215848e-06
1.7586193e-06
1.1994e-06
1.1669144e-06
1.8892806e-06
1.5442783e-06
1.9496954e-06
1.0823124e-06
1.1218596e-06
1.0839025e-06
2.063194e-06
2.1309311e-06
2.3518173e-06
2.3182447e-06
2.3406334e-06
2.3407262e-06
2.3356865e-06
2.3639639e-06
2.3989355e-06
2.4384165e-06
2.4777681e-06
2.5730305e-06
2.6006885e-06
2.7606312e-06
2.8086975e-06
2.8859951e-06
3.0062482e-06
3.1056603e-06
3.2611155e-06
3.0772866e-06
3.3808556e-06
3.5356136e-06
3.5984894e-06
3.1137132e-06
2.9574786e-06
3.807087e-06
3.8290018e-06
3.833615e-06
3.022923e-06
2.7810139e-06
1.0171523e-06
2.1766402e-06
2.3903378e-06
2.0535441e-06
2.0492782e-06
1.8932382e-06
1.9170323e-06
1.8607175e-06
1.8593615e-06
1.8882452e-06
1.891344e-06
1.8860478e-06
1.9240915e-06
1.9920569e-06
1.9782725e-06
1.9995046e-06
2.0745303e-06
2.1650136e-06
2.0721771e-06
2.0866696e-06
2.3135105e-06
2.2993791e-06
2.0870383e-06
2.0326958e-06
2.3107086e-06
2.5479337e-06
2.1928529e-06
1.8654662e-06
1.9742119e-06
2.5204742e-06
2.8142214e-06
2.0861408e-06
3.8777308e-06
2.0792897e-06
1.1418932e-06
1.142469e-06
1.306303e-06
1.6613071e-06
1.7403296e-06
1.4348003e-06
1.1783613e-06
1.1240926e-06
1.1672353e-06
1.146409e-06
1.0802869e-06
1.0535161e-06
1.1197041e-06
1.1704568e-06
1.1460675e-06
1.0913426e-06
1.0907521e-06
1.1102789e-06
1.1085874e-06
1.0874929e-06
1.7183763e-06
4.0128789e-06
2.1022515e-06
1.072792e-06
1.2096056e-06
1.3228204e-06
1.7062279e-06
1.8566383e-06
1.609121e-06
1.2953324e-06
1.1921437e-06
1.2555465e-06
1.2675771e-06
1.2497488e-06
1.1806484e-06
1.1942927e-06
1.2761756e-06
1.2729721e-06
1.229099e-06
1.1998732e-06
1.2346981e-06
1.2397346e-06
1.1928363e-06
2.2439194e-06
3.1773098e-06
1.8558796e-06
1.1365436e-06
1.2590425e-06
1.3907582e-06
1.7593052e-06
2.0156295e-06
1.8959949e-06
1.4906889e-06
1.2842513e-06
1.3270597e-06
1.3672291e-06
1.3606893e-06
1.2836283e-06
1.2659254e-06
1.3493429e-06
1.3652661e-06
1.3556371e-06
1.314171e-06
1.3321972e-06
1.3486057e-06
1.3300005e-06
3.0136879e-06
2.7089969e-06
1.318249e-06
1.288393e-06
1.3994908e-06
1.4772336e-06
1.8106087e-06
2.1514321e-06
2.1061666e-06
1.8192e-06
1.4656323e-06
1.4583452e-06
1.51018e-06
1.4985138e-06
1.4479966e-06
1.3629232e-06
1.4062902e-06
1.4849348e-06
1.5186775e-06
1.4929027e-06
1.442711e-06
1.4531946e-06
1.4286143e-06
1.5452762e-06
3.1350898e-06
2.7587452e-06
1.6242835e-06
1.3005574e-06
1.5805053e-06
1.8580128e-06
2.3624277e-06
2.3796164e-06
2.2528276e-06
1.8039883e-06
1.6598963e-06
1.7173851e-06
1.7037247e-06
1.694183e-06
1.6127867e-06
1.5907755e-06
1.6830219e-06
1.7142255e-06
1.7289916e-06
1.6404979e-06
1.6437678e-06
1.6300825e-06
1.1638358e-06
3.2499591e-06
1.5858935e-06
1.0876897e-06
1.6042969e-06
1.7890606e-06
1.9232297e-06
2.6809853e-06
2.7026737e-06
2.5807977e-06
2.1279603e-06
1.8199603e-06
1.9309379e-06
1.9372637e-06
1.9181838e-06
1.9061557e-06
1.8292272e-06
1.9228735e-06
1.940914e-06
1.9355838e-06
1.8923012e-06
1.8250958e-06
1.8518634e-06
1.9636676e-06
1.9135449e-06
2.3758942e-06
2.1829115e-06
1.8256546e-06
1.3621231e-06
1.8006348e-06
2.9851153e-06
2.9828411e-06
2.814961e-06
2.368926e-06
2.0135915e-06
2.0717397e-06
2.1071935e-06
2.0875387e-06
2.1027496e-06
2.0393957e-06
2.0680507e-06
2.1178521e-06
2.0789946e-06
2.0728318e-06
2.018078e-06
2.0449464e-06
1.5555868e-06
1.8692611e-06
1.2334136e-06
1.4314798e-06
1.616784e-06
2.2049884e-06
2.3785192e-06
3.2783361e-06
3.4274211e-06
3.2595553e-06
2.8678676e-06
2.3671949e-06
2.3219734e-06
2.396217e-06
2.3539343e-06
2.3152694e-06
2.219827e-06
2.2022933e-06
2.2795963e-06
2.2885325e-06
2.2749561e-06
2.2306319e-06
2.2189603e-06
1.2804987e-06
1.2280992e-06
1.6278541e-06
2.4940515e-06
2.3777365e-06
1.4515432e-06
1.4437018e-06
2.4597245e-06
4.2756009e-06
4.1638681e-06
3.9167715e-06
3.1407099e-06
2.8457637e-06
2.9869046e-06
2.9674197e-06
2.8230173e-06
2.662654e-06
2.4855884e-06
2.6215686e-06
2.7160276e-06
2.634838e-06
2.5714693e-06
2.4731594e-06
7.9143593e-07
1.6221576e-06
2.4627382e-06
2.3938714e-06
2.6435678e-06
2.936269e-06
3.0114963e-06
4.2174873e-06
4.9501453e-06
4.9815288e-06
4.8680573e-06
4.2945912e-06
3.6059921e-06
3.720901e-06
3.6522831e-06
3.4212768e-06
3.3489948e-06
3.1658657e-06
3.1730124e-06
3.2712224e-06
3.2964192e-06
3.2215008e-06
3.0131908e-06
1.0338005e-06
1.6886618e-06
2.5696043e-06
2.2561912e-06
2.8175221e-06
3.3610377e-06
3.3267786e-06
4.5764504e-06
5.4119133e-06
5.7030508e-06
5.4564589e-06
4.8432071e-06
4.1371887e-06
4.146195e-06
4.1594751e-06
4.0210081e-06
3.8410065e-06
3.7635613e-06
3.7593016e-06
3.9433548e-06
3.921383e-06
3.6846771e-06
3.5965329e-06
9.1365545e-07
8.8671145e-07
2.4242643e-06
3.380548e-06
3.5975414e-06
2.5499881e-06
2.3553917e-06
3.2969596e-06
5.442575e-06
6.9050757e-06
6.2605345e-06
5.3992514e-06
4.6526485e-06
4.5698489e-06
4.6562546e-06
4.6163155e-06
4.3422213e-06
4.2321613e-06
4.158827e-06
4.3505361e-06
4.426505e-06
4.3072052e-06
4.0837563e-06
5.8057548e-07
9.7621465e-07
2.4629138e-06
3.6263515e-06
4.517328e-06
4.8510563e-06
4.3013659e-06
6.3189501e-06
8.4019907e-06
8.8604553e-06
7.6844459e-06
6.4949781e-06
5.5904766e-06
5.370949e-06
5.5353977e-06
5.5323245e-06
5.1736306e-06
4.9169996e-06
4.7582882e-06
4.8882039e-06
5.0049799e-06
4.789144e-06
4.3973983e-06
5.7916973e-07
1.2395066e-06
2.5402014e-06
3.6402534e-06
5.4245657e-06
6.8365101e-06
7.1226844e-06
9.9639277e-06
1.2810252e-05
1.3298722e-05
1.085513e-05
8.7431663e-06
7.4829713e-06
7.2881477e-06
7.9493964e-06
7.9214902e-06
6.9997909e-06
5.9870734e-06
5.633845e-06
5.6847148e-06
6.0884815e-06
5.9043332e-06
5.203534e-06
6.9351749e-07
1.21436e-06
2.7899237e-06
4.2843311e-06
6.8492638e-06
7.8825127e-06
9.7782158e-06
1.2842752e-05
1.6180954e-05
1.7973641e-05
1.5348634e-05
1.3987632e-05
1.1574212e-05
1.0586001e-05
1.0968196e-05
1.0875666e-05
9.8541446e-06
8.2807424e-06
7.6668196e-06
7.7084888e-06
8.7662273e-06
8.4606959e-06
6.9448861e-06
7.8656994e-07
9.9196831e-07
2.802613e-06
4.645485e-06
6.6075029e-06
7.5329439e-06
9.5767829e-06
1.2655999e-05
1.6244551e-05
1.9591951e-05
1.7074037e-05
1.6438979e-05
1.381389e-05
1.261105e-05
1.2878642e-05
1.3009232e-05
1.2162361e-05
1.1142801e-05
1.1166013e-05
1.0993388e-05
1.1266904e-05
1.1045118e-05
9.6869238e-06
7.2288834e-07
9.7363523e-07
3.0396581e-06
4.6867347e-06
6.8454664e-06
8.4689453e-06
1.2886322e-05
1.7297286e-05
2.0180328e-05
1.9000276e-05
1.846615e-05
1.736067e-05
1.4361317e-05
1.3149552e-05
1.4714274e-05
1.5138269e-05
1.3088487e-05
1.2081237e-05
1.2871913e-05
1.3088019e-05
1.3626313e-05
1.3653549e-05
1.2336169e-05
6.5157522e-07
1.0472175e-06
3.4415222e-06
5.0444315e-06
8.0229796e-06
1.0178689e-05
1.7782884e-05
2.3883475e-05
2.632314e-05
2.0627927e-05
2.035588e-05
1.9187885e-05
1.7517557e-05
1.7192398e-05
1.9546545e-05
1.804339e-05
1.3682826e-05
1.2418028e-05
1.3639566e-05
1.5044377e-05
1.5841777e-05
1.537156e-05
1.2961323e-05
5.8402377e-07
1.1131633e-06
3.6225424e-06
5.5393683e-06
9.1824433e-06
1.2542483e-05
2.2316088e-05
2.9111435e-05
3.0313045e-05
2.2498193e-05
2.3810986e-05
2.378528e-05
2.768163e-05
3.0851166e-05
3.0775546e-05
2.4392503e-05
1.5573097e-05
1.3803568e-05
1.5750006e-05
1.8936102e-05
2.0365293e-05
1.8824811e-05
1.3848966e-05
5.3367782e-07
1.1278567e-06
3.5884207e-06
5.7575815e-06
1.0303001e-05
1.443718e-05
2.4968177e-05
3.2241983e-05
3.2327624e-05
2.4987333e-05
2.9546157e-05
3.3763322e-05
4.3824384e-05
5.1013154e-05
5.3619038e-05
3.3972537e-05
1.9887465e-05
1.7960437e-05
2.2714136e-05
2.736754e-05
2.5732701e-05
2.0451577e-05
1.4815531e-05
6.0469846e-07
1.1457599e-06
3.356166e-06
6.1954016e-06
1.1265577e-05
1.6222038e-05
2.7182845e-05
3.3731564e-05
3.3425369e-05
3.2148202e-05
3.4526873e-05
4.2269189e-05
5.3267538e-05
6.2062139e-05
6.1983521e-05
3.7054626e-05
2.5876811e-05
2.5481108e-05
3.3980439e-05
3.8943668e-05
3.8534399e-05
2.4333543e-05
1.7073148e-05
7.3761405e-07
1.3200198e-06
3.2315761e-06
6.5656437e-06
1.4808756e-05
1.9136484e-05
2.7930208e-05
3.4460115e-05
3.5802076e-05
4.0491064e-05
4.0257113e-05
5.0955634e-05
6.6717116e-05
7.5505336e-05
6.4159004e-05
4.0997132e-05
3.4624283e-05
4.285354e-05
6.0080731e-05
6.377753e-05
3.9247072e-05
2.4981629e-05
2.1037582e-05
7.0113959e-07
1.6985104e-06
3.3735963e-06
7.184227e-06
1.74665e-05
2.3557821e-05
3.0958435e-05
3.7415559e-05
4.0096513e-05
4.7099793e-05
5.0493791e-05
7.0487772e-05
8.4968781e-05
9.1738569e-05
6.3361624e-05
4.6394728e-05
4.5435427e-05
6.2370665e-05
7.5176878e-05
6.6360151e-05
3.872569e-05
2.8809798e-05
2.893034e-05
5.9942634e-07
2.1380325e-06
3.9482647e-06
8.3148268e-06
2.0610931e-05
3.7308691e-05
4.7532714e-05
5.8265633e-05
6.0903214e-05
6.206859e-05
7.5199881e-05
9.9807265e-05
0.00010459867
9.2061526e-05
6.4806278e-05
5.4842984e-05
6.3512618e-05
8.061023e-05
8.3429024e-05
6.0439553e-05
4.0877826e-05
3.8170797e-05
4.4444993e-05
6.2182717e-07
2.8037392e-06
5.1179756e-06
1.1210172e-05
2.8552646e-05
5.201439e-05
6.1624295e-05
6.9215934e-05
7.5635814e-05
7.4969096e-05
0.00010225746
0.00010824704
0.0001065479
8.672385e-05
7.0057389e-05
6.959716e-05
8.0415785e-05
8.6145129e-05
8.0444642e-05
5.584099e-05
4.8832975e-05
5.0849577e-05
5.0073675e-05
8.0541366e-07
3.0648316e-06
7.1298183e-06
1.7384216e-05
3.9347614e-05
4.6263778e-05
4.9088937e-05
5.5212431e-05
8.2486989e-05
0.0001024049
0.00011350271
0.00011251111
0.0001075855
8.9010194e-05
8.169284e-05
8.2248087e-05
8.4514773e-05
8.5160932e-05
6.9105431e-05
5.9776651e-05
5.6030762e-05
5.34248e-05
5.018421e-05
1.6427271e-06
4.3234959e-06
1.0825324e-05
2.4576071e-05
3.7673325e-05
3.9968942e-05
4.3846128e-05
5.039846e-05
8.9669645e-05
0.00011247894
0.00011680798
0.00010897548
0.00010528986
9.3146284e-05
8.7806138e-05
8.5456467e-05
8.3892202e-05
7.6702116e-05
6.5747198e-05
6.0571928e-05
5.7728159e-05
5.5123692e-05
5.4559066e-05
3.5651482e-06
6.1906136e-06
1.467702e-05
2.2525781e-05
4.5427599e-05
6.5245657e-05
7.3811143e-05
8.9318141e-05
9.8556334e-05
0.00011023355
0.00012040847
0.00011717422
0.00010487401
9.5387802e-05
8.9392217e-05
8.40774e-05
7.7289201e-05
6.7648814e-05
6.4040027e-05
6.2506923e-05
6.2539898e-05
6.6260165e-05
7.1255555e-05
2.5566468e-06
5.5972987e-06
1.6922368e-05
3.7027114e-05
5.2762921e-05
6.1960752e-05
6.7309896e-05
9.0309519e-05
0.00011120112
0.00011854305
0.00011970039
0.00011225434
0.00010278307
9.5172679e-05
8.7322382e-05
7.7972249e-05
6.9102831e-05
6.6610262e-05
6.5776555e-05
6.9045887e-05
7.2428517e-05
7.3979381e-05
7.5688519e-05
1.2897882e-06
5.08386e-06
1.3223532e-05
4.1154497e-05
4.6058088e-05
4.1860953e-05
5.2459189e-05
0.00010742019
0.00011602756
0.00011790364
0.00011209812
0.0001026109
9.7994509e-05
9.3193265e-05
8.4346436e-05
7.3091194e-05
6.9315338e-05
6.8775045e-05
7.2775509e-05
7.4818422e-05
7.3947184e-05
7.269039e-05
7.5315991e-05
1.363452e-06
6.1445413e-06
1.4215067e-05
3.7392465e-05
6.7789889e-05
7.9759829e-05
9.7612627e-05
0.0001011577
0.00010428982
0.00011254582
0.00010037489
9.5683658e-05
9.3522764e-05
9.1869383e-05
8.0187764e-05
7.375611e-05
7.2332218e-05
7.6898734e-05
7.8650323e-05
7.6329948e-05
7.3195549e-05
7.3426231e-05
8.6405189e-05
3.0351107e-06
9.7623621e-06
2.692022e-05
5.3580432e-05
6.8047444e-05
5.9399177e-05
8.1910122e-05
0.00011350819
0.00011353502
0.00010508586
9.5153218e-05
9.1961716e-05
9.073633e-05
8.4995872e-05
7.6352802e-05
7.4626685e-05
7.6855179e-05
8.1076427e-05
8.0317251e-05
7.8152553e-05
7.7704266e-05
9.1422577e-05
0.00013785848
5.5387821e-06
1.3519409e-05
3.3189847e-05
5.4925375e-05
7.4586638e-05
8.5319472e-05
0.0001035245
0.00011070661
0.00011152249
9.9486717e-05
9.1503868e-05
8.857326e-05
8.6937355e-05
8.1790178e-05
7.5356867e-05
7.4125084e-05
7.7326371e-05
8.2803543e-05
8.5272766e-05
8.8661524e-05
0.00010575347
0.00016511698
0.0002705089
3.3153688e-06
1.5057534e-05
3.7144325e-05
6.3332303e-05
7.7530234e-05
8.9340501e-05
0.00010434189
0.00010907822
0.00010510072
9.1730617e-05
8.7657236e-05
8.5334831e-05
8.4036203e-05
7.7164556e-05
7.4468088e-05
7.3200005e-05
7.7970422e-05
8.7471861e-05
9.8830852e-05
0.00012845735
0.00021451219
0.00032421255
0.00033568684
2.9043967e-06
1.6290122e-05
4.1426734e-05
6.8019967e-05
8.1641492e-05
9.4299481e-05
0.00010340979
0.00010241228
9.2757514e-05
8.3668006e-05
8.0879789e-05
7.8524934e-05
7.8520286e-05
7.7165069e-05
7.7615714e-05
8.2488802e-05
9.740402e-05
0.00012090301
0.00016230912
0.00023495141
0.00031761755
0.00039606832
0.00043858858
6.5249071e-06
1.9894133e-05
4.5592194e-05
6.8342517e-05
8.082037e-05
9.3053694e-05
9.8875201e-05
9.835972e-05
8.9756494e-05
8.0180693e-05
7.6245154e-05
7.401075e-05
7.5578627e-05
7.6313317e-05
7.8885394e-05
8.4556246e-05
0.00010217392
0.00013503643
0.00018860179
0.00025971487
0.00034193448
0.00040940806
0.0004390173
6.5349784e-06
2.1554052e-05
4.7551836e-05
6.8221883e-05
7.9313903e-05
8.8628722e-05
9.2848822e-05
9.2838416e-05
8.6692931e-05
7.8002763e-05
7.3988478e-05
7.1564923e-05
7.2862326e-05
7.406009e-05
7.7024716e-05
8.473072e-05
0.00010731561
0.00014779386
0.00021160442
0.00028912205
0.00036221937
0.00041444282
0.00043549571
6.0317327e-06
2.2777007e-05
4.8773136e-05
6.7996582e-05
7.8134419e-05
8.5356355e-05
8.7875047e-05
8.7275068e-05
8.2252316e-05
7.4972165e-05
7.182603e-05
6.9878744e-05
7.1332433e-05
7.3157826e-05
7.6507975e-05
8.9118937e-05
0.00011585784
0.00016546206
0.00024059428
0.0003236976
0.00039292115
0.00043488229
0.00043955641
5.3762994e-06
2.1340566e-05
4.9319391e-05
6.7427897e-05
7.7301841e-05
8.3315108e-05
8.4431927e-05
8.2944902e-05
7.7412297e-05
7.1428972e-05
6.8929096e-05
6.7240401e-05
6.8464484e-05
7.1022309e-05
7.9484676e-05
9.6368003e-05
0.00013284953
0.00019940446
0.00028466875
0.00036168199
0.00042119462
0.00045510246
0.00043669724
5.7853103e-06
2.3097224e-05
5.036867e-05
6.7052633e-05
7.6274343e-05
8.0882719e-05
8.1023943e-05
7.8647689e-05
7.3069324e-05
6.8421265e-05
6.6324704e-05
6.4831439e-05
6.6258608e-05
7.1513831e-05
8.4227222e-05
0.0001099051
0.00016726782
0.00025267441
0.00033571917
0.00039714078
0.00043856464
0.00045925901
0.00042190198
5.2033806e-06
2.5747655e-05
5.1260143e-05
6.6485108e-05
7.4473444e-05
7.7429906e-05
7.6941731e-05
7.4023582e-05
6.8461458e-05
6.5355744e-05
6.415268e-05
6.3430952e-05
6.6567797e-05
7.5634004e-05
9.4542324e-05
0.00014227745
0.00022658684
0.00031144369
0.00037623047
0.00041829343
0.00043495568
0.00040695535
0.00039510788
4.9454071e-06
2.6969772e-05
5.1785188e-05
6.5870973e-05
7.2701893e-05
7.4584962e-05
7.3472529e-05
6.9865701e-05
6.4800026e-05
6.2947107e-05
6.2456564e-05
6.2884556e-05
7.0049675e-05
8.4857878e-05
0.00012216796
0.00020350745
0.00029103081
0.00035794579
0.00039835989
0.00041753924
0.00041061829
0.0003930396
0.0003701422
5.6564317e-06
2.7326159e-05
5.0955234e-05
6.4709273e-05
7.1204192e-05
7.2844541e-05
7.1448714e-05
6.7108119e-05
6.2621699e-05
6.1401839e-05
6.1536254e-05
6.5061547e-05
7.6666075e-05
0.00010472315
0.00017702475
0.00026785433
0.0003379046
0.00038050617
0.0004051999
0.0004049203
0.00038919289
0.00037276762
0.00036380333
3.5963609e-06
2.871038e-05
5.1298007e-05
6.3570224e-05
6.9219168e-05
7.0569647e-05
6.9057375e-05
6.4591625e-05
6.1055053e-05
6.0180282e-05
6.1098756e-05
6.8589823e-05
8.9442636e-05
0.00014712073
0.0002374372
0.00031459367
0.00036245431
0.00039346086
0.00040324136
0.00039794677
0.00038837605
0.00037946227
0.00035291942
1.9785835e-06
2.9419487e-05
5.1583394e-05
6.3064019e-05
6.759867e-05
6.8298469e-05
6.620664e-05
6.1599706e-05
5.9234221e-05
5.8970192e-05
6.3031125e-05
7.6291577e-05
0.00011628332
0.0001984606
0.00028800907
0.00034497381
0.00038099621
0.00040139684
0.00040676491
0.00040639591
0.00040453346
0.00034656643
0.00029482218
2.6322224e-06
2.6669412e-05
5.0573066e-05
6.1548605e-05
6.5524432e-05
6.5927809e-05
6.3701824e-05
5.9514291e-05
5.7952324e-05
5.8737845e-05
6.6546807e-05
9.2562804e-05
0.00015740196
0.00025066218
0.00032301487
0.00036707957
0.00039612548
0.00039709038
0.0003768749
0.00036650704
0.00035351628
0.00034651809
0.00036771212
2.0445398e-06
2.937136e-05
5.0299419e-05
6.045097e-05
6.3918986e-05
6.3903817e-05
6.1261622e-05
5.7692027e-05
5.6850129e-05
5.9615099e-05
7.3819501e-05
0.00011582413
0.00019909446
0.00028798905
0.00034424315
0.00035812267
0.00034699279
0.0003548779
0.00038168096
0.00042342922
0.00044638907
0.00042762592
0.00039509
1.9300091e-06
2.6365783e-05
4.9131705e-05
5.8998928e-05
6.2263546e-05
6.2191218e-05
5.9310914e-05
5.6263086e-05
5.5933866e-05
6.1631633e-05
8.3952053e-05
0.00014133163
0.00023252734
0.00030954644
0.00035941013
0.0003876133
0.00042727522
0.00045414327
0.00047068964
0.00047834364
0.00046819897
0.00040498923
0.00035563569
2.0205369e-06
2.8818161e-05
4.7759528e-05
5.7088199e-05
6.0031937e-05
5.9759967e-05
5.6965751e-05
5.4827589e-05
5.5595403e-05
6.4801595e-05
9.7109354e-05
0.00016581525
0.0002542056
0.00032340362
0.00037304991
0.0004140345
0.00045112533
0.00048081697
0.00049123065
0.00042241801
0.00035057267
0.00029635218
0.00031794697
1.7098415e-06
2.9023736e-05
4.6634227e-05
5.5536137e-05
5.8383865e-05
5.8275289e-05
5.5465493e-05
5.3560904e-05
5.4975905e-05
6.6735094e-05
0.00010407056
0.00017890987
0.00026530392
0.00033434732
0.00037154751
0.00039382736
0.00044017618
0.00046171391
0.00043197105
0.00037656095
0.00033771505
0.00033142863
0.00038914318
1.7543308e-06
2.7961521e-05
4.4721532e-05
5.3101371e-05
5.6037387e-05
5.6203534e-05
5.4125424e-05
5.2680366e-05
5.4486659e-05
6.7651501e-05
0.00010627578
0.00018344515
0.00027048741
0.00033805914
0.00038592545
0.00044553184
0.00049438334
0.00053390847
0.0004989144
0.00043608126
0.00040484985
0.0004209674
0.00043842035
1.8192909e-06
2.6309016e-05
4.2916593e-05
5.1543739e-05
5.4361482e-05
5.4390733e-05
5.2310428e-05
5.0886902e-05
5.2875179e-05
6.6670565e-05
0.00010570237
0.00018232596
0.00026677338
0.00033384343
0.0003925269
0.00045227668
0.00050675944
0.00055103667
0.00052016098
0.00043299454
0.00039961261
0.0004066212
0.00040837687
1.9445718e-06
2.395648e-05
4.0339513e-05
4.9115843e-05
5.2743325e-05
5.3331839e-05
5.1719881e-05
4.9685044e-05
5.0738967e-05
6.1940734e-05
9.9388722e-05
0.00017145385
0.00025298402
0.00032245544
0.00038535816
0.00045016687
0.00051159449
0.0005607914
0.00045444037
0.00040233046
0.00040409945
0.00044612129
0.000454508
2.0537743e-06
2.0522442e-05
3.7265879e-05
4.6354109e-05
5.0317217e-05
5.1173753e-05
5.0271188e-05
4.8362311e-05
4.8683853e-05
5.5500647e-05
8.489655e-05
0.00015033377
0.00023081582
0.00030097691
0.000367649
0.00043868858
0.00050578294
0.00054647849
0.00048559656
0.00049245794
0.00054366392
0.0006243714
0.00056764377
2.1944577e-06
1.705493e-05
3.4483137e-05
4.412829e-05
4.8659325e-05
5.009173e-05
4.9378766e-05
4.7511274e-05
4.6225122e-05
4.9766705e-05
6.784978e-05
0.00011828379
0.00019847465
0.00027088215
0.00033400876
0.00040335445
0.00048080275
0.00054888308
0.00060148724
0.00063650997
0.00065572457
0.00066681219
0.00059031927
2.4288113e-06
1.378142e-05
3.0678078e-05
4.0645073e-05
4.594518e-05
4.8070469e-05
4.8443005e-05
4.7443267e-05
4.5596213e-05
4.6457146e-05
5.4662183e-05
8.4623011e-05
0.00015019606
0.00023164014
0.0002975041
0.00035871426
0.00042879702
0.00050802146
0.00058034735
0.00063500668
0.00066750302
0.00068627544
0.00058654522
2.7345132e-06
1.1791476e-05
2.7603037e-05
3.7840336e-05
4.3669209e-05
4.634892e-05
4.683615e-05
4.6420811e-05
4.5370035e-05
4.4920519e-05
4.7831915e-05
6.1748868e-05
9.9482445e-05
0.00017023835
0.00024753366
0.00031341279
0.00037646223
0.00044325438
0.00052003848
0.00059688741
0.00065820679
0.00069282363
0.00067299342
3.4288256e-06
1.0258995e-05
2.414466e-05
3.3972247e-05
4.0924337e-05
4.4738517e-05
4.6294912e-05
4.6032001e-05
4.4989711e-05
4.381487e-05
4.4650968e-05
4.9826546e-05
6.6934585e-05
0.00010721382
0.00017514652
0.00024810094
0.00031741859
0.00038410819
0.00044779055
0.00051796993
0.00059361239
0.00066264565
0.00069811147
3.9067751e-06
9.9685901e-06
2.029298e-05
3.0331483e-05
3.737915e-05
4.1806793e-05
4.4231331e-05
4.5590066e-05
4.5399314e-05
4.414949e-05
4.3457378e-05
4.472156e-05
5.0798578e-05
6.8060899e-05
0.00010551439
0.00016598864
0.00023390819
0.0003048842
0.00037676287
0.00044103844
0.00050499733
0.00057392766
0.00063673139
2.856362e-06
9.5185434e-06
1.6358099e-05
2.7272961e-05
3.4852948e-05
3.9755867e-05
4.2141563e-05
4.3564523e-05
4.4692207e-05
4.4615296e-05
4.3792415e-05
4.3675222e-05
4.5005701e-05
5.0559116e-05
6.544336e-05
9.6455227e-05
0.00014601431
0.00020565271
0.00027354023
0.00034671723
0.00041587466
0.00048013706
0.00055482209
2.4565869e-06
8.1974617e-06