/*--------------------------------*- C++ -*----------------------------------*\
| =========                 |                                                 |
| \\      /  F ield         | OpenFOAM: The Open Source CFD Toolbox           |
|  \\    /   O peration     | Version:  2406                                  |
|   \\  /    A nd           | Website:  www.openfoam.com                      |
|    \\/     M anipulation  |                                                 |
\*---------------------------------------------------------------------------*/
FoamFile
{
    version     2.0;
    format      ascii;
    arch        "LSB;label=32;scalar=64";
    class       volScalarField;
    location    "85";
    object      omega;
}
// * * * * * * * * * * * * * * * * * * * * * * * * * * * * * * * * * * * * * //

dimensions      [0 0 -1 0 0 0 0];

internalField   nonuniform List<scalar> 
20580
(
3.5568518
2.6804527
2.1746024
1.8350734
1.5929648
1.413217
1.2739867
1.1650611
1.0760997
1.0019643
0.93891772
0.88548649
0.83931624
0.79894457
0.76425091
0.73351438
0.70697437
0.68479249
0.66504893
0.64839481
0.63380307
0.61851991
0.60462853
0.5992338
0.59598447
0.59432569
0.59243714
0.59353257
0.59249716
0.60029902
0.62002979
3.5568602
2.6751688
2.1738569
1.836157
1.5989192
1.4197263
1.2807618
1.1720175
1.0825627
1.0081524
0.94515546
0.8917491
0.84572171
0.80484069
0.77000054
0.73840012
0.71154572
0.6898353
0.66951446
0.65444015
0.64160826
0.62803622
0.61301373
0.60714167
0.60702709
0.60665491
0.60701819
0.61238102
0.61860072
0.63008594
0.63067
3.5570507
2.6640199
2.1670202
1.8343312
1.5986411
1.4213321
1.2850364
1.1760665
1.0877496
1.0130356
0.95080414
0.8971903
0.85118409
0.81094642
0.77512948
0.74449173
0.71624923
0.69438857
0.6737016
0.6564802
0.64421955
0.63023987
0.61729154
0.60836878
0.60728784
0.60706763
0.60564501
0.60872411
0.61817198
0.62974432
0.65197469
3.5601868
2.6510773
2.1485664
1.8242961
1.5942088
1.4203582
1.2868968
1.179068
1.0909022
1.0170541
0.95434664
0.90171708
0.85478743
0.81568525
0.77972789
0.74873208
0.72210307
0.69840524
0.67888418
0.66032101
0.64816628
0.63294538
0.62161788
0.61088757
0.60859698
0.61015801
0.60872354
0.60917892
0.61478183
0.62243804
0.64201863
3.5652801
2.6516653
2.1411652
1.8119989
1.5837824
1.4179486
1.2869985
1.181922
1.094408
1.0207953
0.95822925
0.90472857
0.85870348
0.81857707
0.78435192
0.75176454
0.7265156
0.70260645
0.68262358
0.6647851
0.65247727
0.63814406
0.62782797
0.61671056
0.6133773
0.61707948
0.62162237
0.62270506
0.62536985
0.63348035
0.64086438
3.5729623
2.6600843
2.1415941
1.8095739
1.5789835
1.413881
1.2857468
1.181959
1.0970733
1.0238433
0.9628704
0.90808836
0.86296479
0.82165856
0.7876276
0.75482839
0.72923209
0.70526709
0.68595405
0.66795657
0.65597815
0.6425632
0.63309779
0.62193569
0.61630041
0.61944059
0.62640929
0.63877886
0.64763594
0.67016372
0.66886087
3.5771739
2.6694447
2.1416754
1.8067031
1.5747859
1.4081459
1.2823286
1.1807587
1.0976099
1.026022
0.96683619
0.91259416
0.86751993
0.82620103
0.79076566
0.75847906
0.73167474
0.70742345
0.68783567
0.67096341
0.65683555
0.64498666
0.6344297
0.62484023
0.61414098
0.61427445
0.62136525
0.63432468
0.64533714
0.66967803
0.69078583
3.5835188
2.6801958
2.1466581
1.8044456
1.5679872
1.399989
1.2760597
1.1769816
1.0961576
1.026316
0.96854957
0.91688809
0.87263046
0.83324251
0.79694865
0.76548642
0.73686249
0.71181765
0.69095408
0.67402294
0.65766049
0.64590497
0.63630747
0.6276954
0.61587874
0.60909588
0.61169586
0.61695831
0.62544316
0.64144254
0.68013165
3.7176925
2.7532506
2.1807837
1.8152581
1.5716822
1.3983504
1.2665936
1.1648196
1.08649
1.0215858
0.96561348
0.91727506
0.87391158
0.83772792
0.80216181
0.77312557
0.74423189
0.7199922
0.69804386
0.68035866
0.66121557
0.64895383
0.64021754
0.63303936
0.62327068
0.61475385
0.61561029
0.62037313
0.62553219
0.63225993
0.65074426
3.9109518
3.123453
2.3581971
1.8905997
1.6048819
1.409422
1.2685867
1.1619783
1.0750846
1.007396
0.95035202
0.90452292
0.86428792
0.8314153
0.7998163
0.77193505
0.74595967
0.72241242
0.70300168
0.68569155
0.66952484
0.65636817
0.64864774
0.64018305
0.63507884
0.63060609
0.63245681
0.63979452
0.64916652
0.65848159
0.66293039
3.6809224
3.0661754
2.4787473
2.0507775
1.7202359
1.4722509
1.303839
1.1829476
1.0883926
1.0138829
0.95199684
0.90132263
0.85633518
0.81805174
0.78654152
0.75836139
0.73522074
0.71561044
0.70037283
0.68434675
0.67064551
0.66125921
0.65374292
0.64704727
0.64186055
0.64194431
0.64403474
0.65443811
0.66959109
0.69667035
0.70208972
3.7132349
2.9342785
2.4381102
2.0736855
1.8108745
1.6133081
1.4440167
1.3025168
1.1884679
1.092796
1.0086507
0.94049807
0.88323219
0.83473776
0.79473261
0.76077458
0.73295261
0.70776361
0.69065382
0.67518588
0.66333248
0.65601768
0.65101526
0.64505072
0.6407758
0.63905308
0.63945095
0.64446557
0.65857392
0.68589728
0.71562531
3.8642864
3.0316659
2.4395232
2.0479846
1.7877614
1.6113077
1.4822629
1.3788539
1.2904924
1.211327
1.1396219
1.0691808
1.0019906
0.93777593
0.87703412
0.81673626
0.76755209
0.72888985
0.70167415
0.67947247
0.6636973
0.65241477
0.64475274
0.6382892
0.6347983
0.63075502
0.6281687
0.62844464
0.63427399
0.64933668
0.6776216
3.7514805
2.9988934
2.4478119
2.0640468
1.7776747
1.5805876
1.4385728
1.3337901
1.2500603
1.1769517
1.1199271
1.06462
1.0150514
0.96859312
0.92564886
0.88805408
0.85112306
0.80944669
0.77209021
0.73459498
0.70130112
0.67926533
0.66447357
0.65230522
0.64543084
0.63932895
0.63660243
0.6362464
0.6418849
0.65413975
0.67065128
3.6137217
2.8025868
2.3651569
2.0462236
1.7844721
1.5913729
1.4443136
1.328949
1.2334319
1.1526787
1.0794452
1.0216602
0.97222322
0.9262992
0.88848887
0.86141662
0.83630354
0.81364705
0.79414739
0.78047522
0.76844356
0.75708089
0.74761876
0.73405626
0.72338982
0.71218183
0.70490616
0.69684991
0.69521588
0.70204922
0.70137697
3.7635367
2.8266292
2.2757612
1.9437831
1.7232804
1.5694369
1.441054
1.3386245
1.2489833
1.1700793
1.0973413
1.032407
0.97253376
0.92328432
0.87702956
0.83555709
0.80221427
0.78069945
0.76324473
0.75744298
0.75523332
0.75332797
0.75555294
0.76021609
0.76627279
0.77044468
0.77752693
0.78637782
0.79192239
0.80528416
0.80373088
3.8569216
3.068211
2.3858162
1.9660229
1.6827398
1.4995366
1.3702686
1.2748936
1.1965392
1.1313883
1.0725871
1.0177594
0.96521725
0.91924491
0.87451213
0.83540396
0.8004422
0.77247459
0.74823432
0.73127213
0.71913015
0.71467353
0.71534984
0.72240742
0.73229008
0.73996554
0.7488922
0.76266652
0.7781725
0.78841974
0.80070384
3.616107
2.9593094
2.4396769
2.0503412
1.7454131
1.524518
1.3675577
1.2471285
1.1510376
1.0732538
1.0095449
0.9578885
0.91414971
0.87569713
0.84260202
0.81218936
0.78510831
0.76106383
0.73906579
0.72306357
0.71090386
0.69879866
0.68903133
0.68602957
0.68667356
0.68502873
0.68490132
0.68960977
0.70167241
0.70986951
0.72570856
3.8443835
2.996867
2.4217555
2.0441242
1.7918318
1.599916
1.4440794
1.3153886
1.2065606
1.1165624
1.0409505
0.97661964
0.92236365
0.87673879
0.8375386
0.80324098
0.77448612
0.75041615
0.72927909
0.71345644
0.70264921
0.69162261
0.68328959
0.67927319
0.67998648
0.68020538
0.6808634
0.68481152
0.69200978
0.69928839
0.70491122
3.7242583
2.908479
2.381272
2.0288092
1.7767214
1.6064067
1.4754929
1.3737382
1.2910055
1.2189232
1.1507881
1.0840175
1.02128
0.96558365
0.914945
0.8710912
0.83288812
0.79993502
0.7722425
0.75059021
0.73654847
0.72467334
0.71505724
0.71293508
0.71684685
0.72260658
0.72763424
0.73815911
0.7463209
0.75903958
0.75715637
3.8806125
3.1450839
2.5154534
2.1808444
1.9071958
1.7348309
1.5969674
1.495202
1.4154564
1.3518871
1.3008595
1.258628
1.2231657
1.1925357
1.1608769
1.1243372
1.0893752
1.0633356
1.0370918
1.0189134
1.0059964
0.99229734
0.97569741
0.96730035
0.97052759
0.97556931
0.9767114
0.98303227
0.98882738
0.99407635
0.97262836
4.3541401
5.061075
4.1308373
3.6600999
3.3539124
3.1760932
3.0017779
2.8696356
2.767538
2.6885777
2.6156891
2.5609351
2.5152893
2.4839358
2.4549834
2.4165732
2.3872646
2.3741772
2.3541911
2.3417055
2.345108
2.3310889
2.2976421
2.2718797
2.2644126
2.2543501
2.2303658
2.2047141
2.1818015
2.1672114
2.0904749
13.057954
14.237928
12.392923
11.888823
11.001759
10.552768
9.9502472
9.5735846
9.1533564
8.8387131
8.5335504
8.2686714
8.0236152
7.8185296
7.6082042
7.432528
7.2647836
7.1294667
6.9647529
6.826519
6.7293552
6.595156
6.4673532
6.3421132
6.2796123
6.1774294
6.0604289
5.9199625
5.8629109
5.8035974
5.7357607
5.9258389
2.2188954
1.0255727
0.78072354
0.71270435
0.7231236
0.79886097
0.82234409
0.74748222
0.69597766
0.6934322
0.73312548
0.73013648
0.70174558
0.67860045
0.70224262
0.72009875
0.70503755
0.67364192
0.66686358
0.67501389
0.67316372
0.6580751
6.5034818
2.4242393
1.1167818
0.8257633
0.73376708
0.73294853
0.80703985
0.86122536
0.81106504
0.72816884
0.71005455
0.74898742
0.76803301
0.76242464
0.72818588
0.73064144
0.75521193
0.75065715
0.72819539
0.7098103
0.72077492
0.72153861
0.70121835
7.202026
2.6768988
1.2288426
0.89887284
0.7831377
0.76097197
0.82172552
0.8907026
0.87056949
0.78783033
0.73822136
0.76932299
0.80661004
0.80778713
0.77662198
0.75798459
0.7860843
0.7905269
0.78741246
0.76049547
0.76641371
0.76815663
0.75680262
7.965842
3.0786044
1.41635
1.0060405
0.86022896
0.79577567
0.83983835
0.93169972
0.92535298
0.87889446
0.79240049
0.80552169
0.85010296
0.85071266
0.83836675
0.79733713
0.80921827
0.83355623
0.84570357
0.83784705
0.80891218
0.80809811
0.7927824
8.6091049
3.3931432
1.5946307
1.1241427
0.93431894
0.83929709
0.86429783
0.9729564
0.98606268
0.97270668
0.89051561
0.85997384
0.90500608
0.91075373
0.91059344
0.88625805
0.86752256
0.89549102
0.90352394
0.90754341
0.87484075
0.87269284
0.86588379
9.3368414
3.6551616
1.7787618
1.2902309
1.0461534
0.92529708
0.92859489
1.0521292
1.0718703
1.0588641
0.98999089
0.91285565
0.96959901
0.97925131
0.97865852
0.98189819
0.95270488
0.97670697
0.97404981
0.9678948
0.94969842
0.92259935
0.92768642
10.406287
4.3037565
2.1329414
1.5234146
1.2059807
1.0662515
1.0307238
1.1397458
1.1498161
1.1226859
1.071303
0.97006467
1.0037336
1.0446918
1.0380382
1.0496027
1.0273373
1.0317385
1.0398657
1.017982
1.0098689
0.98449558
0.99431692
11.60608
4.9465665
2.5258392
1.8323004
1.4091224
1.21569
1.1398255
1.2462534
1.2529062
1.2173073
1.1777281
1.0701079
1.0769252
1.1310358
1.129365
1.1306389
1.1079312
1.0840453
1.1108477
1.1053301
1.0922143
1.0680307
1.0590046
12.477945
5.6208272
2.9824932
2.1327468
1.6540169
1.4234272
1.3169668
1.431045
1.4318786
1.3882098
1.3744698
1.2842619
1.2226966
1.2826321
1.2908286
1.2556215
1.2371962
1.1961244
1.2225557
1.2476856
1.2269865
1.2234136
1.1920573
12.955233
6.3317594
3.4317853
2.4721559
2.0144726
1.7747281
1.6086999
1.7060741
1.6760159
1.582792
1.578109
1.524932
1.404611
1.4612418
1.4516544
1.3959897
1.3847959
1.3441195
1.3419289
1.3635836
1.3623028
1.3378702
1.3060891
13.81824
7.2582145
4.0354875
2.9777035
2.4901994
2.1697011
1.9492818
1.99215
1.9537442
1.7819769
1.7049892
1.65778
1.5324596
1.5603437
1.570441
1.538011
1.4951081
1.464123
1.4492201
1.4869833
1.4954157
1.4473086
1.4316704
15.302472
8.6833804
4.849865
3.5249058
2.9478628
2.6276721
2.3606836
2.3766189
2.2984766
2.0337297
1.8315834
1.7550829
1.6360951
1.639006
1.6822722
1.6742718
1.6167164
1.6127396
1.6062939
1.6640165
1.6459857
1.5843543
1.5149834
16.761164
10.119813
5.703095
4.1113608
3.5904266
3.4681145
3.1574356
3.144464
2.9844337
2.541789
2.0979751
1.9591991
1.8400361
1.8303728
1.9328858
1.9395549
1.8403289
1.8013264
1.7734852
1.8209445
1.887835
1.8157132
1.6723891
17.766432
11.045656
6.3718512
4.6651982
4.2525526
4.3197427
4.3637967
4.3365127
4.0865023
3.3918238
2.7499089
2.5436879
2.3068177
2.2675654
2.4090265
2.4296169
2.3207992
2.1502619
2.0579845
2.0696162
2.1655243
2.0942107
1.8677213
18.234743
11.755698
6.8226525
5.0378552
4.6865731
4.9256884
5.3409762
5.2795724
4.7957121
3.7806087
3.3077139
3.1732163
2.9126659
2.7999096
2.8441034
2.8429017
2.6943484
2.5434269
2.5003273
2.4953858
2.6077124
2.5680033
2.3221608
18.18437
12.150014
7.0263152
5.265164
4.9806684
5.4540232
6.2660376
6.3475771
5.6696858
4.1505784
3.5485185
3.4486593
3.3741571
3.2053274
3.1468081
3.1314754
2.9234587
2.7971111
2.8672314
2.8695123
2.9051913
2.87997
2.6732666
17.902404
12.494035
7.1070803
5.4555511
5.2794575
6.0485094
7.24786
7.4562358
6.6148187
4.5400627
3.6672123
3.5844222
3.6528111
3.6179811
3.5197059
3.400882
3.0118266
2.8528652
3.0053177
3.0928876
3.2060718
3.1956911
2.9566907
17.444977
12.631745
7.1584462
5.6312255
5.5468748
6.6106332
8.1542155
8.4255149
7.4357935
4.9075565
3.8290378
3.7726301
4.0981595
4.2918751
4.2013101
3.8653698
3.172632
2.9942716
3.3009565
3.4793221
3.5565496
3.4810076
3.0740653
16.908642
12.625284
7.2109004
5.8412863
5.8500773
7.1447185
8.8084755
9.0704881
7.9333735
5.208366
4.1558636
4.2484154
5.2066858
5.858633
5.7319455
4.7004124
3.3989811
3.2022092
3.6795164
4.1848543
4.3274987
4.0079842
3.1631915
16.207375
12.586894
7.3062642
6.0740084
6.1675098
7.7057464
9.3572451
9.5333542
8.1983968
5.4531447
4.5671549
4.9821313
6.723439
7.5460903
6.935656
4.9636643
3.8093733
3.7626692
4.7494096
5.359229
5.2337606
4.1963459
3.2502097
15.497969
12.502241
7.4626336
6.283792
6.4845317
8.2760412
9.8544435
9.8889852
8.2904211
5.5767052
4.8646848
5.5457658
7.5270564
8.2046931
7.272927
4.9122191
4.0740521
4.2946335
5.6950665
6.1784343
5.7390726
4.1290616
3.4232467
14.828814
12.232793
7.6067195
6.4779294
6.7707119
8.6607938
10.037174
9.8629525
8.0530386
5.6848052
5.2924012
6.459587
8.3009267
8.6110331
7.1148795
5.0028588
4.514921
5.5453542
7.1502342
7.4218593
5.7339458
4.1856248
3.9181674
14.188196
11.704409
7.700437
6.6475517
6.9882452
8.8184304
9.9565514
9.5685428
7.3988045
5.9790919
6.0299629
7.5026281
8.4881025
8.4184772
6.609099
5.2900221
5.2854121
6.8820906
7.8659706
7.399742
5.2733564
4.4776639
4.7685499
13.579327
10.90549
7.6506196
6.8014359
7.1498513
8.7352702
9.6146128
8.8859984
6.9841738
6.3787392
6.780214
7.9478147
8.2822491
7.9504102
6.2878842
5.679747
6.2838911
7.5578003
7.9040912
6.7591709
5.3770119
5.2327917
5.8089864
12.815613
9.9917727
7.3919438
6.7997975
7.2115655
8.5144451
8.9134376
7.9912819
6.8624914
6.6458272
7.0906731
7.772445
7.908684
7.2289847
6.3378516
6.2455443
6.9545686
7.5493152
7.5235542
6.191742
5.7583566
5.8292382
5.9138828
11.747928
9.059615
7.0445018
6.7456643
7.1740641
7.9082446
8.0038318
7.1883914
6.7214583
6.6487163
7.0665128
7.3933168
7.3825324
6.7466083
6.4336822
6.5264332
6.9961039
7.274402
6.7965332
6.1298146
5.9026202
5.9209657
6.0548572
10.547635
8.1893001
6.7358869
6.5854637
6.8930052
7.1181875
7.0605336
6.5958485
6.4750574
6.572915
6.8929602
7.009817
6.9069574
6.567832
6.4679541
6.5644412
6.7424233
6.6324994
6.251817
6.0500651
5.9848915
6.1705987
6.4283639
9.5697365
7.7103622
6.5039019
6.3157235
6.3944975
6.4216899
6.3428182
6.1929578
6.2364315
6.4058805
6.6058411
6.6375979
6.5402294
6.4248102
6.38126
6.3414234
6.2318688
6.0587878
5.997304
6.0456613
6.2254137
6.4540684
6.6724761
8.9122356
7.3386809
6.2031888
5.9818119
6.0296967
6.061066
5.990606
5.9435545
5.9967442
6.1228129
6.2369943
6.2814983
6.2582857
6.2017294
6.1025459
5.9488833
5.791094
5.773123
5.9329837
6.1520178
6.374442
6.5958572
7.0482923
8.3718637
6.7775601
5.8844807
5.7714866
5.8470026
5.8322748
5.6816597
5.6642593
5.7840787
5.8516659
5.8173673
5.7614786
5.7870282
5.8811106
5.8429738
5.6447363
5.5659292
5.6960519
6.0206406
6.2220026
6.3450262
6.6250076
7.4082144
7.6917066
6.2940942
5.6164539
5.5023605
5.4834638
5.4282224
5.4125084
5.5437291
5.5947308
5.5066035
5.3186391
5.279295
5.5113594
5.6695601
5.6407227
5.4540727
5.4321016
5.8186663
6.1164284
6.2047482
6.2369251
6.6574726
7.5305661
6.9327029
5.8416774
5.2259009
5.1110744
5.0658308
5.0187949
5.0825715
5.2074528
5.2034122
5.0902047
4.997436
5.0664824
5.2419546
5.3025764
5.2215041
5.2104613
5.3969651
5.8531424
6.0484683
6.1146643
6.2962051
6.9312019
7.4180701
6.2893299
5.418207
4.9455833
4.8204129
4.6998209
4.6098655
4.680849
4.902323
4.993127
4.8868324
4.8015402
4.8753068
5.0625886
5.0995545
4.9569793
4.9141459
5.2392444
5.7488431
6.0067313
6.176118
6.5033506
6.9896672
7.2019446
5.8069402
5.0668205
4.6524207
4.4956416
4.3627836
4.3240691
4.4817563
4.6008725
4.6022825
4.506567
4.5141126
4.7191324
4.8117849
4.7562797
4.6603934
4.7674202
5.2109764
5.6253802
5.8891289
6.1575512
6.5575212
6.7822243
6.6306628
5.388424
4.6522955
4.3045116
4.2102036
4.1462249
4.1445974
4.2636469
4.3034656
4.282967
4.2437068
4.2638058
4.409523
4.5002398
4.5790949
4.6292399
4.8335189
5.2545319
5.5506062
5.7456854
5.9072013
6.0418492
5.9651064
5.6931352
5.1297299
4.4122041
4.0642182
3.9579135
3.8882602
3.8849929
3.9943693
4.0538691
4.0480644
3.9853246
3.9553501
4.0638922
4.2064034
4.3466994
4.4371124
4.6501646
5.0535867
5.3147056
5.4257765
5.3969943
5.2611883
5.0412293
4.7553531
5.0966408
4.2295073
3.8758371
3.7563439
3.6638177
3.6314815
3.7094077
3.7930642
3.8292291
3.7895347
3.7537376
3.8313784
3.9507919
4.0592531
4.134837
4.3415576
4.6442493
4.8134351
4.8653991
4.8304591
4.6985094
4.4595021
4.1900483
5.0650205
4.042736
3.708435
3.5848392
3.4794579
3.4366349
3.4909877
3.5652277
3.6072993
3.5838936
3.5688832
3.6410582
3.7464963
3.8402213
3.9217718
4.1041842
4.3319303
4.4385121
4.4590004
4.4038626
4.2653273
4.0796021
3.8124377
5.1072995
3.8877118
3.5361054
3.4271766
3.3360004
3.3027658
3.3446913
3.3924465
3.4097425
3.3852475
3.3812499
3.4368886
3.5152838
3.6065664
3.7249451
3.9355601
4.1076626
4.1419739
4.1136889
4.0254112
3.9019029
3.7963617
3.5197367
5.121028
3.7611044
3.3818054
3.2683046
3.188292
3.1652706
3.2015447
3.2334212
3.2410353
3.2218516
3.2130063
3.2417869
3.2971344
3.3978911
3.5662566
3.8306372
3.9372948
3.9195274
3.8466527
3.7264104
3.5906505
3.5258134
3.2432839
5.1054894
3.6953374
3.2592218
3.1339533
3.0416294
3.0113262
3.0362917
3.0603061
3.0686709
3.0657426
3.067772
3.0957254
3.1528206
3.2785526
3.5298231
3.7273374
3.7630717
3.6850794
3.5717503
3.4250187
3.2659232
3.162621
2.9054625
5.1318174
3.5555338
3.1286965
2.9980123
2.9118154
2.8832661
2.901141
2.9118947
2.9153611
2.9229977
2.9421418
2.9866924
3.074604
3.2604206
3.5087621
3.5945836
3.5467295
3.4230648
3.2790589
3.1178317
2.9271593
2.7418226
2.519774
5.189727
3.4710746
3.0070721
2.8871329
2.8123241
2.7936901
2.8089941
2.8119835
2.808187
2.8136046
2.8352179
2.882547
3.0044141
3.2672336
3.40519
3.3980357
3.2935526
3.1495811
2.9942638
2.8173079
2.5971558
2.3706615
2.2255664
5.2539247
3.3754513
2.8875798
2.7718801
2.7151696
2.7053027
2.7184129
2.7197028
2.7147327
2.720051
2.744894
2.8152812
3.0029929
3.202474
3.2342399
3.1702106
3.0436612
2.892177
2.7217545
2.5212865
2.3054363
2.1378088
2.0621591
5.3206785
3.2667844
2.8070309
2.6780868
2.6186347
2.6062039
2.6167885
2.6193878
2.6156894
2.6254595
2.6635078
2.7715675
2.993347
3.0941298
3.0709734
2.9644883
2.8178762
2.6478527
2.4599097
2.2681198
2.1138324
2.0228264
1.9715151
5.4063398
3.2642322
2.7276199
2.6010396
2.5389686
2.5216626
2.5260741
2.5283008
2.5276753
2.5478668
2.6155077
2.7820009
2.9560944
2.9814942
2.9088445
2.769342
2.6001777
2.41626
2.2361533
2.0942759
2.0094812
1.9586953
1.9188153
5.5471805
3.1471923
2.6317146
2.5133118
2.4636015
2.4499883
2.4562732
2.4578359
2.4573559
2.4869146
2.584548
2.7807373
2.8729831
2.8493153
2.7358871
2.5764589
2.3994813
2.2269313
2.0863796
2.0028164
1.9597459
1.9250112
1.884214
5.6116023
3.1249425
2.5636951
2.448125
2.3954439
2.3801404
2.381998
2.3824016
2.3884931
2.4340086
2.5699215
2.7352403
2.7631169
2.7021592
2.5681897
2.4053941
2.2413525
2.1028961
2.0139108
1.9708845
1.9427023
1.9068309
1.8549682
5.7244711
3.0700959
2.4872513
2.3700459
2.3225846
2.3102426
2.3106921
2.3094858
2.3181463
2.3797819
2.53897
2.6563333
2.6595523
2.5720654
2.4283281
2.2698679
2.1268078
2.0256516
1.9768799
1.9521008
1.9257362
1.8826411
1.8229611
5.8883294
2.9375315
2.4078877
2.2889761
2.2482331
2.2382032
2.2458034
2.2512404
2.2666618
2.3372035
2.4984197
2.578901
2.5612732
2.4561009
2.3077384
2.1558171
2.0343803
1.9678472
1.9387353
1.9216765
1.8952958
1.8512873
1.7953991
5.9967129
2.86525
2.3328833
2.2208736
2.1801262
2.1722757
2.1795094
2.1850519
2.203402
2.2808464
2.4374274
2.4970043
2.4612589
2.3449721
2.1988716
2.0579219
1.960513
1.9179719
1.9011314
1.8893449
1.8653915
1.8255711
1.773553
6.0799975
2.8780527
2.2804168
2.1520569
2.1135293
2.1063641
2.1170509
2.1248506
2.1400836
2.2098249
2.3539739
2.4079428
2.375346
2.26186
2.1198975
1.9883021
1.906766
1.8763978
1.8662259
1.8575527
1.8363152
1.7986555
1.7488052
6.1458238
2.9357163
2.2299755
2.0946562
2.0492411
2.0406102
2.051887
2.0593029
2.0744047
2.1362526
2.2737554
2.3324053
2.2985311
2.1981009
2.062261
1.9326641
1.8562225
1.8291841
1.8210058
1.8140105
1.7984007
1.7683539
1.7257223
6.148527
3.0670749
2.2080201
2.0418762
1.9918103
1.9819936
1.9935588
1.9978348
2.0033515
2.0447753
2.164837
2.2618233
2.2361068
2.1381166
2.0075911
1.8756274
1.7964964
1.7715145
1.7663018
1.7646238
1.7590306
1.7418868
1.7081057
6.0963658
3.2431016
2.213445
1.9992764
1.9343932
1.9180784
1.9302259
1.9447304
1.9506581
1.9724979
2.0505306
2.1720654
2.1947556
2.1099956
1.9850004
1.8536695
1.7483551
1.7073865
1.7032442
1.7092219
1.711897
1.7078285
1.6838688
5.9999777
3.5520856
2.2469244
1.9657455
1.8882821
1.8674773
1.8694502
1.884758
1.8887504
1.9044218
1.9513799
2.0524028
2.1334466
2.0926189
1.9876247
1.8574025
1.7402146
1.6608301
1.6335524
1.6387626
1.65051
1.6538361
1.6408773
5.8373262
3.8276545
2.3124499
1.9655842
1.8529784
1.8156949
1.8202086
1.8338715
1.8437473
1.8482113
1.8693475
1.9265294
2.0207767
2.0540873
1.9908338
1.879142
1.7513921
1.6572888
1.5933921
1.5676745
1.5749328
1.5904134
1.5917868
5.7193938
4.0876554
2.4351812
1.9785515
1.8264527
1.7799718
1.7683094
1.7778475
1.8006915
1.8089913
1.8179447
1.8437367
1.9020762
1.9694756
1.9720094
1.9094026
1.7968972
1.6759691
1.5955391
1.5403993
1.5113188
1.5154478
1.5286272
5.492624
4.2054235
2.6359041
2.0217806
1.8288862
1.7493996
1.7303961
1.7278247
1.739532
1.7618955
1.7719825
1.7864697
1.8154203
1.863377
1.9122907
1.8979679
1.8457102
1.7421492
1.6258558
1.5494121
1.5000888
1.4684776
1.462501
5.2117967
4.1375717
2.7515629
2.0837508
1.8417712
1.7365941
1.6974278
1.6931529
1.6971276
1.7099792
1.7274373
1.739576
1.7575488
1.7879725
1.8230092
1.8548109
1.8394472
1.7962203
1.7110249
1.6008866
1.5197666
1.4704828
1.4163371
5.1808324
4.0572348
3.0084181
2.2051468
1.8811907
1.7421274
1.668024
1.6532772
1.6568232
1.6657474
1.6835605
1.6974402
1.7080504
1.7280212
1.75619
1.7879221
1.8106829
1.7949762
1.7597944
1.6955235
1.6033456
1.5113343
1.4346608
5.3274532
4.0818516
3.2627039
2.4467529
1.9711701
1.7666022
1.6697133
1.6122728
1.6059351
1.6132435
1.631469
1.6526286
1.6650797
1.6746308
1.688581
1.7134089
1.7392673
1.7661613
1.755489
1.7305203
1.6864924
1.6229503
1.531032
5.4514089
3.858124
3.2713316
2.8351024
2.1541443
1.8358645
1.686397
1.6092724
1.560186
1.5504691
1.5619421
1.5855996
1.6129829
1.6321488
1.6421387
1.6517257
1.6659999
1.685817
1.7161543
1.7171087
1.7020748
1.6742799
1.6110874
5.56084
3.4347854
3.1709228
2.9173369
2.558051
2.0249769
1.7552243
1.6261295
1.5583025
1.5114948
1.4926585
1.5026654
1.5262311
1.559002
1.5881986
1.6054556
1.6218333
1.6297027
1.644893
1.6643305
1.679577
1.6707336
1.647887
6.1287301
3.2162967
2.7428481
2.8108373
2.6706196
2.4022136
1.984124
1.7110685
1.5830057
1.5139688
1.4681322
1.4390735
1.4394072
1.4537956
1.4842404
1.5201446
1.5493392
1.5719977
1.5870422
1.6004306
1.614523
1.6312441
1.639695
6.9314173
3.3796337
2.5025039
2.4812481
2.5698272
2.4753755
2.294782
2.0037331
1.715327
1.5634198
1.4812
1.4329916
1.3964578
1.3750607
1.382158
1.4016384
1.4339169
1.4678372
1.4964667
1.522625
1.5452148
1.5588605
1.586896
7.9251296
4.0631622
2.5938044
2.2310721
2.2767385
2.3527055
2.2999641
2.2011868
2.0405327
1.802331
1.5881702
1.4710406
1.4039842
1.3625145
1.3327664
1.3180641
1.3261757
1.3459468
1.3821664
1.4061767
1.4432218
1.4615513
1.5044541
8.901726
4.4084273
2.6270213
1.9684536
1.8281995
1.8926773
2.0337171
2.1189329
2.0668072
1.9759539
1.8466735
1.653278
1.4911837
1.3906698
1.3358012
1.2939878
1.269363
1.2671385
1.2761633
1.2908894
1.3229491
1.3419198
1.3899139
9.4145686
4.1515658
2.1131845
1.5098173
1.4484557
1.4883733
1.6167386
1.7849419
1.9193042
1.9292988
1.8794438
1.7680446
1.6350304
1.4956199
1.3820765
1.306325
1.2587142
1.2261881
1.2105147
1.2117699
1.2202285
1.2324514
1.2693052
9.4183331
3.1477683
1.4038568
1.2454078
1.2716355
1.3501224
1.4666352
1.5817967
1.6799183
1.7702121
1.8031942
1.7524095
1.6413265
1.5119716
1.3938974
1.3095269
1.2559974
1.2137323
1.1864339
1.1704203
1.1650295
1.167105
1.1824944
9.0503461
2.4781152
1.2048414
1.1571582
1.1809494
1.2450717
1.3261525
1.4196699
1.5017712
1.5688878
1.6275151
1.6466254
1.5880578
1.4762402
1.3731348
1.2994702
1.2481902
1.2091198
1.1824413
1.1626656
1.1504864
1.1424702
1.1460483
8.5583068
2.1456167
1.0951292
1.0456639
1.0430877
1.0773866
1.1285356
1.1872577
1.2577893
1.3241991
1.3772757
1.4068405
1.4070643
1.3657795
1.316234
1.2702117
1.2302219
1.1993629
1.1754747
1.1556553
1.143
1.1309567
1.1354542
8.1021505
2.0062854
0.99860038
0.91530754
0.89658943
0.90044712
0.93270455
0.96913423
1.0159928
1.0651654
1.112025
1.1497621
1.1722656
1.1827284
1.1894937
1.1906296
1.1799196
1.1653049
1.1488853
1.1314402
1.1206156
1.1046191
1.1098808
7.6708702
1.745658
0.89838195
0.81922135
0.79906226
0.80405368
0.82832824
0.85724986
0.89097083
0.92512116
0.95950806
0.99197257
1.0189302
1.0396335
1.0578241
1.0672723
1.0722958
1.0719052
1.0677278
1.0575138
1.0513627
1.0349028
1.0401929
7.3285632
1.6158665
0.84598865
0.77434954
0.76802417
0.78535664
0.81253414
0.84201725
0.87343104
0.90464308
0.9350575
0.96309552
0.98731978
1.005342
1.0201841
1.026244
1.0315273
1.030744
1.0284271
1.0208068
1.015338
1.0001642
1.0002166
7.133244
1.5965927
0.84440052
0.77000471
0.7696084
0.79744984
0.83547493
0.87471652
0.91162427
0.94300351
0.96875559
0.99013564
1.0077526
1.0202526
1.0274031
1.0273496
1.0274623
1.0238747
1.020616
1.0117827
1.0064097
0.99245141
0.99808111
6.9296868
2.0500013
0.94018065
0.81134468
0.81834723
0.8727604
0.95425206
1.0403034
1.1090268
1.1441645
1.1454759
1.1206908
1.0857463
1.0486123
1.0241738
1.0098937
0.9987296
0.98688252
0.9795408
0.96914135
0.96497709
0.9560335
0.9757225
7.1671706
2.6425914
1.3300313
1.051381
1.0738114
1.1911474
1.3399571
1.4241395
1.4365584
1.4035588
1.3257648
1.230046
1.1306589
1.0454661
0.98102839
0.92211818
0.86689839
0.82393316
0.7971925
0.77954685
0.77315115
0.77347202
0.7859306
7.1892827
2.8694938
1.9298434
1.7391707
1.7400815
1.7460661
1.7100762
1.6331911
1.5367812
1.4270194
1.306705
1.1774818
1.0485973
0.92722954
0.81009057
0.71498519
0.65228526
0.61011988
0.5833872
0.56581951
0.55700364
0.55729938
0.57504159
7.5160483
3.6059075
2.6981314
2.3781588
2.1381589
1.9187946
1.723483
1.5432767
1.3544286
1.1612276
0.98401952
0.83843304
0.7243691
0.63778281
0.57779309
0.53358002
0.50365233
0.48276097
0.47020184
0.46272008
0.46019795
0.46062855
0.46941175
8.2118958
4.5046649
3.2254971
2.56744
2.0993293
1.7023014
1.341575
1.0517907
0.84593902
0.7118026
0.62204826
0.56033089
0.51697196
0.48605763
0.46444312
0.44838931
0.43943585
0.4341023
0.43195576
0.43126272
0.43180504
0.43346456
0.44024793
9.1978756
4.9431119
3.2743883
2.3339355
1.6100893
1.1221037
0.83877671
0.67555573
0.57820833
0.52090804
0.48438856
0.46028357
0.44372439
0.43217152
0.42625858
0.42327379
0.42307078
0.42333868
0.42409381
0.42652054
0.4288061
0.43372077
0.43847194
10.118997
4.9768063
2.9269719
1.7231297
1.0878441
0.77066727
0.6111666
0.52833918
0.48113488
0.45505873
0.43799013
0.42619905
0.41974308
0.41679082
0.41726619
0.41777734
0.41997251
0.42148084
0.42527742
0.43019529
0.43544648
0.4526538
0.45287085
10.815877
4.8561889
2.3890399
1.2755656
0.81352088
0.61378557
0.51969915
0.47254179
0.44593505
0.43085907
0.42061734
0.41408529
0.41260413
0.41303491
0.4146903
0.416143
0.41990354
0.42469184
0.43680499
0.44569316
0.46512875
0.48413188
0.51238568
11.319032
4.698342
1.9849805
1.0195043
0.68067725
0.54406299
0.4818475
0.45052686
0.43263089
0.42148454
0.41440537
0.41133526
0.41147108
0.4127415
0.41484283
0.41929886
0.42847602
0.44085843
0.45979286
0.4874871
0.53806158
0.57526124
0.63561571
11.653409
4.4693754
1.688999
0.87387442
0.61413474
0.51316253
0.46762185
0.44418192
0.42983529
0.42018632
0.41458419
0.4132657
0.41411003
0.41634006
0.42112291
0.43100175
0.44665055
0.47184909
0.51316168
0.56329224
0.60560768
0.63531638
0.67887756
11.836625
4.2079595
1.4880491
0.79276786
0.58264937
0.50225329
0.46586199
0.44605985
0.43290038
0.42373587
0.41923517
0.41908322
0.42079111
0.42453966
0.43300449
0.44837746
0.47433936
0.51486521
0.5629179
0.60337139
0.63132305
0.65361044
0.68938942
11.882412
3.974723
1.3581293
0.74799516
0.5689987
0.50103529
0.46974873
0.45169494
0.43849508
0.42949309
0.42619438
0.426489
0.42904318
0.43479346
0.44653213
0.46688949
0.49945285
0.54242974
0.58453823
0.61617169
0.63851269
0.65617888
0.68326571
11.843318
3.744943
1.2714338
0.72347003
0.5645553
0.50433916
0.47644758
0.4584676
0.44413441
0.43528566
0.43286548
0.43367053
0.43685362
0.44324733
0.45618503
0.47766173
0.51073701
0.55084326
0.58720118
0.61482221
0.63513396
0.65115573
0.67104874
11.728304
3.5451948
1.2139241
0.70907523
0.5641581
0.50904359
0.48262709
0.46455627
0.44916537
0.43988665
0.43752132
0.43820698
0.44199725
0.44869271
0.4609175
0.48080343
0.50927899
0.54404585
0.57812243
0.60489916
0.62433572
0.63974454
0.65607767
11.552026
3.3613562
1.1708775
0.70054308
0.56589142
0.5141733
0.48835337
0.4693248
0.45275983
0.44192933
0.43909406
0.43967822
0.44320895
0.44927022
0.45937929
0.47459723
0.49818363
0.52876077
0.55959516
0.58625842
0.60718967
0.62377537
0.63889069
11.33337
3.1750545
1.1334854
0.69510748
0.56921205
0.52010903
0.49443514
0.4744583
0.45628385
0.44270361
0.43812145
0.4378449
0.44051613
0.44580054
0.45470431
0.46820751
0.4851447
0.50720394
0.53383515
0.56076127
0.58314031
0.60039198
0.61544889
11.080197
2.9749337
1.0987411
0.69171196
0.57421007
0.52758001
0.50122947
0.47956593
0.4599518
0.44363022
0.43487967
0.43302424
0.43405087
0.43728007
0.4432162
0.45159198
0.46363492
0.48252755
0.50591793
0.52926568
0.54883259
0.56817361
0.58628814
10.796052
2.7528163
1.0594009
0.68915632