/*--------------------------------*- C++ -*----------------------------------*\
| =========                 |                                                 |
| \\      /  F ield         | OpenFOAM: The Open Source CFD Toolbox           |
|  \\    /   O peration     | Version:  2406                                  |
|   \\  /    A nd           | Website:  www.openfoam.com                      |
|    \\/     M anipulation  |                                                 |
\*---------------------------------------------------------------------------*/
FoamFile
{
    version     2.0;
    format      ascii;
    arch        "LSB;label=32;scalar=64";
    class       volScalarField;
    location    "85";
    object      p;
}
// * * * * * * * * * * * * * * * * * * * * * * * * * * * * * * * * * * * * * //

dimensions      [1 -1 -2 0 0 0 0];

internalField   nonuniform List<scalar> 
20580
(
1.0065776
1.0093317
1.0065025
1.0064106
1.0108045
1.009499
1.0076355
1.0096831
1.0098263
1.011236
1.0104615
1.0128235
1.0124371
1.0118501
1.0127783
1.0123772
1.009697
1.0126931
1.0136814
1.0067405
1.0114435
1.0129224
1.0076908
1.0069657
1.0178537
1.0161676
1.0045341
1.0097512
1.0111126
0.99840009
1.0100509
1.0068886
1.0094098
1.0069627
1.0056955
1.0109566
1.0096808
1.0075301
1.0096446
1.0098563
1.0113234
1.0100635
1.0132301
1.0122696
1.0115089
1.0134069
1.0116602
1.0091913
1.0150856
1.0114935
1.0064519
1.0141287
1.0111303
1.0065939
1.009865
1.0209842
1.0164097
0.99838348
1.0034309
1.0182485
1.0096967
1.0010563
1.0065758
1.0091971
1.0080703
1.0065855
1.010127
1.0088998
1.0078566
1.0091632
1.0100608
1.0110265
1.0103682
1.0129918
1.0123748
1.0114265
1.0137666
1.0112825
1.0092493
1.0165273
1.0101366
1.0069277
1.0161471
1.009977
1.0062569
1.0109397
1.0199254
1.016065
0.9963323
0.99862861
1.0223873
1.02277
0.99830834
1.0056598
1.0087339
1.0092651
1.008674
1.0086339
1.0076437
1.0085103
1.0085947
1.0101819
1.0104158
1.0111266
1.0124708
1.012443
1.0118208
1.0137081
1.0113967
1.0099197
1.0164694
1.0092917
1.0083908
1.0168198
1.0086284
1.0072931
1.011333
1.014467
1.0137648
0.99951185
0.99743533
1.0209172
1.0338394
1.0074644
1.0045152
1.0080833
1.0100235
1.0108477
1.0071185
1.0068555
1.0091252
1.008453
1.0100743
1.009719
1.0118447
1.0120639
1.012212
1.0125736
1.0130348
1.0117798
1.0111822
1.0151757
1.0084005
1.0106017
1.0161914
1.0067152
1.0098792
1.0127703
1.0071376
1.0093329
1.0063697
1.0009846
1.0146447
1.0339958
1.022675
1.0037078
1.0074629
1.0100596
1.0122246
1.006374
1.0071133
1.009246
1.008811
1.0098781
1.0093982
1.0122603
1.0118528
1.0119573
1.0133931
1.0122001
1.0121779
1.0128617
1.0131631
1.0080799
1.0128212
1.0142488
1.00475
1.0123268
1.0157789
1.0020415
1.0035645
1.0140065
1.0097602
1.007358
1.0197759
1.0290636
1.003651
1.0071887
1.0093372
1.0121671
1.0068261
1.0082523
1.0088677
1.0093129
1.009609
1.0097184
1.0120393
1.0117163
1.0119239
1.0139497
1.0118271
1.0124262
1.0143778
1.0110179
1.0084745
1.0146033
1.0118722
1.0033259
1.0133334
1.0190139
1.001222
0.99881482
1.0186194
1.0216038
1.0050914
0.99972899
1.017139
1.0043091
1.0074234
1.008301
1.0104865
1.0081399
1.0095911
1.0083521
1.0097113
1.0092958
1.0105046
1.0115214
1.0114891
1.0121504
1.014016
1.0117826
1.0124586
1.0152397
1.0094906
1.0093221
1.0152692
1.0099971
1.0033349
1.0131559
1.0200933
1.0040537
0.99771773
1.017995
1.0299396
1.0094701
0.98832843
0.99491676
1.0054106
1.0081433
1.0076364
1.0080436
1.0096335
1.0102582
1.0080831
1.0098098
1.0090524
1.0111734
1.0112642
1.0114339
1.0125496
1.0136708
1.0119724
1.0123593
1.015237
1.008955
1.0107603
1.0147849
1.0084444
1.0056724
1.0123492
1.0171309
1.0083013
1.0008961
1.013647
1.0290041
1.0170498
0.99020056
0.98204366
1.0065488
1.0091048
1.0075838
1.0061834
1.0106986
1.009769
1.0082363
1.0093865
1.008963
1.011326
1.0111575
1.0115352
1.0129968
1.0131541
1.0126723
1.0123117
1.0144447
1.0091103
1.012735
1.0136721
1.0070625
1.0102745
1.0119049
1.0107211
1.0110225
1.0075596
1.0095149
1.0178403
1.0200574
1.0021923
0.98774713
1.0070874
1.0099072
1.0080161
1.0057324
1.0108429
1.0083897
1.0085856
1.0086649
1.0091886
1.0108943
1.0111061
1.0117704
1.0132326
1.0124459
1.0135227
1.0125504
1.0131989
1.0097452
1.0146148
1.0119171
1.0060526
1.0152503
1.0130552
1.0037839
1.0100237
1.0157149
1.0089143
1.0035665
1.0115482
1.0160669
1.0066298
1.0065879
1.0101407
1.0088189
1.0068352
1.0100876
1.0070315
1.0088997
1.0080929
1.0098417
1.0101464
1.0109477
1.0122079
1.0132143
1.0118307
1.0140605
1.0130681
1.0119213
1.0108492
1.015824
1.0102464
1.0053054
1.0184897
1.0151973
0.99903453
1.0061894
1.0216395
1.0123158
0.99550664
0.99694114
1.0192437
1.0270682
1.0056405
1.009555
1.0095346
1.0092091
1.0088888
1.0066136
1.0089086
1.0080226
1.0105645
1.0099028
1.0104073
1.01254
1.0130246
1.0117024
1.0143164
1.0136882
1.0110416
1.0119667
1.0158567
1.009505
1.0051601
1.0189024
1.01693
0.99748506
1.003064
1.0225277
1.017913
0.99584932
0.98880797
1.0108551
1.0342157
1.0043923
1.0082743
1.0096779
1.0117122
1.00774
1.0074142
1.0084583
1.008453
1.0107439
1.010071
1.0099246
1.0125553
1.0129067
1.0119658
1.0143193
1.0141796
1.0108919
1.0128827
1.0146448
1.0094394
1.0063549
1.0167998
1.0160095
1.0000541
1.0030458
1.0185395
1.0210091
1.0023009
0.99260918
1.0015179
1.0261373
1.0035946
1.0070548
1.0093325
1.0128281
1.0071135
1.0089184
1.0079304
1.0091043
1.0101946
1.0100082
1.0101537
1.0122897
1.0126457
1.0125674
1.0138493
1.0142694
1.0113835
1.0138454
1.0125397
1.0096594
1.0093809
1.0135417
1.0116591
1.0052499
1.0068441
1.0130278
1.0165513
1.0115034
1.003436
1.0023949
1.0114149
1.0036221
1.0066672
1.0087186
1.0122996
1.0073789
1.0101429
1.007814
1.0095965
1.0092121
1.0099492
1.011086
1.0118457
1.0120998
1.0135431
1.0131447
1.01391
1.0121778
1.0148388
1.0100661
1.0098828
1.0136267
1.0109875
1.0055029
1.0098169
1.0138266
1.0101069
1.0058862
1.0143563
1.0172639
1.0116284
1.0026367
1.0045702
1.0073544
1.0082073
1.0103859
1.0084071
1.0102064
1.0081595
1.00964
1.0084002
1.0100195
1.0120133
1.0114078
1.0116969
1.0145091
1.0126996
1.0132757
1.0130289
1.0154793
1.0082951
1.0098263
1.0174105
1.0101857
1.0005593
1.0112373
1.0212935
1.0107217
0.99696678
1.0073242
1.0253323
1.0226532
1.0048354
1.0059065
1.0086825
1.0079677
1.0076524
1.0097151
1.0091409
1.0087858
1.0092742
1.0082469
1.0099732
1.0121729
1.011127
1.0116514
1.0149995
1.0125796
1.0125873
1.0136998
1.0156914
1.0076296
1.0096179
1.0192943
1.0110686
0.99850904
1.0102788
1.0254567
1.0137523
0.99418116
0.99853852
1.0223871
1.0294083
1.0115386
1.0067813
1.01
1.008167
1.0058756
1.0106957
1.0077436
1.0093161
1.0088913
1.0090688
1.0099601
1.0116973
1.0111782
1.0118588
1.0148991
1.0128549
1.0122271
1.0139449
1.0153896
1.0083665
1.0097342
1.0184573
1.0122169
1.0003374
1.0087895
1.023804
1.0155236
0.99747022
0.99689822
1.0129539
1.0260301
1.016426
1.0068059
1.0105508
1.0086286
1.0060178
1.0108997
1.0069978
1.0094718
1.0087289
1.0100636
1.0100135
1.0108959
1.0115186
1.0121972
1.0142142
1.0133456
1.0124718
1.0138762
1.0140374
1.0103799
1.0108265
1.0149385
1.012459
1.0047525
1.0097099
1.0172389
1.013813
1.0035947
1.0023412
1.0072619
1.014394
1.0151008
1.0058679
1.0097064
1.0090031
1.0079848
1.0099392
1.0074001
1.0090826
1.0087143
1.0102296
1.0100281
1.0102571
1.0117892
1.0126005
1.0130168
1.0137579
1.013351
1.0139558
1.0120438
1.0126815
1.0126895
1.0106629
1.0103596
1.0107098
1.0124847
1.0101385
1.0071074
1.0107603
1.0119348
1.0085855
1.0038811
1.0077055
1.0043041
1.0079402
1.009067
1.0108282
1.0083694
1.0087679
1.0083765
1.008682
1.0095146
1.0099476
1.0100548
1.0117462
1.0131158
1.0118165
1.0140073
1.0143524
1.014277
1.010038
1.0141537
1.0150884
1.0075137
1.0067109
1.0149387
1.0166908
1.0060461
0.99920198
1.0121235
1.0226628
1.0149026
0.99953806
0.9992338
1.0035345
1.0063203
1.008875
1.0131585
1.0070499
1.0100195
1.0076636
1.0087341
1.0086804
1.0100685
1.0102449
1.0114214
1.0135721
1.0110308
1.0138638
1.015105
1.0148342
1.0088043
1.014184
1.0175162
1.0063897
1.0038619
1.0152087
1.020806
1.0062155
0.99432941
1.007556
1.027727
1.0225453
1.0017312
0.99445399
1.0108761
1.014181
1.0125491
1.0060871
0.99622754
0.98807495
0.99034492
1.0040413
1.0228353
1.0342125
1.0325667
1.0169841
1.0000172
0.99616557
1.0077475
1.022211
1.0242331
1.0079284
0.98519989
0.97808219
0.99496847
1.0257674
1.049912
1.0305256
1.0247272
1.0148424
1.0041235
0.99894237
1.0003538
1.0058699
1.0107434
1.0098792
1.0024124
0.9919697
0.99034027
1.0024801
1.0245643
1.0431772
1.0448045
1.0262867
0.9976535
0.97836865
0.98146659
1.0016948
1.0224623
1.0300602
1.0001608
0.99822755
1.0042738
1.0177765
1.0319639
1.0395461
1.0373374
1.0218056
0.99869988
0.9798748
0.97706963
0.98940705
1.0094056
1.0252915
1.0280481
1.0162619
1.0015653
0.9986488
1.0109658
1.0306153
1.0400461
1.028197
0.99877941
0.97441422
0.98524298
1.0031351
1.0205284
1.0316693
1.0325381
1.0204218
1.0071567
1.0013383
1.0072103
1.0203136
1.0312411
1.0324336
1.0146026
0.98555131
0.96333597
0.96410504
0.9887962
1.0286079
1.0606862
1.0651077
1.0384095
0.99660789
1.0147142
1.0202284
1.0176704
1.0071571
0.99073453
0.9765956
0.97139163
0.97992766
1.0030303
1.033088
1.0563105
1.0623251
1.0450468
1.0129848
0.98139766
0.96873323
0.97716572
0.99954154
1.020098
1.028915
1.0173472
0.99719439
0.98959951
1.0553987
1.0427811
1.0231976
1.0006286
0.98214189
0.97239795
0.97661108
0.9915574
1.0084012
1.0196188
1.0218046
1.0140498
1.0023324
0.9979022
1.0080042
1.028023
1.0466765
1.0504338
1.0322255
0.99477457
0.9544569
0.93955005
0.95364921
1.0099045
1.0055131
1.0060104
1.0094676
1.0208517
1.0345884
1.0449807
1.0439974
1.0270077
0.99842975
0.96860153
0.94755377
0.94766691
0.96952858
1.009286
1.0536492
1.0842008
1.0835797
1.0509162
1.002671
0.96189334
0.94619418
0.95534474
0.95463174
0.96103179
0.98060555
1.0125093
1.0483521
1.0733489
1.0787756
1.0622949
1.0348332
1.0023766
0.97578942
0.96087288
0.96315788
0.97967135
1.0006304
1.0204065
1.0290425
1.0227268
1.0130154
1.0074966
1.0103979
1.0174845
1.0290651
0.97130415
0.98742399
1.0050802
1.015609
1.0166102
1.0116454
1.0085409
1.0075811
1.0094094
1.0133682
1.0239989
1.0371238
1.0470326
1.0464056
1.0273949
0.99283405
0.95831046
0.9355437
0.93792275
0.96291451
1.0093795
1.0633109
1.1071085
1.0635487
1.0557555
1.0341751
1.004098
0.97375492
0.94940683
0.93512908
0.93605482
0.95611415
0.99542728
1.0481946
1.0935305
1.1137262
1.1003777
1.0579342
1.0059928
0.95621036
0.92365091
0.91548991
0.93383492
0.97654166
1.0338081
1.0854248
1.1075137
1.0811788
1.0429398
1.003071
0.96928863
0.94496763
0.93437623
0.93900416
0.95844296
0.99081032
1.0255034
1.0553509
1.0750327
1.070451
1.0537843
1.0279243
0.99775869
0.97653147
0.9696119
0.97617679
0.98878109
1.003006
1.0114359
1.0326221
1.0276797
1.0266734
1.0212599
1.0112622
1.0006608
0.99842233
1.0062133
1.0170296
1.0190092
1.0084266
0.98970609
0.97409627
0.97323716
0.98502155
1.007527
1.0299747
1.0464267
1.0599967
1.0624469
1.0481936
1.0176851
0.97683972
0.947769
0.95753053
0.9784964
1.0096032
1.0444265
1.0767137
1.0966557
1.097932
1.0750433
1.0370758
0.99306587
0.95262347
0.92316386
0.90916473
0.91921325
0.95279022
1.0064936
1.0712037
1.1235136
1.141365
1.1113434
1.0527439
0.98417414
0.91255456
0.92485974
0.95182059
0.99378389
1.0478191
1.1030185
1.1413412
1.1432999
1.1068403
1.0498891
0.99385904
0.94842623
0.91594773
0.90159544
0.90617586
0.93351678
0.98237114
1.0484208
1.1127304
1.1475895
1.1354225
1.0815075
1.0102268
0.9231173
0.93806411
0.96424427
1.0014571
1.0424202
1.0800838
1.1057838
1.1102762
1.0910621
1.0544062
1.01196
0.97035511
0.93971727
0.92623514
0.93037444
0.95022802
0.98519492
1.0279843
1.06693
1.0963304
1.1012506
1.0770616
1.0325379
0.96122397
0.97405609
0.99307326
1.0137166
1.0310734
1.0418123
1.0460385
1.0484517
1.0475848
1.0404667
1.0244906
1.0014249
0.98011196
0.96721113
0.96848122
0.98239833
0.99994925
1.0154414
1.0272671
1.0392584
1.0475722
1.0487489
1.036329
1.0035705
1.011521
1.0200951
1.0233441
1.0188236
1.007845
0.99860626
0.99862524
1.0082291
1.0211355
1.0279571
1.024712
1.0140028
1.0051052
1.0056325
1.0114268
1.0127683
1.009383
1.0014432
0.99613055
1.0038899
1.0175119
1.0285646
1.0351205
1.0366219
1.0344022
1.02473
1.0070043
0.98616825
0.97234392
0.97292296
0.98664872
1.0082075
1.0271288
1.0370792
1.0367135
1.0342429
1.0321884
1.0273948
1.018225
1.0034748
0.98282764
0.97017873
0.9753803
0.99340361
1.0189996
1.0452955
1.0456452
1.0394938
1.024583
1.0018954
0.97665822
0.95958028
0.95977223
0.97713895
1.003445
1.0297111
1.0468665
1.0513259
1.0496033
1.044894
1.03517
1.0166783
0.99487075
0.9721981
0.9579808
0.9634072
0.9858378
1.0171534
1.0449967
1.0464417
1.0404347
1.0250994
1.0019539
0.97662293
0.95888694
0.95985487
0.97910421
1.0069939
1.0325712
1.0482502
1.0511366
1.0479216
1.0439953
1.0348373
1.0152855
0.99174632
0.96827761
0.95557806
0.96372104
0.99382877
1.0255625
1.0269706
1.0319888
1.0340328
1.0258011
1.0072201
0.98424244
0.97085744
0.97342148
0.99277792
1.0188474
1.0354553
1.0405043
1.0367404
1.0320425
1.0300558
1.0243595
1.0113285
0.99116434
0.97253482
0.96777878
0.9844039
1.0114801
1.0323271
0.99370319
1.003611
1.0143007
1.0199658
1.0176421
1.0090247
1.0015988
1.0056357
1.0195673
1.0343988
1.0366732
1.0251815
1.0079623
0.9993591
1.0022566
1.0071045
1.0085094
0.99651703
0.99122786
0.99858364
1.0185962
1.0377572
1.038668
0.95161644
0.96435861
0.98348697
1.0081719
1.0316422
1.0492684
1.0592591
1.0626105
1.0586367
1.0466721
1.0218968
0.99277525
0.96838102
0.95838042
0.96802492
0.98246822
1.0033079
1.0179926
1.0341423
1.0576379
1.0645595
1.0535963
1.0162496
0.91713795
0.93396181
0.96222618
1.0016994
1.0476392
1.0915652
1.1206367
1.1184887
1.0883059
1.0419201
0.98870738
0.94959774
0.92529565
0.91929708
0.93296701
0.96275349
1.0110417
1.0634688
1.1071935
1.1221767
1.0875471
1.0325164
0.96821524
0.91604053
0.93113618
0.96141979
1.0065211
1.0616151
1.1163559
1.1446102
1.1300943
1.0810157
1.0195254
0.96378995
0.9228787
0.89860405
0.89700396
0.91646996
0.97085028
1.0501125
1.1269269
1.1605041
1.1325845
1.064724
0.98688447
0.92461268
0.97129804
0.97740684
0.99621731
1.022584
1.0487967
1.0695317
1.0803225
1.0738178
1.0476879
1.0066352
0.9607281
0.9253185
0.91159851
0.92075809
0.96028139
1.0158407
1.0792236
1.1270753
1.1311678
1.0881228
1.0163866
0.94804134
0.90350476
1.0672658
1.0483882
1.0295911
1.0126164
0.99765352
0.98560014
0.98250372
0.98708713
0.99631356
1.0007075
0.99491543
0.98613564
0.98945058
1.0055533
1.0225527
1.0361631
1.039862
1.0397053
1.0339762
1.018659
0.99555421
0.96130439
0.94026461
1.1052856
1.0775086
1.0349774
0.9911466
0.95571686
0.93202981
0.92271332
0.93217024
0.96228393
1.0093337
1.0598952
1.0913522
1.0906309
1.0638596
1.0242723
0.98505499
0.95755587
0.94212676
0.94641887
0.97372205
1.0148003
1.0542918
1.0648266
1.0283643
1.0349376
1.0247325
1.0003345
0.96619863
0.94297963
0.9380775
0.95423173
0.98893727
1.0319538
1.0799653
1.1093745
1.1015983
1.0579263
0.99365966
0.9344701
0.90157412
0.9014053
0.93125943
0.98909938
1.0618206
1.1277471
1.1463348
0.95538645
0.97055733
0.99223284
1.013713
1.0297613
1.0329633
1.0297384
1.0206712
1.0163516
1.014284
1.014451
1.0217188
1.0244469
1.0151083
0.99371048
0.96715679
0.94868067
0.94921242
0.97328301
1.0106052
1.0413736
1.0531661
1.0574722
0.9580902
0.96486635
0.98564675
1.0193421
1.0566202
1.0856608
1.0833709
1.0533266
1.011339
0.97126476
0.94286492
0.93451677
0.95198259
0.98836122
1.0316427
1.0627107
1.0697093
1.0488569
1.0098063
0.9703327
0.9436353
0.93348277
0.93981206
1.0322428
1.0171234
1.0071027
1.0055899
1.0098033
1.0200784
1.0332103
1.0314759
1.0100413
0.97652904
0.94896993
0.94157986
0.95614943
0.99144424
1.0393874
1.0798236
1.092064
1.0707057
1.0249698
0.96891697
0.92267982
0.9059676
0.92217472
1.055368
1.0431667
1.0175358
0.98943969
0.96792911
0.95789732
0.96395457
0.98644209
1.0125621
1.033821
1.038721
1.0270374
1.0103911
0.99662458
0.98671103
0.98474869
0.99335401
1.0112682
1.0277851
1.0358653
1.0285361
0.99829897
0.972535
0.99426483
1.0076375
1.0143561
1.0072134
0.99131973
0.97598831
0.97087119
0.98060526
1.0052645
1.0377618
1.0643635
1.0704014
1.0490174
1.0064396
0.96201467
0.93295864
0.93086318
0.95668889
1.0044981
1.0598043
1.0915793
1.0765255
1.0176327
0.97174401
0.98033242
1.0007895
1.0244007
1.0398328
1.0401193
1.0259024
1.0059295
0.99227822
0.98973496
0.99671216
1.0109144
1.0244937
1.0264097
1.0130308
0.9894586
0.96849608
0.96201515
0.97223584
0.9895108
1.0120444
1.0385002
1.0341595
1.008546
1.0005695
1.0018291
1.0102236
1.0224496
1.0353199
1.0406643
1.0323339
1.0087217
0.98127529
0.96273059
0.95820581
0.97122683
1.0015571
1.0347633
1.0568447
1.0581025
1.0391071
1.0037094
0.97505737
0.96074025
0.96184978
0.9885962
1.0366807
1.0284188
1.0143946
1.0004159
0.99082249
0.98812221
0.99374843
1.006137
1.0154898
1.015356
1.0048286
0.99158856
0.98307722
0.98789528
1.0039753
1.0202404
1.0288133
1.0278149
1.0166098
1.0016875
0.99011528
0.98186681
0.98443359
1.006938
1.0155902
1.0178778
1.0093298
0.99323918
0.97831079
0.97233716
0.97793873
0.99512485
1.0171299
1.0354208
1.0405497
1.0339134
1.02103
1.0064954
0.99489045
0.98469343
0.97754183
0.98125889
0.99625845
1.0160072
1.0233431
1.0147588
0.97790666
0.98628272
1.0004727
1.0144873
1.0211428
1.0167603
1.0077995
1.0009498
1.0000129
1.0065441
1.0166599
1.0230171
1.0233431
1.0198881
1.0129159
1.0035479
0.99191326
0.98118492
0.97871438
0.98981949
1.0167826
1.0374826
1.0302146
0.99938886
0.99538542
1.0002267
1.009358
1.0213122
1.0286814
1.0301317
1.0256231
1.0187571
1.0111882
1.0030254
0.99418351
0.98601209
0.98337428
0.9883989
0.99970012
1.0123638
1.0189804
1.0151313
1.0091491
1.0126385
1.0276981
1.0230014
1.0295676
1.0205761
1.011901
1.0059126
1.0030222
1.0019059
1.0023359
1.0034484
1.0060433
1.0084647
1.0076019
1.0024335
0.99316983
0.98540324
0.98707496
0.99741125
1.0154562
1.0307789
1.0290706
1.0136064
0.99821736
0.99578505
1.0006719
1.0137108
1.0123331
1.0085378
1.0030527
0.99748376
0.99233725
0.98770417
0.98493851
0.98719058
0.99501466
1.0060204
1.016261
1.0211587
1.0179484
1.0128748
1.0117233
1.0144851
1.0192037
1.0159805
1.0010197
0.98406988
0.97749604
0.98968877
0.99312443
0.9922142
0.99295971
0.99677564
1.0034537
1.0106232
1.0135026
1.0097214
1.0036489
1.000391
1.0036734
1.0112219
1.018279
1.0200508
1.0144679
1.0066025
1.0018807
1.0002523
1.0010232
0.99760154
0.99106178
0.99039151
1.0009689
1.0083155
1.0006641
0.9942702
0.99383513
1.0009761
1.0129825
1.0234074
1.0266504
1.0214752
1.010785
1.0021589
1.0000903
1.0014212
1.0026586
1.0005416
0.99466716
0.99112473
0.9936734
1.0003947
1.0079779
1.0112922
1.0102058
1.0118487
1.0215099
1.0158741
1.0054704
0.99641693
0.99340883
0.9965379
1.003283
1.0076298
1.0059399
0.99994656
0.99373673
0.99156723
0.99530669
1.0017083
1.0052659
1.0050635
1.0024802
1.0028021
1.0082102
1.0147834
1.0173471
1.0135347
1.0052272
0.99776406
1.0013228
1.0003204
0.99679448
0.99392403
0.99331684
0.99486759
0.99709902
0.99692707
0.99439124
0.99243163
0.99429591
1.0005927
1.009408
1.0154286
1.015482
1.0108283
1.0057145
1.0035613
1.0050451
1.0057782
1.0030444
0.99798419
0.98334331
0.98798944
0.99347914
0.99846497
1.0018844
1.0041901
1.0061459
1.0072223
1.0063017
1.0048344
1.0030491
1.0024567
1.0048233
1.007255
1.0081919
1.0057153
1.0001017
0.99533286
0.99358333
0.99526956
0.99945744
1.0020818
1.0027464
0.99497196
0.99675956
0.99994514
1.0027797
1.004387
1.0043202
1.0024358
1.0007907
0.99941558
0.99846832
0.99839722
0.99848677
0.99871843
0.99835868
0.99687291
0.99473173
0.9936621
0.99427885
0.99778912
1.0032012
1.0071206
1.0087558
1.0074556
0.99823851
0.99878833
1.0001043
1.0003885
0.99867315
0.99561648
0.99140416
0.98767896
0.98672395
0.98831141
0.99165071
0.99616547
0.99912544
0.99979756
0.99913253
0.99795845
0.99842563
1.001346
1.0055861
1.0087065
1.0086611
1.0041482
0.99801072
0.99083489
0.99186077
0.99309029
0.99428409
0.99468713
0.99368686
0.99251276
0.99195161
0.99260843
0.99555931
0.99964437
1.0029467
1.0039725
1.0028265
0.99983013
0.99704069
0.99614893
0.99678457
0.99843784
0.99886504
0.99705652
0.99348224
0.99076955
0.99549519
0.99506158
0.99468174
0.9939853
0.99361038
0.99346077
0.99361891
0.99476945
0.99641843
0.99788369
0.99887745
0.99789966
0.9951636
0.99177386
0.98877191
0.98794328
0.9893415
0.9916534
0.99375315
0.99438669
0.99341999
0.99356956
0.99495452
0.99329608
0.9937235
0.99364446
0.99301894
0.9917657
0.99089727
0.99079277
0.99149151
0.99300025
0.99425587
0.99407545
0.99199228
0.98901861
0.98628035
0.98614044
0.98899685
0.99351573
0.9980517
0.99961046
0.99822434
0.99504632
0.99355096
0.99481976
0.99085968
0.99147915
0.99251086
0.99315239
0.9931301
0.99260419
0.99196325
0.99183647
0.99245654
0.99330794
0.99352672
0.9925357
0.9910563
0.9896406
0.98994438
0.99242544
0.99544623
0.99778603
0.99643139
0.99189478
0.98714372
0.98480307
0.9862331
0.99287493
0.99266052
0.99316737
0.99363757
0.99416347
0.9940316
0.99306286
0.99186176
0.99100046
0.99030712
0.99015222
0.99019577
0.98990008
0.98973621
0.98972345
0.99008496
0.99055134
0.99007638
0.98788352
0.98476996
0.98248185
0.98308132
0.98727357
0.99377406
0.99380126
0.99258922
0.99196344
0.9928307
0.99260672
0.99231877
0.99177275
0.99026646
0.9893866
0.98878415
0.98916858
0.98937675
0.98990763
0.98982052
0.98903202
0.98785826
0.98651027
0.98504135
0.98414505
0.98433833
0.98661589
0.98968288
0.99446467
0.9948134
0.99241809
0.99124368
0.99200835
0.99110353
0.99163738
0.99261122
0.99135175
0.99117301
0.99045278
0.99003937
0.99032035
0.98941047
0.98913277
0.98797488
0.98637419
0.98517007
0.98433662
0.98481359
0.98538559
0.9863375
0.98645322
0.99470712
0.99452368
0.99298973
0.99266855
0.99267848
0.99168343
0.99247681
0.99335561
0.99229084
0.99212538
0.99127459
0.98990377
0.98993601
0.98841429
0.98785632
0.98673891
0.98555726
0.98516589
0.98445224
0.98458002
0.98517075
0.98455621
0.98275506
0.99559036
0.99429969
0.99451073
0.99503563
0.99360354
0.99358725
0.99427906
0.99368832
0.99305252
0.99271036
0.99119001
0.9898326
0.98980364
0.98889823
0.98845862
0.98753398
0.9869038
0.98596039
0.98604369
0.98477596
0.9847162
0.98361455
0.98147326
0.99682853
0.99534677
0.99635687
0.99632406
0.99460482
0.99515791
0.99524676
0.99391541
0.99391678
0.99331724
0.99156084
0.99099985
0.99014759
0.98977574
0.99029261
0.98945747
0.98880432
0.9865134
0.98647119
0.98476267
0.98362324
0.98296917
0.98166865
0.99709263
0.99695465
0.99794139
0.99699341
0.99612041
0.99643873
0.99557632
0.99421143
0.99464958
0.99427858
0.99354992
0.99346731
0.9921445
0.99146212
0.99125479
0.99074146
0.98969581
0.98752238
0.98649459
0.98550806
0.98429798
0.98341363
0.98304817
0.99810487
0.99859519
0.99845897
0.99788194
0.99838309
0.99839129
0.99706993
0.99621635
0.99587951
0.9948477
0.9950697
0.99546347
0.99415201
0.99341382
0.99243093
0.99232565
0.99091954
0.98950532
0.9877031
0.98823372
0.98813392
0.98627727
0.98529631
0.99992871
0.99948974
0.99873298
0.99818755
0.9989195
0.99899778
0.99838241
0.99803622
0.99716219
0.99540195
0.9965639
0.99627394
0.99534793
0.99560378
0.99364111
0.99380231
0.99245416
0.99165578
0.989371
0.99028743
0.99075846
0.9888774
0.98669951
1.0003348
1.0000434
0.99943382
0.99871019
0.99907676
0.99888268
0.99812101
0.99832171
0.99910592
0.99723653
0.99782077
0.99699711
0.9964963
0.99715322
0.99436219
0.99486784
0.99379397
0.99316144
0.99216826
0.99141091
0.99168333
0.991051
0.98914503
0.99914353
1.0005031
1.0005569
1.0001351
1.0002724
0.99978874
0.99880687
0.99879255
1.0004695
0.99889324
0.9985263
0.99768012
0.99699726
0.99768048
0.99546273
0.99620366
0.99555256
0.99529468
0.99583605
0.99339111
0.99324289
0.99333972
0.99155309
0.99915025
1.0006605
1.0008617
1.0013313
1.0017942
1.0002951
0.9992446
0.99930714
1.0006031
0.99928854
0.99867979
0.9980011
0.99788058
0.99938502
0.9975985
0.9970243
0.99668082
0.99733822
0.99755827
0.99522173
0.99466577
0.99427751
0.99266509
0.99965058
1.001513
1.0011295
1.0004383
1.001284
0.99975387
0.99962189
1.000614
1.0001145
0.99938332
0.99895966
0.99879966
0.99955721
1.0004658
0.99867473
0.9974861
0.99692678
0.9984593
0.99699928
0.99580002
0.9959382
0.99634909
0.99547688
0.99972209
1.0018731
1.0009501
0.99934298
1.0007502
0.99987091
0.99975263
1.0017571
1.0001454
0.9994449
0.99968285
0.99927754
1.0001875
0.99953918
0.99832605
0.99851821
0.99750193
0.99951445
0.99730093
0.9973269
0.99758222
0.99810982
0.99768852
0.99947469
1.0009397
1.0000223
0.99865513
1.0008472
0.99970385
0.99881539
1.001868
0.99995826
0.99867383
1.00028
0.99911782
1.0001026
0.99946146
0.99771333
0.99897982
0.99802031
1.000203
0.99846822
0.99833314
0.99825936
0.99867429
0.99821012
0.99938235
0.999933
0.99864151
0.99763568
1.0003575
0.99997745
0.99849855
1.000479
0.99835548
0.99722252
1.0003055
0.99907714
0.99912576
0.99942735
0.99753926
0.99946116
0.99901611
0.99951743
0.99848196
0.99870414
0.99784631
0.99814294
0.99751063
0.99935637
0.99963219
0.9989021
0.99827927
0.99933977
0.99893117
0.99785615
0.99928528
0.99832017
0.99719024
0.99945255
0.99826445
0.99831705
0.99935363
0.99736488
0.99905577
0.99908048
0.99904205
0.99878211
0.99802698
0.99857141
0.99915283
0.99891942
0.99994603
0.99965594
0.99951895
0.9994948
0.99967031
0.99928303
0.99857833
0.99845935
0.99886492
0.99824449
0.99940935
0.99823727
0.99761176
0.99941459
0.99852255
0.99937534
0.99902045
0.99864954
0.99968963
0.99866783
0.99888097
0.99851232
0.99928624
1.0005248
1.0008469
1.0011349
1.000938
1.000554
1.0002388
0.99955348
0.99962121
0.99982329
1.0000246
1.0000756
0.99939607
0.99864822
0.99953202
0.99929021
1.0001635
1.0000488
0.99890359
1.0001394
0.99939731
1.0002432
0.99868211
0.9998336
1.0016917
1.0018413
1.0023247
1.0021082
1.001698
1.0010822
1.0008532
1.0008148
1.0012535
1.0014038
1.0007629
1.00045
1.000379
1.0008178
1.0009059
1.0007294
1.0014265
0.99931935
0.99977994
1.0008005
1.0012571
0.9996268
0.99887397
1.0029779
1.0026958
1.0031299
1.0027643
1.0020027
1.0017431
1.0021926
1.0023765
1.002269
1.002276
1.0014474
1.0016072
1.0023262
1.0022808
1.0015179
1.0010368
1.0019709
1.001785
1.0005561
1.0005598
1.001532
1.0017988
1.0004395
1.0037464
1.0029797
1.0027823
1.0034002
1.0037161
1.003109
1.0025154
1.00269
1.0033122
1.0039365
1.0026413
1.0012703
1.0022169
1.0034761
1.0030611
1.0015682
1.0018138
1.0030977
1.0023292
1.0008548
1.0013912
1.0025446
1.0021287
1.0039875
1.003337
1.0025312
1.0027918
1.0036371
1.0038007
1.0030525
1.0026539
1.0031253
1.0039572
1.0034883
1.0022778
1.0024229
1.0035191
1.0034738
1.0025343
1.0019887
1.0029717
1.0038224
1.0023988
1.0018635
1.002152
1.002146
1.0028201
1.003494
1.0038086
1.0033022
1.0028977
1.0029817
1.0032964
1.0032038
1.0030792
1.0026776
1.0030473
1.0030154
1.0029925
1.0033282
1.0031134
1.002915
1.0028666
1.002926
1.0033014
1.0024668
1.0024233
1.0029423
1.0026253
1.0030165
1.0030883
1.0024628
1.002191
1.0030543
1.0036043
1.003231
1.0024954
1.0019874
1.0026847
1.0036218
1.003146
1.0024237
1.0022545
1.0028936
1.0039628
1.0034266
1.0020058
1.00203
1.0029597
1.0026297
1.0020688
1.0025752
1.0023829
1.002787
1.0021759
1.002083
1.0030454
1.0029764
1.0018986
1.0017706
1.0023717
1.0031946
1.0034777
1.0025267
1.00209
1.0021887
1.00233
1.0023809
1.002264
1.0027517
1.0023837
1.0021024
1.0024901
1.0026061
1.0015753
1.0032576
1.0009486
1.0001111
1.0018804
1.0040528
1.0039106
1.001811
1.0008453
1.0016511
1.002353
1.0023517
1.0017063
1.0016774
1.0022594
1.002239
1.0023149
1.0018986
1.0014619
1.0015697
1.0019118
1.0020707
1.0016482
1.0010939
1.0032919
1.002029
0.99888095
0.99921173
1.0023712
1.0040997
1.0018815
0.9993383
1.0002507
1.0024792
1.0030181
1.0017206
1.0007841
1.0014
1.0011768
1.000165
1.0011537
1.0028392
1.0016598
0.99977652
1.0000805
1.0020217
1.003086
1.0009592
1.0009622
0.9997794
0.99914734
1.0004436
1.002409
1.002069
0.99981585
0.99926302
1.0010799
1.002211
1.0012024
0.9998227
0.99979571
1.0003471
1.0006464
1.0016452
1.0019942
0.99984251
0.99869943
1.0003767
1.0020516
1.0010406
1.0000731
0.99976328
0.9986216
0.99914832
1.0007669
1.0012103
0.99985768
0.9986035
0.99924487
1.0007774
1.0006875
0.99915264
0.99909014
1.0009014
1.0016389
0.99995022
0.99864586
0.99986745
1.0008978
0.99967605
0.99873284
1.0001861
1.0012124
0.99825071
0.9998841
0.99938958
0.99790586
0.99786079
0.99916548
0.99974196
0.99913482
0.99902493
0.99969652
0.99960312
0.99850892
0.99844143
1.0001144
1.0008247
0.99892731
0.99723124
0.99900975
1.0013925
0.9997677
0.99706425
0.99855768
1.0019029
0.99737753
0.99877891
0.99924834
0.99816398
0.99729197
0.998136
0.99936533
0.99899014
0.99772461
0.9978686
0.99918748
0.99928234
0.99796001
0.99750213
0.99872202
0.99971716
0.99894586
0.99790563
0.99853617
0.999338
0.99844561
0.99748447
0.99819925
0.99739721
0.99826396
0.99912615
0.99887597
0.99795794
0.99757473
0.9981694
0.99867728
0.99825055
0.99776775
0.99816572
0.99875204
0.99836317
0.99771856
0.99822493
0.99912695
0.9988228
0.99763637
0.99749634
0.99868579
0.99897031
0.99752078
0.99635249
0.99863999
0.99873486
0.99907088
0.99892397
0.99830723
0.99783993
0.99822985
0.99905194
0.99913467
0.99833446
0.99781534
0.99841052
0.99926966
0.99908227
0.99819215
0.9978919
0.99844777
0.99878431
0.99842211
0.99797275
0.9980414
0.9983593
0.99815933
0.99903839
0.99936744
0.99936885
0.99931538
0.99929661
0.99927269
0.99900472
0.99871766
0.99883175
0.9992005
0.99944734
0.99929713
0.99899604
0.99884809
0.99886726
0.99899925
0.99898079
0.99893641
0.99891572
0.99879063
0.99869158
0.99867586
0.99862051
0.99992671
0.99976061
0.99963344
0.99960251
0.99967834
0.99997713
0.99999174
0.99935535
0.99883456
0.99924687
0.99997666
1.0002858
1.0000573
0.99947186
0.99922632
0.99956961
0.99955667
0.99951653
0.99959603
0.99954273
0.99935327
0.9989885
0.99898396
0.99969937
0.99989882
1.0004697
1.0002963
0.99994339
1.0001286
0.99994636
0.99943552
0.99962149
1.000179
1.0004996
1.0003889
0.99987217
0.99984957
0.9999335
1.0002674
1.0000398
0.99986634
0.99977095
0.9994782
1.0001061
1.000251
1.0004069
1.0000721
1.0001143
1.0002221
1.0001614
1.0004885
1.0006923
0.99999897
0.99961208
0.99982452
1.0000966
1.0005545
1.0005917
1.0004155
1.0004835
1.000288
1.0002085
0.9998565
0.99973352
1.0002751
1.0006579
1.0009999
1.0002694
1.000028
1.0003627
1.000232
1.0004655
1.0003486
1.000489
1.0006572
0.99984893
0.99951643
1.000151
1.0007092
1.0011209
1.0007319
0.99995188
1.0000234
1.0004872
1.0011591
1.0006445
1.0000068
0.99995453
1.0002426
1.0010485
1.0010993
1.0008382
1.0014578