/*--------------------------------*- C++ -*----------------------------------*\
| =========                 |                                                 |
| \\      /  F ield         | OpenFOAM: The Open Source CFD Toolbox           |
|  \\    /   O peration     | Version:  2406                                  |
|   \\  /    A nd           | Website:  www.openfoam.com                      |
|    \\/     M anipulation  |                                                 |
\*---------------------------------------------------------------------------*/
FoamFile
{
    version     2.0;
    format      ascii;
    arch        "LSB;label=32;scalar=64";
    class       volScalarField;
    location    "300";
    object      nut;
}
// * * * * * * * * * * * * * * * * * * * * * * * * * * * * * * * * * * * * * //

dimensions      [0 2 -1 0 0 0 0];

internalField   nonuniform List<scalar> 
132739
(
8.7667692e-07
8.6148048e-07
8.4847491e-07
8.3761227e-07
8.2846828e-07
8.2063853e-07
8.1381855e-07
8.077915e-07
8.0240194e-07
7.9753618e-07
7.9310929e-07
7.8905586e-07
7.8532473e-07
7.8187448e-07
7.7867183e-07
7.7568901e-07
7.7290226e-07
7.7029182e-07
7.6784078e-07
7.6553431e-07
7.6335961e-07
7.6130572e-07
7.5936307e-07
7.5752314e-07
7.5577844e-07
7.5412296e-07
7.5255113e-07
7.5105809e-07
7.4963976e-07
7.4829243e-07
7.4701357e-07
7.4580129e-07
7.4465252e-07
7.4356519e-07
7.4253842e-07
7.4157014e-07
7.4065953e-07
7.3980588e-07
7.3900769e-07
7.3826431e-07
7.3757459e-07
7.369378e-07
7.3635408e-07
7.3582238e-07
7.3534128e-07
7.3491246e-07
7.3453168e-07
7.3418974e-07
7.3387891e-07
7.3358292e-07
7.333203e-07
7.3307881e-07
7.3259392e-07
7.3209081e-07
7.3180519e-07
7.3133017e-07
7.3077248e-07
7.3023505e-07
7.2982728e-07
7.2955142e-07
7.2954946e-07
7.2968458e-07
7.2987732e-07
7.3009793e-07
7.3034458e-07
7.3062412e-07
7.309408e-07
7.3129715e-07
7.3169453e-07
7.321416e-07
7.3264839e-07
7.3323984e-07
7.339553e-07
7.3475171e-07
7.3603026e-07
7.3649273e-07
7.3901816e-07
7.4156682e-07
7.4488717e-07
7.4863758e-07
7.539387e-07
7.6073491e-07
7.6888786e-07
7.7835618e-07
7.8937439e-07
8.0206834e-07
8.1657195e-07
8.3309034e-07
8.519657e-07
8.7377469e-07
8.9966446e-07
9.308214e-07
9.6955344e-07
1.0195148e-06
1.0845845e-06
1.1674048e-06
1.2679204e-06
1.3824763e-06
1.5052259e-06
1.6284427e-06
1.7482608e-06
1.857313e-06
1.9651807e-06
2.0531604e-06
8.7665563e-07
8.6146863e-07
8.4847103e-07
8.3761498e-07
8.2847641e-07
8.2065112e-07
8.1383503e-07
8.0781135e-07
8.0242467e-07
7.9756179e-07
7.9313805e-07
7.8908792e-07
7.8536025e-07
7.8191424e-07
7.7871636e-07
7.7573844e-07
7.7295722e-07
7.7035305e-07
7.6790894e-07
7.6561016e-07
7.6344375e-07
7.6139871e-07
7.594658e-07
7.5763644e-07
7.5590298e-07
7.5425885e-07
7.5269909e-07
7.5121844e-07
7.4981233e-07
7.4847787e-07
7.472117e-07
7.4601116e-07
7.4487393e-07
7.4379772e-07
7.4278116e-07
7.4182292e-07
7.4092126e-07
7.4007466e-07
7.3928262e-07
7.3854426e-07
7.3785843e-07
7.3722491e-07
7.3664265e-07
7.3611152e-07
7.3563023e-07
7.3520194e-07
7.3480363e-07
7.3441462e-07
7.3403095e-07
7.3361967e-07
7.3324666e-07
7.328567e-07
7.3237568e-07
7.3192528e-07
7.3150353e-07
7.3111108e-07
7.3074356e-07
7.3043861e-07
7.3023221e-07
7.301843e-07
7.3038112e-07
7.3080995e-07
7.3128646e-07
7.317645e-07
7.322309e-07
7.3268352e-07
7.3313094e-07
7.3359132e-07
7.340861e-07
7.3463964e-07
7.3527928e-07
7.3603585e-07
7.3694734e-07
7.3806495e-07
7.3937733e-07
7.4078637e-07
7.4242426e-07
7.443394e-07
7.4658922e-07
7.4923147e-07
7.5249493e-07
7.5673639e-07
7.6230937e-07
7.6945028e-07
7.7833858e-07
7.8920617e-07
8.0222562e-07
8.1753275e-07
8.3528204e-07
8.5573906e-07
8.7943022e-07
9.0751526e-07
9.4031826e-07
9.8033509e-07
1.0313392e-06
1.0969526e-06
1.1791518e-06
1.2769583e-06
1.3865285e-06
1.5016213e-06
1.6167116e-06
1.726724e-06
1.8290326e-06
1.9358976e-06
8.7663724e-07
8.6145918e-07
8.4846831e-07
8.3761718e-07
8.2848249e-07
8.2066045e-07
8.1384717e-07
8.0782537e-07
8.0243975e-07
7.9757709e-07
7.9315276e-07
7.8910175e-07
7.8537251e-07
7.8192398e-07
7.7872268e-07
7.7574032e-07
7.729537e-07
7.7034281e-07
7.6789064e-07
7.6558242e-07
7.6340532e-07
7.6134818e-07
7.5940103e-07
7.5755622e-07
7.5580579e-07
7.5414316e-07
7.5256338e-07
7.5106102e-07
7.4963201e-07
7.4827337e-07
7.469812e-07
7.4575306e-07
7.4458726e-07
7.4348114e-07
7.4243307e-07
7.4144205e-07
7.4050668e-07
7.396252e-07
7.387971e-07
7.3802215e-07
7.3729876e-07
7.3662702e-07
7.3600572e-07
7.3543487e-07
7.3491373e-07
7.3444009e-07
7.3401526e-07
7.3363836e-07
7.3332175e-07
7.3299348e-07
7.3274585e-07
7.3260023e-07
7.321783e-07
7.3187057e-07
7.3166196e-07
7.3148331e-07
7.3133499e-07
7.3119254e-07
7.3109719e-07
7.310779e-07
7.3127714e-07
7.3149705e-07
7.3170093e-07
7.3188374e-07
7.3204962e-07
7.3220678e-07
7.3236495e-07
7.3253818e-07
7.3274499e-07
7.3300407e-07
7.3333986e-07
7.3377994e-07
7.3435232e-07
7.3510639e-07
7.3606895e-07
7.3768281e-07
7.3959882e-07
7.4159939e-07
7.4416204e-07
7.4738747e-07
7.5117207e-07
7.5551932e-07
7.6052941e-07
7.6641058e-07
7.7339556e-07
7.8177281e-07
7.9185797e-07
8.039649e-07
8.1839813e-07
8.354835e-07
8.5559092e-07
8.7944654e-07
9.0788345e-07
9.4193357e-07
9.8344949e-07
1.0357192e-06
1.1017914e-06
1.1829559e-06
1.2778125e-06
1.3823477e-06
1.4907842e-06
1.5993487e-06
1.697973e-06
1.8109279e-06
8.7662225e-07
8.6145223e-07
8.4846818e-07
8.376227e-07
8.2849246e-07
8.2067436e-07
8.1386401e-07
8.0784435e-07
8.0246075e-07
7.9760016e-07
7.9317788e-07
7.8912868e-07
7.8540134e-07
7.8195498e-07
7.7875604e-07
7.7577626e-07
7.7299276e-07
7.7038558e-07
7.6793731e-07
7.6563337e-07
7.6346104e-07
7.6140943e-07
7.5946884e-07
7.5763126e-07
7.5588875e-07
7.5423487e-07
7.5266463e-07
7.5117281e-07
7.4975558e-07
7.4840938e-07
7.4713022e-07
7.4591627e-07
7.447652e-07
7.4367426e-07
7.4264244e-07
7.4166805e-07
7.4074974e-07
7.3988643e-07
7.3907715e-07
7.383212e-07
7.3761758e-07
7.3696659e-07
7.3636631e-07
7.3581588e-07
7.353154e-07
7.348633e-07
7.3445852e-07
7.3409887e-07
7.3378237e-07
7.335207e-07
7.3327228e-07
7.3306941e-07
7.3298301e-07
7.3286863e-07
7.3276692e-07
7.3272436e-07
7.327327e-07
7.3276516e-07
7.3281052e-07
7.3287399e-07
7.3292592e-07
7.3297421e-07
7.3302363e-07
7.330789e-07
7.3314148e-07
7.3321148e-07
7.332941e-07
7.3339898e-07
7.3354081e-07
7.3373818e-07
7.3401288e-07
7.3439209e-07
7.3490666e-07
7.3559988e-07
7.3645047e-07
7.3752445e-07
7.388639e-07
7.406836e-07
7.426477e-07
7.452467e-07
7.4852492e-07
7.5255288e-07
7.5738634e-07
7.6307973e-07
7.6970112e-07
7.7734852e-07
7.8616604e-07
7.9635328e-07
8.0817326e-07
8.2196829e-07
8.3816086e-07
8.5730732e-07
8.8028584e-07
9.0797449e-07
9.4125706e-07
9.8262458e-07
1.0351053e-06
1.1011289e-06
1.1812521e-06
1.2736993e-06
1.3737265e-06
1.4783074e-06
1.5750944e-06
1.687658e-06
8.7660956e-07
8.6144803e-07
8.4847123e-07
8.3763153e-07
8.285057e-07
8.206905e-07
8.1388212e-07
8.0786381e-07
8.0248118e-07
7.9762119e-07
7.9319917e-07
7.8915023e-07
7.8542292e-07
7.8197605e-07
7.7877584e-07
7.7579449e-07
7.7300903e-07
7.7039919e-07
7.6794798e-07
7.6564036e-07
7.6346364e-07
7.6140735e-07
7.5946118e-07
7.5761678e-07
7.5586721e-07
7.542061e-07
7.5262769e-07
7.5112702e-07
7.4970026e-07
7.4834345e-07
7.470537e-07
7.4582862e-07
7.4466511e-07
7.4356171e-07
7.4251668e-07
7.4152837e-07
7.4059602e-07
7.3971786e-07
7.3889299e-07
7.3812042e-07
7.3739969e-07
7.3673097e-07
7.3611196e-07
7.3554244e-07
7.3502187e-07
7.345486e-07
7.3412306e-07
7.337438e-07
7.3341072e-07
7.331181e-07
7.3287085e-07
7.3265739e-07
7.3247836e-07
7.3233854e-07
7.3222566e-07
7.3214891e-07
7.3210557e-07
7.3208161e-07
7.3206271e-07
7.3204873e-07
7.320439e-07
7.3203948e-07
7.3203355e-07
7.3202762e-07
7.3202092e-07
7.320143e-07
7.3201269e-07
7.3202431e-07
7.3206037e-07
7.3213683e-07
7.3227312e-07
7.3249106e-07
7.3281755e-07
7.3328777e-07
7.3396558e-07
7.3489037e-07
7.3618066e-07
7.3777144e-07
7.3979396e-07
7.4229778e-07
7.4535906e-07
7.4907159e-07
7.5353891e-07
7.5886252e-07
7.6513165e-07
7.7241671e-07
7.807758e-07
7.9027031e-07
8.0098754e-07
8.1308111e-07
8.2680994e-07
8.4256568e-07
8.6091053e-07
8.829801e-07
9.0887249e-07
9.4038979e-07
9.8031106e-07
1.0315943e-06
1.096226e-06
1.1744681e-06
1.2634275e-06
1.3610022e-06
1.4549925e-06
1.5667177e-06
8.7660038e-07
8.6144857e-07
8.4847951e-07
8.3764526e-07
8.2852289e-07
8.2070977e-07
8.1390288e-07
8.078858e-07
8.0250399e-07
7.9764475e-07
7.932235e-07
7.8917527e-07
7.8544872e-07
7.820027e-07
7.7880351e-07
7.758232e-07
7.7303875e-07
7.7042971e-07
7.6797948e-07
7.6567336e-07
7.6349812e-07
7.6144293e-07
7.5949816e-07
7.5765563e-07
7.5590855e-07
7.5424983e-07
7.5267411e-07
7.5117671e-07
7.4975334e-07
7.4840051e-07
7.4711485e-07
7.4589452e-07
7.4473664e-07
7.4363881e-07
7.4259978e-07
7.4161733e-07
7.4069045e-07
7.398177e-07
7.3899856e-07
7.3823261e-07
7.3751776e-07
7.3685416e-07
7.3624112e-07
7.3567758e-07
7.3516299e-07
7.3469636e-07
7.3427697e-07
7.3390249e-07
7.3357218e-07
7.3328638e-07
7.3303265e-07
7.3282738e-07
7.3267042e-07
7.325323e-07
7.3241714e-07
7.3234001e-07
7.3229761e-07
7.3227288e-07
7.3225511e-07
7.3224491e-07
7.32234e-07
7.3221755e-07
7.321963e-07
7.3217316e-07
7.3214648e-07
7.3211521e-07
7.3208427e-07
7.3206131e-07
7.3205721e-07
7.3208625e-07
7.3216665e-07
7.3232093e-07
7.3257695e-07
7.3296381e-07
7.334934e-07
7.3419789e-07
7.3513926e-07
7.3636413e-07
7.3795615e-07
7.3999967e-07
7.4258177e-07
7.4579349e-07
7.49731e-07
7.5449634e-07
7.601933e-07
7.669163e-07
7.7473755e-07
7.8370944e-07
7.9386993e-07
8.0525641e-07
8.1794976e-07
8.3212383e-07
8.4803432e-07
8.6638283e-07
8.8747046e-07
9.1183808e-07
9.4153192e-07
9.7936916e-07
1.0281137e-06
1.0897309e-06
1.1636131e-06
1.2494548e-06
1.336226e-06
1.4451336e-06
8.7659719e-07
8.614536e-07
8.4849055e-07
8.3766046e-07
8.2854107e-07
8.2073e-07
8.1392462e-07
8.0790849e-07
8.0252712e-07
7.9766811e-07
7.9324717e-07
7.8919907e-07
7.8547262e-07
7.8202644e-07
7.7882709e-07
7.7584643e-07
7.7306119e-07
7.7045155e-07
7.6800021e-07
7.6569233e-07
7.6351517e-07
7.6145768e-07
7.5951048e-07
7.5766505e-07
7.5591424e-07
7.5425186e-07
7.5267223e-07
7.5117091e-07
7.4974355e-07
7.483864e-07
7.4709615e-07
7.4587091e-07
7.4470774e-07
7.4360382e-07
7.4255861e-07
7.4156996e-07
7.4063627e-07
7.3975614e-07
7.3892953e-07
7.3815549e-07
7.3743243e-07
7.3676105e-07
7.3613995e-07
7.3556752e-07
7.3504417e-07
7.3456745e-07
7.3413747e-07
7.3375302e-07
7.3341205e-07
7.331151e-07
7.3285617e-07
7.3263575e-07
7.3245514e-07
7.3230401e-07
7.3217877e-07
7.3208342e-07
7.3201601e-07
7.3196487e-07
7.3192142e-07
7.3188082e-07
7.318375e-07
7.3178878e-07
7.3173147e-07
7.3166538e-07
7.3159057e-07
7.3150663e-07
7.3141619e-07
7.3132669e-07
7.3124735e-07
7.3118965e-07
7.3117052e-07
7.3121008e-07
7.3133184e-07
7.3156693e-07
7.3195463e-07
7.3253556e-07
7.3335458e-07
7.3446129e-07
7.3590953e-07
7.3776166e-07
7.4008798e-07
7.4296762e-07
7.4648855e-07
7.5074654e-07
7.5584468e-07
7.6188843e-07
7.6897468e-07
7.7718896e-07
7.866072e-07
7.9729383e-07
8.0930938e-07
8.2273697e-07
8.3770943e-07
8.5445667e-07
8.735981e-07
8.9455273e-07
9.1832678e-07
9.4686435e-07
9.8263054e-07
1.0282305e-06
1.0848044e-06
1.1542513e-06
1.2278219e-06
1.3272624e-06
8.7659725e-07
8.6146102e-07
8.485036e-07
8.376773e-07
8.2856083e-07
8.2075178e-07
8.1394733e-07
8.0793181e-07
8.0255105e-07
7.9769249e-07
7.9327165e-07
7.8922393e-07
7.8549781e-07
7.8205199e-07
7.7885279e-07
7.7587226e-07
7.730872e-07
7.7047771e-07
7.6802652e-07
7.6571866e-07
7.635416e-07
7.6148406e-07
7.5953673e-07
7.5769125e-07
7.5594037e-07
7.542781e-07
7.52699e-07
7.5119821e-07
7.4977119e-07
7.4841439e-07
7.4712498e-07
7.4590035e-07
7.4473775e-07
7.4363494e-07
7.4259076e-07
7.416028e-07
7.4066975e-07
7.3979055e-07
7.3896499e-07
7.3819156e-07
7.3746968e-07
7.3679851e-07
7.3617709e-07
7.3560512e-07
7.3508148e-07
7.3460534e-07
7.3417589e-07
7.3379121e-07
7.3344963e-07
7.3315102e-07
7.3288897e-07
7.3266703e-07
7.3248535e-07
7.3233139e-07
7.3220222e-07
7.321022e-07
7.3202962e-07
7.319718e-07
7.3191819e-07
7.3186583e-07
7.3180938e-07
7.3174478e-07
7.3166995e-07
7.3158483e-07
7.3148708e-07
7.3137668e-07
7.3125658e-07
7.3113092e-07
7.310099e-07
7.3090491e-07
7.3083049e-07
7.3080609e-07
7.3085584e-07
7.3100384e-07
7.312696e-07
7.3168663e-07
7.322999e-07
7.3316125e-07
7.3433048e-07
7.3587692e-07
7.378748e-07
7.4040086e-07
7.4353433e-07
7.4735731e-07
7.5195516e-07
7.5741592e-07
7.6382637e-07
7.7127184e-07
7.7984403e-07
7.8964582e-07
8.0079122e-07
8.1340778e-07
8.2765756e-07
8.4369372e-07
8.6194557e-07
8.8218215e-07
9.0418481e-07
9.2878201e-07
9.5740326e-07
9.9205417e-07
1.0342227e-06
1.0869107e-06
1.1443033e-06
1.226408e-06
8.7659881e-07
8.6146938e-07
8.4851724e-07
8.3769475e-07
8.2858047e-07
8.2077264e-07
8.1396944e-07
8.0795484e-07
8.0257474e-07
7.9771683e-07
7.9329645e-07
7.8924894e-07
7.8552283e-07
7.8207679e-07
7.788773e-07
7.7589655e-07
7.7311099e-07
7.7050077e-07
7.6804879e-07
7.6574006e-07
7.6356176e-07
7.61503e-07
7.5955436e-07
7.5770714e-07
7.5595446e-07
7.5429012e-07
7.5270876e-07
7.5120539e-07
7.4977569e-07
7.4841642e-07
7.4712441e-07
7.4589683e-07
7.4473068e-07
7.4362482e-07
7.4257675e-07
7.4158463e-07
7.4064854e-07
7.3976586e-07
7.3893642e-07
7.3815902e-07
7.3743214e-07
7.3675648e-07
7.3612998e-07
7.355529e-07
7.3502399e-07
7.3454163e-07
7.3410628e-07
7.3371557e-07
7.3336756e-07
7.3306137e-07
7.3279207e-07
7.3256141e-07
7.3236898e-07
7.3220579e-07
7.3206794e-07
7.3195616e-07
7.3186626e-07
7.3179028e-07
7.3171929e-07
7.3164815e-07
7.3157092e-07
7.3148313e-07
7.3138233e-07
7.3126727e-07
7.3113614e-07
7.309881e-07
7.308258e-07
7.3065303e-07
7.304775e-07
7.3030983e-07
7.301631e-07
7.3005521e-07
7.3000778e-07
7.3004592e-07
7.30199e-07
7.3050091e-07
7.30993e-07
7.3172265e-07
7.3273924e-07
7.3409985e-07
7.3587041e-07
7.3812231e-07
7.4093154e-07
7.4437657e-07
7.4853713e-07
7.534925e-07
7.5931922e-07
7.660913e-07
7.7389047e-07
7.8282095e-07
7.9301767e-07
8.0465226e-07
8.1794553e-07
8.3315977e-07
8.5059289e-07
8.7072855e-07
8.9270141e-07
9.1669987e-07
9.4325004e-07
9.7329908e-07
1.007622e-06
1.0486504e-06
1.0929507e-06
1.1553543e-06
8.7660157e-07
8.6147865e-07
8.4853149e-07
8.3771223e-07
8.2860016e-07
8.2079417e-07
8.1399208e-07
8.0797838e-07
8.0259879e-07
7.9774095e-07
7.9332069e-07
7.8927316e-07
7.8554722e-07
7.8210135e-07
7.7890186e-07
7.7592093e-07
7.7313517e-07
7.7052475e-07
7.6807244e-07
7.6576325e-07
7.6358444e-07
7.6152497e-07
7.5957546e-07
7.577274e-07
7.5597388e-07
7.5430883e-07
7.5272678e-07
7.5122245e-07
7.4979195e-07
7.4843192e-07
7.4713879e-07
7.4590986e-07
7.447428e-07
7.4363595e-07
7.4258709e-07
7.415946e-07
7.4065751e-07
7.3977363e-07
7.3894292e-07
7.3816415e-07
7.374361e-07
7.3675915e-07
7.3613107e-07
7.3555227e-07
7.3502122e-07
7.3453689e-07
7.3409894e-07
7.337047e-07
7.3335352e-07
7.3304407e-07
7.3277124e-07
7.3253633e-07
7.3233904e-07
7.3217166e-07
7.3202913e-07
7.3191072e-07
7.3181206e-07
7.3172616e-07
7.3164436e-07
7.3156003e-07
7.3146875e-07
7.3136601e-07
7.3124894e-07
7.3111505e-07
7.309618e-07
7.3078898e-07
7.3059763e-07
7.3039135e-07
7.3017749e-07
7.2996523e-07
7.2976734e-07
7.2960077e-07
7.2948649e-07
7.2944381e-07
7.2949522e-07
7.2967212e-07
7.3001294e-07
7.3056517e-07
7.3138063e-07
7.3251838e-07
7.3404367e-07
7.3602473e-07
7.3853187e-07
7.4163645e-07
7.4541131e-07
7.4992824e-07
7.5525584e-07
7.6145921e-07
7.6860892e-07
7.7679768e-07
7.8615386e-07
7.9685336e-07
8.0913482e-07
8.233203e-07
8.3976139e-07
8.5904418e-07
8.809648e-07
9.0523194e-07
9.3194726e-07
9.6135303e-07
9.9347267e-07
1.0294388e-06
1.0671657e-06
1.1150683e-06
8.7660454e-07
8.6148828e-07
8.4854607e-07
8.377302e-07
8.2862043e-07
8.2081606e-07
8.1401503e-07
8.0800183e-07
8.0262245e-07
7.9776487e-07
7.9334498e-07
7.8929744e-07
7.8557119e-07
7.8212512e-07
7.7892544e-07
7.7594427e-07
7.7315834e-07
7.7054742e-07
7.6809446e-07
7.6578456e-07
7.6360489e-07
7.6154445e-07
7.5959359e-07
7.5774413e-07
7.5598912e-07
7.5432217e-07
7.5273813e-07
7.5123199e-07
7.497995e-07
7.4843696e-07
7.4714151e-07
7.4591059e-07
7.4474147e-07
7.4363221e-07
7.4258073e-07
7.4158538e-07
7.4064551e-07
7.39759e-07
7.3892537e-07
7.3814363e-07
7.3741233e-07
7.3673222e-07
7.3610078e-07
7.3551793e-07
7.3498255e-07
7.3449361e-07
7.3405092e-07
7.336516e-07
7.3329516e-07
7.3298009e-07
7.3270161e-07
7.3246059e-07
7.3225645e-07
7.3208217e-07
7.3193276e-07
7.3180493e-07
7.3169408e-07
7.3159501e-07
7.3149955e-07
7.3140023e-07
7.3129234e-07
7.3117189e-07
7.310346e-07
7.3087804e-07
7.3069954e-07
7.3049746e-07
7.3027358e-07
7.3003118e-07
7.2977524e-07
7.2951395e-07
7.2926008e-07
7.2902875e-07
7.2883959e-07
7.2871324e-07
7.2867259e-07
7.2874923e-07
7.2898085e-07
7.2940922e-07
7.3008259e-07
7.3105403e-07
7.3238298e-07
7.3413491e-07
7.3637602e-07
7.3917386e-07
7.4259656e-07
7.4671168e-07
7.515844e-07
7.5727705e-07
7.6385651e-07
7.7140982e-07
7.8005794e-07
7.8996788e-07
8.013684e-07
8.1457349e-07
8.299869e-07
8.4809263e-07
8.6945888e-07
8.9352198e-07
9.2035097e-07
9.5003122e-07
9.8230762e-07
1.0173296e-06
1.0535777e-06
1.0948033e-06
8.7660695e-07
8.6149834e-07
8.4856107e-07
8.3774849e-07
8.286409e-07
8.2083794e-07
8.1403779e-07
8.0802509e-07
8.0264608e-07
7.9778883e-07
7.9336916e-07
7.8932172e-07
7.8559543e-07
7.8214911e-07
7.7894906e-07
7.7596756e-07
7.7318108e-07
7.7056965e-07
7.6811637e-07
7.6580585e-07
7.6362512e-07
7.6156365e-07
7.596117e-07
7.5776083e-07
7.5600459e-07
7.5433629e-07
7.5275046e-07
7.5124274e-07
7.4980896e-07
7.484451e-07
7.4714842e-07
7.4591591e-07
7.44745e-07
7.436333e-07
7.4257985e-07
7.4158334e-07
7.4064163e-07
7.3975376e-07
7.3891852e-07
7.3813478e-07
7.3740085e-07
7.3671824e-07
7.3608453e-07
7.3549901e-07
7.34961e-07
7.3446886e-07
7.3402269e-07
7.336196e-07
7.3325911e-07
7.3294019e-07
7.3265782e-07
7.324124e-07
7.3220323e-07
7.3202371e-07
7.3186792e-07
7.317318e-07
7.3161179e-07
7.3150203e-07
7.3139464e-07
7.312835e-07
7.3116262e-07
7.31028e-07
7.3087608e-07
7.3070206e-07
7.3050321e-07
7.3027886e-07
7.3002974e-07
7.2975789e-07
7.2946767e-07
7.2916707e-07
7.28868e-07
7.2858455e-07
7.2833594e-07
7.2813939e-07
7.2801403e-07
7.2798997e-07
7.2810457e-07
7.2839813e-07
7.2891805e-07
7.2971816e-07
7.3085619e-07
7.3239278e-07
7.3438986e-07
7.3691008e-07
7.4001678e-07
7.437721e-07
7.4823647e-07
7.5346977e-07
7.595389e-07
7.6653186e-07
7.7457017e-07
7.8381804e-07
7.9449446e-07
8.0689317e-07
8.2140932e-07
8.3848699e-07
8.5883341e-07
8.8225548e-07
9.0868712e-07
9.3823716e-07
9.7070288e-07
1.0058809e-06
1.0424719e-06
1.0822184e-06
8.7661012e-07
8.6150812e-07
8.4857609e-07
8.3776707e-07
8.2866171e-07
8.2086006e-07
8.1406065e-07
8.0804843e-07
8.0266984e-07
7.978127e-07
7.9339284e-07
7.8934526e-07
7.8561873e-07
7.8217213e-07
7.789718e-07
7.7598984e-07
7.7320283e-07
7.7059063e-07
7.6813644e-07
7.658251e-07
7.636435e-07
7.6158065e-07
7.5962719e-07
7.5777491e-07
7.5601699e-07
7.5434696e-07
7.5275913e-07
7.5124919e-07
7.4981322e-07
7.4844743e-07
7.4714889e-07
7.4591438e-07
7.4474113e-07
7.4362767e-07
7.4257229e-07
7.4157373e-07
7.4062922e-07
7.3973826e-07
7.3889995e-07
7.381134e-07
7.3737725e-07
7.366915e-07
7.3605442e-07
7.35465e-07
7.3492348e-07
7.3442742e-07
7.3397644e-07
7.3356909e-07
7.3320398e-07
7.3287983e-07
7.3259276e-07
7.3234213e-07
7.3212698e-07
7.3194124e-07
7.3177794e-07
7.3163252e-07
7.3150192e-07
7.313812e-07
7.3126232e-07
7.311378e-07
7.3100301e-07
7.3085335e-07
7.306844e-07
7.3049205e-07
7.3027343e-07
7.3002663e-07
7.2975099e-07
7.2944929e-07
7.2912588e-07
7.2878725e-07
7.2844436e-07
7.2811009e-07
7.2780261e-07
7.27539e-07
7.2733923e-07
7.2723185e-07
7.2725101e-07
7.2743696e-07
7.2783456e-07
7.2849287e-07
7.294663e-07
7.3081235e-07
7.3258955e-07
7.3485719e-07
7.37675e-07
7.4110185e-07
7.4519463e-07
7.5001119e-07
7.5561919e-07
7.621099e-07
7.6960989e-07
7.7828673e-07
7.8835718e-07
8.0010408e-07
8.1389716e-07
8.3018506e-07
8.4952335e-07
8.722823e-07
8.9811814e-07
9.2711823e-07
9.591904e-07
9.9416336e-07
1.0308648e-06
1.0706883e-06
8.7661381e-07
8.6151846e-07
8.4859166e-07
8.3778596e-07
8.2868263e-07
8.2088221e-07
8.1408357e-07
8.0807181e-07
8.0269331e-07
7.9783614e-07
7.9341612e-07
7.8936826e-07
7.8564156e-07
7.8219465e-07
7.7899387e-07
7.760113e-07
7.7322356e-07
7.7061086e-07
7.6815558e-07
7.6584285e-07
7.6365988e-07
7.6159578e-07
7.596411e-07
7.5778742e-07
7.5602763e-07
7.5435568e-07
7.5276619e-07
7.5125461e-07
7.4981691e-07
7.4844895e-07
7.4714821e-07
7.4591177e-07
7.4473641e-07
7.4362098e-07
7.4256334e-07
7.4156228e-07
7.4061528e-07
7.3972192e-07
7.3888128e-07
7.3809209e-07
7.3735371e-07
7.3666476e-07
7.3602446e-07
7.3543183e-07
7.3488679e-07
7.3438672e-07
7.3393178e-07
7.3352027e-07
7.3315082e-07
7.3282273e-07
7.3253208e-07
7.3227736e-07
7.3205625e-07
7.3186361e-07
7.3169217e-07
7.315377e-07
7.3139814e-07
7.3126735e-07
7.3113708e-07
7.3100113e-07
7.3085408e-07
7.3069105e-07
7.3050807e-07
7.3029993e-07
7.3006297e-07
7.2979608e-07
7.2949872e-07
7.2917161e-07
7.2881875e-07
7.2844691e-07
7.28066e-07
7.276888e-07
7.2733186e-07
7.2700957e-07
7.2674205e-07
7.2655576e-07
7.2648444e-07
7.2656691e-07
7.2684508e-07
7.2736776e-07
7.281873e-07
7.2935754e-07
7.3093333e-07
7.3297035e-07
7.3552551e-07
7.386543e-07
7.4241054e-07
7.468513e-07
7.52047e-07
7.5809406e-07
7.6512454e-07
7.733099e-07
7.8286805e-07
7.9407814e-07
8.0729673e-07
8.2297024e-07
8.4155974e-07
8.6373603e-07
8.8903872e-07
9.1745964e-07
9.4893035e-07
9.8334726e-07
1.0196368e-06
1.0592154e-06
8.7661788e-07
8.6152839e-07
8.4860667e-07
8.3780454e-07
8.2870341e-07
8.2090408e-07
8.1410598e-07
8.0809457e-07
8.0271617e-07
7.9785893e-07
7.9343874e-07
7.8939066e-07
7.8566355e-07
7.8221621e-07
7.7901491e-07
7.7603173e-07
7.7324335e-07
7.7062964e-07
7.6817329e-07
7.6585951e-07
7.6367522e-07
7.6160953e-07
7.5965305e-07
7.5779743e-07
7.560357e-07
7.5436175e-07
7.5277016e-07
7.5125607e-07
7.4981601e-07
7.4844588e-07
7.4714253e-07
7.4590361e-07
7.4472601e-07
7.4360848e-07
7.4254829e-07
7.4154452e-07
7.4059509e-07
7.3969927e-07
7.3885582e-07
7.380632e-07
7.3732165e-07
7.3662869e-07
7.3598412e-07
7.3538757e-07
7.3483851e-07
7.3433421e-07
7.3387442e-07
7.3345895e-07
7.3308484e-07
7.3275157e-07
7.3245659e-07
7.3219629e-07
7.3196834e-07
7.3176798e-07
7.3158807e-07
7.3142428e-07
7.3127365e-07
7.3113138e-07
7.3098959e-07
7.3084111e-07
7.3068173e-07
7.3050614e-07
7.3030864e-07
7.300844e-07
7.2983027e-07
7.2954473e-07
7.2922553e-07
7.288739e-07
7.2849452e-07
7.2809213e-07
7.2767571e-07
7.2725768e-07
7.2685417e-07
7.2647875e-07
7.2615113e-07
7.2589722e-07
7.2574866e-07
7.2574374e-07
7.2592288e-07
7.2633109e-07
7.2701694e-07
7.2803053e-07
7.2942407e-07
7.3125095e-07
7.3356562e-07
7.3642118e-07
7.3986945e-07
7.4396845e-07
7.487943e-07
7.5445096e-07
7.6107678e-07
7.6884631e-07
7.7797831e-07
7.8875099e-07
8.0151819e-07
8.1671643e-07
8.3480537e-07
8.5638616e-07
8.81378e-07
9.0946735e-07
9.4052245e-07
9.7442217e-07
1.0101868e-06
1.049021e-06
8.7662345e-07
8.615387e-07
8.4862147e-07
8.3782279e-07
8.2872396e-07
8.2092592e-07
8.141283e-07
8.0811699e-07
8.0273853e-07
7.9788122e-07
7.9346078e-07
7.8941235e-07
7.8568476e-07
7.8223683e-07
7.7903476e-07
7.7605081e-07
7.7326157e-07
7.7064679e-07
7.6818914e-07
7.6587384e-07
7.636882e-07
7.6162084e-07
7.5966247e-07
7.5780472e-07
7.5604091e-07
7.5436488e-07
7.5277081e-07
7.5125426e-07
7.4981189e-07
7.4843953e-07
7.4713377e-07
7.4589247e-07
7.4471225e-07
7.4359193e-07
7.4252899e-07
7.4152224e-07
7.4056996e-07
7.3967063e-07
7.3882395e-07
7.3802814e-07
7.3728289e-07
7.3658624e-07
7.3593765e-07
7.3533659e-07
7.3478298e-07
7.342745e-07
7.338097e-07
7.3338958e-07
7.3301102e-07
7.3267242e-07
7.323722e-07
7.3210527e-07
7.3186929e-07
7.3165959e-07
7.314697e-07
7.3129583e-07
7.3113388e-07
7.3097986e-07
7.3082682e-07
7.3066699e-07
7.304953e-07
7.3030685e-07
7.3009602e-07
7.298575e-07
7.2958775e-07
7.2928453e-07
7.2894593e-07
7.2857291e-07
7.2816902e-07
7.2774006e-07
7.272934e-07
7.2684009e-07
7.2639744e-07
7.2597588e-07
7.2559406e-07
7.252787e-07
7.2506019e-07
7.2497578e-07
7.2506412e-07
7.2536748e-07
7.2593243e-07
7.2680611e-07
7.2803658e-07
7.2967469e-07
7.3177373e-07
7.3438422e-07
7.3755582e-07
7.4134956e-07
7.4584934e-07
7.511691e-07
7.5745339e-07
7.6487948e-07
7.7366765e-07
7.8409832e-07
7.9652747e-07
8.113849e-07
8.2915184e-07
8.5030681e-07
8.7519352e-07
9.0320731e-07
9.3411109e-07
9.6770895e-07
1.0031364e-06
1.0411412e-06
8.7662883e-07
8.6154871e-07
8.4863554e-07
8.3784002e-07
8.287434e-07
8.2094666e-07
8.1414983e-07
8.0813874e-07
8.0276005e-07
7.9790253e-07
7.9348183e-07
7.89433e-07
7.8570485e-07
7.8225602e-07
7.7905317e-07
7.760682e-07
7.7327759e-07
7.7066142e-07
7.6820248e-07
7.6588545e-07
7.6369789e-07
7.6162871e-07
7.5966825e-07
7.5780845e-07
7.5604224e-07
7.5436368e-07
7.5276732e-07
7.5124824e-07
7.4980301e-07
7.4842794e-07
7.4711904e-07
7.4587459e-07
7.4469162e-07
7.4356784e-07
7.4250152e-07
7.4149182e-07
7.405363e-07
7.3963307e-07
7.3878278e-07
7.3798281e-07
7.3723261e-07
7.3653171e-07
7.3587902e-07
7.352732e-07
7.3471383e-07
7.341999e-07
7.337296e-07
7.333033e-07
7.3291865e-07
7.3257386e-07
7.3226724e-07
7.3199231e-07
7.3174604e-07
7.3152554e-07
7.3132462e-07
7.3113888e-07
7.3096482e-07
7.3079847e-07
7.3063247e-07
7.3046013e-07
7.302758e-07
7.3007359e-07
7.298487e-07
7.2959604e-07
7.2931112e-07
7.2899131e-07
7.2863454e-07
7.2824184e-07
7.2781646e-07
7.2736277e-07
7.2688863e-07
7.2640399e-07
7.25925e-07
7.2546355e-07
7.2503657e-07
7.2467025e-07
7.243946e-07
7.2424362e-07
7.2425461e-07
7.2446782e-07
7.2492666e-07
7.2567529e-07
7.2676022e-07
7.2823174e-07
7.3013986e-07
7.3253001e-07
7.3545259e-07
7.3897874e-07
7.4320486e-07
7.4825133e-07
7.542631e-07
7.6141904e-07
7.6994426e-07
7.8012711e-07
7.9233226e-07
8.069922e-07
8.2459583e-07
8.4555992e-07
8.704574e-07
8.9858426e-07
9.2957716e-07
9.6314468e-07
9.9852996e-07
1.035924e-06
8.7663583e-07
8.6155929e-07
8.4864928e-07
8.3785662e-07
8.287623e-07
8.2096693e-07
8.1417058e-07
8.0815945e-07
8.0278063e-07
7.9792248e-07
7.9350119e-07
7.8945172e-07
7.8572278e-07
7.8227317e-07
7.790692e-07
7.760831e-07
7.7329119e-07
7.7067332e-07
7.6821237e-07
7.6589359e-07
7.6370403e-07
7.6163271e-07
7.5967003e-07
7.5780772e-07
7.5603904e-07
7.5435741e-07
7.5275793e-07
7.5123595e-07
7.4978729e-07
7.4840889e-07
7.4709674e-07
7.4584902e-07
7.4466265e-07
7.4353524e-07
7.4246557e-07
7.4145163e-07
7.4049161e-07
7.3958397e-07
7.3872891e-07
7.3792404e-07
7.371682e-07
7.3646193e-07
7.3580347e-07
7.3519134e-07
7.3462573e-07
7.3410554e-07
7.3362904e-07
7.331963e-07
7.3280477e-07
7.3245233e-07
7.3213622e-07
7.3185132e-07
7.3159368e-07
7.313598e-07
7.3114536e-07
7.3094634e-07
7.3075874e-07
7.3057837e-07
7.3039857e-07
7.3021242e-07
7.3001409e-07
7.2979787e-07
7.2955896e-07
7.2929138e-07
7.2899093e-07
7.2865517e-07
7.2828154e-07
7.2787077e-07
7.2742539e-07
7.2695013e-07
7.2645255e-07
7.2594151e-07
7.2543281e-07
7.2493787e-07
7.2447381e-07
7.2406571e-07
7.2374204e-07
7.2353503e-07
7.2348014e-07
7.2361558e-07
7.23983e-07
7.2462366e-07
7.2558176e-07
7.2690685e-07
7.2864723e-07
7.3084452e-07
7.3355391e-07
7.3686052e-07
7.4087131e-07
7.4570849e-07
7.5151708e-07
7.584791e-07
7.6682793e-07
7.7686634e-07
7.8897444e-07
8.0359572e-07
8.2121518e-07
8.4224234e-07
8.6720392e-07
8.9564999e-07
9.2697524e-07
9.607754e-07
9.9638557e-07
1.0334272e-06
8.7664284e-07
8.6156983e-07
8.4866255e-07
8.3787212e-07
8.2877968e-07
8.2098577e-07
8.1419017e-07
8.0817911e-07
8.0279986e-07
7.9794114e-07
7.9351914e-07
7.8946873e-07
7.857388e-07
7.8228813e-07
7.7908287e-07
7.7609522e-07
7.7330176e-07
7.7068235e-07
7.6821949e-07
7.6589842e-07
7.6370634e-07
7.616322e-07
7.5966662e-07
7.5780143e-07
7.5602936e-07
7.543445e-07
7.5274182e-07
7.5121622e-07
7.4976376e-07
7.4838132e-07
7.4706529e-07
7.4581291e-07
7.4462217e-07
7.4349027e-07
7.4241536e-07
7.4139629e-07
7.4043088e-07
7.395181e-07
7.3865672e-07
7.3784557e-07
7.3708333e-07
7.3636975e-07
7.3570449e-07
7.350853e-07
7.3451177e-07
7.3398375e-07
7.3349885e-07
7.3305735e-07
7.3265634e-07
7.3229294e-07
7.3196478e-07
7.316663e-07
7.3139374e-07
7.3114378e-07
7.3091261e-07
7.306968e-07
7.3049293e-07
7.3029601e-07
7.3009998e-07
7.2989808e-07
7.2968424e-07
7.2945262e-07
7.2919766e-07
7.2891414e-07
7.2859776e-07
7.2824561e-07
7.2785556e-07
7.2742802e-07
7.2696509e-07
7.2647133e-07
7.2595371e-07
7.2542133e-07
7.248893e-07
7.2436897e-07
7.2387717e-07
7.2343848e-07
7.2307947e-07
7.2283035e-07
7.2272398e-07
7.2279821e-07
7.2309079e-07
7.2364028e-07
7.2449754e-07
7.2570336e-07
7.2728669e-07
7.293069e-07
7.3185842e-07
7.3503047e-07
7.3890551e-07
7.4359685e-07
7.4926212e-07
7.5610094e-07
7.6436654e-07
7.7438095e-07
7.8654311e-07
8.0130769e-07
8.1915376e-07
8.4049401e-07
8.6575775e-07
8.9474185e-07
9.2662699e-07
9.6088336e-07
9.9691544e-07
1.0337697e-06
8.766508e-07
8.6158094e-07
8.4867585e-07
8.3788716e-07
8.287962e-07
8.2100357e-07
8.1420862e-07
8.0819751e-07
8.0281784e-07
7.9795827e-07
7.9353508e-07
7.8948377e-07
7.8575275e-07
7.8230063e-07
7.7909376e-07
7.761045e-07
7.7330898e-07
7.7068716e-07
7.6822201e-07
7.6589823e-07
7.6370307e-07
7.6162569e-07
7.5965677e-07
7.5778777e-07
7.5601191e-07
7.5432303e-07
7.5271595e-07
7.5118597e-07
7.4972917e-07
7.4834179e-07
7.4702088e-07
7.457631e-07
7.4456626e-07
7.4342834e-07
7.4234725e-07
7.4132151e-07
7.4034891e-07
7.3942904e-07
7.385601e-07
7.3774094e-07
7.3697072e-07
7.3624852e-07
7.355737e-07
7.3494496e-07
7.3436144e-07
7.3382226e-07
7.3332585e-07
7.3287186e-07
7.3245773e-07
7.3207962e-07
7.3173442e-07
7.314175e-07
7.3112528e-07
7.308547e-07
7.3060268e-07
7.303663e-07
7.3014216e-07
7.2992503e-07
7.2970879e-07
7.294876e-07
7.2925472e-07
7.2900413e-07
7.2873069e-07
7.284287e-07
7.280942e-07
7.2772479e-07
7.27318e-07
7.2687415e-07
7.2639514e-07
7.2588503e-07
7.2535112e-07
7.2480367e-07
7.2425627e-07
7.2372059e-07
7.2321239e-07
7.2275499e-07
7.2237458e-07
7.2209877e-07
7.2195956e-07
7.219922e-07
7.2223419e-07
7.2271626e-07
7.2350507e-07
7.246177e-07
7.2608877e-07
7.2800607e-07
7.3045253e-07
7.3351581e-07
7.373064e-07
7.4192883e-07
7.4753155e-07
7.5433518e-07
7.6263294e-07
7.7277968e-07
7.851885e-07
8.0031506e-07
8.1863284e-07
8.4055771e-07
8.6642842e-07
8.9622873e-07
9.2893317e-07
9.6386604e-07
1.0004811e-06
1.0372283e-06
8.7665886e-07
8.6159189e-07
8.486887e-07
8.3790137e-07
8.2881151e-07
8.2101984e-07
8.1422556e-07
8.0821442e-07
8.0283421e-07
7.9797378e-07
7.9354946e-07
7.8949668e-07
7.8576394e-07
7.823101e-07
7.7910142e-07
7.7610988e-07