/*--------------------------------*- C++ -*----------------------------------*\
| =========                 |                                                 |
| \\      /  F ield         | OpenFOAM: The Open Source CFD Toolbox           |
|  \\    /   O peration     | Version:  2406                                  |
|   \\  /    A nd           | Website:  www.openfoam.com                      |
|    \\/     M anipulation  |                                                 |
\*---------------------------------------------------------------------------*/
FoamFile
{
    version     2.0;
    format      ascii;
    arch        "LSB;label=32;scalar=64";
    class       surfaceScalarField;
    location    "300";
    object      phi;
}
// * * * * * * * * * * * * * * * * * * * * * * * * * * * * * * * * * * * * * //

dimensions      [1 0 -1 0 0 0 0];

oriented        oriented;

internalField   nonuniform List<scalar> 
264541
(
1.8309953e-05
-1.9300569e-07
2.0323859e-07
1.8295676e-05
-2.4695422e-07
2.6122924e-07
1.8278876e-05
-3.1731833e-07
3.3412002e-07
1.825899e-05
-3.8679469e-07
4.066803e-07
1.8236189e-05
-4.523546e-07
4.7515646e-07
1.82108e-05
-5.1600658e-07
5.4139556e-07
1.8182937e-05
-5.7759758e-07
6.0546083e-07
1.8152689e-05
-6.3713982e-07
6.6738719e-07
1.8120096e-05
-6.9498538e-07
7.2757903e-07
1.8085177e-05
-7.5130907e-07
7.8622785e-07
1.8047957e-05
-8.0631251e-07
8.4353262e-07
1.8008444e-05
-8.6025256e-07
8.9976512e-07
1.7966654e-05
-9.1349348e-07
9.5528397e-07
1.792258e-05
-9.6636202e-07
1.010436e-06
1.7876264e-05
-1.0191211e-06
1.0654375e-06
1.7827744e-05
-1.0717072e-06
1.1202268e-06
1.777703e-05
-1.1238634e-06
1.1745779e-06
1.7724165e-05
-1.1755094e-06
1.2283746e-06
1.7669161e-05
-1.2265074e-06
1.2815109e-06
1.761199e-05
-1.2769744e-06
1.3341459e-06
1.7552607e-05
-1.3271197e-06
1.3865025e-06
1.7490963e-05
-1.3771577e-06
1.4388013e-06
1.7427014e-05
-1.4272774e-06
1.4912269e-06
1.7360712e-05
-1.4775984e-06
1.5438999e-06
1.7292034e-05
-1.528162e-06
1.5968405e-06
1.7221003e-05
-1.5788502e-06
1.6498806e-06
1.71476e-05
-1.6294933e-06
1.7028967e-06
1.7071845e-05
-1.6799864e-06
1.7557415e-06
1.6993738e-05
-1.73016e-06
1.8082669e-06
1.6913279e-05
-1.779847e-06
1.8603057e-06
1.6830547e-05
-1.8289238e-06
1.9116558e-06
1.6745569e-05
-1.8771948e-06
1.9621729e-06
1.6658311e-05
-1.9245402e-06
2.0117983e-06
1.6568828e-05
-1.9707719e-06
2.060255e-06
1.6477176e-05
-2.0156937e-06
2.1073452e-06
1.6383358e-05
-2.0591467e-06
2.1529647e-06
1.6287475e-05
-2.1008963e-06
2.1967802e-06
1.6189611e-05
-2.140752e-06
2.2386152e-06
1.6089777e-05
-2.1783972e-06
2.2782315e-06
1.5988066e-05
-2.2136713e-06
2.3153827e-06
1.588455e-05
-2.2463122e-06
2.3498276e-06
1.5779328e-05
-2.2759551e-06
2.3811772e-06
1.5672567e-05
-2.3025321e-06
2.4092935e-06
1.556434e-05
-2.3255864e-06
2.4338136e-06
1.5454761e-05
-2.3448524e-06
2.4544307e-06
1.5343983e-05
-2.3600762e-06
2.4708546e-06
1.5232162e-05
-2.3710399e-06
2.4828612e-06
1.5119426e-05
-2.377475e-06
2.4902107e-06
1.5006021e-05
-2.3791025e-06
2.4925073e-06
1.48922e-05
-2.3759255e-06
2.4897468e-06
1.4778026e-05
-2.3652057e-06
2.4793795e-06
1.4663267e-05
-2.3494726e-06
2.4642313e-06
1.4549502e-05
-2.3338738e-06
2.4476389e-06
1.443646e-05
-2.3030097e-06
2.4160518e-06
1.4323965e-05
-2.2652345e-06
2.3777295e-06
1.4212323e-05
-2.2291742e-06
2.3408169e-06
1.4102278e-05
-2.1804985e-06
2.2905428e-06
1.3994573e-05
-2.1222044e-06
2.2299092e-06
1.3889291e-05
-2.056337e-06
2.1616191e-06
1.3784901e-05
-1.9855758e-06
2.0899659e-06
1.368307e-05
-1.9014877e-06
2.0033188e-06
1.3583925e-05
-1.8106744e-06
1.9098196e-06
1.3488262e-05
-1.7126241e-06
1.8082869e-06
1.3396412e-05
-1.606124e-06
1.6979746e-06
1.3309162e-05
-1.4900512e-06
1.5773003e-06
1.3226798e-05
-1.3643925e-06
1.4467566e-06
1.3149579e-05
-1.2293379e-06
1.3065572e-06
1.307783e-05
-1.0849723e-06
1.1567209e-06
1.3011924e-05
-9.3139827e-07
9.9730468e-07
1.2952316e-05
-7.6877088e-07
8.2837849e-07
1.2899511e-05
-5.9718737e-07
6.4999302e-07
1.2853991e-05
-4.168263e-07
4.6234638e-07
1.2816249e-05
-2.2785925e-07
2.6560038e-07
1.2787027e-05
-3.0762826e-08
5.9985418e-08
1.2767283e-05
1.7391509e-07
-1.5417101e-07
1.2757608e-05
3.8593826e-07
-3.7626341e-07
1.2758492e-05
6.05073e-07
-6.0595682e-07
1.277016e-05
8.3113706e-07
-8.4280531e-07
1.2792908e-05
1.0637479e-06
-1.0864956e-06
1.2826941e-05
1.3024256e-06
-1.3364595e-06
1.2872329e-05
1.5466544e-06
-1.5920423e-06
1.2929277e-05
1.7957374e-06
-1.8526847e-06
1.2998038e-05
2.0489285e-06
-2.1176903e-06
1.3078879e-05
2.3054435e-06
-2.3862838e-06
1.3172111e-05
2.56445e-06
-2.6576819e-06
1.3278029e-05
2.8250538e-06
-2.9309718e-06
1.3396898e-05
3.0863234e-06
-3.2051927e-06
1.3528919e-05
3.3472925e-06
-3.4793131e-06
1.367417e-05
3.6069223e-06
-3.7521741e-06
1.3832605e-05
3.8641128e-06
-4.0225473e-06
1.4004023e-05
4.1177248e-06
-4.2891434e-06
1.418801e-05
4.3665449e-06
-4.5505318e-06
1.4383865e-05
4.6091808e-06
-4.8050357e-06
1.4590671e-05
4.844058e-06
-5.0508637e-06
1.4807476e-05
5.0695794e-06
-5.2863848e-06
1.5033552e-05
5.2842967e-06
-5.5103723e-06
1.526842e-05
5.4871008e-06
-5.721969e-06
1.5512305e-05
5.6774497e-06
-5.9213349e-06
1.5765374e-05
5.855313e-06
-6.1083817e-06
1.6029505e-05
6.021795e-06
-6.2859263e-06
1.6303676e-05
6.1763756e-06
-6.4505466e-06
1.6590337e-05
6.3284925e-06
-6.6151527e-06
1.6886859e-05
6.4444018e-06
-6.7409239e-06
6.6846007e-06
1.7169624e-05
-6.9673662e-06
1.7639188e-05
-1.8302675e-07
1.762547e-05
-2.332374e-07
1.7609363e-05
-3.012106e-07
1.7590257e-05
-3.6768957e-07
1.7568343e-05
-4.3044075e-07
1.7543924e-05
-4.9158711e-07
1.7517122e-05
-5.5079631e-07
1.7488032e-05
-6.0804976e-07
1.7456701e-05
-6.6365474e-07
1.7423179e-05
-7.1778731e-07
1.7387486e-05
-7.7061931e-07
1.7349603e-05
-8.2236987e-07
1.7309545e-05
-8.7343467e-07
1.7267329e-05
-9.2414654e-07
1.7222959e-05
-9.7475076e-07
1.7176446e-05
-1.0251949e-06
1.7127837e-05
-1.0752544e-06
1.7077174e-05
-1.1248458e-06
1.7024465e-05
-1.1737994e-06
1.6969696e-05
-1.2222052e-06
1.691281e-05
-1.2702339e-06
1.685377e-05
-1.3181174e-06
1.6792557e-05
-1.3660641e-06
1.672911e-05
-1.4141514e-06
1.6663395e-05
-1.4624474e-06
1.6595411e-05
-1.5108664e-06
1.6525189e-05
-1.5592712e-06
1.6452716e-05
-1.6075136e-06
1.6377984e-05
-1.6554281e-06
1.6301055e-05
-1.702918e-06
1.6221939e-05
-1.7498077e-06
1.6140644e-05
-1.7958996e-06
1.6057204e-05
-1.8411007e-06
1.5971654e-05
-1.8852212e-06
1.5884039e-05
-1.9280792e-06
1.5794412e-05
-1.9695201e-06
1.5702802e-05
-2.0092857e-06
1.5609265e-05
-2.0472153e-06
1.5513886e-05
-2.0830184e-06
1.5416734e-05
-2.1165188e-06
1.5317887e-05
-2.1474654e-06
1.5217454e-05
-2.1755223e-06
1.5115541e-05
-2.2006193e-06
1.5012274e-05
-2.2223191e-06
1.4907802e-05
-2.2403806e-06
1.4802175e-05
-2.2544491e-06
1.4695572e-05
-2.2644367e-06
1.4588172e-05
-2.2700751e-06
1.4480097e-05
-2.2710274e-06
1.4371874e-05
-2.2677028e-06
1.4263051e-05
-2.2563822e-06
1.4154447e-05
-2.2408689e-06
1.4046938e-05
-2.2263649e-06
1.393909e-05
-2.1951612e-06
1.383358e-05
-2.1597251e-06
1.3727133e-05
-2.1227272e-06
1.3622378e-05
-2.0757438e-06
1.3519582e-05
-2.0194074e-06
1.3419326e-05
-1.9560814e-06
1.3320877e-05
-1.8871274e-06
1.3225678e-05
-1.8062882e-06
1.3133621e-05
-1.7186173e-06
1.3044831e-05
-1.6238342e-06
1.2959618e-05
-1.5209113e-06
1.2878565e-05
-1.4089981e-06
1.2802142e-05
-1.2879698e-06
1.273077e-05
-1.1579658e-06
1.2664884e-05
-1.0190864e-06
1.2604891e-05
-8.714051e-07
1.2551224e-05
-7.1510382e-07
1.2504307e-05
-5.5027022e-07
1.2464586e-05
-3.7710588e-07
1.2432593e-05
-1.9586557e-07
1.240851e-05
-6.6800677e-09
1.239229e-05
1.9013508e-07
1.238428e-05
3.9394836e-07
1.2384998e-05
6.0435442e-07
1.239517e-05
8.2096506e-07
1.2415602e-05
1.0433167e-06
1.2447065e-05
1.270962e-06
1.2490281e-05
1.5034386e-06
1.2545851e-05
1.7401672e-06
1.2614227e-05
1.9805527e-06
1.26957e-05
2.2239707e-06
1.279043e-05
2.46972e-06
1.2898467e-05
2.7170169e-06
1.3019769e-05
2.9650208e-06
1.3154238e-05
3.2128239e-06
1.3301715e-05
3.4594455e-06
1.3461969e-05
3.703859e-06
1.3634703e-05
3.9449905e-06
1.3819519e-05
4.1817291e-06
1.4015837e-05
4.4128623e-06
1.4222892e-05
4.6370036e-06
1.4439789e-05
4.8526818e-06
1.466564e-05
5.0584461e-06
1.489971e-05
5.2530309e-06
1.5141739e-05
5.4354205e-06
1.5391796e-05
5.6052561e-06
1.5650868e-05
5.7627223e-06
1.5919778e-05
5.9074658e-06
1.6201582e-05
6.0466884e-06
1.6492804e-05
6.1531807e-06
6.3395803e-06
1.6837824e-05
1.6993044e-05
-1.7327386e-07
1.6979876e-05
-2.2006811e-07
1.6964393e-05
-2.8572768e-07
1.6945976e-05
-3.4927229e-07
1.6924868e-05
-4.0933189e-07
1.6901351e-05
-4.6807035e-07
1.687554e-05
-5.2498496e-07
1.6847498e-05
-5.8000725e-07
1.6817292e-05
-6.334487e-07
1.6784968e-05
-6.8546371e-07
1.6750559e-05
-7.3620975e-07
1.6714075e-05
-7.858861e-07
1.6675498e-05
-8.3485785e-07
1.6634835e-05
-8.8348339e-07
1.6592094e-05
-9.3200976e-07
1.6547281e-05
-9.8038165e-07
1.6500439e-05
-1.0284127e-06
1.6451592e-05
-1.0759984e-06
1.6400761e-05
-1.1229679e-06
1.6347939e-05
-1.1693833e-06
1.6293093e-05
-1.215388e-06
1.623617e-05
-1.261194e-06
1.6177122e-05
-1.307017e-06
1.6115958e-05
-1.3529865e-06
1.6052609e-05
-1.3990989e-06
1.5987077e-05
-1.4453344e-06
1.5919393e-05
-1.4915874e-06
1.5849534e-05
-1.5376538e-06
1.5777527e-05
-1.5834216e-06
1.5703412e-05
-1.6288029e-06
1.5627167e-05
-1.6735624e-06
1.5548825e-05
-1.717558e-06
1.5468462e-05
-1.7607373e-06
1.5386063e-05
-1.8028223e-06
1.5301669e-05
-1.8436849e-06
1.5215359e-05
-1.8832105e-06
1.5127164e-05
-1.9210901e-06
1.5037119e-05
-1.9571705e-06
1.4945315e-05
-1.9912143e-06
1.485185e-05
-2.0230537e-06
1.4756772e-05
-2.0523872e-06
1.4660193e-05
-2.0789433e-06
1.4562214e-05
-2.1026406e-06
1.4462979e-05
-2.1230843e-06
1.4362595e-05
-2.1399964e-06
1.4261244e-05
-2.1530984e-06
1.4159077e-05
-2.1622694e-06
1.405625e-05
-2.1672483e-06
1.3952767e-05
-2.1675437e-06
1.3849061e-05
-2.1639978e-06
1.3745511e-05
-2.1528313e-06
1.3641456e-05
-2.1368147e-06
1.3537307e-05
-2.1222157e-06
1.3434681e-05
-2.092535e-06
1.3333282e-05
-2.0583258e-06
1.3231814e-05
-2.0212592e-06
1.3131869e-05
-1.9757993e-06
1.3033919e-05
-1.9214567e-06
1.2938206e-05
-1.8603685e-06
1.2844749e-05
-1.7936703e-06
1.2754685e-05
-1.716225e-06
1.2667814e-05
-1.6317461e-06
1.2584151e-05
-1.5401714e-06
1.2504018e-05
-1.4407778e-06
1.2428018e-05
-1.3329981e-06
1.2356674e-05
-1.2166265e-06
1.2290334e-05
-1.0916257e-06
1.2229407e-05
-9.5815914e-07
1.2174329e-05
-8.1632708e-07
1.2125433e-05
-6.6620803e-07
1.2083164e-05
-5.0800129e-07
1.204793e-05
-3.4187185e-07
1.2020104e-05
-1.6803894e-07
1.2000345e-05
1.3079171e-08
1.1989314e-05
2.011659e-07
1.198744e-05
3.9582251e-07
1.1994977e-05
5.9681737e-07
1.2012154e-05
8.0378784e-07
1.2039204e-05
1.0162666e-06
1.2076387e-05
1.2337784e-06
1.2124083e-05
1.4557426e-06
1.2182738e-05
1.6815127e-06
1.2252861e-05
1.910429e-06
1.233498e-05
2.1418522e-06
1.2429581e-05
2.3751188e-06
1.253705e-05
2.6095479e-06
1.2657655e-05
2.8444157e-06
1.2791493e-05
3.0789864e-06
1.293849e-05
3.3124481e-06
1.3098457e-05
3.5438916e-06
1.327104e-05
3.7724076e-06
1.3455743e-05
3.9970269e-06
1.3651925e-05
4.2166802e-06
1.3858765e-05
4.4301633e-06
1.4075317e-05
4.6361295e-06
1.4300617e-05
4.8331467e-06
1.453376e-05
5.019888e-06
1.4774062e-05
5.1951185e-06
1.5021265e-05
5.3580528e-06
1.5275491e-05
5.5084968e-06
1.5537395e-05
5.6455614e-06
1.5808797e-05
5.7752859e-06
1.6083621e-05
5.8783573e-06
6.026561e-06
1.639664e-05
1.6370638e-05
-1.6375281e-07
1.6357978e-05
-2.0740933e-07
1.6343137e-05
-2.708863e-07
1.6325444e-05
-3.3157999e-07
1.6305168e-05
-3.8905643e-07
1.6282599e-05
-4.4550145e-07
1.6257777e-05
-5.001625e-07
1.6230774e-05
-5.5300437e-07
1.6201692e-05
-6.0436737e-07
1.6170583e-05
-6.5435498e-07
1.6137481e-05
-7.0310707e-07
1.6102387e-05
-7.5079274e-07
1.6065307e-05
-7.9777786e-07
1.6026244e-05
-8.4442043e-07
1.598519e-05
-8.9095545e-07
1.5942143e-05
-9.3733511e-07
1.5897159e-05
-9.8342839e-07
1.5850247e-05
-1.0290862e-06
1.5801403e-05
-1.0741241e-06
1.575064e-05
-1.118621e-06
1.5697936e-05
-1.1626834e-06
1.5643251e-05
-1.2065093e-06
1.5586552e-05
-1.2503184e-06
1.552782e-05
-1.2942544e-06
1.546699e-05
-1.3382692e-06
1.5404071e-05
-1.3824151e-06
1.5339086e-05
-1.4266028e-06
1.5272031e-05
-1.4705987e-06
1.5202939e-05
-1.5143296e-06
1.5131811e-05
-1.5576745e-06
1.5058632e-05
-1.6003832e-06
1.4983472e-05
-1.642398e-06
1.4906357e-05
-1.6836226e-06
1.4827282e-05
-1.7237476e-06
1.4746326e-05
-1.7627286e-06
1.4663514e-05
-1.8003986e-06
1.4578902e-05
-1.8364781e-06
1.4492559e-05
-1.8708281e-06
1.4404536e-05
-1.9031916e-06
1.4314924e-05
-1.9334412e-06
1.4223816e-05
-1.9612793e-06
1.4131322e-05
-1.9864498e-06
1.4037496e-05
-2.0088143e-06
1.3942449e-05
-2.0280378e-06
1.3846357e-05
-2.043904e-06
1.3749333e-05
-2.0560745e-06
1.3651497e-05
-2.0644333e-06
1.3553049e-05
-2.0687996e-06
1.3454156e-05
-2.068651e-06
1.3354802e-05
-2.0646444e-06
1.3255849e-05
-2.0538778e-06
1.3157633e-05
-2.0385988e-06
1.3057653e-05
-2.022236e-06
1.2959597e-05
-1.9944786e-06
1.2862857e-05
-1.9615859e-06
1.2766525e-05
-1.9249274e-06
1.2671628e-05
-1.8809025e-06
1.2579027e-05
-1.8288555e-06
1.2488583e-05
-1.7699247e-06
1.2399906e-05
-1.7049927e-06
1.2314627e-05
-1.6309465e-06
1.2232561e-05
-1.5496796e-06
1.2153836e-05
-1.4614463e-06
1.2078764e-05
-1.3657065e-06
1.20078e-05
-1.2620338e-06
1.1941366e-05
-1.150192e-06
1.1879902e-05
-1.0301618e-06
1.1823818e-05
-9.0207595e-07
1.1773523e-05
-7.6603202e-07
1.1729421e-05
-6.2210528e-07
1.16919e-05
-4.7048127e-07
1.1661403e-05
-3.1137423e-07
1.1638316e-05
-1.4495185e-07
1.1622887e-05
2.8507501e-08
1.1615361e-05
2.0869262e-07
1.161603e-05
3.9515287e-07
1.1625352e-05
5.8749528e-07
1.1643832e-05
7.8530828e-07
1.1671922e-05
9.8817623e-07
1.1710077e-05
1.1956241e-06
1.1758715e-05
1.4071043e-06
1.1818188e-05
1.6220401e-06
1.1888805e-05
1.839812e-06
1.1970892e-05
2.0597649e-06
1.2064778e-05
2.2812328e-06
1.2170791e-05
2.5035349e-06
1.2289231e-05
2.7259752e-06
1.2420352e-05
2.9478654e-06
1.256429e-05
3.1685108e-06
1.2721057e-05
3.3871245e-06
1.2890504e-05
3.6029599e-06
1.3072293e-05
3.8152385e-06
1.3265863e-05
4.0231096e-06
1.347046e-05
4.225567e-06
1.368513e-05
4.4214586e-06
1.3908766e-05
4.6095113e-06
1.4140236e-05
4.7884178e-06
1.4378498e-05
4.9568567e-06
1.462287e-05
5.1136809e-06
1.4872987e-05
5.2583794e-06
1.5128873e-05
5.389676e-06
1.5392238e-05
5.5119203e-06
1.5659072e-05
5.6115238e-06
5.7425643e-06
1.5943069e-05
1.5771057e-05
-1.5443613e-07
1.5758939e-05
-1.952896e-07
1.5744717e-05
-2.5666448e-07
1.5727729e-05
-3.1459098e-07
1.5708261e-05
-3.6958876e-07
1.5686551e-05
-4.2379084e-07
1.5662646e-05
-4.7625756e-07
1.563662e-05
-5.2697868e-07
1.5608581e-05
-5.7632767e-07
1.5578584e-05
-6.2435833e-07
1.5546679e-05
-6.7120238e-07
1.5512897e-05
-7.1701021e-07
1.547722e-05
-7.6210062e-07
1.5439631e-05
-8.0683188e-07
1.5400115e-05
-8.5143874e-07
1.5358692e-05
-8.9591194e-07
1.5315394e-05
-9.401306e-07
1.5270221e-05
-9.8391302e-07
1.5223194e-05
-1.0270979e-06
1.5174303e-05
-1.0697291e-06
1.5123542e-05
-1.1119233e-06
1.5070902e-05
-1.1538692e-06
1.5016306e-05
-1.195722e-06
1.4959736e-05
-1.2376839e-06
1.4901189e-05
-1.2797224e-06
1.4840657e-05
-1.3218833e-06
1.4778118e-05
-1.3640642e-06
1.4713593e-05
-1.4060734e-06
1.4647104e-05
-1.4478408e-06
1.4578644e-05
-1.4892142e-06
1.4508263e-05
-1.5300018e-06
1.4435971e-05
-1.5701062e-06
1.4361772e-05
-1.6094235e-06
1.4285739e-05
-1.6477145e-06
1.4207889e-05
-1.6848785e-06
1.4128273e-05
-1.7207829e-06
1.4046972e-05
-1.7551773e-06
1.3964016e-05
-1.7878718e-06
1.3879453e-05
-1.818629e-06
1.3793362e-05
-1.8473496e-06
1.370587e-05
-1.8737877e-06
1.3617062e-05
-1.8976412e-06
1.3526982e-05
-1.9187345e-06
1.3435771e-05
-1.9368265e-06
1.3343549e-05
-1.9516825e-06
1.3250467e-05
-1.9629923e-06
1.3156683e-05
-1.970649e-06
1.3062347e-05
-1.9744638e-06
1.2967585e-05
-1.9738891e-06
1.2872506e-05
-1.9695649e-06
1.2777596e-05
-1.9589685e-06
1.2683092e-05
-1.9440941e-06
1.2587995e-05
-1.9271389e-06
1.2494342e-05
-1.9008264e-06
1.240179e-05
-1.8690337e-06
1.230999e-05
-1.8331266e-06
1.2219653e-05
-1.7905656e-06
1.2131326e-05
-1.7405286e-06
1.2045074e-05
-1.6836729e-06
1.1960975e-05
-1.6208936e-06
1.1880028e-05
-1.55e-06
1.1802205e-05
-1.4718563e-06
1.1727696e-05
-1.3869369e-06
1.1656829e-05
-1.2948403e-06
1.1590008e-05
-1.1952129e-06
1.1527663e-05
-1.0878467e-06
1.1470206e-05
-9.7270459e-07
1.141801e-05
-8.4988024e-07
1.1371433e-05
-7.1945431e-07
1.1330903e-05
-5.8157548e-07
1.1296803e-05
-4.3638136e-07
1.1269462e-05
-2.8403368e-07
1.124928e-05
-1.2476916e-07
1.1236736e-05
4.1051163e-08
1.1232299e-05
2.1312974e-07
1.123636e-05
3.910917e-07
1.1249223e-05
5.7463238e-07
1.1271159e-05
7.633721e-07
1.1302451e-05
9.5688456e-07
1.1343366e-05
1.1547092e-06
1.1394176e-05
1.3562938e-06
1.1455166e-05
1.5610497e-06
1.1526628e-05
1.7683504e-06
1.1608858e-05
1.9775346e-06
1.1702106e-05
2.1879849e-06
1.1806588e-05
2.3990527e-06
1.1922555e-05
2.6100086e-06
1.2050234e-05
2.8201865e-06
1.218981e-05
3.0289348e-06
1.2341471e-05
3.2354638e-06
1.2505294e-05
3.4391367e-06
1.2681181e-05
3.6393516e-06
1.2868897e-05
3.8353933e-06
1.3067927e-05
4.0265371e-06
1.3277502e-05
4.2118839e-06
1.3496623e-05
4.3903902e-06
1.3724166e-05
4.5608746e-06
1.3958933e-05
4.7220893e-06
1.4199782e-05
4.8728322e-06
1.4445973e-05
5.0121886e-06
1.4696804e-05
5.1388445e-06
1.4953536e-05
5.2551884e-06
1.521405e-05
5.3510104e-06
5.4715182e-06
1.5485096e-05
1.5193543e-05
-1.4537957e-07
1.5182006e-05
-1.8375419e-07
1.5168423e-05
-2.4308088e-07
1.5152091e-05
-2.9825931e-07
1.513335e-05
-3.5084829e-07
1.5112444e-05
-4.0288535e-07
1.5089431e-05
-4.5324412e-07
1.506437e-05
-5.0191793e-07
1.503735e-05
-5.4930754e-07
1.500845e-05
-5.9545848e-07
1.4977727e-05
-6.4047975e-07
1.4945211e-05
-6.8449474e-07
1.4910895e-05
-7.2778447e-07
1.4874762e-05
-7.7069865e-07
1.4836788e-05
-8.1346505e-07
1.4796977e-05
-8.5610101e-07
1.4755349e-05
-8.9850196e-07
1.4711894e-05
-9.4045843e-07
1.4666663e-05
-9.8186728e-07
1.4619656e-05
-1.0227215e-06
1.4570834e-05
-1.0631013e-06
1.4520183e-05
-1.103219e-06
1.4467672e-05
-1.1432109e-06
1.441329e-05
-1.1833016e-06
1.4357028e-05
-1.2234608e-06
1.4298838e-05
-1.2636927e-06
1.4238729e-05
-1.3039561e-06
1.4176726e-05
-1.3440701e-06
1.4112825e-05
-1.3839398e-06
1.4047049e-05
-1.4234379e-06
1.397942e-05
-1.4623734e-06
1.390999e-05
-1.5006763e-06
1.3838764e-05
-1.538197e-06
1.3765767e-05
-1.5747173e-06
1.3691045e-05
-1.6101565e-06
1.3614615e-05
-1.6443534e-06
1.3536545e-05
-1.6771073e-06
1.3456897e-05
-1.7082241e-06
1.3375739e-05
-1.737471e-06
1.3293166e-05
-1.764776e-06
1.3209198e-05
-1.7898198e-06
1.3123947e-05
-1.8123909e-06
1.3037546e-05
-1.8323328e-06
1.2950069e-05
-1.8493494e-06
1.2861649e-05
-1.8632631e-06
1.277246e-05
-1.8738036e-06
1.268259e-05
-1.8807781e-06
1.2592187e-05
-1.8840613e-06
1.2501438e-05
-1.8831405e-06
1.2410426e-05
-1.8785525e-06
1.2319721e-05
-1.8682638e-06
1.2229385e-05
-1.8537577e-06
1.2138705e-05
-1.8364592e-06
1.2049185e-05
-1.8113058e-06
1.1960826e-05
-1.7806754e-06
1.1873345e-05
-1.7456451e-06
1.1787246e-05
-1.7044667e-06
1.1703097e-05
-1.65638e-06
1.1621151e-05
-1.6017268e-06
1.1541414e-05
-1.5411561e-06
1.146456e-05
-1.4731466e-06
1.1390802e-05
-1.3980977e-06
1.1320355e-05
-1.3164905e-06
1.125358e-05
-1.2280654e-06
1.1190804e-05
-1.1324365e-06
1.1132393e-05
-1.0294356e-06
1.1078791e-05
-9.1910312e-07
1.1030376e-05
-8.0146539e-07
1.0987508e-05
-6.7658623e-07
1.0950561e-05
-5.4462831e-07
1.0919903e-05
-4.0572313e-07
1.0895924e-05
-2.6005483e-07
1.0879002e-05
-1.0784734e-07
1.0869418e-05
5.0635141e-08
1.0867439e-05
2.15109e-07
1.0873396e-05
3.8513415e-07
1.0887624e-05
5.6040501e-07
1.0910474e-05
7.4052225e-07
1.094235e-05
9.2500804e-07
1.0983609e-05
1.1134502e-06
1.1034563e-05
1.3053398e-06
1.109549e-05
1.5001227e-06
1.1166622e-05
1.6972184e-06
1.124816e-05
1.8959964e-06
1.1340296e-05
2.0958487e-06
1.1443189e-05
2.2961599e-06
1.1556929e-05
2.496269e-06
1.1681638e-05
2.6954773e-06
1.1817428e-05
2.8931445e-06
1.1964259e-05
3.0886329e-06
1.2122194e-05
3.2812017e-06
1.2291364e-05
3.4701814e-06
1.2471748e-05
3.6550094e-06
1.2663149e-05
3.8351368e-06
1.286514e-05
4.009892e-06
1.3077073e-05
4.1784579e-06
1.3297999e-05
4.3399489e-06
1.3526822e-05
4.4932657e-06
1.376238e-05
4.6372746e-06
1.4003676e-05
4.7708923e-06
1.424956e-05
4.8929608e-06
1.450015e-05
5.004598e-06
1.4754188e-05
5.0969722e-06
5.2106547e-06
1.5015052e-05
1.4637298e-05
-1.3659166e-07
1.4626287e-05
-1.7274231e-07
1.4613241e-05
-2.3003474e-07
1.4597509e-05
-2.8252698e-07
1.4579477e-05
-3.3281662e-07
1.4559363e-05
-3.8277058e-07
1.4537219e-05
-4.3109967e-07
1.4513083e-05
-4.7778276e-07
1.4487038e-05
-5.2326218e-07
1.445918e-05
-5.6760052e-07
1.4429581e-05
-6.1087993e-07
1.4398262e-05
-6.5317574e-07
1.4365231e-05
-6.947539e-07
1.4330461e-05
-7.3592809e-07
1.4293939e-05
-7.7694331e-07
1.4255648e-05
-8.1781e-07
1.4215596e-05
-8.5845e-07
1.4173805e-05
-8.9866746e-07
1.4130276e-05
-9.3833791e-07
1.408502e-05
-9.7746569e-07
1.4038031e-05
-1.016112e-06
1.3989287e-05
-1.0544752e-06
1.3938771e-05
-1.0926951e-06
1.3886448e-05
-1.130979e-06
1.3832302e-05
-1.1693142e-06
1.3776329e-05
-1.2077199e-06
1.3718518e-05
-1.2461452e-06
1.3658901e-05
-1.2844525e-06
1.3597472e-05
-1.3225111e-06
1.353424e-05
-1.3602059e-06
1.3469231e-05
-1.3973645e-06
1.3402496e-05
-1.4339408e-06
1.3334028e-05
-1.4697296e-06
1.3263836e-05
-1.5045254e-06
1.3192013e-05
-1.5383329e-06
1.3118563e-05
-1.570904e-06
1.3043527e-05
-1.6020704e-06
1.2966976e-05
-1.6316733e-06
1.2888996e-05
-1.6594909e-06
1.2809656e-05
-1.6854362e-06
1.2729003e-05
-1.709167e-06
1.2647185e-05
-1.730573e-06
1.2564271e-05
-1.7494188e-06
1.2480333e-05
-1.7654111e-06
1.2395533e-05
-1.7784627e-06
1.2309963e-05
-1.7882341e-06
1.2223773e-05
-1.7945883e-06
1.2137136e-05
-1.7974242e-06
1.2050186e-05
-1.79619e-06
1.1963058e-05
-1.7914248e-06
1.187619e-05
-1.7813963e-06
1.1789616e-05
-1.7671834e-06
1.1702943e-05
-1.749786e-06
1.1617294e-05
-1.7256567e-06
1.1532759e-05
-1.696141e-06
1.1449223e-05
-1.6621094e-06
1.1367115e-05
-1.6223584e-06
1.1286848e-05
-1.5761131e-06
1.1208714e-05
-1.5235926e-06
1.113278e-05
-1.4652222e-06
1.1059623e-05
-1.3999892e-06
1.0989566e-05
-1.3280408e-06
1.092275e-05
-1.2496744e-06
1.085948e-05
-1.1647954e-06
1.0800163e-05
-1.0731194e-06
1.074514e-05
-9.7441328e-07
1.0694779e-05
-8.6874202e-07
1.0649496e-05
-7.5618183e-07
1.060961e-05
-6.3670096e-07
1.0575455e-05
-5.1047287e-07
1.0547411e-05
-3.7767952e-07
1.0525817e-05
-2.3846077e-07
1.0511023e-05
-9.305319e-08
1.0503421e-05
5.823772e-08
1.0503408e-05
2.1512161e-07
1.0511275e-05
3.7726691e-07
1.0527313e-05
5.443673e-07
1.0551819e-05
7.1601626e-07
1.0585051e-05
8.9177616e-07
1.0627262e-05
1.0712389e-06
1.0678692e-05
1.2539097e-06
1.0739586e-05
1.4392286e-06
1.0810175e-05
1.6266295e-06
1.0890643e-05
1.8155281e-06
1.0981169e-05
2.0053229e-06
1.1081914e-05
2.1954149e-06
1.1192972e-05
2.3852116e-06
1.1314398e-05
2.5740505e-06
1.1446243e-05
2.7613003e-06
1.1588504e-05
2.9463711e-06
1.1741102e-05
3.1286039e-06
1.1903966e-05
3.3073172e-06
1.207707e-05
3.4819056e-06
1.2260355e-05
3.651852e-06
1.2453618e-05
3.8166287e-06
1.2656518e-05
3.9755574e-06
1.2868542e-05
4.1279249e-06
1.3088892e-05
4.2729159e-06
1.3316547e-05
4.4096196e-06
1.3550488e-05
4.5369512e-06
1.3789639e-05
4.6538105e-06
1.4033425e-05
4.7608113e-06
1.4280915e-05
4.8494823e-06
4.9583567e-06
1.4533213e-05
1.4101461e-05
-1.2805212e-07
1.4090959e-05
-1.6224125e-07
1.4078442e-05
-2.175183e-07
1.4063292e-05
-2.6737678e-07
1.4045957e-05
-3.1548219e-07
1.402661e-05
-3.6342334e-07
1.4005281e-05
-4.097708e-07
1.3982042e-05
-4.5454438e-07
1.3956967e-05
-4.981871e-07
1.3930129e-05
-5.4076285e-07
1.3901603e-05
-5.8235349e-07
1.3871448e-05
-6.2302123e-07
1.3839655e-05
-6.6296134e-07
1.3806206e-05
-7.0247871e-07
1.3771075e-05
-7.4181218e-07
1.3734247e-05
-7.8098211e-07
1.369573e-05
-8.1993275e-07
1.3655533e-05
-8.5847069e-07
1.361366e-05
-8.9646485e-07
1.3570118e-05
-9.3392461e-07
1.3524919e-05
-9.7091287e-07
1.3478027e-05
-1.007583e-06
1.3429437e-05
-1.0441051e-06
1.3379119e-05
-1.0806615e-06
1.3327052e-05
-1.1172471e-06
1.3273247e-05
-1.1539149e-06
1.3217695e-05
-1.1905925e-06
1.3160398e-05
-1.2271565e-06
1.3101348e-05
-1.2634603e-06
1.3040569e-05
-1.2994276e-06
1.29781e-05
-1.3348957e-06
1.2913955e-05
-1.3697957e-06
1.2848155e-05
-1.4039289e-06
1.2780725e-05
-1.4370956e-06
1.2711727e-05
-1.4693353e-06
1.2641155e-05
-1.5003322e-06
1.2569073e-05
-1.5299885e-06
1.2495562e-05
-1.5581617e-06
1.2420687e-05
-1.5846166e-06
1.2344502e-05
-1.6092506e-06
1.2267103e-05
-1.6317678e-06
1.2188537e-05
-1.6520078e-06
1.2108932e-05
-1.6698138e-06
1.2028395e-05
-1.684874e-06
1.1947025e-05
-1.6970922e-06
1.1864984e-05
-1.7061931e-06
1.1782373e-05
-1.7119773e-06
1.1699329e-05
-1.7143802e-06
1.1616008e-05
-1.7128694e-06
1.1532544e-05
-1.7079608e-06
1.1449301e-05
-1.6981534e-06
1.1366388e-05
-1.6842702e-06
1.1283589e-05
-1.6669868e-06
1.1201684e-05
-1.6437519e-06
1.1120848e-05
-1.6153047e-06
1.1041078e-05
-1.5823394e-06
1.0962737e-05
-1.544018e-06
1.0886156e-05
-1.4995323e-06
1.0811627e-05
-1.4490628e-06
1.0739348e-05
-1.3929433e-06
1.0669739e-05
-1.3303806e-06
1.060312e-05
-1.2614218e-06
1.0539736e-05
-1.1862899e-06
1.0479883e-05
-1.1049425e-06
1.0423869e-05
-1.0171054e-06
1.037207e-05
-9.2261432e-07
1.0324839e-05
-8.2151109e-07
1.0282483e-05
-7.1382612e-07
1.0245405e-05
-5.9962349e-07
1.0213942e-05
-4.7900929e-07
1.0188412e-05
-3.5215001e-07
1.0169175e-05
-2.1922345e-07
1.0156567e-05
-8.0445418e-08
1.0150888e-05
6.3916602e-08
1.0152414e-05
2.1359578e-07
1.0161446e-05
3.6823535e-07
1.0178289e-05
5.2752439e-07
1.0203203e-05
6.9110161e-07
1.0236485e-05
8.5849445e-07
1.0278449e-05
1.0292747e-06
1.0329357e-05
1.2030014e-06
1.0389422e-05
1.3791644e-06
1.0458815e-05
1.5572365e-06
1.0537685e-05
1.7366571e-06
1.062616e-05
1.9168487e-06
1.0724354e-05
2.0972208e-06
1.0832351e-05
2.2772142e-06
1.0950189e-05
2.4562124e-06
1.107788e-05
2.6336099e-06
1.1215382e-05
2.8088688e-06
1.1362601e-05
2.9813845e-06
1.1519404e-05
3.1505142e-06
1.1685641e-05
3.3156688e-06
1.1861174e-05
3.4763192e-06
1.2045832e-05
3.6319706e-06
1.2239365e-05
3.7820246e-06
1.244147e-05
3.9258194e-06
1.2651744e-05
4.062642e-06
1.2869556e-05
4.1918075e-06
1.3094107e-05
4.3124005e-06
1.3324483e-05
4.4234347e-06
1.3559662e-05
4.5256318e-06
1.3799105e-05
4.6100395e-06
4.7144763e-06
1.4042985e-05
1.3585263e-05
-1.1974783e-07
1.3575251e-05
-1.522277e-07
1.3563245e-05
-2.0551223e-07
1.3548659e-05
-2.5279112e-07
1.3531955e-05
-2.9877799e-07
1.3513317e-05
-3.4478466e-07
1.3492803e-05
-3.8925669e-07
1.3470443e-05
-4.3218405e-07
1.3446308e-05
-4.7405243e-07
1.3420476e-05
-5.1493053e-07
1.3393008e-05
-5.5488532e-07
1.3363967e-05
-5.9398051e-07
1.3333354e-05
-6.3234859e-07
1.3301153e-05
-6.7027755e-07
1.3267348e-05
-7.0800724e-07
1.3231924e-05
-7.4555753e-07
1.3194862e-05
-7.8287086e-07
1.3156178e-05
-8.1978675e-07
1.3115882e-05
-8.5616859e-07
1.307398e-05
-8.9202332e-07
1.3030476e-05
-9.2740873e-07
1.2985363e-05
-9.6246939e-07
1.2938625e-05
-9.9736776e-07
1.2890223e-05
-1.032259e-06
1.2840154e-05
-1.0671781e-06
1.2788412e-05
-1.1021732e-06
1.2734991e-05
-1.137171e-06
1.2679886e-05
-1.1720514e-06
1.2623103e-05
-1.2066774e-06
1.256468e-05
-1.2410043e-06
1.2504631e-05
-1.2748469e-06
1.244296e-05
-1.3081252e-06
1.2379691e-05
-1.3406601e-06
1.2314893e-05
-1.3722969e-06
1.2248549e-05
-1.4029912e-06
1.2180709e-05
-1.4324923e-06
1.2111492e-05
-1.460772e-06
1.2040881e-05
-1.4875504e-06
1.1968967e-05
-1.5127029e-06
1.1895803e-05
-1.5360868e-06
1.1821455e-05
-1.5574196e-06
1.1746029e-05
-1.5765821e-06
1.1669607e-05
-1.5933912e-06
1.1592313e-05
-1.6075798e-06
1.1514238e-05
-1.6190177e-06
1.1435502e-05
-1.6274572e-06
1.1356282e-05
-1.6327574e-06
1.1276663e-05
-1.6347605e-06
1.1196798e-05
-1.6330049e-06
1.1116775e-05
-1.6279375e-06
1.103696e-05
-1.6183381e-06
1.0957488e-05
-1.6047981e-06
1.0878243e-05
-1.5877418e-06
1.0799808e-05
-1.5653176e-06
1.0722437e-05
-1.5379333e-06
1.0646191e-05
-1.5060932e-06
1.0571301e-05
-1.469128e-06
1.0498154e-05
-1.4263854e-06
1.0427032e-05
-1.3779406e-06
1.0358125e-05
-1.3240362e-06
1.0291798e-05
-1.2640541e-06
1.0228367e-05
-1.1979902e-06
1.0168089e-05
-1.1260122e-06
1.011125e-05
-1.0481035e-06
1.0058159e-05
-9.6401487e-07
1.0009159e-05
-8.7361362e-07
9.9646043e-06
-7.7695673e-07
9.9248025e-06
-6.740243e-07
9.8900987e-06
-5.6491969e-07
9.8608361e-06
-4.4974674e-07
9.8373069e-06
-3.2862086e-07
9.8198452e-06
-2.0176168e-07
9.8087795e-06
-6.9379748e-08
9.8044319e-06
6.8264143e-08
9.8071342e-06
2.1089349e-07
9.8171445e-06
3.5822505e-07
9.8347545e-06
5.0991435e-07
9.8602452e-06
6.6561092e-07
9.8938123e-06
8.2492738e-07
9.9356744e-06
9.8741255e-07
9.9860635e-06
1.1526123e-06
1.0045177e-05
1.3200508e-06
1.0113195e-05
1.489219e-06
1.0190256e-05
1.6595958e-06
1.0276458e-05
1.8306462e-06
1.037188e-05
2.0017992e-06
1.0476587e-05
2.172507e-06
1.0590603e-05
2.3421965e-06
1.0713917e-05
2.5102962e-06
1.0846499e-05
2.676286e-06
1.098826e-05
2.8396243e-06
1.1139034e-05
2.9997395e-06
1.1298633e-05
3.1560699e-06
1.1466846e-05
3.3081065e-06
1.1643443e-05
3.4553737e-06
1.1828147e-05
3.5973202e-06
1.2020665e-05
3.733302e-06
1.2220685e-05
3.8626221e-06
1.2427837e-05
3.984655e-06
1.26416e-05
4.0986373e-06
1.2861455e-05
4.2035805e-06
1.3086523e-05
4.3005633e-06
1.3316189e-05
4.3803739e-06
4.4802698e-06
1.3550395e-05
1.3087989e-05
-1.1168673e-07
1.3078444e-05
-1.4268345e-07
1.3066926e-05
-1.9399424e-07
1.3052864e-05
-2.387293e-07
1.3036784e-05
-2.8269832e-07
1.3018861e-05
-3.2686126e-07
1.2999119e-05
-3.6951559e-07
1.2977609e-05
-4.1067423e-07
1.2954376e-05
-4.5081866e-07
1.292949e-05
-4.9004465e-07
1.2903032e-05
-5.2842797e-07
1.287506e-05
-5.6600866e-07
1.2845595e-05
-6.0288375e-07
1.2814613e-05
-6.3929556e-07
1.2782091e-05
-6.7548493e-07
1.2748012e-05
-7.1147874e-07
1.2712362e-05
-7.4722078e-07
1.2675151e-05
-7.8257561e-07
1.263638e-05
-8.1739749e-07
1.259606e-05
-8.5170352e-07
1.2554199e-05
-8.855476e-07
1.2510787e-05
-9.1905742e-07
1.2465815e-05
-9.5239657e-07
1.2419257e-05
-9.8570059e-07
1.2371105e-05
-1.0190266e-06
1.2321361e-05
-1.0524291e-06
1.2270006e-05
-1.0858157e-06
1.2217024e-05
-1.1190696e-06
1.2162444e-05
-1.1520978e-06
1.210629e-05
-1.1848495e-06
1.2048553e-05
-1.2171104e-06
1.198926e-05
-1.2488319e-06
1.1928456e-05