/*--------------------------------*- C++ -*----------------------------------*\
| =========                 |                                                 |
| \\      /  F ield         | OpenFOAM: The Open Source CFD Toolbox           |
|  \\    /   O peration     | Version:  2406                                  |
|   \\  /    A nd           | Website:  www.openfoam.com                      |
|    \\/     M anipulation  |                                                 |
\*---------------------------------------------------------------------------*/
FoamFile
{
    version     2.0;
    format      ascii;
    arch        "LSB;label=32;scalar=64";
    class       volScalarField;
    location    "300";
    object      T;
}
// * * * * * * * * * * * * * * * * * * * * * * * * * * * * * * * * * * * * * //

dimensions      [0 0 0 1 0 0 0];

internalField   nonuniform List<scalar> 
132739
(
1.0007476
1.0007319
1.0007312
1.0007377
1.0007431
1.0007487
1.0007549
1.0007622
1.0007709
1.0007799
1.0007902
1.0008014
1.0008136
1.0008266
1.0008397
1.0008543
1.0008685
1.0008832
1.0008983
1.0009143
1.0009307
1.0009481
1.0009665
1.000986
1.0010057
1.0010263
1.0010483
1.0010706
1.0010949
1.0011199
1.0011463
1.0011754
1.0012064
1.0012358
1.0012668
1.0012967
1.0013251
1.0013536
1.0013811
1.0014072
1.0014333
1.0014573
1.0014827
1.0015076
1.0015321
1.0015566
1.0015837
1.0016087
1.0016347
1.0016638
1.0016901
1.0017209
1.0017504
1.0017884
1.0018324
1.0018866
1.0019527
1.0020238
1.0020966
1.0021454
1.0021171
1.002076
1.0020202
1.0019334
1.001869
1.0017811
1.0016704
1.0015555
1.0014431
1.0013268
1.0012154
1.0011233
1.0010227
1.0009476
1.0008892
1.000817
1.0007245
1.0006764
1.0007086
1.0008042
1.0009892
1.001281
1.0016875
1.0021856
1.0027472
1.0033356
1.0039192
1.0044734
1.0049472
1.0053204
1.0056751
1.0060073
1.0061497
1.0061546
1.0060988
1.0059441
1.0056877
1.0053698
1.0050611
1.0046966
1.0043516
1.0040395
1.0037321
1.0033208
1.0007486
1.0007308
1.0007306
1.0007371
1.0007434
1.0007493
1.0007555
1.0007631
1.0007712
1.0007802
1.0007905
1.0008017
1.0008135
1.0008267
1.0008405
1.0008548
1.0008685
1.0008832
1.0008981
1.0009143
1.0009307
1.000948
1.0009664
1.0009866
1.0010066
1.0010277
1.0010489
1.0010727
1.0010952
1.0011203
1.0011464
1.0011737
1.0012021
1.0012308
1.0012595
1.0012892
1.0013182
1.0013462
1.0013733
1.0014011
1.0014278
1.0014542
1.0014811
1.0015064
1.0015333
1.0015591
1.0015832
1.0016098
1.0016347
1.0016626
1.0016916
1.0017199
1.0017547
1.0017979
1.0018441
1.0019017
1.0019695
1.0020475
1.0020937
1.0021285
1.0020911
1.0020514
1.0019624
1.0018701
1.0017866
1.0017113
1.0016115
1.0015171
1.0014176
1.0013072
1.0011939
1.001092
1.0009959
1.0009259
1.0008596
1.0007923
1.0007187
1.0006463
1.000677
1.0007456
1.0008921
1.001134
1.0014769
1.0019056
1.0023968
1.0029291
1.0034819
1.0040309
1.0045267
1.0049292
1.0052881
1.0056552
1.0059326
1.0060228
1.0059951
1.0059211
1.0057547
1.0054549
1.0051086
1.004768
1.0044282
1.0041027
1.0038255
1.0034366
1.0007485
1.000732
1.0007317
1.0007375
1.0007436
1.0007489
1.0007553
1.0007629
1.0007711
1.0007803
1.0007903
1.0008016
1.000814
1.000827
1.0008411
1.0008554
1.0008696
1.0008847
1.0008996
1.0009161
1.0009327
1.000951
1.0009692
1.000989
1.0010101
1.0010305
1.0010527
1.0010755
1.0010981
1.0011228
1.0011484
1.001174
1.0012019
1.0012305
1.0012583
1.0012871
1.0013159
1.0013442
1.0013712
1.0013998
1.0014272
1.001454
1.0014809
1.0015061
1.0015335
1.0015579
1.0015835
1.0016097
1.0016369
1.0016655
1.001697
1.0017294
1.0017672
1.0018102
1.0018577
1.0019188
1.0019929
1.0020792
1.0020876
1.0020942
1.0020664
1.0020232
1.0019336
1.00184
1.0017498
1.0016752
1.0015766
1.0014874
1.0013922
1.0012948
1.0011731
1.0010843
1.0009856
1.0009041
1.0008439
1.0007671
1.0007084
1.0006338
1.0006365
1.0007064
1.0008483
1.0010752
1.0013901
1.00178
1.0022205
1.0026938
1.0031914
1.0037058
1.0041813
1.0045748
1.0049167
1.0052776
1.0056236
1.0058041
1.0058153
1.0057882
1.0056932
1.0055049
1.0051771
1.0048294
1.004488
1.0041512
1.0038746
1.0035287
1.0007504
1.0007308
1.0007306
1.0007374
1.0007433
1.000749
1.0007561
1.0007634
1.0007721
1.0007814
1.0007917
1.0008026
1.0008145
1.0008276
1.0008418
1.0008561
1.0008705
1.0008866
1.0009018
1.0009181
1.0009347
1.0009528
1.0009714
1.0009917
1.0010129
1.0010335
1.0010558
1.0010788
1.0011024
1.0011281
1.0011535
1.0011789
1.0012069
1.0012337
1.0012608
1.0012888
1.0013158
1.0013442
1.0013713
1.0013996
1.0014272
1.0014556
1.0014849
1.0015109
1.0015387
1.0015654
1.001592
1.00162
1.0016472
1.0016762
1.001708
1.0017385
1.0017748
1.0018183
1.0018705
1.0019318
1.0020118
1.0021104
1.0020882
1.0020807
1.002041
1.0019856
1.0019031
1.0018104
1.0017244
1.0016393
1.0015321
1.0014479
1.0013602
1.0012712
1.0011702
1.001063
1.0009796
1.0008964
1.0008347
1.0007685
1.0006844
1.0005994
1.0006343
1.000697
1.0008326
1.0010431
1.0013428
1.0017138
1.0021206
1.0025451
1.0029922
1.003466
1.0039226
1.0042954
1.0046049
1.0049389
1.0053096
1.005562
1.0056325
1.0056086
1.0055543
1.0054476
1.0052316
1.0049042
1.0045603
1.0042128
1.0039181
1.0035893
1.0007501
1.0007314
1.0007314
1.0007373
1.0007434
1.0007489
1.0007559
1.0007635
1.0007724
1.0007816
1.0007916
1.0008024
1.0008149
1.0008278
1.000842
1.0008558
1.0008711
1.0008866
1.0009024
1.0009189
1.0009352
1.0009537
1.000973
1.0009925
1.0010135
1.0010351
1.001058
1.0010807
1.001105
1.0011299
1.001155
1.0011819
1.0012088
1.0012345
1.0012623
1.0012887
1.0013173
1.001346
1.0013748
1.0014038
1.0014322
1.0014629
1.0014938
1.0015217
1.001552
1.0015789
1.0016073
1.0016357
1.0016631
1.0016909
1.0017197
1.0017514
1.0017867
1.0018328
1.0018898
1.00195
1.0020336
1.002134
1.0020927
1.0020561
1.0020109
1.0019437
1.0018656
1.0017755
1.0016958
1.0015945
1.0014862
1.0014007
1.0013204
1.0012408
1.0011487
1.0010599
1.0009643
1.0008896
1.0008312
1.000759
1.0006848
1.000575
1.0006226
1.0006919
1.0008243
1.0010077
1.0012866
1.0016748
1.0020572
1.0024376
1.0028351
1.0032662
1.0037057
1.0040711
1.0043577
1.0046585
1.0050336
1.005347
1.0054421
1.0054372
1.0053948
1.0053183
1.0051976
1.0049772
1.0046488
1.0042973
1.0039844
1.0036398
1.0007514
1.0007313
1.0007304
1.000737
1.0007433
1.0007489
1.0007562
1.0007642
1.0007731
1.0007822
1.0007922
1.0008028
1.0008152
1.0008281
1.0008426
1.0008568
1.0008724
1.0008877
1.0009031
1.0009202
1.000937
1.000955
1.0009736
1.0009931
1.0010142
1.0010366
1.0010583
1.0010822
1.0011058
1.0011312
1.0011564
1.0011832
1.0012114
1.0012385
1.0012668
1.0012949
1.0013226
1.0013513
1.0013795
1.0014103
1.001441
1.0014705
1.0015023
1.0015319
1.0015626
1.0015912
1.0016212
1.0016487
1.0016759
1.0017027
1.0017331
1.0017658
1.0018034
1.001851
1.0019096
1.001974
1.0020636
1.0021338
1.0020858
1.0020414
1.0019807
1.0018982
1.0018132
1.0017294
1.0016518
1.0015416
1.001429
1.0013466
1.001266
1.0011884
1.0010992
1.0010093
1.0009252
1.000859
1.000801
1.0007319
1.0006512
1.0005847
1.0006268
1.0007079
1.0008803
1.0011249
1.0013876
1.0016719
1.0020121
1.002348
1.0026985
1.0030808
1.003497
1.0038751
1.0041461
1.0044137
1.004776
1.0051482
1.0052691
1.0052786
1.005266
1.0052026
1.005073
1.0049154
1.0047314
1.0044307
1.0040948
1.0037166
1.0007517
1.0007305
1.0007305
1.0007371
1.0007436
1.0007491
1.0007564
1.0007646
1.0007732
1.000782
1.000792
1.0008027
1.0008147
1.000828
1.0008421
1.0008574
1.0008725
1.0008887
1.0009045
1.0009212
1.000938
1.0009563
1.000975
1.0009954
1.0010158
1.0010381
1.0010603
1.0010843
1.0011091
1.001135
1.0011613
1.0011886
1.0012178
1.0012447
1.0012724
1.0013011
1.0013281
1.0013561
1.0013834
1.0014146
1.0014443
1.0014759
1.0015106
1.0015423
1.001575
1.0016061
1.0016341
1.0016635
1.0016902
1.0017175
1.0017496
1.0017847
1.0018222
1.0018686
1.0019299
1.0020055
1.002091
1.0020908
1.0020684
1.0020225
1.001943
1.001845
1.0017571
1.0016731
1.0015914
1.0014799
1.0013719
1.0012913
1.0012135
1.0011313
1.0010391
1.0009504
1.0008818
1.0008214
1.0007753
1.0007074
1.0006224
1.0006228
1.0006272
1.00071
1.0008728
1.0011203
1.0013853
1.0016638
1.0019863
1.0022778
1.002578
1.0029117
1.0032891
1.0036625
1.0039495
1.0042006
1.0045236
1.0049267
1.0051126
1.0051382
1.005144
1.0051163
1.0050418
1.0048833
1.0046326
1.0044031
1.0041918
1.0038223
1.0007514
1.0007312
1.0007305
1.000737
1.0007436
1.00075
1.0007566
1.0007647
1.0007732
1.0007826
1.0007919
1.0008027
1.0008149
1.000828
1.0008424
1.0008574
1.0008729
1.0008891
1.0009054
1.0009221
1.0009392
1.0009577
1.0009763
1.0009971
1.0010173
1.0010398
1.0010626
1.0010875
1.0011122
1.001138
1.0011644
1.0011924
1.0012204
1.0012482
1.0012761
1.0013049
1.0013311
1.00136
1.0013875
1.00142
1.0014492
1.0014848
1.0015159
1.0015516
1.0015827
1.0016154
1.0016438
1.0016738
1.0016992
1.001728
1.0017592
1.0017955
1.0018373
1.0018894
1.0019614
1.0020371
1.0020993
1.0020787
1.0020501
1.0019945
1.001898
1.0017913
1.0016972
1.0016128
1.0015302
1.001412
1.0013146
1.0012383
1.001158
1.0010825
1.0009848
1.0009026
1.0008357
1.000786
1.0007356
1.0006587
1.0006295
1.0006066
1.0006342
1.000745
1.0009516
1.0012269
1.0015139
1.0017649
1.0019899
1.0022281
1.0024786
1.0027603
1.0030914
1.003442
1.0037401
1.003987
1.0042663
1.0046378
1.0049507
1.0050074
1.0050137
1.0050017
1.004943
1.0047967
1.0046205
1.0043398
1.0041098
1.0038516
1.0007514
1.0007309
1.0007302
1.0007367
1.0007433
1.0007489
1.0007559
1.0007646
1.0007732
1.0007831
1.0007929
1.0008038
1.0008158
1.0008286
1.0008427
1.0008577
1.0008734
1.0008892
1.0009058
1.0009225
1.0009399
1.0009582
1.0009779
1.0009985
1.0010193
1.001042
1.0010648
1.0010896
1.0011138
1.00114
1.0011667
1.0011946
1.0012219
1.0012495
1.0012786
1.0013047
1.0013331
1.0013629
1.0013909
1.0014243
1.0014537
1.0014883
1.0015216
1.0015555
1.0015893
1.0016199
1.0016488
1.0016796
1.0017063
1.0017373
1.0017674
1.0018091
1.0018531
1.0019141
1.002003
1.0020421
1.0020775
1.002046
1.0020155
1.0019498
1.0018375
1.001734
1.0016388
1.0015525
1.001456
1.0013431
1.0012512
1.0011789
1.0011065
1.0010292
1.0009427
1.0008657
1.0008038
1.0007543
1.0007
1.0006298
1.0005726
1.0006224
1.000658
1.0007443
1.0009529
1.0012309
1.0015124
1.0017625
1.0019979
1.0021975
1.0024042
1.0026379
1.0029164
1.0032282
1.0035222
1.0037685
1.0040131
1.0043285
1.0046746
1.0048567
1.0048692
1.0048626
1.0048016
1.0046549
1.0044443
1.0042507
1.0040643
1.0038722
1.0007517
1.0007312
1.0007298
1.0007363
1.0007425
1.0007486
1.0007559
1.0007646
1.0007738
1.000783
1.0007931
1.0008039
1.0008159
1.0008291
1.0008432
1.0008583
1.000874
1.00089
1.0009067
1.0009234
1.000941
1.0009593
1.0009788
1.0009994
1.0010203
1.0010432
1.0010666
1.0010911
1.0011151
1.0011417
1.0011678
1.001195
1.0012221
1.0012504
1.0012788
1.0013066
1.0013361
1.0013654
1.001394
1.0014264
1.0014561
1.0014899
1.0015234
1.0015561
1.0015906
1.0016193
1.0016503
1.0016791
1.0017066
1.0017388
1.0017739
1.0018211
1.0018737
1.0019505
1.0020494
1.0020346
1.0020345
1.0019999
1.0019634
1.0018833
1.0017602
1.0016695
1.0015738
1.0014832
1.0013742
1.0012695
1.0011893
1.0011192
1.0010465
1.000968
1.0008902
1.0008249
1.0007642
1.0007113
1.0006599
1.0005976
1.0006027
1.0006135
1.0006561
1.0008067
1.0010565
1.0013606
1.0016263
1.0018297
1.0019989
1.0021749
1.0023504
1.0025436
1.0027721
1.0030384
1.0033147
1.003557
1.0037738
1.00403
1.0043579
1.0046226
1.0046948
1.0046901
1.0046396
1.004528
1.0044008
1.004229
1.0039805
1.0037702
1.0007507
1.0007315
1.0007304
1.0007367
1.0007428
1.0007489
1.0007564
1.0007648
1.0007737
1.000783
1.0007935
1.0008043
1.0008158
1.0008289
1.0008431
1.0008585
1.0008745
1.0008912
1.0009075
1.0009249
1.0009422
1.0009612
1.0009803
1.0010009
1.001022
1.0010446
1.0010674
1.0010923
1.0011162
1.001142
1.0011671
1.0011951
1.0012223
1.0012511
1.0012799
1.0013085
1.001338
1.0013682
1.0013967
1.0014283
1.0014574
1.0014903
1.0015239
1.0015548
1.0015885
1.0016173
1.0016499
1.0016791
1.0017105
1.0017477
1.0017897
1.001842
1.0019061
1.0019859
1.002079
1.002024
1.0019754
1.0019443
1.0018964
1.0017986
1.0016774
1.0015914
1.0015032
1.0013972
1.0012955
1.001194
1.0011237
1.0010584
1.0009797
1.0009021
1.000827
1.0007718
1.0007223
1.0006691
1.0006068
1.0005494
1.0005755
1.0006308
1.0007056
1.0008235
1.0010518
1.0013558
1.0016246
1.0018314
1.002004
1.0021582
1.002308
1.0024692
1.0026548
1.002876
1.0031232
1.0033556
1.0035547
1.0037668
1.0040507
1.0043574
1.0044927
1.0045056
1.0044837
1.0044221
1.0043073
1.0041234
1.0039491
1.0037657
1.0007507
1.0007311
1.0007304
1.0007366
1.0007428
1.0007488
1.0007564
1.0007646
1.0007736
1.0007831
1.0007939
1.0008046
1.0008164
1.0008293
1.0008435
1.0008589
1.0008752
1.0008918
1.0009091
1.0009269
1.0009441
1.0009627
1.0009821
1.0010023
1.0010233
1.0010463
1.0010683
1.0010929
1.0011173
1.0011436
1.001169
1.0011979
1.0012246
1.0012538
1.0012803
1.0013121
1.0013407
1.0013722
1.0014018
1.0014336
1.0014619
1.0014923
1.0015255
1.0015552
1.001589
1.0016183
1.0016522
1.0016854
1.0017208
1.0017642
1.0018145
1.0018717
1.0019432
1.0020308
1.0020428
1.001966
1.0019054
1.0018721
1.0018042
1.0016914
1.0015826
1.0014979
1.0014102
1.0013065
1.0012074
1.0011171
1.0010582
1.0009884
1.00091
1.000828
1.0007645
1.00071
1.000669
1.0006217
1.0005509
1.0004535
1.0005464
1.0006253
1.0007035
1.0008865
1.0011831
1.0014615
1.0017015
1.0018679
1.0020074
1.0021429
1.0022729
1.0024087
1.0025597
1.0027398
1.0029536
1.0031724
1.0033598
1.0035347
1.0037675
1.0040842
1.0042899
1.0043214
1.0043216
1.0042975
1.004222
1.0041053
1.0039491
1.0037476
1.0007507
1.0007309
1.0007299
1.0007363
1.0007429
1.0007486
1.0007564
1.0007643
1.0007739
1.0007831
1.0007938
1.0008043
1.0008164
1.000829
1.0008438
1.0008591
1.0008759
1.0008924
1.0009098
1.0009279
1.0009457
1.0009642
1.0009832
1.0010035
1.0010246
1.0010474
1.0010695
1.0010933
1.0011176
1.0011437
1.0011701
1.0011992
1.0012261
1.0012555
1.0012844
1.0013162
1.0013461
1.0013758
1.0014064
1.0014372
1.0014681
1.0014992
1.0015325
1.0015625
1.0015965
1.0016297
1.0016637
1.001701
1.0017407
1.0017899
1.0018473
1.0019059
1.0019731
1.0020401
1.0020037
1.0019071
1.0018455
1.001798
1.0017048
1.0015807
1.001479
1.0013989
1.0013034
1.001211
1.0011154
1.0010459
1.0009837
1.0009126
1.0008357
1.0007656
1.0007077
1.000663
1.000625
1.0005655
1.0005193
1.0005313
1.000573
1.0006509
1.0007911
1.0009558
1.0011864
1.0014656
1.0016982
1.0018663
1.0020062
1.0021271
1.0022403
1.0023566
1.0024821
1.0026277
1.0028069
1.0030081
1.0031905
1.0033428
1.0035251
1.0038214
1.0040868
1.004153
1.0041612
1.0041587
1.0041272
1.0040417
1.0038731
1.0036953
1.000751
1.0007305
1.0007296
1.0007359
1.0007425
1.0007486
1.0007562
1.0007645
1.0007739
1.0007832
1.0007937
1.0008042
1.0008164
1.0008295
1.0008441
1.0008596
1.0008762
1.0008933
1.000911
1.000928
1.0009461
1.0009643
1.0009843
1.0010043
1.0010258
1.0010477
1.001071
1.0010946
1.0011202
1.001146
1.0011728
1.0012018
1.0012299
1.0012586
1.0012891
1.0013191
1.0013505
1.0013789
1.0014116
1.0014415
1.0014752
1.0015069
1.0015403
1.0015728
1.0016079
1.0016433
1.0016779
1.0017203
1.0017632
1.0018203
1.0018912
1.0019444
1.002
1.002002
1.0019235
1.0018302
1.0017763
1.0017146
1.0015922
1.0014642
1.0013808
1.0012954
1.0011981
1.001115
1.0010319
1.0009676
1.0009059
1.0008372
1.0007637
1.0007056
1.0006559
1.0006183
1.0005765
1.0005229
1.0005238
1.0005443
1.0006033
1.0007116
1.0008819
1.0010715
1.0013082
1.0015675
1.0017351
1.001875
1.0020027
1.002109
1.0022047
1.002305
1.002411
1.0025297
1.0026772
1.0028576
1.0030379
1.0031794
1.0033209
1.0035721
1.0038763
1.0039893
1.004004
1.0040074
1.0039983
1.0039455
1.0038346
1.0036901
1.0007515
1.00073
1.0007296
1.000736
1.0007424
1.0007485
1.0007558
1.0007644
1.0007738
1.0007831
1.0007936
1.0008044
1.0008166
1.0008298
1.0008447
1.0008603
1.0008771
1.0008943
1.0009116
1.0009292
1.0009472
1.0009653
1.0009851
1.0010051
1.0010267
1.0010488
1.0010725
1.0010962
1.0011216
1.0011485
1.0011751
1.0012039
1.0012325
1.0012618
1.001293
1.0013221
1.001355
1.001384
1.0014189
1.0014486
1.0014839
1.0015168
1.0015496
1.0015844
1.0016211
1.0016595
1.0016958
1.0017425
1.0017945
1.0018488
1.001932
1.0019911
1.0019716
1.0019536
1.0018509
1.0017244
1.0016622
1.0015974
1.0014686
1.0013535
1.0012741
1.0011903
1.0011017
1.0010205
1.0009481
1.0008866
1.0008244
1.0007557
1.0006928
1.0006486
1.0006065
1.0005698
1.0005252
1.0005165
1.0005281
1.0005719
1.000659
1.0007935
1.0009865
1.0012016
1.0013834
1.0015749
1.0017342
1.0018765
1.0019962
1.0020875
1.0021652
1.0022493
1.0023412
1.0024381
1.0025573
1.0027149
1.0028897
1.0030304
1.003149
1.0033422
1.0036546
1.003834
1.003856
1.0038648
1.0038555
1.0038335
1.0037521
1.0036256
1.0007521
1.00073
1.0007296
1.0007358
1.0007419
1.0007484
1.0007555
1.0007643
1.0007735
1.0007832
1.0007938
1.0008046
1.000817
1.0008303
1.0008453
1.0008608
1.0008781
1.0008951
1.0009125
1.0009297
1.0009481
1.0009665
1.0009859
1.0010062
1.0010275
1.0010507
1.0010741
1.0010981
1.0011239
1.0011517
1.0011787
1.0012078
1.0012372
1.001266
1.001298
1.001327
1.0013608
1.0013904
1.0014253
1.0014576
1.0014937
1.0015285
1.0015632
1.0015992
1.0016371
1.0016784
1.0017173
1.0017679
1.0018286
1.0018854
1.0019621
1.0019197
1.0019085
1.0018783
1.001776
1.0016244
1.0015382
1.0014694
1.0013543
1.001242
1.0011601
1.0010795
1.0010052
1.0009288
1.0008615
1.0008001
1.0007315
1.0006676
1.0006238
1.0005825
1.0005517
1.0005277
1.0004803
1.0005068
1.0005303
1.0006143
1.000742
1.0009227
1.0011079
1.001295
1.0014883
1.0016832
1.001791
1.0018794
1.0019869
1.002066
1.0021248
1.0021946
1.002275
1.0023543
1.0024478
1.0025819
1.002747
1.0028922
1.0029985
1.0031489
1.0034311
1.0036639
1.0037123
1.0037181
1.0037053
1.0036986
1.0036434
1.0035364
1.0007526
1.00073
1.0007303
1.0007359
1.0007414
1.0007477
1.000755
1.0007642
1.0007731
1.0007831
1.000794
1.0008051
1.0008178
1.0008311
1.000846
1.000862
1.0008786
1.0008957
1.0009132
1.0009307
1.0009484
1.0009677
1.0009869
1.0010078
1.0010292
1.0010524
1.0010766
1.0011015
1.0011274
1.0011557
1.0011831
1.0012116
1.0012421
1.0012712
1.0013023
1.0013332
1.001368
1.0013988
1.0014343
1.0014701
1.0015051
1.0015427
1.0015803
1.0016193
1.0016575
1.0017006
1.0017424
1.0017978
1.001861
1.0019158
1.001971
1.00187
1.001797
1.0017618
1.001661
1.0015031
1.0013982
1.0013348
1.0012346
1.0011237
1.0010383
1.0009668
1.0009016
1.0008322
1.0007697
1.0007044
1.0006408
1.00059
1.0005604
1.0005338
1.0005048
1.0004749
1.0004893
1.0005344
1.0005787
1.000695
1.0008609
1.0010462
1.0012313
1.0014086
1.0015273
1.001691
1.0017906
1.0018691
1.0019769
1.00204
1.00208
1.0021364
1.0022082
1.0022723
1.0023416
1.0024528
1.0026073
1.0027553
1.0028532
1.0029825
1.0032408
1.0034833
1.0035544
1.003552
1.0035575
1.0035503
1.0035188
1.0034512
1.0007533
1.0007305
1.0007302
1.0007357
1.0007412
1.0007471
1.0007542
1.0007634
1.0007726
1.0007828
1.0007934
1.0008054
1.0008178
1.0008319
1.0008465
1.0008628
1.0008793
1.0008963
1.0009133
1.000931
1.0009491
1.0009683
1.0009882
1.0010091
1.0010311
1.0010547
1.0010781
1.0011044
1.0011299
1.0011583
1.0011864
1.0012152
1.0012467
1.0012759
1.0013084
1.0013408
1.0013751
1.0014082
1.0014447
1.0014832
1.0015189
1.0015582
1.0015981
1.0016372
1.0016764
1.0017215
1.0017667
1.0018294
1.0018937
1.0019468
1.0019334
1.0018356
1.0016841
1.0016239
1.0015103
1.0013488
1.0012519
1.0011909
1.0011008
1.000999
1.0009165
1.0008544
1.0007938
1.0007304
1.000669
1.0006088
1.0005602
1.000527
1.0005064
1.000484
1.0004642
1.0004828
1.0005012
1.0005863
1.0006614
1.0008177
1.0010119
1.0011798
1.0013381
1.001501
1.0015887
1.0017496
1.0018188
1.001857
1.0019655
1.0020053
1.002031
1.0020752
1.0021431
1.0021953
1.002241
1.0023294
1.0024737
1.0026175
1.0027035
1.0028291
1.0030767
1.003323
1.0033886
1.0033926
1.0033932
1.00339
1.0033767
1.0033515
1.0007538
1.0007311
1.0007305
1.0007359
1.0007406
1.0007463
1.0007536
1.0007627
1.0007721
1.0007822
1.0007933
1.0008053
1.0008179
1.0008323
1.0008471
1.0008632
1.0008798
1.0008974
1.0009146
1.0009323
1.0009504
1.0009695
1.0009893
1.0010109
1.001033
1.0010566
1.0010814
1.0011077
1.0011337
1.001162
1.0011906
1.0012198
1.0012503
1.001282
1.0013137
1.0013477
1.0013831
1.0014187
1.0014572
1.0014958
1.0015352
1.0015741
1.0016154
1.0016568
1.0016964
1.0017429
1.0017902
1.0018705
1.0018864
1.0019243
1.001887
1.0017562
1.0015666
1.0014736
1.0013396
1.001187
1.0011053
1.0010412
1.0009606
1.0008747
1.0008037
1.0007479
1.0006845
1.0006254
1.0005757
1.0005297
1.0005022
1.0004814
1.0004639
1.0004603
1.0004673
1.0005048
1.0005399
1.0006959
1.0007666
1.0009948
1.0011386
1.0013158
1.0014153
1.0015716
1.0016169
1.0017626
1.0017998
1.0018321
1.0019355
1.0019362
1.001974
1.0020027
1.0020754
1.0021153
1.0021453
1.0022118
1.0023442
1.0024796
1.0025533
1.0026766
1.0029185
1.003168
1.0032177
1.0032253
1.0032326
1.0032295
1.0032152
1.0032242
1.000754
1.0007311
1.0007316
1.0007359
1.0007406
1.0007458
1.0007533
1.0007618
1.0007717
1.0007818
1.0007929
1.0008049
1.0008188
1.0008326
1.000848
1.0008637
1.0008811
1.0008975
1.0009158
1.0009334
1.0009518
1.0009707
1.0009913
1.0010127
1.001035
1.0010591
1.0010839
1.0011105
1.0011374
1.0011662
1.0011948
1.0012253
1.0012547
1.0012875
1.0013199
1.0013556
1.0013918
1.0014296
1.0014709
1.0015099
1.0015526
1.0015921
1.0016344
1.001675
1.0017177
1.0017637
1.001814
1.0018873
1.0019298
1.0018705
1.0018184
1.0016597
1.0014475
1.0012994
1.0011699
1.0010348
1.0009663
1.0008919
1.0008307
1.0007556
1.0006969
1.0006434
1.0005803
1.0005339
1.0005003
1.0004718
1.000457
1.0004436
1.0004426
1.0004508
1.0004756
1.0005487
1.0006257
1.0008254
1.0009203
1.0011612
1.0012755
1.0014148
1.0014907
1.0016492
1.0016382
1.0017392
1.0017576
1.0017861
1.0018708
1.0018647
1.0019098
1.0019192
1.0020165
1.0019961
1.0020474
1.0020983
1.0022124
1.0023419
1.0024048
1.0025135
1.0027519
1.0030126
1.0030639
1.0030803
1.003066
1.0030608
1.0030591
1.0030837
1.0007538
1.0007324
1.0007317
1.0007364
1.0007408
1.0007456
1.0007529
1.0007614
1.0007711
1.0007817
1.000793
1.0008054
1.000819
1.0008332
1.0008489
1.0008648
1.000882
1.0008988
1.0009166
1.0009341
1.0009532
1.0009723
1.0009929
1.0010152
1.0010378
1.0010624
1.001087
1.0011144
1.0011404
1.0011703
1.0011982
1.0012297
1.0012592
1.0012942
1.0013265
1.0013646
1.0014019
1.0014427
1.0014853
1.0015271
1.0015701
1.0016109
1.0016529
1.0016925
1.0017367
1.0017856
1.0018284
1.0018818
1.0018818
1.0018088
1.0016906
1.0015151
1.0012913
1.0011058
1.0009991
1.0008908
1.0008302
1.0007559
1.0007109
1.0006459
1.0005911
1.000549
1.0004988
1.0004663
1.0004453
1.0004304
1.0004234
1.0004227
1.0004308
1.0004632
1.0005282
1.0006324
1.0007641
1.0009524
1.0010911
1.0012493
1.0014256
1.0014589
1.0015606
1.00168
1.0016876
1.0017372
1.0017153
1.0017448
1.0018015
1.0018221
1.0018387
1.0018507
1.0019051
1.0019161
1.0019564
1.0019878
1.0020779
1.0022033
1.0022656
1.0023491
1.0025524
1.0028472
1.0029149
1.0029233
1.0029222
1.0029242
1.0029127
1.0029405
1.0007534
1.0007329
1.0007327
1.000737
1.000741
1.0007455
1.0007522
1.0007607
1.0007703
1.0007815
1.000793
1.000806
1.0008195
1.0008341
1.00085
1.000866
1.0008833
1.0009002
1.000918
1.0009357
1.0009549
1.0009746
1.0009954
1.0010178
1.0010406
1.0010656
1.0010905
1.0011183
1.0011449
1.0011743
1.001203
1.001235
1.0012657
1.0013016
1.0013352
1.0013754
1.001414
1.0014572
1.0015001
1.0015442
1.0015873
1.0016292
1.0016699
1.0017103
1.0017577
1.0018075
1.0018263
1.0018605
1.0018137
1.0017073
1.0015204
1.0013456
1.0010916
1.0009258
1.0008345
1.0007515
1.0007027
1.0006345
1.0006004
1.0005437
1.0004987
1.0004639
1.0004379
1.0004113
1.0004013
1.0003961
1.0003981
1.0004113
1.0004398
1.0005134
1.0006225
1.000755
1.0009311
1.0010921
1.0012285
1.0013648
1.0014794
1.001514
1.0016163
1.0017022
1.0017004
1.0017105
1.0017143
1.0017167
1.0017427
1.0017759
1.0017437
1.0017738
1.0018252
1.0018144
1.0018764
1.0018795
1.0019483
1.0020754
1.0021394
1.002197
1.0023471
1.002609
1.002768
1.0027765
1.0027934
1.0027769
1.0027697
1.0028037
1.0007531
1.0007334
1.0007333
1.0007376
1.0007412
1.0007452
1.0007516
1.0007601
1.0007696
1.0007813
1.0007931
1.0008065
1.00082
1.0008348
1.0008512
1.0008674
1.0008848
1.0009014
1.00092
1.0009375
1.0009572
1.0009771
1.0009976
1.0010204
1.0010438
1.0010693
1.0010946
1.0011228
1.0011502
1.0011804
1.001209
1.0012426
1.001274
1.0013108
1.0013464
1.0013874
1.0014279
1.0014717
1.001516
1.0015616
1.0016033
1.0016456
1.0016848
1.0017236
1.0017782
1.0017782
1.0017887
1.0017646
1.0016974
1.0015602
1.0013209
1.0011468
1.0008762
1.0007834
1.0006914
1.0006293
1.0005888
1.0005329
1.0005006
1.0004589
1.0004225
1.0003921
1.0003854
1.000373
1.000369
1.0003706
1.0003828
1.0004269
1.0004956
1.0006071
1.0007532
1.0008975
1.0010763
1.0012089
1.0013248
1.00144
1.0015031
1.0015579
1.001636
1.0016597
1.0016829
1.0016876
1.0016726
1.0016812
1.0016948
1.0017114
1.0017025
1.0017121
1.0017461
1.0017486
1.0017882
1.0017909
1.0018323
1.0019528
1.0020403
1.0020717
1.0021628
1.002377
1.0025988
1.0026472
1.0026718
1.0026264
1.002643
1.0026852
1.0007526
1.0007343
1.0007344
1.0007379
1.0007416
1.0007453
1.000751
1.0007595
1.0007691
1.000781
1.000793
1.0008067
1.0008209
1.0008359
1.0008525
1.0008686
1.0008865
1.0009031
1.0009216
1.00094
1.0009591
1.0009798
1.0010007
1.001024
1.0010477
1.0010742
1.0011
1.0011285
1.0011564
1.0011872
1.0012167
1.0012509
1.0012835
1.0013216
1.0013581
1.0014002
1.0014427
1.0014865
1.0015307
1.0015761
1.0016209
1.0016622
1.0016962
1.0017383
1.0017408
1.0017248
1.0016958
1.0016673
1.0015391
1.0013624
1.0010864
1.0009139
1.0006969
1.0006552
1.0005663
1.0005188
1.0004902
1.0004412
1.0004102
1.0003682
1.0003612
1.0003426
1.0003392
1.000336
1.0003398
1.000357
1.0003989
1.0004829
1.0005948
1.0007359
1.0009019
1.0010341
1.0012059
1.0012902
1.0014045
1.0014705
1.0015216
1.001598
1.0016332
1.0016418
1.0016511
1.0016505
1.0016537
1.001617
1.0016555
1.0016445
1.0016554
1.001649
1.0016759
1.001674
1.0017029
1.0017016
1.0017254
1.0018452
1.0019405
1.0019604
1.0020108
1.002176
1.002426
1.0024796
1.0025239
1.0025141
1.0025271
1.0025703
1.0007524
1.0007347
1.0007351
1.0007385
1.0007421
1.0007453
1.0007507
1.0007588
1.0007686
1.0007807
1.0007934
1.0008069
1.0008218
1.0008367
1.000854
1.00087
1.000888
1.0009051
1.0009235
1.0009427
1.0009616
1.000983
1.0010047
1.001028
1.0010537
1.0010791
1.0011061
1.0011347
1.0011634
1.0011948
1.0012254
1.0012602
1.0012938
1.0013331
1.0013711
1.0014141
1.0014578
1.0015006
1.0015436
1.0015851
1.0016317
1.0016807
1.0016849
1.001657
1.0017023
1.0016433
1.0015879
1.0015291
1.0013328
1.0011186
1.0008418
1.000695
1.0005629
1.0005259
1.0004519
1.0004251
1.0004002
1.0003556
1.0003258
1.0003063
1.0003005
1.0002985
1.0002979
1.0003054
1.0003275
1.0003824
1.0004649
1.0005884
1.0007198
1.0008782
1.0010251
1.0011502
1.0012815
1.00135
1.0014386
1.0014857
1.0015428
1.0015835
1.0015942
1.0016064
1.0016044
1.0016115
1.0015969
1.0015972
1.0015995
1.0015974
1.0015981
1.0016003
1.0016153
1.0015859
1.0016153
1.0016127
1.0016299
1.0017518
1.0018051
1.0018614
1.0018785
1.0020033
1.0022556
1.0023788
1.002405
1.0024064
1.0023966
1.0024374
1.0007526
1.0007348
1.0007353
1.0007388
1.0007422
1.0007452
1.0007503
1.0007581
1.0007681
1.0007803
1.0007936
1.0008072
1.0008228
1.000838
1.0008553
1.0008716
1.0008896
1.0009073
1.0009254
1.0009455
1.0009647
1.0009865
1.0010098
1.001033
1.0010594
1.001085
1.0011128
1.0011424
1.0011714
1.0012041
1.001235
1.0012713
1.0013057
1.001345
1.0013849
1.0014276
1.0014721
1.0015137
1.0015528
1.0015932
1.0016126
1.001629
1.0016185
1.0015653
1.0015881
1.0015184
1.0014423
1.0013441
1.0010784
1.0008545
1.0006119
1.0005094
1.0004484
1.0004019
1.0003442
1.0003332
1.0003072
1.0002747
1.0002665
1.000259
1.0002555
1.0002578
1.0002681
1.0002987
1.0003589
1.0004543
1.0005697
1.0007172
1.0008549
1.0010083
1.0011265
1.0012386
1.0013207
1.0013937
1.0014408
1.0015058
1.0015333
1.0015501
1.0015531
1.0015617
1.0015517
1.001551
1.0015538
1.001551
1.0015198
1.0015338
1.0015174
1.0015382
1.0015309
1.0015361
1.0015347
1.001537
1.0015541
1.0016669
1.0016847
1.0017688
1.001744
1.0018764
1.0020969
1.0022315
1.0022604
1.0022827
1.0022703
1.0023229
1.0007529
1.000735
1.0007353
1.0007384
1.0007418
1.0007451
1.00075
1.0007576
1.0007678
1.0007801
1.000794
1.0008078
1.0008239
1.0008392
1.0008567
1.0008733
1.0008914
1.0009099
1.0009281
1.0009488
1.0009687
1.0009905
1.0010146
1.0010384
1.0010652
1.001092
1.0011198
1.0011506
1.0011802
1.0012137
1.0012461
1.0012826
1.0013187
1.0013571
1.0013972
1.00144
1.0014847
1.0015219
1.0015644
1.0015677
1.0015478
1.001538
1.0015189
1.0014659
1.0014364
1.0013625
1.0012612
1.0011065
1.0008184
1.0006148
1.0004326
1.0003677
1.0003358
1.0002918
1.0002564
1.0002474
1.0002252
1.0002183
1.0002123
1.0002138
1.0002202
1.0002341
1.0002731
1.000343
1.0004395
1.000564
1.0006962
1.0008428
1.0009735
1.001101
1.0011973
1.0012802
1.0013459
1.0013989
1.0014383
1.0014925
1.0015016
1.0015088
1.0015116
1.0015024
1.0015054
1.0015007
1.0015011
1.0014996
1.0014948
1.0014845
1.0014559
1.00147
1.0014655
1.001462
1.0014557
1.001467
1.0014898
1.0015857
1.0015705
1.0016612
1.0016461
1.0017998
1.0019476
1.0020744
1.0020862
1.0021392
1.0021194
1.0021865
1.0007531
1.000735
1.0007354
1.0007384
1.0007415
1.0007451
1.0007499
1.0007577
1.0007679
1.0007802
1.0007946
1.0008087
1.0008249
1.0008406
1.0008583
1.0008751
1.0008935
1.0009126
1.0009312
1.0009521
1.000973
1.0009952
1.00102
1.0010442
1.0010712
1.0010998
1.0011277
1.0011597
1.0011899
1.0012237
1.001258
1.0012934
1.0013306
1.0013675
1.0014064
1.0014499
1.0014979
1.0015194
1.0015085
1.0015044
1.0014714
1.0014391
1.0013972
1.0013447
1.0012824
1.0011853
1.0010446
1.0008186
1.000572
1.0004125
1.0002923
1.0002576
1.0002255
1.0001964
1.0001765
1.0001734
1.0001656
1.0001648
1.0001643
1.0001725
1.0001976
1.0002465
1.0003252
1.0004297
1.0005517
1.0006871
1.0008224
1.0009525
1.0010652
1.0011616
1.0012395
1.0012967
1.0013561
1.0013905
1.0014275
1.0014611
1.0014664
1.001466
1.0014684
1.0014583
1.0014603
1.0014583
1.0014553
1.0014336
1.0014312
1.0014228
1.0013786
1.0013698
1.0013873
1.0013914
1.0013923
1.001397
1.0014451
1.0014915
1.0014967
1.0015591
1.0015851
1.0017635
1.0018018
1.0019188
1.0019318
1.0019826
1.0019807
1.002033
1.0007529
1.000735
1.0007355
1.0007384
1.0007415
1.0007452
1.0007503
1.000758
1.0007681
1.0007804
1.0007951
1.0008096
1.0008261
1.0008421
1.0008599
1.0008772
1.000896
1.0009153
1.0009349
1.0009557
1.0009772
1.0010001
1.0010252
1.0010505
1.001078
1.0011075
1.0011364
1.0011689
1.0012004
1.0012337
1.001269
1.0013025