/*--------------------------------*- C++ -*----------------------------------*\
| =========                 |                                                 |
| \\      /  F ield         | OpenFOAM: The Open Source CFD Toolbox           |
|  \\    /   O peration     | Version:  2406                                  |
|   \\  /    A nd           | Website:  www.openfoam.com                      |
|    \\/     M anipulation  |                                                 |
\*---------------------------------------------------------------------------*/
FoamFile
{
    version     2.0;
    format      ascii;
    arch        "LSB;label=32;scalar=64";
    class       volScalarField;
    location    "170";
    object      k_0;
}
// * * * * * * * * * * * * * * * * * * * * * * * * * * * * * * * * * * * * * //

dimensions      [0 2 -2 0 0 0 0];

internalField   nonuniform List<scalar> 
20580
(
3.1786884e-06
2.4273433e-06
1.9146091e-06
1.5667578e-06
1.3335761e-06
1.1640013e-06
1.0328427e-06
9.3360997e-07
8.5411641e-07
7.8955086e-07
7.3365565e-07
6.8584326e-07
6.4328621e-07
6.0564222e-07
5.7377223e-07
5.4654372e-07
5.2717864e-07
5.1121779e-07
4.992544e-07
4.9193315e-07
4.8456288e-07
4.7737303e-07
4.7598212e-07
4.8163996e-07
4.988396e-07
5.1520704e-07
5.3335818e-07
5.2914767e-07
5.2483903e-07
5.5381612e-07
6.0064914e-07
3.1957118e-06
2.4893701e-06
1.9906166e-06
1.6271302e-06
1.3708653e-06
1.1870858e-06
1.0467781e-06
9.4320563e-07
8.6173816e-07
7.9492191e-07
7.3854976e-07
6.8986296e-07
6.4755952e-07
6.1148931e-07
5.7619526e-07
5.5200851e-07
5.3019143e-07
5.1596331e-07
5.0557716e-07
4.9767537e-07
4.9319823e-07
4.8829797e-07
4.8919281e-07
4.9638852e-07
5.1522182e-07
5.52065e-07
5.9177005e-07
6.3591769e-07
6.5886967e-07
6.6850491e-07
6.5038623e-07
3.2015277e-06
2.5120588e-06
2.061214e-06
1.7305705e-06
1.4614913e-06
1.2486661e-06
1.087636e-06
9.7092436e-07
8.8167798e-07
8.0954289e-07
7.506829e-07
6.9988059e-07
6.5615653e-07
6.2002179e-07
5.8217182e-07
5.5740315e-07
5.3370436e-07
5.165684e-07
5.0720537e-07
4.9684565e-07
4.9118622e-07
4.8798829e-07
4.8846755e-07
4.9415042e-07
5.0944325e-07
5.4890517e-07
5.8776079e-07
6.375052e-07
6.7108002e-07
7.4101767e-07
7.7715324e-07
3.2115611e-06
2.5310509e-06
2.0888356e-06
1.8024398e-06
1.5707629e-06
1.3717005e-06
1.1962432e-06
1.0530304e-06
9.4014712e-07
8.5340915e-07
7.8502601e-07
7.2840546e-07
6.7854177e-07
6.3887943e-07
5.972663e-07
5.6777606e-07
5.413712e-07
5.2022461e-07
5.1032342e-07
4.9779661e-07
4.9035298e-07
4.8760233e-07
4.8697815e-07
4.9096835e-07
5.0379555e-07
5.3792992e-07
5.8643802e-07
6.3915224e-07
6.7042982e-07
7.1153897e-07
7.8714943e-07
3.2300131e-06
2.5765022e-06
2.101349e-06
1.8296564e-06
1.6352978e-06
1.4702443e-06
1.3174511e-06
1.1812698e-06
1.059763e-06
9.6018584e-07
8.7491113e-07
8.0554956e-07
7.4090773e-07
6.8798666e-07
6.3796713e-07
5.9559631e-07
5.624735e-07
5.3294578e-07
5.1792873e-07
5.0222203e-07
4.9222979e-07
4.9006643e-07
4.8872191e-07
4.9205766e-07
5.058526e-07
5.3612724e-07
5.8518468e-07
6.5487464e-07
7.0781354e-07
7.5837203e-07
7.9211329e-07
3.2461189e-06
2.6451141e-06
2.1256098e-06
1.8456953e-06
1.6556439e-06
1.5018984e-06
1.3682435e-06
1.2500466e-06
1.1405407e-06
1.043529e-06
9.5521492e-07
8.7643545e-07
8.0343135e-07
7.3769753e-07
6.8179021e-07
6.2886824e-07
5.9149612e-07
5.5883831e-07
5.367074e-07
5.163655e-07
5.005639e-07
4.9620296e-07
4.9098866e-07
4.9152186e-07
5.0440345e-07
5.3078556e-07
5.7169613e-07
6.5582903e-07
7.1488629e-07
8.3911206e-07
8.6289129e-07
3.2594523e-06
2.7168287e-06
2.1658741e-06
1.8498586e-06
1.6474687e-06
1.4893191e-06
1.3623154e-06
1.2512935e-06
1.1500245e-06
1.0562886e-06
9.7211952e-07
8.9075299e-07
8.1822114e-07
7.4952945e-07
6.9483797e-07
6.4031191e-07
6.0185833e-07
5.7307925e-07
5.494975e-07
5.304227e-07
5.1646751e-07
5.1055601e-07
4.966394e-07
4.8981105e-07
4.975232e-07
5.1283371e-07
5.3597994e-07
6.1276571e-07
6.8418645e-07
8.1241223e-07
9.2596888e-07
3.2734949e-06
2.7255073e-06
2.158969e-06
1.8203365e-06
1.5860471e-06
1.4088753e-06
1.283715e-06
1.1854985e-06
1.0988749e-06
1.0109428e-06
9.360877e-07
8.5925646e-07
7.9323079e-07
7.309237e-07
6.8216436e-07
6.3295924e-07
5.9749916e-07
5.7268372e-07
5.4984088e-07
5.3286077e-07
5.2175081e-07
5.1763328e-07
5.0866622e-07
4.9682209e-07
4.9894275e-07
5.0785269e-07
5.1695824e-07
5.3886679e-07
5.9272662e-07
6.797014e-07
8.7386059e-07
3.2844961e-06
2.688699e-06
2.1069756e-06
1.7416391e-06
1.4870518e-06
1.301567e-06
1.1622899e-06
1.0571173e-06
9.7285601e-07
8.939286e-07
8.2948379e-07
7.6662789e-07
7.136877e-07
6.6635781e-07
6.2931205e-07
5.9548942e-07
5.6829652e-07
5.531987e-07
5.3954047e-07
5.2885417e-07
5.2090023e-07
5.1896007e-07
5.1984513e-07
5.1912992e-07
5.206246e-07
5.2658786e-07
5.358304e-07
5.5105692e-07
5.9717125e-07
6.5108329e-07
7.6168042e-07
3.3349818e-06
2.7442073e-06
2.1850514e-06
1.8233529e-06
1.5590004e-06
1.3566961e-06
1.201334e-06
1.0800639e-06
9.8267757e-07
8.9652687e-07
8.246442e-07
7.6015252e-07
7.0443975e-07
6.5625972e-07
6.1663824e-07
5.8313272e-07
5.5320655e-07
5.3652473e-07
5.2190299e-07
5.1398086e-07
5.142209e-07
5.1572458e-07
5.2228987e-07
5.373931e-07
5.5098442e-07
5.7447771e-07
6.0160958e-07
6.3908404e-07
6.7770083e-07
7.4303535e-07
8.0456433e-07
3.708818e-06
3.5332175e-06
3.1381902e-06
2.7301023e-06
2.33886e-06
2.0109815e-06
1.7306155e-06
1.4983799e-06
1.3114588e-06
1.1510151e-06
1.0166961e-06
9.0783068e-07
8.1471348e-07
7.3572369e-07
6.7113991e-07
6.1929396e-07
5.7546879e-07
5.4761757e-07
5.2684175e-07
5.1465841e-07
5.1275923e-07
5.1301918e-07
5.2056875e-07
5.398049e-07
5.5543228e-07
5.807762e-07
6.1429998e-07
6.8525744e-07
7.3885254e-07
8.4638941e-07
9.2377328e-07
3.692563e-06
4.1510342e-06
4.3170827e-06
4.3649672e-06
4.2295485e-06
3.9842004e-06
3.6384439e-06
3.2585863e-06
2.8806938e-06
2.4888985e-06
2.1166721e-06
1.7921537e-06
1.5034898e-06
1.2520656e-06
1.0477806e-06
8.7171625e-07
7.3667916e-07
6.4816173e-07
5.8832958e-07
5.5341325e-07
5.3228795e-07
5.2271064e-07
5.254075e-07
5.3991441e-07
5.5349882e-07
5.6611494e-07
5.880007e-07
6.4402481e-07
7.0360181e-07
8.1872868e-07
9.521189e-07
3.2365829e-06
3.0101166e-06
3.1901261e-06
3.6188264e-06
3.8303986e-06
3.8723332e-06
3.7783609e-06
3.6148373e-06
3.400024e-06
3.1409239e-06
2.8372446e-06
2.4990487e-06
2.1683562e-06
1.8576291e-06
1.5719008e-06
1.3400465e-06
1.1401433e-06
9.8049914e-07
8.5354883e-07
7.5891873e-07
6.8859331e-07
6.3112173e-07
6.0250961e-07
6.0284861e-07
6.0206036e-07
5.9735741e-07
6.0210358e-07
6.3106197e-07
6.7548843e-07
7.4203478e-07
8.4339936e-07
3.1661119e-06
2.4657446e-06
2.1452802e-06
2.062448e-06
2.1118615e-06
2.1682306e-06
2.2012854e-06
2.1840305e-06
2.1537122e-06
2.1026132e-06
2.0107611e-06
1.8423797e-06
1.664002e-06
1.4932483e-06
1.3233281e-06
1.2034835e-06
1.0911349e-06
9.8860573e-07
9.2200311e-07
8.8475946e-07
8.7155054e-07
8.6224826e-07
8.5565603e-07
8.6529299e-07
8.748515e-07
8.6850005e-07
8.5921783e-07
8.6749404e-07
8.9508068e-07
9.5069253e-07
9.4407134e-07
3.253833e-06
2.7463843e-06
2.1707806e-06
1.8048646e-06
1.5698863e-06
1.4193391e-06
1.3374133e-06
1.2780974e-06
1.2446055e-06
1.2215204e-06
1.1944948e-06
1.1619037e-06
1.1060711e-06
1.020194e-06
9.4352272e-07
8.75161e-07
8.1677234e-07
7.8223609e-07
7.7525284e-07
7.7798547e-07
7.9064038e-07
8.1675911e-07
8.5417157e-07
8.8612233e-07
9.5647427e-07
1.0143371e-06
1.0894686e-06
1.1739392e-06
1.2414079e-06
1.4099095e-06
1.4427469e-06
3.3990101e-06
2.9463332e-06
2.2438771e-06
1.7950035e-06
1.5399319e-06
1.4148493e-06
1.3725484e-06
1.3745111e-06
1.3843527e-06
1.3815739e-06
1.3732835e-06
1.3358432e-06
1.2406015e-06
1.1323766e-06
1.0178734e-06
9.1505947e-07
8.1820058e-07
7.5060528e-07
7.0891731e-07
6.7701971e-07
6.7200358e-07
6.8041418e-07
7.1120311e-07
7.4389726e-07
8.2039607e-07
8.8386109e-07
9.9800128e-07
1.0847469e-06
1.1888051e-06
1.3269401e-06
1.5245616e-06
3.190926e-06
2.5472887e-06
2.1240194e-06
1.887361e-06
1.849356e-06
1.9152911e-06
2.0307086e-06
2.0702754e-06
2.0169541e-06
1.8869077e-06
1.7416962e-06
1.5715783e-06
1.3907596e-06
1.2219844e-06
1.0664512e-06
9.3438878e-07
8.2698624e-07
7.4537764e-07
6.9217561e-07
6.5280965e-07
6.2505102e-07
6.2134185e-07
6.2948746e-07
6.3803156e-07
6.6227606e-07
6.9234542e-07
7.5295344e-07
7.9528716e-07
8.8193892e-07
9.45989e-07
1.1712691e-06
2.9775957e-06
2.7798509e-06
2.735062e-06
2.7428337e-06
2.6129257e-06
2.3600631e-06
2.1136216e-06
1.8929018e-06
1.6457673e-06
1.4880427e-06
1.3442977e-06
1.1930181e-06
1.0583188e-06
9.4432964e-07
8.5350969e-07
7.7916243e-07
7.2406157e-07
6.7598512e-07
6.4710068e-07
6.2788764e-07
6.1298077e-07
6.1176936e-07
6.1785925e-07
6.2030686e-07
6.2505129e-07
6.3888945e-07
6.6770736e-07
6.8618291e-07
7.1019025e-07
7.2924365e-07
7.8624272e-07
3.5659075e-06
3.5587511e-06
3.1245755e-06
2.6298819e-06
2.1906344e-06
1.8318894e-06
1.5732569e-06
1.3814812e-06
1.2417893e-06
1.1488739e-06
1.0595951e-06
9.7875601e-07
9.1336298e-07
8.5865373e-07
8.1726106e-07
7.7694871e-07
7.4635187e-07
7.1729693e-07
7.0186581e-07
6.9503057e-07
6.9085881e-07
6.9501491e-07
7.0470037e-07
7.0729432e-07
7.058174e-07
7.1397947e-07
7.358956e-07
7.6416051e-07
7.7951706e-07
8.0021803e-07
8.2208174e-07
3.3210611e-06
2.9030627e-06
2.595618e-06
2.4303017e-06
2.2535084e-06
2.1205761e-06
1.9499242e-06
1.7975524e-06
1.6742392e-06
1.4778298e-06
1.309353e-06
1.1950515e-06
1.0976032e-06
1.0260386e-06
9.7667474e-07
9.2533303e-07
8.815765e-07
8.4455247e-07
8.2254369e-07
8.149942e-07
8.1131589e-07
8.2130396e-07
8.421335e-07
8.6599084e-07
8.7884313e-07
9.1850284e-07
9.5978273e-07
1.0324465e-06
1.0604402e-06
1.1116717e-06
1.0946388e-06
3.0713481e-06
2.8723281e-06
2.7977804e-06
2.8209635e-06
2.7821145e-06
2.7457095e-06
2.6307163e-06
2.5892658e-06
2.5079765e-06
2.3360906e-06
2.1744689e-06
2.0485127e-06
1.9765034e-06
1.9415921e-06
1.9123389e-06
1.8530437e-06
1.7889054e-06
1.7243172e-06
1.7005015e-06
1.7123794e-06
1.7212978e-06
1.7922964e-06
1.8730433e-06
1.9764382e-06
2.0248698e-06
2.1553548e-06
2.2910214e-06
2.4986326e-06
2.5919524e-06
2.6873591e-06
2.5586888e-06
3.7043897e-06
5.2486238e-06
5.3226621e-06
6.2829012e-06
6.0606054e-06
7.0333002e-06
6.1725909e-06
7.9313202e-06
7.7312667e-06
7.260421e-06
7.449257e-06
7.734032e-06
7.8588209e-06
8.3736884e-06
8.4912173e-06
8.3527057e-06
8.1353925e-06
7.9434939e-06
8.0112759e-06
8.2271268e-06
8.3864668e-06
8.6424504e-06
9.0061152e-06
9.2803922e-06
9.3716701e-06
9.5085688e-06
9.8062932e-06
1.0135568e-05
1.0401655e-05
1.0389652e-05
1.0021125e-05
1.7047227e-05
3.8106731e-05
4.9556486e-05
4.0992933e-05
4.4830075e-05
3.9964763e-05
4.5089288e-05
3.9462478e-05
4.8169431e-05
4.2254716e-05
3.9552967e-05
3.8725406e-05
3.8278245e-05
3.8463181e-05
3.8839679e-05
3.9210988e-05
3.9415157e-05
3.9602643e-05
3.9329184e-05
3.8856711e-05
3.8394022e-05
3.7992995e-05
3.7094705e-05
3.626633e-05
3.5700423e-05
3.5222739e-05
3.4602086e-05
3.3417398e-05
3.2549463e-05
3.1951497e-05
3.1553826e-05
3.068462e-05
1.1040942e-05
3.0129894e-06
1.2348824e-06
8.9829036e-07
8.4467876e-07
1.1707557e-06
1.6778286e-06
1.6459619e-06
1.1508873e-06
9.3774517e-07
1.0516747e-06
1.0398058e-06
9.1800241e-07
8.4721666e-07
9.4663334e-07
1.0418733e-06
1.0361146e-06
9.9967221e-07
9.2467414e-07
9.0638468e-07
7.7148724e-07
6.6724269e-07
3.0058466e-05
1.2227589e-05
3.7544284e-06
1.5466692e-06
1.0318624e-06
9.053072e-07
1.1889203e-06
1.9460668e-06
2.0162112e-06
1.5745764e-06
1.1206531e-06
1.2332049e-06
1.2831684e-06
1.1945367e-06
9.8483767e-07
1.0225426e-06
1.20377e-06
1.2158275e-06
1.2159861e-06
1.1488202e-06
1.1250703e-06
1.0026748e-06
7.7751055e-07
2.81265e-05
1.3915001e-05
4.8621223e-06
2.0310581e-06
1.25647e-06
1.0089219e-06
1.2246074e-06
2.0417807e-06
2.4909294e-06
2.3981939e-06
1.5606165e-06
1.5423704e-06
1.5867117e-06
1.5357693e-06
1.301871e-06
1.2051653e-06
1.3893848e-06
1.5241432e-06
1.5218027e-06
1.3801392e-06
1.3475103e-06
1.2867489e-06
1.052452e-06
2.8159094e-05
1.4578166e-05
5.5212103e-06
2.50989e-06
1.5332441e-06
1.1481555e-06
1.3459892e-06
2.2953016e-06
2.8937035e-06
2.9291568e-06
2.0900623e-06
1.8842474e-06
1.9629706e-06
1.942677e-06
1.8418743e-06
1.5538278e-06
1.6322328e-06
1.8492001e-06
1.9469079e-06
1.8700821e-06
1.7075172e-06
1.6803646e-06
1.5522137e-06
2.5190581e-05
1.6018929e-05
7.0949536e-06
3.6971957e-06
2.2341903e-06
1.4921751e-06
1.6696944e-06
2.8388519e-06
3.7147119e-06
3.8996855e-06
3.0508688e-06
2.267595e-06
2.3482214e-06
2.3337176e-06
2.2745838e-06
1.9672202e-06
1.9294498e-06
2.1641726e-06
2.2653321e-06
2.2864004e-06
2.145597e-06
2.1505323e-06
2.1142127e-06
2.2575301e-05
1.6606609e-05
8.5534187e-06
4.8929182e-06
3.0805043e-06
2.0243731e-06
2.0888474e-06
3.3736372e-06
4.6998742e-06
4.8563854e-06
4.3472729e-06
3.0381962e-06
3.0741078e-06
3.0569554e-06
2.9282779e-06
2.5873833e-06
2.3267983e-06
2.4953149e-06
2.6968611e-06
2.7552496e-06
2.720105e-06
2.6230425e-06
2.6550722e-06
2.0513914e-05
1.771189e-05
1.029665e-05
6.6197114e-06
4.3125097e-06
2.7851582e-06
2.5331025e-06
3.6959044e-06
5.6868886e-06
6.8117038e-06
7.2133532e-06
5.2595826e-06
4.9318011e-06
4.8860482e-06
4.3801905e-06
4.0457454e-06
3.2457166e-06
3.2271701e-06
3.5375748e-06
3.5840055e-06
3.6608557e-06
3.4993629e-06
3.418662e-06
1.9631459e-05
1.8378976e-05
1.1878166e-05
8.0834379e-06
5.5600822e-06
3.8555479e-06
3.332365e-06
4.4479317e-06
7.1696809e-06
8.5919539e-06
1.0215264e-05
8.7365112e-06
7.1093951e-06
7.1784755e-06
6.3328363e-06
5.7651811e-06
5.0885874e-06
4.68125e-06
5.3937454e-06
5.5643849e-06
5.6169057e-06
5.3320551e-06
4.7401443e-06
1.9786819e-05
1.9115052e-05
1.5677799e-05
1.1315788e-05
8.6275005e-06
5.7850491e-06
4.6754305e-06
6.4828251e-06
1.0746511e-05
1.1772272e-05
1.3448266e-05
1.2758997e-05
9.9292917e-06
1.0218527e-05
9.6121104e-06
8.14757e-06
7.3729057e-06
6.4901079e-06
7.0109356e-06
8.0015762e-06
7.674807e-06
7.920312e-06
7.6445163e-06
1.8625568e-05
1.9325718e-05
1.8435627e-05
1.5260217e-05
1.3224173e-05
9.363392e-06
7.3212687e-06
1.049465e-05
1.7628407e-05
1.817398e-05
1.9279404e-05
1.9079327e-05
1.5218201e-05
1.5268632e-05
1.5303633e-05
1.3225089e-05
1.1378328e-05
9.6169891e-06
9.5264608e-06
1.0831211e-05
1.0652689e-05
1.0088353e-05
1.006463e-05
1.9073748e-05
2.0074886e-05
2.1591739e-05
2.1231651e-05
2.0852178e-05
1.8055739e-05
1.3343428e-05
1.8264626e-05
2.8214047e-05
2.8624075e-05
2.9090914e-05
3.0129682e-05
2.5842112e-05
2.5790299e-05
2.7840294e-05
2.5588631e-05
1.92946e-05
1.5630458e-05
1.3970741e-05
1.5600628e-05
1.6381671e-05
1.4739901e-05
1.4163336e-05
1.9542602e-05
2.121666e-05
2.517367e-05
2.7204176e-05
2.8939108e-05
2.960968e-05
2.5712973e-05
3.3624144e-05
5.0132524e-05
4.9440021e-05
4.9788927e-05
5.2414468e-05
4.8575265e-05
4.9930592e-05
5.6386577e-05
5.2565715e-05
3.6764278e-05
2.8405504e-05
2.3076097e-05
2.4705777e-05
3.0059609e-05
2.6924413e-05
2.1819117e-05
2.3606117e-05
2.4944019e-05
3.1880575e-05
3.577294e-05
4.3308265e-05
4.9680304e-05
5.2337693e-05
6.7495902e-05
9.6374469e-05
0.00010000119
0.0001047074
0.00011802017
0.00011529069
0.00011617732
0.00013197788
0.00012025177
7.8096997e-05
5.4118758e-05
4.4784176e-05
4.6464293e-05
6.0557426e-05
5.7000859e-05
4.0981745e-05
2.5834884e-05
2.8845711e-05
3.843842e-05
4.3268242e-05
5.4835595e-05
7.3739351e-05
9.7561976e-05
0.00013562456
0.00015653506
0.0001547046
0.00015464016
0.00017427523
0.00023441969
0.00027433606
0.00027907795
0.00022171691
0.0001389027
0.00011487309
0.00011202516
0.00011232084
0.00013867818
0.00013058363
9.0254416e-05
3.1718998e-05
3.5454227e-05
4.7390465e-05
5.3690712e-05
7.2164365e-05
0.00011120214
0.00016944717
0.00022628654
0.00023210176
0.00021333462
0.00018972001
0.00020993284
0.00031416461
0.00046377411
0.00045992922
0.00033386406
0.00019383898
0.00016458797
0.00018051806
0.00021779592
0.00025423526
0.00022234714
0.00015309211
3.4345768e-05
3.9657594e-05
5.351285e-05
6.2556868e-05
8.9850483e-05
0.00015117103
0.00025776939
0.00033157359
0.00033109707
0.00029471863
0.00025772769
0.00028830101
0.00046186262
0.00076252211
0.00081074149
0.0005576697
0.0002824835
0.00022518081
0.00024730464
0.00032682345
0.0004012987
0.00034828069
0.00021480091
3.9007579e-05
4.5252254e-05
6.1492985e-05
7.1800838e-05
0.00010624385
0.00019123123
0.00035105858
0.00043939916
0.00043462143
0.00038489487
0.00035431418
0.00041073051
0.00068548429
0.0011025707
0.0012036155
0.00089840534
0.00046939268
0.00037351354
0.00043645939
0.00064797306
0.0007839376
0.00064817959
0.00033673028
4.1952187e-05
4.9424536e-05
6.7796391e-05
8.4164381e-05
0.00013394092
0.00025417104
0.00046150066
0.00055261506
0.0005394402
0.00047898899
0.00046267592
0.00055089652
0.00093269548
0.0014154779
0.0015233417
0.0011580966
0.00069135927
0.00059650306
0.0007503052
0.0010864854
0.0012059068
0.00097677
0.00050665304
4.2162996e-05
5.2480488e-05
7.5005128e-05
9.5513284e-05
0.00015561262
0.00030023368
0.00054297733
0.00064431763
0.00062442879
0.00055829482
0.00055684712
0.00067301701
0.0011428611
0.0016702527
0.0017642824
0.0013423515
0.0008368572
0.00074421768
0.00096782593
0.0013682287
0.0014814051
0.0011844623
0.00070637543
3.9664649e-05
5.3564446e-05
8.1188867e-05
0.00010870314
0.00018310224
0.00035439365
0.00061701045
0.00072337879
0.00070248386
0.00064537482
0.00065893043
0.00081631894
0.0013765312
0.00189302
0.0019262612
0.001454946
0.0010527426
0.0010198105
0.0013844236
0.0017885918
0.0018447893
0.0014441906
0.00090406419
3.6110319e-05
5.3406047e-05
8.6060899e-05
0.00012736695
0.00022554059
0.00042942445
0.00069135018
0.00080121521
0.00078648068
0.0007503825
0.0007866694
0.0010066366
0.0016539782
0.0021129524
0.0020690289
0.001606438
0.0013549374
0.0014478446
0.0019528423
0.0022595624
0.0021927199
0.0016510064
0.001110857
3.3773013e-05
5.1286119e-05
8.7653463e-05
0.00014131182
0.00025895592
0.00048884711
0.00075212991
0.00087102136
0.00087455552
0.00087478432
0.00094348531
0.0012536289
0.0019525521
0.0023263485
0.0021996715
0.0018242667
0.0016992939
0.0019565985
0.002506364
0.0027141783
0.0024970348
0.0018271917
0.0014118523
3.297113e-05
4.8271402e-05
8.4597469e-05
0.00015037929
0.00029050517
0.00054869477
0.00080880101
0.00093917693
0.00097478308
0.0010215205
0.001158692
0.0015768704
0.002181339
0.002441047
0.0023117632
0.0021304994
0.002128508
0.0025050105
0.0029208454
0.0030375355
0.0027030119
0.0020796218
0.0019638293
3.3165723e-05
4.5827371e-05
8.159477e-05
0.0001592418
0.00032988912
0.00062102763
0.00087777282
0.0010314022
0.0011159338
0.0012135419
0.0014449378
0.0018985923
0.0023221541
0.0024994024
0.002479864
0.0024489028
0.0025988752
0.0030339983
0.0032891905
0.003272098
0.0028970165
0.002595084
0.0026864198
3.4301857e-05
4.5898381e-05
8.3257165e-05
0.00017467124
0.00039075159
0.00070388013
0.00096735243
0.0011560297
0.0012978685
0.0014607847
0.0017482448
0.0020926969
0.002387233
0.0025824688
0.0027050436
0.0028305687
0.0031243886
0.0034796376
0.0036313286
0.0035258993
0.0032233402
0.0031293865
0.0031825744
3.6543713e-05
5.0663394e-05
9.620087e-05
0.00021383388
0.00048970443
0.00080164754
0.0010749263
0.0013180318
0.0015262148
0.0017255347
0.0019996891
0.0022513267
0.0024882268
0.0027375032
0.0029764522
0.0032466517
0.003620916
0.0038683569
0.0039361917
0.0038125843
0.0035856218
0.0034188759
0.003261652
4.0576378e-05
6.2288935e-05
0.00013113227
0.00030416077
0.00062174748
0.00089635615
0.0011689907
0.0014781069
0.0017438184
0.0019604388
0.0022153277
0.0024423811
0.0027115738
0.0030472189
0.0033450985
0.0036844503
0.0039894196
0.0041684803
0.004179754
0.0039821152
0.0037088665
0.0034408587
0.0031979905
4.697604e-05
8.5627879e-05
0.00020189621
0.0004463709
0.00072948194
0.00095181326
0.0012274511
0.0015896949
0.0019110468
0.0021858458
0.0024648208
0.0027330636
0.0030965448
0.0034590544
0.0037018551
0.0039050546
0.0040357059
0.0041992753
0.0042216623
0.0040038017
0.0037279386
0.0034127571
0.0031867561
5.2047253e-05
0.00010767383
0.00025954947
0.00052751087
0.00078134898
0.00099589888
0.0012818178
0.0016569045
0.0020074574
0.0023543219
0.0026645422
0.0029876934
0.003399793
0.0036705648
0.0037737049
0.0037907633
0.0038580183
0.0040902881
0.0041791865
0.0040569573
0.0037408812
0.0034008843
0.0031928817
5.2672441e-05
0.00011840577
0.00029930763
0.00057873273
0.00082839574
0.0010641626
0.0013955908
0.0017822001
0.002103886
0.0024073292
0.0026954616
0.0030618936
0.0034428162
0.0036169146
0.0036545058
0.0036464299
0.0037759477
0.0040060925
0.0041127497
0.0040094159
0.0036444528
0.0033257188
0.0030413121
5.500375e-05
0.00012828484
0.00032428491
0.00060521044
0.00086828548
0.0011441703
0.0015100122
0.0018702761
0.0021294857
0.002345639
0.0025714297
0.0029500334
0.0033345546
0.0035420248
0.0036096668
0.0036425639
0.0038214936
0.0039578811
0.0039198432
0.0036486565
0.0033567384
0.0031223251
0.0027311436
6.0908008e-05
0.00014615669
0.00036644646
0.00065437552
0.00091389094
0.0011847088
0.0015243391
0.0018469068
0.002083506
0.002269558
0.002482101
0.002824374
0.0031861679
0.0034410448
0.0035515307
0.0036417121
0.0037771887
0.0037665653
0.0035159522
0.003181015
0.0030060585
0.0028372152
0.0024014834
6.9019898e-05
0.00018371336
0.0004434873
0.00070709211
0.00093252694
0.0011809674
0.0014922324
0.0018087186
0.0020643073
0.0022535717
0.0024806787
0.0027905414
0.0030506703
0.0032035057
0.003314432
0.0034807717
0.0035451421
0.0034206949
0.0031039309
0.0028199861
0.0026818282
0.0024801714
0.0020093703
7.8263244e-05
0.00020756787
0.00048117591
0.00073341554
0.00096266066
0.0012061283
0.0014783508
0.0017546393
0.0020042085
0.0022259579
0.0024602519
0.0026961242
0.0028328243
0.0029041593
0.0030165393
0.0032128824
0.0032982866
0.0031688992
0.0028858643
0.0026443065
0.0024315765
0.0020570175
0.0015129215
9.2948438e-05
0.00027720511
0.00056060354
0.00080568057
0.0010294848
0.0012636044
0.0015177207
0.0017569083
0.0019524061
0.0021465576
0.0023801227
0.002590652
0.0026869175
0.0027178245
0.002776129
0.0028630633
0.0028776213
0.0026968565
0.0023968719
0.0021068974
0.0017572232
0.0012978804
0.00091468452
0.00010755498
0.00031507879
0.00058083012
0.00080400787
0.0010173294
0.0012372199
0.0014631205
0.0016604117
0.0018130591
0.0019609967
0.0021447848
0.0023299644
0.0024446192
0.0024823251
0.0025062867
0.0025194228
0.0024660527
0.0022974446
0.0020617173
0.0018269082
0.0015203021
0.0011250966
0.00078715838
0.00012107345
0.00035005123
0.00059330027
0.00079761766
0.00098381673
0.0011759457
0.001376786
0.0015594317
0.0017005684
0.0018170853
0.0019404949
0.0020658252
0.0021585618
0.002201686
0.0022153598
0.0022019203
0.0021257803
0.0019588264
0.0017385754
0.0015212486
0.0012975271
0.0010269247
0.0007285978
0.00013157527
0.00036167863
0.00059375906
0.00078786441
0.00095868792
0.0011256461
0.001296036
0.0014565082
0.0015864537
0.0016896409
0.0017800595
0.0018513732
0.0018878545
0.0018923812
0.0018839824
0.0018600719
0.0017882818
0.0016395384
0.0014365734
0.0012273618
0.0010261346
0.00082258753
0.00064579832
0.00013710064
0.00036938629
0.00058839466
0.00077213773
0.00093440067
0.0010865061
0.0012301614
0.0013567312
0.0014591853
0.0015407636
0.001607706
0.0016529372
0.0016590111
0.0016301639
0.0015839005
0.0015316961
0.0014554412
0.0013285253
0.0011577146
0.00098029303
0.00082582073
0.00070471735
0.00060874972
0.00014564905
0.00037221496
0.00057763802
0.00074483876
0.00089379058
0.0010317473
0.0011581893
0.0012625226
0.0013382195
0.001393187
0.00143681
0.0014640615
0.001460657
0.0014205981
0.0013541362
0.0012757842
0.0011830492
0.0010664273
0.00093354534
0.00081638008
0.00073936976
0.00069192752
0.00066233001
0.00014583118
0.00037345459
0.00056228362
0.0007122077
0.00084278645
0.0009638569
0.0010758762
0.0011696793
0.0012368026
0.0012782062
0.0013015757
0.0013079225
0.0012921155
0.0012453809
0.0011741107
0.0010896113
0.00099800753
0.00090352968
0.00082060349
0.00076783445
0.00073873254
0.00073531139
0.00078496289
0.00014666219
0.00035494989
0.00052904912
0.00067136405
0.00079271613
0.00090091489
0.00099874467
0.0010816021
0.0011425753
0.0011791038
0.0011938749
0.0011884225
0.0011613228
0.0011093532
0.0010399299
0.00096409901
0.00089371306
0.00083986883
0.00080621873
0.00078914358
0.00080590798
0.00086730673
0.00094588751
0.00014015527
0.00033594512
0.00049659944
0.00062904357
0.00074324526
0.00084311775
0.00092940571
0.00099950027
0.0010504219
0.0010814479
0.0010937336
0.0010884069
0.0010642977
0.0010202257
0.00096390419
0.00090788737
0.00086578218
0.00083989464
0.00083492257
0.00086640799
0.00093291588
0.0010091776
0.0010909457
0.00014977559
0.00032948981
0.00047716278
0.00059519225
0.00069698888
0.00078690923
0.00086468371
0.00092769999
0.00097332736
0.0010014297
0.001013431
0.0010114398
0.00099676565
0.00096908313
0.00093573026
0.00090565981
0.00088163461
0.00087971185
0.00091011189
0.00097074948
0.0010464539
0.0011254041
0.00120588
0.00013799371
0.00032309178
0.00045798642
0.00056834255
0.00066036246
0.00074003374
0.00081006639
0.00086895899
0.00091432509
0.00094489708
0.00096110063
0.00096459404
0.00095897009
0.00094642361
0.0009338025
0.00092181273
0.00092633201
0.00095436722
0.001005241
0.0010736534
0.0011530285
0.0012328602
0.0013122017
0.00012381926
0.0002820356
0.00041137746
0.00051674451
0.00060647252
0.00068495583
0.00075297957
0.00081051798
0.00085682585
0.00089160113
0.00091535961
0.00092969526
0.00093756394
0.00094262263
0.00094751527
0.00096353962
0.00099435292
0.0010416262
0.0011050655
0.0011806952
0.0012628646
0.0013420793
0.0014159613
0.00010437318
0.00018091375
0.00030479795
0.00041898415
0.00051943338
0.0006057163
0.00067925202
0.00074125831
0.00079272167
0.00083456078
0.00086823812
0.0008959577
0.00092058102
0.00094531517
0.00097516711
0.0010137495
0.0010635898
0.0011251604
0.0011967035
0.0012752104
0.0013570462
0.0014345593
0.0015015154
0.00011451088
0.00013664498
0.000221404
0.00033076165
0.00043192827
0.0005217576
0.00059992686
0.0006674933
0.00072584687
0.00077645574
0.00082121026
0.00086262785
0.00090397233
0.00094879977
0.00099788844
0.0010546229
0.001119537
0.0011916468
0.001268952
0.0013495924
0.0014309284
0.0015065727
0.0015695517
0.0001233286
0.00013420482
0.00020565449
0.00029657241
0.00038342961
0.00046511948
0.00053992359
0.00060763042
0.00066914508
0.00072626545
0.0007813317
0.00083717555
0.00089562403
0.00095520448
0.0010205151
0.0010923302
0.0011695079
0.0012499013
0.0013311528
0.0014112707
0.0014874707
0.0015541212
0.0016073729
0.00013381796
0.00015202451
0.00021476641
0.00029709435
0.00037490318
0.00044721849
0.00051581859
0.00058154624
0.00064533329
0.00070845095
0.00077199657
0.00083672981
0.0009033829
0.00097561042
0.0010550458
0.0011378957
0.0012215524
0.0013032508
0.0013808205
0.0014521886
0.0015126434
0.0015592711
0.0015934625
0.00014211643
0.00019941546
0.00024798253
0.00031147811
0.00038088605
0.00044960493
0.00051657678
0.00058226851
0.0006476717
0.00071402482
0.00078264803
0.00085508732
0.00093372908
0.0010192964
0.0011056835
0.0011903844
0.00127045
0.0013430592
0.0014053053
0.0014561556
0.0014936844
0.0015122078
0.0015187661
0.00014710196
0.00023251062
0.00028597227
0.00034302405
0.00040103738
0.00046267321
0.00052771394
0.00059493603
0.00066503346
0.00073930934
0.00081951272
0.00090501362
0.00099327799
0.001079846
0.001162188
0.0012371812
0.0013012842
0.0013524812
0.0013914116
0.0014115041
0.0014053379
0.0013730896
0.0013300956
0.00014941354
0.00025347328
0.00031381627
0.00037172177
0.00042995238
0.00049140277
0.00055755518
0.00063034077
0.00070998696
0.00079533292
0.00088335073
0.00097150089
0.0010563572
0.001134307
0.0012019401
0.0012555632
0.0012954522
0.0013192972
0.0013185883
0.0012877407
0.0012180518
0.0011260782
0.0010360534
0.00014859699
0.00026777993
0.00033546865
0.00039713643
0.00045923705
0.00052607123
0.00059949652
0.00067974941
0.0007657079
0.0008547853
0.00094332153
0.0010270013
0.0011012856
0.0011617587
0.0012059463
0.001234856
0.0012410936
0.0012194853
0.0011634552
0.0010712669
0.00095082628
0.00081616351
0.0006965808
0.00014659522
0.00027969049
0.00035504057
0.00042235165
0.00049069291
0.00056468444
0.00064537994
0.00073156156
0.00082046154
0.00090814793
0.00099009355
0.00106143
0.0011175198
0.0011555834
0.0011731391
0.0011621037
0.0011209723
0.0010488866
0.00094153856
0.00080638378
0.00065463208
0.00049085369
0.00035029696
0.00014296365
0.00029040922
0.00037449607
0.00044930813
0.00052559066
0.0006074103
0.00069458721
0.0007844341
0.00087267383
0.00095430518
0.001024098
0.0010773
0.001108151
0.0011157051
0.0010928163
0.001040021
0.00095651845
0.0008406232
0.00069916891
0.0005449442
0.00038590778
0.00022846697
0.00010850294
0.00014066981
0.000302559
0.00039630047
0.00047984178
0.00056488424
0.00065434316
0.00074648171
0.00083725422
0.00092134796
0.00099299965
0.0010467981
0.0010748987
0.0010788275
0.0010514766
0.00099232418
0.00090177215
0.00078027702
0.00063537827
0.0004818703
0.00033279249
0.00020006789
9.1252823e-05
3.1824471e-05
0.0001377214
0.00031620595
0.00042077133
0.00051383854
0.00060751147
0.00070340596
0.00079856865
0.00088792935
0.00096543357
0.0010251324
0.0010584897
0.0010655834
0.0010415611
0.00098384728
0.0008923417
0.00076709213
0.00061807573
0.00046316561
0.00031982927
0.00020186868
0.00011456209
5.228048e-05
1.628095e-05
0.00013764684
0.00033249594
0.00044828828
0.00055060172
0.00065177344
0.00075253583
0.00084897918
0.0009352137
0.0010046812
0.0010494191
0.0010652697
0.0010524294
0.0010047864
0.00092064271
0.00079886675
0.00064939664
0.00049152805
0.00034260092
0.00022549869
0.00014446016
8.9428563e-05
4.8147577e-05
1.5677243e-05
0.00013619872
0.00034711197
0.00047464347
0.00058600123
0.00069373521
0.00079796887
0.0008942815
0.00097651743
0.0010382083
0.0010693134
0.0010726911
0.0010427677
0.00097621158
0.00087044089
0.00072818882
0.00056845727
0.00041244259
0.00027867947
0.00018554198
0.00012774532
8.7555118e-05
5.4232466e-05
2.476609e-05
0.00013587759
0.00035535959
0.00049359587
0.00061332773
0.00072686614
0.00083391885
0.00092989755
0.0010087698
0.0010628857
0.0010851928
0.0010806932
0.0010416332
0.00096440134
0.00084723979
0.00069709797
0.00053565283
0.00038486815
0.00026219341
0.00017968162
0.00012906773
9.4250907e-05
6.6312464e-05
4.0640367e-05
0.0001313625
0.00035583221
0.00049955399
0.00062474175
0.00074259687
0.00085215989
0.00094882332
0.0010267383
0.0010774379
0.001096112
0.0010875216
0.0010453532
0.00096714686
0.00085035448