/*--------------------------------*- C++ -*----------------------------------*\
| =========                 |                                                 |
| \\      /  F ield         | OpenFOAM: The Open Source CFD Toolbox           |
|  \\    /   O peration     | Version:  2406                                  |
|   \\  /    A nd           | Website:  www.openfoam.com                      |
|    \\/     M anipulation  |                                                 |
\*---------------------------------------------------------------------------*/
FoamFile
{
    version     2.0;
    format      ascii;
    arch        "LSB;label=32;scalar=64";
    class       volScalarField;
    location    "170";
    object      nut;
}
// * * * * * * * * * * * * * * * * * * * * * * * * * * * * * * * * * * * * * //

dimensions      [0 2 -1 0 0 0 0];

internalField   nonuniform List<scalar> 
20580
(
8.9150229e-07
9.0262544e-07
8.7948956e-07
8.5859057e-07
8.4647969e-07
8.3653705e-07
8.2697755e-07
8.2106191e-07
8.1615859e-07
8.13213e-07
8.0797362e-07
8.0343608e-07
7.9570145e-07
7.8820307e-07
7.8257666e-07
7.7524384e-07
7.7677197e-07
7.7440906e-07
7.8040008e-07
7.8566347e-07
7.9026433e-07
7.9711503e-07
8.0887227e-07
8.2451456e-07
8.5673909e-07
8.8481223e-07
9.1392484e-07
9.2501413e-07
9.255495e-07
9.580221e-07
1.0042948e-06
8.9280111e-07
9.2590587e-07
9.0944099e-07
8.8364963e-07
8.6266099e-07
8.4768936e-07
8.3413137e-07
8.2605717e-07
8.1987901e-07
8.1530078e-07
8.1021467e-07
8.0472853e-07
7.9775942e-07
7.9179248e-07
7.8286392e-07
7.8016158e-07
7.7705648e-07
7.7892934e-07
7.8364547e-07
7.897393e-07
7.9737451e-07
8.0277323e-07
8.2284197e-07
8.3551633e-07
8.6261034e-07
9.1294119e-07
9.6345109e-07
1.0158224e-06
1.059876e-06
1.0810912e-06
1.0612701e-06
8.9269574e-07
9.3559087e-07
9.4158907e-07
9.3255172e-07
9.0865302e-07
8.8002692e-07
8.5726348e-07
8.4307563e-07
8.3290217e-07
8.2496412e-07
8.1906698e-07
8.1169396e-07
8.0450319e-07
7.9905916e-07
7.8657127e-07
7.8574645e-07
7.7871081e-07
7.796611e-07
7.8421966e-07
7.8732148e-07
7.9583649e-07
7.9974588e-07
8.2004836e-07
8.3242548e-07
8.5487375e-07
9.0840237e-07
9.5559911e-07
1.0136019e-06
1.0561673e-06
1.1323279e-06
1.1839256e-06
8.9310077e-07
9.4570722e-07
9.5712543e-07
9.7093657e-07
9.6903469e-07
9.5312446e-07
9.2492499e-07
8.9751892e-07
8.7351325e-07
8.5706046e-07
8.4521681e-07
8.3456289e-07
8.2262655e-07
8.1706484e-07
7.9886329e-07
7.9642261e-07
7.855783e-07
7.8316194e-07
7.8724865e-07
7.8627992e-07
7.9559161e-07
7.9903899e-07
8.1518908e-07
8.288185e-07
8.4731717e-07
8.9216396e-07
9.4928456e-07
1.0114071e-06
1.0512111e-06
1.0963953e-06
1.1851259e-06
8.9377136e-07
9.6304951e-07
9.712747e-07
9.9005354e-07
1.0083318e-06
1.0141144e-06
1.0046804e-06
9.8802283e-07
9.6347618e-07
9.4336742e-07
9.2088183e-07
9.0502996e-07
8.8150566e-07
8.6696794e-07
8.4239585e-07
8.2667567e-07
8.1155392e-07
7.9683364e-07
7.9731859e-07
7.8987744e-07
7.9728656e-07
8.0179221e-07
8.1349906e-07
8.2913182e-07
8.4822334e-07
8.8529888e-07
9.4698612e-07
1.0171158e-06
1.0767799e-06
1.1308327e-06
1.1764684e-06
8.9498685e-07
9.8698537e-07
9.9159106e-07
1.0123006e-06
1.0281942e-06
1.0394731e-06
1.0432962e-06
1.0405036e-06
1.028631e-06
1.0136843e-06
9.9351451e-07
9.7192853e-07
9.4580899e-07
9.1870721e-07
8.9377514e-07
8.6415166e-07
8.5004696e-07
8.2889928e-07
8.2310809e-07
8.0910793e-07
8.0706365e-07
8.0962063e-07
8.1266636e-07
8.289113e-07
8.4647933e-07
8.7787074e-07
9.2858087e-07
1.0192676e-06
1.0763362e-06
1.1935583e-06
1.2221236e-06
8.9508257e-07
1.0119902e-06
1.0162558e-06
1.0272149e-06
1.0430178e-06
1.0502036e-06
1.0533e-06
1.0509868e-06
1.0435936e-06
1.0300311e-06
1.0134873e-06
9.8916964e-07
9.645894e-07
9.334973e-07
9.1124664e-07
8.7928119e-07
8.6426581e-07
8.4894938e-07
8.4018366e-07
8.3147506e-07
8.2891214e-07
8.323071e-07
8.2082173e-07
8.2858447e-07
8.4317118e-07
8.6082449e-07
8.8870843e-07
9.7529816e-07
1.0474018e-06
1.1661091e-06
1.2727175e-06
8.9447395e-07
1.0202438e-06
1.0271543e-06
1.0382867e-06
1.0445996e-06
1.0432653e-06
1.0446204e-06
1.0423515e-06
1.0389157e-06
1.0219038e-06
1.0077049e-06
9.810391e-07
9.5836223e-07
9.2818744e-07
9.0872312e-07
8.7905727e-07
8.6412176e-07
8.5228888e-07
8.4243718e-07
8.3759396e-07
8.3635123e-07
8.4471781e-07
8.4013174e-07
8.3676496e-07
8.4905007e-07
8.6183127e-07
8.7488311e-07
9.0270039e-07
9.6347567e-07
1.04811e-06
1.224451e-06
8.9571601e-07
1.0229337e-06
1.0236968e-06
1.0210605e-06
1.0133366e-06
1.0035023e-06
9.9302344e-07
9.8399777e-07
9.7670174e-07
9.60921e-07
9.4767308e-07
9.265596e-07
9.0753924e-07
8.8680458e-07
8.7234385e-07
8.5665805e-07
8.4453365e-07
8.4274475e-07
8.3916401e-07
8.3957705e-07
8.3799409e-07
8.4808101e-07
8.5793239e-07
8.633633e-07
8.7452949e-07
8.8492382e-07
8.961603e-07
9.1614564e-07
9.6900586e-07
1.024189e-06
1.1269419e-06
9.100474e-07
1.0348795e-06
1.0482426e-06
1.0547072e-06
1.0495525e-06
1.036432e-06
1.0198242e-06
1.0032319e-06
9.8745213e-07
9.670712e-07
9.4755806e-07
9.2489053e-07
9.0295649e-07
8.7997676e-07
8.6327033e-07
8.4738976e-07
8.3189417e-07
8.301274e-07
8.2496367e-07
8.3034697e-07
8.3886564e-07
8.4960972e-07
8.6211828e-07
8.8680266e-07
9.0608816e-07
9.3887091e-07
9.674526e-07
1.0075845e-06
1.0486354e-06
1.1069637e-06
1.1714708e-06
9.9880912e-07
1.2092845e-06
1.3344911e-06
1.388681e-06
1.3871997e-06
1.3608313e-06
1.3145106e-06
1.260737e-06
1.2071402e-06
1.1504018e-06
1.0954068e-06
1.0452472e-06
9.9818843e-07
9.5140577e-07
9.1529717e-07
8.8277992e-07
8.5499119e-07
8.4179246e-07
8.3204824e-07
8.3114403e-07
8.3893063e-07
8.5263173e-07
8.6536229e-07
8.9307081e-07
9.1336028e-07
9.4948952e-07
9.869111e-07
1.0629905e-06
1.112292e-06
1.2174422e-06
1.2824706e-06
9.9160134e-07
1.3011468e-06
1.5592246e-06
1.7836117e-06
1.9427483e-06
2.0364808e-06
2.0633004e-06
2.0383697e-06
1.9763365e-06
1.8734532e-06
1.7489673e-06
1.6157057e-06
1.4829713e-06
1.3426717e-06
1.2255035e-06
1.1088814e-06
1.0098737e-06
9.426649e-07
8.9715998e-07
8.742201e-07
8.5978934e-07
8.6429991e-07
8.7747501e-07
8.9811342e-07
9.1792884e-07
9.3968617e-07
9.6930755e-07
1.0334527e-06
1.0863394e-06
1.1989986e-06
1.3128067e-06
8.9596398e-07
1.0390622e-06
1.230648e-06
1.5254275e-06
1.7596527e-06
1.9263675e-06
2.0249426e-06
2.0816603e-06
2.0984377e-06
2.0754588e-06
2.0110052e-06
1.9092382e-06
1.7883577e-06
1.6598153e-06
1.5268813e-06
1.4074069e-06
1.2962006e-06
1.2066542e-06
1.1282256e-06
1.0686295e-06
1.0181992e-06
9.7838535e-07
9.6548778e-07
9.7431508e-07
9.7843636e-07
9.8290629e-07
9.9436521e-07
1.0303065e-06
1.075625e-06
1.1520949e-06
1.2434697e-06
8.8273187e-07
8.9199565e-07
9.2344286e-07
1.0036647e-06
1.1244375e-06
1.2500254e-06
1.3605587e-06
1.4417464e-06
1.5124721e-06
1.5602629e-06
1.581155e-06
1.5423564e-06
1.481991e-06
1.4219254e-06
1.3424692e-06
1.2921248e-06
1.2424369e-06
1.1864181e-06
1.1540093e-06
1.145991e-06
1.1571655e-06
1.1693426e-06
1.1883967e-06
1.2151674e-06
1.2391135e-06
1.2533542e-06
1.2685024e-06
1.2919172e-06
1.3191979e-06
1.3749733e-06
1.3598614e-06
8.8353763e-07
9.5134356e-07
9.2679309e-07
9.0718364e-07
8.9922492e-07
9.0727596e-07
9.3516044e-07
9.6403932e-07
1.0030504e-06
1.0442101e-06
1.0788862e-06
1.1094092e-06
1.1166697e-06
1.0872946e-06
1.0627607e-06
1.0387251e-06
1.0108316e-06
1.0069649e-06
1.0235204e-06
1.0472819e-06
1.0754263e-06
1.1147366e-06
1.1664583e-06
1.2040441e-06
1.2845258e-06
1.339258e-06
1.4293408e-06
1.5148015e-06
1.5795952e-06
1.7287704e-06
1.7715213e-06
8.867412e-07
9.7721325e-07
9.355914e-07
8.9646271e-07
8.8053789e-07
8.9837286e-07
9.4375636e-07
1.006879e-06
1.0692186e-06
1.1268727e-06
1.1809856e-06
1.2117497e-06
1.1946821e-06
1.1589029e-06
1.1143664e-06
1.0678492e-06
1.0147964e-06
9.7896886e-07
9.6450072e-07
9.4624612e-07
9.6497898e-07
9.8212707e-07
1.0215795e-06
1.0596825e-06
1.1502082e-06
1.2067142e-06
1.3350599e-06
1.4147291e-06
1.5167859e-06
1.6435173e-06
1.8048837e-06
8.651889e-07
8.7843832e-07
8.8762483e-07
9.2016318e-07
9.9970169e-07
1.1113018e-06
1.250882e-06
1.3530055e-06
1.4093763e-06
1.4180147e-06
1.4041053e-06
1.3603584e-06
1.2988774e-06
1.2302762e-06
1.1574934e-06
1.0880568e-06
1.0267938e-06
9.7915492e-07
9.5130658e-07
9.2903283e-07
9.1657076e-07
9.2795506e-07
9.4665534e-07
9.5980197e-07
9.9472437e-07
1.0298619e-06
1.0993421e-06
1.1416931e-06
1.2317074e-06
1.2983324e-06
1.5122218e-06
8.3506157e-07
9.2500021e-07
1.060648e-06
1.2087046e-06
1.2961801e-06
1.3170971e-06
1.3169463e-06
1.3098333e-06
1.2695506e-06
1.2486425e-06
1.2177173e-06
1.1664346e-06
1.1133074e-06
1.0636161e-06
1.0186405e-06
9.7934149e-07
9.5082687e-07
9.2544451e-07
9.1296682e-07
9.0793193e-07
9.0774572e-07
9.190523e-07
9.3470325e-07
9.4583691e-07
9.5925113e-07
9.8094268e-07
1.0167717e-06
1.0386882e-06
1.0720444e-06
1.0960054e-06
1.1631366e-06
9.420647e-07
1.1145078e-06
1.196281e-06
1.2015578e-06
1.1849358e-06
1.151444e-06
1.1219331e-06
1.0922108e-06
1.0695637e-06
1.0598425e-06
1.0443348e-06
1.0237189e-06
1.0067111e-06
9.9228406e-07
9.8195782e-07
9.6850812e-07
9.6006327e-07
9.5186548e-07
9.5085086e-07
9.5710627e-07
9.6938685e-07
9.8417462e-07
1.0009871e-06
1.011545e-06
1.0196723e-06
1.0370781e-06
1.0644209e-06
1.096583e-06
1.1171967e-06
1.1468145e-06
1.1770311e-06
8.8645912e-07
1.0020629e-06
1.0731379e-06
1.1555792e-06
1.2120952e-06
1.2583174e-06
1.268909e-06
1.2655705e-06
1.2541213e-06
1.2075156e-06
1.1624844e-06
1.1329515e-06
1.104354e-06
1.0855798e-06
1.0761835e-06
1.0605279e-06
1.0470097e-06
1.0373611e-06
1.0358787e-06
1.045666e-06
1.0600161e-06
1.0834309e-06
9.7182392e-07
1.1405691e-06
1.1592152e-06
1.2052745e-06
1.0815739e-06
8.1078238e-07
1.3279969e-06
1.2990291e-06
1.3731449e-06
8.4343831e-07
9.3987109e-07
1.0533226e-06
1.1845676e-06
1.274226e-06
1.3453017e-06
1.4050617e-06
1.4980049e-06
1.5459905e-06
1.5642118e-06
1.5770947e-06
1.5711466e-06
1.5909067e-06
1.620569e-06
1.6429481e-06
1.6449413e-06
1.643045e-06
1.6450065e-06
1.656519e-06
1.690134e-06
1.722134e-06
1.8021633e-06
1.4776854e-06
1.7990282e-06
2.0052856e-06
2.1225738e-06
2.2184192e-06
1.1983682e-06
2.2369249e-06
2.4722588e-06
2.0623012e-06
9.2782954e-07
1.3581736e-06
1.4682522e-06
1.8054237e-06
1.8417913e-06
2.1619339e-06
2.0096021e-06
2.5466982e-06
2.5927444e-06
2.5912822e-06
2.7145534e-06
2.8494673e-06
2.9330509e-06
3.1596911e-06
3.2473789e-06
3.2584156e-06
3.2556069e-06
3.2875377e-06
3.35794e-06
3.4801656e-06
3.5875129e-06
3.721867e-06
3.7655659e-06
3.988524e-06
4.0843615e-06
4.197007e-06
4.3220438e-06
3.6674146e-06
4.0672828e-06
4.6028011e-06
4.5962678e-06
7.6507671e-07
1.6974169e-06
1.8511576e-06
2.0244254e-06
1.8692254e-06
2.1405641e-06
1.8106233e-06
2.3603653e-06
1.7679764e-06
2.4279013e-06
2.3744158e-06
2.365075e-06
2.3052729e-06
2.3638493e-06
2.4128226e-06
2.4396723e-06
2.4192319e-06
2.4564084e-06
2.6300914e-06
2.6293229e-06
2.4314059e-06
2.5173757e-06
2.8597976e-06
2.987766e-06
2.5908979e-06
2.3673086e-06
2.6745801e-06
3.6169002e-06
3.6448941e-06
2.7343755e-06
2.4203976e-06
2.8830198e-06
4.7544573e-06
2.6715061e-06
1.4904504e-06
1.2459628e-06
1.2214549e-06
1.5129015e-06
1.9271866e-06
1.9266452e-06
1.5399622e-06
1.3310563e-06
1.4012617e-06
1.3768058e-06
1.2491373e-06
1.2026043e-06
1.2881349e-06
1.3670901e-06
1.3700102e-06
1.361268e-06
1.3114984e-06
1.3000021e-06
1.1893642e-06
1.0729702e-06
4.5029414e-06
4.03687e-06
1.7730072e-06
1.1493343e-06
1.3582074e-06
1.2749361e-06
1.5263337e-06
2.1161412e-06
2.2051666e-06
1.9043104e-06
1.5096144e-06
1.5526565e-06
1.5808268e-06
1.4947259e-06
1.3202664e-06
1.3532556e-06
1.5051303e-06
1.5129768e-06
1.5187526e-06
1.4848985e-06
1.4721297e-06
1.3811415e-06
1.1891135e-06
2.8467108e-06
4.3376701e-06
3.483296e-06
2.0481315e-06
1.4220526e-06
1.3715042e-06
1.5587036e-06
2.1811686e-06
2.5138417e-06
2.4720738e-06
1.8714837e-06
1.8246541e-06
1.8145279e-06
1.7720678e-06
1.5795182e-06
1.5154151e-06
1.6559299e-06
1.7456053e-06
1.7381352e-06
1.6579978e-06
1.643698e-06
1.6102906e-06
1.4355645e-06
1.7423655e-06
4.7504852e-06
2.215306e-06
1.4399016e-06
1.7057834e-06
1.4794017e-06
1.6592473e-06
2.3595645e-06
2.7642556e-06
2.7936021e-06
2.2764561e-06
2.079328e-06
2.0836589e-06
2.0488973e-06
1.9646578e-06
1.7532057e-06
1.810387e-06
1.9612816e-06
2.0247007e-06
1.9847311e-06
1.9005546e-06
1.8962595e-06
1.8361588e-06
2.8976541e-06
3.5264058e-06
3.9654765e-06
2.8780646e-06
1.7500856e-06
1.1992603e-06
1.8912458e-06
2.7199954e-06
3.2372329e-06
3.3299364e-06
2.8586004e-06
2.3411935e-06
2.3438198e-06
2.3167921e-06
2.2452789e-06
2.0178655e-06
1.9955663e-06
2.1518922e-06
2.2174897e-06
2.2413673e-06
2.182777e-06
2.1994227e-06
2.1929009e-06
2.3188497e-06
3.0466436e-06
1.9402109e-06
1.7393723e-06
1.8450295e-06
2.0181585e-06
2.1362923e-06
2.9957525e-06
3.7789713e-06
3.8445204e-06
3.5730884e-06
2.8626333e-06
2.8007331e-06
2.7539474e-06
2.6285158e-06
2.3772343e-06
2.2405507e-06
2.3422959e-06
2.4715782e-06
2.5138213e-06
2.5105515e-06
2.4814708e-06
2.511723e-06
1.9532039e-06
2.2742458e-06
2.4245734e-06
3.6069043e-06
2.496739e-06
1.4651446e-06
1.4945088e-06
2.7942127e-06
4.1866622e-06
4.7444219e-06
4.9285079e-06
4.0173476e-06
3.7527653e-06
3.664123e-06
3.3614921e-06
3.1243101e-06
2.6978487e-06
2.7167403e-06
2.9004032e-06
2.9529877e-06
2.9819577e-06
2.9257914e-06
2.8961791e-06
1.5336181e-06
3.1683606e-06
3.9063505e-06
2.6529151e-06
2.9024933e-06
2.7265528e-06
2.6418307e-06
3.3119475e-06
4.7206356e-06
5.4624599e-06
6.1102054e-06
5.5389113e-06
4.712382e-06
4.666521e-06
4.2837044e-06
4.0179162e-06
3.6310169e-06
3.4368053e-06
3.7579737e-06
3.8389451e-06
3.8801739e-06
3.7235834e-06
3.450888e-06
1.6355923e-06
3.1834131e-06
3.7110173e-06
2.4881014e-06
2.9570333e-06
3.3561049e-06
2.5882255e-06
3.2361042e-06
5.6188194e-06
6.6237461e-06
7.2387382e-06
7.0011719e-06
5.9171278e-06
5.9171237e-06
5.6532302e-06
5.0225876e-06
4.6149314e-06
4.2289873e-06
4.4396376e-06
4.7873315e-06
4.6592707e-06
4.7392965e-06
4.6429096e-06
1.36028e-06
1.6141686e-06
3.6159289e-06
4.8951343e-06
4.7010437e-06
2.4899004e-06
2.2050777e-06
3.7685499e-06
7.9940621e-06
8.3868837e-06
8.8185235e-06
8.6829541e-06
7.5637455e-06
7.508268e-06
7.5507671e-06
6.9436431e-06
6.1892614e-06
5.4793448e-06
5.3795527e-06
5.7837459e-06
5.7105714e-06
5.5505115e-06
5.5064058e-06
6.8154533e-07
1.9802573e-06
2.9422411e-06
3.5605475e-06
4.4111692e-06
5.7307243e-06
5.1065312e-06
6.9212762e-06
9.4077368e-06
8.8566698e-06
1.125954e-05
1.1617644e-05
1.0330813e-05
1.0030976e-05
1.0074491e-05
9.6932193e-06
8.2625431e-06
7.3391993e-06
6.8123519e-06
7.2560807e-06
7.5717738e-06
7.1533676e-06
6.9532568e-06
6.40048e-07
1.951591e-06
2.7268245e-06
3.727954e-06
5.5644282e-06
6.0479719e-06
5.9834074e-06
7.8625501e-06
1.2900608e-05
1.4611099e-05
1.5312107e-05
1.5988385e-05
1.534866e-05
1.5307597e-05
1.5759404e-05
1.5065573e-05
1.2063616e-05
9.9883421e-06
8.9414609e-06
9.2320803e-06
1.0366126e-05
1.0026447e-05
9.1167127e-06
9.8371434e-07
1.5647477e-06
3.2218761e-06
7.2578721e-06
9.2402891e-06
7.0947788e-06
8.03646e-06
1.0606742e-05
1.5599684e-05
2.2919744e-05
2.5263605e-05
2.8348367e-05
2.3473203e-05
2.4209951e-05
2.9125706e-05
2.7403933e-05
1.9931412e-05
1.4628359e-05
1.286757e-05
1.2750717e-05
1.4526225e-05
1.4225772e-05
1.2307161e-05
1.2666795e-06
1.8980139e-06
5.8024312e-06
7.9491496e-06
8.9690455e-06
1.1495945e-05
1.5102314e-05
2.0667808e-05
2.5464619e-05
2.9722396e-05
3.2202478e-05
3.5474636e-05
4.3283204e-05
4.6229989e-05
4.669484e-05
4.055451e-05
2.9792419e-05
2.5641013e-05
2.4264663e-05
2.4379093e-05
2.7700679e-05
2.6781704e-05
2.1068623e-05
1.8960929e-06
3.0644589e-06
6.7122394e-06
9.0804249e-06
1.2423125e-05
1.7075458e-05
2.2660693e-05
2.9548188e-05
3.2434687e-05
3.6455342e-05
3.5883466e-05
3.8584774e-05
4.9399854e-05
6.2030553e-05
6.1944137e-05
5.1697662e-05
3.6735147e-05
3.2725326e-05
3.361028e-05
3.6243222e-05
4.0004208e-05
3.7321114e-05
3.0715359e-05
1.9981806e-06
3.2808061e-06
7.2339334e-06
9.9815178e-06
1.4436454e-05
2.1240086e-05
3.1194029e-05
3.9060531e-05
4.1965387e-05
4.6366259e-05
4.539859e-05
4.9148139e-05
6.5067377e-05
8.9589669e-05
9.5250204e-05
7.6188573e-05
4.8775332e-05
4.0975483e-05
4.0667611e-05
4.5154321e-05
5.2666358e-05
4.942371e-05
3.8287858e-05
2.2124332e-06
3.5935282e-06
7.9285189e-06
1.0914438e-05
1.6144419e-05
2.508928e-05
3.9613015e-05
4.8388689e-05
5.1944685e-05
5.7824726e-05
5.977495e-05
6.6601209e-05
8.9528423e-05
0.00012058042
0.0001312954
0.00011407993
7.5381343e-05
6.3079586e-05
6.4847261e-05
8.0037029e-05
9.2660941e-05
8.1753248e-05
5.3606746e-05
2.0971095e-06
3.8505458e-06
8.4915161e-06
1.2353923e-05
1.9531737e-05
3.1646074e-05
4.9662325e-05
5.8280011e-05
6.2334287e-05
7.0056398e-05
7.5528242e-05
8.5776429e-05
0.00011511614
0.00014783889
0.00015920725
0.00014176514
0.00010580167
9.5323229e-05
0.0001036599
0.00012649078
0.00013510975
0.00011672113
7.5557837e-05
2.1060951e-06
3.8730129e-06
8.6354092e-06
1.3678065e-05
2.2075826e-05
3.577182e-05
5.6532693e-05
6.5716873e-05
7.0136307e-05
7.9834293e-05
8.8324375e-05
0.00010108078
0.00012372714
0.00015312571
0.000180107
0.00016163664
0.00012378959
0.00011361064
0.00012596817
0.00015304957
0.00016078302
0.00013828836
0.00010240518
2.3699681e-06
4.2390917e-06
8.3135915e-06
1.5231924e-05
2.4099644e-05
4.1583478e-05
6.3438887e-05
7.3296213e-05
7.8382399e-05
9.0512213e-05
0.00010122853
0.000117436
0.00015086436
0.00018776049
0.00019616689
0.00017679347
0.00014953271
0.00014616326
0.00016934943
0.00019628939
0.00019948593
0.00016838215
0.00012819185
2.3374851e-06
4.4058953e-06
8.3333515e-06
1.3925201e-05
3.0333416e-05
4.9654698e-05
7.1233124e-05
8.1610873e-05
8.8541281e-05
0.00010373087
0.00011645154
0.00013792584
0.00018032789
0.00020807068
0.0002143145
0.00020076772
0.00018750492
0.00019562626
0.00022714797
0.00024574558
0.00023939977
0.00019765306
0.00015481631
2.2414022e-06
4.4671888e-06
8.7932854e-06
1.3636719e-05
3.0709976e-05
5.6076871e-05
7.834045e-05
9.0616407e-05
0.00010094308
0.00011994701
0.00012237101
0.00016291814
0.00020791268
0.00023193745
0.00023868452
0.00023483041
0.00023200298
0.00025106988
0.00028324533
0.00029476464
0.00027865058
0.00022902984
0.00019303317
1.8841934e-06
4.2426956e-06
1.0995008e-05
1.5939641e-05
2.7010993e-05
5.7659263e-05
8.5886225e-05
0.00010105174
9.8289595e-05
9.6835319e-05
0.00015332675
0.00019531658
0.00023414488
0.00024054803
0.00026880575
0.00027860461
0.00028450159
0.00030910423
0.0003290102
0.0003340718
0.00031552543
0.00027084465
0.00025980097
1.9787015e-06
3.1224459e-06
1.0821367e-05
2.2529144e-05
3.0991517e-05
4.1380897e-05
5.3205033e-05
6.1983518e-05
7.4983835e-05
0.00014391115
0.00019130629
0.00016502894
0.00014117466
0.0001620151
0.00024328896
0.00032175096
0.00033888944
0.0003636719
0.00036753078
0.00036266736
0.00035978083
0.00033862752
0.00034149009
1.2962607e-06
3.7304108e-06
9.7950208e-06
2.4695191e-05
5.1487331e-05
4.2215684e-05
4.6876895e-05
6.2739161e-05
0.00011429383
0.00019749404
0.0001850322
0.00014120384
0.00014242755
0.00017016579
0.00028030079
0.00037512774
0.0003850182
0.00025579007
0.00025433349
0.00031432283
0.00041370531
0.00040752806
0.00037609936
9.8074839e-07
5.5766128e-06
1.107316e-05
2.8835814e-05
6.0120851e-05
8.9972192e-05
0.00012846409
0.00015208572
0.00015880492
0.0001655069
0.00019018343
0.00022488754
0.00024348434
0.00027236195
0.00035771582
0.00041814246
0.00031069728
0.00029422077
0.00035632784
0.00048750006
0.00047331396
0.00045473428
0.00035092181
1.2216782e-06
5.2503525e-06
1.5337548e-05
4.1606467e-05
8.4059913e-05
9.6153649e-05
0.00011318216
0.00016024866
0.00018306822
0.00019938337
0.00030427632
0.00032689112
0.00036364353
0.00037298296
0.00032923316
0.00038188029
0.00051516936
0.00052671795
0.00054334953
0.00049152273
0.00051054262
0.00047100879
0.00043066723
2.8602541e-06
8.4084017e-06
2.8777757e-05
6.4283137e-05
7.8799894e-05
7.5535585e-05
8.9657144e-05
0.0001448556
0.00028324902
0.00031819507
0.00023453177
0.00020069919
0.00024289323
0.00041877009
0.00052382662
0.00052750586
0.00038803706
0.00048742561
0.00059089489
0.00056778008
0.00052961583
0.00048044631
0.00044372152
5.7714518e-06
1.5586344e-05
3.0830349e-05
5.1581244e-05
9.6542817e-05
0.00016215
0.00020909082
0.00025402313
0.00024328276
0.00025948753
0.00026386245
0.0002904222
0.00038274066
0.00055001047
0.00057258403
0.00041008677
0.000367005
0.00047934562
0.00062163403
0.00059861256
0.00046397829
0.00038732213
0.00046007615
3.58737e-06
1.8437664e-05
5.1160493e-05
9.9474478e-05
0.00014275654
0.00014930723
0.00019159259
0.0002798223
0.00033895568
0.00033769231
0.00043818568
0.00050535281
0.00051286693
0.00041056995
0.0005615755
0.00060974633
0.00062618368
0.00058127034
0.00058803763
0.00062824114
0.0005669834
0.00048806009
0.0004597042
2.4514106e-06
2.2073811e-05
5.9598496e-05
0.00011289993
0.00016609229
0.00019237354
0.00022210937
0.00034691327
0.00039586132
0.00043011043
0.0003031397
0.00037310928
0.0005950256
0.00062549127
0.00052401884
0.00051121827
0.00066590617
0.00067767198
0.00067023513
0.00061322992
0.00056225305
0.0005046343
0.00037297339
3.6478293e-06
2.6702517e-05
7.1971896e-05
0.0001324627
0.00019193567
0.00025276577
0.00032090971
0.0003776616
0.0003976372
0.00047113112
0.00051442245
0.00056410368
0.00050034852
0.00065776881
0.00067850858
0.00055990089
0.0006671663
0.00069534188
0.0006563257
0.00053620405
0.00051425862
0.00048892853
0.00040822714
8.3448875e-06
3.6647634e-05
9.5036874e-05
0.00015934366
0.00021989561
0.00028224914
0.00034811926
0.0004102271
0.00046397464
0.00048388106
0.0005475148
0.00060433216
0.00064935977
0.00056594558
0.00069709416
0.00071171065
0.00065375346
0.00062613033
0.00062589585
0.00056438021
0.00051491159
0.00043929537
0.0003691673
5.8951429e-06
4.5156476e-05
0.00011447349
0.00018401062
0.00024994418
0.00031522671
0.00037957595
0.0004417828
0.00049847651
0.00054808424
0.00059504604
0.00063905259
0.00066706885
0.00068431954
0.00056496003
0.00071795778
0.00071416908
0.00067916155
0.0006150099
0.00055191661
0.00049630419
0.00041894301
0.00030918072
5.6165596e-06
6.5712359e-05
0.000148173
0.00022345314
0.00029181742
0.00035816079
0.00042129167
0.00048161601
0.00053355652
0.00058151683
0.00062739154
0.00066449633
0.00068209588
0.00068799186
0.00069065088
0.00068861377
0.00067186282
0.00061855155
0.00054326223
0.00046827399
0.00038787411
0.00028780269
0.00020328521
6.8686959e-06
7.8405034e-05
0.00016598352
0.0002433378
0.0003155356
0.00038295541
0.00044472481
0.00049832185
0.00054392633
0.00058507934
0.00062496052
0.00065799332
0.00067681014
0.00068025415
0.00067627808
0.00066400239
0.00063942749
0.00059048604
0.00052256618
0.00045130041
0.00036842392
0.00027336037
0.00019184992
9.7907233e-06
9.0188364e-05
0.00018181149
0.00026160676
0.00033259087
0.00039743576
0.00045674712
0.00050774712
0.00055031754
0.00058522142
0.00061544329
0.00064048543
0.00065638686
0.0006595776
0.00065243376
0.00063482902
0.00060406047
0.00055453632
0.00049037222
0.00042285081
0.00035342234
0.00027730203
0.00019416366
7.6552891e-06
9.7525869e-05
0.00019480577
0.00027775375
0.00034834781
0.00041023774
0.00046571702
0.00051360322
0.00055355892
0.00058471806
0.00060770493
0.00062207093
0.00062699596
0.00062264397
0.00061049577
0.00058953566
0.0005560453
0.00050567197
0.00044235268
0.00037565585
0.00031037756
0.00024724745
0.00019009178
7.7813594e-06
0.00010214016
0.00020386124
0.00028944894
0.00036117443
0.00042168125
0.00047296223
0.00051524711
0.00055001412
0.00057626573
0.00059350748
0.00060072977
0.00059657457
0.00058252747
0.00056060535
0.00053297609
0.00049693168
0.00044832831
0.00038940889
0.00032919718
0.00027661723
0.00023603131
0.00020088163
7.3936e-06
0.0001062409
0.00021062289
0.00029668279
0.00036809743
0.00042726138
0.00047560366
0.00051323808
0.00054169818
0.00056159097
0.00057309951
0.00057533094
0.00056687395
0.00054710091
0.0005177828
0.00048265755
0.00044231651
0.00039613893
0.0003471057
0.00030521876
0.00027821828
0.00026266121
0.00025007662
9.1927964e-06
0.00011055274
0.00021580002
0.00030100478
0.00036985481
0.00042608316
0.00047180001
0.00050688862
0.00053230747
0.00054807036
0.00055452583
0.00055186933
0.00054017879
0.00051739292
0.00048546688
0.00044804383
0.0004083369
0.00036968973
0.00033789159
0.00032008852
0.00031252865
0.00031566625
0.00033802774
6.9223666e-06
0.00010651457
0.000210067
0.00029644571
0.00036528977
0.00042013726
0.00046385309
0.00049737001
0.00052134402
0.0005355963
0.00053985945
0.00053449826
0.00052010598
0.00049610391
0.00046520265
0.00043151303
0.00040032364
0.00037727032
0.00036472056
0.00036126313
0.00037410846
0.00040881256
0.00044999143
7.320003e-06
0.00010239549
0.00020266777
0.00028810615
0.00035700225
0.00041151518
0.00045383731
0.00048574253
0.00050809595
0.00052156159
0.00052585735
0.00052136059
0.00050839072
0.00048730001
0.00046151754
0.00043650206
0.00041814418
0.00040757589
0.00040738512
0.0004259703
0.0004635152
0.00050818112
0.00055527609
6.4990754e-06
0.00010554549
0.00020421722
0.00028515087
0.00035055129
0.00040288872
0.00044372814
0.00047458781
0.0004961825
0.0005095966
0.00051506162
0.00051321062
0.00050494218
0.00049063116
0.00047421201
0.00046014447
0.00044929157
0.00044967411
0.00046683777
0.00050056129
0.00054360107
0.00059093664
0.00063911934
7.5519103e-06
0.0001070317
0.00020510567
0.00028608567
0.00034854396
0.00039734563
0.00043594805
0.0004660996
0.0004881286
0.00050298084
0.00051103762
0.00051283671
0.00050989032
0.00050317677
0.000496389
0.00048973156
0.00049151353
0.00050567807
0.00053241788
0.000569261
0.00061312446
0.00065977744
0.00070675399
5.1252203e-06
9.1214737e-05
0.00018439551
0.00026688566
0.00033196893
0.00038325578
0.00042344927
0.00045500638
0.00047894977
0.00049647688
0.00050848287
0.00051575249
0.00051947994
0.00052128653
0.0005224224
0.00052888626
0.0005426808
0.00056499675
0.00059630356
0.0006350743
0.00067890367
0.0007230427
0.00076626306
5.0645709e-06
5.437805e-05
0.00013353018
0.00021746811
0.00029161403
0.00035146705
0.0003984799
0.00043519073
0.00046398551
0.00048605977
0.0005033332
0.00051715422
0.00052887111
0.00053990636
0.00055294346
0.00056991899
0.00059238262
0.00062101557
0.00065539929
0.00069442855
0.00072304114
0.00075995026
0.00079163837
3.5377876e-06
3.6426348e-05
9.332395e-05
0.00017180143
0.00024636555
0.000311616
0.00036531017
0.00040842588
0.00044321387
0.00047147179
0.0004950909
0.00051612459
0.00053634983
0.0005575554
0.00058011106
0.00060601467
0.00063584303
0.00066943774
0.00068230824
0.00070759183
0.00074303683
0.0007948942
0.00083463191
3.9296651e-06
3.7765032e-05
8.8379617e-05
0.00015604782
0.00022327821
0.0002853771
0.0003393915
0.00038511571
0.00042391811
0.00045787531
0.00048841834
0.00051788569
0.00054733353
0.00057582119
0.00060621795
0.00063946186
0.0006752823
0.00071283647
0.00075048118
0.00076959745
0.0008000441
0.00083717114
0.00083637776
4.0762434e-06
5.1260886e-05
0.00010121363
0.00016545592
0.00022884879
0.00028518354
0.00033553815
0.00038069106
0.00042184366
0.00046000629
0.00049580005
0.00053004058
0.00056324608
0.00059798636
0.00063572589
0.00067483175
0.00071435547
0.00075297987
0.00078480413
0.00077765783
0.00078621836
0.00081143003
0.00080109937
4.4771386e-06
7.5995544e-05
0.00013098756
0.00018868351
0.00024646808
0.00029982759
0.00034831256
0.00039267504
0.00043401459
0.00047293118
0.00051047399
0.00054792752
0.00058727567
0.00062955624
0.00067159325
0.00071259729
0.00075134137
0.00078380723
0.00078335251
0.00077938166
0.00079491046
0.00082651066
0.00078749169
4.7763697e-06
9.3828973e-05
0.00016188341
0.00022102255
0.00027294355
0.00032148262
0.00036800832
0.00041195554
0.00045416336
0.0004957651
0.00053836168
0.00058219616
0.00062650658
0.00066947992
0.00071030141
0.00074761571
0.00077954835
0.00080221948
0.00079735378
0.00078445024
0.00078439321
0.00080061134
0.00072272787
5.0929861e-06
0.00010529395
0.00018539303
0.00025019198
0.00030428683
0.00035300619
0.00039964096
0.00044560996
0.0004916436
0.00053766733
0.00058280481
0.0006268392
0.00066897003
0.00070792396
0.0007423451
0.000770064
0.00079130298
0.0008044401
0.00078191019
0.00073737526
0.00070658263
0.00070300147
0.00061789701
5.35409e-06
0.00011350712
0.0002040081
0.00027561442
0.00033414348
0.00038699759
0.00043777116
0.00048711617
0.00053537315
0.00058209612
0.00062647404
0.00066755576
0.00070426401
0.00073514888
0.00075887674
0.00077587099
0.000781041
0.00077079388
0.00070238507
0.00063967897
0.00060050415
0.00055600653
0.00047830038
5.6398519e-06
0.00012034734
0.00022043092
0.00029944449
0.00036362424
0.00042161423
0.00047621923
0.00052793511
0.00057691527
0.00062245928
0.00066356267
0.00069895832
0.00072745926
0.00074832528
0.00075985964
0.00075642698
0.00073598093
0.00067043148
0.00059069924
0.0005320633
0.00047252236
0.0003721841
0.00027611924
5.9682152e-06
0.00012668432
0.00023596276
0.00032275473
0.00039303935
0.00045590998
0.00051321636
0.0005662013
0.00061455997
0.00065713007
0.00069276768
0.0007205733
0.00073779593
0.00074399183
0.00073445369
0.00070811569
0.00065180687
0.00055816618
0.00048273371
0.00041752633
0.00031373478
0.00020375515
0.0001052377
6.4822323e-06
0.00013319206
0.00025201759
0.00034676146
0.00042297909
0.00049070346
0.0005504525
0.00060314131
0.00064855167
0.00068607248
0.00071464918
0.00073039206
0.00073447149
0.00072272201
0.00069343826
0.0006446521
0.00054819337
0.0004596559
0.00038765415
0.00029004434
0.0001933709
9.7802983e-05
3.5377723e-05
7.1642713e-06
0.00014018019
0.0002687476
0.00037142667
0.00045400734
0.00052542397
0.00058568846
0.00063676539
0.00067870542
0.00071059787
0.00072924434
0.00073428839
0.00072392442
0.00069549539
0.00063762451
0.00053723594
0.00044622626
0.00037309605
0.0002899478
0.00020510558
0.00012979146
6.2329682e-05
1.9560207e-05
8.3478312e-06
0.0001474361
0.00028628457
0.00039716258
0.00048458583
0.00055805601
0.00061849287
0.00066781025
0.00070592411
0.0007307542
0.00074024316
0.00073524796
0.00071183162
0.00064901499
0.00054301892
0.00044360294
0.0003609632
0.00029232513
0.0002291656
0.00016590352
0.00011065156
6.1186813e-05
1.9943334e-05
1.0020917e-05
0.0001537408
0.00030257525
0.00042063671
0.00051258271
0.00058805152
0.00064841549
0.00069588944
0.00073049612
0.00074873821
0.00075214969
0.00073820634
0.00068939953
0.00058697744
0.00047754001
0.00037994378
0.00030051879
0.00023804711
0.0001943535
0.00015604077
0.00011359256
7.2210232e-05
3.3179148e-05
1.2828655e-05