/*--------------------------------*- C++ -*----------------------------------*\
| =========                 |                                                 |
| \\      /  F ield         | OpenFOAM: The Open Source CFD Toolbox           |
|  \\    /   O peration     | Version:  2406                                  |
|   \\  /    A nd           | Website:  www.openfoam.com                      |
|    \\/     M anipulation  |                                                 |
\*---------------------------------------------------------------------------*/
FoamFile
{
    version     2.0;
    format      ascii;
    arch        "LSB;label=32;scalar=64";
    class       volScalarField;
    location    "170";
    object      rho_0;
}
// * * * * * * * * * * * * * * * * * * * * * * * * * * * * * * * * * * * * * //

dimensions      [1 -3 0 0 0 0 0];

internalField   nonuniform List<scalar> 
20580
(
1.0030762
1.0038537
1.0035146
1.0030194
1.0019368
1.002824
1.0017322
1.001672
1.002513
1.0023109
1.0026286
1.0018889
1.0030193
1.0027354
1.0020643
1.0027409
1.004624
1.0004529
1.0011452
1.0057711
1.0013843
0.99966286
1.0032795
1.0058714
0.99763042
0.99420708
1.0034993
1.0032247
0.99898461
1.0097768
1.0166837
1.0035666
1.0041755
1.003658
1.0031259
1.0017412
1.0028934
1.0018585
1.001491
1.0029345
1.002358
1.0023503
1.0019834
1.0035929
1.0024647
1.0020938
1.0039586
1.0041581
0.9988567
1.0029758
1.0059355
0.99897997
1.000443
1.0047011
1.0032879
0.99420493
0.99248395
1.0073724
1.0119824
0.99927699
0.99827903
1.0127425
1.0032384
1.0040974
1.0031014
1.0027679
1.0017195
1.0024974
1.0020202
1.0016389
1.0028798
1.0026327
1.0018937
1.0023069
1.0036606
1.0021332
1.001899
1.0044706
1.0036432
0.99808396
1.0044131
1.0056025
0.99732733
1.001637
1.005683
1.0024571
0.99444337
0.99291776
1.0082131
1.0174022
1.0010855
0.98792671
1.0010696
1.0021447
1.0035829
1.0020517
1.0021035
1.0019412
1.0019318
1.0021663
1.0021183
1.0024874
1.0027066
1.0015886
1.0027084
1.0032584
1.0018812
1.0016619
1.0041068
1.002898
0.99847798
1.0054208
1.0046004
0.99672074
1.0031089
1.0055285
1.0020226
0.99864487
0.99641432
1.0063251
1.016901
1.0040767
0.98332226
0.98667116
1.0008214
1.0027955
1.0011409
1.0015092
1.0022852
1.0016062
1.002194
1.0026533
1.0020872
1.0024926
1.0016228
1.0028749
1.002627
1.0018407
1.0017983
1.0031739
1.0017803
0.99995496
1.0058082
1.0030182
0.99737853
1.0047127
1.0044658
1.0002972
1.0036709
1.002866
1.003175
1.0099745
1.0069129
0.98769744
0.97992344
1.0000247
1.0022504
1.0007352
1.0011689
1.002663
1.001731
1.0021172
1.0029502
1.0018531
1.0022168
1.0020865
1.0028294
1.0019742
1.0019103
1.0022389
1.0020986
1.000682
1.0019993
1.0054079
1.0010433
0.99892887
1.0064936
1.0030612
0.99718295
1.0063431
1.0097513
1.0008067
0.99944386
1.0058503
0.9996169
0.98690792
1.0000051
1.0022358
1.0008837
1.0011429
1.0029009
1.0021581
1.0021418
1.0028258
1.0019849
1.0018142
1.0026442
1.0027664
1.0014595
1.0020036
1.0027978
1.0013835
1.0000419
1.003954
1.0045412
0.99919227
1.0005066
1.0079207
1.0018291
0.99415354
1.0055159
1.0139177
1.000838
0.9903677
0.99918447
1.0108544
1.0042103
1.0006066
1.0025814
1.0015311
1.0015735
1.0026889
1.0024824
1.0023229
1.0023069
1.0023705
1.001453
1.0028741
1.002777
1.0012692
1.002266
1.0033605
1.0014315
0.99997591
1.0052999
1.0034796
0.99809888
1.0020392
1.0081485
1.0015078
0.99315725
1.0023774
1.0136395
1.0026828
0.9866873
0.99134711
1.0137527
1.0217537
1.001522
1.0031023
1.0024577
1.0022966
1.0020538
1.0024151
1.0024879
1.0017708
1.0024895
1.0014927
1.0027827
1.0027323
1.0014761
1.0025694
1.0036277
1.0020643
1.0004637
1.0058499
1.0021797
0.99802026
1.0036274
1.0066099
1.0017007
0.99526998
0.99983247
1.0090759
1.0046332
0.98956718
0.9886942
1.0070846
1.0264598
1.0026061
1.0036432
1.0031023
1.0028223
1.0014411
1.0020521
1.0023727
1.0016338
1.0022141
1.0018829
1.0025944
1.0024423
1.0020037
1.0026803
1.0032966
1.0026945
1.0015002
1.0055851
1.0008852
0.99902641
1.0049788
1.0035911
1.001095
1.0001985
0.99995393
1.0023797
1.0042546
0.99775615
0.99351867
0.99882365
1.0157826
1.0032904
1.004063
1.0032469
1.003107
1.0012679
1.0019091
1.002084
1.0019004
1.0019302
1.0024793
1.0024665
1.0021262
1.0026048
1.0027822
1.0024959
1.002927
1.0027715
1.0044967
0.99980196
1.0007908
1.0062048
1.0002905
0.99912781
1.0059051
1.0031516
0.99691942
1.0001664
1.0065786
1.0033212
0.99763925
0.9978832
1.0029351
1.0038567
1.0028773
1.0030268
1.0014914
1.002067
1.0018501
1.002344
1.0017315
1.0029646
1.0022992
1.0018225
1.0030527
1.0029937
1.0017284
1.0028989
1.0038557
1.003101
0.99911973
1.0024356
1.0074392
0.99795051
0.99649197
1.0096925
1.0081689
0.99494724
0.99461325
1.0100488
1.014513
1.0034622
0.98849896
1.0018854
1.0034429
1.0022363
1.0024601
1.0021256
1.0024342
1.0017822
1.0026665
1.0018044
1.0030289
1.0021502
1.0016346
1.0033306
1.0031439
1.0012844
1.002595
1.0044238
1.0019478
0.99921857
1.0036057
1.0079944
0.99726241
0.99500473
1.0100545
1.0119874
0.99634842
0.99167261
1.0064095
1.0202067
1.0116481
0.9911076
1.0008286
1.0029111
1.0015357
1.0015877
1.0028898
1.0027096
1.0019844
1.002529
1.0023214
1.0028538
1.002184
1.0017478
1.0033415
1.0029675
1.0012217
1.0019859
1.0043455
1.0010533
1.0000793
1.0043028
1.007141
0.99815687
0.99580108
1.0074288
1.0118566
0.99932226
0.99291321
1.0003964
1.0153342
1.0153739
0.99967428
1.0003033
1.0027259
1.0012982
1.0011608
1.0033745
1.0027017
1.0024347
1.0021248
1.0028719
1.0025766
1.0023845
1.0021362
1.0030614
1.00263
1.0017539
1.0016039
1.0038909
1.0004081
1.0015172
1.0043266
1.0047599
0.99998239
0.99889812
1.0045441
1.0066925
1.0018054
0.99722293
0.99871573
1.0032166
1.0091815
1.0066347
1.0003301
1.002876
1.0016922
1.0013469
1.00331
1.0024392
1.0028287
1.0018713
1.0029253
1.0022287
1.002506
1.002727
1.0025362
1.0022744
1.0027126
1.0017854
1.003215
1.0001699
1.0033164
1.0039133
1.0010834
1.0013012
1.0037398
1.0030123
0.99888133
1.0012872
1.0038146
1.0016496
0.99436581
0.99640441
1.005476
1.0012262
1.003379
1.0023289
1.0019638
1.0028072
1.0020991
1.0028583
1.0020589
1.0026957
1.0019561
1.0023601
1.0031854
1.0020842
1.0018791
1.0035569
1.0023767
1.002491
1.000357
1.0050305
1.0037884
0.9977067
1.0012923
1.0086355
1.0037583
0.99354876
0.99798408
1.0102117
1.0075321
0.99489495
0.98695357
0.99849718
1.0026321
1.0040953
1.0029266
1.0028749
1.0021064
1.0020605
1.002423
1.0025495
1.0024215
1.0018602
1.0022572
1.0033652
1.0019204
1.0015006
1.0039279
1.0029661
1.0020752
1.0007724
1.0057925
1.0039681
0.99601868
1.0004121
1.0112154
1.0056719
0.99208606
0.99506567
1.0115742
1.0144563
0.99976597
0.98720248
0.99218243
1.0037168
1.0045306
1.0032144
1.0036874
1.0016581
1.002382
1.0021515
1.0031985
1.0020622
1.0019363
1.0024548
1.0033679
1.0020451
1.0015074
1.0038685
1.0034054
1.0020903
1.0013858
1.0054301
1.0039251
0.99665857
0.99946936
1.0104811
1.0070198
0.99423817
0.99502217
1.0083249
1.0163778
1.0054874
0.99345736
0.99241557
1.0035678
1.0043541
1.0031789
1.0039367
1.0017581
1.0028267
1.0021602
1.0035174
1.0020026
1.0021643
1.0025815
1.0030247
1.0022639
1.0020097
1.0033553
1.0035164
1.0022141
1.0022463
1.0041764
1.0033976
0.99899469
1.000349
1.0067922
1.0058205
0.99794785
0.99850416
1.0043873
1.0092571
1.0077291
1.0007811
0.99789185
1.0025324
1.0037916
1.0026797
1.0031559
1.0021232
1.0028595
1.0022465
1.0031002
1.0021017
1.0023229
1.0025284
1.0024605
1.0024752
1.0027349
1.0024829
1.0031476
1.0020847
1.0032504
1.002453
1.0017452
1.0024911
1.0024261
1.002916
1.0015471
1.0020801
1.0036591
1.0032196
0.99953776
1.0024121
1.0062556
1.0054268
1.0011054
1.003092
1.0020269
1.0017587
1.0027168
1.0025828
1.0025682
1.0021713
1.0025123
1.0026636
1.0027281
1.0020901
1.0028205
1.0036032
1.0019353
1.0025361
1.0021117
1.0043844
1.0012274
0.99974715
1.0055194
1.0055765
1.0005209
0.99715178
1.0035629
1.0097498
1.0050616
0.99343736
0.99424698
1.0067037
1.01234
1.000331
1.0029833
1.0017532
1.0010954
1.0036667
1.0024057
1.0029461
1.0018718
1.0026603
1.003341
1.0035053
1.0022949
1.0031877
1.0045811
1.0019563
1.0022463
1.0021748
1.0055386
1.0010476
0.99851615
1.006314
1.0089814
1.0009618
0.99485026
1.0021191
1.0140276
1.0090916
0.99340125
0.98904926
1.0031435
1.0149979
1.0110727
1.0048257
0.99997843
1.0005642
1.006698
1.0128467
1.014708
1.0102853
0.99728468
0.98369716
0.97934932
0.98767974
1.0055326
1.0210383
1.022882
1.0093862
0.99361118
0.99050092
1.0018378
1.0154944
1.0182649
1.0049769
0.98391179
0.9871965
0.98894055
0.99603955
1.0064388
1.016455
1.0213316
1.0176241
1.0075165
0.99874047
0.99691073
1.0011793
1.0067905
1.0080535
1.0019831
0.98941241
0.9800977
0.98354822
1.0020937
1.027189
1.0396462
1.0287284
1.0016645
0.97746211
0.99698509
1.0005844
1.0016078
1.0001008
0.99619702
0.99102759
0.98846002
0.99223621
1.0051561
1.0224869
1.0329619
1.0298436
1.0130787
0.99133197
0.97744887
0.97781035
0.99002813
1.0063961
1.0187389
1.0187886
1.0056827
0.99291083
0.99226122
1.0321712
1.0242279
1.0087659
0.99171955
0.97865136
0.97367688
0.97794686
0.99080687
1.0055421
1.018385
1.0233331
1.0131577
0.99882073
0.99385732
1.0029515
1.0183095
1.0259647
1.0214813
1.00204
0.9787597
0.9658654
0.97116686
0.99330622
1.0253876
1.0146317
1.0037696
0.99729573
0.99908262
1.0081748
1.0154922
1.0168177
1.0087554
0.99443612
0.9799423
0.97053982
0.9723849
0.99035191
1.0201632
1.0500631
1.0582643
1.0387003
1.0027408
0.97392366
0.96652141
0.97575818
0.99667667
0.98033659
0.97933622
0.98725122
1.006346
1.0310348
1.0496538
1.052621
1.0362564
1.011084
0.98665447
0.97239946
0.97179851
0.97887866
0.99385348
1.0126453
1.0268997
1.0289975
1.0132728
0.99856096
0.99682178
1.0100035
1.0265632
1.0332752
0.97332567
0.98109373
0.99410034
1.0078377
1.0196549
1.0268137
1.0237654
1.0134964
1.0025474
0.99856669
1.0093659
1.0265835
1.03511
1.0285996
1.0087123
0.98780023
0.97128525
0.96384347
0.97016669
0.99570454
1.0358451
1.0763526
1.0821144
1.0287737
1.0269756
1.0160744
1.0004897
0.98625829
0.97539514
0.96885089
0.96781036
0.97834505
1.0044193
1.0414688
1.0773062
1.0850557
1.0618737
1.0215956
0.984389
0.962096
0.95810515
0.96389208
0.9861731
1.0193808
1.0569723
1.0709352
1.0764514
1.0550967
1.0246043
0.99676251
0.97902775
0.96949511
0.96773457
0.97032361
0.98189441
1.0015074
1.0267335
1.0543808
1.0647443
1.0500153
1.0262539
1.006179
1.0010356
1.0109773
1.0159712
1.0160943
1.0117098
1.0067681
1.005099
1.0357967
1.0252934
1.0182269
1.0120887
1.0092006
1.014594
1.0258734
1.0312455
1.0275474
1.0145018
0.99952251
0.99178012
0.99227244
0.99249134
0.99734515
1.0104292
1.0389501
1.077994
1.0979418
1.0810166
1.0361516
0.99019741
0.96345617
0.97725362
0.97583107
0.98280985
1.0032131
1.0388202
1.0821125
1.1129606
1.1065863
1.06953
1.0231967
0.98651946
0.96899111
0.96406998
0.959522
0.96519511
0.98752796
1.0321571
1.0960518
1.1437044
1.1314412
1.0741918
1.0125717
0.96981641
0.95963339
0.96267935
0.97455243
1.0000713
1.0417993
1.0944775
1.1344162
1.1304041
1.0917458
1.0400751
0.99996061
0.98177643
0.97801038
0.98395284
0.98695994
0.9968187
1.0177812
1.0565828
1.1038027
1.1166903
1.0922275
1.0468471
1.0081983
0.98917173
0.99590003
1.0046466
1.019131
1.039961
1.0648456
1.0833204
1.0839888
1.0697892
1.0481813
1.0293309
1.0236217
1.0304436
1.043572
1.0445991
1.0357763
1.0241886
1.0247338
1.0391117
1.0572455
1.0560088
1.0486733
1.0434405
1.0606308
1.0563439
1.0433023
1.0309906
1.0253073
1.0280729
1.0310656
1.0313351
1.0285576
1.0278974
1.0386945
1.0632144
1.0967061
1.1224433
1.1151684
1.0827574
1.0390925
1.010004
1.0040947
1.0103976
1.0152108
1.0208788
1.0373861
1.1378705
1.1121013
1.0674419
1.0304345
1.0100598
1.005708
1.0079999
1.0086451
1.0060863
1.0090958
1.031055
1.0787173
1.1412909
1.1896402
1.1803373
1.122784
1.0570954
1.0117668
0.99386507
0.99191247
0.99344703
1.0006369
1.0198337
1.1892328
1.1443974
1.0807507
1.0304294
1.0074264
1.0044007
1.0078153
1.0104973
1.0060306
1.0076583
1.0293206
1.0847833
1.1615279
1.2226533
1.2181481
1.1535095
1.0737573
1.0191871
1.000182
0.99606401
0.99464062
0.99741156
1.0146899
1.208005
1.1572451
1.090398
1.0384034
1.0167033
1.0161918
1.0217624
1.0240273
1.0167163
1.015931
1.0363652
1.0921169
1.1708755
1.2345101
1.2339504
1.171909
1.0922102
1.0350374
1.0120645
1.004818
1.0037018
1.0047668
1.019756
1.2167453
1.1659252
1.1001849
1.0520451
1.0318604
1.0334115
1.0399314
1.0399525
1.029946
1.0276059
1.0497932
1.105241
1.1810881
1.2407256
1.2430775
1.183508
1.1070906
1.0494876
1.0239824
1.0156953
1.0151816
1.0164282
1.029198
1.2284995
1.1772947
1.1119597
1.0633688
1.0443005
1.0472723
1.0543909
1.054458
1.0438523
1.0400566
1.0619042
1.119856
1.1970093
1.2541552
1.2533976
1.1939965
1.1177899
1.061527
1.0345907
1.0239944
1.0229472
1.0262405
1.042114
1.2455876
1.1921398
1.1239541
1.0736242
1.0544969
1.0582073
1.0647691
1.0655243
1.0553056
1.0539904
1.0802504
1.1407716
1.2204677
1.2747118
1.2658598
1.1998554
1.1242044
1.0699341
1.0415576
1.0285518
1.0279773
1.0348768
1.0575397
1.25962
1.203376
1.1335553
1.0834172
1.0658911
1.0707035
1.0763777
1.0757721
1.0687099
1.0726301
1.1045391
1.1703031
1.2488198
1.2957069
1.2724491
1.1980959
1.1220102
1.0728969
1.0477044
1.0354614
1.0338776
1.0458312
1.081082
1.2518939
1.20325
1.1414002
1.0967702
1.0829703
1.0884457
1.0942891
1.0935486
1.0894477
1.0978827
1.1368948
1.2038277
1.2716684
1.3001697
1.2618699
1.1886085
1.1203376
1.0763461
1.0517188
1.0426492
1.0461832
1.067479
1.1151677
1.2123932
1.1815886
1.1403971
1.1125915
1.1103379
1.1209033
1.128312
1.1292367
1.1291262
1.1411811
1.1763884
1.2249177
1.2667196
1.2730578
1.2326322
1.1734327
1.1224977
1.0861739
1.0656747
1.062274
1.0733744
1.1060982
1.1629911
1.1484953
1.1375484
1.1227089
1.1265853
1.149906
1.1809396
1.1978527
1.1972569
1.1897503
1.1883454
1.1982893
1.2137757
1.2229548
1.2182271
1.1935489
1.1629605
1.1339391
1.1132766
1.1059854
1.1095471
1.1268969
1.1541984
1.1908812
1.0997155
1.0953388
1.0977569
1.1282265
1.1893765
1.2637027
1.3042393
1.2899791
1.2466814
1.2060227
1.1807439
1.1677189
1.1625832
1.159318
1.1554365
1.1596693
1.1693728
1.1808326
1.1881974
1.182408
1.173303
1.165989
1.165686
1.0949942
1.0881192
1.0946347
1.1417943
1.2304664
1.331713
1.37847
1.3403246
1.2639419
1.1960352
1.1540508
1.1298571
1.1186387
1.1167492
1.1385607
1.1854875
1.2430726
1.27891
1.2679003
1.2184629
1.1685801
1.1307324
1.1074465
1.1519418
1.1361697
1.1389029
1.1768293
1.2460256
1.3106005
1.3347188
1.305388
1.2526092
1.1991223
1.1582215
1.134541
1.1262094
1.1364229
1.1756302
1.2382109
1.2987397
1.3153433
1.2686369
1.194903
1.1321989
1.093079
1.0767229
1.2452571
1.208591
1.1825848
1.1894013
1.2153498
1.2318759
1.2377609
1.232849
1.2297821
1.2288897
1.2233059
1.2157711
1.2078391
1.2085128
1.2182284
1.2362807
1.2501208
1.2448578
1.2156411
1.1725642
1.1328382
1.1109287
1.1088779
1.2534677
1.2253098
1.1997723
1.1971814
1.2006183
1.1990558
1.1958761
1.2020806
1.2299223
1.2779787
1.3147662
1.3148744
1.2784822
1.2323397
1.193879
1.1698826
1.1621305
1.1678048
1.1833518
1.2009958
1.2053626
1.1929942
1.1782931
1.176032
1.1798352
1.1961193
1.2259052
1.249258
1.2532457
1.2492122
1.2495751
1.26272
1.2872548
1.3100226
1.3060197
1.269593
1.2164622
1.1681022
1.1421909
1.13522
1.1539949
1.2014643
1.2568984
1.28265
1.2530641
1.1953165
1.1469834
1.1525081
1.1885379
1.2533015
1.3131466
1.3403942
1.3284859
1.2960706
1.2656754
1.2433549
1.2328439
1.2338707
1.2357891
1.2293292
1.2122451
1.1933528
1.1841245
1.1883114
1.2104025
1.2399382
1.2574117
1.2400203
1.1967687
1.1935507
1.1908388
1.2183245
1.2648659
1.3081066
1.3326628
1.3304215
1.3031164
1.2613802
1.2269898
1.2074124
1.2069877
1.2295253
1.2636959
1.2825715
1.2653113
1.2270447
1.192478
1.1737461
1.1754754
1.1917774
1.2125558
1.2253122
1.2340526
1.2320105
1.247835
1.265444
1.2748093
1.2807973
1.2905026
1.2974428
1.2953912
1.2789532
1.2579617
1.2416693
1.2401308
1.252029
1.2672543
1.2637951
1.2339789
1.1913032
1.1602864
1.1537161
1.1699721
1.2089718
1.2499625
1.2105023
1.2292999
1.2636855
1.2857831
1.2912095
1.2905794
1.290668
1.3036473
1.3224694
1.3283609
1.306944
1.2679299
1.2315535
1.2117082
1.2114759
1.2262981
1.2391632
1.2355058
1.211595
1.1865371
1.1792413
1.1911775
1.2138233
1.2061051
1.2326228
1.2783536
1.3192811
1.3411204
1.3386897
1.3233429
1.3071292
1.2988021
1.2972748
1.2922629
1.2725547
1.2400046
1.2118003
1.2018502
1.2131719
1.2404657
1.2615228
1.2540967
1.2176062
1.1795205
1.1614784
1.1631111
1.2416104
1.2658674
1.2961398
1.324443
1.3456374
1.3521665
1.3433657
1.317388
1.2887103
1.2713941
1.2692022
1.2755016
1.2772941
1.2647049
1.2395643
1.2157013
1.2081305
1.2188076
1.2337502
1.2380435
1.2238326
1.1988854
1.1800693
1.2701083
1.2987741
1.3163682
1.3228154
1.3271774
1.3322455
1.3355293
1.3308505
1.3152308
1.2923739
1.2734254
1.2673937
1.2731111
1.2789006
1.2729793
1.2525637
1.2247116
1.2045751
1.1998578
1.2049615
1.2120312
1.2145653
1.2111057
1.2669228
1.3051325
1.327674
1.3355716
1.3338322
1.3300297
1.330182
1.3343659
1.3348153
1.3265548
1.3075692
1.2830447
1.2650549
1.2580329
1.2571789
1.2542887
1.2444995
1.2284557
1.2134307
1.2059331
1.2060336
1.2107518
1.2148512
1.2717444
1.3090575
1.3372155
1.3554448
1.362895
1.3587779
1.3471108
1.33635
1.3307512
1.3255811
1.3158086
1.2996932
1.2771489
1.2565236
1.2440786
1.2400713
1.241016
1.2418391
1.2402788
1.2370443
1.2337917
1.232134
1.2320579
1.3033625
1.3316975
1.3490457
1.3626557
1.3708542
1.370665
1.3617025
1.3446493
1.3257921
1.311904
1.3035359
1.2973114
1.2898473
1.2788458
1.2660982
1.2549945
1.2482546
1.2462582
1.247533
1.2504602
1.2541528
1.2574421
1.2593429
1.3258396
1.3517677
1.3601428
1.3609318
1.3604967
1.3604763
1.3585066
1.3523617
1.3410497
1.3263397
1.312463
1.3024013
1.296606
1.2923076
1.2868903
1.2795065
1.2714066
1.2642887
1.2601582
1.2600369
1.2637082
1.2693184
1.2739624
1.3282636
1.3565388
1.3684572
1.3718742
1.369821
1.3661792
1.363217
1.3609769
1.3568499
1.3484551
1.3359663
1.3213535
1.3074849
1.2966639
1.2891791
1.2847362
1.2827263
1.2824672
1.2836777
1.2864557
1.2902413
1.2938014
1.2957203
1.3388768
1.3640314
1.3785788
1.3870402
1.389261
1.3856679
1.3778163
1.36833
1.3590662
1.3502708
1.3413252
1.3314908
1.3209141
1.3106437
1.3025465
1.297909
1.2972567
1.300061
1.305491
1.3117243
1.3166501
1.3181653
1.3159716
1.3607302
1.3793534
1.3865982
1.3903161
1.3912741
1.389436
1.3838936
1.3752135
1.3647391
1.3545211
1.3457204
1.3387835
1.3334699
1.3293443
1.326391
1.3250315
1.3253072
1.3266387
1.328316
1.3296389
1.3298518
1.3283725
1.3246202
1.3699453
1.3879001
1.3922381
1.3920242
1.3906003
1.3887632
1.3867704
1.3837242
1.3790963
1.3728064
1.3655215
1.3580072
1.3509867
1.3451087
1.3408921
1.3388348
1.3389197
1.3400553
1.3410612
1.3409556
1.3399765
1.3388508
1.3371042
1.3707114
1.3876955
1.3964127
1.40076
1.4018019
1.4005863
1.3975332
1.3932564
1.3878823
1.3817743
1.3753045
1.368919
1.3629989
1.3577508
1.3536437
1.3511094
1.3506641
1.3521333
1.3547016
1.356726
1.3568395
1.3547616
1.3503367
1.3828181
1.3923543
1.3999175
1.4046441
1.4067191
1.4064051
1.4040425
1.3997368
1.3941321
1.3879268
1.3819294
1.3769389
1.3733613
1.3713769
1.3704543
1.3698963
1.3691313
1.3680086
1.3665538
1.3642577
1.3603246
1.3545269
1.3474414
1.396966
1.4003506
1.4047223
1.4069501
1.4072656
1.4064775
1.4050598
1.4034012
1.4014704
1.3990766
1.3960232
1.3922458
1.3882498
1.3844362
1.3810957
1.3780135
1.3746553
1.3707359
1.3662858
1.3614374
1.3556037
1.3479251
1.3387012
1.4072431
1.4085769
1.4106674
1.4125694
1.4134467
1.4131988
1.4116902
1.4094471
1.4066905
1.4036711
1.4002603
1.3963831
1.392054
1.3874243
1.3827225
1.3781642
1.3738316
1.3690013
1.3628183
1.3545066
1.3436702
1.3305602
1.3167363
1.4193514
1.4182287
1.4167959
1.4157293
1.414675
1.4136284
1.4122795
1.410347
1.4074895
1.4040684
1.4000092
1.395706
1.3911535
1.3863289
1.3809376
1.3744981
1.366593
1.3569302
1.3451764
1.3307282
1.313461
1.2943698
1.2759471
1.4181923
1.4188534
1.4181589
1.4171501
1.4156614
1.4139009
1.4119467
1.4095667
1.4064889
1.4024507
1.3973741
1.3913682
1.3843911
1.3764528
1.367164
1.3560713
1.3428355
1.327512
1.3101519
1.2903582
1.2682055
1.2451389
1.2239736
1.4154136
1.417348
1.4172293
1.4163781
1.4147096
1.4121255
1.4085713
1.4042379
1.3991334
1.3930308
1.3856437
1.3766549
1.3659337
1.3534468
1.3391556
1.3230366
1.3050199
1.2852353
1.2636354
1.2397624
1.2140754
1.1886345
1.1660936
1.4094991
1.4129782
1.4124973
1.4107315
1.4080643
1.4041956
1.3990693
1.3926108
1.3848942
1.3755961
1.3643254
1.3509175
1.3353817
1.318032
1.2992458
1.2791937
1.2578571
1.2352953
1.211185
1.1851149
1.1581534
1.1327356
1.1106913
1.4007315
1.4051817
1.404738
1.4023849
1.3984837
1.392622
1.3847253
1.3747656
1.3629385
1.3490639
1.3331085
1.3152164
1.2957761
1.275113
1.2536932
1.2315652
1.2086956
1.1849311
1.15964
1.1331855
1.1076617
1.0844533
1.06458
1.3934379
1.3969616
1.3954435
1.3916382
1.385587
1.3768377
1.3652112
1.3510303
1.3348349
1.3168987
1.297373
1.2764403
1.2545855
1.2321974
1.2095183
1.1865872
1.1633651
1.1393254
1.1141955
1.0896651
1.0674431
1.0472875
1.0301371
1.3865523
1.3886009
1.3853404
1.3792038
1.3701122
1.3578868
1.3426611
1.3249744
1.3054722
1.2846364
1.2626883
1.2399572
1.2169399
1.1939367
1.1710521
1.1482676
1.1253672
1.1019531
1.0788761
1.0578199
1.0391354
1.0226478
1.0101677
1.3801589
1.3801295
1.3743499
1.3653899
1.3532357
1.3379049
1.3197152
1.2992976
1.2774753
1.2548847
1.231877
1.2087105
1.1856377
1.1629069
1.1405899
1.1185742
1.0965529
1.0749432
1.0551763
1.0376738
1.0224355
1.0104316
1.0035354
1.3732058
1.3713103
1.3629512
1.3511214
1.3360315
1.3180736
1.2977535
1.2757053
1.252714
1.2295131
1.2065058
1.183805
1.1616262
1.1400518
1.1189545
1.0978991
1.0770123
1.0578596
1.0412941
1.0270344
1.0153102
1.0068591
1.0021766
1.3669771
1.3622417
1.3512432
1.336803
1.3193851
1.2996802
1.2782625
1.2556403
1.2324094
1.2091865
1.1866474
1.1652323
1.1449141
1.1251669
1.1052396
1.0852402
1.0663203
1.0494809
1.0351826
1.0233169
1.0137544
1.0067517
1.0025853
1.361499
1.3532561
1.3401288
1.3237481
1.3046735
1.2837837
1.2617848
1.2392649
1.2167417
1.1945909
1.1732298
1.1531723
1.1345208
1.1165277
1.0985785
1.0809234
1.0641131
1.0488959
1.0357152
1.0246325
1.0154885
1.0083694
1.0035281
1.3559295
1.3448036
1.3300303
1.3124332
1.2924865
1.2710414
1.2489471
1.2268481
1.2052404
1.1845916
1.1653094
1.1474881
1.130743
1.1145271
1.098508
1.0826945
1.0676624
1.0538165
1.0414156
1.0304833
1.0208889
1.012721
1.0064152
1.3503396
1.3372165
1.3214672
1.3032338
1.2828123
1.2611316
1.2393209
1.2181663
1.1980117
1.1790848
1.1617749
1.1461324
1.1313885
1.1171115
1.1034516
1.090505
1.0778936
1.0652418
1.0527009
1.04081
1.0299807
1.0202386
1.0118261
1.3455993
1.3303202
1.3134389
1.2948002
1.2746412
1.2536298
1.2327362
1.2129152
1.1947158
1.1779818
1.1624627
1.1482605
1.135404
1.123578
1.112535
1.1020907
1.0918927
1.0813184
1.0698463
1.0575385
1.0450439
1.0330645
1.0220233
1.340444
1.3243989
1.3074657
1.2892744
1.27009
1.2504298
1.2309423
1.2122621
1.1948597
1.1791494
1.165181
1.1528414
1.1420531
1.1325998
1.1240857
1.1160267
1.1079342
1.09937
1.0898676
1.07901
1.0667485
1.0535245
1.0398699
1.3365459
1.3204533
1.3049004
1.2880019
1.2697873
1.2509257
1.2322525
1.2143949
1.1978978
1.1831122
1.1702642
1.1593243
1.1500855
1.1422824
1.1356101
1.129575
1.1235925
1.1171592
1.1098688
1.1013602
1.0913445
1.0796963
1.0663957
1.3336476
1.3202128
1.3054747
1.2893039
1.272178
1.2545891
1.2370364
1.220153
1.2044956
1.1904398
1.178195
1.1678005
1.1591529
1.152044
1.1461829
1.1412231
1.1367654
1.1323303
1.1274159
1.1215529
1.1143475
1.1055777
1.095068
1.3306129
1.3210662
1.3087225
1.2944499
1.278757
1.262306
1.2457402
1.229602
1.2144386
1.2006714
1.1885886
1.1782608
1.1696003
1.1624313
1.1565378
1.151734
1.1477644
1.144298
1.1409537
1.1372951
1.132869
1.1272385
1.1201174
1.3271509
1.3228195
1.3154079
1.3054916
1.2925388
1.2774794
1.2612909
1.2450093
1.2294329
1.2150838
1.2023046
1.1912406
1.181888
1.1741006
1.1677007
1.1624595
1.1582107
1.1547273
1.1517653
1.1490303
1.1461775
1.142797
1.138581
1.3161269
1.316573
1.3141163
1.3093976
1.3033916
1.2952544
1.2841058
1.270129
1.2546689
1.2390498
1.2242601
1.2108739
1.1992347
1.1894178
1.1813339
1.174907
1.1695789
1.1652527
1.1617619
1.1589632
1.1566085
1.1542523
1.1514955
1.2874898
1.2891279
1.2934263
1.2967477
1.2976164
1.2955235
1.2915369
1.2862695
1.2789711
1.2684991
1.2555655
1.2413682
1.2271788
1.2140417
1.2025685
1.1930109
1.1852519
1.1789858
1.1739106
1.1697408
1.1665157
1.1638437
1.1613183
1.2741174
1.2743623
1.2761393
1.2783564
1.280648
1.2826624
1.2839363
1.2836031
1.281588
1.2787375
1.2740245
1.2669358
1.2574123
1.2459775
1.2335977
1.2213795
1.2101703
1.200462
1.1923202
1.1855533
1.1799707
1.1754043
1.1711016
1.2895644
1.2892811
1.28855
1.2871127
1.2851696
1.2836057
1.2825947
1.2816803
1.280653
1.2791585
1.2770324
1.2741925
1.2703933
1.2652698
1.2584933
1.2499341
1.2400107
1.2294357
1.2190058
1.2093436
1.2007375
1.1933294
1.1862877
1.3307187
1.3369626
1.3358878
1.3312069
1.3230598
1.3139487
1.3052671
1.2979387
1.2919792
1.2871777
1.2834973
1.2804164
1.277384
1.2740458
1.2701466
1.2654363
1.2596695
1.2527375
1.2447466
1.2360988
1.2271056
1.2181345
1.2086252
1.3657854
1.3787877
1.3772115
1.3720689
1.3646602
1.3563298
1.3472622
1.3378331
1.3283108
1.3190491
1.3104457
1.3027368
1.2959612
1.2899475
1.2845602
1.2795791
1.2747389
1.2696081
1.2639363
1.2576099
1.2506158
1.2428337
1.2329071
1.3812948
1.3864564
1.3829914
1.3768206
1.3702545
1.364087
1.3583638
1.352915
1.3474642
1.3417765
1.335769
1.3294369
1.322742
1.3159273
1.309163
1.3026373
1.2964454
1.2905894
1.2849043
1.279117
1.2730686
1.2666718
1.2576702
1.3780994
1.3786762
1.3724485
1.3651514
1.3588646
1.35368
1.3493092
1.345427
1.3417194
1.3379809
1.3340244
1.3297929
1.3254749
1.3211102
1.3166845
1.3121904
1.30761
1.3029768
1.2984428
1.2939975
1.2895613
1.2851093
1.2792639
1.3669504
1.3579428
1.3473962
1.3390632
1.3329537
1.3284467
1.3249958
1.3221674
1.3196379
1.3172706
1.315024
1.3128079
1.3105381
1.3081027
1.305514
1.3028913
1.3002676
1.2975017
1.2945916
1.2916639
1.2887092
1.2855851
1.2831451
1.3537923
1.3353442
1.3221833
1.3128032
1.3058617
1.3005783
1.2962829
1.2925159
1.2891391
1.2861655
1.283533
1.2812634
1.2793738
1.2777496
1.2763701
1.2752243
1.2742921
1.2734813
1.2727003
1.2720863
1.2715569
1.2710287
1.2725561
1.3422949
1.3183
1.3032158
1.2921757
1.28348
1.2763455
1.2702866
1.2648902
1.2599884
1.2556186
1.2518444
1.2486861
1.2461182
1.2441016
1.2425599
1.2414678
1.2408382
1.2404784
1.2404077
1.2405284
1.2408789
1.2416046
1.2442224
1.3327016
1.3057046
1.2887032
1.2757419
1.2650777
1.2557453
1.2474158
1.2400035
1.2334249
1.2275727
1.222515
1.2183528
1.2150783
1.2126428
1.2110363
1.2101186
1.2098615
1.2101212
1.2107855
1.2118072
1.213051
1.2145742
1.2173377
1.32479
1.2957999
1.2768589
1.2619875
1.2494839
1.2380989
1.2276293
1.218055
1.2094124
1.2018217
1.1952946
1.1898574
1.1855354
1.1822944
1.180201
1.1792001
1.1792773
1.1801373
1.1818568
1.1842965
1.1873512
1.1907627
1.1949847
1.318457
1.2880086
1.2674099
1.2505662
1.2360945
1.2226295
1.2101615
1.1987246
1.1883665
1.179192
1.1712228
1.164423
1.1587652
1.1541728
1.1507037
1.1484659
1.1475606
1.1478875
1.1494206
1.1522763
1.1564203
1.1616579
1.1679348
1.3137606
1.2826265
1.2604556
1.2411136
1.2241129
1.2082254
1.1936437
1.1806054
1.1690597
1.1589227
1.1500617
1.1423538
1.1358044
1.1302392
1.125531
1.1216093
1.1186457
1.1169213
1.1165759
1.1175624
1.120084
1.1244924
1.1307697
1.3101163
1.2788098
1.2544386
1.2319725
1.2119212
1.1933055
1.1764853
1.1618146
1.1493155
1.1387356
1.1297121
1.1219571
1.1151547
1.1092349
1.1041764
1.0997344
1.0957518
1.0923285
1.0897391
1.0880722
1.0875168
1.0882994
1.0908709
1.3052884
1.2744233
1.246955
1.2204741
1.1967898
1.175159
1.1560785
1.1400681
1.1270988
1.1165622
1.1077513
1.1001912
1.0937922
1.0884574
1.0838592
1.0797214
1.0758312
1.0722441
1.0688154
1.0659121
1.0634969
1.0617261
1.060714
1.2961782
1.2658739
1.2344422
1.2027049
1.1747887
1.15068
1.130461
1.1143677
1.1015521
1.0910933
1.082526
1.0756799
1.0702015
1.0657869
1.0618272
1.0580368
1.0546211
1.0513464
1.0484939
1.0456881
1.0429624
1.0403987
1.0388832
1.2825787
1.2498416
1.2141381
1.1784737
1.1480745
1.1231245
1.1035475
1.0880883
1.075078
1.0645086
1.0565537
1.0506234
1.0461162
1.0417369
1.0376334
1.0342721
1.0311861
1.0286414
1.0263724
1.0240814
1.0218094
1.0199477
1.0195734
1.2651514
1.2269392
1.1889416
1.1530529
1.1226944
1.0980224
1.0784403
1.0625133
1.0498429
1.0398828
1.0326156
1.0273372
1.0227244
1.0189801
1.0154653
1.0128364
1.0113068
1.0094914
1.0077979
1.0065552
1.0060028
1.0053682
1.0054288
1.2427769
1.2047219
1.1654566
1.1291251
1.098212
1.0735625
1.0539197
1.0384369
1.026892
1.018784
1.0132067
1.009169
1.0065381
1.0048306
1.0032145
1.0017985
1.0009989
1.0008566
1.0009158
1.0001869
0.99946533
0.99982839
1.0004842
1.2070683
1.1700273
1.1293023
1.0944486
1.0663278
1.0441663
1.0274441
1.0158621
1.0091838
1.005795
1.003913
1.0026953
1.0011928
1.000193
1.0005753
1.0009382
1.0003142
0.99909179
0.99887355
0.99992472
1.0000989
0.99897127
0.99814141
1.1586091
1.1206114
1.0838381
1.0539844
1.032184
1.0180859
1.0102133
1.0059425
1.0036503
1.0031818
1.0032041
1.0026258
1.0018243
1.0010884
1.0010372
1.0013836
1.0014318
1.00075
0.99996484
0.99997437
1.0003378
0.99990944
0.99863915
1.1122625
1.075033
1.044684
1.0245874
1.0143654
1.0098285
1.0071278
1.0053638
1.0048573
1.0054768
1.0060388
1.0055441
1.0047029
1.0045
1.0045594
1.0042426
1.0038884
1.0040177
1.0037122
1.0021411
1.0011248
1.0022524
1.0029138
1.0763029
1.0472205
1.025357
1.0145461
1.0112333
1.0106242
1.010373
1.0100048
1.009784
1.0100812
1.0108091
1.0109515
1.0099957
1.0089761
1.0091813
1.0099122
1.0094423
1.0078915
1.0070007
1.0071659
1.0070549
1.0063853
1.0054813
1.053216
1.0319536
1.0200534
1.0161729
1.0148209
1.0148021
1.0156714
1.0165297
1.016556
1.0161393
1.0161711
1.0166689
1.0166414
1.0157588
1.0150679
1.0152393
1.0153718
1.0144504
1.0131789
1.0129395
1.0134749
1.0133809
1.0124875
1.0396574
1.0260656
1.0216862
1.0212442
1.0208054
1.0206749
1.0215431
1.0229397
1.0237364
1.023389
1.0226017
1.0224689
1.0229534
1.023016
1.0221753
1.0212491
1.0210778
1.0212257
1.0207244
1.0198207
1.0199877
1.0213669
1.0224843
1.0320425
1.0256837
1.0254659
1.0265027
1.0273144
1.0278982
1.0285968
1.0294509
1.0301474
1.0302584
1.0298009
1.029276
1.0291585
1.0292954
1.0290545
1.0281282
1.0270885
1.0267447
1.0271182
1.0275572