/*--------------------------------*- C++ -*----------------------------------*\
| =========                 |                                                 |
| \\      /  F ield         | OpenFOAM: The Open Source CFD Toolbox           |
|  \\    /   O peration     | Version:  2406                                  |
|   \\  /    A nd           | Website:  www.openfoam.com                      |
|    \\/     M anipulation  |                                                 |
\*---------------------------------------------------------------------------*/
FoamFile
{
    version     2.0;
    format      ascii;
    arch        "LSB;label=32;scalar=64";
    class       volScalarField;
    location    "185";
    object      k;
}
// * * * * * * * * * * * * * * * * * * * * * * * * * * * * * * * * * * * * * //

dimensions      [0 2 -2 0 0 0 0];

internalField   nonuniform List<scalar> 
20580
(
3.1507508e-06
2.4135951e-06
1.9137145e-06
1.5754178e-06
1.3405982e-06
1.1771487e-06
1.0514912e-06
9.5538349e-07
8.779803e-07
8.1065963e-07
7.5884268e-07
7.1318265e-07
6.7671719e-07
6.4985017e-07
6.2356144e-07
6.0181898e-07
5.8327389e-07
5.7153952e-07
5.5979968e-07
5.546003e-07
5.5041328e-07
5.4120987e-07
5.3198609e-07
5.3344698e-07
5.3680014e-07
5.4225451e-07
5.5425699e-07
5.7314484e-07
6.0128672e-07
6.6179144e-07
7.8594384e-07
3.1573213e-06
2.4220271e-06
1.9510178e-06
1.6298277e-06
1.379267e-06
1.1999784e-06
1.0639205e-06
9.6504524e-07
8.8596692e-07
8.1720722e-07
7.6446034e-07
7.1813264e-07
6.7987891e-07
6.5471028e-07
6.2742063e-07
6.0784298e-07
5.8811829e-07
5.7480244e-07
5.621931e-07
5.5716429e-07
5.5353149e-07
5.4817041e-07
5.3774611e-07
5.3983127e-07
5.4544244e-07
5.5630343e-07
5.7187392e-07
5.9037824e-07
6.1050604e-07
6.419998e-07
7.3346959e-07
3.1557019e-06
2.41754e-06
1.948899e-06
1.6478119e-06
1.4136169e-06
1.2378027e-06
1.0916448e-06
9.807724e-07
8.9664022e-07
8.2484977e-07
7.6969743e-07
7.241412e-07
6.829643e-07
6.5970034e-07
6.3076567e-07
6.1328126e-07
5.971949e-07
5.834696e-07
5.6946194e-07
5.6222908e-07
5.5713511e-07
5.521864e-07
5.4288716e-07
5.4174026e-07
5.4609379e-07
5.5467932e-07
5.7217114e-07
5.9359611e-07
6.1509924e-07
6.3491774e-07
7.1267733e-07
3.1565389e-06
2.4051069e-06
1.9312762e-06
1.6390813e-06
1.4175805e-06
1.2566595e-06
1.1293831e-06
1.0145298e-06
9.1915581e-07
8.4022166e-07
7.7994382e-07
7.3131761e-07
6.8826374e-07
6.6187924e-07
6.3397864e-07
6.1483289e-07
6.0278291e-07
5.9199837e-07
5.8492868e-07
5.7814295e-07
5.6918961e-07
5.6296022e-07
5.5500097e-07
5.4816475e-07
5.5141485e-07
5.5832659e-07
5.7734937e-07
5.9694786e-07
6.1550813e-07
6.2803627e-07
6.6741315e-07
3.1624654e-06
2.4080163e-06
1.910995e-06
1.6081025e-06
1.4081549e-06
1.256166e-06
1.1425175e-06
1.0505207e-06
9.6380965e-07
8.757659e-07
8.0354143e-07
7.4530322e-07
6.9662162e-07
6.6510854e-07
6.3639769e-07
6.1534044e-07
6.0305627e-07
5.9385515e-07
5.908766e-07
5.9066184e-07
5.8849647e-07
5.8727686e-07
5.8518891e-07
5.7421069e-07
5.7119004e-07
5.7529352e-07
5.9161327e-07
6.1280339e-07
6.3165295e-07
6.4444696e-07
6.6436826e-07
3.1702613e-06
2.4191897e-06
1.9137721e-06
1.600146e-06
1.3877201e-06
1.2471184e-06
1.1399272e-06
1.0532769e-06
9.8138251e-07
9.1022539e-07
8.3872017e-07
7.6986632e-07
7.123329e-07
6.7251775e-07
6.405454e-07
6.1715001e-07
6.0132644e-07
5.9196024e-07
5.9105564e-07
5.9192414e-07
5.9355177e-07
5.993301e-07
6.0766945e-07
6.0623073e-07
6.1108135e-07
6.1918037e-07
6.3012157e-07
6.565353e-07
6.8206911e-07
7.1532316e-07
7.0333221e-07
3.1922997e-06
2.4509814e-06
1.9286189e-06
1.6044671e-06
1.3853512e-06
1.2292056e-06
1.1263548e-06
1.0439121e-06
9.7753182e-07
9.1565493e-07
8.6220613e-07
8.0538191e-07
7.4143093e-07
6.8997406e-07
6.5049886e-07
6.2104935e-07
6.0255973e-07
5.8600155e-07
5.8467787e-07
5.8560726e-07
5.8905326e-07
5.9776464e-07
6.0833543e-07
6.1110206e-07
6.1865031e-07
6.3584627e-07
6.5030263e-07
6.7922783e-07
7.101578e-07
7.8009275e-07
7.8962352e-07
3.2990125e-06
2.652745e-06
1.9976578e-06
1.6209543e-06
1.382197e-06
1.220356e-06
1.1085779e-06
1.0259772e-06
9.6603551e-07
9.1249314e-07
8.7036714e-07
8.3280719e-07
7.8988919e-07
7.3473173e-07
6.7937388e-07
6.3664029e-07
6.0883101e-07
5.8800752e-07
5.8014198e-07
5.7195692e-07
5.7264578e-07
5.8029267e-07
5.9273734e-07
6.0383155e-07
6.1193225e-07
6.3034025e-07
6.4670534e-07
6.71341e-07
6.979883e-07
7.6608975e-07
8.1844709e-07
3.371892e-06
2.8324091e-06
2.0843681e-06
1.6493392e-06
1.3856596e-06
1.2198966e-06
1.1009396e-06
1.0203262e-06
9.4892552e-07
9.0056626e-07
8.6129879e-07
8.3283513e-07
8.0575575e-07
7.7405195e-07
7.370254e-07
6.824626e-07
6.3510986e-07
6.0314899e-07
5.8568844e-07
5.7298731e-07
5.6549254e-07
5.6757858e-07
5.7258723e-07
5.8098968e-07
5.896074e-07
6.0765047e-07
6.2905874e-07
6.5180201e-07
6.7998211e-07
7.1757075e-07
7.8788434e-07
3.2323658e-06
2.7885901e-06
2.1502693e-06
1.7139117e-06
1.4264153e-06
1.2501247e-06
1.1235291e-06
1.0361404e-06
9.5888997e-07
9.0243142e-07
8.4898811e-07
8.1493081e-07
7.9088799e-07
7.7234486e-07
7.5468794e-07
7.3457499e-07
6.921497e-07
6.5014445e-07
6.1843741e-07
5.9395425e-07
5.7904183e-07
5.7310288e-07
5.7434434e-07
5.8002831e-07
5.8703047e-07
5.9755926e-07
6.2082223e-07
6.4583114e-07
6.856238e-07
7.219375e-07
7.7974692e-07
3.0478336e-06
2.5503021e-06
2.1562016e-06
1.8669791e-06
1.6121119e-06
1.4502109e-06
1.3229739e-06
1.2191636e-06
1.1210119e-06
1.0153961e-06
9.1626864e-07
8.3937734e-07
7.9017155e-07
7.696311e-07
7.6425572e-07
7.6645937e-07
7.6364208e-07
7.5620425e-07
7.3369836e-07
6.9441478e-07
6.6208634e-07
6.334923e-07
6.1439272e-07
6.0724886e-07
6.0692187e-07
6.0789647e-07
6.2103432e-07
6.4622551e-07
6.9090346e-07
7.2741093e-07
7.8625498e-07
3.1887208e-06
2.5105547e-06
2.1113704e-06
1.9351142e-06
1.9288484e-06
1.9603291e-06
1.9778735e-06
1.9841122e-06
1.9360945e-06
1.7270496e-06
1.3833355e-06
1.0827199e-06
8.8501559e-07
8.0538559e-07
7.9373296e-07
7.9803101e-07
8.2034938e-07
8.611071e-07
8.8629221e-07
8.8884761e-07
8.8624631e-07
8.641356e-07
8.2477364e-07
7.8518526e-07
7.4602034e-07
7.0250074e-07
6.7330952e-07
6.7981854e-07
7.0335236e-07
7.3516358e-07
7.8440172e-07
3.4072039e-06
2.8130132e-06
2.1018527e-06
1.8746578e-06
1.8919831e-06
1.9588792e-06
2.1068318e-06
2.2423765e-06
2.2784239e-06
2.1977202e-06
1.837078e-06
1.3900214e-06
1.0466299e-06
8.5964949e-07
8.0199454e-07
7.9934879e-07
8.1573079e-07
8.6046935e-07
8.9798931e-07
9.256191e-07
9.5543225e-07
9.6996789e-07
9.7524874e-07
9.8161329e-07
9.8162826e-07
9.538009e-07
8.9797269e-07
8.6603527e-07
8.3706185e-07
8.2421086e-07
8.1404475e-07
3.2701467e-06
2.751128e-06
2.0804666e-06
1.7106386e-06
1.5950462e-06
1.598261e-06
1.6531066e-06
1.700694e-06
1.7121572e-06
1.6939028e-06
1.5446316e-06
1.2388843e-06
1.0055031e-06
8.6085427e-07
7.9587744e-07
7.7896865e-07
7.8120575e-07
7.9865126e-07
8.3914588e-07
8.7885972e-07
9.1983666e-07
9.5091157e-07
9.745389e-07
1.0091047e-06
1.0361928e-06
1.0338868e-06
1.0160869e-06
1.0081761e-06
1.005666e-06
1.0070566e-06
9.6661051e-07
3.1690762e-06
2.4883944e-06
2.0164852e-06
1.6862651e-06
1.4610827e-06
1.3176927e-06
1.2558937e-06
1.2167921e-06
1.1910977e-06
1.1720396e-06
1.122775e-06
9.993465e-07
9.0146315e-07
8.4196724e-07
8.0923024e-07
8.0076794e-07
8.0549327e-07
8.3536037e-07
8.9647963e-07
9.5623496e-07
1.0158939e-06
1.0690283e-06
1.1000107e-06
1.1406311e-06
1.1799476e-06
1.2016656e-06
1.2046911e-06
1.2154247e-06
1.2294884e-06
1.254486e-06
1.2008979e-06
3.2064268e-06
2.6481716e-06
2.1583862e-06
1.7393606e-06
1.4649027e-06
1.3225081e-06
1.2804656e-06
1.2648034e-06
1.256814e-06
1.2413617e-06
1.1826717e-06
1.0274393e-06
9.1569628e-07
8.7279897e-07
8.7201799e-07
8.9182504e-07
9.6285346e-07
1.1346419e-06
1.3272581e-06
1.5295391e-06
1.7384412e-06
1.9559849e-06
2.1008281e-06
2.2042593e-06
2.2886755e-06
2.3140444e-06
2.284038e-06
2.2469016e-06
2.1970166e-06
2.1731402e-06
2.0011504e-06
3.3093408e-06
2.8444214e-06
2.1680406e-06
1.7228985e-06
1.5402217e-06
1.5341747e-06
1.5771249e-06
1.642625e-06
1.6370531e-06
1.4974026e-06
1.2629887e-06
1.0440715e-06
9.247194e-07
8.9538261e-07
9.0533088e-07
9.6317403e-07
1.1463824e-06
1.4581263e-06
1.7859353e-06
2.140247e-06
2.4657234e-06
2.8081966e-06
3.130287e-06
3.387583e-06
3.593831e-06
3.7789456e-06
3.94104e-06
4.0494842e-06
4.0996065e-06
4.1634434e-06
4.0823955e-06
3.2035903e-06
2.5253889e-06
2.0673365e-06
1.7955996e-06
1.7072628e-06
1.6662606e-06
1.6477227e-06
1.5880071e-06
1.4209712e-06
1.2891957e-06
1.1019095e-06
9.7127561e-07
9.251866e-07
9.2368053e-07
9.5946208e-07
1.0980589e-06
1.351815e-06
1.6148502e-06
1.8886858e-06
2.1556007e-06
2.3853417e-06
2.577641e-06
2.8074267e-06
2.970417e-06
3.1477269e-06
3.277914e-06
3.5108573e-06
3.6783445e-06
3.86067e-06
3.9468009e-06
4.1105486e-06
3.0923569e-06
2.6685088e-06
2.2817443e-06
1.9878909e-06
1.7368208e-06
1.5147919e-06
1.3522336e-06
1.2110229e-06
1.1322516e-06
1.0808659e-06
1.0310547e-06
1.0152189e-06
1.0279769e-06
1.1046671e-06
1.2590412e-06
1.3867731e-06
1.4899837e-06
1.5637044e-06
1.5993805e-06
1.5931132e-06
1.5119194e-06
1.421632e-06
1.4101271e-06
1.4214941e-06
1.444232e-06
1.4839049e-06
1.6008235e-06
1.7116023e-06
1.9273484e-06
2.0442033e-06
2.3988294e-06
3.5647469e-06
3.1140564e-06
2.385392e-06
1.9305182e-06
1.6025445e-06
1.3803673e-06
1.2600725e-06
1.209061e-06
1.2096449e-06
1.1731416e-06
1.1634635e-06
1.1914495e-06
1.2419343e-06
1.2831298e-06
1.3004395e-06
1.2917238e-06
1.2308917e-06
1.0922809e-06
9.8576226e-07
9.2201027e-07
8.9019238e-07
8.7976236e-07
8.8415241e-07
8.9905798e-07
9.3751058e-07
9.729895e-07
1.0668563e-06
1.1288028e-06
1.2583194e-06
1.3220745e-06
1.4556235e-06
3.3890584e-06
2.8521809e-06
2.3574004e-06
2.1133932e-06
1.9754631e-06
1.8742617e-06
1.8364257e-06
1.8387322e-06
1.9299431e-06
1.7397631e-06
1.7082391e-06
1.6716715e-06
1.6157137e-06
1.5527499e-06
1.4881331e-06
1.426303e-06
1.3634631e-06
1.2798192e-06
1.2281493e-06
1.2158763e-06
1.2135886e-06
1.2124353e-06
1.2418411e-06
1.2763185e-06
1.3191165e-06
1.3744852e-06
1.4442188e-06
1.5516435e-06
1.6096693e-06
1.7061992e-06
1.6788796e-06
3.629292e-06
4.7036495e-06
6.4202163e-06
7.6437824e-06
8.2731975e-06
7.9731401e-06
9.7873698e-06
9.6579835e-06
1.2867391e-05
9.2907763e-06
8.5157568e-06
7.6129795e-06
6.9305971e-06
6.2253579e-06
5.811164e-06
5.5042443e-06
5.2993152e-06
5.0829247e-06
4.9995013e-06
4.9970145e-06
4.9512771e-06
4.8960917e-06
4.89337e-06
4.9351082e-06
4.9248785e-06
4.9007095e-06
4.9083097e-06
4.9482568e-06
4.9470905e-06
4.8987213e-06
4.7069926e-06
1.5229225e-05
3.5497097e-05
5.7150386e-05
4.3261602e-05
6.5339495e-05
4.3927901e-05
7.0656512e-05
4.2559927e-05
7.7037769e-05
4.6749992e-05
3.5816695e-05
3.5429468e-05
2.9357846e-05
2.722457e-05
2.4336352e-05
2.300792e-05
2.1648698e-05
2.1125974e-05
2.0427455e-05
1.9963256e-05
1.9341203e-05
1.9011325e-05
1.8219332e-05
1.7672187e-05
1.6751309e-05
1.6421211e-05
1.5566759e-05
1.5016002e-05
1.3916862e-05
1.3385995e-05
1.2565953e-05
1.1926064e-05
4.9973475e-06
1.8861738e-06
1.5486256e-06
2.2664801e-06
4.1617412e-06
4.3176762e-06
2.4230798e-06
1.3851612e-06
1.0415756e-06
8.7238337e-07
8.3316509e-07
8.4801955e-07
8.6452188e-07
8.5735977e-07
8.8191086e-07
8.7024416e-07
7.8392207e-07
7.4082838e-07
7.4077864e-07
7.7164725e-07
8.0035597e-07
8.2622817e-07
1.0755576e-05
5.2484122e-06
2.0768335e-06
1.6517047e-06
2.1469109e-06
4.0072418e-06
4.7179027e-06
3.3493083e-06
1.6937545e-06
1.1845475e-06
9.4952895e-07
9.4504852e-07
9.5520399e-07
9.5510021e-07
9.281723e-07
9.5717231e-07
9.813744e-07
9.3694792e-07
8.5174971e-07
8.3082011e-07
8.4556574e-07
8.6230941e-07
8.5230666e-07
9.3520856e-06
5.5007232e-06
2.3633312e-06
1.8429892e-06
2.1795679e-06
3.8326746e-06
4.8593819e-06
4.1829651e-06
2.3282226e-06
1.4644864e-06
1.0883672e-06
1.0383372e-06
1.0456173e-06
1.0425923e-06
1.0104602e-06
1.0134139e-06
1.0700737e-06
1.0652558e-06
9.7659298e-07
9.1091329e-07
9.2300111e-07
9.5260991e-07
9.542995e-07
8.5668755e-06
5.8179148e-06
2.6752092e-06
2.0782074e-06
2.2764654e-06
3.6677646e-06
5.0582943e-06
4.8747912e-06
3.1063289e-06
1.8626373e-06
1.2681695e-06
1.1615204e-06
1.17219e-06
1.1815401e-06
1.1912925e-06
1.157926e-06
1.2279815e-06
1.2368737e-06
1.1743471e-06
1.0330099e-06
9.9045603e-07
1.0147503e-06
1.0225341e-06
7.8386213e-06
6.0408419e-06
2.9609726e-06
2.3141961e-06
2.4616966e-06
3.5799156e-06
5.542544e-06
5.6041165e-06
4.1269586e-06
2.331523e-06
1.5323359e-06
1.3136351e-06
1.3407967e-06
1.3464826e-06
1.3990674e-06
1.406234e-06
1.4199262e-06
1.4504593e-06
1.3945102e-06
1.2720685e-06
1.1458244e-06
1.1562143e-06
1.1668288e-06
7.3749904e-06
6.0927798e-06
3.3783169e-06
2.7175617e-06
2.8295677e-06
3.6945316e-06
5.9029325e-06
6.5276281e-06
5.490869e-06
3.1051737e-06
1.9569892e-06
1.4952373e-06
1.5437322e-06
1.5358041e-06
1.5491581e-06
1.5813781e-06
1.5467665e-06
1.632763e-06
1.58945e-06
1.4660643e-06
1.3369078e-06
1.3029043e-06
1.3178286e-06
7.7068682e-06
6.185254e-06
3.7722754e-06
3.1647076e-06
3.2956671e-06
3.8796298e-06
6.0258513e-06
7.4919329e-06
7.0144105e-06
4.3541419e-06
2.5903968e-06
1.8179586e-06
1.7879562e-06
1.7625316e-06
1.6917275e-06
1.7209656e-06
1.6838338e-06
1.7291499e-06
1.7766226e-06
1.7035871e-06
1.5663355e-06
1.4945208e-06
1.509246e-06
8.6398115e-06
6.3060856e-06
4.0290801e-06
3.4828446e-06
3.6075853e-06
4.1432892e-06
6.1236504e-06
8.0966739e-06
7.9990671e-06
5.9655573e-06
3.594938e-06
2.3472568e-06
2.1603207e-06
2.1642775e-06
2.0177284e-06
2.0126056e-06
1.9809748e-06
1.9320337e-06
2.0500177e-06
2.0330861e-06
1.8816341e-06
1.7245986e-06
1.6656318e-06
9.9225442e-06
6.4037373e-06
4.4947546e-06
4.1419518e-06
4.2731466e-06
4.6445955e-06
6.3807701e-06
9.3154044e-06
1.0035055e-05
8.6724569e-06
5.3100159e-06
3.2731036e-06
2.6116003e-06
2.689307e-06
2.5902605e-06
2.4965224e-06
2.5109466e-06
2.4349562e-06
2.5694602e-06
2.5698544e-06
2.3301908e-06
2.089244e-06
1.8870095e-06
1.1214278e-05
6.6764534e-06
5.1747928e-06
5.1542985e-06
5.3992978e-06
5.9271249e-06
7.4137691e-06
1.1785089e-05
1.3217198e-05
1.1573593e-05
7.2960372e-06
4.3525257e-06
3.0957094e-06
3.1475169e-06
3.1043302e-06
2.8999009e-06
3.0027945e-06
3.0286397e-06
3.055882e-06
3.113949e-06
2.9211138e-06
2.5223342e-06
2.2269414e-06
1.3118717e-05
7.2661707e-06
5.798074e-06
6.0031812e-06
6.5837289e-06
7.5808324e-06
9.2338165e-06
1.4405785e-05
1.6153769e-05
1.3952954e-05
9.0265791e-06
5.3677338e-06
3.7183672e-06
3.5514558e-06
3.4741724e-06
3.259586e-06
3.3413239e-06
3.4214501e-06
3.4573032e-06
3.584061e-06
3.4459083e-06
2.9529107e-06
2.610071e-06
1.6086988e-05
8.1570049e-06
6.543881e-06
6.963184e-06
7.8768092e-06
9.1920705e-06
1.0687513e-05
1.6745732e-05
2.0128447e-05
1.7990203e-05
1.1996056e-05
7.0773943e-06
4.7608601e-06
4.1912059e-06
4.1272091e-06
3.8693286e-06
3.7256266e-06
3.7645046e-06
3.7814294e-06
3.9335048e-06
3.9197218e-06
3.5796105e-06
3.0445531e-06
1.9884507e-05
9.8858661e-06
8.3371857e-06
9.0342995e-06
1.0724687e-05
1.2552222e-05
1.3644273e-05
2.1848623e-05
2.8750775e-05
2.6861454e-05
1.8886479e-05
1.0881733e-05
6.938989e-06
5.5806713e-06
5.5820939e-06
5.263511e-06
4.6188043e-06
4.5357068e-06
4.3657341e-06
4.4726186e-06
4.5994313e-06
4.451127e-06
3.7572913e-06
2.3935494e-05
1.1848636e-05
1.0354019e-05
1.113792e-05
1.3732082e-05
1.762274e-05
1.9871256e-05
3.035246e-05
4.0129578e-05
3.946711e-05
3.2028362e-05
1.9601423e-05
1.1732441e-05
8.4097796e-06
8.1467165e-06
7.5876099e-06
6.5298763e-06
6.1681895e-06
5.8743741e-06
5.8261044e-06
6.2794696e-06
6.2380516e-06
5.4122259e-06
2.8093026e-05
1.3904165e-05
1.2021827e-05
1.2761337e-05
1.5745272e-05
2.129729e-05
2.5023594e-05
3.7709203e-05
4.902737e-05
4.9007992e-05
4.208439e-05
2.817573e-05
1.6673143e-05
1.1255189e-05
1.0393584e-05
9.3365979e-06
8.1999788e-06
7.6926488e-06
7.5390092e-06
7.3075996e-06
7.6184247e-06
7.698841e-06
7.334943e-06
3.1239657e-05
1.7025075e-05
1.5256912e-05
1.6054396e-05
2.0144253e-05
2.9326176e-05
3.6756372e-05
5.2671334e-05
6.2841237e-05
6.076725e-05
4.9877032e-05
3.5620199e-05
2.148942e-05
1.4090217e-05
1.2224663e-05
1.0923071e-05
9.5289551e-06
8.8172838e-06
8.7952417e-06
8.4927364e-06
8.8416034e-06
8.9139903e-06
8.5799508e-06
3.4458047e-05
2.0853226e-05
1.8516843e-05
1.9049374e-05
2.4165733e-05
3.8908675e-05
5.7366377e-05
8.789115e-05
9.5835903e-05
8.7672553e-05
6.5220815e-05
4.5528096e-05
2.8053682e-05
1.8439803e-05
1.525807e-05
1.3607639e-05
1.1248534e-05
1.0142073e-05
1.0095996e-05
9.7725249e-06
1.0194599e-05
1.02222e-05
9.7093097e-06
3.6003891e-05
2.4102868e-05
2.0965488e-05
2.1168582e-05
2.7033589e-05
4.7760499e-05
8.9677041e-05
0.00012892836
0.00013049675
0.00011498282
7.8140229e-05
6.2460726e-05
4.1481262e-05
2.8287933e-05
2.3296321e-05
2.0563835e-05
1.518329e-05
1.2667836e-05
1.2351218e-05
1.1971215e-05
1.2848423e-05
1.3127662e-05
1.232556e-05
3.572155e-05
2.7216488e-05
2.3192709e-05
2.3003184e-05
2.9626401e-05
5.753778e-05
0.00012785994
0.00018562963
0.0001761489
0.00013149959
8.5367604e-05
7.4448465e-05
7.0277356e-05
5.0551318e-05
3.9646666e-05
3.4889048e-05
2.2756458e-05
1.8101203e-05
1.8206324e-05
1.8499569e-05
1.901482e-05
1.8191795e-05
1.5491127e-05
3.3391399e-05
2.9260879e-05
2.6319889e-05
2.682948e-05
3.6936748e-05
7.9415441e-05
0.00018946837
0.00026076246
0.00023593759
0.00014983784
9.5431024e-05
8.9655753e-05
9.4555491e-05
7.558523e-05
5.3223938e-05
4.3527261e-05
2.6832109e-05
2.3418957e-05
2.5298745e-05
2.5167231e-05
2.4795858e-05
2.3394261e-05
1.8617312e-05
3.0620349e-05
3.0792695e-05
2.8618492e-05
2.9348189e-05
4.1896691e-05
9.5422699e-05
0.00023773799
0.00033564399
0.00029663406
0.00016927562
0.00011068823
0.00010872403
0.00011838879
0.00010466053
7.1834208e-05
4.8186966e-05
2.9382498e-05
2.7457129e-05
3.1735909e-05
3.5747028e-05
3.586233e-05
3.107502e-05
2.0059635e-05
2.8289344e-05
3.2107451e-05
3.1633956e-05
3.4353582e-05
5.4985697e-05
0.00012909251
0.00030469226
0.00040362793
0.00035228862
0.00019516227
0.00013446625
0.00013765434
0.00016292657
0.00016077702
0.00010732328
5.4644676e-05
3.3562273e-05
3.3883464e-05
4.2949873e-05
5.2562888e-05
5.2270563e-05
3.9183728e-05
2.2467409e-05
3.028641e-05
3.5320225e-05
3.5742578e-05
3.9289098e-05
6.4503754e-05
0.00015209419
0.0003529683
0.00046956295
0.0004139485
0.00024043825
0.00017844045
0.00020283242
0.00030047687
0.00033051353
0.00019747986
7.1925081e-05
4.3848491e-05
4.5527905e-05
5.6792106e-05
6.6120005e-05
6.1643309e-05
4.2289824e-05
2.6468516e-05
3.9068924e-05
4.2958737e-05
4.5797999e-05
5.0461095e-05
8.270834e-05
0.00018449279
0.00040785285
0.0005295215
0.00048674051
0.00032600627
0.00027879637
0.00034982193
0.00054973022
0.00058670222
0.00031427292
0.00010321071
6.4208013e-05
6.3660187e-05
7.3889209e-05
8.085685e-05
7.597991e-05
4.5650525e-05
3.4788814e-05
5.5099513e-05
5.6342502e-05
6.0450129e-05
6.1862233e-05
9.0387696e-05
0.00019385459
0.00043866172
0.00057452157
0.00054696087
0.0003960418
0.00035589991
0.00045580889
0.00069194394
0.00067966327
0.00035165809
0.00013444118
9.911636e-05
9.9527453e-05
0.00010936623
0.00011420755
8.3381114e-05
5.5353971e-05
5.3496567e-05
0.00011089187
9.3953489e-05
9.7302051e-05
8.9563535e-05
0.00010040245
0.00018491721
0.00043792899
0.00062671331
0.00061091055
0.00050602013
0.00050749463
0.0006456532
0.0008536168
0.00073598126
0.00035675904
0.00019463643
0.00017818073
0.00021063345
0.00022251515
0.00017210947
9.5835182e-05
7.6720044e-05
7.3811758e-05
0.00023374718
0.00019335174
0.00018674975
0.00014471946
0.00012428259
0.00016710917
0.00040559697
0.0006667297
0.00070864462
0.00070465002
0.00075255065
0.00093521137
0.0010940411
0.00082545037
0.0004226547
0.0003284953
0.00033697838
0.00037177786
0.00034130245
0.00018850491
0.00011735951
0.00011062004
0.000107671
0.00039027046
0.00032818091
0.00030960788
0.00028944352
0.00019575022
0.00018557217
0.00035063122
0.0006795077
0.00077842757
0.00079867617
0.00086158866
0.0010514899
0.0011808283
0.00095396242
0.00055796993
0.00046315195
0.00047026911
0.0004850802
0.00035160516
0.00020639295
0.00016888662
0.00016647335
9.6606361e-05
0.000568194
0.00053020435
0.00048967247
0.00045073485
0.00033987102
0.00023511504
0.00030649827
0.00059045624
0.00076546381
0.00085574898
0.00091418898
0.0010718347
0.0011528423
0.0010103784
0.00067785066
0.00056146634
0.00054321606
0.00050110093
0.00033575111
0.00024132483
0.00020532228
0.00014966679
9.4371101e-05
0.0010124444
0.00088198969
0.00088225134
0.00083189771
0.00070670393
0.00038338778
0.00031550998
0.00043573675
0.00071926866
0.00087162588
0.00096827949
0.0010969427
0.0011457219
0.0010294841
0.00071452863
0.00058762271
0.00054842801
0.00046660019
0.00031750912
0.00024020217
0.00018803957
0.0001286466
0.00010903953
0.0010480754
0.0010649085
0.0011386418
0.0011109587
0.0010096987
0.00075451838
0.0004228876
0.00043393505
0.00065706647
0.00090175054
0.0010441963
0.0011469718
0.0011514213
0.00098972455
0.00066317409
0.00054774364
0.00050094592
0.00042548172
0.00030535223
0.00023061453
0.00016323509
0.00013585612
0.0001378469
0.00099854672
0.0011526285
0.0013513748
0.0014088205
0.001237477
0.00079422509
0.00046458873
0.00045502068
0.00066402912
0.00090393859
0.0010661925
0.0011313956
0.0010927065
0.00087771663
0.00059150588
0.00049820815
0.00046421856
0.00040464327
0.00029638761
0.00020534654
0.00015846831
0.00015142008
0.00015743673
0.00078632926
0.0011458659
0.0013347584
0.0013881593
0.0011587565
0.00068091939
0.00046778604
0.00047389369
0.00066905306
0.00087449392
0.001050402
0.0011050688
0.0010286378
0.00076181713
0.00054659544
0.00047990497
0.0004523914
0.00036354799
0.0002414699
0.00018323241
0.00016609704
0.0001674635
0.00018564053
0.00070092914
0.00096242563
0.0010562756
0.0010585993
0.00078931534
0.00054708341
0.0004757896
0.00050536062
0.00070298512
0.00090131515
0.001041018
0.0010917474
0.00099022543
0.00070174612
0.00053747608
0.00047971838
0.0004219685
0.00027092078
0.00019789539
0.00017562292
0.0001699173
0.00017911009
0.00021876153
0.00056446282
0.00079631504
0.00079132505
0.00071904444
0.00059141652
0.00053534721
0.00052564549
0.00063675449
0.0008188391
0.00096717581
0.0010379282
0.0010119859
0.00079481777
0.00057220898
0.00048049824
0.00042168174
0.00030455595
0.00020227966
0.00017636955
0.00017376
0.00018762534
0.00022259544
0.00027819067
0.0004706792
0.00068778241
0.00069448134
0.00061449889
0.0005494496
0.00052960788
0.0005540865
0.00066673769
0.00082979938
0.00096911768
0.0010125465
0.00094998834
0.00076220116
0.00056350331
0.00048094951
0.00043531574
0.00033069519
0.00021302603
0.00017509506
0.00016922544
0.00017908675
0.00020739631
0.00025902371
0.00038673438
0.00060697182
0.00064140379
0.00059348172
0.00055719576
0.00054568484
0.00058385344
0.00066955329
0.00079816544
0.00092320235
0.00096597068
0.00091952255
0.00075574192
0.00056184564
0.00047146808
0.00043477268
0.00035874339
0.00024241432
0.00018529354
0.00016912402
0.00017176557
0.00018733558
0.00022596102
0.00032488058
0.00052421556
0.0005844785
0.00057994497
0.00056995245
0.00058251028
0.00062606106
0.00067711568
0.0007558437
0.00085618002
0.00091031161
0.00089105717
0.0007700832
0.0005810942
0.00047311097
0.00043075743
0.00036900738
0.00026436897
0.00019375172
0.00016831249
0.00016340605
0.00017038711
0.00019620207
0.00028037819
0.00045694086
0.00053243738
0.00055035549
0.00055874474
0.00059027479
0.00064147383
0.00068613055
0.00073490276
0.00080536862
0.00086053434
0.0008611299
0.00078074042
0.00060949997
0.00048918606
0.00043571112
0.00037851492
0.0002858492
0.00020610298
0.00016932218
0.00015762243
0.00015856776
0.00017130023
0.00024916584
0.00038962908
0.00048679672
0.00052004776
0.00053189082
0.00056908024
0.00063061069
0.00068395498
0.0007247447
0.00077284023
0.00082160412
0.00082905495
0.00077509798
0.00063039534
0.00050298712
0.0004398398
0.00038948432
0.00031147171
0.00023509339
0.00018097777
0.00015945662
0.00015487726
0.00015919366
0.00022536073
0.00032050847
0.00043596052
0.00048881438
0.00051014245
0.00054490662
0.00060407725
0.00066110974
0.00069736599
0.00073335491
0.0007769489
0.0007942002
0.00076253567
0.00066122524
0.00052851782
0.00044825309
0.00040354373
0.00034020051
0.00026970566
0.00020905884
0.00017080216
0.00015796053
0.00015633807
0.00021351719
0.00026881038
0.00038231123
0.00044911275
0.00048077499
0.0005188928
0.00057532813
0.00062688153
0.00065980566
0.00068679821
0.00072103879
0.00074454663
0.00073640379
0.00068052164
0.00056911289
0.00047565332
0.00042263778
0.00036867513
0.00030330273
0.00024168486
0.000191145
0.00016533919
0.00015566195
0.0002117406
0.00024263377
0.00033922348
0.00040544964
0.00043928962
0.00047799818
0.00053315861
0.00058606292
0.00062168115
0.00064561626
0.00067120418
0.00069406289
0.0006971249
0.00067651319
0.00061228649
0.00051913298
0.00044997818
0.00039637116
0.00033790194
0.00027570438
0.00022092458
0.00018090349
0.00015839927
0.00021128323
0.00022938628
0.00031251537
0.00037146844
0.00040053196
0.00043385832
0.000483915
0.00053750709
0.00058019922
0.00061074168
0.00063638275
0.00065790943
0.00066684852
0.00066163599
0.00062915348
0.00055899463
0.00048508806
0.00042513005
0.00037011092
0.00031153027
0.00025466001
0.0002111793
0.00017547393
0.00020774549
0.00021590775
0.00029019682
0.00034716691
0.00037402044
0.00040168619
0.00044422113
0.00049372783
0.00053872133
0.00057460705
0.00060341716
0.00062614462
0.00063956264
0.00063968691
0.00062592673
0.0005872869
0.0005224445
0.00046005316
0.00040543368
0.00035172957
0.00029554867
0.00025035665
0.0002027731
0.00020161871
0.00020229664
0.00026909826
0.00032549676
0.00035401381
0.00037904218
0.00041503144
0.00045903739
0.00050245948
0.0005394709
0.00056952223
0.0005933527
0.00061038124
0.00061779357
0.0006148146
0.0005973098
0.00055737602
0.00050282806
0.00044913744
0.00039701047
0.00034184482
0.00029661765
0.00023721899
0.00019094835
0.00018560829
0.00024920729
0.00030562336
0.00033744862
0.00036157239
0.00039186809
0.00043035938
0.00047176881
0.00051015543
0.00054272015
0.00056924274
0.00058994621
0.00060328815
0.00060640663
0.00060092368
0.00058187278
0.00054323332
0.00049515593
0.00044448273
0.00038895343
0.00034555558
0.0002780965
0.00018161443
0.00016509104
0.00022474203
0.00028329978
0.00032196645
0.00034941801
0.00037735063
0.00041092938
0.000448882
0.00048708089
0.00052196899
0.00055188332
0.00057610771
0.00059342166
0.00060202697
0.00060178459
0.00059416795
0.00057405304
0.00053802266
0.00049444829
0.00044131263
0.00040237482
0.00032934571
0.00017188475
0.00014425667
0.0001975188
0.00025577387
0.00030076101
0.00033507924
0.00036588653
0.00039804859
0.00043257928
0.00046822553
0.00050291782
0.00053464666
0.00056191591
0.00058312207
0.00059669739
0.00060311631
0.00060307243
0.00059661611
0.00057886602
0.00054856
0.00050502932
0.00046994813
0.00039686666
0.00016235433
0.00012509204
0.00017133336
0.00022531848
0.00027194471
0.00031153581
0.00034713316
0.00038137425
0.00041547774
0.00045005095
0.0004844867
0.0005176224
0.00054801576
0.00057409941
0.00059380893
0.0006063804
0.00061446106
0.00061528173
0.00060976742
0.00059509274
0.00056668601
0.00053759373
0.00047421568
0.00015190132
0.00011035406
0.00014880359
0.00019625667
0.00024140173
0.00028293993
0.00032181948
0.0003587539
0.00039427174
0.00042919197
0.00046350925
0.00049706196
0.00052933853
0.00055937145
0.00058566724
0.00060445606
0.00061730107
0.0006263744
0.00062954024
0.0006259782
0.00061512612
0.00059654426
0.0005538761
0.00014194772
9.8900771e-05
0.00013075854
0.00017097723
0.00021197152
0.00025201061
0.00029110457
0.00032886609
0.0003652974
0.00040082528
0.00043549773
0.00046943454
0.00050278013
0.00053527651
0.00056650018
0.0005945116
0.00061429158
0.0006280499
0.00063870117
0.00064519565
0.00064515134
0.00063964588
0.00062113971
0.0001311482
9.6451216e-05
0.0001219782
0.00015380134
0.00018846077
0.00022442713
0.00026093872
0.00029724407
0.00033300647
0.00036851993
0.00040347388
0.00043764693
0.00047118891
0.00050411112
0.0005363841
0.00056840904
0.00059809991
0.00062047029
0.00063676181
0.00064883533
0.00065793551
0.00066332866
0.00066069267
0.0001226814
9.3244447e-05
0.00011041055
0.00013526186
0.00016389961
0.00019469203
0.00022719083
0.00026046493
0.00029405474
0.00032793924
0.00036179069
0.00039535504
0.00042850202
0.00046123286
0.00049366042
0.00052607638
0.00055901076
0.00059194313
0.0006193032
0.00064022356
0.00065548709
0.00066704286
0.00067791886
0.00010798639
9.7716346e-05
0.0001035589
0.00012008255
0.00014225999
0.00016729809
0.00019406615
0.0002222985
0.00025148781
0.00028152122
0.00031208293
0.00034297741
0.00037420097
0.00040575142
0.00043760955
0.00046968738
0.00050207862
0.00053492912
0.00056904212
0.00060195867
0.00062974235
0.00065196632
0.0006774696
0.0001148137
8.7846109e-05
9.2389737e-05
0.00010624748
0.00012503025
0.00014582483
0.00016769745
0.00019050949
0.00021420283
0.00023883752
0.00026435525
0.00029067378
0.00031777051
0.00034570432
0.00037443948
0.00040385014
0.00043381989
0.0004644041
0.00049562293
0.00052747271
0.00056081312
0.00059503248
0.00062902772
0.00010106661
9.0397544e-05
8.8530559e-05
0.00010118115
0.00011847768
0.00013725612
0.00015611411
0.00017518257
0.00019447831
0.00021416205
0.00023445211
0.00025546112
0.00027726501
0.0002999575
0.0003236062
0.0003481274
0.00037349815
0.00039981847
0.00042709739
0.00045525191
0.00048447523
0.0005158331
0.00055477532
0.00012380849
8.2882234e-05
8.2649332e-05
9.4567502e-05
0.00011249369
0.00013095153
0.00014909182
0.00016695027
0.00018463372
0.0002022829
0.00022004411
0.00023807449
0.00025652554
0.00027549317
0.00029510076
0.00031539929
0.00033643359
0.0003583032
0.00038108244
0.00040473776
0.00042944232
0.000456216
0.00049066972
0.00011225856
7.9561236e-05
7.8336749e-05
9.1513084e-05
0.00011007124
0.00012843124
0.00014650602
0.0001641589
0.00018153103
0.0001987068
0.00021580292
0.00023291334
0.00025015338
0.0002676307
0.00028544573
0.00030363372
0.00032225077
0.00034133721
0.00036098028
0.00038125201
0.00040232021
0.00042493472
0.00045277366
0.00016062864
8.0121169e-05
7.4120501e-05
8.6591932e-05
0.00010703856
0.00012656442
0.00014538088
0.00016355667
0.00018127562
0.00019865098
0.00021586013
0.00023297852
0.0002501345
0.00026739186
0.00028481756
0.00030240054
0.00032015273
0.00033807147
0.00035615979
0.00037462467
0.00039368892
0.00041356776
0.00043632302
0.00016198124
7.0777203e-05
7.429855e-05
8.9312368e-05
0.00010992792