/*--------------------------------*- C++ -*----------------------------------*\
| =========                 |                                                 |
| \\      /  F ield         | OpenFOAM: The Open Source CFD Toolbox           |
|  \\    /   O peration     | Version:  2406                                  |
|   \\  /    A nd           | Website:  www.openfoam.com                      |
|    \\/     M anipulation  |                                                 |
\*---------------------------------------------------------------------------*/
FoamFile
{
    version     2.0;
    format      ascii;
    arch        "LSB;label=32;scalar=64";
    class       volScalarField;
    location    "185";
    object      nut;
}
// * * * * * * * * * * * * * * * * * * * * * * * * * * * * * * * * * * * * * //

dimensions      [0 2 -1 0 0 0 0];

internalField   nonuniform List<scalar> 
20580
(
8.8753117e-07
8.9405923e-07
8.687647e-07
8.4194201e-07
8.2232944e-07
8.1138436e-07
8.0326749e-07
7.9820814e-07
7.9577712e-07
7.9063479e-07
7.9090709e-07
7.8994033e-07
7.9195996e-07
8.0074333e-07
8.0592033e-07
8.1479252e-07
8.2171659e-07
8.3416569e-07
8.4349164e-07
8.5611331e-07
8.6782205e-07
8.6817483e-07
8.7039967e-07
8.745664e-07
8.7861092e-07
8.8413598e-07
8.9568481e-07
9.1665909e-07
9.4722474e-07
1.0094602e-06
1.1306334e-06
8.8808696e-07
8.9977305e-07
8.8652743e-07
8.6908747e-07
8.4345369e-07
8.2293055e-07
8.096018e-07
8.0247502e-07
7.9836503e-07
7.9251809e-07
7.9170254e-07
7.9085088e-07
7.9045735e-07
8.0081547e-07
8.0379142e-07
8.1535049e-07
8.220295e-07
8.3424152e-07
8.4247895e-07
8.5636653e-07
8.7074622e-07
8.7856843e-07
8.8013083e-07
8.9205891e-07
8.9977969e-07
9.1258857e-07
9.2780907e-07
9.4397337e-07
9.6236083e-07
9.9311182e-07
1.0756537e-06
8.8728267e-07
9.0314917e-07
8.8957858e-07
8.8001635e-07
8.644074e-07
8.4798779e-07
8.2755056e-07
8.1334065e-07
8.0564615e-07
7.9662076e-07
7.9355474e-07
7.9215736e-07
7.8885415e-07
7.9953052e-07
8.0047228e-07
8.1302792e-07
8.222185e-07
8.3657894e-07
8.4429637e-07
8.575495e-07
8.7125473e-07
8.8166137e-07
8.8536542e-07
8.9976678e-07
9.0833688e-07
9.2175701e-07
9.4172447e-07
9.6081008e-07
9.7712732e-07
9.9514916e-07
1.0604551e-06
8.870275e-07
9.0189183e-07
8.9127392e-07
8.8210096e-07
8.6963137e-07
8.6239965e-07
8.5501283e-07
8.3793999e-07
8.2298066e-07
8.086462e-07
8.0210554e-07
7.9718049e-07
7.9051031e-07
7.9791193e-07
7.9689624e-07
8.0676232e-07
8.1719992e-07
8.325769e-07
8.4765999e-07
8.6420904e-07
8.7675008e-07
8.8884013e-07
8.9465797e-07
9.0602893e-07
9.1673144e-07
9.2801479e-07
9.5262696e-07
9.7416654e-07
9.9464029e-07
1.0081784e-06
1.0337673e-06
8.8727732e-07
9.031289e-07
8.8709931e-07
8.7837264e-07
8.7332672e-07
8.6687252e-07
8.6646543e-07
8.6598789e-07
8.5895098e-07
8.3729945e-07
8.2160011e-07
8.0963982e-07
7.9654709e-07
7.993748e-07
7.9496244e-07
8.0152277e-07
8.0888769e-07
8.2272261e-07
8.3775572e-07
8.5763647e-07
8.7540198e-07
8.9923962e-07
9.1288041e-07
9.2718018e-07
9.3941382e-07
9.4716722e-07
9.694464e-07
9.9469757e-07
1.01431e-06
1.0287859e-06
1.0437368e-06
8.8765991e-07
9.0615794e-07
8.8805232e-07
8.7675425e-07
8.6957916e-07
8.7088766e-07
8.7150543e-07
8.7149941e-07
8.7549154e-07
8.6907611e-07
8.5232904e-07
8.3128853e-07
8.1026996e-07
8.0506258e-07
7.9774363e-07
7.9967969e-07
8.0374037e-07
8.1434197e-07
8.2918025e-07
8.4719496e-07
8.6327893e-07
8.8562382e-07
9.124271e-07
9.2762656e-07
9.6027501e-07
9.8960899e-07
1.0102737e-06
1.0486312e-06
1.0765576e-06
1.1147049e-06
1.0943471e-06
8.8922784e-07
9.1271611e-07
8.9213964e-07
8.7813088e-07
8.6963899e-07
8.6587954e-07
8.7232008e-07
8.7448943e-07
8.7869351e-07
8.7745766e-07
8.7643471e-07
8.6478398e-07
8.3699301e-07
8.2048394e-07
8.0680928e-07
8.0170615e-07
8.0420526e-07
8.0516364e-07
8.1928068e-07
8.3671058e-07
8.5416598e-07
8.7606094e-07
8.9977015e-07
9.1579676e-07
9.3822061e-07
9.7332175e-07
9.9972136e-07
1.0441558e-06
1.0818089e-06
1.1615683e-06
1.180199e-06
8.8835171e-07
9.6654801e-07
9.1583668e-07
8.8521303e-07
8.7026013e-07
8.641427e-07
8.6680035e-07
8.7189304e-07
8.7899606e-07
8.818659e-07
8.8809554e-07
8.9402065e-07
8.87081e-07
8.6342757e-07
8.3438495e-07
8.1551025e-07
8.093837e-07
8.0597983e-07
8.1329875e-07
8.1883816e-07
8.3307882e-07
8.5309421e-07
8.7713375e-07
9.0258625e-07
9.2260377e-07
9.5432087e-07
9.8101665e-07
1.0196081e-06
1.05406e-06
1.1306269e-06
1.1899408e-06
8.8415826e-07
9.8918588e-07
9.374731e-07
8.9474944e-07
8.7180837e-07
8.6540662e-07
8.6525196e-07
8.7361926e-07
8.764896e-07
8.8733886e-07
8.9054066e-07
9.0048313e-07
9.0788453e-07
9.0671764e-07
8.9574791e-07
8.5975871e-07
8.3383979e-07
8.1975185e-07
8.1855847e-07
8.1991845e-07
8.242152e-07
8.3887378e-07
8.5291235e-07
8.7084198e-07
8.8999845e-07
9.2030258e-07
9.505323e-07
9.8362823e-07
1.0232139e-06
1.0634707e-06
1.1446269e-06
8.6223201e-07
9.5620893e-07
9.3963732e-07
9.0990707e-07
8.8625123e-07
8.8003269e-07
8.7859177e-07
8.8575805e-07
8.8531097e-07
8.937057e-07
8.9322815e-07
9.0212323e-07
9.0766272e-07
9.1259036e-07
9.1926539e-07
9.1956397e-07
8.9370615e-07
8.6658236e-07
8.5186935e-07
8.4208297e-07
8.3875594e-07
8.4436373e-07
8.5580166e-07
8.6928298e-07
8.8501272e-07
9.0362117e-07
9.337078e-07
9.6356994e-07
1.0154854e-06
1.0494726e-06
1.1208037e-06
8.4570443e-07
8.8480914e-07
9.1526256e-07
9.4148135e-07
9.5192958e-07
9.7324154e-07
9.8610939e-07
9.9610015e-07
9.91487e-07
9.7251463e-07
9.4407276e-07
9.222162e-07
9.1665517e-07
9.2654454e-07
9.4222773e-07
9.6097249e-07
9.7464085e-07
9.806303e-07
9.7306874e-07
9.4761778e-07
9.2768763e-07
9.1023831e-07
9.018078e-07
9.0162382e-07
9.0816133e-07
9.1567376e-07
9.3291651e-07
9.6121192e-07
1.0123505e-06
1.0465205e-06
1.1063013e-06
8.717201e-07
8.7647336e-07
8.9003152e-07
9.4096936e-07
1.0409222e-06
1.1552002e-06
1.2548842e-06
1.3479337e-06
1.4043353e-06
1.3754123e-06
1.2327588e-06
1.0912041e-06
9.9035061e-07
9.6309901e-07
9.8218712e-07
1.0023673e-06
1.03819e-06
1.0957172e-06
1.1386433e-06
1.1577979e-06
1.1664009e-06
1.1590882e-06
1.1327844e-06
1.100962e-06
1.0654018e-06
1.0259583e-06
9.9869235e-07
1.0045089e-06
1.0277386e-06
1.0588196e-06
1.1048411e-06
8.8946328e-07
9.5948156e-07
8.9098983e-07
9.1917088e-07
1.0204587e-06
1.1222629e-06
1.2565687e-06
1.3917335e-06
1.4804545e-06
1.5344213e-06
1.4231151e-06
1.2307034e-06
1.0751611e-06
9.9538252e-07
9.9215157e-07
1.0150515e-06
1.0459871e-06
1.1087067e-06
1.1643453e-06
1.209302e-06
1.2536761e-06
1.2843341e-06
1.3069676e-06
1.3238102e-06
1.3307095e-06
1.3104384e-06
1.2606453e-06
1.231525e-06
1.1919453e-06
1.1709926e-06
1.152904e-06
8.7144063e-07
9.5778533e-07
8.9678908e-07
8.6473785e-07
8.9280187e-07
9.6027411e-07
1.0445742e-06
1.1287773e-06
1.1978025e-06
1.2560959e-06
1.2540957e-06
1.1235256e-06
1.0262882e-06
9.7761722e-07
9.7997239e-07
1.0112396e-06
1.0469223e-06
1.0915926e-06
1.1610457e-06
1.2241204e-06
1.281554e-06
1.3262091e-06
1.3605113e-06
1.4011203e-06
1.4307318e-06
1.4307853e-06
1.415672e-06
1.4061864e-06
1.3958819e-06
1.3885654e-06
1.3376023e-06
8.7756528e-07
8.9439778e-07
8.7884232e-07
8.546394e-07
8.3354153e-07
8.2991522e-07
8.5647512e-07
8.8429699e-07
9.203181e-07
9.5819011e-07
9.8643249e-07
9.5740798e-07
9.4261305e-07
9.5770878e-07
9.8784542e-07
1.0271283e-06
1.0672403e-06
1.1311524e-06
1.2325596e-06
1.327515e-06
1.4179767e-06
1.493673e-06
1.5374077e-06
1.5868392e-06
1.6324085e-06
1.6562263e-06
1.6604717e-06
1.6676949e-06
1.675602e-06
1.6816209e-06
1.6083166e-06
8.807825e-07
9.2407523e-07
9.1577948e-07
8.7028912e-07
8.3246074e-07
8.3005732e-07
8.6588083e-07
9.0321124e-07
9.4881611e-07
9.9559311e-07
1.0175161e-06
9.754583e-07
9.6396956e-07
9.9255108e-07
1.0305324e-06
1.0684416e-06
1.1614081e-06
1.3716593e-06
1.6049002e-06
1.8411647e-06
2.0914655e-06
2.3516224e-06
2.5349761e-06
2.6668421e-06
2.7743466e-06
2.81149e-06
2.8070497e-06
2.7832403e-06
2.746276e-06
2.7106409e-06
2.5169475e-06
8.6916099e-07
9.6712015e-07
9.1232041e-07
8.5444808e-07
8.5879821e-07
9.2514622e-07
1.0044132e-06
1.0899823e-06
1.1618478e-06
1.1461512e-06
1.0638436e-06
9.9739028e-07
9.8643116e-07
1.0106704e-06
1.0309178e-06
1.0906703e-06
1.265817e-06
1.5398627e-06
1.8169108e-06
2.1063507e-06
2.3787764e-06
2.6733996e-06
2.953919e-06
3.1878358e-06
3.3862731e-06
3.5636043e-06
3.7375089e-06
3.8786213e-06
4.0057167e-06
4.1151305e-06
4.1443224e-06
8.6573682e-07
8.7482203e-07
8.6615102e-07
8.7147441e-07
9.2447706e-07
9.9115154e-07
1.0570021e-06
1.0985753e-06
1.0818016e-06
1.0501444e-06
9.9718819e-07
9.7649297e-07
9.9307466e-07
1.0122194e-06
1.048689e-06
1.1737621e-06
1.3727849e-06
1.5717646e-06
1.7884983e-06
2.007845e-06
2.2135086e-06
2.3927967e-06
2.6054975e-06
2.7680811e-06
2.9575416e-06
3.0988846e-06
3.3252459e-06
3.4913792e-06
3.691793e-06
3.8107185e-06
3.9844695e-06
8.502161e-07
8.985507e-07
9.2811066e-07
9.4944861e-07
9.5443382e-07
9.5303426e-07
9.4481131e-07
9.3358589e-07
9.3485402e-07
9.511216e-07
9.740714e-07
1.0033667e-06
1.0287219e-06
1.099743e-06
1.2257851e-06
1.3242849e-06
1.4119296e-06
1.4858458e-06
1.5424381e-06
1.5768384e-06
1.5486128e-06
1.5078048e-06
1.5364384e-06
1.5811315e-06
1.6373201e-06
1.6970763e-06
1.8272218e-06
1.9389966e-06
2.1646387e-06
2.2897367e-06
2.6464013e-06
9.2253714e-07
1.0030949e-06
9.6897401e-07
9.420794e-07
9.1236924e-07
8.8805958e-07
8.8575212e-07
9.2155386e-07
9.5366867e-07
9.874331e-07
1.0229402e-06
1.0652336e-06
1.1207305e-06
1.1688613e-06
1.2050016e-06
1.2325275e-06
1.2205685e-06
1.1399928e-06
1.0841218e-06
1.0595405e-06
1.0559512e-06
1.0691371e-06
1.0883559e-06
1.1117831e-06
1.1607284e-06
1.2033047e-06
1.305587e-06
1.366015e-06
1.4981051e-06
1.564654e-06
1.7068608e-06
8.7898796e-07
9.4490927e-07
9.511819e-07
9.798644e-07
1.0447166e-06
1.0871287e-06
1.1501262e-06
1.2143708e-06
1.302638e-06
1.2477462e-06
1.280534e-06
1.3006923e-06
1.3039539e-06
1.3070067e-06
1.3101495e-06
1.3149279e-06
1.3043242e-06
1.2697203e-06
1.2546962e-06
1.2672731e-06
1.2895763e-06
1.3077285e-06
1.346908e-06
1.1625581e-06
1.4317402e-06
1.2175471e-06
1.3179782e-06
1.6532335e-06
9.2445235e-07
1.7941434e-06
1.4078774e-06
9.0809837e-07
1.1956049e-06
1.7010523e-06
2.0723228e-06
2.3157822e-06
2.2702962e-06
2.8042623e-06
2.8454204e-06
2.7434421e-06
3.1015431e-06
3.0141568e-06
2.8754887e-06
2.5782321e-06
2.6526275e-06
2.5873153e-06
2.5306904e-06
2.493282e-06
2.4514246e-06
2.4477282e-06
2.4392414e-06
2.4695603e-06
2.4810835e-06
2.4979742e-06
2.1342165e-06
2.3541949e-06
2.5813619e-06
2.6092538e-06
2.3151359e-06
1.8449092e-06
2.1965063e-06
2.6649968e-06
6.8517195e-07
1.5828856e-06
1.8593994e-06
2.3647659e-06
1.8071285e-06
2.7939819e-06
1.7354818e-06
3.5357658e-06
1.6381671e-06
3.6805073e-06
2.7758054e-06
2.2725415e-06
2.5192802e-06
2.1729822e-06
2.2212788e-06
2.1551202e-06
2.159447e-06
1.9681984e-06
1.9624907e-06
2.1719459e-06
2.0652905e-06
1.8150345e-06
1.9558022e-06
2.4004901e-06
2.409616e-06
1.8928972e-06
1.7232565e-06
2.2409566e-06
2.5525248e-06
2.4985782e-06
2.2722127e-06
2.0516729e-06
2.6775666e-06
1.9420699e-06
1.8017305e-06
2.5346456e-06
4.059664e-06
4.3072429e-06
2.8952986e-06
1.8024236e-06
1.4162569e-06
1.2170789e-06
1.1521821e-06
1.1624683e-06
1.1938519e-06
1.2113668e-06
1.2478261e-06
1.2502127e-06
1.1691867e-06
1.1234461e-06
1.1127788e-06
1.1196953e-06
1.1437917e-06
1.1681006e-06
1.7701377e-06
2.0522855e-06
1.4024775e-06
1.8809074e-06
2.406382e-06
3.9858326e-06
4.5891995e-06
3.6861049e-06
2.1161833e-06
1.5654324e-06
1.2992954e-06
1.2610968e-06
1.2548505e-06
1.2623335e-06
1.2687792e-06
1.3076317e-06
1.3461823e-06
1.3233914e-06
1.2281836e-06
1.2011816e-06
1.2000673e-06
1.1957212e-06
1.1879604e-06
1.3924308e-06
1.4860466e-06
1.4590425e-06
2.0216043e-06
2.4215419e-06
3.8877636e-06
4.6980611e-06
4.3056144e-06
2.7175436e-06
1.827284e-06
1.4345713e-06
1.3491179e-06
1.3306676e-06
1.3327929e-06
1.327777e-06
1.3481512e-06
1.4070452e-06
1.412797e-06
1.3385073e-06
1.2714835e-06
1.2771639e-06
1.2872375e-06
1.280771e-06
1.1703921e-06
2.1930299e-06
1.4348025e-06
1.359267e-06
2.4813451e-06
3.7402934e-06
4.8304193e-06
4.7416263e-06
3.363752e-06
2.194087e-06
1.6076873e-06
1.4641498e-06
1.4317683e-06
1.4372812e-06
1.4607273e-06
1.4615272e-06
1.5326639e-06
1.549063e-06
1.516205e-06
1.3775395e-06
1.3348108e-06
1.3397117e-06
1.3384244e-06
9.6953866e-07
2.1061331e-06
1.5413848e-06
1.5457786e-06
2.576996e-06
2.4829324e-06
3.4942286e-06
5.1783379e-06
4.1382812e-06
2.583637e-06
1.8442217e-06
1.5993488e-06
1.5812712e-06
1.5730084e-06
1.615704e-06
1.6428872e-06
1.6744844e-06
1.7088275e-06
1.6893369e-06
1.6025011e-06
1.4745531e-06
1.4724753e-06
1.4607268e-06
7.2551626e-07
1.301887e-06
1.1697405e-06
1.6834304e-06
2.1454514e-06
2.9578339e-06
5.2246495e-06
5.682232e-06
5.0312029e-06
3.1679584e-06
2.1939908e-06
1.7526068e-06
1.732185e-06
1.709649e-06
1.717194e-06
1.7517354e-06
1.7576872e-06
1.8387062e-06
1.81749e-06
1.7474913e-06
1.6396127e-06
1.5961077e-06
1.589844e-06
4.7701777e-07
1.0965894e-06
7.9735421e-07
1.41194e-06
2.1590524e-06
2.3103023e-06
3.3182008e-06
5.016961e-06
5.8783697e-06
4.052924e-06
2.6698206e-06
2.0038458e-06
1.9160083e-06
1.8526226e-06
1.7959693e-06
1.8211906e-06
1.8303582e-06
1.8775961e-06
1.9285878e-06
1.9007663e-06
1.7917543e-06
1.7372831e-06
1.7394654e-06
7.801777e-07
1.0557816e-06
1.7454372e-06
2.290185e-06
2.1172346e-06
2.3403731e-06
3.4778727e-06
5.3770793e-06
6.2790689e-06
5.1242113e-06
3.3417373e-06
2.3697302e-06
2.1640834e-06
2.1078211e-06
2.0030743e-06
2.0054824e-06
2.0012629e-06
2.0013999e-06
2.090777e-06
2.0928635e-06
2.0042523e-06
1.8805474e-06
1.8381884e-06
8.300544e-07
1.3687082e-06
1.1033276e-06
1.0287868e-06
1.6631684e-06
3.5266867e-06
4.3077931e-06
4.372683e-06
4.9554577e-06
6.3213702e-06
4.3919232e-06
2.9697734e-06
2.4622185e-06
2.4461493e-06
2.3718123e-06
2.3190572e-06
2.3298492e-06
2.3098431e-06
2.4132826e-06
2.4255187e-06
2.3185643e-06
2.1538641e-06
2.0063605e-06
6.5767755e-07
8.2772545e-07
1.4849033e-06
2.6719559e-06
2.1216767e-06
1.7069427e-06
1.9963774e-06
3.3624977e-06
6.3510929e-06
7.5773609e-06
5.5120777e-06
3.6696857e-06
2.7800639e-06
2.7376006e-06
2.6925409e-06
2.5618842e-06
2.6210146e-06
2.6534659e-06
2.6962241e-06
2.7514203e-06
2.6737327e-06
2.4451498e-06
2.242446e-06
4.0178887e-07
8.9480855e-07
9.751101e-07
1.8699487e-06
2.4061295e-06
2.8139736e-06
4.0328615e-06
7.3133286e-06
7.1240901e-06
5.3871471e-06
4.6414283e-06
4.2647386e-06
3.1795003e-06
2.9844882e-06
2.8907007e-06
2.7367089e-06
2.7757107e-06
2.8391088e-06
2.8843316e-06
2.9615496e-06
2.9077267e-06
2.6799865e-06
2.4645533e-06
4.2280443e-07
1.0219486e-06
8.8099552e-07
1.7400863e-06
2.4042761e-06
2.886169e-06
3.7035796e-06
5.5104864e-06
7.1529306e-06
7.3127444e-06
5.2599964e-06
4.8524542e-06
3.7487173e-06
3.2953306e-06
3.1734518e-06
2.9850116e-06
2.9277358e-06
2.9536887e-06
2.9943006e-06
3.0969028e-06
3.1044983e-06
2.9717462e-06
2.7017319e-06
6.5526315e-07
7.1031815e-07
1.2624592e-06
2.9543212e-06
3.9608615e-06
2.9161877e-06
3.0786723e-06
4.5273427e-06
6.9896524e-06
1.0784508e-05
9.6323156e-06
5.7780686e-06
3.4887627e-06
3.3599827e-06
3.8208995e-06
3.6295695e-06
3.3134397e-06
3.2822156e-06
3.2367167e-06
3.3292346e-06
3.4115699e-06
3.3628814e-06
3.0819205e-06
1.1306972e-06
9.0339013e-07
2.2385106e-06
3.3062609e-06
3.7705508e-06
5.0483112e-06
6.1424945e-06
9.0064523e-06
1.1938734e-05
1.3441128e-05
1.3447527e-05
9.5172094e-06
6.4523378e-06
5.1242513e-06
4.9415552e-06
4.6464384e-06
4.1671704e-06
4.0200715e-06
3.9369929e-06
3.9623429e-06
4.1958136e-06
4.1889708e-06
3.8544423e-06
1.580559e-06
1.5018824e-06
2.4310927e-06
3.1494386e-06
4.5302662e-06
5.9695686e-06
6.6649736e-06
9.7208267e-06
1.3107842e-05
1.4482784e-05
1.5035927e-05
1.2094072e-05
8.1606405e-06
6.0926214e-06
5.7557576e-06
5.2725411e-06
4.839683e-06
4.6578351e-06
4.6127106e-06
4.5561756e-06
4.7071233e-06
4.7552513e-06
4.6589494e-06
1.6292131e-06
1.7073646e-06
2.8417041e-06
3.9326986e-06
4.8977385e-06
7.2247473e-06
8.1690113e-06
1.1285325e-05
1.4174087e-05
1.5755788e-05
1.6539714e-05
1.3556742e-05
8.9075977e-06
6.9813606e-06
6.3565789e-06
5.8382595e-06
5.3308245e-06
5.0949658e-06
5.0966391e-06
5.0171001e-06
5.2088215e-06
5.2507829e-06
5.172897e-06
1.1719458e-06
1.2897664e-06
3.1393089e-06
4.2659264e-06
4.9915939e-06
6.2248397e-06
1.0095499e-05
1.4205312e-05
1.6952463e-05
1.9646003e-05
1.9784936e-05
1.5679312e-05
8.3531674e-06
5.5235986e-06
5.8594325e-06
6.7173132e-06
5.8869463e-06
5.5305708e-06
5.5106546e-06
5.4049285e-06
5.6100473e-06
5.6587147e-06
5.5289831e-06
1.1362209e-06
1.3038885e-06
3.2720294e-06
4.4174306e-06
5.8456321e-06
6.3728739e-06
1.0758514e-05
1.5319452e-05
1.8352584e-05
2.0438755e-05
2.226206e-05
1.9503892e-05
1.1193646e-05
7.642588e-06
7.5602983e-06
8.4697779e-06
6.8768206e-06
6.1778208e-06
6.1119591e-06
6.0554329e-06
6.3866722e-06
6.514527e-06
6.3159837e-06
1.2466482e-06
1.5138868e-06
3.3891971e-06
4.5267396e-06
5.9782724e-06
7.5202979e-06
1.2807693e-05
1.8292195e-05
2.2017034e-05
2.2938375e-05
2.316162e-05
2.0958619e-05
1.5740158e-05
1.2713962e-05
1.1564728e-05
1.1885824e-05
9.192062e-06
7.8655107e-06
7.7574488e-06
7.8405499e-06
8.106242e-06
7.970437e-06
7.334963e-06
1.3865472e-06
1.6978416e-06
3.6102112e-06
4.9968322e-06
6.9772331e-06
8.8359678e-06
1.5778972e-05
2.2355265e-05
2.6558111e-05
2.7167885e-05
2.4396015e-05
2.3116659e-05
1.9883082e-05
1.7641145e-05
1.5013469e-05
1.3756337e-05
1.0406124e-05
9.489824e-06
9.7682876e-06
9.6300959e-06
9.5470183e-06
9.295958e-06
8.3141508e-06
1.3277858e-06
1.8193401e-06
3.8577404e-06
5.2104892e-06
7.4557693e-06
1.0265441e-05
1.8761105e-05
2.6859743e-05
3.2424033e-05
3.2422268e-05
2.6801317e-05
2.6229063e-05
2.2507451e-05
2.1657442e-05
1.8426229e-05
1.4812689e-05
1.1130205e-05
1.0598819e-05
1.1374173e-05
1.1979544e-05
1.2037384e-05
1.1265858e-05
8.8365993e-06
1.0827342e-06
1.9802437e-06
4.264299e-06
5.7775061e-06
9.1547838e-06
1.2566116e-05
2.3579754e-05
3.2730793e-05
3.9090085e-05
3.5832144e-05
3.0098694e-05
3.0174421e-05
2.7718632e-05
2.9572265e-05
2.352553e-05
1.636797e-05
1.2159029e-05
1.1955318e-05
1.3536271e-05
1.5657287e-05
1.5706171e-05
1.3401709e-05
9.574337e-06
1.1212862e-06
2.4225667e-06
4.6609923e-06
6.2700782e-06
1.0086602e-05
1.6090984e-05
3.1607647e-05
4.2347025e-05
4.8394005e-05
4.1001168e-05
3.5806351e-05
3.8148518e-05
4.3102497e-05
4.7528488e-05
3.4406458e-05
2.0119935e-05
1.4518932e-05
1.448747e-05
1.6104181e-05
1.7901248e-05
1.7443825e-05
1.436899e-05
1.0647647e-05
1.9682128e-06
3.4171078e-06
5.5135896e-06
7.3920862e-06
1.2136037e-05
2.3236785e-05
4.3413973e-05
5.598296e-05
5.6557039e-05
5.1264671e-05
4.9574912e-05
5.4072444e-05
6.8976679e-05
7.4252954e-05
5.001267e-05
2.6249678e-05
1.8584819e-05
1.7708005e-05
1.8989801e-05
2.0338676e-05
2.0050222e-05
1.5114289e-05
1.2573373e-05
4.1012282e-06
4.4837366e-06
6.2656129e-06
8.3037092e-06
1.2567951e-05
2.413321e-05
4.6733014e-05
6.1367051e-05
6.2898646e-05
5.8001466e-05
5.6670063e-05
6.5416839e-05
8.2533844e-05
8.2163944e-05
5.5814463e-05
3.0735869e-05
2.4263951e-05
2.2689001e-05
2.3752874e-05
2.4299886e-05
2.1536018e-05
1.6999769e-05
1.6309148e-05
2.1109697e-06
6.8298396e-06
7.8838404e-06
9.9505377e-06
1.2664718e-05
2.275111e-05
4.741078e-05
6.7960682e-05
7.0771117e-05
6.9334408e-05
7.141913e-05
8.2024582e-05
9.5797771e-05
8.862602e-05
5.7832321e-05
3.7929347e-05
3.4770474e-05
3.6691274e-05
3.7505221e-05
3.412624e-05
2.39368e-05
2.046632e-05
1.9345676e-05
2.9030972e-06
1.1336759e-05
1.3469575e-05
1.2180972e-05
1.3881335e-05
2.0119308e-05
4.3021463e-05
7.4100553e-05
8.2872665e-05
9.1198323e-05
9.8182383e-05
9.9285044e-05
0.00012395639
0.00010224161
6.6318677e-05
5.5890886e-05
5.4218488e-05
5.5668835e-05
5.460769e-05
3.7699587e-05
2.7058652e-05
2.4876223e-05
2.5248714e-05
3.7012421e-06
2.0573655e-05
1.4998767e-05
2.0712194e-05
1.7244122e-05
2.1085007e-05
4.1117048e-05
7.8547195e-05
9.3165954e-05
0.00010324271
0.00011392807
0.0001266949
0.00014165554
0.00012187695
8.2726092e-05
7.1079697e-05
6.8751686e-05
6.9886048e-05
5.7169986e-05
3.9516618e-05
3.3625762e-05
3.3488555e-05
2.324918e-05
6.9358136e-06
3.4188674e-05
3.9861487e-05
3.7635615e-05
2.9045123e-05
2.3677306e-05
3.6038457e-05
7.3342981e-05
9.7170189e-05
0.00011384517
0.00012475079
0.00014097704
0.00014680261
0.00013336221
9.7729622e-05
8.2657597e-05
7.7572423e-05
7.2383347e-05
5.5704149e-05
4.4094445e-05
3.9678398e-05
3.1273048e-05
2.2837986e-05
1.0206402e-05
5.1701819e-05
6.2200831e-05
6.624425e-05
6.0157298e-05
3.5170685e-05
3.5220479e-05
5.4877035e-05
9.4551368e-05
0.00011829863
0.00013423162
0.00014885424
0.00015305421
0.00013992787
0.00010364396
8.6532138e-05
7.9748383e-05
7.1051893e-05
5.4719364e-05
4.5164501e-05
3.7669605e-05
2.835543e-05
2.508022e-05
9.2878873e-06
7.1228626e-05
9.0629059e-05
9.2616872e-05
8.9092013e-05
7.0786042e-05
4.7167711e-05
5.5554369e-05
8.8189003e-05
0.00012476225
0.00014681926
0.00015915264
0.00015933944
0.00014135783
0.00010192047
8.5183743e-05
7.7617439e-05
6.8497836e-05
5.4448581e-05
4.4775686e-05
3.4259404e-05
2.9313476e-05
2.8472623e-05
7.8470002e-06
6.8288154e-05
8.1442434e-05
8.9620481e-05
9.2233869e-05
7.7334045e-05
5.4116988e-05
6.0872473e-05
9.3043248e-05
0.0001325028
0.00015784718
0.00016577765
0.00016060417
0.00013483752
9.7590137e-05
8.2841859e-05
7.6275586e-05
6.7658052e-05
5.5645966e-05
4.1703396e-05
3.3143299e-05
3.1220413e-05
3.0221718e-05
7.105646e-06
6.5700608e-05
6.863892e-05
8.5357833e-05
0.00011420007
7.4064424e-05
6.0900286e-05
6.9577854e-05
0.00010459028
0.00014068675
0.0001653599
0.00017025159
0.0001602327
0.00012832301
9.551933e-05
8.3075521e-05
7.6986474e-05
6.56079e-05
4.8515664e-05
3.8055521e-05
3.4547698e-05
3.3113152e-05
3.4825949e-05
8.2028236e-06
8.2492527e-05
7.7236737e-05
7.2503082e-05
9.190257e-05
7.1146181e-05
7.188021e-05
8.348581e-05
0.00012060458
0.00015530354
0.00017294721
0.00017792098
0.00016610907
0.00012418275
9.6187317e-05
8.4907649e-05
7.6274686e-05
5.5704834e-05
4.2602326e-05
3.7845058e-05
3.5345499e-05
3.5304558e-05
4.0149514e-05
9.8316248e-06
0.00010085237
0.00010448629
8.2529228e-05
7.2735481e-05
8.2550442e-05
8.8807054e-05
0.00011323884
0.00014834321
0.00017327004
0.00018244291
0.00017867177
0.00014621534
0.00010747077
9.0701579e-05
8.0626713e-05
6.3192908e-05
4.482819e-05
3.9591685e-05
3.7835843e-05
3.8364299e-05
4.2245238e-05
4.8189687e-05
1.0150172e-05
0.00010187005
0.0001056589
9.8416349e-05
8.4627253e-05
8.051723e-05
0.00010199963
0.00012673477
0.00015924262
0.00018316525
0.00018926545
0.00018023343
0.00015118282
0.00011374941
9.6023871e-05
8.6828947e-05
7.0336757e-05
4.8931828e-05
4.0845152e-05
3.8637026e-05
3.8629559e-05
4.1835133e-05
4.8007747e-05
8.6603596e-06
8.2681285e-05
9.7385049e-05
9.1918805e-05
8.9956869e-05
0.00010439028
0.00011695744
0.00013732229
0.00016410688
0.00018605858
0.0001923361
0.00018556319
0.00015922737
0.00012153928
0.00010104926
9.2150018e-05
7.7765957e-05
5.6601289e-05
4.4654368e-05
4.0463249e-05
3.9602728e-05
4.0659854e-05
4.5696115e-05
7.7597419e-06
7.8814768e-05
7.7060943e-05
9.0090906e-05
0.00011764254
0.00012174939
0.00013475754
0.00014975909
0.0001683567
0.0001865805
0.00019434844
0.0001904788
0.00016965601
0.00013215385
0.00010749454
9.6933975e-05
8.3922902e-05
6.3691072e-05
4.8704121e-05
4.2329582e-05
4.0329737e-05
4.0194641e-05
4.3022544e-05
7.5989243e-06
8.8951935e-05
0.00011633466
0.00010677467
0.00012827669
0.00013562246
0.0001487015
0.00016238319
0.00017597581
0.00019020657
0.00019817003
0.00019641033
0.00018058625
0.0001452721
0.00011696276
0.00010341318
9.0517224e-05
7.1204882e-05
5.3995009e-05
4.4847355e-05
4.1491839e-05
4.0651841e-05
4.0928953e-05
7.5875833e-06
7.9787511e-05
0.00011565082
0.0001300985
0.00013633557
0.00014546456
0.00015961907
0.00017348822
0.00018520615
0.00019633604
0.00020420693
0.00020299156
0.00019073605
0.00015876545
0.00012759179
0.00011086299
9.8460893e-05
8.0340566e-05
6.3447269e-05
4.9803556e-05
4.3903258e-05
4.2181145e-05
4.1086305e-05
6.3680864e-06
6.7510088e-05
0.0001098716
0.00013204167
0.0001436133
0.00015438362
0.00016840748
0.00018205159
0.00019180994
0.00020076596
0.00020903365
0.00020958588
0.00020102273
0.00017662788
0.00014250715
0.00012054132
0.0001082392
9.1703553e-05
7.4430644e-05
5.9209298e-05
4.8720824e-05
4.4908661e-05
4.3048301e-05
5.5581188e-06
5.8511736e-05
9.4206713e-05
0.00012529985
0.00014639064
0.00016096107
0.0001763578
0.00018866376
0.00019726119
0.00020429939
0.00021154598
0.00021400121
0.00020933055
0.00019359343
0.00016223502
0.00013540324
0.00011970003
0.00010441839
8.6506031e-05
7.0322327e-05
5.6407801e-05
4.8887465e-05
4.534673e-05
5.6799726e-06
5.5428626e-05
9.5311948e-05
0.00012390403
0.00014426365
0.0001620109
0.00017960645
0.00019384698
0.00020308634
0.0002093161
0.00021490563
0.0002180565
0.00021531402
0.00020673579
0.0001856848
0.00015646393
0.00013465606
0.00011812972
0.00010086569
8.298213e-05
6.7441305e-05
5.5603005e-05
4.8341309e-05
5.7901084e-06
5.5745913e-05
9.3607516e-05
0.00012062364
0.00014100055
0.00016000531
0.00017898989
0.0001961953
0.00020793595
0.00021583261
0.00022149912
0.00022486529
0.00022382723
0.00021873838
0.00020529745
0.00018038131
0.00015496609
0.00013481362
0.00011695924
9.8601133e-05
8.0973495e-05
6.7219791e-05
5.5447949e-05
5.416811e-06
5.6390674e-05
9.3815903e-05
0.00012016481
0.00013986655
0.0001589491
0.00017859998
0.00019734434
0.00021207172
0.00022238734
0.00022940974
0.00023354712
0.00023404192
0.00023005834
0.00022157346
0.00020499549
0.00017996589
0.00015666873
0.00013676029
0.00011787943
9.8671097e-05
8.3155572e-05
6.6386446e-05
5.1875324e-06
5.9185203e-05
9.6292066e-05
0.00012220161
0.00014121423
0.00015982173
0.00017956343
0.00019900523
0.00021618598
0.00022887349
0.00023771087
0.00024314484
0.00024524376
0.0002433797
0.00023767844
0.00022692133
0.00020808355
0.0001846515
0.00016247572
0.00014190264
0.00012101806
0.0001041531
8.1496871e-05
5.0706024e-06
6.162638e-05
0.00010047136
0.00012685327
0.00014567857
0.00016339667
0.00018228297
0.00020183191
0.0002204462
0.00023610964
0.00024767874
0.00025547616
0.00025976844
0.00026031819
0.00025644195
0.00024927197
0.00023664294
0.00021666917
0.00019396313
0.00017158553
0.00014814861
0.0001303235
0.00010218863
4.8232724e-06
6.1720689e-05
0.00010299276
0.00013177281
0.00015209321
0.00016991796
0.00018819728
0.00020739897
0.00022650353
0.00024441137
0.00025913333
0.00027008623
0.00027721051
0.00028032991
0.0002791018
0.00027380766
0.00026499826
0.00025080149
0.00023044488
0.00020828141
0.00018283813
0.00016474893
0.00013084372
4.6292652e-06
5.9141229e-05
0.00010276205
0.00013489474
0.00015814783
0.0001776662
0.00019656845
0.00021585251
0.00023513653
0.00025395255
0.00027102142
0.00028496459
0.00029534776
0.00030168336
0.00030353555
0.00030138538
0.00029551815
0.00028625985
0.00027188575
0.00025270819
0.0002281869
0.00020950572
0.00017127198
4.5827327e-06
5.6763887e-05
0.0001011665
0.00013528844
0.00016097088
0.00018285409
0.00020342324
0.00022374397
0.00024386282
0.0002636937
0.00028248752
0.00029924169
0.000313189
0.00032362809
0.000329704
0.00033124243
0.0003297368
0.00032385541
0.00031447548
0.00030085119
0.00028086047
0.00026267249
0.00022414949
4.3574708e-06
5.4490206e-05
9.9038287e-05
0.00013424527
0.00016161684
0.000185326
0.00020754959
0.00022922827
0.00025061652
0.00027165809
0.00029194732
0.00031091329
0.00032797035
0.00034251761
0.00035385323
0.00035999502
0.00036199692
0.00036117779
0.00035642648
0.00034774598
0.00033519959
0.0003201126
0.00028750356
4.1377761e-06
5.3181442e-05
9.7689063e-05
0.00013265577
0.00016054044
0.00018511269
0.00020825682
0.00023079519
0.00025313357
0.00027524643
0.0002969031
0.00031772245
0.00033733526
0.00035534558
0.000371525
0.00038482148
0.00039220522
0.00039514038
0.00039545368
0.00039267833
0.00038570902
0.00037645227
0.00035401806
4.0116544e-06
5.3232542e-05
9.8745128e-05
0.00013389114
0.00016198927
0.00018633658
0.00020910485
0.0002312807
0.00025343456
0.00027576043
0.00029808048
0.00032003233
0.00034129325
0.00036152276
0.00038050774
0.00039850671
0.00041414836
0.0004240537
0.00042912557
0.00043075104
0.00042996185
0.00042702157
0.00041305833
3.8996286e-06
5.1638101e-05
9.1910819e-05
0.00012667423
0.00015514993
0.00018033582
0.00020383913
0.00022637165
0.00024854875
0.00027077079
0.00029312532
0.00031545017
0.00033747138
0.00035893419
0.00037965499
0.00039963704
0.00041927096
0.00043820188
0.0004523793
0.00046130403
0.00046568714
0.00046720212
0.00046264751
3.9800852e-06
4.0962885e-05
8.5092717e-05
0.00011516626
0.00014419509
0.00016969845
0.00019354468
0.00021648625
0.00023883205
0.00026090423
0.00028292157
0.00030495913
0.00032696838
0.0003488169
0.00037035767
0.00039144411
0.00041211079
0.0004324927
0.00045329439
0.00047260421
0.0004873338
0.00049707052
0.00050354878
3.7434004e-06
3.8417864e-05
6.8325355e-05
9.9446455e-05
0.00012893556
0.00015662053
0.00018232457
0.00020637246
0.00022936225
0.00025148471
0.00027308022
0.00029443299
0.00031569387
0.00033690173
0.00035798892
0.00037885444
0.00039943216
0.00041973554
0.00043981584
0.00045973427
0.00048022271
0.00050030004
0.00051375431
3.9889446e-06
2.7290877e-05
6.0025412e-05
9.0833146e-05
0.0001220396
0.00015328582
0.00018146183
0.00020711392
0.00023066927
0.0002527368
0.00027387202
0.00029418148
0.00031410341
0.00033384593
0.00035348504
0.00037298482
0.00039231577
0.00041154567
0.00043065574
0.00044962902
0.00046864138
0.00048821844
0.00050761026
3.6718807e-06
2.5392489e-05
4.6629966e-05
7.6660806e-05
0.00011292758
0.00014766368
0.00018016472
0.00020971548
0.00023644492
0.00026074438
0.00028313677
0.00030445616
0.00032453116
0.00034388853
0.00036279198
0.0003813698
0.00039969111
0.00041785295
0.00043588658
0.00045377824
0.00047164426
0.00048998768
0.00050910984
4.0063466e-06
2.4440563e-05
4.3449685e-05
7.2396147e-05
0.00010856266
0.0001449254
0.0001798033
0.00021236315
0.0002423866
0.0002699682
0.00029533092
0.00031878672
0.0003411004
0.00036200119
0.00038186435
0.00040099123
0.00041954492
0.00043765803
0.00045544222
0.00047297761
0.0004903699
0.00050795444
0.0005257038
4.015631e-06
2.1860439e-05
3.871181e-05
6.6276593e-05
0.00010399787
0.00014260674
0.00017954002
0.00021431839
0.00024703673
0.00027741377
0.00030548819
0.00033141116
0.00035561593
0.00037869621
0.00040014842
0.0004204728
0.00043991299
0.0004586102
0.00047668757
0.00049446044
0.00051214396
0.00052977084
0.00054672173
4.419033e-06