/*--------------------------------*- C++ -*----------------------------------*\
| =========                 |                                                 |
| \\      /  F ield         | OpenFOAM: The Open Source CFD Toolbox           |
|  \\    /   O peration     | Version:  2406                                  |
|   \\  /    A nd           | Website:  www.openfoam.com                      |
|    \\/     M anipulation  |                                                 |
\*---------------------------------------------------------------------------*/
FoamFile
{
    version     2.0;
    format      ascii;
    arch        "LSB;label=32;scalar=64";
    class       volScalarField;
    location    "11";
    object      k;
}
// * * * * * * * * * * * * * * * * * * * * * * * * * * * * * * * * * * * * * //

dimensions      [0 2 -2 0 0 0 0];

internalField   nonuniform List<scalar> 
62344
(
4.2403027e-06
3.5180098e-06
3.0014604e-06
2.6173581e-06
2.3047283e-06
2.0318217e-06
1.7995459e-06
1.6046538e-06
1.4581055e-06
1.3527249e-06
1.2833531e-06
1.2390919e-06
1.2104211e-06
1.1891666e-06
1.1637698e-06
1.1328407e-06
1.0921713e-06
1.0462214e-06
1.005248e-06
9.7075538e-07
9.4055628e-07
9.2521322e-07
9.1230614e-07
9.0737414e-07
9.1305865e-07
9.1515596e-07
9.1824121e-07
9.2381683e-07
9.3684304e-07
9.5311412e-07
9.7236368e-07
1.0117854e-06
1.0454705e-06
1.0877568e-06
1.1668386e-06
1.3091754e-06
1.5859102e-06
1.8655475e-06
2.4752064e-06
3.0019447e-06
3.883105e-06
4.5663024e-06
5.7833307e-06
6.8238087e-06
8.768724e-06
1.0541957e-05
1.3920956e-05
1.6923581e-05
2.1253872e-05
2.3982695e-05
2.8295394e-05
3.165761e-05
3.7465446e-05
4.2024154e-05
5.1948533e-05
4.2443575e-06
3.5230054e-06
3.0074933e-06
2.6240452e-06
2.3134133e-06
2.0421238e-06
1.8072575e-06
1.6126257e-06
1.464821e-06
1.3611896e-06
1.2882453e-06
1.2428044e-06
1.2132822e-06
1.1913085e-06
1.1674432e-06
1.1367461e-06
1.0981373e-06
1.0568519e-06
1.0144684e-06
9.7739733e-07
9.4601956e-07
9.2770246e-07
9.1274568e-07
9.0577376e-07
9.062348e-07
9.0541439e-07
9.0791019e-07
9.1127025e-07
9.194414e-07
9.2828692e-07
9.4253872e-07
9.7444591e-07
1.0021259e-06
1.031793e-06
1.0839425e-06
1.1551072e-06
1.2910629e-06
1.4573893e-06
1.8438079e-06
2.2415937e-06
2.9864337e-06
3.5427968e-06
4.6921375e-06
5.5720115e-06
7.4059506e-06
9.0407805e-06
1.215924e-05
1.4290758e-05
1.8050587e-05
2.0718031e-05
2.5496115e-05
2.8978885e-05
3.4229507e-05
3.6613401e-05
4.2601623e-05
4.2468688e-06
3.5276561e-06
3.0134376e-06
2.6334448e-06
2.3247504e-06
2.052703e-06
1.8153446e-06
1.6200523e-06
1.4710219e-06
1.365492e-06
1.2897608e-06
1.2441239e-06
1.2157316e-06
1.1922568e-06
1.1701566e-06
1.1406671e-06
1.0999114e-06
1.0595261e-06
1.0180103e-06
9.8120607e-07
9.4985457e-07
9.2975849e-07
9.1355138e-07
9.0535096e-07
9.0384441e-07
9.0113554e-07
9.0232713e-07
9.0664206e-07
9.1525371e-07
9.2252386e-07
9.3728879e-07
9.6709694e-07
9.9446065e-07
1.025085e-06
1.0771598e-06
1.135238e-06
1.2235756e-06
1.3320504e-06
1.5781849e-06
1.81844e-06
2.2904314e-06
2.7017166e-06
3.4838303e-06
4.106768e-06
5.401802e-06
6.6346661e-06
8.9505851e-06
1.0621446e-05
1.3937074e-05
1.6611779e-05
2.1307796e-05
2.7126841e-05
3.1777078e-05
3.8145591e-05
4.674084e-05
4.2501337e-06
3.5330665e-06
3.0189814e-06
2.6415818e-06
2.3326752e-06
2.0625507e-06
1.8250623e-06
1.6277229e-06
1.4779757e-06
1.3692051e-06
1.2919212e-06
1.2452802e-06
1.2164079e-06
1.1947107e-06
1.1731589e-06
1.1477037e-06
1.1069091e-06
1.0655672e-06
1.0268736e-06
9.9008635e-07
9.5921134e-07
9.3646022e-07
9.169513e-07
9.0975394e-07
9.0921567e-07
9.0674692e-07
9.080158e-07
9.1225698e-07
9.2065636e-07
9.2636977e-07
9.4290707e-07
9.7042311e-07
9.9843141e-07
1.0284085e-06
1.0808504e-06
1.1334588e-06
1.2006994e-06
1.2840986e-06
1.4759906e-06
1.65818e-06
2.0336569e-06
2.3648385e-06
2.9960247e-06
3.5395377e-06
4.5779673e-06
5.4896541e-06
6.8177186e-06
7.8005761e-06
9.7624968e-06
1.1387498e-05
1.4390918e-05
1.9826973e-05
2.403574e-05
3.1701627e-05
4.1195347e-05
4.2528312e-06
3.5387268e-06
3.0242437e-06
2.6476123e-06
2.3405165e-06
2.0709234e-06
1.8345991e-06
1.6354921e-06
1.4856135e-06
1.3741982e-06
1.2967134e-06
1.2465426e-06
1.214841e-06
1.1959278e-06
1.1754727e-06
1.1494876e-06
1.1106429e-06
1.0728431e-06
1.0327047e-06
9.9294953e-07
9.6256745e-07
9.4115258e-07
9.1883103e-07
9.1009506e-07
9.0847198e-07
9.0545912e-07
9.0580767e-07
9.0959193e-07
9.1819018e-07
9.2387695e-07
9.4318349e-07
9.6794034e-07
9.9221556e-07
1.0211819e-06
1.0785081e-06
1.1310767e-06
1.1947575e-06
1.2667381e-06
1.4133721e-06
1.5600466e-06
1.8859112e-06
2.1837876e-06
2.779483e-06
3.3234488e-06
4.4087207e-06
5.1256758e-06
6.4230685e-06
7.3850294e-06
9.1158382e-06
1.0099597e-05
1.2324097e-05
1.4381851e-05
1.8184648e-05
2.1275336e-05
2.7906277e-05
4.2557768e-06
3.5435366e-06
3.0288008e-06
2.6513265e-06
2.3473253e-06
2.079284e-06
1.8428181e-06
1.6430169e-06
1.4921293e-06
1.3795869e-06
1.2997348e-06
1.2478683e-06
1.2171915e-06
1.1975924e-06
1.1803234e-06
1.1538629e-06
1.118014e-06
1.0794212e-06
1.0409482e-06
1.0002122e-06
9.6880141e-07
9.4774673e-07
9.2754782e-07
9.1526858e-07
9.1165877e-07
9.0886268e-07
9.0848604e-07
9.1291828e-07
9.2150166e-07
9.2812196e-07
9.4943169e-07
9.7182308e-07
9.9284432e-07
1.0205064e-06
1.0790778e-06
1.132482e-06
1.2006572e-06
1.2661162e-06
1.3800336e-06
1.4862402e-06
1.7154961e-06
1.9305739e-06
2.3889955e-06
2.844971e-06
3.7007191e-06
4.2229775e-06
5.38302e-06
6.2672585e-06
8.0189586e-06
9.057868e-06
1.1227902e-05
1.303706e-05
1.6804037e-05
1.9796939e-05
2.4787824e-05
4.2586009e-06
3.5468843e-06
3.0327671e-06
2.6563604e-06
2.3541621e-06
2.0879323e-06
1.848462e-06
1.6497187e-06
1.4956044e-06
1.3847075e-06
1.3032152e-06
1.2522306e-06
1.2200485e-06
1.1997073e-06
1.1841008e-06
1.1572897e-06
1.1207793e-06
1.0819897e-06
1.0448198e-06
1.0059487e-06
9.7280457e-07
9.4917606e-07
9.2951617e-07
9.1756295e-07
9.1120171e-07
9.074207e-07
9.0832583e-07
9.1308002e-07
9.2051574e-07
9.2674002e-07
9.4789337e-07
9.7079799e-07
9.9004541e-07
1.0185427e-06
1.0768273e-06
1.1270092e-06
1.2000734e-06
1.268664e-06
1.36867e-06
1.4582759e-06
1.643019e-06
1.8066229e-06
2.1627242e-06
2.5351656e-06
3.1928068e-06
3.6526656e-06
4.6758957e-06
5.5021229e-06
7.0174954e-06
8.0392707e-06
9.9470617e-06
1.1611511e-05
1.4138501e-05
1.6895734e-05
1.9896567e-05
4.2613255e-06
3.550019e-06
3.0371735e-06
2.6620267e-06
2.3607666e-06
2.0945963e-06
1.8550016e-06
1.6539778e-06
1.5008688e-06
1.3884282e-06
1.305349e-06
1.2555047e-06
1.22259e-06
1.2008753e-06
1.184738e-06
1.16068e-06
1.1258538e-06
1.0879644e-06
1.0519389e-06
1.0133519e-06
9.815926e-07
9.5600872e-07
9.3511153e-07
9.2528139e-07
9.1684683e-07
9.1111445e-07
9.1222791e-07
9.1666651e-07
9.2234665e-07
9.2726571e-07
9.4871933e-07
9.7151048e-07
9.8968935e-07
1.0189482e-06
1.0729294e-06
1.1162194e-06
1.1945566e-06
1.2704709e-06
1.369025e-06
1.4521948e-06
1.6134161e-06
1.7476991e-06
2.0516464e-06
2.3648656e-06
2.8555257e-06
3.2178847e-06
3.9802841e-06
4.5699097e-06
5.7067042e-06
6.6785728e-06
8.5448014e-06
1.0617912e-05
1.2554386e-05
1.487149e-05
1.7292514e-05
4.2634749e-06
3.5539897e-06
3.0423236e-06
2.6676748e-06
2.3677806e-06
2.1016848e-06
1.8616749e-06
1.6598756e-06
1.5055556e-06
1.3918938e-06
1.3075394e-06
1.2557196e-06
1.2238571e-06
1.2042727e-06
1.1860037e-06
1.1652178e-06
1.1330178e-06
1.0942249e-06
1.0580954e-06
1.017513e-06
9.8605486e-07
9.5769075e-07
9.3768472e-07
9.2695174e-07
9.1877925e-07
9.127221e-07
9.1408385e-07
9.1901233e-07
9.2311395e-07
9.2796681e-07
9.5014742e-07
9.7030745e-07
9.8635076e-07
1.0146435e-06
1.063133e-06
1.107053e-06
1.1868672e-06
1.2694459e-06
1.3685235e-06
1.4672905e-06
1.6220045e-06
1.7414776e-06
2.0242043e-06
2.3213988e-06
2.7426189e-06
3.1272606e-06
3.7945738e-06
4.2287798e-06
5.0732219e-06
5.8829859e-06
7.3942168e-06
8.7802166e-06
1.0153252e-05
1.1621521e-05
1.3544183e-05
4.2655096e-06
3.5587609e-06
3.0467084e-06
2.6728133e-06
2.3736443e-06
2.1085586e-06
1.8697163e-06
1.6655744e-06
1.5118391e-06
1.3951428e-06
1.3113227e-06
1.2571578e-06
1.2237823e-06
1.2053423e-06
1.1883637e-06
1.1686774e-06
1.1365798e-06
1.1010733e-06
1.0643393e-06
1.0233199e-06
9.8940361e-07
9.601834e-07
9.4019125e-07
9.303296e-07
9.2226887e-07
9.1435296e-07
9.1425944e-07
9.1985619e-07
9.2326778e-07
9.2914748e-07
9.5227425e-07
9.7074737e-07
9.8686389e-07
1.0128388e-06
1.0566057e-06
1.1052124e-06
1.1795335e-06
1.2837341e-06
1.3648671e-06
1.5039153e-06
1.6472852e-06
1.7794705e-06
2.0504138e-06
2.3443665e-06
2.7134335e-06
3.2043512e-06
3.8268134e-06
4.2326128e-06
5.0863311e-06
6.2133769e-06
7.513864e-06
8.4897791e-06
1.0025941e-05
1.0975078e-05
1.2546531e-05
4.2676258e-06
3.5626852e-06
3.0496713e-06
2.6768578e-06
2.3787539e-06
2.1143595e-06
1.8770593e-06
1.6711751e-06
1.5178011e-06
1.3989285e-06
1.3132221e-06
1.257962e-06
1.2241176e-06
1.2043475e-06
1.1897423e-06
1.171958e-06
1.1391146e-06
1.104505e-06
1.0680462e-06
1.0284918e-06
9.9668535e-07
9.6636614e-07
9.4146489e-07
9.323492e-07
9.2406725e-07
9.1552267e-07
9.1415643e-07
9.2158838e-07
9.2466594e-07
9.3093558e-07
9.5257371e-07
9.7013025e-07
9.8927367e-07
1.0145121e-06
1.0540888e-06
1.1052308e-06
1.1711924e-06
1.2844695e-06
1.3665356e-06
1.5160418e-06
1.6480011e-06
1.8282731e-06
2.0621307e-06
2.35346e-06
2.6755869e-06
3.1818821e-06
3.7681849e-06
4.167673e-06
4.9139516e-06
6.2677049e-06
7.3608433e-06
8.3933723e-06
9.965394e-06
1.1821996e-05
1.3814126e-05
4.2698514e-06
3.5654873e-06
3.0523122e-06
2.6801336e-06
2.3833572e-06
2.1197207e-06
1.883143e-06
1.6770673e-06
1.5214372e-06
1.4030096e-06
1.3158833e-06
1.2585669e-06
1.2245301e-06
1.2039971e-06
1.1903108e-06
1.1730809e-06
1.1414116e-06
1.106427e-06
1.0705888e-06
1.0331382e-06
1.0026814e-06
9.7122007e-07
9.439768e-07
9.3410433e-07
9.266272e-07
9.1802512e-07
9.1720408e-07
9.2383245e-07
9.253927e-07
9.3210106e-07
9.5351858e-07
9.7186405e-07
9.9261472e-07
1.0185135e-06
1.056452e-06
1.1042146e-06
1.1622719e-06
1.2737029e-06
1.3537264e-06
1.4990513e-06
1.6248417e-06
1.8271192e-06
2.0118413e-06
2.3193014e-06
2.5497011e-06
3.0388304e-06
3.5533405e-06
3.9802614e-06
4.5813155e-06
5.9117867e-06
6.9145556e-06
7.7772334e-06
8.7461667e-06
1.0967588e-05
1.337075e-05
4.271755e-06
3.568068e-06
3.054828e-06
2.6835326e-06
2.3874835e-06
2.1257731e-06
1.8887589e-06
1.6818077e-06
1.5248415e-06
1.4071429e-06
1.319675e-06
1.2606221e-06
1.2264491e-06
1.2063131e-06
1.1926571e-06
1.1761663e-06
1.1456952e-06
1.114276e-06
1.0766478e-06
1.0381201e-06
1.0059721e-06
9.7410571e-07
9.4689354e-07
9.3478984e-07
9.2790665e-07
9.1989443e-07
9.1933302e-07
9.2373732e-07
9.2475415e-07
9.3295172e-07
9.5330343e-07
9.7148221e-07
9.9307375e-07
1.0203086e-06
1.0588344e-06
1.0991754e-06
1.156299e-06
1.2487189e-06
1.3229347e-06
1.4529776e-06
1.5791725e-06
1.763685e-06
1.9472946e-06
2.2235466e-06
2.4383639e-06
2.8535392e-06
3.2679958e-06
3.769359e-06
4.3992649e-06
5.4585228e-06
6.491725e-06
7.1077513e-06
7.9039446e-06
9.8492045e-06
1.2330142e-05
4.2735833e-06
3.5707181e-06
3.0574459e-06
2.6866094e-06
2.3915608e-06
2.131781e-06
1.8935786e-06
1.6875519e-06
1.5295596e-06
1.4105057e-06
1.3219475e-06
1.2612526e-06
1.2285388e-06
1.2089206e-06
1.1963971e-06
1.1802506e-06
1.1504161e-06
1.1226758e-06
1.0839304e-06
1.0433388e-06
1.0116747e-06
9.804614e-07
9.5325904e-07
9.3943143e-07
9.3084952e-07
9.2407382e-07
9.2395776e-07
9.2653315e-07
9.2818401e-07
9.3577694e-07
9.5296644e-07
9.6951876e-07
9.9021296e-07
1.0193144e-06
1.0581479e-06
1.0871779e-06
1.1494543e-06
1.2173982e-06
1.3096689e-06
1.397436e-06
1.5412693e-06
1.6839809e-06
1.9093847e-06
2.0844057e-06
2.3519326e-06
2.6287856e-06
2.9472124e-06
3.3547249e-06
4.0702789e-06
4.7268386e-06
5.5282335e-06
6.0779664e-06
6.7998358e-06
8.368389e-06
1.0285385e-05
4.2753297e-06
3.5733423e-06
3.0610887e-06
2.690133e-06
2.3960814e-06
2.1367151e-06
1.8986134e-06
1.6932619e-06
1.534116e-06
1.4135992e-06
1.3237355e-06
1.2625164e-06
1.2289068e-06
1.2093724e-06
1.1987252e-06
1.1806697e-06
1.1542587e-06
1.1251944e-06
1.0884977e-06
1.0504325e-06
1.0186364e-06
9.8678989e-07
9.6057728e-07
9.4521511e-07
9.3363779e-07
9.2571692e-07
9.2506017e-07
9.280502e-07
9.3057345e-07
9.3744809e-07
9.5330464e-07
9.6847292e-07
9.8781256e-07
1.0178045e-06
1.0515265e-06
1.0832641e-06
1.1362115e-06
1.2066757e-06
1.2918335e-06
1.3734912e-06
1.5179041e-06
1.6520732e-06
1.8698096e-06
2.0521426e-06
2.2336145e-06
2.5176018e-06
2.764952e-06
3.1535815e-06
3.696546e-06
4.2784737e-06
4.9126111e-06
5.3324556e-06
5.9308748e-06
7.0932223e-06
7.9660795e-06
4.2769885e-06
3.5758187e-06
3.064503e-06
2.6941906e-06
2.4000793e-06
2.1410785e-06
1.9046961e-06
1.6967457e-06
1.5377515e-06
1.4176668e-06
1.3267777e-06
1.2658373e-06
1.2301259e-06
1.2098721e-06
1.1990322e-06
1.1805077e-06
1.1589887e-06
1.1263188e-06
1.0929143e-06
1.0574498e-06
1.0227914e-06
9.8907656e-07
9.6319733e-07
9.4674109e-07
9.3486832e-07
9.2513238e-07
9.2274321e-07
9.2643227e-07
9.291419e-07
9.3613216e-07
9.5280244e-07
9.6678864e-07
9.8437051e-07
1.0161256e-06
1.0450692e-06
1.0833449e-06
1.1308364e-06
1.2105515e-06
1.2867187e-06
1.3837742e-06
1.5098908e-06
1.6710982e-06
1.8509852e-06
2.0893953e-06
2.229612e-06
2.5035857e-06
2.7239081e-06
3.1027091e-06
3.5185869e-06
4.1077605e-06
4.7613578e-06
5.1618743e-06
5.6990575e-06
6.7113309e-06
7.2539298e-06
4.2785969e-06
3.5785552e-06
3.0674343e-06
2.6983536e-06
2.4039273e-06
2.1456931e-06
1.9103426e-06
1.6999714e-06
1.5414396e-06
1.4214671e-06
1.3295131e-06
1.2673121e-06
1.2311972e-06
1.2110711e-06
1.1990418e-06
1.1828634e-06
1.162637e-06
1.1293517e-06
1.0959724e-06
1.0606456e-06
1.0244147e-06
9.9022018e-07
9.6359435e-07
9.4579824e-07
9.3427295e-07
9.2410509e-07
9.2048879e-07
9.2407136e-07
9.2632365e-07
9.3432032e-07
9.5195612e-07
9.6407746e-07
9.7935081e-07
1.0113229e-06
1.040243e-06
1.084514e-06
1.1324604e-06
1.2187045e-06
1.2932865e-06
1.4220027e-06
1.5176967e-06
1.7159582e-06
1.8891943e-06
2.16493e-06
2.3340277e-06
2.6185551e-06
2.8351877e-06
3.2761936e-06
3.6961817e-06
4.2546066e-06
5.0386792e-06
5.6261221e-06
6.236973e-06
7.1844873e-06
7.6731918e-06
4.2799882e-06
3.5808368e-06
3.0696246e-06
2.700679e-06
2.4078943e-06
2.150126e-06
1.9145414e-06
1.7057339e-06
1.5459492e-06
1.4237858e-06
1.331001e-06
1.2663998e-06
1.2303477e-06
1.2112454e-06
1.1994571e-06
1.1842257e-06
1.1640543e-06
1.1322009e-06
1.0971292e-06
1.0610889e-06
1.0255503e-06
9.9149411e-07
9.6324595e-07
9.438356e-07
9.3156955e-07
9.2121943e-07
9.1769374e-07
9.2036281e-07
9.2192728e-07
9.3116106e-07
9.4678976e-07
9.5650091e-07
9.720705e-07
1.0026352e-06
1.0324936e-06
1.0811565e-06
1.1297198e-06
1.2179357e-06
1.2945685e-06
1.4328725e-06
1.5295174e-06
1.7322544e-06
1.9088328e-06
2.1857044e-06
2.3819814e-06
2.6850641e-06
2.9077942e-06
3.3664802e-06
3.8154524e-06
4.2848293e-06
5.1244252e-06
5.7966699e-06
6.5802277e-06
7.4746986e-06
8.0322505e-06
4.2813971e-06
3.5834576e-06
3.0721744e-06
2.7029229e-06
2.4124301e-06
2.15507e-06
1.9193984e-06
1.7109176e-06
1.5505323e-06
1.4255939e-06
1.331891e-06
1.2650745e-06
1.2290223e-06
1.2093829e-06
1.1990721e-06
1.1823466e-06
1.1639737e-06
1.1330697e-06
1.096306e-06
1.0615753e-06
1.026971e-06
9.9228416e-07
9.633505e-07
9.4271316e-07
9.2922677e-07
9.183839e-07
9.1396979e-07
9.1456873e-07
9.1569088e-07
9.2560325e-07
9.3915754e-07
9.473689e-07
9.6248595e-07
9.9006114e-07
1.017709e-06
1.0610953e-06
1.10115e-06
1.1785227e-06
1.2383804e-06
1.3596637e-06
1.4518535e-06
1.6407848e-06
1.818336e-06
2.0477743e-06
2.3000824e-06
2.5645889e-06
2.8090194e-06
3.2546775e-06
3.719407e-06
4.0674068e-06
4.8200359e-06
5.4271791e-06
6.3311551e-06
7.1192098e-06
7.6981877e-06
4.2822518e-06
3.5855306e-06
3.0739568e-06
2.7054333e-06
2.415222e-06
2.1586325e-06
1.9235863e-06
1.7123711e-06
1.5532135e-06
1.4273518e-06
1.3330215e-06
1.2639348e-06
1.228817e-06
1.205554e-06
1.1956933e-06
1.1763528e-06
1.1603145e-06
1.1281934e-06
1.0910293e-06
1.0584475e-06
1.0236706e-06
9.8747278e-07
9.5786147e-07
9.3602681e-07
9.2146621e-07
9.0921298e-07
9.0324835e-07
9.0198283e-07
9.0221681e-07
9.0984578e-07
9.1964125e-07
9.2688448e-07
9.3857225e-07
9.5796163e-07
9.7939289e-07
1.0071407e-06
1.0341172e-06
1.0795628e-06
1.1153828e-06
1.1865561e-06
1.2558357e-06
1.3743506e-06
1.5250316e-06
1.6512038e-06
1.9168835e-06
2.1137452e-06
2.4188046e-06
2.7196596e-06
3.2251485e-06
3.4829874e-06
4.0551772e-06
4.4904374e-06
5.3274441e-06
5.9966794e-06
6.6445377e-06
4.2834549e-06
3.588232e-06
3.0759493e-06
2.7073224e-06
2.4152208e-06
2.1581216e-06
1.9227124e-06
1.7076901e-06
1.5494934e-06
1.4250928e-06
1.3292465e-06
1.2576387e-06
1.2221039e-06
1.1939136e-06
1.1823627e-06
1.1621161e-06
1.1456526e-06
1.1139431e-06
1.0793754e-06
1.0506144e-06
1.0191126e-06
9.844739e-07
9.5642682e-07
9.3515508e-07
9.2033245e-07
9.0769745e-07
9.0277304e-07
9.0151783e-07
9.0170266e-07
9.075135e-07
9.1638812e-07
9.2415431e-07
9.3334832e-07
9.4808145e-07
9.6670404e-07
9.8717177e-07
1.0125128e-06
1.038538e-06
1.0693656e-06
1.1107265e-06
1.1695862e-06
1.2268695e-06
1.32932e-06
1.40073e-06
1.5334728e-06
1.6430259e-06
1.834238e-06
1.9741779e-06
2.2445365e-06
2.4146526e-06
2.7108599e-06
2.9307358e-06
3.4320452e-06
3.8350188e-06
4.5350289e-06
4.2838259e-06
3.5892815e-06
3.0742178e-06
2.7014852e-06
2.4053686e-06
2.147934e-06
1.9140406e-06
1.7005479e-06
1.5438179e-06
1.4223554e-06
1.3248896e-06
1.2501197e-06
1.2100965e-06
1.1769897e-06
1.1615807e-06
1.1414108e-06
1.1247734e-06
1.0977966e-06
1.0695895e-06
1.0471644e-06
1.0234948e-06
9.9962845e-07
9.7998986e-07
9.6333617e-07
9.5055655e-07
9.4095138e-07
9.3838141e-07
9.3889885e-07
9.4125239e-07
9.482597e-07
9.5822133e-07
9.6715995e-07
9.7445166e-07
9.8689965e-07
1.0043752e-06
1.0206719e-06
1.044899e-06
1.0627728e-06
1.0900066e-06
1.116293e-06
1.1698524e-06
1.2126196e-06
1.2870218e-06
1.3368531e-06
1.424304e-06
1.4967411e-06
1.6306844e-06
1.7237512e-06
1.8831784e-06
2.0160665e-06
2.1763478e-06
2.3014911e-06
2.5367764e-06
2.7689902e-06
3.1354545e-06
4.2848983e-06
3.5867886e-06
3.0609217e-06
2.6799817e-06
2.3850023e-06
2.1407388e-06
1.9266543e-06
1.7345635e-06
1.5932913e-06
1.4809366e-06
1.383457e-06
1.3059803e-06
1.2581269e-06
1.2197725e-06
1.199303e-06
1.1807098e-06
1.1690977e-06
1.1536567e-06
1.1389371e-06
1.1373511e-06
1.1405971e-06
1.1452377e-06
1.1574041e-06
1.164295e-06
1.1686242e-06
1.1713623e-06
1.1769695e-06
1.1893515e-06
1.2078465e-06
1.2295321e-06
1.2530053e-06
1.2690852e-06
1.2817633e-06
1.3020014e-06
1.3195261e-06
1.3340073e-06
1.3540124e-06
1.3659836e-06
1.3889075e-06
1.4128573e-06
1.4527597e-06
1.4857854e-06
1.5502041e-06
1.5890409e-06
1.6557131e-06
1.7107913e-06
1.7989045e-06
1.8660181e-06
1.9778436e-06
2.0779096e-06
2.1596376e-06
2.2494521e-06
2.3589664e-06
2.533987e-06
2.6935958e-06
4.2825889e-06
3.5680506e-06
3.0371142e-06
2.6806134e-06
2.4367686e-06
2.2691682e-06
2.159591e-06
2.062138e-06
1.9939969e-06
1.9182117e-06
1.8284249e-06
1.7510131e-06
1.7067281e-06
1.6724952e-06
1.6487221e-06
1.6432913e-06
1.654107e-06
1.6574478e-06
1.6758659e-06
1.7209869e-06
1.7898166e-06
1.8745572e-06
1.9627992e-06
2.0363236e-06
2.1011742e-06
2.1463097e-06
2.1823629e-06
2.2489431e-06
2.318197e-06
2.3916569e-06
2.4621504e-06
2.5159688e-06
2.5641832e-06
2.6215476e-06
2.6662866e-06
2.6871244e-06
2.6968241e-06
2.6995776e-06
2.7129008e-06
2.740189e-06
2.7428502e-06
2.7513477e-06
2.7940782e-06
2.8201571e-06
2.8607345e-06
2.9053583e-06
2.9282881e-06
2.9665831e-06
3.0377032e-06
3.1192022e-06
3.1658151e-06
3.2474471e-06
3.3162118e-06
3.4554062e-06
3.459049e-06
4.2640693e-06
3.5312831e-06
3.125288e-06
2.9894089e-06
3.0056986e-06
3.0903496e-06
3.3016398e-06
3.5001257e-06
3.6059026e-06
3.6282083e-06
3.591881e-06
3.490019e-06
3.4527761e-06
3.4554715e-06
3.4790296e-06
3.5149168e-06
3.5666862e-06
3.6300182e-06
3.7176852e-06
3.8547764e-06
4.0403287e-06
4.2500688e-06
4.4628565e-06
4.6904903e-06
4.8937824e-06
5.0494327e-06
5.187269e-06
5.3771837e-06
5.5795223e-06
5.770516e-06
5.9710425e-06
6.1523641e-06
6.3234028e-06
6.4803927e-06
6.6702735e-06
6.7741015e-06
6.8466108e-06
6.8809989e-06
6.9001813e-06
6.9362322e-06
6.9392764e-06
6.9350692e-06
6.9726363e-06
6.9991962e-06
7.016988e-06
7.0334473e-06
7.0422118e-06
7.0651048e-06
7.0709481e-06
7.1251676e-06
7.2188929e-06
7.3346727e-06
7.4231071e-06
7.5734308e-06
7.4780431e-06
4.0996285e-06
3.822574e-06
3.9009201e-06
4.1477302e-06
4.3617757e-06
4.6589393e-06
4.9442797e-06
5.1429662e-06
5.2008917e-06
5.2625459e-06
5.2296963e-06
5.2372354e-06
5.3029876e-06
5.441927e-06
5.6431624e-06
5.8875461e-06
6.1943065e-06
6.4590458e-06
6.7757908e-06
7.1419903e-06
7.5005231e-06
7.8722202e-06
8.2641617e-06
8.7475562e-06
9.2826198e-06
9.7529476e-06
1.0315041e-05
1.0833894e-05
1.1324988e-05
1.1929194e-05
1.2538571e-05
1.3042874e-05
1.3622887e-05
1.421137e-05
1.4834927e-05
1.5493067e-05
1.6329135e-05
1.701655e-05
1.7642975e-05
1.8384881e-05
1.8961694e-05
1.9353879e-05
2.0026419e-05
2.0799733e-05
2.1329005e-05
2.1616912e-05
2.2008671e-05
2.2475365e-05
2.2522314e-05
2.2668602e-05
2.335322e-05
2.3913767e-05
2.3926533e-05
2.4088043e-05
2.4061617e-05
9.5008235e-06
1.3749054e-05
1.1039872e-05
6.6675438e-06
4.3525006e-06
3.4030053e-06
3.4388235e-06
3.6272753e-06
4.0846168e-06
4.9552654e-06
6.1930018e-06
7.4067648e-06
8.3097472e-06
9.3114515e-06
1.094089e-05
1.3342196e-05
1.5894141e-05
1.8517668e-05
2.1201534e-05
2.361627e-05
2.6442888e-05
2.9121078e-05
3.1228432e-05
3.3148383e-05
3.5215861e-05
3.7415354e-05
3.9783581e-05
4.2142711e-05
4.4489047e-05
4.6511372e-05
4.9072541e-05
5.2452071e-05
5.6307874e-05
6.0229357e-05
6.4518841e-05
6.9181144e-05
7.4258109e-05
7.905473e-05
8.1957339e-05
8.246215e-05
8.2782224e-05
8.3823383e-05
8.5602431e-05
8.7687371e-05
8.8751988e-05
8.8781434e-05
8.8096632e-05
8.8655234e-05
9.0678366e-05
9.2486969e-05
9.2982762e-05
9.2004206e-05
9.0078919e-05
8.7527239e-05
8.5567191e-05
8.6745126e-05
2.6516824e-05
7.9976356e-06
3.6597237e-06
2.8559149e-06
3.3156018e-06
4.825707e-06
7.5019509e-06
9.0123967e-06
9.5085565e-06
9.0421183e-06
8.1807526e-06
8.8906263e-06
1.1457724e-05
1.4152717e-05
1.5525855e-05
1.6378112e-05
1.5766109e-05
1.7142316e-05
2.2275915e-05
2.4490089e-05
2.7512613e-05
3.077443e-05
5.2718141e-05
5.6385626e-05
5.0095885e-05
7.0292032e-05
9.2047537e-05
2.8930073e-05
8.7155979e-06
3.9936815e-06
3.1421766e-06
3.7099394e-06
5.4788347e-06
8.8937127e-06
1.07895e-05
1.1410442e-05
1.0922821e-05
9.7205941e-06
1.042501e-05
1.2963193e-05
1.57092e-05
1.7422152e-05
1.8433943e-05
1.7594017e-05
1.8833141e-05
2.454234e-05
2.8343132e-05
3.4564126e-05
3.481639e-05
5.5457351e-05
6.7270608e-05
6.0546375e-05
8.2109895e-05
0.00010153392
3.0032007e-05
9.1679635e-06
4.3305918e-06
3.4713718e-06
4.1245463e-06
6.012066e-06
1.0072872e-05
1.2814534e-05
1.4030591e-05
1.3823369e-05
1.2635721e-05
1.3454738e-05
1.5943319e-05
1.9648963e-05
2.2760015e-05
2.353785e-05
2.1117412e-05
2.1297128e-05
2.8358625e-05
3.6060427e-05
4.2348985e-05
3.9551291e-05
6.0661677e-05
8.0352172e-05
6.9492166e-05
9.7108519e-05
0.00010971449
3.0204115e-05
9.830382e-06
4.737233e-06
3.7216025e-06
4.3111039e-06
6.2462149e-06
1.1092305e-05
1.5608212e-05
1.7875727e-05
1.767484e-05
1.5536518e-05
1.6343408e-05
1.9760152e-05
2.6316856e-05
3.0937076e-05
3.2276371e-05
2.949554e-05
2.746414e-05
3.5453919e-05
4.5043566e-05
5.288203e-05
4.567528e-05
7.2169548e-05
0.00010382524
8.6142965e-05
0.00011973827
0.00011171068
3.1998752e-05
1.0914139e-05
5.2954592e-06
4.1271264e-06
4.8117076e-06
7.1727644e-06
1.3884469e-05
2.0454929e-05
2.3460273e-05
2.2660026e-05
1.8412458e-05
1.8588791e-05
2.2118868e-05
2.9567618e-05
3.6479689e-05
4.1307603e-05
4.0857814e-05
3.7728813e-05
4.6387859e-05
5.8927684e-05
7.0293181e-05
5.7405542e-05
8.2607162e-05
0.00012802089
0.00011683545
0.00014653149
0.00010857093
3.3797593e-05
1.1534578e-05
5.7691607e-06
4.7784708e-06
5.7704353e-06
8.7224729e-06
1.6731799e-05
2.4628885e-05
2.7983128e-05
2.7290434e-05
2.313876e-05
2.2547127e-05
2.5792722e-05
3.3839608e-05
4.5483814e-05
5.4454744e-05
5.4031997e-05
4.7215597e-05
5.8076211e-05
7.8759084e-05
8.8737226e-05
7.3570854e-05
9.7236335e-05
0.00015776228
0.00015097124
0.00016985066
0.00010454562
3.5954724e-05
1.2291709e-05
6.3035958e-06
5.4366756e-06
6.7268771e-06
1.0182754e-05
1.8976117e-05
2.8936311e-05
3.2919366e-05
3.2754534e-05
2.8565381e-05
2.7826379e-05
3.2718213e-05
4.5595649e-05
6.3062401e-05
7.0765357e-05
6.8142853e-05
5.5990054e-05
6.4946382e-05
9.7564579e-05
0.00011539065
0.00010135511
0.00011990905
0.00019491122
0.00019358052
0.00019626913
0.00010368882
3.7843458e-05
1.3163883e-05
7.0988755e-06
6.3809836e-06
8.0742682e-06
1.2769999e-05
2.4598102e-05
3.7837819e-05
4.2141509e-05
4.0401501e-05
3.3488631e-05
3.2186117e-05
3.9352234e-05
5.6334455e-05
8.0130341e-05
9.1385894e-05
9.0026348e-05
7.2914738e-05
7.73983e-05
0.00011190634
0.00014679268
0.00013423393
0.00013960002
0.0002315557
0.00024996902
0.00022993788
0.00011272978
3.8672883e-05
1.3468951e-05
8.0282907e-06
7.7736131e-06
1.0456769e-05
1.7446908e-05
3.4201877e-05
4.9515653e-05
5.4103781e-05
5.1587248e-05
4.289009e-05
4.0262972e-05
4.8875581e-05
6.6718316e-05
9.7330739e-05
0.00011081402
0.00010882594
9.1739941e-05
9.7971783e-05
0.00014257095
0.00020125131
0.00018163713
0.00016245208
0.0002820581
0.00035504859
0.00029868842
0.0001309322
3.9539565e-05
1.3720924e-05
8.755208e-06
8.8521202e-06
1.189502e-05
1.9651484e-05
3.8147276e-05
6.0787628e-05
6.9124522e-05
6.8788985e-05
6.0241413e-05
5.6107543e-05
6.6132347e-05
8.9741818e-05
0.00014063072
0.00016232826
0.0001522073
0.00011548428
0.0001211736
0.00019505721
0.00026106095
0.00023186525
0.00018418586
0.00031130492
0.0004911577
0.00043344545
0.00014708766
3.9828677e-05
1.4612839e-05
9.650639e-06
9.7999876e-06
1.2699495e-05
2.1100081e-05
4.2391586e-05
7.6758495e-05
9.131063e-05
9.2646879e-05
8.0125656e-05
7.2848102e-05
9.1308781e-05
0.00014193473
0.00023133157
0.00026149439
0.00024380377
0.00017104884
0.00015917168
0.00024121104
0.00030671279
0.00028366742
0.00022518131
0.00034406107
0.00058773341
0.00056676578
0.00015403083
4.4192819e-05
1.667462e-05
1.1060424e-05
1.1438968e-05
1.5111151e-05
2.6229777e-05
5.5687056e-05
9.8048064e-05
0.00011617764
0.00011514557
9.6820928e-05
8.6147096e-05
0.00010638364
0.00017328394
0.00028065494
0.00032878842
0.0003271733
0.00025076831
0.0002175311
0.00029713082
0.00037251937
0.00034084308
0.00025669663
0.00038703989
0.00071717885
0.00066376014
0.00016619275
4.8952963e-05
1.7914495e-05
1.203814e-05
1.3119644e-05
1.8759806e-05
3.3908614e-05
7.2205948e-05
0.00011542701
0.00013214755
0.00013098166
0.00011615188
0.00010774524
0.00012408496
0.00018418235
0.00032147798
0.00040382132
0.00041901626
0.00034983823
0.00029771776
0.0003990623
0.00051831659
0.00046765565
0.00031245516
0.00047943257
0.00089723425
0.0008112503
0.00018072187
4.9992478e-05
1.9072247e-05
1.3671665e-05
1.5187721e-05
2.1877516e-05
3.9425025e-05
8.1420549e-05
0.00012941517
0.00014831669
0.00015097217
0.00013916869
0.0001301944
0.00014820672
0.00022187755
0.0004333313
0.00058101635
0.0005917136
0.00047172786
0.00036881669
0.00050872728
0.0007558817
0.00073333473
0.00047872707
0.00064327225
0.0010702156
0.0010460072
0.00018531154
5.246374e-05
2.1477016e-05
1.5849121e-05
1.7537234e-05
2.6170477e-05
5.0327132e-05
0.00010708999
0.00016139292
0.00018115476
0.00018198986
0.00016357328
0.0001519031
0.00018272526
0.00030858185
0.00061511659
0.00078960601
0.0007891169
0.00061532456
0.00044342251
0.00053579481
0.00085501718
0.00096100791
0.00077961315
0.00085892772
0.001253806
0.0012675342
0.00020776003
5.7695042e-05
2.3469577e-05
1.8261721e-05
2.1901138e-05
3.6297819e-05
7.2011894e-05
0.00014532908
0.00019437763
0.0002112695
0.00020776514
0.00018690706
0.00018049457
0.00022121577
0.00036699691
0.00067358693
0.00084030956
0.00087332372
0.00077604254
0.0005893264
0.00061935243
0.00086472378
0.0010890307
0.00099463542
0.0010203464
0.001495228
0.0015238392
0.00024620201
5.7393966e-05
2.3883211e-05
2.0151066e-05
2.5121104e-05
4.1371412e-05
7.8927187e-05
0.00014954379
0.00020291938
0.0002255759
0.00023271753
0.00023051102
0.00023172561
0.00026586371
0.00038517187
0.00065019687
0.00084288362
0.00091581436
0.00087682178
0.00074476337
0.0007513631
0.00096013728
0.001243191
0.0011672867
0.001138914
0.0017037432
0.0018740797
0.00024695305
5.8379467e-05
2.692629e-05
2.2986538e-05
2.6266342e-05
3.8504539e-05
6.9308021e-05
0.00013578084
0.00020424449
0.00024377707
0.00026629477
0.00027916348
0.00029091145
0.00032302233
0.00042834472
0.00068671681
0.00092756964
0.0010335263
0.0010065573
0.00091319745
0.00096050094
0.0012561257
0.0015717788
0.0014623814
0.0013613768
0.00189549
0.0022334059
0.0002328881
6.9413366e-05
3.2300484e-05
2.6387111e-05
2.8820268e-05
3.9831255e-05
7.0560802e-05
0.00014435078
0.00022329405
0.00027101538
0.00029617076
0.00030661489
0.00032059296
0.00037855151
0.0005489282
0.0008776235
0.0011333805
0.0012193533
0.0011743221
0.0010903029
0.0012131983
0.0016850761
0.0019187487
0.0017274451
0.0016451603
0.0021886973
0.0026592912
0.00024590302
8.205584e-05
3.5453601e-05
2.8578599e-05
3.2204974e-05
4.8188604e-05
9.2338935e-05
0.00017847785
0.00025442933
0.00029627155
0.00031481363
0.00032457684
0.00035291543
0.00045018817
0.00068096431
0.001017663
0.0012441007
0.0013171498
0.0012940611
0.001282358
0.0014693542
0.0019484016
0.0020827325
0.0019287756
0.0018728507
0.0023784261
0.0029710809
0.0002786753
8.512691e-05
3.6527367e-05
3.1617928e-05
3.8034342e-05
6.1000204e-05
0.00011709386
0.00020037392
0.00027170595
0.00031570774
0.00034055622
0.00036670374
0.00042226872
0.00054353993
0.00076047582
0.0010421741
0.0012652707
0.0013856409
0.0014365123
0.0014908715
0.0016574184
0.0020298571
0.0022351647
0.0022317295
0.0021537278
0.0024836218
0.0031140646
0.00029472438
8.2133659e-05
3.9754244e-05
3.7562667e-05
4.6274984e-05
7.1600123e-05
0.0001297525
0.00021106078
0.0002833152
0.00033852307
0.00038562525
0.00044674862
0.00053712129
0.00066651666
0.00084474602
0.0010768433
0.0013085717
0.0015018334
0.0016413164
0.0017150315
0.0018086415
0.0020642552
0.0023954303
0.0025923667
0.0025640506
0.0027108829
0.0032258905
0.00029453168
8.43964e-05
4.3688288e-05
4.3299486e-05
5.4543326e-05
8.1619269e-05
0.00014046017
0.00022061847
0.00029416134
0.00035981214
0.0004336414
0.00053605182
0.00066398287
0.00081585263
0.00099145345
0.0011913833
0.0014222968
0.0016609048
0.0018374945
0.0019136067
0.001992113