/*--------------------------------*- C++ -*----------------------------------*\
| =========                 |                                                 |
| \\      /  F ield         | OpenFOAM: The Open Source CFD Toolbox           |
|  \\    /   O peration     | Version:  2406                                  |
|   \\  /    A nd           | Website:  www.openfoam.com                      |
|    \\/     M anipulation  |                                                 |
\*---------------------------------------------------------------------------*/
FoamFile
{
    version     2.0;
    format      ascii;
    arch        "LSB;label=32;scalar=64";
    class       volScalarField;
    location    "11";
    object      k_0;
}
// * * * * * * * * * * * * * * * * * * * * * * * * * * * * * * * * * * * * * //

dimensions      [0 2 -2 0 0 0 0];

internalField   nonuniform List<scalar> 
62344
(
4.2403014e-06
3.5180562e-06
3.0019469e-06
2.6174423e-06
2.3039601e-06
2.0311101e-06
1.7991989e-06
1.6043536e-06
1.4576269e-06
1.3526022e-06
1.283743e-06
1.2396101e-06
1.2105883e-06
1.1892048e-06
1.1637707e-06
1.1323209e-06
1.0923846e-06
1.0466337e-06
1.0047077e-06
9.7090423e-07
9.409032e-07
9.2530648e-07
9.1288208e-07
9.0700123e-07
9.1250155e-07
9.1558447e-07
9.1858964e-07
9.2443083e-07
9.3651766e-07
9.5410113e-07
9.7150089e-07
1.0104336e-06
1.0473804e-06
1.0893274e-06
1.1665401e-06
1.3104309e-06
1.5907677e-06
1.8709604e-06
2.4685278e-06
2.9799799e-06
3.8907084e-06
4.5855774e-06
5.8190383e-06
6.8449435e-06
8.7510442e-06
1.0389646e-05
1.3674493e-05
1.671752e-05
2.1254758e-05
2.403359e-05
2.8350857e-05
3.1587765e-05
3.7115709e-05
4.1581685e-05
5.1789116e-05
4.2441096e-06
3.5232169e-06
3.0080209e-06
2.6240366e-06
2.3126234e-06
2.0409572e-06
1.8065896e-06
1.6126054e-06
1.464706e-06
1.361405e-06
1.2885177e-06
1.2430756e-06
1.2137413e-06
1.1910582e-06
1.167488e-06
1.1367307e-06
1.0977692e-06
1.0571902e-06
1.0146907e-06
9.7744391e-07
9.4588242e-07
9.2773163e-07
9.131905e-07
9.0597866e-07
9.0591513e-07
9.0555851e-07
9.0755804e-07
9.1144235e-07
9.1901537e-07
9.2933213e-07
9.418696e-07
9.7371258e-07
1.0035459e-06
1.0330847e-06
1.0835096e-06
1.1558741e-06
1.2938604e-06
1.4604261e-06
1.8390322e-06
2.2451431e-06
2.9921301e-06
3.5591602e-06
4.7040504e-06
5.5447224e-06
7.3315162e-06
8.9303966e-06
1.211126e-05
1.4293262e-05
1.8066349e-05
2.0770334e-05
2.5630575e-05
2.920749e-05
3.4300996e-05
3.6356714e-05
4.1992118e-05
4.2465945e-06
3.5277977e-06
3.0134949e-06
2.6333258e-06
2.3242824e-06
2.0516944e-06
1.8148618e-06
1.6202145e-06
1.4709234e-06
1.3655739e-06
1.2900311e-06
1.2444566e-06
1.2157523e-06
1.1920449e-06
1.169575e-06
1.1408961e-06
1.1001913e-06
1.0595655e-06
1.017817e-06
9.8135414e-07
9.4954253e-07
9.298567e-07
9.1330882e-07
9.0533932e-07
9.0405705e-07
9.0169579e-07
9.0233061e-07
9.0649046e-07
9.1483134e-07
9.2321615e-07
9.3629799e-07
9.6661607e-07
9.9566112e-07
1.0259042e-06
1.0767203e-06
1.1364698e-06
1.225693e-06
1.3327636e-06
1.5756655e-06
1.8192398e-06
2.2950098e-06
2.7104068e-06
3.4928706e-06
4.0825575e-06
5.347443e-06
6.5920708e-06
8.9860029e-06
1.0651995e-05
1.3964273e-05
1.6633399e-05
2.1393255e-05
2.7226199e-05
3.1697991e-05
3.7818027e-05
4.6389588e-05
4.2499259e-06
3.5331979e-06
3.018622e-06
2.6413378e-06
2.3324491e-06
2.0620948e-06
1.8248466e-06
1.6276983e-06
1.4774976e-06
1.3688642e-06
1.2922096e-06
1.2456225e-06
1.2159434e-06
1.1946839e-06
1.1725492e-06
1.1476179e-06
1.1074033e-06
1.0657247e-06
1.0266988e-06
9.9000357e-07
9.5879916e-07
9.3707276e-07
9.1716755e-07
9.0902455e-07
9.0933354e-07
9.0725135e-07
9.0832469e-07
9.1209905e-07
9.207273e-07
9.2694331e-07
9.4170899e-07
9.704311e-07
9.9991677e-07
1.0289165e-06
1.0803064e-06
1.1350532e-06
1.2034193e-06
1.2846447e-06
1.4754256e-06
1.6578791e-06
2.0359097e-06
2.3703465e-06
3.000849e-06
3.5172212e-06
4.5352221e-06
5.4754802e-06
6.8247793e-06
7.8125645e-06
9.7894459e-06
1.1435968e-05
1.44427e-05
1.973203e-05
2.3778075e-05
3.1368537e-05
4.1237543e-05
4.2526429e-06
3.538788e-06
3.0241653e-06
2.6476107e-06
2.3402386e-06
2.0706065e-06
1.8344951e-06
1.6352604e-06
1.4851848e-06
1.3737786e-06
1.2969311e-06
1.246771e-06
1.2146826e-06
1.19576e-06
1.1753802e-06
1.1494153e-06
1.1106827e-06
1.0726292e-06
1.0330597e-06
9.9307027e-07
9.6208519e-07
9.4158095e-07
9.196566e-07
9.0928791e-07
9.0812343e-07
9.0565406e-07
9.0602201e-07
9.0919948e-07
9.1852282e-07
9.2433277e-07
9.4167574e-07
9.6814833e-07
9.9378271e-07
1.0214909e-06
1.077955e-06
1.1328396e-06
1.1972939e-06
1.2670003e-06
1.4143093e-06
1.5602418e-06
1.8869315e-06
2.1873624e-06
2.7724503e-06
3.3024921e-06
4.3898387e-06
5.129833e-06
6.4102181e-06
7.3777325e-06
9.1538991e-06
1.0141681e-05
1.2311017e-05
1.4252401e-05
1.797437e-05
2.112816e-05
2.7963354e-05
4.2556025e-06
3.5436136e-06
3.0292854e-06
2.6516026e-06
2.3467373e-06
2.0785662e-06
1.8426697e-06
1.6427227e-06
1.4920497e-06
1.3795681e-06
1.2999776e-06
1.2481339e-06
1.2175483e-06
1.1972988e-06
1.1803666e-06
1.1541419e-06
1.1178026e-06
1.078995e-06
1.041123e-06
1.0004985e-06
9.6861841e-07
9.4774197e-07
9.2811433e-07
9.1479052e-07
9.111962e-07
9.090163e-07
9.0886415e-07
9.1246231e-07
9.2186089e-07
9.2829758e-07
9.475263e-07
9.7210289e-07
9.9431597e-07
1.0206874e-06
1.0788337e-06
1.13394e-06
1.2025845e-06
1.2662359e-06
1.3822342e-06
1.4872917e-06
1.7152577e-06
1.9308884e-06
2.3767568e-06
2.8297096e-06
3.7062634e-06
4.2353778e-06
5.3764937e-06
6.2537036e-06
8.025674e-06
9.0788637e-06
1.1180926e-05
1.2945454e-05
1.6725477e-05
1.9755718e-05
2.475079e-05
4.2584585e-06
3.5470728e-06
3.0334975e-06
2.6566695e-06
2.3533896e-06
2.0868345e-06
1.8482632e-06
1.6495725e-06
1.4955815e-06
1.3850165e-06
1.3035982e-06
1.2526675e-06
1.2204671e-06
1.1995585e-06
1.1838618e-06
1.1575742e-06
1.1209342e-06
1.0820396e-06
1.0446322e-06
1.0060597e-06
9.7281973e-07
9.4932504e-07
9.2960717e-07
9.1733151e-07
9.1106014e-07
9.075269e-07
9.0876727e-07
9.1274161e-07
9.209612e-07
9.2668022e-07
9.4581897e-07
9.7110272e-07
9.9145635e-07
1.018737e-06
1.0770565e-06
1.1283824e-06
1.2011192e-06
1.2681736e-06
1.371311e-06
1.460726e-06
1.6437433e-06
1.8052512e-06
2.1493649e-06
2.5207719e-06
3.1984123e-06
3.6705317e-06
4.6841838e-06
5.4957737e-06
6.9955036e-06
8.0120691e-06
9.8994097e-06
1.1543361e-05
1.4147644e-05
1.6943495e-05
1.9838253e-05
4.2612361e-06
3.5502837e-06
3.0376971e-06
2.6623125e-06
2.3601441e-06
2.0936616e-06
1.8548218e-06
1.6539156e-06
1.5005764e-06
1.3885837e-06
1.3057327e-06
1.2560219e-06
1.2226519e-06
1.2007811e-06
1.1843671e-06
1.1606783e-06
1.1263005e-06
1.0884277e-06
1.0516208e-06
1.013287e-06
9.8139323e-07
9.5648682e-07
9.3497065e-07
9.2515291e-07
9.1710713e-07
9.111791e-07
9.1231688e-07
9.1629058e-07
9.2286601e-07
9.2700278e-07
9.468131e-07
9.7208597e-07
9.9118968e-07
1.0193356e-06
1.0736478e-06
1.1177511e-06
1.1951539e-06
1.2698154e-06
1.371481e-06
1.455012e-06
1.6162381e-06
1.7474696e-06
2.0387979e-06
2.3474143e-06
2.8569821e-06
3.2320093e-06
3.9940165e-06
4.5855257e-06
5.7019397e-06
6.6288657e-06
8.4738763e-06
1.0576007e-05
1.2585821e-05
1.4969898e-05
1.7321928e-05
4.2633711e-06
3.5542481e-06
3.0425908e-06
2.6679584e-06
2.3675199e-06
2.1011483e-06
1.86147e-06
1.6598818e-06
1.5049945e-06
1.3915966e-06
1.3077937e-06
1.2560745e-06
1.2236464e-06
1.2039675e-06
1.1858279e-06
1.1651177e-06
1.133374e-06
1.094648e-06
1.0577076e-06
1.0175734e-06
9.8560705e-07
9.5823207e-07
9.3745247e-07
9.2672546e-07
9.1927541e-07
9.1298378e-07
9.1376705e-07
9.1850219e-07
9.2373011e-07
9.2755695e-07
9.4847346e-07
9.710975e-07
9.8781681e-07
1.0151135e-06
1.0643041e-06
1.1088196e-06
1.1872262e-06
1.2687794e-06
1.3706651e-06
1.470133e-06
1.6263763e-06
1.7420521e-06
2.0128013e-06
2.3036046e-06
2.7360406e-06
3.1342103e-06
3.810288e-06
4.2467963e-06
5.0861077e-06
5.8480732e-06
7.301067e-06
8.7245629e-06
1.0178007e-05
1.1688798e-05
1.3625667e-05
4.2653433e-06
3.5589788e-06
3.0469335e-06
2.6731657e-06
2.3735892e-06
2.1081874e-06
1.8694339e-06
1.6655934e-06
1.5112309e-06
1.3945797e-06
1.3114653e-06
1.2572642e-06
1.2236376e-06
1.2047923e-06
1.188282e-06
1.1687466e-06
1.1367643e-06
1.1011901e-06
1.0639247e-06
1.0235275e-06
9.8899818e-07
9.6068744e-07
9.4000911e-07
9.2983086e-07
9.2274225e-07
9.1483455e-07
9.1371224e-07
9.1918217e-07
9.2394324e-07
9.2859903e-07
9.507486e-07
9.7154086e-07
9.8809675e-07
1.0131817e-06
1.0581203e-06
1.1070301e-06
1.1797776e-06
1.2834418e-06
1.366602e-06
1.5062962e-06
1.6524157e-06
1.7798693e-06
2.0418119e-06
2.332053e-06
2.7001807e-06
3.197784e-06
3.8390309e-06
4.2502294e-06
5.0846817e-06
6.1796676e-06
7.443454e-06
8.4123004e-06
9.9787502e-06
1.0971491e-05
1.2618361e-05
4.2674082e-06
3.5629902e-06
3.0500863e-06
2.677111e-06
2.3785892e-06
2.1138667e-06
1.8767762e-06
1.6711584e-06
1.517402e-06
1.3984979e-06
1.3133969e-06
1.2580491e-06
1.2241909e-06
1.203908e-06
1.1895525e-06
1.1721414e-06
1.139301e-06
1.1043168e-06
1.0678442e-06
1.0286415e-06
9.9650931e-07
9.6688019e-07
9.4150948e-07
9.3167895e-07
9.2432278e-07
9.1603111e-07
9.1365796e-07
9.2106436e-07
9.2544533e-07
9.302932e-07
9.5113033e-07
9.7084777e-07
9.9016701e-07
1.0146686e-06
1.055802e-06
1.1069015e-06
1.1712375e-06
1.2846071e-06
1.3680762e-06
1.5171307e-06
1.6527046e-06
1.8274254e-06
2.0550037e-06
2.3503215e-06
2.6648367e-06
3.1720491e-06
3.7643046e-06
4.1807959e-06
4.9087222e-06
6.2453443e-06
7.3389676e-06
8.3529455e-06
9.9037889e-06
1.1783464e-05
1.3835281e-05
4.2696513e-06
3.5659604e-06
3.0529241e-06
2.6802563e-06
2.3829863e-06
2.1190623e-06
1.8829102e-06
1.6769859e-06
1.5212435e-06
1.4028687e-06
1.3161648e-06
1.2588561e-06
1.2246716e-06
1.2039117e-06
1.1900007e-06
1.1732439e-06
1.1417105e-06
1.1061431e-06
1.0707593e-06
1.0330485e-06
1.002639e-06
9.7178448e-07
9.442375e-07
9.3355469e-07
9.2666603e-07
9.1835857e-07
9.167535e-07
9.2359031e-07
9.261863e-07
9.3133625e-07
9.5216256e-07
9.7245044e-07
9.9313653e-07
1.0186085e-06
1.0582906e-06
1.1058367e-06
1.162148e-06
1.2744479e-06
1.3554544e-06
1.4991386e-06
1.6281298e-06
1.8243366e-06
2.0054595e-06
2.323066e-06
2.5462894e-06
3.0298977e-06
3.5361597e-06
3.9737231e-06
4.5667929e-06
5.8948358e-06
6.9147927e-06
7.7869036e-06
8.7153652e-06
1.0941763e-05
1.3323922e-05
4.2716296e-06
3.5686594e-06
3.0555209e-06
2.6836256e-06
2.3869318e-06
2.1250659e-06
1.8886006e-06
1.6816442e-06
1.524736e-06
1.4072006e-06
1.3200312e-06
1.2611476e-06
1.2265537e-06
1.2064424e-06
1.1923777e-06
1.1763352e-06
1.1460425e-06
1.1140141e-06
1.0770487e-06
1.0377589e-06
1.005888e-06
9.7465743e-07
9.4718277e-07
9.3442299e-07
9.279954e-07
9.2000485e-07
9.1890524e-07
9.2361774e-07
9.254583e-07
9.3207103e-07
9.5208547e-07
9.7204743e-07
9.9327308e-07
1.0204413e-06
1.0607929e-06
1.1007718e-06
1.1559328e-06
1.2498119e-06
1.3251156e-06
1.4532065e-06
1.5807778e-06
1.7597141e-06
1.9404003e-06
2.2283631e-06
2.4456076e-06
2.8494591e-06
3.2507025e-06
3.737394e-06
4.369407e-06
5.4359882e-06
6.4913332e-06
7.133043e-06
7.9156473e-06
9.8565182e-06
1.227026e-05
4.2735351e-06
3.5712412e-06
3.058065e-06
2.6868221e-06
2.3910021e-06
2.1311632e-06
1.8934885e-06
1.6873204e-06
1.529439e-06
1.4105889e-06
1.3222694e-06
1.2618873e-06
1.2286492e-06
1.209073e-06
1.196224e-06
1.1805393e-06
1.1507476e-06
1.1224546e-06
1.0843329e-06
1.0428416e-06
1.0114788e-06
9.8088627e-07
9.5338873e-07
9.3915885e-07
9.311505e-07
9.2416184e-07
9.2352389e-07
9.2642985e-07
9.2872951e-07
9.3471165e-07
9.519705e-07
9.7014484e-07
9.9023946e-07
1.0195063e-06
1.0602132e-06
1.0886473e-06
1.1489147e-06
1.2185826e-06
1.3119723e-06
1.3984955e-06
1.5419054e-06
1.6789065e-06
1.9025176e-06
2.0881753e-06
2.3630637e-06
2.6309526e-06
2.9334043e-06
3.3227703e-06
4.0268083e-06
4.7023984e-06
5.5343433e-06
6.1114709e-06
6.8485581e-06
8.407168e-06
1.0233168e-05
4.275326e-06
3.5736989e-06
3.061595e-06
2.6905643e-06
2.3957135e-06
2.1362322e-06
1.8985829e-06
1.693017e-06
1.5338443e-06
1.4136054e-06
1.3239456e-06
1.2630858e-06
1.2290907e-06
1.2093653e-06
1.1986016e-06
1.1810652e-06
1.1545603e-06
1.1250404e-06
1.0887642e-06
1.0499519e-06
1.0184385e-06
9.8705554e-07
9.6041996e-07
9.4493411e-07
9.3406155e-07
9.259595e-07
9.2470921e-07
9.2800273e-07
9.3090438e-07
9.3619673e-07
9.525649e-07
9.6916308e-07
9.8776944e-07
1.0179493e-06
1.0536187e-06
1.0846893e-06
1.1355969e-06
1.2076588e-06
1.2941315e-06
1.3759307e-06
1.5188904e-06
1.6461812e-06
1.86298e-06
2.0555943e-06
2.2431577e-06
2.5257609e-06
2.7647884e-06
3.1265143e-06
3.649723e-06
4.2448493e-06
4.9243444e-06
5.3597387e-06
5.9840736e-06
7.1372697e-06
7.9744385e-06
4.2769833e-06
3.5760386e-06
3.0649307e-06
2.6947888e-06
2.3998836e-06
2.1406439e-06
1.9046535e-06
1.6965585e-06
1.5373164e-06
1.4175554e-06
1.3269113e-06
1.2662507e-06
1.230386e-06
1.2096208e-06
1.1988811e-06
1.1808785e-06
1.1592813e-06
1.1263696e-06
1.0928975e-06
1.0570718e-06
1.0227166e-06
9.8926285e-07
9.6273685e-07
9.4640173e-07
9.352799e-07
9.2553211e-07
9.2251637e-07
9.2649553e-07
9.2930811e-07
9.3474039e-07
9.5227087e-07
9.6751611e-07
9.8432977e-07
1.0161838e-06
1.0470173e-06
1.0846559e-06
1.1304066e-06
1.2113586e-06
1.2886487e-06
1.3870431e-06
1.5118106e-06
1.6654949e-06
1.8436213e-06
2.0923047e-06
2.2380373e-06
2.513049e-06
2.7332964e-06
3.08645e-06
3.4766654e-06
4.0627741e-06
4.750253e-06
5.1796792e-06
5.7442473e-06
6.7648404e-06
7.2821999e-06
4.2785554e-06
3.5787614e-06
3.0678498e-06
2.6990042e-06
2.4037963e-06
2.1452203e-06
1.9102408e-06
1.6998955e-06
1.5408911e-06
1.4212451e-06
1.3296402e-06
1.2675598e-06
1.2314849e-06
1.2106588e-06
1.1988418e-06
1.1830886e-06
1.1629777e-06
1.1296931e-06
1.0955736e-06
1.060434e-06
1.0245152e-06
9.9048705e-07
9.6307739e-07
9.4535902e-07
9.3456906e-07
9.2458481e-07
9.2032874e-07
9.2421368e-07
9.2644995e-07
9.3292312e-07
9.5147028e-07
9.6473e-07
9.7928855e-07
1.0113043e-06
1.0420089e-06
1.0857243e-06
1.1324115e-06
1.2196137e-06
1.2948256e-06
1.4256523e-06
1.5202413e-06
1.7115748e-06
1.8816645e-06
2.1656814e-06
2.3415424e-06
2.6289518e-06
2.8447859e-06
3.2705739e-06
3.6597304e-06
4.2059186e-06
5.0005807e-06
5.6236987e-06
6.2752389e-06
7.2370175e-06
7.714618e-06
4.2799015e-06
3.581116e-06
3.0700597e-06
2.7012684e-06
2.4077295e-06
2.1495344e-06
1.9143942e-06
1.7057605e-06
1.545361e-06
1.4234844e-06
1.3311581e-06
1.2665881e-06
1.2305808e-06
1.2108741e-06
1.1991926e-06
1.1842667e-06
1.1644079e-06
1.1328047e-06
1.0963705e-06
1.0609504e-06
1.0257709e-06
9.9187977e-07
9.6295235e-07
9.4342408e-07
9.316916e-07
9.2173472e-07
9.1759026e-07
9.2054277e-07
9.2209807e-07
9.2987048e-07
9.4632412e-07
9.570983e-07
9.7201504e-07
1.0025465e-06
1.0340662e-06
1.082305e-06
1.130085e-06
1.2193286e-06
1.2957159e-06
1.4364836e-06
1.5322569e-06
1.7289244e-06
1.9032211e-06
2.1847357e-06
2.3864099e-06
2.6965173e-06
2.9153022e-06
3.360924e-06
3.7965059e-06
4.2442366e-06
5.0801798e-06
5.7656926e-06
6.5970019e-06
7.5148262e-06
8.0682144e-06
4.2812748e-06
3.5838288e-06
3.0726474e-06
2.7033819e-06
2.4121886e-06
2.1543606e-06
1.9191867e-06
1.7109955e-06
1.5499804e-06
1.4252413e-06
1.3321101e-06
1.2653397e-06
1.2291265e-06
1.2091713e-06
1.1987481e-06
1.182267e-06
1.1642829e-06
1.1337846e-06
1.095483e-06
1.0614709e-06
1.0272277e-06
9.9271674e-07
9.6335031e-07
9.4244437e-07
9.2923226e-07
9.188184e-07
9.1389641e-07
9.1472605e-07
9.1585204e-07
9.2443256e-07
9.3862224e-07
9.478636e-07
9.624133e-07
9.8983502e-07
1.0189468e-06
1.0621372e-06
1.1019174e-06
1.1807923e-06
1.2397649e-06
1.3626246e-06
1.4542534e-06
1.6379286e-06
1.8161954e-06
2.0479044e-06
2.2999707e-06
2.5729978e-06
2.8159798e-06
3.2508342e-06
3.7135442e-06
4.0526015e-06
4.7822335e-06
5.3858726e-06
6.2987611e-06
7.1405677e-06
7.7124367e-06
4.2821003e-06
3.5859569e-06
3.0744648e-06
2.7057617e-06
2.4148896e-06
2.1578464e-06
1.9233176e-06
1.712433e-06
1.5527351e-06
1.4269898e-06
1.3332903e-06
1.2643415e-06
1.228795e-06
1.2054991e-06
1.1953402e-06
1.1762666e-06
1.1605777e-06
1.12897e-06
1.0904222e-06
1.0583089e-06
1.0239192e-06
9.8791973e-07
9.5803938e-07
9.3591547e-07
9.2148012e-07
9.0951364e-07
9.0318965e-07
9.0209837e-07
9.023204e-07
9.0884438e-07
9.1909155e-07
9.2726058e-07
9.3846453e-07
9.576343e-07
9.8021922e-07
1.0079366e-06
1.034969e-06
1.0820929e-06
1.1171116e-06
1.1884065e-06
1.2570708e-06
1.3725706e-06
1.5257419e-06
1.654273e-06
1.9160249e-06
2.1167257e-06
2.4231965e-06
2.7161481e-06
3.2276497e-06
3.4981482e-06
4.0418078e-06
4.4571387e-06
5.2734774e-06
5.9515812e-06
6.6290535e-06
4.283293e-06
3.5886769e-06
3.0764477e-06
2.7075521e-06
2.4148229e-06
2.1573115e-06
1.9224473e-06
1.7077138e-06
1.5491017e-06
1.4247478e-06
1.3295295e-06
1.2581553e-06
1.2220149e-06
1.1939321e-06
1.1820208e-06
1.1621334e-06
1.1458869e-06
1.1146421e-06
1.0791161e-06
1.0504177e-06
1.0192717e-06
9.8487376e-07
9.5662962e-07
9.3504747e-07
9.2040184e-07
9.0787418e-07
9.026802e-07
9.0156758e-07
9.0170369e-07
9.0660012e-07
9.1574781e-07
9.2438888e-07
9.332411e-07
9.4757676e-07
9.6710103e-07
9.8771276e-07
1.0133499e-06
1.0409336e-06
1.0712657e-06
1.1119896e-06
1.170011e-06
1.225144e-06
1.3295975e-06
1.4035259e-06
1.5335477e-06
1.6433769e-06
1.8354141e-06
1.9712794e-06
2.2481853e-06
2.4328752e-06
2.7174988e-06
2.9144165e-06
3.3910851e-06
3.774136e-06
4.4912595e-06
4.2836799e-06
3.5897055e-06
3.0746813e-06
2.7016531e-06
2.4049434e-06
2.1471443e-06
1.913833e-06
1.7005456e-06
1.5434736e-06
1.422009e-06
1.3251121e-06
1.2506201e-06
1.2099434e-06
1.176956e-06
1.1611749e-06
1.141459e-06
1.1249537e-06
1.0984025e-06
1.0695603e-06
1.0469291e-06
1.0236452e-06
1.0000319e-06
9.8024247e-07
9.6330907e-07
9.5065352e-07
9.4104038e-07
9.3820858e-07
9.3882515e-07
9.4115974e-07
9.4720596e-07
9.5729201e-07
9.6706323e-07
9.7411112e-07
9.8606949e-07
1.0043874e-06
1.0210366e-06
1.0453376e-06
1.0647122e-06
1.0917207e-06
1.1170096e-06
1.1696035e-06
1.2111494e-06
1.2865995e-06
1.3390095e-06
1.4250989e-06
1.49633e-06
1.6304615e-06
1.7217379e-06
1.8836428e-06
2.0233334e-06
2.1832295e-06
2.2935687e-06
2.5112354e-06
2.7303883e-06
3.0927771e-06
4.2847756e-06
3.5871645e-06
3.0613448e-06
2.6801291e-06
2.3846182e-06
2.1400707e-06
1.9265645e-06
1.7346009e-06
1.5929171e-06
1.4804586e-06
1.3834537e-06
1.3062362e-06
1.2576347e-06
1.2194535e-06
1.1985288e-06
1.1804065e-06
1.1689381e-06
1.1541493e-06
1.1386955e-06
1.1370101e-06
1.1407811e-06
1.1455629e-06
1.1577408e-06
1.1642736e-06
1.1685813e-06
1.171253e-06
1.1763638e-06
1.1886604e-06
1.2073398e-06
1.2275278e-06
1.2507628e-06
1.2678157e-06
1.2800707e-06
1.2995085e-06
1.3183813e-06
1.3336847e-06
1.3530742e-06
1.3657258e-06
1.3893783e-06
1.4135679e-06
1.452833e-06
1.4841271e-06
1.5477246e-06
1.5882757e-06
1.6550839e-06
1.7095962e-06
1.7976038e-06
1.8643323e-06
1.9780065e-06
2.081384e-06
2.1662493e-06
2.2484023e-06
2.3464784e-06
2.5082873e-06
2.6610566e-06
4.2824884e-06
3.5683336e-06
3.0375766e-06
2.6810245e-06
2.436776e-06
2.2690446e-06
2.160046e-06
2.0627299e-06
1.9937354e-06
1.9174326e-06
1.8280242e-06
1.7508803e-06
1.7051037e-06
1.6715701e-06
1.6466427e-06
1.6417872e-06
1.6527378e-06
1.6585046e-06
1.6745534e-06
1.7203102e-06
1.7904169e-06
1.874701e-06
1.963543e-06
2.0368529e-06
2.101022e-06
2.1457954e-06
2.1807236e-06
2.2466357e-06
2.3165039e-06
2.3871127e-06
2.4566273e-06
2.5119129e-06
2.5593584e-06
2.6153014e-06
2.6625546e-06
2.6846737e-06
2.6938483e-06
2.6953689e-06
2.7103174e-06
2.7393264e-06
2.7435325e-06
2.7498482e-06
2.7894639e-06
2.8119403e-06
2.8538723e-06
2.8999553e-06
2.9268198e-06
2.967627e-06
3.0388653e-06
3.1167525e-06
3.1621542e-06
3.2382432e-06
3.3005233e-06
3.435811e-06
3.4374079e-06
4.2638926e-06
3.5319138e-06
3.1271686e-06
2.9921254e-06
3.0082295e-06
3.0928861e-06
3.305559e-06
3.5039771e-06
3.6077182e-06
3.6289756e-06
3.5929471e-06
3.4912656e-06
3.4520643e-06
3.455118e-06
3.4774046e-06
3.5140329e-06
3.5654593e-06
3.6328278e-06
3.7171983e-06
3.8536879e-06
4.0418387e-06
4.2514261e-06
4.4649591e-06
4.6920745e-06
4.894696e-06
5.0485018e-06
5.1842174e-06
5.3740082e-06
5.5759882e-06
5.7622163e-06
5.9598211e-06
6.1451042e-06
6.3156761e-06
6.4685423e-06
6.6610855e-06
6.7663886e-06
6.8384319e-06
6.8753689e-06
6.898678e-06
6.927609e-06
6.9339378e-06
6.9258698e-06
6.9623262e-06
6.9816385e-06
6.9968239e-06
7.0147312e-06
7.0252312e-06
7.0599097e-06
7.0706158e-06
7.1254898e-06
7.203319e-06
7.3038976e-06
7.3825021e-06
7.5257177e-06
7.4418956e-06
4.0989207e-06
3.8250204e-06
3.9083206e-06
4.1593298e-06
4.3735372e-06
4.6712714e-06
4.9575366e-06
5.1553237e-06
5.2114362e-06
5.2717026e-06
5.2380785e-06
5.2459573e-06
5.3094784e-06
5.4469603e-06
5.6453059e-06
5.8890098e-06
6.1953092e-06
6.4609426e-06
6.7720311e-06
7.1391954e-06
7.4971018e-06
7.867539e-06
8.2595732e-06
8.7406398e-06
9.2782599e-06
9.7438772e-06
1.0300519e-05
1.0813299e-05
1.1306876e-05
1.1896364e-05
1.2494671e-05
1.3004123e-05
1.3582052e-05
1.4159377e-05
1.4790785e-05
1.5452067e-05
1.6283139e-05
1.6954628e-05
1.7615652e-05
1.8357962e-05
1.8911267e-05
1.9286067e-05
1.9965733e-05
2.0719786e-05
2.1232207e-05
2.1569928e-05
2.1941233e-05
2.2391512e-05
2.2441013e-05
2.263873e-05
2.3316585e-05
2.3821408e-05
2.3837719e-05
2.3975154e-05
2.393235e-05
9.4352403e-06
1.3632374e-05
1.0939255e-05
6.6031466e-06
4.2981563e-06
3.3394126e-06
3.377419e-06
3.5930149e-06
4.0689365e-06
4.9333398e-06
6.1767616e-06
7.4240626e-06
8.3537139e-06
9.3271623e-06
1.0894444e-05
1.3242293e-05
1.5802389e-05
1.842911e-05
2.1147931e-05
2.355142e-05
2.6323689e-05
2.9050793e-05
3.1215148e-05
3.3098457e-05
3.5168614e-05
3.7363631e-05
3.9706678e-05
4.2084504e-05
4.441649e-05
4.6372529e-05
4.8780845e-05
5.2078523e-05
5.5942418e-05
5.9832522e-05
6.4073264e-05
6.8635921e-05
7.3613819e-05
7.8663958e-05
8.2096308e-05
8.3025957e-05
8.3264173e-05
8.3881058e-05
8.5352739e-05
8.7667238e-05
8.9279811e-05
8.9577733e-05
8.8700013e-05
8.8695009e-05
9.0279986e-05
9.2096045e-05
9.3296985e-05
9.3224684e-05
9.1754079e-05
8.908147e-05
8.6654012e-05
8.6527796e-05
2.6359487e-05
8.0001046e-06
3.6518215e-06
2.8321145e-06
3.2794477e-06
4.7712447e-06
7.4650549e-06
9.0036348e-06
9.5034316e-06
9.0283101e-06
8.1650932e-06
8.8112527e-06
1.1315289e-05
1.4039139e-05
1.5555389e-05
1.6525196e-05
1.5888864e-05
1.7245748e-05
2.2254053e-05
2.436804e-05
2.7569702e-05
3.1021169e-05
5.3126734e-05
5.6152682e-05
4.9391019e-05
6.9758799e-05
9.0107225e-05
2.8911375e-05
8.7717246e-06
3.9983416e-06
3.1239089e-06
3.6738192e-06
5.4370997e-06
8.8390304e-06
1.0719694e-05
1.1307214e-05
1.0762651e-05
9.5547454e-06
1.0227095e-05
1.2727133e-05
1.5552446e-05
1.7333457e-05
1.8416907e-05
1.7684036e-05
1.8878722e-05
2.4373696e-05
2.8243468e-05
3.4788889e-05
3.5070884e-05
5.5935412e-05
6.6961645e-05
6.0465048e-05
8.1583975e-05
9.9176703e-05
3.0090023e-05
9.1796609e-06
4.3178775e-06
3.4622499e-06
4.1244688e-06
6.0232534e-06
1.0049609e-05
1.2703938e-05
1.3788775e-05
1.3517466e-05
1.2350965e-05
1.3182193e-05
1.5645481e-05
1.9339091e-05
2.2479619e-05
2.3263358e-05
2.0872372e-05
2.1075507e-05
2.8173176e-05
3.6212992e-05
4.2843227e-05
3.9857645e-05
6.061789e-05
7.9663286e-05
7.0012835e-05
9.7476407e-05
0.00010874515
3.0160064e-05
9.7556368e-06
4.719175e-06
3.7379139e-06
4.3737177e-06
6.3690124e-06
1.1203272e-05
1.5498012e-05
1.7574494e-05
1.7353388e-05
1.5307462e-05
1.615946e-05
1.9531311e-05
2.5975133e-05
3.0421205e-05
3.1612636e-05
2.8779118e-05
2.6816553e-05
3.4809375e-05
4.461257e-05
5.2858492e-05
4.6143473e-05
7.1434181e-05
0.00010349433
8.7453041e-05
0.00012219005
0.00011303191
3.1791462e-05
1.0808984e-05
5.2686168e-06
4.1349619e-06
4.8228024e-06
7.2009724e-06
1.3849328e-05
2.0270544e-05
2.3246128e-05
2.2525115e-05
1.8456507e-05
1.8678034e-05
2.230022e-05
2.9737733e-05
3.6452091e-05
4.0817616e-05
3.9969634e-05
3.6822381e-05
4.546829e-05
5.7844067e-05
6.9145813e-05
5.6979185e-05
8.1136358e-05
0.00012939057
0.00011937395
0.00014902941
0.00011130726
3.3540705e-05
1.1424421e-05
5.7300196e-06
4.7382195e-06
5.6707797e-06
8.5435574e-06
1.6455218e-05
2.4427239e-05
2.8044852e-05
2.7453439e-05
2.3309682e-05
2.2708425e-05
2.5992278e-05
3.3971717e-05
4.5384334e-05
5.4087973e-05
5.4036986e-05
4.7131103e-05
5.7759157e-05
7.7314901e-05
8.6199028e-05
7.1165961e-05
9.4589883e-05
0.00015845704
0.00015383754
0.00016943453
0.00010648056
3.5764164e-05
1.2215852e-05
6.2538618e-06
5.3514243e-06
6.57334e-06
9.9306509e-06
1.8689753e-05
2.8923192e-05
3.32401e-05
3.3126335e-05
2.8852022e-05
2.7973626e-05
3.2792835e-05
4.557116e-05
6.2875246e-05
7.0732637e-05
6.8367268e-05
5.6413762e-05
6.5822692e-05
9.8410254e-05
0.0001135986
9.7667447e-05
0.00011589137
0.00019146954
0.00019355476
0.00019195857
0.00010307307
3.7815413e-05
1.3233288e-05
7.0665874e-06
6.3070049e-06
7.9399117e-06
1.2505261e-05
2.4170432e-05
3.7445145e-05
4.176431e-05
4.0180123e-05
3.3452453e-05
3.2143337e-05
3.903591e-05
5.5727598e-05
7.9845986e-05
9.2116388e-05
9.1098796e-05
7.3776864e-05
7.8064069e-05
0.00011220832
0.00014497227
0.0001332381
0.00013722854
0.00022695548
0.00024339731
0.00022011032
0.00010973568
3.876894e-05
1.3537033e-05
7.9757488e-06
7.6878173e-06
1.0299365e-05
1.7173308e-05
3.3658456e-05
4.8686864e-05
5.3040112e-05
5.0472782e-05
4.1933686e-05
3.9369501e-05
4.7850144e-05
6.5468059e-05
9.638859e-05
0.00011098265
0.00011029043
9.2995438e-05
9.7836477e-05
0.00014155069
0.00019961469
0.00018286576
0.00016408193
0.00028349299
0.00034350155
0.00028212225
0.00012655919
3.9729281e-05
1.3736403e-05
8.746613e-06
8.8373571e-06
1.1945382e-05
1.976781e-05
3.8261787e-05
6.0347645e-05
6.8079833e-05
6.7432545e-05
5.8733475e-05
5.4695789e-05
6.4420476e-05
8.7505882e-05
0.00013749436
0.0001592462
0.00014987288
0.00011518414
0.0001194664
0.00019127618
0.00026242278
0.00023574807
0.0001870426
0.0003207961
0.00048482632
0.0004128345
0.00014401313
3.9650397e-05
1.4505042e-05
9.67836e-06
9.8821776e-06
1.2980248e-05
2.1670715e-05
4.3373683e-05
7.7206845e-05
9.0802786e-05
9.1757955e-05
7.9006324e-05
7.1926803e-05
9.0522619e-05
0.00014062398
0.00022765295
0.00025433985
0.00023465075
0.00016468113
0.00015395862
0.00023638607
0.00030880823
0.00028946989
0.00022875149
0.00034596572
0.00057700363
0.000561907
0.00015328063
4.3924215e-05
1.6564953e-05
1.1083673e-05
1.1507285e-05
1.5316773e-05
2.6595432e-05
5.6252289e-05
9.8341038e-05
0.00011627352
0.00011542917
9.6868184e-05
8.643558e-05
0.0001077563
0.00017662008
0.00028281941
0.00032614667
0.00031940312
0.00024000003
0.00020807498
0.00028617555
0.00036432761
0.00033787577
0.00026028846
0.00037975024
0.000701757
0.00067619777
0.00016703506
4.8681268e-05
1.784398e-05
1.2024713e-05
1.3090297e-05
1.8650818e-05
3.3578539e-05
7.1688795e-05
0.00011546625
0.00013313181
0.00013225533
0.00011715349
0.00010868378
0.00012622807
0.00018935957
0.00032622021
0.00040297021
0.00041465859
0.00034450893
0.00029201871
0.00038762537
0.00050153116
0.00045335089
0.00030754698
0.00046155522
0.0008971385
0.00083492707
0.00018065659
5.0082693e-05
1.9066925e-05
1.3590846e-05
1.5022128e-05
2.1492535e-05
3.8642647e-05
8.0635952e-05
0.00012994287
0.00014983318
0.00015272895
0.00014075385
0.00013163756
0.00015043959
0.0002258481
0.0004352136
0.00057640158
0.00059088258
0.00047315083
0.00037099967
0.00051535505
0.00074482113
0.00070213127
0.00045373354
0.00061341811
0.0010772129
0.0010732367
0.0001829491
5.2753746e-05
2.1557608e-05
1.5774437e-05
1.7392348e-05
2.5800664e-05
4.9538235e-05
0.00010635423
0.00016184154
0.0001824304
0.00018334423
0.00016463779
0.0001527478
0.00018344491
0.00030767587
0.00061120914
0.00078998793
0.00079656089
0.00062169504
0.00044814335
0.00055022627
0.00087167719
0.00094902705
0.00074095569
0.00081949397
0.0012216449
0.0012731798
0.00020361383
5.798319e-05
2.3562226e-05
1.8228314e-05
2.179307e-05
3.6104816e-05
7.1896557e-05
0.00014585105
0.00019499842
0.00021133057
0.00020737204
0.00018606918
0.00017941627
0.00021837783
0.00036028683
0.00066919121
0.00084744106
0.00088685824
0.00078786326
0.00059807333
0.00062957622
0.0008758568
0.0010812384
0.00098175606
0.0010005894
0.0014326418
0.0014833831
0.0002408465
5.7621626e-05
2.3996923e-05
2.0243256e-05
2.5344567e-05
4.2000729e-05
8.0357603e-05
0.00015140282
0.00020398044
0.0002253432
0.00023115987
0.00022786347
0.00022860168
0.00026185618
0.00037951393
0.00064773545
0.00084741664
0.00092420539
0.00088709644
0.0007532082
0.000755428
0.00095524167
0.0012343286
0.0011737524
0.001152258
0.0016905645
0.0018067751
0.00024422182
5.758867e-05
2.6911947e-05
2.3150547e-05
2.669574e-05
3.9665041e-05
7.1885907e-05
0.00013892958
0.00020584857
0.0002431194
0.000264055
0.00027633345
0.00028817106
0.00032043176
0.00042545427
0.00068663091
0.00093319751
0.0010397459
0.0010107689
0.00091401502
0.00095665415
0.0012458877
0.0015768886
0.0014852629
0.0013885641
0.0019452455
0.0022087159
0.00023291489
6.8044812e-05
3.2076595e-05
2.6531798e-05
2.9253001e-05
4.1020215e-05
7.3156488e-05
0.00014756898
0.00022477468
0.00027044375
0.00029467304
0.00030529615
0.0003197609
0.00037795464
0.00055061505
0.00088652409
0.0011464157
0.0012286379
0.0011730825
0.001080422
0.0011974903
0.0016714184
0.0019311167
0.0017577565
0.0016758988
0.0022448611
0.0026732928
0.00024690899
8.0532306e-05
3.5081015e-05
2.865192e-05
3.2575816e-05
4.9190957e-05
9.4223526e-05
0.00018040724
0.00025590179
0.00029722291
0.00031542849
0.00032497914
0.00035329189
0.00045250706
0.00068883087
0.0010328432
0.0012593389
0.0013253434
0.0012912421
0.0012701381
0.0014514599
0.0019378093
0.0020903369
0.0019442671
0.0019014897
0.0024064113
0.0029741099
0.00027774614
8.4031991e-05
3.6350016e-05
3.1682301e-05
3.8259344e-05
6.147385e-05
0.00011792891
0.00020188997
0.00027397163
0.00031832633
0.00034299963
0.00036871636
0.00042475555
0.00054854516
0.00076976567
0.0010540419
0.0012733182
0.0013862365
0.0014318483
0.0014853426
0.0016538387
0.0020325539
0.0022360212
0.0022296361
0.0021648487
0.0024833754
0.003096271
0.00029182307
8.175265e-05
3.9841199e-05
3.7717299e-05
4.6459093e-05
7.1976783e-05
0.00013075857
0.00021321729
0.00028650125
0.00034227301
0.00038960314
0.0004511551
0.00054264116
0.00067352177
0.00085215215
0.0010805124
0.0013039948
0.0014914844
0.0016350032
0.0017182948
0.001823652
0.0020862968
0.0024122587
0.0025921204
0.0025447068
0.0026685738
0.0031830682
0.00029281232
8.4205713e-05
4.3946326e-05
4.3605342e-05
5.4930365e-05
8.2373713e-05
0.00014213928
0.00022349753
0.00029805103
0.00036458789
0.00043962844
0.00054376696
0.00067314739
0.00082496111
0.0009976361
0.001190395
0.0014112215
0.0016431559
0.0018252183
0.0019197835
0.0020154537