/*--------------------------------*- C++ -*----------------------------------*\
| =========                 |                                                 |
| \\      /  F ield         | OpenFOAM: The Open Source CFD Toolbox           |
|  \\    /   O peration     | Version:  2406                                  |
|   \\  /    A nd           | Website:  www.openfoam.com                      |
|    \\/     M anipulation  |                                                 |
\*---------------------------------------------------------------------------*/
FoamFile
{
    version     2.0;
    format      ascii;
    arch        "LSB;label=32;scalar=64";
    class       volScalarField;
    location    "11";
    object      omega_0;
}
// * * * * * * * * * * * * * * * * * * * * * * * * * * * * * * * * * * * * * //

dimensions      [0 0 -1 0 0 0 0];

internalField   nonuniform List<scalar> 
96472
(
3.6654604
3.0557131
2.6171125
2.2689412
1.9891233
1.7719313
1.6106394
1.4939463
1.4084631
1.3419934
1.2850179
1.231064
1.1774539
1.1240515
1.0725376
1.025704
0.98605371
0.95485976
0.93189296
0.91581802
0.90494596
0.89786408
0.89324218
0.89006865
0.88783077
0.88645563
0.88555601
0.88521066
0.88505168
0.88542747
0.88608782
0.88763923
0.88924954
0.89176341
0.89425097
0.89929182
0.90585102
0.90869502
0.91374788
0.91515681
0.91770058
0.91856199
0.92050247
0.92468572
0.93123478
0.93889822
0.95039462
0.95982984
0.97359584
0.98451451
0.99833881
1.0146384
1.0297057
1.0485762
1.0757999
3.6666669
3.0584821
2.6204767
2.272691
1.993121
1.7757903
1.6139435
1.4966167
1.4106474
1.3439591
1.287192
1.233902
1.181078
1.1283734
1.0772681
1.030348
0.99021774
0.95826861
0.93455073
0.917829
0.90638833
0.89889514
0.89403811
0.89079432
0.88845721
0.88692474
0.88597494
0.88535307
0.88504161
0.88478121
0.88472732
0.88478096
0.88522392
0.88552746
0.88630616
0.88749269
0.89078685
0.89485256
0.90291433
0.909382
0.91493821
0.91893976
0.92223193
0.92653434
0.93003286
0.93710376
0.94235088
0.95325358
0.96034436
0.97540033
0.98354709
0.99919309
1.0148955
1.0268213
1.053874
3.6680661
3.0612682
2.6245185
2.2775266
1.9980927
1.7802507
1.6176015
1.4994902
1.4129917
1.3462293
1.289769
1.2368954
1.1843279
1.1316034
1.0802708
1.0330107
0.99249702
0.96010359
0.93596991
0.91893731
0.90723513
0.89946873
0.89443599
0.89116693
0.88877661
0.88723979
0.88617949
0.88563289
0.88538104
0.88528305
0.88530917
0.88564481
0.88600469
0.88671593
0.88705909
0.88784792
0.8886252
0.89016817
0.8925354
0.89659962
0.90167394
0.91102387
0.9171088
0.92455104
0.92805683
0.93543196
0.93948646
0.94889779
0.9538325
0.96320942
0.97374288
0.9818552
0.99824665
1.0077921
1.0310618
3.6692441
3.0638545
2.6284081
2.2822737
2.0029935
1.7846651
1.6212323
1.5023796
1.4154311
1.3485669
1.2923075
1.2398065
1.1876902
1.135432
1.0844343
1.0372261
0.99636755
0.96341702
0.93858311
0.92089006
0.90872442
0.90050748
0.89511629
0.89157113
0.88908014
0.88738645
0.88626785
0.88559814
0.88521297
0.88505108
0.88502254
0.88534642
0.88568965
0.88657448
0.8870546
0.88820271
0.8888729
0.89036405
0.8914326
0.8936754
0.89569064
0.90043701
0.90450945
0.91413924
0.91926605
0.92965528
0.9341571
0.94270853
0.95024763
0.95597117
0.96640973
0.97228183
0.98469339
0.99192931
1.0094728
3.6705468
3.0665824
2.6324131
2.2870909
2.0079082
1.7890678
1.6248547
1.5052997
1.4179024
1.3509334
1.2948657
1.2427345
1.1910253
1.1390454
1.0880748
1.0406738
0.99943911
0.96603245
0.94072002
0.92253301
0.90997427
0.90146633
0.89584503
0.89214581
0.88956729
0.88780857
0.88657289
0.88585438
0.88539391
0.88523224
0.88513707
0.88531134
0.88551209
0.88619525
0.88661571
0.88780059
0.88849279
0.89021155
0.89112431
0.8933533
0.89471042
0.89797886
0.90016883
0.90563081
0.90961365
0.91647313
0.92488399
0.93021965
0.94103345
0.94650681
0.9576567
0.9633684
0.97493404
0.98087148
0.99523859
3.6717914
3.0692305
2.6363417
2.2918534
2.012797
1.7934796
1.6285204
1.5082696
1.4204057
1.3532971
1.2973888
1.2456139
1.1943131
1.1427065
1.0919558
1.0444983
1.0029443
0.96901207
0.94310576
0.92439499
0.91135621
0.90245311
0.89653578
0.89260683
0.88991244
0.88804786
0.88675134
0.88595672
0.88536208
0.88515894
0.88501863
0.88512676
0.88525079
0.88581211
0.88610276
0.88703027
0.88759953
0.88916047
0.89010532
0.89237413
0.89368806
0.89640575
0.89891911
0.9015873
0.90630228
0.90965243
0.91666945
0.92097721
0.92995565
0.9350668
0.94584899
0.95158545
0.96326492
0.96942927
0.98305171
3.6731001
3.0719057
2.6402159
2.2965503
2.0176616
1.7979074
1.6322228
1.511269
1.4229276
1.3556665
1.2998939
1.2484518
1.1975618
1.1462864
1.0957309
1.0482429
1.0063935
0.97199952
0.94551298
0.92625575
0.91278826
0.90354384
0.89734517
0.893217
0.8903867
0.88843837
0.88703725
0.88621292
0.88555245
0.88528391
0.88510925
0.88512319
0.88518546
0.88561293
0.8858485
0.88655699
0.88699645
0.88799986
0.88915049
0.89038191
0.89256266
0.89416975
0.89738994
0.89949589
0.90380474
0.90648146
0.91214888
0.91553125
0.92263407
0.92688726
0.93558001
0.94070769
0.95101368
0.95698934
0.96954996
3.6744463
3.0745801
2.6440589
2.3012033
2.0225006
1.802362
1.6359847
1.5143475
1.4255113
1.3580384
1.3023279
1.2511712
1.2006975
1.1498336
1.0995398
1.0520566
1.0099096
0.97504897
0.94800951
0.92816669
0.91419842
0.90463707
0.89813072
0.89378847
0.89082577
0.88880313
0.88732316
0.88641034
0.88568897
0.88530625
0.88508088
0.8850206
0.88506313
0.88526347
0.88568678
0.88598004
0.88667571
0.88717917
0.88832369
0.88918136
0.89106504
0.89242671
0.89536765
0.89726191
0.90128896
0.90374369
0.90881623
0.91176222
0.91794414
0.92132962
0.92865282
0.93271839
0.94149602
0.94612905
0.95731777
3.675753
3.0772509
2.6478542
2.3058126
2.0273293
1.8068475
1.6397975
1.5174432
1.4280633
1.3603561
1.3047285
1.2539358
1.2039446
1.1535145
1.1034683
1.0559399
1.0134557
0.97807153
0.95047183
0.93011015
0.91562495
0.90571377
0.89897205
0.89444274
0.89132191
0.88921689
0.8876726
0.88667505
0.88595048
0.88547959
0.8851962
0.8850793
0.88507203
0.88515913
0.88551285
0.88575056
0.88631394
0.88671848
0.8876364
0.88833234
0.8899209
0.89105659
0.8935113
0.89519676
0.89872934
0.90093687
0.90558732
0.9083071
0.91383549
0.91692435
0.92348681
0.92690948
0.93431338
0.93825283
0.94754652
3.67722
3.0799756
2.6516394
2.3103872
2.0321552
1.8113586
1.6436482
1.5205641
1.4306206
1.3626621
1.3071122
1.2566605
1.2071044
1.157041
1.1072058
1.0596311
1.016867
0.98100328
0.95283969
0.93195934
0.91703788
0.90675732
0.89977644
0.89508113
0.89182316
0.8896245
0.88800977
0.88692993
0.88617959
0.88564235
0.88530225
0.88512006
0.88508037
0.88511073
0.8853561
0.88553322
0.88599265
0.88630633
0.88707446
0.88766235
0.88896065
0.88992115
0.89202463
0.89342766
0.89649416
0.89846793
0.90256357
0.90497906
0.91005255
0.91305391
0.91864195
0.92208454
0.92836646
0.93217386
0.93948239
3.6784974
3.0826464
2.6553586
2.3148944
2.0369368
1.8158684
1.6475144
1.5237023
1.4331843
1.364956
1.309461
1.2593073
1.2101659
1.1604522
1.1108192
1.063254
1.0202483
0.98395413
0.9552873
0.93384408
0.91845769
0.90784187
0.90059382
0.8957185
0.89236941
0.89007907
0.88840439
0.88723307
0.88645061
0.88586593
0.88548305
0.88523496
0.88516529
0.88515353
0.8852862
0.8854192
0.88578167
0.88602938
0.88665204
0.88709935
0.88818268
0.88896806
0.89069694
0.89192304
0.89456904
0.89622952
0.89985115
0.90205944
0.9066489
0.90908039
0.91456497
0.91744058
0.92322466
0.92657521
0.93289806
3.680147
3.0854383
2.6591127
2.319381
2.0417002
1.8203729
1.6514083
1.5268889
1.4358086
1.3672835
1.3117614
1.2618291
1.2130436
1.1636782
1.1142913
1.0667833
1.0235722
0.98687601
0.95772705
0.93576809
0.91987918
0.9088909
0.90139809
0.89633525
0.89288944
0.89051688
0.88880203
0.88754845
0.88671188
0.88608046
0.88567388
0.88537262
0.88525637
0.88521736
0.88528047
0.88537719
0.88563883
0.88583476
0.88629108
0.88667009
0.88752019
0.88816429
0.88961723
0.89066212
0.89284632
0.89437365
0.89752074
0.89947051
0.90339359
0.90582652
0.91069969
0.9130781
0.91869944
0.92136574
0.92728111
3.6813329
3.0881048
2.6627282
2.3237429
2.0463777
1.8248627
1.6553206
1.5300757
1.4383805
1.36952
1.3139659
1.2642884
1.2158949
1.1669526
1.1178537
1.0704223
1.0270496
0.98991505
0.96024627
0.93775601
0.92137534
0.90996455
0.90222159
0.89697983
0.89341136
0.89094837
0.88919513
0.88788613
0.88699863
0.88632493
0.88587667
0.88553968
0.88538289
0.88530247
0.88531552
0.88536124
0.88557902
0.88569822
0.8860726
0.88633968
0.88700534
0.88752613
0.88870444
0.88953001
0.89146377
0.89271475
0.89547886
0.89712819
0.90077475
0.90302225
0.90712192
0.90956404
0.91461084
0.91701028
0.92242685
3.6832441
3.0909942
2.6664281
2.3281362
2.0510881
1.8293629
1.6592459
1.5332809
1.440961
1.3717574
1.3161632
1.2667001
1.2186938
1.1701432
1.121332
1.0739831
1.0304797
0.99298074
0.96278793
0.93974349
0.9228873
0.9110733
0.90303094
0.89759415
0.89392539
0.89138677
0.889586
0.88821238
0.8872719
0.88657518
0.88609792
0.88573361
0.88552452
0.88541182
0.88538614
0.88541704
0.88553383
0.88565282
0.88591693
0.88612395
0.88666612
0.88707154
0.88800256
0.88874865
0.89031536
0.8914124
0.89375193
0.89529891
0.89852746
0.9002801
0.90424778
0.90639899
0.91081151
0.91331674
0.91797249
3.6842829
3.0936174
2.6699199
2.3322917
2.0556032
1.8337578
1.6631328
1.536471
1.4435125
1.3739487
1.3182811
1.2690429
1.2214403
1.173313
1.1248381
1.0776333
1.034001
0.9961413
0.96547395
0.94185365
0.92445145
0.91222326
0.90388694
0.89822194
0.89442285
0.89179474
0.88995754
0.88854407
0.88755823
0.8868316
0.88630704
0.88591037
0.88567692
0.88553881
0.88550517
0.88548329
0.88558233
0.88563416
0.88583525
0.88599685
0.8863752
0.88669204
0.88746917
0.88804903
0.88936218
0.89033525
0.89237001
0.89372626
0.89645541
0.89836636
0.9017306
0.90376262
0.90783489
0.91019379
0.91424347
3.6864937
3.0966576
2.673613
2.3365907
2.0602349
1.8382476
1.6670756
1.5397006
1.4460892
1.3761401
1.3204112
1.2714022
1.2242097
1.176565
1.1284349
1.0813839
1.0376673
0.99940955
0.96821278
0.9440403
0.92610788
0.91341324
0.9047482
0.898877
0.89495656
0.89225035
0.89034274
0.88887297
0.88784166
0.88709389
0.88654363
0.88612886
0.88586032
0.88568095
0.88560578
0.88558813
0.88562663
0.88568529
0.88586213
0.88594397
0.88625576
0.88649409
0.88708027
0.88755738
0.88870868
0.88946741
0.89121819
0.89235302
0.89487456
0.89646895
0.899394
0.90137799
0.90518853
0.9070503
0.91103152
3.6873514
3.0991674
2.6768916
2.3404939
2.0645058
1.8425056
1.6709217
1.5428732
1.448608
1.3782812
1.3224861
1.273719
1.2269556
1.1797884
1.1320499
1.0851587
1.0413596
1.0027565
0.97105962
0.94631381
0.92783466
0.914693
0.90569761
0.89956586
0.89545821
0.89266188
0.89071019
0.88920807
0.88812664
0.88734558
0.88677434
0.88632821
0.88603629
0.88582492
0.88573316
0.88568765
0.88570684
0.8857521
0.88585963
0.8859521
0.88615208
0.88630604
0.88677146
0.88718021
0.88810384
0.88879799
0.89032883
0.89135961
0.8936279
0.89491632
0.89785547
0.89970822
0.90299806
0.90487619
0.90866152
3.6898689
3.1023871
2.6805862
2.3447145
2.0690822
1.8469587
1.6748675
1.5461489
1.4512053
1.3804466
1.324583
1.2760519
1.2297706
1.1830963
1.1357719
1.0890604
1.0452056
1.0062688
0.97405231
0.94873272
0.92973815
0.91609318
0.9066943
0.90032485
0.89607838
0.893185
0.89112433
0.88957068
0.88845704
0.88765889
0.88706474
0.88658415
0.88626464
0.88603591
0.88590824
0.88583765
0.88583891
0.8858431
0.88599252
0.88603494
0.88619683
0.88631932
0.88663146
0.88695071
0.88769172
0.88827874
0.88955221
0.89039487
0.89229451
0.89367102
0.89595551
0.89808107
0.90059464
0.90290706
0.90591095
3.6905397
3.1047016
2.6836255
2.348298
2.0730443
1.8510416
1.6786936
1.5493646
1.4537909
1.3826279
1.3266572
1.2783636
1.2324949
1.1863443
1.13942
1.0929583
1.0490678
1.0097933
0.97717068
0.95128518
0.93169655
0.91762936
0.90789745
0.90118235
0.89670209
0.89372788
0.89164757
0.89005571
0.88885256
0.88799732
0.88736934
0.88687143
0.88653135
0.88629491
0.88613483
0.88605574
0.88599551
0.88599681
0.88609046
0.88616104
0.88626494
0.88630692
0.88656775
0.88680174
0.88746853
0.88796466
0.88903497
0.88982994
0.8915828
0.89281859
0.89498559
0.89703816
0.899252
0.90166741
0.90420648
3.6933455
3.1081383
2.6873089
2.3524346
2.0775224
1.8554718
1.6827057
1.5527894
1.4565366
1.384878
1.3287838
1.2806748
1.2352909
1.1896623
1.1432508
1.0970451
1.0532261
1.0137613
0.98060401
0.95422992
0.93419574
0.91956959
0.90939071
0.90246622
0.89783634
0.89471276
0.89247772
0.89085038
0.88962338
0.88872886
0.88805801
0.88751776
0.88711327
0.88680637
0.88661011
0.88647087
0.88640483
0.88636486
0.88643946
0.88654645
0.88658533
0.88658234
0.88670878
0.8868882
0.88735277
0.88774029
0.88862955
0.88926638
0.89074476
0.89185493
0.89398169
0.89554979
0.89791834
0.90023642
0.90267333
3.6938214
3.110239
2.6900804
2.3556032
2.0810797
1.8593109
1.6865257
1.5560922
1.4593022
1.3872535
1.3310247
1.2831751
1.2381649
1.1930713
1.147055
1.1012501
1.0575347
1.0180962
0.98489426
0.95800264
0.93760571
0.92276028
0.91228003
0.90491715
0.90000496
0.89679737
0.89453031
0.89280609
0.89144668
0.89044762
0.8896971
0.88910147
0.88862527
0.8882525
0.88799405
0.88778291
0.88760177
0.88749213
0.88749618
0.88750687
0.88745289
0.88741333
0.88744693
0.88756501
0.88788714
0.88828651
0.88897874
0.88946174
0.89085269
0.89208812
0.89360829
0.89551244
0.89763286
0.90007946
0.90184845
3.6967206
3.1140134
2.6940709
2.3599874
2.0858443
1.8641559
1.691116
1.5602202
1.4627358
1.390257
1.3340072
1.2865424
1.2419823
1.197407
1.1517816
1.1068249
1.0637732
1.025382
0.99255607
0.96592377
0.94564613
0.93071411
0.91991136
0.9123698
0.90728743
0.90379153
0.90128797
0.89940484
0.89792034
0.89676159
0.89582242
0.89508209
0.8944277
0.89382622
0.89333247
0.89283271
0.89234246
0.89203572
0.8918396
0.8916128
0.89122242
0.89084435
0.89070536
0.89059365
0.89061966
0.8908202
0.89111589
0.89148015
0.89258514
0.89365872
0.89497318
0.89733171
0.89890316
0.90181994
0.9026529
3.6964387
3.1166868
2.6975777
2.3638694
2.0912704
1.8709614
1.6983322
1.5664533
1.4684266
1.3962699
1.3411865
1.2962505
1.2531984
1.2100162
1.1643526
1.1216732
1.0800191
1.0456323
1.0155917
0.99017634
0.97095214
0.9574063
0.94668565
0.93837803
0.93306016
0.9291762
0.92640762
0.92410867
0.92228091
0.92069125
0.91933011
0.91848602
0.91737283
0.91652552
0.91564176
0.91434145
0.91294688
0.91188575
0.91109387
0.90972873
0.90799488
0.90641062
0.90521228
0.90413495
0.90362257
0.90351327
0.90346092
0.90358527
0.90413301
0.90490806
0.90588445
0.90796193
0.90947407
0.91252683
0.91249523
3.6963137
3.1331296
2.7151086
2.3841168
2.1209608
1.9066318
1.7316304
1.5937408
1.4926582
1.4228604
1.3750798
1.3428053
1.3091657
1.2702133
1.2210203
1.1794367
1.1400655
1.1160037
1.0940565
1.0761446
1.0622639
1.0534898
1.0443927
1.0364409
1.0310202
1.0254542
1.0210786
1.0168546
1.0137858
1.0103115
1.0075025
1.0061161
1.003342
1.001866
1.0000665
0.99566363
0.99150391
0.98880509
0.98658615
0.98236181
0.97446459
0.96654548
0.96116283
0.95568721
0.95185781
0.95048537
0.94890475
0.94831575
0.94850744
0.94903911
0.95056981
0.95394556
0.95667241
0.95896104
0.95619194
3.7119403
3.2542245
2.8423226
2.5368878
2.3278956
2.1389792
1.9244284
1.7344923
1.6126296
1.5576792
1.5505835
1.5613657
1.5761576
1.573001
1.5336207
1.4521936
1.4128515
1.4065616
1.4096552
1.4243158
1.4391172
1.4502354
1.4563965
1.4616493
1.4662359
1.466569
1.4651275
1.4600896
1.4575394
1.4538364
1.4519099
1.4517652
1.4482182
1.4473665
1.4462452
1.4399817
1.4238722
1.4182345
1.411675
1.3987472
1.3692339
1.3295146
1.307064
1.2804345
1.2619558
1.2583683
1.2511045
1.2470518
1.2481034
1.2498051
1.2544057
1.2686951
1.2797444
1.2860792
1.2698064
4.0623994
3.9067536
3.5865195
3.4681804
3.4935982
3.5898812
3.4182484
3.0494222
2.9835213
2.9998643
3.0741597
3.2722583
3.3975498
3.4166635
3.3748141
3.2571552
3.2119455
3.2161957
3.2492132
3.3298741
3.3856642
3.4365855
3.4698428
3.5079055
3.5494099
3.5756953
3.5879713
3.5954185
3.6092727
3.6176718
3.6253774
3.6458716
3.6449896
3.6581515
3.661331
3.6492459
3.6452864
3.6615303
3.658278
3.6261563
3.5162016
3.4319841
3.4333562
3.3648097
3.3391919
3.3674847
3.3351753
3.3322777
3.3837641
3.3838253
3.3981617
3.4464125
3.4378173
3.4579978
3.4043282
11.269503
11.42921
11.47287
11.534426
11.627411
11.727458
11.882206
11.802851
11.690977
11.59874
11.580579
11.593871
11.633896
11.700802
11.770208
11.828163
11.873642
11.912575
11.952683
11.996425
12.040595
12.085651
12.132112
12.179416
12.227826
12.278285
12.327914
12.374705
12.41875
12.460299
12.49973
12.537724
12.572931
12.606239
12.640855
12.670918
12.70295
12.721926
12.770625
12.764563
12.805212
12.762563
12.764187
12.778347
12.714998
12.713273
12.717764
12.666265
12.659703
12.659369
12.635022
12.644658
12.63629
12.637485
12.646029
13.016743
3.6943733
1.3441929
0.97165785
0.91817554
0.90598318
0.90418132
0.90470983
0.90622532
0.90808632
0.91064839
0.91345285
0.91726982
0.92119446
0.92583584
0.93088675
0.93682752
0.94343938
0.95120246
0.96129147
0.97406018
0.98742998
0.99967051
1.0148138
1.0365202
1.0611979
1.0815106
13.786201
4.1921268
1.446221
0.99318466
0.92404264
0.90958361
0.90770199
0.90826616
0.91000265
0.9118697
0.91433049
0.917069
0.92056242
0.92443044
0.92900122
0.93421489
0.94028694
0.94729214
0.95556219
0.96543028
0.97809027
0.99167136
1.0036574
1.0172738
1.0382837
1.0647015
1.0837401
14.657462
3.9832778
1.4507448
0.99794088
0.92728028
0.91189367
0.90973202
0.91038605
0.9124544
0.91519459
0.91870807
0.92201144
0.92574538
0.92963128
0.93427151
0.93932406
0.94536583
0.95208492
0.959857
0.96970948
0.98220547
0.99635499
1.0088097
1.0224246
1.0422844
1.0700654
1.0897824
15.430348
4.1135053
1.4740448
1.0072638
0.93483781
0.91700738
0.91424001
0.9146077
0.91640622
0.91855912
0.92176794
0.92536186
0.92962862
0.93397244
0.9392706
0.9450539
0.95151321
0.95858766
0.96641637
0.97594553
0.9882666
1.0020491
1.0140156
1.0269912
1.0457784
1.0732644
1.0956988
16.414585
4.6096079
1.577054
1.0362275
0.94821531
0.92529715
0.92106666
0.92095468
0.92237839
0.92472582
0.92722643
0.92994669
0.9337374
0.93806557
0.94314077
0.94912682
0.95566717
0.96307345
0.97165524
0.98159777
0.99451289
1.0086352
1.0206702
1.0333018
1.0510601
1.0770773
1.1018671
17.335304
4.7856649
1.6415612
1.0516041
0.95373787
0.92936996
0.92425664
0.92408024
0.92558289
0.92824056
0.9319214
0.93545423
0.93940583
0.94384377
0.94870378
0.95428527
0.96062911
0.96769071
0.97594864
0.98588559
0.99865393
1.0137564
1.0263527
1.0395007
1.056671
1.0830613
1.1096244
18.46026
5.0066376
1.6835835
1.0653992
0.96114208
0.93531634
0.92866902
0.92851458
0.92984993
0.93250236
0.9359947
0.93996166
0.94451307
0.9495512
0.95510985
0.96082504
0.96748538
0.97457762
0.98235625
0.99163631
1.0035345
1.0187293
1.0310326
1.0436958
1.0593309
1.0851463
1.1144201
19.539687
4.9636451
1.7417812
1.0877536
0.97567635
0.94481478
0.9372291
0.93615551
0.93733559
0.94003234
0.94279782
0.94596938
0.94987818
0.95426848
0.95980982
0.96584923
0.97293799
0.98066277
0.98876851
0.99803445
1.0097879
1.0253561
1.0383198
1.0509971
1.0643571
1.0890939
1.1199622
20.694313
5.7109728
1.9222152
1.1326504
0.98982873
0.95586272
0.94481648
0.94242947
0.94342964
0.94609209
0.94911218
0.95252095
0.95660106
0.9608878
0.96609108
0.97199895
0.97866919
0.98645351
0.99465572
1.0039439
1.0155789
1.0314013
1.0455447
1.0584865
1.0702931
1.0928129
1.1251305
22.092762
5.9269121
1.943564
1.1393835
0.99308257
0.96110731
0.9483046
0.94599556
0.94688093
0.94951742
0.95286222
0.95717576
0.96210665
0.96719853
0.97291621
0.97931077
0.98615269
0.99356927
1.0016134
1.0101038
1.0210151
1.036338
1.0511179
1.0645819
1.0754614
1.0960603
1.1288924
23.46657
5.4178224
1.8979532
1.1346816
0.99728414
0.96532105
0.95279646
0.95056313
0.95117053
0.9542558
0.95818626
0.96250995
0.96783251
0.97341128
0.97947584
0.98602563
0.99303932
1.0009561
1.0092592
1.0183481
1.0286549
1.0441786
1.0590397
1.0734847
1.0838782
1.101613
1.1340323
24.785053
5.6747489
1.9475056
1.1488868
1.0126954
0.97527015
0.96506998
0.96136016
0.96160284
0.96464566
0.96827199
0.97206583
0.97659555
0.98185366
0.98788534
0.99424781
1.0012209
1.0087814
1.0166126
1.0254135
1.0349199
1.0496397
1.0644625
1.0794324
1.0901089
1.1047979
1.1360893
26.327999
7.3268862
2.2653666
1.22888
1.0498327
1.00044
0.98560311
0.97685869
0.97605842
0.9769845
0.97980331
0.98323955
0.98674186
0.99095999
0.99582339
1.0012861
1.0076733
1.0150182
1.0233407
1.0326314
1.0424449
1.0571389
1.0722356
1.0879509
1.1000398
1.1127087
1.1409523
28.085178
8.2607307
2.4322824
1.2877897
1.0587761
1.0171997
0.99228891
0.98547319
0.9833249
0.98441453
0.98741401
0.99102918
0.99501954
0.99970344
1.0049004
1.0106146
1.0167499
1.0234767
1.0310772
1.0397045
1.048821
1.0625185
1.0769814
1.0930313
1.1058102
1.1168974
1.142713
30.024834
7.4110631
2.3479939
1.2747669
1.0594767
1.020237
0.99480306
0.98928859
0.98644813
0.98824745
0.99118399
0.99501356
0.99923827
1.0041631
1.0097252
1.015591
1.0226465
1.0303776
1.0388324
1.0480962
1.0574546
1.0710691
1.0853295
1.1015888
1.1158585
1.1262166
1.1481609
31.868712
6.2554427
2.2342455
1.2612868
1.0639848
1.023351
1.0006481
0.99471842
0.99171894
0.99330235
0.9964407
1.0007413
1.0058634
1.0114057
1.0175126
1.0235207
1.0297272
1.0367348
1.0445901
1.0537879
1.0625881
1.0756427
1.089726
1.1059532
1.121197
1.131354
1.1517512
33.739137
6.4714557
2.2926597
1.2838015
1.0859855
1.0337283
1.0176395
1.0069865
1.0042433
1.0051111
1.0079589
1.0128186
1.0175251
1.0226826
1.0286173
1.0352304
1.0424123
1.0499428
1.0572915
1.0658137
1.0732563
1.0850514
1.0977318
1.1129856
1.1289973
1.1382643
1.1569988
35.8423
8.8748724
2.8118236
1.4185263
1.1551295
1.0692156
1.0544533
1.0331594
1.026975
1.0239308
1.0247987
1.0274714
1.030657
1.0344496
1.0391227
1.0444298
1.0507412
1.0576923
1.0653049
1.0742681
1.0821463
1.0937004
1.106324
1.1212043
1.13769
1.1472292
1.16426
38.244619
11.028125
3.2652143
1.5354658
1.1827703
1.0943534
1.0695996
1.0466915
1.0379981
1.0335673
1.0337918
1.0360143
1.0397204
1.0438246
1.0487107
1.0540868
1.0601761
1.067033
1.0741704
1.0824584
1.0891088
1.099639
1.1113823
1.1253117
1.142558
1.1522634
1.1687363
40.739674
9.9773081
3.1425012
1.5141502
1.1745305
1.0954448
1.0695984
1.0491323
1.0401708
1.0366141
1.0372113
1.0398013
1.0432904
1.0475231
1.052565
1.0583623
1.0645842
1.0718671
1.0797054
1.0892175
1.0975393
1.108339
1.1204915
1.1336278
1.1520299
1.1623307
1.1776636
43.277897
8.0705123
2.7527393
1.4463574
1.1600846
1.0962395
1.070102
1.0524353
1.0430282
1.04028
1.0413773
1.0450115
1.0494194
1.0542655
1.059621
1.0659227
1.0723417
1.0791061
1.0860411
1.0944378
1.1017339
1.1122914
1.1243705
1.1369458
1.1556513
1.1664465
1.1812683
45.942336
7.7948503
2.6465624
1.4385657
1.1613358
1.1001957
1.0730067
1.0602819
1.0496638
1.0472899
1.04713
1.0498884
1.0541379
1.0589226
1.0645399
1.0708732
1.0781282
1.0857653
1.093491
1.1026749
1.1105474
1.1206808
1.1323717
1.1441254
1.1624809
1.1743161
1.1894819
48.754036
8.0666158
2.6604216
1.4439508
1.1661222
1.1097763
1.0803696
1.0715294
1.0590179
1.0553812
1.0544915
1.0571136
1.0612287
1.0664661
1.072241
1.0783066
1.0849636
1.0919889
1.0991753
1.1079237
1.1157351
1.1256022
1.1373994
1.1480069
1.1660319
1.1788327
1.1940025
51.710219
8.8060497
2.7113281
1.4549996
1.1752179
1.1193171
1.092752
1.0837502
1.0704826
1.0650187
1.0631211
1.0651018
1.0691579
1.0743993
1.0802922
1.0866704
1.0932223
1.1005063
1.1071263
1.1156059
1.1224951
1.1317378
1.1432479
1.1525151
1.1695656
1.182314
1.1975748
54.76593
9.9494467
2.8322417
1.4792123
1.1903993
1.1291778
1.1067708
1.0951407
1.0828483
1.0767955
1.0748625
1.076525
1.0807003
1.0854286
1.0904647
1.0958141
1.1015325
1.1078881
1.113919
1.1220949
1.12897
1.1377329
1.1493513
1.1581749
1.174787
1.187327
1.2031953
57.899666
10.950952
3.1122528
1.5380488
1.2218444
1.1458183
1.1246585
1.1105006
1.0987849
1.0899809
1.0872534
1.0879616
1.0915982
1.0959977
1.100743
1.1058942
1.1111282
1.117315
1.1226604
1.1302801
1.136425
1.1438671
1.1544793
1.1620238
1.1770752
1.1893545
1.2045643
61.062371
11.757696
3.4856416
1.6593912
1.2685919
1.1668652
1.1435767
1.1263497
1.1148972
1.1044008
1.1005454
1.1001404
1.1023239
1.1056569
1.1093371
1.1133023
1.1174676
1.1228037
1.1275831
1.1348608
1.1408825
1.1479151
1.1584291
1.1655121
1.1791537
1.1904063
1.2060267
64.252886
12.398422
3.7745264
1.7679187
1.3096692
1.1889909
1.160645
1.1400248
1.1273681
1.1144688
1.1090324
1.1073484
1.1084691
1.111301
1.1151691
1.1192473
1.1236227
1.1290302
1.1339571
1.1412862
1.1475741
1.1544002
1.164929
1.1717642
1.1843284
1.1944757
1.2098384
67.457214
12.96267
3.9580643
1.8410018
1.3385479
1.2065725
1.1725403
1.1514846
1.1373451
1.1236409
1.1164607
1.1137342
1.1139173
1.1159983
1.1191775
1.1229989
1.1271151
1.1323369
1.1372676
1.1443872
1.1510816
1.1574127
1.1680523
1.1744167
1.1864826
1.195919
1.2108493
70.56382
13.330448
4.04544
1.8813602
1.3545736
1.2178402
1.1794406
1.1566282
1.1417942
1.1277035
1.1197891
1.1164425
1.1163714
1.1184604
1.1219529
1.1263503
1.1307548
1.136295
1.141353
1.1482321
1.1552278
1.1609876
1.1716376
1.1781339
1.1896269
1.19837
1.2122294
73.623019
13.778535
4.1021957
1.9035135
1.362067
1.2239971
1.1818051
1.1605271
1.1450464
1.1316834
1.1228946
1.118689
1.1182056
1.1199174
1.1233968
1.1277465
1.1322157
1.1379553
1.1432334
1.1503586
1.1576784
1.1634983
1.1740931
1.1807732
1.1927711
1.2005159
1.2139762
76.523687
14.133708
4.1321141
1.9068716
1.362842
1.2251975
1.1820335
1.1615802
1.1460497
1.1332326
1.1242989
1.1204091
1.1199318
1.1218669
1.1254437
1.1300571
1.1347245
1.1405796
1.1459289
1.1529226
1.1606225
1.1662618
1.1769557
1.1836978
1.1954195
1.2024944
1.2147758
79.251732
14.585282
4.1587212
1.9072501
1.3605282
1.224854
1.1816832
1.1629161
1.1478648
1.1355093
1.1263011
1.1220219
1.1215532
1.1234789
1.1271317
1.1317897
1.1364475
1.1423509
1.14776
1.1545587
1.1622818
1.1678388
1.1782291
1.1849179
1.1967592
1.2038356
1.2152816
81.758419
14.983215
4.1907792
1.903411
1.3556857
1.2221211
1.180718
1.1640085
1.1498845
1.1385668
1.1289314
1.1242951
1.1233336
1.1249352
1.128297
1.1326676
1.1370869
1.1427395
1.1480375
1.1546754
1.162347
1.1678117
1.1780169
1.1852212
1.1973586
1.2044838
1.2152168
83.986547
15.471698
4.2325304
1.9024733
1.351272
1.2194702
1.1804003
1.1644808
1.150978
1.1397849
1.1302748
1.1255437
1.1245378
1.1259579
1.1293118
1.1336723
1.1382267
1.143803
1.1490924
1.1555253
1.1631648
1.1686274
1.1785932
1.1857629
1.1977124
1.2049015
1.2150681
85.892312
15.95612
4.2859512
1.9039095
1.3480126
1.2175175
1.1803494
1.1654272
1.1532457
1.1420318
1.1328144
1.1276209
1.1263016
1.1273686
1.1304664
1.1345208
1.139021
1.1444788
1.149799
1.1560081
1.1635846
1.1691655
1.1786216
1.1858068
1.1974566
1.2046034
1.2146777
87.432804
16.46385
4.358828
1.9080694
1.3469467
1.2166834
1.1809081
1.1665479
1.1545314
1.1438505
1.1345626
1.129278
1.1276681
1.1285161
1.1312551
1.1350196
1.1390842
1.1443631
1.1497121
1.1558869
1.163404
1.1690502
1.1782375
1.1855251
1.1970788
1.2040338
1.2141978
88.581435
16.928612
4.4932115
1.9215915
1.3488679
1.2174639
1.1834902
1.1689989
1.1569221
1.1455678
1.1360573
1.1303924
1.1285271
1.1291109
1.1315889
1.1351921
1.1391769
1.1442109
1.1494149
1.1555296
1.1629865
1.1686972
1.1778071
1.1852568
1.1968099
1.2033561
1.2137304
89.314638
17.309014
4.7047661
1.9481142
1.354338
1.2201266
1.1869351
1.1710383
1.1589536
1.1471865
1.1376211
1.1315221
1.1294201
1.1298543
1.1321335
1.1355231
1.1393291
1.1440917
1.1491469
1.1551571
1.1625282
1.168497
1.1774397
1.1849388
1.1966161
1.202832
1.2133475
89.5785
17.471785
4.8514921
2.0081635
1.3693006
1.2265447
1.1892937
1.1719213
1.1595644
1.1475059
1.1379633
1.1317627
1.1296134
1.1298616
1.1320729
1.1354768
1.1394283
1.1442145
1.1492869
1.1551763
1.1621691
1.1683654
1.1773537
1.1850775
1.1964286
1.2025489
1.2132439
89.440476
17.414355
4.9196785
2.057866
1.3894112
1.2324148
1.1909433
1.1727302
1.1599266
1.1476076
1.1379781
1.1318727
1.129843
1.129972
1.1321348
1.1354946
1.1393548
1.1441148
1.1492093
1.1550932
1.162222
1.1685767
1.177224
1.1849143
1.1962261
1.2022573
1.2129521
88.919561
17.384667
4.9646101
2.0852925
1.4004443
1.2364356
1.1920877
1.1729615
1.1597628
1.1472698
1.1375759
1.1317278
1.1298502
1.1299266
1.1321361
1.135377
1.139354
1.1441634
1.1493803
1.1553227
1.1621493
1.1685438
1.1771686
1.1855329
1.1960194
1.2022274
1.2138223
87.923199
17.406772
4.9938093
2.1155908
1.4135047
1.2403085
1.1931483
1.1730653
1.1596474
1.1469822
1.1372753
1.1316158
1.1298755
1.1300679
1.1322316
1.1355092
1.1393439
1.1443173
1.1493436
1.1555689
1.1622476
1.1695646
1.1783358
1.1866678
1.1969385
1.2035967
1.2149301
86.539512
17.294455
5.0171178
2.1352383
1.4196116
1.2420697
1.1933437
1.1729638
1.1592346
1.1467803
1.1368352
1.131832
1.1300818
1.1307073
1.1329896
1.1364704
1.1403488
1.1449694
1.1504233
1.1564613
1.1635508
1.16996
1.1791351
1.1872575
1.1975244
1.2044138
1.2169622
84.753475
17.274099
5.0450172
2.14417
1.4204478
1.242186
1.1928622
1.1722283
1.1585926
1.1458647
1.1364952
1.1317488
1.1308253
1.1312915
1.1339742
1.1372284
1.1414478
1.1462035
1.1513989
1.1576482
1.1642202
1.1722827
1.1810746
1.1896132
1.1988399
1.2075228
1.2204231
82.625587
17.020776
5.0421865
2.1450082
1.4193384
1.2412149
1.1920579
1.1714738
1.1578482
1.1450957
1.1358416
1.1319946
1.131115
1.1322289
1.1352952
1.138844
1.1427527
1.1473374
1.1528767
1.1594277
1.1666119
1.1736779
1.1826456
1.1919139
1.2010217
1.2091478
1.2228583
80.250338
16.741836
4.9851262
2.116573
1.4083519
1.2368119
1.1895132
1.1696656
1.1565003
1.1438965
1.1352717
1.1320745
1.1314823
1.132924
1.1360012
1.1399406
1.1446254
1.1498648
1.1552653
1.1612248
1.1679873
1.1763825
1.1860384
1.1934364
1.2036157
1.2147229
1.2285938
77.51343
16.539104
4.9219407
2.0923328
1.3988924
1.2330854
1.1873729
1.1679559
1.1547446
1.1424001
1.1345131
1.1322417
1.1317994
1.134152
1.1375798
1.1416313
1.1459385
1.1510299
1.1568722
1.1636347
1.1717102
1.1797022
1.1881262
1.1977989
1.2083828
1.2184352
1.232816
74.773255
15.72594
4.681972
2.0100664
1.3744555
1.2249504
1.1836746
1.1658447
1.1526944
1.1404111
1.1337714
1.1323692
1.1320767
1.1348786
1.1386495
1.1432525
1.1485329
1.1538835
1.1603234
1.1672978
1.1743129
1.1825723
1.1932752
1.2014862
1.2115859
1.2250468
1.2415417
71.695217
15.370356
4.5482747
1.9623967
1.3570628
1.2194553
1.1806652
1.1639932
1.150777
1.1385156
1.1336022
1.1322605
1.1329768
1.1361207
1.1409644
1.145275
1.1508087
1.1570188
1.1635045