/*--------------------------------*- C++ -*----------------------------------*\
| =========                 |                                                 |
| \\      /  F ield         | OpenFOAM: The Open Source CFD Toolbox           |
|  \\    /   O peration     | Version:  2406                                  |
|   \\  /    A nd           | Website:  www.openfoam.com                      |
|    \\/     M anipulation  |                                                 |
\*---------------------------------------------------------------------------*/
FoamFile
{
    version     2.0;
    format      ascii;
    arch        "LSB;label=32;scalar=64";
    class       volScalarField;
    location    "11";
    object      p_0;
}
// * * * * * * * * * * * * * * * * * * * * * * * * * * * * * * * * * * * * * //

dimensions      [1 -1 -2 0 0 0 0];

internalField   nonuniform List<scalar> 
96472
(
1.0036214
1.0060354
1.0065005
1.0077579
1.0094782
1.0116986
1.0146487
1.0178609
1.0204856
1.0223814
1.0241376
1.0260113
1.027759
1.0291768
1.0302084
1.0312006
1.0321202
1.0331336
1.033925
1.0344771
1.0350809
1.035402
1.0354321
1.0353583
1.0352794
1.0349357
1.0344653
1.0338414
1.033082
1.0322282
1.0313398
1.0303704
1.0293601
1.0283506
1.027402
1.026551
1.0257921
1.0251208
1.0245197
1.0241393
1.0236042
1.0234313
1.0231292
1.0225009
1.0225806
1.0219367
1.0216455
1.0212968
1.0208037
1.0203587
1.0199851
1.0193757
1.0191814
1.0182974
1.0182152
1.003603
1.0058311
1.0061684
1.0073361
1.00907
1.0113617
1.0144086
1.0177529
1.0205191
1.0224988
1.0242982
1.0261527
1.0278781
1.0293857
1.030527
1.0314321
1.0323642
1.0333985
1.0344112
1.0351018
1.0354824
1.0358149
1.0359388
1.0358965
1.0357501
1.0355372
1.0351228
1.0345669
1.0338638
1.0330547
1.0322096
1.0312732
1.0303003
1.0292847
1.0282777
1.0273634
1.0265248
1.0257733
1.0251933
1.0245585
1.0242061
1.0236452
1.0232937
1.0230172
1.0224632
1.0221353
1.0217886
1.0212193
1.0208433
1.0203926
1.0197038
1.0195146
1.0187564
1.0182649
1.017876
1.0035562
1.0056056
1.0058332
1.0069431
1.0087262
1.0111003
1.0142441
1.0177084
1.0206098
1.0226714
1.0244771
1.0263
1.0279767
1.0294405
1.030701
1.0317018
1.0327116
1.0336759
1.0346627
1.0355909
1.0360442
1.0362283
1.0363142
1.0362724
1.0360558
1.0358379
1.0355076
1.0350367
1.0344349
1.033751
1.0329409
1.0320988
1.0311547
1.0301711
1.0292074
1.0282639
1.0273504
1.0265671
1.0257802
1.0252376
1.0245497
1.0242035
1.0236498
1.0231836
1.0227752
1.022356
1.0217264
1.0214085
1.0208963
1.0202058
1.0200029
1.0192583
1.0186113
1.0184454
1.0177777
1.0035192
1.0053693
1.0054999
1.0065926
1.0084347
1.010904
1.014156
1.0177307
1.0207658
1.0229081
1.0246833
1.0264557
1.0280822
1.0295007
1.0307054
1.0318306
1.0329124
1.0340422
1.0350182
1.0358217
1.0364954
1.0367198
1.0367346
1.0366127
1.0364803
1.036226
1.0359227
1.0355143
1.0349977
1.0343586
1.0336518
1.0328651
1.0320075
1.031082
1.0301246
1.0291851
1.0282797
1.0273587
1.0266687
1.0258705
1.0253042
1.0245735
1.0241274
1.0235112
1.0230668
1.022444
1.0220808
1.0214811
1.0207581
1.0205373
1.0197308
1.0190999
1.0188233
1.0182601
1.0171456
1.0034485
1.0051376
1.0051861
1.0062977
1.008221
1.0107817
1.0141275
1.0178146
1.0209796
1.0232046
1.0249529
1.0266223
1.0281721
1.0295848
1.0307355
1.0318296
1.0328935
1.0341276
1.0353217
1.0361107
1.0366687
1.037035
1.0370335
1.0369353
1.0368192
1.0366445
1.0363868
1.0360528
1.0356076
1.0350509
1.0343942
1.0336774
1.0328762
1.0320323
1.0310924
1.0301518
1.0291865
1.0283673
1.027406
1.0266642
1.0258804
1.0253113
1.0245607
1.0240629
1.0233443
1.0228712
1.0222352
1.0215872
1.0212767
1.0203998
1.0198234
1.0193863
1.0190208
1.0175182
1.0180347
1.0034053
1.0049258
1.0049208
1.0060751
1.0080778
1.0107297
1.0141635
1.0179498
1.0212406
1.0235473
1.0252684
1.0268359
1.0282585
1.0296051
1.0308252
1.0318698
1.0329707
1.0341086
1.0353174
1.0363964
1.0369086
1.0371831
1.0372716
1.0371742
1.0369541
1.0368015
1.0366186
1.0363717
1.0360342
1.0356021
1.0350671
1.0344361
1.0337254
1.0329249
1.0320654
1.0311529
1.0302289
1.0292165
1.0284144
1.0275321
1.0267368
1.0258812
1.0252331
1.0244555
1.0238728
1.0231807
1.0225068
1.0220225
1.0212061
1.0205018
1.0202349
1.0193523
1.0184157
1.0182866
1.0177499
1.0033312
1.0047346
1.0046973
1.0059238
1.0080144
1.0107391
1.0142518
1.0181173
1.0215248
1.023917
1.025606
1.0270744
1.0283801
1.029602
1.0307791
1.031884
1.0330493
1.034248
1.0353623
1.0364257
1.0371998
1.0374329
1.0374969
1.037382
1.0371691
1.036975
1.0368023
1.0366208
1.0363721
1.0360497
1.0356463
1.0351148
1.0344858
1.033781
1.0329843
1.0321005
1.031153
1.0302986
1.0292705
1.0283751
1.0275063
1.0267439
1.0258492
1.0251497
1.0243588
1.0236324
1.0230295
1.022224
1.0214235
1.0212106
1.0199197
1.0197107
1.0185966
1.0190166
1.0168342
1.0032932
1.0045944
1.0045486
1.0058471
1.0080265
1.0108219
1.014382
1.0183065
1.0218092
1.0242857
1.0259663
1.0273273
1.0285121
1.0296475
1.0307176
1.031799
1.032907
1.0342198
1.0355159
1.0364635
1.0372504
1.0376883
1.0376749
1.0375277
1.0374016
1.0372194
1.0370637
1.0369251
1.0367268
1.0364648
1.0361435
1.0357192
1.0352081
1.034601
1.0338658
1.0330341
1.0321812
1.0311569
1.0303013
1.029359
1.0283944
1.0274657
1.0266595
1.0257272
1.0249787
1.0242016
1.0233221
1.0225696
1.0221637
1.0209425
1.020546
1.0195505
1.0196462
1.0176884
1.0180198
1.0032402
1.0045081
1.004474
1.005866
1.0081094
1.0109518
1.014541
1.0184973
1.0220857
1.0246395
1.0263277
1.0275973
1.0286553
1.0296864
1.0307299
1.0317424
1.0327938
1.0340207
1.0354058
1.0365924
1.0372792
1.0377266
1.0378307
1.0377175
1.0375051
1.0373364
1.0372026
1.0371024
1.0369804
1.0367945
1.0365533
1.0362353
1.0358181
1.0353171
1.0346873
1.0339507
1.0330471
1.0322052
1.0311819
1.0301874
1.0292987
1.0283491
1.0273434
1.0265576
1.0255831
1.0247013
1.0239798
1.023264
1.0221366
1.0214038
1.0211757
1.0198477
1.0193702
1.0181581
1.0186339
1.0032333
1.0044826
1.0044802
1.0059615
1.0082673
1.0111442
1.0147192
1.018677
1.0223398
1.0249637
1.0266663
1.0278641
1.0287976
1.0296968
1.0307082
1.0317135
1.032817
1.0340062
1.0352313
1.0365213
1.0374117
1.0377865
1.0379664
1.0379149
1.0376611
1.0374628
1.0373138
1.0372324
1.0371739
1.0370664
1.0369028
1.0366556
1.0363297
1.0359097
1.0353785
1.034692
1.0339292
1.0330153
1.0320799
1.0311515
1.0300757
1.0291306
1.0282387
1.0271304
1.0262658
1.0254767
1.0244913
1.0234336
1.022745
1.022579
1.020408
1.0209068
1.019153
1.0196623
1.0177357
1.0032253
1.0045228
1.0045752
1.0061499
1.0084874
1.0113617
1.0149074
1.0188358
1.0225513
1.0252472
1.0269625
1.0280998
1.0289275
1.0297301
1.0306223
1.0316101
1.0327028
1.0339719
1.0352593
1.0363928
1.0374021
1.0379564
1.0381171
1.0380461
1.0378991
1.0377123
1.0375462
1.0374502
1.0373773
1.0373156
1.0371918
1.0370189
1.0367715
1.0364481
1.0359769
1.0353817
1.0346711
1.0338408
1.0329508
1.0318973
1.0310043
1.0299843
1.0288964
1.0279808
1.0271009
1.0259022
1.0250105
1.0243013
1.0236359
1.0217897
1.0219986
1.0208704
1.0197217
1.0196102
1.0179721
1.0032591
1.0046365
1.0047641
1.0064091
1.008771
1.0116105
1.0150978
1.0189785
1.0227152
1.0254804
1.0272146
1.0282964
1.0290298
1.0297477
1.0305716
1.0314999
1.0325005
1.0337293
1.035156
1.0363862
1.0373026
1.0379961
1.0382491
1.0382211
1.0381118
1.0379401
1.0377686
1.0376584
1.0375849
1.0375339
1.037459
1.0373416
1.0371382
1.0368743
1.0364948
1.0359882
1.0353027
1.0345953
1.0336417
1.0327748
1.0317188
1.0306918
1.0297188
1.0287584
1.0274839
1.0267463
1.0257624
1.0248721
1.0234413
1.0230735
1.022491
1.0205836
1.0210587
1.0191514
1.0192869
1.0033071
1.004817
1.0050208
1.0067374
1.0090927
1.011906
1.0152812
1.019099
1.0228348
1.0256583
1.0274193
1.0284647
1.029105
1.0297341
1.0305154
1.0314231
1.0324405
1.0335901
1.0348733
1.0362766
1.0372783
1.0379486
1.0383475
1.0384719
1.0383351
1.0381506
1.0379809
1.0378584
1.0378022
1.0377494
1.0376982
1.0376091
1.0374534
1.037196
1.0368943
1.0364046
1.0359134
1.0351067
1.0343665
1.0333989
1.0324254
1.0314433
1.0304272
1.0292219
1.0284562
1.027258
1.0263516
1.025027
1.024494
1.0239078
1.0219701
1.0218117
1.0212594
1.0194331
1.0197648
1.0033883
1.0050813
1.0053479
1.0071338
1.0094735
1.0122218
1.0154727
1.0191875
1.0229111
1.0257907
1.0275738
1.0285946
1.0291829
1.0297215
1.030432
1.0313087
1.0323678
1.0335541
1.0347851
1.0360405
1.0372229
1.0379578
1.0384123
1.038608
1.0385608
1.0384257
1.0382459
1.0381275
1.0380508
1.0380065
1.0379477
1.03786
1.0377437
1.037549
1.0372216
1.0368771
1.0362627
1.035714
1.0348505
1.0339657
1.0330945
1.0320634
1.0309407
1.0300797
1.028905
1.0278813
1.026746
1.0260332
1.0252409
1.023279
1.0233744
1.0224293
1.0208949
1.0208238
1.0197405
1.0034887
1.0053937
1.005764
1.0075709
1.0098737
1.0125232
1.0156454
1.019257
1.0229364
1.0258726
1.0276906
1.0286893
1.029236
1.0297224
1.0303693
1.0312183
1.0321808
1.0333417
1.0346927
1.035918
1.0370376
1.037953
1.0384815
1.0386866
1.0387706
1.0387057
1.0385623
1.0384208
1.0383363
1.0382772
1.0382165
1.0381342
1.0380239
1.0378482
1.0376181
1.0371706
1.0367798
1.0360589
1.0353423
1.0345714
1.0335674
1.0325862
1.0316639
1.030533
1.0293966
1.0285103
1.0274642
1.0264777
1.0249144
1.0248357
1.0234668
1.0226149
1.0214637
1.0215244
1.0195502
1.0035989
1.0057533
1.0062293
1.0080509
1.0102824
1.0128404
1.0158101
1.019298
1.0229331
1.0259075
1.0277735
1.0287604
1.0292671
1.0297189
1.0303308
1.0311424
1.0320798
1.0331584
1.0344203
1.0357894
1.0368469
1.0377946
1.0384468
1.0388058
1.0389586
1.03893
1.0388424
1.0387134
1.0386312
1.0385618
1.0384962
1.038433
1.0382898
1.0381334
1.0378474
1.0375636
1.0370364
1.0364769
1.0358192
1.0348824
1.034079
1.0331162
1.0320395
1.0309612
1.0301027
1.0288495
1.0278508
1.0267083
1.0260081
1.0251131
1.0235454
1.0231712
1.0225375
1.0208499
1.0208212
1.0037284
1.0061641
1.0067024
1.0085599
1.0107059
1.0131322
1.0159441
1.0192981
1.0228805
1.0259075
1.0278259
1.0288259
1.0293065
1.0297187
1.0303039
1.0310817
1.0320586
1.0331456
1.0342901
1.0355363
1.0367474
1.0376354
1.0383596
1.03886
1.0390681
1.0391259
1.0390937
1.0390146
1.0389386
1.0388737
1.0388067
1.0387292
1.0386212
1.038431
1.0381888
1.0378253
1.0373854
1.0368725
1.036068
1.0353982
1.0344546
1.0334513
1.0325083
1.0315122
1.0303477
1.0293277
1.0283097
1.0273149
1.0264403
1.0246975
1.0248916
1.0232676
1.0225288
1.0213869
1.021695
1.0038515
1.0065684
1.0072286
1.0090577
1.0111161
1.013393
1.0160481
1.0192862
1.0228105
1.0258695
1.0278403
1.0288684
1.0293543
1.029751
1.0302832
1.0310348
1.0319716
1.0330465
1.0342449
1.0353646
1.0365316
1.037523
1.0382896
1.0388127
1.0391164
1.0392864
1.0393225
1.0392938
1.0392439
1.0391791
1.039126
1.0390377
1.0389384
1.0387912
1.0385333
1.0381631
1.0377719
1.0371158
1.0365493
1.0356607
1.03479
1.0339378
1.0328422
1.0318556
1.0307243
1.0297479
1.0287126
1.0275103
1.0263779
1.0259595
1.0246166
1.023693
1.0225511
1.0231178
1.0204865
1.0039831
1.0069709
1.0077223
1.0095568
1.0115006
1.0136284
1.0161179
1.0192057
1.0226884
1.0257874
1.0278472
1.0289032
1.0293969
1.0297992
1.0303165
1.0310496
1.0319247
1.0329128
1.0340525
1.0352598
1.0362907
1.0373032
1.038133
1.0387256
1.0391327
1.0393822
1.0394897
1.039523
1.0395079
1.0394681
1.0394352
1.0393696
1.039248
1.0390904
1.0388133
1.0385245
1.0380043
1.037532
1.0368004
1.0360509
1.035203
1.0341797
1.0332593
1.0321047
1.0311777
1.0300692
1.0287995
1.0279654
1.0270588
1.0260336
1.0246058
1.024362
1.0233228
1.0225675
1.0209559
1.0040936
1.0073695
1.0082059
1.010021
1.011857
1.0138299
1.0161519
1.0191318
1.0225709
1.0256826
1.027819
1.0289232
1.0294472
1.0298498
1.0303724
1.0310848
1.0319531
1.0329249
1.0339323
1.0350515
1.0361095
1.0370679
1.0379089
1.038608
1.0390974
1.0393944
1.0395786
1.0396863
1.0397332
1.0397487
1.0397277
1.0397008
1.0395971
1.0394085
1.0391652
1.0387757
1.0383886
1.0378301
1.0371247
1.0363883
1.0355138
1.0345558
1.0335323
1.0325463
1.0314436
1.0302535
1.0293044
1.0283551
1.0271851
1.0259038
1.0256934
1.0240887
1.023998
1.0215874
1.0228581
1.0042088
1.0077235
1.008677
1.0104576
1.0121606
1.0139839
1.0161687
1.0190317
1.0223962
1.025558
1.0277712
1.0289302
1.0295005
1.0299231
1.0304495
1.0311464
1.0319927
1.0329152
1.0339057
1.0348895
1.0359223
1.0368472
1.0377078
1.0384243
1.0389591
1.0393427
1.0396134
1.0397963
1.0399129
1.0399842
1.0400159
1.040004
1.0399438
1.0397906
1.0395162
1.0391792
1.0387184
1.038115
1.0375287
1.0367147
1.0357977
1.0349189
1.0338819
1.0328797
1.0317221
1.0306677
1.0297641
1.0284137
1.0274154
1.026764
1.0255252
1.024526
1.0238536
1.0227372
1.0227971
1.0042958
1.00806
1.0090766
1.0108372
1.0124147
1.0141013
1.0161247
1.0188799
1.022204
1.0254086
1.0277031
1.0289246
1.0295466
1.0300161
1.0305415
1.0312246
1.03203
1.0328989
1.0338186
1.0347579
1.0356893
1.0366138
1.0374725
1.038208
1.0388074
1.0392581
1.0395919
1.0398408
1.0400332
1.0401682
1.0402488
1.0402744
1.0402488
1.0401029
1.0398668
1.0395133
1.0390197
1.0384891
1.037765
1.0370221
1.036214
1.0352138
1.0342758
1.0331324
1.0321295
1.0311053
1.02987
1.0288573
1.0279765
1.0268685
1.0255064
1.0254586
1.0233474
1.0241376
1.0217494
1.0043837
1.0083303
1.0094312
1.0111732
1.0126261
1.0141614
1.0160636
1.0187055
1.022005
1.0252335
1.027623
1.0289115
1.0295885
1.0300917
1.0306327
1.0313021
1.0320985
1.0329298
1.0337485
1.0346166
1.03548
1.0363721
1.0372086
1.0379869
1.0386228
1.0391256
1.0395213
1.0398295
1.0400906
1.0402978
1.0404407
1.0405277
1.0405213
1.0404123
1.0401949
1.0398098
1.0393738
1.0387737
1.0381179
1.0373525
1.0364973
1.035606
1.0345393
1.0335962
1.032468
1.0313894
1.0303043
1.0293088
1.0281904
1.0269472
1.0264711
1.0251287
1.0242392
1.0238798
1.0221011
1.0044397
1.0085721
1.0097271
1.0114443
1.0127891
1.0142089
1.0159977
1.0184858
1.0217974
1.025061
1.0275171
1.0288927
1.029622
1.0301399
1.0307069
1.0313827
1.0321764
1.0329694
1.0337345
1.0345041
1.0353082
1.0361315
1.0369627
1.037762
1.0384259
1.0389758
1.0394146
1.0397798
1.0401005
1.0403744
1.0405768
1.0407189
1.0407542
1.040701
1.040476
1.0401563
1.039695
1.0391099
1.038448
1.0376985
1.0368438
1.0359281
1.0349872
1.0338799
1.0328627
1.0317826
1.0307384
1.0295716
1.0285644
1.0275774
1.0267178
1.0251674
1.0252214
1.0232406
1.0234076
1.0044961
1.008743
1.0099409
1.0116611
1.0129103
1.014226
1.0159141
1.0183611
1.0216065
1.024888
1.0274054
1.0288495
1.0296395
1.0301916
1.0307692
1.031453
1.0322256
1.0329719
1.0337171
1.0344169
1.0351542
1.0359318
1.0367517
1.0375384
1.0382361
1.0388151
1.0392897
1.0397041
1.0400667
1.0403925
1.0406558
1.0408475
1.0409377
1.0409071
1.0407302
1.0404331
1.0399911
1.0394356
1.0387501
1.0379815
1.0371902
1.036268
1.0353193
1.0342797
1.0332646
1.0321894
1.0310829
1.0300688
1.0290018
1.0279977
1.0267713
1.0260916
1.0249911
1.024183
1.0235276
1.0045197
1.008857
1.0100388
1.0117989
1.0129865
1.0142159
1.015853
1.0181593
1.0214232
1.0247237
1.0272981
1.0287984
1.0296311
1.030221
1.0308053
1.0314951
1.0322542
1.0329799
1.0336645
1.0343414
1.0350264
1.0357747
1.0365778
1.0373696
1.0380747
1.0386678
1.0391698
1.0396058
1.0399965
1.0403612
1.0406683
1.0409012
1.0410443
1.0410456
1.0409198
1.0406493
1.0402432
1.0397054
1.0390627
1.0383259
1.0375027
1.0366068
1.0356743
1.0347173
1.0336129
1.0326405
1.0315504
1.030484
1.0293892
1.0284155
1.0273923
1.0265156
1.025314
1.024946
1.0234639
1.0045493
1.0089011
1.0101119
1.0118632
1.013017
1.0142276
1.0157449
1.0180911
1.0212688
1.0245815
1.0271992
1.0287477
1.0296168
1.030201
1.0308032
1.0314803
1.0322305
1.0329589
1.0336212
1.0342667
1.0349289
1.0356455
1.0364056
1.0371742
1.0378898
1.0385169
1.0390446
1.0395019
1.0399137
1.0403052
1.0406457
1.040915
1.0410853
1.0411238
1.0410374
1.0408104
1.0404257
1.0399377
1.0392661
1.0385986
1.037797
1.0369618
1.0361153
1.0349998
1.0340538
1.0330749
1.031964
1.030875
1.0299221
1.0288244
1.0278047
1.026856
1.0261708
1.0248149
1.0245058
1.0231743
1.0230249
1.0223375
1.0219563
1.0220546
1.0216785
1.0209111
1.0208915
1.0210569
1.0206158
1.0198612
1.0196661
1.019583
1.0187785
1.0184032
1.0180316
1.0179482
1.0175911
1.0169141
1.0171074
1.0170667
1.0168007
1.0166969
1.0171635
1.0168622
1.0172525
1.0172966
1.0221698
1.0216449
1.0213252
1.0210108
1.0206455
1.0204132
1.020448
1.0199752
1.0196536
1.0194819
1.0192146
1.0188466
1.0182816
1.0181868
1.0175689
1.0173146
1.0169279
1.0165129
1.0166806
1.0160091
1.0162148
1.0159922
1.0161319
1.0159567
1.0163377
1.0162325
1.0164546
1.0208957
1.0204804
1.0202584
1.0199274
1.0197346
1.0194932
1.0191675
1.0190746
1.018877
1.0184742
1.0182105
1.0179513
1.017514
1.0171046
1.0169107
1.0162945
1.0162043
1.0158707
1.0153946
1.0156543
1.0150995
1.0152988
1.0151842
1.015272
1.0152666
1.0154645
1.0156346
1.0197522
1.0195563
1.0192861
1.0189225
1.018722
1.018602
1.0183556
1.018082
1.0177984
1.0177603
1.0172585
1.0169477
1.016889
1.0160694
1.0160675
1.0156801
1.0150826
1.0152623
1.0146429
1.0145858
1.0144973
1.0143651
1.0143176
1.0143901
1.014446
1.0145033
1.0146709
1.0188388
1.0185889
1.0182533
1.0181751
1.0178901
1.0175171
1.0175541
1.0173284
1.0168384
1.0167676
1.0165925
1.0160054
1.0158449
1.0156305
1.0148722
1.0150186
1.0144437
1.014047
1.0142289
1.0135777
1.0137416
1.0134555
1.0135643
1.0134421
1.013544
1.0136124
1.0136517
1.017984
1.0176688
1.0173952
1.0171889
1.0170633
1.0168566
1.0164385
1.0164744
1.0163203
1.0156322
1.0158174
1.0153643
1.0147372
1.0149951
1.0141442
1.0139
1.0139478
1.0131746
1.0132852
1.0129627
1.012846
1.0126951
1.0126706
1.0126114
1.0126145
1.0126912
1.012772
1.0169873
1.0170151
1.016585
1.0162945
1.0162516
1.0160818
1.0157535
1.0154721
1.015535
1.0150407
1.0146795
1.0148002
1.0140119
1.0138025
1.0138401
1.0128805
1.0130723
1.0126959
1.0122024
1.012382
1.0118922
1.0120194
1.0117052
1.0118875
1.0116645
1.0117645
1.0117599
1.0162922
1.0159409
1.0159712
1.01556
1.0153838
1.0153851
1.015105
1.0146641
1.0147111
1.0144815
1.013792
1.0139017
1.0135758
1.0127368
1.0131111
1.0123727
1.0119706
1.0121694
1.0113991
1.01158
1.0110865
1.011298
1.0108309
1.0110013
1.0108302
1.0109059
1.0107899
1.0155117
1.0152607
1.0153023
1.0149955
1.0145712
1.0145961
1.0145583
1.0139355
1.0137954
1.0139596
1.0130892
1.0128951
1.0131115
1.0119649
1.0121905
1.0119087
1.0110715
1.0114609
1.0106187
1.0109574
1.010236
1.0104458
1.0101784
1.0100659
1.0100438
1.0099344
1.0099115
1.0149149
1.0145698
1.0144386
1.0145512
1.0137887
1.0137843
1.0140251
1.0132157
1.0130976
1.0132273
1.0123863
1.0122992
1.0121512
1.0115306
1.0113256
1.0110428
1.0107958
1.0103399
1.0102097
1.0099201
1.0097866
1.0094789
1.0094956
1.0092121
1.0092063
1.0091068
1.0090196
1.0142256
1.0136681
1.0137314
1.0138209
1.0133244
1.013089
1.0132748
1.0127813
1.0122677
1.0125531
1.0120062
1.0113004
1.0116575
1.0108694
1.0105535
1.0105073
1.0097915
1.0100433
1.009215
1.0093694
1.0090316
1.0087355
1.008699
1.0084825
1.0083419
1.0082947
1.0081387
1.0135994
1.0132587
1.0132249
1.0132192
1.012759
1.0125069
1.0127464
1.0121164
1.0116982
1.011878
1.0112576
1.0109457
1.0107666
1.0102261
1.0101317
1.009611
1.0092473
1.009302
1.0085705
1.008659
1.0082687
1.0081631
1.0078597
1.0077421
1.0075687
1.0074541
1.0073562
1.0130003
1.0128624
1.0126942
1.0125742
1.0121645
1.0120804
1.0119403
1.0115662
1.0113133
1.0109564
1.0106879
1.010469
1.0098741
1.009748
1.0094397
1.0089488
1.0087845
1.008316
1.0082734
1.0077933
1.0075821
1.0074719
1.0071609
1.0070353
1.0068171
1.0065981
1.0065364
1.0125496
1.0120695
1.0120553
1.0120598
1.0114848
1.0114238
1.0113731
1.0108914
1.0107481
1.0104028
1.0099733
1.0098558
1.0093587
1.0090257
1.0087679
1.0084262
1.00807
1.0076954
1.0076105
1.0071575
1.006959
1.0067234
1.0064836
1.0062951
1.0060664
1.0058833
1.0057783
1.0116446
1.0116914
1.0113206
1.0113832
1.0111021
1.0106431
1.0108582
1.0102956
1.0099912
1.0100673
1.0090888
1.0093852
1.0088379
1.0081929
1.0084485
1.0074981
1.007718
1.0069969
1.0069449
1.0065795
1.0061799
1.0062712
1.0055441
1.0058457
1.0051414
1.0053665
1.0048225
1.0112129
1.0108386
1.0108438
1.0106448
1.0106734
1.0102248
1.0099623
1.0099763
1.0094823
1.0091043
1.0089311
1.0085196
1.0082706
1.007711
1.0076653
1.0071892
1.0067559
1.0067603
1.0060253
1.0061118
1.0055868
1.0055141
1.0049531
1.0051246
1.0044246
1.0046747
1.0040582
1.0105563
1.0105665
1.0103294
1.0102136
1.0101526
1.0095714
1.009432
1.0094248
1.0087431
1.0086609
1.0083334
1.0077787
1.0077628
1.0070862
1.00709
1.0064934
1.0062106
1.0061456
1.0054192
1.0055596
1.0048394
1.0049436
1.0043179
1.0045023
1.003685
1.0039424
1.0034748
1.0104509
1.0099259
1.0096509
1.0096774
1.0094543
1.0089083
1.0089745
1.0085395
1.0081367
1.0081193
1.0075466
1.0073563
1.0069522
1.0065788
1.0063621
1.0058798
1.0057897
1.0051878
1.0051308
1.0047
1.0044629
1.0040928
1.0037922
1.0037344
1.003216
1.0030805
1.0028428
1.0094253
1.0094145
1.0090236
1.0087701
1.0087952
1.0083544
1.0081539
1.0078585
1.0074672
1.0075076
1.0067564
1.0066537
1.0065437
1.0057391
1.0057758
1.0053685
1.0049932
1.0046869
1.0043478
1.0042688
1.0036135
1.0036424
1.0031778
1.0030078
1.0025745
1.00241
1.0021898
1.0085046
1.0083821
1.0081969
1.0080295
1.0079157
1.0077044
1.0073072
1.0071177
1.0070261
1.0064199
1.0062484
1.0061654
1.0056532
1.0053184
1.0049156
1.0049732
1.0042901
1.0040265
1.0038837
1.0034495
1.0032918
1.0026796
1.0028452
1.0020682
1.0021844
1.0016186
1.0015378
1.0077931
1.0076364
1.0074845
1.0073696
1.0070794
1.0068671
1.0067508
1.0064345
1.0062545
1.0057596
1.0055716
1.0055309
1.0048469
1.0047109
1.0044089
1.0042066
1.0037779
1.0033632
1.0032801
1.0028807
1.0025142
1.002217
1.0021502
1.0014672
1.0014703
1.001114
1.000823
1.0072208
1.0070178
1.0067746
1.0067205
1.0064731
1.0060328
1.0061443
1.0057563
1.0053425
1.0053428
1.0046844
1.004877
1.0042557
1.0038541
1.0040479
1.0030904
1.0034888
1.0025288
1.002729
1.0022889
1.0016448
1.0019619
1.0011547
1.0012488
1.0004151
1.0006675
1.000148
1.0063021
1.0061808
1.0059633
1.0058808
1.0055814
1.0052428
1.0053768
1.0048558
1.004629
1.0045095
1.0039749
1.004169
1.0033729
1.003337
1.0031762
1.0025419
1.0027416
1.0017702
1.0022612
1.0014429
1.0012113
1.0010445
1.0006748
1.0006188
0.99986958
0.99989419
0.99953426
1.0053591
1.0052089
1.0051007
1.0049188
1.0046224
1.0045621
1.0043172
1.0040468
1.0038703
1.0035396
1.0035115
1.003033
1.0028005
1.0026298
1.0023099
1.0021967
1.0015256
1.0015492
1.0012505
1.0010483
1.0004903
1.0003034
1.0001974
0.99985412
0.99941423
0.9991262
0.99894422
1.0044101
1.0043552
1.0041469
1.0039601
1.0038584
1.0036219
1.0035308
1.0031723
1.0029458
1.0029701
1.0025105
1.0023598
1.0019922
1.0018346
1.0018137
1.0011468
1.0011256
1.000666
1.0006625
1.0003009
0.99986327
0.99979533
0.99939163
0.99925294
0.99873649
0.99860308
0.99829359
1.0035257
1.0033539
1.0033188
1.0029986
1.0029664
1.0028769
1.0024755
1.0024876
1.0021011
1.0020201
1.0019349
1.0012909
1.0014941
1.0009274
1.0009759
1.0006399
1.0001457
1.0003295
0.99955997
0.99995729
0.99905653
0.99920227
0.99864346
0.99860031
0.99825526
0.99790204
0.99762304
1.0025477
1.0024308
1.0024183
1.0020779
1.0020777
1.0019364
1.0016181
1.0016577
1.0011961
1.0012258
1.0010744
1.0005358
1.0007262
1.0000848
1.0002959
0.9999059
0.9994822
0.99955758
0.99881001
0.99938023
0.99838739
0.99856366
0.99786905
0.99797194
0.9977111
0.99723512
0.99698414
1.0016716
1.0014536
1.0013487
1.0011795
1.0012109
1.0010815
1.0007595
1.0006826
1.000352
1.0004499
1.0001971
0.99985877
0.99986113
0.99928352
0.99965342
0.99902174
0.9989652
0.99874529
0.99817457
0.99863636
0.99765316
0.99803377
0.99720576
0.99732148
0.99695512
0.99669455
0.99643724
1.000694
1.0005807
1.0003425
1.0003107
1.0002393
1.0001025
1.0000809
0.99968675
0.99966898
0.99947882
0.99930256
0.99934829
0.99885018
0.99886085
0.99856028
0.9983339
0.99840581
0.99788461
0.99786986
0.99741991
0.99735652
0.9971322
0.99687837
0.99653631
0.99634658
0.99605191
0.99591177
0.99970724
0.99969691
0.99947644
0.9994552
0.99928955
0.99919849
0.99923685
0.99887358
0.9989122
0.99855796
0.99855841
0.99853672
0.99809744
0.998232
0.99760306
0.99786378
0.99753236
0.99734476
0.99719144
0.99656778
0.99690959
0.99628068
0.99651629
0.99576281
0.99581862
0.99541471
0.99538622
0.9988333
0.99874904
0.99862387
0.99856399
0.9984151
0.99845677
0.99829563
0.99812963
0.99803709
0.99777572
0.99790422
0.99765387
0.99755542
0.99727323
0.99700484
0.99714049
0.99677394
0.99682795
0.9963285
0.99617098
0.99608498
0.99581093
0.99579556
0.9952825
0.9952189
0.99492451
0.99479208
0.99802273
0.99788711
0.99772438
0.99764503
0.99767063
0.99766397
0.99753501
0.99733358
0.99719042
0.99704394
0.99711753
0.99699226
0.99676788
0.99666503
0.99623074
0.9965218
0.99604998
0.99618043
0.99574686
0.99553444
0.99554754
0.9951009
0.99531961
0.99468665
0.99481155
0.9943345
0.99425666
0.99721911
0.99708764
0.9969031
0.99686045
0.99689489
0.9968734
0.99683013
0.99656644
0.99652522
0.99633127
0.99638513
0.99628192
0.99605772
0.99608933
0.99563424
0.9958713
0.995381
0.99549101
0.99527413
0.99497755
0.99512351
0.99442681
0.99477212
0.99410888
0.99436388
0.99390299
0.99379557
0.9963935
0.9963378
0.99625296
0.99621891
0.99614417
0.99611889
0.99605719
0.99594725
0.9959284
0.99571663
0.99573241
0.99553414
0.99548708
0.99547059
0.99518475
0.99525084
0.99476474
0.99490567
0.99468578
0.99459651
0.99459693
0.99401568
0.99417481
0.99364534
0.99383729
0.99349262
0.9933719
0.99564506
0.99568392
0.99568373
0.99563171
0.99549177
0.99540239
0.99536879
0.99539042
0.99535652
0.99522243
0.995113
0.99489804
0.99493439
0.99485234
0.99478742
0.99470069
0.99432998
0.99437859
0.9941108
0.99416923
0.99401079
0.99373183
0.99366824
0.99332289
0.99331664
0.99305632
0.99292914
0.99502755
0.9950783
0.99514327
0.99508126
0.99495108
0.99483787
0.99481923
0.99484892
0.99484449
0.99473307
0.99458779
0.9944523
0.99443044
0.99437238
0.99431492
0.99417458
0.99397319
0.99391118
0.99373909
0.99372218
0.99353412
0.9933825
0.99320329
0.99306552
0.99290003
0.99275312
0.99256107
0.9945707
0.99458533
0.99462306
0.99458994
0.99450096
0.99440005
0.99437196
0.99438208
0.99436832
0.99427458
0.99418554
0.99404253
0.99403503
0.99395648
0.99389525
0.99377987
0.9936311
0.99353349
0.99343888
0.99333939
0.99319891
0.99303922
0.99287605
0.99274286
0.9926047
0.99247864
0.99228688
0.99416387
0.99419402
0.99424367
0.99423039
0.99414011
0.99405039
0.99397887
0.99403467
0.99396859
0.99397147
0.99381014
0.9937251
0.99367989
0.99364345
0.99361021
0.99346724
0.99333606
0.99323026
0.99312299
0.99310392
0.99292355
0.99281192
0.99259486
0.99250236
0.99236509
0.99226508
0.99208649
0.99385727
0.99390237
0.99398811
0.99395077
0.99385381
0.99374156
0.99370079
0.99378092
0.99372989
0.99372162
0.99358344
0.99347796
0.99340279
0.9934415
0.99331873
0.99331686
0.99306707
0.9930839
0.99285899
0.99293306
0.99269909
0.99267874
0.99239178
0.99239276
0.99218446
0.99214146
0.99193798
0.99371191
0.99370431
0.99373009
0.99370925
0.99369952
0.99354709
0.9936169
0.99353633
0.99362292
0.99344836
0.99343916
0.99331857
0.99327365
0.99330707
0.99314898
0.99319298
0.99288028
0.99299633
0.99267296
0.99287605
0.99251759
0.99269324
0.99223541
0.99240297
0.9920209
0.9921176
0.99184554
0.99361671
0.99358479
0.99359056
0.99353473
0.99364824
0.99346652
0.99360987
0.99338866
0.99353735
0.99332406
0.99338117
0.99328098
0.99318263
0.99327882
0.99299477
0.99318998
0.9927633
0.9929938
0.9926389
0.99282437
0.992476
0.99265124
0.99223841
0.99237289
0.9920383
0.99210422
0.99188378
0.99358799
0.99356229
0.99362515
0.99350882
0.9936429
0.99346782
0.99359572
0.99336653
0.99350009
0.99329616
0.99342408
0.99327599
0.99330161
0.99317305
0.99312784
0.99304092
0.99294699
0.99294534
0.99273222
0.99291319
0.99241428
0.99279556
0.99216104
0.99257862
0.99204495
0.99225923
0.99196809
0.99371079
0.99365764
0.99371856
0.99358122
0.99372731
0.99352685
0.99372128
0.9934407
0.99361396
0.99337422
0.9934872
0.99343112
0.99331593
0.99342863
0.99299898
0.99342844
0.99274268
0.99345401
0.99251487
0.99333285
0.99234896
0.99298768
0.99236386
0.9926086
0.99239695
0.99228859
0.99219621
0.99394508
0.99384092
0.9939387
0.99372086
0.99392682
0.99375039
0.99381423
0.99381934
0.99352028
0.99393791
0.9932679
0.9940387
0.993107
0.99390391
0.99309222
0.99354152
0.99329776
0.99308673
0.99351954
0.99258633
0.99354838
0.99232602
0.99334053
0.99234252
0.99294243
0.99236735
0.9924841
0.994215
0.9942674
0.99406805
0.99429211
0.99397826
0.99423484
0.99402449
0.99401543
0.9941023
0.9937242
0.994221
0.99353497
0.99422079
0.99344446
0.99395952
0.99353797
0.99358226
0.99373215
0.99317824
0.99374682
0.99289937
0.99360739
0.99280669
0.99336015
0.99275741
0.99299417
0.99270566
0.99462747
0.99471256
0.99451133
0.99462612
0.99456188
0.99437946
0.99462573
0.99429248
0.9944644
0.99438557
0.99414997
0.99445458
0.99401852
0.99434499
0.99395409
0.99414429
0.99397106
0.99383127
0.99402777
0.9935668
0.99391928
0.99341527
0.99372888
0.99332291
0.99347723
0.9932279
0.99321476
0.99520165
0.99518509
0.99494311
0.99519551
0.99499254
0.99492585
0.99512276
0.99468731
0.99502508
0.99478102
0.99470924
0.99488665
0.99447679
0.99481985
0.99440534
0.99462764
0.99434324
0.99445399
0.99433417
0.9941852
0.99430896
0.99397292
0.99413939
0.99387888
0.9939238
0.99377592
0.99370504
0.99561635
0.99583152
0.99549493
0.99558514
0.99576967
0.99524847
0.99585098
0.99520657
0.99542242
0.99553058
0.99495717
0.99576722
0.99475859
0.99552057
0.99489213
0.99504711
0.99517545
0.99465753
0.99525966
0.99439751
0.9951137
0.99431725
0.99490358
0.99428942
0.99462668
0.99422825
0.99429857
0.99631835
0.99629537
0.99640342
0.99592141
0.99653376
0.99583534
0.99628114
0.99609843
0.99574366
0.99638157
0.99536821
0.99648821
0.99528452
0.99619567
0.99545869
0.99564446
0.99583277
0.99517919
0.99597937
0.99485764
0.99586355
0.99480186
0.99563007
0.99490965
0.99519696
0.99492144
0.99488026
0.99704153
0.9970326
0.99683827
0.9971444
0.99655752
0.99708288
0.99657123
0.9967986
0.99679343
0.99637738
0.9969353
0.99606893
0.99702852
0.99587976
0.99684685
0.99595668
0.99641748
0.99622984
0.9959407
0.99644814
0.99554558
0.99642413
0.99547985
0.99617336
0.99552999
0.99577976
0.99551727
0.99769014
0.99805828
0.99743342
0.997687
0.99784679
0.9970754
0.99804932
0.99695078
0.99766833
0.99735928
0.9969436
0.99779464
0.99653034
0.99774394
0.99655494
0.99736808
0.99681075
0.99682704
0.9971452
0.99640578
0.99715177
0.99624919
0.99699103
0.99618306
0.99676778
0.99614847
0.99641181
0.99852455
0.99873251
0.99849546
0.99817979
0.99879807
0.99785915
0.99853013
0.9981953
0.99776084
0.99864521
0.99734818