/*--------------------------------*- C++ -*----------------------------------*\
| =========                 |                                                 |
| \\      /  F ield         | OpenFOAM: The Open Source CFD Toolbox           |
|  \\    /   O peration     | Version:  2406                                  |
|   \\  /    A nd           | Website:  www.openfoam.com                      |
|    \\/     M anipulation  |                                                 |
\*---------------------------------------------------------------------------*/
FoamFile
{
    version     2.0;
    format      ascii;
    arch        "LSB;label=32;scalar=64";
    class       surfaceScalarField;
    location    "11";
    object      phi;
}
// * * * * * * * * * * * * * * * * * * * * * * * * * * * * * * * * * * * * * //

dimensions      [1 0 -1 0 0 0 0];

oriented        oriented;

internalField   nonuniform List<scalar> 
192068
(
0.0012184291
-0.00014541205
0.00014284051
0.0012285375
-0.00024554661
0.00024755017
0.0012365231
-0.00027477977
0.00028170237
0.0012425871
-0.00033267827
0.00034016977
0.0012419066
-0.00034021961
0.0003471442
0.0012333347
-0.00031272119
0.00032002807
0.0012179088
-0.00025457934
0.00026476954
0.0012010011
-0.00018711926
0.00020152804
0.0011875679
-0.00013400626
0.00015268376
0.0011743726
-0.0001168031
0.00013844732
0.0011570689
-0.00013712073
0.00016008115
0.0011360436
-0.00018456156
0.00020817061
0.0011120017
-0.0002459931
0.00027236951
0.001085777
-0.00031927835
0.00034917652
0.0010578254
-0.00039017625
0.00041435396
0.0010294755
-0.0004348907
0.00045344174
0.0010013304
-0.00044934572
0.00046290088
0.00097433852
-0.00043584611
0.00045123916
0.00094926504
-0.00041079246
0.0004261343
0.00092642784
-0.00038366195
0.00038874773
0.00090562472
-0.00034799726
0.00034887303
0.00088668612
-0.00031259108
0.00031859621
0.00086929976
-0.00028164757
0.00028935734
0.00085337087
-0.00025384518
0.0002596479
0.00083916247
-0.0002236345
0.00023122143
0.0008268067
-0.00020030673
0.00020938405
0.00081661202
-0.00017819594
0.00018606632
0.00080850908
-0.00016109727
0.00016874769
0.00080334297
-0.00014292418
0.00014857572
0.0007999176
-0.00012737687
0.00013228791
0.0007997125
-0.0001076232
0.00011089201
0.00080111922
-8.9813748e-05
9.3579267e-05
0.00080528939
-6.855383e-05
6.9957321e-05
0.00081058478
-4.7388449e-05
4.8257077e-05
0.0008159985
-2.4327718e-05
2.326839e-05
0.0008227426
1.5745867e-07
-1.9480788e-06
0.00082824297
2.5911432e-05
-2.8773306e-05
0.00083556204
5.3213667e-05
-5.6451796e-05
0.00084296206
7.8798044e-05
-8.7119531e-05
0.00085362402
0.0001090276
-0.0001170953
0.00086579018
0.00013573276
-0.00014965713
0.00087856914
0.00016511737
-0.00018247491
0.00089606188
0.00019444144
-0.00020752728
0.00091208625
0.00022103089
-0.00024404447
0.00093031893
0.00024621421
-0.00026729821
0.00095286148
0.00027462297
-0.00029431383
0.00097074012
0.00029332521
-0.00032375469
0.00099512306
0.00032022811
-0.00033926424
0.0010164694
0.00033577463
-0.00036349378
0.0010439875
0.0003576832
-0.0003842104
0.0010643458
0.00036950098
-0.00040275736
0.0010946985
0.00038692703
-0.00041477559
0.0011218441
0.00040100356
-0.00042943954
0.0011547934
0.00040744251
-0.00044217695
0.00042849374
0.0011830283
-0.00045984458
0.0012184725
-0.00014660772
0.0012273887
-0.00024051806
0.0012356227
-0.00026544174
0.001242047
-0.00032280939
0.0012426726
-0.00033184391
0.0012350792
-0.00030351185
0.0012204179
-0.00024310572
0.0012035939
-0.00017286283
0.0011897793
-0.0001161911
0.0011762234
-9.5964197e-05
0.0011589753
-0.00011429769
0.0011385204
-0.00016044269
0.001115507
-0.00022053907
0.0010903486
-0.0002906923
0.0010635435
-0.00035785244
0.0010359101
-0.00040861102
0.001008441
-0.00042962404
0.00098167043
-0.00042491419
0.00095633527
-0.0004002523
0.00093329631
-0.00036970648
0.00091199731
-0.00034256344
0.00089260458
-0.0003102706
0.00087488751
-0.00027810492
0.00085886324
-0.00024848103
0.00084405048
-0.00022137387
0.00083133359
-0.00019623938
0.00082057724
-0.00017292419
0.00081189883
-0.00015515122
0.00080524515
-0.00013587088
0.00080121025
-0.00012096027
0.0007996276
-0.00010156447
0.00080046996
-8.5455531e-05
0.0008037926
-6.4805801e-05
0.0008089238
-4.6101157e-05
0.00081583945
-2.4538817e-05
0.00082363461
-2.6801227e-06
0.00083299412
2.1435346e-05
0.00084158049
4.5640357e-05
0.00085210571
7.2499138e-05
0.00086205871
9.8691486e-05
0.00087334946
0.00012542058
0.00088653357
0.00015305008
0.00089991695
0.00017646444
0.00091561881
0.00020498491
0.00093323807
0.00022772525
0.00095021887
0.00025087892
0.00097215921
0.00027345041
0.00099258208
0.00029217753
0.0010169714
0.00031255525
0.0010388358
0.0003265696
0.0010651136
0.00034532519
0.0010933714
0.00035760347
0.0011152675
0.00036918503
0.0011445992
0.00037580322
0.00039706131
0.0011760576
0.0012180712
-0.0001466186
0.0012270264
-0.00023343689
0.0012357112
-0.00025444401
0.0012424798
-0.00031091001
0.0012438507
-0.00032115665
0.0012369231
-0.00029286016
0.0012226449
-0.00023148599
0.0012056528
-0.00015978209
0.001191301
-0.00010045859
0.0011774279
-7.7298889e-05
0.0011603257
-9.384309e-05
0.0011403115
-0.00013723988
0.0011177361
-0.00019534234
0.0010931639
-0.00026401348
0.0010670216
-0.00032778569
0.0010400463
-0.0003768859
0.0010128635
-0.00040007649
0.0009862395
-0.00040282356
0.000960978
-0.00038791132
0.00093760939
-0.00035857066
0.00091634
-0.00032848074
0.00089675685
-0.00030109954
0.00087910211
-0.00027157743
0.00086278962
-0.00024414325
0.00084816643
-0.00021785256
0.00083511688
-0.00019451838
0.00082459969
-0.00017126716
0.00081603057
-0.00015280181
0.00081000946
-0.00013375848
0.00080589009
-0.00011781925
0.0008043533
-9.8920953e-05
0.00080475174
-8.2642129e-05
0.00080739651
-6.288134e-05
0.00081200849
-4.5298223e-05
0.00081819527
-2.5127904e-05
0.00082627896
-4.2330547e-06
0.0008352808
1.6411514e-05
0.00084588201
4.0746745e-05
0.00085705507
6.2503289e-05
0.00086953784
8.8876874e-05
0.00088233298
0.00011130784
0.00089574104
0.00013809789
0.00091059041
0.00016252571
0.00092582326
0.00018658676
0.00094162471
0.00020864675
0.00096081513
0.00023254318
0.00097706803
0.0002496161
0.00099973869
0.00027123667
0.0010177765
0.00028697124
0.0010428047
0.00030259867
0.0010659668
0.00031954769
0.0010877428
0.00032625107
0.0011149525
0.0003437299
0.0011433887
0.00035018373
0.00036299825
0.0011683488
0.0012174357
-0.00014741353
0.0012267972
-0.00022657318
0.0012359879
-0.00024289953
0.0012430438
-0.00029841897
0.0012450661
-0.0003093987
0.0012387112
-0.00028165018
0.0012247653
-0.00022015579
0.001207621
-0.00014816791
0.0011927767
-8.7915546e-05
0.0011786565
-6.3091719e-05
0.0011617779
-7.7096947e-05
0.001142343
-0.00011699037
0.0011205221
-0.00017013
0.001096691
-0.00023467436
0.001071151
-0.00029940501
0.0010448928
-0.0003484166
0.0010180265
-0.00037437448
0.00099147281
-0.00037633779
0.00096613917
-0.00036519285
0.00094243842
-0.00034782252
0.00092099579
-0.00031732963
0.0009013853
-0.00028831363
0.00088340499
-0.00026141783
0.00086688331
-0.00023580065
0.00085216276
-0.00020778865
0.00083891389
-0.00018556452
0.00082795131
-0.00016350711
0.00081901249
-0.00014581396
0.00081261366
-0.00012743433
0.00080835067
-0.00011241586
0.00080664823
-9.4722468e-05
0.00080723787
-7.9101907e-05
0.00081007873
-6.0904851e-05
0.00081457485
-4.4362936e-05
0.00082115626
-2.4991254e-05
0.00082867658
-6.1518156e-06
0.00083780378
1.3882818e-05
0.0008476875
3.3757746e-05
0.00085905986
5.5597936e-05
0.00087096362
7.7836356e-05
0.00088438424
0.0001012867
0.00089898958
0.00012414265
0.00091348686
0.00014629859
0.00093006166
0.00016889642
0.00094687975
0.00019156366
0.00096366976
0.00020899072
0.00098344343
0.00023255452
0.0010014959
0.00024570342
0.0010222401
0.00026500701
0.0010442804
0.00027767484
0.0010644798
0.00029282138
0.0010888176
0.00030175581
0.0011157402
0.00031697758
0.0011353852
0.00031912653
0.0003336154
0.0011630572
0.0012169422
-0.00014650701
0.0012266223
-0.0002185843
0.001236316
-0.00023120986
0.0012436412
-0.00028639781
0.0012462111
-0.00029845158
0.0012403962
-0.00027103872
0.0012268128
-0.00020996172
0.0012095786
-0.0001385348
0.0011942564
-7.909826e-05
0.001179852
-5.3446696e-05
0.0011631786
-6.3899876e-05
0.0011442743
-9.9942823e-05
0.0011231023
-0.00014773239
0.0010997657
-0.00020645112
0.0010748883
-0.00026642112
0.001049102
-0.00031791628
0.0010227872
-0.00034938629
0.00099649595
-0.00035669066
0.00097096559
-0.00034467438
0.00094738623
-0.00032813945
0.0009256479
-0.0003074769
0.00090593606
-0.00027857584
0.00088794229
-0.00025186696
0.00087163328
-0.00022622991
0.00085679053
-0.00020017089
0.00084348241
-0.00017656004
0.00083244253
-0.00015485484
0.00082341643
-0.00013690184
0.00081702173
-0.00011935232
0.000812621
-0.00010481676
0.00081093262
-8.8527175e-05
0.00081104689
-7.4005624e-05
0.00081381728
-5.7459213e-05
0.00081838086
-4.1301889e-05
0.00082480913
-2.4408135e-05
0.00083281432
-7.0384111e-06
0.00084141227
1.0008058e-05
0.00085192012
3.0208561e-05
0.0008622841
4.8551445e-05
0.00087494096
6.932642e-05
0.00088693348
8.8716939e-05
0.0009015679
0.00011015388
0.000915774
0.00013162265
0.00093281074
0.0001517151
0.00094774625
0.00017175002
0.00096778251
0.00019135514
0.00098369707
0.0002086081
0.0010040299
0.00022442626
0.0010246586
0.00024416587
0.0010435463
0.00025264018
0.001065603
0.00026900094
0.0010885108
0.00027742897
0.0011105961
0.00029193593
0.0011303949
0.00029082294
0.0003125253
0.001161266
0.0012164296
-0.00014659523
0.001226478
-0.0002116435
0.0012366304
-0.00022067108
0.0012442383
-0.00027522799
0.0012473031
-0.00028817602
0.0012420187
-0.00026093067
0.0012288158
-0.00020156704
0.00121151
-0.00013178136
0.0011957217
-7.3730914e-05
0.0011810714
-4.7486652e-05
0.001164528
-5.527007e-05
0.0011461641
-8.6118601e-05
0.001125689
-0.00012851746
0.0011031261
-0.00018191498
0.0010787915
-0.00023537258
0.0010534381
-0.00028461821
0.0010275191
-0.00031614635
0.0010014243
-0.00033154614
0.00097587407
-0.00032807434
0.00095216064
-0.00030809373
0.00093043552
-0.00028930846
0.00091042193
-0.00026738324
0.00089250514
-0.00024026313
0.00087605714
-0.00021526044
0.00086109284
-0.00019267186
0.00084759686
-0.00017013836
0.00083633002
-0.00014871992
0.0008269197
-0.00013041406
0.00082038167
-0.00011330706
0.00081563648
-9.7696924e-05
0.00081382535
-8.2726264e-05
0.00081377174
-6.8323967e-05
0.00081651326
-5.3522026e-05
0.00082095294
-3.8747364e-05
0.00082745272
-2.3248062e-05
0.00083513558
-7.6139122e-06
0.00084444609
9.1356183e-06
0.00085450929
2.4328856e-05
0.00086540977
4.2900616e-05
0.00087725255
5.9848585e-05
0.00088984068
8.0794261e-05
0.00090365276
9.7522273e-05
0.00091789109
0.00011839043
0.0009330982
0.00013458336
0.00095014591
0.0001559902
0.00096595812
0.00016928785
0.00098496415
0.00019043701
0.0010048609
0.0002039059
0.0010219449
0.00021790827
0.0010433551
0.00022976764
0.0010650274
0.00024723444
0.0010875019
0.00025277
0.0011018901
0.00026142004
0.0011357626
0.00027287897
0.00028130198
0.0011500115
0.0012159335
-0.00014495394
0.0012262244
-0.00020532257
0.0012367899
-0.00021147559
0.0012447559
-0.00026532351
0.0012482721
-0.00028031632
0.0012435332
-0.00025370958
0.0012307522
-0.00019567805
0.0012133811
-0.00012819964
0.0011971331
-7.1728183e-05
0.0011821494
-4.5441688e-05
0.0011657795
-5.0635371e-05
0.0011479126
-7.6939216e-05
0.0011281198
-0.00011239896
0.0011062557
-0.00015985104
0.0010824983
-0.00021049016
0.0010579103
-0.00025428981
0.0010323374
-0.00028474821
0.0010063948
-0.00029975055
0.00098110027
-0.00030218288
0.00095705094
-0.00029265184
0.00093531876
-0.00027079765
0.00091544535
-0.0002499752
0.00089735713
-0.00022699555
0.0008805669
-0.00020392694
0.00086573693
-0.00018009638
0.00085214934
-0.00015871419
0.00084073813
-0.00013871772
0.000831197
-0.00012042202
0.00082451057
-0.00010438038
0.00081966569
-8.9026895e-05
0.00081772465
-7.5504107e-05
0.00081732434
-6.1457045e-05
0.00081980038
-4.8397428e-05
0.00082379786
-3.4839919e-05
0.00083018496
-2.1680072e-05
0.00083790579
-7.3003051e-06
0.00084670273
6.4119077e-06
0.00085724535
2.2240489e-05
0.0008679301
3.7622401e-05
0.00088030967
5.3073197e-05
0.00089221586
7.0153252e-05
0.00090602505
8.6354199e-05
0.00091963623
0.00010492679
0.00093496598
0.00011996528
0.00094982504
0.00013798039
0.00096727495
0.00015310451
0.0009846759
0.00016994592
0.0010009453
0.00018056447
0.0010215015
0.0001988315
0.0010430572
0.00021062794
0.0010601657
0.00021867372
0.0010798242
0.00022958387
0.0011066154
0.00024276333
0.0011254819
0.00024813167
0.00025334687
0.0011457333
0.0012154075
-0.00014416112
0.0012259378
-0.00020013964
0.0012368627
-0.000204572
0.0012451934
-0.00025796288
0.0012491382
-0.00027489986
0.0012449512
-0.00024878605
0.0012325938
-0.00019257982
0.0012151758
-0.00012749288
0.0011984396
-7.3161442e-05
0.0011831882
-4.7075588e-05
0.0011669159
-4.9180278e-05
0.0011495745
-7.1307461e-05
0.0011304724
-0.00010015687
0.0011092841
-0.00013897051
0.0010862227
-0.0001839642
0.0010621277
-0.00022566517
0.0010369965
-0.00025871048
0.0010113284
-0.00027467046
0.00098603348
-0.00027446382
0.00096207901
-0.0002711705
0.00094013859
-0.00025719524
0.00092035794
-0.00023385724
0.00090211234
-0.00021335647
0.00088542151
-0.00019219869
0.00087056505
-0.00016818321
0.00085695084
-0.00014622628
0.00084535058
-0.00012649488
0.00083551764
-0.00010846091
0.00082846749
-9.3085847e-05
0.00082333874
-7.8689571e-05
0.00082087902
-6.6607655e-05
0.00082046684
-5.3405556e-05
0.00082247494
-4.1835931e-05
0.00082636134
-2.9221791e-05
0.00083227186
-1.7755555e-05
0.00083971486
-6.0482683e-06
0.00084886328
7.5697017e-06
0.00085865766
1.8353012e-05
0.0008698966
3.3862004e-05
0.00088141569
4.630966e-05
0.00089414305
6.3088128e-05
0.00090712031
7.5692664e-05
0.00092097021
9.2887899e-05
0.00093530298
0.00010576456
0.00095117338
0.00012382504
0.00096628687
0.0001342114
0.00098272883
0.00015122648
0.0010011843
0.00016301936
0.001020959
0.00017870185
0.0010339768
0.0001819059
0.001060026
0.0002029057
0.0010761262
0.00020421748
0.0011029525
0.00022088665
0.001111068
0.00021552455
0.0002366783
0.0011446131
0.0012148454
-0.00014176909
0.0012255925
-0.00019538946
0.0012368317
-0.00019872807
0.0012455213
-0.00025314738
0.001249853
-0.00027176308
0.0012462327
-0.00024713518
0.0012343156
-0.00019220928
0.0012168629
-0.00012929613
0.001199636
-7.7823206e-05
0.0011841051
-5.1477608e-05
0.0011679824
-5.1130029e-05
0.001151192
-6.7999901e-05
0.0011329312
-9.0420032e-05
0.0011124104
-0.00012197831
0.00108998
-0.00015807956
0.0010661228
-0.00019695925
0.0010413509
-0.0002280931
0.001016026
-0.00024968921
0.0009906507
-0.00025467624
0.00096686147
-0.00024653131
0.00094506333
-0.00023816479
0.00092504532
-0.00022090441
0.00090695653
-0.0001991828
0.0008904572
-0.00017803225
0.00087541858
-0.00015842664
0.00086184902
-0.00013723863
0.00085016355
-0.00011760542
0.00084024024
-9.8725044e-05
0.00083282679
-8.3086747e-05
0.00082742685
-6.8481303e-05
0.00082475921
-5.6596857e-05
0.00082406564
-4.4441168e-05
0.00082550779
-3.4197466e-05
0.0008292705
-2.3168082e-05
0.00083457425
-1.3240306e-05
0.00084207957
-2.7857026e-06
0.00085026527
7.1328163e-06
0.0008605338
1.9220267e-05
0.00087103146
3.0093601e-05
0.00088288156
4.1327438e-05
0.00089502808
5.5251597e-05
0.00090796127
6.6537822e-05
0.00092154934
8.1454809e-05
0.00093611952
9.3587129e-05
0.00094981247
0.00010698884
0.00096608113
0.00011974943
0.0009825562
0.00013454579
0.00099957455
0.00014392436
0.0010131615
0.00015489849
0.0010378417
0.00016830285
0.001050711
0.00017790521
0.0010753414
0.00018452743
0.0010867218
0.0001950102
0.0011161042
0.00019983633
0.00021318261
0.0011337978
0.0012142281
-0.000139398
0.0012252045
-0.00019124626
0.0012367073
-0.00019479797
0.0012458015
-0.00025070759
0.0012504621
-0.00027153747
0.0012474392
-0.00024727515
0.0012359436
-0.00019386772
0.0012184596
-0.00013307976
0.0012007786
-8.4567634e-05
0.001184968
-5.7938581e-05
0.0011690447
-5.498193e-05
0.0011528163
-6.6789077e-05
0.0011352929
-8.241734e-05
0.0011155089
-0.00010739551
0.001093571
-0.00013676357
0.0010701933
-0.00016962821
0.0010456368
-0.00019684338
0.0010204364
-0.00021790537
0.00099536803
-0.0002299207
0.00097144867
-0.00022721464
0.00094985047
-0.00021569617
0.00092993717
-0.00020348785
0.00091192989
-0.00018472372
0.00089523446
-0.00016525344
0.00088017064
-0.00014644191
0.0008665728
-0.00012612858
0.00085479556
-0.00010716473
0.00084482813
-8.847081e-05
0.00083699221
-7.2577872e-05
0.00083155432
-5.767537e-05
0.00082833114
-4.618742e-05
0.00082740786
-3.4648572e-05
0.00082838828
-2.5373618e-05
0.00083171132
-1.5968266e-05
0.00083676395
-7.2929395e-06
0.00084329528
9.6145479e-07
0.00085205255
1.0791608e-05
0.00086107214
1.765815e-05
0.00087194389
2.8879744e-05
0.00088328057
3.7843014e-05
0.00089526473
4.900724e-05
0.0009079455
5.8520723e-05
0.00092172343
7.2363395e-05
0.00093439634
7.9936376e-05
0.00095031618
9.6120648e-05
0.00096473949
0.00010397885
0.00098023793
0.00011709109
0.00099474459
0.00012437105
0.0010155253
0.00014092203
0.0010310246
0.00014827522
0.0010462984
0.00015327639
0.0010695967
0.00016732971
0.0010829258
0.00017160404
0.0011116764
0.00018196431
0.00018468144
0.0011209575
0.0012135592
-0.00013635159
0.0012247528
-0.0001865553
0.0012364607
-0.00019184638
0.0012459288
-0.0002497574
0.0012509208
-0.0002727373
0.0012485209
-0.00024875233
0.0012374199
-0.00019709015
0.0012199119
-0.00013777821
0.0012018178
-9.2084795e-05
0.0011857391
-6.5574188e-05
0.0011700355
-6.0214172e-05
0.0011543741
-6.775367e-05
0.0011376205
-7.6023469e-05
0.0011184711
-9.3033678e-05
0.0010969801
-0.00011650912
0.0010740523
-0.00014475475
0.0010497864
-0.00017209893
0.0010247657
-0.00019152675
0.00099997705
-0.00020018113
0.00097618477
-0.00020530533
0.00095447534
-0.00019820813
0.0009348955
-0.00018405339
0.00091677512
-0.00017044405
0.00090004422
-0.00015437749
0.00088515695
-0.00013479908
0.00087174521
-0.00011453842
0.00085988002
-9.5976256e-05
0.00084982527
-7.75e-05
0.00084172238
-6.1947141e-05
0.00083595007
-4.7051132e-05
0.00083233548
-3.5544019e-05
0.00083109926
-2.4540592e-05
0.00083166648
-1.6051636e-05
0.00083438994
-7.2678001e-06
0.00083880888
-4.6436943e-07
0.0008454447
7.1552203e-06
0.00085277418
1.3133194e-05
0.00086235692
2.1097233e-05
0.0008724086
2.8404287e-05
0.00088328359
3.4911354e-05
0.00089539476
4.592844e-05
0.00090782517
5.2658924e-05
0.00092001014
6.2497955e-05
0.00093494499
7.2393767e-05
0.00094788443
8.248018e-05
0.000962313
8.9775619e-05
0.00097710476
0.00010201958
0.000995143
0.00011204308
0.0010112199
0.00012243449
0.0010209826
0.00012224143
0.001049882
0.00014443927
0.0010572891
0.00014271314
0.0010842506
0.00015435774
0.0010949668
0.00015828163
0.00016565198
0.0011186925
0.0012128115
-0.00013267489
0.0012242231
-0.0001819965
0.0012361635
-0.00018920546
0.0012460851
-0.00024928223
0.0012513691
-0.00027506795
0.0012495504
-0.00025230109
0.0012388539
-0.00020092042
0.001221331
-0.00014333252
0.0012028518
-9.9617442e-05
0.0011864942
-7.3424446e-05
0.0011710149
-6.5739767e-05
0.0011559314
-6.9131117e-05
0.0011398799
-7.1720625e-05
0.0011213537
-8.0580342e-05
0.0011003357
-9.6777062e-05
0.0010775941
-0.00012087004
0.0010536102
-0.00014662732
0.0010289875
-0.00016890794
0.0010042349
-0.00017759393
0.00098073139
-0.00017932249
0.00095909266
-0.00017940367
0.00093938345
-0.00016852953
0.00092134947
-0.00015559253
0.0009049967
-0.00014118531
0.00089013628
-0.00012455858
0.00087666523
-0.00010566743
0.00086482839
-8.7287248e-05
0.00085464518
-6.8725819e-05
0.00084636409
-5.2596875e-05
0.00084026064
-3.774516e-05
0.00083636389
-2.5797733e-05
0.0008346302
-1.502462e-05
0.00083484083
-6.8171331e-06
0.00083687193
7.793801e-07
0.00084107118
7.422104e-06
0.00084651486
1.2705365e-05
0.00085427964
1.8947855e-05
0.00086259215
2.3283079e-05
0.00087239271
2.9278145e-05
0.00088354206
3.5619483e-05
0.0008944506
4.1458201e-05
0.00090624178
4.7154954e-05
0.00091992482
5.7547324e-05
0.0009320262
6.194756e-05
0.0009455612
7.1116817e-05
0.00096026332
7.9173527e-05
0.00097618255
8.9650771e-05
0.00099011253
9.4084931e-05
0.0010015212
0.00010146483
0.0010270561
0.00011583579
0.001037906
0.00012044225
0.001052458
0.00012243772
0.0010789147
0.00013928807
0.0010854825
0.00013508006
0.00014985274
0.0011127887
0.0012120561
-0.00012868625
0.0012236021
-0.00017741938
0.0012356679
-0.00018520935
0.001245971
-0.00024978016
0.0012515873
-0.00027740105
0.0012504263
-0.00025593815
0.0012401465
-0.00020386136
0.0012226631
-0.0001477475
0.001203806
-0.0001064645
0.0011871843
-8.0837026e-05
0.001171962
-7.10233e-05
0.0011574367
-7.0291733e-05
0.0011422163
-6.7695389e-05
0.001124323
-7.0233459e-05
0.0011037731
-7.962624e-05
0.00108131
-9.8117829e-05
0.0010575345
-0.00011820312
0.0010331942
-0.00013953538
0.0010085973
-0.00015462393
0.00098505394
-0.0001572686
0.00096365257
-0.0001556946
0.00094383349
-0.00015182376
0.00092606173
-0.00014006638
0.00090984057
-0.00012653661
0.00089486371
-0.00011380277
0.00088155177
-9.712452e-05
0.00086971015
-7.9589127e-05
0.00085954437
-6.1224483e-05
0.00085103254
-4.479821e-05
0.00084481631
-2.9693925e-05
0.00084053148
-1.7281214e-05
0.00083837343
-6.6120003e-06
0.0008379383
1.5892388e-06
0.00083958356
8.4137335e-06
0.00084288415
1.3806615e-05
0.00084826862
1.9280157e-05
0.00085485391
2.3618738e-05
0.00086291861
2.7122158e-05
0.00087269108
3.2411124e-05
0.0008821928
3.4361517e-05
0.0008935043
4.1088139e-05
0.00090548756
4.5036767e-05
0.00091700269
5.0604539e-05
0.00092946615
5.4610012e-05
0.00094414006
6.4960679e-05
0.00095713972
6.6944507e-05
0.00097073309
7.5673565e-05
0.00098380484
7.998805e-05
0.0010048504
9.3900822e-05
0.0010163995
9.5910178e-05
0.0010291816
0.00010092554
0.0010540015
0.00011134411
0.0010637633
0.00011769354
0.0010848788
0.00011847609
0.0001309117
0.0011020835
0.0012111682
-0.00012374611
0.0012228831
-0.00017169821
0.0012351656
-0.00018027283
0.0012459813
-0.00024819981
0.0012519494
-0.00027870597
0.0012514392
-0.00025821232
0.0012415094
-0.00020549608
0.0012240412
-0.00015014454
0.0012048197
-0.0001114968
0.0011879416
-8.6893291e-05
0.0011729577
-7.5623112e-05
0.0011590089
-7.1996201e-05
0.0011445291
-6.3783329e-05
0.0011272346
-6.1158348e-05
0.0011071455
-6.495153e-05
0.0010851789
-7.7515817e-05
0.0010616775
-9.4398902e-05
0.0010373587
-0.00011203491
0.0010130615
-0.00012537998
0.00098949785
-0.00013500423
0.00096796896
-0.00013423536
0.00094844115
-0.00013040049
0.00093065678
-0.00012434462
0.00091428399
-0.00011512714
0.00089949742
-0.00010338396
0.00088627779
-8.7823724e-05
0.00087455148
-7.1878402e-05
0.00086434587
-5.437679e-05
0.00085574034
-3.8277936e-05
0.00084921537
-2.284123e-05
0.00084455322
-1.0515003e-05
0.00084192462
2.9762295e-07
0.00084091595
8.8761185e-06
0.00084199276
1.6022622e-05
0.00084494786
2.1001151e-05
0.00084945044
2.5643148e-05
0.00085556468
2.8587376e-05
0.00086335561
3.2367554e-05
0.00087162837
3.4026395e-05
0.00088182469
3.7413383e-05
0.00089223491
4.0326941e-05
0.00090279606
4.1986419e-05
0.00091471739
4.7310601e-05
0.00092812369
5.1272696e-05
0.00093932404
5.45924e-05
0.00095333765
5.9306014e-05
0.00096651224
6.5647106e-05
0.00098375604
7.2078277e-05
0.00099575586
7.7411556e-05
0.0010084592
7.7488163e-05
0.0010287668
9.269468e-05
0.0010453752
9.4039633e-05
0.001053575
9.7281329e-05
0.0010817468
0.00010740431
0.00011074645
0.0010905759
0.0012103537
-0.00011919263
0.0012221743
-0.0001637851
0.0012343885
-0.00017342642
0.0012455484
-0.00024397503
0.0012519181
-0.00027665001
0.0012521297
-0.00025793826
0.0012427005
-0.00020475198
0.0012253373
-0.00015044619
0.0012058265
-0.00011469323
0.0011886785
-9.1318202e-05
0.0011739169
-7.9203784e-05
0.0011605925
-7.3426625e-05
0.0011468564
-6.12979e-05
0.0011302085
-5.3291511e-05
0.0011107007
-5.0795528e-05
0.0010889653
-5.8710116e-05
0.0010656555
-7.4106077e-05
0.0010415742
-9.2044608e-05
0.001017273
-0.00010145842
0.00099406361
-0.00010916314
0.00097234574
-0.0001145918
0.00095276457
-0.00011116962
0.00093493912
-0.00010677338
0.00091861571
-0.00010210555
0.00090409016
-9.2418717e-05
0.00089098131
-7.9537614e-05
0.00087934019
-6.4886653e-05
0.00086903498
-4.9255047e-05
0.00086036293
-3.3419611e-05
0.00085363119
-1.832741e-05
0.00084854367
-5.5870641e-06
0.00084553838
5.6935127e-06
0.00084403971
1.4165945e-05
0.00084457153
2.139943e-05
0.00084690284
2.7043066e-05
0.00085067141
3.0491778e-05
0.00085649174
3.4858674e-05
0.00086285066
3.5286526e-05
0.00087169258
3.877896e-05
0.00088038696
3.9260858e-05
0.00089024264
4.1226525e-05
0.00090086926
4.23814e-05
0.0009127113
4.5626958e-05
0.00092304274
4.5107184e-05
0.00093660486
5.0417118e-05
0.00094890165
5.1968851e-05
0.00096364695
5.7865429e-05
0.00097582832
5.8810921e-05
0.00098740317
6.2934948e-05
0.0010095248
7.4233018e-05
0.0010190399
7.3282531e-05
0.0010339289
7.9146174e-05
0.0010540322
8.56744e-05
0.0010678341
9.068647e-05
9.1978386e-05
0.0010827585
0.0012093784
-0.00011415702
0.0012212313
-0.00015529028
0.001233669
-0.00016278638
0.0012453695
-0.00023723311
0.0012522397
-0.00027166171
0.0012531299
-0.00025484113
0.0012441142
-0.00020077266
0.0012267832
-0.000146782
0.0012069147
-0.00011487107
0.0011894935
-9.3763117e-05
0.0011749644
-8.1348616e-05
0.0011622309
-7.3943072e-05
0.0011491776
-5.9329016e-05
0.0011332183
-4.7190715e-05
0.0011142238
-3.886859e-05
0.0010926954
-4.1874233e-05
0.0010695286
-5.2185903e-05
0.0010456837
-6.883247e-05
0.0010214815
-8.2044223e-05
0.00099820054
-8.6447696e-05
0.00097662166
-9.2438362e-05
0.00095683111
-9.3882747e-05
0.00093890696
-9.1502181e-05
0.00092293089
-8.6850527e-05
0.00090834472
-8.1158451e-05
0.00089529632
-7.1725762e-05
0.00088370824
-5.9389433e-05
0.00087351294
-4.5108207e-05
0.00086475405
-2.9884126e-05
0.00085765433
-1.5289963e-05
0.00085229287
-2.5098854e-06
0.00084878652
9.0611478e-06
0.00084686691
1.7711557e-05
0.00084684976
2.4693435e-05
0.00084843299
2.9769979e-05
0.00085214229
3.5358852e-05
0.00085642333
3.6841167e-05
0.00086332392
4.0335946e-05
0.00087064797
4.1225669e-05
0.00087895977
4.1075662e-05
0.00088860188
4.2775881e-05
0.00089844131
4.2002863e-05
0.00090868945
4.3091614e-05
0.0009202882
4.3075695e-05
0.00093250175
4.6591434e-05
0.00094452649
4.5601756e-05
0.00095699977
4.9084787e-05
0.00096923216
5.1416239e-05
0.00098887088
5.9434618e-05
0.00099544415
5.7214942e-05
0.0010144732
6.2929725e-05
0.0010275334
6.7723925e-05
0.0010477245
7.4005178e-05
0.0010528834
7.0662838e-05
8.4096635e-05
0.0010792795
0.0012085374
-0.00010950477
0.0012204315
-0.00014576723
0.0012326235
-0.00015022404
0.00124465
-0.00022616186
0.0012519003
-0.00026325667
0.0012535753
-0.00024822065
0.0012452319
-0.00019397167
0.0012281173
-0.0001412441
0.0012080871
-0.00011256228
0.0011903716
-9.3723178e-05
0.0011760122
-8.2125373e-05
0.0011638831
-7.3648324e-05
0.0011515096
-5.7464228e-05
0.0011362774
-4.2076811e-05
0.0011178245
-2.9571735e-05
0.0010966646
-2.8045564e-05
0.0010737265
-3.2574766e-05
0.0010498216
-4.5080753e-05
0.0010258073
-5.7491225e-05
0.0010023667
-6.7361394e-05
0.00098073169
-7.0439466e-05
0.00096077362
-7.4718095e-05
0.00094287837
-7.521621e-05
0.00092684241
-7.3685077e-05
0.00091228861
-7.1149826e-05
0.00089939296
-6.3696366e-05
0.00088788067
-5.3779154e-05
0.0008777947
-4.1148741e-05
0.00086899464
-2.7174877e-05
0.00086172655
-1.3332948e-05
0.00085607909
-8.325135e-07
0.00085204846
1.0329476e-05
0.0008496894
2.0108211e-05
0.00084901249
2.7073324e-05
0.00085044021
3.3268982e-05
0.00085268617
3.6483344e-05
0.00085738001
4.1019325e-05
0.00086281254
4.2443699e-05
0.00086956984
4.2859434e-05
0.00087770742
4.4282937e-05
0.00088604204
4.3528404e-05
0.00089528404
4.238105e-05
0.00090543427
4.3016648e-05
0.00091668114
4.2088811e-05
0.00092686669
4.1518195e-05
0.00093917404
4.2020678e-05
0.00095221341
4.5021084e-05
0.00096604814
4.5532011e-05
0.0009771194
4.7384135e-05
0.00099015152
4.6616364e-05
0.0010088284
5.7490856e-05
0.0010212383
5.4372397e-05
0.0010305182
5.7822747e-05
0.0010553668
6.3204108e-05
7.1038381e-05
0.0010650853
0.0012076018
-0.00010461513
0.0012191977
-0.00013379807
0.0012316166
-0.00013436718
0.0012442458
-0.00021220911
0.0012521324
-0.00025045961
0.0012545548
-0.00023800568
0.001246711
-0.0001838038
0.0012296216
-0.00013097897
0.0012092467
-0.00010690568
0.0011912459
-9.1376379e-05
0.0011771232
-8.0878738e-05
0.0011655617
-7.2372446e-05
0.0011537564
-5.5609145e-05
0.00113924
-3.7251132e-05
0.0011212772
-2.20775e-05
0.0011005166
-1.5753391e-05
0.0010777467
-1.8282323e-05
0.0010539062
-2.8861308e-05
0.0010298739
-3.6599129e-05
0.0010065902
-4.5911305e-05
0.00098459786
-5.3006725e-05
0.00096463962
-5.5904839e-05
0.00094657876
-5.8453485e-05
0.00093028111
-6.0462603e-05
0.00091585149
-6.0432334e-05
0.00090310779
-5.5371693e-05
0.00089180976
-4.7945534e-05
0.00088181506
-3.7594349e-05
0.00087288199
-2.5314713e-05
0.00086538044
-1.2553696e-05
0.00085936751
-4.160416e-07
0.00085510431
1.0229305e-05
0.0008522077
2.0014312e-05
0.00085128601
2.7978849e-05
0.00085169363
3.3660481e-05
0.00085408962
3.8554543e-05
0.00085744243
4.165883e-05
0.00086221868
4.3257498e-05
0.00086901295
4.5818321e-05
0.0008754979
4.3840068e-05
0.00088372591
4.3960957e-05
0.00089259804
4.3217291e-05
0.00090215445
4.1794392e-05
0.00091158017
3.9751213e-05
0.00092290301
3.9889809e-05
0.00093482282
3.9186209e-05
0.00094628358
3.9516399e-05
0.00095815411
3.8315027e-05
0.00096943869
4.0231741e-05
0.00098904039
4.5585368e-05
0.00099529805
4.2125329e-05
0.0010127158
4.6564559e-05
0.0010252611
4.8206925e-05
0.0010491175
5.7984294e-05
5.0532149e-05
0.0010508224
0.0012067318
-0.00010075617
0.0012183417
-0.00012211843
0.0012302798
-0.00011440345
0.0012431378
-0.00019500755
0.0012513678
-0.00023421585
0.0012547125
-0.00022478903
0.0012477439
-0.00017025946
0.0012309988
-0.0001181018
0.0012107054
-9.9144067e-05
0.0011923921
-8.5877756e-05
0.0011783149
-7.7369323e-05
0.0011671241
-6.9879065e-05
0.0011559801
-5.3713941e-05
0.0011420895
-3.4083144e-05
0.0011248399
-1.5689881e-05
0.0011043583
-5.8162857e-06
0.0010816745
-4.3568203e-06
0.0010579671
-1.3879504e-05
0.0010338195
-2.237877e-05
0.0010105567
-2.7725771e-05
0.00098843684
-3.6502309e-05
0.00096818042
-4.0834496e-05
0.00094985497