/*--------------------------------*- C++ -*----------------------------------*\
| =========                 |                                                 |
| \\      /  F ield         | OpenFOAM: The Open Source CFD Toolbox           |
|  \\    /   O peration     | Version:  2406                                  |
|   \\  /    A nd           | Website:  www.openfoam.com                      |
|    \\/     M anipulation  |                                                 |
\*---------------------------------------------------------------------------*/
FoamFile
{
    version     2.0;
    format      ascii;
    arch        "LSB;label=32;scalar=64";
    class       volScalarField;
    location    "11";
    object      rho;
}
// * * * * * * * * * * * * * * * * * * * * * * * * * * * * * * * * * * * * * //

dimensions      [1 -3 0 0 0 0 0];

internalField   nonuniform List<scalar> 
62344
(
1.0039447
1.0108508
1.0120133
1.0119857
1.0153651
1.0229369
1.0300602
1.0277141
1.025811
1.0258036
1.0257634
1.0220054
1.0189513
1.0251355
1.0281951
1.03338
1.0364378
1.0312428
1.0302549
1.0316464
1.027574
1.0324073
1.0292584
1.0283219
1.0368215
1.0376556
1.0363015
1.0339768
1.0367097
1.0372663
1.0358636
1.0488772
1.048028
1.0369362
1.0394088
1.0499517
1.0459255
1.0351617
1.0431123
1.068955
1.0824689
1.065558
1.0337902
1.0119633
1.0203471
1.0565722
1.1045999
1.1310965
1.123336
1.0899624
1.0563822
1.0416537
1.0540564
1.0808878
1.0957374
1.0040245
1.0107822
1.0120949
1.0118817
1.0158595
1.0235807
1.0290153
1.026806
1.0251378
1.0275973
1.0263338
1.0231168
1.0210572
1.0253308
1.0295879
1.0327446
1.0353259
1.0334236
1.029354
1.0313011
1.0293297
1.0335076
1.0308758
1.0292978
1.0345903
1.033937
1.0356704
1.036563
1.04003
1.0391659
1.0372049
1.0490108
1.0470298
1.0379295
1.0400676
1.0462222
1.0418967
1.0351267
1.0459597
1.0601474
1.0557389
1.0352618
1.0158825
1.0219888
1.046299
1.0778242
1.1004417
1.1006015
1.0828194
1.0594556
1.0412073
1.0322653
1.0359079
1.0565615
1.0926748
1.0039586
1.0105433
1.0119684
1.0126616
1.0162206
1.0236981
1.0274958
1.0263568
1.025594
1.028759
1.0250953
1.0220444
1.0222732
1.0242783
1.0306277
1.0353876
1.0331938
1.0327184
1.0319135
1.0322421
1.0307186
1.0335237
1.0304304
1.0315559
1.0348153
1.031975
1.0329135
1.0359689
1.0414843
1.0397907
1.0396845
1.0492493
1.0454007
1.0392217
1.0423367
1.0454583
1.0374782
1.0346009
1.0451332
1.0548875
1.0467723
1.0266697
1.016614
1.0252259
1.0536936
1.0805429
1.0856836
1.0711076
1.0495359
1.0383816
1.0410491
1.0463513
1.0504363
1.0633105
1.077062
1.0039244
1.0106653
1.0119648
1.0133581
1.0161534
1.0232837
1.0275666
1.025912
1.0263284
1.0273866
1.0242476
1.0202591
1.0206333
1.0246793
1.0295727
1.0357362
1.0324179
1.0314642
1.0318981
1.0308283
1.0326963
1.033679
1.0265004
1.0303826
1.0362016
1.0336184
1.0336324
1.0357347
1.0412208
1.0377205
1.0414531
1.0496564
1.0436336
1.03952
1.0451881
1.0464073
1.0362355
1.0328051
1.0416094
1.0452299
1.0358948
1.0236949
1.0198791
1.0309179
1.0547599
1.0757885
1.078025
1.0663729
1.047577
1.035514
1.0388391
1.0560661
1.0772159
1.0968327
1.1001794
1.0039468
1.0110322
1.0119928
1.0129046
1.0155824
1.0226223
1.0287272
1.0261913
1.0266319
1.0261295
1.0245609
1.0193696
1.0185728
1.0251877
1.0296697
1.033253
1.0313707
1.0314538
1.0318575
1.0284387
1.0318625
1.0346145
1.0253051
1.0280708
1.0361811
1.0353287
1.0348232
1.0359381
1.0412216
1.0363522
1.0437658
1.0513696
1.0438582
1.0396585
1.0470232
1.047171
1.036322
1.0335116
1.0384944
1.0351988
1.0251439
1.0215726
1.0280178
1.0407627
1.055003
1.0602876
1.0595026
1.0556967
1.0450554
1.0349817
1.0364771
1.0524243
1.0799252
1.1074936
1.1202617
1.0039919
1.0110593
1.0118049
1.011665
1.014731
1.0223045
1.0287772
1.0267837
1.0261083
1.0265253
1.0250623
1.0195628
1.0187497
1.0241865
1.0308783
1.0313609
1.0305726
1.030244
1.0319782
1.0289137
1.0297246
1.0335483
1.0266188
1.0276266
1.034685
1.0351101
1.034215
1.0350657
1.0402555
1.0353583
1.0456981
1.0527847
1.0444913
1.040049
1.0463424
1.0459876
1.0373371
1.0370753
1.0376318
1.0278969
1.0170597
1.0181111
1.033597
1.0510987
1.0533412
1.0447777
1.0387589
1.0347207
1.0370406
1.0390965
1.0407506
1.046546
1.0596158
1.0781467
1.095609
1.0040413
1.0106057
1.0113843
1.0108082
1.0141735
1.0222953
1.0274014
1.0263129
1.0246413
1.0274395
1.024696
1.0201432
1.0201423
1.0230371
1.030981
1.0317419
1.0312414
1.0287144
1.0312046
1.0308284
1.0300879
1.0315001
1.0275373
1.0288751
1.033277
1.0334545
1.0335037
1.0350544
1.0391399
1.0347182
1.0464449
1.0534403
1.0448664
1.0401758
1.044915
1.0425555
1.0372905
1.0412632
1.039735
1.0251717
1.0113479
1.0136517
1.0333552
1.055868
1.0605976
1.0474648
1.0292606
1.0205438
1.0276893
1.0457193
1.0557145
1.060326
1.0579291
1.0526882
1.0549048
1.004049
1.0102163
1.0112538
1.010829
1.0141024
1.0221319
1.0258407
1.0248625
1.0234321
1.0273187
1.0238916
1.0205065
1.020441
1.0229936
1.0294927
1.0322061
1.0324058
1.028452
1.0309329
1.0312769
1.0315353
1.0301525
1.0276867
1.0306544
1.0328019
1.0310832
1.0326838
1.0366275
1.0390543
1.0354569
1.0473397
1.0534113
1.0450164
1.0410513
1.043681
1.0389963
1.0360553
1.0428412
1.0415811
1.025839
1.0087605
1.0085397
1.0275833
1.0547501
1.0667707
1.0567544
1.0320778
1.0140471
1.0174079
1.0400189
1.0670188
1.0810336
1.0785992
1.0590586
1.0375704
1.0040155
1.0102133
1.0114381
1.0112181
1.0142607
1.021603
1.0251846
1.0233931
1.0232976
1.026134
1.0232452
1.020307
1.0188021
1.023199
1.0280933
1.0315334
1.032295
1.0288804
1.0313993
1.0303755
1.0318166
1.0293055
1.02729
1.0318954
1.0334153
1.0292163
1.031072
1.0378677
1.0391168
1.0367027
1.0485775
1.0533584
1.0453237
1.0427907
1.0433646
1.036671
1.0353773
1.0428475
1.0420354
1.0274884
1.0093783
1.0063755
1.0217313
1.047485
1.0637181
1.0604894
1.0407685
1.0188303
1.0108205
1.0274925
1.0620694
1.0900957
1.0970967
1.0810118
1.0492498
1.0039565
1.0104305
1.0115456
1.0112382
1.0141362
1.020963
1.0254154
1.0226873
1.0238568
1.0250316
1.0229113
1.0193788
1.0168189
1.0226432
1.0277933
1.0310671
1.0307453
1.0289998
1.0312705
1.0296426
1.0314371
1.0289103
1.0263278
1.0318957
1.034068
1.0285345
1.0296978
1.0381051
1.0382545
1.0367879
1.0492497
1.0529893
1.046
1.0449145
1.0433245
1.0353292
1.0353547
1.0423971
1.0415033
1.0279686
1.0123903
1.0078403
1.0178964
1.0363941
1.0517502
1.0550121
1.0460738
1.028538
1.0165858
1.020701
1.0444598
1.0728182
1.0873996
1.0830494
1.0594001
1.0038967
1.0105375
1.0111483
1.0107269
1.0136262
1.0205504
1.0256413
1.0226593
1.024121
1.0245354
1.0227541
1.0180006
1.0160596
1.0214562
1.0278636
1.0317887
1.0292638
1.0290308
1.0300326
1.0292579
1.0318114
1.0293699
1.0252198
1.030547
1.0337014
1.0287884
1.0297353
1.0381893
1.0370013
1.0357765
1.0487278
1.0518207
1.0464836
1.0469822
1.0434402
1.0348896
1.0361879
1.0424596
1.0401392
1.0274003
1.0164991
1.014038
1.019201
1.0280309
1.0373111
1.043272
1.0450787
1.0398944
1.0315253
1.0273419
1.0325654
1.0462511
1.0580164
1.0591401
1.0520257
1.0038647
1.0103302
1.0104434
1.0100012
1.0128756
1.0201347
1.0252473
1.0227449
1.0234425
1.0245701
1.0227891
1.0169259
1.0164449
1.0205692
1.027702
1.0327702
1.028699
1.0295965
1.0286502
1.0288109
1.0328656
1.0306539
1.0247241
1.0288404
1.0322571
1.0290191
1.0310792
1.0386747
1.0361947
1.0350672
1.0478215
1.0502384
1.046645
1.0487345
1.0441359
1.0352056
1.0373961
1.0429705
1.0382364
1.025275
1.0180864
1.0209143
1.0268512
1.0263965
1.0248704
1.028882
1.0360899
1.0462009
1.0488811
1.0456298
1.0356007
1.0287576
1.0290986
1.0293084
1.0295998
1.0038754
1.0099369
1.0097955
1.0093739
1.0121642
1.0196365
1.0243278
1.0226072
1.0221877
1.0246308
1.0229026
1.0167527
1.0170452
1.0203899
1.027405
1.0327729
1.0286031
1.030288
1.0278731
1.0283669
1.0337489
1.0317267
1.0251471
1.0281879
1.0308788
1.0286898
1.0321768
1.0387838
1.0357288
1.0354232
1.047327
1.0487574
1.0468404
1.0504148
1.0454115
1.0358449
1.0388239
1.0442526
1.036606
1.0220834
1.0179317
1.0256954
1.0353877
1.0325406
1.0204628
1.0149782
1.0229726
1.0434113
1.0629148
1.0666236
1.0530111
1.0291487
1.0119873
1.0061566
1.0085042
1.0039127
1.0095567
1.0094899
1.0089843
1.0116086
1.0190673
1.0232588
1.0221284
1.0209581
1.0244643
1.022874
1.0173765
1.0170388
1.0205075
1.0272393
1.0317196
1.0283548
1.0303383
1.0280288
1.0282867
1.0338385
1.031701
1.0261064
1.0290412
1.030616
1.0281711
1.0321508
1.0379236
1.0347746
1.0362572
1.047299
1.0476933
1.0473489
1.0520603
1.0471843
1.0371002
1.0401023
1.0454584
1.0357559
1.0190703
1.0156035
1.027509
1.0417082
1.0410852
1.0237652
1.0069788
1.0093528
1.0328308
1.0664361
1.082649
1.0740497
1.0445538
1.0122393
0.99343743
0.99193007
1.0039418
1.0093163
1.0094873
1.00881
1.0111128
1.0184272
1.0223655
1.0214023
1.0202007
1.0241228
1.0226649
1.0182371
1.0163904
1.0204406
1.0271883
1.0302956
1.028109
1.0294254
1.0288349
1.0289522
1.033162
1.0303815
1.0267042
1.0305521
1.0315486
1.0280936
1.0311385
1.036066
1.0331126
1.0368201
1.0474088
1.0472091
1.0477463
1.0535424
1.049028
1.0387899
1.0410313
1.0458767
1.0353813
1.0177268
1.0131684
1.0264302
1.043768
1.0475818
1.030239
1.0066809
1.000285
1.0192259
1.0579091
1.0870811
1.0892282
1.0644625
1.0268737
0.99706125
0.9837328
1.0039458
1.0091993
1.0095585
1.0086884
1.0106694
1.0178189
1.0218445
1.0205948
1.019934
1.0236844
1.022233
1.0187267
1.0155611
1.0199425
1.027017
1.0292641
1.0284618
1.0278258
1.0293942
1.0304554
1.0324353
1.0285882
1.0268061
1.0315758
1.0327533
1.0284608
1.0297938
1.0339324
1.0314121
1.036939
1.0472007
1.0469726
1.0477972
1.0544486
1.0506147
1.0407606
1.0416124
1.0451614
1.0351161
1.017948
1.0118875
1.0231009
1.0420595
1.0496044
1.0363695
1.0113755
0.99723712
1.0078188
1.0405745
1.0769829
1.0917553
1.0784405
1.0461284
1.0109236
0.9863767
1.0039359
1.009119
1.0095139
1.0084854
1.0102585
1.0173253
1.0216798
1.0197912
1.0199325
1.0232717
1.0217394
1.0185408
1.0149705
1.0191513
1.0265639
1.0288963
1.0295002
1.0261763
1.0293403
1.0320019
1.0321395
1.0271885
1.026468
1.0316745
1.0333113
1.028976
1.0289247
1.0323322
1.0303252
1.0368754
1.0468715
1.0467964
1.0473994
1.0543358
1.0517359
1.0428669
1.0420284
1.0434282
1.0343633
1.0191264
1.0124192
1.0204236
1.0377613
1.0483129
1.0398718
1.0178754
0.99922472
1.0018013
1.0239721
1.0574928
1.0797248
1.0809664
1.0586307
1.0269256
0.99940452
1.003906
1.0090234
1.0093273
1.0082021
1.0099233
1.0170024
1.0217043
1.0191095
1.0199363
1.0229493
1.0213697
1.0176937
1.014725
1.0183289
1.0258358
1.0289105
1.0309053
1.0251197
1.028741
1.0327599
1.0322208
1.0266878
1.0261891
1.0307284
1.0328708
1.0291619
1.0288109
1.0315717
1.0301183
1.0369386
1.0465894
1.0467023
1.0468943
1.0533948
1.0521971
1.0448093
1.0427552
1.0412955
1.0328176
1.0203415
1.0141605
1.0192417
1.0334697
1.0442805
1.0399333
1.0231818
1.0054834
1.0014337
1.0129056
1.0361962
1.0595992
1.0705036
1.0636203
1.0399051
1.0140623
1.0038502
1.0089122
1.0090565
1.0079031
1.0096728
1.0167855
1.0217319
1.0186265
1.0197829
1.0227552
1.0212101
1.0165703
1.0147228
1.0177448
1.0250656
1.0290421
1.0320682
1.0249901
1.0276977
1.0326008
1.0324716
1.0272563
1.0263056
1.0293677
1.0316845
1.0288834
1.0290969
1.0314485
1.0305334
1.0371501
1.0462725
1.0465967
1.0463768
1.0522915
1.0522653
1.0465493
1.0439757
1.0395359
1.0307501
1.0210154
1.0164459
1.0204979
1.0304832
1.0388811
1.0370884
1.0253983
1.012847
1.0071305
1.0085513
1.019976
1.0380981
1.052294
1.0573912
1.0484282
1.0285774
1.0037735
1.0088233
1.0087793
1.0076306
1.0094933
1.0166025
1.021694
1.018357
1.0195069
1.0226282
1.0212888
1.0156153
1.0147939
1.0174345
1.0244462
1.0291843
1.0325381
1.0255575
1.0266704
1.0318107
1.0326274
1.0284468
1.0268299
1.0282266
1.0303131
1.0284056
1.0294896
1.0315914
1.0312872
1.037405
1.0458277
1.0465481
1.0459952
1.0511455
1.0524246
1.0484283
1.0459363
1.0387123
1.0285122
1.0208502
1.0185932
1.0233128
1.0299523
1.0338548
1.0329284
1.0255382
1.0195969
1.015681
1.0121997
1.0122882
1.0199528
1.0324153
1.0436681
1.0479909
1.0417034
1.0036885
1.0087654
1.0085806
1.0074148
1.0093467
1.0164222
1.0215323
1.01828
1.0191708
1.0225129
1.0215121
1.0151234
1.0147933
1.0173217
1.0240632
1.0293819
1.0320683
1.0265772
1.0259686
1.0306613
1.0326527
1.029611
1.0273289
1.0276575
1.029268
1.0279879
1.0298946
1.0316807
1.0317826
1.0373238
1.0451729
1.0464572
1.0455589
1.050009
1.0525299
1.0503794
1.0485189
1.0393313
1.0267943
1.0198679
1.020495
1.0267829
1.0315921
1.0312768
1.0279892
1.0242655
1.0239327
1.0243161
1.020931
1.0129348
1.0095715
1.0145883
1.0269437
1.0405411
1.0479805
1.0036037
1.0087448
1.0084904
1.0072437
1.0091907
1.0162506
1.0212631
1.018324
1.0188162
1.0223791
1.0217627
1.0151809
1.014613
1.01727
1.0239032
1.0295983
1.0308461
1.0276704
1.0257636
1.0294729
1.0326578
1.0303924
1.0275855
1.027583
1.0289452
1.0279427
1.0303367
1.0315964
1.0319728
1.0367138
1.0442443
1.0463714
1.0452567
1.0489956
1.0525431
1.052279
1.0514505
1.0412117
1.0261433
1.0185742
1.0215746
1.0301686
1.034969
1.0314133
1.0239013
1.0218308
1.026034
1.032046
1.0313405
1.0207243
1.00733
1.0022549
1.0104461
1.02857
1.0472511
1.0035203
1.0087356
1.0084683
1.0071305
1.0090462
1.0160936
1.0209453
1.0184458
1.0185398
1.0222511
1.0219822
1.0156708
1.0142466
1.0171754
1.0239058
1.0298087
1.0292617
1.0285589
1.0259504
1.0284748
1.0326607
1.0307156
1.0273469
1.0277234
1.0292402
1.028134
1.0308025
1.0313411
1.0316717
1.0354984
1.0429979
1.0461267
1.0450384
1.0481345
1.0523948
1.0539099
1.0545077
1.0440746
1.0264444
1.0170781
1.0215914
1.0326422
1.0391201
1.0335399
1.0219198
1.0185863
1.0260105
1.0374011
1.0411434
1.0317905
1.0120776
0.99712746
0.9975525
1.0137409
1.0397219
1.003456
1.0087462
1.0084933
1.0070748
1.0089274
1.0159227
1.0207254
1.0186448
1.0183895
1.0221864
1.0221717
1.0164853
1.013885
1.0170624
1.0240265
1.0300537
1.027785
1.0291818
1.0265019
1.0279232
1.0328218
1.0308261
1.0270053
1.0280851
1.0300164
1.028549
1.031398
1.0311808
1.0312297
1.0340538
1.0415288
1.0458812
1.0450331
1.0474661
1.0523009
1.0554571
1.0574864
1.0477459
1.0280434
1.0162465
1.0207484
1.0341894
1.0428798
1.0372592
1.0221373
1.0155239
1.0240373
1.0398008
1.0493411
1.0428599
1.0211387
0.99858473
0.98966695
1.0004592
1.0274083
1.0033979
1.0087735
1.0085554
1.0070829
1.0088572
1.015809
1.0206701
1.0189285
1.0184354
1.0222455
1.0223946
1.0174093
1.0137295
1.0170812
1.0242394
1.0303516
1.0267515
1.0297391
1.0273665
1.027702
1.0331898
1.0309003
1.0265564
1.0284151
1.0308085
1.0290564
1.0318681
1.0310541
1.0308131
1.0326501
1.0401807
1.0456376
1.0450823
1.0468825
1.0516943
1.0561301
1.0595401
1.0512954
1.0303077
1.0156438
1.0191973
1.0348968
1.0466684
1.0407267
1.0241721
1.0131207
1.0209513
1.0391837
1.0552439
1.0527365
1.0313542
1.0044537
0.98724052
0.98982899
1.0131063
1.0034027
1.0088607
1.0087235
1.0072427
1.0089997
1.0159453
1.020881
1.0192615
1.0185664
1.0223513
1.0226338
1.0181862
1.0136722
1.0171204
1.024462
1.0308401
1.0262081
1.030119
1.0282216
1.027874
1.0336977
1.0311525
1.0262746
1.0286471
1.0314579
1.0294487
1.032212
1.0310383
1.0304275
1.0315454
1.0390772
1.0455072
1.0454137
1.0466166
1.0512587
1.0564972
1.0617712
1.054646
1.0331972
1.0150617
1.0164819
1.033347
1.0483961
1.0442764
1.0264902
1.0111116
1.0149203
1.0346417
1.0564787
1.0593503
1.0402055
1.0106119
0.98643944
0.98050371
0.99530429
1.0035136
1.0090326
1.0090253
1.0075264
1.0091774
1.0160601
1.0209973
1.0194121
1.0185331
1.0222302
1.0226636
1.0186754
1.0135957
1.016815
1.0243215
1.0311101
1.0261469
1.0302622
1.0287851
1.028057
1.0341204
1.0316563
1.026488
1.0285944
1.0317555
1.0295588
1.0321496
1.0310258
1.0301572
1.0305785
1.0375036
1.0446753
1.0454238
1.0462861
1.0502824
1.0553634
1.0614615
1.0574298
1.0383733
1.01809
1.0152233
1.0299903
1.0463575
1.0470247
1.0296104
1.0132999
1.0112442
1.0272792
1.050027
1.0592194
1.0468933
1.0194644
0.99354448
0.97977294
0.98490431
1.0181899
1.0394522
1.057852
1.0680132
1.0695083
1.0620834
1.047226
1.0276045
1.0093255
0.99520283
0.98429086
0.98311328
0.99135872
1.0060862
1.0173768
1.0259322
1.0314598
1.0276793
1.0186272
1.0248691
1.0513954
1.0927766
1.1159181
1.0895032
1.0943365
1.1348863
1.0927431
1.0946589
1.1115456
1.1124528
1.1024237
1.0865385
1.0660768
1.045603
1.0268954
1.0115435
1.0030927
1.0067815
1.022563
1.0396235
1.0473208
1.0423052
1.0278077
1.0132755
1.0038025
1.0010257
1.0130441
1.0318389
1.0565291
1.0770698
1.0679391
1.1002535
1.1594333
1.0939357
1.130753
1.1383361
1.1259774
1.1081034
1.0865543
1.0664678
1.0496467
1.0373797
1.0341907
1.0448456
1.0677554
1.0926125
1.1088333
1.1030397
1.0803532
1.0523594
1.0319165
1.0208662
1.0221713
1.0255763
1.0163008
1.0100256
1.0259571
1.0414548
1.0900755
1.1481844
1.0827073
1.1072771
1.0981273
1.0863812
1.0728762
1.0605903
1.0495885
1.0437379
1.0472234
1.063965
1.0921865
1.1240159
1.1492578
1.1536434
1.1384386
1.1132343
1.0915192
1.0790213
1.081202
1.0847199
1.0648707
1.021401
0.9899172
1.0020996
1.028971
1.0690539
1.1037426
1.0552562
1.0423725
1.0323368
1.0257742
1.0191224
1.0153912
1.0180609
1.0295377
1.0503615
1.0778001
1.1077972
1.1337843
1.1474744
1.1462661
1.1315231
1.1180811
1.1117702
1.1221515
1.1487566
1.1568257
1.1202396
1.0558986
1.0119284
1.0216678
1.0484102
1.0532253
1.0392095
1.0189337
0.9946549
0.98781695
0.99148322
0.99575112
1.0037622
1.0144873
1.028138
1.0429874
1.0601704
1.0753111
1.0886068
1.0940006
1.0913385
1.0838825
1.0821652
1.0926969
1.1205449
1.1600762
1.1825902
1.1563295
1.1038052
1.0732596
1.0945044
1.1056607
1.047968
0.98864534
0.99418958
0.98801291
0.99657812
1.0162423
1.0276775
1.0369624
1.0425817
1.0435611
1.0415674
1.0383395
1.0357889
1.0337447
1.0341936
1.0325644
1.0323651
1.0384595
1.052204
1.073225
1.1071881
1.1348282
1.1339869
1.1235599
1.1352919
1.1974747
1.1903778
1.066646
0.97213261
0.99800569
1.0477341
1.0666606
1.0800208
1.0844059
1.0815411
1.0717373
1.0585398
1.0453174
1.03458
1.0274824
1.0250973
1.0271593
1.0311188
1.0308594
1.0287481
1.0256919
1.0253318
1.0380112
1.0578966
1.0735582
1.0966418
1.1530478
1.2481041
1.2438918
1.109156
1.0091103
1.0494783
1.1299692
1.1444932
1.1444461
1.132249
1.1140817
1.0936086
1.0743258
1.0594456
1.0515306
1.053823
1.0610988
1.0731968
1.0852918
1.0826919
1.0660551
1.037911
1.0114277
1.0011038
1.0122796
1.029037
1.0617585
1.1126489
1.1978017
1.2174986
1.1332824
1.0937914
1.1535953
1.1629959
1.1722733
1.1660271
1.1528855
1.135551
1.1151116
1.0967368
1.0840814
1.081359
1.0911611
1.1126324
1.1402235
1.1567644
1.1501901
1.1199723
1.0768862
1.0379678
1.0203582
1.0279349
1.0462336
1.0572846
1.0609164
1.0894894
1.1212582
1.1092395
1.1645382
1.2810991
1.1473528
1.1498349
1.1483701
1.1376744
1.1256291
1.1137336
1.1047631
1.1015731
1.1090608
1.1292039
1.1596442
1.1894679
1.204175
1.1897899
1.155706
1.1179016
1.0935325
1.0871872
1.1033932
1.1212674
1.0922936
1.0422244
1.0108931
1.034629
1.0632778
1.1723096
1.3448656
1.1074736
1.1102641
1.1113286
1.1071087
1.1011651
1.0949949
1.0926707
1.0988129
1.1151208
1.1414251
1.1738077
1.2035649
1.2143082
1.1994139
1.1691436
1.1438545
1.1389596
1.1644772
1.2120387
1.2252928
1.1544481
1.0561858
0.99641896
1.006205
1.0466651
1.1446319
1.2937863
1.0872621
1.090779
1.0947782
1.0926797
1.089106
1.0886582
1.0918555
1.0970567
1.1066936
1.1253426
1.1524717
1.1777515
1.1908223
1.1848104
1.1694884
1.1565447
1.1637436
1.2045791
1.270919
1.2935259
1.2150522
1.1083929
1.0389558
1.0461534
1.0857719
1.1235402
1.1789726
1.0952482
1.1061752
1.1173899
1.1198665
1.1166471
1.1082227
1.0981373
1.0921012
1.0929698
1.101597
1.1150742
1.1335297
1.1492958
1.1580589
1.1593963
1.1623079
1.1750561
1.204058
1.2492093
1.2744662
1.2333254
1.1650442
1.1276558
1.157542
1.1799104
1.1249898
1.0825797
1.1391761
1.1525389
1.1586665
1.1542258
1.1421785
1.1249888
1.1060441
1.0893038
1.0781346
1.0785042
1.0907968
1.1116382
1.134206
1.1487371
1.1562121
1.160573
1.1660934
1.1798505
1.2081292
1.2247705
1.2034788
1.1821142
1.206182
1.2968191
1.306643
1.1517243
1.0472252
1.1773551
1.1888133
1.1914946
1.1783818
1.1563643
1.1305825
1.1058269
1.0875611
1.0811077
1.0875742
1.1078378
1.1398349
1.1688379
1.18474
1.1834606
1.1674092
1.1498999
1.1466335
1.1611639
1.1791052
1.1746225
1.1792777
1.2369983
1.3631081
1.3930541
1.213494
1.0750604
1.1885236
1.2040861
1.206832
1.1929861
1.1699206
1.1426235
1.1169992
1.101108
1.1010159
1.1200885
1.1568313
1.2012251
1.234774
1.2418228
1.2210007
1.1797647
1.1401709
1.1187872
1.1247695
1.1551624
1.1776847
1.1966899
1.2357768
1.3320711
1.3836905
1.2709624
1.1599323
1.1842685
1.2037329
1.2091245
1.1967638
1.1770112
1.1538775
1.1340072
1.1255829
1.1338721
1.159584
1.2025462
1.2508507
1.2825861
1.2767338
1.2381189
1.1826631
1.1358229
1.1123474
1.1244171
1.166374
1.2101181
1.2316653
1.2301945
1.2639898
1.3020718
1.2735148
1.2494968
1.1764623
1.1938191
1.1996496
1.1929409
1.178149
1.1607104
1.1482169
1.1475681
1.1622358
1.1911676
1.2333374
1.275732
1.2965349
1.2788879
1.2318704
1.1765588
1.1358201
1.1261237
1.154643
1.2131343
1.2654627
1.2680472
1.233815
1.2167016
1.2233099
1.2308615
1.2861882
1.1799991
1.193251
1.2017857
1.1997704
1.1880229
1.1729692
1.1636005
1.1654577
1.1808367
1.2102557
1.2505573
1.2824641
1.2863188
1.2613149
1.2185041
1.1750554
1.1509465
1.1587373
1.203254
1.2716802
1.320906
1.3010868
1.2447379
1.2082483
1.1913832
1.2024521
1.2774044
1.2033423
1.2225574
1.2370989
1.233808
1.2164485
1.1944827
1.1802127
1.1788682
1.1916232
1.2189245
1.2510103
1.2717532
1.2693003
1.2495666
1.2184376
1.1925958
1.1861343
1.2082232
1.2565709
1.315267
1.3470582
1.3205617
1.2645471
1.2263127
1.2030358
1.2102537
1.2691178
1.2406644
1.271438
1.2887225
1.2786157
1.2484081
1.2132258
1.1893889
1.1820622
1.1916873
1.2155165
1.2424639
1.2590008
1.2607957
1.2514744
1.2379656
1.2310488
1.240615
1.26831
1.3036325
1.3348941
1.3356033
1.3078998
1.273078
1.2529216
1.2481828
1.25875
1.292304
1.2702899
1.3062606
1.3176469
1.2972278
1.255178
1.2117668
1.1839643
1.1772599
1.1884761
1.2133511
1.2395936
1.2564428
1.2633616
1.2654593
1.2694482
1.2821716
1.305588
1.3323356
1.3473954
1.3401404
1.3095247
1.2710749
1.2485363
1.2601275
1.3036893
1.345203
1.3522814
1.2879068
1.3175583
1.3153258
1.2838731
1.2345724
1.1937513
1.1732684
1.1731437
1.1900421
1.2163804
1.2408067
1.2569246
1.2674823
1.2790646
1.296455
1.324501
1.3589166
1.3852805
1.3853741
1.3522148
1.297191
1.2425768
1.2183503
1.2485931
1.3332444
1.4318136
1.43545
1.3064859
1.3291016
1.3120312
1.2643739
1.2164174
1.1893719
1.1815438
1.189759
1.2088833
1.2288475
1.2443656
1.255051
1.2669264
1.283186
1.3084157
1.3431894
1.3820372
1.4107139
1.4121658
1.3743437
1.3119115
1.2502403
1.2144052
1.2378326
1.3363871
1.4731531
1.5048902
1.3443755
1.3594898
1.3253546
1.2686155
1.2311324
1.2159252
1.2172058
1.227377
1.2390507
1.2473816
1.2522587
1.2564028
1.2636463
1.2771595
1.2998449
1.3307381
1.3696303
1.40028
1.4143869
1.3990559
1.3516983
1.2933521
1.2480227
1.2572503
1.3326672
1.4641298
1.5273012
1.3953683
1.4016338
1.355152
1.2975726
1.2695823
1.2634516
1.2686907
1.2757215
1.2787183
1.2762015
1.271964
1.266326
1.2628138
1.2665313
1.2802988
1.3032901
1.3341985
1.3652685
1.3896992
1.4025969
1.3897414
1.3578511
1.3213633
1.3044695
1.3408157
1.4227953
1.4922789
1.4510317
1.4558154
1.4029775
1.3417702
1.3148694
1.3117011
1.3195381
1.3266413
1.3268114
1.3188908
1.3053698
1.2880871
1.2712597
1.2616258
1.2633783
1.2759328
1.298163
1.3236758
1.3513512
1.3785893
1.406098
1.4178807
1.4011287
1.3709671
1.3600949
1.3836014
1.4268289
1.5253265
1.5359154
1.4801869
1.4035579
1.3610172
1.3478587
1.3534102
1.3634791
1.3695563
1.3649191
1.3485894
1.3235952
1.2948858
1.2726774
1.2628397
1.2656566
1.2778913
1.295258
1.3193645
1.3479793
1.3928684
1.4379672
1.4559884
1.4298011
1.3877837
1.3640862
1.3717171
1.6162382
1.6286327
1.578208
1.4936119
1.42185
1.3856845
1.3747324
1.3810868
1.3914871
1.3952507
1.3852688
1.3629021
1.3304417
1.299349
1.2783697
1.2717664
1.2769389
1.2921343
1.3128264
1.3391261
1.3751015
1.4235303
1.4621106
1.4554857
1.409981
1.3580408
1.3440532
1.6777499
1.6745394
1.629901
1.5636594
1.4922702
1.4320028
1.3969751
1.3850639
1.3917755
1.4017942
1.402412
1.3887295
1.365198
1.3347213
1.3087629
1.29629
1.297288
1.3099442
1.3291218
1.3499893
1.3723753
1.4023513
1.4338282
1.4407514
1.4118927
1.3646939
1.3352236
1.6781689
1.6631395
1.6233979
1.570353
1.5094483
1.4492011
1.4026601
1.3790653
1.3742285
1.3828627
1.3920824
1.3917142
1.3803013
1.3626491
1.3437871
1.3322017
1.3320492
1.3424153
1.3584811
1.371864
1.3801817
1.388586
1.3993524
1.4046243
1.3949361
1.3680492
1.334702
1.6401795
1.6289677
1.5993424
1.5489346
1.4863747
1.4279018
1.3842443
1.3589883
1.3486596
1.350401
1.3593412
1.3669909
1.3701152
1.3691308
1.3664389
1.366762
1.3724682
1.3830408
1.3948874
1.4020469
1.3986178
1.3871559
1.3764385
1.3734788
1.3728082
1.3636972
1.3456396
1.6210867
1.6288281
1.607756
1.5499735
1.4768081
1.4143284
1.3721961
1.3492684
1.3401608
1.3408667
1.3485341
1.358673
1.3684356
1.3759606
1.3838031
1.3945102
1.408696
1.424149
1.4352624
1.4356604
1.4221642
1.3988505
1.3762427
1.3673371
1.3685058
1.3697396
1.3653201
1.6586427
1.6985154
1.6744372
1.5977694
1.5095122
1.4398936
1.3942137
1.3695128
1.3594372
1.3598927
1.367993
1.3803127
1.3940411
1.4067796
1.4187428
1.4311876
1.4472672
1.462624
1.4731321
1.4704921
1.4543664
1.4259892
1.3985709
1.3826616
1.3867449
1.397839
1.4050777
1.8345875
1.9086343
1.8817706
1.8090311
1.7374624
1.6785496
1.629252
1.5876599
1.5539375
1.5255826
1.5049501
1.4939763
1.4952366
1.5049956
1.513536
1.5236651
1.5305696
1.5318523
1.5273786
1.5157923
1.5004219
1.4778612
1.4466871
1.4286175
1.427386
1.4442516
1.4692782
2.2618774
2.4659409
2.5979891
2.7089112
2.7498841
2.7149481
2.6266141
2.5015738
2.3557291
2.2042183
2.0603601
1.9305503
1.830029
1.7650097
1.7282185
1.7101403
1.6982507
1.6798377
1.6482405
1.6108014
1.5774479
1.548809
1.5221574
1.5029434
1.4978538
1.5140499
1.5524453
2.6920192
3.1019034
3.5415874
3.7737222
3.7586939
3.6108338
3.4025409
3.1853441
2.9781552
2.786335
2.6109156
2.4543397
2.3225044
2.2230085
2.1523034
2.0984448
2.048023
1.9870124
1.9103036
1.8261782
1.7469003
1.6790378
1.6223272
1.5818855
1.5683674
1.5850398
1.630554
3.034549
3.649967
4.1548994
4.2233429
4.0532879
3.8101434
3.570625
3.3577668
3.1705132
3.0024738
2.8494157
2.707292
2.5817868
2.4692926
2.3674545
2.2682153
2.165713
2.0605437
1.95874
1.8651891
1.7852519
1.7186844
1.6665858
1.6315995
1.6166948
1.6249969
1.6591793
4.260376
4.7809232
4.8512245
4.5848522
4.2353519
3.9162236
3.6420623
3.4063853
3.1993584
3.0123566
2.8397497
2.6741055
2.5156114
2.366907
2.2338379
2.1207437
2.0259518
1.9480851
1.8866715
1.8363134
1.7909466
1.7463292
1.7000992
1.6552718
1.6263736
1.642352
1.7269427
5.0392275
4.803745
4.4035945
4.0562226
3.795702
3.5902815
3.4138857
3.2510308
3.0906576
2.9231798
2.7456733
2.5635745
2.3914188
2.2456001
2.1338362
2.0574517
2.011391
1.9885524
1.9771227
1.9656516
1.9338679
1.8822074
1.8230792
1.7783503
1.7873862
1.8442435
1.9337733
4.2585467
3.9324821
3.6887424
3.5212242
3.39107
3.2796362
3.1751062
3.0683258
2.9501096
2.8161244
2.6667832
2.5108277
2.3650027
2.2469068
2.1674078
2.1310672
2.1346115
2.162846
2.1935311
2.2078978
2.1903201
2.1391286
2.0687856
2.0127772
1.9671521
1.916669
1.8630144
3.8526498
3.6200784
3.4529349
3.3245753
3.2121027
3.1055714
2.9976709
2.8850446
2.7647942
2.6370736
2.5077834
2.3829617
2.2718249
2.1881191
2.142436
2.1419469
2.1846229
2.2514291
2.3168813
2.3499109
2.3274725
2.2232042
2.0917614
1.9443449
1.7852438
1.6560487
1.6108335
3.8119863
3.5931533
3.4285443
3.2806709
3.1346389
2.9875615
2.8449465
2.7069246
2.5742726
2.4463665
2.3258747
2.2162589
2.1235733
2.0569884
2.0264559
2.0365329
2.0837186
2.1577407
2.2308833
2.2633272
2.2140326
2.0807976
1.9057094
1.7254076
1.5915489
1.5335619
1.5548798
3.8794777
3.6432079
3.4419852
3.247417
3.0585628
2.8820938
2.7225496
2.5801873
2.4525098
2.3357863
2.2269325
2.125891
2.0369573
1.9688086
1.9329347
1.9312799
1.9593763
2.0178633
2.0822675
2.1168181
2.0768644
1.9591147
1.8111929
1.6861983
1.6228724
1.6151011
1.6615928
3.7571195
3.5394032
3.350239
3.1720264
3.0011281
2.8399148
2.6919604
2.5593628
2.441886
2.3353866
2.233811
2.1359867
2.0469225
1.9713965
1.9195563
1.8922276
1.8884614
1.9151859
1.9644116
2.009574
2.0102385
1.9541182
1.8765484
1.8116428
1.7849388
1.7919328
1.8452995
3.406481
3.2566577
3.1466032
3.0524304
2.9571543
2.8560304
2.747962
2.6371137
2.5294912
2.4273954
2.3297981
2.235067
2.144523
2.0607652
1.9911401
1.9391401
1.90559
1.894626
1.9124065
1.9518674
1.992999
2.0178472
2.0289134
2.0340791
2.0385143
2.0482196
2.089919
3.0809117
2.9764054
2.9139827
2.8774815
2.853856
2.8306644
2.7958693
2.7425157
2.6713085
2.5875202
2.4965423
2.4031103
2.3102509
2.220186
2.136184
2.066324
2.0138689
1.9811903
1.972062
1.9900196
2.0358928
2.1049266
2.1785456
2.2331675
2.2561418
2.2528526
2.2440874
2.8954244
2.8066217
2.7543647
2.731024
2.727278
2.7375439
2.7548253
2.7676219
2.7640071
2.7368874
2.6856251
2.6143871
2.5312991
2.4440335
2.3584236
2.279566
2.2112897
2.1585529
2.124749
2.118846
2.1475973
2.2051691
2.2712569
2.3142226
2.3236073
2.2927995
2.2319909
2.8103981
2.722787
2.6729966
2.6485479
2.6419024
2.6494486
2.6700853
2.7020434
2.7402596
2.7747208
2.7947355
2.7929094
2.7659807
2.7149299
2.6465683
2.570294
2.4874967
2.4035743
2.3287332
2.2809158
2.2539786
2.2449078
2.2549079
2.2821159
2.3050769
2.288055
2.2149068
2.7650198
2.6811836
2.6318656
2.6039787
2.5904139
2.589899
2.6024041
2.6280526
2.6678015
2.7225052
2.7879355
2.8542731
2.9080978
2.932021
2.9139136
2.8529597
2.7526225
2.6266966
2.4937087
2.37165
2.2785209
2.2206996
2.2133482
2.250709
2.3183493
2.361582
2.3104353
2.738793
2.6601501
2.6134594
2.5852266
2.5697566
2.5654303
2.571865
2.5903358
2.6226576
2.6705049
2.734653
2.8139803
2.8964841
2.9669522
2.9946379
2.9563879
2.8485737
2.6949403
2.5282632
2.3808448
2.272761
2.2118988
2.2073127
2.270852
2.3975222
2.5094096
2.481557
2.7254958
2.6528025
2.6091158
2.5846572
2.5714679
2.5662206
2.5691069
2.5809293
2.6028956
2.6351334
2.6768498
2.7243209
2.7763847
2.8228065
2.8421998
2.812505
2.7278104
2.6077351
2.4821126
2.3705836
2.2814639
2.2334826
2.2405455
2.328735
2.4784955
2.6089253
2.5756558
2.7044446
2.6340892
2.5940566
2.5717607
2.5584273
2.551631
2.5507995
2.5562062
2.5664338
2.5796702
2.5923113
2.6015934
2.6058499
2.6043627
2.5909002
2.5643706
2.5239973
2.4717854
2.4145593
2.3566485
2.3024601
2.2774686
2.2974081
2.3766751