/*--------------------------------*- C++ -*----------------------------------*\
| =========                 |                                                 |
| \\      /  F ield         | OpenFOAM: The Open Source CFD Toolbox           |
|  \\    /   O peration     | Version:  2406                                  |
|   \\  /    A nd           | Website:  www.openfoam.com                      |
|    \\/     M anipulation  |                                                 |
\*---------------------------------------------------------------------------*/
FoamFile
{
    version     2.0;
    format      ascii;
    arch        "LSB;label=32;scalar=64";
    class       volVectorField;
    location    "11";
    object      U;
}
// * * * * * * * * * * * * * * * * * * * * * * * * * * * * * * * * * * * * * //

dimensions      [0 1 -1 0 0 0 0];

internalField   nonuniform List<vector> 
96472
(
(0.11684691 0.0013418227 1.5515488e-22)
(0.11565364 0.0026043222 -4.9339604e-21)
(0.11927925 0.003095395 -3.3839629e-21)
(0.11985743 0.0039459388 -1.1769382e-20)
(0.11979104 0.0041967722 1.3675038e-20)
(0.11934006 0.0040030692 9.4010787e-21)
(0.11799677 0.0033691252 -1.8963493e-21)
(0.11601759 0.0025610755 -1.8816969e-21)
(0.11421373 0.0018991519 1.4570849e-22)
(0.11282355 0.001740217 -3.1798236e-21)
(0.11142208 0.0021721247 -4.1567025e-21)
(0.10978673 0.0030869216 4.1084651e-23)
(0.10795117 0.0043123913 -1.5212819e-21)
(0.10601988 0.0058561798 -2.6013279e-21)
(0.1039765 0.0073896546 -5.2880736e-24)
(0.10176312 0.0085197851 8.0857211e-24)
(0.099407111 0.0091014807 -2.3207867e-21)
(0.096926343 0.0091939361 -8.4657469e-21)
(0.09449791 0.0090020584 6.429259e-21)
(0.092277841 0.0086137591 -7.8225498e-21)
(0.090171969 0.0080606996 5.5640974e-21)
(0.088155079 0.0075842793 -2.0871154e-21)
(0.086326154 0.0071236708 -1.1643492e-21)
(0.084659424 0.0066450866 -6.260461e-21)
(0.08311646 0.0061118535 -9.0780916e-22)
(0.081747378 0.0056931995 5.5647605e-21)
(0.080615855 0.0052608436 -5.6172621e-21)
(0.079681331 0.0049149473 7.0494492e-23)
(0.078994824 0.0045166274 5.9447367e-21)
(0.078502489 0.004102446 2.8025217e-21)
(0.078213829 0.003573817 -5.7458621e-22)
(0.078068964 0.0030458151 3.5604517e-22)
(0.078114233 0.002332777 -7.5836344e-21)
(0.078184772 0.0016004722 -6.0492064e-21)
(0.07837103 0.00064430803 0)
(0.078323398 -0.00032743418 -4.3377281e-21)
(0.078459586 -0.001562187 4.7734894e-21)
(0.078162795 -0.0028237319 -3.330346e-21)
(0.078339935 -0.0043367508 1.847735e-21)
(0.078043185 -0.0060045977 -5.7138795e-23)
(0.078383902 -0.0078248258 5.9554489e-22)
(0.078252072 -0.0098504224 -1.5514221e-21)
(0.078682112 -0.011765575 4.3470275e-22)
(0.078761484 -0.014181532 9.8684502e-22)
(0.079362799 -0.016236546 -7.7709209e-22)
(0.079476037 -0.018644244 3.8879706e-21)
(0.080454018 -0.021072027 1.2549127e-23)
(0.080463472 -0.023272911 -3.9763881e-21)
(0.081608689 -0.025629681 -8.1056804e-22)
(0.081904369 -0.028205605 5.0998632e-22)
(0.08317759 -0.030535223 1.877359e-21)
(0.083559404 -0.032912763 1.1525574e-21)
(0.085071141 -0.035406131 -2.7973904e-21)
(0.086035584 -0.037736692 -4.9325664e-21)
(0.087316373 -0.041212665 2.7180936e-22)
(0.11694727 0.0014109413 1.3734762e-22)
(0.11554209 0.0025847904 -3.20155e-21)
(0.11921615 0.0030094054 0)
(0.11982173 0.003852768 -1.1384281e-20)
(0.11984582 0.004116542 -1.0047142e-20)
(0.11948432 0.0039113699 3.0399224e-22)
(0.1182287 0.0032431476 2.3400349e-22)
(0.11629292 0.0023788898 1.6927907e-21)
(0.11445771 0.0016577045 1.4297755e-21)
(0.11300976 0.0014439288 0)
(0.11160431 0.0018160821 -2.996831e-22)
(0.11000439 0.0026698332 -2.7703712e-21)
(0.10823419 0.0038420642 -7.7300778e-22)
(0.10638029 0.0052949206 9.1424144e-23)
(0.10437577 0.0068109693 -6.1437131e-24)
(0.1022106 0.0080253878 -3.6228102e-21)
(0.099907772 0.0087262653 8.5540177e-23)
(0.097498371 0.0089001222 9.2147962e-23)
(0.095071726 0.0087249734 -4.9771349e-21)
(0.092763723 0.0084318481 0)
(0.090612904 0.0080417284 -1.1153523e-20)
(0.088603432 0.0075372434 4.7101436e-21)
(0.086754771 0.0070357034 1.9735755e-24)
(0.085053208 0.0065702672 -2.4239732e-24)
(0.083500615 0.0060431143 3.8603501e-21)
(0.082083987 0.00561252 1.4232138e-22)
(0.080914673 0.0051458202 2.6147545e-22)
(0.079903785 0.0048363321 -5.6179812e-21)
(0.079160923 0.0044270586 8.445558e-21)
(0.078513048 0.0041454309 3.078817e-21)
(0.078221171 0.0036260985 -3.0736793e-21)
(0.077938798 0.0031790446 -2.8770155e-21)
(0.078023939 0.002507884 1.0381954e-20)
(0.077998055 0.0018246436 -4.4054713e-22)
(0.07835872 0.00096848648 -1.0328731e-21)
(0.078418634 -1.7852866e-05 5.1921313e-21)
(0.078870905 -0.0011403088 7.1910284e-22)
(0.07888018 -0.0024063494 -5.1436507e-23)
(0.079271863 -0.0037624704 -6.0287807e-22)
(0.079169644 -0.0053119012 -5.6176094e-21)
(0.079497985 -0.0068922627 5.9509781e-22)
(0.07938015 -0.0086995812 -4.9921431e-23)
(0.079819158 -0.010526705 3.5378022e-23)
(0.079749612 -0.012533625 6.5063062e-22)
(0.080415084 -0.01451351 -1.8722414e-21)
(0.080453525 -0.016734136 -1.0558754e-21)
(0.081314605 -0.018751087 1.0188781e-21)
(0.08159466 -0.021149124 -8.188018e-23)
(0.082602933 -0.023311873 7.4256236e-23)
(0.083187025 -0.025672073 6.5905514e-22)
(0.084100334 -0.027874587 -1.2753621e-21)
(0.08528939 -0.030284769 -5.2136517e-22)
(0.085949315 -0.032629322 5.8151688e-22)
(0.087465122 -0.034352027 6.6367769e-22)
(0.088238555 -0.037784905 7.7311697e-22)
(0.1169145 0.0013994508 -1.3773416e-24)
(0.11548411 0.0025237811 0)
(0.11922631 0.0029080953 -9.5425567e-21)
(0.11987689 0.0037427531 0)
(0.11994549 0.0040223792 -1.2575972e-20)
(0.11963828 0.0038041773 -1.2115769e-23)
(0.11841621 0.0031063962 -2.6443788e-22)
(0.11647005 0.0022011817 2.1835889e-23)
(0.11457275 0.0014174215 -2.5835511e-21)
(0.11305794 0.0011411411 -2.1777295e-21)
(0.11162805 0.0014863471 -1.9932128e-22)
(0.11005174 0.0023192549 2.7990133e-21)
(0.10830685 0.0034555637 9.8751047e-22)
(0.10648112 0.0048687034 1.4638229e-21)
(0.10451523 0.006312571 -1.7743046e-22)
(0.10240691 0.0075486353 1.5118622e-21)
(0.10016222 0.0083045734 2.1986946e-21)
(0.097805001 0.0086160864 -2.088141e-21)
(0.095404483 0.0085228825 0)
(0.093074809 0.0081785477 -1.542243e-22)
(0.090914488 0.007823181 -6.5385511e-24)
(0.08891795 0.0073994398 -3.000364e-24)
(0.087071961 0.0069058004 -1.5508145e-23)
(0.085365506 0.0064249443 -4.1937363e-23)
(0.083811124 0.0059499324 -6.91485e-23)
(0.082392569 0.0054843825 -3.1944925e-21)
(0.081190532 0.0050210237 3.7633725e-21)
(0.080178643 0.0046455258 1.7817411e-21)
(0.079430692 0.0042041266 -2.4552412e-21)
(0.078805533 0.0038291703 -2.0551993e-21)
(0.078459902 0.003307724 -5.7757468e-24)
(0.07816374 0.0028509655 -3.736367e-21)
(0.07820346 0.0022043739 -2.291614e-22)
(0.078154263 0.0015884907 6.7076518e-22)
(0.078486903 0.0008115399 -7.5282813e-22)
(0.078590534 -5.7365965e-05 5.5949639e-21)
(0.079094992 -0.0010517675 1.5026953e-21)
(0.079243979 -0.0022222089 4.31103e-21)
(0.079809371 -0.0034787077 5.5182936e-23)
(0.079939116 -0.0049558538 -6.295809e-23)
(0.080511875 -0.0064477364 2.0475732e-21)
(0.080552051 -0.0081922465 4.3561134e-21)
(0.081134545 -0.0098778372 0)
(0.081189215 -0.01182768 2.4272429e-21)
(0.081795232 -0.013636486 1.2609925e-21)
(0.082007504 -0.015711719 -2.4766086e-21)
(0.082671969 -0.017625208 -3.7461341e-22)
(0.083145489 -0.019723871 1.0023559e-24)
(0.083803569 -0.021788264 0)
(0.084712464 -0.023735138 2.8916644e-25)
(0.085334319 -0.026138591 1.0269392e-22)
(0.086633589 -0.027853743 3.3923305e-22)
(0.087123759 -0.030230606 3.0767662e-23)
(0.088919553 -0.032058906 7.2034544e-22)
(0.089526228 -0.034860898 2.7011339e-21)
(0.11683004 0.0014430232 1.3369507e-22)
(0.11544114 0.0024621621 7.4332586e-23)
(0.11925115 0.0027880663 -2.2214871e-23)
(0.11993977 0.00360834 -8.6877804e-23)
(0.12004512 0.0038948514 -1.4938675e-22)
(0.11978112 0.0036741847 2.5077861e-23)
(0.11858707 0.0029591076 2.5360342e-22)
(0.11663157 0.0020316374 9.9749109e-22)
(0.11468148 0.0012116425 -1.103061e-22)
(0.11311204 0.00088979257 -2.6471064e-21)
(0.11166381 0.0011863552 -7.7409169e-24)
(0.1101068 0.0019487931 1.1294088e-23)
(0.10840403 0.0030136152 2.9278251e-21)
(0.10662492 0.0043431575 -5.9090539e-22)
(0.10470431 0.005744445 -1.6457403e-22)
(0.10264049 0.0069513641 3.0574437e-24)
(0.10043766 0.0077475265 -7.9475492e-22)
(0.09811161 0.008116622 4.7951827e-24)
(0.095747563 0.0081569603 4.3152249e-21)
(0.09342913 0.0079559451 0)
(0.091245951 0.0075635444 3.8552859e-21)
(0.089242073 0.0071705678 0)
(0.087398361 0.0067310057 7.8035285e-21)
(0.085682255 0.006304843 6.7185818e-21)
(0.08412092 0.0058100627 -6.488537e-23)
(0.082693144 0.0053973387 -3.7163178e-21)
(0.081469041 0.0049285924 -3.8795188e-21)
(0.08042472 0.0045764226 4.413534e-21)
(0.079646964 0.0041631701 -7.0224787e-21)
(0.079009837 0.0038332807 -1.7849235e-22)
(0.078667036 0.0033468936 2.2616804e-23)
(0.078390113 0.0029036668 3.0711038e-21)
(0.078444791 0.0022991081 -8.2967591e-21)
(0.078433191 0.0017036575 -9.5898231e-21)
(0.07877915 0.00095364665 4.1448847e-21)
(0.078919028 0.00014408595 6.1805742e-23)
(0.079429799 -0.00078408656 7.7794598e-22)
(0.079620779 -0.0018553747 9.9473711e-21)
(0.080206718 -0.0029896084 -4.2724164e-21)
(0.080416902 -0.0043491442 6.3837278e-21)
(0.081029382 -0.0057211096 -7.6823151e-22)
(0.081295685 -0.0073339166 7.9334265e-22)
(0.081908527 -0.0089420293 7.377886e-22)
(0.082227992 -0.010707757 -1.3931901e-21)
(0.082825019 -0.012529651 3.2495964e-21)
(0.083300338 -0.014348457 -5.1785582e-22)
(0.083806568 -0.016301132 1.1282653e-21)
(0.084592819 -0.01815923 1.2573829e-21)
(0.085000262 -0.020159316 -1.7850309e-22)
(0.086148884 -0.022023929 -1.0235811e-22)
(0.086533083 -0.024157351 -7.4404854e-22)
(0.08790614 -0.025746635 6.885889e-22)
(0.088546454 -0.028208674 -9.4240223e-22)
(0.090031332 -0.029716372 1.2195247e-22)
(0.090629168 -0.032153812 2.0928497e-21)
(0.11676479 0.001436402 -8.8720126e-22)
(0.11540495 0.0023948223 0)
(0.11927933 0.0026709796 1.6327302e-20)
(0.12000199 0.0034798113 6.9748876e-21)
(0.1201364 0.0037747601 0)
(0.11990931 0.0035515171 -2.1524464e-21)
(0.11874604 0.0028280587 0)
(0.1167905 0.0018914462 0)
(0.11479618 0.0010578581 5.1457045e-21)
(0.11317403 0.00070683486 -3.3463924e-21)
(0.11170758 0.00095172545 -1.0215795e-22)
(0.11017292 0.0016540211 5.6545094e-21)
(0.10850066 0.0026235576 -8.5284096e-22)
(0.10675101 0.0038727727 -1.5916519e-21)
(0.10486673 0.0052173283 -9.867534e-22)
(0.10285503 0.0064184728 -1.5419305e-22)
(0.10070218 0.0072734126 5.3057982e-22)
(0.098409388 0.0076691724 1.0289671e-21)
(0.09605115 0.0077202586 -1.0629175e-21)
(0.093755038 0.0076332198 -1.4515926e-22)
(0.091584443 0.0073321004 -2.3229199e-21)
(0.08956234 0.0069113494 4.6602259e-23)
(0.087709974 0.0064922727 -9.4577923e-24)
(0.086001283 0.0060678861 4.6847161e-23)
(0.08443313 0.0055692445 1.0082992e-22)
(0.082993354 0.0051282504 7.3531316e-23)
(0.081748047 0.0046785807 -3.3271332e-21)
(0.080689294 0.0043002712 -7.5645256e-23)
(0.079890215 0.0038792124 2.2614262e-21)
(0.079251504 0.0035224148 0)
(0.078884601 0.0030631833 -2.0438918e-22)
(0.078603383 0.0026357838 2.4628399e-23)
(0.07864125 0.0020826566 3.7618879e-21)
(0.078667877 0.0015398528 5.0048715e-21)
(0.079018199 0.00084452014 4.3883667e-21)
(0.07925406 0.00011849073 8.1783368e-22)
(0.079770857 -0.000709461 -2.8594958e-21)
(0.080090364 -0.001669264 -4.1182185e-21)
(0.080647894 -0.0027033183 -1.5392737e-22)
(0.081021637 -0.0039057104 -7.0181002e-21)
(0.081555207 -0.0051759655 -2.6607328e-21)
(0.082006038 -0.0065925183 -3.0305864e-21)
(0.08250706 -0.0081020408 9.3971298e-22)
(0.08313087 -0.0096939404 -2.1013288e-21)
(0.08355271 -0.011402056 -1.9251527e-22)
(0.084371877 -0.013053224 -3.2260303e-22)
(0.084775844 -0.01496235 -1.1205154e-21)
(0.085716346 -0.016530773 2.4932432e-21)
(0.086187418 -0.018657878 -5.5926764e-23)
(0.087325855 -0.020191634 -4.1224112e-23)
(0.087753279 -0.022225266 -5.9349161e-23)
(0.08912162 -0.02383506 6.9740201e-22)
(0.089707198 -0.026072652 -2.9520392e-22)
(0.091046 -0.027127218 -3.7137542e-22)
(0.09179431 -0.029969128 4.7464404e-22)
(0.11669249 0.001462319 0)
(0.11537077 0.0023205457 -3.9051674e-23)
(0.11930409 0.0025487729 -6.8462134e-21)
(0.12005605 0.0033499358 1.13296e-22)
(0.12021779 0.003652886 1.5058149e-22)
(0.12002592 0.0034283087 -4.7201208e-22)
(0.11889718 0.0027120851 0)
(0.11694806 0.0017819753 3.5283742e-21)
(0.11491569 0.00095693771 -6.251001e-21)
(0.11324642 0.00058388859 8.3987919e-24)
(0.11175981 0.00077551786 3.5151393e-22)
(0.11024172 0.0013964287 4.2362813e-21)
(0.10860339 0.0022655521 -2.1892688e-21)
(0.10688508 0.0033915928 1.4619178e-22)
(0.10502995 0.004608748 5.823873e-24)
(0.1030495 0.0058008964 9.5561394e-22)
(0.10094483 0.0066935132 7.8820835e-22)
(0.098704575 0.0072113244 -6.4182378e-22)
(0.096364022 0.0073382508 -2.1760979e-22)
(0.094059077 0.0072125922 -9.7705616e-23)
(0.091902917 0.0070282297 1.5753265e-24)
(0.089889796 0.0066828098 4.6305579e-23)
(0.088028345 0.0062543702 -2.4491371e-21)
(0.086319154 0.0058285903 -1.3765772e-23)
(0.084750083 0.0053920674 -5.8761654e-23)
(0.083300971 0.0049474372 6.8845299e-23)
(0.082027405 0.004498025 3.6768204e-21)
(0.080942093 0.0041159189 -1.3384091e-21)
(0.080104104 0.0037209195 1.6644338e-21)
(0.079459204 0.0033667095 1.944708e-21)
(0.079060495 0.002952654 2.3627494e-21)
(0.078807324 0.002544676 -2.2119955e-23)
(0.078802639 0.002041924 2.6087932e-23)
(0.078898736 0.0015100223 7.9685526e-21)
(0.079199582 0.00090085456 -9.863452e-21)
(0.079546369 0.0002113677 -7.5519369e-21)
(0.080009354 -0.00054623017 -1.1118505e-21)
(0.080521254 -0.0014047885 -5.7978258e-21)
(0.080999691 -0.0023683624 5.4179225e-21)
(0.081573482 -0.0034171702 -4.4214598e-21)
(0.082026731 -0.0046293432 -1.4868242e-21)
(0.082681341 -0.005859351 0)
(0.083100486 -0.0073193884 3.9192647e-21)
(0.08384651 -0.0086739225 -8.7512358e-23)
(0.084273686 -0.010331253 -2.5025922e-21)
(0.085144449 -0.011787963 6.1808167e-22)
(0.085564524 -0.013552228 -2.0374668e-21)
(0.086665704 -0.015149431 -1.2682001e-21)
(0.087116327 -0.016972967 -9.3129702e-23)
(0.088245606 -0.018397658 0)
(0.08883613 -0.02050191 -1.9969581e-21)
(0.09023283 -0.021935457 -5.8921817e-22)
(0.090652674 -0.02372282 -1.6937974e-22)
(0.092203389 -0.02519728 8.872973e-23)
(0.092933793 -0.027549513 8.4241441e-22)
(0.11663245 0.0014532136 0)
(0.11532751 0.0022645108 2.4374945e-21)
(0.11931347 0.0024508183 -2.4793622e-23)
(0.12009521 0.0032408976 -1.066027e-22)
(0.12028354 0.0035559747 1.6997465e-22)
(0.12012985 0.0033311219 -1.594474e-23)
(0.11904335 0.00263065 2.3749838e-23)
(0.11710699 0.001721856 -3.3806974e-22)
(0.11503974 0.00091293936 -3.8340313e-22)
(0.11332237 0.00053360431 2.0991256e-22)
(0.11181583 0.00067337055 8.1325049e-23)
(0.11031424 0.0012098552 -7.0231792e-21)
(0.10870853 0.0019646853 1.1754759e-21)
(0.10702842 0.0029855042 6.0141037e-22)
(0.10520199 0.0041118048 -1.7092335e-24)
(0.10325092 0.0052050743 -2.3454408e-22)
(0.10117714 0.0060630008 2.1799317e-22)
(0.098968883 0.0066344846 -5.4055258e-22)
(0.096675174 0.0068880334 9.4992522e-23)
(0.094377013 0.006825643 -5.7483731e-22)
(0.092201964 0.0066146053 4.5503806e-24)
(0.090204 0.0063444926 -2.7829826e-21)
(0.088352749 0.0059451465 -6.8640631e-24)
(0.086627575 0.0055425476 1.8257421e-21)
(0.085051738 0.0051208553 1.4258111e-22)
(0.083610548 0.0046883219 -1.9385291e-21)
(0.082319534 0.0042479143 -1.8091884e-23)
(0.081216684 0.0038431897 -1.0532165e-21)
(0.080341545 0.003447456 -6.683512e-23)
(0.079690679 0.0030574965 1.6659131e-21)
(0.079243935 0.0026728468 -1.9910067e-21)
(0.079013565 0.0022558646 2.4659413e-21)
(0.078943479 0.0018237607 -2.3362553e-23)
(0.079094093 0.0013230249 2.7656036e-23)
(0.079324045 0.00080334617 -5.2916334e-21)
(0.079792634 0.00019194916 -8.4103532e-21)
(0.080191095 -0.00048837537 2.349014e-21)
(0.080838581 -0.0012350179 -4.360703e-22)
(0.08131387 -0.0021233813 4.9049143e-21)
(0.082040906 -0.0030272395 1.4469896e-23)
(0.082500422 -0.0041567333 -3.9617281e-21)
(0.083250921 -0.0052208217 -1.1773501e-21)
(0.083697164 -0.0065682296 1.3146756e-21)
(0.084516962 -0.0077606818 4.9089518e-21)
(0.08494886 -0.0092908361 -1.3907986e-21)
(0.085857515 -0.01058515 -1.190768e-21)
(0.08637552 -0.012307029 -6.9475038e-23)
(0.087343995 -0.013614542 1.8566375e-21)
(0.087885052 -0.015335415 -7.1950027e-22)
(0.08915736 -0.01691717 1.3711894e-22)
(0.089720414 -0.018579423 2.8752392e-21)
(0.090889611 -0.019931452 -2.9512873e-21)
(0.091698685 -0.021749928 -2.0801523e-21)
(0.093177483 -0.023409806 -4.490631e-21)
(0.093817069 -0.024941605 -1.2662739e-22)
(0.11657239 0.0014679223 -1.2274243e-22)
(0.11527726 0.0022051284 1.6051885e-21)
(0.1193113 0.0023624227 3.0508315e-21)
(0.1201204 0.0031416949 7.9170825e-22)
(0.12033577 0.0034819962 -1.1382465e-21)
(0.12022192 0.0032624228 -2.7038128e-21)
(0.11918342 0.0025781377 3.4789259e-21)
(0.11726494 0.001702367 -4.3589707e-21)
(0.11516574 0.00091953118 -2.7312572e-22)
(0.11340453 0.00054407755 3.7311851e-21)
(0.1118787 0.0006310979 -3.4685299e-21)
(0.11039285 0.0010930109 -4.8962019e-21)
(0.10881972 0.001726641 2.7327654e-21)
(0.10717068 0.0026003595 -1.6816037e-22)
(0.10537862 0.0036264186 -1.4028295e-22)
(0.10345964 0.0046324506 1.7243438e-22)
(0.10141158 0.0054899479 0)
(0.099221513 0.0060525806 -8.5800336e-22)
(0.096945865 0.0063228715 -6.592851e-22)
(0.094681637 0.0064233512 -9.7670417e-23)
(0.092513185 0.0062546136 -9.4810062e-25)
(0.090507128 0.0059566074 5.1225429e-23)
(0.08866295 0.0056257696 -2.2640454e-23)
(0.086943615 0.0052601726 -3.3316066e-21)
(0.085360445 0.0048063528 5.7653304e-23)
(0.083912774 0.0043710336 1.8105701e-21)
(0.082604325 0.0039469888 -1.867083e-21)
(0.081484145 0.0035295051 -7.8191882e-23)
(0.080567521 0.0031642881 -1.29585e-21)
(0.07990287 0.0027790923 -2.8092422e-21)
(0.079414356 0.0024460609 -1.2313241e-23)
(0.07918712 0.0020388941 -1.3895816e-22)
(0.079079489 0.0016540969 2.4556035e-21)
(0.079253546 0.001203198 -2.5105082e-23)
(0.079450659 0.00072452385 2.6656742e-21)
(0.079942575 0.00019639075 -2.9002633e-23)
(0.080358823 -0.0004265526 3.1712261e-21)
(0.081051388 -0.0010712272 -1.0466599e-21)
(0.08156164 -0.0018812353 6.6917357e-22)
(0.082343653 -0.0026638725 2.0741518e-21)
(0.082877483 -0.0036754852 -1.8196259e-21)
(0.083695845 -0.0046206681 -1.1230646e-21)
(0.08420851 -0.0058353166 -6.4950904e-21)
(0.085057642 -0.0069018684 2.9407244e-21)
(0.085589719 -0.0083148363 1.916783e-21)
(0.086504066 -0.0094753562 1.5518436e-21)
(0.087021051 -0.010979156 -9.7442727e-22)
(0.088052726 -0.012222528 -1.2222048e-21)
(0.088733625 -0.01400513 3.2953839e-21)
(0.089731331 -0.015057171 -1.8303145e-22)
(0.090422887 -0.016848215 1.0678315e-21)
(0.091752633 -0.018062376 6.6829742e-22)
(0.092547658 -0.02009691 -1.6563662e-21)
(0.093709882 -0.020813394 -1.5255636e-21)
(0.094491734 -0.022956051 -2.3048566e-21)
(0.11651207 0.0014461348 -1.2135641e-22)
(0.11522058 0.0021728835 -8.0337972e-22)
(0.11929823 0.0023096693 -9.2452856e-22)
(0.1201305 0.0030936194 3.1242537e-21)
(0.12037247 0.0034521437 1.7487938e-22)
(0.12030283 0.0032424068 4.7781957e-22)
(0.11931777 0.0025753984 -1.6005827e-23)
(0.11742185 0.0017288467 -6.5009041e-22)
(0.11529233 0.00098309204 -5.7303341e-21)
(0.11348796 0.00060603309 3.5762037e-21)
(0.11194654 0.0006535982 -1.0395397e-20)
(0.11047903 0.0010270845 2.1323446e-22)
(0.108949 0.0015419798 1.219595e-22)
(0.10733544 0.002269606 -9.0800959e-22)
(0.10556658 0.0031499465 -2.38857e-23)
(0.1036629 0.0040889874 0)
(0.10163387 0.0049266793 0)
(0.099475448 0.0055346834 0)
(0.097204437 0.0058171201 -9.1454055e-22)
(0.094945841 0.0059150566 4.1307073e-22)
(0.09281229 0.0058795133 7.7442774e-22)
(0.090815349 0.0056102145 5.1386189e-22)
(0.088965633 0.0052829852 -1.5406002e-21)
(0.087262226 0.0049236877 -8.4368112e-24)
(0.085682129 0.0045102031 -1.3255732e-21)
(0.084227346 0.0040600568 1.1565369e-21)
(0.082904392 0.0036289482 2.3179606e-21)
(0.081763256 0.0031888437 2.6145146e-23)
(0.080810107 0.0028050808 -1.8065198e-21)
(0.080111534 0.0024187406 -2.4058531e-21)
(0.079590407 0.00209434 1.2490792e-21)
(0.07934757 0.0017049852 -3.3011622e-21)
(0.079209342 0.0013542148 3.7810228e-21)
(0.079367296 0.00094864902 -4.2202629e-21)
(0.079558765 0.00054279108 4.9534778e-21)
(0.08005325 6.7298409e-05 2.4194225e-21)
(0.08048249 -0.00044670058 -2.8480453e-21)
(0.08119263 -0.0010085825 5.0392105e-21)
(0.081762631 -0.0017072956 -9.1734023e-21)
(0.082576168 -0.002373444 6.6287252e-21)
(0.083180345 -0.0032869554 4.012694e-21)
(0.084033163 -0.0040807711 -2.3599209e-21)
(0.084630714 -0.0051694784 -1.1453919e-22)
(0.08553298 -0.0061337944 -6.1540975e-22)
(0.086103479 -0.0073526717 -1.3283316e-21)
(0.087033464 -0.0083954183 -7.4051199e-22)
(0.087673003 -0.0098258578 2.9136182e-21)
(0.088707176 -0.010981817 -8.1670796e-23)
(0.089246562 -0.012346 -1.1815956e-21)
(0.090451363 -0.013528719 2.5472809e-21)
(0.091148044 -0.015295047 5.7379079e-23)
(0.09237547 -0.016217058 4.2042903e-21)
(0.093045672 -0.018012444 -6.4571971e-22)
(0.094411139 -0.018743048 -1.8490592e-21)
(0.095382487 -0.021131838 4.915326e-22)
(0.116452 0.0014567407 -2.4064737e-22)
(0.11515305 0.002119648 9.935875e-23)
(0.11927209 0.0022507535 -1.407079e-21)
(0.12012718 0.0030522498 3.8472669e-21)
(0.12039605 0.003443265 4.7244874e-21)
(0.12037381 0.0032429105 5.0174183e-21)
(0.1194466 0.002596261 -9.2743136e-24)
(0.11757571 0.0017812202 -4.1493838e-21)
(0.11542053 0.0010820429 4.8542347e-21)
(0.11357663 0.00070642185 -1.2872837e-22)
(0.11202216 0.0007114055 3.0625342e-21)
(0.11057654 0.0010001907 -2.1325491e-21)
(0.10908679 0.001393633 -3.6160837e-21)
(0.10750841 0.0019876143 -4.6619314e-22)
(0.10575438 0.0027065744 1.2284245e-21)
(0.10385432 0.0035432253 7.9707837e-22)
(0.10182961 0.0043029138 2.6071212e-22)
(0.099691002 0.0049430104 1.7174543e-22)
(0.097457575 0.0053373796 5.834343e-22)
(0.095206119 0.005428375 -1.1964698e-21)
(0.093077775 0.0054046848 0)
(0.091112496 0.0052507481 -7.9116482e-23)
(0.089278832 0.0049319431 -1.5385597e-21)
(0.087573373 0.0045826261 1.7577476e-21)
(0.085994265 0.0042228518 -1.0557398e-23)
(0.084543583 0.0037890839 -1.3266928e-22)
(0.083211172 0.0033538098 3.2636735e-23)
(0.082051404 0.0028949712 -6.5971977e-22)
(0.081063472 0.0024943453 8.252917e-22)
(0.080325927 0.0020913935 1.9372613e-21)
(0.079773819 0.001757114 1.0071953e-23)
(0.079492214 0.0013968527 -2.970463e-21)
(0.079335277 0.0010754872 1.8100887e-22)
(0.079457279 0.00069647497 -5.519928e-21)
(0.079648427 0.00034756506 3.3114092e-21)
(0.080105648 -5.0153009e-05 7.213755e-21)
(0.080561778 -0.00050648834 4.5255412e-21)
(0.081270857 -0.00097387955 5.1842773e-22)
(0.081870922 -0.0015682825 -4.629681e-21)
(0.082720501 -0.0021492848 -1.1283493e-21)
(0.083385538 -0.0029064577 1.3348022e-21)
(0.084270669 -0.0036000549 -1.10444e-22)
(0.084957405 -0.0045841637 1.9649094e-21)
(0.085858742 -0.0053484519 8.4322405e-22)
(0.086533242 -0.006497524 2.2001609e-21)
(0.087518842 -0.0074435671 -3.190377e-21)
(0.088175891 -0.0086835697 -1.0150138e-21)
(0.089144027 -0.00959645 8.4058803e-22)
(0.089895488 -0.011021416 -1.2247777e-21)
(0.091062026 -0.012295141 -3.7006533e-21)
(0.091669833 -0.013309363 9.0235426e-22)
(0.092950633 -0.0147258 1.9548191e-21)
(0.093671609 -0.015962473 7.1458824e-23)
(0.095096964 -0.017318839 -2.5972042e-21)
(0.095925541 -0.0186776 4.5303024e-21)
(0.11638919 0.0014035561 -2.4454111e-22)
(0.1150792 0.0021045337 -2.2602653e-21)
(0.11923422 0.0022471957 -3.9440179e-21)
(0.12010727 0.0030667586 -5.8444891e-21)
(0.12040168 0.0034800663 1.8839529e-22)
(0.12043684 0.0032811536 2.4386222e-22)
(0.11956672 0.0026562915 -6.2169362e-22)
(0.11772446 0.0018650656 -3.6597384e-21)
(0.11554635 0.001210005 8.2386481e-21)
(0.11366537 0.00083424736 2.6076395e-21)
(0.11210161 0.00080451033 5.0186127e-21)
(0.11067893 0.0010124439 -2.031222e-21)
(0.10923161 0.0012807534 -9.3104071e-22)
(0.10768608 0.0017347578 -1.2352101e-22)
(0.10594497 0.0023227148 -2.1164127e-21)
(0.10405031 0.0030404723 1.6817921e-22)
(0.10202575 0.0037408961 2.3355553e-24)
(0.09988547 0.0043353248 8.5617519e-22)
(0.097677041 0.0047442169 6.1652758e-22)
(0.095463748 0.004963814 9.7377063e-23)
(0.093339436 0.00494035 -7.6204147e-22)
(0.09138595 0.0048059401 -9.9166812e-23)
(0.089579933 0.0045673572 1.5079418e-21)
(0.087882839 0.0042767715 -3.4400129e-23)
(0.08630671 0.003906448 2.2339329e-21)
(0.08486399 0.0034622488 0)
(0.083530465 0.0030288353 -3.0357877e-21)
(0.082354831 0.0025555252 9.1535067e-22)
(0.081339023 0.0021428299 -3.2120425e-23)
(0.080559282 0.0017127333 3.9742871e-24)
(0.079965408 0.0013733899 9.5640264e-23)
(0.079639024 0.0010096198 2.4282131e-21)
(0.079456094 0.00070999621 -2.6163962e-21)
(0.079535626 0.00036333837 7.4460303e-21)
(0.079700793 6.8245655e-05 -4.44752e-21)
(0.080144261 -0.00027594479 8.1817833e-24)
(0.080593461 -0.00064406694 7.6621074e-22)
(0.081293417 -0.0010239077 1.7429255e-21)
(0.081941541 -0.0015349013 -2.0905926e-21)
(0.082781166 -0.0019823176 -1.1087541e-21)
(0.083504859 -0.0026580192 -3.8812529e-21)
(0.08443919 -0.0032275811 7.0251048e-21)
(0.085152489 -0.0040263132 0)
(0.086125129 -0.0047233153 3.3575369e-21)
(0.086870308 -0.0057417164 3.1332168e-21)
(0.087822673 -0.0064559837 3.3198954e-21)
(0.08854345 -0.0075705432 -1.6561736e-21)
(0.089618555 -0.0085108862 7.8105885e-22)
(0.090455365 -0.0098895565 1.4037251e-21)
(0.09132523 -0.010447473 -3.8177904e-21)
(0.092261542 -0.012038838 -3.9055473e-21)
(0.093469544 -0.013058198 3.5754787e-21)
(0.094224972 -0.014233647 0)
(0.095526192 -0.015447472 3.4434261e-21)
(0.096334912 -0.016577857 -5.8799814e-21)
(0.11632675 0.0014364243 -2.0600479e-21)
(0.1149883 0.0020343315 -4.7081253e-23)
(0.11918058 0.0021893357 1.2255102e-20)
(0.12007473 0.0030445583 7.8878859e-21)
(0.12040068 0.0035041483 -7.647299e-21)
(0.12049547 0.0033205877 -1.3168146e-20)
(0.11967913 0.0027129977 -4.5945703e-21)
(0.11787264 0.0019503969 3.2575629e-21)
(0.11567485 0.0013358305 2.7568381e-22)
(0.11375921 0.00097243162 3.7602833e-21)
(0.11218636 0.00090734981 -2.3209578e-21)
(0.11078965 0.0010430462 7.9896013e-24)
(0.10937985 0.0011953964 8.1849598e-22)
(0.10786078 0.0014955237 1.0239687e-22)
(0.10613386 0.0019502327 -1.9033217e-21)
(0.10423821 0.0025600909 -6.811268e-22)
(0.1022194 0.0032281073 -1.0895071e-21)
(0.10009502 0.0038254043 -1.4690944e-21)
(0.097885671 0.0041780798 1.4725848e-22)
(0.095689027 0.0044259202 1.0875666e-21)
(0.093597686 0.0045182524 -1.8794539e-23)
(0.091650493 0.0043854427 -1.2999604e-22)
(0.089852883 0.0042104021 2.5837088e-24)
(0.088187519 0.0039639467 -2.0882156e-21)
(0.08663328 0.0036087973 0)
(0.085190104 0.0031798263 3.4551559e-23)
(0.083852639 0.0027439596 -4.6291462e-24)
(0.082662089 0.002264474 2.928809e-23)
(0.081625555 0.001829258 -8.5668902e-22)
(0.080806039 0.0013938826 -4.550601e-23)
(0.080175586 0.0010298597 -6.0392548e-23)
(0.079797996 0.00065879604 1.0657869e-21)
(0.07957937 0.00035763051 -1.7092903e-22)
(0.079605005 4.4188306e-05 3.68615e-21)
(0.079746557 -0.00023702042 -2.5064982e-21)
(0.080134511 -0.00052674509 2.670239e-22)
(0.080586495 -0.00082533559 -3.4996596e-21)
(0.081272297 -0.0011526619 -2.5047912e-21)
(0.081917119 -0.0015257925 3.4537037e-21)
(0.082790304 -0.0019249939 -4.5391953e-22)
(0.083550529 -0.0024553251 -1.500319e-21)
(0.08446578 -0.0028915013 -1.2443924e-21)
(0.085285429 -0.0036069231 -1.1638507e-22)
(0.086270879 -0.0041820359 -2.4439533e-21)
(0.087039456 -0.0049420915 -1.4090003e-21)
(0.088056549 -0.0056534415 1.437221e-21)
(0.088905262 -0.0066804386 1.8101903e-21)
(0.089959219 -0.0074600864 0)
(0.090601744 -0.0083339883 -5.6181213e-22)
(0.091845862 -0.0093197243 3.6399246e-24)
(0.09279047 -0.010784468 9.4340103e-22)
(0.093680815 -0.011118442 -5.3141805e-22)
(0.094741533 -0.012890614 -2.4156052e-21)
(0.095886946 -0.013368566 3.3812852e-21)
(0.096702836 -0.014965748 3.16513e-21)
(0.11626569 0.0013156557 1.2695689e-22)
(0.11489381 0.002038365 -3.0767807e-21)
(0.11911449 0.0022179045 9.1410486e-23)
(0.12002052 0.0031094394 -2.555107e-22)
(0.1203755 0.0035834578 8.423918e-21)
(0.12054186 0.0034098619 -7.0548204e-21)
(0.11978208 0.0027922328 2.836258e-22)
(0.11801506 0.0020459311 2.2177156e-21)
(0.11580067 0.0014636617 -1.6834171e-21)
(0.11385019 0.0011104649 -1.6598879e-21)
(0.11227069 0.0010127301 1.2978166e-21)
(0.11090001 0.0010781615 1.3929114e-21)
(0.10953779 0.0011306983 -5.2494454e-22)
(0.10805552 0.0012944968 1.0421481e-22)
(0.10633905 0.0016010754 -1.2950474e-23)
(0.10443969 0.0021074624 -1.5446755e-22)
(0.10241124 0.0026799384 0)
(0.10030091 0.003262623 -7.664531e-22)
(0.098112073 0.0036790567 -3.807264e-21)
(0.095909943 0.0038805482 -1.9193618e-21)
(0.093830737 0.0040153742 2.9104632e-22)
(0.09190669 0.0039907337 -1.4134982e-22)
(0.0901213 0.0038250064 -1.8294592e-24)
(0.088478661 0.0035959534 -6.7516961e-24)
(0.086943583 0.0033215819 -5.275035e-23)
(0.08551492 0.0029301989 0)
(0.084186539 0.0024943393 1.1256501e-21)
(0.082987034 0.0020062605 1.4559988e-23)
(0.081928434 0.0015448534 3.8324216e-21)
(0.081073363 0.0010835501 1.8550084e-21)
(0.08040637 0.00068475317 -1.8356794e-21)
(0.079973043 0.00030952106 -5.4881068e-24)
(0.079711139 3.9741625e-06 -1.1132889e-21)
(0.079682691 -0.0002824027 -4.7222082e-24)
(0.079783784 -0.00054274885 -3.4235026e-22)
(0.080127779 -0.00079761123 -1.2592997e-21)
(0.08055378 -0.0010684684 2.6084079e-21)
(0.081194915 -0.0012927669 -7.115075e-23)
(0.081869098 -0.0016338566 6.6498668e-22)
(0.082711645 -0.0019025045 0)
(0.08348975 -0.0023152599 3.1849879e-21)
(0.084463413 -0.0026914 -3.0749265e-21)
(0.085295301 -0.0032544757 1.764522e-21)
(0.086268378 -0.0036243211 -1.8601869e-21)
(0.087161045 -0.0044096684 -8.4323319e-22)
(0.08821266 -0.0049260071 -3.1391384e-21)
(0.089038798 -0.0057600449 -2.0362017e-21)
(0.090032055 -0.0062701912 1.4807096e-21)
(0.091019368 -0.0073899932 -9.6493458e-22)
(0.092161197 -0.0083033928 7.9709743e-22)
(0.092841104 -0.0089438537 -7.2342849e-22)
(0.094140683 -0.0099062787 4.7626485e-22)
(0.09505067 -0.011317538 -2.0644886e-21)
(0.096168635 -0.011588727 -2.2259648e-21)
(0.097183975 -0.01335579 1.2667869e-21)
(0.11620752 0.0014103868 9.4744416e-22)
(0.11477276 0.001923716 -7.4806626e-23)