/*--------------------------------*- C++ -*----------------------------------*\
| =========                 |                                                 |
| \\      /  F ield         | OpenFOAM: The Open Source CFD Toolbox           |
|  \\    /   O peration     | Version:  2406                                  |
|   \\  /    A nd           | Website:  www.openfoam.com                      |
|    \\/     M anipulation  |                                                 |
\*---------------------------------------------------------------------------*/
FoamFile
{
    version     2.0;
    format      ascii;
    arch        "LSB;label=32;scalar=64";
    class       volScalarField;
    location    "22";
    object      alphat;
}
// * * * * * * * * * * * * * * * * * * * * * * * * * * * * * * * * * * * * * //

dimensions      [1 -1 -1 0 0 0 0];

internalField   nonuniform List<scalar> 
62344
(
1.056391e-06
1.0796609e-06
1.0448885e-06
1.0478403e-06
1.0448633e-06
1.0230919e-06
9.970452e-07
9.7771641e-07
9.8180688e-07
9.9714786e-07
1.0155723e-06
1.0248254e-06
1.0427215e-06
1.0295472e-06
9.9427354e-07
1.0042927e-06
1.0200919e-06
1.029617e-06
1.0689881e-06
1.1150633e-06
1.1393234e-06
1.1789685e-06
1.2243275e-06
1.2408728e-06
1.2572949e-06
1.2980265e-06
1.3278241e-06
1.3557922e-06
1.4009207e-06
1.466986e-06
1.6426138e-06
1.9243776e-06
2.3861256e-06
2.6085699e-06
3.0152115e-06
3.5510827e-06
4.7584695e-06
5.9121107e-06
7.7447607e-06
8.7124044e-06
1.0655379e-05
1.1561409e-05
1.3039705e-05
1.7278966e-05
2.2074407e-05
2.4844603e-05
2.7114674e-05
2.9117774e-05
3.1360699e-05
3.3556957e-05
3.8221716e-05
4.3873265e-05
5.3152829e-05
6.0308529e-05
5.8641065e-05
1.0545977e-06
1.0782961e-06
1.0445653e-06
1.0521835e-06
1.0480279e-06
1.0252616e-06
9.949607e-07
9.803327e-07
9.7479267e-07
9.9298814e-07
1.0177229e-06
1.0300451e-06
1.0428908e-06
1.024486e-06
9.9928647e-07
1.0042456e-06
1.0112071e-06
1.0175829e-06
1.0524102e-06
1.1029731e-06
1.1319235e-06
1.1659065e-06
1.194232e-06
1.2112493e-06
1.2294537e-06
1.2624808e-06
1.285002e-06
1.3032948e-06
1.332579e-06
1.3658627e-06
1.4626873e-06
1.6821242e-06
2.0626389e-06
2.2272574e-06
2.5895481e-06
3.2119141e-06
4.1370365e-06
4.9945303e-06
6.3539999e-06
7.2262448e-06
9.0327097e-06
1.0305913e-05
1.2160247e-05
1.6726063e-05
2.2933648e-05
2.5549651e-05
2.7351689e-05
2.7967296e-05
3.0720524e-05
3.2121145e-05
3.6968011e-05
4.1430082e-05
4.9931975e-05
5.7822938e-05
6.8539719e-05
1.0541692e-06
1.0809318e-06
1.0472359e-06
1.0560609e-06
1.05141e-06
1.028358e-06
9.9859064e-07
9.7960814e-07
9.7562014e-07
9.9606926e-07
1.0158529e-06
1.0349384e-06
1.0571675e-06
1.0385954e-06
1.0078762e-06
1.0133407e-06
1.0186241e-06
1.0242379e-06
1.0477038e-06
1.0934723e-06
1.1315855e-06
1.1627112e-06
1.1848658e-06
1.1989968e-06
1.2186595e-06
1.2510726e-06
1.2706773e-06
1.2963208e-06
1.3266169e-06
1.3582246e-06
1.4415725e-06
1.6193704e-06
1.938571e-06
2.0817917e-06
2.425344e-06
3.1504478e-06
3.9205396e-06
4.7035063e-06
5.9867304e-06
6.8545788e-06
7.8737273e-06
8.9732728e-06
1.2206231e-05
1.6025837e-05
2.2494288e-05
2.4576858e-05
2.838401e-05
2.9256045e-05
3.2810942e-05
3.4231698e-05
3.8585598e-05
4.2383709e-05
4.9272666e-05
5.5128824e-05
6.4614997e-05
1.0540032e-06
1.0849674e-06
1.0497138e-06
1.0535831e-06
1.0509871e-06
1.0304283e-06
1.00145e-06
9.8178157e-07
9.8017013e-07
1.0004426e-06
1.0185012e-06
1.0321757e-06
1.0522044e-06
1.0391622e-06
1.0116304e-06
1.0078273e-06
1.0183959e-06
1.0285431e-06
1.0497896e-06
1.0964265e-06
1.1346415e-06
1.1701592e-06
1.1902242e-06
1.2022926e-06
1.2243488e-06
1.2485791e-06
1.2604193e-06
1.286173e-06
1.3221386e-06
1.3540809e-06
1.4345879e-06
1.5887397e-06
1.8643845e-06
2.0078692e-06
2.3719835e-06
3.1593332e-06
3.8497038e-06
4.6526136e-06
5.9603963e-06
6.8830915e-06
7.350484e-06
8.9570918e-06
1.12495e-05
1.4004328e-05
1.9217052e-05
2.2803533e-05
2.7437342e-05
3.1117028e-05
3.4774891e-05
3.9984589e-05
4.3977644e-05
4.9657634e-05
5.4453046e-05
5.9675338e-05
6.7055901e-05
1.0544802e-06
1.0897616e-06
1.0508973e-06
1.0531336e-06
1.0512043e-06
1.0364903e-06
1.0094401e-06
9.8935927e-07
9.7661106e-07
9.9862625e-07
1.0234462e-06
1.0327972e-06
1.049482e-06
1.0463468e-06
1.0181695e-06
1.0061082e-06
1.0170226e-06
1.031226e-06
1.0522611e-06
1.0937745e-06
1.1421401e-06
1.1850805e-06
1.1965047e-06
1.2024264e-06
1.2306522e-06
1.2524896e-06
1.2598443e-06
1.2899419e-06
1.3236055e-06
1.3509072e-06
1.4115401e-06
1.5402876e-06
1.7324619e-06
1.8658179e-06
2.1849541e-06
2.8283665e-06
3.4194781e-06
4.208233e-06
5.5925009e-06
6.4414242e-06
7.0476952e-06
9.2316747e-06
1.0812438e-05
1.3750843e-05
1.5761457e-05
1.952054e-05
2.4380265e-05
3.1057998e-05
3.5804471e-05
4.2743387e-05
4.6861561e-05
5.5385599e-05
6.0386122e-05
6.9779549e-05
7.4519388e-05
1.0543683e-06
1.0925302e-06
1.05167e-06
1.055253e-06
1.054044e-06
1.0414649e-06
1.016386e-06
9.8789199e-07
9.8128822e-07
9.9761681e-07
1.0250068e-06
1.0376286e-06
1.0602681e-06
1.0632796e-06
1.0203477e-06
1.0109279e-06
1.0248735e-06
1.0376603e-06
1.0514262e-06
1.078213e-06
1.1373228e-06
1.1880737e-06
1.2040628e-06
1.2103962e-06
1.2370844e-06
1.2595932e-06
1.2636226e-06
1.2908435e-06
1.3174409e-06
1.3450369e-06
1.4025804e-06
1.5240641e-06
1.6682342e-06
1.818274e-06
2.0522713e-06
2.6964905e-06
3.2391133e-06
3.9433886e-06
5.2057944e-06
5.8302578e-06
6.9058001e-06
9.4734819e-06
1.0717081e-05
1.3084357e-05
1.4552994e-05
1.8061961e-05
2.2013726e-05
2.8256146e-05
3.297454e-05
4.1521335e-05
4.722302e-05
5.7237729e-05
6.2265069e-05
7.1612672e-05
7.5993777e-05
1.0539265e-06
1.0931936e-06
1.0524623e-06
1.0566656e-06
1.0590237e-06
1.04376e-06
1.014321e-06
9.8683104e-07
9.8605742e-07
9.9792009e-07
1.0274256e-06
1.0375756e-06
1.0574161e-06
1.0674523e-06
1.0294717e-06
1.0122645e-06
1.0226092e-06
1.0405255e-06
1.0509424e-06
1.075335e-06
1.1370827e-06
1.1815025e-06
1.2010268e-06
1.2130945e-06
1.2364884e-06
1.2542244e-06
1.2581246e-06
1.2738e-06
1.3063234e-06
1.3466318e-06
1.4003343e-06
1.4943774e-06
1.5764574e-06
1.7676289e-06
1.9549827e-06
2.4688365e-06
2.974456e-06
3.6919788e-06
4.7473161e-06
5.437267e-06
6.9332642e-06
9.5686442e-06
1.0726606e-05
1.296934e-05
1.4429146e-05
1.820122e-05
2.1575321e-05
2.5132265e-05
2.9896082e-05
3.7973347e-05
4.5596932e-05
5.5412606e-05
6.1242763e-05
6.9560385e-05
7.5673887e-05
1.0532744e-06
1.0925364e-06
1.0523856e-06
1.0582226e-06
1.0630967e-06
1.0451338e-06
1.0143565e-06
9.9244652e-07
9.8273915e-07
9.9659565e-07
1.0312567e-06
1.0432005e-06
1.052461e-06
1.0670096e-06
1.0464737e-06
1.0147822e-06
1.0196552e-06
1.0379091e-06
1.0504152e-06
1.0765245e-06
1.1401717e-06
1.1748555e-06
1.19506e-06
1.2119939e-06
1.2332622e-06
1.2512283e-06
1.2628114e-06
1.2745396e-06
1.3041191e-06
1.3547092e-06
1.4067733e-06
1.4706332e-06
1.5366401e-06
1.7304436e-06
1.9158972e-06
2.3821852e-06
2.8300826e-06
3.5560976e-06
4.3651831e-06
5.1886625e-06
6.7878766e-06
9.3006644e-06
1.0410514e-05
1.2828967e-05
1.456272e-05
1.77334e-05
2.0081182e-05
2.3575793e-05
2.9362426e-05
3.8002856e-05
4.7008357e-05
5.7277481e-05
6.3674827e-05
7.2465404e-05
7.8129258e-05
1.0525688e-06
1.0923837e-06
1.0529344e-06
1.0603951e-06
1.0654062e-06
1.0451961e-06
1.0201384e-06
9.9387818e-07
9.8070894e-07
9.9776266e-07
1.0344728e-06
1.0476877e-06
1.0592873e-06
1.0697156e-06
1.0491433e-06
1.0182991e-06
1.0217519e-06
1.0379245e-06
1.0516008e-06
1.0763504e-06
1.132838e-06
1.1745e-06
1.1971348e-06
1.2217079e-06
1.2478122e-06
1.2682718e-06
1.2824683e-06
1.2882825e-06
1.3056716e-06
1.3483421e-06
1.403517e-06
1.4707991e-06
1.520935e-06
1.6774958e-06
1.8677982e-06
2.3216396e-06
2.7222749e-06
3.4995013e-06
4.0154579e-06
5.0305943e-06
6.7373523e-06
8.6783983e-06
9.8833561e-06
1.2699471e-05
1.4568346e-05
1.6830499e-05
1.8888574e-05
2.3076344e-05
2.9435116e-05
3.8506838e-05
4.8984661e-05
6.1273567e-05
7.001731e-05
8.3665015e-05
8.860191e-05
1.0517014e-06
1.093434e-06
1.0545799e-06
1.0619716e-06
1.0643342e-06
1.0447856e-06
1.0222679e-06
9.9149414e-07
9.8393956e-07
9.9852205e-07
1.0321245e-06
1.0458477e-06
1.0630058e-06
1.0683408e-06
1.046844e-06
1.0274059e-06
1.0212541e-06
1.0376011e-06
1.0539538e-06
1.0753045e-06
1.1261187e-06
1.1748567e-06
1.2040702e-06
1.2301953e-06
1.2595116e-06
1.280539e-06
1.2881894e-06
1.2888146e-06
1.2963927e-06
1.3330013e-06
1.4005995e-06
1.4742608e-06
1.5180529e-06
1.6415966e-06
1.81184e-06
2.2336564e-06
2.6041014e-06
3.3645338e-06
3.89265e-06
4.759466e-06
6.5289659e-06
7.8173972e-06
9.1509907e-06
1.2087751e-05
1.4063132e-05
1.5580024e-05
1.8062826e-05
2.2535262e-05
2.8819919e-05
3.7934543e-05
4.9303528e-05
6.3246754e-05
7.7231483e-05
9.4676473e-05
0.00010653426
1.0510655e-06
1.0956093e-06
1.0561802e-06
1.0618557e-06
1.0628576e-06
1.0468499e-06
1.0223752e-06
9.9486973e-07
9.8854911e-07
9.9712932e-07
1.0296187e-06
1.044933e-06
1.0607863e-06
1.0641586e-06
1.0511617e-06
1.0326076e-06
1.0150455e-06
1.0345544e-06
1.0552766e-06
1.0699827e-06
1.1226808e-06
1.1726323e-06
1.2024998e-06
1.2317329e-06
1.2578302e-06
1.2766356e-06
1.2737759e-06
1.2698754e-06
1.2652013e-06
1.3151063e-06
1.4016693e-06
1.4671478e-06
1.5089399e-06
1.6269162e-06
1.7797352e-06
2.1339304e-06
2.5201095e-06
3.1688867e-06
3.6883437e-06
4.5004173e-06
6.2042371e-06
7.2821955e-06
8.4590443e-06
1.1152343e-05
1.3261552e-05
1.4495209e-05
1.7440941e-05
2.1843929e-05
2.7542126e-05
3.6155304e-05
4.7482629e-05
6.2026582e-05
7.8267297e-05
9.7201844e-05
0.00011347754
1.0506468e-06
1.0979705e-06
1.0572721e-06
1.0609975e-06
1.0631556e-06
1.0532038e-06
1.0275871e-06
1.0018003e-06
9.8992119e-07
9.9687899e-07
1.0319995e-06
1.0508508e-06
1.0624179e-06
1.0633814e-06
1.0631399e-06
1.0336023e-06
1.0102445e-06
1.0280889e-06
1.0550081e-06
1.0692976e-06
1.1171736e-06
1.1695548e-06
1.1920714e-06
1.2240326e-06
1.2460728e-06
1.2531991e-06
1.2643681e-06
1.263958e-06
1.2513178e-06
1.2922028e-06
1.3961807e-06
1.4553273e-06
1.4867582e-06
1.594368e-06
1.7757565e-06
2.0494798e-06
2.5590264e-06
2.9062181e-06
3.5107489e-06
4.2314774e-06
5.7272382e-06
6.7373782e-06
7.8452632e-06
1.0002613e-05
1.2039917e-05
1.3501737e-05
1.6733422e-05
2.090253e-05
2.6030148e-05
3.35081e-05
4.4108045e-05
5.8675877e-05
7.5775645e-05
9.5014468e-05
0.00011334307
1.0503594e-06
1.1001409e-06
1.0578995e-06
1.0608769e-06
1.0649791e-06
1.0580289e-06
1.0346897e-06
1.0048254e-06
9.8838158e-07
9.9780132e-07
1.0331557e-06
1.0594984e-06
1.0697888e-06
1.0695363e-06
1.0743261e-06
1.0423769e-06
1.0140008e-06
1.0299633e-06
1.0538573e-06
1.0678483e-06
1.1063446e-06
1.1635295e-06
1.1904225e-06
1.2266505e-06
1.2492816e-06
1.2466055e-06
1.2645901e-06
1.2734248e-06
1.2553943e-06
1.2777079e-06
1.3738952e-06
1.4346385e-06
1.4699458e-06
1.5480515e-06
1.7765685e-06
2.0171453e-06
2.4948858e-06
2.812209e-06
3.3315897e-06
3.8203436e-06
5.2482739e-06
6.2687838e-06
7.6430841e-06
9.1753458e-06
1.1204504e-05
1.2958353e-05
1.6164333e-05
1.9952972e-05
2.4895389e-05
3.1557985e-05
4.0634263e-05
5.34389e-05
6.9668386e-05
8.7864357e-05
0.00010679372
1.0501178e-06
1.1014564e-06
1.057986e-06
1.0614625e-06
1.066251e-06
1.0591263e-06
1.0354147e-06
1.0032677e-06
9.8738777e-07
9.978748e-07
1.0302761e-06
1.061083e-06
1.0726532e-06
1.0732156e-06
1.0770267e-06
1.0507004e-06
1.0240562e-06
1.0326408e-06
1.0499159e-06
1.0627233e-06
1.0936798e-06
1.1548805e-06
1.1979829e-06
1.2283953e-06
1.2587238e-06
1.2630888e-06
1.2740656e-06
1.2777514e-06
1.258963e-06
1.2761824e-06
1.3510157e-06
1.4066061e-06
1.4810641e-06
1.5303034e-06
1.7317284e-06
1.9614245e-06
2.3755506e-06
2.6567911e-06
3.2332184e-06
3.613465e-06
4.8672545e-06
5.8160621e-06
7.4850142e-06
8.6049598e-06
1.0662832e-05
1.251808e-05
1.5719856e-05
1.9156938e-05
2.3966637e-05
3.0321077e-05
3.8179155e-05
4.9054405e-05
6.3490479e-05
7.9979746e-05
9.7485026e-05
1.0498401e-06
1.1023599e-06
1.0577678e-06
1.0620306e-06
1.0666826e-06
1.058529e-06
1.0315563e-06
9.998785e-07
9.8938286e-07
9.9570177e-07
1.022888e-06
1.055772e-06
1.0690632e-06
1.0703955e-06
1.0662655e-06
1.0477393e-06
1.0279003e-06
1.0305646e-06
1.0422077e-06
1.0543283e-06
1.0866226e-06
1.1429484e-06
1.1969864e-06
1.2250695e-06
1.2511105e-06
1.2671623e-06
1.2774052e-06
1.2691909e-06
1.2532971e-06
1.272343e-06
1.3251547e-06
1.379558e-06
1.4630657e-06
1.5160081e-06
1.7035943e-06
1.9032916e-06
2.2418216e-06
2.4817516e-06
3.0547119e-06
3.4419009e-06
4.6218692e-06
5.4797491e-06
7.102929e-06
8.2468424e-06
1.0299665e-05
1.2095819e-05
1.5171578e-05
1.8474899e-05
2.29435e-05
2.9082397e-05
3.6367241e-05
4.5875506e-05
5.8403583e-05
7.2984286e-05
8.8573348e-05
1.0495359e-06
1.1029121e-06
1.057808e-06
1.0627092e-06
1.0667613e-06
1.058462e-06
1.0292545e-06
9.9824143e-07
9.9176521e-07
9.9516055e-07
1.0155081e-06
1.050989e-06
1.0631072e-06
1.0651018e-06
1.054533e-06
1.0340084e-06
1.017536e-06
1.0240447e-06
1.0371129e-06
1.0484217e-06
1.0824336e-06
1.1374725e-06
1.1821306e-06
1.2072852e-06
1.2313031e-06
1.2526527e-06
1.2707384e-06
1.2557552e-06
1.2373279e-06
1.2492813e-06
1.2988712e-06
1.3469804e-06
1.4200925e-06
1.4814158e-06
1.66337e-06
1.8261523e-06
2.1131443e-06
2.2981238e-06
2.7914212e-06
3.1657111e-06
4.1878233e-06
4.934248e-06
6.4979132e-06
7.5877413e-06
9.614765e-06
1.1246665e-05
1.4146251e-05
1.7416555e-05
2.1501389e-05
2.7077975e-05
3.3891629e-05
4.2273464e-05
5.3228296e-05
6.602464e-05
7.9734491e-05
1.0492484e-06
1.1029399e-06
1.0581004e-06
1.0634926e-06
1.0672015e-06
1.0607702e-06
1.0317925e-06
1.0003788e-06
9.9193609e-07
9.9538707e-07
1.0151182e-06
1.05046e-06
1.0631393e-06
1.0653858e-06
1.0569104e-06
1.0269731e-06
1.0100534e-06
1.0218486e-06
1.0358168e-06
1.0477162e-06
1.0784835e-06
1.1348972e-06
1.1661238e-06
1.1922509e-06
1.2116212e-06
1.2269991e-06
1.2434758e-06
1.2366682e-06
1.2135903e-06
1.2137065e-06
1.2561449e-06
1.3009497e-06
1.3525731e-06
1.4034214e-06
1.5752138e-06
1.6972217e-06
1.9587785e-06
2.0915677e-06
2.4546723e-06
2.7747498e-06
3.5380128e-06
4.125192e-06
5.4982004e-06
6.5063783e-06
8.3991857e-06
9.9390256e-06
1.2592011e-05
1.5874379e-05
1.9623841e-05
2.4260219e-05
3.0079787e-05
3.7049744e-05
4.6193145e-05
5.705323e-05
6.9146097e-05
1.0489748e-06
1.1028858e-06
1.0587231e-06
1.0641596e-06
1.0679887e-06
1.0636167e-06
1.038194e-06
1.0055574e-06
9.9156114e-07
9.9666113e-07
1.0211011e-06
1.0562285e-06
1.0701302e-06
1.0714924e-06
1.0705358e-06
1.0368452e-06
1.0114775e-06
1.0242334e-06
1.0369972e-06
1.0460874e-06
1.0691077e-06
1.1248169e-06
1.1484034e-06
1.1703557e-06
1.1856611e-06
1.1942292e-06
1.200971e-06
1.1970689e-06
1.1713948e-06
1.1594514e-06
1.1866192e-06
1.21746e-06
1.2480376e-06
1.2689915e-06
1.4128797e-06
1.5008349e-06
1.7069827e-06
1.817209e-06
1.9933669e-06
2.320765e-06
2.6636206e-06
3.2957021e-06
4.0322696e-06
4.901766e-06
6.6811781e-06
8.1869182e-06
1.017511e-05
1.329684e-05
1.6840262e-05
2.0719431e-05
2.5259779e-05
3.0502758e-05
3.7324767e-05
4.5814243e-05
5.6578722e-05
1.0485458e-06
1.102544e-06
1.0593466e-06
1.0637358e-06
1.0688926e-06
1.0638209e-06
1.0403762e-06
1.0069609e-06
9.9044718e-07
9.945392e-07
1.0224341e-06
1.0569826e-06
1.0676758e-06
1.067822e-06
1.0651394e-06
1.0357748e-06
1.009186e-06
1.0139282e-06
1.0233164e-06
1.0283957e-06
1.044941e-06
1.0897754e-06
1.1175868e-06
1.1358874e-06
1.1414348e-06
1.145306e-06
1.1447772e-06
1.1375627e-06
1.1160545e-06
1.1030145e-06
1.1200426e-06
9.5978151e-07
9.481719e-07
1.1647088e-06
9.70678e-07
1.3643419e-06
1.5377156e-06
1.6628466e-06
1.7667116e-06
2.0467276e-06
2.3652282e-06
2.6998146e-06
3.3643383e-06
3.8912648e-06
4.8013549e-06
6.5624991e-06
7.768231e-06
1.0033058e-05
1.3252443e-05
1.6802253e-05
2.0369929e-05
2.405819e-05
2.6540415e-05
3.3845998e-05
4.292221e-05
1.0479696e-06
1.1015278e-06
1.0587713e-06
1.0616024e-06
1.0672163e-06
1.0588232e-06
1.0355226e-06
1.0000635e-06
9.8310117e-07
9.83411e-07
1.0073867e-06
1.0374054e-06
1.049004e-06
1.0431377e-06
1.0357199e-06
1.0057798e-06
9.8232231e-07
9.8215867e-07
9.8925294e-07
9.9199855e-07
1.0066106e-06
1.04484e-06
1.0736672e-06
1.0914381e-06
1.0946855e-06
1.0982907e-06
1.1046763e-06
1.091626e-06
1.0942549e-06
9.3318154e-07
1.1081372e-06
7.6817441e-07
7.1088449e-07
1.1263064e-06
7.6795772e-07
1.2982076e-06
1.422828e-06
1.3853062e-06
1.6587979e-06
1.919304e-06
2.2673654e-06
2.5156479e-06
3.0738172e-06
3.531325e-06
4.135159e-06
5.2979472e-06
6.3373737e-06
7.7038434e-06
9.5744149e-06
1.2178896e-05
1.5077133e-05
1.7985878e-05
1.7627947e-05
2.2864294e-05
3.0167693e-05
1.0469957e-06
1.1004272e-06
1.0560913e-06
1.0556113e-06
1.0586309e-06
1.0440048e-06
1.0164249e-06
9.7974996e-07
9.6053464e-07
9.5538975e-07
9.7183275e-07
9.9681729e-07
1.0104193e-06
1.0072115e-06
1.0017938e-06
9.7870617e-07
9.6380017e-07
9.677084e-07
9.7326605e-07
9.7982173e-07
1.0000206e-06
1.0395769e-06
1.0758488e-06
1.1024279e-06
1.1218328e-06
1.1399712e-06
1.1717117e-06
1.1664136e-06
1.2229648e-06
1.2483699e-06
1.2945143e-06
8.2761911e-07
7.394213e-07
1.3341554e-06
9.19535e-07
1.4419532e-06
1.3008539e-06
1.1777563e-06
1.8130057e-06
2.0189344e-06
2.3847029e-06
2.6182523e-06
3.0791086e-06
3.4294134e-06
3.9118121e-06
4.6299709e-06
5.6695251e-06
6.554182e-06
7.8268917e-06
8.9570667e-06
1.0741792e-05
1.2037076e-05
1.1600959e-05
1.4417731e-05
1.9638436e-05
1.0440546e-06
1.0932943e-06
1.044822e-06
1.0360823e-06
1.0322799e-06
1.0142006e-06
9.849957e-07
9.5170266e-07
9.3078021e-07
9.2677236e-07
9.4189549e-07
9.6523201e-07
9.8468599e-07
9.9922689e-07
1.0106166e-06
1.0179608e-06
1.0268202e-06
1.040359e-06
1.0638603e-06
1.0951297e-06
1.1312547e-06
1.174345e-06
1.2333496e-06
1.2688658e-06
1.318246e-06
1.3676793e-06
1.4455175e-06
1.5306262e-06
1.568378e-06
1.6278452e-06
1.7278602e-06
1.2368436e-06
1.1376157e-06
1.7240147e-06
1.6937452e-06
2.1518274e-06
1.7446963e-06
1.5382126e-06
2.5126306e-06
2.6909714e-06
3.1233722e-06
3.352724e-06
3.6750091e-06
3.0771236e-06
3.7466513e-06
4.4310061e-06
4.9445883e-06
5.6118475e-06
6.9893694e-06
7.5467081e-06
8.6863258e-06
8.5245541e-06
7.8153071e-06
9.3770739e-06
1.2713973e-05
1.0315716e-06
1.0687085e-06
1.0124222e-06
9.9555736e-07
9.9471792e-07
9.8636122e-07
9.6703099e-07
9.4790453e-07
9.3641544e-07
9.4782782e-07
9.7398866e-07
1.0066887e-06
1.0442303e-06
1.0950765e-06
1.1669147e-06
1.2146175e-06
1.246665e-06
1.2730931e-06
1.3454844e-06
1.3911021e-06
1.4385843e-06
1.488356e-06
1.4398928e-06
1.4488025e-06
1.5689946e-06
1.7779188e-06
1.898585e-06
1.9457754e-06
2.1301764e-06
2.2385185e-06
2.4043655e-06
2.2574232e-06
2.1558388e-06
2.7004024e-06
2.9073186e-06
3.1701796e-06
3.1025823e-06
2.7123831e-06
3.6929038e-06
3.9188133e-06
4.3756488e-06
4.6722741e-06
4.487611e-06
3.3972484e-06
3.8363048e-06
4.4078704e-06
4.4648032e-06
4.5733929e-06
6.1027112e-06
6.9966115e-06
7.7179997e-06
6.910967e-06
5.9702509e-06
6.7083263e-06
8.2678207e-06
1.0052865e-06
1.0215584e-06
9.7446189e-07
9.5697197e-07
9.7415168e-07
9.9921963e-07
1.026293e-06
1.0461716e-06
1.0723935e-06
1.107608e-06
1.1504133e-06
1.2099032e-06
1.2703477e-06
1.3617543e-06
1.4575017e-06
1.5511059e-06
1.4557265e-06
1.412414e-06
1.7380665e-06
1.7888335e-06
1.8022765e-06
1.7303345e-06
1.7092926e-06
1.7614589e-06
1.8542491e-06
2.087644e-06
2.3430446e-06
2.5194749e-06
2.7792399e-06
2.9338512e-06
3.1737889e-06
3.398888e-06
3.601369e-06
3.7518118e-06
3.9506102e-06
4.3350705e-06
4.5974004e-06
4.3073441e-06
4.7928381e-06
5.3215949e-06
5.6785116e-06
5.9545174e-06
5.6847338e-06
4.4805056e-06
4.6985447e-06
5.1033118e-06
5.1560186e-06
5.0597586e-06
5.8485442e-06
7.1604286e-06
7.274029e-06
6.481364e-06
5.1151495e-06
5.2970202e-06
6.1584085e-06
9.7474416e-07
9.8217586e-07
9.6696811e-07
9.7541553e-07
1.0197597e-06
1.0930053e-06
1.1743388e-06
1.2490246e-06
1.3263667e-06
1.3684888e-06
1.3509718e-06
1.322148e-06
1.3851675e-06
1.4080736e-06
1.483237e-06
1.6382024e-06
1.5455177e-06
1.5760968e-06
1.7496717e-06
1.8093232e-06
1.8057384e-06
1.8125196e-06
1.8239715e-06
1.8882301e-06
1.959286e-06
2.1189833e-06
2.3300141e-06
2.5077612e-06
2.72213e-06
2.8516234e-06
3.064452e-06
3.1576895e-06
3.2027213e-06
3.3812067e-06
3.5822437e-06
3.850562e-06
4.0703755e-06
4.135776e-06
4.1734111e-06
4.3419414e-06
4.6458469e-06
4.8693707e-06
5.0014017e-06
4.8459803e-06
4.7162871e-06
4.6800979e-06
4.6283954e-06
4.6628591e-06
5.0875568e-06
5.7411002e-06
5.8412875e-06
5.8217213e-06
5.0510583e-06
4.831025e-06
5.3812871e-06
8.8218335e-07
1.1356605e-06
1.1763081e-06
1.1790655e-06
1.2005531e-06
1.2328303e-06
1.2675938e-06
1.3021992e-06
1.3263296e-06
1.3170467e-06
1.2892639e-06
1.2529184e-06
1.2520356e-06
1.2305788e-06
1.222027e-06
1.2284988e-06
1.1858899e-06
1.2127713e-06
1.2644677e-06
1.2745844e-06
1.2782595e-06
1.2860533e-06
1.290919e-06
1.3077198e-06
1.3158904e-06
1.3402909e-06
1.4106278e-06
1.468627e-06
1.5311311e-06
1.5915381e-06
1.691292e-06
1.7484145e-06
1.7415016e-06
1.8046926e-06
1.8848899e-06
1.9883851e-06
2.1191998e-06
2.1426052e-06
2.1488495e-06
2.1587551e-06
2.255874e-06
2.3896562e-06
2.4411435e-06
2.4298273e-06
2.3714239e-06
2.3910962e-06
2.4736816e-06
2.5882367e-06
2.6082309e-06
2.9106307e-06
3.0394429e-06
3.1015155e-06
3.0758625e-06
2.98958e-06
3.0006386e-06
1.0505664e-06
1.7741913e-06
1.6286203e-06
1.4381606e-06
1.3007877e-06
1.1341406e-06
9.8798129e-07
8.9595752e-07
8.500028e-07
8.3712051e-07
8.4403543e-07
8.4999688e-07
8.9180614e-07
9.3870662e-07
9.8937939e-07
1.0329637e-06
1.0199384e-06
9.990163e-07
9.8907843e-07
9.6009507e-07
9.3927332e-07
9.2772933e-07
9.0315974e-07
8.7513955e-07
8.3567929e-07
7.9656654e-07
7.7366648e-07
7.4680239e-07
7.1731096e-07
7.0547597e-07
6.9332513e-07
6.6277357e-07
6.1311245e-07
5.7178852e-07
5.5431071e-07
5.5749553e-07
5.7343976e-07
5.7313937e-07
5.6417068e-07
5.6693597e-07
5.8788383e-07
6.1926094e-07
6.4065906e-07
6.3299799e-07
5.9974135e-07
5.8378318e-07
5.9733687e-07
6.262546e-07
6.6454715e-07
7.2485322e-07
7.9180935e-07
8.4317322e-07
8.5960995e-07
8.4240567e-07
8.1679741e-07
7.527721e-07
2.8644391e-06
5.5776983e-06
7.3284779e-06
1.0093813e-05
1.4070153e-05
2.267856e-05
3.4800085e-05
4.8968605e-05
6.3858593e-05
7.8538575e-05
9.1861354e-05
0.00010312297
0.00011401137
0.0001252879
0.00013349412
0.00013394518
0.00012588068
0.00010562757
8.7855008e-05
8.288832e-05
8.2921843e-05
8.1754562e-05
7.6897853e-05
7.4870757e-05
7.8430725e-05
4.3548667e-05
6.7018336e-07
2.6335005e-06
5.5736239e-06
7.6753786e-06
1.0263218e-05
1.4697904e-05
2.2186366e-05
3.2954817e-05
5.1778129e-05
7.0301222e-05
8.9187406e-05
0.00010670256
0.00012161229
0.00013539845
0.00014883813
0.00015817126
0.00015869865
0.00014956321
0.00013134425
0.00010643446
9.5051695e-05
9.4613918e-05
9.4132709e-05
8.7008589e-05
8.0120606e-05
8.1883629e-05
8.510867e-05
6.076891e-07
2.5392539e-06
5.708269e-06
7.5360219e-06
1.0119692e-05
1.4466838e-05
2.1906768e-05
3.4382677e-05
5.7161492e-05
7.9985832e-05
0.00010380339
0.00012501255
0.00014327541
0.00015998762
0.00015236092
0.00014286603
0.00014205532
0.00015315677
0.00015867155
0.00013107872
0.00011476936
0.00011423704
0.00011249818
9.867832e-05
8.4246571e-05
7.3986482e-05
9.3571937e-05
5.5042294e-07
2.4893472e-06
5.7975524e-06
7.5662801e-06
1.0318101e-05
1.5043997e-05
2.3520311e-05
4.2231164e-05
6.5550232e-05
9.2903066e-05
0.00011950201
0.00014295637
0.00016418282
0.00018423941
0.00018335984
0.00016343742
0.00014919555
0.00014865638
0.00017359752
0.00016199699
0.00014224361
0.00014078364
0.00013555545
0.0001146078
8.0801415e-05
8.6281297e-05
9.8650687e-05
5.0549369e-07
2.3356764e-06
5.6706234e-06
7.6804484e-06
1.0426128e-05
1.5329466e-05
2.4667487e-05
4.6642641e-05
7.5507155e-05
0.00010449727
0.00013169047
0.00015661425
0.00018054731
0.00020392166
0.00022490705
0.00023002715
0.00022108547
0.00021688832
0.00019810008
0.00015450313
0.00014167392
0.00017321559
0.00016270764
0.00013637262
9.7716021e-05
9.1586205e-05
7.2241275e-05
4.7138363e-07
2.0803441e-06
5.3545715e-06
7.9558036e-06
1.044988e-05
1.5881446e-05
2.7396793e-05
5.1950697e-05
8.4559504e-05
0.00011262992
0.00013907277
0.00016503994
0.00019115557
0.00021746981
0.00024187168
0.00026029589
0.00027102222
0.00027162287
0.00026366297
0.00020499352
0.00020273172
0.0002100946
0.00017118806
0.00011806499
0.00011523165
0.00010226456
6.9332785e-05
4.3691287e-07
1.8964977e-06
5.1086751e-06
8.4402471e-06
1.2018558e-05
1.9434657e-05
3.6418193e-05
6.4716192e-05
9.279673e-05
0.00011872158
0.00014393572
0.00017073942
0.00019866678
0.00022712905
0.00025403949
0.00027573345
0.00029128888
0.00029829568
0.00029729728
0.00028662393
0.00026247424
0.00021605714
0.00015062802
0.00013238546
0.00014317191
8.8869187e-05
8.1665302e-05
3.9669922e-07
1.7752468e-06
4.9475346e-06
8.9188273e-06
1.3606579e-05
2.3831413e-05
4.5309048e-05
7.2568338e-05
9.8772106e-05
0.00012302419
0.0001482622
0.0001766012
0.00020611411
0.00023618547
0.00026487336
0.00028988157
0.00031105067
0.00032380647
0.00032623772
0.00031728245
0.00026213999
0.00018015266
0.00019246633
0.0002192818
0.00012436649
7.7782447e-05
0.00011699886
3.5171019e-07
1.6296656e-06
4.8254697e-06
9.316517e-06
1.422268e-05
2.6964129e-05
5.1655238e-05
7.7739029e-05
0.00010215392
0.00012568954
0.00015216699
0.00018205577
0.00021275761
0.00024474332
0.00027637669
0.00030616457
0.0003330359
0.00034849827
0.00034996229
0.00028748427
0.00016951942
0.00016911761
0.00027713223
0.00025891302
0.0001531525
9.8421965e-05
0.00010553657
3.028793e-07
1.529497e-06
4.7740427e-06
9.6699051e-06
1.599214e-05
3.228804e-05
5.7326388e-05
8.1097716e-05
0.00010311505
0.00012554709
0.00015202426
0.00018233937
0.00021455734
0.00025012914
0.00028716893
0.00032314045
0.00035484868
0.0003713921
0.00037096497
0.00022098216
0.00017721897
0.00023860905
0.00030103839
0.00029151043
0.00022059793
0.00021441677
8.4792755e-05
2.4662704e-07
1.4094255e-06
4.678583e-06
1.0296641e-05
1.9263563e-05
3.8375605e-05
6.0810429e-05
8.1769038e-05
0.00010100962
0.00012073208
0.00014439211
0.00017254242
0.00020481984
0.00024397655
0.00028747268
0.00033043058
0.00036741069
0.0003773268
0.00023853218
0.00019260641
0.00022106299
0.00033725879
0.00032948076
0.00025261332
0.00026809081
0.00024455031
8.9992576e-05
2.0226915e-07
1.3233107e-06
4.7618353e-06
1.1692299e-05
2.3183251e-05
4.1365119e-05
6.1457324e-05
7.9326066e-05
9.5354602e-05
0.00011196782
0.00013063382
0.00014274673
0.00016719683
0.00022439936
0.00027217229
0.0003196389
0.00036160911
0.00032073669
0.00023600885
0.00021886709
0.00027934928
0.00037376102
0.00033677097
0.00036242214
0.00033066549
0.00014348493
0.00010868249
1.9523124e-07
1.2636869e-06
4.8057524e-06
1.2529835e-05
2.4574591e-05
4.1176528e-05
5.8993679e-05
7.4872086e-05
8.7564206e-05
8.6561293e-05
8.4228941e-05
9.2071626e-05
0.00012691905
0.00018971525
0.00024212908
0.00029601867
0.00034402298
0.00026617336
0.00026141684
0.00033847653
0.00041642146
0.00037457759
0.00029793539
0.00039920563
0.00035474582
0.00013654515
0.0001494114
2.0360174e-07
1.130486e-06
4.4722808e-06
1.0590688e-05
2.1808431e-05
3.6856699e-05
5.1218012e-05
5.9926353e-05
6.1061109e-05
5.8161462e-05
5.7945172e-05
6.8844159e-05
0.00010941924
0.00015092737
0.00020990127
0.00026793066
0.00023365414
0.00024472073
0.0003339846
0.00041670786
0.0004359684
0.00045436221
0.00045536933
0.00041298758
0.00022603918
0.00019067004
0.00023515517
2.1292338e-07
9.2816252e-07
3.8959719e-06
8.172074e-06
1.5483827e-05
2.4559547e-05
3.247133e-05
3.5934688e-05
3.6559078e-05
3.8431622e-05
4.4374938e-05
6.221716e-05
7.845276e-05
0.00011991379
0.00017893174
0.00016571512
0.00018498675
0.00025240923
0.00039379284
0.00042169121
0.00045053667
0.00047938849
0.00048480449
0.00041546412
0.00021046592
0.00024893324
0.00025797928
2.1720599e-07
7.6025402e-07
3.1729441e-06
6.8870177e-06
1.1554988e-05
1.6235592e-05
1.9932082e-05
2.2211854e-05
2.4022224e-05
2.7400405e-05
3.4127943e-05
4.7181955e-05
5.9813174e-05
0.00010348352
0.00013950329
0.00015268808
0.00019194219
0.00026866219
0.00035529721
0.00039546503
0.00047151935
0.00049847647
0.00050103512
0.0003059643
0.00026867454
0.00033737583
0.00022290306
2.2327062e-07
6.0974011e-07
2.3181911e-06
5.2904741e-06
8.0649779e-06
1.1213788e-05
1.4952613e-05
1.8300618e-05
2.0969319e-05
2.4764852e-05
2.9706795e-05
3.5782417e-05
5.0317177e-05
7.5267793e-05
0.00012266907
0.00020835789
0.000314766
0.00031406897
0.000264596
0.00027871813
0.0004246029
0.00052521688
0.00032326739
0.00024394058
0.00038618875
0.00038713322
0.0002162245
2.1636038e-07
4.8488975e-07
1.6728707e-06
4.4496698e-06
6.8565705e-06
1.1288874e-05
1.7334399e-05
2.2433338e-05
2.4322126e-05
2.3267666e-05
2.4508401e-05
3.410235e-05
4.7077291e-05
8.0701512e-05
0.00015120393
0.00026291412
0.00033122333
0.00031511393
0.00025217315
0.0003076055
0.00054767779
0.00033806416
0.00021124804
0.00024033842
0.00045097741
0.00039582287
0.00021644553
1.8797152e-07
4.257901e-07
1.4208122e-06
4.0480197e-06
8.6116503e-06
1.268234e-05
1.4935829e-05
1.5371724e-05
1.584202e-05
1.8596657e-05
2.6247916e-05
4.9967102e-05
9.7950723e-05
0.00016044448
0.00022411435
0.00028614988
0.00022993608
0.00021507536
0.00027902469
0.00057174078
0.00047284928
0.0002186305
0.00019174073
0.00027039748
0.00041579291
0.00029045222
0.00018644383
1.4654796e-07
4.0693846e-07
1.2028447e-06
2.7767153e-06
5.605869e-06
7.8401596e-06
9.4850786e-06
1.1659717e-05
1.5313651e-05
2.3764292e-05
4.8121087e-05
9.5107584e-05
0.00014892278
0.00020659512
0.00021157041
0.00016541937
0.0001625729
0.00021561842
0.00044233076
0.00044092667
0.00021611697
0.00018361745
0.00023651661
0.00037250378
0.00031794492
0.00022090212
0.00016118286
1.2545847e-07
3.3814729e-07
8.9453124e-07
1.8823981e-06
3.6979239e-06
5.9748184e-06
8.6736492e-06
1.3573999e-05
2.6103869e-05
5.6845918e-05
0.00010428738
0.00014849153
0.00013930197
0.00012523257
0.00012040246
0.00013510629
0.00020800388
0.00053745105
0.00034321968
0.00017892434
0.00015087141
0.00019086737
0.00041733061
0.00052023032
0.00030721619
0.00020164299
0.00017579171
1.0463645e-07
2.7520365e-07
7.4233079e-07
1.6288975e-06
3.3843752e-06
6.7676833e-06
1.4386126e-05
3.4443545e-05
7.2838507e-05
0.00012195105
0.00012993924
0.00011017496
0.00010089875
0.0001026767
0.00012475973
0.00020241807
0.00054159301
0.00034403534
0.00017770009
0.00014143617
0.0001592549
0.00026467417
0.00050913487
0.00039312717
0.00027968267
0.00022299684
0.00027712465
8.423247e-08
2.3792464e-07
7.0906874e-07
2.1032613e-06
4.8321647e-06
1.0516446e-05
2.8079568e-05
6.6605828e-05
0.00013032526
0.00014995553
0.0001227993
0.00010981109
0.00011375845
0.00014395513
0.0002324699
0.00038553351