/*--------------------------------*- C++ -*----------------------------------*\
| =========                 |                                                 |
| \\      /  F ield         | OpenFOAM: The Open Source CFD Toolbox           |
|  \\    /   O peration     | Version:  2406                                  |
|   \\  /    A nd           | Website:  www.openfoam.com                      |
|    \\/     M anipulation  |                                                 |
\*---------------------------------------------------------------------------*/
FoamFile
{
    version     2.0;
    format      ascii;
    arch        "LSB;label=32;scalar=64";
    class       volScalarField;
    location    "22";
    object      k;
}
// * * * * * * * * * * * * * * * * * * * * * * * * * * * * * * * * * * * * * //

dimensions      [0 2 -2 0 0 0 0];

internalField   nonuniform List<scalar> 
62344
(
4.578351e-06
3.5523283e-06
2.8275383e-06
2.4158775e-06
2.1058883e-06
1.8331704e-06
1.6125649e-06
1.4482086e-06
1.3457915e-06
1.2831401e-06
1.2245044e-06
1.1670141e-06
1.1342228e-06
1.0743762e-06
9.96078e-07
9.6770002e-07
9.6415937e-07
9.6972087e-07
9.8839098e-07
1.0202459e-06
1.0194732e-06
1.0290852e-06
1.0601223e-06
1.0772399e-06
1.0882754e-06
1.1119479e-06
1.1438821e-06
1.1839027e-06
1.2446563e-06
1.3470472e-06
1.5888357e-06
2.0049941e-06
2.6956946e-06
3.2166404e-06
4.1978776e-06
5.3517912e-06
7.9633945e-06
1.0308343e-05
1.4869255e-05
1.8818787e-05
2.660446e-05
3.2523497e-05
3.900719e-05
5.4021973e-05
7.2142579e-05
8.5205695e-05
9.7216516e-05
0.00010994274
0.00012543075
0.00014076241
0.00016500121
0.00019200602
0.0002386057
0.00027664882
0.0003307317
4.5801819e-06
3.5618548e-06
2.8326502e-06
2.4290953e-06
2.114277e-06
1.843725e-06
1.6185659e-06
1.4589021e-06
1.3385825e-06
1.282042e-06
1.235412e-06
1.1738591e-06
1.1271596e-06
1.0679595e-06
1.0001298e-06
9.6787178e-07
9.5956514e-07
9.5715221e-07
9.7161325e-07
1.0043147e-06
1.0146339e-06
1.0197946e-06
1.0260847e-06
1.0399798e-06
1.0521185e-06
1.0627842e-06
1.0830397e-06
1.1055791e-06
1.1396373e-06
1.1934411e-06
1.3208645e-06
1.6162253e-06
2.1152307e-06
2.5297012e-06
3.301203e-06
4.4327377e-06
6.2306207e-06
7.9723368e-06
1.1225572e-05
1.4195947e-05
2.037593e-05
2.6272516e-05
3.4053767e-05
5.0941829e-05
7.4151902e-05
8.6621041e-05
9.808855e-05
0.00010768679
0.00012644463
0.00013778619
0.00016298666
0.00018308904
0.00022366277
0.0002590184
0.00031687554
4.58457e-06
3.5762998e-06
2.8452672e-06
2.4424877e-06
2.127911e-06
1.8542864e-06
1.6298736e-06
1.4571006e-06
1.3461238e-06
1.2866393e-06
1.2367023e-06
1.1855715e-06
1.1539604e-06
1.092871e-06
1.0051619e-06
9.8316408e-07
9.7255205e-07
9.6226952e-07
9.6884769e-07
9.9696712e-07
1.015682e-06
1.0179825e-06
1.0202999e-06
1.0310868e-06
1.0397562e-06
1.049755e-06
1.0663606e-06
1.0936795e-06
1.1277395e-06
1.176748e-06
1.2850612e-06
1.5230124e-06
1.9333508e-06
2.3057273e-06
3.0000933e-06
4.2326183e-06
5.6742094e-06
7.4014007e-06
1.0369874e-05
1.3043106e-05
1.684037e-05
2.1497987e-05
3.2309572e-05
4.6313026e-05
7.0420238e-05
8.232362e-05
0.0001028448
0.00011466912
0.00013705849
0.00014875853
0.0001721698
0.00018893583
0.0002201827
0.00024293706
0.00028550075
4.587919e-06
3.5906593e-06
2.8570924e-06
2.4436459e-06
2.1360192e-06
1.8627754e-06
1.6338785e-06
1.4633647e-06
1.3594757e-06
1.2963549e-06
1.2448855e-06
1.1854996e-06
1.1486955e-06
1.0922103e-06
1.0150061e-06
9.7646923e-07
9.660199e-07
9.6616764e-07
9.7464076e-07
1.0088309e-06
1.0231995e-06
1.0262988e-06
1.0357743e-06
1.0415951e-06
1.041694e-06
1.047971e-06
1.0562557e-06
1.0832161e-06
1.1268187e-06
1.1727296e-06
1.2705047e-06
1.469368e-06
1.8407582e-06
2.2091486e-06
2.8928047e-06
4.191977e-06
5.4738336e-06
7.3239406e-06
1.0312892e-05
1.3171015e-05
1.5465899e-05
2.0370703e-05
2.7829602e-05
3.7742187e-05
5.6179e-05
7.2961272e-05
9.7240242e-05
0.00012013031
0.00014276768
0.00017129249
0.00019413794
0.00022352876
0.00024721147
0.00027036308
0.00030728549
4.5927209e-06
3.6082505e-06
2.8636087e-06
2.4508709e-06
2.1417942e-06
1.8790874e-06
1.649515e-06
1.4809006e-06
1.3502827e-06
1.2951738e-06
1.2558543e-06
1.1920285e-06
1.1470568e-06
1.0979364e-06
1.0287814e-06
9.8011115e-07
9.6360297e-07
9.6377343e-07
9.7518073e-07
1.0096643e-06
1.0381751e-06
1.0471083e-06
1.0420658e-06
1.0365523e-06
1.0437988e-06
1.0525382e-06
1.0619296e-06
1.0948732e-06
1.135873e-06
1.1735168e-06
1.2411464e-06
1.3877698e-06
1.6630763e-06
1.9810626e-06
2.543406e-06
3.5606991e-06
4.566257e-06
6.2604151e-06
9.3481446e-06
1.216577e-05
1.462191e-05
2.0505219e-05
2.5853209e-05
3.5412344e-05
4.4153597e-05
6.078039e-05
8.3281398e-05
0.00011386157
0.00013894107
0.00017422898
0.00019922386
0.0002444401
0.00027288382
0.00032352547
0.00035254072
4.5957148e-06
3.6233214e-06
2.8726133e-06
2.4644022e-06
2.1527255e-06
1.8904989e-06
1.6688471e-06
1.4779989e-06
1.3632563e-06
1.298407e-06
1.2593646e-06
1.2057676e-06
1.1699306e-06
1.1198234e-06
1.0320893e-06
9.9551669e-07
9.7912224e-07
9.7049516e-07
9.7121549e-07
9.9181847e-07
1.0362084e-06
1.0585922e-06
1.0524145e-06
1.0459044e-06
1.0542131e-06
1.0578661e-06
1.0645525e-06
1.0968171e-06
1.1302111e-06
1.1673533e-06
1.232074e-06
1.3669301e-06
1.5846542e-06
1.8797562e-06
2.2871937e-06
3.2868828e-06
4.2021415e-06
5.6221506e-06
8.3778911e-06
1.0678428e-05
1.4014587e-05
2.0809532e-05
2.5368147e-05
3.3199005e-05
4.0057224e-05
5.4548176e-05
7.181064e-05
9.7689431e-05
0.00011942345
0.0001568804
0.00018569903
0.00023501228
0.0002662114
0.00031922015
0.00035161761
4.5986181e-06
3.631869e-06
2.8815501e-06
2.470061e-06
2.1635246e-06
1.8975041e-06
1.6648863e-06
1.4791715e-06
1.3773224e-06
1.3038584e-06
1.2651291e-06
1.2070662e-06
1.165569e-06
1.1244539e-06
1.0460229e-06
9.9824609e-07
9.7589729e-07
9.7412343e-07
9.703382e-07
9.9028589e-07
1.0397079e-06
1.0585107e-06
1.058073e-06
1.0544057e-06
1.0538502e-06
1.049361e-06
1.0522582e-06
1.0720209e-06
1.1133797e-06
1.1641591e-06
1.2284951e-06
1.333316e-06
1.4698867e-06
1.7834528e-06
2.0997573e-06
2.8910587e-06
3.721664e-06
5.1006952e-06
7.4378915e-06
9.7360764e-06
1.3854079e-05
2.0940121e-05
2.5453683e-05
3.3227564e-05
4.014033e-05
5.461312e-05
6.8656132e-05
8.398409e-05
0.00010445148
0.00013770871
0.00017110209
0.00021478817
0.0002459443
0.00028840384
0.00032648538
4.6014777e-06
3.6385829e-06
2.88697e-06
2.4755537e-06
2.1746723e-06
1.9074841e-06
1.6683592e-06
1.4979762e-06
1.3720171e-06
1.3036208e-06
1.2766771e-06
1.2178376e-06
1.1579515e-06
1.1275089e-06
1.0724912e-06
1.0032553e-06
9.7117824e-07
9.7022838e-07
9.73241e-07
9.9328436e-07
1.0467128e-06
1.0608539e-06
1.0595206e-06
1.05356e-06
1.0474057e-06
1.049187e-06
1.0568811e-06
1.0697154e-06
1.1078594e-06
1.1692936e-06
1.2284111e-06
1.3064823e-06
1.4167348e-06
1.7231477e-06
2.0301409e-06
2.7139584e-06
3.4572867e-06
4.8192831e-06
6.7394026e-06
9.0849151e-06
1.3220386e-05
1.9976838e-05
2.4455073e-05
3.2772254e-05
4.0213991e-05
5.2361947e-05
6.2870368e-05
7.7446852e-05
0.00010055559
0.00013498625
0.00017256602
0.00021723543
0.00024861108
0.00029265391
0.00032744781
4.6037963e-06
3.6461515e-06
2.8929832e-06
2.485877e-06
2.184891e-06
1.9141551e-06
1.6875723e-06
1.5036565e-06
1.3701321e-06
1.3077868e-06
1.2828673e-06
1.2288751e-06
1.1744986e-06
1.1365864e-06
1.0748575e-06
1.0101655e-06
9.7972313e-07
9.7107099e-07
9.7514442e-07
9.930996e-07
1.0384625e-06
1.0640882e-06
1.0702919e-06
1.0681059e-06
1.0720126e-06
1.0778662e-06
1.0801708e-06
1.0862346e-06
1.1118587e-06
1.1586759e-06
1.2141765e-06
1.3036102e-06
1.4001273e-06
1.6459992e-06
1.9443131e-06
2.5930193e-06
3.2765064e-06
4.6849424e-06
6.1541717e-06
8.6704283e-06
1.2804959e-05
1.8140894e-05
2.2675075e-05
3.1781172e-05
3.9305602e-05
4.8700254e-05
5.8203103e-05
7.4959061e-05
9.9958586e-05
0.0001358878
0.00017895394
0.00023191315
0.00027311331
0.00033989726
0.00037292325
4.6051771e-06
3.6555676e-06
2.9014426e-06
2.4962052e-06
2.1881751e-06
1.9178993e-06
1.6946879e-06
1.4967274e-06
1.3807745e-06
1.3119948e-06
1.2778005e-06
1.2286061e-06
1.1837785e-06
1.1368324e-06
1.0700361e-06
1.0243384e-06
9.8854457e-07
9.7472456e-07
9.7534612e-07
9.9193021e-07
1.0309837e-06
1.0650726e-06
1.0814249e-06
1.0888718e-06
1.0993691e-06
1.0975612e-06
1.0821314e-06
1.0841969e-06
1.1043586e-06
1.1407233e-06
1.2032587e-06
1.3023495e-06
1.4012506e-06
1.5996534e-06
1.8453026e-06
2.4298248e-06
3.081952e-06
4.445288e-06
5.8772593e-06
8.0210675e-06
1.2006246e-05
1.567793e-05
2.0171415e-05
2.9217023e-05
3.6888827e-05
4.3933679e-05
5.4281888e-05
7.1654139e-05
9.6380711e-05
0.0001325492
0.00017902868
0.00023860606
0.00030211629
0.00038773377
0.00045258289
4.6068066e-06
3.6662186e-06
2.9093484e-06
2.5005268e-06
2.1902506e-06
1.9256994e-06
1.6928463e-06
1.5029852e-06
1.3935296e-06
1.3120526e-06
1.2748553e-06
1.2298909e-06
1.1790309e-06
1.1312552e-06
1.0765061e-06
1.0312691e-06
9.843074e-07
9.7478692e-07
9.7600376e-07
9.8426318e-07
1.0294199e-06
1.0685518e-06
1.0813325e-06
1.0918567e-06
1.1006381e-06
1.0925293e-06
1.0637525e-06
1.0578598e-06
1.0681192e-06
1.1214929e-06
1.207776e-06
1.2910323e-06
1.3917963e-06
1.5821944e-06
1.7966165e-06
2.2773141e-06
2.9279943e-06
4.0992017e-06
5.4203395e-06
7.4005813e-06
1.1086223e-05
1.4051016e-05
1.7827239e-05
2.5940239e-05
3.3914733e-05
4.0012905e-05
5.1058723e-05
6.7417869e-05
8.9562949e-05
0.00012340884
0.00016926401
0.00023054001
0.00030270822
0.00039350946
0.00047612448
4.6085812e-06
3.6769311e-06
2.9164581e-06
2.5028496e-06
2.1970348e-06
1.9418351e-06
1.705092e-06
1.5212697e-06
1.3972134e-06
1.3148843e-06
1.2846349e-06
1.2430663e-06
1.1803152e-06
1.1318009e-06
1.0952213e-06
1.0311341e-06
9.7705647e-07
9.7037233e-07
9.7733553e-07
9.8109119e-07
1.023554e-06
1.0677923e-06
1.0756117e-06
1.0806877e-06
1.0792748e-06
1.064574e-06
1.0568115e-06
1.0507932e-06
1.0529878e-06
1.1000774e-06
1.2077022e-06
1.2786871e-06
1.3596155e-06
1.5365223e-06
1.790238e-06
2.1707745e-06
2.9384442e-06
3.6653142e-06
4.9839686e-06
6.7237952e-06
9.9475292e-06
1.2603795e-05
1.5977817e-05
2.2507894e-05
2.9988987e-05
3.6471973e-05
4.7848829e-05
6.2706246e-05
8.2002301e-05
0.00011068656
0.00015272477
0.00021268308
0.00028623554
0.00037445139
0.00046136856
4.6102811e-06
3.6867353e-06
2.9232468e-06
2.508106e-06
2.2072698e-06
1.9536094e-06
1.7240274e-06
1.5316018e-06
1.3930905e-06
1.3191674e-06
1.296937e-06
1.258123e-06
1.1937443e-06
1.1451252e-06
1.114976e-06
1.0437827e-06
9.834755e-07
9.7253724e-07
9.7965184e-07
9.8269181e-07
1.0133344e-06
1.0598188e-06
1.0765505e-06
1.086001e-06
1.0783507e-06
1.0582093e-06
1.0646787e-06
1.0672436e-06
1.0612415e-06
1.0905839e-06
1.1886422e-06
1.2624996e-06
1.3398806e-06
1.4796155e-06
1.7809009e-06
2.1297831e-06
2.8451215e-06
3.4976879e-06
4.6344014e-06
5.9515613e-06
8.9540948e-06
1.1546974e-05
1.5384996e-05
2.0444424e-05
2.7609939e-05
3.460551e-05
4.5722503e-05
5.9172535e-05
7.738472e-05
0.00010265106
0.0001384181
0.00019041955
0.00025806974
0.00033651682
0.00041859787
4.6114353e-06
3.6936336e-06
2.9283707e-06
2.5145652e-06
2.2146096e-06
1.9570272e-06
1.7275805e-06
1.5304464e-06
1.3925678e-06
1.3205199e-06
1.2972026e-06
1.2599459e-06
1.2012439e-06
1.1523528e-06
1.12055e-06
1.0567962e-06
1.0015194e-06
9.7678662e-07
9.7772462e-07
9.8209864e-07
1.0014689e-06
1.0470842e-06
1.0831862e-06
1.0992398e-06
1.0977257e-06
1.0834582e-06
1.0781661e-06
1.0760799e-06
1.0719516e-06
1.0976907e-06
1.1686836e-06
1.2380153e-06
1.3533927e-06
1.4631025e-06
1.7288638e-06
2.0532957e-06
2.6826524e-06
3.2822661e-06
4.4770242e-06
5.6094464e-06
8.2739309e-06
1.0669488e-05
1.5048921e-05
1.9246212e-05
2.6373655e-05
3.3489688e-05
4.453824e-05
5.6944263e-05
7.4748133e-05
9.898168e-05
0.00013033294
0.00017490568
0.00023473151
0.00030329428
0.00037422941
4.6128257e-06
3.7001566e-06
2.9320498e-06
2.5197584e-06
2.2179894e-06
1.9571163e-06
1.7200797e-06
1.5251075e-06
1.4001254e-06
1.319418e-06
1.2852636e-06
1.2518218e-06
1.1985614e-06
1.1467794e-06
1.1054071e-06
1.0539305e-06
1.0058359e-06
9.7487268e-07
9.690202e-07
9.7467377e-07
9.9479968e-07
1.0337986e-06
1.0801982e-06
1.097893e-06
1.1023187e-06
1.1002545e-06
1.0856249e-06
1.0704814e-06
1.070932e-06
1.1019362e-06
1.1488716e-06
1.2105352e-06
1.348092e-06
1.4647534e-06
1.7053175e-06
1.988022e-06
2.5254664e-06
3.0664622e-06
4.2311497e-06
5.3601885e-06
7.9288996e-06
1.0171669e-05
1.4408412e-05
1.8694806e-05
2.590242e-05
3.295987e-05
4.3830003e-05
5.6000159e-05
7.2877099e-05
9.6723213e-05
0.00012645639
0.00016621051
0.00021863069
0.00027893556
0.00034037194
4.6139931e-06
3.7067751e-06
2.9359724e-06
2.5245177e-06
2.2204983e-06
1.9606574e-06
1.7181704e-06
1.5248482e-06
1.4084393e-06
1.3218838e-06
1.2727042e-06
1.2460701e-06
1.1927299e-06
1.1375035e-06
1.0883965e-06
1.0364458e-06
9.8937095e-07
9.6750804e-07
9.6344926e-07
9.6730697e-07
9.9256495e-07
1.0314144e-06
1.0656152e-06
1.0780242e-06
1.0878499e-06
1.0947351e-06
1.0872952e-06
1.0653902e-06
1.0621752e-06
1.0857408e-06
1.1319252e-06
1.1875862e-06
1.3169769e-06
1.4481682e-06
1.6885342e-06
1.9354196e-06
2.3998637e-06
2.8712648e-06
3.9014245e-06
4.9351516e-06
7.2553598e-06
9.3683889e-06
1.3454725e-05
1.7532143e-05
2.4671171e-05
3.1400306e-05
4.2209077e-05
5.4797408e-05
7.07451e-05
9.3164136e-05
0.00012190225
0.00015790238
0.00020424401
0.00025822365
0.00031224896
4.6151153e-06
3.7131247e-06
2.9412511e-06
2.531038e-06
2.2253203e-06
1.9732344e-06
1.7305523e-06
1.5349461e-06
1.4113158e-06
1.3268808e-06
1.2744059e-06
1.2504389e-06
1.1987294e-06
1.1395918e-06
1.0942141e-06
1.0325915e-06
9.8014099e-07
9.6632623e-07
9.6672509e-07
9.6902918e-07
9.9269624e-07
1.0384117e-06
1.0608718e-06
1.0715517e-06
1.0790667e-06
1.080504e-06
1.0804021e-06
1.0710184e-06
1.0607424e-06
1.0676081e-06
1.1105526e-06
1.1703966e-06
1.2740441e-06
1.3940178e-06
1.6395975e-06
1.8695914e-06
2.3028942e-06
2.6989882e-06
3.5221206e-06
4.3678697e-06
6.1589832e-06
8.019535e-06
1.1678855e-05
1.5302697e-05
2.1969809e-05
2.8383969e-05
3.8648363e-05
5.1786189e-05
6.7025681e-05
8.6577576e-05
0.00011197192
0.00014354613
0.00018374523
0.00023176588
0.00028044988
4.6162698e-06
3.719035e-06
2.9476548e-06
2.5381745e-06
2.2323757e-06
1.9888944e-06
1.7523775e-06
1.5522125e-06
1.4137479e-06
1.3349724e-06
1.2914184e-06
1.2686091e-06
1.2203203e-06
1.1557197e-06
1.123625e-06
1.0587118e-06
9.9338581e-07
9.7733923e-07
9.8087801e-07
9.8114679e-07
9.9760089e-07
1.0467504e-06
1.0675906e-06
1.0822236e-06
1.0854398e-06
1.0752723e-06
1.0735013e-06
1.0740086e-06
1.0589784e-06
1.0492461e-06
1.0784717e-06
1.1385473e-06
1.2103024e-06
1.2946482e-06
1.51514e-06
1.7299893e-06
2.1205826e-06
2.460216e-06
2.9706663e-06
3.7578774e-06
4.6740685e-06
6.4682745e-06
8.7433014e-06
1.1723011e-05
1.7734183e-05
2.3749681e-05
3.1818442e-05
4.4574296e-05
5.9583584e-05
7.6853113e-05
9.7566081e-05
0.00012311262
0.00015512372
0.00019554081
0.00024071634
4.6171243e-06
3.7237344e-06
2.95461e-06
2.543054e-06
2.2407414e-06
1.9987352e-06
1.7638925e-06
1.5627249e-06
1.4184095e-06
1.3393793e-06
1.3070686e-06
1.2851705e-06
1.2338155e-06
1.1689493e-06
1.1426939e-06
1.084165e-06
1.0180774e-06
9.8875298e-07
9.9062343e-07
9.9056613e-07
1.000678e-06
1.0426532e-06
1.0724903e-06
1.0945875e-06
1.0961883e-06
1.0789668e-06
1.0709438e-06
1.0718355e-06
1.0616852e-06
1.049697e-06
1.0709712e-06
1.1194451e-06
1.1850781e-06
1.2502347e-06
1.432911e-06
1.6516346e-06
2.0197619e-06
2.3865343e-06
2.7347052e-06
3.4581818e-06
4.2608728e-06
5.3611371e-06
7.4439449e-06
9.5151712e-06
1.2912882e-05
1.9328315e-05
2.4600233e-05
3.4271164e-05
4.8085623e-05
6.4625945e-05
8.1976084e-05
0.00010189977
0.00012468169
0.00015418991
0.00019556501
4.616321e-06
3.724463e-06
2.9577152e-06
2.5437931e-06
2.2443297e-06
1.9970427e-06
1.761937e-06
1.5599023e-06
1.4202672e-06
1.3362151e-06
1.3032549e-06
1.2805176e-06
1.231082e-06
1.1653479e-06
1.1388132e-06
1.0825119e-06
1.0250535e-06
9.9187962e-07
9.9079532e-07
9.9314901e-07
1.0038105e-06
1.0428402e-06
1.0816062e-06
1.110544e-06
1.1166297e-06
1.1078646e-06
1.106722e-06
1.1136331e-06
1.1181989e-06
1.1238185e-06
1.1482984e-06
1.1968476e-06
1.2557175e-06
1.3119154e-06
1.4744274e-06
1.6856478e-06
2.0000774e-06
2.3940914e-06
2.7378873e-06
3.4380614e-06
4.3255715e-06
5.1826623e-06
7.0054459e-06
8.9392698e-06
1.1416523e-05
1.5956726e-05
2.0334173e-05
2.6567774e-05
3.5099865e-05
4.7759253e-05
6.2271815e-05
7.8951872e-05
9.7125988e-05
0.00011395443
0.00014761128
4.6174937e-06
3.7276899e-06
2.9584048e-06
2.5410191e-06
2.2408803e-06
1.9838834e-06
1.7454365e-06
1.5468507e-06
1.4136241e-06
1.3232798e-06
1.2837303e-06
1.260121e-06
1.2188941e-06
1.1643581e-06
1.1411104e-06
1.0937921e-06
1.0527071e-06
1.0354955e-06
1.0379611e-06
1.0499918e-06
1.0747437e-06
1.1274314e-06
1.1904998e-06
1.2411565e-06
1.2749368e-06
1.2947101e-06
1.325369e-06
1.3836998e-06
1.4208234e-06
1.4754217e-06
1.5553998e-06
1.6689621e-06
1.7401881e-06
1.7932539e-06
1.9700948e-06
2.235765e-06
2.5103501e-06
2.9921658e-06
3.3733993e-06
4.0436425e-06
5.1300652e-06
5.9674314e-06
7.5832084e-06
9.3330409e-06
1.1521571e-05
1.4677134e-05
1.8855825e-05
2.3139146e-05
2.909795e-05
3.5462959e-05
4.4787973e-05
5.3486902e-05
6.8909289e-05
7.8834169e-05
9.9848071e-05
4.613111e-06
3.7201451e-06
2.9502219e-06
2.5273039e-06
2.2242721e-06
1.9680199e-06
1.7348079e-06
1.547078e-06
1.4181698e-06
1.3340774e-06
1.2980856e-06
1.281864e-06
1.2607151e-06
1.245535e-06
1.2531984e-06
1.2508214e-06
1.2537052e-06
1.2715355e-06
1.3074831e-06
1.3799095e-06
1.444e-06
1.5342878e-06
1.666851e-06
1.7664598e-06
1.8845806e-06
1.9854397e-06
2.1247136e-06
2.3293605e-06
2.4407178e-06
2.6177976e-06
2.8540983e-06
3.2090226e-06
3.4077833e-06
3.4904785e-06
3.7446481e-06
4.2171949e-06
4.6221463e-06
5.3397367e-06
6.0162597e-06
6.778804e-06
8.3775048e-06
9.3826384e-06
1.0833703e-05
1.2087945e-05
1.3935847e-05
1.5868656e-05
1.9573099e-05
2.2722254e-05
2.7511932e-05
3.0982244e-05
3.7267218e-05
4.1597581e-05
5.0201795e-05
5.5444065e-05
6.6876638e-05
4.6081214e-06
3.7008369e-06
2.9283812e-06
2.5067214e-06
2.2250132e-06
2.0135246e-06
1.8198706e-06
1.6732568e-06
1.5754065e-06
1.5380655e-06
1.5445593e-06
1.579031e-06
1.6263939e-06
1.7171161e-06
1.8748363e-06
1.9904877e-06
2.0971729e-06
2.2246288e-06
2.4015247e-06
2.6048338e-06
2.7503659e-06
2.9399735e-06
3.2122916e-06
3.4418715e-06
3.7527145e-06
4.0755016e-06
4.4798232e-06
5.0549642e-06
5.3827101e-06
5.8548717e-06
6.4951668e-06
7.427266e-06
8.1316538e-06
8.387383e-06
8.777621e-06
9.7460788e-06
1.0639072e-05
1.1795143e-05
1.3127918e-05
1.4362034e-05
1.6668872e-05
1.8392466e-05
2.0101383e-05
2.0995676e-05
2.2632569e-05
2.3599304e-05
2.5701798e-05
2.7368681e-05
3.0728469e-05
3.3023895e-05
3.7234417e-05
3.9640553e-05
4.4333206e-05
4.7669027e-05
5.3317266e-05
4.5884684e-06
3.6553489e-06
2.9684077e-06
2.6262651e-06
2.4794958e-06
2.4561395e-06
2.4594096e-06
2.4888268e-06
2.5618227e-06
2.6768661e-06
2.8368944e-06
3.0819094e-06
3.3106353e-06
3.6775515e-06
4.1398687e-06
4.5501482e-06
4.937605e-06
5.3019358e-06
5.7639138e-06
6.2077718e-06
6.5164103e-06
6.8849985e-06
7.4146997e-06
7.91188e-06
8.4806733e-06
9.3038461e-06
1.0334566e-05
1.1724936e-05
1.2584488e-05
1.3510836e-05
1.5023218e-05
1.6742364e-05
1.8540617e-05
1.9419835e-05
2.0272252e-05
2.2233159e-05
2.406411e-05
2.5953132e-05
2.8153151e-05
3.029743e-05
3.2843555e-05
3.537587e-05
3.8344441e-05
3.9620999e-05
4.1425925e-05
4.2446533e-05
4.3586806e-05
4.443226e-05
4.5315163e-05
4.5823525e-05
4.6361174e-05
4.6685666e-05
4.7888876e-05
4.9444098e-05
5.1256359e-05
4.7177288e-06
4.2955954e-06
4.0952607e-06
4.1423355e-06
4.4473117e-06
5.0075859e-06
5.5640919e-06
6.1264484e-06
6.7244763e-06
7.1852264e-06
7.5415334e-06
8.0954245e-06
8.5981965e-06
9.3627151e-06
1.0093125e-05
1.0920351e-05
1.1664367e-05
1.2403873e-05
1.3288337e-05
1.3941792e-05
1.4443513e-05
1.5017715e-05
1.5731712e-05
1.6549353e-05
1.7330637e-05
1.8562462e-05
2.0137508e-05
2.2103289e-05
2.3518611e-05
2.4686112e-05
2.6936241e-05
2.8486161e-05
2.99045e-05
3.1618538e-05
3.320519e-05
3.5335653e-05
3.7320719e-05
3.8699764e-05
3.984098e-05
4.1820791e-05
4.4576631e-05
4.6893036e-05
4.8984129e-05
5.0047848e-05
5.0975826e-05
5.2196261e-05
5.3618897e-05
5.495151e-05
5.5934787e-05
5.6745659e-05
5.697789e-05
5.6380201e-05
5.5818992e-05
5.494952e-05
5.4367378e-05
8.2081789e-06
1.3726236e-05
1.4834473e-05
1.5008877e-05
1.5612093e-05
1.6562423e-05
1.7177989e-05
1.7774058e-05
1.8276361e-05
1.8468237e-05
1.8430525e-05
1.8375273e-05
1.844731e-05
1.8643221e-05
1.8667197e-05
1.8688971e-05
1.8783814e-05
1.9476758e-05
2.0224974e-05
2.0511139e-05
2.0841498e-05
2.1269674e-05
2.1772216e-05
2.2196668e-05
2.2508162e-05
2.3195641e-05
2.4369252e-05
2.5719601e-05
2.6749425e-05
2.7837245e-05
2.9682765e-05
3.1398646e-05
3.2200924e-05
3.3196539e-05
3.4501076e-05
3.6345349e-05
3.8208445e-05
3.9278019e-05
3.9802844e-05
4.055201e-05
4.2018905e-05
4.426698e-05
4.5732825e-05
4.6563135e-05
4.672953e-05
4.7248628e-05
4.8410613e-05
4.9869145e-05
5.162052e-05
5.3767516e-05
5.5245456e-05
5.5912923e-05
5.5851856e-05
5.4798202e-05
5.4236976e-05
5.7861e-05
9.8023405e-05
8.9417143e-05
7.8731692e-05
7.1548678e-05
6.2252442e-05
5.4073404e-05
4.8550372e-05
4.5911316e-05
4.5029873e-05
4.5197823e-05
4.5679281e-05
4.7282605e-05
4.9882776e-05
5.2653554e-05
5.483417e-05
5.5470024e-05
5.4705097e-05
5.3642597e-05
5.2148373e-05
5.1021057e-05
5.024821e-05
4.9050943e-05
4.7637399e-05
4.5837701e-05
4.3793624e-05
4.2057432e-05
4.057166e-05
3.896604e-05
3.7886134e-05
3.7167163e-05
3.6035483e-05
3.4149886e-05
3.1992112e-05
3.0445914e-05
2.9811516e-05
3.0307756e-05
3.0726866e-05
3.0575369e-05
3.0441137e-05
3.0987546e-05
3.2109331e-05
3.3472041e-05
3.41195e-05
3.3377744e-05
3.3063112e-05
3.3628472e-05
3.4351501e-05
3.501786e-05
3.661814e-05
3.9006112e-05
4.1534802e-05
4.3176457e-05
4.3397713e-05
4.2896689e-05
4.1175972e-05
5.3558976e-05
5.470642e-05
5.3747674e-05
5.7651086e-05
7.5452378e-05
0.00011920635
0.00017392701
0.00022590632
0.00027563922
0.00032190677
0.00036014379
0.00039444216
0.00043637069
0.00049322595
0.00055192859
0.00057699192
0.00055444954
0.00046533448
0.00038284709
0.00036691655
0.00038638595
0.00038800044
0.00035392239
0.00033681024
0.00037902211
0.00041074621
3.8730418e-05
5.2104916e-05
5.5853888e-05
5.7059207e-05
6.41642e-05
8.9069313e-05
0.00014095199
0.00019623692
0.00025177246
0.00031240526
0.00037016232
0.0004175929
0.00046146719
0.00051537275
0.00058631474
0.00065788741
0.00069471539
0.00067895101
0.00060408477
0.00048342387
0.00043304241
0.00044517713
0.00045231377
0.00040874949
0.00036739461
0.00040264872
0.00047138436
3.6690037e-05
5.1045537e-05
5.7825501e-05
6.125586e-05
7.2085207e-05
0.00010292621
0.00015653931
0.00021448423
0.00028624801
0.00036685028
0.00043641664
0.00049256774
0.00054784095
0.00061477401
0.0006979276
0.00077960738
0.00082695698
0.00081691994
0.0007514997
0.00061549537
0.00053787228
0.00054748395
0.00055353886
0.00047661661
0.00040052605
0.00043365918
0.00053347915
3.4444812e-05
5.0308555e-05
5.917362e-05
6.4624818e-05
7.8425457e-05
0.00011270632
0.00016909052
0.00024252025
0.00034057236
0.00043517405
0.0005098903
0.00057247354
0.00063927135
0.00072161451
0.0008199791
0.00091751721
0.00098160313
0.00098176811
0.00091971195
0.00077319665
0.00067333907
0.00068082865
0.00068228302
0.0005783721
0.00044639454
0.0004628045
0.00057665384
3.2924671e-05
4.8527444e-05
5.9113488e-05
6.6839014e-05
8.3407793e-05
0.00012128141
0.00018743861
0.00028806016
0.000404302
0.00050089155
0.00057353977
0.00063949315
0.00071571185
0.00081112415
0.00092658217
0.0010454125
0.0011359868
0.0011606756
0.0011106432
0.00096589391
0.00084632404
0.00083726342
0.00082889018
0.00072094686
0.00052459931
0.00050635313
0.00062060384
3.2249563e-05
4.4944085e-05
5.7863421e-05
6.792447e-05
8.7480983e-05
0.00013223036
0.00021689032
0.00034585283
0.00046850794
0.00055843058
0.00062539238
0.00069186554
0.00077371013
0.00087867497
0.0010079723
0.0011466731
0.0012634404
0.0013188907
0.0012975115
0.0011797292
0.0010458722
0.0010149285
0.0010017273
0.00089517293
0.00064243155
0.00057070303
0.0006817742
3.1539692e-05
4.1766029e-05
5.6134969e-05
6.9664146e-05
9.4999362e-05
0.00015313968
0.000264928
0.00041163894
0.00052933476
0.00060799749
0.000669397
0.00073791858
0.0008265664
0.00094174026
0.0010836586
0.0012382095
0.0013742599
0.0014544994
0.0014617673
0.0013770062
0.0012387348
0.0012000484
0.0011928529
0.001088142
0.00080630674
0.00066517247
0.00076073735
3.0258212e-05
3.9186445e-05
5.4581378e-05
7.2929264e-05
0.00010614848
0.0001797904
0.00032012888
0.00047169873
0.00058106275
0.00065306346
0.0007147373
0.00078756512
0.00088389653
0.0010111241
0.0011679147
0.001339763
0.00149694
0.001596354
0.0016156193
0.0015395345
0.0014031237
0.0013618272
0.0013651266
0.0012863423
0.0010131473
0.00078947421
0.00085765883
2.8258749e-05
3.6623332e-05
5.3538745e-05
7.6803441e-05
0.00011786865
0.00021279659
0.00037600288
0.00052491957
0.00062956037
0.00070181251
0.00076518454
0.00083971336
0.00094138204
0.0010801737
0.001254925
0.0014504435
0.0016329811
0.0017455972
0.0017640178
0.001690501
0.0015566992
0.0015020214
0.0015127641
0.0014653838
0.0012424902
0.00095301644
0.00096102939
2.5655996e-05
3.4895652e-05
5.3726656e-05
8.312866e-05
0.00013784143
0.0002618701
0.00043574038
0.00058036478
0.00067958922
0.00074653607
0.00080454748
0.00087760278
0.00098500091
0.0011372209
0.0013322064
0.0015522607
0.0017593997
0.0018875784
0.0019142078
0.0018515227
0.0017266762
0.0016582232
0.0016661973
0.0016454174
0.001467687
0.0011399427
0.0010757016
2.2288934e-05
3.2967435e-05
5.4356634e-05
9.3187075e-05
0.00016833961
0.00031645292
0.00048930467
0.00062384993
0.00071218966
0.00076515207
0.00080975355
0.00087512279
0.00098380581
0.0011480451
0.0013632286
0.0016096067
0.0018459029
0.0020151176
0.0020790205
0.0020375445
0.0019304317
0.0018576594
0.0018646891
0.0018719143
0.0016946813
0.0013202707
0.0011952697
1.9602643e-05
3.1458975e-05
5.5839258e-05
0.0001046999
0.00020044078
0.00035935444
0.00052193618
0.00064251061
0.00071620745
0.000758059
0.00078782524
0.00083344642
0.00092925908
0.001095803
0.0013243012
0.0015908446
0.0018624941
0.002098168
0.0022290747
0.0022346236
0.0021617204
0.0020959566
0.0021106902
0.0021384091
0.0019328364
0.0014914901
0.001312929
2.026835e-05
3.030664e-05
5.6587927e-05
0.00011395912
0.00021717863
0.00036781383
0.00052030564
0.00063617131
0.00070085126
0.00072329795
0.00071815842
0.00072487782
0.00079702119
0.00096501041
0.0012109657
0.0015091385
0.0018272483
0.0021210643
0.0023221393
0.0024007234
0.0023858643
0.0023578298
0.0023857887
0.0024062332
0.002177695
0.0016696774
0.0014319738
2.2604111e-05
2.8771647e-05
5.4847247e-05
0.000112303
0.00021233054
0.00035590663
0.00050243176
0.00060694446
0.00064970883
0.00064185821
0.00061052742
0.00059577009
0.00064534104
0.0008120362
0.0010900491
0.001425133
0.0017819628
0.0021137018
0.002369266
0.0025169416
0.00257167
0.00261319
0.0026551282
0.0026616845
0.0024252797
0.0018700264
0.00156573
2.5337377e-05
2.6483627e-05
5.0650537e-05
0.00010615303
0.00019965693
0.00032736404
0.00045607199
0.00053082423
0.000545332
0.00053231505
0.00049954781
0.00048253232
0.0005196966
0.00069273772
0.0010152667
0.0013888455
0.0017687333
0.0021212573
0.0024131786
0.0026146432
0.0027452417
0.0028443203
0.0028846593
0.002882014
0.0026663461
0.0021084371
0.0017328918
2.75891e-05
2.4303058e-05
4.384759e-05
9.4124758e-05
0.00017424601
0.00026981765
0.00035894192
0.00041153748
0.00042723049
0.00042020815
0.00039695416
0.00039021054
0.00043469971
0.00063821277
0.0009959765
0.0013935217
0.0017963682
0.0021729143
0.0025022315
0.0027492589
0.0029351784
0.003058388
0.003082798
0.0030538374
0.0028856626
0.0023748511
0.0019406941
2.9917296e-05
2.1539548e-05
3.5633177e-05
7.3441439e-05
0.00013212198
0.00019688868
0.00026278726
0.00031319143
0.00032998688
0.00032094531
0.00030312895
0.00031223322
0.00041029089
0.00068424838
0.0010554236
0.001453803
0.0018671523
0.00227074
0.002646354
0.0029448389
0.0031606356
0.0032768438
0.0032724632
0.0031980621
0.0030691449
0.0026472366
0.0021755639
2.9803047e-05
1.8523098e-05
2.906646e-05
5.7803838e-05
0.0001000392
0.00014953109
0.00020431674
0.00023199283
0.0002295842
0.00022043968
0.00023315833
0.00030798692
0.00051040727
0.00085023082
0.0012110058
0.0015870834
0.0019855934
0.002407651
0.0028361699
0.0031887513
0.0034257473
0.0035181803
0.0034734343
0.0033515233
0.0032395104
0.0029000945
0.0024162965
2.5636132e-05
1.6393969e-05
2.526743e-05
4.6702879e-05
8.2334699e-05
0.00011701463
0.0001381376
0.00014481071
0.00015304702
0.000184551
0.00025536547
0.00043744159
0.00076440717
0.0010969226
0.0014371836
0.0017969652
0.0021903587
0.0026346267
0.0030873714
0.0034437617
0.0036579089
0.0037343456
0.0036675463
0.0035420035
0.0034433139
0.0031547157
0.0026624827
1.9855807e-05
1.5079653e-05
2.134093e-05
3.425996e-05
5.7387007e-05
7.4559143e-05
8.991738e-05
0.00011385254
0.00015554536
0.00023935981
0.00044360337
0.00077283851
0.0010881342
0.0014019636
0.0017410282
0.0021169688
0.0025420756
0.0029957448
0.0033879981
0.0036480032
0.0038085771
0.0038599498
0.0038249967
0.0037538962
0.0036878978
0.0034442632
0.0029545741
1.7983148e-05
1.3077171e-05
1.7290464e-05
2.4999226e-05
3.9849787e-05
6.0746289e-05
8.9557788e-05
0.00014383482
0.00026959568
0.00053379787
0.00087066961
0.001177974
0.0014689837
0.0017848146
0.0021589235
0.0025910006
0.0030327947
0.0034030758
0.0036371894
0.003772952
0.0038507192
0.0039007409
0.0039300439
0.0039378391
0.0039566866
0.0037894662
0.0033085083
1.6539652e-05
1.1845302e-05
1.5733587e-05
2.3483999e-05
4.0922945e-05
7.9251274e-05
0.00016454045
0.00036626395
0.00068796056
0.001024081
0.0013305835
0.0016219078
0.001927119
0.0022868766
0.0027182447
0.0031584473
0.0034990686
0.0037030026
0.0037982274
0.0038377414
0.0038488329
0.0039225072
0.0040151853
0.0041423946
0.0042592743
0.0041838961
0.0036831781
1.4757019e-05
1.1696847e-05
1.7412708e-05
3.6437225e-05
9.0226396e-05
0.00023189387
0.00051111068
0.00083899343
0.0011519759
0.0014568837
0.0017676276
0.0021010904
0.0024631909
0.0028669124
0.0032837807
0.0036295218
0.0038552869
0.0039449584
0.0039470782
0.0039241122
0.0039182244
0.0039947125
0.0041563806
0.0043939502
0.0046017946
0.0045597392
0.0040048681
1.4058525e-05
1.3962167e-05
3.5252692e-05
0.00011135435
0.00033342024
0.00063770935
0.00093147818
0.0012249694