/*--------------------------------*- C++ -*----------------------------------*\
| =========                 |                                                 |
| \\      /  F ield         | OpenFOAM: The Open Source CFD Toolbox           |
|  \\    /   O peration     | Version:  2406                                  |
|   \\  /    A nd           | Website:  www.openfoam.com                      |
|    \\/     M anipulation  |                                                 |
\*---------------------------------------------------------------------------*/
FoamFile
{
    version     2.0;
    format      ascii;
    arch        "LSB;label=32;scalar=64";
    class       volScalarField;
    location    "22";
    object      nut;
}
// * * * * * * * * * * * * * * * * * * * * * * * * * * * * * * * * * * * * * //

dimensions      [0 2 -1 0 0 0 0];

internalField   nonuniform List<scalar> 
96472
(
8.6285118e-07
9.535608e-07
9.3660786e-07
9.3720906e-07
9.3046815e-07
8.9822611e-07
8.5801674e-07
8.3349508e-07
8.3074942e-07
8.3940982e-07
8.4552162e-07
8.3963404e-07
8.2213572e-07
7.9857453e-07
7.7814453e-07
7.6578896e-07
7.654708e-07
7.7340172e-07
7.8765946e-07
8.0027721e-07
8.110375e-07
8.1295761e-07
8.0999465e-07
7.9854867e-07
7.8454155e-07
7.6678681e-07
7.5117097e-07
7.3651427e-07
7.2685257e-07
7.2165892e-07
7.2183703e-07
7.27454e-07
7.3249785e-07
7.4223837e-07
7.5592779e-07
7.6232299e-07
7.8253761e-07
7.8779941e-07
8.1088618e-07
8.1729603e-07
8.3911986e-07
8.5267804e-07
8.7120826e-07
8.8073193e-07
8.9405622e-07
9.0413372e-07
9.1640947e-07
9.3180166e-07
9.5081263e-07
9.7386115e-07
1.0031629e-06
1.0368125e-06
1.0700345e-06
1.1191827e-06
1.1823507e-06
8.6244142e-07
9.495366e-07
9.344193e-07
9.3530031e-07
9.2926303e-07
8.9808478e-07
8.5794989e-07
8.3239227e-07
8.2868703e-07
8.3719498e-07
8.4405119e-07
8.3937737e-07
8.2300379e-07
7.998218e-07
7.7895281e-07
7.6564041e-07
7.6403574e-07
7.7082705e-07
7.8463385e-07
7.9717243e-07
8.0901565e-07
8.1214599e-07
8.1089187e-07
8.0093166e-07
7.8778669e-07
7.7000243e-07
7.5363288e-07
7.3726585e-07
7.2685932e-07
7.1918108e-07
7.1717714e-07
7.2095427e-07
7.2664047e-07
7.3294271e-07
7.4333717e-07
7.5289214e-07
7.6953613e-07
7.8082814e-07
7.9939937e-07
8.1096092e-07
8.3016316e-07
8.4666349e-07
8.6708838e-07
8.8280408e-07
8.949013e-07
9.1302346e-07
9.2182473e-07
9.3871576e-07
9.4953104e-07
9.7312049e-07
9.8698918e-07
1.0156566e-06
1.0397927e-06
1.064677e-06
1.1227997e-06
8.6194999e-07
9.4721626e-07
9.3213989e-07
9.3301901e-07
9.2808564e-07
8.9808117e-07
8.5793869e-07
8.3141133e-07
8.2685083e-07
8.3537706e-07
8.4298924e-07
8.3957353e-07
8.2410675e-07
8.013978e-07
7.8006772e-07
7.6603697e-07
7.6325151e-07
7.6948996e-07
7.8274237e-07
7.9590311e-07
8.0810073e-07
8.124131e-07
8.1209891e-07
8.0229336e-07
7.9051646e-07
7.7229336e-07
7.5658951e-07
7.3990497e-07
7.28528e-07
7.197481e-07
7.1713671e-07
7.1912432e-07
7.2467777e-07
7.3003515e-07
7.3773679e-07
7.4565047e-07
7.5793613e-07
7.6962833e-07
7.8295517e-07
7.9738954e-07
8.0906989e-07
8.2764407e-07
8.4156888e-07
8.6654714e-07
8.7881485e-07
9.0287891e-07
9.1365689e-07
9.3514346e-07
9.4595391e-07
9.6941192e-07
9.8406324e-07
1.0034788e-06
1.0316521e-06
1.0483366e-06
1.0886711e-06
8.6152981e-07
9.4522383e-07
9.2994027e-07
9.3083296e-07
9.2711936e-07
8.9823577e-07
8.5817773e-07
8.3086816e-07
8.2554266e-07
8.3399961e-07
8.4229446e-07
8.3997859e-07
8.2537322e-07
8.0303189e-07
7.8125972e-07
7.66433e-07
7.6241493e-07
7.679581e-07
7.8057882e-07
7.9421698e-07
8.0654144e-07
8.1252739e-07
8.1256292e-07
8.0479792e-07
7.9301327e-07
7.7569822e-07
7.5962629e-07
7.4249787e-07
7.3048791e-07
7.208118e-07
7.169179e-07
7.1730129e-07
7.2278285e-07
7.2739415e-07
7.3507435e-07
7.4236364e-07
7.5279423e-07
7.6446821e-07
7.7588013e-07
7.8917151e-07
8.0005466e-07
8.1478694e-07
8.25267e-07
8.4305142e-07
8.5222301e-07
8.7251959e-07
8.8351489e-07
9.0683905e-07
9.2299231e-07
9.4365693e-07
9.7014613e-07
9.8538767e-07
1.0154596e-06
1.0315914e-06
1.0679701e-06
8.6122505e-07
9.4384484e-07
9.2812328e-07
9.2883691e-07
9.261298e-07
8.9834348e-07
8.5842714e-07
8.3040741e-07
8.2433557e-07
8.3273348e-07
8.4158759e-07
8.4035394e-07
8.2656097e-07
8.0465474e-07
7.8246019e-07
7.6699421e-07
7.6174758e-07
7.6662841e-07
7.7850964e-07
7.9256889e-07
8.0503665e-07
8.1240924e-07
8.1300075e-07
8.0666584e-07
7.9519133e-07
7.7896549e-07
7.6227902e-07
7.4549591e-07
7.322141e-07
7.2225055e-07
7.1688022e-07
7.1595128e-07
7.2038209e-07
7.2518018e-07
7.3212306e-07
7.3801072e-07
7.4827675e-07
7.5922017e-07
7.7019449e-07
7.8317908e-07
7.9396807e-07
8.07926e-07
8.1776522e-07
8.3250895e-07
8.4066085e-07
8.5470968e-07
8.6696427e-07
8.7707779e-07
8.946149e-07
9.0594315e-07
9.3134798e-07
9.4535393e-07
9.7487956e-07
9.9170532e-07
1.0316965e-06
8.6094318e-07
9.4252234e-07
9.2633811e-07
9.2689263e-07
9.2518217e-07
8.9847353e-07
8.5874128e-07
8.3007154e-07
8.2326387e-07
8.315609e-07
8.409227e-07
8.406949e-07
8.2771727e-07
8.062558e-07
7.837514e-07
7.6762095e-07
7.612551e-07
7.6540816e-07
7.7657148e-07
7.9090116e-07
8.0355553e-07
8.120866e-07
8.1345224e-07
8.0847833e-07
7.9736581e-07
7.8216857e-07
7.6505809e-07
7.484884e-07
7.3423096e-07
7.2356549e-07
7.1721625e-07
7.1515362e-07
7.1796605e-07
7.2306332e-07
7.2922841e-07
7.3463928e-07
7.435585e-07
7.5403144e-07
7.6433789e-07
7.7682314e-07
7.8733949e-07
7.993494e-07
8.1146137e-07
8.2254592e-07
8.3547707e-07
8.4321586e-07
8.5659584e-07
8.6371913e-07
8.7803834e-07
8.862395e-07
9.0380169e-07
9.1458035e-07
9.3726356e-07
9.5046938e-07
9.8486603e-07
8.6071992e-07
9.4102847e-07
9.2448865e-07
9.2435987e-07
9.234348e-07
8.9802362e-07
8.587178e-07
8.2959845e-07
8.221683e-07
8.3034443e-07
8.4024292e-07
8.4091574e-07
8.2885661e-07
8.0779946e-07
7.8514345e-07
7.6832549e-07
7.6098609e-07
7.642312e-07
7.7486522e-07
7.8913606e-07
8.0216278e-07
8.1151368e-07
8.1396054e-07
8.099086e-07
7.996889e-07
7.8518245e-07
7.6808024e-07
7.514669e-07
7.3658767e-07
7.251845e-07
7.1782379e-07
7.147762e-07
7.1605384e-07
7.2083727e-07
7.2646024e-07
7.3237675e-07
7.3901872e-07
7.4899116e-07
7.5962362e-07
7.7026016e-07
7.819188e-07
7.9239441e-07
8.0470117e-07
8.147533e-07
8.2777974e-07
8.3553845e-07
8.4802677e-07
8.5445587e-07
8.6721824e-07
8.7397436e-07
8.881444e-07
8.963242e-07
9.136061e-07
9.240318e-07
9.4914693e-07
8.6016763e-07
9.3740603e-07
9.2068064e-07
9.199152e-07
9.2000659e-07
8.964581e-07
8.5815971e-07
8.289609e-07
8.2108967e-07
8.2919579e-07
8.3959412e-07
8.4116269e-07
8.2998954e-07
8.093832e-07
7.8658896e-07
7.6914605e-07
7.6087901e-07
7.6320049e-07
7.7322937e-07
7.8743416e-07
8.007657e-07
8.1084217e-07
8.1434962e-07
8.1118325e-07
8.0188195e-07
7.8803701e-07
7.7109642e-07
7.5448626e-07
7.3895778e-07
7.2702957e-07
7.1860539e-07
7.146188e-07
7.1467605e-07
7.1868492e-07
7.2373211e-07
7.2994789e-07
7.3562428e-07
7.4409006e-07
7.5473155e-07
7.6486343e-07
7.7574952e-07
7.8613339e-07
7.9768935e-07
8.0708497e-07
8.2042543e-07
8.2783709e-07
8.4007338e-07
8.4611355e-07
8.579214e-07
8.6388289e-07
8.7599396e-07
8.8284264e-07
8.9689606e-07
9.0540799e-07
9.2503009e-07
8.5885827e-07
9.2992971e-07
9.1481984e-07
9.1490322e-07
9.166744e-07
8.9501585e-07
8.577041e-07
8.2844826e-07
8.2014329e-07
8.2814022e-07
8.3900156e-07
8.4142001e-07
8.3111329e-07
8.1099958e-07
7.8810842e-07
7.7006586e-07
7.6091335e-07
7.6231227e-07
7.7169019e-07
7.8577342e-07
7.9935439e-07
8.1006219e-07
8.1461197e-07
8.1234175e-07
8.0393325e-07
7.90833e-07
7.7420317e-07
7.5752959e-07
7.4165015e-07
7.2896064e-07
7.1984178e-07
7.1467366e-07
7.1364173e-07
7.1675244e-07
7.2135718e-07
7.2734956e-07
7.3266409e-07
7.4030944e-07
7.4937555e-07
7.5987201e-07
7.7022177e-07
7.7998256e-07
7.9133693e-07
8.0044351e-07
8.1276009e-07
8.2084264e-07
8.3251321e-07
8.3877308e-07
8.4968164e-07
8.5520853e-07
8.659728e-07
8.7186451e-07
8.8384119e-07
8.9054744e-07
9.0650743e-07
8.5735302e-07
9.1812684e-07
9.0681695e-07
9.0978554e-07
9.1373665e-07
8.9389829e-07
8.5745926e-07
8.2812094e-07
8.1936805e-07
8.2722042e-07
8.3850692e-07
8.417322e-07
8.3227665e-07
8.126616e-07
7.8974165e-07
7.7109879e-07
7.6109413e-07
7.6158356e-07
7.7030541e-07
7.8416063e-07
7.9795319e-07
8.0920539e-07
8.1468696e-07
8.1339734e-07
8.0580487e-07
7.9349452e-07
7.7732376e-07
7.6059241e-07
7.4456093e-07
7.3111833e-07
7.2122632e-07
7.1517584e-07
7.1291803e-07
7.1503805e-07
7.1923345e-07
7.2488208e-07
7.2982988e-07
7.3689868e-07
7.4494076e-07
7.5456397e-07
7.6505663e-07
7.7448352e-07
7.8498376e-07
7.94145e-07
8.0549866e-07
8.1403203e-07
8.2541002e-07
8.3186977e-07
8.4204502e-07
8.4708811e-07
8.5739399e-07
8.6232355e-07
8.7256483e-07
8.7860721e-07
8.9177789e-07
8.5725524e-07
9.1835967e-07
9.0645834e-07
9.0917545e-07
9.1358637e-07
8.9453135e-07
8.5823919e-07
8.2837372e-07
8.1892311e-07
8.264827e-07
8.380951e-07
8.4206975e-07
8.3343719e-07
8.143275e-07
7.9140916e-07
7.7221474e-07
7.6140463e-07
7.6096552e-07
7.6903779e-07
7.8257128e-07
7.9654441e-07
8.0828042e-07
8.146281e-07
8.1434391e-07
8.0759391e-07
7.9601386e-07
7.8040597e-07
7.6373356e-07
7.4742556e-07
7.3359712e-07
7.2266082e-07
7.1605369e-07
7.1265534e-07
7.1353421e-07
7.1717113e-07
7.226311e-07
7.2718004e-07
7.337186e-07
7.4088395e-07
7.5009388e-07
7.5970354e-07
7.6940225e-07
7.7923074e-07
7.8838949e-07
7.9895022e-07
8.0735467e-07
8.1858226e-07
8.2543646e-07
8.355864e-07
8.4044675e-07
8.4977075e-07
8.5443316e-07
8.6375697e-07
8.6860503e-07
8.7996382e-07
8.5703366e-07
9.1811114e-07
9.0592548e-07
9.0859665e-07
9.134759e-07
8.9506639e-07
8.5896556e-07
8.286582e-07
8.185605e-07
8.25832e-07
8.3775474e-07
8.4246782e-07
8.3465948e-07
8.1606974e-07
7.9318802e-07
7.7347474e-07
7.6188634e-07
7.6051879e-07
7.6789586e-07
7.8107185e-07
7.9515518e-07
8.0730831e-07
8.1445809e-07
8.1514836e-07
8.0929246e-07
7.9846158e-07
7.8343041e-07
7.6696174e-07
7.5038722e-07
7.362064e-07
7.2445759e-07
7.1701159e-07
7.1276393e-07
7.1241287e-07
7.1524398e-07
7.2041773e-07
7.2493679e-07
7.3093366e-07
7.3705368e-07
7.4584944e-07
7.5514675e-07
7.6426295e-07
7.7401131e-07
7.8301271e-07
7.927059e-07
8.0128699e-07
8.116397e-07
8.1927604e-07
8.2898831e-07
8.3467781e-07
8.4312334e-07
8.4744726e-07
8.5598409e-07
8.6021886e-07
8.6958626e-07
8.5836265e-07
9.2977779e-07
9.1339251e-07
9.1335777e-07
9.1701927e-07
8.9793614e-07
8.6104883e-07
8.2969217e-07
8.1861932e-07
8.2540869e-07
8.3752184e-07
8.4290319e-07
8.3587382e-07
8.1780563e-07
7.9498192e-07
7.7476817e-07
7.6243057e-07
7.6013666e-07
7.6682158e-07
7.7960479e-07
7.9377637e-07
8.063173e-07
8.1420571e-07
8.158701e-07
8.1085202e-07
8.0077646e-07
7.863548e-07
7.7011708e-07
7.5348807e-07
7.388124e-07
7.2653315e-07
7.1807641e-07
7.1308253e-07
7.1169533e-07
7.1356708e-07
7.1828499e-07
7.2268086e-07
7.2845862e-07
7.3368271e-07
7.4167888e-07
7.5063077e-07
7.5977954e-07
7.6872369e-07
7.777739e-07
7.8716867e-07
7.9562846e-07
8.0512452e-07
8.1283428e-07
8.2285247e-07
8.2878652e-07
8.3739748e-07
8.4159474e-07
8.4938982e-07
8.5350058e-07
8.6150324e-07
8.5872925e-07
9.3291287e-07
9.1637384e-07
9.1618146e-07
9.1937014e-07
8.9992406e-07
8.6260581e-07
8.3049733e-07
8.1862895e-07
8.2501755e-07
8.3733602e-07
8.4340184e-07
8.3714843e-07
8.1965647e-07
7.9691949e-07
7.7624256e-07
7.6316825e-07
7.5998395e-07
7.659444e-07
7.7828274e-07
7.9245454e-07
8.0534333e-07
8.1389224e-07
8.1650574e-07
8.1232731e-07
8.0301183e-07
7.8926312e-07
7.733566e-07
7.5664995e-07
7.4174081e-07
7.2877262e-07
7.19573e-07
7.1362627e-07
7.1131952e-07
7.1225377e-07
7.1629823e-07
7.2050139e-07
7.2611688e-07
7.3084522e-07
7.3803766e-07
7.4625523e-07
7.5521126e-07
7.6421248e-07
7.7278969e-07
7.8168229e-07
7.9011279e-07
7.9929384e-07
8.0686541e-07
8.163459e-07
8.2280527e-07
8.3145151e-07
8.3607514e-07
8.4385921e-07
8.4739145e-07
8.5446081e-07
8.5987432e-07
9.4306142e-07
9.2451552e-07
9.2334071e-07
9.253254e-07
9.0436091e-07
8.6559377e-07
8.3212281e-07
8.1912536e-07
8.2491277e-07
8.3729572e-07
8.4394166e-07
8.3840318e-07
8.2145162e-07
7.987855e-07
7.7770444e-07
7.6391395e-07
7.598788e-07
7.6512588e-07
7.7699625e-07
7.911622e-07
8.0434386e-07
8.1351986e-07
8.1702141e-07
8.1365772e-07
8.0505662e-07
7.9200841e-07
7.7643903e-07
7.5971946e-07
7.4458516e-07
7.3114743e-07
7.2102956e-07
7.1445929e-07
7.1116846e-07
7.1113048e-07
7.1448269e-07
7.1845739e-07
7.2389714e-07
7.2821396e-07
7.3492793e-07
7.4213406e-07
7.5075348e-07
7.5949752e-07
7.6819426e-07
7.7670289e-07
7.8490549e-07
7.9363125e-07
8.0145763e-07
8.1011897e-07
8.171021e-07
8.2581085e-07
8.309078e-07
8.3831046e-07
8.4244907e-07
8.485971e-07
8.5977383e-07
9.441861e-07
9.2555252e-07
9.2484055e-07
9.2727653e-07
9.0643575e-07
8.6736442e-07
8.3318066e-07
8.1939573e-07
8.247347e-07
8.3723739e-07
8.4448798e-07
8.3969039e-07
8.2334025e-07
8.0080012e-07
7.793789e-07
7.6489524e-07
7.6004822e-07
7.6456091e-07
7.7592031e-07
7.9002083e-07
8.0343175e-07
8.1315205e-07
8.1747763e-07
8.1498233e-07
8.071237e-07
7.9475464e-07
7.7965782e-07
7.6303123e-07
7.4760935e-07
7.3381302e-07
7.2294202e-07
7.1547673e-07
7.1144259e-07
7.1034712e-07
7.1280912e-07
7.1651422e-07
7.2176371e-07
7.2578271e-07
7.319425e-07
7.3830529e-07
7.4659742e-07
7.5491994e-07
7.6346194e-07
7.7200217e-07
7.800368e-07
7.8830581e-07
7.958628e-07
8.044996e-07
8.1158158e-07
8.1999093e-07
8.2560191e-07
8.3298541e-07
8.3746519e-07
8.4371409e-07
8.5974014e-07
9.4520749e-07
9.2787403e-07
9.2809825e-07
9.3038076e-07
9.0898352e-07
8.6931754e-07
8.343993e-07
8.1986256e-07
8.2474835e-07
8.3731392e-07
8.4507181e-07
8.4092188e-07
8.2509674e-07
8.026874e-07
7.809211e-07
7.6579396e-07
7.6018507e-07
7.6396205e-07
7.7487293e-07
7.8888751e-07
8.0256041e-07
8.1277602e-07
8.1783055e-07
8.1614522e-07
8.0892987e-07
7.9718266e-07
7.8261192e-07
7.661462e-07
7.5053224e-07
7.3630037e-07
7.2499777e-07
7.1650194e-07
7.1190095e-07
7.099517e-07
7.1136185e-07
7.1464547e-07
7.1967893e-07
7.235096e-07
7.29265e-07
7.3472486e-07
7.426931e-07
7.5058793e-07
7.5900872e-07
7.6731451e-07
7.7542651e-07
7.8357209e-07
7.907913e-07
7.9886113e-07
8.0604154e-07
8.1453462e-07
8.2057093e-07
8.2805742e-07
8.3290196e-07
8.3880821e-07
8.5979575e-07
9.4701336e-07
9.2911811e-07
9.2897139e-07
9.3123251e-07
9.100587e-07
8.7047853e-07
8.3524836e-07
8.2019033e-07
8.2472746e-07
8.3738385e-07
8.4565386e-07
8.421882e-07
8.2695315e-07
8.0475808e-07
7.8271238e-07
7.669918e-07
7.6067459e-07
7.6371817e-07
7.7407659e-07
7.8796477e-07
8.0176065e-07
8.1242678e-07
8.181587e-07
8.173101e-07
8.1078352e-07
7.9968734e-07
7.8560999e-07
7.6942341e-07
7.5366767e-07
7.3914758e-07
7.2725023e-07
7.179755e-07
7.1251399e-07
7.0977594e-07
7.1016628e-07
7.1282487e-07
7.1750529e-07
7.2138516e-07
7.2672431e-07
7.3145619e-07
7.388671e-07
7.4634985e-07
7.5446051e-07
7.6273788e-07
7.7082804e-07
7.7866678e-07
7.8565308e-07
7.9383736e-07
8.0060442e-07
8.0926691e-07
8.1528162e-07
8.2259932e-07
8.2826316e-07
8.3401659e-07
8.5980871e-07
9.4756088e-07
9.3035662e-07
9.3061942e-07
9.328308e-07
9.1152599e-07
8.7175472e-07
8.3612525e-07
8.2059353e-07
8.2486197e-07
8.3761719e-07
8.4630295e-07
8.4337981e-07
8.2860541e-07
8.0654004e-07
7.8422516e-07
7.6792497e-07
7.6090247e-07
7.6325866e-07
7.7312159e-07
7.8692155e-07
8.0084347e-07
8.1197137e-07
8.1823439e-07
8.1812233e-07
8.1217801e-07
8.0162594e-07
7.8803226e-07
7.7215782e-07
7.5634643e-07
7.4158749e-07
7.2922694e-07
7.1929621e-07
7.1311849e-07
7.0953146e-07
7.0908416e-07
7.1102996e-07
7.1525423e-07
7.1918156e-07
7.2417383e-07
7.2848523e-07
7.3510976e-07
7.4208829e-07
7.4983928e-07
7.5829907e-07
7.661778e-07
7.7389018e-07
7.8040083e-07
7.8874e-07
7.9511933e-07
8.0377461e-07
8.0952296e-07
8.1744993e-07
8.2297168e-07
8.2914463e-07
8.5995833e-07
9.4986267e-07
9.316566e-07
9.3144273e-07
9.3362161e-07
9.1255736e-07
8.7292469e-07
8.3710606e-07
8.2121866e-07
8.252516e-07
8.3807156e-07
8.4711944e-07
8.447128e-07
8.3043946e-07
8.0854892e-07
7.859907e-07
7.6914121e-07
7.6142261e-07
7.6300805e-07
7.7227802e-07
7.8579e-07
7.9976073e-07
8.1120549e-07
8.1801729e-07
8.1860637e-07
8.1327003e-07
8.0325475e-07
7.901e-07
7.7455703e-07
7.5882669e-07
7.4391724e-07
7.3102797e-07
7.2035551e-07
7.1330003e-07
7.0901432e-07
7.0776369e-07
7.0898829e-07
7.1244977e-07
7.1645903e-07
7.2098713e-07
7.2517566e-07
7.3081059e-07
7.3751485e-07
7.4441506e-07
7.5296645e-07
7.6038745e-07
7.6837569e-07
7.7463629e-07
7.8286032e-07
7.8919587e-07
7.9721335e-07
8.028153e-07
8.1078553e-07
8.1585825e-07
8.2320207e-07
8.6004173e-07
9.5035574e-07
9.3235711e-07
9.3224596e-07
9.3440579e-07
9.1336972e-07
8.7370684e-07
8.3773688e-07
8.2171556e-07
8.2570902e-07
8.3866964e-07
8.4794201e-07
8.457931e-07
8.3175547e-07
8.0980267e-07
7.8684335e-07
7.6934615e-07
7.6078281e-07
7.6161591e-07
7.7031926e-07
7.8355096e-07
7.9779666e-07
8.0983813e-07
8.173041e-07
8.1848647e-07
8.1352361e-07
8.0375697e-07
7.9061e-07
7.7517735e-07
7.5928262e-07
7.4423245e-07
7.3091e-07
7.1970402e-07
7.1180749e-07
7.0689228e-07
7.0494776e-07
7.0563639e-07
7.0806652e-07
7.1232652e-07
7.1607295e-07
7.2051201e-07
7.2518563e-07
7.3200843e-07
7.3831184e-07
7.4711224e-07
7.538749e-07
7.61756e-07
7.6726459e-07
7.7520584e-07
7.8120833e-07
7.8881749e-07
7.9488898e-07
8.0192573e-07
8.0712421e-07
8.1363148e-07
8.6040293e-07
9.5313017e-07
9.3370298e-07
9.3291092e-07
9.3497072e-07
9.1418347e-07
8.7466336e-07
8.3852755e-07
8.2206086e-07
8.2560101e-07
8.3873112e-07
8.4856771e-07
8.4702319e-07
8.3312724e-07
8.1079262e-07
7.8698116e-07
7.6844161e-07
7.5909187e-07
7.5934941e-07
7.6775825e-07
7.8106612e-07
7.9615643e-07
8.1015585e-07
8.2110963e-07
8.2450628e-07
8.2071907e-07
8.1049465e-07
7.9551644e-07
7.7836185e-07
7.6081502e-07
7.4473827e-07
7.3001196e-07
7.1779989e-07
7.094018e-07
7.0417994e-07
7.0170369e-07
7.0207902e-07
7.0347416e-07
7.0800193e-07
7.1084828e-07
7.1489487e-07
7.1916037e-07
7.2672539e-07
7.3312455e-07
7.4193638e-07
7.4830756e-07
7.5593729e-07
7.6130606e-07
7.6866886e-07
7.7390107e-07
7.8040217e-07
7.8584811e-07
7.9161695e-07
7.9762579e-07
8.0113005e-07
8.6093053e-07
9.5464653e-07
9.3517902e-07
9.3404072e-07
9.3629276e-07
9.16048e-07
8.7591237e-07
8.3786052e-07
8.1977262e-07
8.2285387e-07
8.3819309e-07
8.5263078e-07
8.5633847e-07
8.4321528e-07
8.1908477e-07
7.9292961e-07
7.7212964e-07
7.6328416e-07
7.6836053e-07
7.8119749e-07
7.9718233e-07
8.2111849e-07
8.45697e-07
8.6480911e-07
8.7836867e-07
8.9112599e-07
8.9077053e-07
8.6631941e-07
8.3397087e-07
8.07607e-07
7.8255203e-07
7.6052682e-07
7.4619934e-07
7.3734641e-07
7.3213419e-07
7.319528e-07
7.332279e-07
7.3506494e-07
7.388639e-07
7.4214236e-07
7.4985305e-07
7.6232675e-07
7.737183e-07
7.8586823e-07
7.9786511e-07
8.063325e-07
8.1204553e-07
8.1739388e-07
8.2285479e-07
8.2641314e-07
8.304243e-07
8.3369743e-07
8.3655556e-07
8.3795605e-07
8.335031e-07
8.6736537e-07
9.6953875e-07
9.4990146e-07
9.5028268e-07
9.558103e-07
9.3786206e-07
8.9542441e-07
8.5208106e-07
8.3014726e-07
8.4494029e-07
8.7510637e-07
9.1653941e-07
9.5697991e-07
9.8214049e-07
9.6090339e-07
9.1640746e-07
9.0213648e-07
9.1047885e-07
9.2058111e-07
9.4107041e-07
1.0023836e-06
1.0872949e-06
1.1505189e-06
1.1953494e-06
1.2284857e-06
1.2449108e-06
1.2584857e-06
1.264998e-06
1.2214243e-06
1.1648477e-06
1.107062e-06
1.0424099e-06
1.0201468e-06
1.0177109e-06
1.0059647e-06
1.0026307e-06
1.0084754e-06
1.0313412e-06
1.0408353e-06
1.0565185e-06
1.0956335e-06
1.1288865e-06
1.1506836e-06
1.1828877e-06
1.2155999e-06
1.2378876e-06
1.2410247e-06
1.2438514e-06
1.2464023e-06
1.244485e-06
1.2401295e-06
1.2401197e-06
1.2398502e-06
1.2389196e-06
1.209495e-06
9.0578643e-07
9.7550242e-07
9.7310647e-07
9.7744118e-07
1.03654e-06
1.0854204e-06
1.0751892e-06
1.083349e-06
1.1166187e-06
1.1497114e-06
1.2703198e-06
1.4519123e-06
1.5529229e-06
1.5875337e-06
1.6216138e-06
1.6072753e-06
1.5771516e-06
1.5764468e-06
1.5930992e-06
1.6860769e-06
1.8195452e-06
1.9661434e-06
2.0633571e-06
2.1360242e-06
2.1881848e-06
2.2135156e-06
2.2327267e-06
2.229413e-06
2.1748085e-06
2.1311398e-06
2.0696099e-06
1.9521727e-06
1.9110211e-06
1.9237899e-06
1.9075258e-06
1.9183213e-06
1.9348548e-06
2.0252206e-06
2.0565014e-06
2.0865379e-06
2.1566973e-06
2.2472869e-06
2.2862778e-06
2.3476376e-06
2.4075289e-06
2.4349185e-06
2.477931e-06
2.485631e-06
2.4480572e-06
2.4588858e-06
2.4385533e-06
2.4289869e-06
2.4173683e-06
2.4585812e-06
2.4229901e-06
6.9911723e-07
9.4707969e-07
1.1059996e-06
1.2071645e-06
1.4610946e-06
1.776429e-06
1.8687277e-06
1.9294388e-06
2.0083624e-06
2.1632291e-06
2.4086656e-06
2.6173769e-06
2.7298006e-06
2.7747138e-06
2.7801062e-06
2.7814981e-06
2.7967485e-06
2.8134151e-06
2.8596941e-06
3.0231337e-06
3.116566e-06
3.2592249e-06
3.31315e-06
3.4166736e-06
3.4592867e-06
3.5183962e-06
3.5383694e-06
3.5106308e-06
3.4538601e-06
3.4572963e-06
3.424835e-06
3.2986231e-06
3.1539468e-06
3.3889989e-06
3.36065e-06
3.3287611e-06
3.161559e-06
3.5389543e-06
3.3395613e-06
3.6167943e-06
3.2419068e-06
3.7289416e-06
3.3786978e-06
3.9124607e-06
3.5715647e-06
3.7319035e-06
4.0509041e-06
3.5961507e-06
4.0642248e-06
3.6469602e-06
4.0409042e-06
3.6134534e-06
4.0110782e-06
3.5990838e-06
3.942282e-06
5.5069203e-07
1.1092012e-06
1.6593521e-06
1.706765e-06
1.8072294e-06
1.8784782e-06
1.8746646e-06
1.9036714e-06
1.9519158e-06
1.9364e-06
1.9635201e-06
2.0019094e-06
2.019013e-06
2.0313983e-06
2.0268114e-06
2.0031279e-06
1.9676363e-06
1.9313684e-06
1.9046339e-06
1.8992715e-06
1.9107803e-06
1.9395836e-06
1.9725888e-06
2.0118676e-06
2.0478486e-06
2.0867672e-06
2.119539e-06
2.1349935e-06
2.1462832e-06
2.1887201e-06
2.1360563e-06
2.0633127e-06
2.2103153e-06
2.1114903e-06
2.0347538e-06
2.1183106e-06
2.1968747e-06
1.9758768e-06
2.1231044e-06
1.9584997e-06
2.1366044e-06
1.9781258e-06
2.1473033e-06
2.0098533e-06
2.1245774e-06
2.1265481e-06
2.0179228e-06
2.2336001e-06
2.0695121e-06
2.2053602e-06
2.1037234e-06
2.2608098e-06
2.1522874e-06
2.287072e-06
2.1809058e-06
2.2991135e-06
3.706724e-06
2.4514131e-06
1.3004404e-06
8.2905085e-07
8.0981781e-07
8.1899345e-07
8.2830186e-07
8.3408418e-07
8.3890399e-07
8.4292754e-07
8.4754619e-07
8.5284257e-07
8.5862606e-07
8.6574737e-07
8.7462087e-07
8.8488193e-07
8.974697e-07
9.1296484e-07
9.3180149e-07
9.5720608e-07
9.9077697e-07
1.0365124e-06
1.0803821e-06
1.1034773e-06
1.1401348e-06
1.1878998e-06
2.177183e-06
3.8029059e-06
2.4304039e-06
1.251765e-06
7.9624873e-07
8.0073085e-07
8.2193307e-07
8.3178028e-07
8.3847658e-07
8.4296696e-07
8.4673076e-07
8.5137404e-07
8.5655525e-07
8.6300131e-07
8.7094515e-07
8.7994554e-07
8.9086224e-07
9.0336451e-07
9.1916292e-07
9.378612e-07
9.6112032e-07
9.9326697e-07
1.0378916e-06
1.0886e-06
1.1176759e-06
1.1547235e-06
1.1914996e-06
2.03929e-06
3.8546436e-06
2.4788752e-06
1.4416488e-06
8.0001847e-07
7.3566165e-07
8.2735969e-07
8.3702719e-07
8.4317696e-07
8.4815167e-07
8.5281463e-07
8.5753926e-07
8.6321213e-07
8.6939909e-07
8.7750408e-07
8.869147e-07
8.9776133e-07
9.1089583e-07
9.264836e-07
9.4567004e-07
9.6880101e-07
9.992045e-07
1.0407867e-06
1.0968931e-06
1.1317015e-06
1.1706405e-06
1.2039173e-06
1.7280644e-06
3.5992918e-06
2.8018603e-06
1.5823057e-06
7.8766039e-07
6.7933362e-07
8.3100406e-07
8.4281161e-07
8.4971246e-07
8.5527645e-07
8.6069815e-07
8.6564116e-07
8.7171063e-07
8.7846263e-07
8.8649446e-07
8.9607171e-07
9.0754364e-07
9.2046886e-07
9.3634332e-07
9.550402e-07
9.7791228e-07
1.0066963e-06
1.046206e-06
1.103745e-06
1.1433783e-06
1.1872005e-06
1.2145253e-06
1.6077472e-06
3.5118755e-06
2.8499602e-06
1.5224179e-06
7.9087999e-07
6.2455871e-07
7.6371422e-07
8.4464075e-07
8.5318833e-07
8.5884481e-07
8.644923e-07
8.6985282e-07
8.7608486e-07
8.831791e-07
8.9222425e-07
9.0255104e-07
9.1493622e-07
9.2856837e-07
9.4566506e-07
9.6423003e-07
9.8779905e-07
1.015037e-06
1.053081e-06
1.1098527e-06
1.1541052e-06
1.2004061e-06
1.2315128e-06
1.4445929e-06
3.5064649e-06
2.8621612e-06
1.7156675e-06
8.3723544e-07
5.9258462e-07
6.8686258e-07
8.4818241e-07
8.5857478e-07
8.6526125e-07
8.7188589e-07
8.7758214e-07
8.8461908e-07
8.9234948e-07
9.0174223e-07
9.1201534e-07
9.2394761e-07
9.3805028e-07
9.5452104e-07
9.7368336e-07
9.9736661e-07
1.0250251e-06
1.0571242e-06
1.1178077e-06
1.1622102e-06
1.2126731e-06
1.2471635e-06
1.2111637e-06
3.3854673e-06
3.0269054e-06
1.8091517e-06
8.4446001e-07
5.6959313e-07
6.0447315e-07
8.5202175e-07
8.6312902e-07
8.7043085e-07
8.7793771e-07
8.8439099e-07
8.91982e-07
9.0032003e-07
9.1028123e-07
9.2155597e-07
9.3428172e-07
9.4901789e-07
9.6526373e-07
9.8481355e-07
1.0074992e-06
1.0352579e-06
1.0640941e-06
1.1234646e-06
1.17256e-06
1.2265874e-06
1.2624947e-06
1.0325163e-06
3.0137259e-06
3.1262999e-06
1.746532e-06
8.5023637e-07
5.5758127e-07
5.3473557e-07
7.4206393e-07
8.7014333e-07
8.7907802e-07
8.8720925e-07
8.9309151e-07
9.0015477e-07
9.0830466e-07
9.1783522e-07
9.2901382e-07
9.41934e-07
9.5723083e-07
9.7453232e-07
9.946008e-07
1.0165559e-06
1.0445064e-06
1.0706493e-06
1.1263183e-06
1.1804392e-06
1.2410101e-06
1.279365e-06
9.4035512e-07
2.9114983e-06
3.0894926e-06
1.8591372e-06
8.9854733e-07
5.7187217e-07
5.251593e-07
6.4828574e-07
8.7376417e-07
8.8509864e-07
8.9411288e-07
9.0145384e-07
9.093444e-07
9.184468e-07
9.2850008e-07
9.4006349e-07
9.5344752e-07
9.6841209e-07
9.859788e-07
1.005379e-06
1.0273507e-06
1.0556006e-06
1.0795014e-06
1.1276463e-06
1.1848027e-06
1.2525315e-06
1.2953899e-06
7.4654249e-07
2.8943957e-06
3.2274771e-06
1.9424906e-06
9.3594424e-07
5.8122361e-07
5.2345634e-07
5.8527971e-07
8.730835e-07
8.8854519e-07
8.9865256e-07
9.0713302e-07
9.156982e-07
9.2556491e-07
9.3665984e-07
9.4941269e-07
9.6353496e-07
9.7947693e-07
9.9842136e-07
1.018749e-06
1.0410063e-06
1.0693796e-06
1.0915595e-06
1.1339052e-06
1.1879918e-06
1.2593824e-06
1.3106407e-06
5.6187686e-07
2.836019e-06
3.2563714e-06
2.055646e-06
9.4657807e-07
5.3577641e-07
4.8826474e-07
5.2502752e-07
7.2594251e-07
8.9649752e-07
9.0900406e-07
9.1943948e-07
9.287813e-07
9.3905519e-07
9.4999945e-07
9.6208207e-07
9.7607524e-07
9.9112725e-07
1.0090102e-06
1.0292506e-06
1.0517368e-06
1.0826352e-06
1.1047841e-06
1.1465116e-06
1.1942812e-06
1.270158e-06
1.3250604e-06
4.3817626e-07
2.5886491e-06
3.3044756e-06
2.155162e-06
1.0191841e-06
5.4280117e-07
4.6435939e-07
4.93533e-07
6.5158224e-07
9.0730217e-07
9.2334063e-07
9.3572273e-07
9.4575186e-07
9.5591061e-07
9.6709991e-07
9.7921522e-07
9.9308835e-07
1.0079069e-06
1.0242217e-06
1.0441346e-06
1.0631815e-06
1.0944006e-06
1.1160506e-06
1.1559458e-06
1.1990247e-06
1.2780454e-06
1.3376855e-06
3.4944223e-07
2.22134e-06
3.2167498e-06
2.2056794e-06
1.0934236e-06
5.7504547e-07
4.6931892e-07
4.851339e-07
6.0364546e-07
8.8638806e-07
9.2802204e-07
9.4197936e-07
9.5296316e-07
9.641618e-07
9.7644079e-07
9.8988344e-07
1.0048526e-06
1.0214002e-06
1.0389323e-06
1.0599276e-06
1.0777353e-06
1.10822e-06
1.1281408e-06
1.1645192e-06
1.2024731e-06
1.2776221e-06
1.3446135e-06
2.8816905e-07
2.0706605e-06
3.2560155e-06
2.3438206e-06
1.14229e-06
6.3696982e-07
4.5477126e-07
4.6190703e-07
5.6339437e-07
7.6620474e-07
9.3788407e-07
9.5137989e-07
9.6132079e-07
9.708009e-07
9.8232951e-07
9.9573876e-07
1.0106539e-06
1.0277544e-06
1.0457851e-06
1.0687681e-06
1.0898948e-06
1.1225024e-06
1.1437798e-06
1.1772696e-06
1.2113842e-06
1.2800528e-06
1.3464099e-06
2.5259522e-07
1.8989084e-06
3.1606935e-06
2.1733824e-06
1.3236122e-06
6.7973407e-07
4.6944187e-07
4.5672493e-07
5.3436414e-07
6.8871267e-07
9.4147379e-07
9.5867579e-07
9.7177115e-07
9.8323842e-07
9.9542644e-07
1.0084875e-06
1.0225557e-06
1.0393748e-06
1.0564573e-06
1.0799617e-06
1.1000773e-06
1.1353606e-06
1.1587623e-06
1.1928826e-06
1.2237601e-06
1.286787e-06
1.3484252e-06
2.3259821e-07
1.8659493e-06
2.6667235e-06
1.6393318e-06
1.3626681e-06
7.2961179e-07
5.2589693e-07
4.6882717e-07
5.2938039e-07
6.4912698e-07
9.0499469e-07
9.629343e-07
9.7806609e-07
9.9123046e-07
1.0043017e-06
1.018997e-06
1.0344042e-06
1.0523764e-06
1.0704825e-06
1.0933228e-06
1.1113484e-06
1.1445683e-06
1.168179e-06
1.2046013e-06
1.2314996e-06
1.2925694e-06
1.3516613e-06
8.4662303e-08
2.090612e-06
2.648219e-06
2.4809419e-06
1.6812607e-06
7.3473574e-07
4.9262018e-07
4.0177713e-07
4.4364383e-07
5.5780263e-07
7.6546201e-07
9.7386871e-07
9.8993549e-07
1.0028407e-06
1.0164603e-06
1.0313175e-06
1.0474492e-06
1.065579e-06
1.0838025e-06
1.1079134e-06
1.1250547e-06
1.1566568e-06
1.179754e-06
1.21493e-06
1.2360181e-06
1.2957578e-06
1.35191e-06
2.7943087e-07
1.0018187e-06
2.1632243e-06
2.2642817e-06
6.8283064e-07
4.2257372e-07
2.8623612e-07
2.8295932e-07
3.3009924e-07
4.3041566e-07
6.2341155e-07
9.2854222e-07
1.0224195e-06
1.0336791e-06
1.0462301e-06
1.0593252e-06
1.0734557e-06
1.0889028e-06
1.1041189e-06
1.1272125e-06
1.142591e-06
1.1731159e-06
1.1961375e-06
1.2304123e-06
1.2466119e-06
1.2994637e-06
1.3522251e-06
5.4344127e-07
1.0456542e-06
1.8459338e-06
1.4993337e-06
6.3250868e-07
3.889036e-07
2.4334677e-07
2.5908801e-07
3.2076038e-07
4.0246064e-07
5.8748733e-07
8.8179661e-07
1.0441572e-06
1.0612318e-06
1.0726861e-06
1.0846351e-06
1.0971958e-06
1.1117144e-06
1.1256051e-06
1.1468025e-06
1.1606499e-06
1.1892641e-06
1.2105111e-06
1.2464572e-06
1.2629812e-06
1.3073098e-06
1.3551254e-06
7.2081042e-07
1.1291067e-06
1.8684387e-06
1.4534753e-06
8.1616805e-07
4.7075257e-07
2.7972103e-07
2.7800252e-07
3.6020079e-07
4.5680063e-07
6.7272369e-07
9.4219848e-07
1.0439332e-06
1.0646637e-06
1.0775887e-06
1.091039e-06
1.1061256e-06
1.123352e-06
1.1390702e-06
1.1626469e-06
1.1768977e-06
1.2056379e-06
1.2232516e-06
1.2601916e-06
1.2784635e-06
1.3140555e-06
1.3567949e-06
8.6253345e-07
1.3236681e-06
2.2049809e-06
1.6626994e-06
1.3353448e-06
1.1262831e-06
9.3268463e-07
7.9540714e-07
5.2462477e-07
7.3877887e-07
8.1905025e-07
9.8867301e-07
1.0409218e-06
1.0643829e-06
1.0786036e-06
1.0934209e-06
1.1093904e-06
1.1289549e-06
1.1458571e-06
1.170832e-06
1.1858714e-06
1.2162907e-06
1.2351201e-06
1.2706104e-06
1.294156e-06
1.327912e-06
1.3641912e-06
1.0204793e-06
1.6504097e-06
2.4334237e-06
2.302678e-06
1.8674809e-06
1.02203e-06
9.4144492e-07
6.4580844e-07
5.6860041e-07
6.8053584e-07
6.5142367e-07
8.3638283e-07
1.0392751e-06
1.0668057e-06
1.0835286e-06
1.0992564e-06
1.1159386e-06
1.1353513e-06
1.1518386e-06
1.1779288e-06
1.1929857e-06
1.2260135e-06
1.2473509e-06
1.2817159e-06
1.3064343e-06
1.3424014e-06
1.3769064e-06
9.7622677e-07
1.5623805e-06
2.3753758e-06
2.2990085e-06
1.8324269e-06
9.3104118e-07
4.4249465e-07
4.8634863e-07
3.4153049e-07
5.131567e-07
5.0014902e-07
6.966393e-07
9.4276797e-07
1.0744769e-06
1.0975741e-06
1.1142822e-06
1.1311849e-06
1.1499854e-06
1.1659056e-06