/*--------------------------------*- C++ -*----------------------------------*\
| =========                 |                                                 |
| \\      /  F ield         | OpenFOAM: The Open Source CFD Toolbox           |
|  \\    /   O peration     | Version:  2406                                  |
|   \\  /    A nd           | Website:  www.openfoam.com                      |
|    \\/     M anipulation  |                                                 |
\*---------------------------------------------------------------------------*/
FoamFile
{
    version     2.0;
    format      ascii;
    arch        "LSB;label=32;scalar=64";
    class       volScalarField;
    location    "22";
    object      omega_0;
}
// * * * * * * * * * * * * * * * * * * * * * * * * * * * * * * * * * * * * * //

dimensions      [0 0 -1 0 0 0 0];

internalField   nonuniform List<scalar> 
62344
(
4.3589301
3.3319923
2.7389801
2.3255667
2.0208459
1.7942336
1.6250805
1.4927971
1.3892432
1.3014847
1.2239962
1.1550736
1.1063301
1.0618145
1.0130675
0.97860549
0.95960013
0.95101559
0.94061428
0.92791291
0.90049396
0.88409284
0.8835194
0.8807464
0.87495504
0.86939144
0.87277287
0.88137101
0.89662676
0.92273103
0.97705769
1.0735441
1.1735522
1.2531835
1.374823
1.4875419
1.7122282
1.8770666
2.1251495
2.3566063
2.6029923
2.8252904
3.0305985
3.2710222
3.5458761
3.8059677
3.9624027
4.054362
4.1632494
4.2924057
4.4362099
4.5905649
4.8186571
4.961428
5.2629137
4.364916
3.3389363
2.7454635
2.3354006
2.0283124
1.8011706
1.6301489
1.5004679
1.3901987
1.3055247
1.232225
1.1619538
1.1052731
1.061494
1.0168904
0.98173177
0.96149648
0.94691728
0.9375502
0.92822339
0.9045
0.88448855
0.87472636
0.87119744
0.86662449
0.85499999
0.85391894
0.85745627
0.86619382
0.87977723
0.91165315
0.9878914
1.0629813
1.1549427
1.2663494
1.3739884
1.5489081
1.7049481
1.9161768
2.0854582
2.3118151
2.5805015
2.875683
3.2356749
3.5601812
3.8081614
3.9818141
4.1316321
4.276161
4.386782
4.5263758
4.6352511
4.8597828
5.0289692
5.2734351
4.3710616
3.3453284
2.7525955
2.3430651
2.0357914
1.8063062
1.6359602
1.5004839
1.396051
1.3090404
1.2350037
1.1686442
1.118059
1.0714744
1.0191047
0.99164453
0.96771158
0.94766799
0.93730551
0.92837661
0.90806495
0.88608589
0.873517
0.86923375
0.86217364
0.85047869
0.84939959
0.85424677
0.86323054
0.8757085
0.90255128
0.96573563
1.0278598
1.1214014
1.2301006
1.3436476
1.4960762
1.6783473
1.8591278
1.9930867
2.1802751
2.4387409
2.7516579
3.1016578
3.4486067
3.7178552
3.9581187
4.1689117
4.3552912
4.4917669
4.6301323
4.7032553
4.8506481
4.9672142
5.157172
4.3770919
3.3534674
2.76114
2.3475258
2.0415324
1.8114356
1.6384417
1.505519
1.4042688
1.3161815
1.2411213
1.1704883
1.1170056
1.0708188
1.025442
0.9899886
0.96338632
0.95198575
0.94393327
0.93522337
0.91471605
0.89250254
0.88420892
0.87474878
0.85946809
0.84979228
0.84659986
0.85229408
0.8650951
0.87630272
0.89828237
0.94965816
1.0137267
1.1090952
1.2141708
1.3353178
1.4802961
1.6839487
1.8461891
1.9858853
2.1444704
2.3353395
2.6015362
2.9048741
3.1898076
3.4736259
3.7933764
4.0794023
4.3034803
4.4825915
4.6476349
4.8063542
4.9519817
5.0683993
5.2685472
4.3830773
3.3621056
2.7670593
2.3529795
2.0452142
1.8191227
1.645724
1.5144047
1.4014827
1.3182267
1.2474299
1.1752732
1.1174737
1.0733303
1.0313794
0.99232494
0.96313018
0.95078592
0.94530873
0.93682711
0.92344064
0.90427731
0.88896807
0.87238425
0.85890107
0.85223133
0.85156902
0.85821816
0.8692068
0.87765863
0.89175373
0.92434124
0.98289169
1.0682891
1.1600667
1.2715111
1.3948909
1.5897521
1.7727708
1.9516253
2.1222013
2.300707
2.5364368
2.7712601
3.0084367
3.3115162
3.6136515
3.8829615
4.1191958
4.340684
4.5578025
4.7838591
4.9627025
5.1587576
5.3148622
4.3885842
3.370016
2.7737405
2.3616859
2.0520544
1.825278
1.6557737
1.5145944
1.4097464
1.3223284
1.2499034
1.1837516
1.1285119
1.0820908
1.032989
1.0022611
0.97210994
0.95371528
0.94298121
0.9332723
0.92596104
0.9134548
0.89322629
0.87515512
0.86456176
0.85398261
0.85309224
0.85938652
0.86757783
0.87575961
0.89027178
0.91794303
0.96861596
1.0382489
1.1136642
1.2372864
1.3557134
1.5153099
1.6934688
1.8893649
2.0818569
2.2845398
2.5134253
2.7122275
2.9129031
3.1650088
3.4225123
3.6678128
3.8862185
4.0970464
4.3089203
4.5461929
4.772875
4.9856641
5.144408
4.3935435
3.3745495
2.7796637
2.3667348
2.0579856
1.8297418
1.6550131
1.516774
1.4177727
1.3276483
1.2540246
1.1861641
1.1279036
1.0847761
1.0391222
1.0046072
0.97300218
0.95581756
0.94226387
0.93537244
0.92989336
0.91682348
0.89768647
0.87925522
0.86500613
0.85241793
0.84959859
0.85259602
0.86189107
0.87390593
0.89065663
0.91129661
0.94580084
1.0097255
1.0750718
1.1935272
1.3066216
1.4569194
1.6333298
1.8427015
2.0554564
2.2839564
2.5167868
2.7136809
2.9106111
3.1166157
3.3224649
3.5379673
3.7667356
3.984739
4.1963103
4.3865321
4.5594683
4.6835713
4.8137083
4.3984406
3.3788891
2.784835
2.3717998
2.0652071
1.8357548
1.6576476
1.5267389
1.4169193
1.3303014
1.2623991
1.1910661
1.1263254
1.0872782
1.0495444
1.0083475
0.9720818
0.95425107
0.94527656
0.93856062
0.93443389
0.92207536
0.90091471
0.87901871
0.86228148
0.85501852
0.85259336
0.85235899
0.85975221
0.87537091
0.89099345
0.90810423
0.93151593
0.99353206
1.0619383
1.1658264
1.2759337
1.4199774
1.5948789
1.7938982
2.0083996
2.2524061
2.4894257
2.6883117
2.8715308
3.0520542
3.2518177
3.4637396
3.6937518
3.9288922
4.1515289
4.3470946
4.481797
4.6001013
4.70659
4.4026628
3.3833917
2.78983
2.3789941
2.0719142
1.8398506
1.6669539
1.5308245
1.4177973
1.3345605
1.266595
1.1971876
1.1360652
1.0909681
1.0503405
1.0132129
0.97759218
0.95407688
0.94685935
0.94039335
0.93419512
0.92422303
0.908101
0.8855062
0.87325634
0.86633662
0.85940238
0.85822267
0.86187818
0.87321646
0.88739146
0.90861403
0.92859883
0.97717667
1.0441019
1.148279
1.2588549
1.3964372
1.5700641
1.7561914
1.9635582
2.203491
2.4335143
2.6317354
2.8053663
2.9844478
3.1871105
3.410377
3.6501009
3.8994457
4.1334321
4.341057
4.4859571
4.6415184
4.748657
4.4068478
3.3887522
2.7958913
2.3863753
2.0759778
1.842977
1.6714356
1.529278
1.4245559
1.339165
1.2658967
1.1991303
1.1425277
1.0910108
1.0486051
1.020436
0.98507354
0.95652694
0.9461033
0.94195879
0.93422921
0.92484251
0.9126598
0.89833646
0.88830625
0.87292666
0.85766276
0.85730473
0.8608498
0.86871447
0.88398952
0.90896442
0.93174375
0.97012116
1.0227902
1.122761
1.2412991
1.3744326
1.5371718
1.7089036
1.9000672
2.1191868
2.3408249
2.5450525
2.7303439
2.9087232
3.1050356
3.3301852
3.5803162
3.839782
4.0812979
4.2986695
4.4774525
4.675416
4.8111401
4.4108805
3.3944846
2.8018922
2.3911685
2.0792613
1.847451
1.6718014
1.533251
1.4320333
1.3420246
1.2666322
1.2016144
1.1422013
1.0895645
1.0511181
1.0245856
0.98599824
0.95799074
0.94609194
0.93977957
0.93625737
0.93012789
0.91438935
0.90098162
0.89116291
0.87076039
0.85257787
0.84927256
0.85090552
0.86241275
0.88598355
0.90751199
0.93211867
0.96864746
1.0153251
1.1048445
1.2223799
1.3448598
1.490733
1.6610255
1.8443236
2.0393342
2.2393864
2.4511253
2.6629424
2.8502533
3.0295695
3.2341509
3.4747829
3.7260832
3.9656642
4.192885
4.3947036
4.6118827
4.7731542
4.4146927
3.4005869
2.8077935
2.3952702
2.0842905
1.8552697
1.6778727
1.5431986
1.4350328
1.346008
1.2731194
1.2084768
1.1436351
1.0916676
1.057698
1.0252567
0.98385691
0.95898229
0.94695439
0.93689526
0.93521446
0.93266324
0.9185187
0.89817956
0.88257434
0.86380937
0.85314628
0.84786261
0.84675588
0.85720072
0.8863157
0.90592784
0.92523084
0.96100567
1.0156032
1.0988042
1.2108585
1.3115154
1.4379873
1.6013528
1.7888127
1.9736046
2.1618814
2.3702811
2.5933102
2.7930794
2.9672652
3.1516387
3.3634235
3.5871354
3.8184035
4.0500638
4.2601866
4.4764055
4.6499881
4.4182262
3.4066584
2.8136462
2.4006921
2.0906244
1.8620903
1.6867211
1.5497258
1.4343921
1.3498256
1.2831962
1.2146779
1.1501149
1.0997513
1.0659224
1.0302305
0.98824053
0.95996778
0.94934194
0.93926206
0.93417851
0.93123862
0.92215491
0.90186487
0.88000818
0.86318705
0.85946713
0.85526199
0.85035157
0.85690259
0.88297457
0.90556629
0.92282308
0.95435732
1.0111113
1.0961386
1.2032849
1.2936084
1.4088781
1.568583
1.7519921
1.935265
2.1301448
2.3445373
2.5648546
2.7637583
2.9437286
3.1249465
3.3216262
3.5203976
3.7292936
3.9441238
4.1423896
4.3293525
4.4843554
4.4212413
3.4117881
2.8188068
2.406595
2.0961678
1.8659297
1.6897796
1.5505839
1.4364986
1.351808
1.2863141
1.2165377
1.1547764
1.1044306
1.0686536
1.0348156
0.99860133
0.96360472
0.9504334
0.94281848
0.93340024
0.9276374
0.92371669
0.91296304
0.88958584
0.87290522
0.864394
0.85977601
0.85685492
0.86243834
0.88032692
0.90356914
0.92538344
0.95563122
1.0079796
1.0865418
1.1903668
1.2845378
1.4032058
1.5632347
1.7410986
1.9174647
2.1167092
2.3458571
2.569252
2.7681788
2.9526138
3.1386218
3.3355497
3.5256853
3.7158112
3.9099912
4.0924733
4.2533513
4.3806135
4.4247003
3.4164608
2.8232677
2.4120704
2.100376
1.8679267
1.6885392
1.5494748
1.4423429
1.3541243
1.2829904
1.216612
1.1556995
1.1030861
1.0647554
1.0335224
1.0010533
0.96601542
0.94874223
0.9426354
0.93325885
0.92614378
0.92349106
0.91538939
0.89902143
0.88430023
0.86882605
0.86121165
0.86038439
0.86838682
0.88099912
0.89921334
0.93322738
0.9671829
1.0118812
1.0833782
1.1848045
1.2829457
1.4047445
1.5699456
1.7546303
1.9309968
2.1228458
2.3652995
2.6018155
2.8141547
3.0094569
3.2010536
3.3956263
3.5852343
3.7662614
3.9383832
4.0961947
4.2368756
4.3459773
4.4279059
3.4209063
2.8275779
2.4170334
2.1042422
1.8712028
1.6894426
1.5506905
1.4481809
1.3577969
1.2794504
1.2177594
1.1556822
1.1003544
1.0599138
1.0276254
0.99587401
0.9666659
0.94801913
0.94016626
0.93507411
0.92915438
0.92353602
0.91251271
0.90114191
0.89033536
0.87525061
0.86637847
0.86491037
0.87188279
0.88526349
0.90258897
0.93970624
0.98091913
1.0279359
1.0981549
1.1911786
1.2941377
1.4188941
1.5750785
1.7716295
1.9681376
2.1542016
2.3949622
2.6404728
2.8746926
3.1013197
3.3142767
3.5096157
3.6987449
3.8764758
4.0269881
4.1508926
4.2758252
4.3650376
4.4307409
3.4257547
2.8326022
2.4229311
2.1091133
1.8781932
1.6962907
1.5567978
1.4512674
1.3628968
1.2819421
1.2232197
1.1604521
1.1024274
1.0633869
1.02871
0.99428614
0.96872738
0.95275233
0.94184421
0.93875966
0.93807906
0.93261042
0.91844522
0.9074651
0.89684144
0.88879245
0.88457051
0.88136417
0.88332212
0.89828826
0.92032266
0.954778
0.99942354
1.0561854
1.1404733
1.2297729
1.3335644
1.4586984
1.5948131
1.7820794
2.0109321
2.1986275
2.4219222
2.6763961
2.9310674
3.1818356
3.4250043
3.6330744
3.8246212
3.9937837
4.1470573
4.2558987
4.3757049
4.4394666
4.4333088
3.4302032
2.8379956
2.4290597
2.1149036
1.8867224
1.7063877
1.5658894
1.4543734
1.3695524
1.2922068
1.234377
1.1728111
1.1117408
1.0787746
1.0434695
1.0060503
0.97795674
0.96602364
0.95471536
0.95159609
0.95418599
0.95326673
0.94468024
0.93156766
0.91623591
0.91402444
0.91649207
0.91272677
0.91012037
0.92386726
0.95562326
0.98306722
1.0290657
1.0906276
1.1936385
1.2965465
1.3966054
1.5171671
1.6458307
1.800441
2.0294975
2.2375877
2.4487042
2.7007724
2.9676417
3.2337843
3.5104716
3.7554011
3.9675031
4.1338018
4.2971421
4.4028545
4.5305668
4.5690409
4.4360048
3.4345925
2.844014
2.4350677
2.121482
1.8945711
1.713848
1.5745543
1.4606711
1.3769731
1.307071
1.2494244
1.188173
1.1283059
1.1035555
1.0696123
1.0326894
0.99930448
0.98922582
0.98051659
0.97646184
0.98066867
0.98372202
0.98393581
0.97583493
0.95744626
0.95603232
0.96228661
0.96195065
0.95922653
0.97245215
1.0096063
1.0393892
1.0847283
1.1473893
1.2541395
1.3685346
1.4780933
1.5780259
1.7238068
1.8545779
2.0563685
2.2817356
2.4929402
2.724438
3.0025368
3.2674233
3.5734901
3.8483118
4.1158692
4.3091502
4.5007176
4.613694
4.7808785
4.8114783
4.437606
3.4379143
2.8493155
2.440666
2.1285938
1.9013535
1.7202441
1.5833282
1.4732956
1.389177
1.3235188
1.2678788
1.2067993
1.1514445
1.1319884
1.1009281
1.0671343
1.0341265
1.0240032
1.019542
1.0167356
1.0223057
1.0318701
1.0383405
1.0351988
1.0237853
1.0231987
1.02957
1.0349905
1.0385378
1.0542627
1.0899253
1.1294784
1.1778597
1.2394927
1.3456979
1.4629661
1.5815846
1.6846928
1.8341973
1.9705869
2.1386663
2.3526142
2.5751455
2.7881955
3.0600166
3.3042104
3.6085202
3.8920612
4.2062863
4.4357997
4.6737069
4.8075513
5.0355081
5.1162494
4.4426513
3.44431
2.8576178
2.4515823
2.1429069
1.9159561
1.7365886
1.6036242
1.5006494
1.4159027
1.3520391
1.2975824
1.2411466
1.1915035
1.1735445
1.1450084
1.1156975
1.0943998
1.0908986
1.0921377
1.0958733
1.1098911
1.1322497
1.1482218
1.1521806
1.1514824
1.1546162
1.1659934
1.1785102
1.1983325
1.2227716
1.2631107
1.3064315
1.358454
1.4258955
1.5293164
1.6534626
1.7898016
1.9004303
2.0567065
2.2287994
2.3729471
2.5475863
2.7672793
2.9680289
3.2097329
3.4169386
3.6939215
3.9559547
4.2643448
4.4998511
4.7534763
4.9374758
5.1692738
5.3060928
4.4507102
3.4600509
2.8804463
2.4840387
2.1817714
1.9575774
1.7815185
1.6521807
1.5535153
1.4714628
1.4111845
1.3621066
1.318375
1.284856
1.2785073
1.2614387
1.2455464
1.2484929
1.2577857
1.2854484
1.3018694
1.3359294
1.381167
1.4189689
1.4486336
1.4712347
1.5000079
1.5523673
1.5816447
1.635718
1.6823324
1.7570154
1.8158752
1.8635768
1.9327976
2.0294755
2.1642319
2.3148117
2.4471759
2.5911813
2.7850413
2.9215048
3.0562832
3.2413634
3.4304842
3.6143388
3.7831383
3.9957602
4.1980086
4.443742
4.6582271
4.8873904
5.0831627
5.2934505
5.4289339
4.4992885
3.5216387
2.9502443
2.5639029
2.2654857
2.0611753
1.9040735
1.7952725
1.7153734
1.6590036
1.6241891
1.6077041
1.6055447
1.61647
1.6581949
1.686017
1.713753
1.7610238
1.8279676
1.9118136
1.9505764
2.018412
2.1075746
2.1877121
2.2557367
2.3238337
2.4083734
2.5158631
2.5729564
2.6685983
2.7563
2.8822688
2.9880758
3.0326012
3.0788079
3.1808065
3.3353142
3.4811441
3.6348816
3.7717842
3.9589363
4.1177744
4.2382475
4.3436079
4.508381
4.6110563
4.7588263
4.881367
5.0191166
5.126839
5.2679537
5.3879148
5.5504362
5.7341285
5.801409
4.5969613
3.6390304
3.1062364
2.793915
2.5786841
2.4848086
2.4248479
2.4213325
2.4357819
2.4717001
2.5260984
2.6095635
2.6893548
2.7849574
2.9344843
3.0256059
3.1233002
3.2455129
3.3899547
3.5472221
3.6139334
3.7126063
3.8593842
4.0022883
4.1066183
4.2178893
4.3617935
4.5280025
4.6178075
4.7115756
4.8404885
4.9907724
5.1427551
5.2026744
5.2245406
5.3002163
5.4392098
5.6036793
5.7427714
5.8586592
6.0093879
6.2180686
6.4307808
6.5255528
6.6763529
6.7307912
6.8280304
6.9001272
6.9402322
6.9424164
6.9713952
6.9620627
7.0104993
7.1008289
7.0558186
4.7818161
4.4461527
4.3152731
4.320023
4.4193032
4.6364601
4.7944672
4.9949492
5.1702866
5.3501667
5.5210124
5.727591
5.8693759
6.020065
6.2684648
6.4101719
6.57638
6.7489431
6.9577282
7.200795
7.2885415
7.4069499
7.6130715
7.8571212
8.026235
8.1834864
8.3872699
8.6594259
8.8222802
8.8771882
9.0085428
9.1596338
9.3077071
9.3877162
9.4241625
9.4729394
9.5251802
9.6452308
9.7795802
9.9133194
9.9696112
10.078269
10.19135
10.268084
10.400724
10.439816
10.535059
10.644523
10.671462
10.674863
10.654342
10.53733
10.466588
10.433765
10.269447
9.3720704
12.286253
12.845813
12.944835
13.182327
13.609611
13.718481
13.908344
13.949454
14.111831
14.409348
14.667742
14.707872
14.770061
15.098205
15.326806
15.520769
15.76951
15.930905
16.26008
16.263344
16.312375
16.51493
16.913511
17.363652
17.57876
17.569112
17.592977
17.858108
17.974207
18.017925
18.258188
18.548029
18.434156
18.365679
18.536311
18.633777
18.708468
18.972669
19.333133
19.354541
19.422057
19.513507
19.60209
19.773494
19.662679
19.604446
19.646506
19.734519
19.799834
19.782705
19.608999
19.470111
19.339735
18.896833
55.498481
56.229232
55.994066
55.765204
55.786797
55.634959
55.474129
55.228316
55.115028
55.057007
54.964583
55.091587
54.854694
54.934071
55.064299
55.023962
55.568127
55.794552
55.58855
55.582997
55.572739
55.479232
55.513375
55.569662
55.719723
55.826523
55.559764
55.477401
55.468383
55.195657
55.12433
55.365871
55.910393
56.094676
55.739187
55.14652
54.802479
55.024332
55.294224
55.122275
54.765557
54.401935
54.447638
55.032228
55.715636
56.125799
56.075526
55.598093
54.809181
53.922685
53.295397
53.137183
53.430916
53.930858
54.347057
56.180939
19.439402
10.30434
7.171939
5.9650248
5.6168915
5.5073298
5.2694396
4.9387982
4.7247416
4.5986154
4.5008395
4.4615462
4.4897015
4.5984416
4.7806143
4.9121815
4.9487179
4.8944339
4.8057787
4.8658809
5.1448097
5.353817
5.4044198
5.4033435
5.5634417
5.7636863
59.467173
20.614266
10.566372
7.3600523
6.1746334
5.8549102
5.7643768
5.523582
5.2305149
5.0133083
4.8343559
4.6865339
4.6198605
4.6399391
4.7501494
4.9203186
5.0517883
5.101503
5.0577994
4.9376033
4.9432888
5.149938
5.4099723
5.5267562
5.4916183
5.6130026
5.9603923
62.753566
21.118282
10.781601
7.6195277
6.4223237
6.1409733
6.0877333
5.9112034
5.6289457
5.3433718
5.0859349
4.9112803
4.84261
4.8661444
4.9830916
5.1370591
5.2500151
5.2868677
5.2341938
5.0988359
5.0822301
5.2673557
5.5555399
5.5961808
5.4888389
5.6856526
6.1830058
66.021348
21.543367
11.014063
7.8394998
6.6954094
6.5037953
6.5026727
6.3432446
5.9850373
5.6190286
5.321488
5.145813
5.089702
5.1347512
5.275283
5.4367465
5.5473015
5.5655626
5.4796098
5.2929959
5.2389713
5.4244318
5.7313874
5.7294118
5.5549035
5.7231345
6.3093008
69.483412
22.419657
11.373025
8.1737242
7.0755452
6.9207129
6.9235195
6.7157562
6.2836593
5.8746529
5.553798
5.3709237
5.3168207
5.3674502
5.5229338
5.7146178
5.8572337
5.8951572
5.7990412
5.5650587
5.4536909
5.5905117
5.8473037
5.8627911
5.7019319
5.7793381
6.3777112
73.369981
23.453898
11.848986
8.4711942
7.4634766
7.3693143
7.3335927
7.0427274
6.5705748
6.1523344
5.8176816
5.6079633
5.5337294
5.5668604
5.7094168
5.9230754
6.0968537
6.1715852
6.1106107
5.8812698
5.7152508
5.7673288
5.9460064
6.0080885
5.8598815
5.864199
6.4915103
77.622047
23.972457
12.083479
8.7284113
7.8009528
7.7764562
7.6882158
7.3069826
6.8449937
6.4320154
6.0886749
5.8485498
5.7488438
5.7695753
5.9079146
6.1279165
6.3066438
6.3952652
6.3667201
6.1585707
5.9492278
5.9548553
6.1056952
6.1993635
6.0240779
5.98747
6.647405
82.148837
24.070705
12.190624
8.9920414
8.1734255
8.0935969
7.963676
7.5982141
7.195211
6.789719
6.4076871
6.0980939
5.9627869
5.979545
6.133197
6.3664133
6.5506787
6.6454225
6.6146
6.3772623
6.1206182
6.1100597
6.2761378
6.412148
6.2395951
6.1718071
6.8107809
86.954269
24.637039
12.341108
9.2008716
8.4944511
8.4294509
8.3409163
8.0519897
7.6872004
7.2667577
6.779646
6.3780555
6.2077187
6.219294
6.3865951
6.6288087
6.8194687
6.9126295
6.8536409
6.5813694
6.288342
6.2261075
6.3807392
6.5562704
6.5018938
6.4417154
6.9551009
92.145627
25.139794
12.585295
9.435815
8.8266526
8.8252997
8.8093661
8.6229803
8.2802661
7.7683958
7.1465131
6.6673922
6.4743961
6.4810201
6.653388
6.9023064
7.0984705
7.1791048
7.0921594
6.8127665
6.5103816
6.3833846
6.4723928
6.666073
6.7396244
6.7088794
7.1291391
98.208607
25.764773
12.971153
9.749689
9.2111916
9.3255154
9.3555315
9.1871883
8.7997715
8.180064
7.4592054
6.924018
6.7129368
6.7178307
6.8967029
7.1714674
7.393814
7.4825256
7.4040855
7.1343472
6.7998549
6.6226081
6.6866472
6.8724285
6.9641436
6.8768059
7.3008005
104.95309
26.062106
13.028876
9.9572562
9.637462
9.8279278
9.8549677
9.674564
9.2350969
8.5578707
7.822478
7.2158669
6.9384829
6.9215372
7.095881
7.392144
7.6660344
7.8118489
7.7953359
7.5603073
7.1685017
6.9354521
6.9973926
7.2084798
7.2314679
6.9996199
7.4192716
111.97464
26.095175
13.020413
10.084084
9.8521353
10.114634
10.2045
10.05213
9.6851425
9.1275867
8.4463265
7.7204772
7.2554324
7.147867
7.2788062
7.5752081
7.8991053
8.1029965
8.1475011
7.9849126
7.5906721
7.31507
7.3585392
7.5375635
7.5028754
7.1556867
7.4779586
119.06425
27.462085
13.488425
10.315204
9.9236096
10.095692
10.23618
10.1972
10.01072
9.6850258
9.2388447
8.5471223
7.786429
7.4804551
7.5415864
7.8083444
8.136602
8.3543457
8.4192118
8.3101195
7.9994785
7.7413285
7.7410545
7.8227467
7.7437631
7.3482664
7.5374869
126.55489
30.535361
14.146892
10.55929
9.9533938
10.023702
10.203657
10.225453
10.155469
10.009557
9.8132897
9.3913004
8.5207514
7.92702
7.8915998
8.0922069
8.405086
8.6010599
8.6540801
8.586484
8.3810772
8.1694838
8.0922181
8.0898035
8.0087877
7.5854261
7.6488281
134.21847
34.071042
14.934561
10.843627
10.004404
9.9804166
10.088395
10.210739
10.275774
10.259844
10.187245
9.9426889
9.1713827
8.39103
8.2616195
8.3979257
8.6890111
8.8688233
8.9134977
8.8773819
8.7503363
8.5647957
8.40303
8.3203715
8.2841621
7.8812503
7.8234132
142.29992
38.007783
16.731528
11.602842
10.201701
10.083795
10.162554
10.336022
10.538263
10.548641
10.476993
10.292896
9.5804565
8.7914805
8.6085785
8.7012838
8.9287008
9.1265966
9.2108357
9.215885
9.1239214
8.9183718
8.6806569
8.5198107
8.5051647
8.2129955
8.0477062
150.12875
42.200639
19.389288
12.736511
10.594565
10.2926
10.384835
10.639672
10.743232
10.737642
10.800102
10.548239
9.7137842
9.0786965
8.8818725
8.937263
9.093477
9.3280727
9.5197238
9.5993798
9.5242305
9.2555814
8.9523541
8.7364131
8.6936246
8.5215464
8.339522
156.19541
44.410891
20.676115
13.512275
11.197481
10.761994
10.705875
10.778798
10.903899
11.121115
11.05434
10.471971
9.7098799
9.2783933
9.1033957
9.139682
9.278394
9.5526154
9.8479388
9.9703031
9.8742363
9.6119066
9.3192764
9.047562
8.9180546
8.8466387
8.6901955
160.72221
44.370451
21.324507
14.866522
12.257688
11.23644
11.008471
11.14253
11.495525
11.563736
11.06019
10.337122
9.7809508
9.4478819
9.328967
9.4155584
9.6535686
9.987197
10.228773
10.233308
10.118276
9.965019
9.7341449
9.436584
9.2610221
9.2395919
9.1453988
168.45785
45.880862
23.157045
15.910629
12.832441
11.986411
12.068098
12.41183
12.412006
11.797155
11.050082
10.399718
9.903016
9.6138895
9.6270217
9.8719171
10.264634
10.531785
10.51472
10.383808
10.297923
10.207884
10.010293
9.7988149
9.724828
9.7608024
9.7523487
179.05972
48.46712
24.405486
16.719642
14.149246
13.858388
13.892017
13.485855
12.671805
11.834711
11.063173
10.458539
10.065924
9.9690777
10.177497
10.516276
10.779355
10.790129
10.669699
10.537221
10.408453
10.316311
10.204246
10.212528
10.300756
10.440556
10.447223
191.94241
53.144709
26.04574
18.642467
16.845456
16.075832
14.877476
13.625713
12.47708
11.506609
10.832026
10.476379
10.414304
10.575897
10.812378
10.990272
10.998954
10.95727
10.872307
10.709616
10.469352
10.362877
10.428845
10.720495
11.002731
11.161846
11.09157
203.80023
58.570066
29.701783
22.797883
20.299577
17.529276
15.132732
13.234608
11.892021
11.072264
10.70175
10.695545
10.843263
11.018248
11.198736
11.309198
11.314319
11.250299
11.09025
10.801785
10.532988
10.525512
10.810223
11.349478
11.671877
11.6965
11.550602
213.60813
65.528146
36.889003
28.652049
22.399222
17.837971
14.704238
12.681714
11.475625
10.857835
10.675111
10.760638
10.944542
11.156824
11.416885
11.574586
11.573031
11.434178
11.179077
10.817019
10.647922
10.782381
11.311502
11.897906
12.103662
11.931457
11.780487
219.59846
75.040364
44.357202
30.981467
22.277206
17.011053
13.875746
12.040498
11.027593
10.56287
10.470492
10.605682
10.885815
11.189048
11.437101
11.547755
11.509602
11.352676
11.095813
10.86256
10.841995
11.130105
11.747823
12.215932
12.22783
11.940632
11.780252
222.16425
82.670104
46.715973
29.730158
20.47519
15.5612
12.875685
11.389326
10.632103
10.343797
10.356152
10.545636
10.853474
11.124434
11.301729
11.365947
11.331636
11.210538
11.043338
10.962539
11.054494
11.412319
12.000295
12.397807
12.375978
11.953945
11.690436
220.44902
83.114579
43.649323
26.28373
18.320872
14.393505
12.29272
11.152592
10.586272
10.393179
10.432896
10.61544
10.875144
11.094179
11.236449
11.304833
11.315848
11.266549
11.156014
11.071536
11.124238
11.486658
12.202152
12.689685
12.667882
12.050488
11.585029
213.59694
81.628911
39.234181
23.828268
17.267762
14.043829
12.30003
11.3413
10.876904
10.73992
10.792617
10.956118
11.16365
11.339726
11.467386
11.555273
11.579761
11.500049
11.29139
11.101195
11.122945
11.593136
12.495558
13.104445
13.094552
12.268552
11.642652
199.62421
78.870388
36.797436
22.911728
17.144546
14.285098
12.768294
11.986073
11.649889
11.592239
11.68823
11.853677
12.006657
12.099179
12.141065
12.160544
12.115868
11.920199
11.577127
11.338194
11.377806
11.959999
12.954364
13.554916
13.609144
12.719416
11.939972
176.71521
69.880584
33.746755
22.204272
17.330619
14.93945
13.723318
13.170772
13.022745
13.122773
13.369433
13.616869
13.708475
13.610813
13.416353
13.245442
13.099663
12.865238
12.482618
12.156588
12.178208
12.697342
13.542128
14.066264
14.244591
13.554468
12.806581
156.51734
61.165314
31.950215
22.259362
18.093683
16.074588
15.156473
14.870236
14.942522
15.401092
16.028114
16.323617
16.283085
15.784577
15.144512
14.770852
14.638336
14.530242
14.231638
13.779947
13.53211
13.703084
14.194702
14.713146
15.169963
14.986843
14.585024
146.16275
57.381265
32.168337
23.363237
19.5353
17.804945
17.196586
17.096975
17.737307
18.934877
19.803664
20.029294
19.486299
18.174669
17.018666
16.556258
16.644324
16.850481
16.734092
16.116904
15.256241
14.883739
15.046323
15.630267
16.551973
17.430169
17.254647
141.53769
57.217399
33.954445
25.201621
21.449618
20.018207
19.690142
20.26216
21.858687
23.657444
24.251269
24.280512
22.729425
20.52741
19.051574
18.666283
19.133257
19.952623
20.059227
19.162435
17.359349
16.374677
16.328259
17.040678
18.787017
20.575048
20.308826
137.93239
58.700426
36.249998
27.378066
23.823658
22.74077
22.716151
24.313759
26.954724
29.00626
29.523066
28.828331
26.164214
23.378192
21.650583
21.395744
22.231235
23.687934
24.190345
23.006679
20.206745
18.669404
18.397352
19.292012
21.604053
23.645759
23.604514
131.84782
61.196671
39.456262
30.362578
26.745919
25.809883
26.092742
28.564245
32.15451
34.412513
34.981437
33.939258
30.791705
27.289773
25.117855
24.826926
25.948965
28.315059
29.5402
28.32421
24.166621
21.575911
20.835881
21.410942
24.139302
26.305255
27.092485
122.60134
66.792611
45.845645
35.707146
31.248332
29.970473
30.011002
32.283727
36.237046
39.143444
40.035933
39.338734
36.779224
32.744708
29.97586
28.992692
29.529605
31.781934
34.214232
34.004795
29.875457
25.025764
23.403188
23.444596
24.830501
26.95531
28.318255
107.89027
70.349155
52.383576
43.125361
37.767369
35.53692
35.033967
35.745788
38.100366
40.687249
42.226112
42.69644
41.840857
39.381484
36.303648
34.310962
33.355358
33.717747
34.928028
35.001736
32.264815
28.954792
26.582169
25.87297
25.777598
26.002319
27.464003
96.858133
71.663672
54.51377
45.243167
39.915937
37.533908
37.024978
37.292879
38.359038
40.354015
42.027354
43.039177
42.984344
41.823833
39.970498
38.430904
36.651311
34.460952
32.992438
31.844433
30.281917
29.329812
29.012383
28.544644
26.805127
24.915663
25.097687
99.244023
72.88728
52.954316
43.683375
38.922147
36.567439
35.524938
35.450755
35.875666
36.355525
36.766979
37.502563
38.687148
39.468153
39.181169
38.336949
36.289913
32.508848
29.025761
27.640075
27.214071
28.032278
28.651017
29.077229
27.795781
24.66877
23.897972
104.55483
73.254564
49.814536
40.048817
35.177357
32.517697
31.19628
30.631961
30.224737
29.930626
29.676161
29.945723
30.70671
32.449329
33.989329
34.879255
34.321934
31.203195
27.044651
25.156605
24.754537
26.38986
27.461732
27.76681
27.371748
24.933915
23.705456
101.05198
66.390604
45.540463
37.00914
32.993107
31.043412
30.153062
29.825598
29.395108
28.686055
27.877924
27.293266
27.295957
28.040296
29.231571
30.439496
31.303236
30.796747
27.889504
25.014833
24.086651
24.312856
25.709876
26.535245
26.369425
25.134799
24.062655
122.90324
61.423729
45.425336
39.135605
35.796161
34.383798
34.205033
34.343734
34.095209
33.284868
31.91279
30.463245
29.341408
28.558467
28.159824
28.316709
28.99822
30.215916
30.339215
28.114647
25.832088
25.136496
25.647859
26.054941
25.79
24.758049
23.760632
133.68387
54.99961
43.446099
39.759103
38.352262
37.68383
37.271579
36.81746
36.111788
34.956031
33.441416
31.809558
30.218679
28.935653
28.080279
27.686182
27.658559
27.873792
28.113941
27.888447
27.045445
26.155512
25.668211
25.290268
24.683378
23.69135
22.745039
115.71089
60.771839
47.814131
41.259699
37.199878
34.813797
33.764438
33.515889
33.651238
33.631431
33.201416
32.351016
31.145095
29.72687
28.241704
27.024784
26.344199
26.2723
26.432665
26.413168
25.936127
25.208536
24.507852
23.777318
23.016541
22.211548
21.555913
101.30841
68.538531
52.043911
41.303584
35.437944
33.091527
32.686203
33.011861
33.486576
33.41931
33.098762
32.555153
31.750505
30.453682
28.967895
27.657703
26.905445
26.685457
26.482064
25.783022
24.416469
22.857599
21.938694
21.753064
21.532263
21.00328
20.463952
83.005407
65.85468
48.261623
36.318783
30.476641
28.744148
28.619009
29.574985
30.520896
30.606499
30.330866
29.750813
29.215031
28.573801
27.673702
26.703144
25.915526
25.268811
24.350994
22.800078
21.040034
19.963548
19.817186
20.307284
20.676099
20.232177
19.467182
72.975575
55.975448
39.666679
30.142092
25.351233
23.473066
23.176973
23.733781
24.98316
25.815608
26.085646
26.13271
26.198661
26.249574
25.883388
24.578821
23.11738
21.840315
20.554205
19.267142
18.415404
18.14127
18.518515
19.413071
20.076253
19.688618
18.572527
81.015915
50.751508
33.259019
25.111732
21.026369
19.094278
18.494237
18.656548
19.336923
20.093484
20.532011
20.724505
21.021693
21.693197
22.281844
22.004445
20.904856
19.814477
18.893537
17.955283
17.349041
17.214605
17.747894
18.776925
19.468503
19.004761
17.604184
107.43444
49.176625
29.742135
21.934587
18.155546
16.260249
15.443241
15.307254
15.553144
16.018978
16.400304
16.615203
16.804063
17.197246
17.843053
18.316582
18.267232
17.961886
17.676807
17.239847
16.642001
16.374674
16.779937
17.795947
18.448457
17.948249
16.788597
121.65732
47.641443
27.94642
20.384659
16.779053
14.91425
13.998303
13.663536
13.677248
13.893491
14.148619
14.331508
14.475264
14.686666
15.012756
15.31611
15.495162
15.638669
15.824039
15.959808
15.808648
15.589137
15.734523
16.43466
17.15612
17.127403
16.588105
127.08018
47.090992
27.086888
19.652025
16.161409
14.349868
13.412514
12.989101
12.877097
12.932975
13.070317
13.212356
13.345796
13.498255
13.628459
13.671377
13.698281
13.819116
14.06496
14.328536
14.456879
14.437669
14.531137
15.001912
15.782607
16.459758
16.608692
129.63712
45.974398
26.039155
18.902115
15.609223
13.908662
13.018131
12.592888
12.441587
12.438948
12.501898
12.598024
12.721015
12.823472
12.839776
12.754015
12.675198
12.700764