/*--------------------------------*- C++ -*----------------------------------*\
| =========                 |                                                 |
| \\      /  F ield         | OpenFOAM: The Open Source CFD Toolbox           |
|  \\    /   O peration     | Version:  2406                                  |
|   \\  /    A nd           | Website:  www.openfoam.com                      |
|    \\/     M anipulation  |                                                 |
\*---------------------------------------------------------------------------*/
FoamFile
{
    version     2.0;
    format      ascii;
    arch        "LSB;label=32;scalar=64";
    class       volScalarField;
    location    "22";
    object      omega;
}
// * * * * * * * * * * * * * * * * * * * * * * * * * * * * * * * * * * * * * //

dimensions      [0 0 -1 0 0 0 0];

internalField   nonuniform List<scalar> 
62344
(
4.3592593
3.3319019
2.7383301
2.3248265
2.0205698
1.7941533
1.6248377
1.492579
1.3891653
1.3013469
1.2239911
1.1549756
1.10638
1.0616217
1.0131484
0.979062
0.95926311
0.95075899
0.94040453
0.92734877
0.9002512
0.88402369
0.88305777
0.88022505
0.8747937
0.86921152
0.87247425
0.88106735
0.89605444
0.92195025
0.97717017
1.0738999
1.1717266
1.2512683
1.3735878
1.4868391
1.7189217
1.8854309
2.1272135
2.3533564
2.5953046
2.8220819
3.027694
3.2856939
3.565777
3.8132649
3.9565238
4.05089
4.1607816
4.2942919
4.4382638
4.5948342
4.81746
4.9547403
5.2623677
4.3651573
3.3390118
2.745142
2.3349805
2.027838
1.8007932
1.6298328
1.5003981
1.3898938
1.3053475
1.2325572
1.1620678
1.1052202
1.0611811
1.0168058
0.98161045
0.96110944
0.94678797
0.9376265
0.92779155
0.90414301
0.88455511
0.87454491
0.87073
0.86626995
0.85466518
0.853619
0.8575173
0.86624391
0.8795076
0.91195934
0.98792069
1.0616122
1.1529506
1.2637187
1.3753753
1.5540159
1.708972
1.9151726
2.0829369
2.3085443
2.5766571
2.8829135
3.2496279
3.5691501
3.8035225
3.9709078
4.1219012
4.2634882
4.3706554
4.516883
4.6413096
4.8791559
5.0472335
5.2828682
4.3713414
3.3455017
2.75266
2.3427817
2.0351089
1.8059515
1.6356483
1.5005636
1.3957842
1.3089392
1.2351851
1.1688828
1.1179236
1.071282
1.0191085
0.99113636
0.96724102
0.94748249
0.93734588
0.92805817
0.90771034
0.88614462
0.87344656
0.86895267
0.86184344
0.85007637
0.8489047
0.85405621
0.86311166
0.87537719
0.90273178
0.96560011
1.027132
1.1198844
1.2276291
1.3453822
1.5006202
1.6813015
1.8575384
1.9914525
2.1777058
2.4360889
2.7596975
3.110796
3.4488989
3.7111816
3.9511234
4.157695
4.3396973
4.4785153
4.6258423
4.7097364
4.8683721
4.9936919
5.1781524
4.3774392
3.3535834
2.7611244
2.3470932
2.0409654
1.8113432
1.638516
1.505533
1.4041141
1.3161435
1.2410282
1.1706709
1.1168853
1.0707625
1.0256019
0.9896749
0.96297928
0.9518486
0.94385363
0.93498865
0.91457148
0.89256373
0.8838985
0.87457582
0.85936357
0.84948703
0.84620007
0.85192208
0.8645939
0.87579012
0.89832928
0.9493901
1.0131821
1.1081465
1.2124316
1.3379837
1.4846785
1.684513
1.8437793
1.9839653
2.1413281
2.3354676
2.6069758
2.9054186
3.1849455
3.4708754
3.7879138
4.0672476
4.2917347
4.4783526
4.6528074
4.8189341
4.9661854
5.0802544
5.2772967
4.3834251
3.3620217
2.7666396
2.3523685
2.0448881
1.8193379
1.6460195
1.5142662
1.4014413
1.3180718
1.2472098
1.1753461
1.1174699
1.0733014
1.0314002
0.99241099
0.96302022
0.95090016
0.9451524
0.93668033
0.92369541
0.90442604
0.88847469
0.87215039
0.8589906
0.85215673
0.85131093
0.85781528
0.86862709
0.87708444
0.89177211
0.92406686
0.98238554
1.0674285
1.1589597
1.2744308
1.3989972
1.5888621
1.7705583
1.9491743
2.1183843
2.3020213
2.5387038
2.7663478
3.0027628
3.3086
3.6079017
3.8745252
4.1127748
4.341279
4.5659453
4.7967408
4.9707458
5.1573172
5.3090607
4.3889048
3.3698079
2.7730578
2.3610937
2.0520428
1.8254034
1.6558712
1.5143713
1.4096725
1.3221113
1.249735
1.1837522
1.1286401
1.0821418
1.0327607
1.0024409
0.97221058
0.95375736
0.94267156
0.93307112
0.92640525
0.91363569
0.89274099
0.87481797
0.86458593
0.85396198
0.85294492
0.85915836
0.86714936
0.87529417
0.89037557
0.9174096
0.96786587
1.0371027
1.1129
1.2400813
1.3591766
1.514415
1.6924875
1.886318
2.0779917
2.2858586
2.5133051
2.706392
2.9065566
3.1590257
3.416277
3.6630556
3.8845503
4.1013463
4.3205078
4.5569031
4.7734534
4.973287
5.1298392
4.3939021
3.3743129
2.7790686
2.3663203
2.058135
1.8295409
1.6548724
1.5164953
1.4176152
1.3274897
1.2539749
1.186153
1.1281266
1.0847546
1.0387678
1.0045458
0.97304469
0.95558496
0.94181693
0.93503183
0.93004018
0.9167922
0.89727511
0.8788745
0.86494183
0.85226642
0.84939949
0.85253629
0.86174689
0.87368663
0.89088461
0.91068521
0.94506136
1.0085305
1.0747992
1.1958234
1.3086213
1.4559153
1.6328633
1.8397312
2.0523892
2.2856909
2.514851
2.7073254
2.9038608
3.1091517
3.316387
3.5344677
3.7681248
3.9934529
4.2082452
4.3918459
4.5539046
4.6699296
4.7978761
4.3988189
3.378739
2.7844684
2.3715977
2.0650805
1.8353127
1.6573907
1.5264822
1.4167554
1.330196
1.2624297
1.1910697
1.1265337
1.0871593
1.0491856
1.0081357
0.97200648
0.95397211
0.94487171
0.93815947
0.93422811
0.92183549
0.90058409
0.87872096
0.86220426
0.85475475
0.85224861
0.8521395
0.85979148
0.87546605
0.89119965
0.9074969
0.93096411
0.99230839
1.0623229
1.1679774
1.2770147
1.418594
1.5944546
1.7914349
2.0065538
2.2537583
2.4858295
2.6822331
2.8650403
3.0446516
3.2452815
3.4612237
3.6987815
3.9395387
4.1602849
4.3471546
4.4735287
4.5858405
4.6904782
4.4030546
3.3833949
2.7897084
2.3788258
2.0714843
1.8394273
1.6666875
1.5306241
1.4175837
1.3345182
1.2666358
1.1971621
1.1362056
1.0908527
1.0500738
1.0129316
0.97744719
0.95392256
0.94650536
0.94000802
0.93393419
0.92389813
0.90770718
0.88533049
0.87322036
0.86610234
0.85900833
0.85763758
0.86171834
0.87348098
0.88756614
0.9079374
0.92820412
0.97624083
1.0450947
1.1505007
1.259394
1.3945304
1.5692307
1.754065
1.963312
2.2039782
2.4290222
2.6261758
2.7993387
2.9767455
3.1802708
3.4088253
3.6558318
3.9094658
4.1389593
4.3382274
4.4759833
4.6267019
4.7313705
4.4072203
3.3888479
2.7959157
2.386146
2.0754072
1.8426631
1.6712674
1.5291688
1.4242691
1.3391634
1.2658258
1.1991197
1.142577
1.090876
1.0484999
1.0201381
0.98482172
0.95650291
0.94593664
0.94156938
0.93395704
0.9244594
0.91222557
0.89828434
0.8882726
0.87274565
0.85738573
0.85652366
0.86030504
0.86896838
0.88418388
0.90813479
0.93121908
0.96944084
1.0243536
1.1250899
1.2412465
1.3721872
1.5360169
1.7070242
1.9011498
2.1190125
2.336176
2.5394763
2.7240697
2.9010551
3.0988247
3.3288908
3.5847218
3.8467692
4.0841326
4.2948176
4.4679982
4.6608872
4.7935241
4.4111992
3.3945764
2.8018012
2.3907453
2.0786523
1.8473931
1.671849
1.5332231
1.4317278
1.3420482
1.2664662
1.2016588
1.1422598
1.0893929
1.0511762
1.0242877
0.98566401
0.95804484
0.94611537
0.93945356
0.93594878
0.92977423
0.91418336
0.90107905
0.89116044
0.87064104
0.85247251
0.84852385
0.85021221
0.8625098
0.88623249
0.90658638
0.93130342
0.96793161
1.0172245
1.1074075
1.2220357
1.3426817
1.4891147
1.6591348
1.8462118
2.0389408
2.2347826
2.4453118
2.6561313
2.8430084
3.0247064
3.2330924
3.4766927
3.7286518
3.966395
4.1899854
4.3873026
4.6001794
4.7575121
4.4149715
3.4005642
2.8074682
2.3946506
2.083726
1.8555021
1.6778943
1.5431718
1.4347499
1.3460108
1.2729045
1.2085828
1.1437152
1.0914852
1.0578948
1.0250385
0.9834868
0.95900537
0.9469964
0.93669003
0.93497994
0.93241639
0.91853509
0.89840764
0.88253583
0.86368572
0.85313654
0.84724611
0.84606904
0.85727527
0.88662467
0.90505226
0.92418086
0.96016433
1.017633
1.1014649
1.2103648
1.309684
1.4361339
1.5992991
1.7908849
1.9733358
2.1577752
2.3644824
2.5861805
2.7861071
2.9633877
3.1506381
3.3636728
3.5868832
3.8173636
4.0474821
4.2547369
4.4678838
4.6380132
4.4184926
3.4064783
2.813109
2.3999661
2.0901472
1.8622973
1.6866399
1.5496513
1.4341899
1.3497508
1.2829517
1.2148405
1.1501756
1.0995603
1.0661446
1.0300969
0.98791773
0.959918
0.94925812
0.93902936
0.93399223
0.93106669
0.92212002
0.90204913
0.87990683
0.86300295
0.85945293
0.85478774
0.84970103
0.85696076
0.88334017
0.90480931
0.92168781
0.95349535
1.0130576
1.098653
1.2026356
1.2920433
1.4069234
1.566419
1.7539944
1.9351119
2.1267263
2.3391612
2.5577334
2.7569728
2.9406238
3.1243883
3.3215783
3.5195303
3.7273745
3.9408631
4.1378581
4.3231158
4.4757208
4.4215287
3.4115278
2.8181475
2.4058681
2.0958115
1.8659702
1.689619
1.5504469
1.4363932
1.351662
1.2861021
1.2167263
1.1547866
1.1042511
1.0687038
1.034707
0.99830759
0.96351789
0.95019159
0.94248399
0.93319841
0.92745277
0.92346262
0.91284109
0.88940227
0.8727389
0.8643187
0.85930469
0.85624357
0.86245593
0.88078077
0.9029536
0.92427039
0.95483139
1.0098325
1.0889325
1.189624
1.2831626
1.4009092
1.5610051
1.7429026
1.9175429
2.1140235
2.3409376
2.5620981
2.7618197
2.9500663
3.1382937
3.3354931
3.5244292
3.7128434
3.9053127
4.0872567
4.2478832
4.3743678
4.425031
3.416173
2.8226055
2.4113725
2.1001033
1.8678143
1.6883329
1.5492435
1.4423121
1.353942
1.2828628
1.2167686
1.1556864
1.1029577
1.0646245
1.0334335
1.000821
0.9658845
0.94842288
0.94226748
0.93304372
0.92596417
0.92311024
0.91504079
0.89870326
0.88413591
0.86873436
0.86069423
0.85977421
0.86837254
0.88153348
0.89881691
0.93219456
0.96639933
1.0136804
1.0856956
1.1842042
1.2815982
1.4020927
1.5677661
1.7560727
1.9310143
2.1208555
2.3612243
2.5947861
2.807562
3.0068093
3.2007349
3.3960101
3.5846604
3.7626087
3.9323969
4.0897391
4.2312562
4.3406562
4.4282758
3.4206768
2.8270062
2.4164359
2.103935
1.8709557
1.6892452
1.5503889
1.4481881
1.357587
1.2794129
1.217877
1.1556762
1.1002866
1.0596944
1.027561
0.99573732
0.96647735
0.94768775
0.93981896
0.93487584
0.92899826
0.92312942
0.91210251
0.90079769
0.89016686
0.8751596
0.86583594
0.86428145
0.87193281
0.88579704
0.90243954
0.9388422
0.98010083
1.0297217
1.1004249
1.1907576
1.2929407
1.4160683
1.5731155
1.7723871
1.9675869
2.1524571
2.3919174
2.6341938
2.8682936
3.0979296
3.3135137
3.5105418
3.6980971
3.8718719
4.0199333
4.1436144
4.2699244
4.3603125
4.4311495
3.4256218
2.8321534
2.422457
2.1087401
1.8778234
1.69613
1.5564753
1.4512642
1.3626511
1.2819669
1.2233151
1.1604571
1.102415
1.0631452
1.0286457
0.99427637
0.96850231
0.95240591
0.94152224
0.93858782
0.93792995
0.93222606
0.91805831
0.90713481
0.89670758
0.88869397
0.88402809
0.88070618
0.8835565
0.8987211
0.92039621
0.95423033
0.99852485
1.0578764
1.1425807
1.2295044
1.3326439
1.4557837
1.5932541
1.7822043
2.0092671
2.1966401
2.4197853
2.6713202
2.9254007
3.1778877
3.4238695
3.6339524
3.8232623
3.9883614
4.1389219
4.2477924
4.3690936
4.434492
4.4337373
3.4301794
2.8376801
2.4286657
2.114468
1.8862465
1.706285
1.5655766
1.4543302
1.369267
1.2922691
1.2344591
1.1728175
1.1117617
1.0784994
1.0433729
1.0061852
0.97773875
0.96565224
0.95443342
0.95147794
0.95405564
0.95286259
0.9442859
0.93122953
0.91613112
0.91390552
0.91587374
0.91205379
0.91050794
0.92426863
0.95583377
0.98285549
1.0281868
1.0921341
1.1952889
1.2961423
1.3955168
1.5142254
1.6443959
1.8006176
2.0269651
2.2350251
2.4469571
2.6971278
2.9629904
3.229922
3.5089172
3.7553623
3.9649477
4.1276583
4.2881828
4.3941378
4.5233522
4.5638965
4.4364417
3.4346753
2.8438007
2.4347357
2.1210104
1.8940768
1.7138139
1.5742683
1.4605745
1.3766668
1.3071222
1.2495049
1.1881912
1.1283349
1.1032316
1.0694328
1.0329067
0.99913398
0.98884169
0.98027031
0.97641394
0.98056926
0.98334052
0.98343992
0.97543272
0.95734832
0.95591789
0.96158838
0.9611611
0.95963403
0.97285203
1.0098015
1.0393801
1.0839915
1.1486206
1.255407
1.3679158
1.4767527
1.5750902
1.7221676
1.8548242
2.0536471
2.2782857
2.4910739
2.7218607
2.9988227
3.2641888
3.5717451
3.8472991
4.1119788
4.3013884
4.4908604
4.6042294
4.7728934
4.8059798
4.438023
3.438062
2.8491212
2.440373
2.1281091
1.900887
1.7202891
1.5830787
1.4731396
1.3888794
1.3235436
1.2679588
1.2068525
1.1514927
1.1316136
1.1006705
1.0673452
1.0339825
1.023598
1.0193315
1.0167775
1.0222794
1.0315656
1.0378523
1.0346855
1.0236344
1.0230512
1.0287824
1.0340239
1.0389403
1.0547903
1.0903266
1.1296355
1.1772726
1.2405752
1.3468333
1.4623929
1.5801457
1.6816188
1.8321673
1.970379
2.1364951
2.3486377
2.5725539
2.7858234
3.0572483
3.3022148
3.6073447
3.890672
4.2013959
4.4263389
4.6624967
4.7972829
5.0261264
5.1092835
4.4430659
3.444442
2.8573988
2.4512807
2.1424069
1.9155754
1.7366976
1.6034099
1.500443
1.415622
1.3520514
1.2976928
1.2412492
1.1915889
1.1731928
1.1447723
1.1159231
1.0943106
1.0904876
1.0919898
1.0960689
1.1101163
1.1322068
1.1478586
1.1516662
1.1512206
1.1543761
1.1651813
1.1773217
1.1985857
1.2241337
1.2646527
1.3070042
1.3577855
1.4265456
1.5306467
1.6534131
1.788483
1.8970628
2.0536818
2.2278649
2.3719084
2.5446279
2.7646224
2.9660011
3.207284
3.4156788
3.6937189
3.9552633
4.2594033
4.4897764
4.7416516
4.9266809
5.1588667
5.2970523
4.4511034
3.4601391
2.8802107
2.4837092
2.1812551
1.957235
1.7816404
1.6520062
1.5532991
1.4712125
1.4112353
1.3622577
1.31847
1.285017
1.2780575
1.2613155
1.2461684
1.2482918
1.2572161
1.2854455
1.3025601
1.3369702
1.3818892
1.4189586
1.4481039
1.4706163
1.4994516
1.5510406
1.5793081
1.6357312
1.685384
1.7609803
1.8180274
1.8629844
1.9336716
2.0322198
2.1655839
2.3135825
2.4424305
2.586274
2.7827895
2.9219106
3.0561826
3.2406345
3.4295922
3.6122036
3.7816542
3.9958489
4.1981172
4.4395818
4.6489172
4.8761132
5.072993
5.2831242
5.4192147
4.4997041
3.5217608
2.9500127
2.5635383
2.2649501
2.0608117
1.9042625
1.7950605
1.7152738
1.6586534
1.6246149
1.6079828
1.6054564
1.6170523
1.6570791
1.6860819
1.7159606
1.7605843
1.8265814
1.9123881
1.9527699
2.0214861
2.1100221
2.1884427
2.2551058
2.3224054
2.4071589
2.513453
2.5683422
2.6678136
2.7613057
2.889052
2.9926061
3.0330272
3.0807304
3.18515
3.3382773
3.4800422
3.6283169
3.7645901
3.9545008
4.1185692
4.2411398
4.3460212
4.5092536
4.6096322
4.7562544
4.8807596
5.0191151
5.1238975
5.2608347
5.3795529
5.543553
5.7269691
5.7938828
4.5974001
3.6394472
3.1062713
2.7940341
2.5780162
2.4838786
2.4257236
2.4207172
2.4360792
2.4708551
2.5277632
2.6104154
2.6890619
2.7865575
2.931727
3.0258178
3.1283863
3.2447277
3.3871132
3.5484713
3.6183622
3.7186534
3.8643242
4.0039931
4.1057894
4.2152571
4.359584
4.5234849
4.6101593
4.7092327
4.8467876
5.0003609
5.1488848
5.2042118
5.2277679
5.3068519
5.4430692
5.6015106
5.7353149
5.8497035
6.0021625
6.2163833
6.4307973
6.5265938
6.6770527
6.7318509
6.8259349
6.9010287
6.9433022
6.9411669
6.9636481
6.9556762
7.0069492
7.0996916
7.0546009
4.7823971
4.4488781
4.3180649
4.3240647
4.4188216
4.6342069
4.7982758
4.9939386
5.1715971
5.3483997
5.5250935
5.7295326
5.8690631
6.0236265
6.2631998
6.4095723
6.5850334
6.7479801
6.9524995
7.2019672
7.2958175
7.4164518
7.6206634
7.8592758
8.0247599
8.1800227
8.3845752
8.6510284
8.8107792
8.8735138
9.0134701
9.1707886
9.3145254
9.3933414
9.4308109
9.4813054
9.5295524
9.637385
9.770008
9.9026431
9.9622087
10.072623
10.188395
10.263918
10.398797
10.446781
10.536487
10.652296
10.680825
10.675208
10.638705
10.517512
10.453751
10.427747
10.269279
9.3718537
12.297393
12.85889
12.965404
13.183461
13.603456
13.732276
13.904654
13.952188
14.106729
14.420523
14.668634
14.70591
14.780583
15.086885
15.322611
15.548097
15.762442
15.915735
16.256841
16.279147
16.339778
16.53445
16.909949
17.347155
17.564197
17.562949
17.577024
17.833716
17.963754
18.029497
18.290454
18.56155
18.442269
18.379381
18.547408
18.64768
18.683047
18.940354
19.307233
19.34589
19.409823
19.510754
19.588633
19.75402
19.654474
19.60033
19.651766
19.763211
19.819985
19.773278
19.566944
19.422761
19.306441
18.870398
55.499035
56.236905
56.005173
55.794471
55.798882
55.631122
55.49525
55.222968
55.126887
55.045733
54.981614
55.081598
54.83221
54.947367
55.028792
55.040129
55.620703
55.772106
55.568519
55.612265
55.600354
55.52141
55.564047
55.601655
55.764103
55.800561
55.53782
55.500663
55.445534
55.172452
55.155613
55.493836
56.018057
56.075642
55.65279
55.054883
54.83373
55.138997
55.325886
55.031814
54.628887
54.322528
54.577986
55.289966
55.949019
56.238928
56.005285
55.377587
54.470297
53.594607
53.157194
53.241137
53.682677
54.202608
54.553699
56.318948
19.459549
10.313995
7.1733283
5.9600601
5.610007
5.5014105
5.26594
4.9363973
4.722569
4.5968563
4.4988933
4.4581485
4.4837677
4.5888659
4.7663607
4.8946284
4.9294378
4.8762724
4.7904734
4.8523569
5.1341394
5.3545051
5.4129305
5.4041899
5.5631986
5.8028595
59.479192
20.649712
10.580346
7.3631917
6.1727138
5.8523407
5.7628134
5.5232414
5.2302733
5.0130768
4.8339615
4.6858972
4.6185756
4.6368345
4.7449284
4.912004
5.0389335
5.0847083
5.0386652
4.9191443
4.9286166
5.1453629
5.4168932
5.5239432
5.4715434
5.5977873
5.954613
62.673562
21.186656
10.802863
7.6272487
6.4244371
6.1420683
6.0892007
5.9117554
5.6274835
5.3402675
5.0821646
4.9080346
4.840381
4.8646403
4.9815109
5.135846
5.2477657
5.28005
5.2227662
5.0857871
5.0748516
5.2696309
5.5588597
5.5813002
5.4650122
5.6577418
6.1537916
65.881869
21.595662
11.031501
7.8471586
6.6969371
6.5037626
6.5013756
6.3388518
5.9780118
5.6107336
5.3128973
5.1379917
5.083339
5.1299371
5.2714214
5.4358176
5.5499818
5.5684146
5.4813408
5.2938902
5.2454018
5.4341745
5.7265325
5.707655
5.5314237
5.6947411
6.2928611
69.405187
22.435408
11.376645
8.1736174
7.0709081
6.9146903
6.9156897
6.7037931
6.2694474
5.8599484
5.5399628
5.3583951
5.3055103
5.3568037
5.5124298
5.7062554
5.8528338
5.895687
5.807262
5.5806073
5.4734855
5.6020099
5.8448601
5.8558416
5.6838121
5.7619146
6.3913474
73.350673
23.418549
11.835922
8.4630646
7.4543956
7.3582567
7.3199332
7.0251329
6.5512962
6.1330124
5.7991082
5.5907347
5.5167945
5.5495951
5.6909589
5.9052834
6.0820264
6.1629091
6.1146657
5.8987224
5.7322934
5.7779103
5.9604146
6.0260723
5.8537123
5.8645108
6.5274436
77.648645
23.915384
12.067799
8.7161937
7.7875808
7.7619889
7.6715624
7.2890994
6.8263361
6.4130038
6.0691493
5.8291954
5.7286101
5.7477409
5.8839697
6.1049451
6.2886396
6.3856565
6.365536
6.1600348
5.9447945
5.9569736
6.1270502
6.2303502
6.0387149
6.010551
6.6878068
82.235937
24.034319
12.178711
8.9797912
8.1586792
8.0790858
7.9482207
7.5812953
7.1774887
6.7724279
6.3914668
6.0825005
5.9457164
5.9610838
6.1119829
6.3470607
6.5376747
6.6378988
6.6035875
6.3581249
6.0968724
6.0947871
6.274108
6.426863
6.2731033
6.2148499
6.8397753
86.989507
24.617869
12.332729
9.1905559
8.4807023
8.4140318
8.3223469
8.0316026
7.6667592
7.2478821
6.7647849
6.3665265
6.1968562
6.2094181
6.3769011
6.6223534
6.8151313
6.9010232
6.8289437
6.5500445
6.2557536
6.1959277
6.3516108
6.5500709
6.5329
6.4871528
6.9855359
92.175279
25.147627
12.577535
9.4240775
8.8101288
8.8043213
8.7836773
8.5950842
8.2525064
7.745099
7.1290126
6.6538957
6.4631307
6.4752405
6.6530953
6.9071136
7.1001096
7.1685817
7.0705762
6.7860954
6.48123
6.3496049
6.4424251
6.6627423
6.7580934
6.725199
7.172483
98.31953
25.790354
12.965156
9.7340196
9.1863404
9.293411
9.3208141
9.1541096
8.7706962
8.1573455
7.4431259
6.912476
6.7045219
6.7145252
6.8957411
7.1693115
7.3869564
7.4739683
7.3995667
7.1310749
6.7874286
6.6000866
6.668294
6.8792625
6.9657346
6.8523669
7.3079327
105.12731
26.153738
13.035887
9.9409843
9.6073746
9.7896192
9.8163407
9.6414298
9.2094598
8.5417193
7.8146419
7.2147849
6.9398363
6.9223598
7.0921816
7.3784119
7.6440098
7.7913127
7.7868421
7.566353
7.1728641
6.9325536
6.9980713
7.2084564
7.2029984
6.9528631
7.375334
112.33382
26.32898
13.041477
10.067288
9.8223452
10.077581
10.173417
10.031645
9.6744963
9.1261481
8.4518126
7.7295806
7.2627423
7.1493779
7.2716391
7.5577578
7.8713235
8.0719507
8.1197153
7.9681054
7.5877886
7.3255666
7.3741688
7.5326946
7.4667935
7.1044787
7.4234777
119.71308
27.828316
13.51821
10.303205
9.8969082
10.066188
10.216437
10.189586
10.016367
9.6996063
9.2566933
8.5601148
7.7918461
7.4805605
7.5358712
7.7949867
8.1139809
8.3240492
8.3842078
8.2762246
7.9814645
7.7447147
7.7474428
7.8222049
7.7341576
7.3169313
7.5009947
127.40365
30.913219
14.199174
10.558791
9.9386179
10.011802
10.203382
10.239233
10.179193
10.034422
9.8312626
9.3950177
8.5135388
7.917236
7.8850973
8.0880785
8.3967667
8.5834066
8.6286099
8.5605592
8.365914
8.15823
8.0692874
8.0721371
8.0190009
7.5872665
7.6383373
135.03879
34.283196
14.950464
10.844565
10.01105
10.002393
10.125301
10.253867
10.313194
10.282878
10.189795
9.9237674
9.1426681
8.3618842
8.240708
8.3874229
8.6879997
8.8685426
8.9134717
8.8802491
8.7461105
8.5423124
8.3627804
8.2822026
8.2751685
7.8926053
7.8359046
142.49883
37.855918
16.652576
11.584461
10.225746
10.126487
10.209611
10.373587
10.556809
10.544534
10.451256
10.249462
9.5304181
8.742038
8.5629683
8.6652269
8.911517
9.1341467
9.242884
9.2517441
9.1350612
8.8986023
8.6440824
8.4847222
8.4764829
8.2126666
8.0645002
149.18942
41.725608
19.239605
12.694897
10.61179
10.321845
10.402909
10.637697
10.715259
10.688109
10.738281
10.482051
9.6553629
9.0194572
8.8252921
8.8879952
9.0654368
9.3393998
9.5724192
9.64803
9.5368837
9.2502869
8.9595127
8.7295823
8.6727209
8.5176774
8.353219
154.08404
43.858358
20.487187
13.411254
11.159559
10.737908
10.673778
10.734316
10.846183
11.044543
10.978993
10.417071
9.6589347
9.2279175
9.0607256
9.1118781
9.2836856
9.6071158
9.9096493
9.9798293
9.8532271
9.6329399
9.3639012
9.0697744
8.9249547
8.8555192
8.7229659
159.47395
43.89785
21.159951
14.75531
12.184456
11.18415
10.960457
11.082419
11.416399
11.49587
11.028194
10.316006
9.7624014
9.4348805
9.3316077
9.4536413
9.7467426
10.085185
10.240366
10.171235
10.074816
9.9682334
9.7551654
9.4606886
9.2958527
9.2801491
9.2184665
169.23104
45.91491
23.108253
15.885094
12.793463
11.915283
11.967031
12.315135
12.353891
11.818043
11.083817
10.439486
9.952043
9.68519
9.740901
10.031671
10.39522
10.540235
10.434726
10.299129
10.24241
10.161635
9.9717188
9.7983946
9.7673747
9.8407279
9.8527467
181.73074
49.733728
24.635799
16.785667
14.077997
13.738881
13.794774
13.487897
12.716812
11.911954
11.163218
10.583411
10.227999
10.181988
10.412458
10.679463
10.792317
10.719932
10.594214
10.486741
10.337398
10.239332
10.150949
10.208499
10.350256
10.546805
10.515338
194.6915
54.967416
26.403631
18.695702
16.797588
16.082911
14.953619
13.729262
12.593126
11.637084
10.988825
10.681309
10.669126
10.81989
10.966022
11.029436
11.001689
10.961144
10.873854
10.6783
10.410251
10.307245
10.404393
10.745465
11.093997
11.247246
11.075571
205.65805
60.099072
29.967777
22.852516
20.409289
17.732528
15.335047
13.414861
12.047264
11.217777
10.861108
10.871843
10.992512
11.105802
11.249078
11.357674
11.376781
11.317651
11.127353
10.794951
10.516754
10.522908
10.84271
11.436687
11.757041
11.701247
11.461959
214.33211
66.413169
37.084469
28.844958
22.671697
18.078463
14.896545
12.826175
11.586379
10.940991
10.72812
10.778044
10.943718
11.160091
11.444533
11.629748
11.633108
11.490283
11.215903
10.850732
10.69692
10.86057
11.420679
11.988157
12.108136
11.856406
11.669539
219.58039
75.07935
44.471684
31.202058
22.463836
17.142301
13.954807
12.084128
11.043545
10.552876
10.43811
10.56162
10.839601
11.153835
11.421789
11.553438
11.535554
11.39377
11.146252
10.936347
10.956758
11.266184
11.859131
12.245741
12.194673
11.861646
11.684577
222.30557
81.993141
46.675274
29.808391
20.525903
15.57829
12.875193
11.377503
10.609302
10.310159
10.313052
10.493015
10.794939
11.071313
11.26047
11.3418
11.333089
11.247551
11.119311
11.07201
11.163952
11.497367
12.059279
12.42734
12.376102
11.90931
11.628497
221.16005
82.313316
43.565167
26.271127
18.303206
14.37083
12.266177
11.121661
10.549558
10.34906
10.383805
10.561959
10.819895
11.044041
11.198401
11.286865
11.325965
11.307026
11.213636
11.119768
11.153716
11.512468
12.240493
12.731593
12.687451
12.026696
11.544585
213.98349
80.926069
39.070429
23.739656
17.20548
13.996198
12.258648
11.29969
10.836229
10.699126
10.750906
10.913416
11.120019
11.299726
11.43571
11.535287
11.571845
11.498578
11.285832
11.091874
11.113035
11.584429
12.492068
13.11841
13.106888
12.248637
11.619424
199.07941
77.997901
36.490959
22.752247
17.053428
14.22488
12.723603
11.954019
11.629357
11.57222
11.666393
11.818559
11.954366
12.034036
12.074786
12.105147
12.080218
11.908403
11.578383
11.325377
11.34775
11.913718
12.903024
13.512887
13.580927
12.687003
11.936387
174.90899
68.731971
33.355614
22.035298
17.253102
14.895433
13.699867
13.166535
13.017021
13.098756
13.324752
13.53881
13.6038
13.499357
13.317138
13.175795
13.076813
12.885331
12.506508
12.151973
12.149888
12.659821
13.494141
14.018931
14.179982
13.491579
12.804642
154.13773
59.575536
31.460451
22.088505
18.022314
16.039176
15.138957
14.853519
14.893424
15.335427
15.932782
16.176134
16.145091
15.664185
15.045766
14.688051
14.59675
14.54525
14.287731
13.836312
13.571156
13.730845
14.21752
14.719225
15.107058
14.886285
14.534296
144.96595
55.72844
31.612928
23.11933
19.418087
17.752668
17.157448
17.063459
17.696589
18.844259
19.59144
19.785179
19.312262
18.082847
16.932727
16.44874
16.536064
16.813903
16.809063
16.278719
15.433261
15.03394
15.187481
15.733362
16.560166
17.212915
17.043784
142.57218
55.632353
33.25243
24.848827
21.29967
19.981729
19.705857
20.305799
21.852348
23.402989
23.871051
23.907482
22.516061
20.462453
18.978652
18.537586
18.907271
19.839689
20.174918
19.513312
17.756448
16.74248
16.604258
17.215304
18.837409
20.195657
19.94575
140.44243
57.152095
35.457005
27.020398
23.729788
22.782005
22.821835
24.44764
26.906382
28.56873
28.94376
28.289162
25.91389
23.32416
21.571438
21.235569
21.888998
23.51419
24.419476
23.617908
20.845737
19.202581
18.70581
19.423466
21.632238
23.189757
23.154731
134.65851
59.586099
38.535546
29.940861
26.66665
25.871873
26.293897
28.772849
32.049359
33.820144
34.215355
33.243212
30.411953
27.189993
25.01202
24.630165
25.486408
28.063291
29.975666
29.303018
25.012964
22.024045
21.002522
21.493983
24.167375
25.983457
26.585544
125.02143
65.094766
44.722491
35.102333
31.099344
30.036999
30.180196
32.545482
36.173804
38.481884
39.075261
38.385579
36.088208
32.419583
29.725431
28.692623
29.177055
31.440702
34.736382
35.286504
30.715494
25.181322
23.450841
23.408171
24.905074
26.863111
27.985698
109.70633
68.893946
51.301238
42.380106
37.369642
35.354037
34.874963
35.606719
37.825937
40.083
41.281587
41.592096
40.745973
38.583843
35.816171
33.93633
33.107328
33.539944
35.231055
36.24289
33.390476
29.179221
26.522905
25.865819
25.847276
26.160789
27.395841
97.139255
70.364404
53.557322
44.510299
39.343079
37.188403
36.716617
36.982795
38.040259
39.894808
41.366603
42.218709
42.129644
41.132699
39.460118
38.018011
36.460402
34.538982
33.272231
32.50237
31.002774
29.74644
29.154977
28.566226
26.98975
25.297109
25.283748
98.037921
71.365894
52.158009
43.144384
38.559613
36.363696
35.434813
35.391766
35.828371
36.401426
36.94694
37.809652
39.109709
39.853152
39.336791
38.253089
36.144685
32.543638
29.182858
27.735845
27.209281
27.94208
28.633095
29.050553
28.061644
25.145662
24.135278
102.42929
72.593388
49.917301
40.166543
35.302724
32.652824
31.302508
30.693364
30.285936
30.083463
30.077518
30.646919
31.85509
33.838587
35.121432
35.354828
34.16201
30.76864
26.813985
25.021106
24.583909
26.077512
27.126417
27.534506
27.404044
25.243528
23.851376
98.785908
68.08439
46.921183
37.781184
33.323025
31.112246
30.083015
29.770256
29.553353
29.131787
28.541101
28.097919
28.211648
29.0245
30.291352
31.285416
31.601181
30.46565
27.294484
24.685367
23.821483
24.000376
25.285799
26.151125
26.146809
25.120728
24.055262
119.37112
64.390319
46.14729
39.367799
35.936003
34.539455
34.515499
34.814233
34.730279
33.91697
32.38267
30.751408
29.489471
28.721301
28.526629
28.96346
29.788583
30.72343
30.273721
27.565678
25.362657
24.75859
25.25977
25.682295
25.515185
24.677352
23.795174
137.43153
55.013436
43.516481
39.872989
38.441131
37.729345
37.25546
36.703229
35.876483
34.644877
33.120484
31.500354
29.936074
28.688334
27.903824
27.700289
28.073766
28.683975
28.901799
28.134971
26.850205
25.847485
25.345704
25.016732
24.478231
23.606873
22.801386
117.56161
60.246849
47.379551
40.942708
36.948647
34.614928
33.577804
33.242735
33.224942
33.08048
32.605295
31.768593
30.5935
29.235132
27.844375
26.729835
26.156084
26.242155
26.579856
26.69204
26.095487
25.084123
24.241131
23.496036
22.822471
22.113261
21.532403
101.45703
67.388705
51.234475
40.758187
35.090908
32.898167
32.573963
32.951257
33.356463
33.150247
32.653978
31.990645
31.257782
30.046539
28.628316
27.362761
26.627261
26.469252
26.402136
25.903674
24.66182
23.043
21.986713
21.700954
21.449961
20.960428
20.426413
82.600888
64.959225
47.743902
36.053702
30.377625
28.762144
28.745322
29.742779
30.460099
30.349913
29.873293
29.294325
28.96197
28.361321
27.521151
26.680645
26.065076
25.636303
24.882102
23.361658
21.484965
20.262987
19.990272
20.372994
20.653681
20.211643
19.470737
72.710418
55.64648
39.510224
30.070367
25.338439
23.528066
23.305383
23.915301
25.080716
25.719071
25.825475
25.844486
25.99019
25.979517
25.649513
24.65596
23.538523
22.432861
21.055885
19.583943
18.590718
18.229602
18.558785
19.406325
19.983964
19.605522
18.593635
80.634868
50.552581
33.190881
25.089894
21.03238
19.125205
18.542672
18.719243
19.386053
20.099429
20.469903
20.633986
20.921469
21.530198
22.072446
21.976578
21.170321
20.162653
19.129234
18.045945
17.345611
17.143267
17.650504
18.634589
19.25711
18.840651
17.606878
107.03342
48.939018
29.673353
21.91429
18.150294
16.260188
15.441548
15.299223
15.542335
15.993087
16.363746
16.581277
16.767873
17.140275
17.757867
18.300288
18.378946
18.121052
17.787885
17.279151
16.595237
16.283013
16.66669
17.639092
18.236598
17.810113
16.762665
121.45575
47.108668
27.807945
20.32766
16.745499
14.887685
13.969321
13.627601
13.631085
13.835247
14.083535
14.269973
14.420623
14.633204
14.968113
15.328815
15.565573
15.722452
15.893857
16.013546
15.850293
15.622949
15.754424
16.444349
17.10985
17.066587
16.561775
126.9357
46.588235
26.975691
19.608173
16.132926
14.323732
13.382942
12.952125
12.826569
12.867863
12.9957
13.131844
13.267979
13.430392
13.602148
13.703935
13.747072
13.840694
14.059183
14.328904
14.498355
14.529027
14.67401
15.217914
16.028296
16.549767
16.571975
129.37615
45.611621
26.00805
18.89988
15.609676
13.907254
13.011117
12.576434
12.414889
12.399799
12.453272
12.544375
12.670435
12.80556
12.869274
12.807799
12.706333
12.691996
12.821912
13.037703