/*--------------------------------*- C++ -*----------------------------------*\
| =========                 |                                                 |
| \\      /  F ield         | OpenFOAM: The Open Source CFD Toolbox           |
|  \\    /   O peration     | Version:  2406                                  |
|   \\  /    A nd           | Website:  www.openfoam.com                      |
|    \\/     M anipulation  |                                                 |
\*---------------------------------------------------------------------------*/
FoamFile
{
    version     2.0;
    format      ascii;
    arch        "LSB;label=32;scalar=64";
    class       volScalarField;
    location    "22";
    object      omega_0;
}
// * * * * * * * * * * * * * * * * * * * * * * * * * * * * * * * * * * * * * //

dimensions      [0 0 -1 0 0 0 0];

internalField   nonuniform List<scalar> 
96472
(
3.7978348
2.9487186
2.4152756
2.0534919
1.7891407
1.5895756
1.4388499
1.3235973
1.2315472
1.1544899
1.0874917
1.0291456
0.97818339
0.93477522
0.8972578
0.86558292
0.83727288
0.81276858
0.78928666
0.76863342
0.74782783
0.72993474
0.71168765
0.69660161
0.68151473
0.66953338
0.65757712
0.64867219
0.63937739
0.63264641
0.62565141
0.62005628
0.6147911
0.61007611
0.60572693
0.60228557
0.59999481
0.59763119
0.59604805
0.59445238
0.5938026
0.59282497
0.59251157
0.59192666
0.59228796
0.59368417
0.59689504
0.60174034
0.6086222
0.61693605
0.62860606
0.64211003
0.65677774
0.67598534
0.70209262
3.7958741
2.9508522
2.4171539
2.0551415
1.7909552
1.5918594
1.4416955
1.3268924
1.2352399
1.1584846
1.0916033
1.0331772
0.98197433
0.93822474
0.90034885
0.86844208
0.84001473
0.81564668
0.79222058
0.77179672
0.75094303
0.73317362
0.71465703
0.69945233
0.68400053
0.67149165
0.65908933
0.64955748
0.63959494
0.63238239
0.62501918
0.61889046
0.61317345
0.60873031
0.60353083
0.59999946
0.59671309
0.59393711
0.59268605
0.59126851
0.5913749
0.59173554
0.59274003
0.59460114
0.59631353
0.60023461
0.60216286
0.60658188
0.61008942
0.61819847
0.62336492
0.63467578
0.6446445
0.65484685
0.67871511
3.7960176
2.9551581
2.4226364
2.061301
1.797132
1.597511
1.4465836
1.3312527
1.2393565
1.1624203
1.0953321
1.0365105
0.98498217
0.9407556
0.90271011
0.87047099
0.84211291
0.81751441
0.79436957
0.77368612
0.75306576
0.73519326
0.71648421
0.70158029
0.68543974
0.6734143
0.66049777
0.65097927
0.64091126
0.63350417
0.62583147
0.61971248
0.61364137
0.60917756
0.6035701
0.59984354
0.59529313
0.59258999
0.58875603
0.58693937
0.58484532
0.58496882
0.58578341
0.58811671
0.59047799
0.59610803
0.59918542
0.60581944
0.60934705
0.61752947
0.62247087
0.63036413
0.64153056
0.64838186
0.66510267
3.7963524
2.9594577
2.4284016
2.0678789
1.8036515
1.6032137
1.4513495
1.3353672
1.2431228
1.1659779
1.0987368
1.0396669
0.98788916
0.94337363
0.90513947
0.87270557
0.84436628
0.81967503
0.79678511
0.77597539
0.75572945
0.73740961
0.7192987
0.70357704
0.6879597
0.67527417
0.66235526
0.65267298
0.64245732
0.63496237
0.62719409
0.62126727
0.61472109
0.61065386
0.60464396
0.60106983
0.59572755
0.59336558
0.58866127
0.58688107
0.58330244
0.58247973
0.58067916
0.58106141
0.58178431
0.58468131
0.58750075
0.59452911
0.59978372
0.60792554
0.61720101
0.62298505
0.6348248
0.64137712
0.65641962
3.7971775
2.9634726
2.4337824
2.0740498
1.809849
1.6087213
1.4559687
1.3393198
1.2467464
1.1694013
1.1020628
1.0427488
0.99079399
0.94594569
0.90757153
0.87489176
0.84660424
0.82172644
0.79907453
0.77806082
0.75815609
0.73948362
0.72170994
0.70550206
0.69020561
0.67691558
0.66433062
0.65398138
0.64404315
0.63603583
0.62840591
0.62229694
0.61588001
0.61135792
0.60576257
0.60252119
0.59673741
0.59446764
0.58965373
0.58771695
0.58379216
0.58264276
0.58023839
0.57967043
0.57926061
0.57986234
0.58108282
0.58346583
0.58840439
0.59229666
0.60139216
0.60655401
0.61785641
0.62455028
0.6410907
3.79793
2.9677802
2.4400023
2.0813174
1.8170371
1.6148879
1.4609309
1.343393
1.2503563
1.1727542
1.1052915
1.0457678
0.99361984
0.9484989
0.9099637
0.87706997
0.84878243
0.82378607
0.80128432
0.7801858
0.76049863
0.74163616
0.72410828
0.70750199
0.69245306
0.67862416
0.66627858
0.65537773
0.64561155
0.63727814
0.62961758
0.62320027
0.61719007
0.61198111
0.60684577
0.60313481
0.59797506
0.59515793
0.59070978
0.58838467
0.58469509
0.58325462
0.58053475
0.57960247
0.57835006
0.57841666
0.57895244
0.58006526
0.58281367
0.58515486
0.59059955
0.5943651
0.60253768
0.60751005
0.62107924
3.7985502
2.9727551
2.4475222
2.0897353
1.8248304
1.6212271
1.4658604
1.3473633
1.2538303
1.1759891
1.1084151
1.0487548
0.99640397
0.95107539
0.91234967
0.87928107
0.85089065
0.8258738
0.80337781
0.78233618
0.76268975
0.7438512
0.72629281
0.70967106
0.69453006
0.68051936
0.66815025
0.65697002
0.64715506
0.63855346
0.63096507
0.62417677
0.61839801
0.61288161
0.60802644
0.60351111
0.59964493
0.59567567
0.59187595
0.58918331
0.58579151
0.58331053
0.58147803
0.57940602
0.57845351
0.57749397
0.57766363
0.5781666
0.57976503
0.58135602
0.58514501
0.58774642
0.59348753
0.59731955
0.60670553
3.7985636
2.981061
2.4571961
2.0987177
1.8323792
1.6272419
1.4705687
1.3511548
1.2571578
1.1791083
1.1114387
1.0516782
0.99916162
0.95362905
0.91471027
0.88148311
0.85301319
0.8279114
0.80545468
0.78444616
0.76485342
0.74603573
0.72844794
0.71181368
0.69655687
0.68242706
0.66997063
0.65852792
0.64876634
0.63976489
0.63232879
0.62527411
0.61939236
0.61385669
0.60920094
0.60421481
0.60067834
0.59649459
0.59305578
0.58959219
0.58701337
0.58366807
0.58207181
0.57966363
0.57836692
0.57723419
0.57673488
0.5768689
0.57759061
0.57866088
0.58119906
0.58318302
0.58742066
0.59033531
0.59735811
3.7974888
2.9892976
2.4654554
2.1054225
1.8378671
1.6318708
1.474519
1.3545797
1.2602923
1.1821363
1.1144192
1.0545827
1.0019262
0.95619133
0.91708292
0.88367596
0.85511022
0.82993567
0.80748226
0.78650475
0.7669706
0.74819389
0.73057364
0.71393125
0.69860697
0.68436526
0.67180614
0.66020299
0.65033078
0.64118843
0.63351411
0.62653196
0.62047503
0.61484133
0.61023728
0.60527532
0.60156052
0.5972791
0.59439256
0.59034484
0.5878672
0.58457804
0.58254973
0.5800527
0.5786459
0.57691796
0.57632505
0.57587816
0.57609455
0.57668503
0.57821723
0.57966741
0.58290599
0.5850262
0.59036574
3.7893281
2.9905828
2.4693328
2.1105523
1.842951
1.6363934
1.47839
1.3579368
1.2633874
1.1851324
1.1173919
1.0574907
1.004704
0.95876817
0.91948132
0.88588306
0.8571828
0.83195552
0.80948543
0.78853774
0.76903938
0.75031563
0.73270115
0.71600156
0.70065389
0.68630917
0.67362079
0.66195087
0.65184054
0.64270821
0.63477168
0.62774144
0.62162789
0.61590314
0.61117902
0.60631341
0.60260774
0.59808397
0.59523794
0.59143071
0.58861188
0.58534387
0.58341404
0.58043213
0.57905274
0.57708111
0.57618192
0.57518828
0.57514047
0.57525844
0.5761328
0.57698023
0.57914358
0.58095068
0.58505818
3.790877
2.993346
2.4728618
2.114715
1.8474243
1.6406582
1.4821525
1.3612176
1.266403
1.1880712
1.1203185
1.0603763
1.0074746
0.96135955
0.92185389
0.88808987
0.85924244
0.83394265
0.81144576
0.79053252
0.77105905
0.75239321
0.73480305
0.71807536
0.7026645
0.68827426
0.67544316
0.66365514
0.6534673
0.64411058
0.63620741
0.62889141
0.62276806
0.61703477
0.61218159
0.60724869
0.60362071
0.59913586
0.59604435
0.59219655
0.58977026
0.58612569
0.58415418
0.58129899
0.57958269
0.57737053
0.57636548
0.57502411
0.57456051
0.57437691
0.57464312
0.57519163
0.57664095
0.57777371
0.58097306
3.7931943
2.9987654
2.4784205
2.119932
1.8522852
1.6450297
1.4859215
1.3644852
1.2693936
1.1909968
1.1232485
1.0632846
1.0102771
0.96398706
0.92426237
0.89032167
0.86132833
0.83593888
0.81339689
0.79251006
0.77305101
0.75442973
0.73686265
0.72013445
0.7046606
0.69023842
0.67731817
0.66538868
0.65511292
0.64559972
0.63757352
0.63022438
0.62387483
0.61815718
0.61324239
0.6082468
0.60454291
0.60011984
0.59708123
0.59309374
0.59054983
0.58716624
0.58503895
0.58195236
0.58040461
0.57785075
0.57679263
0.57516347
0.5744564
0.57374613
0.5737978
0.57407779
0.57488149
0.57567055
0.5776436
3.8031911
3.0022843
2.4813132
2.1229794
1.8560028
1.6489481
1.4895249
1.3676534
1.2723068
1.1938561
1.1261312
1.0661665
1.0130681
0.96660456
0.92666776
0.89252299
0.86337764
0.83788295
0.81529818
0.7944227
0.77500914
0.75641867
0.7388947
0.72216555
0.70664456
0.69215077
0.67915975
0.66714147
0.65671105
0.64716834
0.63891748
0.63151932
0.62508008
0.61925532
0.61428439
0.60928767
0.60551688
0.60103442
0.59808967
0.59409007
0.59148138
0.58792086
0.5860752
0.5828583
0.58118462
0.57860332
0.57742581
0.57547056
0.5747788
0.57351104
0.57327424
0.57337163
0.57366932
0.57427171
0.57553315
3.8053626
3.0057646
2.4851537
2.1269173
1.8600213
1.6528249
1.4930182
1.3707653
1.2752098
1.1967411
1.1290544
1.0690933
1.0159167
0.96929043
0.92914896
0.89478697
0.86547338
0.83987022
0.81721644
0.79632639
0.77695143
0.75839638
0.74090546
0.72418504
0.70863915
0.69408896
0.68102562
0.6689405
0.65841143
0.64871277
0.64045643
0.63280098
0.62637651
0.62045052
0.61533293
0.61035654
0.60654
0.60200596
0.59898182
0.59504496
0.59250799
0.5888565
0.58692046
0.58380735
0.58217018
0.57920407
0.57814422
0.57603436
0.57520891
0.57361116
0.57325185
0.57281076
0.57306285
0.57321683
0.57392785
3.8121112
3.0080745
2.4856684
2.1271083
1.8612565
1.6550571
1.4956778
1.3734921
1.2779343
1.1995297
1.1319177
1.0719756
1.0187346
0.97194143
0.93157902
0.89701049
0.86751192
0.84180566
0.81906522
0.79817736
0.77882052
0.76031549
0.74285242
0.72614274
0.71055645
0.69596675
0.6828061
0.67065953
0.66004792
0.65022502
0.64188294
0.6341694
0.62756759
0.62165326
0.61643963
0.6113896
0.60754067
0.60302923
0.60002404
0.59594319
0.5935191
0.58990689
0.58796198
0.5845961
0.58314218
0.58025668
0.57900665
0.57667637
0.57575331
0.57414373
0.57362319
0.57271638
0.5725742
0.57267873
0.57295955
3.8145483
3.0097136
2.4858562
2.1273186
1.8626405
1.6573657
1.4983403
1.376177
1.2806288
1.2023021
1.1347856
1.0748928
1.0216085
0.97468262
0.93412049
0.89934601
0.86964729
0.84380877
0.82096417
0.80005582
0.78069803
0.76222046
0.74478586
0.72809921
0.7125087
0.69788994
0.68467352
0.67247643
0.66177524
0.65191585
0.6433967
0.63562119
0.62890557
0.62286628
0.61761414
0.61250429
0.60854257
0.60404793
0.60102288
0.5969278
0.59449398
0.59081319
0.58894518
0.58564298
0.58404752
0.58105966
0.57987505
0.57746058
0.57654652
0.5747014
0.57402076
0.5729437
0.57259299
0.57235162
0.57249729
3.8158707
3.014227
2.4886505
2.1283535
1.8631389
1.6582159
1.4997466
1.3780486
1.2828423
1.2047808
1.1374471
1.0776436
1.0243366
0.97729628
0.93655277
0.90157805
0.87168715
0.84571611
0.82278379
0.80185663
0.78251028
0.76406186
0.74666251
0.7299785
0.71434936
0.69968987
0.68642361
0.67416025
0.66341009
0.65347517
0.64494306
0.636965
0.63027943
0.62413266
0.61878524
0.61371812
0.60963317
0.60515401
0.60205985
0.59795552
0.59559649
0.59178575
0.58998163
0.58668876
0.58517057
0.58208486
0.58084248
0.5784443
0.57734017
0.57538315
0.57458981
0.57346825
0.57297316
0.5727009
0.57216947
3.8191556
3.0195312
2.4932749
2.131723
1.8660243
1.6610679
1.5025466
1.3807302
1.2854535
1.2074272
1.1401964
1.0804776
1.0271849
0.98008013
0.93917583
0.9040003
0.87389857
0.84777333
0.82470721
0.80371681
0.78434584
0.7659213
0.74852722
0.73191245
0.7162836
0.70163154
0.68829969
0.67604781
0.66519231
0.65523423
0.64662837
0.63859414
0.63170684
0.62554918
0.62009062
0.61492666
0.61078818
0.60633651
0.60308544
0.59901457
0.59663329
0.59288665
0.59094223
0.58769915
0.5860858
0.58307605
0.58180582
0.57943865
0.57809956
0.57636649
0.5753036
0.57415163
0.57351947
0.57323482
0.57213912
3.8198976
3.0233736
2.4969821
2.1346276
1.8684873
1.6633801
1.5047471
1.3828466
1.2875827
1.2096703
1.1425899
1.0829765
1.0297254
0.98256475
0.9415406
0.90623461
0.87596719
0.84972555
0.82657628
0.80556098
0.78620578
0.76782564
0.75044398
0.73385234
0.71820593
0.70352136
0.6901351
0.67786641
0.66694094
0.6569578
0.64828836
0.64023084
0.63328434
0.62708956
0.62158609
0.61636884
0.61217306
0.60779376
0.60430848
0.6003167
0.5978336
0.59426754
0.59210211
0.58900267
0.58725303
0.58441534
0.58306012
0.58074587
0.57886298
0.57726686
0.57614436
0.57509699
0.57462314
0.57377014
0.5726107
3.8237719
3.029127
2.5024883
2.1395174
1.8732346
1.6678375
1.5086195
1.3860754
1.2903533
1.2122705
1.145229
1.0857571
1.03259
0.98544916
0.94432113
0.90886114
0.87838808
0.85201489
0.82873317
0.807697
0.7883861
0.77007579
0.75275455
0.7363133
0.72073908
0.70609507
0.69265065
0.68040674
0.6693919
0.65935748
0.65062958
0.64246284
0.63543317
0.62916974
0.62357517
0.61830613
0.61405853
0.60980957
0.60599467
0.60223969
0.59942624
0.5961975
0.59359776
0.59080062
0.58876131
0.58630309
0.58462421
0.58258038
0.58034732
0.57903726
0.57751096
0.5767734
0.57596288
0.57516308
0.57387408
3.8242733
3.032404
2.5061331
2.1427616
1.8762988
1.6707431
1.5111953
1.3882885
1.2924164
1.2144291
1.1476206
1.0884294
1.0354113
0.98830118
0.94711431
0.91158283
0.8810049
0.85467252
0.83155491
0.81077669
0.79183859
0.77389348
0.75686402
0.7405915
0.72520625
0.71057955
0.69708667
0.68474915
0.67351693
0.663433
0.65451365
0.64627334
0.63929353
0.63313529
0.62732673
0.62215571
0.61800089
0.61407314
0.60970456
0.60649408
0.60331367
0.60062105
0.5973433
0.59509832
0.5927038
0.5907925
0.58862615
0.58664783
0.58432194
0.58293005
0.58134412
0.58086517
0.57974505
0.57919233
0.57744267
3.8283971
3.0390973
2.5123699
2.1489582
1.8828352
1.677085
1.5166451
1.3925644
1.2958495
1.2179625
1.151931
1.0939192
1.0415017
0.99476517
0.95325008
0.91747347
0.88671791
0.86057922
0.83807254
0.81844339
0.80076084
0.78425044
0.76845283
0.75298008
0.73839716
0.72394254
0.71051652
0.69761324
0.68536961
0.67499286
0.66534635
0.65635639
0.64922602
0.6436301
0.63732861
0.63207393
0.62829894
0.6252451
0.62029858
0.61770133
0.61469901
0.61265854
0.60905364
0.60717331
0.60482919
0.60364166
0.60126261
0.59944281
0.59691936
0.59508468
0.59357811
0.59286734
0.59207487
0.59152922
0.58989032
3.8280888
3.04463
2.5196996
2.1589341
1.8945009
1.6890286
1.5269917
1.4011301
1.304456
1.2294814
1.1679613
1.1149237
1.0643923
1.0184592
0.97502813
0.93800461
0.90659744
0.88144737
0.86154813
0.8465314
0.83307898
0.82228144
0.81137624
0.7984284
0.78679592
0.77277466
0.7602569
0.74375477
0.72636535
0.71328023
0.70039317
0.68737604
0.67927078
0.67404955
0.66712454
0.66167139
0.65981795
0.65786557
0.65391702
0.65200201
0.65120443
0.65032936
0.64812533
0.64659528
0.6452288
0.64438611
0.6423484
0.64055019
0.63694244
0.63456427
0.63250345
0.63174533
0.63053495
0.62963042
0.62578697
3.8316431
3.0994379
2.5788911
2.2380993
1.981782
1.7726249
1.5967522
1.4590164
1.3638226
1.3026502
1.2627981
1.2276406
1.1825398
1.135507
1.0814873
1.0359334
0.99890744
0.97447778
0.96484685
0.96484116
0.96826257
0.97892142
0.9865019
0.98873493
0.98902548
0.98544381
0.97839978
0.95832446
0.91843647
0.89903992
0.8701767
0.83155907
0.81829237
0.81650417
0.80793213
0.80330465
0.80579877
0.81135539
0.81086431
0.81169286
0.81850959
0.82841412
0.83309582
0.84026582
0.84563466
0.84799654
0.84734474
0.84616263
0.8424091
0.8335484
0.82617674
0.82403219
0.82050342
0.81848867
0.80521902
3.9316428
3.4390726
2.909333
2.635272
2.3975347
2.1556419
1.9289597
1.7508606
1.6843453
1.6853406
1.7111881
1.7572284
1.7709799
1.7616872
1.7070586
1.6344703
1.5958902
1.5863645
1.5895859
1.6241557
1.6757195
1.7423692
1.7858019
1.8177616
1.8476198
1.8657934
1.8914436
1.8874595
1.8333986
1.8073229
1.7701579
1.6508108
1.6155801
1.6287805
1.6092967
1.5944095
1.6194879
1.6503337
1.6429676
1.6400296
1.6504186
1.6837159
1.6962306
1.7172473
1.7329926
1.749286
1.7457813
1.7450849
1.7420693
1.7176227
1.6835232
1.673891
1.6627774
1.6563563
1.6250903
4.8957358
4.5342333
3.8737217
3.7482978
3.764536
3.7994489
3.71025
3.5980708
3.6187919
3.7008566
3.8322767
3.9487075
4.0245642
4.0576117
4.0526736
4.0107416
3.9617741
3.9509593
3.9531321
3.9914388
4.0220405
4.0815133
4.1039262
4.1363606
4.162458
4.2054934
4.3423232
4.3399817
4.2614999
4.3324973
4.361556
4.095514
4.0956288
4.2534248
4.0867404
4.0410251
4.21947
4.2342334
4.1636252
4.052342
4.082533
4.0807413
4.1103282
4.1039384
4.1106148
4.1512746
4.0867534
4.0985793
4.095741
4.0602797
3.9681075
3.9636146
3.9483943
3.9460002
3.8867551
11.340572
11.952251
12.003599
12.113639
12.203382
12.289359
12.371964
12.375486
12.304887
12.267491
12.256415
12.262548
12.281677
12.309682
12.342521
12.371013
12.389793
12.401771
12.41017
12.419624
12.435677
12.455534
12.480911
12.504111
12.530244
12.557251
12.602212
12.658567
12.705908
12.73934
12.806841
12.83825
12.780367
12.8085
12.81434
12.779665
12.737368
12.790774
12.739769
12.770711
12.708021
12.731841
12.679358
12.698366
12.657033
12.656087
12.665972
12.62403
12.647674
12.609144
12.623411
12.579081
12.587826
12.547389
12.553685
12.889346
4.0711838
1.6946766
0.83532558
0.63324904
0.59118509
0.57732429
0.57334159
0.57188246
0.57168159
0.5718311
0.57236992
0.5733799
0.57460348
0.57635625
0.57902684
0.58240449
0.58687431
0.59264173
0.59977251
0.60977593
0.62313768
0.64212295
0.66142737
0.67118173
0.68592634
0.70448603
13.637854
4.5489482
1.8277849
0.87275694
0.64128638
0.5936086
0.57807724
0.57350259
0.57194219
0.57176217
0.57202273
0.57271855
0.57383393
0.57539961
0.57749356
0.5802046
0.58401535
0.58856776
0.59453311
0.6018528
0.61115249
0.62413363
0.64254364
0.66410187
0.67708931
0.69245112
0.70658763
14.479449
4.4597912
1.8725794
0.89583611
0.65020847
0.59706638
0.57963418
0.57406849
0.57237898
0.57227167
0.5726237
0.57343523
0.57485981
0.57667681
0.57915577
0.5822814
0.5861653
0.59112325
0.59725767
0.60477156
0.61424606
0.6263791
0.64390632
0.66707462
0.68222676
0.6992908
0.71217892
15.248842
4.7029188
1.9866732
0.95904086
0.67276516
0.60570599
0.58369649
0.57577554
0.57371871
0.57354519
0.57417721
0.5752559
0.57689763
0.5791151
0.58191717
0.58536476
0.58965048
0.59468406
0.6010046
0.60867453
0.61800216
0.62991639
0.64589939
0.66987897
0.68691756
0.70535469
0.71790171
16.190539
5.2255297
2.1569545
1.0252755
0.68875729
0.61190185
0.58694737
0.57725182
0.57485345
0.57453978
0.57513817
0.57652017
0.57819687
0.58055382
0.58366785
0.58745172
0.59224975
0.59782681
0.6045081
0.6125342
0.62209771
0.6337464
0.64886511
0.67270643
0.69103191
0.71076806
0.72403994
17.174982
5.2456181
2.234458
1.0666849
0.70324564
0.61897068
0.59087932
0.58006761
0.57693
0.57655057
0.57721334
0.57882686
0.58087993
0.58347038
0.58695645
0.59100124
0.59572239
0.60147014
0.60827359
0.61637308
0.62617346
0.63756487
0.65148163
0.67527441
0.69461011
0.71568448
0.73019506
18.189552
5.5195667
2.3671559
1.1297777
0.72563842
0.62798956
0.59552257
0.58251731
0.57850694
0.57805195
0.57874069
0.58050396
0.58312731
0.5862603
0.59008432
0.59459596
0.59982095
0.60574386
0.61278204
0.62082688
0.63073979
0.64220536
0.6544397
0.678331
0.69865631
0.72123763
0.73730594
19.304532
6.1766255
2.5518099
1.2191953
0.75744127
0.64058764
0.60322551
0.58736121
0.5817778
0.58099341
0.58175475
0.5835338
0.58607982
0.58922354
0.5929319
0.59747488
0.60280287
0.60915376
0.61648087
0.62493496
0.63461346
0.64640677
0.65735724
0.68021397
0.70182269
0.72631103
0.74433888
20.553884
6.2618656
2.6890309
1.2946644
0.78436453
0.65140516
0.60947273
0.59202703
0.58532527
0.58404927
0.58476916
0.58663417
0.58948224
0.59306194
0.59717267
0.60192433
0.60757679
0.61395918
0.62131352
0.62970927
0.63917514
0.65113983
0.66120124
0.68198491
0.70412153
0.73023203
0.75081423
21.81677
6.2132269
2.7298773
1.327638
0.79764778
0.65771709
0.61347571
0.59518782
0.58780033
0.58620861
0.58685482
0.5887738
0.59188228
0.59575716
0.60035367
0.60572144
0.61174293
0.61866552
0.62655782
0.63539016
0.6449041
0.65712162
0.66648412
0.68520298
0.70651581
0.73345131
0.7566451
23.168773
6.3039957
2.79234
1.3694195
0.81777597
0.66829247
0.62133586
0.60204918
0.5928521
0.59091639
0.59132549
0.59340117
0.5970466
0.601265
0.60600198
0.61115125
0.61707394
0.6236383
0.63121711
0.63999943
0.64954914
0.66263941
0.67194467
0.68960367
0.70986966
0.73687767
0.76264458
24.658029
6.7857913
2.9749155
1.4801162
0.86888886
0.69165938
0.63622981
0.61287663
0.60176591
0.59873872
0.59899161
0.60063725
0.60432056
0.60852459
0.6132763
0.61851131
0.62438926
0.6308394
0.63806334
0.64645222
0.65505141
0.6682061
0.67715202
0.69361776
0.71291859
0.73922752
0.76738989
26.275551
7.5005767
3.1894632
1.5925239
0.92417823
0.71048364
0.64706702
0.62056962
0.60662495
0.60229864
0.6024183
0.60390806
0.60760285
0.61203689
0.61719863
0.62293993
0.62934463
0.63646166
0.64415631
0.65304528
0.6614322
0.6746102
0.68316227
0.69818788
0.71614054
0.74026678
0.77001116
28.022371
7.6759436
3.2883547
1.6581455
0.9664884
0.72525471
0.65843127
0.63046118
0.61438874
0.60793005
0.60682193
0.6077211
0.61075063
0.61492883
0.61979911
0.625513
0.63190276
0.6392123
0.64698081
0.6569227
0.66596696
0.6801352
0.68935892
0.70335463
0.72042085
0.74206934
0.77167615
29.911664
8.1159755
3.4358544
1.7547179
0.99406431
0.73591952
0.66451204
0.63585417
0.62050173
0.61367087
0.61246588
0.61326982
0.6163058
0.62071761
0.62570853
0.63125241
0.63731301
0.64452884
0.65200438
0.6619499
0.67065384
0.68526117
0.69535719
0.70903556
0.72520809
0.74458539
0.77308521
31.913674
8.2591912
3.4169429
1.7588383
0.9918638
0.7372178
0.66583838
0.63829822
0.62376772
0.61702604
0.61575439
0.61660257
0.6197223
0.62443717
0.62966827
0.63598715
0.64270948
0.65046244
0.65837569
0.66824109
0.67606621
0.6899537
0.70047778
0.71366985
0.72940596
0.74704414
0.77397952
34.018995
7.1556241
3.208595
1.7201577
0.9928166
0.7414307
0.67040762
0.64466911
0.63055201
0.6236412
0.62148003
0.62201341
0.62482203
0.62977357
0.63528613
0.64159958
0.64855707
0.65645669
0.66432311
0.67438954
0.68224587
0.69539928
0.70587039
0.71829413
0.73321979
0.74897518
0.77417217
36.632668
9.0681371
3.8528621
1.9184194
1.0915442
0.78349571
0.69688336
0.66530059
0.65198501
0.64263785
0.63854636
0.63729823
0.63913819
0.64406227
0.64898903
0.65425091
0.65990593
0.66658716
0.67322905
0.68251769
0.6899393
0.70229119
0.7124656
0.72399526
0.73805369
0.75202684
0.77484902
39.346539
21.412236
8.6504284
3.5270237
1.6803434
0.9940191
0.7954363
0.72651535
0.68984555
0.67111473
0.65941911
0.65463878
0.65451398
0.65664944
0.66064886
0.6652861
0.67024448
0.67639027
0.68250337
0.69127507
0.69754794
0.70918309
0.7191066
0.72999495
0.74419721
0.75674595
0.77663778
42.537042
21.936217
8.8747581
3.7321747
1.7689326
1.0323859
0.81403941
0.73796178
0.69379496
0.6732908
0.6605576
0.6562712
0.65618861
0.65818335
0.6626346
0.66783547
0.67386622
0.68105907
0.68792981
0.69760055
0.70396827
0.71560345
0.72513383
0.73525697
0.74963531
0.76111218
0.77900446
45.154138
15.211891
6.6172042
3.0539863
1.5485687
0.96646704
0.780664
0.71841197
0.68570035
0.66750647
0.65850208
0.6554448
0.65584631
0.65836682
0.66314678
0.66883922
0.67524474
0.68307899
0.69045193
0.70052092
0.70712058
0.71931561
0.72963845
0.73959782
0.75439537
0.76630493
0.78284466
48.104279
11.454397
4.9533716
2.5017036
1.4027432
0.93730056
0.76722894
0.71072904
0.68482663
0.66791515
0.66073935
0.65758267
0.65810555
0.66053257
0.66565642
0.67157998
0.67827356
0.68605817
0.69318751
0.70358839
0.7104859
0.723134
0.73449027
0.74427782
0.75885015
0.77125456
0.78710209
51.700622
14.01976
5.44818
2.6868088
1.5022968
0.97320676
0.79297868
0.71928737
0.70102392
0.67855853
0.67389686
0.66792727
0.66788662
0.66887637
0.67286868
0.67907518
0.68583981
0.69330383
0.70013813
0.7110729
0.7181367
0.72976169
0.74138685
0.75029221
0.7639968
0.77643358
0.79253951
55.095362
23.989578
8.9850749
4.1529288
2.1294439
1.1958371
0.91435298
0.76435634
0.75730142
0.71684275
0.70945863
0.69496408
0.69071985
0.68711472
0.68784924
0.69129657
0.69694924
0.70337655
0.70925041
0.71911495
0.72537436
0.7353504
0.74697838
0.75537611
0.76855513
0.78026357
0.79615191
57.110883
25.246847
11.137237
5.532935
2.8476088
1.5040516
1.0350351
0.82461206
0.79505254
0.74513799
0.72987665
0.71102108
0.70320789
0.69756951
0.6967804
0.69853702
0.70307768
0.70887441
0.71403354
0.72301502
0.72907462
0.73785639
0.74961663
0.75800393
0.77044476
0.78123469
0.79664041
59.525256
23.766936
11.042469
5.6409624
2.9696129
1.5792282
1.0624479
0.84434241
0.80305549
0.75320378
0.73498405
0.71565288
0.7069868
0.7012102
0.70039603
0.70173976
0.70561364
0.71133655
0.71585896
0.72446408
0.73042331
0.73847774
0.75015619
0.75829236
0.77042941
0.78103808
0.79628971
62.492712
18.487128
9.9629071
5.3693041
2.8808519
1.5557849
1.0532786
0.84429232
0.80212567
0.75319905
0.73473352
0.71581011
0.70708204
0.70145493
0.70075072
0.70208643
0.70596849
0.71171618
0.71612454
0.72457344
0.73067173
0.73841961
0.75015714
0.7590011
0.77100236
0.78084684
0.79576648
65.638259
14.479621
7.5496271
4.3348846
2.4346102
1.3912464
0.98666144
0.82719193
0.79231558
0.747149
0.73036562
0.71372385
0.70552277
0.70066784
0.70032956
0.70179584
0.70593791
0.71176692
0.716381
0.72479254
0.73127199
0.7387377
0.7502907
0.75922631
0.77143433
0.78063799
0.7951715
68.921056
13.53211
6.1688466
3.4886078
2.0033482
1.213255
0.91389209
0.78971553
0.77247108
0.73208185
0.72340569
0.71003733
0.70379233
0.69997851
0.69991488
0.70186042
0.70636901
0.71264232
0.71778685
0.72628138
0.73365113
0.74038674
0.75161275
0.76011248
0.77253082
0.78142117
0.79477272
72.235196
13.679616
5.8445644
3.2270276
1.8627151
1.1539429
0.89061159
0.77160503
0.76253099
0.72349444
0.72051466
0.70861201
0.70379616
0.70027112
0.7004511
0.70337282
0.70923019
0.7165595
0.72228724
0.7306731
0.73819566
0.74432772
0.75499715
0.76334416
0.77496504
0.78287126
0.79457924
75.467589
14.713144
6.0013644
3.2514193
1.8678172
1.1555934
0.89250355
0.76972026
0.76149
0.72195157
0.72088601
0.7091286
0.70591968
0.70312109
0.70462015
0.70884717
0.71449883
0.72091795
0.72613266
0.73367455
0.74113074
0.74727389
0.75700013
0.76476328
0.77563533
0.7833363
0.79430348
78.340618
17.589802
6.8924991
3.5527812
1.9913043
1.2066937
0.91827408
0.77608256
0.76686137
0.72481681
0.72644055
0.71428199
0.71502851
0.71089916
0.71115252
0.71294973
0.71684262
0.72250701
0.72734294
0.73451239
0.74189431
0.74791733
0.75716596
0.76525608
0.77666384
0.78506849
0.79487709
81.026365
20.18524
8.4846052
4.4953078
2.462238
1.4237273
1.0204887
0.80849054
0.79366333
0.7409789
0.74669075
0.73051093
0.72591258
0.71533122
0.7137531
0.71448917
0.71751576
0.72286477
0.72760734
0.73460582
0.74214308
0.7486507
0.75823395
0.76687324
0.77839634
0.7871224
0.7966229
82.921543
21.535398
9.3102158
5.2241733
2.9405191
1.6987786
1.1419422
0.86969315
0.82601811
0.76940015
0.76530166
0.7434646
0.73376731
0.7204611
0.71743888
0.71661143
0.71841249
0.72318024
0.72794669
0.73470277
0.74251325
0.74922851
0.75883931
0.76747014
0.77892045
0.78773596
0.79723779
84.969153
21.429004
9.4544913
5.4409169
3.1446332
1.8372345
1.2051158
0.90452259
0.83980092
0.78410528
0.77235593
0.74890654
0.73789356
0.72506624
0.72108081
0.71931869
0.72035283
0.72429911
0.72918427
0.73562872
0.74340064
0.74999413
0.7592329
0.76777427
0.77909403
0.78790512
0.79752843
86.19906
21.55574
9.3825038
5.4346541
3.1719329
1.8728001
1.2250692
0.91678678
0.84219218
0.78760269
0.7729394
0.74988004
0.73919135
0.72812877
0.72387235
0.72213499
0.72305303
0.72676328
0.73148977
0.73742041
0.74477402
0.75091454
0.7595787
0.76790661
0.77905621
0.78773415
0.7975688
87.664397
20.719419
8.7265915
5.1286985
3.0722733
1.8485681
1.2184951
0.91608196
0.83910427
0.78656036
0.77069871
0.74927836
0.73913115
0.72923125
0.72502553
0.72341164
0.72427653
0.72775921
0.73218838
0.7377764
0.74480793
0.75078258
0.75925997
0.76750684
0.77861744
0.78713457
0.79718177
88.330694
21.031683
8.0983553
4.5184965
2.7481149
1.7139372
1.1629884
0.89614589
0.82130384
0.77752249
0.76147953
0.74649283
0.73820103
0.72904654
0.72487471
0.7232787
0.72408501
0.72750297
0.73182709
0.73734953
0.7443136
0.75024473
0.7586349
0.76679972
0.77790116
0.78628049
0.7963752
88.972704
20.111735
7.3555376
4.0069056
2.4540466
1.5574046
1.0876843
0.86022441
0.79851217
0.76235036
0.75132927
0.74172393
0.73577267
0.72800329
0.72401006
0.72255383
0.72342393
0.72685115
0.73112311
0.73660739
0.74350894
0.74942616
0.75778205
0.76593279
0.7769702
0.78516193
0.79535878
89.183364
20.024598
7.0980164
3.7422312
2.2729584
1.4522289
1.0327157
0.83552761
0.78352371
0.75263257
0.74453293
0.73689347
0.73178222
0.72545214
0.72194968
0.7208262
0.72188554
0.72540341
0.72971741
0.7352667
0.7421266
0.74811292
0.75644991
0.76470508
0.77547913
0.78345451
0.7938411
88.810458
20.365536
7.0894535
3.6646297
2.1978427
1.400968
1.001249
0.82341355
0.77570861
0.74808561
0.74085201
0.73233588
0.72652183
0.72020617
0.71725628
0.71675873
0.71823009
0.72189528
0.7264091
0.73222981
0.73900551
0.74520378
0.75348909
0.76215039
0.77229109
0.78022809
0.79108117
88.079715
20.305206
7.0842184
3.6428559
2.1610318
1.3725537
0.98254375
0.81753555
0.77201611
0.74606261
0.73858448
0.72767609
0.7208354
0.71363187
0.71035402
0.70965115
0.71110962
0.71498827
0.7199976
0.72634209
0.73347196
0.740309
0.74911208
0.7584968
0.76860381
0.77732826
0.7882803
86.987502
19.710995
7.0666033
3.6351842
2.142299
1.3566559
0.97236638
0.81508317
0.77011513
0.74463869
0.73587394
0.72245649
0.71471228
0.7074257
0.70455638
0.70400754
0.70592929
0.71012993
0.71561334
0.72230754
0.72980167
0.73714514
0.7463715
0.75617478
0.76636151
0.77567035
0.78689649
85.554456
19.06884
7.0078803
3.6293952
2.1351604
1.3511366
0.96846973
0.81370057
0.76756851
0.74164987
0.72937695
0.71651163
0.70950544
0.70332344
0.70115444
0.70080727
0.70307651
0.70752901
0.71331797
0.720262
0.72792662
0.73569292
0.74513617
0.7553781
0.76566829
0.77549324
0.78694228
83.793336
18.503618
6.7657414
3.5688723
2.1055842
1.3354709
0.95645816
0.80755982
0.75902974
0.73351815
0.72167531
0.71178978
0.70599754
0.70087734
0.69919614
0.69917446
0.70176617
0.70678356
0.71254558
0.71987242
0.7273573
0.7353942
0.74479599
0.75512678
0.76547888
0.77538331
0.78698787
81.758955
18.050971
6.5007281
3.3550369
1.9959019
1.2794593
0.92739379
0.79135214
0.74576737
0.72559542
0.71624665
0.70885074
0.70371711
0.69947064
0.698259
0.69858405
0.70162964
0.70665916
0.71271058
0.71999444
0.7279036
0.73622774
0.74621016
0.75649534
0.76670493
0.77717257
0.78953712
79.474927
17.752568
6.3989877
3.1995833
1.8837785
1.2182766
0.89905359
0.7772024
0.73716031
0.72091418
0.7135429
0.7074427