/*--------------------------------*- C++ -*----------------------------------*\
| =========                 |                                                 |
| \\      /  F ield         | OpenFOAM: The Open Source CFD Toolbox           |
|  \\    /   O peration     | Version:  2406                                  |
|   \\  /    A nd           | Website:  www.openfoam.com                      |
|    \\/     M anipulation  |                                                 |
\*---------------------------------------------------------------------------*/
FoamFile
{
    version     2.0;
    format      ascii;
    arch        "LSB;label=32;scalar=64";
    class       volScalarField;
    location    "22";
    object      p;
}
// * * * * * * * * * * * * * * * * * * * * * * * * * * * * * * * * * * * * * //

dimensions      [1 -1 -2 0 0 0 0];

internalField   nonuniform List<scalar> 
96472
(
1.0042728
1.0052666
1.0041037
1.0037023
1.0025687
1.0010833
1.0000248
0.99971768
1.0000301
1.0008205
1.0020789
1.0037072
1.0054484
1.0070017
1.008158
1.0093296
1.0105944
1.0119625
1.0133449
1.014446
1.0152268
1.0155647
1.0155439
1.0150861
1.0142377
1.0129646
1.0114119
1.0096105
1.0076533
1.0056337
1.0036502
1.0017557
0.99999391
0.99836445
0.99683266
0.99549525
0.99415138
0.99318762
0.99200474
0.99103673
0.99027066
0.9895569
0.98888625
0.98811429
0.98797949
0.98729922
0.98696173
0.98641856
0.98637935
0.98601874
0.98570642
0.98512398
0.98525681
0.9847099
0.98486955
1.0042816
1.0052602
1.0040857
1.0036887
1.0025956
1.0011482
1.0001043
0.99978108
1.000062
1.0008047
1.0019744
1.0035632
1.0053228
1.006907
1.0081726
1.0093795
1.0106925
1.0120724
1.0133954
1.0145686
1.0154112
1.0158281
1.0158683
1.0154657
1.0146286
1.0134157
1.0119233
1.0101642
1.0082474
1.0062588
1.0042867
1.0023631
1.0005652
0.99892777
0.99736759
0.99592861
0.99473539
0.99346461
0.99245901
0.99138388
0.99049139
0.98978476
0.98898917
0.98863041
0.98772809
0.98744363
0.98695685
0.98674108
0.98611494
0.98598567
0.98572086
0.98548598
0.98495988
0.98475214
0.98431713
1.0042819
1.005239
1.0040627
1.0036939
1.0026307
1.0012229
1.0001737
0.99985597
1.0001002
1.0007737
1.0018833
1.0033975
1.0051735
1.0068343
1.0081944
1.0093845
1.0107205
1.0121655
1.0135124
1.0146781
1.0155533
1.0160485
1.0161102
1.0157851
1.0149966
1.01386
1.0123873
1.0106914
1.0088017
1.0068479
1.0048652
1.0029804
1.0011713
0.99949415
0.9979071
0.99647585
0.9951307
0.9940327
0.99269294
0.991794
0.99086504
0.98999048
0.98941699
0.98839352
0.98816128
0.98750304
0.98704279
0.9865105
0.9864142
0.98598432
0.98542279
0.9850962
0.98524528
0.98487184
0.984762
1.0042729
1.0052113
1.0040327
1.0036955
1.0026876
1.0013216
1.0002856
0.99994458
1.0001442
1.0007288
1.0017842
1.0032633
1.0050345
1.0067606
1.0082009
1.0094687
1.0107845
1.0122177
1.0136518
1.0148333
1.0157289
1.0162413
1.0163353
1.0160282
1.0153294
1.0142259
1.012829
1.0111887
1.0093459
1.0074273
1.0054903
1.0035702
1.001757
1.0000646
0.99844544
0.99697383
0.9956612
0.99432924
0.99331071
0.99201699
0.99113473
0.99037683
0.98937844
0.98895534
0.98814101
0.98751259
0.98711484
0.98674733
0.98618359
0.98573361
0.98564772
0.98564614
0.98493095
0.98442753
0.98398346
1.0042498
1.0051635
1.0039958
1.0036946
1.002745
1.001436
1.000383
1.0000077
1.0001587
1.0006988
1.0016824
1.0031133
1.0048907
1.0066841
1.008183
1.0095706
1.0109249
1.0123312
1.0137371
1.0149628
1.0158951
1.0164094
1.0165432
1.0162671
1.0156023
1.0145603
1.0132255
1.0116312
1.0098636
1.0079947
1.0060798
1.0042111
1.0023777
1.0006432
0.9990194
0.99751063
0.99612834
0.99493562
0.993499
0.99259991
0.99147365
0.99055597
0.98988481
0.98895669
0.98827491
0.98784366
0.98716237
0.98661882
0.98629164
0.98604937
0.98566798
0.98488693
0.98457137
0.98511119
0.9845071
1.0042116
1.005097
1.0039521
1.003701
1.0027972
1.0015099
1.0004695
1.0000513
1.0001573
1.0006561
1.0015682
1.0029735
1.0047488
1.0065808
1.0082037
1.0096198
1.0110254
1.0124735
1.0138434
1.0150648
1.0160067
1.0165547
1.01671
1.0164852
1.015849
1.0148571
1.0135846
1.0120712
1.0103398
1.008525
1.0066473
1.0047787
1.0029339
1.0012316
0.99957535
0.99805544
0.99667937
0.99529496
0.99419668
0.9927489
0.99192569
0.99092374
0.98999632
0.98923523
0.98863962
0.98776999
0.98723323
0.98685223
0.98635336
0.98587944
0.98523471
0.98535475
0.98545062
0.98400706
0.98450008
1.0041576
1.0050233
1.0039016
1.0036816
1.0028409
1.0015843
1.0005235
1.0000824
1.0001444
1.000587
1.0014793
1.0028358
1.0046237
1.0064966
1.0082235
1.0096954
1.0111036
1.012571
1.0139838
1.0151922
1.0161218
1.0166967
1.0168563
1.0166594
1.0160671
1.0151312
1.0139135
1.0124642
1.0108138
1.0090389
1.0071905
1.0053479
1.0035792
1.0017859
1.0001658
0.99859436
0.99712419
0.9958942
0.99439563
0.99346365
0.99214381
0.99124954
0.99039625
0.98952336
0.98860596
0.98805357
0.98749982
0.98682793
0.98632669
0.98584759
0.98585167
0.98515795
0.98451893
0.98453214
0.98372123
1.0040953
1.0049325
1.0038337
1.0036698
1.0028581
1.0016263
1.0005507
1.0000678
1.0001044
1.0005146
1.0013662
1.0027293
1.0044958
1.0064238
1.0082054
1.0098097
1.0112606
1.0126897
1.0141119
1.0153201
1.0162593
1.0168268
1.0169964
1.0168113
1.0162634
1.0153719
1.0142104
1.0128393
1.0112241
1.0095482
1.0077596
1.0059507
1.0041042
1.002414
1.0007076
0.99911458
0.99772187
0.9962466
0.99509374
0.99357978
0.9926941
0.99166412
0.9905659
0.98969045
0.98906649
0.98826577
0.987462
0.98690758
0.9864739
0.98608194
0.98548064
0.98513566
0.98439744
0.98495518
0.98464713
1.0040262
1.0048303
1.0037665
1.003652
1.0028682
1.0016299
1.0005564
1.0000288
1.0000234
1.0004414
1.0012735
1.0026043
1.0043831
1.0063496
1.0081939
1.0098854
1.0114118
1.0128578
1.0142407
1.0154454
1.0163818
1.0169389
1.0171231
1.0169593
1.016442
1.0155952
1.0144996
1.0131822
1.0116688
1.0099891
1.0082691
1.0064763
1.0047278
1.0029275
1.0012798
0.99971145
0.99815073
0.99688465
0.99535724
0.99423909
0.99304563
0.99182972
0.99100199
0.99019272
0.98913919
0.98830844
0.9877492
0.98723624
0.9865332
0.98617571
0.98516777
0.98535101
0.98541285
0.98393516
0.98356107
1.0039558
1.0047296
1.0037038
1.0036384
1.0028335
1.0016047
1.0004913
0.9999248
0.99992757
1.000344
1.0011928
1.002515
1.0042914
1.0062714
1.008226
1.0099584
1.011516
1.0130023
1.0143801
1.0155734
1.0164927
1.0170561
1.0172447
1.0170912
1.0166084
1.0158113
1.0147618
1.0135254
1.0120527
1.0104631
1.0087525
1.0070029
1.0052133
1.0035492
1.0018268
1.0001984
0.99878249
0.99723019
0.99595128
0.99459179
0.99330885
0.99245633
0.99134317
0.99018904
0.9894287
0.98879987
0.98794092
0.98716311
0.98664345
0.98588488
0.98627126
0.98504272
0.98426248
0.98475919
0.98404028
1.0038891
1.0046385
1.0036538
1.0036063
1.0027892
1.0015336
1.0004082
0.99981434
0.99981313
1.0002596
1.0011184
1.0024478
1.0042162
1.006219
1.0082217
1.0100489
1.0116567
1.0131487
1.0145458
1.0157199
1.016629
1.0171823
1.0173692
1.017222
1.0167685
1.0160151
1.0150147
1.0138105
1.0124329
1.0108788
1.0092469
1.0075214
1.0058302
1.0040898
1.0023875
1.0007813
0.99916009
0.99781767
0.99634855
0.99496826
0.99391525
0.99263917
0.99152727
0.99074749
0.98988991
0.98873346
0.98806915
0.98739347
0.98716234
0.98624318
0.98555103
0.9852062
0.98512701
0.98411929
0.98474291
1.0038308
1.0045773
1.0036219
1.0035799
1.0027398
1.0014448
1.0002923
0.99970853
0.99970353
1.0001752
1.001067
1.0023977
1.0041629
1.0061771
1.0082099
1.0101464
1.0118256
1.0133239
1.0147142
1.015881
1.0167767
1.0173111
1.0174893
1.0173614
1.0169268
1.0162152
1.0152524
1.0141298
1.0127529
1.0113036
1.0097112
1.008054
1.0062937
1.0046039
1.0028936
1.0012518
0.99978166
0.99824752
0.99681105
0.99553588
0.99414825
0.9930508
0.99211977
0.99098496
0.989818
0.98920348
0.98846321
0.98791123
0.98651583
0.9866832
0.98579059
0.98543404
0.98520281
0.98434831
0.98347402
1.0037881
1.0045411
1.0036212
1.0035775
1.0026773
1.0013364
1.0001684
0.99957004
0.99959124
1.0001128
1.0010467
1.002394
1.0041475
1.0061552
1.0082186
1.0102102
1.0119638
1.0135037
1.0148947
1.0160477
1.0169259
1.0174461
1.0176184
1.0175015
1.0170862
1.0164033
1.0155014
1.0143972
1.0131351
1.0116694
1.0101143
1.0084693
1.00681
1.0050942
1.0033851
1.0017693
1.0002031
0.99873848
0.99729043
0.99583819
0.99466018
0.99350573
0.99225097
0.99120754
0.99047085
0.9895518
0.98846757
0.98764331
0.98744509
0.98658788
0.98613983
0.98564375
0.98423651
0.98502457
0.98452063
1.0037695
1.0045572
1.0036663
1.0036021
1.002616
1.0012322
1.0000428
0.99944552
0.99949691
1.0000812
1.0010423
1.0024045
1.0041399
1.0061409
1.0082573
1.0102909
1.0121013
1.0136881
1.0150893
1.0162378
1.017094
1.0176019
1.0177692
1.0176462
1.0172521
1.0165926
1.0157102
1.0146736
1.0134225
1.0120594
1.0105307
1.0089365
1.0072372
1.0056218
1.0039379
1.0022903
1.0006933
0.99919086
0.99770397
0.99633339
0.99504423
0.99376166
0.99275157
0.991774
0.99062578
0.98947744
0.9890113
0.98817356
0.98774031
0.98656764
0.98607902
0.9854914
0.98578191
0.98443725
0.98414753
1.0037803
1.0046258
1.0037656
1.0036645
1.0025885
1.0011332
0.9999172
0.99932778
0.99942684
1.000079
1.0010932
1.0024632
1.0041902
1.0061694
1.0082754
1.0103787
1.0122561
1.0138926
1.0152975
1.0164464
1.017281
1.0177733
1.0179236
1.0177997
1.017421
1.0167849
1.015932
1.0149135
1.0137328
1.0123659
1.0109212
1.0093598
1.0077353
1.0060499
1.0043746
1.0027031
1.0011502
0.99965238
0.99815336
0.99673679
0.99541277
0.99426558
0.99309564
0.99189695
0.99091737
0.99022294
0.98914227
0.98855545
0.98720417
0.98712437
0.98685472
0.98577309
0.98523991
0.98490673
0.98390359
1.0038184
1.004772
1.003916
1.0037691
1.0025858
1.0010589
0.99981817
0.99922982
0.99938063
1.0000999
1.0011802
1.0025599
1.0042552
1.0062119
1.0083113
1.010452
1.0124144
1.0140914
1.0155309
1.0166497
1.017477
1.0179458
1.0180837
1.017959
1.0175869
1.0169713
1.0161461
1.0151759
1.0139945
1.0127122
1.0112655
1.0097326
1.0081038
1.0064562
1.0048189
1.0031218
1.0015922
1.000068
0.99861988
0.99712164
0.99585833
0.99463322
0.99341331
0.99240665
0.99139566
0.99033222
0.98939255
0.98849713
0.98825099
0.98749318
0.98630642
0.98606536
0.98561831
0.98453754
0.98532934
1.0038854
1.0049698
1.0041113
1.0039066
1.0026253
1.0010145
0.99974292
0.99917364
0.99938079
1.000172
1.0012934
1.0026884
1.0043638
1.0062837
1.0083807
1.0105373
1.0125527
1.0142914
1.0157603
1.0168814
1.017672
1.0181381
1.0182588
1.0181236
1.0177529
1.0171442
1.0163613
1.0153769
1.014277
1.01299
1.0115721
1.0100926
1.0084826
1.0069034
1.0052101
1.0036688
1.0020157
1.000536
0.99899296
0.99759425
0.99625591
0.9949625
0.99385165
0.99272014
0.99163627
0.99058749
0.98996044
0.98917486
0.98808795
0.98754507
0.98671624
0.98661159
0.98587896
0.98502383
0.98493697
1.0039719
1.0052139
1.0043989
1.0040842
1.0026912
1.0010228
0.99971177
0.99915003
0.99941391
1.0002593
1.0014352
1.0028541
1.004501
1.0063877
1.0084526
1.0106286
1.0127091
1.0144954
1.0159923
1.0171235
1.0178778
1.0183195
1.0184296
1.0182783
1.0179093
1.0173199
1.0165376
1.0155956
1.0144811
1.0132523
1.0119071
1.0104116
1.0088785
1.0072336
1.0056803
1.0039692
1.0024335
1.000899
0.99946716
0.99798588
0.99657211
0.99539248
0.99426363
0.99310301
0.99203663
0.99119557
0.99005539
0.98914053
0.98859397
0.98781623
0.98735285
0.98689395
0.98514884
0.98632252
0.9843675
1.0040864
1.005528
1.0046843
1.004292
1.0027892
1.0010643
0.99971368
0.9991651
0.99947359
1.0003959
1.0016265
1.0030373
1.0046658
1.0065061
1.0085307
1.0107233
1.0128516
1.0147065
1.0162259
1.0173454
1.0181046
1.0184998
1.0185867
1.0184374
1.0180682
1.0174916
1.0167155
1.015792
1.0147174
1.0134984
1.0121617
1.010738
1.009177
1.007637
1.0059647
1.0044036
1.0027825
1.0013166
0.9998227
0.99836356
0.99706455
0.9958192
0.99455406
0.99351025
0.99238559
0.99135971
0.99045139
0.98963891
0.98919829
0.98782966
0.98789835
0.98631089
0.9865961
0.98573423
0.98509423
1.0042059
1.0058932
1.0050424
1.0045342
1.0029331
1.0011366
0.99976592
0.99921269
0.9995839
1.0005611
1.0018244
1.0032474
1.0048503
1.0066418
1.0086344
1.0108119
1.0129768
1.0148881
1.0164524
1.0175681
1.0183054
1.0186903
1.0187425
1.0185798
1.0182163
1.017642
1.0168891
1.0159728
1.0149047
1.0137508
1.0124112
1.0109701
1.0095151
1.0079219
1.0063651
1.0047811
1.0032161
1.0017212
1.0002492
0.99883005
0.99745399
0.99610977
0.99500146
0.99380451
0.99286953
0.99175504
0.99081676
0.99024408
0.98876716
0.98882887
0.98769851
0.98697454
0.98712286
0.98548554
0.98574917
1.0043522
1.0062531
1.0053791
1.0047973
1.003092
1.0012326
0.99983396
0.99929541
0.99970627
1.0007371
1.0020586
1.003488
1.0050484
1.0067906
1.0087414
1.0109124
1.0130805
1.0150555
1.0166469
1.0177925
1.0184973
1.0188566
1.0189136
1.0187229
1.0183487
1.0177858
1.0170461
1.0161296
1.0150964
1.0139376
1.0126414
1.0112784
1.0097927
1.008281
1.0067177
1.0051035
1.0036033
1.0020888
1.0006312
0.9992004
0.99780084
0.99658535
0.99535684
0.99432009
0.99313517
0.99214029
0.99133231
0.9901699
0.98955801
0.98912565
0.98766107
0.9880286
0.98652585
0.98647515
0.98564432
1.0044837
1.0066348
1.0057286
1.00505
1.0032727
1.0013564
0.99993191
0.99940033
0.99983777
1.0009218
1.0022746
1.0037082
1.005246
1.006938
1.008838
1.0109763
1.0131767
1.0151855
1.0168246
1.0179844
1.0186821
1.0190115
1.0190508
1.0188577
1.0184857
1.0179215
1.0171788
1.0162952
1.0152788
1.0141372
1.012862
1.0115162
1.0100794
1.0085796
1.007025
1.0054894
1.0039212
1.002427
1.0010286
0.99958905
0.9982583
0.99697684
0.99575863
0.99462937
0.99353761
0.99262037
0.99161305
0.9905321
0.99035432
0.98865556
0.98882776
0.98771677
0.98724294
0.98658826
0.9860298
1.0046328
1.0069746
1.0060515
1.0053101
1.003457
1.0014912
1.0000433
0.99951626
0.9999795
1.0011027
1.002473
1.0039151
1.005425
1.0070682
1.0089225
1.0110239
1.0132295
1.0152867
1.0169666
1.0181393
1.0188332
1.0191657
1.019171
1.0189778
1.01861
1.0180517
1.0173176
1.0164561
1.0154502
1.0143247
1.0130942
1.0117614
1.0103518
1.008868
1.007364
1.0058164
1.0043069
1.0028734
1.0014212
1.0000015
0.99867684
0.99733404
0.99618207
0.9950012
0.99400472
0.99298838
0.99181321
0.99137378
0.99009838
0.98948727
0.9890636
0.98797681
0.98770652
0.98661597
0.98682175
1.0047311
1.0072764
1.0063378
1.0055493
1.0036317
1.0016233
1.0001591
0.99961896
1.0000988
1.0012462
1.0026463
1.0040845
1.0055756
1.0071738
1.0089784
1.0110477
1.0132483
1.0153219
1.0170579
1.018251
1.0189524
1.0192741
1.0192944
1.0190835
1.0187117
1.0181691
1.0174494
1.0166047
1.0156127
1.0145145
1.0132916
1.0120049
1.0106118
1.009187
1.0076895
1.006145
1.0046715
1.0032205
1.001784
1.0004437
0.99903197
0.99776171
0.99653809
0.99549222
0.99437782
0.99327261
0.99248878
0.9915507
0.99040397
0.99025762
0.98892354
0.98865219
0.98762025
0.98767759
0.98665299
1.0048396
1.007539
1.0065589
1.0057534
1.0037965
1.001749
1.0002601
0.99971911
1.0001976
1.0013521
1.0027733
1.0042064
1.0056775
1.0072365
1.0089952
1.0110349
1.0132273
1.015323
1.0170843
1.0183193
1.019037
1.019352
1.0193797
1.0191771
1.0188074
1.0182847
1.0175742
1.0167513
1.0157784
1.0147131
1.0135312
1.0122566
1.010898
1.0094835
1.0080164
1.0065454
1.0050462
1.0035543
1.0021928
1.0007871
0.99947632
0.99817833
0.99702779
0.99580019
0.99481819
0.99378402
0.99295363
0.99167633
0.99126561
0.99017849
0.98949029
0.98892706
0.98821587
0.98807522
0.98648682
1.004878
1.0077425
1.0067199
1.0058735
1.0039159
1.0018461
1.0003463
0.99977631
1.0002529
1.0014157
1.0028366
1.0042652
1.0057179
1.0072484
1.0089703
1.0109738
1.0131616
1.0152688
1.0170701
1.0183373
1.0190763
1.0194135
1.0194262
1.019256
1.0188984
1.0183931
1.017689
1.0168972
1.0159499
1.0149076
1.0137335
1.0124627
1.011196
1.0097899
1.0083568
1.0068179
1.0054499
1.0039988
1.0025646
1.0012439
0.9999264
0.99864051
0.99736368
0.99628907
0.99515582
0.99424579
0.99311329
0.99231343
0.99155004
0.99051439
0.98993343
0.98940543
0.98861484
0.98785939
0.987381
1.0049133
1.007798
1.0068049
1.0060396
1.0040096
1.0019206
1.0003972
0.99983473
1.0002667
1.0014266
1.0028454
1.0042751
1.0057147
1.0072192
1.0089074
1.0108715
1.0130357
1.0151536
1.0169919
1.0182958
1.0190733
1.0194272
1.0194767
1.0193127
1.0189721
1.0184806
1.017804
1.0170217
1.0161206
1.0150935
1.0140176
1.0127278
1.0113958
1.0101527
1.0086833
1.0072705
1.0057888
1.0042927
1.0029986
1.0016641
1.0003436
0.99900126
0.99781011
0.99665856
0.99564027
0.99472054
0.99365088
0.99276511
0.99173542
0.99110057
0.9904511
0.98942421
0.98914847
0.98811647
0.98812222
0.98701201
0.98688881
0.98657621
0.98601823
0.9856243
0.98551611
0.98522835
0.98484151
0.98473875
0.98461565
0.98413989
0.98378282
0.98422365
0.98384421
0.98346696
0.98414602
0.98322431
0.98380105
0.984029
0.98327233
0.98429105
0.98362198
0.98391804
0.98427965
0.98383417
0.98432219
0.98405068
0.98641074
0.98591929
0.98567415
0.98539163
0.98513215
0.98477918
0.98455067
0.98435068
0.98409148
0.9838922
0.98372708
0.98371669
0.98326948
0.98339608
0.98349037
0.98292235
0.98367668
0.98303268
0.98321836
0.98365839
0.98299184
0.98383453
0.98335166
0.98360441
0.98367848
0.98364758
0.98380277
0.98548765
0.9852732
0.9849364
0.98469656
0.98445871
0.98416948
0.98402977
0.9837347
0.98350236
0.98344267
0.9831873
0.98300737
0.98313639
0.98279191
0.98284571
0.98305892
0.98251262
0.98322078
0.98276498
0.98284351
0.98326607
0.98273766
0.98339806
0.98296602
0.98331433
0.9832117
0.98326194
0.98470943
0.9845599
0.9843733
0.98396545
0.98382581
0.98366234
0.98321914
0.98331674
0.98295788
0.98267408
0.98291756
0.98244403
0.98242303
0.98262924
0.98222526
0.98248006
0.98254339
0.98217938
0.9828224
0.98238687
0.98262963
0.98274784
0.98254299
0.98290975
0.98268792
0.98284384
0.98280805
0.98412999
0.98388624
0.98363183
0.98344563
0.98308993
0.98304974
0.98276639
0.98242672
0.98265552
0.98222324
0.98199901
0.98242165
0.9817835
0.98199579
0.98216474
0.98165349
0.98219805
0.98196391
0.98193487
0.98238243
0.98200901
0.98239982
0.98221739
0.98240285
0.98238014
0.98242593
0.98240962
0.9834669
0.98307946
0.98294387
0.98288353
0.98241943
0.98238991
0.98234964
0.98189603
0.98194579
0.98198133
0.98158229
0.98162593
0.98184627
0.98132691
0.98168169
0.98169412
0.98128515
0.98194768
0.98136875
0.98189412
0.9817248
0.98184512
0.98194902
0.98192885
0.98198014
0.98206698
0.98192517
0.98273271
0.98252079
0.98219746
0.98225572
0.98205766
0.98157153
0.9818935
0.98159982
0.98119955
0.98162839
0.98127888
0.98111482
0.98138307
0.98123263
0.98110641
0.98132229
0.98127329
0.98114927
0.98157942
0.98102836
0.98170167
0.98120198
0.98173208
0.98141285
0.98176338
0.98145245
0.9816578
0.98206456
0.98215342
0.98156655
0.98154575
0.98172234
0.98113833
0.98108863
0.98137707
0.9808509
0.98084329
0.98120658
0.98064634
0.98092071
0.98097999
0.98072637
0.98100622
0.98091642
0.98099719
0.98098399
0.98119915
0.98089722
0.98133284
0.98095322
0.98135325
0.98113663
0.98132508
0.98121346
0.98138935
0.9815919
0.98121665
0.98087097
0.9811699
0.98090896
0.980496
0.9808933
0.98071062
0.98033707
0.98071298
0.98064445
0.98025801
0.98077927
0.98054812
0.98046335
0.98090636
0.98046688
0.98091081
0.98070309
0.98088269
0.98087324
0.98087786
0.98094981
0.9808235
0.98099353
0.98093543
0.98092181
0.98089003
0.98091199
0.98046702
0.98044869
0.98072641
0.9801547
0.98018907
0.980619
0.97995331
0.98028678
0.98039795
0.97990551
0.98053544
0.9801135
0.98041108
0.98039798
0.98042455
0.98053545
0.98046457
0.98070102
0.98047202
0.98083393
0.98059679
0.98073787
0.98062931
0.98063745
0.98054969
0.98032281
0.98047779
0.98016634
0.97991571
0.98032778
0.97999075
0.97967937
0.98029056
0.97984371
0.97971609
0.98031234
0.97964981
0.98007059
0.9801688
0.97984402
0.98039925
0.98001574
0.98035383
0.98028753
0.98038609
0.9805035
0.98036961
0.98054736
0.98045196
0.98053602
0.98042859
0.98005056
0.97997526
0.98005141
0.97964318
0.97976575
0.97992424
0.97951719
0.9797806
0.97973256
0.97960978
0.97982004
0.979616
0.97985511
0.97970875
0.97996288
0.97980894
0.97999438
0.98005257
0.97996281
0.98027005
0.98003324
0.98049619
0.98011862
0.98052739
0.9802327
0.98038239
0.98032044
0.97963502
0.97961581
0.97947055
0.9795423
0.9794405
0.97936895
0.9796268
0.9793664
0.97945972
0.97963878
0.97940517
0.97969567
0.97962747
0.9795617
0.97993942
0.97962647
0.97993336
0.97997048
0.97981576
0.98022807
0.97993032
0.98029682
0.9801107
0.98030005
0.9803249
0.98024278
0.98030031
0.97922847
0.97934636
0.97934408
0.97915025
0.97927547
0.9793752
0.97914456
0.97941909
0.97935681
0.97932231
0.97958768
0.9794362
0.9796264
0.97954867
0.97979507
0.97970194
0.97984596
0.9800184
0.97975134
0.98033954
0.97978668
0.98039131
0.98006054
0.98037219
0.98017137
0.98036953
0.9803253
0.97893043
0.97916226
0.97915236
0.97905153
0.97934126
0.97916451
0.97911863
0.97959919
0.97917675
0.9793753
0.97972133
0.9793426
0.97975193
0.97959478
0.97967291
0.97989573
0.97983605
0.98003102
0.97999189
0.98027269
0.9799865
0.98046682
0.98006323
0.98063498
0.98020355
0.98052446
0.98047133
0.97889608
0.97920248
0.9791748
0.97926953
0.97912942
0.97940682
0.97927665
0.9793796
0.97958234
0.97937518
0.97988513
0.97956299
0.97978822
0.9800744
0.97949381
0.98034682
0.97977594
0.98026462
0.98031055
0.98015345
0.98050477
0.98036518
0.98049764
0.98059216
0.9806491
0.98060975
0.9808553
0.9789553
0.97898436
0.97912053
0.97935868
0.97941484
0.9795137
0.9795876
0.97946288
0.97976816
0.9797793
0.9797121
0.98005617
0.98001798
0.98008398
0.98023426
0.98027205
0.98028954
0.98042328
0.98067081
0.98042085
0.98093247
0.98061869
0.9807709
0.98096899
0.98092934
0.980968
0.9812157
0.98055526
0.97788711
0.98000359
0.97943824
0.97995608
0.97992412
0.9796783
0.97991452
0.98007494
0.97985537
0.98017178
0.98030546
0.98021495
0.98050405
0.98067521
0.98066725
0.98071214
0.9809256
0.98099374
0.98089084
0.98137872
0.98106931
0.98124754
0.98151266
0.98127701
0.9815211
0.98169358
0.98086562
0.98110739
0.98083569
0.98024614
0.98037738
0.98020854
0.97996556
0.98052528
0.98013555
0.98026685
0.98078335
0.98030989
0.98084945
0.98085308
0.98103453
0.98133337
0.9810147
0.98184263
0.98123812
0.98176198
0.98181141
0.98180265
0.981815
0.98212261
0.98195705
0.98210613
0.98230765
0.97888115
0.97974957
0.97993942
0.97991558
0.98013154
0.98033974
0.98049417
0.98061194
0.98056142
0.98100829
0.98107374
0.98101287
0.98141565
0.98134964
0.98170982
0.98169559
0.98185654
0.98229597
0.98202167
0.98251798
0.98249399
0.98267226
0.98256657
0.98297454
0.98277275
0.98287808
0.98306212
0.97897915
0.97899889
0.979854
0.98009998
0.98056489
0.98076274
0.98107623
0.98103445
0.98155873
0.981535
0.98183916
0.98193717
0.98202783
0.98255686
0.98214354
0.98284485
0.98267761
0.98296294
0.98312644
0.98310534
0.98368895
0.98341778
0.98376879
0.98376778
0.98388773
0.98383471
0.98405941
0.98149508
0.98126679
0.98162963
0.98154367
0.9818023
0.98184552
0.98215968
0.98228848
0.98255504
0.98281058
0.98276028
0.98307227
0.9834019
0.98318419
0.98362935
0.98355856
0.98405868
0.98401267
0.98407381
0.98452874
0.98444281
0.98491132
0.98458628
0.98518643
0.98491133
0.98518795
0.98514874
0.98270996
0.98185346
0.98314827
0.98262721
0.98318484
0.98289479
0.98351573
0.98348013
0.98385754
0.98412004
0.98373573
0.98457206
0.98449166
0.9844941
0.98506569
0.98463277
0.98561937
0.98502008
0.9855304
0.98577441
0.98573214
0.98633001
0.98579545
0.98667573
0.98621003
0.9866674
0.98645955
0.98347309
0.98365625
0.98389845
0.98386774
0.98448806
0.98434112
0.98479957
0.98484329
0.98534868
0.98517626
0.98540213
0.98587896
0.98582492
0.98614221
0.98605638
0.98652261
0.98682774
0.98665803
0.98700664
0.98720455
0.98742895
0.9877266
0.98747729
0.9880472
0.98788768
0.98819754
0.9880766
0.98566196
0.98543808
0.98560707
0.98581087
0.98598764
0.98599339
0.98644644
0.98659213
0.98678706
0.98694632
0.9869466
0.98770929
0.98754938
0.98775832
0.98797042
0.98811467
0.98874463
0.98822489
0.98886807
0.98877103
0.98934998
0.98943739
0.98930427
0.98972831
0.98967954
0.990101
0.98993682
0.98698371
0.98695681
0.98750491
0.98750968
0.98782006
0.98796473
0.98822017
0.98873026
0.98867172
0.98879566
0.98931093
0.98930559
0.9899678
0.98952128
0.98998894
0.99026183
0.99032549
0.99086823
0.99037195
0.99134636
0.9910731
0.99172114
0.99132517
0.99166012
0.99174494
0.99210601
0.99213271
0.98887702
0.98921854
0.98968999
0.98973368
0.99007584
0.99022121
0.99044315
0.9910351
0.99087553
0.99115872
0.99156555
0.99155604
0.99229199
0.99180131
0.99243391
0.99249159
0.99279046
0.99326839
0.99276566
0.99369619
0.99317459
0.9941156
0.99354541
0.99404138
0.99391297
0.99435235
0.99447632
0.99157969
0.99182139
0.99214743
0.99226757
0.99261385
0.99277853
0.99307319
0.99350944
0.99336067
0.99383517
0.9939862
0.99424517
0.99473312
0.99437209
0.9951307
0.99483756
0.99560671
0.99548563
0.99552379
0.9959523
0.9957327
0.9965617
0.99606976
0.99668407
0.99640948
0.9969367
0.99698156
0.99440857
0.99463966
0.99494875
0.99512346
0.99536968
0.99562152
0.99596013
0.99607916
0.99637767
0.99644032
0.9968278
0.99714372
0.99716393
0.99755897
0.99746667
0.99795967
0.9980793
0.99829384
0.99843375
0.99848253
0.99885875
0.99883834
0.99929387
0.99914191
0.99948722
0.99944222
0.99973943
0.99740347
0.99771043
0.99803165
0.99818584
0.99840806
0.99868292
0.99896974
0.99917401
0.9995441
0.99940189
0.99998007
1.0000164
1.0003442
1.000647
1.0004341
1.0010866
1.0008059
1.0016143
1.0013283
1.0016727
1.0017011
1.0017752
1.0023646
1.0020617
1.0024993
1.0021269
1.0025139
1.0008569
1.0010424
1.0013729
1.0015455
1.0017585
1.0019436
1.002329
1.0025816
1.0027242
1.0028164
1.0031426
1.0032711
1.0038155
1.0037099
1.0038894
1.0039838
1.0041679
1.0046781
1.0044964
1.0048614
1.0046453
1.0049774
1.0051554
1.0052134
1.0053749
1.0052877
1.0054149
1.0043408
1.0046578
1.0049338
1.0051336
1.005336
1.0054468
1.0057599
1.0059786
1.0062025
1.0063034
1.0064946
1.0066312
1.0069981
1.0069872
1.0072346
1.0073331
1.0073325
1.0077301
1.0074549
1.0080616
1.0078082
1.0081504
1.0080113
1.0080989
1.008337
1.0084058
1.0085214
1.0081961
1.0082677
1.0084878
1.0086606
1.008894
1.0090161
1.0091739
1.0092729
1.0095085
1.0097661
1.0098233
1.0098935
1.0100958
1.0100379
1.0105778
1.0104088
1.0106001
1.0105306
1.0104985
1.0109824
1.0108272
1.011208
1.0108396
1.0110501
1.0110711
1.0112949
1.011343
1.011643
1.0116993
1.0118297
1.011985
1.0121658
1.012253
1.0123473
1.0123979
1.0125791
1.0128684
1.0128495
1.0129741
1.0129796
1.0129728
1.0133862
1.0132371
1.0135307
1.0133054
1.013472
1.013492
1.013548
1.0137267
1.0136657
1.0138307
1.0137148
1.013804
1.0137761
1.0145341
1.0145918
1.014694
1.0148383
1.0149693
1.0150266
1.0151314
1.0151549
1.0152717
1.0154135
1.0154168
1.0156354
1.0155941
1.0156434
1.0156968
1.0156238
1.0159043
1.0158071
1.0160491
1.0158071
1.015865
1.0158564
1.0159871
1.0161401
1.0160435
1.0160148
1.0159131
1.0170672
1.0170664
1.0171026
1.0171583
1.0171943
1.0172425
1.0173594
1.0173818
1.0174448
1.0174064
1.0174143
1.017617
1.0176424
1.0177542
1.0176032
1.0175746
1.0176866
1.0177051
1.0178942
1.0176597
1.017721
1.0175376
1.0177194
1.0177129
1.0177551
1.0176249
1.0175493
1.0186619
1.0186548
1.0187164
1.0187645
1.0187034
1.0187181
1.0188172
1.0188425
1.0189137
1.0188063
1.0187865
1.0188852
1.0189449
1.0190512
1.0188965
1.0188411
1.0188107
1.018851
1.0189752
1.0188558
1.0188667
1.0186429
1.0186907
1.0186505
1.018739
1.0186628
1.0185715
1.0195648
1.019596
1.0196404
1.0196386
1.0195495
1.0195073
1.0195825
1.019609
1.0196706
1.0195847
1.0195159
1.0195333
1.0195623
1.019625
1.0195667
1.0194839
1.019431
1.0194095
1.0194423
1.0193743
1.0193275
1.0192112
1.0191721
1.0191476
1.0191315
1.019039
1.0189437
1.0198027
1.0198575
1.0199006
1.0199049
1.0198829
1.0198244
1.019819
1.019821
1.019838
1.0198233
1.0198261
1.0197774
1.0197335
1.0197069
1.0196813
1.0196364
1.0196627
1.0195972
1.0195886
1.0194167
1.0193512
1.0192489
1.0192716
1.0192397
1.0191719
1.0189904
1.0188613
1.0198307
1.0197844
1.0197655
1.0197821
1.0198281
1.019824
1.019765
1.0196744
1.0196396
1.0196765
1.0196676
1.0197385
1.0195742
1.0195579
1.0194074
1.0194348
1.0194641
1.0194238
1.0193789
1.0191337
1.019097
1.0189973
1.0191147
1.0190038
1.0188786
1.0186143
1.018516
1.0195776
1.0195034
1.0194091
1.0194034
1.0195085
1.0195344
1.0195071
1.0194068
1.0192513
1.0193136
1.0192381
1.0194275
1.0192073
1.0192427
1.0189415
1.0190241
1.0189652
1.0189949
1.018939
1.0186686
1.0186879
1.0184793
1.0186919
1.0184177
1.018416
1.0180627
1.0180684
1.0190027
1.0189419
1.0188752
1.018854
1.0189231
1.019001
1.0189224
1.0189209
1.0186691
1.0188091
1.0186309
1.0188767
1.0185917
1.0186644
1.0183529
1.0184399
1.0183895
1.0183807
1.0183331
1.0180296
1.0180792
1.0178094
1.0180524
1.0177434
1.0177935
1.017436
1.0174234
1.0182636
1.018273
1.0182429
1.0182724
1.0181896
1.0183554
1.0181513
1.0183467
1.0180012
1.0182374
1.0179135
1.0181589
1.0179
1.0179178
1.0178173
1.0176346
1.0178515
1.0174439
1.0178001
1.0171424
1.0175697
1.0169959
1.0174065
1.0169696
1.0170588
1.0167504
1.016711
1.0175757
1.0177011
1.017653
1.0177707
1.017516
1.0176667
1.0174362
1.0177018
1.0174386
1.0175948
1.0173031
1.0173289
1.0172699
1.0170991
1.0173151
1.0167764
1.0172685
1.0165109
1.0171617
1.0163619
1.0168579
1.0163542
1.0164991
1.0163839
1.016152
1.0161781
1.0159464
1.0170521
1.0171657
1.0170901
1.01726
1.0170045
1.0170649
1.0169686
1.0169382
1.0171708
1.0166878
1.0171329
1.01627
1.016979
1.0162598
1.016819
1.0163445
1.0162002
1.0163706
1.0156913
1.0165723
1.0154683
1.0163285
1.0153084
1.0158255
1.0154274
1.0155461
1.0153808
1.0167549
1.0166384
1.0167389
1.0165363
1.016724
1.0166687
1.0165169
1.0166659
1.016301
1.0165473
1.0162313
1.0163169
1.0160892
1.0161279
1.0159712
1.0158979
1.0157423
1.0155414
1.0156178
1.0153834
1.0155513
1.0150851
1.0152597
1.0148152
1.0151054
1.0148278
1.014862
1.016489
1.0163973
1.01622
1.0161102
1.0164051
1.0164448
1.0162685
1.016257
1.0159025
1.0158579
1.0162009
1.0157581
1.0161322
1.0153827
1.0156175
1.0153275
1.0153704
1.0154519
1.0149178
1.0153007
1.0144282
1.015183
1.0142948
1.0149708
1.0142104
1.014494
1.0141299
1.0161357
1.0161313
1.016318
1.0159652
1.0160881
1.0161152
1.0159097
1.0162231
1.0155648
1.0158911
1.0155642
1.0157661
1.0155884
1.0153352
1.0152955
1.014894
1.0153501
1.0147072
1.015263
1.014197
1.0147785
1.014098
1.0145928
1.0141961
1.0141421
1.0138464
1.0137437
1.0160587
1.0161321
1.0159542
1.0162739
1.0158265
1.0159191
1.0159543
1.0155691
1.0162014
1.0152264
1.015864
1.0151596
1.0154074
1.015476
1.0147598
1.0155369
1.0141688
1.0153033
1.0141522
1.0147623
1.014252
1.0139474
1.0143328
1.0136161
1.0141325
1.0134589
1.0136051
1.0162334