/*--------------------------------*- C++ -*----------------------------------*\
| =========                 |                                                 |
| \\      /  F ield         | OpenFOAM: The Open Source CFD Toolbox           |
|  \\    /   O peration     | Version:  2406                                  |
|   \\  /    A nd           | Website:  www.openfoam.com                      |
|    \\/     M anipulation  |                                                 |
\*---------------------------------------------------------------------------*/
FoamFile
{
    version     2.0;
    format      ascii;
    arch        "LSB;label=32;scalar=64";
    class       volScalarField;
    location    "22";
    object      p_0;
}
// * * * * * * * * * * * * * * * * * * * * * * * * * * * * * * * * * * * * * //

dimensions      [1 -1 -2 0 0 0 0];

internalField   nonuniform List<scalar> 
96472
(
1.004267
1.0052515
1.0040819
1.0036854
1.0025702
1.001099
1.0000421
0.99972968
1.0000376
1.0008223
1.0020735
1.0037021
1.0054459
1.0070144
1.008182
1.0093615
1.0106242
1.0119814
1.0133558
1.0144621
1.0152405
1.0155721
1.0155477
1.0150832
1.0142269
1.0129525
1.011402
1.0096012
1.0076462
1.0056277
1.0036465
1.00175
0.99997971
0.99836766
0.996825
0.99547905
0.99415355
0.99316975
0.99202942
0.99099826
0.99029191
0.98953288
0.98891456
0.988091
0.98797087
0.98728538
0.98692476
0.98643493
0.98638515
0.98597936
0.98565175
0.9851293
0.98526562
0.98469659
0.98481718
1.0042762
1.0052493
1.0040698
1.0036794
1.0026045
1.0011689
1.0001226
0.99979446
1.0000715
1.0008091
1.0019731
1.0035576
1.0053274
1.0069215
1.0082007
1.0094045
1.0107179
1.0120967
1.0134094
1.0145783
1.015417
1.0158339
1.0158676
1.0154635
1.0146205
1.0134081
1.0119106
1.0101574
1.0082379
1.0062514
1.0042807
1.0023551
1.0005633
0.99891386
0.99736448
0.99593025
0.9947201
0.99348108
0.99243294
0.99142329
0.99046683
0.98978819
0.98898186
0.98863617
0.98771867
0.98744298
0.98695672
0.98671207
0.98609832
0.98601153
0.98568753
0.98543657
0.98492824
0.98475603
0.98432338
1.0042769
1.005232
1.0040518
1.0036895
1.0026447
1.0012479
1.0001977
0.99987477
1.0001144
1.0007808
1.0018875
1.0033994
1.0051773
1.0068529
1.0082271
1.0094157
1.0107438
1.0121864
1.0135353
1.0146927
1.0155616
1.0160529
1.0161065
1.0157768
1.0149883
1.0138501
1.0123752
1.0106799
1.0087905
1.0068413
1.0048545
1.0029764
1.00116
0.99949622
0.99790332
0.99646427
0.99513833
0.99401657
0.99272756
0.9917564
0.9908896
0.98999583
0.98942648
0.9883724
0.9881834
0.98748639
0.98703529
0.98651246
0.98642542
0.98590662
0.98540124
0.98513353
0.98526844
0.98480676
0.98473
1.0042681
1.0052058
1.0040265
1.0036948
1.0027045
1.0013501
1.0003114
0.99996409
1.0001581
1.0007379
1.0017884
1.0032674
1.005043
1.0067817
1.0082295
1.0095084
1.0108196
1.01224
1.0136708
1.0148497
1.0157413
1.0162452
1.0163337
1.0160186
1.0153196
1.0142124
1.0128133
1.0111771
1.0093374
1.0074179
1.0054912
1.0035654
1.0017615
1.0000535
0.99844613
0.99698227
0.99564904
0.99435013
0.99329223
0.9920623
0.99111439
0.99038084
0.98936775
0.98899845
0.98811083
0.98752828
0.98712134
0.98673845
0.98614648
0.98576802
0.98568953
0.98560298
0.98481016
0.98448947
0.9839218
1.0042451
1.00516
1.0039916
1.0036989
1.0027655
1.0014654
1.0004121
1.0000301
1.0001762
1.0007132
1.0016912
1.0031213
1.0049033
1.0067051
1.0082143
1.0096087
1.0109614
1.0123608
1.013754
1.0149746
1.015902
1.0164117
1.0165401
1.01626
1.0155893
1.0145466
1.0132101
1.0116187
1.0098489
1.0079902
1.006068
1.004211
1.0023657
1.0006506
0.99901989
0.99750096
0.99614433
0.99492849
0.99353105
0.99257734
0.99150481
0.99055891
0.9899175
0.98892183
0.98831314
0.98785136
0.98714829
0.9866148
0.98631372
0.98603846
0.98559816
0.98484632
0.98467817
0.98505937
0.9846382
1.0042064
1.0050937
1.0039508
1.0037072
1.0028195
1.0015413
1.0004984
1.0000763
1.0001782
1.0006725
1.001584
1.0029846
1.0047607
1.0066033
1.0082419
1.0096529
1.0110545
1.0124995
1.0138627
1.0150768
1.0160107
1.0165562
1.0167048
1.0164757
1.0158367
1.0148428
1.0135676
1.0120564
1.01033
1.0085099
1.0066435
1.0047677
1.0029425
1.0012222
0.9995781
0.99806855
0.99666543
0.99531623
0.99419504
0.99278313
0.99191668
0.99093647
0.98998824
0.98928543
0.98863515
0.98775579
0.98725959
0.98687113
0.98634247
0.98586255
0.98525297
0.98542538
0.98544112
0.98392357
0.9843545
1.0041523
1.0050179
1.0038988
1.003687
1.0028614
1.0016151
1.000553
1.0001081
1.0001641
1.0006057
1.0014955
1.0028515
1.0046434
1.006521
1.0082548
1.009735
1.0111372
1.0125937
1.0140039
1.015205
1.0161282
1.0166983
1.0168513
1.0166486
1.0160539
1.0151156
1.0138953
1.0124494
1.0107959
1.0090345
1.0071786
1.0053483
1.0035699
1.0017938
1.0001691
0.99858391
0.99714354
0.99589113
0.99441612
0.99346967
0.99215584
0.99127341
0.99042595
0.98950424
0.98861574
0.98810582
0.98749976
0.98680885
0.98632516
0.98585977
0.98590478
0.98510384
0.98435663
0.9847377
0.98378025
1.0040893
1.0049256
1.0038284
1.0036729
1.0028784
1.0016567
1.000583
1.0000939
1.0001291
1.0005384
1.0013876
1.0027486
1.004513
1.0064494
1.0082362
1.009848
1.0112973
1.0127155
1.0141274
1.0153304
1.0162648
1.0168269
1.0169916
1.0168012
1.0162502
1.0153556
1.0141921
1.0128209
1.0112113
1.0095294
1.0077583
1.0059455
1.0041084
1.0024069
1.0007069
0.99913167
0.99771212
0.9962643
0.99511198
0.99358048
0.99272844
0.99166423
0.99056134
0.98973441
0.98910998
0.98824367
0.98746459
0.98694828
0.98650171
0.98612823
0.98535486
0.98519123
0.98458288
0.98481946
0.98465035
1.0040194
1.0048192
1.0037578
1.0036529
1.002887
1.0016597
1.0005863
1.0000573
1.0000472
1.0004658
1.0012975
1.002625
1.0044045
1.0063729
1.0082232
1.0099165
1.0114408
1.0128819
1.0142554
1.0154533
1.0163838
1.0169372
1.0171174
1.0169494
1.0164285
1.015579
1.0144804
1.0131664
1.0116513
1.00998
1.0082504
1.0064663
1.0047166
1.0029282
1.0012848
0.99970441
0.99816789
0.99688995
0.9953577
0.99428631
0.99302512
0.99185248
0.99105329
0.9901979
0.98911907
0.98835506
0.98779431
0.98724422
0.98651801
0.98612405
0.98531242
0.98532465
0.98537392
0.98395518
0.98345887
1.0039484
1.0047155
1.0036917
1.0036371
1.00285
1.0016349
1.0005248
0.99995579
0.99995569
1.0003709
1.0012187
1.0025406
1.0043143
1.0062951
1.008257
1.0099879
1.011541
1.0130211
1.0143935
1.0155803
1.016494
1.0170558
1.0172395
1.0170812
1.016595
1.0157957
1.0147423
1.013504
1.0120366
1.0104432
1.0087449
1.0069951
1.0052119
1.0035504
1.0018261
1.0002112
0.99877728
0.99723684
0.99598477
0.99457132
0.99334588
0.99248974
0.99132444
0.99020113
0.98950275
0.98881249
0.98793509
0.98715053
0.98672992
0.98589267
0.98630283
0.98503079
0.98422998
0.98479855
0.98428162
1.0038811
1.0046205
1.0036382
1.0036028
1.0028067
1.0015642
1.0004413
0.99984312
0.99984203
1.0002912
1.001149
1.0024741
1.0042385
1.0062421
1.0082431
1.0100755
1.0116827
1.0131658
1.0145566
1.0157262
1.0166307
1.0171822
1.0173651
1.0172134
1.0167566
1.0159993
1.0149949
1.0137908
1.0124091
1.0108659
1.0092308
1.0075125
1.0058222
1.004085
1.0023927
1.0007756
0.99916613
0.99783398
0.99634225
0.9950098
0.99392647
0.99262437
0.99157486
0.99080619
0.98986702
0.98874126
0.98811572
0.98747515
0.98710795
0.98633807
0.98545689
0.98525787
0.98531514
0.98403112
0.98462484
1.0038216
1.0045551
1.0036024
1.0035751
1.0027573
1.0014753
1.0003254
0.999739
0.99973296
1.0002057
1.001098
1.002426
1.0041889
1.0061994
1.0082295
1.0101659
1.0118448
1.0133373
1.0147217
1.0158839
1.0167769
1.0173102
1.017485
1.0173539
1.0169152
1.0161999
1.0152335
1.0141085
1.0127351
1.0112787
1.0096953
1.0080417
1.0062831
1.0045966
1.002882
1.0012524
0.99978736
0.9982464
0.99683721
0.99553593
0.99415387
0.99310105
0.99213499
0.99096367
0.9898579
0.98928227
0.98846782
0.9879051
0.98652862
0.98669906
0.98590595
0.98549776
0.9850091
0.98454478
0.98347237
1.0037784
1.0045157
1.0035985
1.0035725
1.0026938
1.0013708
1.0002063
0.99960405
0.99962426
1.0001474
1.0010808
1.0024255
1.0041707
1.0061742
1.0082364
1.0102235
1.0119765
1.0135132
1.0148988
1.0160495
1.0169251
1.0174453
1.0176157
1.0174946
1.0170755
1.0163886
1.015482
1.0143757
1.0131123
1.0116531
1.0100911
1.0084487
1.0067954
1.0050881
1.0033909
1.0017694
1.0001996
0.99875075
0.99729473
0.99585176
0.99468868
0.99349899
0.99226073
0.99126686
0.99052496
0.98952238
0.98850452
0.98763933
0.98760637
0.98655523
0.98612143
0.98563234
0.98438115
0.98497509
0.98465104
1.0037596
1.0045295
1.0036409
1.003597
1.0026351
1.0012662
1.0000809
0.99948321
0.99953284
1.0001177
1.0010771
1.0024345
1.0041653
1.0061594
1.0082701
1.0103006
1.0121086
1.0136925
1.0150899
1.0162386
1.0170929
1.0176021
1.0177686
1.0176413
1.0172426
1.0165788
1.0156888
1.0146498
1.0133976
1.0120324
1.0105127
1.0089261
1.0072233
1.0056144
1.0039296
1.0022906
1.0006942
0.999195
0.99771571
0.99635265
0.99504996
0.99379001
0.99279221
0.99178589
0.99061808
0.9895275
0.98906053
0.98828118
0.98763009
0.98662187
0.98618921
0.98549595
0.98591193
0.98444269
0.98402525
1.0037702
1.0045953
1.0037384
1.003659
1.0026087
1.0011707
0.99996051
0.99936716
0.99946423
1.000117
1.0011332
1.0024979
1.0042153
1.0061868
1.0082808
1.0103812
1.0122583
1.0138922
1.0152951
1.0164441
1.0172799
1.017774
1.0179224
1.0177953
1.0174124
1.0167706
1.0159128
1.0148909
1.0137056
1.0123442
1.0108949
1.0093334
1.0077223
1.0060286
1.0043682
1.0026842
1.001147
0.99965221
0.99816513
0.99674215
0.99542682
0.99428548
0.99310313
0.99191792
0.99097431
0.99028769
0.98913515
0.98852891
0.98727525
0.98722935
0.98683757
0.98586146
0.98515893
0.98492444
0.98411638
1.0038079
1.004739
1.0038898
1.003764
1.0026076
1.0010952
0.99986103
0.99927218
0.99942127
1.0001402
1.0012202
1.0025942
1.00428
1.0062264
1.0083156
1.010448
1.0124093
1.0140841
1.0155257
1.0166447
1.0174746
1.0179462
1.0180828
1.017954
1.0175775
1.016957
1.0161263
1.0151511
1.013969
1.012685
1.0112359
1.0097118
1.0080749
1.0064462
1.0048013
1.0031283
1.0015859
1.0000725
0.99862492
0.99713526
0.99587781
0.99464441
0.99343911
0.99244781
0.99141806
0.99030751
0.9894681
0.98855308
0.98833188
0.98749248
0.98627668
0.98614869
0.98573565
0.98453805
0.98543335
1.0038748
1.0049383
1.0040828
1.0039026
1.0026484
1.001055
0.99978993
0.99921942
0.99942524
1.0002145
1.0013343
1.0027249
1.0043895
1.0062972
1.0083815
1.0105285
1.0125406
1.0142801
1.0157492
1.0168757
1.0176662
1.0181375
1.0182579
1.0181186
1.0177429
1.0171288
1.0163399
1.0153499
1.0142481
1.012961
1.0115425
1.0100627
1.0084669
1.00688
1.0052038
1.0036598
1.002013
1.0005332
0.99900139
0.99761598
0.99625776
0.99497461
0.99388092
0.99273483
0.99166808
0.99066792
0.98998256
0.9892158
0.98806519
0.98757739
0.98684545
0.98671351
0.98573417
0.98531441
0.98476199
1.0039615
1.005182
1.0043712
1.004082
1.0027124
1.0010634
0.9997587
0.99919789
0.99945905
1.0003041
1.0014793
1.0028895
1.0045268
1.0063994
1.0084487
1.0106145
1.0126918
1.0144791
1.0159767
1.0171141
1.0178722
1.018316
1.0184269
1.0182732
1.0178987
1.0173056
1.0165137
1.0155715
1.0144507
1.0132173
1.0118795
1.0103854
1.0088516
1.0072132
1.0056634
1.0039515
1.0024217
1.0008942
0.99947442
0.99798395
0.99658943
0.99542431
0.99428222
0.99314203
0.99206702
0.99122261
0.99007531
0.98914537
0.98872851
0.98781166
0.98746415
0.98680559
0.98527892
0.98637119
0.98440029
1.004076
1.0054941
1.0046596
1.0042904
1.0028117
1.0011049
0.99976423
0.99921505
0.99952255
1.0004439
1.0016714
1.0030741
1.0046909
1.0065162
1.0085249
1.0107038
1.0128265
1.0146832
1.0162063
1.0173302
1.0180964
1.0184953
1.018581
1.0184301
1.0180569
1.0174743
1.0166936
1.0157647
1.0146857
1.013468
1.0121249
1.0107041
1.0091509
1.0076127
1.0059415
1.0044005
1.0027743
1.0013154
0.99982261
0.99838428
0.99708653
0.99582284
0.99457236
0.993526
0.99243346
0.99138315
0.99049938
0.98975336
0.98914715
0.98793477
0.98791722
0.98629868
0.98686598
0.98556048
0.98528575
1.0041954
1.0058638
1.0050154
1.0045328
1.002955
1.0011752
0.99981498
0.99926397
0.99963492
1.0006092
1.0018709
1.0032874
1.0048758
1.006652
1.0086249
1.0107871
1.0129463
1.0148575
1.0164265
1.0175518
1.0182919
1.0186834
1.0187376
1.01857
1.0182019
1.0176235
1.0168654
1.0159427
1.0148689
1.0137142
1.0123802
1.0109359
1.0094874
1.007895
1.0063536
1.0047596
1.003214
1.001719
1.0002585
0.9988393
0.99745843
0.99612888
0.99503309
0.99383978
0.99290297
0.9917944
0.9908723
0.99024792
0.98878526
0.98897325
0.98760711
0.98721442
0.98702967
0.98560102
0.985808
1.0043416
1.0062207
1.0053556
1.0047972
1.0031118
1.0012708
0.99988377
0.99934869
0.99975718
1.0007866
1.0021064
1.0035275
1.005074
1.0067995
1.0087309
1.0108859
1.0130443
1.0150189
1.0166155
1.0177713
1.0184821
1.0188449
1.0189053
1.0187117
1.0183328
1.0177662
1.0170197
1.0160984
1.0150614
1.0139008
1.0126017
1.0112476
1.0097596
1.0082594
1.0066922
1.0050932
1.003588
1.0020774
1.0006289
0.99920803
0.99781436
0.99661434
0.99537069
0.99436006
0.99315129
0.99219172
0.99138541
0.99015624
0.98973877
0.98903197
0.98780642
0.98806869
0.98653414
0.98660769
0.98565031
1.0044727
1.0066125
1.0057063
1.0050506
1.0032923
1.0013934
0.999981
0.99945413
0.99989121
1.0009734
1.0023207
1.0037468
1.0052712
1.0069452
1.0088239
1.0109441
1.0131361
1.0151434
1.0167883
1.0179577
1.0186627
1.0189989
1.0190369
1.0188441
1.0184683
1.0178996
1.0171506
1.0162641
1.0152419
1.0141007
1.0128261
1.0114758
1.0100475
1.008548
1.0070031
1.0054731
1.0039078
1.0024248
1.0010361
0.99959522
0.99828287
0.99698629
0.99579279
0.99463873
0.99358995
0.9926689
0.9916085
0.99065049
0.99035427
0.98867467
0.98898152
0.98765937
0.98739258
0.98656966
0.98616535
1.0046215
1.0069481
1.0060314
1.0053088
1.0034738
1.0015266
1.0000924
0.99956975
1.0000336
1.0011544
1.0025209
1.0039544
1.0054503
1.0070751
1.0089088
1.0109905
1.0131828
1.0152378
1.016925
1.0181071
1.01881
1.0191488
1.0191569
1.0189609
1.018589
1.0180268
1.017289
1.0164219
1.0154116
1.0142851
1.0130526
1.0117245
1.0103173
1.0088404
1.0073425
1.0057966
1.004298
1.0028726
1.0014164
1.0000195
0.99868531
0.99735791
0.9961961
0.99504373
0.9940372
0.9930104
0.99187133
0.99144988
0.99005505
0.98967486
0.9890035
0.9881013
0.98770707
0.98674257
0.98687766
1.0047193
1.0072523
1.0063184
1.0055485
1.0036471
1.0016563
1.0002063
0.99967217
1.0001535
1.0012978
1.002695
1.0041238
1.0056007
1.0071796
1.0089627
1.011012
1.0131984
1.0152678
1.0170093
1.0182152
1.0189255
1.0192521
1.019278
1.019064
1.0186885
1.0181429
1.0174188
1.0165695
1.0155728
1.0144734
1.0132495
1.0119655
1.0105788
1.0091567
1.0076642
1.0061285
1.0046603
1.0032076
1.0017865
1.0004444
0.99904265
0.99777932
0.99656908
0.99551627
0.99441449
0.99330388
0.99257878
0.99152269
0.99052898
0.99027939
0.98896273
0.98871634
0.98769076
0.98780473
0.98661005
1.0048272
1.0075193
1.0065421
1.0057538
1.0038098
1.0017804
1.0003063
0.9997722
1.0002525
1.0014045
1.0028223
1.0042464
1.0057023
1.0072424
1.0089796
1.0109971
1.0131753
1.0152659
1.0170321
1.0182797
1.0190066
1.0193294
1.0193572
1.019156
1.0187838
1.018258
1.0175423
1.0167152
1.0157392
1.0146709
1.0134891
1.0122162
1.0108619
1.0094507
1.0079911
1.0065273
1.00503
1.0035461
1.0021874
1.0007919
0.9994961
0.99820131
0.99704586
0.99582865
0.99484338
0.99384398
0.99296843
0.99172931
0.99135008
0.99016577
0.9895864
0.98898627
0.98831635
0.98804775
0.98659844
1.0048649
1.0077224
1.0067027
1.0058709
1.0039273
1.0018767
1.0003918
0.99982889
1.0003079
1.0014684
1.0028857
1.0043059
1.0057433
1.0072552
1.0089547
1.0109353
1.0131075
1.0152085
1.0170149
1.0182945
1.0190427
1.0193889
1.0194032
1.0192336
1.0188738
1.0183652
1.0176568
1.0168603
1.0159104
1.0148654
1.013691
1.0124207
1.011159
1.009757
1.0083297
1.0067967
1.0054366
1.0039898
1.0025588
1.0012556
0.99994154
0.99865734
0.99738162
0.99631917
0.99518599
0.99428984
0.99313178
0.99240037
0.99156041
0.99058111
0.99002197
0.98945017
0.98865395
0.98790118
0.98751926
1.0048997
1.007776
1.0067894
1.0060354
1.0040207
1.0019496
1.0004423
0.99988632
1.0003215
1.0014785
1.002895
1.004316
1.0057407
1.0072266
1.0088923
1.010834
1.0129806
1.0150922
1.0169336
1.0182496
1.0190388
1.0193994
1.0194553
1.0192896
1.0189459
1.018452
1.0177721
1.0169844
1.0160801
1.0150512
1.013975
1.0126849
1.0113586
1.0101187
1.0086527
1.0072476
1.0057755
1.0042816
1.0029931
1.0016619
1.0003525
0.99901616
0.99783646
0.99668018
0.99567578
0.99474497
0.99371214
0.99279963
0.99178322
0.99117547
0.99048316
0.98946416
0.98923042
0.98818971
0.98817477
0.98707889
0.98692264
0.98665628
0.98612577
0.98567476
0.9855578
0.98530546
0.98489563
0.98475851
0.98468045
0.98425925
0.98379006
0.98418575
0.98397915
0.98342876
0.98416914
0.98333902
0.98364622
0.98415513
0.98325052
0.98423308
0.98372967
0.98379145
0.98433237
0.98381324
0.98429651
0.98404218
0.98648996
0.98599073
0.98572739
0.98545165
0.98520837
0.98484698
0.98460071
0.98440816
0.98415405
0.9839435
0.9837489
0.98376965
0.9833493
0.98335834
0.98357579
0.9829324
0.98363332
0.98317232
0.98309937
0.98373632
0.98298073
0.9837865
0.98341534
0.98353653
0.98369448
0.98361689
0.98379053
0.9855439
0.98535483
0.98500319
0.98475667
0.98452708
0.9842285
0.98409164
0.98380724
0.98354376
0.98349674
0.98326286
0.98303052
0.98316732
0.98287208
0.98282283
0.98312208
0.98254538
0.98315912
0.9828895
0.98273804
0.98333671
0.98270702
0.98338626
0.98297667
0.98328386
0.98320418
0.98324139
0.9847873
0.98461205
0.98445546
0.98404096
0.98387125
0.98375152
0.98327649
0.98335514
0.98306562
0.98269175
0.98296345
0.98253938
0.98242025
0.98268581
0.98228606
0.98246238
0.98261665
0.98219261
0.98279096
0.98247669
0.98254678
0.98281515
0.98249307
0.98292655
0.98266149
0.98283649
0.98279987
0.9841995
0.98396059
0.98370033
0.98351867
0.98316579
0.98309248
0.98286193
0.98247289
0.98268601
0.98234433
0.98198764
0.98247001
0.98188431
0.98194834
0.98225677
0.98168208
0.98218002
0.982056
0.98189972
0.98241402
0.98204043
0.98236499
0.98225681
0.98236177
0.98239585
0.98240999
0.9823851
0.98354683
0.98315349
0.98298192
0.98297359
0.9825082
0.98241276
0.98243371
0.98197445
0.98195945
0.98204918
0.98166419
0.98161416
0.98190533
0.98139543
0.98163557
0.98179885
0.98126809
0.98195084
0.98145062
0.98182764
0.98181293
0.98180036
0.9819917
0.98189014
0.98200946
0.98203879
0.98191242
0.98279397
0.98261679
0.98226432
0.9822799
0.98217202
0.98163272
0.98189952
0.98173067
0.98122444
0.98163808
0.98139546
0.98111778
0.98141759
0.98129933
0.98112337
0.98131816
0.98135174
0.98111782
0.98160672
0.9810621
0.98166489
0.98127084
0.98168321
0.98146363
0.98172213
0.9814608
0.98166902
0.98210796
0.98225185
0.98165495
0.98155574
0.98179331
0.98124926
0.98108829
0.9814212
0.98097516
0.98080908
0.98126695
0.98074214
0.98087442
0.98107319
0.98074749
0.98102712
0.98093121
0.98103985
0.98096969
0.98123205
0.98089083
0.98132727
0.98097236
0.98134428
0.98114916
0.98131718
0.98120806
0.98146017
0.98160477
0.98133568
0.98092352
0.98115527
0.98103958
0.98054199
0.98087129
0.98083348
0.9803668
0.98070187
0.98074493
0.98028303
0.98075621
0.98065969
0.98042988
0.9809493
0.98050311
0.98088639
0.98075992
0.98085453
0.98090691
0.98084397
0.98097665
0.98079173
0.98102409
0.98090896
0.98099733
0.98089733
0.98099246
0.9805695
0.98042705
0.98078941
0.98027596
0.98013733
0.98069358
0.98006021
0.98021661
0.98052095
0.97992719
0.98052916
0.98019662
0.98038246
0.98047713
0.98039308
0.98061104
0.98041066
0.98076315
0.98044154
0.98087623
0.98056473
0.98075725
0.98059103
0.98067592
0.98062989
0.98033836
0.980517
0.98028659
0.97992394
0.98032691
0.98013107
0.9796789
0.98026765
0.97999343
0.97967137
0.98033752
0.97976364
0.97999386
0.98027583
0.97983199
0.98040623
0.98007776
0.98032769
0.98034654
0.98035565
0.98052958
0.98036168
0.98054641
0.98047821
0.9804953
0.98044765
0.9801366
0.9799623
0.98011318
0.97974859
0.97974015
0.97997973
0.97959244
0.97977188
0.97980306
0.97961192
0.9798623
0.97963865
0.9798675
0.97975405
0.97994545
0.97988104
0.97994788
0.98011825
0.97993173
0.98032137
0.98002085
0.98051311
0.98012814
0.98050985
0.98023799
0.98037815
0.98031218
0.97968499
0.97965691
0.97950908
0.97956989
0.97951106
0.97936212
0.97966141
0.97944638
0.97942556
0.9797029
0.97944143
0.97966158
0.979706
0.97954184
0.97994456
0.97969103
0.97988859
0.98001224
0.97980227
0.98023517
0.97995443
0.98025891
0.98016281
0.9802708
0.98033652
0.98021733
0.98030599
0.97928669
0.97933654
0.9793842
0.97921376
0.97926562
0.97941935
0.97916872
0.97941885
0.97942446
0.9793044
0.97961704
0.97946432
0.97961786
0.97958838
0.97976654
0.97977139
0.97979231
0.9800774
0.97970731
0.9803602
0.97979505
0.980351
0.98011775
0.98029412
0.98023083
0.98030602
0.98035643
0.97896004
0.97916477
0.97920596
0.97905849
0.97932077
0.97925589
0.97908466
0.97959406
0.97926383
0.9793033
0.97976444
0.9793636
0.97970226
0.97965433
0.97963344
0.97993276
0.9798148
0.98005661
0.97996165
0.98028812
0.97997148
0.98045529
0.98008263
0.98057888
0.98024251
0.98044424
0.98050391
0.97892418
0.97920901
0.97917126
0.97930815
0.97914192
0.97937876
0.97933113
0.97934712
0.97962466
0.97937619
0.97983349
0.97965953
0.97966526
0.98014613
0.97946772
0.9802832
0.97988022
0.98012375
0.98041473
0.98005078
0.98054129
0.98034016
0.98050012
0.98053524
0.98070599
0.98050412
0.98088504
0.97894913
0.97898414
0.97913035
0.97937479
0.97942154
0.97951039
0.97958453
0.97948612
0.97972938
0.9798366
0.9796884
0.98002321
0.98006245
0.98003721
0.98022276
0.98025158
0.98029573
0.9803576
0.98070274
0.98039598
0.98084786
0.98067433
0.9806857
0.98096411
0.98093379
0.98090259
0.98119944
0.98056332
0.97795682
0.98005369
0.97944974
0.97993192
0.97992771
0.97969314
0.97985632
0.98009302
0.97987227
0.98012437
0.98031839
0.98021777
0.98046432
0.98066607
0.98064633
0.98068119
0.98086849
0.98102364
0.98083251
0.98131535
0.98110204
0.98116517
0.9814681
0.98128639
0.98146404
0.98164671
0.98090954
0.98107971
0.98085396
0.98025532
0.98033191
0.98023409
0.979921
0.98044774
0.98022418
0.98014195
0.98078789
0.98033655
0.98076017
0.98091427
0.98091775
0.98139079
0.98094434
0.98177472
0.98129704
0.9816139
0.98184431
0.9817192
0.98180235
0.98199149
0.98201545
0.98201235
0.98225265
0.978843
0.97969987
0.97991232
0.97990596
0.98009326
0.98031633
0.98047153
0.98057439
0.98054968
0.98091625
0.98109416
0.98094908
0.98136789
0.98133297
0.98162834
0.98171199
0.98176175
0.98228125
0.98201311
0.98241372
0.98247784
0.98260846
0.98253841
0.98282556
0.98280338
0.98278047
0.98301957
0.97893896
0.97896239
0.97981586
0.9800722
0.9805193
0.98071429
0.98105872
0.98097624
0.98148319
0.98155811
0.98171376
0.98196299
0.98190195
0.98252888
0.98214814
0.98268276
0.98271617
0.98282564
0.98315155
0.98299319
0.98363658
0.98340308
0.98364777
0.98368411
0.98383332
0.98377409
0.98398198
0.98146605
0.9812208
0.98157013
0.98147992
0.9817482
0.9817997
0.98211518
0.98223932
0.98248946
0.98274786
0.98276706
0.98289659
0.98337919
0.98312718
0.98351933
0.98355757
0.98390305
0.98405498
0.98391748
0.98449833
0.984348
0.98486783
0.98449358
0.98505669
0.98488034
0.98508726
0.98506796
0.9827567
0.98170789
0.98307037
0.98254429
0.98313956
0.98283319
0.98345882
0.98342422
0.98373234
0.98408025
0.98371023
0.98434334
0.98455838
0.9843125
0.98503625
0.98453931
0.98543905
0.98511162
0.98526681
0.98582893
0.9855451
0.98631117
0.98569693
0.98651619
0.9861814
0.98653086
0.98639265
0.98331463
0.98362792
0.98382413
0.9837926
0.98442458
0.98427104
0.98471372
0.98471761
0.98524962
0.98516051
0.98522246
0.98579324
0.98573207
0.98604868
0.98599823
0.98632896
0.98678827
0.986579
0.98686993
0.98712086
0.98730212
0.98764749
0.98741467
0.9878292
0.98784595
0.98805147
0.98803011
0.9855724
0.98533447
0.98548424
0.98570894
0.9859277
0.98588319
0.98629392
0.9865092
0.98666506
0.98688004
0.9868108
0.98751269
0.98756496
0.98758025
0.9879207
0.98788189
0.98865482
0.98816573
0.98867305
0.98874566
0.98910463
0.98944471
0.98914146
0.98960409
0.98953207
0.98998062
0.98986723
0.9868785
0.98682275
0.98736433
0.98739982
0.98770503
0.98785702
0.98806225
0.98854021
0.98868143
0.98856552
0.98921842
0.9891308
0.98980962
0.9895253
0.989692
0.9902322
0.99008091
0.99084306
0.99026147
0.99113997
0.99100179
0.991486
0.9913307
0.99140865
0.99167284
0.99188971
0.99206923
0.98875832
0.98905759
0.98954685
0.9896118
0.98991781
0.99011122
0.99026166
0.9908485
0.99085503
0.99090806
0.99147741
0.99134928
0.99213967
0.99177353
0.99214869
0.9924877
0.99248113
0.99326713
0.99257765
0.99351197
0.99305835
0.99383913
0.99355704
0.99376154
0.99387698
0.99408913
0.99439294
0.99142732
0.99165626
0.99200087
0.99211954
0.99244322
0.99265027
0.99287055
0.99335357
0.99327781
0.99357121
0.99392135
0.99397002
0.99465688
0.99422125
0.99491153
0.99476188
0.99527992
0.99551664
0.99521804
0.99589113
0.99546409
0.99641598
0.9959508
0.99650697
0.99629186
0.9967126
0.99682582
0.99423438
0.99447007
0.99478453
0.99495755
0.99518891
0.99541981
0.99579689
0.99592214
0.99619632
0.99631103
0.99655907
0.99702939
0.99696919
0.99740584
0.99732304
0.99771313
0.99796612
0.99806868
0.99834912
0.99825362
0.99872114
0.99862559
0.99912664
0.99899212
0.99931262
0.99927644
0.99952829
0.99721619
0.9975291
0.9978606
0.99802461
0.99822464
0.99847766
0.99880581
0.99896921
0.99939698
0.99927028
0.9997009
0.99992783
1.0000467
1.000585
1.000235
1.0009019
1.0006618
1.0013101
1.0013189
1.0013637
1.0016944
1.0014225
1.0022404
1.0018205
1.0023594
1.0019475
1.0022982
1.0006843
1.0008536
1.0011853
1.0013754
1.0016026
1.0017595
1.0021131
1.0023917
1.0025935
1.0026318
1.0029759
1.0030574
1.0035839
1.0036048
1.0036801
1.0038731
1.0038947
1.004497
1.0043356
1.004653
1.0045361
1.004682
1.0050162
1.0049696
1.005226
1.0050651
1.005215
1.0041688
1.0044668
1.004747
1.0049581
1.0051623
1.0052651
1.0055605
1.0057885
1.0060324
1.00613
1.0063194
1.0064331
1.0067737
1.006859
1.0069832
1.0072316
1.0070812
1.0075707
1.0072731
1.0077971
1.0077087
1.0078686
1.0079407
1.0078172
1.0081872
1.0081592
1.0083563
1.0080221
1.0080854
1.008297
1.0084734
1.0087236
1.0088467
1.0089915
1.0090818
1.009298
1.0095701
1.00972
1.0096752
1.0099539
1.0098077
1.0103349
1.0103223
1.0103693
1.0104665
1.0102262
1.0107909
1.0106496
1.0110314
1.0107519
1.010819
1.0109136
1.0110848
1.0111934
1.0115165
1.0115206
1.0116174
1.0117774
1.0120252
1.0121417
1.0122018
1.0122245
1.0123393
1.0126842
1.0127709
1.0128083
1.0128826
1.0127232
1.0131951
1.0131305
1.0133771
1.0132585
1.0132254
1.0133858
1.0133328
1.0136613
1.0135136
1.0137231
1.0135517
1.0136845
1.0136467
1.0144649
1.0144528
1.0144936
1.0146512
1.0148802
1.0149783
1.01504
1.0150172
1.0150597
1.0152847
1.0153521
1.0155469
1.0155383
1.0154537
1.0155846
1.0155065
1.0158408
1.0157659
1.0159077
1.0157533
1.0156971
1.0158407
1.0158681
1.0161166
1.0159303
1.0159415
1.0158192
1.0170572
1.0169921
1.0169642
1.0170403
1.0171562
1.0172323
1.0173314
1.0173064
1.0173144
1.0173489
1.0173717
1.0175995
1.0176228
1.0176643
1.01757
1.0174912
1.0177024
1.0176779
1.0178714
1.0176216
1.0176427
1.0175444
1.0176896
1.0177541
1.017708
1.0175863
1.0174934
1.0186915
1.0186459
1.018662
1.0187335
1.0187273
1.0187377
1.0188349
1.0188224
1.0188678
1.0188202
1.0187981
1.0189265
1.0189526
1.0190295
1.0189048
1.0188264
1.0188805
1.0188838
1.0190251
1.0188483
1.0188427
1.0186749
1.0187387
1.0187511
1.0187685
1.0186634
1.0185522
1.0196162
1.0196355
1.0196597
1.0196725
1.0196276
1.0195641
1.0196253
1.0196374
1.019679
1.0196429
1.0195788
1.0196086
1.0196127
1.0196505
1.0196064
1.0195341
1.0195182
1.019497
1.0195154
1.0194225
1.0193581
1.0192804
1.0192635
1.0192636
1.0192109
1.0190897
1.0189876
1.0198909
1.0199261
1.0199486
1.0199611
1.0199697
1.019928
1.0199086
1.01989
1.0198889
1.0198923
1.0199194
1.0198859
1.0198288
1.0197666
1.019749
1.0197098
1.0197801
1.0197156
1.0196888
1.0195011
1.0194163
1.0193523
1.0193914
1.0193731
1.019276
1.0190711
1.0189522
1.0199411
1.0198832
1.019851
1.0198659
1.0199258
1.019935
1.0198768
1.0197746
1.0197165
1.0197623
1.0197708
1.0198496
1.0197142
1.0196313
1.0195305
1.0194998
1.0196161
1.0195235
1.0195215
1.0192238
1.0192203
1.019115
1.0192649
1.0191255
1.0190035
1.0187133
1.0186508
1.0196963
1.019617
1.0195231
1.0195118
1.0196074
1.0196638
1.0196152
1.0195508
1.0193484
1.0194307
1.0193491
1.0195343
1.0193669
1.0193222
1.0191192
1.0190737
1.0191594
1.0190588
1.0191387
1.0187611
1.0188651
1.0185913
1.0188371
1.0185491
1.0185613
1.0182221
1.0182322
1.0191092
1.0190692
1.0190024
1.0190051
1.0190076
1.0191387
1.0190094
1.0190785
1.0188047
1.0189317
1.0187714
1.0189514
1.018774
1.0187324
1.018581
1.018485
1.0186062
1.0184185
1.0185452
1.0181157
1.0182793
1.0179314
1.018205
1.0178907
1.0179349
1.0176154
1.0175835
1.0183547
1.018412
1.018372
1.0184457
1.0182852
1.0184682
1.0182506
1.0184703
1.0181891
1.0183273
1.0181135
1.0181604
1.018139
1.0179393
1.0181032
1.0176682
1.0180621
1.0174978
1.0179592
1.0173168
1.0176847
1.0172272
1.0174412
1.0172049
1.0171319
1.0169904
1.016865
1.0176848
1.0178278
1.0177976
1.0179072
1.0176676
1.0177393
1.0175934
1.017761
1.0176774
1.0176428
1.017558
1.0173012
1.0175201
1.0171148
1.0175834
1.0168736
1.0174078
1.0166693
1.0171753
1.0166859
1.0168302
1.0167257
1.0164258
1.0166746
1.0161875
1.0164343
1.0161079
1.0171839
1.0172724
1.0172485
1.0173307
1.0172127
1.0170911
1.017209
1.0169392
1.0174115
1.0167518
1.0172807
1.0164507
1.0169732
1.0165895
1.0167181
1.0167671
1.0160749
1.0167042
1.0156833
1.0167498
1.0157057
1.0163241
1.0156489
1.0157443
1.0157443
1.0156026
1.0156127
1.0168857
1.0167633
1.016822
1.0167012
1.0167643
1.0168919
1.0165914
1.0168197
1.0164076
1.016615
1.0164171
1.0164241
1.0162835
1.0161862
1.0161423
1.0159515
1.0159703
1.0156198
1.0158182
1.0154574
1.0157009
1.0152277
1.0154028
1.0149977
1.0152126
1.0149865
1.0149928
1.0165763
1.0165114
1.0164084
1.0162155
1.0164766
1.0165733
1.0163802
1.0163559
1.0161165
1.0158804
1.0163549
1.01589
1.0161876
1.0156482
1.0155663
1.0156334
1.0153023
1.0157787
1.0149064
1.0155234
1.0145037
1.0152873
1.0145085
1.0150231
1.0144514
1.014534
1.0142964
1.0162354
1.0162373
1.0164266
1.0161921
1.0160929
1.0162791
1.0159331
1.0163537
1.0157845
1.0159217
1.0157716
1.0157069
1.0158149
1.0153562
1.0155798
1.014915
1.0155179
1.014753
1.0153658
1.0144461
1.014782
1.0143757
1.0145189
1.0144471
1.0141737
1.0140678
1.0138571
1.0161607
1.016262
1.0160556
1.0163133
1.0160647
1.0158857
1.0161873
1.0155785
1.0163012
1.0154581
1.0157765
1.0155156
1.0152229
1.0158461
1.0147051
1.0157216
1.0143389
1.0152053
1.0145335
1.0145727
1.0146939
1.0138219
1.0145662
1.0136573
1.0142583
1.0136289
1.0137136