/*--------------------------------*- C++ -*----------------------------------*\
| =========                 |                                                 |
| \\      /  F ield         | OpenFOAM: The Open Source CFD Toolbox           |
|  \\    /   O peration     | Version:  2406                                  |
|   \\  /    A nd           | Website:  www.openfoam.com                      |
|    \\/     M anipulation  |                                                 |
\*---------------------------------------------------------------------------*/
FoamFile
{
    version     2.0;
    format      ascii;
    arch        "LSB;label=32;scalar=64";
    class       surfaceScalarField;
    location    "22";
    object      phi;
}
// * * * * * * * * * * * * * * * * * * * * * * * * * * * * * * * * * * * * * //

dimensions      [1 0 -1 0 0 0 0];

oriented        oriented;

internalField   nonuniform List<scalar> 
192068
(
0.00096123964
-5.0867492e-06
-9.8569658e-06
0.00096565581
-3.7283207e-05
2.3097703e-05
0.00095540556
-0.00012032741
0.00011711256
0.00094684498
-0.00022645649
0.00022496195
0.00094573693
-0.0003207834
0.00032265931
0.00094825541
-0.00036844553
0.0003744036
0.00094912263
-0.00039545211
0.0004037458
0.00094686548
-0.00041336091
0.00042176202
0.00094196695
-0.00042070783
0.00042929944
0.00093432933
-0.00041735827
0.00042569201
0.00092497105
-0.00039844656
0.00040517168
0.00091547981
-0.00036618764
0.00037339843
0.00090726103
-0.00032520973
0.00033226132
0.00090206511
-0.00028005835
0.00029053161
0.00089861669
-0.00024229207
0.00025478155
0.00089508051
-0.00020758033
0.00022313923
0.00089061903
-0.00017824128
0.00019323914
0.00088555094
-0.00015363902
0.00016486914
0.0008806554
-0.00013138891
0.0001399776
0.00087615717
-0.00011162059
0.00012131799
0.0008714688
-9.6188994e-05
0.00010513748
0.00086657648
-8.4021724e-05
9.0965117e-05
0.0008609212
-7.1995021e-05
7.8703718e-05
0.00085477708
-6.1621691e-05
6.6890871e-05
0.00084871058
-5.0267514e-05
5.3766568e-05
0.00084272364
-3.8856972e-05
4.2015418e-05
0.00083697647
-2.6272352e-05
2.9911177e-05
0.00083216882
-1.4685589e-05
1.7620615e-05
0.00082793082
-1.7078104e-06
4.6729249e-06
0.00082446225
1.0400826e-05
-8.0631894e-06
0.0008216439
2.4183298e-05
-2.1967573e-05
0.00081987351
3.6951535e-05
-3.6207e-05
0.00081833446
5.1470628e-05
-5.2523597e-05
0.00081904364
6.7108667e-05
-6.7165565e-05
0.00082060645
8.2116502e-05
-8.5053697e-05
0.00082315916
9.8520539e-05
-0.00010357218
0.00082764063
0.00011512131
-0.0001198986
0.00083271176
0.00013182242
-0.00013920688
0.00084139048
0.00015011119
-0.00015517403
0.00084863382
0.00016570981
-0.00017884936
0.00085999209
0.00018575289
-0.00019400599
0.00087091538
0.00020373412
-0.00021775152
0.0008864017
0.00022263504
-0.0002342556
0.00090182945
0.00024190086
-0.00026133675
0.00091995937
0.00026097043
-0.00027878099
0.00094028518
0.00028115213
-0.00030336743
0.00096134151
0.0002984578
-0.00032348325
0.00098570171
0.00032002392
-0.00034360545
0.0010115998
0.00033558203
-0.00036013908
0.0010394094
0.00035340057
-0.0003846749
0.0010664178
0.00036819963
-0.00040023174
0.0010974667
0.00038399678
-0.00041603822
0.0011286255
0.00039714268
-0.00042632649
0.0011649678
0.00040435372
-0.00044248925
0.0004274392
0.0011951632
-0.00045985264
0.00096521986
-1.4786744e-05
0.00096420135
-4.3354451e-05
0.00095317133
-0.00011913744
0.0009441293
-0.00022310688
0.00094335101
-0.00031500099
0.00094731999
-0.00036110263
0.00094974707
-0.00038805187
0.00094835557
-0.0004052082
0.00094413294
-0.00041185877
0.00093751429
-0.00040866802
0.00092890105
-0.00039056673
0.00091949439
-0.00035922398
0.00091116523
-0.0003148661
0.00090561336
-0.0002688013
0.00090213045
-0.00022802846
0.0008985357
-0.00019459448
0.00089408716
-0.00016456718
0.00088897969
-0.00014025984
0.00088398418
-0.00012213264
0.0008793849
-0.00010410149
0.00087456112
-8.9641881e-05
0.00086967701
-7.7443121e-05
0.00086387714
-6.6202704e-05
0.00085741745
-5.562952e-05
0.0008508122
-4.5587103e-05
0.00084457053
-3.433606e-05
0.000838288
-2.2743831e-05
0.00083325291
-1.0992305e-05
0.00082873948
9.4186358e-07
0.00082542176
1.2377393e-05
0.00082322175
2.5411191e-05
0.00082154328
3.7121566e-05
0.00082148099
5.1188332e-05
0.00082206855
6.4011824e-05
0.00082456271
7.9089725e-05
0.00082816965
9.5011788e-05
0.00083265253
0.00010840666
0.00083993218
0.00012670652
0.0008470692
0.00013926434
0.00085754291
0.00016081892
0.00086699717
0.00017258688
0.00087898253
0.000192269
0.00089240258
0.00020766885
0.00090787612
0.00022829509
0.00092452961
0.00024219795
0.00094293984
0.00026287019
0.00096337554
0.00027790169
0.00098549032
0.00029554889
0.001008075
0.00031051522
0.0010361345
0.00032815774
0.0010603759
0.00034117792
0.0010901438
0.00035037974
0.0011170623
0.00036677909
0.0011493171
0.00037255984
0.00039294297
0.0011834972
0.00096883911
-2.2579986e-05
0.00096569421
-4.4841894e-05
0.00095420772
-0.00011438034
0.00094526821
-0.00021686734
0.00094469322
-0.00030662563
0.00094887791
-0.00035168738
0.00095163738
-0.00037832295
0.00095043585
-0.00039450928
0.00094644377
-0.00040094185
0.00094014039
-0.00039903978
0.00093199593
-0.00038060504
0.00092275864
-0.00034933455
0.00091426922
-0.00030490984
0.00090849697
-0.00025565245
0.0009047812
-0.00021173616
0.00090121986
-0.00017980718
0.00089688755
-0.00015215345
0.0008917959
-0.00012802254
0.00088680857
-0.00010981633
0.00088204595
-9.5032716e-05
0.00087719793
-8.2555887e-05
0.00087233328
-7.1309583e-05
0.00086660273
-6.1475336e-05
0.00086015637
-5.1260497e-05
0.0008536521
-4.1050732e-05
0.00084721517
-3.0026031e-05
0.00084081118
-1.8996894e-05
0.00083554517
-8.0994782e-06
0.00083107822
3.1684024e-06
0.00082783492
1.4403092e-05
0.00082562831
2.5461708e-05
0.00082460159
3.752248e-05
0.00082454054
4.9214143e-05
0.00082593184
6.3083809e-05
0.00082881991
7.5567588e-05
0.00083275784
8.920822e-05
0.00083831827
0.00010388147
0.00084511934
0.00011782935
0.00085504257
0.00013394592
0.0008637942
0.0001468734
0.00087553198
0.00016439897
0.00088819582
0.00018000476
0.00090264643
0.00019525864
0.00091727504
0.00020966194
0.00093489677
0.00022799906
0.00095307883
0.00024282179
0.00097166952
0.00025853164
0.00099335113
0.00027343293
0.0010158786
0.00029002228
0.0010383154
0.00029842349
0.001061554
0.00031510697
0.0010894813
0.00032482657
0.0011176874
0.0003417458
0.0011436312
0.00034149861
0.00036072962
0.0011745308
0.00097188925
-2.9387269e-05
0.00096762998
-4.4177568e-05
0.00095595343
-0.0001065408
0.00094727665
-0.00020867514
0.00094683248
-0.00029663905
0.00095091969
-0.0003403264
0.0009535642
-0.00036726107
0.00095227095
-0.00038322686
0.00094837706
-0.00039010253
0.00094240188
-0.00038896457
0.00093467464
-0.00037108381
0.00092573908
-0.00033869169
0.0009173761
-0.00029312753
0.00091155326
-0.00024146047
0.00090764482
-0.00019685129
0.00090424119
-0.00016192993
0.00090006789
-0.00013586667
0.00089499463
-0.00011567154
0.00088996452
-9.8538214e-05
0.00088507844
-8.5055373e-05
0.00088009286
-7.3950518e-05
0.00087500277
-6.5104152e-05
0.0008692177
-5.6117916e-05
0.00086265263
-4.7278454e-05
0.00085613392
-3.683733e-05
0.00084963263
-2.6656358e-05
0.00084319289
-1.6005371e-05
0.00083789785
-5.1663636e-06
0.00083343365
5.9385955e-06
0.00083003277
1.5974591e-05
0.00082810414
2.7769505e-05
0.00082697761
3.7703354e-05
0.00082733432
4.9733794e-05
0.00082853759
5.9896294e-05
0.00083137888
7.2799516e-05
0.00083585217
8.6119651e-05
0.00084052215
9.7323637e-05
0.00084877262
0.00011232087
0.00085650704
0.00012406168
0.00086818048
0.00014113347
0.00087791028
0.00015167195
0.00089143767
0.0001673607
0.00090400451
0.00018029439
0.0009221144
0.00019782538
0.00093663934
0.0002096172
0.00095658444
0.00022418523
0.0009754202
0.00024052874
0.00099717145
0.00025131261
0.0010166194
0.00026634974
0.0010409401
0.0002766369
0.001066496
0.00029387354
0.0010912682
0.00029808393
0.0011128401
0.00030922244
0.0011427793
0.00031586351
0.00032912947
0.0011679171
0.00097404959
-3.5780413e-05
0.00096920566
-4.1646591e-05
0.0009573677
-9.7321767e-05
0.00094899959
-0.00019791385
0.00094872897
-0.00028484341
0.00095270326
-0.00032813263
0.00095522464
-0.00035443347
0.00095384636
-0.00037044469
0.00095001711
-0.00037771267
0.00094435682
-0.00037662962
0.00093713445
-0.00035998504
0.00092863817
-0.00032688517
0.00092053803
-0.00027993297
0.00091460505
-0.00022717057
0.00091068451
-0.00018124321
0.00090731826
-0.00014446893
0.00090315456
-0.00011873837
0.00089809696
-0.00010073629
0.00089284593
-8.7959802e-05
0.00088786278
-7.6447767e-05
0.00088272858
-6.6734642e-05
0.0008775974
-5.93341e-05
0.0008718606
-5.1147262e-05
0.00086547972
-4.2736971e-05
0.0008589139
-3.3463821e-05
0.00085242894
-2.3326295e-05
0.00084596565
-1.2932786e-05
0.00084067692
-2.5435274e-06
0.00083613455
7.5449937e-06
0.00083302255
1.8393935e-05
0.00083088705
2.7680637e-05
0.00083023964
3.8613123e-05
0.00083034499
4.7553402e-05
0.00083218996
5.9456952e-05
0.00083525466
6.989041e-05
0.00083933498
8.0375998e-05
0.00084501275
9.4103945e-05
0.0008522857
0.00010434874
0.00086177067
0.00011851463
0.00087135525
0.00012891855
0.0008826019
0.00014454408
0.00089507654
0.00015490864
0.0009096368
0.00017059578
0.00092379221
0.00017884347
0.00094090587
0.00019665078
0.00095954038
0.00020709986
0.00097730361
0.00022114228
0.00099741772
0.00023023986
0.0010193217
0.00024673309
0.0010421653
0.00025349798
0.001063638
0.00026657195
0.0010853732
0.00027091388
0.0011147891
0.00028774957
0.0011371273
0.00029123412
0.00030798248
0.0011694752
0.00097618536
-4.2627923e-05
0.00097135927
-3.9077583e-05
0.00095947762
-8.6293896e-05
0.00095142286
-0.00018614937
0.00095120396
-0.00027213293
0.00095484131
-0.00031480774
0.00095699258
-0.00034128826
0.00095540965
-0.00035620064
0.00095156566
-0.00036372047
0.00094614423
-0.00036358485
0.00093946722
-0.00034648819
0.00093146246
-0.0003142579
0.00092366003
-0.00026745185
0.00091772008
-0.00021252097
0.00091378795
-0.00016284604
0.00091026328
-0.00012896487
0.00090609353
-0.00010433243
0.0009009282
-8.6697824e-05
0.00089552084
-7.6497486e-05
0.00089034336
-6.7710357e-05
0.00088502655
-6.0345334e-05
0.00087987467
-5.3832478e-05
0.00087414749
-4.6843405e-05
0.00086774501
-3.8770361e-05
0.00086122083
-2.9940958e-05
0.00085474428
-2.0183602e-05
0.00084829175
-1.0254051e-05
0.00084286516
-2.044384e-07
0.0008384228
1.0008245e-05
0.00083503912
1.8797101e-05
0.00083319009
2.8973413e-05
0.00083219889
3.7555219e-05
0.00083306108
4.8208186e-05
0.00083456232
5.6377549e-05
0.00083771689
6.7165722e-05
0.00084249577
7.7854999e-05
0.00084727275
8.7242839e-05
0.00085548198
9.9009507e-05
0.00086375289
0.00011077294
0.00087488677
0.00012172145
0.00088487832
0.00013365228
0.00089805276
0.00014342969
0.00091049296
0.00015659992
0.00092715138
0.00016831748
0.00094271864
0.00018118521
0.0009593276
0.00018822599
0.00097827731
0.00020477843
0.0009981974
0.00021275073
0.0010180548
0.00022596685
0.0010383352
0.00023145996
0.0010602844
0.00024471663
0.0010861099
0.0002522209
0.001110745
0.00026517882
0.0011328102
0.00025988381
0.00027557836
0.0011544913
0.00097847736
-5.0683459e-05
0.00097469354
-3.8765347e-05
0.00096287923
-7.6162557e-05
0.00095496193
-0.00017521798
0.0009544113
-0.00026002536
0.00095721821
-0.00030082314
0.00095866686
-0.00032721988
0.00095680862
-0.00034128732
0.00095286462
-0.00035019782
0.00094776198
-0.00034994548
0.00094163023
-0.00033324199
0.00093423826
-0.0003004482
0.00092685383
-0.00025211626
0.00092103769
-0.00019721487
0.00091681286
-0.00014669545
0.00091315282
-0.00011105417
0.0009089124
-8.8624303e-05
0.00090358095
-7.3845727e-05
0.00089802637
-6.4486184e-05
0.0008926365
-5.8462447e-05
0.00088722088
-5.3195351e-05
0.00088202809
-4.8222621e-05
0.00087638452
-4.2584671e-05
0.00087012074
-3.5336091e-05
0.00086370954
-2.6780066e-05
0.00085727427
-1.7363923e-05
0.00085080693
-7.8567931e-06
0.00084540517
2.0606732e-06
0.00084072605
1.111468e-05
0.00083752955
2.1240733e-05
0.00083532945
2.8849453e-05
0.00083482324
3.8214509e-05
0.00083523053
4.637586e-05
0.00083721382
5.5757308e-05
0.00084057621
6.4533498e-05
0.00084461183
7.2085623e-05
0.00085063197
8.4075011e-05
0.00085781651
9.1789368e-05
0.00086706517
0.00010365668
0.00087718916
0.00011340027
0.00088767178
0.00012417846
0.00090037159
0.00013374294
0.00091437362
0.00014675136
0.00092813978
0.00015230114
0.00094361149
0.00016600671
0.00096197521
0.00017592712
0.00097941103
0.0001878361
0.00099722356
0.00019270589
0.0010166938
0.00020607879
0.0010371254
0.00021155605
0.0010608938
0.00022747188
0.0010823537
0.0002262065
0.0010970911
0.00023454648
0.0011289368
0.00024548624
0.00025460297
0.0011530181
0.00098575891
-5.9480166e-05
0.00098167718
-3.9148861e-05
0.00096883906
-6.6589532e-05
0.00095986234
-0.00016453265
0.00095789682
-0.00024671568
0.0009593734
-0.00028579477
0.00096000579
-0.00031094177
0.00095787854
-0.00032602159
0.0009539937
-0.00033429299
0.00094925782
-0.00033438378
0.00094373514
-0.00031851713
0.00093702599
-0.00028561554
0.00093004625
-0.00023833757
0.00092435756
-0.00018154926
0.00091992475
-0.0001307236
0.00091605744
-9.3167433e-05
0.00091162697
-7.1385109e-05
0.0009061246
-5.9891818e-05
0.00090030807
-5.3741667e-05
0.00089472631
-4.9795915e-05
0.00088921412
-4.6121082e-05
0.00088393249
-4.2946934e-05
0.00087833918
-3.8307077e-05
0.00087219381
-3.1864892e-05
0.00086587933
-2.3733311e-05
0.00085953008
-1.4841701e-05
0.00085309742
-5.5570584e-06
0.00084752544
3.7071135e-06
0.00084299919
1.2964e-05
0.00083941627
2.1195323e-05
0.0008375058
3.0766443e-05
0.00083666563
3.8336388e-05
0.00083735801
4.6368468e-05
0.00083903517
5.3088539e-05
0.00084213244
6.1271914e-05
0.00084698851
6.9967197e-05
0.00085209332
7.770657e-05
0.00085964441
8.6433016e-05
0.0008688649
9.7909595e-05
0.00087818769
0.00010311985
0.00088991124
0.00011751119
0.00090156186
0.00012247177
0.00091406249
0.00013307939
0.00092912065
0.00014205097
0.00094577873
0.00015510073
0.00096088448
0.00015849772
0.00097763785
0.00017074558
0.00099653928
0.0001777298
0.0010154616
0.00019002281
0.001037508
0.00019466781
0.0010524226
0.00020044313
0.0010744372
0.00020857385
0.0011030449
0.00022067324
0.0011202231
0.00021907646
0.00023230547
0.001144773
0.0010005037
-6.5013835e-05
0.00099030018
-3.6027666e-05
0.00097449531
-5.615598e-05
0.00096328576
-0.00015295519
0.00095946737
-0.00023222433
0.00096018523
-0.00027041772
0.00096068675
-0.00029561185
0.00095871052
-0.00030953372
0.00095502713
-0.00031923015
0.0009507237
-0.00031893787
0.00094579382
-0.00030326008
0.00093975366
-0.00027115021
0.00093328817
-0.00022338928
0.0009276783
-0.00016693289
0.00092308489
-0.00011532124
0.00091888145
-7.7714004e-05
0.00091417757
-5.6458451e-05
0.00090846565
-4.6065181e-05
0.00090237787
-4.2998474e-05
0.00089661159
-4.1710926e-05
0.00089097935
-3.9940779e-05
0.00088568081
-3.8245404e-05
0.00088020654
-3.4420424e-05
0.00087424931
-2.8484255e-05
0.00086807788
-2.0935908e-05
0.00086184767
-1.243553e-05
0.00085544446
-3.4541491e-06
0.00084988328
5.8651184e-06
0.00084512405
1.4260565e-05
0.00084171548
2.2822707e-05
0.00083936205
2.9593045e-05
0.00083859089
3.7295511e-05
0.00083892897
4.431531e-05
0.00084077876
5.1211996e-05
0.00084421674
5.8792343e-05
0.00084829826
6.491475e-05
0.00085417953
7.4210409e-05
0.00086140232
8.0579293e-05
0.00086960705
8.9066401e-05
0.00088085791
9.9091882e-05
0.00089006608
0.00010560113
0.00090202042
0.00011260768
0.00091624015
0.00012552053
0.00093006774
0.00012962616
0.00094385594
0.00013843353
0.00096058825
0.0001462872
0.00097827777
0.00015809577
0.00099559414
0.00016184191
0.0010137354
0.00017019029
0.0010291801
0.00017457566
0.0010541726
0.00018689729
0.0010727367
0.0001884781
0.0010936541
0.00019911779
0.0011149505
0.00019755521
0.00020440948
0.0011325742
0.0010145833
-6.473123e-05
0.0009967594
-2.7242642e-05
0.0009788031
-4.5639255e-05
0.00096560467
-0.00014055236
0.00096020784
-0.00021768274
0.00096039012
-0.00025424002
0.00096107477
-0.0002789069
0.00095936676
-0.00029242954
0.000956026
-0.00030246232
0.00095217131
-0.00030297935
0.00094787705
-0.00028785407
0.00094252578
-0.00025530048
0.00093655059
-0.00020833266
0.00093106441
-0.00015237105
0.0009262522
-9.8781716e-05
0.00092158583
-6.2474135e-05
0.0009165477
-4.2878959e-05
0.00091056093
-3.3858251e-05
0.00090422606
-3.2512022e-05
0.00089824299
-3.3726563e-05
0.0008924835
-3.3948166e-05
0.00088724507
-3.3202279e-05
0.00088188445
-3.0530027e-05
0.00087608698
-2.5317104e-05
0.00087007553
-1.8286257e-05
0.00086398157
-1.0004963e-05
0.00085768572
-1.542214e-06
0.00085198074
7.0753284e-06
0.00084722843
1.5718001e-05
0.00084340234
2.2791213e-05
0.00084106814
3.05726e-05
0.00084005563
3.6981209e-05
0.00084040277
4.355121e-05
0.00084225476
4.9828593e-05
0.000845264
5.5695124e-05
0.00084981143
6.2354787e-05
0.00085499492
6.867638e-05
0.00086179599
7.4315589e-05
0.00087139129
8.4782357e-05
0.00087971891
8.7751824e-05
0.00089082021
9.8844055e-05
0.00090324377
0.00010531822
0.00091481851
0.00011176481
0.00092802013
0.00011682092
0.00094464257
0.00013020802
0.00095990201
0.00013323771
0.00097572363
0.00014166528
0.00099097342
0.00014456833
0.0010113545
0.00015821892
0.0010280054
0.00015738584
0.0010491535
0.00017134197
0.0010670955
0.00016901308
0.0010850931
0.0001755563
0.0011050558
0.00018218901
0.00019347401
0.0011350951
0.0010141273
-6.5796167e-05
0.00099682881
-2.1453056e-05
0.00097832768
-3.6697406e-05
0.00096530604
-0.00012975571
0.00096014033
-0.00020284185
0.0009604338
-0.00023819471
0.0009614155
-0.00026271466
0.00095995758
-0.00027679617
0.00095696193
-0.00028583771
0.00095360824
-0.00028536345
0.00094992918
-0.00027109442
0.00094526464
-0.00023985426
0.00093976023
-0.00019408144
0.00093449148
-0.00013827418
0.00092934241
-8.5642473e-05
0.00092423364
-4.7844248e-05
0.00091882573
-2.8579494e-05
0.00091250663
-2.1960786e-05
0.00090588035
-2.2466258e-05
0.00089971448
-2.5725091e-05
0.00089390683
-2.7736928e-05
0.00088869715
-2.8106258e-05
0.00088345737
-2.646676e-05
0.00087785287
-2.2012612e-05
0.00087203552
-1.545518e-05
0.00086608193
-7.7642639e-06
0.00085983202
2.6388596e-07
0.00085416124
8.4402945e-06
0.00084914848
1.5928801e-05
0.00084544089
2.3977091e-05
0.00084276466
3.0264018e-05
0.00084169983
3.6468241e-05
0.00084185733
4.2347592e-05
0.00084340292
4.7579169e-05
0.0008466136
5.354176e-05
0.00085042316
5.7839883e-05
0.00085568328
6.3936393e-05
0.00086298311
6.9832838e-05
0.00087061259
7.6047544e-05
0.00088078145
8.3044504e-05
0.00089122885
9.0561175e-05
0.00090119484
9.2945451e-05
0.00091435437
0.00010379721
0.00092928813
0.00010951037
0.00094220912
0.00011538079
0.00095680223
0.00011849083
0.00097293635
0.00013008745
0.00099182616
0.00013385862
0.0010052406
0.00014072804
0.001027296
0.00014437104
0.0010403739
0.00014844528
0.0010597346
0.00015337081
0.0010861618
0.00016687607
0.0011012154
0.00015856254
0.00016935254
0.00111845
0.0010169588
-6.6400869e-05
0.00099788783
-1.6485258e-05
0.00097852918
-2.9221108e-05
0.0009652759
-0.00011955888
0.00096001626
-0.0001879479
0.00096028294
-0.00022222531
0.00096156898
-0.00024706139
0.00096044031
-0.00026052987
0.00095785611
-0.00026939975
0.00095498583
-0.00026890046
0.00095194108
-0.00025491839
0.00094795294
-0.00022437464
0.00094298469
-0.00017890347
0.00093784601
-0.00012462678
0.00093245151
-7.3019933e-05
0.0009268447
-3.509695e-05
0.00092093696
-1.5940198e-05
0.0009142628
-1.0842115e-05
0.00090731735
-1.3200187e-05
0.00090095776
-1.8536048e-05
0.0008950956
-2.1879909e-05
0.00088995094
-2.3315441e-05
0.00088484729
-2.2641464e-05
0.00087946689
-1.8602947e-05
0.00087383839
-1.2730892e-05
0.00086802675
-5.5359847e-06
0.00086190189
2.1024314e-06
0.0008561008
9.7800091e-06
0.00085114949
1.7106341e-05
0.00084708304
2.3246907e-05
0.00084429151
3.0201072e-05
0.0008429707
3.584274e-05
0.00084281172
4.0597346e-05
0.00084426715
4.5011074e-05
0.00084692673
4.8988031e-05
0.00085084507
5.3940916e-05
0.00085617527
5.9896705e-05
0.00086238245
6.3332044e-05
0.00087112923
7.1070825e-05
0.00087990504
7.4691727e-05
0.00088936413
8.1285926e-05
0.00090138154
8.7321569e-05
0.00091377449
9.403737e-05
0.00092535547
9.52902e-05
0.00093958045
0.00010445419
0.00095627241
0.00011081206
0.00097089835
0.00011637453
0.00098613605
0.00011915404
0.0010020849
0.00012348119
0.0010188018
0.00013002703
0.0010387942
0.00013861674
0.0010597492
0.00013861696
0.0010692396
0.00014175296
0.0010956722
0.00014765518
0.00015053912
0.0011117709
0.0010023043
-7.4119115e-05
0.00099077061
-2.1039388e-05
0.00097258813
-2.4801493e-05
0.00096162222
-0.00011177444
0.00095845638
-0.00017579116
0.00095977893
-0.00020540029
0.00096165314
-0.00022956997
0.00096090205
-0.00024318268
0.00095873007
-0.00025181918
0.0009563534
-0.00025119413
0.00095392498
-0.00023800541
0.00095062058
-0.00020814251
0.0009461182
-0.00016527731
0.00094112528
-0.00011241721
0.00093551632
-6.091733e-05
0.00092935069
-2.4193146e-05
0.00092292403
-5.1167051e-06
0.00091586507
-6.46522e-07
0.00090857798
-4.6420667e-06
0.00090205245
-1.1573368e-05
0.00089614708
-1.6315884e-05
0.00089108312
-1.8635535e-05
0.00088615142
-1.8578577e-05
0.00088096711
-1.5257378e-05
0.00087551757
-9.9967456e-06
0.00086990609
-3.4034241e-06
0.00086389084
3.8584734e-06
0.00085814068
1.0887814e-05
0.00085295498
1.7817369e-05
0.00084892229
2.4084028e-05
0.00084572057
2.8978346e-05
0.00084406754
3.361521e-05
0.00084369848
3.859771e-05
0.00084478354
4.28842e-05
0.0008475721
4.7151747e-05
0.00085125709
5.0362758e-05
0.00085588147
5.4648143e-05
0.00086248779
5.8666044e-05
0.00087021935
6.4066909e-05
0.00087878356
6.7624115e-05
0.00088930449
7.4789592e-05
0.00089934373
7.669994e-05
0.00091057691
8.3326023e-05
0.00092412888
8.8183864e-05
0.00093939744
9.6216763e-05
0.00095146468
9.5971499e-05
0.00096727258
0.0001037384
0.00097994432
0.00010445511
0.001001877
0.00011860975
0.00101494
0.00011378194
0.0010320533
0.00012008468
0.0010476014
0.0001226332
0.0010695924
0.00012847631
0.0010843689
0.0001305534
0.0001393389
0.0011073279
0.00099839614
-8.2228647e-05
0.00098725583
-2.7417832e-05
0.00096903036
-2.1976603e-05
0.00095873503
-0.00010480718
0.00095652352
-0.00016330622
0.00095871781
-0.00018976634
0.00096139196
-0.00021291556
0.00096124807
-0.00022467636
0.00095960213
-0.00023347858
0.00095772211
-0.00023317503
0.0009559079
-0.00022159422
0.00095321976
-0.00019341462
0.00094919522
-0.00015147979
0.00094442925
-0.0001007614
0.00093851953
-5.0181097e-05
0.00093179264
-1.3952719e-05
0.00092474685
4.4371538e-06
0.00091724272
8.330939e-06
0.00090961622
3.159654e-06
0.00090292757
-4.7257338e-06
0.00089695018
-1.0781368e-05
0.00089200266
-1.3751293e-05
0.00088726427
-1.4077923e-05
0.00088225747
-1.1585349e-05
0.0008770101
-7.1652369e-06
0.00087157639
-1.2121397e-06
0.0008656731
4.9379914e-06
0.00085995059
1.1601953e-05
0.00085469324
1.7904448e-05
0.00085034446
2.327205e-05
0.00084695004
2.9071971e-05
0.00084513056
3.3755207e-05
0.00084447205
3.6732805e-05
0.00084541311
4.0973868e-05
0.00084773533
4.3717286e-05
0.00085111049
4.729404e-05
0.00085561052
5.0383389e-05
0.00086156585
5.3349857e-05
0.00086912839
5.8115108e-05
0.00087784701
6.1710367e-05
0.00088685975
6.6532606e-05
0.00089720972
6.9502475e-05
0.00090949097
7.6268813e-05
0.00092179391
7.7948865e-05
0.00093395517
8.2854357e-05
0.00094829135
8.5758307e-05
0.00096291284
9.4790274e-05
0.00098140317
9.7300055e-05
0.00099152061
9.8867239e-05
0.0010081114
0.00010089388
0.0010276382
0.00011004443
0.0010412628
0.00010820009
0.0010642539
0.00011935071
0.0010794393
0.00011487157
0.00011664936
0.001091928
0.00098693368
-9.046643e-05
0.00097643621
-3.6164751e-05
0.00095914453
-2.1083236e-05
0.00095108126
-0.00010024453
0.00095144568
-0.00015281925
0.00095583526
-0.00017460179
0.00096029541
-0.00019557247
0.00096137667
-0.00020671406
0.00096050949
-0.00021529951
0.00095916613
-0.00021504927
0.00095789512
-0.00020348369
0.00095574275
-0.00017718511
0.00095214396
-0.00013807522
0.00094757404
-8.96163e-05
0.00094142
-4.2070033e-05
0.00093418869
-5.681794e-06
0.00092656969
1.2887581e-05
0.00091854753
1.6307159e-05
0.00091061255
1.0281699e-05
0.00090372199
1.4806183e-06
0.00089773802
-5.2051176e-06
0.00089290261
-8.7937593e-06
0.00088826717
-9.8414743e-06
0.00088343178
-7.9380701e-06
0.00087835804
-4.2525432e-06
0.00087307488
7.3629908e-07
0.00086735672
6.3909745e-06
0.00086169105
1.2386679e-05
0.00085630602
1.7802902e-05
0.00085207553
2.3196558e-05
0.00084844336
2.7863941e-05
0.00084608007
3.1394721e-05
0.0008453777
3.5499269e-05
0.00084562737
3.7172482e-05
0.00084786863
4.0524845e-05
0.00085066119
4.1463601e-05
0.00085507585
4.5523617e-05
0.00086063484
4.7852967e-05
0.00086809353
5.2335374e-05
0.00087601825
5.4513068e-05
0.00088513625
5.9070345e-05
0.00089543781
6.1944195e-05
0.00090623219
6.6417927e-05
0.00091775139
6.822577e-05
0.00093138686
7.5253185e-05
0.00094639752
7.8853613e-05
0.00095935359
8.0774876e-05
0.00097207692
8.2483597e-05
0.00098726205
8.8015777e-05
0.0010061487
9.2329798e-05
0.0010193588
9.6990024e-05
0.0010390262
9.6018903e-05
0.0010515847
9.9076326e-05
0.0010665726
0.00010173003
0.0001072683
0.0010903706
0.00098609211
-9.713364e-05
0.00097320668
-4.3947239e-05
0.00095483279
-1.8519883e-05
0.00094686201
-9.5544132e-05
0.00094762204
-0.00014197749
0.00095308266
-0.00016129495
0.00095891526
-0.00017993212
0.0009611757
-0.00018866474
0.000961161
-0.000196612
0.00096043982
-0.00019672352
0.00095976184
-0.0001859383
0.00095816793
-0.00016171866
0.00095501989
-0.00012536506
0.0009505903
-7.9796472e-05
0.00094426725
-3.4208631e-05
0.00093647695
8.1274336e-07
0.00092819759
1.9654034e-05
0.00091960503
2.260519e-05
0.00091131876
1.7007581e-05
0.00090424935
6.9684036e-06
0.00089817659
1.1981937e-07
0.00089342642
-4.0598763e-06
0.00088896337
-5.7396483e-06
0.00088427186
-4.587073e-06
0.0008794035
-1.7330032e-06
0.00087431158
2.5193123e-06
0.00086880235
7.489852e-06
0.00086316453
1.2879446e-05
0.00085782662
1.7910512e-05
0.00085336344
2.2478749e-05
0.00084936559
2.6373165e-05
0.00084690495
3.0195548e-05
0.00084545285
3.1843934e-05
0.00084585363
3.5106734e-05
0.00084713161
3.6481412e-05
0.00085032815
3.9154713e-05
0.00085410235
4.088405e-05
0.00085943898
4.3127146e-05
0.00086618232
4.6473395e-05
0.00087399548
4.8360485e-05
0.00088301143
5.2727527e-05
0.00089220777
5.4203274e-05
0.00090295649
5.851131e-05
0.00091517581
6.1085199e-05
0.0009283106
6.504145e-05
0.00093916952
6.4870178e-05
0.00095443123
7.2961971e-05
0.00096784243
7.3520615e-05
0.00098462006
8.0645354e-05
0.00099874159
7.8953541e-05
0.0010106953
8.0497298e-05
0.001028979
8.4509039e-05
0.0010468225
9.1854429e-05
0.0010601456
8.6036774e-05
9.7528428e-05
0.0010809335
0.00098712299
-0.00010132019
0.00097065058
-4.7072611e-05
0.00095060687
-1.5730829e-05
0.00094212316
-8.970197e-05
0.00094259191
-0.00013009311
0.00094889665
-0.00014673324
0.00095628489
-0.00016391107
0.0009602036
-0.00017065604
0.00096149922
-0.00017745507
0.00096167413
-0.00017818839
0.00096154213
-0.0001686379
0.00096033883
-0.00014582233
0.00095756521
-0.00011262737
0.00095336072
-7.0624223e-05
0.00094697679
-2.7457281e-05
0.00093876227
6.0430543e-06
0.00092983107
2.4594689e-05
0.00092079555
2.8062203e-05
0.00091205404
2.2312215e-05
0.00090484087
1.2439333e-05
0.00089865975
4.5531353e-06
0.00089394051
4.2479642e-07
0.00088954649
-1.6680322e-06
0.00088499845
-1.3365755e-06
0.00088021468
5.8035703e-07
0.00087534701
3.7680558e-06
0.00087003837
8.1435055e-06
0.00086454012
1.2585153e-05
0.000859283
1.7450896e-05
0.00085477434
2.1348273e-05
0.00085075032
2.4789679e-05
0.00084758238
2.8029393e-05
0.00084625235
3.0482643e-05
0.00084590978
3.1751059e-05
0.00084736895
3.3928978e-05
0.00084983221
3.5768032e-05
0.00085349341
3.684599e-05
0.00085821829
3.819564e-05
0.00086450678
4.1202186e-05
0.00087235192
4.364862e-05
0.00088031657
4.5091012e-05
0.00088925389
4.6511109e-05
0.00090012025
5.1252744e-05
0.00091085242
5.1939498e-05
0.00092275272
5.6385299e-05
0.00093694283
5.8821546e-05
0.00094970021
6.3083818e-05
0.00096391977
6.4386263e-05
0.00097631
6.5017401e-05
0.00098935717
6.8549626e-05
0.0010073744
7.3170827e-05
0.0010258127
7.6213575e-05
0.0010313616
7.4404477e-05
0.0010602885
7.9602647e-05
7.9589235e-05
0.001065419
0.00098768409
-0.00010413019
0.00097018333
-4.9598961e-05
0.00094935691
-1.1216164e-05
0.00094056338
-8.2466121e-05
0.00094055212
-0.0001188491
0.00094710489
-0.00013240368
0.0009551676
-0.00014866497
0.00095985252
-0.00015252847
0.0009617935
-0.00015867708
0.00096253371
-0.00015945127
0.00096294192
-0.0001506243
0.00096227816
-0.000130875
0.00095998669
-0.00010036724
0.00095602293
-6.2287802e-05
0.0009495048
-2.2288178e-05
0.00094085989
9.8874519e-06
0.00093127494
2.8578388e-05
0.0009216171
3.2566913e-05
0.0009124336
2.6738319e-05
0.00090494052
1.720285e-05
0.0008986453
9.1455378e-06
0.00089392495
4.1689916e-06
0.00088966369
1.8516301e-06
0.00088520392
1.7626006e-06
0.00088064652
2.5007237e-06
0.00087593812
5.1819691e-06
0.00087079498
7.9867623e-06
0.00086564048
1.2689114e-05
0.00086031669
1.6524576e-05
0.00085559345
1.9251187e-05
0.00085158997
2.3832586e-05
0.00084824694
2.668262e-05
0.00084640794
2.7874707e-05
0.00084596417
2.8689644e-05
0.00084686925
3.0714307e-05
0.00084877602
3.0865484e-05
0.00085217184
3.1791198e-05
0.00085659462
3.2987792e-05
0.00086266478
3.6393244e-05
0.00086921353
3.681484e-05
0.00087731029
3.8904224e-05
0.00088648361
4.137902e-05
0.0008959929
4.4131964e-05
0.00090692568
4.5471319e-05
0.00091895621
4.7664965e-05
0.00093154089
4.980422e-05
0.00094385242
5.2439047e-05
0.00095512338
5.2438331e-05
0.00097255868
6.0658996e-05
0.00098323469
5.7251317e-05
0.0010027736
6.3952105e-05
0.0010109903
6.1823493e-05
0.0010289223
6.3013497e-05
0.0010463004
6.9996918e-05
6.7296097e-05
0.0010584182
0.00098772761
-0.00010708998
0.00096970399
-5.244102e-05
0.00094764824
-3.7522009e-06
0.00093833713
-7.4374161e-05
0.00093775592
-0.0001064334
0.00094452966
-0.00011833435
0.00095342605
-0.00013258741
0.00095906042
-0.00013440277
0.00096185214
-0.00013915085
0.0009632755
-0.00013994884
0.00096408006
-0.00013263147
0.0009637639
-0.00011581116
0.00096181878
-8.8777402e-05
0.00095813659
-5.4846219e-05
0.00095179605
-1.8057492e-05
0.0009429657