/*--------------------------------*- C++ -*----------------------------------*\
| =========                 |                                                 |
| \\      /  F ield         | OpenFOAM: The Open Source CFD Toolbox           |
|  \\    /   O peration     | Version:  2406                                  |
|   \\  /    A nd           | Website:  www.openfoam.com                      |
|    \\/     M anipulation  |                                                 |
\*---------------------------------------------------------------------------*/
FoamFile
{
    version     2.0;
    format      ascii;
    arch        "LSB;label=32;scalar=64";
    class       surfaceScalarField;
    location    "22";
    object      phi_0;
}
// * * * * * * * * * * * * * * * * * * * * * * * * * * * * * * * * * * * * * //

dimensions      [1 0 -1 0 0 0 0];

oriented        oriented;

internalField   nonuniform List<scalar> 
192068
(
0.00096125596
-4.962108e-06
-1.0037986e-05
0.00096560378
-3.7338186e-05
2.2993356e-05
0.00095531004
-0.00012059929
0.00011731289
0.0009466818
-0.00022679133
0.0002252605
0.00094554437
-0.00032078837
0.00032279194
0.00094812688
-0.00036821492
0.00037444414
0.00094909891
-0.00039507169
0.00040349041
0.00094692674
-0.00041298496
0.0004214126
0.00094209325
-0.00042041679
0.00042897213
0.0009345174
-0.00041724264
0.00042565175
0.00092521642
-0.00039870403
0.0004055525
0.00091575644
-0.0003665396
0.00037376443
0.00090753228
-0.0003253848
0.00033260032
0.00090229889
-0.00028009219
0.00029037767
0.00089889557
-0.00024182343
0.00025457051
0.00089540944
-0.00020691038
0.00022228504
0.00089098401
-0.00017732015
0.00019241951
0.00088593027
-0.00015265466
0.00016421076
0.00088099426
-0.00013066526
0.0001389424
0.00087644819
-0.0001107059
0.00012005038
0.00087165855
-9.5195009e-05
0.00010385461
0.00086668198
-8.292282e-05
8.9904203e-05
0.0008609062
-7.0877587e-05
7.7577361e-05
0.0008546401
-6.0540465e-05
6.5922601e-05
0.00084843243
-4.9365094e-05
5.2725912e-05
0.00084235179
-3.7975591e-05
4.1098089e-05
0.00083651171
-2.538947e-05
2.8928558e-05
0.00083163596
-1.3855693e-05
1.6701618e-05
0.00082735381
-8.9843216e-07
3.7201715e-06
0.00082387506
1.1216749e-05
-8.8622207e-06
0.00082105977
2.4976838e-05
-2.2791672e-05
0.00081930124
3.7641543e-05
-3.6905639e-05
0.00081779501
5.2080751e-05
-5.3209539e-05
0.00081850225
6.7683247e-05
-6.7732268e-05
0.00082012824
8.2635406e-05
-8.5532983e-05
0.00082262314
9.8868731e-05
-0.00010419363
0.00082728298
0.00011572556
-0.00011976843
0.00083222209
0.00013191607
-0.00013991129
0.00084093958
0.00015046286
-0.00015536425
0.00084829965
0.00016593551
-0.0001788365
0.0008596595
0.00018579105
-0.00019424162
0.00087060787
0.00020385506
-0.00021807193
0.00088593047
0.00022253833
-0.00023430222
0.00090190562
0.0002424894
-0.00026087479
0.00091952861
0.00026048745
-0.00027968972
0.00094008107
0.00028122372
-0.00030307017
0.00096094085
0.0002983674
-0.00032339386
0.00098579417
0.00032031677
-0.00034290836
0.0010114385
0.00033523588
-0.00036054146
0.001039259
0.00035338007
-0.00038507124
0.0010658451
0.00036812281
-0.00039993439
0.0010978259
0.00038427768
-0.0004149916
0.0011281978
0.00039680015
-0.00042698946
0.0011654592
0.00040433934
-0.00044208394
0.00042688323
0.001194526
-0.00046127374
0.00096522992
-1.473054e-05
0.00096414933
-4.352666e-05
0.00095307618
-0.00011944119
0.00094397355
-0.00022330701
0.00094316848
-0.00031495227
0.0009471971
-0.00036080201
0.00094972291
-0.0003877257
0.00094841566
-0.00040474549
0.00094425553
-0.00041153403
0.00093769304
-0.00040866243
0.00092914096
-0.00039075818
0.00091977494
-0.00035968067
0.0009114425
-0.00031516259
0.0009058741
-0.00026869475
0.00090241372
-0.00022748545
0.00089886322
-0.00019411707
0.00089445675
-0.0001639461
0.00088934997
-0.00013933938
0.00088433053
-0.00012113558
0.0008796676
-0.00010323673
0.00087475574
-8.8797904e-05
0.00086978506
-7.6485611e-05
0.00086386483
-6.5367292e-05
0.000857272
-5.4741282e-05
0.00085054512
-4.4752831e-05
0.00084420547
-3.3459715e-05
0.00083782093
-2.1995448e-05
0.00083271489
-1.0215469e-05
0.00082815767
1.695322e-06
0.00082482273
1.3099392e-05
0.00082261264
2.6040122e-05
0.00082095894
3.78306e-05
0.00082092865
5.1857768e-05
0.00082151788
6.4594303e-05
0.00082403518
7.9599301e-05
0.0008277355
9.5565786e-05
0.00083214858
0.00010867614
0.00083950757
0.000127298
0.00084660932
0.00013925166
0.00085713258
0.00016115507
0.00086668152
0.00017291774
0.00087856995
0.00019232028
0.00089231172
0.00020811025
0.00090727255
0.00022766362
0.00092444529
0.00024271241
0.00094266025
0.00026280953
0.00096331046
0.00027790595
0.0009850317
0.00029517879
0.0010081374
0.00031087704
0.0010359616
0.00032804055
0.0010602291
0.00034074767
0.0010897289
0.00034997676
0.0011170789
0.00036711432
0.0011490486
0.0003726122
0.00039331865
0.001183764
0.00096884561
-2.2611991e-05
0.00096564334
-4.5071443e-05
0.00095411793
-0.00011473261
0.00094512001
-0.00021709534
0.0009445204
-0.00030641918
0.00094875948
-0.00035121781
0.00095162015
-0.00037772118
0.00095049565
-0.00039397625
0.00094655724
-0.00040060779
0.00094031181
-0.00039913567
0.00093222955
-0.00038086797
0.00092304489
-0.00034963038
0.00091456466
-0.00030512183
0.00090878154
-0.00025552541
0.0009050671
-0.0002112656
0.00090155511
-0.00017894186
0.00089726484
-0.00015134524
0.00089217913
-0.00012726223
0.00088716891
-0.00010873665
0.00088234329
-9.3982905e-05
0.00087740808
-8.156811e-05
0.00087242914
-7.0445858e-05
0.0008665872
-6.0684016e-05
0.00086000429
-5.0616603e-05
0.00085339299
-4.0315574e-05
0.00084683723
-2.9391362e-05
0.00084034927
-1.8306407e-05
0.00083500173
-7.4082228e-06
0.00083049751
3.8249269e-06
0.00082722019
1.5096688e-05
0.00082503388
2.6201736e-05
0.00082400562
3.8143461e-05
0.00082397743
4.9810364e-05
0.00082536752
6.3624866e-05
0.0008282971
7.6052602e-05
0.00083224756
8.962824e-05
0.00083789612
0.00010436294
0.00084454129
0.0001178634
0.000854657
0.00013457397
0.000863381
0.00014682941
0.00087512174
0.00016446052
0.00088796693
0.00018031432
0.00090199191
0.00019485313
0.00091729819
0.00021034946
0.00093448226
0.00022770902
0.00095280949
0.00024266883
0.00097132612
0.00025851319
0.0009934342
0.00027364679
0.0010155005
0.00028959005
0.0010378339
0.00029806321
0.0010614506
0.00031541758
0.0010899228
0.00032542133
0.0011173443
0.00034123886
0.00114359
0.00034098939
0.00035988243
0.0011737133
0.00097189288
-2.9537955e-05
0.00096757936
-4.4570597e-05
0.00095586864
-0.00010694658
0.00094713806
-0.00020891306
0.00094666919
-0.00029642177
0.00095080688
-0.00033975393
0.00095354483
-0.00036675781
0.0009523224
-0.00038286372
0.00094847631
-0.00038995751
0.00094256536
-0.00038897821
0.00093490472
-0.00037136217
0.00092603004
-0.00033907261
0.0009176883
-0.00029335182
0.00091185092
-0.0002413285
0.00090795553
-0.00019645601
0.00090459679
-0.00016098026
0.00090045848
-0.00013472421
0.00089539868
-0.00011463551
0.00089032815
-9.7679123e-05
0.00088538773
-8.4113766e-05
0.00088030538
-7.3010089e-05
0.00087510029
-6.4330426e-05
0.00086919537
-5.5385167e-05
0.00086251007
-4.6628936e-05
0.00085586033
-3.6283023e-05
0.0008492589
-2.6095416e-05
0.00084273256
-1.5426783e-05
0.00083735811
-4.608301e-06
0.00083285706
6.6044202e-06
0.00082944005
1.6657302e-05
0.00082749483
2.8436396e-05
0.00082638974
3.8454945e-05
0.00082675729
5.0400997e-05
0.00082796176
6.0462428e-05
0.00083084495
7.33423e-05
0.00083535609
8.6587596e-05
0.0008399898
9.76863e-05
0.00084836599
0.00011292118
0.00085592221
0.00012388792
0.0008677878
0.00014170528
0.00087757268
0.00015187711
0.00089087152
0.00016728457
0.00090391957
0.00018082891
0.0009215938
0.00019748099
0.00093626948
0.00020960408
0.00095641137
0.00022446827
0.00097522349
0.00024040497
0.00099671923
0.00025099122
0.0010163391
0.00026641491
0.0010411179
0.00027696616
0.0010666463
0.00029377606
0.0010903779
0.0002970357
0.0011124653
0.00030890591
0.0011424308
0.00031652116
0.00032966343
0.001168586
0.00097405003
-3.6060961e-05
0.00096915576
-4.2200382e-05
0.00095728814
-9.7768733e-05
0.00094887102
-0.0001981021
0.00094857344
-0.00028466683
0.00095258695
-0.00032784055
0.00095519873
-0.00035402098
0.00095388816
-0.00037021933
0.00095011054
-0.00037767901
0.00094451188
-0.00037674074
0.00093735936
-0.00036034202
0.00092893421
-0.00032721201
0.00092086391
-0.00028014552
0.00091491622
-0.00022714516
0.00091102072
-0.00018061996
0.00090768319
-0.00014375671
0.00090355337
-0.00011778682
0.00089850048
-9.9599084e-05
0.00089321172
-8.7010962e-05
0.00088816801
-7.5607334e-05
0.00088292887
-6.6002271e-05
0.00087769534
-5.8639696e-05
0.00087184016
-5.0553372e-05
0.0008653351
-4.2155595e-05
0.00085864344
-3.2980639e-05
0.00085205988
-2.286731e-05
0.00084550452
-1.2449887e-05
0.00084014777
-1.9810947e-06
0.00083556432
8.0641934e-06
0.00083241764
1.8976196e-05
0.00083029015
2.828948e-05
0.00082962428
3.9156874e-05
0.00082975193
4.8050095e-05
0.00083161473
6.0008291e-05
0.00083469564
7.0374734e-05
0.00083882047
8.0859384e-05
0.00084455895
9.4582113e-05
0.00085165755
0.00010445723
0.00086140753
0.00011924439
0.00087083623
0.00012868927
0.00088216513
0.00014486335
0.00089481104
0.00015513087
0.00090906205
0.00017037478
0.00092344727
0.00017899383
0.00094073767
0.00019690809
0.00095906787
0.00020670932
0.0009769362
0.00022106456
0.00099729447
0.00023042034
0.0010192604
0.00024668061
0.0010418061
0.00025312264
0.0010627936
0.00026595541
0.0010853658
0.00027150902
0.001115648
0.00028862806
0.0011367111
0.00028998164
0.00030780752
0.0011689251
0.00097618228
-4.3039267e-05
0.00097131137
-3.9685402e-05
0.00095940369
-8.6791979e-05
0.00095130025
-0.00018653492
0.00095105008
-0.00027202715
0.00095472318
-0.00031452159
0.00095695738
-0.00034109635
0.00095544336
-0.00035607015
0.00095165076
-0.00036378308
0.00094628986
-0.00036386305
0.0009396938
-0.00034672456
0.00093176275
-0.0003145699
0.00092399685
-0.00026754403
0.00091806383
-0.00021236764
0.00091413139
-0.00016222485
0.00091062974
-0.00012809605
0.00090649356
-0.00010345723
0.00090132707
-8.5754206e-05
0.00089589198
-7.5411986e-05
0.00089064583
-6.6772619e-05
0.00088522883
-5.9589046e-05
0.00087996922
-5.3144589e-05
0.0008741285
-4.631399e-05
0.00086759632
-3.8325515e-05
0.00086095417
-2.953778e-05
0.0008543814
-1.9774037e-05
0.00084784557
-9.8356714e-06
0.00084233952
2.5901504e-07
0.0008378568
1.0577321e-05
0.00083443965
1.9347449e-05
0.00083257134
2.9517856e-05
0.00083157981
3.8124945e-05
0.00083247343
4.891319e-05
0.00083396634
5.6852937e-05
0.00083716394
6.7710006e-05
0.0008419626
7.8273414e-05
0.00084670978
8.7507268e-05
0.00085504926
9.9546488e-05
0.00086307107
0.00011055342
0.00087455528
0.00012247277
0.00088438674
0.00013355865
0.00089756068
0.00014355282
0.00091013982
0.00015687634
0.00092685587
0.00016837409
0.00094211106
0.00018081008
0.00095904438
0.00018840752
0.00097812665
0.00020492296
0.00099785173
0.00021248882
0.0010176591
0.00022575011
0.0010378139
0.00023130816
0.0010607496
0.00024541706
0.0010864224
0.00025186543
0.0011089631
0.00026387783
0.0011332896
0.00026038314
0.00027486328
0.0011537982
0.00097847177
-5.1166672e-05
0.0009746451
-3.9519957e-05
0.00096280561
-7.678775e-05
0.00095484442
-0.00017554776
0.00095425763
-0.00026010331
0.00095709242
-0.00030076133
0.00095862286
-0.00032720559
0.00095683021
-0.00034146041
0.0009529379
-0.00035042074
0.00094790459
-0.00035024315
0.00094185394
-0.00033360927
0.0009345507
-0.00030059077
0.00092720675
-0.00025223561
0.00092140157
-0.00019698026
0.00091717257
-0.00014621836
0.00091353431
-0.00010999572
0.00090932083
-8.7392865e-05
0.00090399121
-7.280125e-05
0.00089839916
-6.3463312e-05
0.00089294213
-5.7534845e-05
0.00088743303
-5.2359795e-05
0.00088211995
-4.7582151e-05
0.00087636446
-4.2075589e-05
0.00086997352
-3.4957335e-05
0.00086344941
-2.6432661e-05
0.00085691643
-1.7042815e-05
0.00085036911
-7.5142376e-06
0.00084489116
2.4884257e-06
0.00084016872
1.1505284e-05
0.00083693502
2.1811462e-05
0.00083473045
2.9481241e-05
0.00083423092
3.8855647e-05
0.0008346024
4.6785975e-05
0.00083663875
5.6375594e-05
0.00083997236
6.4938879e-05
0.00084404223
7.2466395e-05
0.00085015378
8.4604642e-05
0.0008571341
9.1832025e-05
0.00086670737
0.00010435374
0.00087652379
0.00011302552
0.00088728646
0.00012466093
0.00089997448
0.00013395185
0.0009138646
0.00014655481
0.00092757799
0.00015220068
0.00094339128
0.00016639261
0.00096166997
0.00017588866
0.00097889941
0.00018749307
0.00099687247
0.00019261804
0.0010163985
0.00020612021
0.0010374024
0.00021174187
0.0010602013
0.00022680353
0.0010814233
0.00022595161
0.0010975259
0.00023451459
0.0011283634
0.00024588843
0.00025534704
0.0011538448
0.00098575013
-6.0022211e-05
0.00098162756
-3.9967505e-05
0.00096876734
-6.7185124e-05
0.000959746
-0.00016490226
0.0009577423
-0.00024684493
0.0009592409
-0.00028599849
0.00095995061
-0.00031109141
0.00095789178
-0.00032635401
0.00095406179
-0.00033479165
0.0009493976
-0.00033470217
0.00094396541
-0.00031877784
0.00093733798
-0.00028586412
0.0009304137
-0.00023835038
0.00092473302
-0.00018130903
0.00092031144
-0.00013018537
0.00091645576
-9.2271128e-05
0.0009120406
-7.0190602e-05
0.00090654177
-5.8647004e-05
0.0009006778
-5.2718152e-05
0.00089503437
-4.8882704e-05
0.00088942096
-4.5352706e-05
0.00088402217
-4.2376537e-05
0.00087831839
-3.7843858e-05
0.0008720545
-3.1491518e-05
0.00086562401
-2.3428968e-05
0.0008591817
-1.455489e-05
0.00085267664
-5.211065e-06
0.00084701662
4.0596626e-06
0.00084246326
1.3479789e-05
0.00083883674
2.1589837e-05
0.00083690687
3.1258426e-05
0.00083602911
3.8786588e-05
0.00083676429
4.7005209e-05
0.00083839896
5.3440958e-05
0.00084153452
6.1744861e-05
0.00084645098
7.0473559e-05
0.00085147412
7.7886891e-05
0.00085919564
8.700731e-05
0.00086810535
9.7726472e-05
0.00087785512
0.00010376291
0.00088939718
0.00011755572
0.0009009278
0.00012224046
0.00091363403
0.00013337888
0.0009288739
0.00014240725
0.00094524812
0.00015477444
0.00096031351
0.0001582346
0.00097734598
0.00017090255
0.00099633999
0.00017791074
0.0010152995
0.00018988828
0.0010368147
0.00019446138
0.0010521821
0.00019997455
0.0010740901
0.00020877049
0.0011038421
0.00022159056
0.0011198606
0.00021785733
0.00023104561
0.0011433532
0.0010004886
-6.55654e-05
0.00099024889
-3.6864989e-05
0.0009744219
-5.670768e-05
0.00096316793
-0.00015329027
0.00095930626
-0.00023267692
0.00096004526
-0.0002708178
0.0009606174
-0.00029622215
0.0009587107
-0.00031028862
0.00095509297
-0.00031980599
0.00095086294
-0.00031939241
0.00094602423
-0.00030345502
0.00094007617
-0.00027119241
0.00093366797
-0.00022328937
0.00092807087
-0.00016668544
0.00092348903
-0.00011453605
0.00091928492
-7.6802764e-05
0.0009145908
-5.5461177e-05
0.00090887579
-4.493156e-05
0.00090274724
-4.1941862e-05
0.00089691483
-4.0792911e-05
0.00089117826
-3.922006e-05
0.00088577153
-3.7653005e-05
0.00088018871
-3.39714e-05
0.00087411479
-2.8159116e-05
0.00086783195
-2.0658046e-05
0.00086151589
-1.2151556e-05
0.0008550366
-3.1670723e-06
0.00084940532
6.2608333e-06
0.00084458079
1.4627878e-05
0.00084114153
2.3323071e-05
0.00083874398
3.0021413e-05
0.00083797737
3.7760884e-05
0.00083827295
4.4629056e-05
0.00084017576
5.1805039e-05
0.00084361224
5.9182509e-05
0.0008476722
6.518791e-05
0.00085368418
7.4764917e-05
0.00086067882
8.0545226e-05
0.00086916341
8.9543077e-05
0.00088025558
9.908109e-05
0.00088941798
0.00010550578
0.00090169019
0.0001131693
0.00091582777
0.00012554981
0.00092934934
0.0001291433
0.00094337058
0.00013850383
0.00096035035
0.00014663251
0.00097799621
0.00015801139
0.0009950455
0.00016143379
0.001013434
0.00017009632
0.0010284411
0.00017407134
0.001054624
0.00018802554
0.001072891
0.00018792609
0.0010919379
0.00019768293
0.0011144726
0.00019820988
0.0002049177
0.0011334436
0.0010145629
-6.5237823e-05
0.0009967093
-2.7950639e-05
0.00097872982
-4.6084881e-05
0.00096547894
-0.00014101865
0.00096004252
-0.00021819052
0.00096023911
-0.000254958
0.00096099451
-0.00027965263
0.00095936604
-0.00029323914
0.00095609246
-0.00030315916
0.00095231691
-0.00030334613
0.00094811517
-0.00028800284
0.00094285821
-0.00025523001
0.00093694009
-0.00020814546
0.00093148508
-0.00015197678
0.0009266675
-9.8164125e-05
0.00092199548
-6.146561e-05
0.00091696553
-4.1704494e-05
0.00091096983
-3.2710454e-05
0.00090459743
-3.1354807e-05
0.0008985449
-3.2744276e-05
0.0008926882
-3.3134352e-05
0.00088733933
-3.2582057e-05
0.00088186824
-3.0070948e-05
0.00087596049
-2.4987345e-05
0.00086984317
-1.8012509e-05
0.00086365976
-9.7420048e-06
0.0008572948
-1.2633497e-06
0.00085150287
7.3156714e-06
0.00084670544
1.6101549e-05
0.00084282997
2.3157467e-05
0.00084046771
3.1039954e-05
0.00083942262
3.7433299e-05
0.00083981815
4.418258e-05
0.00084160531
5.0220182e-05
0.00084462948
5.6106714e-05
0.00084924671
6.2791994e-05
0.00085430272
6.8697613e-05
0.00086126478
7.4758975e-05
0.00087071236
8.4806954e-05
0.00087908511
8.7794473e-05
0.00089048623
9.9320631e-05
0.00090259704
0.00010503316
0.00091409912
0.00011154959
0.00092769093
0.00011727006
0.00094434061
0.00013043893
0.00095929126
0.00013271671
0.0009751274
0.00014149935
0.00099075291
0.000144666
0.001010783
0.00015855188
0.0010286661
0.00015765034
0.0010478867
0.00017021466
0.0010662297
0.00016894861
0.0010859321
0.00017644227
0.0011047545
0.00018146593
0.00019397764
0.0011349345
0.0010141029
-6.6233643e-05
0.0009967801
-2.1969858e-05
0.00097825246
-3.6996864e-05
0.00096517747
-0.00013017419
0.0009599688
-0.00020338742
0.00096027633
-0.000239038
0.0009613277
-0.00026367685
0.00095995545
-0.00027756339
0.00095703642
-0.00028649921
0.00095376256
-0.00028573685
0.00095017619
-0.00027111823
0.00094560297
-0.00023968479
0.00094016153
-0.00019376513
0.00093491905
-0.00013781598
0.00092977455
-8.502798e-05
0.00092466217
-4.6779955e-05
0.00091925277
-2.7276168e-05
0.00091292481
-2.0693455e-05
0.00090625167
-2.1304744e-05
0.00090002072
-2.46973e-05
0.00089411387
-2.6891158e-05
0.00088879262
-2.7484398e-05
0.0008834449
-2.602569e-05
0.00087773734
-2.1648362e-05
0.00087181596
-1.5177059e-05
0.000865773
-7.4968617e-06
0.00085944782
5.126741e-07
0.00085370742
8.8002139e-06
0.000848628
1.6161963e-05
0.00084488895
2.4392864e-05
0.00084216887
3.0678884e-05
0.00084110638
3.6961088e-05
0.00084120786
4.2604222e-05
0.00084274371
4.7901986e-05
0.00084596876
5.3809192e-05
0.0008497336
5.8037044e-05
0.00085513661
6.4441283e-05
0.00086228948
6.9916103e-05
0.00086996831
7.6216741e-05
0.00088031644
8.3400683e-05
0.00089050119
9.0330051e-05
0.00090060303
9.3083317e-05
0.00091404442
0.00010422972
0.00092876946
0.0001093334
0.00094137097
0.00011480181
0.00095644631
0.00011879681
0.0009726332
0.00013029182
0.0009917363
0.00013414154
0.0010045638
0.00013964523
0.0010266133
0.00014459655
0.0010401708
0.000148501
0.0010601763
0.00015356224
0.0010850313
0.00016666393
0.0011018892
0.00015860734
0.00016802675
0.0011169588
0.0010169339
-6.6694249e-05
0.00099784043
-1.6730924e-05
0.00097845207
-2.9268104e-05
0.00096514382
-0.00011978845
0.00095983698
-0.00018858325
0.00096011826
-0.00022319369
0.0009614809
-0.00024806067
0.00096043777
-0.00026149529
0.00095793701
-0.00027005987
0.00095515162
-0.00026911926
0.0009521985
-0.00025475214
0.00094830336
-0.00022394764
0.00094339745
-0.00017840192
0.00093828415
-0.00012406538
0.00093290477
-7.2286605e-05
0.00092728302
-3.4165972e-05
0.00092136491
-1.4760177e-05
0.00091468152
-9.5557831e-06
0.00090768804
-1.1996479e-05
0.00090126243
-1.7493699e-05
0.00089529895
-2.1037316e-05
0.00089004525
-2.2677282e-05
0.00088484343
-2.2167047e-05
0.00087935913
-1.8232207e-05
0.00087363208
-1.2439536e-05
0.00086772957
-5.2906291e-06
0.00086154564
2.4079619e-06
0.0008556462
1.0010916e-05
0.00085066132
1.7533336e-05
0.00084652831
2.3512222e-05
0.00084369912
3.0462759e-05
0.00084231106
3.6046911e-05
0.00084216467
4.0980018e-05
0.00084357535
4.5278134e-05
0.00084624446
4.92268e-05
0.0008502411
5.4231137e-05
0.00085548445
5.996584e-05
0.00086172595
6.3537619e-05
0.00087052643
7.1226032e-05
0.00087916504
7.4547958e-05
0.00088884084
8.155945e-05
0.00090093249
8.7483447e-05
0.00091304649
9.3660851e-05
0.00092460156
9.5114038e-05
0.00093937402
0.00010499435
0.00095584034
0.00011084387
0.00097053303
0.00011597297
0.00098490511
0.00011841716
0.0010024946
0.0001244333
0.0010181778
0.00012963022
0.0010387216
0.00013876454
0.0010593428
0.00013848644
0.0010685205
0.00014055948
0.0010948243
0.00014817301
0.00015143885
0.0011127596
0.0010022814
-7.4215576e-05
0.00099072671
-2.093637e-05
0.00097251233
-2.449749e-05
0.00096148438
-0.00011180019
0.00095827181
-0.00017640306
0.00095961473
-0.00020635646
0.00096156466
-0.00023059275
0.00096090667
-0.00024405401
0.00095882699
-0.00025235971
0.00095653622
-0.00025122557
0.00095419617
-0.00023774812
0.00095097763
-0.000207648
0.00094653491
-0.0001647268
0.0009415759
-0.00011180639
0.00093598229
-6.0027947e-05
0.00092979866
-2.3160862e-05
0.00092335731
-3.9202338e-06
0.00091628501
6.8288492e-07
0.00090894927
-3.3839456e-06
0.00090235683
-1.0448654e-05
0.00089635141
-1.5409848e-05
0.00089118288
-1.7925439e-05
0.00088615597
-1.802941e-05
0.00088086805
-1.4866546e-05
0.00087532141
-9.676251e-06
0.00086962664
-3.1424075e-06
0.00086353198
4.060743e-06
0.00085772058
1.116468e-05
0.00085245252
1.8000611e-05
0.00084836883
2.4433033e-05
0.00084511233
2.9294968e-05
0.00084344076
3.3966647e-05
0.00084303207
3.8783011e-05
0.00084410648
4.324202e-05
0.00084691417
4.7512246e-05
0.00085057353
5.0634865e-05
0.00085522471
5.4849117e-05
0.0008618011
5.8769297e-05
0.00086948168
6.4088516e-05
0.00087822093
6.7822797e-05
0.0008886908
7.4785951e-05
0.00089859459
7.6508392e-05
0.00091002073
8.3579463e-05
0.00092382971
8.8529279e-05
0.00093876924
9.5882223e-05
0.00095067405
9.5406325e-05
0.00096667418
0.00010407309
0.00098020856
0.00010491763
0.0010011883
0.00011864977
0.0010145714
0.00011340614
0.0010316396
0.00011977711
0.001046288
0.00012220145
0.0010708088
0.00012997827
0.0010840865
0.00012978845
0.00013869321
0.0011062901
0.00099837742
-8.2095939e-05
0.0009872172
-2.6848386e-05
0.00096895357
-2.1224828e-05
0.00095858992
-0.00010454697
0.0009563355
-0.00016367805
0.00095855163
-0.00019067466
0.0009613068
-0.00021391861
0.00096126363
-0.00022550209
0.00095971775
-0.00023386141
0.00095791957
-0.00023302156
0.00095619184
-0.0002210101
0.00095358469
-0.00019264606
0.00094962138
-0.00015063833
0.00094489509
-9.9937958e-05
0.00093899558
-4.9381814e-05
0.0009322544
-1.2874656e-05
0.00092519188
5.7256772e-06
0.00091766754
9.7328471e-06
0.00090999187
4.4683459e-06
0.00090323337
-3.5367096e-06
0.00089715918
-9.8191951e-06
0.0008921088
-1.2992626e-05
0.0008872724
-1.3525664e-05
0.00088216915
-1.1166903e-05
0.0008768242
-6.8320917e-06
0.00087130018
-9.369828e-07
0.00086533274
5.1840787e-06
0.00085952032
1.1788106e-05
0.00085421211
1.816726e-05
0.0008497933
2.3417585e-05
0.00084636813
2.9332264e-05
0.00084447953
3.400256e-05
0.0008438436
3.7088487e-05
0.0008447212
4.1095725e-05
0.0008470309
4.381799e-05
0.00085039668
4.7317778e-05
0.00085492048
5.0501324e-05
0.00086084528
5.3455456e-05
0.00086845692
5.8190083e-05
0.00087717403
6.1705253e-05
0.00088615601
6.6498992e-05
0.00089671298
6.9719553e-05
0.00090896084
7.6212177e-05
0.00092101388
7.7554377e-05
0.00093319225
8.2775603e-05
0.00094817157
8.6378207e-05
0.00096249791
9.4557545e-05
0.00098104223
9.7337345e-05
0.00099046136
9.777519e-05
0.0010079724
0.00010136271
0.0010272113
0.00011059454
0.0010420525
0.00010832238
0.0010627995
0.00011847078
0.0010789658
0.00011494782
0.000116277
0.0010918696
0.00098691752
-9.0103067e-05
0.00097640256
-3.5017249e-05
0.00095906571
-1.9969903e-05
0.00095092855
-9.9674742e-05
0.00095125257
-0.00015301634
0.00095567229
-0.00017535651
0.00096021747
-0.00019641292
0.00096140623
-0.00020740147
0.00096064454
-0.00021551654
0.00095938564
-0.00021474199
0.00095819698
-0.00020270092
0.00095611989
-0.00017622585
0.00095257628
-0.00013716515
0.00094803985
-8.8731826e-05
0.00094190725
-4.1170964e-05
0.00093466386
-4.6430521e-06
0.00092702674
1.4211947e-05
0.0009189757
1.7694626e-05
0.00091099146
1.1694129e-05
0.00090402536
2.6403741e-06
0.00089794747
-4.2145655e-06
0.00089300619
-8.041512e-06
0.00088827764
-9.2736879e-06
0.0008833507
-7.4998538e-06
0.00087817988
-3.9235042e-06
0.00087281073
1.0051394e-06
0.00086702241
6.6280768e-06
0.0008612833
1.2648839e-05
0.00085581561
1.7948609e-05
0.00085154224
2.346027e-05
0.00084784343
2.8018734e-05
0.00084544228
3.1534484e-05
0.00084467675
3.5539252e-05
0.00084490703
3.7255243e-05
0.00084710825
4.0625529e-05
0.00084994828
4.1500551e-05
0.00085437094
4.5610199e-05
0.00085990422
4.7872527e-05
0.00086736702
5.2416938e-05
0.00087531652
5.4470326e-05
0.00088455033
5.9173295e-05
0.00089477007
6.1898818e-05
0.00090548619
6.6308308e-05
0.00091720967
6.8451332e-05
0.00093111137
7.5440722e-05
0.00094561717
7.8474089e-05
0.0009589334
8.0651813e-05
0.00097096563
8.2001417e-05
0.00098759651
8.9042076e-05
0.0010060982
9.2423475e-05
0.0010184073
9.5964263e-05
0.0010384798
9.6053461e-05
0.0010513066
9.9132971e-05
0.0010658347
0.00010117046
0.00010851949
0.0010910135
0.00098608502
-9.6568862e-05
0.00097317626
-4.2359767e-05
0.00095474974
-1.6986587e-05
0.00094669841
-9.4728239e-05
0.00094742233
-0.00014187866
0.00095292057
-0.00016183019
0.00095884512
-0.00018059738
0.00096122414
-0.00018907716
0.0009613186
-0.00019653181
0.0009606812
-0.00019610418
0.00096007558
-0.00018500089
0.00095854934
-0.00016058696
0.00095545558
-0.00012423914
0.00095106238
-7.8771566e-05
0.00094476491
-3.315402e-05
0.0009369664
1.9011128e-06
0.00092865811
2.0903366e-05
0.00092004112
2.4010157e-05
0.00091169186
1.8398147e-05
0.00090455291
8.2239662e-06
0.00089838154
1.0918457e-06
0.0008935307
-3.2505672e-06
0.00088897697
-5.1355119e-06
0.0008841934
-4.1381979e-06
0.00087922994
-1.4060939e-06
0.00087405406
2.7484047e-06
0.00086847975
7.7353772e-06
0.00086274748
1.2973288e-05
0.00085736164
1.8124231e-05
0.00085281041
2.2567259e-05
0.00084876132
2.6442572e-05
0.00084623072
3.0298828e-05
0.00084476161
3.1926269e-05
0.0008451416
3.5274563e-05
0.00084637907
3.6489766e-05
0.00084963782
3.9456471e-05
0.00085337553
4.0921005e-05
0.00085872336
4.3228555e-05
0.00086539996
4.6379633e-05
0.00087335062
4.8468171e-05
0.00088233229
5.2700296e-05
0.00089149991
5.4085486e-05
0.00090242427
5.8599634e-05
0.00091458921
6.096666e-05
0.00092754257
6.4811663e-05
0.00093858762
6.4725473e-05
0.00095388401
7.3280597e-05
0.0009679696
7.3992089e-05
0.00098407583
8.0059544e-05
0.00099751666
7.8555543e-05
0.00101073
8.0716819e-05
0.0010288819
8.4932191e-05
0.0010456799
9.1704489e-05
0.0010615909
8.6477156e-05
9.6907628e-05
0.0010794123
0.00098712855
-0.00010055671
0.00097062195
-4.5166054e-05
0.00095051643
-1.3593939e-05
0.00094194799
-8.8610892e-05
0.00094238539
-0.0001298224
0.00094873865
-0.00014692555
0.00095622791
-0.00016429654
0.00096027356
-0.00017085558
0.00096168109
-0.00017716887
0.00096193322
-0.00017746628
0.00096186977
-0.00016753071
0.00096072859
-0.00014450325
0.00095800459
-0.00011136882
0.00095383945
-6.9454268e-05
0.00094748055
-2.6395063e-05
0.00093926218
7.1929134e-06
0.0009303041
2.5947353e-05
0.00092123634
2.949607e-05
0.00091242971
2.3719955e-05
0.00090513714
1.3732296e-05
0.00089886508
5.5604675e-06
0.0008940412
1.2167959e-06
0.00088955714
-1.0739911e-06
0.00088491864
-9.2129131e-07
0.0008800405
8.8015786e-07
0.00087509884
4.0116175e-06
0.00086969856
8.2791616e-06
0.00086414252
1.2742394e-05
0.00085879547
1.7458248e-05
0.00085422097
2.1413624e-05
0.00085015641
2.4947674e-05
0.00084691735
2.8054393e-05
0.00084558076
3.0606445e-05
0.00084516134
3.1668789e-05
0.00084668096
3.410442e-05
0.00084904195
3.5542473e-05
0.0008527747
3.6857518e-05
0.00085743043
3.8094211e-05
0.00086379511
4.1293108e-05
0.00087161567
4.3570883e-05
0.00087957384
4.492547e-05
0.00088865448
4.6585573e-05
0.00089945111
5.1271528e-05
0.00091017521
5.1915688e-05
0.00092214335
5.6415446e-05
0.00093665567
5.9169136e-05
0.00094921604
6.272014e-05
0.00096299448
6.3862667e-05
0.0009759445
6.5198762e-05
0.00098885614
6.8511352e-05
0.0010077369
7.3680447e-05
0.0010249124
7.6006595e-05
0.0010308864
7.342884e-05
0.0010602427
8.0639849e-05
7.8702301e-05
0.0010647026
0.00098770321
-0.00010320781
0.0009701654
-4.704236e-05
0.00094925451
-9.0131497e-06
0.00094037471
-8.1150996e-05
0.00094034035
-0.00011834974
0.00094694651
-0.00013237139
0.00095511977
-0.00014882236
0.00095994034
-0.00015247636
0.0009619942
-0.00015821082
0.00096281481
-0.00015843011
0.00096328463
-0.00014924403
0.00096267169
-0.00012946587
0.00096042786
-9.8983726e-05
0.00095649806
-6.1065146e-05
0.00095001218
-2.1204363e-05
0.00094137347
1.1056145e-05
0.00093175765
2.9882198e-05
0.00092206337
3.4038306e-05
0.00091280893
2.8153106e-05
0.0009052277
1.8405021e-05
0.00089884408
1.021453e-05
0.00089401797
4.9054109e-06
0.00088966605
2.3797927e-06
0.00088512276
2.1767033e-06
0.00088047869
2.8026812e-06
0.00087568426
5.408537e-06
0.00087046813
8.1297338e-06
0.00086522868
1.278331e-05
0.00085984107
1.6627616e-05
0.00085506191
1.928218e-05
0.00085097625
2.378991e-05
0.00084759687
2.6727803e-05
0.00084568199
2.7779524e-05
0.00084526457
2.8768085e-05
0.00084604245
3.0480344e-05
0.00084802382
3.0924788e-05
0.00085139615
3.1668105e-05
0.00085586743
3.2999424e-05
0.00086185833
3.62506e-05
0.00086842922
3.6716855e-05
0.00087669148
3.904231e-05
0.00088584676
4.1405122e-05
0.00089530393
4.3950488e-05
0.00090628732
4.5467796e-05
0.00091848746
4.7613746e-05
0.00093071252
4.9476647e-05
0.00094316008
5.2458623e-05
0.00095499153
5.272752e-05
0.00097199751
6.1004794e-05
0.00098313619
5.6969307e-05
0.0010023557
6.4167385e-05
0.0010091592
6.0708761e-05
0.001030821
6.4478324e-05
0.0010439845
6.8976211e-05
6.7690703e-05
0.0010590007
0.00098776858
-0.00010604198
0.00096968523
-4.9722993e-05
0.00094753718
-1.2611331e-06
0.00093813599
-7.2826867e-05
0.00093753924
-0.00010562778
0.00094437117
-0.00011810227
0.00095338928
-0.00013242828
0.00095916646
-0.00013413816
0.0009620788
-0.00013836978
0.00096357729
-0.00013875848
0.00096442984
-0.00013120848
0.00096416193
-0.00011426519
0.00096225699
-8.7308431e-05
0.00095860856
-5.3554171e-05
0.00095230845
-1.6860362e-05
0.00094348438
1.3246388e-05