/*--------------------------------*- C++ -*----------------------------------*\
| =========                 |                                                 |
| \\      /  F ield         | OpenFOAM: The Open Source CFD Toolbox           |
|  \\    /   O peration     | Version:  2406                                  |
|   \\  /    A nd           | Website:  www.openfoam.com                      |
|    \\/     M anipulation  |                                                 |
\*---------------------------------------------------------------------------*/
FoamFile
{
    version     2.0;
    format      ascii;
    arch        "LSB;label=32;scalar=64";
    class       volScalarField;
    location    "22";
    object      rho;
}
// * * * * * * * * * * * * * * * * * * * * * * * * * * * * * * * * * * * * * //

dimensions      [1 -3 0 0 0 0 0];

internalField   nonuniform List<scalar> 
96472
(
1.0021436
1.0032052
1.0019885
1.0016729
1.00086
0.99985376
0.99923798
0.99916692
0.99942249
0.99994963
1.0007531
1.0018359
1.0030673
1.0042507
1.0052209
1.0062163
1.0072416
1.0082762
1.0092341
1.0098986
1.0103009
1.0103963
1.010273
1.0098822
1.0092761
1.0084395
1.0074574
1.0063307
1.0051012
1.0038166
1.0025352
1.0012823
1.0000977
0.99896635
0.99788851
0.99691381
0.99592659
0.99518567
0.99427968
0.99353603
0.99292689
0.99236731
0.99184215
0.99126132
0.99114763
0.9906458
0.99043496
0.99004713
0.99004781
0.98981027
0.98963323
0.98923559
0.98935619
0.9890014
0.98915394
1.0021579
1.0032022
1.0019702
1.0016576
1.0008793
0.99989948
0.9992942
0.99921451
0.99944807
0.99994565
1.0006889
1.001744
1.0029817
1.004182
1.005225
1.0062476
1.0073096
1.0083553
1.0092825
1.0100064
1.010459
1.0106109
1.0105238
1.0101616
1.0095559
1.0087522
1.0078048
1.0066997
1.0054957
1.0042339
1.0029664
1.0017026
1.0004998
0.99937795
0.99828642
0.99724701
0.99637762
0.99541953
0.99466155
0.99382147
0.99314432
0.99257925
0.99197389
0.99166965
0.99100897
0.99077767
0.99045165
0.99031236
0.98988665
0.98979676
0.98963444
0.98950279
0.98914763
0.98902936
0.98877426
1.0021651
1.003194
1.0019576
1.0016661
1.0009098
0.99995225
0.99934092
0.99926778
0.9994826
0.99993415
1.0006367
1.0016349
1.0028781
1.0041246
1.0052291
1.0062401
1.0073243
1.0084229
1.0093715
1.010101
1.010579
1.010785
1.0107088
1.0103964
1.0098143
1.0090557
1.0081143
1.00705
1.0058624
1.0046253
1.0033532
1.0021209
1.0009165
0.99976837
0.99866545
0.9976422
0.99666259
0.99584177
0.99483726
0.99414652
0.9934258
0.99274702
0.99229631
0.99152125
0.99131824
0.99082439
0.99050467
0.99013775
0.99007817
0.9897999
0.98940201
0.9892044
0.9893246
0.98909308
0.98905651
1.002164
1.0031812
1.0019415
1.0016746
1.0009579
1.0000241
0.99941884
0.99933141
0.99952197
0.99991229
1.0005791
1.0015493
1.0027811
1.0040671
1.005224
1.0062889
1.0073623
1.0084596
1.0094784
1.0102295
1.0107231
1.0109403
1.0108825
1.0105786
1.0100507
1.0093064
1.0084106
1.00738
1.0062228
1.0050125
1.003773
1.0025226
1.001317
1.0001693
0.99904507
0.99799782
0.99705072
0.99606249
0.99530007
0.99431503
0.99364193
0.99304297
0.99228514
0.99192768
0.99131373
0.99083279
0.99054132
0.9902946
0.98989319
0.98958034
0.98951782
0.9895671
0.9890789
0.98872748
0.98845894
1.0021514
1.0031529
1.00192
1.0016817
1.001006
1.0001082
0.99948697
0.99937591
0.99953846
0.99989908
1.000518
1.0014513
1.0026805
1.0040084
1.0052007
1.0063516
1.0074558
1.008538
1.0095455
1.01034
1.0108612
1.0110777
1.0110447
1.0107581
1.0102452
1.0095344
1.0086741
1.007671
1.006565
1.0053885
1.0041701
1.0029591
1.0017472
1.0005712
0.99945156
0.99838896
0.99738875
0.99651593
0.99544694
0.99476583
0.99389994
0.99319639
0.9926608
0.99196491
0.99141904
0.99109045
0.99058785
0.99020488
0.98995755
0.98980177
0.98953115
0.98899391
0.98876379
0.98919344
0.98878637
1.0021277
1.003112
1.0018942
1.0016965
1.0010521
1.0001643
0.99954843
0.99940631
0.99954219
0.9998769
1.0004465
1.0013599
1.002582
1.0039305
1.005204
1.0063774
1.0075225
1.0086378
1.0096267
1.0104264
1.0109601
1.0111997
1.0111782
1.0109233
1.0104216
1.0097368
1.0089124
1.0079609
1.0068762
1.00574
1.0045474
1.0033442
1.0021246
1.0009837
0.99984338
0.99877682
0.99779371
0.99678356
0.99596598
0.99488817
0.99425064
0.99348421
0.99276923
0.99217496
0.99170569
0.99106356
0.99064546
0.99037341
0.9900087
0.98968022
0.9892061
0.9892893
0.98938539
0.98840282
0.98877821
1.0020935
1.0030683
1.001867
1.0016964
1.0010951
1.0002223
0.99958699
0.99942837
0.99953771
0.99983582
1.0003934
1.0012691
1.0024936
1.0038662
1.0052091
1.0064199
1.0075705
1.0087049
1.0097322
1.0105282
1.0110612
1.0113195
1.0112966
1.011057
1.010578
1.0099236
1.0091298
1.0082173
1.0071875
1.0060755
1.0049088
1.0037257
1.0025701
1.0013648
1.0002589
0.99916624
0.99811296
0.9972266
0.99612314
0.99542286
0.99442846
0.99374064
0.99307531
0.99241526
0.99170513
0.99127619
0.99085357
0.99037179
0.98999477
0.98965627
0.98964342
0.98915496
0.98872376
0.98871695
0.98817667
1.0020627
1.0030194
1.0018344
1.0017062
1.0011217
1.0002584
0.99960675
0.99941748
0.99951233
0.99979146
1.0003214
1.0012
1.0024051
1.0038104
1.0051864
1.0064905
1.0076742
1.0087859
1.0098288
1.0106297
1.0111785
1.0114311
1.0114105
1.0111748
1.0107198
1.0100878
1.0093252
1.0084617
1.0074519
1.0064121
1.0052854
1.0041324
1.0029241
1.0018021
1.0006395
0.99953215
0.99854866
0.99748562
0.9966354
0.99552684
0.99484056
0.99406529
0.99322809
0.99254947
0.99205222
0.99145792
0.99084299
0.99043172
0.99010187
0.98982216
0.98940595
0.98911563
0.98857809
0.98903359
0.98883045
1.0020403
1.00297
1.0018068
1.0017123
1.0011433
1.0002672
0.99961166
0.99938805
0.99945814
0.99974685
1.0002635
1.0011181
1.0023267
1.003754
1.005169
1.0065343
1.0077749
1.0089026
1.0099242
1.0107291
1.0112832
1.0115302
1.0115158
1.0112896
1.0108497
1.0102406
1.0095162
1.0086825
1.0077424
1.0066963
1.0056234
1.0044834
1.0033514
1.0021532
1.0010386
0.9999595
0.99885493
0.9979508
0.99684061
0.99600747
0.9951221
0.99420572
0.99355667
0.99293977
0.992141
0.99149918
0.9910598
0.99068795
0.99016569
0.98990107
0.98915269
0.98927756
0.98932408
0.98827983
0.9880566
1.0020159
1.0029187
1.0017802
1.0017177
1.0011309
1.0002541
0.99956406
0.99931149
0.99939212
0.99968463
1.0002131
1.0010605
1.0022646
1.0036947
1.0051822
1.0065743
1.0078406
1.009003
1.0100263
1.0108301
1.0113764
1.0116323
1.0116171
1.0113932
1.0109719
1.0103897
1.0096893
1.0089061
1.0079894
1.0070071
1.0059374
1.0048323
1.0036752
1.0025808
1.0014203
1.0003003
0.99931102
0.99820475
0.99727067
0.99628551
0.99532259
0.99467279
0.99383662
0.99296286
0.99235802
0.99187464
0.99122754
0.99065798
0.99024465
0.98968756
0.98995089
0.98906551
0.98850421
0.98885036
0.98834625
1.0019699
1.0028557
1.001749
1.0016993
1.0011032
1.0002039
0.99950243
0.99923057
0.9993127
0.99963064
1.0001654
1.0010192
1.0022152
1.0036543
1.0051717
1.0066264
1.0079305
1.0091035
1.0101459
1.0109432
1.0114863
1.0117402
1.0117209
1.0114961
1.0110905
1.0105313
1.0098567
1.0090884
1.008235
1.0072738
1.0062625
1.0051758
1.0040937
1.0029509
1.0018087
1.0007137
0.99957992
0.99862752
0.99757082
0.99655893
0.99577707
0.99483325
0.99398241
0.99337905
0.99272735
0.99185517
0.99133361
0.99082889
0.99065053
0.98994322
0.98945592
0.98917787
0.9890929
0.9884116
0.98888014
1.0019306
1.0028141
1.0017277
1.0016825
1.00107
1.0001401
0.99941705
0.99915223
0.99923612
0.99957659
1.0001344
1.0009902
1.0021812
1.0036214
1.0051546
1.0066843
1.0080415
1.0092242
1.0102663
1.0110656
1.0116047
1.0118479
1.0118224
1.0116062
1.011209
1.0106711
1.0100143
1.0092963
1.0084366
1.0075503
1.006565
1.0055285
1.0044014
1.0033003
1.0021605
1.0010417
1.0000219
0.9989409
0.9979047
0.99698189
0.995961
0.99513614
0.99443268
0.99358664
0.99269289
0.99220391
0.99164645
0.99122814
0.99020111
0.99027196
0.98960707
0.98934201
0.98921002
0.9885507
0.98795652
1.0018753
1.0027689
1.0017138
1.0016711
1.0010183
1.0000565
0.9993223
0.99904919
0.9991562
0.99953673
1.000124
1.0009937
1.0021753
1.0036031
1.0051524
1.0067183
1.0081305
1.0093475
1.0103943
1.0111902
1.0117241
1.0119572
1.0119306
1.0117179
1.0113287
1.0108034
1.0101814
1.0094685
1.0086846
1.0077819
1.0068248
1.0057984
1.0047457
1.0036307
1.0024947
1.0014024
1.0003214
0.99929148
0.9982574
0.99720641
0.99633687
0.99548756
0.9945495
0.99375552
0.99318015
0.99249625
0.99167207
0.99105346
0.99085607
0.99022385
0.98988672
0.98951536
0.98849782
0.98905773
0.98868973
1.0018519
1.0027713
1.0017353
1.0016801
1.0009668
0.99997658
0.99922722
0.99895583
0.99908849
0.99951868
1.0001252
1.0010086
1.0021742
1.0035903
1.0051722
1.0067638
1.0082184
1.0094736
1.0105314
1.0113302
1.0118551
1.0120804
1.0120531
1.0118333
1.0114538
1.0109373
1.0103212
1.0096483
1.0088659
1.0080335
1.0070917
1.0061012
1.0050248
1.0039865
1.0028765
1.0017644
1.000666
0.99961586
0.99855691
0.99756779
0.99662688
0.9956804
0.99492021
0.99418799
0.99332393
0.99245738
0.99207751
0.99143832
0.99112083
0.99021666
0.98983725
0.98942681
0.98961036
0.98863467
0.98845767
1.0018412
1.0028003
1.0017861
1.0017084
1.0009326
0.99989548
0.99912888
0.99886648
0.99903716
0.99952054
1.0001646
1.0010562
1.0022143
1.0036079
1.0051784
1.0068152
1.0083182
1.0096132
1.0106777
1.0114828
1.011998
1.0122169
1.0121749
1.011956
1.0115823
1.011074
1.0104707
1.009803
1.0090645
1.0082237
1.0073425
1.0063776
1.0053536
1.0042727
1.003172
1.0020513
1.0009869
0.99994467
0.99888188
0.99786595
0.99690045
0.9960555
0.99518893
0.99429409
0.99354264
0.99300965
0.99220692
0.99175204
0.99073239
0.99062175
0.99044168
0.98964616
0.98924703
0.98897247
0.98824009
1.0018663
1.002901
1.001883
1.0017734
1.0009201
0.99983433
0.99905144
0.99879126
0.99900252
0.99953854
1.0002306
1.001132
1.0022651
1.0036362
1.0051966
1.006856
1.0084204
1.0097481
1.0108408
1.0116306
1.012146
1.0123533
1.0122996
1.0120834
1.0117093
1.0112071
1.0106159
1.009975
1.0092289
1.0084441
1.0075597
1.0066138
1.0055923
1.0045382
1.0034724
1.0023333
1.0012943
1.0002376
0.99921706
0.99814541
0.99722747
0.99633191
0.9954286
0.99467169
0.99390973
0.99312383
0.99239721
0.99171862
0.99149599
0.99093388
0.99008004
0.98985617
0.98949466
0.98872685
0.98926678
1.0019169
1.0030409
1.0020135
1.0018642
1.0009399
0.99979483
0.99899061
0.99874561
0.99900034
0.99959191
1.0003159
1.0012289
1.0023453
1.0036854
1.0052397
1.0069058
1.008508
1.0098826
1.011001
1.0117976
1.0122933
1.0125032
1.0124352
1.0122133
1.0118364
1.0113317
1.0107628
1.0101046
1.0094097
1.0086166
1.00775
1.0068427
1.005833
1.0048349
1.0037307
1.0027114
1.0015878
1.0005682
0.99948317
0.99848594
0.99752308
0.9965792
0.99575555
0.99491633
0.9940976
0.99330884
0.99283127
0.99223301
0.99142927
0.99099393
0.99035914
0.99025188
0.98972913
0.98905013
0.98902687
1.001978
1.0032193
1.0022147
1.0019885
1.0009823
0.99979507
0.99896252
0.99872322
0.99902162
0.99965522
1.0004231
1.0013508
1.0024453
1.0037586
1.0052854
1.0069602
1.0086071
1.0100188
1.0111626
1.0119718
1.012446
1.0126434
1.0125701
1.0123322
1.0119554
1.0114578
1.0108825
1.0102467
1.0095355
1.008779
1.0079595
1.0070403
1.0060892
1.005045
1.004046
1.0029116
1.0018774
1.0008226
0.99982053
0.99877205
0.99775362
0.9968921
0.99606302
0.99520083
0.99440037
0.99376742
0.99292181
0.99223778
0.99179262
0.99121555
0.99083212
0.99048824
0.98919197
0.99001173
0.98861163
1.0020611
1.003443
1.0024114
1.0021345
1.001048
0.99982023
0.99895831
0.99872847
0.99906061
0.99975276
1.0005645
1.0014831
1.0025643
1.0038424
1.0053357
1.0070178
1.0086968
1.0101605
1.0113258
1.0121322
1.0126139
1.0127827
1.0126962
1.0124511
1.0120755
1.0115831
1.0110043
1.010375
1.009685
1.0089301
1.0081147
1.0072444
1.0062732
1.0053067
1.0042277
1.0032015
1.0021148
1.0011138
1.000073
0.99903949
0.99810997
0.99721016
0.99628278
0.99550878
0.99466426
0.99390074
0.99321659
0.99259634
0.9922685
0.99123882
0.99124724
0.99008119
0.99022041
0.98963797
0.98912091
1.0021442
1.0037089
1.0026646
1.0023089
1.0011486
0.99986839
0.99899057
0.99875641
0.99913542
0.999871
1.0007093
1.0016336
1.0026966
1.0039376
1.0054034
1.0070702
1.0087732
1.0102804
1.0114837
1.0122912
1.012762
1.0129273
1.0128186
1.0125568
1.0121878
1.0116919
1.0111235
1.0104932
1.009801
1.0090859
1.0082634
1.0073804
1.0064848
1.0054833
1.004487
1.0034544
1.0024104
1.0013945
1.0003714
0.99937366
0.99839468
0.99742256
0.99660869
0.99572806
0.99502636
0.99419571
0.99348913
0.99306039
0.99197642
0.9919623
0.99113716
0.99054052
0.9906576
0.98944269
0.98961307
1.0022501
1.0039631
1.0028973
1.0024952
1.0012591
0.99993377
0.99903489
0.99881024
0.99921881
0.99999563
1.0008782
1.0018048
1.0028375
1.0040422
1.0054742
1.0071319
1.0088354
1.0103907
1.011619
1.0124527
1.0129044
1.0130565
1.0129525
1.0126657
1.0122897
1.011798
1.011233
1.0105949
1.0099202
1.0091978
1.0084014
1.0075672
1.0066534
1.005711
1.0047146
1.0036615
1.0026746
1.0016503
1.0006404
0.99963639
0.99864407
0.99776714
0.9968751
0.99610748
0.99523366
0.99448373
0.99387298
0.99302927
0.99253472
0.99221885
0.99109894
0.99133547
0.99024085
0.99015713
0.98956197
1.0023405
1.0042416
1.0031448
1.00268
1.0013886
1.00002
0.99910013
0.9988783
0.99930826
1.0001268
1.001035
1.0019621
1.0029789
1.0041455
1.005537
1.0071674
1.0088912
1.0104737
1.011742
1.0125914
1.0130433
1.0131786
1.0130662
1.0127729
1.0123989
1.0119005
1.0113275
1.0107059
1.0100352
1.009315
1.0085338
1.0077095
1.0068261
1.0058977
1.0049079
1.0039145
1.0028848
1.0018787
1.0009147
0.99991123
0.99897171
0.9980564
0.9971688
0.99634473
0.99553032
0.99484257
0.9941012
0.99328786
0.9931409
0.99188792
0.9919448
0.99115185
0.99075358
0.99027405
0.9898363
1.0024502
1.0044817
1.0033699
1.002871
1.0015234
1.000119
0.99917941
0.99895971
0.99940866
1.0002597
1.0011852
1.0021176
1.0031155
1.0042455
1.0055988
1.0071968
1.0089197
1.0105395
1.0118433
1.0127115
1.0131699
1.0133168
1.0131851
1.0128942
1.0125178
1.0120209
1.0114443
1.0108289
1.0101558
1.0094408
1.0086764
1.0078532
1.0069943
1.0060742
1.0051209
1.0041258
1.0031466
1.0021895
1.0011925
1.0002056
0.99928128
0.99832358
0.99749173
0.99662706
0.99589249
0.99513798
0.99426627
0.99392294
0.99299515
0.99248066
0.99216979
0.99135026
0.99113565
0.99030585
0.99043877
1.0025233
1.0047242
1.0035981
1.0030773
1.0016802
1.0002351
0.99927119
0.99903476
0.99950487
1.0003871
1.0013482
1.0022829
1.003269
1.0043589
1.0056626
1.0072229
1.0089316
1.0105654
1.0119195
1.0128194
1.0133031
1.0134641
1.013364
1.0130718
1.0126923
1.0121965
1.011617
1.0109912
1.0103007
1.0095804
1.0088244
1.0080093
1.007146
1.006292
1.0053355
1.0043342
1.0033983
1.0024442
1.0014636
1.0005427
0.99956402
0.99866968
0.99779227
0.99703609
0.99622289
0.9954126
0.99481777
0.99413828
0.99326794
0.9931257
0.99213851
0.99191852
0.99114908
0.99113853
0.99041341
1.0026804
1.0049901
1.0038314
1.0033298
1.0019019
1.0004104
0.99938823
0.99913357
0.99961062
1.0005312
1.0015495
1.0025079
1.003492
1.0045465
1.0057898
1.0072957
1.0089668
1.0106055
1.0119877
1.0129472
1.0134786
1.0136787
1.0136384
1.0134035
1.0130418
1.0125586
1.0119506
1.01129
1.0105517
1.0098082
1.0090123
1.0081849
1.0073493
1.0064598
1.0055352
1.0046075
1.0036631
1.0026883
1.0017807
1.0008315
0.99994241
0.99905107
0.99825116
0.99738467
0.99668345
0.99593923
0.99533292
0.9944011
0.99408465
0.99328486
0.9927432
0.99232061
0.99177257
0.99165502
0.9904807
1.0028601
1.0053127
1.0041085
1.0036408
1.002263
1.0007523
0.99964965
0.99930261
0.99977715
1.000743
1.0018173
1.0028248
1.0038279
1.0048694
1.0060529
1.0074787
1.0090897
1.0106949
1.012098
1.0130955
1.0136749
1.0139391
1.0139739
1.0138877
1.0136479
1.0132205
1.0125715
1.011813
1.0109329
1.0100558
1.0092475
1.008293
1.0074553
1.006667
1.0056826
1.0046536
1.0038562
1.0029398
1.0019961
1.0011287
1.0002739
0.99942879
0.99857807
0.99785559
0.99708532
0.9964664
0.99566431
0.99509213
0.99457609
0.99382009
0.99338219
0.99299812
0.99241761
0.99184589
0.99147377
1.0030269
1.0056396
1.0044741
1.0041897
1.0027796
1.0012845
1.0001241
0.99972646
1.0001238
1.0010255
1.0020494
1.0030678
1.004113
1.0051924
1.0063585
1.007722
1.0092866
1.0107635
1.0120939
1.0130955
1.0137228
1.0140302
1.0141882
1.014313
1.0143475
1.0143096
1.0133939
1.0123524
1.0112548
1.01025
1.0092834
1.0083959
1.0075303
1.0065774
1.0057622
1.0047994
1.0037899
1.0028432
1.0020281
1.0011637
1.0003041
0.99946985
0.99873669
0.99803078
0.99736336
0.99682682
0.99611118
0.99549533
0.99481377
0.99440605
0.99397463
0.99323522
0.99304055
0.99230334
0.99230035
0.99151595
0.99113177
0.99053847
0.98993243
0.98958203
0.98947104
0.98924302
0.98895587
0.98887127
0.98876855
0.98841817
0.98817012
0.98848347
0.98819588
0.9879483
0.9884308
0.98777078
0.98820982
0.98836014
0.9878506
0.98859693
0.98812296
0.98837821
0.98864556
0.98837407
0.98876444
0.98856172
0.99111782
0.99042985
0.98986591
0.98944557
0.98918209
0.98890834
0.98873079
0.98857439
0.98837948
0.98822996
0.98810994
0.98810037
0.98778088
0.98788099
0.98794352
0.98755015
0.98810136
0.98763809
0.98780546
0.98811702
0.98766789
0.98828442
0.98795146
0.9881534
0.98822305
0.98824905
0.98836919
0.99043832
0.98988678
0.98930076
0.98891501
0.98866966
0.9884449
0.98833625
0.98811747
0.98795079
0.98790618
0.98772096
0.98759603
0.98769174
0.98744632
0.98749527
0.98764392
0.98727227
0.98780211
0.98748294
0.98757447
0.98787984
0.98753349
0.9880173
0.98772237
0.98798052
0.987937
0.98799987
0.98978734
0.98936704
0.98888724
0.98837826
0.98821063
0.98806732
0.98774914
0.98782029
0.98755511
0.98736674
0.9875408
0.9871995
0.98720212
0.98734828
0.98706701
0.98725796
0.98730221
0.98706988
0.98754957
0.98724738
0.98746085
0.98755585
0.98744864
0.98772259
0.98757722
0.98769968
0.98769576
0.98938844
0.98893861
0.98837195
0.98801701
0.98768063
0.98763047
0.98741245
0.98717832
0.98734254
0.98702336
0.98688833
0.98718993
0.98673908
0.98692046
0.9870394
0.98669947
0.9871024
0.98693335
0.98694206
0.98726297
0.98701821
0.98732403
0.98721588
0.98738489
0.98737998
0.98742764
0.98742567
0.98891396
0.98830833
0.98787323
0.98761167
0.98719517
0.98716358
0.98711969
0.98679719
0.98684498
0.98686097
0.98657634
0.98662525
0.98678008
0.98642286
0.98670457
0.98671632
0.98646313
0.9869463
0.98654145
0.98694821
0.98682547
0.98694766
0.98703724
0.98706264
0.98711249
0.98719138
0.98708377
0.98832807
0.98788911
0.98733649
0.98717277
0.98693087
0.98657279
0.98680795
0.98658462
0.98632324
0.98663679
0.98637754
0.98628657
0.98647721
0.98637113
0.98630441
0.98646995
0.98644471
0.98638605
0.98669908
0.98632605
0.98683207
0.98648607
0.98690167
0.98669272
0.98697293
0.98675789
0.9868879
0.98786438
0.98766562
0.9869063
0.98668892
0.98670966
0.98625835
0.9862384
0.98643644
0.9860546
0.98608466
0.98633561
0.98594362
0.98617348
0.98620594
0.9860478
0.98626184
0.98620734
0.98627503
0.98628751
0.98644671
0.98625717
0.98658252
0.98633986
0.98665337
0.98652546
0.98667604
0.98657468
0.98736085
0.98725706
0.98664241
0.98619783
0.98633316
0.98609847
0.98581519
0.9861131
0.98596171
0.98572222
0.98600697
0.98594632
0.98569901
0.9860887
0.98591514
0.98588749
0.98620377
0.98590531
0.98624555
0.98609995
0.98625439
0.9862598
0.98629237
0.98636384
0.98630517
0.98644227
0.98638367
0.98697728
0.98670582
0.9864077
0.98589
0.98582272
0.9859852
0.9855636
0.98562464
0.98591462
0.98544654
0.98573035
0.98578809
0.98546916
0.98594202
0.98563277
0.98587611
0.98586422
0.98591402
0.98599994
0.9859817
0.98615846
0.98602219
0.98628637
0.98613838
0.98624568
0.986193
0.98616893
0.98667912
0.98629918
0.98610032
0.98568551
0.98545235
0.98572755
0.98545827
0.98526638
0.98570948
0.98537281
0.98532721
0.98574983
0.98528144
0.98562698
0.98568286
0.98548349
0.9858874
0.9856223
0.98589456
0.98585897
0.98595944
0.98605028
0.98596888
0.98610834
0.98604274
0.9861321
0.98602795
0.98632477
0.98605253
0.98580763
0.9853371
0.98536831
0.98545193
0.98515228
0.98535694
0.98532061
0.98524712
0.98540147
0.98527028
0.98544978
0.9853599
0.98556224
0.98545338
0.98561849
0.98565434
0.9856287
0.98585382
0.98571847
0.98605957
0.98580541
0.98611227
0.98589877
0.98603076
0.98597421
0.98600785
0.98578223
0.98541782
0.98529384
0.98513767
0.98507921
0.98524957
0.9850628
0.98515533
0.98527586
0.98512069
0.98534973
0.98529822
0.98528
0.98556442
0.98534564
0.98559927
0.98562167
0.98553519
0.98583739
0.9856407
0.98592744
0.98579285
0.98595555
0.98596954
0.98594611
0.98597308
0.98571539
0.98559984
0.98530977
0.98502062
0.98505328
0.98508958
0.98492527
0.98512793
0.98507931
0.9850741
0.98526124
0.98516515
0.98531853
0.98526949
0.98547271
0.98540693
0.98554866
0.98566464
0.98550207
0.98592107
0.98554139
0.98599323
0.9857542
0.98601389
0.98585661
0.98604649
0.98599592
0.98539169
0.98537471
0.9851989
0.98495828
0.98512152
0.9849567
0.98494579
0.98529082
0.9849773
0.98515246
0.98538678
0.98512846
0.98544523
0.98532231
0.98541063
0.98557156
0.98555387
0.98569627
0.98568284
0.98588265
0.98568951
0.98604062
0.98575567
0.98619473
0.98587514
0.98615607
0.986104
0.98557293
0.98572658
0.98533064
0.98520651
0.98501027
0.98517844
0.98507471
0.9851649
0.98530099
0.98517055
0.98554931
0.98530478
0.98550835
0.98568899
0.985302
0.98592309
0.98550662
0.98590388
0.98590835
0.98583221
0.98606816
0.98598127
0.98607906
0.98617118
0.98619454
0.98622115
0.98638322
0.98384195
0.98524997
0.9848405
0.98524859
0.98520181
0.98528721
0.98533322
0.98524658
0.98547861
0.98547667
0.98545332
0.98570198
0.9856732
0.98573926
0.98584734
0.98588466
0.98589855
0.98602256
0.98618801
0.98603073
0.98640254
0.98616409
0.9862987
0.98644409
0.98640885
0.98647346
0.98664985
0.98700485
0.98350006
0.98570529
0.98514733
0.98563485
0.98560524
0.98543031
0.98562596
0.98573168
0.98558411
0.98582432
0.98591113
0.98585195
0.98606607
0.98618399
0.98618081
0.98621947
0.98638421
0.98642714
0.98637882
0.98673272
0.98650082
0.98665046
0.98684293
0.98666135
0.98686499
0.98699683
0.98852778
0.98830235
0.98786961
0.98685726
0.98653136
0.98615998
0.98587364
0.98618609
0.98584706
0.98595827
0.98629519
0.98595118
0.98635081
0.98632572
0.9864821
0.98666137
0.98645789
0.98704728
0.98660439
0.98701656
0.98702816
0.98704534
0.98704695
0.98729643
0.98714302
0.9872883
0.9874401
0.98461815
0.9865313
0.98674056
0.98640142
0.98620555
0.98614849
0.98618271
0.98619892
0.98612284
0.98645529
0.98648043
0.98645148
0.98674236
0.98668822
0.98696014
0.98693327
0.98706978
0.98737601
0.98718116
0.98756086
0.98753208
0.98767474
0.98759487
0.98791642
0.98773614
0.98784223
0.98798181
0.98237929
0.98463512
0.98565617
0.98573372
0.98602749
0.98622052
0.98639755
0.98641722
0.9868086
0.98678679
0.9870295
0.98708569
0.98718272
0.98754543
0.9872521
0.98777511
0.9876332
0.98786336
0.9879613
0.98797805
0.98838646
0.98819796
0.98846377
0.98847462
0.98854727
0.98852106
0.98869959
0.9853443
0.98652497
0.98703321
0.98667764
0.98686726
0.98689815
0.98717362
0.98732225
0.98754566
0.98773925
0.98770492
0.98796966
0.98818189
0.98804288
0.98836738
0.98830757
0.98868628
0.98861794
0.98869664
0.98899816
0.98895459
0.98928093
0.98906263
0.98950312
0.98928937
0.98949778
0.98948217
0.98807809
0.98692254
0.98867276
0.9876219
0.98827191
0.98773273
0.98831987
0.98822079
0.98855243
0.98871266
0.98845646
0.98909059
0.98898144
0.98903036
0.98941297
0.98912055
0.98983249
0.98935466
0.9897779
0.98989366
0.98990737
0.99030447
0.98993913
0.9905805
0.9902244
0.99056393
0.99041754
0.98871902
0.98916489
0.98941911
0.98915389
0.9894602
0.98907246
0.9893469
0.98929463
0.9896516
0.98949915
0.98968889
0.99001377
0.98996782
0.99019795
0.99013151
0.9904885
0.99067902
0.99055689
0.99081995
0.99094323
0.99111514
0.99131461
0.99113415
0.99156935
0.99142574
0.99165989
0.99156723
0.99083379
0.9905013
0.99073101
0.99077105
0.99066422
0.99043428
0.99057815
0.99057134
0.99066782
0.99075868
0.99076449
0.99131226
0.99116148
0.9913411
0.99147035
0.9916095
0.99202832
0.99166048
0.99213822
0.9920444
0.99248866
0.99251097
0.9924399
0.99274323
0.99271266
0.99300504
0.99289048
0.99100916
0.99114305
0.99196892
0.9918561
0.99197478
0.99182048
0.99186174
0.99210631
0.99197622
0.99209941
0.99242647
0.99244337
0.99290329
0.99256269
0.99295023
0.9930984
0.99319104
0.99353292
0.99320728
0.99390806
0.99369523
0.99417889
0.99385495
0.99414132
0.99417309
0.99445002
0.99445187
0.99185749
0.9925205
0.99336015
0.99332829
0.99352307
0.9933845
0.99345337
0.99376158
0.9935736
0.99381229
0.9940564
0.99407734
0.99458529
0.99421709
0.99471753
0.9947047
0.99498209
0.99525859
0.99494544
0.99559925
0.995218
0.99591132
0.99545004
0.99585559
0.99572219
0.99606697
0.99612925
0.99378896
0.99437302
0.99499432
0.99503528
0.99520404
0.99512544
0.99528211
0.99550359
0.9953536
0.99571744
0.99577588
0.99600385
0.99630746
0.99607024
0.99661851
0.99638964
0.9969836
0.99683603
0.99692898
0.99718776
0.99707107
0.9976373
0.99728176
0.99772501
0.99752243
0.99790472
0.99792921
0.99571756
0.99639935
0.99689081
0.99693523
0.99700726
0.99704261
0.99724382
0.99728869
0.9974889
0.99752306
0.99781323
0.99801626
0.99804507
0.99831828
0.99825711
0.99862587
0.99869469
0.99886996
0.9989483
0.99901269
0.99926141
0.99926847
0.99957656
0.99947045
0.99971909
0.9996803
0.99990053
0.99768392
0.99852896
0.99896457
0.99895172
0.99902938
0.99910476
0.99931421
0.99944117
0.99971469
0.99960228
1.0000432
1.0000397
1.0003138
1.0004865
1.0003685
1.0008277
1.0006304
1.0012337
1.000983
1.0012882
1.0012517
1.0013766
1.0017465
1.00156
1.0018532
1.0015932
1.001877
1.0000503
1.0007404
1.0013147
1.0012599
1.0013815
1.0013678
1.0016851
1.0018246
1.0019625
1.0020231
1.0022646
1.0023693
1.0027622
1.0026695
1.0028208
1.002872
1.0030387
1.0033866
1.003259
1.0035348
1.0033646
1.0036445
1.0037404
1.0038056
1.0039054
1.0038524
1.0039432
1.0024049
1.0032176
1.003857
1.0038955
1.0040081
1.0039118
1.0041464
1.0042452
1.0044462
1.0044974
1.0046483
1.0047581
1.0050245
1.0050061
1.0052086
1.0052519
1.0052908
1.0055528
1.0053738
1.0058199
1.0056172
1.0058994
1.0057624
1.0058664
1.0060129
1.0060755
1.0061461
1.0052822
1.0058288
1.0064802
1.0065868
1.0066859
1.0065841
1.0066334
1.0066374
1.0068233
1.0069807
1.0070117
1.0070872
1.0072134
1.0071968
1.0075785
1.0074338
1.007598
1.0075169
1.007539
1.0078668
1.0077621
1.0080353
1.0077645
1.0079423
1.0079521
1.0081157
1.0081447
1.00797
1.0084205
1.0089513
1.0091567
1.0091462
1.0090295
1.0089605
1.0089249
1.0090412
1.0092111
1.0091729
1.0092781
1.0092636
1.0092937
1.0095706
1.0094536
1.0096693
1.0094919
1.0096517
1.0096425
1.0097086
1.00981
1.0097899
1.0098999
1.0098385
1.0098881
1.0098777
1.0100806
1.01058
1.0110414
1.0112573
1.0112254
1.0110778
1.0109811
1.0109213
1.0109727
1.0110379
1.0110143
1.0111699
1.0111301
1.0111927
1.0112129
1.0111643
1.0113477
1.011275
1.0114633
1.0112762
1.01134
1.0113061
1.0114237
1.0115143
1.0114738
1.0114414
1.0113838
1.0119847
1.0124411
1.0127868
1.0128927
1.0128085
1.012666
1.0126018
1.0125332
1.0125303
1.0124659
1.0124482
1.0125803
1.0125946
1.0126875
1.0125683
1.0125579
1.0126133
1.0126345
1.012764
1.012602
1.0126512
1.0125068
1.0126431
1.0126264
1.0126797
1.0125839
1.012542
1.0129219
1.0135393
1.0138595
1.0139168
1.0137759
1.0136444
1.0136099
1.0135593
1.013576
1.0134674
1.0134372
1.0134907
1.0135334
1.0136108
1.0134938
1.013459
1.0134187
1.0134544
1.0135348
1.0134601
1.0134668
1.0132974
1.0133266
1.0132886
1.0133679
1.0133175
1.0132648
1.013424
1.0140985
1.0144139
1.0144097
1.0142486
1.0141059
1.0140855
1.014054
1.0140773
1.0139974
1.0139371
1.0139416
1.0139601
1.0140061
1.0139585
1.0138986
1.0138532
1.0138393
1.0138637
1.0138194
1.0137868
1.0136937
1.0136589
1.0136338
1.0136312
1.0135674
1.0135103
1.0132882
1.0140967
1.0144566
1.0144539
1.014365
1.0142315
1.0141863
1.0141546
1.0141581
1.0141383
1.0141328
1.0140958
1.0140664
1.0140558
1.0140356
1.0140044
1.0140135
1.0139693
1.0139654
1.0138477
1.0138035
1.013722
1.0137327
1.0137043
1.0136613
1.01353
1.0134447
1.0131066
1.0139112
1.0142835
1.0143021
1.0142699
1.0141829
1.0141136
1.0140233
1.014
1.0140201
1.0140124
1.0140621
1.0139454
1.0139481
1.0138339
1.0138644
1.0138671
1.0138511
1.0138104
1.0136513
1.0136185
1.0135478
1.0136195
1.0135436
1.0134529
1.0132652
1.013197
1.0130166
1.0137014
1.014062
1.0140787
1.014076
1.0140028
1.0139446
1.0138351
1.0137285
1.0137603
1.0137094
1.0138423
1.0136784
1.013718
1.0134878
1.0135727
1.0135031
1.013552
1.0134851
1.0133199
1.0133134
1.0131811
1.0133202
1.0131298
1.0131226
1.0128652
1.0128761
1.0127478
1.0133256
1.013721
1.0137411
1.0137059
1.013653
1.0135469
1.0134952
1.0133119
1.0134033
1.0132757
1.0134576
1.013237
1.0133091
1.0130577
1.0131565
1.0130862
1.0131184
1.0130481
1.0128629
1.0128738
1.0127012
1.0128635
1.012647
1.0126787
1.0124144
1.0124193
1.0123637
1.0129128
1.0133086
1.0133658
1.0132085
1.0132114
1.0129966
1.0130884
1.0128201
1.0129949
1.0127462
1.0129549
1.0127268
1.012783
1.0126571
1.0125824
1.0126956
1.0124462
1.0126715
1.0122126
1.0125182
1.0120979
1.0124208
1.0120758
1.0121674
1.0119171
1.0119199
1.0119734
1.0126019
1.0129278
1.0130405
1.0127299
1.012732
1.0124711
1.0126344
1.0123962
1.0125332
1.0122861
1.012359
1.0122639
1.0121939
1.0122957
1.0119579
1.0122892
1.0117628
1.0122423
1.0116315
1.0120409
1.0116173
1.0118008
1.0116481
1.0115318
1.0115056
1.0113806
1.0117144
1.0123063
1.0125489
1.012685
1.0123477
1.0123103
1.0121191
1.0121085
1.0121988
1.0118956
1.0121769
1.0115759
1.0120978
1.0115427
1.0120096
1.0115845
1.0115927
1.0116176
1.0112212
1.01179
1.0110241
1.0116576
1.0108894
1.0113175
1.0109675
1.0110973
1.0109694
1.0113145
1.0119609
1.0123044
1.0121204
1.0121532
1.011974
1.0118274
1.0118769
1.0116094
1.0117761
1.0115296
1.0115965
1.0114212
1.0114641
1.0113418
1.0113062
1.0111736
1.0110584
1.0110929
1.0109557
1.0110553
1.0107417
1.0108534
1.0105473
1.0107574
1.010573
1.0106237
1.0105029
1.0116746
1.0118692
1.0117682
1.0118736
1.0117972
1.0116214
1.0115782
1.0112873
1.0112823
1.0114837
1.0111809
1.0114476
1.0108871
1.0111048
1.0108389
1.0109403
1.0109287
1.010625
1.0108481
1.0102777
1.010793
1.0101698
1.0106633
1.0101103
1.0103535
1.0101084
1.0100132
1.011317
1.0118731
1.0115904
1.0116251
1.0115319
1.0113675
1.0115354
1.0110459
1.0112958
1.0110299
1.0112123
1.011041
1.0108949
1.0108246
1.01059
1.0108839
1.010464
1.0108407
1.0100819
1.0105263
1.0100134
1.0104175
1.0100913
1.0100907
1.0098694
1.0098479
1.0099782
1.01112
1.0115519
1.0118167
1.0113957
1.0114363
1.0113667
1.0111165
1.0115209
1.0108164
1.0113103
1.0107376
1.0110051
1.0109446
1.0105255
1.011013
1.0100678
1.0109045
1.0100175
1.0105462
1.0100827
1.0099736
1.0101817