/*--------------------------------*- C++ -*----------------------------------*\
| =========                 |                                                 |
| \\      /  F ield         | OpenFOAM: The Open Source CFD Toolbox           |
|  \\    /   O peration     | Version:  2406                                  |
|   \\  /    A nd           | Website:  www.openfoam.com                      |
|    \\/     M anipulation  |                                                 |
\*---------------------------------------------------------------------------*/
FoamFile
{
    version     2.0;
    format      ascii;
    arch        "LSB;label=32;scalar=64";
    class       volScalarField;
    location    "22";
    object      rho;
}
// * * * * * * * * * * * * * * * * * * * * * * * * * * * * * * * * * * * * * //

dimensions      [1 -3 0 0 0 0 0];

internalField   nonuniform List<scalar> 
62344
(
1.0058386
1.0126666
1.0119225
1.0083487
1.0025315
1.0013165
1.0046335
1.0076718
1.0134497
1.0112966
1.0151466
1.0142537
1.0171248
1.0173248
1.011313
1.0160843
1.0149116
1.0094839
1.0170887
1.0135327
1.0060855
1.0127792
1.0198369
1.0139314
1.0106574
1.0146695
1.0127725
1.0089885
1.0085525
1.0040391
1.0102449
1.0307207
1.0371675
1.0147298
0.98660752
0.98656478
1.0271294
1.0813451
1.1079748
1.0895172
1.039448
1.0031899
1.0121272
1.0509315
1.0910674
1.1118864
1.1035147
1.0728575
1.0402953
1.0237347
1.0281019
1.049917
1.073158
1.080117
1.072546
1.0050878
1.0108339
1.0122958
1.0114169
1.0051808
1.001388
1.0018866
1.0082166
1.0121589
1.0110391
1.0153711
1.0196984
1.0225916
1.0179835
1.0159484
1.0185006
1.0128345
1.0065643
1.0155972
1.0189328
1.00866
1.0112905
1.0178589
1.0141265
1.0122802
1.0152564
1.0127995
1.010871
1.0128998
1.0065739
1.0098775
1.0282015
1.035217
1.0151071
0.99129329
0.99658214
1.0318427
1.0706412
1.0840434
1.0602894
1.0233845
1.0107446
1.0294585
1.0669715
1.1038642
1.121883
1.1072754
1.0704974
1.0358414
1.0189008
1.0245021
1.0502532
1.0892554
1.126738
1.1426767
1.0051398
1.0111734
1.0131507
1.0129509
1.0055561
1.0015522
1.0021287
1.0088283
1.0116121
1.013333
1.0146067
1.02037
1.0241534
1.0180786
1.0218604
1.0215577
1.0130615
1.0084986
1.013638
1.0178931
1.0112928
1.0121296
1.0143262
1.0104595
1.0101346
1.0131004
1.0115564
1.0122991
1.0153218
1.0103767
1.012678
1.0266917
1.0299053
1.0111196
0.99244344
1.0014029
1.0368389
1.0684481
1.0723931
1.0465734
1.0181879
1.016825
1.042586
1.0764382
1.1016794
1.1079346
1.0904657
1.0607713
1.0388963
1.0305774
1.0367143
1.0565285
1.0894483
1.1332004
1.1719279
1.0056487
1.0133316
1.0144546
1.0119542
1.0042177
1.0019777
1.0042924
1.0100726
1.0123541
1.0157142
1.0153454
1.0192648
1.0230663
1.018756
1.0221909
1.021457
1.0151904
1.0132996
1.0166286
1.0161726
1.0141822
1.017678
1.0157013
1.0095056
1.0100478
1.0121003
1.0097621
1.0115426
1.0144604
1.0112226
1.0143468
1.0265187
1.0261864
1.0071814
0.99414518
1.0083873
1.0441626
1.0701054
1.0656231
1.0368081
1.0177098
1.0269158
1.0538122
1.0780624
1.0894688
1.0847977
1.0687991
1.0535281
1.0453669
1.0453762
1.0539903
1.0705417
1.0938971
1.1213288
1.1516127
1.0064262
1.0153958
1.0153112
1.0108074
1.0036422
1.0035329
1.007301
1.0116502
1.0136122
1.0162814
1.0164014
1.0183433
1.0224119
1.0228694
1.0207614
1.0187343
1.0164076
1.0174518
1.0198593
1.0147106
1.0161961
1.0235977
1.0201507
1.0117161
1.012761
1.0140415
1.0099721
1.0106485
1.0121903
1.0096657
1.0142011
1.025623
1.0233719
1.0053327
0.99562313
1.0123174
1.0476502
1.0680285
1.0592315
1.0320315
1.0210518
1.0363953
1.0617474
1.0741908
1.0718926
1.0626068
1.0561975
1.0568535
1.059843
1.0650408
1.0740045
1.0868526
1.0999702
1.1123553
1.1222192
1.0069211
1.0160889
1.0152225
1.0110165
1.0047465
1.0056042
1.0084832
1.0122033
1.0146991
1.0158297
1.0171691
1.0186832
1.0228479
1.0275008
1.0210114
1.0179593
1.0176388
1.0197641
1.0205249
1.0143483
1.016805
1.0253869
1.021381
1.0124027
1.0145632
1.0168061
1.0124447
1.0111431
1.0108005
1.0085232
1.0135944
1.0228695
1.0189143
1.0031816
0.99859173
1.017337
1.0476865
1.0622139
1.0516659
1.0299007
1.0239471
1.0406308
1.0617762
1.0666403
1.0559668
1.0460148
1.047268
1.0595193
1.0725805
1.085498
1.0986995
1.1098432
1.1164789
1.1156889
1.1086926
1.007009
1.0156691
1.0150318
1.0122865
1.0074366
1.0063754
1.0082201
1.0117317
1.014904
1.0160065
1.0183671
1.019599
1.0234479
1.0297655
1.0223315
1.0186527
1.0196201
1.0207233
1.0200519
1.0153356
1.017144
1.0233172
1.0185039
1.0111457
1.0148412
1.0186517
1.0155781
1.0130033
1.0110838
1.0106301
1.0154996
1.0206938
1.0135809
0.99958215
1.0006937
1.0211804
1.045886
1.0538188
1.0421929
1.0274272
1.0271167
1.0444526
1.0598001
1.0567198
1.0438437
1.0362044
1.042181
1.0576905
1.0785119
1.1011996
1.1214537
1.1330402
1.133971
1.1263446
1.112068
1.006886
1.0145145
1.0150207
1.0137847
1.0095223
1.0055902
1.0076877
1.0113325
1.014784
1.016912
1.0197481
1.020271
1.0239054
1.0288251
1.0237335
1.0197187
1.0205247
1.0205189
1.0197963
1.01678
1.0176435
1.0208979
1.0157915
1.0108627
1.0151977
1.0193544
1.0183069
1.0153033
1.0121054
1.0142893
1.0205996
1.0215179
1.0097562
0.99650988
1.002542
1.0251957
1.0453449
1.0467654
1.0327453
1.0231413
1.0302452
1.0492876
1.0582166
1.0499821
1.037519
1.031131
1.0365628
1.0536399
1.0800513
1.1091035
1.1332947
1.1461945
1.1457702
1.1355214
1.1191511
1.0066731
1.0136621
1.0153464
1.0147305
1.0101063
1.004392
1.0075135
1.0117031
1.0146737
1.0181571
1.0213841
1.0206506
1.0247506
1.0266726
1.0249526
1.0210874
1.0193783
1.0195955
1.0207163
1.0188082
1.0188101
1.0197636
1.0152817
1.0126479
1.01642
1.0190997
1.0198858
1.0171647
1.0119282
1.0164629
1.0259745
1.024381
1.0082927
0.99492147
1.0039669
1.0300919
1.0463635
1.0416693
1.0238876
1.0177109
1.0330002
1.0543582
1.0587348
1.0493963
1.0375553
1.0287444
1.032089
1.0494158
1.0765442
1.1078343
1.132948
1.1461992
1.1474956
1.1388532
1.1241146
1.0064933
1.0136542
1.0162243
1.0151486
1.0094836
1.0038003
1.0081402
1.0129847
1.0149338
1.0191994
1.0224521
1.0207475
1.0260078
1.0251532
1.0257746
1.0231931
1.017408
1.018204
1.0221741
1.0207107
1.0201389
1.0197496
1.0156818
1.0148717
1.0176651
1.0182438
1.0206479
1.0181732
1.0099013
1.0154399
1.0291947
1.0280094
1.0088416
0.99485974
1.0057781
1.0342574
1.0487937
1.0385761
1.0173409
1.012898
1.0338404
1.0565912
1.0598327
1.0506394
1.0384974
1.0287895
1.031164
1.0469378
1.0719094
1.1009152
1.124748
1.1384173
1.1421765
1.1380911
1.1283558
1.0064367
1.014432
1.0171374
1.0152367
1.0087026
1.004281
1.0096941
1.014885
1.0156463
1.0199253
1.0228434
1.0209467
1.0277029
1.0247792
1.0264282
1.0256171
1.0164444
1.0167858
1.0229606
1.0212706
1.0207416
1.0203373
1.016621
1.016515
1.0184351
1.0173561
1.0207816
1.0185844
1.0070876
1.0114126
1.028506
1.0302579
1.0096886
0.99529084
1.0076665
1.0376831
1.0517997
1.0379597
1.0132884
1.0089476
1.0332046
1.0567183
1.0604068
1.0512994
1.0386172
1.0299178
1.0331971
1.0475478
1.069142
1.0923896
1.1126692
1.1273118
1.1343673
1.1363029
1.1338857
1.0065084
1.0154444
1.0177612
1.0151302
1.008325
1.0063789
1.0111963
1.0162235
1.0165156
1.0204775
1.022576
1.0216996
1.0294738
1.0255029
1.0269068
1.0274921
1.0168933
1.0160458
1.0222578
1.0209045
1.0204981
1.0212773
1.0179877
1.0175745
1.0189286
1.0167167
1.0206917
1.0191192
1.0054259
1.006996
1.0249946
1.0300779
1.0106044
0.99631179
1.0094012
1.0399192
1.0540801
1.038445
1.0116247
1.0064848
1.0310926
1.0548497
1.0594886
1.0507869
1.0382944
1.0314025
1.0363392
1.0502352
1.0677371
1.0858557
1.1024829
1.1166359
1.1263641
1.1336948
1.1394072
1.0066642
1.0165107
1.0180415
1.015136
1.008469
1.0085764
1.0122513
1.016667
1.0175411
1.0209342
1.0220148
1.0230491
1.0307442
1.0269792
1.027275
1.0287094
1.0185809
1.0165989
1.0211613
1.0204022
1.0197199
1.0221781
1.0196571
1.0188747
1.0193821
1.016646
1.0208297
1.0199245
1.0051528
1.0039993
1.0210111
1.028178
1.0111581
0.99759695
1.0105932
1.0405485
1.0545906
1.0388279
1.0114125
1.0054939
1.0280708
1.0505607
1.0565325
1.0498028
1.0379645
1.0323739
1.0396024
1.0535434
1.0685829
1.0820082
1.0942147
1.1059547
1.1170543
1.1287632
1.1418569
1.0068722
1.0173313
1.0181637
1.0155787
1.0090542
1.0098471
1.0126626
1.0163788
1.0184617
1.0214079
1.0214598
1.0246849
1.0311691
1.0284173
1.0271943
1.0287386
1.0207721
1.0186134
1.02035
1.0198565
1.0191233
1.0229332
1.0213317
1.0200956
1.0198466
1.0174335
1.0213628
1.0203496
1.0056228
1.0026969
1.0181957
1.0259163
1.0114608
0.99868717
1.0115056
1.0402101
1.0534395
1.0386406
1.0117089
1.0055604
1.0252866
1.0452749
1.0514705
1.0466306
1.0358527
1.0323381
1.0412315
1.0557709
1.0694656
1.0796391
1.087624
1.095292
1.1055264
1.1201814
1.1395025
1.0070996
1.0177548
1.0182846
1.016348
1.0099885
1.010229
1.0125173
1.0157024
1.0191937
1.0217554
1.0209772
1.0262085
1.0308206
1.0294927
1.0269269
1.0273627
1.0227754
1.0210629
1.0200548
1.0192736
1.0191664
1.0237287
1.0229145
1.0210363
1.0200109
1.0182587
1.0222
1.0204617
1.006182
1.0026603
1.0167962
1.0243155
1.0116979
1.0002156
1.0126561
1.0394228
1.0512017
1.037224
1.0122519
1.0066988
1.0236399
1.0402889
1.0455202
1.0416072
1.0317734
1.0303366
1.0407949
1.055948
1.0691474
1.0778232
1.0820782
1.0853748
1.0925063
1.1071203
1.129548
1.0072911
1.0177865
1.0185484
1.0172116
1.0107625
1.0100365
1.0119271
1.0149617
1.0197547
1.0220392
1.0208611
1.0272096
1.0300804
1.0302538
1.0267239
1.0251444
1.0240836
1.0229538
1.0201463
1.0186287
1.0195213
1.0245251
1.0240653
1.0214686
1.0195846
1.0185751
1.0228123
1.0205444
1.0068014
1.0032684
1.0164419
1.0235622
1.0123509
1.0026024
1.0143758
1.0382986
1.048494
1.0348533
1.0131794
1.0090935
1.0230291
1.0363107
1.0395218
1.0351986
1.0265891
1.0273383
1.0382622
1.0531519
1.0669506
1.0748448
1.0764694
1.0762124
1.0798727
1.0917676
1.1134298
1.0074237
1.0175405
1.018853
1.017869
1.0112929
1.0094793
1.0112692
1.0144101
1.0200136
1.0222209
1.0211408
1.0276741
1.029196
1.0306298
1.0269007
1.0230488
1.0246202
1.0241498
1.0204743
1.0179756
1.0196992
1.0250791
1.0247148
1.0214681
1.0185689
1.0182834
1.0228316
1.0207569
1.0076118
1.0044681
1.0165426
1.0230628
1.0130468
1.0052606
1.0163357
1.0372388
1.0457827
1.0327259
1.0145797
1.0121368
1.0237829
1.0335527
1.0341397
1.0288408
1.0212613
1.0243681
1.0353866
1.0495424
1.0639519
1.0713303
1.071421
1.0682698
1.0678856
1.0755289
1.0933427
1.0074972
1.0172252
1.0192229
1.0182467
1.0115805
1.0087229
1.0108865
1.014215
1.0200243
1.0222648
1.0217737
1.0277956
1.0284738
1.030738
1.0275423
1.0218232
1.0245101
1.0246521
1.0209003
1.0176059
1.0196788
1.0252089
1.0249909
1.0211849
1.0172122
1.0174823
1.0224245
1.0208149
1.0088733
1.0061412
1.0169529
1.0220826
1.0134992
1.0078107
1.0184234
1.036961
1.0433418
1.0307818
1.0160706
1.0155351
1.0261215
1.0327752
1.0307575
1.023151
1.0161163
1.0213931
1.0328856
1.0467358
1.0613878
1.0689412
1.0686474
1.0624532
1.0572862
1.059799
1.0727125
1.0075129
1.0169578
1.019617
1.0184273
1.0117778
1.0081168
1.0108389
1.014399
1.0198902
1.0222266
1.0224761
1.0276496
1.028195
1.0307212
1.0283554
1.0217001
1.0238858
1.0245735
1.0214758
1.0177066
1.0196037
1.0248856
1.0246884
1.0205461
1.0156949
1.0162099
1.0218212
1.020555
1.0103825
1.0083769
1.0174277
1.0205425
1.0133328
1.0098379
1.0203387
1.0370359
1.0414423
1.0289453
1.0175613
1.0192662
1.0296206
1.034196
1.0296858
1.018734
1.0120606
1.0181835
1.0307615
1.0456466
1.0603192
1.0690831
1.0688358
1.0602769
1.0507112
1.0476907
1.0548067
1.0074935
1.0168233
1.019898
1.0184421
1.0119515
1.0078419
1.0110454
1.0149221
1.0196991
1.0221702
1.0230694
1.027231
1.028358
1.0307355
1.029172
1.0226511
1.022851
1.0238489
1.0220045
1.0181508
1.0196138
1.0242398
1.0239939
1.0199969
1.0143517
1.0147884
1.0211601
1.0200721
1.0118823
1.0112239
1.0178995
1.0185461
1.0121591
1.0107128
1.0216915
1.0372684
1.0403265
1.0278774
1.0188388
1.0228107
1.0328275
1.037048
1.0305244
1.016249
1.0090482
1.0150666
1.0291724
1.0460198
1.0612835
1.0713811
1.0716967
1.0621546
1.0502056
1.0431328
1.0441973
1.007445
1.0168114
1.0200342
1.0183314
1.0121104
1.0080582
1.011336
1.0155736
1.0195266
1.0220595
1.0235544
1.0265384
1.0289508
1.0307671
1.0299594
1.0243224
1.0216772
1.0226733
1.0225186
1.019013
1.0198632
1.023611
1.0231698
1.0195582
1.0133654
1.0136311
1.020543
1.0195188
1.0133723
1.014136
1.0188111
1.016593
1.0099647
1.0101731
1.0222067
1.0372149
1.0398298
1.027675
1.0195608
1.0253747
1.0356196
1.0406914
1.0332283
1.0158568
1.0070188
1.0117528
1.0270182
1.0462489
1.0639037
1.07582
1.0768124
1.0670953
1.0541595
1.0449838
1.0418411
1.0073885
1.0168825
1.0200276
1.0182104
1.0123159
1.0086427
1.0115864
1.0162504
1.0194689
1.022039
1.0239973
1.0257677
1.0297957
1.0309012
1.0306637
1.0265013
1.0206474
1.0213413
1.0229596
1.0201608
1.0204483
1.0233179
1.0224985
1.0192522
1.0129347
1.0130408
1.0201297
1.019191
1.0148458
1.0171593
1.020325
1.0151231
1.0076326
1.0086527
1.0216716
1.0369419
1.0396996
1.0278646
1.0200566
1.0266692
1.0375031
1.0440943
1.0367184
1.0174196
1.0058554
1.0086359
1.0237075
1.0448487
1.066526
1.0814009
1.0835799
1.0742711
1.061001
1.0506657
1.0447842
1.0073014
1.0169959
1.0199008
1.0181225
1.0125722
1.0095257
1.0118746
1.0169066
1.019552
1.0221397
1.0244712
1.0251465
1.0307874
1.0312616
1.0313807
1.0288657
1.0200533
1.0199122
1.0233652
1.021304
1.0214001
1.0233735
1.0220464
1.0192841
1.0131467
1.0131386
1.0201732
1.0192695
1.0164066
1.0199968
1.0221736
1.01455
1.0056499
1.0068551
1.0203977
1.0360574
1.0400631
1.0287734
1.0206512
1.0272031
1.0380731
1.0462482
1.0397114
1.0201854
1.005579
1.0061401
1.0192053
1.0408169
1.066712
1.0855752
1.0904728
1.0821207
1.0687261
1.0573117
1.0502296
1.0072434
1.0171144
1.0197194
1.0181045
1.0128587
1.0105046
1.0122361
1.0175419
1.0197566
1.0223667
1.0250548
1.024803
1.0318393
1.0318296
1.0321576
1.0314749
1.0201147
1.0190117
1.0238603
1.0225286
1.0224521
1.0238868
1.0221331
1.0196651
1.014175
1.0137948
1.0207547
1.0199491
1.0181375
1.0226005
1.0239272
1.0151294
1.0043275
1.0054268
1.0187755
1.0347417
1.0398876
1.0296187
1.0220292
1.0274717
1.0377485
1.0463506
1.0408106
1.0222051
1.0059078
1.0044501
1.0142713
1.0346398
1.062165
1.0846335
1.0925905
1.0866591
1.074133
1.0623894
1.0553287
1.0071582
1.0172235
1.0195764
1.0182082
1.013227
1.0115079
1.0127082
1.0181351
1.0200696
1.0227036
1.0257155
1.0247669
1.0328951
1.0326215
1.0329841
1.0336999
1.0206343
1.0183648
1.0241383
1.023294
1.0233567
1.0245665
1.0224761
1.0201986
1.0150136
1.0145906
1.0215582
1.0209141
1.0197918
1.0250266
1.0254343
1.0165815
1.0037157
1.0045002
1.0174151
1.0331875
1.0393384
1.0299305
1.0234251
1.0281177
1.0382771
1.0459408
1.0402605
1.0221265
1.0048318
1.0019204
1.0098474
1.0289252
1.0554468
1.0800375
1.090664
1.08602
1.0728703
1.0603769
1.0533089
1.0072506
1.017443
1.0196531
1.0185346
1.0137939
1.0125785
1.0133286
1.018711
1.0204221
1.0230926
1.0263471
1.024927
1.0338216
1.0334006
1.0336707
1.0356633
1.0215926
1.0181473
1.024386
1.0238153
1.0236825
1.0251116
1.022914
1.0208398
1.015788
1.0148947
1.0218659
1.0215676
1.0207979
1.0270412
1.0273014
1.0184928
1.0038522
1.0025932
1.0154732
1.0318103
1.0385786
1.0293851
1.0225393
1.0278057
1.0386251
1.0477969
1.0414522
1.0222034
1.0024744
0.99464763
1.0015361
1.0199377
1.0468093
1.0729277
1.0878677
1.0853874
1.0696465
1.0532855
1.0439971
1.0076809
1.0178694
1.0200635
1.0191755
1.0144492
1.0135107
1.01396
1.0190948
1.02062
1.0233187
1.0267404
1.0249545
1.0342007
1.0340134
1.034011
1.0368435
1.0227089
1.0185019
1.0245892
1.0238682
1.023576
1.0250881
1.0230835
1.0214497
1.0166502
1.0149619
1.0216446
1.0216005
1.0206757
1.0273637
1.028886
1.0206564
1.0057242
1.0022286
1.0132374
1.0295636
1.0374849
1.0284918
1.0208623
1.0249129
1.0363983
1.0476649
1.0446295
1.0257606
1.0053088
0.99299002
0.9948124
1.0095765
1.0337034
1.0609011
1.079071
1.0808165
1.0687807
1.0521426
1.0387589
1.0296134
1.0407348
1.0515832
1.0528046
1.0495549
1.0461388
1.0466227
1.0536325
1.0700386
1.094099
1.1215376
1.1475262
1.1655384
1.1714822
1.1656511
1.1528324
1.1362583
1.1191658
1.1068787
1.0993086
1.0961722
1.1018317
1.1282338
1.1760848
1.2013168
1.151188
1.0639615
1.029216
1.0436832
1.0558059
1.0582628
1.057964
1.0576476
1.0613418
1.0729428
1.0956997
1.1281034
1.1647012
1.1973317
1.2171516
1.2181867
1.2045174
1.1809587
1.1510785
1.1200886
1.0955411
1.0830381
1.0818187
1.0935489
1.1273299
1.1758559
1.1932221
1.1383797
1.0751082
1.0380486
1.0539276
1.0664092
1.070752
1.07291
1.0750784
1.0811307
1.0955151
1.1237645
1.1643599
1.2088126
1.2456478
1.2658922
1.2659648
1.2503414
1.2222876
1.1832961
1.1395849
1.1027342
1.0830926
1.0828545
1.0995519
1.129752
1.1555479
1.1495096
1.1018292
1.0793715
1.0527824
1.0685877
1.0808144
1.0873692
1.0910175
1.0936998
1.0996902
1.1160768
1.1505927
1.1978066
1.2451735
1.2830438
1.3055441
1.3097527
1.2973715
1.2694838
1.2272689
1.1775726
1.1338141
1.1091541
1.1080968
1.1236937
1.137743
1.1310051
1.0959424
1.0616786
1.0765472
1.0655804
1.0798396
1.0913358
1.0994554
1.1027529
1.1040232
1.1091981
1.1295267
1.1708775
1.2225174
1.2720309
1.3122909
1.3383817
1.3467338
1.3380187
1.3111928
1.2702413
1.2246936
1.1849525
1.1615965
1.1577088
1.1589608
1.1473214
1.1076773
1.0587119
1.0421815
1.0780519
1.0721481
1.0839833
1.0952738
1.1043597
1.1060989
1.1049117
1.1100892
1.1358264
1.1824226
1.2369679
1.2895872
1.3336327
1.3629988
1.3735106
1.3655949
1.340505
1.3046632
1.2692386
1.2425408
1.2271997
1.2170331
1.1960524
1.1541883
1.0958899
1.0499686
1.0508646
1.0934355
1.0756507
1.0859416
1.0982542
1.1077739
1.1061979
1.1031049
1.1120792
1.1459624
1.1967128
1.2522452
1.3050064
1.3487578
1.3768821
1.386241
1.3793649
1.3594934
1.3329435
1.3096009
1.294636
1.2822117
1.2596363
1.2194278
1.1624122
1.1037469
1.0722648
1.0851593
1.1216456
1.0781514
1.0888165
1.1039405
1.1119982
1.1087713
1.1077101
1.1249417
1.1663419
1.2200673
1.275791
1.3258199
1.3639213
1.3864701
1.3924318
1.386147
1.3732995
1.35847
1.3464398
1.3334449
1.310345
1.2716341
1.2187505
1.1656305
1.1288891
1.1226586
1.1424864
1.1588489
1.0826769
1.0954463
1.1115541
1.1170335
1.113789
1.1174477
1.1433232
1.1894565
1.2440261
1.2980432
1.3452662
1.3803078
1.4005242
1.406916
1.4044081
1.397869
1.3899018
1.3777489
1.3547895
1.3158437
1.2595329
1.2013772
1.1635893
1.1573068
1.1840215
1.2113599
1.1936384
1.088166
1.1022353
1.1176145
1.1193121
1.1169185
1.1253289
1.1555883
1.2010407
1.2521647
1.3025152
1.3470714
1.3824787
1.4078283
1.4242143
1.4341338
1.4378821
1.4320023
1.4104605
1.3702463
1.3120266
1.2447428
1.1884309
1.1639782
1.180405
1.2300154
1.2649718
1.2147261
1.0879055
1.1025905
1.1159366
1.1150955
1.1142793
1.1269931
1.158384
1.1998442
1.2439449
1.2871341
1.3272294
1.3628891
1.3958233
1.4269359
1.4541488
1.4717631
1.4703085
1.4430833
1.3911382
1.3210035
1.2496941
1.1982483
1.1782525
1.1995998
1.2453233
1.2692461
1.2081184
1.0847523
1.1001478
1.1116686
1.1101536
1.1112019
1.1268784
1.1558617
1.1903565
1.2261313
1.2616401
1.2957905
1.3320833
1.3733914
1.4175661
1.4575954
1.4825002
1.4841087
1.4598333
1.4103115
1.3447867
1.2820521
1.2362462
1.2155887
1.2217046
1.2322735
1.2276925
1.1766639
1.0820354
1.0978317
1.1075527
1.106901
1.1114359
1.1281789
1.1534899
1.1806414
1.2087295
1.2350871
1.2637872
1.301614
1.350741
1.4055247
1.4539431
1.48246
1.481964
1.4554787
1.41091
1.3639722
1.3243494
1.2940752
1.2735615
1.2497102
1.2163383
1.1730662
1.1426683
1.0782902
1.0934209
1.1022838
1.1044738
1.1121151
1.1282436
1.1483566
1.170565
1.1909507
1.2099116
1.2320665
1.2663124
1.3211276
1.3903583
1.4511172
1.482804
1.4786045
1.4454807
1.4042807
1.3702217
1.3530765
1.3465939
1.3287297
1.2835453
1.212666
1.141141
1.1265657
1.0706403
1.0834049
1.0921816
1.0975279
1.1068395
1.1211218
1.1382565
1.1556848
1.1717092
1.1866119
1.2033938
1.2305581
1.2851933
1.3704837
1.449694
1.4880947
1.479305
1.4449987
1.4080536
1.3806521
1.372976
1.3750074
1.3561486
1.3031911
1.2188264
1.1482113
1.1371355
1.0631458
1.0724551
1.0818608
1.0897984
1.100154
1.1133577
1.128007
1.1423605
1.1550189
1.1656467
1.1774144
1.1999234
1.2579995
1.3558444
1.4467531
1.4910704
1.4896012
1.4629925
1.4348295
1.4151048
1.4050118
1.392283
1.35917
1.2942007
1.2215472
1.1772166
1.1711418
1.0634584
1.0716229
1.0833682
1.0946965
1.1065998
1.1181916
1.1298294
1.1390598
1.1448656
1.1484176
1.1539463
1.1746044
1.2396815
1.3428749
1.4327836
1.4851198
1.5023105
1.4991846
1.4917302
1.4813439
1.4627023
1.4262798
1.3549978
1.2690929
1.2125129
1.2010245
1.2070967
1.0830664
1.0922752
1.1073027
1.1216421
1.1331801
1.1405899
1.1435984
1.1413984
1.1351734
1.1281425
1.1287526
1.1606421
1.2423982
1.3386166
1.4158409
1.4723734
1.5122352
1.5430632
1.5701859
1.574056
1.5457493
1.4663564
1.3532014
1.2524784
1.2073433
1.2111901
1.2259911
1.1297886
1.1391051
1.1520145
1.1624341
1.1672141
1.1638015
1.1540792
1.1394526
1.1226971
1.1129258
1.1284834
1.189898
1.2731888
1.3497474
1.4129292
1.4681838
1.5238176
1.589601
1.6473157
1.6568729
1.6016591
1.4833835
1.3507867
1.2563829
1.2223285
1.2274168
1.2450136
1.177015
1.1846243
1.1926441
1.1958944
1.1902427
1.1760532
1.1561813
1.1349582
1.12396
1.1413411
1.1963135
1.2695154
1.3360888
1.3903359
1.4378499
1.4894018
1.5604701
1.6393931
1.6853951
1.6664368
1.5771699
1.4511838
1.34062
1.2761927
1.2568773
1.2635538
1.2905575
1.1806313
1.18726
1.1955176
1.1961199
1.1871896
1.1719506
1.1590039
1.1622056
1.1961777
1.2585429
1.3276014
1.3847852
1.4294692
1.4681566
1.5111653
1.5689352
1.6300849
1.6646295
1.6463516
1.5740673
1.4735663
1.3789705
1.3148024
1.2944719
1.3046413
1.323708
1.3633825
1.1497013
1.155471
1.1623486
1.1642876
1.1642668
1.1732353
1.2061068
1.2684049
1.3464051
1.418516
1.4752705
1.5205575
1.5618524
1.6038687
1.6490311
1.6782442
1.670457
1.6175275
1.530122
1.4396713
1.35093
1.3004426
1.2871641
1.3074211
1.3469221
1.3922018
1.4368359
1.1112912
1.1180879
1.127932
1.1410575
1.1714948
1.232963
1.3200173
1.4129847
1.4954216
1.5620892
1.6195024
1.673428
1.7220023
1.7588971
1.7610844
1.7139497
1.626041
1.5198619
1.4190783
1.3362505
1.2772092
1.2587701
1.274452
1.3191371
1.3802583
1.4406481
1.4730055
1.0968694
1.1040994
1.1229099
1.1691569
1.2518227
1.355104
1.4542497
1.5387133
1.610813
1.6773303
1.7414897
1.7965924
1.8284849
1.8177667
1.7563985
1.6576289
1.5466654
1.447451
1.3617608
1.2956012
1.2681154
1.2674388
1.2961275
1.3473048
1.4036629
1.4517224
1.4532137
1.1079867
1.123852
1.1745784
1.27248
1.3899043
1.4929841
1.5735431
1.6389543
1.6976373
1.7517721
1.7973695
1.8204314
1.8125977
1.762088
1.6827382
1.5895078
1.4975642
1.4183941
1.3575396
1.3192561
1.311975
1.3258056
1.3610526
1.3956084
1.4171011
1.4214021
1.3901936
1.1419959
1.1784183
1.2806118
1.4155176
1.5269713
1.6039695
1.6581958
1.6993922
1.7313128
1.7542474
1.7643289
1.757759
1.7301312
1.6823159
1.6199727
1.5511694
1.4849599
1.4318071
1.3958624
1.3823417
1.3935018
1.4185926
1.4381291
1.4303271
1.4040644
1.3696041
1.3155852
1.1785058
1.252864
1.4006319
1.5292827
1.6081859
1.653667
1.6816626
1.6995523
1.7107384
1.7145728
1.7098388
1.6946769
1.6678956
1.6311579
1.5879566
1.5442004
1.505403
1.4768977
1.4622051
1.4660418
1.4792238
1.4859074
1.4639721
1.4224591
1.3770758
1.327136
1.2631567
1.2077845
1.331049
1.482312
1.5740182
1.6205883
1.6461817
1.6620773
1.6734749
1.6801348
1.6818866
1.6778669
1.666968
1.6489168
1.6250931
1.5984405
1.5719286
1.5496035
1.5339007
1.5238237
1.5142695
1.5015014
1.4709427
1.430891
1.3915986
1.3554685
1.3135428
1.2533107
1.240882
1.3921679
1.5188394
1.5792562
1.6076992
1.6250665
1.6396664
1.6520432
1.6626546
1.671291
1.6758241
1.6754151
1.6693964
1.6577166
1.6407519
1.6189484
1.5926164
1.5615519
1.52512
1.4862056
1.4442421
1.4059567
1.379676
1.3669071
1.3602386
1.3347416
1.2816274
1.3099907
1.4578388
1.5562214
1.5953764
1.6137516
1.628668
1.6427904
1.6571284
1.6714738
1.6854085
1.6987221
1.7053965
1.7051797
1.6940426
1.6711616
1.6356804
1.5879147
1.5305852
1.4694814
1.4114957
1.3643665
1.3381897
1.3383409
1.3605712
1.3927307
1.3901798
1.3462927
1.4719551
1.585999
1.6417406
1.6605741
1.6717591
1.6808434
1.6899065
1.698949
1.7076428
1.7146904
1.7177251
1.7141696
1.7013793
1.6786991
1.643996
1.598262
1.5430914
1.4796907
1.4126345
1.3518367
1.3102474
1.2978509
1.3192227
1.3707716
1.4363714
1.4740854
1.4559478
1.7310581
1.7807836
1.7943141
1.7939144
1.788201
1.7785266
1.7669548
1.7548126
1.7403938
1.7210567
1.6974027
1.6721057
1.6451828
1.6143558
1.5804195
1.5435938
1.502153
1.4518476
1.3932463
1.3366971
1.2962958
1.2850967
1.3159895
1.3914447
1.4996281
1.5821895
1.5861253
2.0466042
2.0388588
2.0083323
1.9719059
1.9309835
1.8858963
1.8397707
1.795201
1.7505126
1.7029569
1.6559656
1.6147085
1.5776981
1.5455723
1.5251197
1.5085699
1.4901704
1.4623015
1.4180647
1.3604026
1.3098942
1.2905207
1.3308384
1.4289296
1.5723779
1.6951874
1.6930015
2.3984922
2.3288598
2.2383075
2.1464293
2.0579881
1.975937
1.9009585
1.8309201
1.7644251
1.7002674
1.6388473
1.583228
1.5369017
1.5114534
1.5026181
1.5069516
1.5124901
1.5094877
1.480147
1.421105
1.3507201
1.3164553
1.3503068
1.4620434
1.6253066
1.7646612
1.7607138
2.7401841
2.608624
2.4570143
2.3144526
2.1870873
2.078066
1.9822969
1.8961355
1.8183662
1.7448751
1.6732981
1.6064927
1.5545267
1.5303033
1.5304423
1.5515172
1.5769204
1.5995903
1.5867175
1.5141978
1.4129935
1.3506693
1.3577914
1.4447027
1.6005616
1.75544
1.7905064
3.0533783
2.8705147
2.6675755
2.4863927
2.33333
2.2110415
2.1079015
2.0189953
1.941554
1.8676886
1.7947359
1.7247545
1.6659829
1.6362173
1.6333249
1.6584506
1.6956217
1.738539
1.7380328
1.6588872
1.4963625
1.3712141
1.3270229
1.3640465
1.4897004
1.6708312
1.7978337
3.3664927
3.1533947
2.9078089
2.6993471
2.5310678
2.3979807
2.2944911
2.2203074
2.1619645
2.1119265
2.0624433
2.0065853
1.9448406
1.8921012
1.8600448
1.8563646
1.8787562
1.9215781
1.9423735
1.8574225
1.6246348
1.398165
1.2778435
1.2706245
1.3564299
1.5451628
1.7630448
3.644702
3.4267226
3.1507963
2.9213368
2.7386085
2.6012777
2.5144465
2.4776272
2.4896557
2.535537
2.5858349
2.6109488
2.561706
2.4447408
2.3045362
2.1923198
2.1315184
2.1057891
2.097304
1.9935999
1.7220078
1.4419485
1.2718908
1.2163532
1.2559508
1.4420338
1.7009448
3.2561839
3.1217657
2.9396171
2.7874074
2.6898496
2.6454238
2.6434672
2.6938466
2.791385
2.9240755
3.0703036
3.1971706
3.2407612
3.1313901
2.8901304
2.6330123
2.4192766
2.2485536
2.0822294
1.8922995
1.6382123
1.4220617
1.2769374
1.1968132
1.229832
1.3774782
1.6405429
2.815092
2.7241632
2.5983681
2.5138397
2.4818263
2.4948902
2.5513652
2.6502876
2.7832935
2.9367027
3.0951777
3.2401353
3.3364946
3.3180887
3.1422682
2.8559131
2.5517432
2.2684523
1.9995342
1.7571466
1.532643
1.3604375
1.2631167
1.205758
1.236275
1.3489155
1.5985053
2.5600775
2.4947143
2.4139621
2.3684934
2.3636095
2.3966728
2.4657481
2.5658936
2.6824154
2.7912167
2.8802891
2.9507448
3.0046737
3.0291847
2.9949008
2.8604687
2.636403
2.3523978
2.0551227
1.7744043
1.5434062
1.3873561
1.2903059
1.2457505
1.2677197
1.3705885
1.5859567
2.7605938
2.7337352
2.6824064
2.6329742
2.6065411
2.6032981
2.6127737
2.6305635
2.6496939
2.6598693
2.6574568
2.6425855
2.6310828
2.6373555
2.6776183
2.7186531
2.7050455
2.5676049
2.3038014
2.0100064
1.7457746
1.5530155
1.4282125
1.3754499
1.384521
1.4624952
1.6081743
4.7092409
4.4271401
4.003083
3.6219112
3.3036076
3.0414807
2.8394042
2.6894843
2.5905251
2.5424394
2.5216277
2.525394
2.5476417
2.5758224
2.6146744
2.66357
2.7322981
2.7688002
2.6588167
2.4195213
2.1451809
1.909755
1.7411275
1.6445607
1.6062588
1.6195124
1.6647212
5.8093103
5.4016193
5.0026296
4.6587207
4.3474399
4.0627209
3.810101
3.5910407
3.407676
3.2593441
3.15933
3.1095919
3.1133722
3.1327293
3.1168856
3.0734059
3.0021111
2.9221705
2.8430289
2.7455447
2.5942476
2.4072525
2.2125522
2.0298657
1.8938789
1.805028
1.7499193
5.0601421
5.1094493
5.1423114
5.1455601
5.1367301
5.1359379
5.1464868
5.1501936
5.1140113
5.0138581
4.8396691
4.5943415
4.3135682
4.0742021
3.8489493
3.6371307
3.4585116
3.3129482
3.2024316
3.1391846
3.0949545
3.0077594
2.8362035
2.5755023
2.3054873
2.0868212
1.9239137
6.1906083
6.1678093
5.8979716
5.5969128
5.3877722
5.2780266
5.229806
5.1810778
5.1113846
5.0039065
4.8948554
4.8191205
4.8319609
4.824799
4.8043566
4.6786733
4.4408465
4.1678509
3.9155611
3.7159523
3.561118
3.4062845
3.2118265
2.9575472
2.6337901
2.3280894
2.0884582
7.9432503
7.3148295
6.3920825
5.6807277
5.2045003
4.9039354
4.6967929
4.5494294
4.4308743
4.3586045
4.34586
4.4554483
4.7101149
4.9619293
5.1565865
5.123422
4.8115521
4.3457565
3.8752398
3.454877
3.1181219
2.8997804
2.7910062
2.7101607
2.5571497
2.3170084
2.0901077
7.3081485
6.2424417
5.1650565
4.5188968
4.1656934
3.9619315
3.8434217
3.7701049
3.7332651
3.7360676
3.7962472
3.9379007
4.1843075
4.4325392
4.6419334
4.6246626
4.2935872
3.7835256
3.2932154
2.8759506
2.5777762
2.416666
2.3846629
2.4054711
2.370391
2.2004563
1.9934776
4.6515366
3.8936254
3.4758865
3.2962451
3.2158261
3.1786719
3.1672688
3.178063
3.2109393
3.2682247
3.3625929
3.5041041
3.694473
3.8999378
4.0635826
4.0581291
3.8214337
3.4522396
3.0904572
2.7710024
2.5309987
2.3986648
2.3764075
2.3939145
2.3302098
2.143278
1.9102623
3.1201708
2.9675997
2.9078739
2.8826846
2.8711664
2.8687621
2.8755795
2.894606
2.9309821
2.9875987
3.0692916
3.1848649
3.3278445
3.4900775
3.6335474
3.6751977
3.5532059
3.3247595
3.0971764
2.8968766
2.7375542
2.6674034
2.6791431
2.6656787
2.5124506
2.2185941
1.8962958
2.8598934
2.8305655
2.8121207
2.7998448
2.7918873
2.7886343
2.7917611
2.8046947
2.8302157
2.8716202
2.9325911
3.0149592
3.1177211
3.2322303
3.3344218
3.3682559
3.2916337
3.1530094
3.0243383
2.931599
2.8885095
2.9224969
2.9976986
2.9924189
2.7813595
2.394982
1.9905695
2.7939636
2.7766558
2.7656704
2.7601227
2.7594944
2.7651646
2.7779605
2.7980286
2.8267595
2.8684787
2.9247137
2.9913404
3.0667852
3.1413262
3.1883431
3.1735733
3.0906737
2.9785534
2.8732716
2.7998252
2.7835037
2.8348463
2.9334345
2.989373
2.8713254
2.5533109
2.1474812
2.745645
2.7272369
2.720279
2.7194151
2.7266231
2.7415911
2.7651343
2.7998944
2.8492578
2.9109451
2.9822489
3.0561671
3.1225248
3.159333
3.1486955
3.0877321
2.9919849
2.8907902
2.7950448
2.7185441
2.6732983
2.671535
2.6944862
2.695977
2.637226
2.5044962
2.2753714
2.7673208
2.747065
2.7385145
2.736469
2.7404449
2.7535698
2.7786832
2.8170842
2.8683522
2.9298125
2.9970889
3.0621643
3.1092898
3.1249694
3.1039162
3.0519886
2.9878474
2.9166111
2.8379722
2.7614043
2.7039682
2.6479433
2.595972