/*--------------------------------*- C++ -*----------------------------------*\
| =========                 |                                                 |
| \\      /  F ield         | OpenFOAM: The Open Source CFD Toolbox           |
|  \\    /   O peration     | Version:  2406                                  |
|   \\  /    A nd           | Website:  www.openfoam.com                      |
|    \\/     M anipulation  |                                                 |
\*---------------------------------------------------------------------------*/
FoamFile
{
    version     2.0;
    format      ascii;
    arch        "LSB;label=32;scalar=64";
    class       volScalarField;
    location    "22";
    object      rho_0;
}
// * * * * * * * * * * * * * * * * * * * * * * * * * * * * * * * * * * * * * //

dimensions      [1 -3 0 0 0 0 0];

internalField   nonuniform List<scalar> 
96472
(
1.0021398
1.0031942
1.0019729
1.0016607
1.0008611
0.99986504
0.99925057
0.99917567
0.99942793
0.99995079
1.0007491
1.0018322
1.0030654
1.00426
1.005238
1.0062395
1.007263
1.0082894
1.0092418
1.0099099
1.0103105
1.0104013
1.0102755
1.0098798
1.0092686
1.0084312
1.0074508
1.0063246
1.0050967
1.0038128
1.002533
1.0012785
1.0000879
0.99896883
0.99788306
0.99690257
0.99592711
0.99517352
0.99429718
0.99350789
0.99294224
0.99235038
0.99186269
0.99124262
0.99114389
0.99063568
0.99040865
0.99005702
0.99005346
0.98978348
0.98959437
0.98923602
0.98936501
0.98899096
0.98912097
1.0021543
1.0031942
1.0019587
1.0016507
1.0008857
0.99991439
0.99930762
0.99922422
0.99945496
0.99994878
1.0006878
1.0017399
1.002985
1.0041924
1.0052453
1.0062658
1.007328
1.0083726
1.0092921
1.010013
1.0104628
1.0106148
1.0105233
1.0101599
1.0095503
1.0087471
1.0077962
1.0066953
1.0054895
1.0042292
1.0029627
1.0016972
1.0004986
0.99936812
0.99828427
0.99724794
0.99636696
0.99543063
0.99464312
0.99384938
0.99312616
0.99258161
0.99196767
0.99167548
0.99100066
0.99077741
0.99045161
0.99029288
0.98987357
0.98981573
0.98961142
0.9894687
0.9891239
0.98903238
0.98877724
1.0021617
1.0031887
1.0019497
1.0016628
1.0009197
0.99997026
0.99935823
0.99928137
0.99949288
0.99993923
1.0006396
1.0016361
1.0028808
1.0041379
1.0052526
1.0062624
1.007341
1.0084379
1.0093877
1.010111
1.0105844
1.0107878
1.010706
1.0103903
1.0098085
1.009049
1.0081061
1.0070423
1.0058549
1.0046211
1.0033458
1.0021184
1.0009087
0.99977007
0.99866285
0.99763404
0.99666774
0.99583075
0.99486113
0.99411982
0.99344353
0.99275032
0.99230419
0.99150373
0.99133521
0.99081276
0.99049932
0.99013811
0.99008774
0.98974485
0.98938502
0.98922929
0.98934332
0.98904776
0.98903603
1.0021608
1.0031771
1.001937
1.001674
1.00097
1.0000446
0.99943763
0.99934559
0.99953218
0.99991874
1.0005821
1.0015522
1.0027871
1.0040823
1.0052446
1.0063174
1.0073873
1.0084753
1.0094919
1.010241
1.0107315
1.0109428
1.0108811
1.0105715
1.0100439
1.0092971
1.0083999
1.0073722
1.0062172
1.0050063
1.0037741
1.0025194
1.0013204
1.0001615
0.9990456
0.99800385
0.99704208
0.99607666
0.99528766
0.99434655
0.99362691
0.99304616
0.99227576
0.99196001
0.99129165
0.9908431
0.99054627
0.99028927
0.98986569
0.98960341
0.98954884
0.98953994
0.98899168
0.98876921
0.98841203
1.0021483
1.0031501
1.0019169
1.0016846
1.0010206
1.0001294
0.99950807
0.99939218
0.99955116
0.99990938
1.0005242
1.001457
1.0026894
1.0040235
1.0052231
1.0063791
1.0074821
1.0085591
1.0095573
1.0103482
1.0108658
1.0110791
1.0110424
1.0107529
1.010236
1.0095249
1.0086635
1.0076625
1.0065551
1.0053858
1.0041622
1.0029596
1.0017391
1.0005767
0.99945209
0.99838203
0.99740004
0.99651133
0.99546862
0.99475049
0.99392193
0.99319784
0.99268518
0.99193893
0.99144572
0.99109715
0.99057766
0.99020094
0.98997358
0.98979552
0.98948232
0.98896092
0.98883794
0.98916096
0.98888202
1.0021243
1.0031094
1.0018932
1.0017009
1.001068
1.0001868
0.99956944
0.99942446
0.9995573
0.99988866
1.0004577
1.0013678
1.0025904
1.0039465
1.0052314
1.0064012
1.0075434
1.0086565
1.0096403
1.0104347
1.0109626
1.0112004
1.0111743
1.0109163
1.0104129
1.0097268
1.0089006
1.0079508
1.0068697
1.0057298
1.0045453
1.0033367
1.0021308
1.0009772
0.99984541
0.99878636
0.99778396
0.99679818
0.99596589
0.99491124
0.99424454
0.99349325
0.99276245
0.99221087
0.99170346
0.99105217
0.99066384
0.99038789
0.99000133
0.98966761
0.98921595
0.98934225
0.98938417
0.98833827
0.98867541
1.0020899
1.0030643
1.0018649
1.0017001
1.0011098
1.0002445
0.9996084
0.999447
0.99955199
0.99984918
1.0004049
1.0012801
1.0025076
1.0038837
1.0052317
1.0064482
1.0075944
1.0087211
1.0097464
1.010537
1.0110654
1.0113203
1.0112928
1.0110491
1.0105686
1.0099128
1.0091171
1.0082072
1.0071753
1.0060728
1.0049007
1.0037264
1.002564
1.0013707
1.0002616
0.99915886
0.99812651
0.99722496
0.99613651
0.99542851
0.99443609
0.99375741
0.99309717
0.99240155
0.99171056
0.99131393
0.99085447
0.99035759
0.98999302
0.98966398
0.98968464
0.98911657
0.98860324
0.98886487
0.98821624
1.0020587
1.0030143
1.0018306
1.0017082
1.0011363
1.0002802
0.99963016
0.99943641
0.99953022
0.99980842
1.0003366
1.0012138
1.0024173
1.0038287
1.0052085
1.0065182
1.0077006
1.0088043
1.0098397
1.0106368
1.0111821
1.0114308
1.0114068
1.0111673
1.0107103
1.0100763
1.0093124
1.008449
1.0074432
1.0063993
1.0052851
1.0041293
1.0029272
1.0017976
1.000639
0.99954435
0.99854212
0.99749758
0.99664952
0.99552577
0.9948656
0.9940659
0.9932237
0.99257998
0.99208453
0.99144232
0.9908436
0.9904603
0.99012222
0.98985647
0.98931479
0.9891538
0.98870935
0.98894105
0.98883727
1.0020356
1.0029618
1.0018004
1.0017128
1.0011568
1.0002887
0.99963346
0.99940883
0.99947531
0.9997643
1.0002805
1.0011326
1.0023419
1.0037706
1.00519
1.0065568
1.0077959
1.00892
1.0099346
1.0107344
1.0112843
1.0115286
1.0115115
1.0112824
1.0108399
1.0102291
1.0095028
1.0086715
1.0077305
1.0066902
1.0056106
1.0044767
1.0033441
1.0021537
1.0010424
0.99995484
0.99886682
0.99795536
0.99683996
0.99604208
0.99510748
0.99422049
0.99359372
0.99294475
0.99212552
0.99153119
0.99109257
0.99069483
0.99015444
0.98986443
0.98925254
0.98926064
0.9893017
0.98829009
0.98797847
1.0020107
1.0029084
1.0017714
1.0017166
1.0011427
1.0002759
0.99958831
0.99933389
0.99941239
0.99970382
1.0002314
1.0010786
1.0022808
1.0037116
1.0052045
1.0065955
1.0078585
1.0090164
1.0100357
1.0108348
1.011377
1.0116317
1.0116131
1.0113859
1.0109622
1.0103786
1.0096757
1.0088913
1.0079783
1.0069934
1.0059325
1.0048272
1.0036742
1.0025821
1.00142
1.0003094
0.99930801
0.99820889
0.99729522
0.99627065
0.99534803
0.99469791
0.9938234
0.99296954
0.99241066
0.99188517
0.9912233
0.99064757
0.99030578
0.98969106
0.98997874
0.98905625
0.9884744
0.98888207
0.98851986
1.0019643
1.0028426
1.0017377
1.0016966
1.0011157
1.0002258
0.99952642
0.99925136
0.99933348
0.99965322
1.000187
1.0010378
1.002231
1.0036708
1.0051872
1.0066455
1.0079491
1.0091157
1.0101536
1.0109475
1.0114872
1.0117397
1.0117176
1.0114896
1.0110819
1.0105201
1.0098428
1.0090746
1.0082186
1.007265
1.0062516
1.0051699
1.0040888
1.0029479
1.0018128
1.0007101
0.99958373
0.99863969
0.99756606
0.99658813
0.99578606
0.99482175
0.99401518
0.99342208
0.9927122
0.99185875
0.99136609
0.9908871
0.99061433
0.99001101
0.98938552
0.98921351
0.98923142
0.98834609
0.9888006
1.0019241
1.0027979
1.0017136
1.0016788
1.0010825
1.000162
0.99944093
0.99917431
0.9992573
0.99959834
1.0001563
1.0010102
1.0021996
1.0036373
1.0051687
1.0066985
1.0080554
1.0092339
1.0102715
1.0110675
1.0116046
1.0118469
1.0118189
1.0116007
1.0112005
1.0106602
1.010001
1.0092815
1.0084242
1.0075332
1.0065543
1.0055205
1.0043942
1.0032956
1.0021525
1.0010422
1.0000266
0.99893998
0.99792342
0.99698257
0.99596409
0.99517193
0.9944448
0.99357107
0.99271904
0.9922608
0.99165086
0.99122558
0.99020514
0.99028467
0.98968982
0.98938889
0.98907323
0.98868981
0.98794959
1.0018685
1.0027505
1.0016974
1.0016673
1.00103
1.0000811
0.99934967
0.9990737
0.99917991
0.99956132
1.0001481
1.0010161
1.0021918
1.0036167
1.0051651
1.0067279
1.0081397
1.0093544
1.0103971
1.0111912
1.0117233
1.0119561
1.0119282
1.0117127
1.0113207
1.0107929
1.0101678
1.0094534
1.008669
1.0077707
1.0068087
1.0057839
1.0047359
1.0036266
1.002499
1.0014027
1.000319
0.99930045
0.99826066
0.99721554
0.99635759
0.99548315
0.99455518
0.99379686
0.99322041
0.99247609
0.99169673
0.99104733
0.99097395
0.99020055
0.9898741
0.989508
0.98859385
0.98902633
0.98878752
1.0018448
1.0027512
1.001717
1.0016761
1.0009804
1.0000009
0.99925468
0.998983
0.99911428
0.99954465
1.0001497
1.0010297
1.0021921
1.0036034
1.0051815
1.0067709
1.0082237
1.0094769
1.0105318
1.0113306
1.0118539
1.0120801
1.0120524
1.0118295
1.0114467
1.0109274
1.0103061
1.0096318
1.0088485
1.008015
1.0070795
1.0060944
1.0050152
1.0039819
1.0028712
1.0017651
1.0006669
0.9996189
0.99856526
0.99758184
0.99663093
0.99569987
0.99494968
0.99419766
0.9933176
0.99249051
0.99211377
0.99151643
0.99104405
0.99025251
0.98991474
0.98942807
0.98971027
0.98863663
0.98836801
1.0018341
1.0027782
1.0017665
1.0017042
1.000947
0.99992232
0.99916003
0.99889482
0.99906401
0.9995476
1.0001929
1.0010808
1.0022321
1.0036203
1.0051824
1.0068173
1.00832
1.009613
1.0106759
1.011481
1.0119969
1.0122171
1.0121737
1.0119526
1.0115759
1.0110638
1.0104572
1.0097871
1.0090455
1.0082086
1.0073245
1.0063593
1.0053452
1.004258
1.0031678
1.002038
1.0009848
0.99994476
0.99889034
0.99786978
0.99691016
0.99607005
0.99519424
0.99430774
0.99358266
0.99305794
0.99220127
0.99173371
0.99077779
0.99069809
0.99043369
0.98970919
0.98918611
0.98898605
0.9883876
1.0018589
1.0028771
1.001864
1.0017694
1.0009356
0.99986025
0.99908226
0.99882168
0.99903166
0.99956713
1.000259
1.0011564
1.0022826
1.0036465
1.0051997
1.0068534
1.0084171
1.009743
1.0108371
1.0116269
1.012144
1.0123532
1.0122985
1.0120795
1.0117023
1.0111968
1.010602
1.0099577
1.0092111
1.0084253
1.0075393
1.0065995
1.0055721
1.0045314
1.0034603
1.0023379
1.0012901
1.0002407
0.99922095
0.99815491
0.99724157
0.99633994
0.99544652
0.99470158
0.9939264
0.99310524
0.99245013
0.99175627
0.99155741
0.99093507
0.99005426
0.9899148
0.98958041
0.98872259
0.98934822
1.0019094
1.0030181
1.0019928
1.001861
1.0009564
0.9998238
0.99902437
0.9987785
0.99903226
0.9996222
1.0003449
1.0012548
1.0023636
1.0036949
1.0052405
1.0068998
1.0084996
1.0098747
1.0109931
1.0117934
1.0122889
1.0125024
1.0124342
1.0122095
1.011829
1.0113206
1.0107478
1.0100856
1.0093897
1.0085964
1.0077293
1.006822
1.0058222
1.0048189
1.0037264
1.0027059
1.0015861
1.0005666
0.99948902
0.99850179
0.99752455
0.99658736
0.99577649
0.99492653
0.99411963
0.99336531
0.99284839
0.99226427
0.99141063
0.99101589
0.99045026
0.99032763
0.9896265
0.98925635
0.98890324
1.0019708
1.0031961
1.0021947
1.0019867
1.0009973
0.99982408
0.99899623
0.99875757
0.99905405
0.99968702
1.0004543
1.0013759
1.0024636
1.0037669
1.0052828
1.0069504
1.0085951
1.0100074
1.0111515
1.0119651
1.0124417
1.0126407
1.0125678
1.0123283
1.0119475
1.0114476
1.0108656
1.0102298
1.0095141
1.0087545
1.0079406
1.0070222
1.0060708
1.0050308
1.0040349
1.002899
1.0018693
1.0008192
0.99982613
0.9987707
0.99776544
0.99691491
0.99607657
0.99522855
0.99442199
0.99378797
0.99293512
0.99223877
0.9918888
0.99121237
0.99091258
0.99042775
0.98927595
0.99005476
0.98862912
1.0020539
1.0034184
1.0023936
1.002133
1.0010639
0.99984927
0.99899458
0.99876434
0.99909574
0.9997869
1.0005963
1.0015092
1.0025821
1.0038496
1.0053317
1.0070041
1.0086793
1.0101441
1.0113119
1.0121213
1.0126079
1.0127792
1.0126918
1.0124456
1.0120672
1.0115707
1.0109888
1.0103558
1.0096629
1.0089088
1.008089
1.0072209
1.0062549
1.0052901
1.0042112
1.0031997
1.002109
1.0011131
1.0000729
0.9990541
0.99812605
0.99721307
0.99629526
0.9955201
0.9946981
0.9939167
0.99325049
0.99267835
0.9922348
0.99131005
0.99126393
0.99006604
0.99041873
0.98951209
0.98925695
1.0021369
1.0036874
1.002645
1.0023076
1.0011642
0.99989601
0.99902586
0.99879322
0.99917214
0.99990525
1.0007422
1.0016618
1.0027147
1.0039449
1.0053968
1.0070527
1.0087518
1.0102588
1.0114654
1.0122794
1.0127522
1.0129222
1.0128147
1.0125496
1.0121773
1.0116786
1.0111067
1.010472
1.0097758
1.0090604
1.0082419
1.0073563
1.0064657
1.0054645
1.0044794
1.0034395
1.0024093
1.0013932
1.0003782
0.99938064
0.99839794
0.9974356
0.9966315
0.99575261
0.99505076
0.9942236
0.99352842
0.99306532
0.99198424
0.99206873
0.99107004
0.99071096
0.99059567
0.98951939
0.98965858
1.0022428
1.0039396
1.0028804
1.002495
1.0012732
0.9999611
0.99907069
0.99884851
0.99925546
1.0000309
1.0009122
1.0018329
1.0028557
1.0040485
1.0054669
1.0071134
1.0088099
1.010365
1.0115968
1.0124376
1.0128934
1.0130479
1.0129463
1.0126574
1.012278
1.0117839
1.0112143
1.0105729
1.0098956
1.009172
1.0083736
1.007546
1.0066302
1.0056962
1.004697
1.0036544
1.0026641
1.0016424
1.0006387
0.99964187
0.99865339
0.99778813
0.99688477
0.99613661
0.99524453
0.99452
0.99391198
0.99301711
0.99266439
0.99215447
0.99119738
0.99136973
0.99024122
0.99025539
0.98956458
1.0023329
1.0042252
1.0031288
1.0026803
1.0014026
1.0000465
0.99913545
0.99891698
0.99934672
1.0001636
1.0010678
1.0019895
1.0029968
1.0041507
1.0055272
1.0071448
1.0088627
1.010444
1.0117163
1.0125724
1.0130294
1.0131694
1.0130559
1.0127629
1.0123863
1.0118847
1.0113074
1.010684
1.0100092
1.0092894
1.0085087
1.0076811
1.0068039
1.0058757
1.0048926
1.0039035
1.0028755
1.0018771
1.0009203
0.99991565
0.99898948
0.99806322
0.99719314
0.99635105
0.99556735
0.99487776
0.99409766
0.99337075
0.9931448
0.99189581
0.99205877
0.9911084
0.99086165
0.99026044
0.98993185
1.0024425
1.0044625
1.0033555
1.00287
1.0015354
1.0001445
0.99921477
0.99899822
0.99944768
1.0002966
1.0012193
1.0021456
1.0031335
1.0042505
1.0055893
1.0071733
1.0088869
1.0105051
1.0118139
1.0126886
1.0131533
1.0133046
1.0131747
1.0128819
1.0125026
1.0120031
1.0114239
1.0108046
1.0101285
1.009413
1.0086473
1.0078274
1.0069702
1.006055
1.0051061
1.0041121
1.0031406
1.0021895
1.0011893
1.0002185
0.99928762
0.99834045
0.99750183
0.99665706
0.99591601
0.99515375
0.99430585
0.99397986
0.99296142
0.99261487
0.99212868
0.99143706
0.9911378
0.99039181
0.99048338
1.0025153
1.0047066
1.0035842
1.0030768
1.0016912
1.0002588
0.99930527
0.99907308
0.99954436
1.000424
1.0013829
1.0023109
1.0032869
1.0043632
1.0056517
1.0071978
1.0088965
1.0105272
1.0118852
1.012794
1.013284
1.0134483
1.013352
1.0130576
1.0126755
1.0121776
1.0115952
1.0109662
1.0102725
1.0095514
1.0087948
1.0079816
1.0071229
1.006271
1.0053178
1.0043229
1.0033909
1.0024353
1.0014654
1.0005436
0.9995715
0.9986823
0.99781407
0.99705375
0.99624886
0.99543396
0.99488312
0.99411845
0.99335448
0.99314478
0.99216334
0.99196608
0.99119587
0.99123342
0.99038234
1.0026721
1.0049757
1.0038194
1.0033301
1.0019115
1.000433
0.9994215
0.99917184
0.99965031
1.0005687
1.0015845
1.0025364
1.0035096
1.0045508
1.0057788
1.0072691
1.0089301
1.0105653
1.0119509
1.0129192
1.0134571
1.0136626
1.0136223
1.0133882
1.0130248
1.0125393
1.0119277
1.0112642
1.0105238
1.0097783
1.0089826
1.0081564
1.0073242
1.0064369
1.0055177
1.0045952
1.0036519
1.0026827
1.0017772
1.0008348
0.99995676
0.99906762
0.99826467
0.99740456
0.99670165
0.99598215
0.99534444
0.99443663
0.99414715
0.9932742
0.9928117
0.99236269
0.99184466
0.99163841
0.99055436
1.0028513
1.005298
1.0040962
1.0036391
1.0022712
1.0007742
0.9996823
0.9993405
0.99981692
1.0007809
1.0018525
1.0028539
1.0038461
1.0048743
1.006042
1.0074514
1.0090515
1.0106523
1.012059
1.0130653
1.0136511
1.0139218
1.0139576
1.0138719
1.0136304
1.0132004
1.0125481
1.0117861
1.0109041
1.0100255
1.0092174
1.0082631
1.0074294
1.0066443
1.0056633
1.0046392
1.0038473
1.0029338
1.0019922
1.0011376
1.0002853
0.99944151
0.99859089
0.99787768
0.99710671
0.9964985
0.99567653
0.9951548
0.99458441
0.9938664
0.99344557
0.99303155
0.99244568
0.99187324
0.99157253
1.0030181
1.0056233
1.0044629
1.0041866
1.0027877
1.0013054
1.0001566
0.99976367
1.0001632
1.0010627
1.0020849
1.0030971
1.0041316
1.0051976
1.0063478
1.0076954
1.0092474
1.0107199
1.0120526
1.0130628
1.0136984
1.0140106
1.0141733
1.0142974
1.0143298
1.0142895
1.0133694
1.0123241
1.0112247
1.0102187
1.0092528
1.0083656
1.0075041
1.0065532
1.0057413
1.004783
1.0037809
1.0028362
1.0020246
1.0011627
1.0003109
0.99948118
0.99875633
0.99804685
0.99738962
0.99684467
0.99615539
0.99552097
0.9948479
0.99446035
0.99399862
0.9932627
0.99309931
0.99235514
0.99233967
0.99156348
0.99115713
0.99059685
0.99000813
0.98961678
0.98950165
0.98929832
0.98899383
0.98888603
0.98881601
0.98850246
0.98817285
0.98845848
0.98829269
0.98791817
0.98845024
0.98785008
0.98809933
0.98845257
0.9878313
0.98855776
0.98819868
0.98828687
0.98868465
0.98835686
0.98874687
0.98855511
0.99117423
0.99047994
0.98990416
0.98948854
0.98923662
0.98895627
0.98876655
0.98861548
0.98842392
0.98826701
0.98812548
0.98813908
0.98783707
0.98785437
0.98800604
0.98755514
0.98807247
0.98773645
0.98772005
0.98817474
0.98765784
0.98825188
0.98799582
0.98810544
0.98823456
0.98822699
0.98836066
0.99047838
0.98994519
0.98934788
0.98895779
0.98871894
0.98848664
0.98838086
0.98816944
0.98797992
0.98794546
0.98777507
0.98761241
0.98771505
0.98750298
0.98747907
0.98769075
0.98729375
0.98776016
0.98757148
0.98749878
0.98793235
0.98750992
0.98801087
0.98772883
0.98796001
0.98793148
0.98798545
0.98984301
0.98940452
0.98894687
0.98843156
0.98824316
0.98813215
0.98778869
0.98784906
0.98763241
0.98737784
0.98757563
0.98726687
0.98719972
0.98739054
0.98710912
0.98724635
0.98735593
0.98707778
0.98752926
0.98731059
0.98740231
0.98760509
0.98741233
0.98773599
0.98755796
0.98769503
0.98769008
0.98943825
0.98899153
0.98842112
0.98806993
0.98773392
0.98766201
0.98748122
0.98720968
0.98736642
0.98710976
0.9868782
0.98722748
0.98680914
0.98688654
0.98710739
0.98671731
0.98709184
0.98699932
0.9869162
0.98728756
0.98703921
0.9873006
0.98724357
0.9873562
0.9873913
0.98741657
0.98740842
0.98897141
0.98836055
0.98789994
0.98767792
0.98725733
0.98717974
0.98718185
0.98685176
0.98685478
0.98691152
0.98663373
0.98661655
0.98682465
0.9864695
0.98667251
0.9867928
0.98644786
0.98695152
0.98659772
0.98690231
0.98688846
0.98691555
0.98706855
0.98703467
0.98713382
0.98717165
0.98707397
0.98837199
0.98795874
0.98738257
0.98719127
0.98701433
0.98661347
0.98681441
0.98667945
0.98633792
0.98664632
0.9864614
0.98628699
0.98650392
0.98641936
0.98631546
0.98646827
0.98650135
0.98636203
0.98672094
0.98634713
0.98680831
0.98653317
0.98686845
0.98672778
0.98694475
0.98676276
0.98689624
0.98789493
0.98773927
0.98696727
0.98669479
0.98676408
0.98633608
0.98623646
0.9864715
0.98614221
0.98605833
0.98638242
0.98600978
0.98614053
0.98627456
0.98606127
0.98627785
0.9862179
0.98630574
0.98627703
0.98647158
0.98625069
0.98658039
0.98635172
0.9866484
0.98653364
0.98667106
0.98657085
0.98741059
0.98726821
0.98672815
0.98623201
0.98632501
0.98619361
0.9858445
0.98609946
0.98605155
0.98574035
0.98600078
0.9860201
0.98571378
0.98607465
0.98599511
0.98586163
0.98623723
0.98592942
0.98622966
0.98614063
0.98623461
0.98628468
0.98626785
0.986384
0.9862814
0.98646502
0.98636494
0.98703044
0.98671047
0.98646804
0.98596152
0.98580541
0.98603477
0.98564844
0.98558522
0.98597325
0.98551972
0.98568021
0.98587979
0.98548066
0.98594095
0.98569101
0.98585606
0.98592206
0.98589101
0.98605556
0.98594199
0.98620514
0.98599856
0.98631862
0.98611424
0.98626036
0.98616506
0.98619668
0.98673638
0.98630861
0.98613099
0.98577187
0.98545499
0.98573029
0.98555982
0.98526147
0.9856974
0.98548
0.98529127
0.985773
0.9853597
0.98557245
0.98576201
0.98547153
0.9858957
0.98566466
0.98587705
0.98590122
0.98593769
0.9860701
0.98596278
0.98610846
0.98606155
0.98610316
0.98604162
0.98638599
0.98604261
0.98585433
0.9854109
0.9853494
0.98549443
0.98520414
0.98535144
0.98537187
0.98524761
0.98543333
0.98528485
0.98546034
0.98539077
0.98555152
0.9855043
0.98558534
0.9857027
0.9856046
0.98589314
0.98570686
0.98607481
0.98580962
0.986102
0.9859013
0.98602841
0.98596826
0.98604359
0.98581244
0.98544423
0.98531465
0.9851886
0.98507225
0.98527717
0.98511939
0.98512977
0.98532422
0.98514506
0.98532645
0.98535551
0.9852637
0.98557098
0.98539038
0.98556777
0.98565323
0.98552305
0.98584549
0.98565555
0.98590211
0.98582927
0.98593479
0.98597844
0.98592732
0.98597792
0.98575638
0.98559312
0.98533953
0.98506483
0.98504631
0.98512324
0.98494053
0.98512979
0.98512804
0.98505997
0.98528482
0.9851838
0.98531378
0.98529695
0.98545351
0.98545669
0.98550933
0.98570975
0.98546653
0.98594083
0.985543
0.98596754
0.98579341
0.9859594
0.9858986
0.98600126
0.986019
0.98541282
0.98537711
0.9852393
0.98496102
0.98510925
0.98502268
0.984918
0.98529212
0.9850379
0.98509914
0.98542253
0.98513992
0.98541218
0.98536513
0.98538102
0.98560061
0.98553697
0.98571648
0.9856593
0.98589656
0.98567549
0.98603587
0.98576622
0.98615782
0.98590098
0.98609916
0.98612845
0.98559347
0.98573139
0.98532887
0.9852359
0.98501715
0.98516113
0.98511308
0.98514072
0.98533494
0.98516734
0.98551663
0.98537259
0.98541866
0.98574623
0.98527598
0.98588426
0.98557748
0.98580392
0.98598553
0.98575537
0.98609718
0.98596218
0.98608095
0.98613041
0.98623627
0.98614341
0.98640749
0.98382659
0.98524322
0.98484533
0.98525984
0.98520675
0.98528465
0.98533249
0.98526111
0.9854525
0.98551902
0.985434
0.98568097
0.98570496
0.98570564
0.98583943
0.98587017
0.98590304
0.98597391
0.98621472
0.98600858
0.98634598
0.98620236
0.98623707
0.98644163
0.98641234
0.98642467
0.98664079
0.98702858
0.98355833
0.98574417
0.98515879
0.98561964
0.98561085
0.98543875
0.98558482
0.98574758
0.98559373
0.98579122
0.98592221
0.9858527
0.98603788
0.9861791
0.98616551
0.98619641
0.98634357
0.98645036
0.98633349
0.98669121
0.98652257
0.98659005
0.9868136
0.98666616
0.98682384
0.98696451
0.98855946
0.98828481
0.98788841
0.98686653
0.98650033
0.98618205
0.98583707
0.98613641
0.98590918
0.98586533
0.98630557
0.98596454
0.98628913
0.9863698
0.98639663
0.98670784
0.98639989
0.98700699
0.98664118
0.98691149
0.98705331
0.98698475
0.98703667
0.98720417
0.98718421
0.98722001
0.98740152
0.98457517
0.98648847
0.98671931
0.98639152
0.98617523
0.98613264
0.9861645
0.98617266
0.98611132
0.98638983
0.98649729
0.98640143
0.98671098
0.98667457
0.98690256
0.98694584
0.98699844
0.98737078
0.98717065
0.98748824
0.98752051
0.98763009
0.98757233
0.9878118
0.98775779
0.98777071
0.98795169
0.98233915
0.98460632
0.98562403
0.98570849
0.98598986
0.98618539
0.9863849
0.98637196
0.98675789
0.98680204
0.98693984
0.9871057
0.98708828
0.9875325
0.98724819
0.98766356
0.98765911
0.98776461
0.98798184
0.98789286
0.98835464
0.98818419
0.98837838
0.98841384
0.98850967
0.98847559
0.9886446
0.9853386
0.98648827
0.98699354
0.9866313
0.98682998
0.986864
0.98714269
0.9872865
0.98749813
0.98769767
0.98770735
0.98784325
0.98817078
0.9879974
0.98829221
0.98830361
0.98857833
0.98864898
0.98858073
0.98898113
0.98888229
0.9892564
0.98898935
0.98941581
0.98926411
0.98942731
0.98942229
0.98812137
0.98682351
0.98862078
0.98756712
0.98824286
0.98768932
0.98828088
0.98818118
0.9884621
0.98869171
0.98842806
0.98893287
0.98903151
0.98889288
0.98940176
0.98904212
0.9897149
0.98941433
0.98958737
0.98993853
0.98976578
0.99030181
0.98985692
0.9904757
0.99019804
0.99047015
0.99036593
0.98861414
0.98915165
0.98937102
0.98910691
0.98941687
0.98902534
0.9892853
0.9892046
0.98958478
0.98948693
0.98955552
0.98995795
0.98989857
0.99013337
0.99008664
0.99034844
0.99065645
0.9904958
0.99072166
0.99088435
0.99102223
0.99126353
0.99108247
0.99141762
0.99139321
0.99155777
0.99153127
0.99076798
0.99042316
0.99064085
0.99069842
0.99062223
0.99035268
0.99047041
0.99051302
0.99057934
0.99071383
0.99065875
0.99117913
0.99117098
0.99121113
0.99143665
0.99143568
0.99197581
0.99160827
0.99200296
0.99202229
0.99231456
0.99252076
0.99231689
0.99265798
0.99260285
0.99292339
0.99283819
0.99092357
0.99104223
0.99186746
0.99177616
0.99189123
0.99174298
0.99174398
0.99197699
0.99198227
0.99192844
0.99236706
0.99231013
0.99280186
0.99255816
0.99273677
0.99308209
0.99300873
0.99352769
0.99311273
0.99377156
0.99363642
0.99401923
0.99385431
0.99396093
0.99412051
0.99429672
0.99440753
0.99177061
0.99240445
0.99325785
0.99323843
0.99340833
0.99330618
0.99331675
0.99363681
0.9935558
0.99362858
0.9940007
0.99391916
0.99449037
0.99418719
0.99451551
0.99470374
0.9947536
0.99527296
0.9947931
0.9954829
0.99512083
0.99572689
0.99545128
0.9956579
0.99569382
0.99587899
0.99607166
0.99368035
0.99425523
0.9948897
0.99492645
0.99508044
0.99503265
0.9951323
0.99539967
0.99528736
0.99552993
0.99573075
0.99580084
0.99626504
0.99594904
0.99647175
0.9963262
0.99675534
0.99686188
0.9967011
0.99715478
0.99686454
0.99754831
0.99718567
0.99760652
0.99743102
0.99774764
0.9978178
0.99559193
0.99627839
0.99677283
0.99681479
0.99687447
0.99689674
0.99712803
0.99717424
0.9973613
0.99742732
0.9976195
0.99793964
0.99790047
0.99821482
0.9981477
0.99845211
0.99861401
0.99870866
0.99889035
0.99884339
0.99916803
0.99910987
0.99946431
0.99935788
0.99959829
0.99955786
0.99975172
0.99754875
0.99839831
0.99884241
0.99883538
0.99889511
0.99895767
0.99919691
0.99929227
0.9996159
0.99949977
0.99984723
0.99997631
1.0000975
1.0004525
1.0002129
1.0007072
1.000515
1.0010267
1.000973
1.0010657
1.0012516
1.0011127
1.0016723
1.0013764
1.0017646
1.0014555
1.0017256
0.9999259
1.0006039
1.0011815
1.0011389
1.0012692
1.0012349
1.001531
1.0016916
1.0018695
1.0018877
1.0021481
1.0022108
1.0026039
1.0025933
1.0026699
1.0027943
1.0028362
1.0032672
1.0031378
1.003392
1.0032826
1.0034315
1.0036456
1.0036276
1.0038046
1.0036894
1.0038013
1.0022817
1.0030811
1.0037251
1.0037725
1.0038851
1.0037817
1.0040043
1.0041109
1.0043258
1.0043732
1.0045238
1.004613
1.0048686
1.0049131
1.0050289
1.0051838
1.0051026
1.0054499
1.0052316
1.0056415
1.0055408
1.0057011
1.0057125
1.0056598
1.0059107
1.0058971
1.0060318
1.0051597
1.0057002
1.0063449
1.0064557
1.0065668
1.0064653
1.0065034
1.0065009
1.0066715
1.0068456
1.0069381
1.0069282
1.0071173
1.007023
1.0074145
1.0073698
1.0074339
1.0074741
1.0073338
1.0077402
1.0076277
1.0079192
1.0076958
1.0077773
1.007838
1.0079672
1.0080402
1.0078815
1.0082946
1.0087998
1.0090102
1.0090485
1.0089523
1.0088573
1.0088007
1.0088667
1.009086
1.0091153
1.0091607
1.0091967
1.0091067
1.009443
1.0093722
1.0095663
1.0094556
1.0094742
1.0095687
1.0095504
1.0097697
1.0096767
1.0098283
1.0097177
1.009805
1.0097835
1.010033
1.010483
1.0108969
1.0111241
1.0111633
1.0110443
1.0109174
1.0108226
1.010819
1.0109493
1.0109652
1.0111109
1.0110904
1.0110551
1.0111356
1.0110744
1.011309
1.0112417
1.0113681
1.0112349
1.0112179
1.0112954
1.0113361
1.0115037
1.0113902
1.0113906
1.0113132
1.0119769
1.0123892
1.0126861
1.0128082
1.0127799
1.0126577
1.0125833
1.0124789
1.0124371
1.0124246
1.0124141
1.0125711
1.0125797
1.0126266
1.0125432
1.012494
1.0126274
1.0126117
1.0127549
1.0125701
1.0125973
1.0125066
1.0126232
1.0126567
1.0126475
1.0125556
1.0124999
1.0129406
1.0135319
1.0138186
1.0138946
1.0137898
1.0136557
1.013623
1.0135437
1.0135447
1.0134761
1.0134424
1.0135214
1.0135378
1.0135993
1.0134982
1.0134465
1.0134681
1.0134754
1.0135754
1.0134521
1.0134527
1.0133157
1.0133614
1.0133593
1.0133909
1.013318
1.0132502
1.0134564
1.0141252
1.014426
1.0144335
1.0143019
1.0141427
1.0141156
1.0140729
1.0140842
1.0140387
1.0139797
1.0139952
1.0139949
1.0140259
1.0139869
1.0139333
1.0139147
1.0139005
1.0139176
1.0138531
1.013809
1.0137415
1.0137234
1.0137171
1.0136884
1.0136037
1.0135403
1.0133468
1.0141435
1.0144897
1.014493
1.0144259
1.0143037
1.0142488
1.0142028
1.0141936
1.0141869
1.0141993
1.0141729
1.0141335
1.0140973
1.0140835
1.0140543
1.0140988
1.0140524
1.0140391
1.0139051
1.0138489
1.0137929
1.0138186
1.0138001
1.0137365
1.0135857
1.0135066
1.0131842
1.01398
1.0143428
1.0143605
1.0143391
1.0142626
1.0141928
1.0140934
1.0140523
1.0140815
1.0140839
1.0141446
1.0140429
1.0140011
1.0139192
1.0139085
1.0139779
1.0139208
1.0139164
1.0137104
1.0137073
1.0136271
1.0137309
1.0136302
1.0135445
1.0133321
1.0132907
1.0131031
1.0137825
1.0141423
1.0141546
1.0141477
1.0140969
1.0140221
1.0139394
1.0137925
1.0138461
1.0137837
1.0139249
1.0137889
1.0137779
1.0136096
1.0136069
1.0136429
1.0135957
1.0136336
1.0133778
1.0134447
1.0132522
1.0134325
1.0132184
1.0132316
1.012972
1.0129924
1.0128261
1.0134172
1.0138108
1.0138486
1.0137648
1.0137553
1.013606
1.0136128
1.013401
1.0134954
1.013369
1.0135179
1.0133632
1.0133606
1.0132168
1.0131861
1.0132437
1.0131414
1.013207
1.0129148
1.0130236
1.0127778
1.0129816
1.0127458
1.0127852
1.0125368
1.0125334
1.0124302
1.0130137
1.0133995
1.0134929
1.0132713
1.0132985
1.0130598
1.0131851
1.0129453
1.0130659
1.0128819
1.0129597
1.0128969
1.0127945
1.0128675
1.0125943
1.0128597
1.0124684
1.0128025
1.0123191
1.0126141
1.0122495
1.0124546
1.0122388
1.0122217
1.0120863
1.0120284
1.01205
1.0126963
1.0130288
1.0131439
1.0128317
1.0127881
1.0125764
1.0126822
1.0125631
1.0125703
1.0124672
1.0123343
1.0124491
1.0121932
1.0125034
1.0120073
1.0124083
1.0118541
1.0122703
1.0118476
1.0120296
1.0118799
1.0117444
1.0118632
1.0115477
1.0116953
1.0114916
1.0118069
1.0123861
1.012659
1.0127403
1.0124929
1.0123277
1.012293
1.0121002
1.0123857
1.011923
1.0123039
1.0116801
1.0121122
1.0117629
1.0119463
1.0118891
1.0114886
1.0118752
1.0111852
1.0119482
1.0111644
1.0116783
1.0111141
1.0112661
1.0111911
1.0111378
1.0111365
1.0114049
1.0120461
1.0123675
1.0122323
1.0121825
1.0121371
1.0118734
1.0119951
1.0116764
1.0118302
1.0116579
1.0116751
1.0115573
1.0115063
1.0114633
1.0113437
1.0113381
1.0111087
1.0112405
1.0110016
1.0111706
1.0108334
1.0109635
1.0106663
1.0108413
1.0106817
1.0107202
1.010562
1.0117552
1.0120031
1.0118357
1.0119266
1.0118932
1.0116974
1.0116528
1.0114373
1.0112891
1.0116064
1.0112631
1.0115012
1.0110656
1.0110697
1.0110574
1.0108848
1.0111756
1.0105995
1.0110268
1.0103074
1.0108886
1.0103023
1.0107174
1.0102706
1.010388
1.0102234
1.0100832
1.0113877
1.0119564
1.0117462
1.0116267
1.0116547
1.0113744
1.011642
1.0111909
1.0113231
1.0111749
1.0111711
1.0112076
1.0109033
1.0110355
1.010591
1.0110194
1.0104805
1.0109337
1.0102409
1.0105411
1.0102015
1.0103711
1.0102705
1.0101128
1.0100264
1.0099261
1.01005
1.0112146
1.0116165
1.0118545
1.01156
1.0114099
1.0115424
1.0111069
1.0116141
1.0109621
1.0112616
1.010985
1.0108684
1.0112265
1.0104612
1.0111747
1.0101588
1.0108591