/*--------------------------------*- C++ -*----------------------------------*\
| =========                 |                                                 |
| \\      /  F ield         | OpenFOAM: The Open Source CFD Toolbox           |
|  \\    /   O peration     | Version:  2406                                  |
|   \\  /    A nd           | Website:  www.openfoam.com                      |
|    \\/     M anipulation  |                                                 |
\*---------------------------------------------------------------------------*/
FoamFile
{
    version     2.0;
    format      ascii;
    arch        "LSB;label=32;scalar=64";
    class       volVectorField;
    location    "22";
    object      U;
}
// * * * * * * * * * * * * * * * * * * * * * * * * * * * * * * * * * * * * * //

dimensions      [0 1 -1 0 0 0 0];

internalField   nonuniform List<vector> 
96472
(
(0.091612318 -0.00020282792 -3.0250288e-22)
(0.091103986 0.00018373459 4.0943569e-23)
(0.093446008 0.0012489694 -1.8707735e-22)
(0.091999962 0.002635169 -2.4167237e-22)
(0.09170384 0.0040022378 -2.5119311e-22)
(0.09228995 0.0048478803 -1.2792462e-21)
(0.092795652 0.0054509749 4.9254244e-22)
(0.092990275 0.0059223846 1.7505362e-21)
(0.092876915 0.0062738612 7.5453093e-22)
(0.092421171 0.0064772116 -2.6759578e-22)
(0.091663607 0.0064299556 8.6435027e-22)
(0.09076448 0.0061199492 3.173116e-21)
(0.089821167 0.0056372809 1.1510133e-21)
(0.089028056 0.0050590836 -1.1967248e-22)
(0.088462546 0.0045567618 -6.4837729e-24)
(0.087962955 0.0040803901 8.3914487e-24)
(0.087428978 0.0036374801 -5.2333638e-22)
(0.086842646 0.0032227927 -2.5184852e-21)
(0.086241585 0.0028341398 3.5488876e-21)
(0.085666539 0.0025149911 -3.845629e-21)
(0.085150544 0.0022418958 3.11547e-21)
(0.084644687 0.0020042579 -6.8016714e-22)
(0.084092095 0.0017729843 -1.2661951e-22)
(0.083494373 0.0015493828 -3.329953e-21)
(0.08286816 0.0012605111 6.8309166e-22)
(0.082229455 0.00096999817 3.9916964e-21)
(0.081593798 0.00064072408 -4.9288929e-21)
(0.081011305 0.00029508505 -7.9844301e-22)
(0.08048973 -0.0001062317 4.8673068e-21)
(0.079999737 -0.00053786559 3.346002e-21)
(0.079583959 -0.0010416958 -1.0145573e-21)
(0.079116947 -0.0015725188 5.6638199e-22)
(0.078854893 -0.0022650767 -2.8014397e-21)
(0.07832931 -0.0029361576 -5.4783945e-21)
(0.078332293 -0.0037969888 0)
(0.077893424 -0.0047032849 -1.2893693e-21)
(0.078006751 -0.0056520358 1.1945493e-21)
(0.077757169 -0.0067414907 -1.2421333e-21)
(0.077941502 -0.0078443981 -2.1573514e-21)
(0.077986659 -0.009204176 -1.6638571e-21)
(0.078186407 -0.010484862 8.6302055e-22)
(0.078341006 -0.012101567 -1.3897659e-21)
(0.078765262 -0.013605142 -5.1710908e-22)
(0.079128247 -0.015585465 -8.0732133e-22)
(0.079757281 -0.01736129 -7.1478522e-22)
(0.080185839 -0.019522227 3.4131744e-21)
(0.081148331 -0.0215874 1.3346193e-21)
(0.08166745 -0.023907974 -4.3287611e-21)
(0.082983834 -0.0260494 -2.1448087e-22)
(0.083679085 -0.028783857 -5.7492454e-22)
(0.085254005 -0.031108203 2.1653393e-21)
(0.085989921 -0.033706757 4.2359261e-22)
(0.087755084 -0.036012138 -7.8006788e-22)
(0.089088269 -0.038584837 -2.2246588e-21)
(0.090580628 -0.04221501 1.166423e-21)
(0.09247478 -5.3963433e-05 1.4799133e-22)
(0.09100179 0.00030020394 -2.0849505e-22)
(0.093293497 0.0012591154 0)
(0.09175984 0.0026383839 -4.3732483e-23)
(0.091435819 0.0039534931 8.8645429e-22)
(0.092131862 0.0047469073 -1.369641e-22)
(0.092825941 0.0053170243 -4.9348135e-23)
(0.093121467 0.0058049182 -1.5862338e-21)
(0.093064304 0.0061534393 7.6871619e-22)
(0.092695158 0.0063511077 0)
(0.092041289 0.0062991714 -2.3084747e-22)
(0.091158835 0.0060302526 2.8742331e-21)
(0.090197246 0.0055149511 1.4468881e-21)
(0.089372481 0.0048896567 1.0038788e-22)
(0.08877993 0.0043344125 -7.5282471e-24)
(0.088288505 0.0038350974 -5.271826e-22)
(0.087755462 0.0033800603 1.2085194e-22)
(0.08715995 0.0029929426 1.2191677e-22)
(0.08655055 0.0026697908 -1.1347904e-21)
(0.085979367 0.0023375873 0)
(0.085441891 0.0020766993 -4.018511e-21)
(0.084914727 0.001864995 2.8420908e-21)
(0.084355366 0.0016497822 6.2881553e-23)
(0.083734701 0.0014427534 -1.5962602e-23)
(0.083074181 0.0012228826 3.1839322e-21)
(0.082412262 0.00095838502 5.6451975e-22)
(0.081764705 0.00063574864 8.9210694e-22)
(0.081150313 0.00029592032 -5.6020449e-21)
(0.080623096 -0.00010020399 6.8892319e-21)
(0.080121151 -0.00050549825 2.4779521e-21)
(0.079749862 -0.0010089874 -2.3616789e-21)
(0.079351275 -0.0015080328 -1.6976147e-21)
(0.079113375 -0.0021030516 7.9782466e-21)
(0.078791972 -0.0027699816 -6.9138036e-22)
(0.078732426 -0.003488143 -1.6533801e-21)
(0.078517506 -0.0043436658 3.0563971e-21)
(0.078636733 -0.0051886662 1.1611415e-21)
(0.078543147 -0.006239215 -9.017777e-23)
(0.078849991 -0.0072495192 -1.0651498e-21)
(0.078907356 -0.0084976484 -3.9689e-21)
(0.079342178 -0.0097060155 1.038827e-21)
(0.079437519 -0.011127358 -8.490291e-23)
(0.079991072 -0.012564977 6.7676696e-23)
(0.080245596 -0.014257621 9.8413323e-22)
(0.080998372 -0.015857758 -2.1966119e-21)
(0.081345938 -0.017851641 -9.0940815e-22)
(0.082303935 -0.019663655 9.6951781e-22)
(0.082816879 -0.021872812 -7.6563044e-23)
(0.083936254 -0.023832 7.0730421e-23)
(0.084791612 -0.026203474 2.2836688e-22)
(0.085967569 -0.028389573 -7.0123448e-22)
(0.087275927 -0.030542521 -6.290372e-22)
(0.088223214 -0.033117481 6.1053001e-22)
(0.090146263 -0.034883661 3.2648952e-22)
(0.091203852 -0.038456392 -1.4699222e-24)
(0.092983217 2.943321e-05 -1.4256939e-25)
(0.091187092 0.00034387748 0)
(0.093400929 0.0012375573 -7.5155826e-22)
(0.091863064 0.002588215 0)
(0.09154902 0.0038905938 1.8032982e-21)
(0.092254073 0.0046764717 4.5626047e-24)
(0.09297797 0.0052563899 5.3847018e-23)
(0.093291248 0.005712614 -4.1087184e-24)
(0.093253737 0.0060421599 -8.5569299e-22)
(0.092914899 0.0062463022 3.9515098e-22)
(0.092304875 0.0061984417 -1.4732685e-22)
(0.091447008 0.0059042979 -2.9279732e-21)
(0.090470267 0.005351783 -1.1968374e-21)
(0.089605643 0.0046891252 -1.7809337e-21)
(0.088970629 0.0040627494 -2.043472e-22)
(0.088458558 0.0035727498 3.7163677e-22)
(0.087927123 0.0031200258 6.923481e-22)
(0.087333239 0.0027269385 -5.142633e-22)
(0.086730236 0.0024299615 0)
(0.086162876 0.0021543879 -2.3580409e-22)
(0.085623543 0.0019237133 9.4574849e-24)
(0.085095629 0.001709579 -5.8460982e-24)
(0.08453621 0.0015049225 3.2781662e-23)
(0.083910376 0.0012856527 -1.8294647e-22)
(0.083246853 0.0010459156 -3.1340625e-22)
(0.082568917 0.00075657702 -3.9396043e-21)
(0.081897865 0.00044804078 4.8649287e-21)
(0.081271456 0.00011243933 1.3922754e-21)
(0.080734544 -0.00025732916 -2.6388791e-21)
(0.080255124 -0.0006554551 -9.2503225e-22)
(0.079888659 -0.0011072247 -4.8890315e-24)
(0.079551169 -0.0015913051 -3.9770812e-21)
(0.079332887 -0.0021530633 -4.4023597e-22)
(0.079112066 -0.0027798406 1.123919e-21)
(0.079075113 -0.0034751196 -1.2099206e-21)
(0.078987369 -0.0042605251 3.3480377e-21)
(0.079141378 -0.0050776024 2.2141897e-21)
(0.079169788 -0.0060478883 2.3633728e-21)
(0.079592877 -0.0070070016 9.6415127e-23)
(0.079765813 -0.0081806102 -8.9541731e-23)
(0.080282187 -0.0092778917 5.1665709e-22)
(0.080554333 -0.010662946 2.8351192e-21)
(0.081271662 -0.011977684 0)
(0.081622462 -0.013535571 2.7639783e-21)
(0.08245703 -0.015065119 1.1296182e-21)
(0.082978901 -0.016840388 -2.2425919e-21)
(0.083858395 -0.018521862 -6.7596436e-22)
(0.084574102 -0.020429531 2.2301299e-26)
(0.085476896 -0.022425255 0)
(0.086597109 -0.024278903 -8.9563945e-25)
(0.087244991 -0.026424526 -6.0087311e-23)
(0.088879531 -0.028213025 -1.2414124e-22)
(0.089625431 -0.03085806 2.115352e-23)
(0.091523711 -0.03228717 2.0995976e-22)
(0.092292822 -0.035381544 1.8960929e-21)
(0.093354328 0.00012539027 1.4990368e-22)
(0.091402091 0.0003569226 -1.2780989e-23)
(0.093563404 0.0011687113 1.3194138e-24)
(0.092040149 0.0025093288 4.0141374e-23)
(0.091740909 0.0037811423 8.2149308e-23)
(0.092431111 0.0045441621 -1.2556459e-23)
(0.09313794 0.00510923 -5.0378032e-23)
(0.093429886 0.0055591541 1.7384287e-21)
(0.093398949 0.0058886151 -1.7422296e-23)
(0.093086923 0.0061061411 4.7229712e-22)
(0.09251795 0.0060556212 -5.665943e-24)
(0.091690705 0.0057572183 5.0389074e-24)
(0.090724035 0.00518689 -3.4819632e-21)
(0.089842001 0.0044584295 6.213932e-22)
(0.089171191 0.003784184 -1.9339984e-22)
(0.088644306 0.0032648345 4.5763863e-24)
(0.088126654 0.002838125 -8.8305125e-22)
(0.087544729 0.0024764839 1.0069851e-23)
(0.086940927 0.0021865138 1.6399749e-21)
(0.086370957 0.0019477014 0)
(0.085828388 0.0017442341 2.0917299e-21)
(0.08529356 0.0015723865 0)
(0.084732693 0.0013970396 4.8503757e-21)
(0.084107011 0.0012058778 5.0970219e-21)
(0.083439362 0.00097774289 -2.957314e-22)
(0.082763971 0.00071516086 -3.3859496e-21)
(0.082092574 0.00041600868 -3.8719922e-21)
(0.081465987 9.4380144e-05 4.5533294e-21)
(0.080926924 -0.00027328557 -6.3100976e-21)
(0.080453919 -0.00064837891 -5.1539281e-22)
(0.080090373 -0.0010840466 4.8887492e-23)
(0.079793362 -0.0015396829 2.8137456e-21)
(0.079590883 -0.0020647138 -5.2053168e-21)
(0.07943211 -0.002635155 -6.5487588e-21)
(0.079388298 -0.0032756612 6.2680581e-22)
(0.079391427 -0.0040070621 9.515923e-23)
(0.079528687 -0.0047553355 1.1617043e-21)
(0.079670745 -0.0056434442 5.1251507e-21)
(0.080052231 -0.006549915 -2.1898091e-21)
(0.08037631 -0.0076045204 2.8786668e-21)
(0.080907614 -0.0086673338 -9.9319972e-22)
(0.08130325 -0.009894805 1.2684383e-21)
(0.081932655 -0.011095697 1.0027796e-21)
(0.082560809 -0.012537989 -7.0493574e-22)
(0.083313633 -0.013998166 1.7379046e-21)
(0.084103731 -0.015513116 -8.6780616e-22)
(0.084882306 -0.01727176 3.5744253e-22)
(0.085980131 -0.018878925 9.2457539e-22)
(0.086626636 -0.020819217 2.0681954e-22)
(0.088006809 -0.022335046 -5.5195106e-23)
(0.088720831 -0.024662524 -2.5171463e-22)
(0.090448489 -0.026244806 5.5270538e-22)
(0.090987537 -0.028440184 -5.4956346e-22)
(0.092832751 -0.029888832 6.8448807e-23)
(0.09366457 -0.032593384 2.2666297e-22)
(0.093596255 0.00020048319 -4.7004577e-22)
(0.091578274 0.00034825363 0)
(0.093694999 0.0010823474 2.2734717e-21)
(0.092184749 0.0024112822 -7.3768312e-23)
(0.091905803 0.0036657701 0)
(0.092587039 0.0044159886 2.3442311e-21)
(0.09327329 0.0049781808 0)
(0.093547411 0.005415608 0)
(0.09351829 0.0057448107 1.2611576e-22)
(0.093228215 0.0059601949 3.7946037e-22)
(0.09270293 0.0059157112 -7.4182725e-23)
(0.091915286 0.0055886668 -3.876417e-21)
(0.090969052 0.004984273 1.2383267e-21)
(0.090076789 0.0042108415 2.1103859e-21)
(0.089378056 0.0035040892 -1.5330039e-22)
(0.088829992 0.0029257583 -6.7802692e-22)
(0.088306724 0.0025036467 2.1384254e-21)
(0.087734486 0.0021922071 3.1101573e-21)
(0.087132384 0.0019473294 -6.6157494e-22)
(0.086555179 0.0017409766 -2.3249563e-22)
(0.086007994 0.0015652633 -1.6907193e-21)
(0.085472275 0.0014261899 8.767993e-23)
(0.084915202 0.0012652461 -1.7695317e-23)
(0.084300292 0.0010800358 1.6666411e-22)
(0.083637163 0.00084426552 5.8764828e-22)
(0.082955544 0.0005807006 4.1817083e-22)
(0.082277328 0.00028409411 -4.1022043e-21)
(0.081650879 -4.0912613e-05 -3.2327952e-22)
(0.081105687 -0.00038705707 2.5053016e-21)
(0.080651819 -0.00076060018 0)
(0.080292503 -0.0011662594 -5.5710048e-22)
(0.080034199 -0.0016018507 5.073646e-23)
(0.079848737 -0.0020690338 3.8656514e-21)
(0.079759017 -0.0025994325 1.9482155e-21)
(0.079752398 -0.0032004089 7.184452e-22)
(0.079821541 -0.0038467545 1.2737953e-21)
(0.079967008 -0.0045789385 -1.5986964e-21)
(0.080215412 -0.005366968 -1.2444655e-21)
(0.080598502 -0.0062354621 -2.0841031e-22)
(0.081037427 -0.0071932249 -3.8947764e-21)
(0.081507616 -0.0081904431 -7.186051e-22)
(0.08210301 -0.0092482548 -1.3019402e-21)
(0.082688838 -0.01048036 1.2588983e-21)
(0.083474873 -0.011662784 -7.1607848e-22)
(0.08408856 -0.013069747 -4.1450794e-22)
(0.085160672 -0.014422431 -8.6055686e-22)
(0.085802054 -0.016056562 -2.385417e-22)
(0.087014345 -0.01737133 1.6299973e-21)
(0.087698504 -0.019269903 -2.8046509e-23)
(0.089202171 -0.020713527 2.8075573e-22)
(0.089872556 -0.022753497 -6.6996486e-23)
(0.091412996 -0.023972645 -6.139027e-22)
(0.092244512 -0.026181681 4.0256791e-22)
(0.094008988 -0.027690853 -5.8792486e-22)
(0.094963974 -0.03033613 4.5961593e-22)
(0.09378548 0.00028283069 0)
(0.09180373 0.00031344908 9.2884115e-24)
(0.093888998 0.00095791329 -1.282693e-21)
(0.092393653 0.0022737178 -3.7547023e-23)
(0.092129448 0.0035102396 -7.0900979e-23)
(0.092788847 0.0042484653 1.8362107e-21)
(0.093419894 0.0048036571 0)
(0.093664074 0.0052304053 8.4689455e-22)
(0.09362466 0.0055608461 1.2470361e-22)
(0.093347599 0.0057809048 7.133154e-24)
(0.092864944 0.0057367628 2.554212e-22)
(0.092124569 0.0054038018 -2.7287861e-21)
(0.0912075 0.0047777301 2.0611669e-21)
(0.090310199 0.0039642995 -1.7246412e-21)
(0.089588577 0.0031936968 8.7778904e-24)
(0.089016868 0.0026098359 1.9213982e-21)
(0.08847892 0.0021899987 1.0272172e-21)
(0.08790318 0.0018922896 -1.2614983e-21)
(0.087301248 0.0017141331 -2.537588e-22)
(0.086721507 0.0015495113 -1.3750099e-22)
(0.086166735 0.0014105678 1.2097761e-23)
(0.085629541 0.0012971718 8.8283434e-23)
(0.085078399 0.0011576326 -1.7186105e-21)
(0.08446881 0.00098745348 -2.0179024e-23)
(0.083811473 0.00077961383 -2.7040918e-22)
(0.08313675 0.00052197448 4.4771584e-22)
(0.082459432 0.00023541844 6.2669359e-21)
(0.081828133 -7.9133273e-05 -2.5131276e-21)
(0.081282473 -0.00041786822 2.4373952e-21)
(0.080829449 -0.00077227247 2.0529711e-21)
(0.080475867 -0.0011541702 2.1761973e-21)
(0.08023282 -0.0015652776 -5.0880056e-23)
(0.080072321 -0.0020140387 5.2554037e-23)
(0.080031629 -0.0025050112 4.4458995e-21)
(0.080027492 -0.0030531389 -7.3139055e-21)
(0.080185982 -0.0036489896 -3.0707281e-21)
(0.080324115 -0.004327335 1.0379717e-21)
(0.080658943 -0.0050248127 -3.4069572e-21)
(0.0810149 -0.0058807615 3.263967e-21)
(0.081586163 -0.0066722882 -2.4020704e-21)
(0.082046593 -0.0076975865 -1.6952128e-21)
(0.08275223 -0.0085628896 0)
(0.083274875 -0.0097560119 2.48279e-21)
(0.084202714 -0.010757404 -8.9256428e-23)
(0.084856569 -0.01219835 -1.2673445e-21)
(0.085923224 -0.013231837 6.4455445e-22)
(0.086585663 -0.014821421 -1.1422588e-21)
(0.087889023 -0.016044632 -6.7305354e-22)
(0.088601614 -0.017802497 -3.0763407e-23)
(0.090010673 -0.018978735 0)
(0.090734638 -0.020786965 -1.0358279e-21)
(0.092387172 -0.022139335 -6.5557333e-22)
(0.093322989 -0.024402368 -1.9103737e-22)
(0.095024362 -0.025280951 1.2638615e-22)
(0.09571861 -0.027657279 -1.1872326e-21)
(0.093908689 0.0003739591 0)
(0.092129192 0.00031473117 1.1892811e-21)
(0.094213234 0.0008533708 -4.095776e-24)
(0.092726925 0.0021597174 3.1478243e-23)
(0.092445842 0.0033807233 -7.4108178e-23)
(0.09304168 0.0040953646 9.9101936e-24)
(0.093567624 0.0046436638 -4.7715161e-24)
(0.093768831 0.0050488574 1.773113e-23)
(0.093710861 0.0053801443 -3.2742074e-23)
(0.093445066 0.0055966041 6.7041894e-23)
(0.093005369 0.005541195 5.9782674e-23)
(0.092317539 0.0051983189 3.4319998e-21)
(0.091440362 0.0045468705 -1.1297623e-21)
(0.090551249 0.003701173 -2.0011045e-21)
(0.089800587 0.0028746948 2.9338648e-26)
(0.089196428 0.0022841093 7.3269374e-22)
(0.088645059 0.0018823793 -1.8627639e-21)
(0.088059133 0.001609622 -1.212673e-21)
(0.087449214 0.0014582727 1.1500771e-22)
(0.086864888 0.0013482244 -1.8526332e-21)
(0.086308587 0.0012546156 3.2481845e-24)
(0.085774705 0.00116346 -1.5687402e-21)
(0.085231886 0.0010480525 -7.9186756e-24)
(0.084634705 0.00088729085 1.7294969e-21)
(0.083988845 0.00067463113 5.3286362e-22)
(0.083318801 0.00042190823 -2.9257294e-21)
(0.082640987 0.00013975424 -1.8230197e-22)
(0.08200935 -0.00017088501 -1.0496891e-21)
(0.081454315 -0.00049518428 -3.959089e-22)
(0.081003216 -0.00084267306 2.0474148e-21)
(0.080651778 -0.0011951323 -2.1239387e-21)
(0.080425464 -0.0015785703 2.7243242e-21)
(0.080279484 -0.0020081646 -5.3021367e-23)
(0.080264913 -0.0024457506 5.4686326e-23)
(0.080313385 -0.0029650517 -3.0293743e-21)
(0.080489868 -0.003480571 -4.8751437e-21)
(0.080671577 -0.004119521 8.7521499e-22)
(0.08106959 -0.0047543452 -6.5912857e-22)
(0.081440014 -0.0055386292 2.4088868e-21)
(0.082072405 -0.0063008021 6.8110364e-24)
(0.082549741 -0.0071742396 -1.8926949e-21)
(0.083325024 -0.007999742 -1.2743154e-21)
(0.083931165 -0.0091160933 1.4761208e-21)
(0.084882896 -0.01000091 3.8257235e-21)
(0.08550495 -0.011227361 -1.357098e-21)
(0.086668396 -0.012256988 -1.0296102e-21)
(0.087429988 -0.013750519 4.5587624e-22)
(0.088660357 -0.014746308 1.3307832e-21)
(0.089406885 -0.016322943 -6.7905723e-22)
(0.090805583 -0.017391729 2.7645358e-23)
(0.091683131 -0.019317336 1.4993087e-21)
(0.093334881 -0.020395366 -1.8393286e-21)
(0.093921921 -0.021986666 -7.3427061e-22)
(0.095621747 -0.023155 -3.6764536e-21)
(0.096857193 -0.025410751 -1.9958689e-22)
(0.094577634 0.00047795664 -1.4633297e-22)
(0.092862564 0.000312882 1.4139778e-21)
(0.094833979 0.00072878841 1.9094409e-21)
(0.09325545 0.0020192434 3.642227e-22)
(0.09281891 0.0032148688 -4.1734368e-22)
(0.093282113 0.0039046007 -5.6281862e-22)
(0.093678305 0.0044383254 3.8785931e-22)
(0.093834391 0.0048376476 6.0479746e-22)
(0.093769252 0.0051719711 -2.5399469e-23)
(0.093525057 0.0053848094 -7.3936963e-22)
(0.093132449 0.0053286651 1.0606661e-21)
(0.092503152 0.0049722271 2.1688148e-21)
(0.091668897 0.0043054042 -1.771814e-21)
(0.090791857 0.0034269382 -2.9667614e-22)
(0.090017948 0.0025754113 -2.2625577e-22)
(0.089374142 0.0019372213 2.4292742e-22)
(0.088797938 0.0015498297 0)
(0.088202138 0.0013276926 8.5530582e-22)
(0.087582502 0.0012122934 -1.987455e-21)
(0.086988026 0.001148497 -1.2134523e-22)
(0.086429661 0.0010911386 -3.3428263e-24)
(0.085899827 0.0010372509 9.8856288e-23)
(0.08536543 0.00094782439 -4.2591382e-24)
(0.084782415 0.00080549387 -3.1406123e-21)
(0.084150656 0.00060656505 2.6304291e-22)
(0.083493132 0.0003639471 2.5870877e-21)
(0.082821639 8.8741836e-05 -2.9531714e-21)
(0.082184702 -0.00021172401 -6.6784007e-22)
(0.081629871 -0.00052390175 -2.1615578e-21)
(0.081168453 -0.00086177683 -3.3060763e-21)
(0.080815602 -0.0012074273 -4.6390233e-23)
(0.080594596 -0.0015763631 -5.4452181e-22)
(0.08046678 -0.0019591364 2.6230784e-21)
(0.080468561 -0.0023672435 -5.470672e-23)
(0.080525429 -0.0028190892 1.8326303e-21)
(0.080747878 -0.0032995278 -5.2236379e-23)
(0.080960787 -0.0038888233 2.257464e-21)
(0.081369151 -0.0044352846 -1.4986709e-21)
(0.081793514 -0.0052135565 1.0159993e-21)
(0.082437493 -0.005803186 2.6682013e-21)
(0.08296841 -0.0067298163 -1.90505e-21)
(0.083792044 -0.0074231756 -1.4435473e-21)
(0.084385636 -0.0084018234 -2.7306862e-21)
(0.085362707 -0.009182326 1.4467036e-21)
(0.086139261 -0.010440299 1.2248302e-21)
(0.087270787 -0.011297338 1.567156e-21)
(0.088005338 -0.012556813 -8.0113067e-22)
(0.089278509 -0.013499867 -1.082949e-21)
(0.09011942 -0.015017022 1.4276505e-21)
(0.091606185 -0.016063108 -1.0951595e-22)
(0.09236386 -0.017528194 -2.9609751e-21)
(0.093748888 -0.018453656 1.3500109e-21)
(0.094918559 -0.020249983 -1.3231958e-21)
(0.096527369 -0.021450289 1.9202196e-22)
(0.097371158 -0.023315073 4.3436514e-22)
(0.096373604 0.00059057702 -1.4462167e-22)
(0.093883809 0.00035676788 -1.469586e-21)
(0.095496739 0.00064380948 -1.7916792e-21)
(0.093688533 0.0019153189 -8.114318e-22)
(0.092998407 0.00306751 -7.1775433e-23)
(0.093351265 0.0037235549 -1.707314e-22)
(0.093706906 0.0042404932 3.673551e-24)
(0.09386617 0.0046306537 4.4636462e-23)
(0.09381541 0.0049593553 1.8999854e-21)
(0.093598455 0.0051589405 -8.4751612e-22)
(0.093251866 0.0051038501 2.4164818e-21)
(0.092682176 0.0047389956 3.0515031e-22)
(0.091897158 0.0040656789 2.1167051e-22)
(0.09103599 0.0031610725 1.6726559e-21)
(0.090241164 0.0022812893 -1.6493643e-22)
(0.089554538 0.0016095326 0)
(0.08893929 0.0012200804 0)
(0.088324906 0.0010334745 0)
(0.087696721 0.00097590648 8.8852823e-22)
(0.087094396 0.00095844193 1.5996452e-21)
(0.086533629 0.00093524507 1.4048946e-21)
(0.086009341 0.00091779221 1.316259e-21)
(0.085486322 0.00084689153 -1.3579045e-21)
(0.084920422 0.00071175676 -1.2344938e-23)
(0.084306631 0.00052063009 -1.9484458e-21)
(0.083662877 0.00028426171 2.09324e-21)
(0.082997835 1.5937482e-05 5.2738082e-21)
(0.082360678 -0.00028166598 3.0529237e-22)
(0.081797787 -0.00058570356 -3.0347583e-21)
(0.081337937 -0.00090147733 -4.1407634e-21)
(0.080981527 -0.0012320099 9.1667373e-22)
(0.080752322 -0.0015669476 -3.8159821e-21)
(0.080628613 -0.0019261428 3.8480851e-21)
(0.080640779 -0.002280733 -3.7633077e-21)
(0.080740936 -0.0027124749 4.2235227e-21)
(0.080965069 -0.0031484395 1.592415e-21)
(0.081214638 -0.0036723015 -2.1798323e-21)
(0.081667427 -0.0041919223 2.7467598e-21)
(0.082082439 -0.0048509494 -4.5782274e-21)
(0.082785495 -0.0054603968 3.8873611e-21)
(0.083355986 -0.0062522928 1.5076645e-21)
(0.084133441 -0.0068230239 -3.5679761e-22)
(0.084851457 -0.0078144122 -1.0541639e-22)
(0.085874652 -0.0085460377 -6.8799427e-22)
(0.086600523 -0.0095616987 -4.4217577e-22)
(0.087725514 -0.010311154 -6.4945372e-22)
(0.088612853 -0.011587844 1.5015505e-21)
(0.08989162 -0.012457283 -5.7271657e-23)
(0.090760731 -0.013721697 -6.2939775e-22)
(0.092031719 -0.014570885 -3.2814733e-22)
(0.093018403 -0.015948 1.2599643e-21)
(0.094592504 -0.017028411 -5.9756785e-22)
(0.09546557 -0.01866368 -4.0296111e-22)
(0.09711625 -0.019312443 -4.8728604e-21)
(0.097994964 -0.020935771 -6.3865912e-22)
(0.098330315 0.0006079464 -2.0619306e-21)
(0.09460287 0.00023270002 -1.3872735e-21)
(0.096022849 0.00048616655 1.530688e-21)
(0.093991916 0.0017451637 -6.0760577e-22)
(0.093082381 0.0028662471 -9.4243957e-22)
(0.09334629 0.003509979 -1.1764366e-21)
(0.093695709 0.0040183851 3.7315802e-24)
(0.09387634 0.0043951647 2.4223036e-21)
(0.093850835 0.0047318859 -2.2539555e-21)
(0.093668085 0.0049271054 -3.5242729e-23)
(0.093368109 0.0048678882 -7.4058625e-22)
(0.092859266 0.0044945162 1.0037713e-21)
(0.092124731 0.0038104865 2.2024631e-21)
(0.091282046 0.0029006697 -2.4148755e-23)
(0.090467822 0.0019824002 -1.5190706e-22)
(0.089737229 0.001307912 -9.3734974e-23)
(0.08907805 0.00092899915 -8.8947496e-22)
(0.088434953 0.00075757494 -1.0064581e-21)
(0.08779192 0.00074341451 -1.0052335e-21)
(0.08718169 0.00077848148 1.7232334e-21)
(0.086617754 0.00079685257 0)
(0.086100904 0.00080373909 -1.054063e-22)
(0.085593486 0.00075472671 -1.3427948e-21)
(0.085046153 0.00063409894 1.3769869e-21)
(0.084451847 0.00045582508 -2.2192712e-23)
(0.083825078 0.00022845244 -7.1018522e-22)
(0.08317309 -3.2165507e-05 2.9211127e-22)
(0.082534589 -0.00031966304 -1.5662719e-22)
(0.081966564 -0.00061741188 1.9363142e-21)
(0.081493133 -0.00091374189 2.5997426e-21)
(0.081129981 -0.0012133674 8.184375e-23)
(0.08089944 -0.0015292929 -5.0337307e-21)
(0.080776648 -0.0018601456 8.1266407e-22)
(0.080796758 -0.0022071337 -6.033851e-21)
(0.080904622 -0.0025827058 1.6837484e-21)
(0.081150304 -0.0029739164 6.8272924e-21)
(0.081424777 -0.0034588127 2.866957e-21)
(0.081860986 -0.0038800649 8.1474455e-22)
(0.082352263 -0.0045305654 -2.7606549e-21)
(0.083026217 -0.0050446031 -1.537262e-21)
(0.083605614 -0.0057227142 1.4515198e-21)
(0.084482526 -0.0063638215 -1.1807567e-22)
(0.085193361 -0.0071893372 -5.1030995e-22)
(0.086142993 -0.0077337153 8.3055236e-22)
(0.087001007 -0.0087835735 1.3762536e-21)
(0.088186216 -0.009522429 -1.6085776e-21)
(0.089051938 -0.010598691 -8.4098699e-22)
(0.090237527 -0.011228417 1.4204672e-22)
(0.091206473 -0.012542586 -5.4431608e-22)
(0.092590093 -0.013193025 -5.191565e-22)
(0.093541857 -0.014790334 7.212764e-22)
(0.095066259 -0.015385801 3.0673881e-21)
(0.095937023 -0.016690333 -6.3332772e-22)
(0.097352129 -0.017533602 -5.3037285e-22)
(0.098689886 -0.019348071 -8.7643888e-22)
(0.098197173 0.00061689559 -2.8660917e-22)
(0.094655415 0.00018407496 2.2085896e-21)
(0.095996762 0.0003999272 1.1324313e-21)
(0.09393583 0.0016279044 7.4943868e-22)
(0.093045034 0.0027043802 -7.5199759e-23)
(0.093319674 0.0033191672 -8.9723891e-23)
(0.0936856 0.0038143216 1.3887857e-22)
(0.093885265 0.0041782443 2.4378387e-21)
(0.093878946 0.0044957709 -4.7536047e-21)
(0.09373105 0.0046778344 -8.5909286e-22)
(0.093477893 0.0046162106 -1.4168966e-21)
(0.093030554 0.0042415319 4.6876601e-22)
(0.092347161 0.0035622972 8.0759592e-22)
(0.091528972 0.0026426999 -3.0040831e-22)
(0.090695483 0.0017017085 -2.3243924e-22)
(0.089914547 0.0010088834 2.7672534e-22)
(0.089209537 0.00063645943 -2.4156712e-24)
(0.088534867 0.00049620606 -1.1109973e-21)
(0.087870365 0.00051281341 -6.6684116e-22)
(0.08724901 0.00059426061 1.0065784e-22)
(0.086685671 0.00065011632 1.5173308e-21)
(0.08617793 0.00067746986 -1.0443456e-22)
(0.085685883 0.00065343113 1.3280671e-21)
(0.085159028 0.00054795166 -9.5916483e-23)
(0.084586088 0.00037744035 1.5775962e-21)
(0.083977604 0.00015700378 0)
(0.083337705 -9.259858e-05 -2.8418875e-21)
(0.08270561 -0.00036627873 1.2511773e-21)
(0.082129413 -0.00064993522 -6.8914241e-22)
(0.081649212 -0.00094154346 7.1206001e-24)
(0.08127868 -0.0012351737 1.0185868e-21)
(0.081036898 -0.0015216554 3.6971339e-21)
(0.080914755 -0.0018299161 -3.0199914e-21)
(0.08092868 -0.0021371346 7.1960451e-21)
(0.081053794 -0.0024788471 -6.5732348e-21)
(0.081300175 -0.0028238284 6.8374231e-24)
(0.081584517 -0.0032236248 1.4761575e-21)
(0.082060396 -0.0036408079 2.9196928e-21)
(0.082537146 -0.0042019646 -1.2681913e-21)
(0.083227658 -0.0046367435 -1.4181227e-21)
(0.083891507 -0.0053523228 -2.0401519e-21)
(0.084691901 -0.0057982 2.768703e-21)
(0.08542473 -0.0065396028 0)
(0.086499628 -0.0071711151 1.7004374e-21)
(0.087358364 -0.008078405 2.3344637e-21)
(0.088440584 -0.0085751903 1.0404024e-21)
(0.089358469 -0.0096193121 -1.3886491e-21)
(0.0906894 -0.010292856 5.4114183e-22)
(0.091596198 -0.011453997 7.1731377e-22)
(0.092989016 -0.012048109 -3.4390668e-21)
(0.093975766 -0.013251767 1.5421175e-22)
(0.095234671 -0.013803004 3.4353949e-22)
(0.096519744 -0.015408956 0)
(0.098090054 -0.015968668 6.2910509e-22)
(0.098882143 -0.017468011 5.0756414e-22)
(0.098589822 0.00063791094 1.9885102e-21)
(0.094803787 8.6534576e-05 1.0285079e-23)
(0.096055233 0.00028210436 -9.3109023e-22)
(0.093918318 0.0014835231 -4.0988912e-22)
(0.093006459 0.0024976825 1.4177412e-21)
(0.093274211 0.0030996888 4.7939927e-21)
(0.093652776 0.0035889704 2.8656201e-21)
(0.093878431 0.0039489959 -2.7420588e-21)
(0.093898705 0.0042540121 1.5480466e-23)
(0.093787917 0.0044202169 -1.5927194e-21)
(0.093581121 0.0043590433 2.1955264e-22)
(0.093196333 0.0039866331 7.3731543e-24)
(0.092567512 0.0033124906 -1.8018002e-22)
(0.091777326 0.0023964889 -1.1390636e-22)
(0.090930676 0.0014611103 8.7030165e-23)
(0.090099621 0.00074221135 6.1249882e-22)
(0.089337537 0.00036410767 9.5780142e-22)
(0.088623085 0.00025351877 1.080911e-21)
(0.087935021 0.00030322462 1.4439884e-22)
(0.087299472 0.000422755 -1.6811635e-21)
(0.086735102 0.00051300627 -1.1161123e-23)
(0.086237517 0.00056338258 -1.5892898e-21)
(0.085762848 0.0005593956 2.9121802e-24)
(0.08525862 0.00046857687 -1.44252e-21)
(0.084710249 0.0003101292 0)
(0.084122536 0.00010320727 1.6983761e-22)
(0.083498992 -0.00013524949 -2.0422095e-23)
(0.082871024 -0.00039581502 3.2749527e-22)
(0.082296876 -0.00066125899 -7.7357387e-22)
(0.081806716 -0.00093487162 -8.6217568e-22)
(0.081419764 -0.0012126589 -9.1378848e-22)
(0.081167302 -0.0014881779 1.7083614e-21)
(0.081034294 -0.0017595615 -1.2398864e-21)
(0.081046657 -0.0020305571 5.0684654e-21)
(0.081168155 -0.0023239549 -1.8317839e-21)
(0.081410165 -0.0026223755 7.0835635e-22)
(0.081721892 -0.0030163292 -3.0710365e-21)
(0.082180797 -0.0033602738 -8.6495623e-22)
(0.08269336 -0.0038545976 2.2968231e-21)
(0.083391264 -0.0042957821 -6.5376895e-22)
(0.084016925 -0.0048421383 -1.8533296e-21)
(0.084870317 -0.0052910295 -1.2813001e-21)
(0.085687804 -0.006049372 -1.3132957e-22)
(0.086659996 -0.0064842338 -8.1897849e-22)
(0.087513341 -0.0072130068 -7.2238973e-22)
(0.088716464 -0.0078599452 9.1612801e-22)
(0.089695978 -0.0087872691 1.3396466e-21)
(0.090902979 -0.0093649672 0)
(0.091877067 -0.010156243 -2.4131069e-22)
(0.093154286 -0.010927151 6.1354283e-25)
(0.094254761 -0.011941831 -1.3706114e-21)
(0.095837075 -0.012712124 -3.7026111e-22)
(0.096667177 -0.013809209 -2.931517e-22)
(0.098134528 -0.014272326 3.4321407e-21)
(0.099413385 -0.015574439 2.9611291e-23)
(0.096525214 0.00066733728 1.4064176e-22)
(0.094086249 0.00010285699 1.3402734e-22)
(0.095412683 0.00023115326 -2.3930249e-23)
(0.093426277 0.0013932602 6.6355738e-23)
(0.092767712 0.0023528726 -1.4092484e-21)
(0.09317762 0.0029002763 2.480107e-21)
(0.093614016 0.0033794508 -6.8997304e-23)
(0.093872025 0.0037233432 -2.9195261e-21)
(0.093915944 0.0040110163 2.2192155e-21)
(0.093841328 0.0041629994 4.2531457e-22)
(0.093679703 0.0040992491 -4.4493756e-22)
(0.093356023 0.0037280454 1.4796783e-22)
(0.092780779 0.003062536 4.6499849e-22)
(0.092017086 0.0021624423 3.0918324e-22)
(0.091162021 0.0012216281 -2.5689817e-23)
(0.090284175 0.00049829642 -3.073358e-22)
(0.089461969 0.00011441914 0)
(0.088701837 1.6622043e-05 1.0959574e-21)
(0.087984358 9.7724012e-05 3.6815653e-21)
(0.087334302 0.00025421507 2.3330521e-21)
(0.086768854 0.00037127224 -2.0706652e-21)
(0.086280785 0.00044020179 -9.465866e-23)
(0.085824985 0.00045488594 -3.2698233e-24)
(0.085342448 0.00037318332 -9.6824556e-23)
(0.084815449 0.00022818183 -1.908312e-22)
(0.08424983 3.2546776e-05 0)
(0.083644981 -0.00019758574 1.4715871e-21)
(0.083027279 -0.0004428645 2.3425187e-22)
(0.08244841 -0.00070038261 4.797583e-21)
(0.081957158 -0.00094764004 2.568007e-21)
(0.081564965 -0.0012015173 -2.5722554e-21)
(0.081290319 -0.001441639 -4.6600609e-23)
(0.081141792 -0.0016913479 -2.1768858e-21)
(0.081138712 -0.0019375902 -7.208987e-24)
(0.081267268 -0.0021952042 -1.416886e-21)
(0.081518235 -0.0024696642 -1.4340129e-21)
(0.081820182 -0.0028032947 4.2359852e-21)
(0.082283665 -0.003098828 -1.2948069e-22)
(0.082808202 -0.0035594597 -4.0357431e-22)
(0.083484469 -0.0038869836 0)
(0.084172449 -0.0044365028 2.1661793e-21)
(0.08501224 -0.0048430495 -1.6466033e-21)
(0.085775824 -0.0054175358 1.8817486e-21)
(0.086787859 -0.0058331964 -1.0138648e-21)
(0.087777433 -0.0066604485 -7.4354768e-22)
(0.088886659 -0.0071120743 -1.59e-21)
(0.089847172 -0.0078600458 -1.506838e-21)
(0.091006178 -0.008267491 9.9573088e-22)