/*--------------------------------*- C++ -*----------------------------------*\
| =========                 |                                                 |
| \\      /  F ield         | OpenFOAM: The Open Source CFD Toolbox           |
|  \\    /   O peration     | Version:  2406                                  |
|   \\  /    A nd           | Website:  www.openfoam.com                      |
|    \\/     M anipulation  |                                                 |
\*---------------------------------------------------------------------------*/
FoamFile
{
    version     2.0;
    format      ascii;
    arch        "LSB;label=32;scalar=64";
    class       volVectorField;
    location    "22";
    object      U;
}
// * * * * * * * * * * * * * * * * * * * * * * * * * * * * * * * * * * * * * //

dimensions      [0 1 -1 0 0 0 0];

internalField   nonuniform List<vector> 
62344
(
(0.096148902 0.0014142776 -1.3056242e-21)
(0.08259944 0.0013138955 -6.7892164e-22)
(0.083864955 0.002984063 -1.4100068e-21)
(0.080819433 0.0049001274 7.3879368e-22)
(0.084543011 0.005816096 0)
(0.087926475 0.005144881 3.1860586e-21)
(0.089273362 0.0057898241 -3.2997616e-21)
(0.088802321 0.0050792621 1.7193883e-21)
(0.087829011 0.0085450476 0)
(0.086865134 0.0074875304 0)
(0.083695934 0.0050963044 7.7791262e-21)
(0.078531657 0.010751807 -1.6716065e-20)
(0.070421745 0.019025542 5.0705497e-22)
(0.064536538 0.018996924 1.8056564e-20)
(0.062436536 0.014337441 -9.1310191e-21)
(0.059079918 0.017201173 8.8797259e-21)
(0.059395176 0.018555512 -9.8480151e-21)
(0.059882291 0.016520438 0)
(0.055540535 0.017257067 0)
(0.055698275 0.023345434 -6.910438e-22)
(0.058768709 0.024658836 -3.5862379e-22)
(0.055315271 0.02313636 3.7317559e-22)
(0.05251629 0.023197284 7.7666302e-22)
(0.056803097 0.022544897 -2.5808257e-20)
(0.059391384 0.024669179 2.7031752e-20)
(0.056932997 0.027166595 0)
(0.056046263 0.022476431 0)
(0.057424477 0.014778782 -2.3709262e-22)
(0.060050966 0.012157737 -3.1354418e-20)
(0.063761726 0.012681302 3.2928048e-20)
(0.059483871 0.016305317 3.4715067e-20)
(0.046961413 0.02531822 -3.5219082e-20)
(0.044498433 0.029849012 -2.875522e-22)
(0.062646053 0.019547744 3.7332738e-20)
(0.085284179 -0.00081234828 -3.9740351e-20)
(0.085566932 -0.0095340134 -3.1995297e-22)
(0.060550638 0.0055853551 -4.4223469e-20)
(0.030852913 0.032194021 8.881706e-20)
(0.018933582 0.04529351 -9.1993313e-20)
(0.035284532 0.02927959 2.0817748e-21)
(0.071778317 -0.0099459611 2.7373895e-21)
(0.10114155 -0.045982584 1.014013e-19)
(0.10048124 -0.050149603 -5.1421874e-20)
(0.077985166 -0.032036294 0)
(0.054805658 -0.0095960068 -5.8234488e-20)
(0.045876562 0.005537028 1.1850094e-19)
(0.059015095 0.0044205035 -1.7494488e-21)
(0.087501904 -0.013375286 -1.2537877e-19)
(0.11597393 -0.039363563 6.5900776e-20)
(0.12822476 -0.060592056 0)
(0.11848983 -0.072263564 0)
(0.094371856 -0.073396408 7.3908946e-20)
(0.071192992 -0.0707507 -7.4830206e-20)
(0.065859198 -0.06549983 -1.5441535e-22)
(0.08181462 -0.059806327 -8.0035193e-20)
(0.096292443 0.0010846062 -6.8875029e-22)
(0.082873433 0.0012945141 7.1810356e-22)
(0.083861069 0.0013013259 2.2373263e-21)
(0.080639126 0.0029246741 -2.328873e-21)
(0.084260427 0.0051224477 0)
(0.087903085 0.0042267916 3.3566824e-21)
(0.089426108 0.0041196538 -4.3572822e-21)
(0.088519182 0.0042234566 -4.548004e-21)
(0.087613561 0.0072168411 4.7185277e-21)
(0.087505132 0.0062771611 0)
(0.084386005 0.0065266181 0)
(0.077781229 0.0079542271 5.3341591e-22)
(0.07026341 0.015051899 -5.5896374e-22)
(0.065750435 0.013649461 8.107756e-21)
(0.062559917 0.012767428 -9.6333669e-21)
(0.05882432 0.017517349 0)
(0.059796977 0.014457235 0)
(0.060572549 0.013862579 0)
(0.055542482 0.014767643 1.1241988e-20)
(0.054160684 0.016151512 3.0962273e-22)
(0.058264058 0.018532604 -5.3860146e-23)
(0.056198835 0.02014976 -3.8402196e-20)
(0.052429792 0.020354938 2.5766562e-20)
(0.055325962 0.019023168 0)
(0.057906071 0.021079682 2.8564999e-20)
(0.057531368 0.023751223 -3.8552338e-23)
(0.058781061 0.020976772 -6.1491738e-20)
(0.059320821 0.017384777 3.2270914e-20)
(0.059342578 0.016605409 -2.6025963e-22)
(0.061958576 0.016878671 -3.478318e-20)
(0.058342418 0.019959471 3.5873419e-20)
(0.045965227 0.025434399 2.9296614e-22)
(0.042550841 0.024811742 -3.824318e-20)
(0.059514345 0.014046961 8.0422599e-20)
(0.080177982 0.0037816929 -4.2352336e-20)
(0.079095691 0.0088171792 3.3465802e-22)
(0.055180932 0.026930479 0)
(0.028798876 0.043361754 0)
(0.022786408 0.040130806 1.912522e-22)
(0.042803175 0.015752006 4.945517e-20)
(0.07406626 -0.015020482 -1.0487023e-19)
(0.093487886 -0.029148984 5.4700721e-20)
(0.089592724 -0.021234035 5.6199262e-20)
(0.071393506 -0.0066043266 -1.1543964e-19)
(0.050686531 0.0046088043 5.9825974e-20)
(0.042099074 0.0058879568 0)
(0.055044945 -0.0065654384 0)
(0.086288047 -0.028318435 0)
(0.12094337 -0.048804712 1.3244164e-22)
(0.14335502 -0.060847799 -1.3589476e-22)
(0.14568614 -0.06502652 0)
(0.12933042 -0.062901117 1.7138975e-24)
(0.098884485 -0.058257567 -1.5333052e-22)
(0.068745338 -0.049323537 2.4047803e-22)
(0.051990957 -0.040915451 -8.5659873e-23)
(0.096004686 0.0007293981 7.2686241e-22)
(0.082688721 0.0018434981 -7.5799435e-22)
(0.083477146 0.0025935627 -7.8727042e-22)
(0.080054168 0.0039066869 8.1825067e-22)
(0.084160055 0.0038573545 -8.5074439e-22)
(0.087963776 0.0021615839 8.8575049e-22)
(0.089243111 0.0015735508 1.8409765e-21)
(0.088101525 0.004749504 0)
(0.087232401 0.0052301236 3.0065003e-21)
(0.087091808 0.0061236525 -4.6809996e-21)
(0.084278801 0.0095527056 0)
(0.077254739 0.0090903702 -5.6515068e-22)
(0.069750032 0.012532158 -2.0181915e-25)
(0.065731471 0.012559661 5.7105285e-26)
(0.061347681 0.014542274 1.0169659e-20)
(0.058521487 0.016765039 -9.8988576e-21)
(0.060484227 0.013877208 0)
(0.060710592 0.014961316 0)
(0.056042227 0.018175286 0)
(0.053823047 0.015510368 0)
(0.056868488 0.015152382 0)
(0.055798008 0.021244105 1.3793784e-20)
(0.053450051 0.023100423 -1.3862838e-20)
(0.055591888 0.018603932 -4.516689e-22)
(0.056896353 0.017661601 4.6897227e-22)
(0.057119777 0.019844621 0)
(0.059382034 0.019762722 0)
(0.060300436 0.020224195 2.6352654e-22)
(0.06010136 0.020217048 2.7293891e-22)
(0.062455329 0.018571401 0)
(0.059245887 0.020499826 0)
(0.048586883 0.023446273 -4.0005953e-20)
(0.046621572 0.018537945 8.1361761e-20)
(0.062366757 0.0040984631 -4.2971885e-20)
(0.080444819 -0.0065346552 -1.7180658e-22)
(0.076141712 2.8955441e-06 4.6764168e-20)
(0.050650476 0.021181131 -4.693348e-20)
(0.026481664 0.039086388 0)
(0.024144619 0.037500456 -1.3208492e-24)
(0.044901788 0.015797322 0)
(0.071817639 -0.0082421746 5.4850432e-20)
(0.082445306 -0.014489045 -5.7135282e-20)
(0.073906576 -0.0019176403 -5.9850864e-20)
(0.057535239 0.013659032 6.0406387e-20)
(0.042786054 0.019967484 9.7635418e-25)
(0.038963108 0.010617696 0)
(0.0531923 -0.012135752 0)
(0.080462413 -0.037005123 -1.3659793e-22)
(0.10891149 -0.051818575 -7.108355e-20)
(0.13026812 -0.055009319 7.4154343e-20)
(0.14072835 -0.051041855 0)
(0.13673428 -0.042514714 8.0462058e-20)
(0.11899741 -0.034476155 -8.0944895e-20)
(0.091342594 -0.027325366 8.915256e-20)
(0.065163639 -0.024961615 -8.8922353e-20)
(0.095978319 0.00052567439 -3.8223868e-22)
(0.082550722 0.0026451983 -1.2004598e-21)
(0.083501657 0.0041335308 2.4900271e-21)
(0.080173097 0.0038880806 -1.7309348e-21)
(0.08439507 0.0012317834 -2.686847e-21)
(0.0882597 0.00084031197 2.8111254e-21)
(0.088688404 0.0008453187 -4.8731871e-21)
(0.087573399 0.0056910412 8.0785333e-21)
(0.087308292 0.0044447372 -4.7304381e-21)
(0.086630129 0.0059089694 1.0978887e-21)
(0.084340272 0.0094146787 5.7338323e-22)
(0.0778266 0.0091679284 9.5723166e-21)
(0.070173205 0.0086280778 -8.6815379e-21)
(0.0659139 0.0099079792 1.0989072e-20)
(0.061622602 0.012952801 1.2442206e-23)
(0.058847595 0.0094645605 -2.2971164e-20)
(0.060187472 0.0086037291 1.1259864e-20)
(0.059671258 0.012263139 -3.7700748e-22)
(0.056081445 0.017508606 1.2511008e-20)
(0.054885911 0.013543519 -1.263132e-20)
(0.055759242 0.010802691 0)
(0.053379481 0.018981389 0)
(0.053608951 0.023391792 -1.4167602e-20)
(0.057061422 0.018231168 1.5766429e-20)
(0.056911045 0.01490188 1.5358763e-20)
(0.055930982 0.015798609 -1.641127e-20)
(0.057627087 0.016923269 -1.7141519e-20)
(0.058747321 0.019444253 1.7577491e-20)
(0.059570213 0.020566339 0)
(0.061889146 0.01981443 0)
(0.059049363 0.022561111 0)
(0.050123948 0.025235126 0)
(0.049396296 0.019419105 0)
(0.063474098 0.0048092328 0)
(0.076902646 -0.0041451981 1.8032629e-22)
(0.069194389 0.0056979624 -4.938615e-20)
(0.044366963 0.026164496 4.9820034e-20)
(0.023233854 0.041064295 2.0624823e-22)
(0.026608547 0.036300294 -4.2882959e-22)
(0.050458905 0.014701577 5.5488344e-20)
(0.073105924 -0.0041481387 -5.9031533e-20)
(0.076464588 -0.0041801334 6.041852e-20)
(0.065740337 0.0090535267 -6.1581645e-20)
(0.053126531 0.020419309 6.5332118e-20)
(0.045841941 0.018563295 -1.3348798e-19)
(0.047617609 0.0010320055 1.0887445e-21)
(0.058054762 -0.022870484 1.7924607e-21)
(0.073544177 -0.040875916 1.6271605e-21)
(0.09002185 -0.047050888 9.9551663e-22)
(0.10448366 -0.044186038 5.1724379e-22)
(0.1148432 -0.035301872 8.1684303e-20)
(0.11788118 -0.023248914 0)
(0.112453 -0.011255612 8.8937112e-20)
(0.10039031 -0.004143666 2.9292273e-21)
(0.080487767 -0.003405886 -9.4012383e-20)
(0.09571492 0.00062900868 8.0907308e-22)
(0.082143423 0.0029775941 8.427675e-22)
(0.083372181 0.0045717019 8.7751401e-22)
(0.080494371 0.0033825669 0)
(0.084513232 0.00069090882 0)
(0.088000057 0.0024899516 0)
(0.088080737 0.0034000809 -5.1482999e-22)
(0.087136304 0.0062804225 4.2805362e-21)
(0.086997696 0.0049703307 -3.8850419e-21)
(0.085873993 0.0059535246 -5.7935291e-22)
(0.08415694 0.00774491 -4.84328e-21)
(0.07865479 0.009785755 5.0278087e-21)
(0.070704869 0.007529752 -1.1146274e-20)
(0.065113798 0.010625788 1.0915057e-20)
(0.062139776 0.015855345 0)
(0.059837136 0.0099020866 0)
(0.059329456 0.0090180928 7.6474072e-22)
(0.058048982 0.013832093 3.9661765e-22)
(0.05592819 0.019008307 -1.3185118e-20)
(0.056422783 0.015604643 1.3358849e-20)
(0.055397671 0.013006602 0)
(0.051582312 0.019021228 0)
(0.053221387 0.022371486 -4.8319796e-22)
(0.058313877 0.018707932 0)
(0.057824061 0.015983984 -1.646701e-20)
(0.055820506 0.016060804 1.7341372e-20)
(0.057049559 0.016169769 0)
(0.05802141 0.0165467 0)
(0.059172649 0.016211353 0)
(0.06155726 0.016004834 0)
(0.059362119 0.020488809 0)
(0.052626911 0.024377834 0)
(0.054050978 0.017967758 -1.7836516e-22)
(0.067061479 0.003819566 -1.8474591e-22)
(0.076133866 -0.0026061931 0)
(0.065263229 0.0078063533 -1.9968797e-22)
(0.040547773 0.026129986 2.7210484e-20)
(0.022500877 0.035124098 -2.7815735e-20)
(0.027189086 0.026434317 2.26903e-22)
(0.050084883 0.0084699592 2.3224587e-22)
(0.067923691 -0.0012151863 0)
(0.066730578 0.0046095938 2.4601965e-22)
(0.056408946 0.016575948 -8.670891e-25)
(0.051573021 0.020931379 6.8111185e-20)
(0.054723674 0.011409749 -8.6360159e-22)
(0.061419159 -0.0081111398 -7.3575618e-20)
(0.06610455 -0.026801765 -1.4889671e-22)
(0.069146637 -0.036714792 0)
(0.07412918 -0.037725623 -1.5969142e-22)
(0.080436153 -0.030973332 -1.6634336e-22)
(0.086560859 -0.019631831 8.7281799e-20)
(0.090418149 -0.0056905225 -8.9748415e-20)
(0.092966181 0.0064821434 9.0480254e-23)
(0.093875987 0.012614581 2.3959283e-25)
(0.089125746 0.011490102 -9.8631744e-23)
(0.095589272 0.00066453601 0)
(0.081911038 0.0024800884 0)
(0.083361919 0.0033378709 -9.2590286e-22)
(0.080819494 0.0022280633 0)
(0.084421913 0.0013789493 1.9999731e-21)
(0.08765825 0.004540959 -1.5601571e-21)
(0.08795218 0.0052979235 5.4205735e-22)
(0.087192373 0.0056406845 0)
(0.087166585 0.005180225 5.8744384e-22)
(0.085923396 0.0046322858 0)
(0.083616166 0.0051998092 -6.3760083e-22)
(0.078952513 0.0081388971 -4.6622982e-21)
(0.070939287 0.0064651198 1.1065537e-20)
(0.064184698 0.010137108 -5.7433078e-21)
(0.062254285 0.01503011 0)
(0.060917926 0.012086773 0)
(0.059032618 0.010168681 9.7247207e-25)
(0.056962916 0.014477687 -4.1962859e-22)
(0.055932475 0.017818621 0)
(0.057431204 0.016505397 0)
(0.055246008 0.016447263 4.7094396e-22)
(0.050260315 0.01992892 1.5188977e-20)
(0.052580693 0.019426925 -3.2905878e-20)
(0.058591397 0.016941204 1.735763e-20)
(0.058291553 0.017076307 1.7359781e-20)
(0.055891545 0.017980521 -1.8286412e-20)
(0.057193633 0.017490094 -1.9066448e-20)
(0.058374546 0.016231743 1.9901828e-20)
(0.058863249 0.012626227 -2.0642057e-20)
(0.059630348 0.011491334 4.2936691e-20)
(0.056761219 0.017772158 -2.2607632e-20)
(0.052449733 0.023748627 1.8155635e-22)
(0.056393716 0.017859793 3.7697177e-22)
(0.068018933 0.0057295423 3.9030758e-22)
(0.073476787 0.0029279355 0)
(0.060991295 0.015674816 -2.7232832e-20)
(0.039333552 0.031881405 5.6389025e-20)
(0.026190471 0.034778591 -2.9243746e-20)
(0.032035303 0.020939202 -2.3754852e-22)
(0.050367665 0.0035560642 -2.458923e-22)
(0.063457666 -0.00090486324 0)
(0.060052069 0.0073289244 -3.3830431e-20)
(0.050970085 0.01764399 -2.5905198e-22)
(0.050951171 0.016925405 3.588362e-20)
(0.060764797 0.0041484268 0)
(0.071533394 -0.013609573 0)
(0.073737756 -0.02627847 -3.9982198e-20)
(0.069626451 -0.031398118 4.1211594e-20)
(0.065221769 -0.030273349 -1.7143649e-24)
(0.062803983 -0.022429787 8.9341124e-20)
(0.062575624 -0.0097104138 -1.8508114e-19)
(0.064500612 0.0051412581 1.9158704e-19)
(0.070184636 0.016041459 -9.9112303e-20)
(0.080299035 0.019491599 -9.9566539e-23)
(0.088221872 0.017652486 1.021942e-22)
(0.095406244 0.00068880034 4.526869e-22)
(0.08170774 0.0017510764 -4.6712444e-22)
(0.083405072 0.0016796029 -1.9504772e-21)
(0.080896171 0.0017436209 2.0318441e-21)
(0.083900264 0.00356729 2.6364832e-21)
(0.087049018 0.0054589495 -5.4942219e-21)
(0.087890307 0.0057277207 1.7100256e-21)
(0.087267335 0.00488745 -5.9389579e-22)
(0.087510615 0.0053694192 -6.1841739e-22)
(0.08602057 0.0037589047 -5.1657573e-21)
(0.083472948 0.0045095786 5.3718445e-21)
(0.079141783 0.0073866156 0)
(0.070859152 0.0076451002 0)
(0.063344636 0.010573174 -3.8002276e-22)
(0.061603818 0.012865437 -3.9535001e-22)
(0.061586636 0.014667776 6.5479872e-21)
(0.059145341 0.012958292 -2.0876098e-20)
(0.056164114 0.014515778 1.5056148e-20)
(0.055406494 0.0159768 -1.4670503e-20)
(0.057232639 0.01727213 3.0546774e-20)
(0.055384549 0.020167879 -4.0270275e-22)
(0.05092559 0.021578075 -3.27697e-20)
(0.052835459 0.016825409 1.7834192e-20)
(0.058143506 0.014463336 1.7918647e-20)
(0.057797128 0.017270345 -1.8548394e-20)
(0.055711754 0.019421873 0)
(0.057438439 0.019413575 -2.0103516e-20)
(0.059814437 0.018220504 2.1007029e-20)
(0.060751975 0.011891007 3.4056161e-22)
(0.05922147 0.0080633537 3.5366622e-22)
(0.054699392 0.014432172 5.521807e-22)
(0.052209358 0.019950528 -1.9182623e-22)
(0.058897272 0.013839944 -3.9754824e-22)
(0.069944441 0.0023517178 -2.0655412e-22)
(0.071332804 0.0019263952 0)
(0.057554368 0.017112837 0)
(0.038783258 0.032425185 -3.0047464e-20)
(0.030775227 0.032443437 6.2048507e-20)
(0.037569948 0.01668447 -3.1939064e-20)
(0.050471786 -0.00012190559 -1.298066e-22)
(0.056832467 -0.0020953818 0)
(0.051706399 0.0091470431 0)
(0.045440353 0.018304499 -3.6933118e-20)
(0.049662801 0.013754349 3.8179361e-20)
(0.06286217 0.00054793135 -3.8916698e-20)
(0.074286478 -0.012360358 4.0955754e-20)
(0.076279916 -0.019920653 1.6398879e-22)
(0.070210775 -0.022517865 -4.4412473e-20)
(0.060641248 -0.020650148 4.5138311e-20)
(0.050524345 -0.012117578 0)
(0.043272048 0.00026704523 1.9096427e-24)
(0.042730942 0.011971963 -5.0676644e-20)
(0.050258262 0.018702479 1.0469861e-19)
(0.065415942 0.019379199 -1.0771703e-19)
(0.079518953 0.017166728 5.6024993e-20)
(0.095407996 0.00078480401 0)
(0.081720051 0.0010764999 9.9016399e-22)
(0.083425167 0.00088204545 8.4891269e-25)
(0.080561294 0.0023197864 -1.0691912e-21)
(0.083546053 0.0052900691 1.1368816e-24)
(0.087023357 0.0041773098 5.7923561e-22)
(0.087977108 0.0045150488 -1.2101291e-21)
(0.087215722 0.0036455633 3.1249075e-21)
(0.087464903 0.0049741842 0)
(0.086333071 0.0030461262 0)
(0.083397668 0.0044380592 -4.9636041e-21)
(0.078884314 0.0060376163 5.9069262e-21)
(0.070990306 0.0080932978 0)
(0.063321914 0.0096344761 4.0140818e-22)
(0.061431242 0.0085591102 4.1565556e-22)
(0.061304689 0.01340567 0)
(0.059559953 0.013347175 -7.1965375e-21)
(0.056272896 0.011339995 -4.5665624e-22)
(0.054905215 0.011628007 8.2547441e-21)
(0.056170363 0.014896639 0)
(0.054786593 0.019248697 1.6860403e-20)
(0.051805924 0.020066334 -3.4886758e-20)
(0.054084656 0.014040796 1.7941057e-20)
(0.057980705 0.011606894 -1.9204085e-20)
(0.056933811 0.015524232 1.9894764e-20)
(0.055087225 0.018010431 0)
(0.056815683 0.019155813 0)
(0.06081018 0.020240458 0)
(0.063356478 0.014342238 -3.5855298e-22)
(0.059616711 0.0090573452 -3.7201206e-22)
(0.052521701 0.013733089 -2.5038406e-20)
(0.05130762 0.018493739 2.583285e-20)
(0.060046572 0.011966759 2.0981943e-22)
(0.070606958 0.00093937573 0)
(0.068089631 0.0019092019 0)
(0.052873575 0.018214558 2.3635679e-22)
(0.038104195 0.033362143 0)
(0.035576758 0.032829804 -2.5684244e-22)
(0.044622514 0.016567752 -3.3942844e-20)
(0.053611366 0.00041781002 3.5591265e-20)
(0.05301246 -0.0010508425 3.6370699e-20)
(0.045004303 0.010152859 -3.7273197e-20)
(0.041518816 0.016513039 3.8915419e-20)
(0.049301384 0.010349205 -4.0593427e-20)
(0.062934412 -0.00067326747 -4.1376426e-20)
(0.074134706 -0.0092123549 2.1733858e-22)
(0.077172628 -0.014577435 8.9029085e-20)
(0.071045978 -0.01556411 -4.5623345e-20)
(0.057969627 -0.010980163 0)
(0.042665586 -0.0019007795 -5.0576599e-20)
(0.031020165 0.0082863389 1.0353439e-19)
(0.02763041 0.015041011 -5.3689448e-20)
(0.034108918 0.017731088 0)
(0.04882436 0.016236885 -1.1204108e-22)
(0.066269028 0.012776968 5.7535824e-20)
(0.09537359 0.0009195873 0)
(0.081725482 0.0010604699 0)
(0.083268669 0.0013663897 0)
(0.080098919 0.0033775799 1.6856051e-21)
(0.083479314 0.0054116981 -2.9392889e-21)
(0.08714492 0.0023583367 2.4451309e-21)
(0.087948421 0.0031321782 -3.1665022e-21)
(0.087171981 0.0028967727 -6.6063687e-22)
(0.087376353 0.0046599621 -6.8795268e-22)
(0.086408207 0.0033698301 -6.4608943e-21)
(0.083343585 0.0052651911 5.2188947e-21)
(0.079053152 0.0048792977 0)
(0.071137522 0.0081392458 6.5069085e-21)
(0.063917048 0.0086064667 1.1619882e-25)
(0.06103896 0.0053753458 -1.4462109e-20)
(0.060364109 0.011330408 7.3099361e-21)
(0.060124779 0.012674351 -4.7276643e-22)
(0.057019994 0.0085229147 -4.9157034e-22)
(0.054156712 0.0082359732 8.7746813e-25)
(0.054757184 0.011923698 2.6619444e-22)
(0.054009292 0.015648488 2.7731153e-22)
(0.052562993 0.015993662 2.8816923e-22)
(0.05518138 0.011121259 0)
(0.057691741 0.0096926859 0)
(0.056252516 0.013865235 -2.1067166e-20)
(0.054529375 0.015457808 2.1923262e-20)
(0.055404745 0.016807023 0)
(0.060606002 0.019950737 0)
(0.065831255 0.016025582 0)
(0.061693211 0.010795276 1.9663952e-22)
(0.052050134 0.013193495 0)
(0.051334867 0.016770765 2.6973671e-20)
(0.062266282 0.0098356933 -2.8490314e-20)
(0.072450124 -0.0012754181 2.2792975e-22)
(0.06631001 0.00022920126 -3.1081197e-20)
(0.048311314 0.016083394 3.1149426e-20)
(0.035141485 0.031308096 0)
(0.038252299 0.030740824 3.4006242e-20)
(0.050560349 0.015069762 -3.6137897e-20)
(0.056574747 0.00075788655 1.4444028e-22)
(0.049528925 0.0013274971 3.8981951e-20)
(0.039211862 0.012155719 -3.9369574e-20)
(0.038145897 0.01550625 0)
(0.047822143 0.0098851338 4.2155223e-20)
(0.061421413 0.0010169829 -4.4455014e-20)
(0.073413624 -0.0065294452 3.551651e-22)
(0.077870151 -0.0098046116 0)
(0.071786819 -0.0080921203 4.8833369e-20)
(0.057964735 -0.0019813434 -4.9925863e-20)
(0.039699234 0.0064751683 5.3412112e-20)
(0.024994413 0.013917725 -5.4182261e-20)
(0.018860466 0.017398803 -5.6750049e-20)
(0.0224627 0.01641481 1.1674434e-19)
(0.034730266 0.012150257 -1.1687462e-21)
(0.052276227 0.0067500776 -1.6657232e-21)
(0.095368477 0.0010356297 -5.2730781e-22)
(0.081732499 0.0014758822 -5.5059508e-22)
(0.083131365 0.0023849614 -1.1443438e-21)
(0.079871892 0.0042340709 4.8069106e-24)
(0.083662182 0.0044517304 1.2414201e-21)
(0.08737148 0.00070894368 2.5793522e-21)
(0.087897948 0.0017961129 -2.6675768e-21)
(0.087066478 0.0023639285 6.9641379e-22)
(0.08747389 0.0037055718 3.6374934e-21)
(0.086467975 0.0034963529 -8.3290134e-21)
(0.083423388 0.0053578353 3.8656486e-22)
(0.078855923 0.0036202333 6.5783386e-21)
(0.071181372 0.0074765478 4.2887446e-22)
(0.064892974 0.0075325522 0)
(0.060982085 0.0035571371 4.621269e-22)
(0.059484819 0.0086584634 -4.8122078e-22)
(0.0604902 0.011234559 1.0466147e-24)
(0.058017632 0.0073129232 1.0368433e-21)
(0.053993721 0.0066837791 -5.3891489e-22)
(0.053605845 0.0087722002 8.683707e-21)
(0.053324047 0.011055141 -1.8990908e-20)
(0.052979146 0.011271724 9.7101974e-21)
(0.055632234 0.0087782275 0)
(0.057191314 0.0091658291 -1.0509758e-20)
(0.055667058 0.012762804 1.0554713e-20)
(0.05413513 0.013361638 -3.5598421e-22)
(0.053612784 0.013996137 -3.6994014e-22)
(0.058955982 0.017520181 0)
(0.067003364 0.015759086 0)
(0.063422875 0.011804703 -2.0686697e-22)
(0.052160428 0.013611869 0)
(0.05052457 0.01578581 0)
(0.063705763 0.009382884 -2.9427159e-20)
(0.074360164 -0.00063638886 -1.5451528e-22)
(0.065385778 0.0014527067 6.4778627e-20)
(0.044666334 0.016251131 -3.3422492e-20)
(0.032184953 0.029722134 0)
(0.039311254 0.028319256 1.4210385e-22)
(0.055573022 0.013402936 -1.4643342e-22)
(0.060966003 0.0007231544 -1.5239868e-22)
(0.048996093 0.0027570529 -4.0871657e-20)
(0.035893403 0.01243621 4.1647472e-20)
(0.035286931 0.014736459 0)
(0.046032869 0.0096794229 0)
(0.06003517 0.0015402251 -1.8139675e-22)
(0.072060934 -0.0054549704 -1.8724075e-22)
(0.076448142 -0.0068382119 -4.9525991e-20)
(0.071170589 -0.001944561 5.0862373e-20)
(0.05860839 0.0054636232 5.4069172e-20)
(0.041293999 0.013156924 -5.4785122e-20)
(0.025936429 0.017262144 -1.1209864e-22)
(0.016921012 0.017585193 5.9895468e-20)
(0.017005204 0.013717797 -6.1750092e-20)
(0.024699297 0.0077247796 0)
(0.039364392 0.00095986688 -6.4667192e-20)
(0.095279913 0.0010390152 8.3492084e-22)
(0.081631793 0.0020130692 -2.8827621e-22)
(0.082993042 0.0034886898 6.0215668e-22)
(0.079864639 0.0047125349 6.2643831e-22)
(0.083890761 0.0032665573 2.5980007e-21)
(0.087602877 0.00028230266 -4.755094e-21)
(0.087790174 0.0019810688 2.8114873e-21)
(0.086927219 0.0025426856 0)
(0.08746738 0.0029144244 3.4518774e-21)
(0.086364871 0.0038549127 -2.7863266e-21)
(0.083602356 0.0049126827 -8.3211088e-22)
(0.078986253 0.0029457381 0)
(0.071204529 0.0068441861 -9.0334363e-22)
(0.065661968 0.0069220158 4.6927202e-22)
(0.061302986 0.0037137329 -4.8802716e-22)
(0.058739029 0.0065001967 -1.2565104e-24)
(0.060430945 0.0099387494 -7.8742237e-21)
(0.058801167 0.0079957646 1.694958e-20)
(0.054215121 0.0077321233 -9.0855685e-21)
(0.053266661 0.0075259119 0)
(0.053151651 0.0080229034 -3.0721019e-22)
(0.053036823 0.0083242966 0)
(0.055310249 0.0084591472 -3.3232615e-22)
(0.056588585 0.01031553 0)
(0.055334137 0.013244889 -4.0234724e-25)
(0.054138569 0.012899746 3.7479721e-22)
(0.052423898 0.012437758 3.8940024e-22)
(0.057105802 0.014332688 1.2830413e-20)
(0.067185468 0.01324976 -7.1821626e-23)
(0.065548683 0.010632195 -1.3918659e-20)
(0.053256023 0.012149381 2.9219892e-20)
(0.050343883 0.013419211 -6.0233603e-20)
(0.064532622 0.0075561913 3.2001948e-20)
(0.076289769 -0.00070083656 -2.532493e-22)
(0.065639463 0.0027509712 -2.6449237e-22)
(0.042447489 0.016438987 2.7743633e-22)
(0.029335715 0.027737649 0)
(0.039012388 0.025355715 1.4970588e-22)
(0.058134326 0.0117281 1.552482e-22)
(0.063936515 0.0013162217 0)
(0.049486519 0.0047914951 -3.329397e-22)
(0.034096633 0.012501379 0)
(0.033207888 0.013565875 1.793905e-22)
(0.044169408 0.0086256341 -4.6856696e-20)
(0.058792641 0.00050109705 4.9647198e-20)
(0.07020436 -0.0052308044 0)
(0.073499722 -0.0042417348 -1.0181615e-22)
(0.068750418 0.0024566674 0)
(0.058445184 0.010449288 5.6865798e-20)
(0.044395002 0.017022804 -5.760047e-20)
(0.030710563 0.018924849 1.1943269e-22)
(0.020878442 0.016838261 0)
(0.017700536 0.011314531 -6.320936e-23)
(0.021135277 0.0040047034 0)
(0.03122602 -0.0041750745 6.6968416e-23)
(0.095211565 0.00083654895 -2.9438307e-22)
(0.081501496 0.0023277306 9.1460931e-22)
(0.08290308 0.003921393 -6.353151e-22)
(0.079947687 0.004284482 1.3147501e-21)
(0.084167611 0.0021696472 -2.0653734e-21)
(0.087516747 0.0013964688 1.9820089e-24)
(0.087740095 0.0028169927 -2.9855341e-21)
(0.086996959 0.0030908195 3.0908557e-21)
(0.087429102 0.0019430829 2.825316e-21)
(0.086364081 0.0041865263 -7.1345349e-21)
(0.083862064 0.0037209473 4.3481492e-22)
(0.079109792 0.002601561 3.6512566e-21)
(0.071061134 0.0062346107 -7.1183469e-21)
(0.066138336 0.0060516649 7.4367887e-21)
(0.061937844 0.0049858371 5.1403646e-22)
(0.058424698 0.0050426058 -7.9484297e-21)
(0.060288293 0.0076588994 8.9157155e-21)
(0.059086431 0.0090864192 0)
(0.054597166 0.0092817846 9.8864313e-21)
(0.053484155 0.0075981567 -1.9988445e-20)
(0.053257851 0.0067473413 2.5303476e-24)
(0.052704616 0.007548309 1.0419509e-20)
(0.054727269 0.0096566253 1.191349e-20)
(0.056060465 0.012110893 -2.3035438e-20)
(0.05518989 0.014320835 1.2497171e-20)
(0.054699127 0.013188462 -1.9760341e-22)
(0.052370322 0.012228014 2.0512259e-22)
(0.055814851 0.011928781 1.3300133e-20)
(0.066712006 0.010157735 -1.4500121e-20)
(0.06689861 0.0088002523 2.2932175e-22)
(0.054157393 0.010304274 0)
(0.049951605 0.010764275 1.5787969e-20)
(0.063870497 0.0053749742 -3.8990242e-22)
(0.076484242 -0.00019489886 -1.7115846e-20)
(0.065726776 0.0052111834 4.1762767e-22)
(0.04138466 0.018459893 -1.8926312e-20)
(0.027747222 0.026808765 1.930506e-20)
(0.038645266 0.023020021 -1.5765379e-22)
(0.059876615 0.010164541 1.627406e-22)
(0.06654146 0.0020875143 0)
(0.051036371 0.0065123865 -4.5535336e-20)
(0.034560419 0.012374033 4.6402528e-20)
(0.032294443 0.011610516 -9.4500451e-23)
(0.042796945 0.0057660879 -4.9384683e-20)
(0.056912496 -0.0016608732 5.2132511e-20)
(0.066899489 -0.0057399238 1.0447859e-22)
(0.06894901 -0.0032006694 1.0699318e-22)
(0.065016982 0.0038435411 5.7198944e-20)
(0.057121373 0.01160779 -5.8895846e-20)
(0.046627785 0.017273679 -2.3991571e-22)
(0.035584106 0.01904302 0)
(0.0262869 0.016521965 0)
(0.021658196 0.010048988 8.0908642e-25)
(0.022138661 0.0019261858 0)
(0.027878697 -0.0070867395 -6.9781581e-23)
(0.095174309 0.0005507055 -6.1698471e-22)
(0.081403101 0.0022389689 -6.4352701e-22)
(0.082877709 0.0035413737 2.6744788e-21)
(0.080052334 0.0033711249 -1.3945116e-21)
(0.084310845 0.0015842067 1.4455283e-21)
(0.087417966 0.0031055093 -2.2592625e-21)
(0.087668871 0.0032010781 -3.1471204e-21)
(0.087257759 0.0034789243 3.2545751e-21)
(0.087382334 0.0012530218 3.400092e-21)
(0.086277822 0.00435981 -6.6193751e-21)
(0.084310953 0.0024308137 3.2226424e-21)
(0.079141609 0.0025009116 0)
(0.070937378 0.0056222259 5.0143273e-22)
(0.066448355 0.0049930224 0)
(0.06234516 0.0066779729 0)
(0.058487236 0.0045334916 8.660604e-21)
(0.059821281 0.0051720375 -9.3790143e-21)
(0.058903284 0.0093808625 -3.0361434e-22)
(0.055007138 0.01047808 -3.0097813e-25)
(0.054078802 0.0080241878 0)
(0.053400202 0.0067559558 1.127989e-20)
(0.052157254 0.008036201 -1.0622711e-20)
(0.053873032 0.011248603 7.5240596e-25)
(0.055451315 0.013917298 1.173725e-20)
(0.055226575 0.014698821 -2.5526124e-20)
(0.055268503 0.013077016 1.290126e-20)
(0.052839564 0.012682901 -1.404024e-20)
(0.055523388 0.010813014 3.7790493e-22)
(0.066338124 0.0075433565 1.529152e-20)
(0.068105623 0.006721347 1.5177174e-20)
(0.055645165 0.0083760862 -1.5763494e-20)
(0.050072493 0.0077175255 0)
(0.063120485 0.0018978558 -2.7192885e-22)
(0.075651672 -0.0012857146 -3.0723757e-25)
(0.065370986 0.0063441793 -1.4667816e-22)
(0.041370689 0.019427613 2.006918e-20)
(0.027091251 0.025849762 -3.486859e-23)
(0.037888853 0.020352877 -2.148767e-20)
(0.060194212 0.0084941847 2.1475899e-20)
(0.067927068 0.0030965565 -4.5900875e-20)
(0.053109656 0.0085333725 -4.2971566e-22)
(0.036067421 0.013111664 4.9299285e-20)
(0.032342378 0.010667097 -2.5690253e-20)
(0.041237313 0.0040449493 -1.0315052e-22)
(0.054347899 -0.0033531326 -2.7014438e-20)
(0.062504621 -0.0067548566 2.8285155e-20)
(0.063207273 -0.0029795211 0)
(0.059285468 0.0043486509 -3.02922e-20)
(0.053575918 0.011718844 3.1086903e-20)
(0.046480914 0.017115046 2.5322915e-22)
(0.038632013 0.019144465 0)
(0.031418055 0.016621758 -6.9490706e-20)
(0.026913265 0.0099845948 1.3338489e-22)
(0.025605285 0.0011626738 7.355866e-20)
(0.027952575 -0.0079588883 7.3432361e-23)
(0.095205951 0.00022667165 -1.7199711e-25)
(0.081369653 0.0016441622 -1.3559069e-21)
(0.082913063 0.0025704035 0)
(0.080184598 0.0023012334 7.3359122e-22)
(0.084265169 0.0014224579 1.1423229e-21)
(0.087431724 0.0040532812 1.1918474e-21)
(0.087590629 0.0029413389 -4.9505911e-21)
(0.087501039 0.0034261902 -4.4092708e-22)
(0.087429649 0.0010521726 -4.5842855e-22)
(0.086421821 0.0042990404 6.9758462e-21)
(0.084604283 0.0012299751 -3.3962485e-21)
(0.079147067 0.0026159909 -4.0681037e-21)
(0.070887448 0.0049638999 3.1498918e-21)
(0.066547945 0.0041420383 0)
(0.062543837 0.0079707142 0)
(0.059049221 0.0043741496 -9.4426587e-21)
(0.059280567 0.0029790943 6.7483004e-23)
(0.058302162 0.0084532202 1.0560209e-20)
(0.055320923 0.010213332 -3.328073e-22)
(0.054602675 0.0076063203 1.1056223e-20)
(0.053583878 0.0066114508 -1.1520448e-20)
(0.051614016 0.0081558815 -3.7407098e-22)
(0.052843956 0.011977794 -1.9413584e-22)
(0.05484617 0.014643504 -1.2962021e-20)
(0.055550807 0.014173071 1.3477166e-20)
(0.05576397 0.012019405 2.1840192e-22)
(0.05324619 0.012523932 0)
(0.055607692 0.010297683 0)
(0.066284789 0.0060660933 0)
(0.068747297 0.005596659 5.0940776e-22)
(0.057108405 0.0078222598 -2.6678745e-22)
(0.050728373 0.006251957 0)
(0.06206905 -0.00083027035 1.4337348e-22)
(0.073900447 -0.0027470396 2.966076e-22)
(0.06443141 0.006784324 0)
(0.041595861 0.019716577 2.0823833e-20)
(0.027519055 0.025168925 -2.1366782e-20)
(0.037665728 0.017703674 0)
(0.059654552 0.0061654407 1.8062146e-22)
(0.06808282 0.0034745494 1.8646119e-22)
(0.055046913 0.010189493 0)
(0.039068782 0.013605612 0)
(0.034043486 0.0098621269 2.6902098e-20)
(0.040576144 0.0019325427 -2.8185504e-20)
(0.051780381 -0.0062382214 0)
(0.058260166 -0.008981091 0)