/*--------------------------------*- C++ -*----------------------------------*\
| =========                 |                                                 |
| \\      /  F ield         | OpenFOAM: The Open Source CFD Toolbox           |
|  \\    /   O peration     | Version:  2406                                  |
|   \\  /    A nd           | Website:  www.openfoam.com                      |
|    \\/     M anipulation  |                                                 |
\*---------------------------------------------------------------------------*/
FoamFile
{
    version     2.0;
    format      ascii;
    arch        "LSB;label=32;scalar=64";
    class       volScalarField;
    location    "9140";
    object      k;
}
// * * * * * * * * * * * * * * * * * * * * * * * * * * * * * * * * * * * * * //

dimensions      [0 2 -2 0 0 0 0];

internalField   nonuniform List<scalar> 
94692
(
3.1508054e-06
2.4832285e-06
2.0267742e-06
1.6990339e-06
1.4545127e-06
1.2663761e-06
1.1179278e-06
9.9831245e-07
9.0020844e-07
8.1852091e-07
7.4960858e-07
6.9080793e-07
6.4013082e-07
5.9606642e-07
5.5744829e-07
5.2336298e-07
4.9308602e-07
4.6603616e-07
4.4174215e-07
4.1981827e-07
3.9994606e-07
3.8186047e-07
3.6533925e-07
3.5019479e-07
3.3626773e-07
3.2342185e-07
3.1154015e-07
3.0052156e-07
2.9027839e-07
2.8073418e-07
2.7182205e-07
2.6348318e-07
2.556657e-07
2.4832372e-07
2.4141646e-07
2.3490758e-07
2.2876464e-07
2.2295854e-07
2.1746316e-07
2.1225496e-07
2.0731269e-07
2.0261713e-07
1.9815085e-07
1.93898e-07
1.8984419e-07
1.8597626e-07
1.8228224e-07
1.7875116e-07
1.7537297e-07
1.721385e-07
1.6903932e-07
1.6606771e-07
1.6321658e-07
1.6047945e-07
1.5785037e-07
1.5532391e-07
1.5289511e-07
1.5055947e-07
1.483129e-07
1.4615174e-07
1.4407271e-07
1.4207293e-07
1.401499e-07
1.383015e-07
1.3652601e-07
1.3482207e-07
1.3318875e-07
1.3162551e-07
1.3013225e-07
1.287093e-07
1.2735745e-07
1.2607795e-07
1.2487249e-07
1.2374322e-07
1.226927e-07
1.2172379e-07
1.2083959e-07
1.2004319e-07
1.193374e-07
1.1872436e-07
1.1820492e-07
1.177779e-07
1.1743914e-07
1.1718041e-07
1.1698828e-07
1.1684342e-07
1.1672108e-07
1.1659405e-07
1.1644083e-07
1.1626291e-07
1.1611779e-07
1.1617627e-07
1.1687274e-07
1.192149e-07
1.2500895e-07
1.3718092e-07
1.606896e-07
2.0314945e-07
2.7018697e-07
3.151269e-06
2.4838081e-06
2.0273744e-06
1.6996169e-06
1.4550645e-06
1.2668926e-06
1.1184092e-06
9.9876071e-07
9.0062617e-07
8.1891086e-07
7.4997338e-07
6.9115002e-07
6.4045241e-07
5.9636949e-07
5.5773461e-07
5.2363413e-07
4.933434e-07
4.6628101e-07
4.419756e-07
4.2004133e-07
4.0015962e-07
3.8206535e-07
3.6553619e-07
3.5038446e-07
3.3645075e-07
3.2359879e-07
3.1171154e-07
3.0068788e-07
2.9044009e-07
2.808917e-07
2.7197579e-07
2.6363353e-07
2.5581305e-07
2.4846841e-07
2.4155883e-07
2.3504799e-07
2.2890341e-07
2.2309602e-07
2.1759967e-07
2.1239085e-07
2.0744829e-07
2.0275279e-07
1.9828692e-07
1.9403485e-07
1.899822e-07
1.8611583e-07
1.8242376e-07
1.7889506e-07
1.7551972e-07
1.7228855e-07
1.6919318e-07
1.6622589e-07
1.6337964e-07
1.6064797e-07
1.5802496e-07
1.5550522e-07
1.5308382e-07
1.5075629e-07
1.4851858e-07
1.4636706e-07
1.4429849e-07
1.4231001e-07
1.4039915e-07
1.3856381e-07
1.3680227e-07
1.3511319e-07
1.3349561e-07
1.3194897e-07
1.3047314e-07
1.2906836e-07
1.2773533e-07
1.2647517e-07
1.2528939e-07
1.2417995e-07
1.231491e-07
1.2219942e-07
1.2133359e-07
1.2055427e-07
1.1986375e-07
1.1926355e-07
1.1875389e-07
1.1833288e-07
1.179956e-07
1.1773303e-07
1.1753095e-07
1.1736923e-07
1.1722221e-07
1.1706143e-07
1.1686319e-07
1.1662441e-07
1.163926e-07
1.1631452e-07
1.1668639e-07
1.1797105e-07
1.2154026e-07
1.3009974e-07
1.4842295e-07
1.843749e-07
2.4490625e-07
3.1517032e-06
2.4843472e-06
2.0279336e-06
1.7001625e-06
1.4555837e-06
1.2673815e-06
1.1188676e-06
9.9919026e-07
9.0102893e-07
8.192891e-07
7.5032929e-07
6.9148565e-07
6.4076961e-07
5.9666993e-07
5.5801976e-07
5.2390529e-07
4.9360173e-07
4.6652755e-07
4.4221123e-07
4.2026686e-07
4.0037577e-07
3.8227272e-07
3.6573535e-07
3.5057591e-07
3.3663491e-07
3.2377604e-07
3.1188221e-07
3.0085226e-07
2.9059843e-07
2.8104421e-07
2.7212264e-07
2.6377487e-07
2.5594898e-07
2.4859902e-07
2.4168417e-07
2.3516808e-07
2.2901825e-07
2.2320556e-07
2.1770386e-07
2.1248958e-07
2.0754145e-07
2.0284022e-07
1.9836842e-07
1.9411021e-07
1.9005114e-07
1.8617806e-07
1.8247894e-07
1.789428e-07
1.7555959e-07
1.7232007e-07
1.6921581e-07
1.6623905e-07
1.6338267e-07
1.6064015e-07
1.580055e-07
1.5547325e-07
1.5303838e-07
1.5069635e-07
1.4844299e-07
1.4627458e-07
1.4418776e-07
1.4217956e-07
1.4024736e-07
1.3838895e-07
1.3660243e-07
1.3488631e-07
1.3323946e-07
1.3166115e-07
1.3015102e-07
1.2870913e-07
1.2733594e-07
1.2603232e-07
1.2479955e-07
1.2363928e-07
1.2255349e-07
1.2154442e-07
1.2061442e-07
1.1976573e-07
1.1900024e-07
1.18319e-07
1.1772168e-07
1.1720579e-07
1.1676572e-07
1.1639163e-07
1.1606832e-07
1.1577441e-07
1.154825e-07
1.1516149e-07
1.1478315e-07
1.1433613e-07
1.1385236e-07
1.1345221e-07
1.1344224e-07
1.1453409e-07
1.1768042e-07
1.2466067e-07
1.3889591e-07
1.6761821e-07
2.1705748e-07
3.1521063e-06
2.4848409e-06
2.0284431e-06
1.7006581e-06
1.4560546e-06
1.2678246e-06
1.1192829e-06
9.995793e-07
9.0139375e-07
8.1963181e-07
7.5065195e-07
6.9179016e-07
6.4105769e-07
5.9694312e-07
5.5827943e-07
5.2415269e-07
4.9383795e-07
4.6675356e-07
4.4242792e-07
4.2047502e-07
4.0057611e-07
3.8246589e-07
3.6592194e-07
3.5075645e-07
3.3680989e-07
3.2394593e-07
3.1204743e-07
3.0101321e-07
2.9075548e-07
2.8119772e-07
2.7227295e-07
2.639223e-07
2.5609384e-07
2.4874162e-07
2.4182482e-07
2.3530707e-07
2.2915587e-07
2.2334211e-07
2.1783964e-07
2.126249e-07
2.0767661e-07
2.0297553e-07
1.9850422e-07
1.9424684e-07
1.9018895e-07
1.8631743e-07
1.8262026e-07
1.7908648e-07
1.7570605e-07
1.7246979e-07
1.6936926e-07
1.6639674e-07
1.6354516e-07
1.6080801e-07
1.5817935e-07
1.5565374e-07
1.5322622e-07
1.5089225e-07
1.4864776e-07
1.4648903e-07
1.4441276e-07
1.4241603e-07
1.4049626e-07
1.3865128e-07
1.3687923e-07
1.3517866e-07
1.3354846e-07
1.3198791e-07
1.3049665e-07
1.2907473e-07
1.2772256e-07
1.2644094e-07
1.2523103e-07
1.2409433e-07
1.2303258e-07
1.2204772e-07
1.211417e-07
1.2031626e-07
1.1957263e-07
1.1891106e-07
1.1833019e-07
1.178263e-07
1.173923e-07
1.1701656e-07
1.166818e-07
1.1636416e-07
1.1603327e-07
1.1565432e-07
1.1519403e-07
1.1463353e-07
1.139925e-07
1.133696e-07
1.1298773e-07
1.1328151e-07
1.1523965e-07
1.205922e-07
1.320633e-07
1.5599276e-07
1.9689379e-07
3.1524783e-06
2.4852911e-06
2.0289055e-06
1.701107e-06
1.4564805e-06
1.2682249e-06
1.1196579e-06
9.9993042e-07
9.0172282e-07
8.1994079e-07
7.5094268e-07
6.9206436e-07
6.413169e-07
5.9718872e-07
5.5851265e-07
5.243746e-07
4.9404952e-07
4.6695564e-07
4.4262126e-07
4.2066028e-07
4.0075388e-07
3.826367e-07
3.6608624e-07
3.5091466e-07
3.3696238e-07
3.2409302e-07
3.121894e-07
3.0115031e-07
2.9088794e-07
2.8132573e-07
2.7239667e-07
2.6404186e-07
2.5620937e-07
2.488532e-07
2.4193252e-07
2.3541093e-07
2.2925594e-07
2.2343838e-07
2.179321e-07
2.1271351e-07
2.0776132e-07
2.0305627e-07
1.9858089e-07
1.943193e-07
1.9025707e-07
1.8638102e-07
1.8267913e-07
1.791404e-07
1.7575477e-07
1.7251302e-07
1.6940667e-07
1.6642798e-07
1.6356982e-07
1.6082566e-07
1.581895e-07
1.5565586e-07
1.5321972e-07
1.5087649e-07
1.4862203e-07
1.4645256e-07
1.4436471e-07
1.4235548e-07
1.404222e-07
1.385626e-07
1.3677472e-07
1.3505699e-07
1.3340817e-07
1.318274e-07
1.3031415e-07
1.2886828e-07
1.2749e-07
1.2617985e-07
1.2493873e-07
1.2376779e-07
1.2266841e-07
1.2164211e-07
1.2069031e-07
1.1981421e-07
1.1901436e-07
1.182903e-07
1.1763988e-07
1.1705856e-07
1.1653845e-07
1.1606723e-07
1.1562713e-07
1.1519411e-07
1.1473806e-07
1.142247e-07
1.1362117e-07
1.1290755e-07
1.1209838e-07
1.1127962e-07
1.1067714e-07
1.1077884e-07
1.1236929e-07
1.1687356e-07
1.2647694e-07
1.4686931e-07
1.8147089e-07
3.1528211e-06
2.4857014e-06
2.0293252e-06
1.7015134e-06
1.4568656e-06
1.2685865e-06
1.1199964e-06
1.0002472e-06
9.0201964e-07
8.2021943e-07
7.5120487e-07
6.9231167e-07
6.4155075e-07
5.9741036e-07
5.5872323e-07
5.2457512e-07
4.9424087e-07
4.6713861e-07
4.4279657e-07
4.2082856e-07
4.0091571e-07
3.8279259e-07
3.6623667e-07
3.5106006e-07
3.3710313e-07
3.2422948e-07
3.123219e-07
3.0127916e-07
2.9101343e-07
2.8144812e-07
2.7251621e-07
2.641588e-07
2.5632392e-07
2.489656e-07
2.4204296e-07
2.3551963e-07
2.2936307e-07
2.2354416e-07
2.1803671e-07
2.1281713e-07
2.0786414e-07
2.0315847e-07
1.9868264e-07
1.944208e-07
1.903585e-07
1.8648256e-07
1.8278096e-07
1.792427e-07
1.7585773e-07
1.726168e-07
1.6951147e-07
1.6653397e-07
1.6367717e-07
1.6093452e-07
1.5830003e-07
1.5576818e-07
1.5333395e-07
1.5099272e-07
1.4874031e-07
1.465729e-07
1.4448707e-07
1.4247974e-07
1.4054818e-07
1.3868999e-07
1.3690313e-07
1.3518585e-07
1.3353674e-07
1.3195472e-07
1.3043903e-07
1.289892e-07
1.2760508e-07
1.262868e-07
1.2503476e-07
1.2384953e-07
1.2273185e-07
1.2168246e-07
1.2070195e-07
1.1979055e-07
1.1894783e-07
1.1817225e-07
1.1746062e-07
1.1680743e-07
1.1620408e-07
1.1563791e-07
1.1509147e-07
1.1454195e-07
1.1396161e-07
1.1331977e-07
1.1258807e-07
1.1175083e-07
1.1082411e-07
1.0988721e-07
1.0912197e-07
1.0887544e-07
1.0989086e-07
1.1350568e-07
1.2159809e-07
1.3925269e-07
1.6914748e-07
3.1531346e-06
2.4860735e-06
2.0297046e-06
1.7018802e-06
1.4572128e-06
1.2689124e-06
1.1203013e-06
1.0005324e-06
9.0228682e-07
8.2047018e-07
7.5144073e-07
6.9253406e-07
6.4176094e-07
5.976095e-07
5.5891232e-07
5.2475505e-07
4.9441242e-07
4.6730248e-07
4.4295337e-07
4.2097883e-07
4.0105992e-07
3.8293117e-07
3.6636999e-07
3.5118843e-07
3.3722685e-07
3.243488e-07
3.1243703e-07
3.0139028e-07
2.9112069e-07
2.8155164e-07
2.7261609e-07
2.642551e-07
2.564167e-07
2.4905485e-07
2.4212869e-07
2.3560179e-07
2.294416e-07
2.2361896e-07
2.1810766e-07
2.1288409e-07
2.0792691e-07
2.0321683e-07
1.9873635e-07
1.9446955e-07
1.9040195e-07
1.8652034e-07
1.8281263e-07
1.7926779e-07
1.7587568e-07
1.7262702e-07
1.6951327e-07
1.665266e-07
1.6365979e-07
1.6090621e-07
1.5825976e-07
1.5571482e-07
1.5326622e-07
1.5090923e-07
1.4863951e-07
1.4645309e-07
1.4434634e-07
1.4231599e-07
1.4035909e-07
1.3847298e-07
1.3665534e-07
1.3490413e-07
1.3321758e-07
1.3159424e-07
1.3003291e-07
1.2853268e-07
1.2709288e-07
1.2571308e-07
1.2439304e-07
1.2313269e-07
1.2193203e-07
1.2079102e-07
1.1970947e-07
1.1868682e-07
1.1772185e-07
1.1681236e-07
1.1595473e-07
1.1514332e-07
1.1436994e-07
1.1362315e-07
1.128878e-07
1.1214483e-07
1.1137191e-07
1.1054552e-07
1.0964568e-07
1.0866502e-07
1.0762502e-07
1.0660367e-07
1.0578117e-07
1.0551192e-07
1.0641955e-07
1.0964476e-07
1.1677623e-07
1.3235699e-07
1.5866229e-07
3.1534212e-06
2.486411e-06
2.0300477e-06
1.7022112e-06
1.4575258e-06
1.2692058e-06
1.1205757e-06
1.0007891e-06
9.025271e-07
8.2069562e-07
7.5165274e-07
6.9273391e-07
6.4194977e-07
5.9778832e-07
5.5908201e-07
5.2491638e-07
4.9456607e-07
4.6744902e-07
4.4309329e-07
4.2111255e-07
4.0118779e-07
3.8305348e-07
3.6648696e-07
3.5130024e-07
3.3733361e-07
3.2445058e-07
3.1253385e-07
3.0148211e-07
2.9120746e-07
2.8163325e-07
2.7269238e-07
2.6432587e-07
2.564817e-07
2.491138e-07
2.4218126e-07
2.3564761e-07
2.2948026e-07
2.2365e-07
2.1813056e-07
2.1289829e-07
2.079318e-07
2.0321176e-07
1.9872059e-07
1.9444232e-07
1.9036242e-07
1.8646759e-07
1.8274569e-07
1.7918559e-07
1.7577709e-07
1.7251081e-07
1.6937812e-07
1.6637109e-07
1.6348237e-07
1.6070522e-07
1.580334e-07
1.5546115e-07
1.5298313e-07
1.5059445e-07
1.4829057e-07
1.460673e-07
1.4392079e-07
1.4184753e-07
1.3984427e-07
1.3790807e-07
1.3603625e-07
1.3422642e-07
1.3247644e-07
1.3078439e-07
1.2914863e-07
1.2756774e-07
1.260405e-07
1.245659e-07
1.2314312e-07
1.2177143e-07
1.2045019e-07
1.1917875e-07
1.1795633e-07
1.1678187e-07
1.1565383e-07
1.1456995e-07
1.1352691e-07
1.1252002e-07
1.1154279e-07
1.1058665e-07
1.0964068e-07
1.086918e-07
1.0772553e-07
1.0672788e-07
1.0568938e-07
1.046122e-07
1.0352302e-07
1.0249438e-07
1.0167584e-07
1.0135696e-07
1.0209483e-07
1.0491349e-07
1.1121405e-07
1.2500514e-07
1.4837438e-07
3.1536807e-06
2.4867151e-06
2.0303561e-06
1.7025086e-06
1.4578068e-06
1.2694692e-06
1.120822e-06
1.0010192e-06
9.0274231e-07
8.2089717e-07
7.5184174e-07
6.9291132e-07
6.4211638e-07
5.9794474e-07
5.5922866e-07
5.2505354e-07
4.9469385e-07
4.6756738e-07
4.4320204e-07
4.2121138e-07
4.0127624e-07
3.8313098e-07
3.6655281e-07
3.5135364e-07
3.3737365e-07
3.2447625e-07
3.1254405e-07
3.0147566e-07
2.9118308e-07
2.8158958e-07
2.7262798e-07
2.6423925e-07
2.5637129e-07
2.4897796e-07
2.4201829e-07
2.3545575e-07
2.2925769e-07
2.2339483e-07
2.1784087e-07
2.1257207e-07
2.07567e-07
2.0280626e-07
1.9827221e-07
1.9394883e-07
1.898215e-07
1.8587686e-07
1.821027e-07
1.7848782e-07
1.7502192e-07
1.7169553e-07
1.6849995e-07
1.6542712e-07
1.6246962e-07
1.5962058e-07
1.5687364e-07
1.5422291e-07
1.5166294e-07
1.4918867e-07
1.4679542e-07
1.4447886e-07
1.4223497e-07
1.4006005e-07
1.3795071e-07
1.3590379e-07
1.3391647e-07
1.3198612e-07
1.3011043e-07
1.2828729e-07
1.2651487e-07
1.2479156e-07
1.2311597e-07
1.2148696e-07
1.1990355e-07
1.1836496e-07
1.1687053e-07
1.1541969e-07
1.1401187e-07
1.126464e-07
1.1132242e-07
1.1003869e-07
1.0879343e-07
1.0758416e-07
1.0640749e-07
1.0525901e-07
1.0413331e-07
1.0302424e-07
1.0192561e-07
1.008327e-07
9.974511e-08
9.8671941e-08
9.7641038e-08
9.6715064e-08
9.6023391e-08
9.5842127e-08
9.6615665e-08
9.9183206e-08
1.047342e-07
1.167169e-07
1.3720996e-07
3.1539159e-06
2.4869893e-06
2.0306336e-06
1.7027756e-06
1.4580586e-06
1.2697043e-06
1.1210403e-06
1.0012209e-06
9.0292774e-07
8.2106611e-07
7.5199366e-07
6.9304523e-07
6.4223088e-07
5.9803796e-07
5.5929836e-07
5.2509709e-07
4.9470827e-07
4.6754942e-07
4.431482e-07
4.2111792e-07
4.0113929e-07
3.8294652e-07
3.6631675e-07
3.5106184e-07
3.3702196e-07
3.2406053e-07
3.1206021e-07
3.0091966e-07
2.9055099e-07
2.8087758e-07
2.7183236e-07
2.6335645e-07
2.5539787e-07
2.4791067e-07
2.4085401e-07
2.3419153e-07
2.2789075e-07
2.2192254e-07
2.1626077e-07
2.1088185e-07
2.0576452e-07
2.0088952e-07
1.9623935e-07
1.9179815e-07
1.8755141e-07
1.8348593e-07
1.7958959e-07
1.7585133e-07
1.7226095e-07
1.6880909e-07
1.6548714e-07
1.6228715e-07
1.5920178e-07
1.5622424e-07
1.5334826e-07
1.5056802e-07
1.4787815e-07
1.4527367e-07
1.4274996e-07
1.4030275e-07
1.3792811e-07
1.3562241e-07
1.333823e-07
1.3120473e-07
1.290869e-07
1.2702631e-07
1.2502069e-07
1.2306803e-07
1.2116656e-07
1.1931479e-07
1.1751143e-07
1.1575547e-07
1.1404609e-07
1.1238271e-07
1.1076494e-07
1.0919259e-07
1.0766559e-07
1.0618402e-07
1.0474798e-07
1.0335764e-07
1.0201309e-07
1.0071439e-07
9.9461484e-08
9.8254229e-08
9.7092513e-08
9.5976461e-08
9.4906901e-08
9.388622e-08
9.2920007e-08
9.2020053e-08
9.120999e-08
9.0535172e-08
9.0087443e-08
9.0086803e-08
9.0868949e-08
9.3093057e-08
9.7729934e-08
1.0759787e-07
1.2477801e-07
3.1541266e-06
2.4872343e-06
2.0308799e-06
1.7030092e-06
1.4582723e-06
1.2698926e-06
1.1211972e-06
1.0013394e-06
9.0299926e-07
8.2108071e-07
7.5194003e-07
6.9291097e-07
6.4200277e-07
5.9770227e-07
5.5884111e-07
5.2450433e-07
4.9396633e-07
4.6664511e-07
4.4206902e-07
4.1985219e-07
3.9967628e-07
3.8127651e-07
3.6443112e-07
3.4895309e-07
3.3468373e-07
3.2148759e-07
3.0924845e-07
2.9786606e-07
2.8725355e-07
2.7733529e-07
2.6804516e-07
2.5932512e-07
2.5112404e-07
2.4339669e-07
2.3610293e-07
2.2920701e-07
2.2267701e-07
2.1648433e-07
2.1060324e-07
2.0501059e-07
1.9968543e-07
1.9460881e-07
1.8976349e-07
1.8513381e-07
1.8070545e-07
1.7646535e-07
1.7240151e-07
1.6850293e-07
1.647595e-07
1.6116191e-07
1.5770155e-07
1.5437047e-07
1.5116134e-07
1.4806734e-07
1.4508216e-07
1.4219996e-07
1.394153e-07
1.3672314e-07
1.3411882e-07
1.3159799e-07
1.2915664e-07
1.2679106e-07
1.2449783e-07
1.2227382e-07
1.2011615e-07
1.180222e-07
1.1598964e-07
1.1401635e-07
1.1210051e-07
1.1024053e-07
1.0843507e-07
1.066831e-07
1.0498383e-07
1.0333675e-07
1.0174168e-07
1.0019874e-07
9.870839e-08
9.7271452e-08
9.5889158e-08
9.4563174e-08
9.3295661e-08
9.208933e-08
9.0947503e-08
8.987418e-08
8.88741e-08
8.7952781e-08
8.7116579e-08
8.6372784e-08
8.5729972e-08
8.5198961e-08
8.4795226e-08
8.4543964e-08
8.450362e-08
8.4835742e-08
8.5753477e-08
8.77076e-08
9.1398245e-08
9.8954193e-08
1.1227879e-07
3.1543134e-06
2.4874433e-06
2.0310675e-06
1.7031404e-06
1.4583095e-06
1.2697928e-06
1.1209119e-06
1.0008165e-06
9.0218524e-07
8.1992094e-07
7.5038221e-07
6.9090651e-07
6.3950791e-07
5.9467908e-07
5.55258e-07
5.2033632e-07
4.8919505e-07
4.612586e-07
4.3606144e-07
4.1322335e-07
3.9243113e-07
3.7342465e-07
3.5598619e-07
3.3993225e-07
3.2510709e-07
3.1137773e-07
2.9862993e-07
2.8676498e-07
2.7569717e-07
2.6535165e-07
2.5566278e-07
2.4657273e-07
2.3803029e-07
2.2999001e-07
2.2241131e-07
2.1525788e-07
2.0849711e-07
2.0209961e-07
1.9603881e-07
1.9029063e-07
1.8483317e-07
1.7964649e-07
1.7471237e-07
1.7001414e-07
1.6553649e-07
1.6126536e-07
1.571878e-07
1.5329186e-07
1.4956652e-07
1.4600156e-07
1.4258753e-07
1.3931564e-07
1.3617777e-07
1.3316633e-07
1.3027429e-07
1.274951e-07
1.2482266e-07
1.2225132e-07
1.1977578e-07
1.1739116e-07
1.1509288e-07
1.1287674e-07
1.1073884e-07
1.0867558e-07
1.066837e-07
1.047602e-07
1.0290241e-07
1.0110795e-07
9.937476e-08
9.7701121e-08
9.6085655e-08
9.452737e-08
9.3025691e-08
9.1580507e-08
9.0192226e-08
8.886185e-08
8.7591052e-08
8.6382277e-08
8.523885e-08
8.4165095e-08
8.3166462e-08
8.2249631e-08
8.1422595e-08
8.069466e-08
8.0076322e-08
7.9578943e-08
7.9214151e-08
7.8992875e-08
7.892407e-08
7.9013265e-08
7.9261457e-08
7.9665662e-08
8.0252129e-08
8.1127152e-08
8.2391705e-08
8.4301895e-08
8.7273881e-08
9.2766295e-08
1.0221864e-07
3.1544465e-06
2.4874747e-06
2.030812e-06
1.7023796e-06
1.4568053e-06
1.2673067e-06
1.1172231e-06
9.9573512e-07
8.9556023e-07
8.1164736e-07
7.4039784e-07
6.7918285e-07
6.2604984e-07
5.7952274e-07
5.3846429e-07
5.0198593e-07
4.6938374e-07
4.4009285e-07
4.1365462e-07
3.8969253e-07
3.6789435e-07
3.4799875e-07
3.2978508e-07
3.1306557e-07
2.9767925e-07
2.8348723e-07
2.7036894e-07
2.582191e-07
2.4694537e-07
2.3646632e-07
2.2670992e-07
2.1761215e-07
2.0911594e-07
2.0117028e-07
1.9372938e-07
1.8675207e-07
1.8020126e-07
1.7404343e-07
1.6824822e-07
1.6278809e-07
1.5763801e-07
1.527752e-07
1.481789e-07
1.4383012e-07
1.3971152e-07
1.3580722e-07
1.3210265e-07
1.2858444e-07
1.252403e-07
1.2205893e-07
1.1902992e-07
1.1614369e-07
1.133914e-07
1.1076489e-07
1.0825665e-07
1.0585974e-07
1.0356776e-07
1.0137482e-07
9.9275511e-08
9.726485e-08
9.5338291e-08
9.3491696e-08
9.1721319e-08
9.0023806e-08
8.8396193e-08
8.683591e-08
8.5340796e-08
8.3909112e-08
8.2539583e-08
8.123142e-08
7.9984384e-08
7.8798842e-08
7.7675847e-08
7.6617233e-08
7.5625733e-08
7.4705106e-08
7.3860302e-08
7.3097632e-08
7.2424955e-08
7.1851871e-08
7.1389898e-08
7.1052587e-08
7.0855535e-08
7.0816205e-08
7.0953417e-08
7.128635e-08
7.1832828e-08
7.2606633e-08
7.3613631e-08
7.4846579e-08
7.6278662e-08
7.7859316e-08
7.9606711e-08
8.1581614e-08
8.3762686e-08
8.6210327e-08
8.904823e-08
9.3184698e-08
9.9355327e-08
3.1541198e-06
2.4857449e-06
2.0265083e-06
1.6944069e-06
1.4443056e-06
1.2497262e-06
1.0943126e-06
9.6751062e-07
8.6224732e-07
7.736207e-07
6.9812972e-07
6.3321202e-07
5.7693824e-07
5.2781868e-07
4.8467476e-07
4.4658461e-07
4.1280213e-07
3.8271687e-07
3.5582402e-07
3.3170211e-07
3.0999653e-07
2.9040681e-07
2.7267682e-07
2.5658712e-07
2.4194883e-07
2.2859865e-07
2.1639498e-07
2.052145e-07
1.9494956e-07
1.855059e-07
1.7680069e-07
1.6876107e-07
1.6132267e-07
1.5442859e-07
1.4802833e-07
1.4207702e-07
1.365347e-07
1.313657e-07
1.2653811e-07
1.2202334e-07
1.177957e-07
1.1383211e-07
1.1011177e-07
1.0661589e-07
1.0332751e-07
1.0023126e-07
9.731321e-08
9.4560736e-08
9.1962358e-08
8.9507645e-08
8.7187112e-08
8.4992129e-08
8.2914852e-08
8.0948149e-08
7.9085552e-08
7.73212e-08
7.5649808e-08
7.4066623e-08
7.256741e-08
7.1148422e-08
6.9806397e-08
6.8538545e-08
6.7342561e-08
6.6216622e-08
6.5159426e-08
6.4170202e-08
6.3248769e-08
6.2395579e-08
6.1611794e-08
6.0899369e-08
6.0261163e-08
5.9701065e-08
5.9224156e-08
5.8836889e-08
5.8547312e-08
5.8365312e-08
5.8302902e-08
5.8374529e-08
5.8597392e-08
5.8991755e-08
5.9581207e-08
6.0392794e-08
6.1456929e-08
6.2806899e-08
6.4477757e-08
6.6504237e-08
6.8917295e-08
7.1738696e-08
7.4973044e-08
7.8596539e-08
8.2542164e-08
8.66953e-08
9.1140236e-08
9.5795486e-08
1.0044264e-07
1.0487036e-07
1.0880832e-07
1.1274508e-07
1.1632546e-07
3.1491219e-06
2.4692694e-06
1.9941263e-06
1.6443265e-06
1.3769518e-06
1.1669757e-06
9.9878934e-07
8.620681e-07
7.4963754e-07
6.563113e-07
5.7822354e-07
5.1242561e-07
4.5662837e-07
4.090348e-07
3.6822801e-07
3.3304494e-07
3.0254029e-07
2.7596402e-07
2.5270321e-07
2.3225437e-07
2.1420195e-07
1.9820128e-07
1.8396519e-07
1.7125329e-07
1.5986347e-07
1.4962506e-07
1.4039334e-07
1.3204507e-07
1.2447492e-07
1.1759248e-07
1.1131987e-07
1.0558979e-07
1.0034386e-07
9.5531277e-08
9.11077e-08
8.7034309e-08
8.3277031e-08
7.9805873e-08
7.6594367e-08
7.3619106e-08
7.085935e-08
6.8296685e-08
6.5914734e-08
6.3698916e-08
6.163623e-08
5.9715081e-08
5.7925121e-08
5.6257119e-08
5.4702848e-08
5.3254989e-08
5.1907047e-08
5.0653287e-08
4.9488671e-08
4.8408816e-08
4.7409956e-08
4.6488912e-08
4.5643079e-08
4.4870414e-08
4.4169434e-08
4.3539227e-08
4.2979473e-08
4.2490473e-08
4.2073191e-08
4.1729309e-08
4.1461304e-08
4.127253e-08
4.1167338e-08
4.1151201e-08
4.123088e-08
4.1414617e-08
4.1712366e-08
4.2136065e-08
4.2699952e-08
4.3420938e-08
4.4319033e-08
4.5417818e-08
4.6744983e-08
4.8332886e-08
5.0219133e-08
5.2447115e-08
5.5066432e-08
5.8133078e-08
6.1709207e-08
6.5862195e-08
7.0662639e-08
7.618076e-08
8.2480553e-08
8.961086e-08
9.7592349e-08
1.0639952e-07
1.159411e-07
1.2612112e-07
1.3708751e-07
1.483042e-07
1.5917256e-07
1.6899804e-07
1.7681804e-07
1.827353e-07
1.8442395e-07
3.1074184e-06
2.3643848e-06
1.8289909e-06
1.4333178e-06
1.1368135e-06
9.1236874e-07
7.4088365e-07
6.0861112e-07
5.0557083e-07
4.2448312e-07
3.6001534e-07
3.0824096e-07
2.6625051e-07
2.3187302e-07
2.0347688e-07
1.7983009e-07
1.5998377e-07
1.4319695e-07
1.2889772e-07
1.1663744e-07
1.0606112e-07
9.6885664e-08
8.8883477e-08
8.1870303e-08
7.5695921e-08
7.023705e-08
6.5391905e-08
6.1075948e-08
5.7218591e-08
5.3760578e-08
5.0651934e-08
4.7850321e-08
4.5319716e-08
4.302936e-08
4.0952888e-08
3.9067637e-08
3.7354072e-08
3.5795319e-08
3.437677e-08
3.3085769e-08
3.1911348e-08
3.0844002e-08
2.9875512e-08
2.8998786e-08
2.820774e-08
2.7497187e-08
2.6862757e-08
2.6300826e-08
2.5808461e-08
2.5383381e-08
2.5023922e-08
2.4729025e-08
2.4498223e-08
2.4331641e-08
2.4230012e-08
2.4194698e-08
2.4227723e-08
2.4331819e-08
2.4510484e-08
2.4768058e-08
2.5109809e-08
2.5542045e-08
2.6072242e-08
2.6709201e-08
2.746323e-08
2.8346355e-08
2.9372583e-08
3.055819e-08
3.192207e-08
3.3486136e-08
3.5275779e-08
3.7320404e-08
3.9654031e-08
4.2315972e-08
4.5351584e-08
4.881308e-08
5.2760377e-08
5.7261958e-08
6.2395644e-08
6.8249217e-08
7.4920698e-08
8.2518071e-08
9.115814e-08
1.0096408e-07
1.1206113e-07
1.2456977e-07
1.3859571e-07
1.5421584e-07
1.7145982e-07
1.9029096e-07
2.1062074e-07
2.3258313e-07
2.5533042e-07
2.7788854e-07
2.989951e-07
3.1722197e-07
3.3065679e-07
3.3903202e-07
3.3782892e-07
2.8653937e-06
1.9245866e-06
1.3003452e-06
8.9534131e-07
6.322295e-07
4.5881974e-07
3.4211282e-07
2.616828e-07
2.0488916e-07
1.6382601e-07
1.3346758e-07
1.1055724e-07
9.2941078e-08
7.9165336e-08
6.8229034e-08
5.9427203e-08
5.2266509e-08
4.6379422e-08
4.1491405e-08
3.739744e-08
3.3942222e-08
3.1006564e-08
2.8497904e-08
2.6343577e-08
2.4485988e-08
2.2879078e-08
2.1485736e-08
2.0275852e-08
1.9224855e-08
1.8312595e-08
1.7522489e-08
1.684085e-08
1.625637e-08
1.5759716e-08
1.53432e-08
1.5000528e-08
1.4726598e-08
1.4517335e-08
1.436957e-08
1.4280932e-08
1.4249774e-08
1.4275112e-08
1.4356586e-08
1.4494428e-08
1.4689441e-08
1.4943e-08
1.5257047e-08
1.5634114e-08
1.607734e-08
1.6590507e-08
1.7178083e-08
1.7845275e-08
1.8598099e-08
1.9443453e-08
2.0389213e-08
2.1444343e-08
2.2619012e-08
2.3924749e-08
2.5374605e-08
2.6983343e-08
2.8767662e-08
3.0746449e-08
3.2941065e-08
3.5375673e-08
3.8077611e-08
4.107781e-08
4.4411278e-08
4.8117616e-08
5.2241619e-08
5.683392e-08
6.1951682e-08
6.765935e-08
7.402942e-08
8.1143187e-08
8.9091441e-08
9.797504e-08
1.0790519e-07
1.1900336e-07
1.3140052e-07
1.452354e-07
1.6065144e-07
1.7779175e-07
1.9679154e-07
2.1776712e-07
2.4080057e-07
2.6591929e-07
2.9306983e-07
3.2208593e-07
3.5265359e-07
3.8431382e-07
4.1656292e-07
4.4840913e-07
4.7767384e-07
5.0242087e-07
5.2043952e-07
5.2969064e-07
5.2804039e-07
5.1599461e-07
4.9167663e-07
2.0477085e-06
9.8038518e-07
5.0456132e-07
2.8546353e-07
1.7739956e-07
1.1969962e-07
8.6408097e-08
6.5827886e-08
5.2347823e-08
4.3094036e-08
3.649861e-08
3.1655597e-08
2.8015633e-08
2.5229334e-08
2.3066988e-08
2.1374184e-08
2.0042621e-08
1.8994702e-08
1.8174206e-08
1.7539784e-08
1.7060642e-08
1.6713627e-08
1.6481221e-08
1.6350134e-08
1.6310317e-08
1.6354242e-08
1.6476383e-08
1.667284e-08
1.6941058e-08
1.727962e-08
1.768809e-08
1.8166904e-08
1.87173e-08
1.9341259e-08
2.0041468e-08
2.08213e-08
2.1684828e-08
2.2636834e-08
2.3682822e-08
2.4829044e-08
2.6082554e-08
2.7451268e-08
2.8944029e-08
3.0570682e-08
3.2342149e-08
3.4270541e-08
3.6369269e-08
3.8653165e-08
4.1138637e-08
4.3843823e-08
4.6788766e-08
4.999563e-08
5.3488901e-08
5.7295666e-08
6.1445863e-08
6.5972598e-08
7.0912478e-08
7.6305978e-08
8.2197864e-08
8.8637624e-08
9.5679936e-08
1.0338522e-07
1.1182016e-07
1.2105829e-07
1.311806e-07
1.4227609e-07
1.5444246e-07
1.6778653e-07
1.8242467e-07
1.9848322e-07
2.1609831e-07
2.3541561e-07
2.565895e-07
2.7978134e-07
3.0515687e-07
3.3288212e-07
3.6311744e-07
3.9600902e-07
4.3167729e-07
4.7020074e-07
5.1159492e-07
5.5578418e-07
6.0256615e-07
6.5156592e-07
7.021806e-07
7.5351237e-07
8.0429207e-07
8.527968e-07
8.9677973e-07
9.3372655e-07
9.6105586e-07
9.7399527e-07
9.6850369e-07
9.404136e-07
8.8576605e-07
8.0307729e-07
6.9189404e-07
5.6294368e-07
4.2601115e-07
2.0966095e-06
1.0874861e-06
6.3427053e-07
4.1580231e-07
3.0061509e-07
2.3434422e-07
1.9312691e-07
1.6578136e-07
1.4669394e-07
1.3284999e-07
1.2252788e-07
1.1468911e-07
1.0868312e-07
1.0407375e-07
1.0056177e-07
9.7939497e-08
9.6058523e-08
9.4810425e-08
9.4114977e-08
9.3912567e-08
9.4159014e-08
9.4822198e-08
9.5879402e-08
9.7315506e-08
9.9121696e-08
1.0129448e-07
1.0383497e-07
1.0674849e-07
1.1004412e-07
1.1373463e-07
1.1783607e-07
1.2236798e-07
1.2735338e-07
1.3281871e-07
1.387941e-07
1.4531329e-07
1.5241418e-07
1.6013902e-07
1.6853458e-07
1.7765238e-07
1.8754938e-07
1.9828846e-07
2.0993882e-07
2.225766e-07
2.3628545e-07
2.5115733e-07
2.6729325e-07
2.8480418e-07
3.0381199e-07
3.2445051e-07
3.4686669e-07
3.7122184e-07
3.97693e-07
4.2647448e-07
4.5777939e-07
4.9184135e-07
5.2891634e-07
5.6928463e-07
6.1325268e-07
6.6115527e-07
7.1335748e-07
7.7025677e-07
8.3228466e-07
8.9990845e-07
9.7363228e-07
1.0539977e-06
1.1415834e-06
1.2370032e-06
1.3409032e-06
1.4539556e-06
1.5768503e-06
1.7102819e-06
1.8549318e-06
2.0114435e-06
2.1803894e-06
2.3622268e-06
2.5572407e-06
2.7654707e-06
2.9866168e-06
3.2199232e-06
3.4640334e-06
3.7168146e-06
3.9751467e-06
4.2346763e-06
4.4895343e-06
4.7320236e-06
4.9522915e-06
5.1380071e-06
5.2740868e-06
5.3433493e-06
5.3284331e-06
5.2092992e-06
4.9636385e-06
4.5706536e-06
4.0099152e-06
3.2880046e-06
2.3994575e-06
1.4858729e-06
5.8338981e-07
2.9802607e-07
3.194942e-07
4.4649494e-07
3.5349554e-07
2.1339115e-07
1.346069e-07
1.079407e-07
1.0678797e-07
1.1661995e-07
1.3085187e-07
1.4583217e-07
1.5957291e-07
1.7204346e-07
1.8429238e-07
1.9810541e-07
2.1526925e-07
2.3714469e-07
2.67998e-07
3.0263586e-07
5.2924237e-07
2.5567061e-07
3.9008546e-07
3.5470856e-07
2.3747887e-07
1.5404084e-07
1.1880691e-07
1.1314666e-07
1.2246756e-07
1.3877713e-07
1.571722e-07
1.7459504e-07
1.9033389e-07
2.0532199e-07
2.2154807e-07
2.4124845e-07
2.6688384e-07
3.0050358e-07
3.4940972e-07
1.3960067e-06
2.7876247e-07
3.3952997e-07
3.4420107e-07
2.5485105e-07
1.7286939e-07
1.3114151e-07
1.2094721e-07
1.2948607e-07
1.4807559e-07
1.7067427e-07
1.9293813e-07
2.1315992e-07
2.3187462e-07
2.5142765e-07
2.7386001e-07
3.0452045e-07
3.3997768e-07
4.041641e-07
3.1056573e-06
4.2825883e-07
3.1238548e-07
3.2767922e-07
2.6536922e-07
1.8989093e-07
1.4426568e-07
1.2996926e-07
1.3757254e-07
1.5858111e-07
1.8612765e-07
2.1446942e-07
2.4061761e-07
2.6424737e-07
2.8834782e-07
3.1385498e-07
3.5079839e-07
3.8790375e-07
4.6776487e-07
5.7281395e-06
7.2799674e-07
3.2339516e-07
3.1221545e-07
2.7013497e-07
2.0427101e-07
1.5741621e-07
1.3979531e-07
1.4639797e-07
1.6981733e-07
2.028448e-07
2.383768e-07
2.7195443e-07
3.0178952e-07
3.3183317e-07
3.6089916e-07
4.0530489e-07
4.4416304e-07
5.4005359e-07
9.1622487e-06
1.1775417e-06
3.8116535e-07
3.0469803e-07
2.7121676e-07
2.1566849e-07
1.698948e-07
1.4993749e-07
1.5556561e-07
1.8123742e-07
2.1998366e-07
2.6353443e-07
3.059175e-07
3.4322862e-07
3.8064279e-07
4.1382884e-07
4.6669445e-07
5.0746119e-07
6.1925989e-07
1.3145119e-05
1.7495067e-06
4.8589578e-07
3.1022143e-07
2.7111447e-07
2.2420132e-07
1.8112259e-07
1.5985772e-07
1.6459672e-07
1.9219782e-07
2.3651183e-07
2.884354e-07
3.4061355e-07
3.8645211e-07
4.3250171e-07
4.7037324e-07
5.3240949e-07
5.7530241e-07
7.0215293e-07
1.7270646e-05
2.3905788e-06
6.2878045e-07
3.3076848e-07
2.7209736e-07
2.3031861e-07
1.906798e-07
1.690164e-07
1.7297118e-07
2.0202102e-07
2.5131737e-07
3.1134262e-07
3.736559e-07
4.2860858e-07
4.8414729e-07
5.2716337e-07
5.9864175e-07
6.4400557e-07
7.8426225e-07
2.1043805e-05
3.0269908e-06
7.9329271e-07
3.6458463e-07
2.7555704e-07
2.3459621e-07
1.9832294e-07
1.7693874e-07
1.8020341e-07
2.1011102e-07
2.6341419e-07
3.3060783e-07
4.0257633e-07
4.6655088e-07
5.3177603e-07
5.8015049e-07
6.607489e-07
7.0907828e-07
8.604696e-07
2.3966333e-05
3.5751249e-06
9.5802532e-07
4.0653261e-07
2.8157952e-07
2.3749877e-07
2.0396469e-07
1.832743e-07
1.8592244e-07
2.1606959e-07
2.7215493e-07
3.4503722e-07
4.25366e-07
4.9749916e-07
5.7180374e-07
6.2537747e-07
7.1410954e-07
7.6598162e-07
9.2600019e-07
2.5634868e-05
3.9566005e-06
1.1004282e-06
4.4937355e-07
2.8892633e-07
2.391982e-07
2.0762838e-07
1.8783775e-07
1.899397e-07
2.197879e-07
2.7739717e-07
3.5420475e-07
4.4100057e-07
5.197559e-07
6.0176532e-07
6.5994336e-07
7.5524933e-07
8.111604e-07
9.776036e-07
2.5826051e-05
4.1151581e-06
1.2008578e-06
4.8556722e-07
2.9546524e-07