/*--------------------------------*- C++ -*----------------------------------*\
| =========                 |                                                 |
| \\      /  F ield         | OpenFOAM: The Open Source CFD Toolbox           |
|  \\    /   O peration     | Version:  2406                                  |
|   \\  /    A nd           | Website:  www.openfoam.com                      |
|    \\/     M anipulation  |                                                 |
\*---------------------------------------------------------------------------*/
FoamFile
{
    version     2.0;
    format      ascii;
    arch        "LSB;label=32;scalar=64";
    class       volScalarField;
    location    "9140";
    object      nutMean;
}
// * * * * * * * * * * * * * * * * * * * * * * * * * * * * * * * * * * * * * //

dimensions      [0 2 -1 0 0 0 0];

internalField   nonuniform List<scalar> 
94692
(
8.45735e-07
8.1015266e-07
7.8056265e-07
7.5546947e-07
7.3384486e-07
7.1495897e-07
6.9827846e-07
6.8340441e-07
6.7003161e-07
6.5792251e-07
6.4688897e-07
6.3678004e-07
6.2747283e-07
6.188664e-07
6.1087658e-07
6.034331e-07
5.9647624e-07
5.8995524e-07
5.8382636e-07
5.7805198e-07
5.7259925e-07
5.6743954e-07
5.6254763e-07
5.5790133e-07
5.5348088e-07
5.4926879e-07
5.4524935e-07
5.4140853e-07
5.3773366e-07
5.3421336e-07
5.3083729e-07
5.2759611e-07
5.2448127e-07
5.2148504e-07
5.1860031e-07
5.1582059e-07
5.1313993e-07
5.1055288e-07
5.0805438e-07
5.0563985e-07
5.0330499e-07
5.010459e-07
4.9885894e-07
4.9674079e-07
4.9468835e-07
4.9269882e-07
4.9076958e-07
4.8889829e-07
4.8708276e-07
4.8532106e-07
4.8361141e-07
4.8195228e-07
4.8034229e-07
4.7878029e-07
4.7726532e-07
4.7579665e-07
4.7437373e-07
4.7299631e-07
4.7166432e-07
4.7037802e-07
4.6913792e-07
4.679449e-07
4.6680016e-07
4.657053e-07
4.6466238e-07
4.6367393e-07
4.6274301e-07
4.6187331e-07
4.6106913e-07
4.6033552e-07
4.596783e-07
4.5910408e-07
4.5862036e-07
4.5823544e-07
4.5795845e-07
4.5779918e-07
4.5776787e-07
4.5787484e-07
4.5812993e-07
4.5854165e-07
4.5911602e-07
4.5985507e-07
4.6075487e-07
4.6180337e-07
4.6297818e-07
4.6424526e-07
4.6555992e-07
4.6687307e-07
4.6814775e-07
4.6939437e-07
4.7073812e-07
4.7253742e-07
4.7569403e-07
4.8223784e-07
4.9573484e-07
5.2162479e-07
5.6808689e-07
6.4535253e-07
7.570668e-07
8.45759e-07
8.1018769e-07
7.8060507e-07
7.5551682e-07
7.3389572e-07
7.1501231e-07
6.9833364e-07
6.8346089e-07
6.7008904e-07
6.579806e-07
6.4694755e-07
6.3683894e-07
6.2753196e-07
6.1892563e-07
6.1093593e-07
6.0349247e-07
5.9653561e-07
5.9001455e-07
5.8388565e-07
5.7811122e-07
5.7265845e-07
5.6749872e-07
5.6260683e-07
5.5796058e-07
5.5354025e-07
5.4932834e-07
5.4530915e-07
5.4146867e-07
5.3779423e-07
5.3427447e-07
5.3089907e-07
5.2765867e-07
5.2454478e-07
5.2154964e-07
5.1866618e-07
5.1588792e-07
5.1320894e-07
5.1062378e-07
5.0812745e-07
5.0571535e-07
5.0338324e-07
5.0112722e-07
4.989437e-07
4.968294e-07
4.9478125e-07
4.927965e-07
4.9087258e-07
4.8900719e-07
4.871982e-07
4.8544373e-07
4.8374208e-07
4.8209177e-07
4.804915e-07
4.7894019e-07
4.7743697e-07
4.7598117e-07
4.7457236e-07
4.7321035e-07
4.7189518e-07
4.7062718e-07
4.6940697e-07
4.682355e-07
4.6711406e-07
4.6604433e-07
4.650284e-07
4.6406884e-07
4.6316875e-07
4.6233177e-07
4.6156215e-07
4.6086483e-07
4.6024543e-07
4.5971034e-07
4.5926667e-07
4.5892229e-07
4.5868574e-07
4.5856606e-07
4.5857259e-07
4.5871457e-07
4.5900054e-07
4.5943748e-07
4.6002971e-07
4.6077731e-07
4.6167427e-07
4.6270632e-07
4.6384883e-07
4.6506559e-07
4.6630977e-07
4.6752993e-07
4.6868557e-07
4.6977962e-07
4.7091906e-07
4.7241204e-07
4.7484454e-07
4.7920665e-07
4.8830354e-07
5.0748142e-07
5.4539766e-07
6.1395544e-07
7.1833098e-07
8.457913e-07
8.1022905e-07
7.8065261e-07
7.555688e-07
7.3395091e-07
7.1506987e-07
6.9839292e-07
6.8352145e-07
6.7015056e-07
6.5804283e-07
6.4701028e-07
6.3690201e-07
6.2759524e-07
6.1898902e-07
6.109993e-07
6.0355576e-07
5.9659877e-07
5.9007753e-07
5.8394837e-07
5.7817362e-07
5.7272049e-07
5.6756033e-07
5.6266794e-07
5.5802113e-07
5.5360015e-07
5.4938749e-07
5.4536747e-07
5.4152604e-07
5.3785054e-07
5.3432958e-07
5.3095283e-07
5.2771092e-07
5.2459534e-07
5.2159831e-07
5.1871274e-07
5.1593213e-07
5.1325052e-07
5.1066244e-07
5.0816285e-07
5.0574711e-07
5.0341096e-07
5.0115046e-07
4.9896196e-07
4.9684211e-07
4.9478783e-07
4.9279626e-07
4.9086479e-07
4.8899102e-07
4.8717276e-07
4.8540802e-07
4.8369502e-07
4.8203214e-07
4.8041799e-07
4.7885135e-07
4.7733119e-07
4.7585671e-07
4.7442728e-07
4.7304253e-07
4.717023e-07
4.7040669e-07
4.6915609e-07
4.6795117e-07
4.6679293e-07
4.6568274e-07
4.6462237e-07
4.63614e-07
4.6266032e-07
4.6176456e-07
4.6093049e-07
4.6016254e-07
4.5946577e-07
4.5884595e-07
4.5830954e-07
4.5786366e-07
4.5751602e-07
4.5727474e-07
4.5714811e-07
4.5714416e-07
4.5727002e-07
4.5753106e-07
4.5792968e-07
4.5846377e-07
4.5912473e-07
4.5989539e-07
4.6074789e-07
4.6164239e-07
4.6252806e-07
4.633486e-07
4.6405652e-07
4.6464248e-07
4.6518923e-07
4.6596607e-07
4.6763925e-07
4.716275e-07
4.798876e-07
4.9599405e-07
5.2645962e-07
5.8366021e-07
6.7370597e-07
8.4581873e-07
8.1026485e-07
7.8069417e-07
7.5561433e-07
7.339993e-07
7.1512035e-07
6.9844502e-07
6.8357475e-07
6.7020478e-07
6.5809774e-07
6.4706574e-07
6.3695789e-07
6.2765147e-07
6.1904552e-07
6.1105606e-07
6.0361273e-07
5.9665591e-07
5.9013482e-07
5.8400583e-07
5.7823124e-07
5.7277828e-07
5.6761831e-07
5.6272615e-07
5.5807959e-07
5.5365892e-07
5.4944662e-07
5.4542703e-07
5.4158609e-07
5.3791118e-07
5.3439089e-07
5.3101493e-07
5.2777392e-07
5.2465937e-07
5.2166353e-07
5.187793e-07
5.1600023e-07
5.1332035e-07
5.1073423e-07
5.0823684e-07
5.0582359e-07
5.0349023e-07
5.0123284e-07
4.9904782e-07
4.9693186e-07
4.948819e-07
4.9289514e-07
4.9096901e-07
4.8910115e-07
4.8728945e-07
4.8553196e-07
4.8382695e-07
4.821729e-07
4.8056846e-07
4.790125e-07
4.7750407e-07
4.7604245e-07
4.7462711e-07
4.7325776e-07
4.7193434e-07
4.7065705e-07
4.6942636e-07
4.6824303e-07
4.6710817e-07
4.660232e-07
4.6498995e-07
4.6401065e-07
4.63088e-07
4.6222517e-07
4.6142587e-07
4.6069434e-07
4.6003539e-07
4.5945441e-07
4.5895732e-07
4.5855051e-07
4.5824069e-07
4.5803473e-07
4.5793923e-07
4.5796014e-07
4.5810196e-07
4.5836685e-07
4.5875335e-07
4.5925483e-07
4.598576e-07
4.605389e-07
4.612652e-07
4.6199133e-07
4.6266203e-07
4.632179e-07
4.6360958e-07
4.6382533e-07
4.6394037e-07
4.6419597e-07
4.6506407e-07
4.6743486e-07
4.7336159e-07
4.8635914e-07
5.1168934e-07
5.6073107e-07
6.3814414e-07
8.4585091e-07
8.1030392e-07
7.807379e-07
7.5566143e-07
7.3404882e-07
7.1517164e-07
6.9849754e-07
6.8362821e-07
6.7025892e-07
6.5815237e-07
6.471207e-07
6.3701307e-07
6.2770676e-07
6.1910087e-07
6.1111135e-07
6.0366794e-07
5.9671103e-07
5.9018981e-07
5.8406063e-07
5.7828584e-07
5.7283265e-07
5.676724e-07
5.6277994e-07
5.5813303e-07
5.5371196e-07
5.4949922e-07
5.4547911e-07
5.4163761e-07
5.3796205e-07
5.3444103e-07
5.3106425e-07
5.2782233e-07
5.2470676e-07
5.2170977e-07
5.1882426e-07
5.1604375e-07
5.1336227e-07
5.1077435e-07
5.0827496e-07
5.0585947e-07
5.0352361e-07
5.0126343e-07
4.9907531e-07
4.9695589e-07
4.9490208e-07
4.9291102e-07
4.9098012e-07
4.8910695e-07
4.8728933e-07
4.8552527e-07
4.8381295e-07
4.8215078e-07
4.8053732e-07
4.7897133e-07
4.7745176e-07
4.7597776e-07
4.7454867e-07
4.7316403e-07
4.7182361e-07
4.7052741e-07
4.6927568e-07
4.6806891e-07
4.669079e-07
4.6579374e-07
4.6472787e-07
4.6371204e-07
4.6274841e-07
4.6183952e-07
4.6098831e-07
4.6019813e-07
4.5947274e-07
4.5881624e-07
4.5823304e-07
4.577277e-07
4.5730477e-07
4.5696852e-07
4.5672252e-07
4.565691e-07
4.5650866e-07
4.5653867e-07
4.5665255e-07
4.5683829e-07
4.5707699e-07
4.5734147e-07
4.5759553e-07
4.5779439e-07
4.5788779e-07
4.5782746e-07
4.5758204e-07
4.571634e-07
4.5667065e-07
4.5636212e-07
4.5675877e-07
4.5879544e-07
4.641279e-07
4.7568419e-07
4.9772611e-07
5.4076206e-07
6.0839602e-07
8.4587665e-07
8.103363e-07
7.8077483e-07
7.5570143e-07
7.3409103e-07
7.1521546e-07
6.9854262e-07
6.8367421e-07
6.7030562e-07
6.5819959e-07
6.4716834e-07
6.3706101e-07
6.2775497e-07
6.1914925e-07
6.1115993e-07
6.0371666e-07
5.9675984e-07
5.902387e-07
5.841096e-07
5.7833488e-07
5.7288176e-07
5.6772159e-07
5.6282921e-07
5.581824e-07
5.5376145e-07
5.4954885e-07
5.4552891e-07
5.416876e-07
5.3801228e-07
5.3449154e-07
5.3111508e-07
5.2787353e-07
5.2475838e-07
5.2176187e-07
5.188769e-07
5.16097e-07
5.134162e-07
5.1082903e-07
5.0833047e-07
5.0591589e-07
5.0358102e-07
5.0132191e-07
4.9913493e-07
4.9701673e-07
4.949642e-07
4.9297448e-07
4.9104496e-07
4.891732e-07
4.8735699e-07
4.855943e-07
4.8388329e-07
4.8222229e-07
4.8060981e-07
4.7904453e-07
4.7752529e-07
4.7605112e-07
4.7462118e-07
4.7323485e-07
4.7189165e-07
4.7059128e-07
4.6933365e-07
4.6811882e-07
4.6694708e-07
4.6581888e-07
4.6473489e-07
4.6369596e-07
4.6270314e-07
4.6175762e-07
4.6086074e-07
4.6001396e-07
4.5921872e-07
4.5847642e-07
4.5778823e-07
4.5715493e-07
4.5657665e-07
4.5605251e-07
4.5558023e-07
4.5515555e-07
4.5477161e-07
4.5441816e-07
4.5408079e-07
4.5374011e-07
4.5337124e-07
4.5294377e-07
4.5242281e-07
4.5177179e-07
4.5095817e-07
4.4996345e-07
4.4879971e-07
4.4753505e-07
4.4633218e-07
4.4550471e-07
4.4550925e-07
4.4696518e-07
4.5146736e-07
4.617817e-07
4.8158889e-07
5.2040253e-07
5.8100702e-07
8.4590657e-07
8.1037147e-07
7.8081352e-07
7.5574267e-07
7.3413407e-07
7.1525982e-07
6.9858786e-07
6.837201e-07
6.7035198e-07
6.5824628e-07
6.4721522e-07
6.3710803e-07
6.2780201e-07
6.1919631e-07
6.1120689e-07
6.0376351e-07
5.9680658e-07
5.902853e-07
5.8415602e-07
5.7838109e-07
5.7292772e-07
5.6776726e-07
5.6287452e-07
5.582273e-07
5.5380585e-07
5.4959266e-07
5.4557202e-07
5.4172988e-07
5.3805356e-07
5.3453165e-07
5.311538e-07
5.2791062e-07
5.2479357e-07
5.2179482e-07
5.1890725e-07
5.1612431e-07
5.1343999e-07
5.1084874e-07
5.0834545e-07
5.0592543e-07
5.0358429e-07
5.0131798e-07
4.9912274e-07
4.9699508e-07
4.9493174e-07
4.9292968e-07
4.9098609e-07
4.890983e-07
4.8726387e-07
4.8548046e-07
4.8374593e-07
4.8205823e-07
4.8041548e-07
4.7881587e-07
4.7725773e-07
4.7573947e-07
4.742596e-07
4.7281668e-07
4.7140938e-07
4.7003637e-07
4.686964e-07
4.6738823e-07
4.6611061e-07
4.6486227e-07
4.636419e-07
4.6244807e-07
4.612792e-07
4.6013353e-07
4.5900897e-07
4.5790305e-07
4.568128e-07
4.5573456e-07
4.5466379e-07
4.5359487e-07
4.5252083e-07
4.5143297e-07
4.503206e-07
4.4917059e-07
4.479671e-07
4.4669129e-07
4.4532128e-07
4.438325e-07
4.4219869e-07
4.4039389e-07
4.3839601e-07
4.3619253e-07
4.3378918e-07
4.3122253e-07
4.2857752e-07
4.2601141e-07
4.2378634e-07
4.223156e-07
4.221225e-07
4.2377455e-07
4.2866456e-07
4.3917215e-07
4.5840926e-07
4.9487992e-07
5.5104707e-07
8.4592937e-07
8.1039963e-07
7.8084533e-07
7.5577693e-07
7.341701e-07
7.1529713e-07
6.9862619e-07
6.8375917e-07
6.7039159e-07
6.5828629e-07
6.4725555e-07
6.3714855e-07
6.2784267e-07
6.1923699e-07
6.1124755e-07
6.0380403e-07
5.9684681e-07
5.9032508e-07
5.841952e-07
5.7841945e-07
5.7296499e-07
5.6780313e-07
5.6290864e-07
5.5825922e-07
5.5383507e-07
5.4961858e-07
5.4559396e-07
5.4174705e-07
5.3806507e-07
5.3453649e-07
5.3115082e-07
5.2789851e-07
5.2477088e-07
5.2175994e-07
5.1885836e-07
5.1605941e-07
5.1335685e-07
5.107449e-07
5.082182e-07
5.0577175e-07
5.0340088e-07
5.011012e-07
4.988686e-07
4.9669918e-07
4.9458926e-07
4.9253531e-07
4.90534e-07
4.8858211e-07
4.8667652e-07
4.8481424e-07
4.8299233e-07
4.812079e-07
4.794581e-07
4.7774008e-07
4.7605099e-07
4.7438794e-07
4.7274797e-07
4.7112802e-07
4.6952492e-07
4.6793533e-07
4.663557e-07
4.6478224e-07
4.6321085e-07
4.6163707e-07
4.6005599e-07
4.5846219e-07
4.5684965e-07
4.5521163e-07
4.5354055e-07
4.5182787e-07
4.5006392e-07
4.4823778e-07
4.4633708e-07
4.4434783e-07
4.4225432e-07
4.4003896e-07
4.3768231e-07
4.3516319e-07
4.3245899e-07
4.2954641e-07
4.2640262e-07
4.2300717e-07
4.1934489e-07
4.1541011e-07
4.1121248e-07
4.067849e-07
4.0219385e-07
3.9755248e-07
3.9303688e-07
3.889062e-07
3.8552798e-07
3.8341159e-07
3.8307932e-07
3.8494992e-07
3.903483e-07
4.0144774e-07
4.2102423e-07
4.5649245e-07
5.1045373e-07
8.4595581e-07
8.1043009e-07
7.8087848e-07
7.5581201e-07
7.3420653e-07
7.1533451e-07
6.9866415e-07
6.8379749e-07
6.7043003e-07
6.5832462e-07
6.4729343e-07
6.3718566e-07
6.2787851e-07
6.1927103e-07
6.11279e-07
6.0383202e-07
5.9687026e-07
5.9034265e-07
5.8420528e-07
5.7842016e-07
5.7295415e-07
5.6777822e-07
5.6286676e-07
5.5819712e-07
5.537491e-07
5.4950467e-07
5.454476e-07
5.4156329e-07
5.3783848e-07
5.3426116e-07
5.3082034e-07
5.2750597e-07
5.243088e-07
5.212203e-07
5.1823257e-07
5.1533826e-07
5.1253051e-07
5.0980289e-07
5.0714936e-07
5.045642e-07
5.0204199e-07
4.9957754e-07
4.9716589e-07
4.9480225e-07
4.9248198e-07
4.9020055e-07
4.8795352e-07
4.857365e-07
4.8354513e-07
4.8137503e-07
4.7922181e-07
4.7708099e-07
4.7494799e-07
4.7281811e-07
4.7068646e-07
4.6854795e-07
4.6639724e-07
4.6422866e-07
4.6203622e-07
4.5981351e-07
4.5755366e-07
4.5524927e-07
4.5289236e-07
4.5047428e-07
4.479856e-07
4.4541611e-07
4.4275468e-07
4.3998917e-07
4.371064e-07
4.3409204e-07
4.309306e-07
4.276054e-07
4.240986e-07
4.2039133e-07
4.1646391e-07
4.122962e-07
4.0786819e-07
4.0316086e-07
3.981574e-07
3.928449e-07
3.8721666e-07
3.8127524e-07
3.7503636e-07
3.6853387e-07
3.6182583e-07
3.5500183e-07
3.4819167e-07
3.4157556e-07
3.3539628e-07
3.2997429e-07
3.2572766e-07
3.2320056e-07
3.2290232e-07
3.2526213e-07
3.3145676e-07
3.4335063e-07
3.6342012e-07
3.9793256e-07
4.5029818e-07
8.4597522e-07
8.1045392e-07
7.809053e-07
7.5584073e-07
7.3423644e-07
7.1536491e-07
6.9869427e-07
6.8382624e-07
6.7045595e-07
6.5834572e-07
6.4730714e-07
6.3718859e-07
6.2786647e-07
6.1923879e-07
6.1122038e-07
6.0373963e-07
5.9673555e-07
5.901559e-07
5.8395552e-07
5.7809519e-07
5.7254054e-07
5.6726131e-07
5.6223072e-07
5.5742495e-07
5.5282269e-07
5.4840483e-07
5.4415412e-07
5.4005499e-07
5.3609325e-07
5.32256e-07
5.2853142e-07
5.2490865e-07
5.213777e-07
5.1792931e-07
5.1455487e-07
5.1124637e-07
5.0799627e-07
5.0479748e-07
5.0164331e-07
4.9852739e-07
4.9544362e-07
4.9238612e-07
4.8934922e-07
4.8632736e-07
4.8331513e-07
4.8030714e-07
4.7729806e-07
4.7428255e-07
4.7125521e-07
4.6821057e-07
4.6514306e-07
4.6204694e-07
4.5891628e-07
4.5574493e-07
4.5252647e-07
4.4925419e-07
4.4592102e-07
4.4251952e-07
4.390418e-07
4.3547954e-07
4.318239e-07
4.2806552e-07
4.2419447e-07
4.2020021e-07
4.1607163e-07
4.11797e-07
4.0736401e-07
4.027598e-07
3.9797105e-07
3.9298411e-07
3.8778513e-07
3.8236039e-07
3.7669656e-07
3.7078123e-07
3.6460347e-07
3.5815461e-07
3.5142927e-07
3.4442656e-07
3.371516e-07
3.2961739e-07
3.2184703e-07
3.1387625e-07
3.0575642e-07
2.9755795e-07
2.8937404e-07
2.81325e-07
2.7356315e-07
2.6627876e-07
2.5970781e-07
2.5414297e-07
2.4995016e-07
2.4759334e-07
2.4745867e-07
2.4997442e-07
2.5614093e-07
2.6751768e-07
2.8631553e-07
3.1755579e-07
3.6582291e-07
8.4599726e-07
8.1047893e-07
7.8093161e-07
7.5586642e-07
7.3425841e-07
7.1537836e-07
6.9869198e-07
6.8379808e-07
6.7038829e-07
6.5822107e-07
6.4710379e-07
6.3688063e-07
6.274236e-07
6.186266e-07
6.1040036e-07
6.0266965e-07
5.9537007e-07
5.8844639e-07
5.8185087e-07
5.7554218e-07
5.6948423e-07
5.6364549e-07
5.5799831e-07
5.525184e-07
5.471843e-07
5.4197716e-07
5.3688021e-07
5.3187866e-07
5.2695931e-07
5.2211047e-07
5.1732172e-07
5.1258367e-07
5.0788798e-07
5.0322705e-07
4.9859406e-07
4.9398281e-07
4.8938756e-07
4.8480304e-07
4.8022437e-07
4.7564701e-07
4.710666e-07
4.6647901e-07
4.6188023e-07
4.5726637e-07
4.5263358e-07
4.4797804e-07
4.432959e-07
4.385833e-07
4.3383626e-07
4.2905074e-07
4.2422253e-07
4.1934732e-07
4.1442061e-07
4.0943771e-07
4.0439374e-07
3.9928362e-07
3.9410204e-07
3.888435e-07
3.8350225e-07
3.7807238e-07
3.7254775e-07
3.6692212e-07
3.6118908e-07
3.5534221e-07
3.4937505e-07
3.4328131e-07
3.3705486e-07
3.3069e-07
3.2418154e-07
3.1752512e-07
3.107174e-07
3.0375646e-07
2.9664216e-07
2.8937663e-07
2.8196477e-07
2.7441496e-07
2.6673974e-07
2.5895666e-07
2.5108918e-07
2.4316774e-07
2.3523085e-07
2.2732631e-07
2.1951251e-07
2.1185984e-07
2.0445226e-07
1.9738911e-07
1.9078741e-07
1.8478506e-07
1.7954581e-07
1.7526721e-07
1.7219363e-07
1.7063563e-07
1.7082126e-07
1.731616e-07
1.7838084e-07
1.8761309e-07
2.0260602e-07
2.2696666e-07
2.6584318e-07
8.4601238e-07
8.1049344e-07
7.8093479e-07
7.558384e-07
7.3416699e-07
7.151764e-07
6.9831586e-07
6.8316713e-07
6.6940541e-07
6.5677389e-07
6.4506712e-07
6.3411871e-07
6.2379295e-07
6.1397861e-07
6.0458413e-07
5.955343e-07
5.8676709e-07
5.7823164e-07
5.6988626e-07
5.6169707e-07
5.5363661e-07
5.4568288e-07
5.3781834e-07
5.3002931e-07
5.2230515e-07
5.1463789e-07
5.070216e-07
4.9945214e-07
4.9192667e-07
4.8444351e-07
4.7700182e-07
4.6960137e-07
4.6224241e-07
4.5492548e-07
4.4765137e-07
4.4042092e-07
4.3323498e-07
4.2609429e-07
4.1899961e-07
4.1195149e-07
4.049503e-07
3.9799619e-07
3.910891e-07
3.8422871e-07
3.7741447e-07
3.7064559e-07
3.6392102e-07
3.5723947e-07
3.505994e-07
3.4399908e-07
3.3743653e-07
3.3090958e-07
3.2441587e-07
3.1795287e-07
3.115179e-07
3.0510816e-07
2.9872074e-07
2.9235265e-07
2.8600088e-07
2.7966242e-07
2.7333428e-07
2.670136e-07
2.6069766e-07
2.5438396e-07
2.4807029e-07
2.4175486e-07
2.3543634e-07
2.2911404e-07
2.2278801e-07
2.164592e-07
2.1012965e-07
2.038027e-07
1.9748318e-07
1.9117772e-07
1.8489497e-07
1.78646e-07
1.7244454e-07
1.6630744e-07
1.6025504e-07
1.5431158e-07
1.4850564e-07
1.4287063e-07
1.3744526e-07
1.3227399e-07
1.2740768e-07
1.2290415e-07
1.1882918e-07
1.1525781e-07
1.1227682e-07
1.0998893e-07
1.0852012e-07
1.0802954e-07
1.0861526e-07
1.1061181e-07
1.1445316e-07
1.2082386e-07
1.3084495e-07
1.4666354e-07
1.7253662e-07
8.4601488e-07
8.1042875e-07
7.8068495e-07
7.5521082e-07
7.3289311e-07
7.1292036e-07
6.9468996e-07
6.7775015e-07
6.6175909e-07
6.464614e-07
6.3166694e-07
6.1723566e-07
6.0306973e-07
5.8910264e-07
5.7529132e-07
5.6161158e-07
5.4805258e-07
5.3461365e-07
5.213011e-07
5.0812615e-07
4.9510282e-07
4.8224671e-07
4.6957375e-07
4.570996e-07
4.4483881e-07
4.3280475e-07
4.2100897e-07
4.0946146e-07
3.9817017e-07
3.8714143e-07
3.7637979e-07
3.6588804e-07
3.5566754e-07
3.4571811e-07
3.3603841e-07
3.2662594e-07
3.1747711e-07
3.0858746e-07
2.9995191e-07
2.9156473e-07
2.8341962e-07
2.7550987e-07
2.6782845e-07
2.6036807e-07
2.5312122e-07
2.4608035e-07
2.3923776e-07
2.3258581e-07
2.2611681e-07
2.1982319e-07
2.1369745e-07
2.0773222e-07
2.0192026e-07
1.9625455e-07
1.9072819e-07
1.8533456e-07
1.8006721e-07
1.7491999e-07
1.6988697e-07
1.6496257e-07
1.6014145e-07
1.5541868e-07
1.5078964e-07
1.4625017e-07
1.4179648e-07
1.3742534e-07
1.33134e-07
1.2892033e-07
1.2478286e-07
1.2072087e-07
1.1673447e-07
1.1282471e-07
1.089937e-07
1.0524471e-07
1.0158236e-07
9.8012752e-08
9.4543654e-08
9.1184677e-08
8.794747e-08
8.4845917e-08
8.1896326e-08
7.9117592e-08
7.6531339e-08
7.4161989e-08
7.2036777e-08
7.0185654e-08
6.8641122e-08
6.7438011e-08
6.6613427e-08
6.6207148e-08
6.626292e-08
6.6829927e-08
6.7953558e-08
6.9864562e-08
7.276184e-08
7.696449e-08
8.3019803e-08
9.1945774e-08
1.0626593e-07
8.4579133e-07
8.0933712e-07
7.7769707e-07
7.490156e-07
7.2205043e-07
6.9600811e-07
6.704205e-07
6.4505006e-07
6.1981767e-07
5.947414e-07
5.6989114e-07
5.4536841e-07
5.2128487e-07
4.9774478e-07
4.748449e-07
4.5267059e-07
4.3128896e-07
4.1074992e-07
3.9108666e-07
3.7231756e-07
3.5444761e-07
3.3747081e-07
3.213719e-07
3.0612859e-07
2.917129e-07
2.7809302e-07
2.6523426e-07
2.5310041e-07
2.4165432e-07
2.3085884e-07
2.2067726e-07
2.1107364e-07
2.0201326e-07
1.9346265e-07
1.8538995e-07
1.7776487e-07
1.7055864e-07
1.6374416e-07
1.5729601e-07
1.5119031e-07
1.4540466e-07
1.3991812e-07
1.3471112e-07
1.297654e-07
1.2506391e-07
1.205908e-07
1.1633127e-07
1.1227155e-07
1.0839882e-07
1.0470116e-07
1.0116746e-07
9.7787413e-08
9.4551424e-08
9.1450598e-08
8.8476665e-08
8.5621978e-08
8.2879451e-08
8.0242556e-08
7.7705276e-08
7.5262115e-08
7.290805e-08
7.0638556e-08
6.8449575e-08
6.6337534e-08
6.4299343e-08
6.2332414e-08
6.043468e-08
5.860462e-08
5.6841297e-08
5.5144405e-08
5.3514318e-08
5.195216e-08
5.0459873e-08
4.9040314e-08
4.7697339e-08
4.6435919e-08
4.5262252e-08
4.4183886e-08
4.3209825e-08
4.2350649e-08
4.1618578e-08
4.1027512e-08
4.0592979e-08
4.0331968e-08
4.0262599e-08
4.0403543e-08
4.077314e-08
4.138812e-08
4.2261884e-08
4.3402273e-08
4.4808828e-08
4.6471862e-08
4.8453932e-08
5.0854796e-08
5.3712873e-08
5.7105893e-08
6.118796e-08
6.6334755e-08
7.3544321e-08
8.4277195e-07
7.9805373e-07
7.5256723e-07
7.0546233e-07
6.5717083e-07
6.0866802e-07
5.6101676e-07
5.151335e-07
4.7169806e-07
4.3114781e-07
3.937117e-07
3.5944546e-07
3.2827012e-07
3.0003387e-07
2.7454202e-07
2.5157095e-07
2.3089666e-07
2.1230202e-07
1.9557871e-07
1.8053193e-07
1.6698238e-07
1.547673e-07
1.4374018e-07
1.3377015e-07
1.2474078e-07
1.1654895e-07
1.0910339e-07
1.0232358e-07
9.6138407e-08
9.0485175e-08
8.5308548e-08
8.0559628e-08
7.6195222e-08
7.2177077e-08
6.8471337e-08
6.5047955e-08
6.1880221e-08
5.8944366e-08
5.6219247e-08
5.3685987e-08
5.1327708e-08
4.9129313e-08
4.7077264e-08
4.5159423e-08
4.336488e-08
4.1683829e-08
4.0107443e-08
3.8627777e-08
3.7237665e-08
3.593066e-08
3.4700951e-08
3.3543314e-08
3.245305e-08
3.1425956e-08
3.0458271e-08
2.9546662e-08
2.8688181e-08
2.7880261e-08
2.7120687e-08
2.6407596e-08
2.5739461e-08
2.5115103e-08
2.4533681e-08
2.3994711e-08
2.3498075e-08
2.3044044e-08
2.2633305e-08
2.2266994e-08
2.1946732e-08
2.1674683e-08
2.1453603e-08
2.128691e-08
2.1178759e-08
2.1134124e-08
2.1158896e-08
2.1259975e-08
2.1445378e-08
2.1724334e-08
2.210738e-08
2.2606419e-08
2.3234755e-08
2.4007043e-08
2.4939156e-08
2.6047892e-08
2.7350492e-08
2.8863871e-08
3.0603515e-08
3.2581932e-08
3.4806585e-08
3.727729e-08
3.9983842e-08
4.2919185e-08
4.6135497e-08
4.9590029e-08
5.3214951e-08
5.6940807e-08
6.0690322e-08
6.454661e-08
6.8577724e-08
8.1179614e-07
7.1381507e-07
6.1074886e-07
5.1398648e-07
4.2906127e-07
3.5735507e-07
2.9810149e-07
2.4967861e-07
2.1028581e-07
1.7824956e-07
1.5213313e-07
1.3075549e-07
1.1316685e-07
9.8606224e-08
8.6475364e-08
7.6305924e-08
6.7725757e-08
6.0442574e-08
5.4223892e-08
4.8883927e-08
4.4273481e-08
4.0272208e-08
3.6782475e-08
3.3724703e-08
3.1033628e-08
2.8655486e-08
2.6545712e-08
2.4667221e-08
2.2988963e-08
2.1484844e-08
2.0132831e-08
1.8914229e-08
1.7813127e-08
1.6815915e-08
1.591093e-08
1.5088129e-08
1.4338841e-08
1.3655564e-08
1.3031795e-08
1.2461882e-08
1.1940905e-08
1.146458e-08
1.1029174e-08
1.0631438e-08
1.0268548e-08
9.9380547e-09
9.6378464e-09
9.3661137e-09
9.1213192e-09
8.9021791e-09
8.7076408e-09
8.5368721e-09
8.3892465e-09
8.2643399e-09
8.1619223e-09
8.0819597e-09
8.0246136e-09
7.9902466e-09
7.9794292e-09
7.9929516e-09
8.031836e-09
8.0973559e-09
8.1910555e-09
8.3147766e-09
8.4706873e-09
8.6613172e-09
8.8895971e-09
9.1589054e-09
9.4731183e-09
9.8366695e-09
1.0254613e-08
1.0732696e-08
1.1277432e-08
1.1896184e-08
1.2597242e-08
1.3389911e-08
1.4284573e-08
1.5292754e-08
1.6427146e-08
1.7701593e-08
1.9131018e-08
2.0731243e-08
2.2518697e-08
2.4509955e-08
2.672106e-08
2.9166619e-08
3.1858622e-08
3.4805031e-08
3.8008252e-08
4.1464212e-08
4.5164728e-08
4.909814e-08
5.3171094e-08
5.7273509e-08
6.1266901e-08
6.5003238e-08
6.8306883e-08
7.114812e-08
7.3313528e-08
6.0032611e-07
3.8552765e-07
2.5314181e-07
1.7163538e-07
1.2015918e-07
8.671149e-08
6.4364485e-08
4.9027539e-08
3.8227812e-08
3.0436485e-08
2.468719e-08
2.0356097e-08
1.7031488e-08
1.443665e-08
1.2381055e-08
1.0730445e-08
9.3893518e-09
8.2877255e-09
7.3738981e-09
6.6092346e-09
5.9644403e-09
5.4170212e-09
4.9494996e-09
4.5481563e-09
4.2021143e-09
3.9026786e-09
3.6428431e-09
3.4169245e-09
3.2202844e-09
3.0491169e-09
2.9002888e-09
2.7712108e-09
2.6597392e-09
2.5640986e-09
2.48282e-09
2.4146941e-09
2.3587298e-09
2.3141241e-09
2.2802376e-09
2.2565761e-09
2.2427743e-09
2.2385834e-09
2.2438613e-09
2.2585658e-09
2.2827503e-09
2.3165612e-09
2.3602357e-09
2.4141033e-09
2.4785863e-09
2.5542037e-09
2.6415751e-09
2.741427e-09
2.8545997e-09
2.982056e-09
3.1248916e-09
3.2843472e-09
3.4618217e-09
3.6588886e-09
3.8773134e-09
4.1190737e-09
4.3863816e-09
4.6817091e-09
5.0078153e-09
5.3677781e-09
5.7650268e-09
6.2033797e-09
6.687083e-09
7.2208529e-09
7.8099191e-09
8.4600695e-09
9.1776932e-09
9.9698215e-09
1.0844161e-08
1.1809117e-08
1.2873794e-08
1.4047981e-08
1.5342078e-08
1.6766991e-08
1.833393e-08
2.0054121e-08
2.1938377e-08
2.3996495e-08
2.623645e-08
2.8663311e-08
3.1277872e-08
3.4074956e-08
3.7041424e-08
4.0153992e-08
4.3377187e-08
4.6663377e-08
4.9945902e-08
5.3079546e-08
5.5912969e-08
5.8283848e-08
6.0014315e-08
6.0948073e-08
6.0948498e-08
6.0047282e-08
5.8384041e-08
1.4976176e-07
5.9117662e-08
2.8460563e-08
1.5563441e-08
9.4546783e-09
6.2658729e-09
4.4516045e-09
3.3404618e-09
2.6176915e-09
2.1244453e-09
1.7748169e-09
1.5195246e-09
1.3287598e-09
1.1836787e-09
1.0718241e-09
9.847824e-10
9.1670411e-10
8.6344169e-10
8.2200166e-10
7.9019151e-10
7.663884e-10
7.4937442e-10
7.3823147e-10
7.3226702e-10
7.3095955e-10
7.3392156e-10
7.4087326e-10
7.5161944e-10
7.6603617e-10
7.8405723e-10
8.0567275e-10
8.3091774e-10
8.5986757e-10
8.9263718e-10
9.2937876e-10
9.7028422e-10
1.0155808e-09
1.06553e-09
1.1204332e-09
1.1806368e-09
1.2465304e-09
1.3185471e-09
1.3971685e-09
1.4829302e-09
1.5764262e-09
1.678314e-09
1.7893208e-09
1.9102495e-09
2.0419871e-09
2.1855115e-09
2.341902e-09
2.512349e-09
2.698165e-09
2.9007974e-09
3.1218416e-09
3.3630562e-09
3.6263791e-09
3.9139449e-09
4.2281044e-09
4.5714443e-09
4.9468086e-09
5.3573211e-09
5.8064084e-09
6.2978234e-09
6.8356676e-09
7.4244121e-09
8.0689162e-09
8.7744392e-09
9.5466463e-09
1.0391602e-08
1.1315749e-08
1.232586e-08
1.3428969e-08
1.463225e-08
1.5942853e-08
1.7367657e-08
1.8912945e-08
2.0583949e-08
2.2384256e-08
2.4315018e-08
2.6373946e-08
2.8554011e-08
3.0841842e-08
3.3215738e-08
3.5643301e-08
3.8078656e-08
4.0459356e-08
4.2703115e-08
4.4704721e-08
4.633553e-08
4.7441232e-08
4.7850157e-08
4.7377391e-08
4.5835057e-08
4.3044036e-08
3.8939035e-08
3.3504733e-08
2.7246486e-08
2.076987e-08
1.573105e-08
7.3676247e-09
4.1309442e-09
2.6666353e-09
1.9162738e-09
1.490928e-09
1.2290039e-09
1.056736e-09
9.3760417e-10
8.5213147e-10
7.8927341e-10
7.4238705e-10
7.0728727e-10
6.8121508e-10
6.6228761e-10
6.4920202e-10
6.4105138e-10
6.371614e-10
6.3704124e-10
6.4033953e-10
6.4681397e-10
6.562913e-10
6.6866269e-10
6.8387177e-10
7.0190299e-10
7.2277956e-10
7.4656102e-10
7.7333362e-10
8.0321404e-10
8.3634198e-10
8.728959e-10
9.1307559e-10
9.5710718e-10
1.0052487e-09
1.0577886e-09
1.1150553e-09
1.1774068e-09
1.2452345e-09
1.3189769e-09
1.3991261e-09
1.4862197e-09
1.5808438e-09
1.6836449e-09
1.7953346e-09
1.9166968e-09
2.0485931e-09
2.1919713e-09
2.3478733e-09
2.5174447e-09
2.701944e-09
2.9027557e-09
3.1214016e-09
3.3595543e-09
3.6190507e-09
3.9019093e-09
4.2103456e-09
4.5467913e-09
4.9139118e-09
5.3146276e-09
5.7521326e-09
6.2299163e-09
6.7517809e-09
7.321863e-09
7.944648e-09
8.6249826e-09
9.3680807e-09
1.0179522e-08
1.1065235e-08
1.2031471e-08
1.3084742e-08
1.4231744e-08
1.5479232e-08
1.6833848e-08
1.8301878e-08
1.9888932e-08
2.159952e-08
2.3436487e-08
2.5400308e-08
2.7488166e-08
2.9692818e-08
3.2001178e-08
3.4392608e-08
3.6836863e-08
3.929169e-08
4.1700102e-08
4.3987343e-08
4.605777e-08
4.7791791e-08
4.9043365e-08
4.9648655e-08
4.9439762e-08
4.8224164e-08
4.5789689e-08
4.1943651e-08
3.6504638e-08
2.9565798e-08
2.1124465e-08
1.2625673e-08
4.6817501e-09
2.8617625e-09
1.3262386e-08
4.5679949e-08
6.7416209e-08
6.9787134e-08
7.4055993e-08
9.9647588e-08
1.5727504e-07
2.4618568e-07
3.5004855e-07
4.4513341e-07
5.1726118e-07
5.6733839e-07
6.0352464e-07
6.346391e-07
6.6713575e-07
7.0450246e-07
7.522375e-07
8.0255878e-07
5.1887589e-09
9.7217883e-09
3.5068253e-08
5.9788579e-08
6.8526174e-08
7.4137605e-08
9.5026728e-08
1.4514818e-07
2.2917213e-07
3.3581922e-07
4.4147522e-07
5.2705423e-07
5.8875869e-07
6.3318967e-07
6.6969562e-07
7.0603733e-07
7.4781389e-07
7.9746378e-07
8.6416461e-07
1.1147562e-08
1.0125162e-08
2.7459365e-08
5.1819585e-08
6.5352696e-08
7.3335868e-08
9.1546643e-08
1.3553214e-07
2.1453094e-07
3.227906e-07
4.384372e-07
5.3839742e-07
6.1360831e-07
6.6807303e-07
7.1148975e-07
7.5186269e-07
7.9930433e-07
8.4917457e-07
9.3136473e-07
2.0007843e-08
1.4134829e-08
2.3277199e-08
4.4608028e-08
6.0999607e-08
7.1576393e-08
8.8598969e-08
1.2782248e-07
2.0199217e-07
3.1087671e-07
4.3569721e-07
5.5058002e-07
6.4103784e-07
7.0734531e-07
7.5945443e-07
8.042993e-07
8.5842605e-07
9.0808502e-07
1.0040098e-06
3.0294936e-08
2.0813302e-08
2.2496343e-08
3.8944585e-08
5.6198383e-08
6.8997189e-08
8.5777753e-08
1.2143735e-07
1.9111232e-07
2.9969379e-07
4.3250426e-07
5.622168e-07
6.692095e-07
7.4897343e-07
8.1155803e-07
8.6156235e-07
9.2317402e-07
9.727823e-07
1.0808618e-06
4.032645e-08
2.876411e-08
2.456901e-08
3.5259008e-08
5.1584639e-08
6.5861742e-08
8.2871274e-08
1.1591942e-07
1.8148746e-07
2.8891437e-07
4.2823032e-07
5.7200671e-07
6.9617162e-07
7.9063059e-07
8.6525626e-07
9.2122673e-07
9.9088755e-07
1.0408227e-06
1.1593928e-06
4.8687883e-08
3.6514999e-08
2.8508763e-08
3.358588e-08
4.7629255e-08
6.2479331e-08
7.9816168e-08
1.1094198e-07
1.7278125e-07
2.7828033e-07
4.2237812e-07
5.7876738e-07
7.1990883e-07
8.2971584e-07
9.1752219e-07
9.8025377e-07
1.0582958e-06
1.1091053e-06
1.2363682e-06
5.4430747e-08
4.2849587e-08
3.3125601e-08
3.3585338e-08
4.4591581e-08
5.9143448e-08
7.6656133e-08
1.0631132e-07
1.6476772e-07
2.6767581e-07
4.1470927e-07
5.8165805e-07
7.3865897e-07
8.6369204e-07
9.6518267e-07
1.0352938e-06
1.1217586e-06
1.1741539e-06
1.308269e-06
5.7139576e-08
4.6994956e-08
3.7318556e-08
3.4648298e-08
4.2502995e-08
5.6082854e-08
7.3501319e-08
1.0195753e-07
1.5735656e-07
2.5718449e-07
4.0536784e-07
5.8042858e-07
7.5131783e-07
8.9058484e-07
1.0054645e-06
1.0832189e-06
1.1777672e-06
1.2325601e-06
1.3718057e-06
5.6909952e-08
4.8671911e-08
4.0309494e-08
3.6074864e-08
4.1198803e-08
5.3432088e-08
7.0490598e-08
9.7915163e-08
1.5059634e-07
2.4710589e-07
3.9492983e-07
5.7556613e-07
7.5774852e-07
9.0943425e-07
1.0365517e-06
1.1217118e-06
1.2235648e-06
1.2815349e-06
1.4245109e-06
5.4195329e-08
4.8013344e-08
4.1735294e-08
3.7264474e-08
4.039855e-08
5.1228649e-08
6.7759792e-08
9.4294382e-08
1.4465565e-07
2.3793111e-07
3.8437273e-07
5.6831e-07
7.5892483e-07
9.2059272e-07
1.0580289e-06
1.1497854e-06
1.2577464e-06
1.3194624e-06
1.4652937e-06
4.9654745e-08
4.5436405e-08
4.1606777e-08
3.7844916e-08
3.9810852e-08