/*--------------------------------*- C++ -*----------------------------------*\
| =========                 |                                                 |
| \\      /  F ield         | OpenFOAM: The Open Source CFD Toolbox           |
|  \\    /   O peration     | Version:  2406                                  |
|   \\  /    A nd           | Website:  www.openfoam.com                      |
|    \\/     M anipulation  |                                                 |
\*---------------------------------------------------------------------------*/
FoamFile
{
    version     2.0;
    format      ascii;
    arch        "LSB;label=32;scalar=64";
    class       volScalarField;
    location    "9140";
    object      pMean;
}
// * * * * * * * * * * * * * * * * * * * * * * * * * * * * * * * * * * * * * //

dimensions      [1 -1 -2 0 0 0 0];

internalField   nonuniform List<scalar> 
94692
(
1.001499
1.0015028
1.0015077
1.0015127
1.0015184
1.001525
1.0015325
1.0015409
1.0015504
1.0015608
1.0015723
1.0015848
1.0015983
1.0016128
1.0016284
1.001645
1.0016627
1.0016815
1.0017014
1.0017224
1.0017446
1.0017679
1.0017925
1.0018182
1.0018452
1.0018735
1.0019032
1.0019341
1.0019665
1.0020003
1.0020356
1.0020724
1.0021109
1.0021509
1.0021926
1.0022361
1.0022814
1.0023286
1.0023777
1.0024289
1.0024821
1.0025376
1.0025952
1.0026553
1.0027178
1.0027828
1.0028505
1.002921
1.0029944
1.0030707
1.0031502
1.0032329
1.003319
1.0034087
1.0035021
1.0035993
1.0037005
1.0038059
1.0039157
1.0040301
1.0041492
1.0042732
1.0044024
1.0045369
1.004677
1.0048229
1.0049747
1.0051327
1.0052971
1.0054681
1.0056458
1.0058305
1.0060222
1.0062211
1.0064272
1.0066405
1.0068611
1.0070887
1.0073231
1.0075641
1.007811
1.0080634
1.0083202
1.0085805
1.0088428
1.0091053
1.0093658
1.0096215
1.0098687
1.0101027
1.0103174
1.0105045
1.0106526
1.0107455
1.0107565
1.0106495
1.0103777
1.0098639
1.0090783
1.0014987
1.0015029
1.0015079
1.001513
1.0015187
1.0015253
1.0015328
1.0015412
1.0015506
1.001561
1.0015725
1.0015849
1.0015984
1.0016129
1.0016284
1.001645
1.0016627
1.0016815
1.0017013
1.0017223
1.0017444
1.0017677
1.0017922
1.0018179
1.0018448
1.0018731
1.0019026
1.0019335
1.0019658
1.0019995
1.0020347
1.0020714
1.0021097
1.0021497
1.0021913
1.0022347
1.0022798
1.0023269
1.0023758
1.0024268
1.0024799
1.0025352
1.0025927
1.0026525
1.0027148
1.0027797
1.0028471
1.0029174
1.0029904
1.0030665
1.0031457
1.0032282
1.003314
1.0034033
1.0034964
1.0035932
1.0036941
1.0037991
1.0039085
1.0040225
1.0041411
1.0042647
1.0043934
1.0045275
1.0046671
1.0048124
1.0049637
1.0051211
1.0052849
1.0054552
1.0056323
1.0058163
1.0060072
1.0062053
1.0064106
1.0066229
1.0068424
1.0070688
1.0073019
1.0075412
1.0077863
1.0080363
1.0082904
1.0085472
1.0088053
1.0090626
1.0093166
1.0095642
1.0098014
1.0100233
1.0102233
1.010393
1.0105213
1.0105933
1.0105863
1.0104675
1.0101978
1.0096951
1.0089691
1.0014984
1.0015029
1.0015081
1.0015132
1.0015189
1.0015255
1.001533
1.0015414
1.0015508
1.0015613
1.0015727
1.0015851
1.0015986
1.0016131
1.0016287
1.0016453
1.001663
1.0016817
1.0017016
1.0017226
1.0017447
1.001768
1.0017925
1.0018182
1.0018452
1.0018735
1.001903
1.0019339
1.0019663
1.002
1.0020353
1.002072
1.0021104
1.0021503
1.002192
1.0022354
1.0022806
1.0023277
1.0023767
1.0024278
1.0024809
1.0025363
1.0025938
1.0026538
1.0027162
1.0027811
1.0028487
1.002919
1.0029922
1.0030684
1.0031477
1.0032303
1.0033163
1.0034058
1.003499
1.003596
1.0036971
1.0038023
1.003912
1.0040261
1.004145
1.0042689
1.0043979
1.0045322
1.0046721
1.0048177
1.0049694
1.0051271
1.0052913
1.005462
1.0056394
1.0058238
1.0060151
1.0062135
1.006419
1.0066316
1.0068512
1.0070776
1.0073105
1.0075495
1.0077939
1.0080429
1.0082955
1.0085502
1.0088054
1.0090588
1.0093076
1.0095486
1.0097773
1.0099884
1.010175
1.0103284
1.0104371
1.0104855
1.0104516
1.0103052
1.0100142
1.0094936
1.0088001
1.001498
1.0015029
1.0015083
1.0015134
1.0015191
1.0015257
1.0015332
1.0015416
1.001551
1.0015614
1.0015728
1.0015852
1.0015987
1.0016132
1.0016288
1.0016453
1.001663
1.0016817
1.0017016
1.0017226
1.0017447
1.0017679
1.0017924
1.0018181
1.001845
1.0018732
1.0019027
1.0019336
1.0019659
1.0019996
1.0020348
1.0020715
1.0021098
1.0021497
1.0021913
1.0022346
1.0022797
1.0023267
1.0023757
1.0024267
1.0024797
1.0025349
1.0025924
1.0026522
1.0027145
1.0027793
1.0028468
1.002917
1.00299
1.0030661
1.0031453
1.0032277
1.0033135
1.0034028
1.0034958
1.0035927
1.0036936
1.0037986
1.0039081
1.004022
1.0041407
1.0042643
1.0043931
1.0045272
1.0046668
1.0048122
1.0049636
1.0051211
1.005285
1.0054554
1.0056325
1.0058165
1.0060075
1.0062055
1.0064106
1.0066228
1.0068419
1.0070677
1.0073
1.0075381
1.0077815
1.0080293
1.0082803
1.008533
1.0087857
1.009036
1.0092809
1.0095169
1.0097395
1.009943
1.0101203
1.0102626
1.0103584
1.010393
1.0103452
1.0101852
1.0098848
1.0093553
1.0086839
1.0014976
1.0015029
1.0015084
1.0015136
1.0015193
1.0015258
1.0015333
1.0015417
1.0015511
1.0015615
1.0015729
1.0015854
1.0015988
1.0016133
1.0016288
1.0016454
1.0016631
1.0016818
1.0017017
1.0017226
1.0017447
1.001768
1.0017925
1.0018181
1.0018451
1.0018733
1.0019028
1.0019337
1.0019659
1.0019996
1.0020348
1.0020715
1.0021098
1.0021497
1.0021913
1.0022346
1.0022798
1.0023268
1.0023757
1.0024267
1.0024798
1.002535
1.0025925
1.0026523
1.0027146
1.0027794
1.0028468
1.002917
1.0029901
1.0030662
1.0031453
1.0032278
1.0033136
1.0034029
1.0034959
1.0035928
1.0036937
1.0037987
1.0039082
1.0040221
1.0041408
1.0042645
1.0043932
1.0045273
1.004667
1.0048124
1.0049637
1.0051212
1.0052851
1.0054555
1.0056326
1.0058165
1.0060074
1.0062054
1.0064104
1.0066223
1.0068412
1.0070667
1.0072986
1.0075362
1.0077789
1.0080258
1.0082757
1.008527
1.0087779
1.0090259
1.0092679
1.0095003
1.0097183
1.0099162
1.0100868
1.010221
1.0103073
1.0103306
1.0102708
1.010099
1.0097911
1.0092566
1.0086023
1.0014972
1.0015029
1.0015085
1.0015137
1.0015194
1.001526
1.0015334
1.0015418
1.0015512
1.0015616
1.001573
1.0015854
1.0015989
1.0016133
1.0016289
1.0016454
1.0016631
1.0016818
1.0017016
1.0017226
1.0017447
1.0017679
1.0017924
1.001818
1.0018449
1.0018731
1.0019026
1.0019334
1.0019657
1.0019993
1.0020345
1.0020711
1.0021094
1.0021493
1.0021908
1.0022341
1.0022792
1.0023261
1.002375
1.0024259
1.0024789
1.0025341
1.0025915
1.0026513
1.0027134
1.0027782
1.0028455
1.0029156
1.0029886
1.0030646
1.0031437
1.003226
1.0033117
1.0034009
1.0034938
1.0035905
1.0036913
1.0037962
1.0039055
1.0040193
1.0041378
1.0042613
1.0043899
1.0045238
1.0046633
1.0048085
1.0049597
1.005117
1.0052806
1.0054508
1.0056277
1.0058114
1.006002
1.0061997
1.0064044
1.006616
1.0068345
1.0070597
1.007291
1.0075281
1.0077701
1.0080163
1.0082652
1.0085154
1.0087648
1.009011
1.0092508
1.0094805
1.0096952
1.009889
1.0100547
1.010183
1.0102625
1.0102786
1.0102117
1.0100335
1.0097222
1.0091864
1.0085452
1.0014967
1.0015029
1.0015086
1.0015138
1.0015195
1.0015261
1.0015335
1.0015419
1.0015513
1.0015617
1.0015731
1.0015855
1.0015989
1.0016134
1.0016289
1.0016455
1.0016631
1.0016818
1.0017016
1.0017226
1.0017446
1.0017679
1.0017923
1.001818
1.0018449
1.001873
1.0019025
1.0019333
1.0019656
1.0019992
1.0020343
1.002071
1.0021092
1.0021491
1.0021906
1.0022339
1.0022789
1.0023259
1.0023747
1.0024256
1.0024786
1.0025337
1.0025911
1.0026508
1.002713
1.0027777
1.002845
1.0029151
1.002988
1.003064
1.003143
1.0032253
1.0033109
1.0034001
1.0034929
1.0035896
1.0036903
1.0037952
1.0039044
1.0040181
1.0041366
1.00426
1.0043885
1.0045223
1.0046617
1.0048068
1.0049578
1.005115
1.0052785
1.0054485
1.0056252
1.0058088
1.0059992
1.0061967
1.0064011
1.0066125
1.0068307
1.0070555
1.0072865
1.0075231
1.0077646
1.0080101
1.0082583
1.0085076
1.0087559
1.0090008
1.009239
1.0094667
1.0096791
1.0098701
1.0100325
1.0101569
1.010232
1.0102431
1.0101711
1.0099883
1.0096749
1.0091395
1.0085077
1.0014963
1.0015029
1.0015087
1.0015139
1.0015196
1.0015262
1.0015336
1.001542
1.0015513
1.0015617
1.0015731
1.0015855
1.0015989
1.0016134
1.0016289
1.0016455
1.0016631
1.0016818
1.0017016
1.0017225
1.0017446
1.0017678
1.0017922
1.0018178
1.0018447
1.0018729
1.0019023
1.0019331
1.0019653
1.001999
1.0020341
1.0020707
1.0021089
1.0021487
1.0021902
1.0022334
1.0022785
1.0023254
1.0023742
1.002425
1.002478
1.002533
1.0025904
1.00265
1.0027121
1.0027768
1.002844
1.002914
1.0029869
1.0030628
1.0031417
1.0032239
1.0033094
1.0033985
1.0034913
1.0035879
1.0036884
1.0037932
1.0039023
1.0040159
1.0041342
1.0042575
1.0043858
1.0045195
1.0046587
1.0048036
1.0049545
1.0051115
1.0052748
1.0054446
1.0056211
1.0058044
1.0059947
1.0061919
1.006396
1.0066072
1.0068251
1.0070495
1.0072801
1.0075163
1.0077573
1.0080023
1.0082499
1.0084984
1.0087459
1.0089898
1.0092269
1.0094532
1.009664
1.009853
1.0100131
1.0101349
1.0102069
1.0102149
1.0101403
1.0099554
1.0096419
1.0091088
1.0084842
1.0014959
1.0015029
1.0015088
1.001514
1.0015197
1.0015262
1.0015336
1.001542
1.0015514
1.0015617
1.0015731
1.0015855
1.0015989
1.0016134
1.0016289
1.0016455
1.0016631
1.0016818
1.0017016
1.0017225
1.0017445
1.0017677
1.0017921
1.0018178
1.0018446
1.0018727
1.0019022
1.001933
1.0019652
1.0019988
1.0020339
1.0020705
1.0021087
1.0021484
1.0021899
1.0022331
1.0022781
1.002325
1.0023738
1.0024246
1.0024775
1.0025326
1.0025899
1.0026495
1.0027115
1.0027761
1.0028434
1.0029133
1.0029861
1.0030619
1.0031408
1.0032229
1.0033084
1.0033974
1.0034901
1.0035866
1.0036871
1.0037918
1.0039008
1.0040143
1.0041325
1.0042557
1.0043839
1.0045175
1.0046565
1.0048013
1.004952
1.0051089
1.005272
1.0054417
1.005618
1.0058011
1.0059911
1.0061881
1.006392
1.0066029
1.0068205
1.0070446
1.0072749
1.0075107
1.0077514
1.0079959
1.0082429
1.0084909
1.0087378
1.008981
1.0092172
1.0094426
1.0096522
1.0098401
1.0099987
1.0101189
1.0101893
1.0101956
1.0101194
1.0099336
1.0096209
1.0090909
1.0084715
1.0014956
1.0015029
1.0015088
1.0015141
1.0015198
1.0015263
1.0015337
1.001542
1.0015514
1.0015618
1.0015731
1.0015855
1.0015989
1.0016134
1.0016289
1.0016454
1.001663
1.0016817
1.0017015
1.0017224
1.0017445
1.0017677
1.001792
1.0018176
1.0018445
1.0018726
1.001902
1.0019328
1.001965
1.0019986
1.0020336
1.0020702
1.0021084
1.0021481
1.0021896
1.0022328
1.0022777
1.0023246
1.0023734
1.0024241
1.002477
1.002532
1.0025892
1.0026488
1.0027108
1.0027754
1.0028425
1.0029124
1.0029852
1.0030609
1.0031397
1.0032218
1.0033072
1.0033962
1.0034887
1.0035852
1.0036856
1.0037901
1.003899
1.0040124
1.0041305
1.0042535
1.0043817
1.0045151
1.004654
1.0047986
1.0049492
1.0051059
1.0052688
1.0054383
1.0056144
1.0057973
1.0059871
1.0061838
1.0063875
1.0065981
1.0068155
1.0070393
1.0072693
1.0075048
1.0077451
1.0079892
1.0082359
1.0084834
1.0087298
1.0089725
1.0092081
1.0094329
1.0096418
1.0098289
1.0099867
1.010106
1.0101755
1.010181
1.0101045
1.009919
1.009608
1.0090818
1.0084666
1.0014952
1.0015029
1.0015089
1.0015142
1.0015198
1.0015263
1.0015337
1.0015421
1.0015514
1.0015618
1.0015731
1.0015855
1.0015989
1.0016134
1.0016289
1.0016454
1.001663
1.0016817
1.0017015
1.0017224
1.0017444
1.0017676
1.001792
1.0018175
1.0018444
1.0018725
1.0019019
1.0019327
1.0019648
1.0019984
1.0020334
1.00207
1.0021081
1.0021479
1.0021893
1.0022325
1.0022774
1.0023242
1.002373
1.0024237
1.0024765
1.0025315
1.0025887
1.0026483
1.0027102
1.0027747
1.0028419
1.0029117
1.0029844
1.0030601
1.0031389
1.0032209
1.0033062
1.0033951
1.0034876
1.0035839
1.0036843
1.0037887
1.0038975
1.0040108
1.0041288
1.0042517
1.0043797
1.004513
1.0046518
1.0047963
1.0049467
1.0051033
1.0052661
1.0054354
1.0056113
1.005794
1.0059836
1.0061801
1.0063836
1.0065939
1.006811
1.0070346
1.0072643
1.0074995
1.0077395
1.0079833
1.0082296
1.0084768
1.0087229
1.0089651
1.0092004
1.0094248
1.0096333
1.0098199
1.0099773
1.0100963
1.0101656
1.010171
1.0100949
1.0099103
1.0096014
1.0090793
1.0084676
1.0014949
1.0015029
1.0015089
1.0015142
1.0015199
1.0015263
1.0015337
1.0015421
1.0015514
1.0015618
1.0015732
1.0015855
1.0015989
1.0016134
1.0016289
1.0016454
1.001663
1.0016816
1.0017014
1.0017223
1.0017443
1.0017675
1.0017919
1.0018174
1.0018443
1.0018724
1.0019018
1.0019325
1.0019647
1.0019982
1.0020332
1.0020698
1.0021079
1.0021476
1.002189
1.0022322
1.0022771
1.0023239
1.0023726
1.0024233
1.0024761
1.002531
1.0025882
1.0026477
1.0027096
1.0027741
1.0028412
1.002911
1.0029836
1.0030592
1.003138
1.0032199
1.0033052
1.003394
1.0034864
1.0035827
1.0036829
1.0037873
1.003896
1.0040092
1.0041271
1.0042499
1.0043778
1.004511
1.0046496
1.004794
1.0049443
1.0051006
1.0052633
1.0054324
1.0056082
1.0057907
1.0059801
1.0061764
1.0063797
1.0065898
1.0068067
1.00703
1.0072594
1.0074944
1.0077341
1.0079777
1.0082237
1.0084707
1.0087164
1.0089584
1.0091934
1.0094175
1.0096258
1.0098123
1.0099696
1.0100886
1.0101581
1.0101639
1.0100887
1.0099055
1.0095992
1.0090813
1.0084726
1.0014946
1.0015029
1.001509
1.0015143
1.0015199
1.0015264
1.0015338
1.0015421
1.0015514
1.0015618
1.0015731
1.0015855
1.0015989
1.0016134
1.0016288
1.0016453
1.0016629
1.0016816
1.0017014
1.0017222
1.0017442
1.0017674
1.0017918
1.0018173
1.0018442
1.0018722
1.0019016
1.0019324
1.0019645
1.001998
1.002033
1.0020696
1.0021077
1.0021474
1.0021888
1.0022319
1.0022768
1.0023235
1.0023722
1.0024229
1.0024757
1.0025306
1.0025877
1.0026472
1.0027091
1.0027735
1.0028406
1.0029103
1.0029829
1.0030585
1.0031372
1.003219
1.0033043
1.003393
1.0034854
1.0035816
1.0036817
1.003786
1.0038947
1.0040078
1.0041256
1.0042483
1.0043761
1.0045091
1.0046477
1.0047919
1.0049421
1.0050983
1.0052608
1.0054298
1.0056054
1.0057877
1.0059769
1.006173
1.0063761
1.006586
1.0068027
1.0070258
1.007255
1.0074897
1.0077292
1.0079725
1.0082184
1.0084651
1.0087106
1.0089524
1.0091873
1.0094113
1.0096195
1.009806
1.0099634
1.0100827
1.0101526
1.0101592
1.0100851
1.0099037
1.0096001
1.0090862
1.0084806
1.0014943
1.0015029
1.001509
1.0015143
1.00152
1.0015264
1.0015338
1.0015421
1.0015515
1.0015618
1.0015731
1.0015855
1.0015989
1.0016133
1.0016288
1.0016453
1.0016629
1.0016816
1.0017013
1.0017222
1.0017442
1.0017673
1.0017917
1.0018173
1.0018441
1.0018721
1.0019015
1.0019322
1.0019643
1.0019979
1.0020329
1.0020694
1.0021075
1.0021472
1.0021885
1.0022316
1.0022765
1.0023232
1.0023719
1.0024226
1.0024753
1.0025302
1.0025873
1.0026467
1.0027086
1.002773
1.00284
1.0029097
1.0029823
1.0030578
1.0031364
1.0032182
1.0033034
1.0033921
1.0034844
1.0035805
1.0036806
1.0037849
1.0038934
1.0040064
1.0041242
1.0042468
1.0043744
1.0045074
1.0046458
1.00479
1.00494
1.0050961
1.0052584
1.0054273
1.0056027
1.0057849
1.0059739
1.0061699
1.0063728
1.0065825
1.006799
1.0070219
1.0072509
1.0074854
1.0077247
1.0079679
1.0082135
1.0084601
1.0087055
1.0089471
1.0091819
1.0094059
1.0096141
1.0098008
1.0099584
1.0100781
1.0101487
1.0101561
1.0100834
1.0099038
1.0096031
1.0090931
1.0084906
1.001494
1.0015029
1.001509
1.0015144
1.00152
1.0015264
1.0015338
1.0015421
1.0015515
1.0015618
1.0015731
1.0015855
1.0015989
1.0016133
1.0016288
1.0016453
1.0016629
1.0016815
1.0017013
1.0017221
1.0017441
1.0017673
1.0017916
1.0018172
1.001844
1.001872
1.0019014
1.0019321
1.0019642
1.0019977
1.0020327
1.0020692
1.0021073
1.0021469
1.0021883
1.0022314
1.0022762
1.002323
1.0023716
1.0024222
1.0024749
1.0025298
1.0025869
1.0026463
1.0027081
1.0027725
1.0028394
1.0029091
1.0029817
1.0030571
1.0031357
1.0032175
1.0033026
1.0033912
1.0034835
1.0035796
1.0036796
1.0037838
1.0038922
1.0040052
1.0041228
1.0042453
1.0043729
1.0045058
1.0046441
1.0047881
1.004938
1.005094
1.0052563
1.0054249
1.0056002
1.0057823
1.0059712
1.006167
1.0063697
1.0065792
1.0067955
1.0070182
1.0072471
1.0074814
1.0077205
1.0079635
1.008209
1.0084554
1.0087007
1.0089422
1.009177
1.009401
1.0096093
1.0097961
1.0099541
1.0100743
1.0101457
1.0101541
1.0100828
1.0099052
1.0096074
1.0091011
1.0085023
1.0014938
1.0015029
1.001509
1.0015144
1.00152
1.0015264
1.0015338
1.0015421
1.0015515
1.0015618
1.0015731
1.0015855
1.0015989
1.0016133
1.0016288
1.0016453
1.0016628
1.0016815
1.0017012
1.0017221
1.0017441
1.0017672
1.0017916
1.0018171
1.0018439
1.0018719
1.0019013
1.001932
1.0019641
1.0019976
1.0020326
1.0020691
1.0021071
1.0021468
1.0021881
1.0022312
1.002276
1.0023227
1.0023713
1.0024219
1.0024746
1.0025295
1.0025865
1.0026459
1.0027077
1.002772
1.002839
1.0029086
1.0029811
1.0030566
1.0031351
1.0032168
1.0033019
1.0033905
1.0034827
1.0035787
1.0036787
1.0037828
1.0038912
1.0040041
1.0041217
1.0042441
1.0043716
1.0045044
1.0046426
1.0047866
1.0049363
1.0050922
1.0052543
1.0054229
1.0055981
1.00578
1.0059688
1.0061644
1.006367
1.0065764
1.0067925
1.0070151
1.0072438
1.0074779
1.0077169
1.0079597
1.0082051
1.0084514
1.0086966
1.0089382
1.0091729
1.0093969
1.0096054
1.0097925
1.0099508
1.0100715
1.0101437
1.0101532
1.0100833
1.0099075
1.0096124
1.0091094
1.0085145
1.0014935
1.0015029
1.0015091
1.0015144
1.00152
1.0015264
1.0015338
1.0015421
1.0015515
1.0015618
1.0015731
1.0015855
1.0015989
1.0016133
1.0016287
1.0016452
1.0016628
1.0016814
1.0017012
1.001722
1.001744
1.0017672
1.0017915
1.001817
1.0018438
1.0018718
1.0019012
1.0019319
1.001964
1.0019975
1.0020324
1.0020689
1.0021069
1.0021466
1.0021879
1.0022309
1.0022758
1.0023225
1.0023711
1.0024217
1.0024743
1.0025291
1.0025862
1.0026455
1.0027073
1.0027716
1.0028385
1.0029081
1.0029806
1.003056
1.0031345
1.0032162
1.0033012
1.0033897
1.0034819
1.0035779
1.0036778
1.0037818
1.0038902
1.004003
1.0041205
1.0042428
1.0043703
1.004503
1.0046411
1.0047849
1.0049346
1.0050904
1.0052524
1.0054209
1.0055959
1.0057777
1.0059663
1.0061618
1.0063642
1.0065735
1.0067894
1.0070119
1.0072404
1.0074744
1.0077132
1.0079559
1.0082012
1.0084473
1.0086925
1.008934
1.0091688
1.0093929
1.0096015
1.0097889
1.0099476
1.0100689
1.0101419
1.0101525
1.0100842
1.0099103
1.0096181
1.0091183
1.0085286
1.0014933
1.0015029
1.0015091
1.0015145
1.00152
1.0015265
1.0015338
1.0015421
1.0015515
1.0015618
1.0015731
1.0015855
1.0015989
1.0016133
1.0016287
1.0016452
1.0016628
1.0016814
1.0017011
1.001722
1.001744
1.0017671
1.0017914
1.001817
1.0018437
1.0018718
1.0019011
1.0019318
1.0019639
1.0019974
1.0020323
1.0020688
1.0021068
1.0021464
1.0021877
1.0022308
1.0022756
1.0023223
1.0023709
1.0024214
1.0024741
1.0025289
1.0025859
1.0026453
1.002707
1.0027713
1.0028382
1.0029078
1.0029802
1.0030556
1.003134
1.0032157
1.0033007
1.0033892
1.0034813
1.0035773
1.0036771
1.0037811
1.0038894
1.0040022
1.0041197
1.004242
1.0043693
1.004502
1.00464
1.0047838
1.0049334
1.0050891
1.005251
1.0054194
1.0055944
1.0057761
1.0059646
1.00616
1.0063623
1.0065715
1.0067873
1.0070097
1.0072381
1.007472
1.0077108
1.0079533
1.0081985
1.0084447
1.0086897
1.0089313
1.0091661
1.0093903
1.0095991
1.0097866
1.0099458
1.0100676
1.0101412
1.0101526
1.0100855
1.0099131
1.009623
1.0091254
1.0085402
1.0014931
1.0015029
1.0015091
1.0015145
1.0015201
1.0015265
1.0015338
1.0015421
1.0015515
1.0015618
1.0015731
1.0015855
1.0015988
1.0016132
1.0016287
1.0016452
1.0016627
1.0016814
1.0017011
1.0017219
1.0017439
1.001767
1.0017914
1.0018169
1.0018436
1.0018717
1.001901
1.0019317
1.0019637
1.0019972
1.0020322
1.0020686
1.0021066
1.0021462
1.0021875
1.0022305
1.0022754
1.002322
1.0023706
1.0024211
1.0024738
1.0025285
1.0025855
1.0026448
1.0027066
1.0027708
1.0028377
1.0029072
1.0029796
1.003055
1.0031334
1.003215
1.0032999
1.0033884
1.0034805
1.0035763
1.0036761
1.0037801
1.0038883
1.004001
1.0041184
1.0042406
1.0043679
1.0045004
1.0046384
1.004782
1.0049316
1.0050871
1.0052489
1.0054172
1.005592
1.0057735
1.0059619
1.0061572
1.0063593
1.0065683
1.006784
1.0070062
1.0072344
1.0074682
1.0077068
1.0079492
1.0081943
1.0084403
1.0086854
1.0089269
1.0091617
1.0093861
1.0095951
1.0097831
1.0099427
1.0100653
1.0101399
1.0101528
1.0100874
1.0099174
1.0096307
1.0091366
1.0085591
1.0075392
1.0075107
1.0074944
1.0074703
1.0074468
1.0074211
1.0073951
1.0073693
1.0073452
1.0073243
1.0073091
1.0073023
1.0073079
1.0073306
1.0073776
1.0074583
1.0075815
1.0077869
1.0080648
1.0066359
1.0066087
1.006595
1.0065732
1.0065531
1.0065307
1.0065079
1.0064846
1.0064616
1.0064399
1.0064209
1.0064066
1.0063996
1.0064033
1.0064228
1.0064647
1.0065387
1.006645
1.0069001
1.0056278
1.0056009
1.0055872
1.0055652
1.0055451
1.0055223
1.0054988
1.005474
1.0054487
1.0054231
1.0053983
1.0053751
1.0053553
1.0053406
1.0053348
1.0053385
1.0053702
1.0053892
1.0055666
1.0044133
1.0043861
1.0043716
1.0043489
1.0043277
1.0043034
1.0042778
1.0042502
1.0042209
1.0041901
1.004158
1.0041251
1.0040923
1.0040598
1.0040314
1.0040009
1.0039965
1.0039487
1.0040559
1.0029777
1.0029509
1.0029361
1.0029132
1.0028914
1.0028661
1.0028391
1.0028093
1.0027768
1.0027413
1.0027026
1.0026605
1.0026152
1.0025651
1.0025146
1.0024507
1.0024089
1.0022995
1.0023373
1.0013163
1.0012905
1.0012758
1.0012532
1.0012314
1.0012058
1.0011779
1.0011464
1.0011113
1.0010718
1.0010273
1.0009768
1.0009201
1.0008534
1.0007821
1.0006867
1.000608
1.0004414
1.0004102
0.99942825
0.99940424
0.99938993
0.99936835
0.99934701
0.99932162
0.99929351
0.99926117
0.99922429
0.99918168
0.99913249
0.99907477
0.99900814
0.99892686
0.99883684
0.99871325
0.99860035
0.99838302
0.99828605
0.99733241
0.99731085
0.99729746
0.99727745
0.99725718
0.99723277
0.9972052
0.99717288
0.99713522
0.9970907
0.99703815
0.99697489
0.99690028
0.99680677
0.99670077
0.99655308
0.99640973
0.9961491
0.99599068
0.99507282
0.9950543
0.9950423
0.99502444
0.99500584
0.99498309
0.99495685
0.99492545
0.99488808
0.99484293
0.99478854
0.99472155
0.99464115
0.99453817
0.99441939
0.99425215
0.99408286
0.99378728
0.99357264
0.99272163
0.99270659
0.99269639
0.99268111
0.9926647
0.99264424
0.99262004
0.99259041
0.99255437
0.99250982
0.99245512
0.99238629
0.99230244
0.99219297
0.99206492
0.99188308
0.991693
0.99137161
0.99110703
0.99038008
0.99036872
0.99036057
0.99034813
0.99033425
0.99031648
0.99029485
0.99026765
0.99023378
0.99019092
0.99013731
0.99006844
0.9899834
0.98987042
0.98973679
0.9895455
0.98934029
0.98900269
0.98869582
0.9881718
0.98816403
0.988158
0.98814842
0.98813718
0.98812227
0.98810348
0.98807914
0.98804804
0.98800772
0.98795637
0.98788905
0.987805
0.98769142
0.98755594
0.98736046
0.98714622
0.98680229
0.98646265
0.98622905
0.98622446
0.98622038
0.98621342
0.98620465
0.98619247
0.98617649
0.98615511
0.98612708
0.98608983
0.98604165
0.98597721
0.98589611
0.98578465
0.98565111
0.98545673
0.98524013
0.9848999
0.9845395
0.98467209
0.98466999
0.98466748
0.98466265
0.98465597
0.98464618
0.98463277
0.98461421
0.98458931
0.98455547
0.98451118
0.9844508
0.98437457
0.98426794
0.98414033
0.98395245
0.98374104
0.98341434
0.98304863
0.98358147
0.98358097
0.9835795
0.98357617
0.98357101
0.983563
0.98355157
0.98353535
0.98351325
0.98348274
0.98344256
0.98338708
0.98331704
0.98321795
0.9830995
0.9829244
0.98272531
0.98242347
0.98207191
0.98298558
0.98298582
0.98298492
0.98298249
0.98297825
0.98297145
0.98296161
0.98294755
0.98292831
0.98290157
0.98286632
0.98281736
0.98275551
0.98266775
0.98256237
0.98240769
0.98222876
0.98196418
0.98164729
0.98285024
0.98285039
0.98284959
0.98284744
0.98284362
0.98283762
0.98282901
0.98281684
0.98280031
0.98277747
0.98274749
0.98270603
0.9826537
0.98257998
0.98249092
0.98236228
0.98221115
0.98199297
0.98173096
0.98308732
0.98308668
0.98308553
0.98308319
0.98307941
0.98307384
0.98306615
0.98305563
0.98304166
0.98302275
0.98299827
0.98296491
0.98292302
0.98286496
0.98279462
0.9826952
0.98257759
0.98241086
0.98221782
0.98358297
0.9835812
0.98357952
0.98357677
0.98357287
0.98356753
0.98356058
0.98355153
0.98353999
0.9835249
0.98350585
0.98348059
0.98344933
0.98340705
0.98335615
0.98328611
0.98320386
0.98308832
0.9829681
0.98422574
0.98422275
0.98422053
0.98421728
0.9842132
0.98420801
0.98420169
0.98419397
0.98418464
0.9841731
0.98415914
0.98414145
0.98412024
0.98409268
0.98406033
0.98401744
0.98396881
0.98390001
0.98384789
0.98492497
0.98492082
0.98491816
0.98491444
0.98491023
0.9849052
0.98489949
0.98489301
0.98488578
0.98487754
0.98486835
0.98485767
0.98484591
0.98483189
0.98481703
0.98479905
0.98478202
0.98475631
0.98476761
0.98561426
0.98560916
0.98560622
0.98560217
0.98559798
0.98559322
0.98558823
0.98558305
0.9855779
0.98557284
0.98556821
0.98556409
0.98556123
0.98555972
0.98556129
0.98556626
0.98557886
0.98559325
0.98566384
0.98625029
0.98624449
0.98624147
0.98623722
0.98623318
0.98622877
0.98622454
0.98622062
0.98621742
0.98621527
0.98621477
0.9862165
0.98622162
0.98623121
0.98624751
0.98627288
0.98631206
0.98636241
0.98648749
0.9868102
0.98680399
0.98680105
0.98679675
0.98679298
0.98678899
0.98678553
0.9867828
0.98678136
0.98678175
0.98678481
0.98679152
0.98680342
0.98682232
0.98685111
0.98689368
0.98695539
0.9870364
0.98721263
0.98728477
0.98727834
0.98727555
0.9872712
0.98726761
0.98726384
0.98726082
0.98725876
0.98725832
0.98726018
0.98726534
0.98727507
0.98729123
0.98731628
0.98735381
0.98740935
0.98748925
0.98759673
0.98782516
0.98768254
0.98767605
0.98767344
0.98766906
0.98766563
0.98766202
0.98765934
0.98765777
0.98765807
0.987661
0.98766769
0.98767962
0.98769888
0.9877283
0.98777185
0.9878359
0.98792667
0.98804794
0.98831266
0.98800949
0.98800281
0.98800003
0.987995
0.98799078
0.98798599
0.98798179
0.98797815
0.98797576
0.98797513
0.98797718
0.98798312
0.98799477
0.98801489
0.98804781
0.98810171
0.98818677
0.98831442
0.98861865
0.98829544
0.98828819
0.98828505
0.98827942
0.98827495
0.98827005
0.98826607
0.98826293
0.98826143
0.98826222
0.98826645
0.98827563
0.98829202
0.98831879
0.98836018
0.98842291
0.98851473
0.98862652
0.98881797
0.98857147
0.98856402
0.98855698
0.98854421
0.98853143
0.9885178
0.98850475
0.98849138
0.98847732
0.98846147
0.98844253
0.98841843
0.98838634
0.98834268
0.98828376
0.98820945
0.98813143
0.98804083
0.98807904
0.98874978
0.98874361
0.9887427
0.98874328
0.98874719
0.98875106
0.98875538
0.98876017
0.98876687
0.98877694
0.98879266
0.98881701
0.98885431
0.98891057
0.98899409
0.9891137
0.98928087
0.98948234
0.98964277
0.98900031
0.98899496
0.98899347
0.98899087
0.9889904
0.98899025
0.98899197
0.9889954
0.98900161
0.98901136
0.98902606
0.98904744
0.98907801
0.98912077
0.98918036
0.98925894
0.98936659
0.98948315
0.98968198
0.98916684
0.98916296
0.98916204
0.98915948
0.98915852
0.98915726
0.98915728
0.98915816
0.98916086
0.98916574
0.98917381
0.98918603
0.98920407
0.98922928
0.98926579
0.98931199
0.98938642
0.98945056
0.98962695
0.98928487
0.98928203
0.98928153
0.98927957
0.9892791
0.9892782
0.98927844
0.98927919
0.98928139
0.98928518
0.98929151
0.98930102
0.98931536
0.98933493
0.9893648
0.98939881
0.98946155
0.98950207
0.98962704
0.98937442
0.98937225
0.98937186
0.9893702
0.9893698
0.98936887
0.9893689
0.98936915
0.9893705
0.9893729
0.98937716
0.98938351
0.98939359
0.98940654
0.9894285
0.98944934
0.98949658
0.98951937
0.98960626
0.98944298
0.98944125
0.98944082
0.98943927
0.98943868
0.98943743
0.98943688
0.98943619
0.98943621
0.98943661
0.98943815
0.9894406
0.98944567
0.98945127
0.98946448
0.98947282
0.98950377
0.98951175
0.98956817
0.98950041
0.98949887
0.98949832
0.98949674
0.98949584
0.98949419
0.98949298
0.98949132
0.98948998
0.98948845
0.98948743
0.98948622
0.98948673
0.98948577
0.98949094
0.98948883
0.98950461
0.98950004
0.98952845
0.98955555
0.989554
0.98955326
0.98955152
0.98955022
0.98954807
0.98954613
0.98954347
0.9895408
0.98953741
0.98953403
0.98952949
0.98952585
0.98951915
0.98951691
0.989506
0.98950777
0.98949254
0.98949548
0.98961438
0.98961268
0.98961173
0.98960975
0.98960801
0.98960534
0.98960265
0.98959902
0.98959508
0.98958997
0.98958441
0.98957688
0.98956949
0.98955781
0.98954882
0.9895305
0.98951955
0.98949526
0.98947504
0.98968193
0.98967998
0.98967879
0.98967649
0.98967428
0.98967107
0.98966765
0.98966309
0.98965797
0.98965131
0.98964382
0.98963371
0.98962305
0.98960724
0.98959232
0.98956797
0.98954587
0.98951398
0.9894728
0.98976111
0.98975885
0.98975743
0.98975482
0.98975219
0.98974848
0.9897444
0.98973904
0.98973292
0.98972496
0.98971589
0.98970371
0.98969038
0.98967138
0.98965158
0.98962267
0.98959136
0.98955351
0.98949414
0.98985382
0.98985122
0.98984959
0.98984665
0.98984363
0.98983948
0.98983483
0.98982881
0.98982189
0.98981293
0.98980265
0.98978897
0.98977363
0.98975244
0.98972899
0.98969705
0.98965883
0.98961688
0.98954293
0.98995992
0.98995701
0.9899552
0.98995198
0.98994867
0.98994418
0.98993913
0.98993264
0.98992517
0.98991555
0.98990449
0.98988989
0.98987328
0.9898509
0.98982511
0.98979169
0.98974905
0.98970497
0.9896207
0.99007866
0.99007547
0.99007352
0.99007006
0.99006654
0.99006181
0.99005649
0.99004971
0.99004193
0.99003198
0.99002053
0.99000559
0.98998841
0.98996577
0.98993892
0.98990545
0.98986084
0.98981646
0.98972643
0.99020805
0.99020463
0.99020258
0.99019897
0.99019533
0.99019048
0.99018504
0.99017817
0.99017032
0.99016034
0.99014889
0.9901341
0.99011698
0.99009488
0.99006811
0.99003579
0.98999139
0.98994827
0.98985677
0.9903459
0.99034231
0.9903402
0.99033649
0.9903328
0.99032793
0.9903225
0.9903157
0.99030797
0.99029822
0.99028707
0.99027284
0.9902563
0.99023535
0.99020959
0.99017933
0.99013687
0.99009615
0.99000675
0.99048968
0.99048599
0.99048386
0.99048011
0.99047645
0.99047163
0.99046633
0.99045973
0.99045227
0.99044296
0.99043235
0.99041897
0.99040339
0.99038402
0.99035994
0.99033235
0.99029307
0.99025543
0.99017075
0.99063697
0.99063323
0.99063111
0.99062737
0.99062379
0.99061911
0.99061401
0.99060771
0.99060066
0.99059193
0.99058203
0.99056971
0.99055534
0.99053782
0.99051586
0.99049126
0.9904559
0.99042167
0.99034334
0.99078562
0.99078189
0.99077979
0.99077611
0.99077264
0.99076814
0.99076331
0.99075739
0.99075082
0.99074275
0.99073367
0.99072251
0.99070952
0.99069396
0.99067436
0.99065287
0.99062177
0.99059098
0.99051977
0.99093364
0.99092996
0.9909279
0.99092432
0.99092101
0.99091674
0.99091222
0.99090672
0.99090069
0.99089335
0.99088514
0.9908752
0.99086364
0.99085007
0.99083291
0.99081451
0.99078766
0.99076019
0.99069621
0.99107965
0.99107604
0.99107404
0.99107057
0.99106743
0.99106339
0.9910592
0.99105413
0.99104864
0.99104202
0.99103469
0.99102595
0.99101582
0.99100418
0.99098942
0.99097399
0.99095118
0.99092678
0.99086965
0.99122209
0.99121858
0.99121667
0.99121335
0.9912104
0.99120662
0.99120278
0.99119815
0.9911932
0.99118731
0.99118084
0.99117325
0.99116451
0.99115467
0.9911422
0.99112955
0.9911104
0.99108869
0.99103772
0.9913599
0.99135652
0.99135469