/*--------------------------------*- C++ -*----------------------------------*\
| =========                 |                                                 |
| \\      /  F ield         | OpenFOAM: The Open Source CFD Toolbox           |
|  \\    /   O peration     | Version:  2406                                  |
|   \\  /    A nd           | Website:  www.openfoam.com                      |
|    \\/     M anipulation  |                                                 |
\*---------------------------------------------------------------------------*/
FoamFile
{
    version     2.0;
    format      ascii;
    arch        "LSB;label=32;scalar=64";
    class       volVectorField;
    location    "9140";
    object      U;
}
// * * * * * * * * * * * * * * * * * * * * * * * * * * * * * * * * * * * * * //

dimensions      [0 1 -1 0 0 0 0];

internalField   nonuniform List<vector> 
94692
(
(0.16716075 -1.3278517e-05 -6.4376484e-19)
(0.16713359 -1.2217672e-05 6.4430598e-19)
(0.16710258 -3.5620035e-06 0)
(0.16706969 7.4102798e-06 -5.1585083e-18)
(0.16703261 1.9071358e-05 1.2482409e-24)
(0.16699038 3.0880221e-05 -5.1623718e-18)
(0.16694265 4.2683936e-05 -2.5822774e-18)
(0.16688916 5.4480881e-05 2.5834569e-18)
(0.16682974 6.63224e-05 -2.5847599e-18)
(0.16676428 7.8272509e-05 1.29305e-17)
(0.1666927 9.0393347e-05 -5.1750866e-18)
(0.16661495 0.00010274279 0)
(0.16653095 0.0001153741 1.5544526e-17)
(0.16644064 0.00012833693 -7.7773178e-18)
(0.16634394 0.00014167781 -2.5942723e-18)
(0.16624076 0.00015544297 1.2980929e-17)
(0.16613102 0.00016967528 -2.0785186e-17)
(0.16601459 0.00018441819 1.8201502e-17)
(0.16589135 0.00019971465 -1.4312908e-17)
(0.16576118 0.00021560952 2.6046048e-18)
(0.16562391 0.00023214705 0)
(0.16547939 0.00024937315 9.1328631e-18)
(0.16532743 0.00026733514 -1.044732e-17)
(0.16516786 0.00028608187 -1.3072318e-18)
(0.16500045 0.00030566438 0)
(0.164825 0.00032613627 1.3099794e-18)
(0.16464125 0.00034755299 -1.3114276e-18)
(0.16444897 0.00036997362 0)
(0.16424787 0.00039345939 2.1032056e-17)
(0.16403766 0.00041807591 -4.0798784e-17)
(0.16381804 0.00044389183 1.8448186e-17)
(0.16358869 0.00047097935 0)
(0.16334926 0.00049941568 0)
(0.16309936 0.00052928194 0)
(0.16283863 0.00056066529 0)
(0.16256664 0.00059365729 0)
(0.16228295 0.00062835562 1.3290535e-18)
(0.1619871 0.00066486445 1.3311787e-18)
(0.16167859 0.00070329532 -1.3333813e-18)
(0.1613569 0.00074376658 0)
(0.16102148 0.00078640363 1.338032e-18)
(0.16067174 0.0008313406 0)
(0.16030706 0.00087872072 -2.1489214e-17)
(0.15992678 0.00092869666 -1.3118515e-21)
(0.15953021 0.00098143177 4.1801158e-17)
(0.15911661 0.0010371002 -1.8917141e-17)
(0.15868519 0.001095888 0)
(0.15823512 0.0011579936 2.2396474e-17)
(0.15776553 0.0012236291 -6.7864012e-19)
(0.15727547 0.0012930208 -2.0456897e-17)
(0.15676397 0.0013664098 0)
(0.15622998 0.0014440536 2.1250337e-17)
(0.15567238 0.001526226 -2.2681516e-17)
(0.15509001 0.0016132188 0)
(0.1544816 0.0017053419 -6.9135651e-19)
(0.15384585 0.0018029241 2.2193033e-17)
(0.15318135 0.0019063136 -6.5400052e-17)
(0.15248662 0.0020158784 4.5372158e-17)
(0.1517601 0.0021320057 4.4134905e-17)
(0.15100013 0.0022551019 -4.4994214e-17)
(0.15020495 0.0023855909 7.0575287e-19)
(0.14937274 0.0025239124 0)
(0.14850154 0.0026705193 7.1152425e-19)
(0.14758932 0.0028258728 0)
(0.14663392 0.0029904367 4.523115e-17)
(0.14563312 0.0031646691 -4.6162792e-17)
(0.14458457 0.0033490112 0)
(0.14348585 0.0035438723 2.932749e-24)
(0.14233445 0.0037496106 4.6907339e-17)
(0.14112781 0.0039665067 -4.7174393e-17)
(0.13986331 0.0041947307 4.7474338e-17)
(0.13853832 0.0044342984 -4.8522427e-17)
(0.13715022 0.0046850149 7.5171681e-19)
(0.13569648 0.0049464027 4.846821e-17)
(0.13417467 0.0052176082 -9.6155922e-17)
(0.13258262 0.0054972828 9.84931e-17)
(0.13091846 0.0057834313 1.0842754e-20)
(0.1291808 0.0060732168 -5.0149616e-17)
(0.12736889 0.0063627146 3.9583456e-19)
(0.12548286 0.0066465979 0)
(0.12352406 0.0069177416 5.1843933e-17)
(0.12149536 0.0071667213 4.2322258e-19)
(0.11940173 0.0073811851 -1.0735001e-16)
(0.11725078 0.007545069 -1.3714634e-20)
(0.11505367 0.0076376239 4.1591677e-19)
(0.11282604 0.0076322222 -4.5248105e-19)
(0.11058941 0.0074949122 5.7308672e-17)
(0.10837286 0.0071826969 4.5879701e-19)
(0.10621521 0.006641542 9.4334325e-19)
(0.10416795 0.0058041055 6.1844042e-17)
(0.10229892 0.0045874894 -6.4145534e-17)
(0.10069947 0.002889679 -1.0544311e-18)
(0.09948946 0.00059566669 -5.5425073e-19)
(0.098838585 -0.0025375696 0)
(0.098919483 -0.0066855312 -4.8836923e-19)
(0.099896987 -0.011955552 0)
(0.10200776 -0.018388388 0)
(0.10532071 -0.026050458 4.5166153e-17)
(0.11050513 -0.034431592 -3.4959087e-19)
(0.16716205 -1.7010565e-05 -2.1600389e-18)
(0.16713292 -1.7016127e-05 -7.2069848e-19)
(0.16710108 -9.1723308e-06 0)
(0.16706797 8.4988897e-07 5.7707237e-18)
(0.16703088 1.1313186e-05 -2.8865359e-18)
(0.16698872 2.1677323e-05 5.775559e-18)
(0.16694109 3.1819875e-05 2.8891335e-18)
(0.16688772 4.1754447e-05 2.8905893e-18)
(0.16682842 5.1534861e-05 -5.7843291e-18)
(0.16676308 6.1222196e-05 2.8937823e-18)
(0.16669164 7.0872704e-05 0)
(0.16661403 8.0536009e-05 5.7949167e-18)
(0.16653018 9.025671e-05 -8.6981516e-18)
(0.16644003 0.0001000749 -2.90145e-18)
(0.1663435 0.00011002754 1.451799e-18)
(0.16624051 0.0001201504 1.3076377e-17)
(0.16613096 0.00013047627 -2.3265392e-17)
(0.16601474 0.00014103738 1.3097599e-17)
(0.16589173 0.00015186601 1.3109185e-17)
(0.16576179 0.00016299497 -2.3325955e-17)
(0.16562477 0.00017445691 -2.6575896e-22)
(0.16548052 0.00018628487 2.1909553e-17)
(0.16532885 0.00019851344 -1.1696604e-17)
(0.16516958 0.0002111775 -1.1708971e-17)
(0.1650025 0.00022431417 2.4907763e-17)
(0.16482738 0.00023796174 -1.320082e-17)
(0.164644 0.00025216038 1.4684458e-18)
(0.16445209 0.00026695256 0)
(0.16425139 0.00028238267 -1.1775847e-17)
(0.16404161 0.00029849797 2.5054624e-17)
(0.16382245 0.00031534881 -1.0329749e-17)
(0.16359357 0.00033298723 1.4776804e-18)
(0.16335464 0.00035147026 2.3675977e-17)
(0.16310527 0.00037085682 9.6578262e-22)
(0.1628451 0.00039121188 -2.3743638e-17)
(0.16257369 0.0004126029 2.2294498e-17)
(0.16229062 0.00043510289 -2.5305636e-17)
(0.16199542 0.0004587895 0)
(0.16168759 0.00048374745 1.4935155e-18)
(0.16136662 0.00051006623 0)
(0.16103195 0.00053784174 2.2482471e-17)
(0.160683 0.0005671766 -2.4024418e-17)
(0.16031915 0.00059818176 0)
(0.15993974 0.00063097539 -7.5371916e-19)
(0.15954407 0.00066568569 -2.4169385e-17)
(0.15913141 0.00070244937 2.1948677e-17)
(0.15870098 0.00074141432 2.4274401e-17)
(0.15825194 0.00078273832 -7.5855563e-19)
(0.15778342 0.00082659204 -2.5148028e-17)
(0.15729449 0.00087315805 0)
(0.15678415 0.00092263298 -2.4510321e-17)
(0.15625137 0.00097522712 2.53413e-17)
(0.15569503 0.0010311667 2.5413253e-17)
(0.15511395 0.0010906937 -2.4711619e-17)
(0.15450689 0.0011540671 2.63367e-17)
(0.15387253 0.0012215632 -5.0503504e-17)
(0.15320946 0.0012934773 2.3383319e-17)
(0.15251621 0.0013701223 -7.8211049e-19)
(0.15179121 0.0014518311 -2.5116671e-17)
(0.1510328 0.0015389544 5.0414418e-17)
(0.15023923 0.0016318614 -5.0607055e-17)
(0.14940867 0.0017309373 -3.1513555e-21)
(0.14853916 0.0018365823 -8.005016e-19)
(0.14762868 0.0019492068 -3.4421784e-21)
(0.14667507 0.002069228 2.6541857e-17)
(0.1456761 0.0021970614 -2.5056468e-17)
(0.14462946 0.0023331133 2.5991079e-17)
(0.14353273 0.0024777664 -8.1658358e-19)
(0.14238342 0.0026313648 2.627819e-17)
(0.14117899 0.0027941898 -2.7253811e-17)
(0.13991687 0.0029664334 0)
(0.13859449 0.0031481583 0)
(0.13720931 0.0033392513 2.6955046e-17)
(0.13575889 0.0035393588 -2.6299006e-17)
(0.13424095 0.0037478074 -4.275295e-19)
(0.1326535 0.0039634996 0)
(0.13099492 0.0041847835 -8.6978912e-19)
(0.12926413 0.0044092831 0)
(0.1274608 0.0046336868 -2.8830135e-17)
(0.12558563 0.0048534757 2.8243401e-17)
(0.12364065 0.0050625851 -5.8533172e-17)
(0.12162964 0.0052529745 5.8356107e-17)
(0.11955873 0.0054140936 0)
(0.11743701 0.0055322155 -4.7326164e-19)
(0.11527747 0.005589617 -4.8136872e-19)
(0.11309803 0.0055635747 -6.2793785e-17)
(0.11092302 0.0054251596 6.3613053e-17)
(0.10878481 0.0051378105 0)
(0.10672606 0.0046557057 -5.2692761e-19)
(0.10480236 0.0039219478 6.954865e-17)
(0.10308532 0.0028669042 -7.202462e-17)
(0.10166703 0.0014061901 7.5612902e-17)
(0.10066402 -0.00055337781 -7.8439257e-17)
(0.10021058 -0.0030469416 0)
(0.10051511 -0.0062302612 -5.4022995e-19)
(0.10180238 -0.010293428 6.2655129e-17)
(0.10440004 -0.01538666 -4.6334362e-19)
(0.10829073 -0.021698363 -5.0237793e-17)
(0.11471226 -0.028900273 -3.4565443e-19)
(0.16716355 -2.0675312e-05 -3.2193958e-18)
(0.1671324 -2.1383798e-05 -8.0569848e-19)
(0.16709977 -1.4000281e-05 -2.418364e-18)
(0.16706646 -4.4603478e-06 0)
(0.16702935 5.4104811e-06 -3.2273549e-18)
(0.16698722 1.51102e-05 3.2288556e-18)
(0.16693963 2.457762e-05 1.615253e-18)
(0.16688629 3.3863956e-05 1.5764142e-23)
(0.16682702 4.3047147e-05 -3.2341324e-18)
(0.1667617 5.2204182e-05 9.7084698e-18)
(0.16669027 6.1401913e-05 -6.4764691e-18)
(0.16661265 7.069779e-05 0)
(0.1665288 8.0141865e-05 6.4856394e-18)
(0.16643864 8.9778811e-05 -6.4904057e-18)
(0.1663421 9.9648888e-05 -6.4955765e-18)
(0.16623909 0.00010979116 4.8755462e-18)
(0.16612952 0.00012024071 1.6265713e-18)
(0.16601327 0.00013103206 -3.2559896e-18)
(0.16589022 0.00014219929 0)
(0.16576025 0.00015377719 1.141715e-17)
(0.16562319 0.0001657999 -1.3060527e-17)
(0.16547889 0.00017830199 0)
(0.16532718 0.00019131931 0)
(0.16516785 0.00020488815 -1.3101522e-17)
(0.16500071 0.00021904655 1.147617e-17)
(0.16482553 0.00023383404 0)
(0.16464208 0.0002492915 0)
(0.16445011 0.00026546225 0)
(0.16424933 0.00028239106 -3.2946747e-18)
(0.16403947 0.0003001257 -1.6494668e-18)
(0.16382022 0.00031871664 0)
(0.16359125 0.00033821569 -1.6539391e-18)
(0.16335222 0.0003586794 -1.6562872e-18)
(0.16310276 0.00038016592 0)
(0.16284247 0.00040273901 -1.162885e-17)
(0.16257095 0.00042646446 1.4974057e-17)
(0.16228775 0.00045141278 0)
(0.16199242 0.00047765892 0)
(0.16168445 0.00050528408 -1.6721419e-18)
(0.16136333 0.00053437343 0)
(0.16102851 0.00056501745 1.3425895e-17)
(0.1606794 0.00059731248 1.3452161e-17)
(0.16031537 0.0006313619 -5.3909785e-17)
(0.15993578 0.0006672753 2.7008848e-17)
(0.15953992 0.00070517053 8.4582605e-19)
(0.15912706 0.00074517264 -2.627865e-17)
(0.15869641 0.00078741576 2.7185688e-17)
(0.15824715 0.00083204225 0)
(0.1577784 0.0008792048 0)
(0.15728922 0.00092906579 -8.5577574e-19)
(0.15677862 0.00098179879 -8.5800792e-19)
(0.15624557 0.0010375883 8.6033141e-19)
(0.15568895 0.0010966311 -8.6275141e-19)
(0.15510758 0.0011591364 -2.7690078e-17)
(0.15450022 0.0012253266 5.4678097e-17)
(0.15386555 0.0012954371 -2.6988832e-17)
(0.15320217 0.0013697177 4.0473659e-25)
(0.1525086 0.0014484311 -2.8926459e-17)
(0.15178328 0.0015318547 5.6297494e-17)
(0.15102455 0.0016202783 -2.8252107e-17)
(0.15023068 0.0017140044 2.7479049e-17)
(0.14939981 0.0018133458 -2.8477293e-17)
(0.14853003 0.0019186243 -8.9375062e-19)
(0.14761929 0.0020301661 2.8729296e-17)
(0.14666548 0.0021482984 4.042738e-21)
(0.14566637 0.002273342 -4.4892908e-19)
(0.14461966 0.0024056041 -5.8301434e-17)
(0.14352297 0.0025453658 -4.6254864e-19)
(0.14237383 0.0026928678 2.9471073e-17)
(0.14116977 0.0028482909 9.2653083e-19)
(0.13990825 0.0030117306 0)
(0.13858676 0.0031831645 0)
(0.13720287 0.0033624099 4.7256297e-19)
(0.13575423 0.0035490692 0)
(0.13423872 0.0037424611 -4.7983603e-19)
(0.13265451 0.0039415305 4.8386654e-19)
(0.13100022 0.0041447363 -4.8820168e-19)
(0.12927505 0.0043499059 0)
(0.12747906 0.0045540539 -3.1872344e-17)
(0.12561341 0.0047531491 6.4945722e-17)
(0.12368072 0.0049418247 -6.4702545e-17)
(0.12168556 0.0051130126 3.3024321e-17)
(0.11963502 0.0052574879 0)
(0.1175394 0.0053633039 3.5078572e-17)
(0.11541323 0.0054150993 -3.5125511e-17)
(0.11327636 0.0053932543 0)
(0.11115544 0.0052728831 1.1242734e-18)
(0.10908576 0.005022655 0)
(0.10711341 0.0046034682 0)
(0.10529802 0.0039670131 0)
(0.10371599 0.0030545286 -4.0892145e-17)
(0.10246443 0.001795651 4.1840615e-17)
(0.10166675 0.00010608838 0)
(0.10145783 -0.0021640656 0)
(0.10202419 -0.005113462 5.9930148e-19)
(0.10355919 -0.008834058 2.7426797e-19)
(0.1064295 -0.01339465 4.9392362e-19)
(0.11054109 -0.018921626 0)
(0.11762081 -0.025245204 3.8647753e-19)
(0.16716519 -2.421886e-05 3.595429e-18)
(0.16713204 -2.5403551e-05 0)
(0.16709871 -1.8452026e-05 3.6017105e-18)
(0.16706525 -9.432852e-06 1.8017351e-18)
(0.16702816 -2.9210477e-07 1.8026171e-18)
(0.16698611 8.5023046e-06 -1.8035564e-18)
(0.1669386 1.6936734e-05 -1.8045643e-18)
(0.16688534 2.5082077e-05 0)
(0.16682615 3.3022778e-05 -1.8067881e-18)
(0.16676091 4.08351e-05 0)
(0.16668956 4.8581458e-05 7.2371253e-18)
(0.16661204 5.6313299e-05 -1.8105082e-18)
(0.16652828 6.4073552e-05 -7.2479239e-18)
(0.16643821 7.1899711e-05 0)
(0.16634177 7.9824351e-05 -9.0748015e-18)
(0.16623887 8.7879216e-05 9.0824964e-18)
(0.16612942 9.60915e-05 -1.8181315e-18)
(0.16601329 0.00010448814 3.6396181e-18)
(0.16589038 0.00011309529 7.2862547e-18)
(0.16576055 0.00012194004 -7.2932771e-18)
(0.16562365 0.0001310483 0)
(0.16547951 0.00014044654 0)
(0.16532797 0.00015016204 1.8290809e-18)
(0.16516883 0.00016022255 0)
(0.16500188 0.00017065702 -1.4665991e-17)
(0.16482691 0.00018149584 1.2847542e-17)
(0.16464368 0.00019277013 0)
(0.16445194 0.00020451338 1.2879817e-17)
(0.16425141 0.00021675986 -1.4738333e-17)
(0.16404182 0.00022954674 1.4758487e-17)
(0.16382284 0.00024291328 -1.385459e-17)
(0.16359417 0.00025689956 0)
(0.16335544 0.00027155008 1.760027e-17)
(0.16310631 0.00028691029 6.0426313e-22)
(0.16284636 0.00030303086 -1.7653482e-17)
(0.16257521 0.00031996387 0)
(0.16229239 0.00033776535 0)
(0.16199746 0.00035649546 9.3375544e-19)
(0.16168992 0.00037621993 -9.3539613e-19)
(0.16136925 0.00039700781 1.4993886e-17)
(0.1610349 0.00041893272 -1.5021183e-17)
(0.16068628 0.00044207359 1.4110421e-17)
(0.16032277 0.00046651557 8.7999367e-22)
(0.15994372 0.0004923495 -1.4167009e-17)
(0.15954844 0.00051967355 -9.4651843e-19)
(0.15913617 0.00054859257 0)
(0.15870615 0.00057921958 0)
(0.15825755 0.00061167528 0)
(0.15778948 0.00064608976 1.433139e-17)
(0.15730102 0.00068260228 1.916826e-18)
(0.15679117 0.00072136241 -2.9771062e-17)
(0.1562589 0.00076253007 1.348125e-17)
(0.15570309 0.00080627684 1.9314711e-18)
(0.15512258 0.00085278602 9.6859345e-19)
(0.1545161 0.00090225358 -1.5545925e-17)
(0.15388235 0.00095488808 1.5594182e-17)
(0.15321993 0.0010109118 9.7793061e-19)
(0.15252736 0.0010705604 3.1403977e-17)
(0.15180307 0.0011340831 -6.3031653e-17)
(0.15104542 0.0012017425 3.212711e-17)
(0.15025267 0.0012738138 9.9247199e-19)
(0.14942297 0.0013505832 0)
(0.14855441 0.001432347 -3.1027794e-17)
(0.14764494 0.0015194075 3.1665643e-17)
(0.14669246 0.0016120701 -1.5150859e-18)
(0.14569476 0.0017106371 5.0751967e-19)
(0.14464953 0.0018154006 3.2651771e-17)
(0.14355441 0.0019266322 -3.2311235e-17)
(0.14240697 0.0020445705 0)
(0.14120473 0.0021694029 0)
(0.13994521 0.002301244 3.2904342e-17)
(0.13862594 0.0024401059 -6.7294944e-17)
(0.13724453 0.0025858609 3.335307e-17)
(0.13579872 0.0027381936 3.4143299e-17)
(0.13428648 0.002896539 -3.4945913e-17)
(0.1327061 0.003060004 -2.3410004e-24)
(0.13105637 0.0032272682 -3.447288e-17)
(0.12933669 0.0033964567 -7.8792221e-21)
(0.12754738 0.0035649805 3.515691e-17)
(0.12568994 0.0037293346 -5.6430628e-19)
(0.12376744 0.0038848448 5.7106259e-19)
(0.12178498 0.0040253512 0)
(0.11975032 0.0041428133 0)
(0.11767466 0.0042268222 -5.9562662e-19)
(0.11557358 0.0042640006 7.7620555e-24)
(0.11346825 0.0042372725 -6.1689872e-19)
(0.11138694 0.004124985 -6.2959797e-19)
(0.10936684 0.003899872 0)
(0.10745629 0.003527865 0)
(0.10571744 0.0029667659 0)
(0.10422923 0.0021649767 4.5979056e-17)
(0.1030908 0.0010602622 -9.3196447e-17)
(0.10242293 -0.00041684086 4.8522632e-17)
(0.1023653 -0.0023152384 0)
(0.10311145 -0.0047367602 -4.2679004e-17)
(0.10484532 -0.0078009205 7.8336681e-17)
(0.10794337 -0.011613877 -1.3589085e-20)
(0.11222183 -0.016273358 -1.7596813e-20)
(0.11964864 -0.021791915 -2.7596613e-17)
(0.16716688 -2.7635777e-05 -2.0053877e-18)
(0.16713174 -2.9078266e-05 0)
(0.16709779 -2.2449234e-05 1.0046444e-18)
(0.16706421 -1.3792869e-05 -5.0259428e-18)
(0.16702716 -5.18719e-06 -2.0114815e-18)
(0.16698518 2.960016e-06 -2.012665e-18)
(0.16693774 1.069729e-05 4.0278202e-18)
(0.16688454 1.8127109e-05 -4.0305198e-18)
(0.1668254 2.5352501e-05 1.0083314e-17)
(0.16676021 3.2460993e-05 -2.018125e-18)
(0.16668891 3.9522251e-05 0)
(0.16661142 4.6593025e-05 6.0639741e-18)
(0.1665277 5.3719838e-05 5.6727177e-23)
(0.16643768 6.094326e-05 4.0495787e-18)
(0.16634128 6.8297934e-05 -8.1061413e-18)
(0.16623841 7.581762e-05 -8.1137576e-18)
(0.166129 8.35307e-05 1.8273193e-17)
(0.16601291 9.1465297e-05 -8.1293241e-18)
(0.16589004 9.9648208e-05 0)
(0.16576025 0.00010810722 -6.1096905e-18)
(0.16562339 0.00011686839 8.1548001e-18)
(0.1654793 0.0001259584 0)
(0.16532781 0.00013540422 6.1300141e-18)
(0.16516871 0.00014523343 2.1567626e-22)
(0.16500182 0.00015547419 -8.1925416e-18)
(0.1648269 0.0001661563 1.0253635e-17)
(0.16464373 0.00017730965 -9.2398127e-18)
(0.16445205 0.00018896662 1.0280199e-17)
(0.16425158 0.00020115975 1.0296663e-18)
(0.16404205 0.00021392445 -9.2772793e-18)
(0.16382315 0.00022729784 -1.0322976e-18)
(0.16359454 0.00024131741 0)
(0.1633559 0.00025602475 -2.0331351e-25)
(0.16310684 0.00027146195 -1.6592291e-17)
(0.16284699 0.00028767591 2.0766191e-18)
(0.16257592 0.00030471437 1.6645732e-17)
(0.16229321 0.00032262824 1.0421543e-18)
(0.16199838 0.00034147215 -1.7748181e-17)
(0.16169095 0.00036130559 1.6733657e-17)
(0.1613704 0.00038219053 0)
(0.16103617 0.00040419248 1.049856e-18)
(0.16068769 0.00042738145 1.8935546e-17)
(0.16032433 0.00045183246 -1.6865314e-17)
(0.15994543 0.00047762523 1.6902171e-17)
(0.15955031 0.00050484524 -1.693826e-17)
(0.15913822 0.00053358345 -1.0610787e-18)
(0.15870839 0.00056393718 1.8081349e-17)
(0.15825998 0.00059600996 -1.7057998e-17)
(0.15779213 0.00062991254 8.0163167e-25)
(0.1573039 0.00066576297 1.5003629e-17)
(0.15679431 0.00070368724 1.3757766e-21)
(0.15626231 0.00074381938 -1.616266e-17)
(0.15570679 0.00078630222 -2.1613935e-18)
(0.15512659 0.00083128767 -1.0839675e-18)
(0.15452045 0.00087893711 -1.739885e-17)
(0.15388707 0.00092942137 1.7999523e-17)
(0.15322505 0.00098292142 1.7515167e-17)
(0.15253291 0.0010396279 -1.6476847e-17)
(0.1518091 0.0010997416 0)
(0.15105198 0.0011634724 -1.8263388e-17)
(0.15025979 0.0012310387 1.7223338e-17)
(0.14943073 0.0013026665 0)
(0.14856285 0.0013785874 1.7373433e-17)
(0.14765416 0.0014590361 -1.7450602e-17)
(0.14670253 0.0015442467 5.656588e-19)
(0.14570578 0.0016344482 -1.8193342e-17)
(0.14466162 0.0017298578 1.8286457e-17)
(0.1435677 0.0018306727 5.746533e-19)
(0.14242161 0.0019370586 0)
(0.14122091 0.0020491352 0)
(0.13996315 0.0021669572 -1.8145411e-17)
(0.1386459 0.0022904898 1.8854751e-17)
(0.13726683 0.0024195773 0)
(0.13582375 0.0025539025 0)
(0.1343147 0.0026929352 6.0284783e-19)
(0.13273809 0.0028358664 1.8850695e-17)
(0.13109282 0.0029815249 -1.9632296e-17)
(0.12937847 0.0031282716 0)
(0.12759557 0.0032738653 1.2520409e-18)
(0.12574586 0.0034152951 6.33031e-19)
(0.12383273 0.0035485698 -3.6470051e-24)
(0.12186168 0.003668454 0)
(0.11984099 0.0037681426 0)
(0.11778243 0.0038388574 4.2773172e-17)
(0.11570234 0.0038693549 6.8999386e-19)
(0.11362279 0.0038453305 -4.3587799e-17)
(0.1115731 0.0037487068 3.5299257e-19)
(0.10959171 0.0035568041 3.6092575e-19)
(0.10772836 0.0032414062 0)
(0.10604673 0.002767753 0)
(0.10462738 0.0020936445 -3.9229616e-19)
(0.10357124 0.0011686102 0)
(0.10300215 -6.8920721e-05 -4.1835608e-19)
(0.10306523 -0.0017131893 3.9796297e-19)
(0.10395121 -0.0038410721 3.7237223e-19)
(0.10583138 -0.0065267164 3.4267594e-19)
(0.10908825 -0.0098446048 0)
(0.11347945 -0.013832509 0)
(0.12109154 -0.018661946 -2.451294e-19)
(0.16716859 -3.0907537e-05 2.5130794e-18)
(0.16713153 -3.2426632e-05 -2.5166537e-18)
(0.16709704 -2.6064759e-05 1.1193524e-18)
(0.16706337 -1.7714586e-05 1.1200429e-18)
(0.16702637 -9.6188306e-06 2.2414804e-18)
(0.16698446 -2.119389e-06 2.242971e-18)
(0.1669371 4.8862303e-06 2.4400976e-25)
(0.16688397 1.1522176e-05 0)
(0.1668249 1.7900238e-05 4.4960115e-18)
(0.16675977 2.4109612e-05 -6.7494743e-18)
(0.16668853 3.0218032e-05 0)
(0.16661111 3.6278772e-05 6.7612195e-18)
(0.16652746 4.2333673e-05 -4.5115364e-18)
(0.1664375 4.8418496e-05 4.515846e-18)
(0.16634118 5.4562494e-05 -4.5201552e-18)
(0.1662384 6.0794289e-05 -2.2623523e-18)
(0.16612906 6.7136687e-05 2.3903453e-26)
(0.16601307 7.3612491e-05 -3.4006057e-18)
(0.16589029 8.0242872e-05 0)
(0.1657606 8.7050235e-05 0)
(0.16562385 9.4054869e-05 0)
(0.16547988 0.00010127787 0)
(0.1653285 0.00010874027 7.9804602e-18)
(0.16516954 0.00011646386 -1.9404879e-17)
(0.16500279 0.00012447058 9.1432105e-18)
(0.16482802 0.0001327841 9.1554225e-18)
(0.16464501 0.00014142773 1.146224e-18)
(0.16445349 0.00015042731 -1.0327597e-17)
(0.1642532 0.00015980835 1.1491508e-18)
(0.16404386 0.00016959926 1.1508217e-18)
(0.16382516 0.00017982972 -9.2204947e-18)
(0.16359677 0.00019052951 1.038862e-17)
(0.16335835 0.00020173224 -2.3122626e-18)
(0.16310953 0.00021347165 0)
(0.16284993 0.00022578605 6.9598386e-18)
(0.16257913 0.00023871419 -1.161521e-18)
(0.1622967 0.00025229739 -1.1639637e-17)
(0.16200217 0.00026658059 0)
(0.16169506 0.00028161306 1.1682884e-18)
(0.16137484 0.00029744615 9.3646023e-18)
(0.16104097 0.00031413419 -1.0555625e-17)
(0.16069286 0.00033173571 -1.1752832e-18)
(0.16032989 0.00035031355 0)
(0.15995141 0.00036993497 0)
(0.15955673 0.00039067224 0)
(0.15914511 0.0004126028 -1.7787249e-17)
(0.15871577 0.00043580967 1.7828885e-17)
(0.15826788 0.00046038172 -5.9579997e-19)
(0.15780058 0.00048641424 2.0310235e-17)
(0.15731293 0.00051400942 -1.7967349e-17)
(0.15680394 0.00054327659 6.0059435e-19)
(0.15627259 0.00057433272 0)
(0.15571775 0.00060730281 1.8123396e-18)
(0.15513826 0.00064232042 0)
(0.15453289 0.00067952785 1.9454555e-17)
(0.15390031 0.00071907651 -2.0737501e-17)
(0.15323914 0.00076112713 0)
(0.1525479 0.0008058499 0)
(0.15182504 0.00085342439 0)
(0.15106892 0.00090403917 0)
(0.1502778 0.00095789114 2.1133396e-17)
(0.14944987 0.0010151846 -1.9972747e-17)
(0.14858321 0.0010761298 1.4442971e-24)
(0.1476758 0.0011409406 -1.9527944e-17)
(0.14672556 0.0012098311 1.9620397e-17)
(0.14573029 0.0012830119 2.0359719e-17)
(0.14468772 0.0013606842 -2.0465746e-17)
(0.14359553 0.0014430321 -6.4319942e-19)
(0.14245133 0.0015302129 0)
(0.14125269 0.0016223442 -6.5102096e-19)
(0.13999719 0.001719487 0)
(0.13868244 0.0018216243 6.5981327e-19)
(0.13730617 0.0019286334 -2.0605627e-17)
(0.13586622 0.0020402507 4.2195307e-17)
(0.13436073 0.0021560265 -2.2281075e-17)
(0.13278818 0.0022752682 0)
(0.13114758 0.0023969679 0)
(0.12943865 0.0025197117 0)
(0.12766208 0.0026415642 -1.0522791e-18)
(0.12581981 0.0027599255 0)
(0.1239155 0.0028713509 -1.077076e-18)
(0.12195495 0.0029713277 2.2917114e-17)
(0.11994677 0.0030539977 5.724326e-21)
(0.11790322 0.0031118155 3.8032952e-19)
(0.11584114 0.0031351309 -4.9118269e-17)
(0.1137832 0.00311168 -5.8634203e-21)
(0.11175944 0.0030259734 2.4515375e-17)
(0.10980909 0.0028585717 2.5061059e-17)
(0.10798276 0.0025852449 -2.6493937e-17)
(0.10634506 0.0021760234 2.7215461e-17)
(0.10497745 0.0015942624 -2.803099e-17)
(0.10398144 0.00079566638 0)
(0.10347979 -0.00027003698 2.9301118e-17)
(0.10361782 -0.0016508735 -5.766258e-17)
(0.10458881 -0.0034162924 -4.1340409e-19)
(0.10656159 -0.0056430483 2.4600921e-17)
(0.10992367 -0.0084203032 0)
(0.1143959 -0.011753451 3.1342209e-19)
(0.12209669 -0.015932848 -2.7730457e-19)
(0.16717026 -3.4021715e-05 -2.7936088e-18)
(0.16713134 -3.5469379e-05 2.7978056e-18)
(0.16709637 -2.9322967e-05 0)
(0.16706264 -2.1202927e-05 0)
(0.16702571 -1.3535934e-05 -2.493532e-18)
(0.16698388 -6.5799408e-06 0)
(0.16693659 -1.7456907e-07 -2.4974707e-18)
(0.16688353 5.8303547e-06 2.4995969e-18)
(0.16682451 1.1560445e-05 0)
(0.16675944 1.711217e-05 -2.5041318e-18)
(0.16668825 2.2557369e-05 7.5195159e-18)
(0.16661088 2.7952078e-05 -2.5088929e-18)
(0.16652728 3.3339748e-05 -3.7672023e-18)
(0.16643738 3.875754e-05 0)
(0.16634111 4.423545e-05 0)
(0.16623838 4.9802837e-05 0)
(0.16612911 5.5482732e-05 2.5223951e-18)
(0.16601317 6.1298209e-05 -2.5251969e-18)
(0.16589046 6.7270276e-05 0)
(0.16576084 7.3421235e-05 0)
(0.16562416 7.977082e-05 -5.0688336e-18)
(0.16548026 8.6339651e-05 5.0751237e-18)
(0.16532896 9.3147847e-05 8.9220788e-26)
(0.16517009 0.00010021635 1.0714879e-25)
(0.16500342 0.00010756581 -1.2738511e-18)
(0.16482874 0.00011521858 1.0205142e-17)
(0.16464583 0.0001231963 -1.1496833e-17)
(0.16445441 0.00013152305 1.2793091e-18)
(0.16425424 0.00014022217 8.96875e-18)
(0.16404501 0.00014931977 -2.0531094e-17)
(0.16382643 0.00015884291 1.0281531e-17)
(0.16359818 0.00016881841 -2.9703354e-25)
(0.1633599 0.0001792766 1.1605036e-17)
(0.16311123 0.00019024756 4.2000008e-22)
(0.16285179 0.00020176557 -1.8114323e-17)
(0.16258116 0.00021386492 1.1665613e-17)
(0.16229891 0.00022658181 4.7068018e-25)
(0.16200457 0.00023995574 0)
(0.16169766 0.00025402992 0)
(0.16137766 0.00026884898 0)
(0.16104403 0.00028445975 1.047173e-17)
(0.16069616 0.00030091266 -1.0493486e-17)
(0.16033346 0.00031826144 0)
(0.15995527 0.00033656353 6.5879203e-19)
(0.15956089 0.00035588017 1.1226002e-17)
(0.1591496 0.00037627687 6.9440662e-22)
(0.15872061 0.00039782336 -1.061689e-17)
(0.1582731 0.00042059411 6.6528778e-19)
(0.1578062 0.00044466846 0)
(0.15731898 0.00047013129 0)
(0.15681046 0.0004970728 1.0062564e-17)
(0.1562796 0.00052558927 8.9454792e-22)
(0.15572531 0.00055578289 -1.1472052e-17)
(0.15514641 0.00058776266 6.7699781e-19)
(0.15454166 0.00062164395 6.792312e-19)
(0.15390977 0.00065754913 6.8155942e-19)
(0.15324933 0.00069560736 6.8398561e-19)
(0.1525589 0.00073595495 0)
(0.15183691 0.00077873485 0)
(0.15108173 0.00082409662 -2.2143191e-17)
(0.15029165 0.00087219537 2.1538471e-17)
(0.14946485 0.00092319141 0)
(0.14859942 0.00097724833 1.4481672e-24)
(0.14769336 0.0010345315 -2.3246458e-17)
(0.1467446 0.0010952048 4.6013835e-17)
(0.14575096 0.0011594279 -2.2769607e-17)
(0.1447102 0.0012273506 -2.289763e-17)
(0.14362 0.001299107 2.3025591e-17)
(0.14247801 0.0013748069 -7.2394475e-19)
(0.14128182 0.0014545256 2.4043825e-17)
(0.14002907 0.001538289 -2.3466995e-17)
(0.1387174 0.0016260567 -1.1078589e-18)
(0.13734457 0.0017176984 -2.4556467e-17)
(0.13590851 0.0018129651 2.4744955e-17)
(0.13440742 0.0019114513 -2.3443542e-17)
(0.13283987 0.0020125486 4.8822103e-17)
(0.13120495 0.0021153852 -2.4637631e-17)
(0.12950253 0.0022187512 0)
(0.12773341 0.0023210042 3.9300444e-19)
(0.12589973 0.0024199505 -2.5442332e-17)
(0.1240053 0.0025126977 2.574765e-17)
(0.12205617 0.0025954721 8.1529328e-19)
(0.1200612 0.0026633916 0)
(0.11803293 0.002710188 -4.1976553e-19)
(0.1159885 0.002727868 3.8973236e-24)
(0.11395094 0.0027063026 -2.7373881e-17)
(0.11195059 0.0026327346 2.8793313e-17)
(0.11002701 0.0024912012 -2.8516234e-17)
(0.10823107 0.0022618671 -5.8472004e-21)
(0.10662751 0.0019202882 3.0424514e-17)
(0.10529781 0.0014367241 -4.8914077e-19)
(0.10434335 0.00077537408 3.2306463e-17)
(0.10388753 -0.00010682019 -3.2593665e-17)
(0.10407815 -0.0012707408 4.9483443e-19)
(0.10510737 -0.0027744383 4.6590764e-19)
(0.10713903 -0.0046739827 2.8057604e-17)
(0.11056202 -0.0070462141 -5.0788925e-17)
(0.11508163 -0.0098587931 2.2352214e-17)
(0.12280112 -0.013494726 3.1431331e-19)
(0.16717189 -3.6966357e-05 1.3861224e-24)
(0.16713119 -3.8226507e-05 -6.8929139e-19)
(0.16709583 -3.2259625e-05 6.9053378e-19)
(0.16706204 -2.4316321e-05 0)
(0.16702519 -1.7033126e-05 0)
(0.16698344 -1.0574841e-05 0)
(0.16693622 -4.7288363e-06 -1.3865868e-18)
(0.16688322 6.7618626e-07 -2.7758949e-18)
(0.16682427 5.7749982e-06 1.3893723e-18)
(0.16675925 1.0666868e-05 -4.1724246e-18)
(0.16668812 1.5423383e-05 2.7846376e-18)
(0.1666108 2.0098945e-05 -2.7876769e-18)
(0.16652726 2.4734345e-05 -1.3954229e-18)
(0.16643742 2.9363874e-05 0)
(0.16634121 3.4014159e-05 -5.5948036e-18)
(0.16623855 3.8711203e-05 4.2010921e-18)
(0.16612934 4.3474417e-05 0)
(0.16601348 4.8323353e-05 4.2116842e-18)
(0.16589085 5.3275213e-05 -7.0283629e-18)
(0.16576131 5.8348619e-05 5.6301903e-18)
(0.16562472 6.3559362e-05 -1.26848e-17)
(0.16548092 6.892422e-05 4.2339977e-18)
(0.16532973 7.4459198e-05 2.826662e-18)
(0.16517096 8.0181226e-05 1.4153531e-18)
(0.16500441 8.6106611e-05 1.6667729e-25)
(0.16482987 9.2253455e-05 0)
(0.16464708 9.8638791e-05 2.1518387e-25)
(0.16445582 0.00010528213 0)
(0.1642558 0.00011220187 1.4262027e-18)
(0.16404674 0.00011941919 0)
(0.16382834 0.00012695591 0)
(0.16360028 0.0001348334 -1.4333756e-18)
(0.1633622 0.00014307633 0)
(0.16311376 0.00015170887 -1.150803e-17)
(0.16285455 0.00016075913 1.080821e-17)
(0.16258418 0.00017025497 7.2192609e-19)
(0.1623022 0.00018022574 1.4466555e-18)
(0.16200816 0.00019070387 0)
(0.16170157 0.00020172516 0)
(0.16138191 0.00021332645 7.2778093e-19)
(0.16104863 0.00022554639 -1.1670012e-17)
(0.16070116 0.00023842686 1.1695345e-17)
(0.16033888 0.00025201259 0)
(0.15996113 0.00026635163 -7.3438291e-19)
(0.15956724 0.00028149526 -7.3616876e-19)
(0.15915646 0.00029749868 0)
(0.15872803 0.00031442064 -1.183919e-17)
(0.15828112 0.00033232424 1.2611883e-17)
(0.15781487 0.00035127672 7.4394597e-19)
(0.15732835 0.00037135042 1.1937552e-17)
(0.15682058 0.00039262231 -1.1971823e-17)
(0.15629053 0.00041517486 0)
(0.15573711 0.00043909571 1.2047331e-17)
(0.15515915 0.00046447872 1.0852339e-21)
(0.15455542 0.00049142334 -1.2884742e-17)
(0.15392461 0.00052003545 0)
(0.15326537 0.00055042691 -1.2978732e-17)
(0.15257621 0.00058271615 1.2260553e-17)
(0.15185561 0.0006170275 -7.6935807e-19)
(0.15110195 0.00065349139 7.7252988e-19)
(0.1503135 0.0006922432 -1.2414339e-17)
(0.14948848 0.00073342317 1.2468433e-17)
(0.14862498 0.00077717458 1.5659347e-18)
(0.14772105 0.0008236426 0)
(0.14677459 0.00087297125 1.2653837e-17)
(0.14578348 0.00092530101 -1.3117169e-17)
(0.14474549 0.00098076404 0)
(0.14365834 0.0010394792 4.020896e-19)
(0.14251969 0.0011015441 8.0913946e-19)
(0.14132721 0.0011670268 0)
(0.14007854 0.0012359528 1.3120143e-17)