/*--------------------------------*- C++ -*----------------------------------*\
| =========                 |                                                 |
| \\      /  F ield         | OpenFOAM: The Open Source CFD Toolbox           |
|  \\    /   O peration     | Version:  2406                                  |
|   \\  /    A nd           | Website:  www.openfoam.com                      |
|    \\/     M anipulation  |                                                 |
\*---------------------------------------------------------------------------*/
FoamFile
{
    version     2.0;
    format      ascii;
    arch        "LSB;label=32;scalar=64";
    class       volScalarField;
    location    "32";
    object      alphat;
}
// * * * * * * * * * * * * * * * * * * * * * * * * * * * * * * * * * * * * * //

dimensions      [1 -1 -1 0 0 0 0];

internalField   nonuniform List<scalar> 
62344
(
1.040361e-06
1.1858708e-06
1.180057e-06
1.1113845e-06
1.0581295e-06
1.0285189e-06
1.0222908e-06
1.0324095e-06
1.0533196e-06
1.0625044e-06
1.0612386e-06
1.0475452e-06
1.0307636e-06
1.0206211e-06
1.0091861e-06
1.0059587e-06
1.0072548e-06
1.0086614e-06
1.0057547e-06
9.9663888e-07
9.8555099e-07
9.7954525e-07
9.8560588e-07
1.0012887e-06
1.0150732e-06
1.0216297e-06
1.0384291e-06
1.0571963e-06
1.0792086e-06
1.0980357e-06
1.1205867e-06
1.1288362e-06
1.1441824e-06
1.1569618e-06
1.1743437e-06
1.2270114e-06
1.3553243e-06
1.4178399e-06
1.5897247e-06
1.6479328e-06
1.8883533e-06
2.1892748e-06
2.5800918e-06
2.6690261e-06
2.8467983e-06
3.2636306e-06
4.2614247e-06
4.8555903e-06
5.3888918e-06
5.4911564e-06
6.0530372e-06
6.5555541e-06
7.6026595e-06
8.0759504e-06
8.8341784e-06
1.0383375e-06
1.1816248e-06
1.1793233e-06
1.1127129e-06
1.0575253e-06
1.0275137e-06
1.0206488e-06
1.0304594e-06
1.0527149e-06
1.0613432e-06
1.0618496e-06
1.0473775e-06
1.0306395e-06
1.0199565e-06
1.0101618e-06
1.0037258e-06
1.0063252e-06
1.0106519e-06
1.0058918e-06
9.9879176e-07
9.8815882e-07
9.7994442e-07
9.8124437e-07
9.9421143e-07
1.0098344e-06
1.0179904e-06
1.0308536e-06
1.0454975e-06
1.0661809e-06
1.0841693e-06
1.108766e-06
1.1168904e-06
1.1320489e-06
1.1407688e-06
1.148313e-06
1.1823707e-06
1.2712435e-06
1.3285515e-06
1.4757819e-06
1.5626823e-06
1.8302456e-06
2.0133353e-06
2.4560836e-06
2.6131703e-06
2.9157589e-06
3.1959469e-06
3.9460381e-06
4.7591501e-06
5.2242421e-06
5.7734167e-06
6.0259572e-06
6.7724096e-06
7.4709644e-06
8.6502441e-06
9.3567869e-06
1.038513e-06
1.1844962e-06
1.1827495e-06
1.1143992e-06
1.0600396e-06
1.0286168e-06
1.0219941e-06
1.0310267e-06
1.0521533e-06
1.0632529e-06
1.0657558e-06
1.0536112e-06
1.035025e-06
1.0253375e-06
1.014766e-06
1.0070554e-06
1.0105816e-06
1.0147946e-06
1.0099094e-06
1.0031597e-06
9.9328972e-07
9.858664e-07
9.8605905e-07
9.9546191e-07
1.0084207e-06
1.0208472e-06
1.033101e-06
1.0453004e-06
1.0646259e-06
1.0818159e-06
1.105833e-06
1.1157671e-06
1.1340638e-06
1.1398226e-06
1.1445325e-06
1.1674259e-06
1.2131529e-06
1.2585639e-06
1.3672723e-06
1.4628604e-06
1.6461761e-06
1.7354197e-06
1.9822956e-06
2.3270747e-06
2.6153204e-06
2.9290508e-06
3.2199867e-06
4.0777779e-06
4.596914e-06
5.5430546e-06
5.9212729e-06
6.7505635e-06
7.2831619e-06
8.219322e-06
9.3486543e-06
1.0384176e-06
1.1855738e-06
1.185246e-06
1.1158557e-06
1.0621064e-06
1.02939e-06
1.020527e-06
1.029784e-06
1.0531947e-06
1.0649316e-06
1.0692102e-06
1.0572899e-06
1.0388743e-06
1.0259649e-06
1.0166217e-06
1.0127598e-06
1.0117406e-06
1.015524e-06
1.0156763e-06
1.0084714e-06
9.9753251e-07
9.886003e-07
9.8991845e-07
1.0005592e-06
1.0095547e-06
1.0216127e-06
1.0345691e-06
1.0456123e-06
1.0655761e-06
1.0835168e-06
1.1043155e-06
1.1190958e-06
1.1415305e-06
1.1463465e-06
1.1505266e-06
1.1697358e-06
1.193955e-06
1.2209664e-06
1.3118798e-06
1.4072283e-06
1.5671749e-06
1.626157e-06
1.8348041e-06
2.0267698e-06
2.2507679e-06
2.5906066e-06
2.7873395e-06
3.1998268e-06
3.6516294e-06
4.1850846e-06
5.1535684e-06
5.9650484e-06
6.7594156e-06
7.2353285e-06
8.6116179e-06
1.0379875e-06
1.1858242e-06
1.1876788e-06
1.1176293e-06
1.0632125e-06
1.0289493e-06
1.0203393e-06
1.0305379e-06
1.0553715e-06
1.0659446e-06
1.0702333e-06
1.0585574e-06
1.0419544e-06
1.0257629e-06
1.0178595e-06
1.0134278e-06
1.013542e-06
1.0193041e-06
1.0208227e-06
1.0137537e-06
1.0034315e-06
9.9452878e-07
9.9372319e-07
1.0027284e-06
1.0096807e-06
1.0204547e-06
1.0329946e-06
1.0458364e-06
1.064128e-06
1.0836947e-06
1.1003754e-06
1.1188e-06
1.1444034e-06
1.1508728e-06
1.1555321e-06
1.1735152e-06
1.189181e-06
1.2020044e-06
1.2656279e-06
1.3490492e-06
1.4831252e-06
1.5460952e-06
1.7418367e-06
1.8744138e-06
2.2019232e-06
2.3557693e-06
2.6181452e-06
2.7914016e-06
3.1981791e-06
3.5301811e-06
4.1724983e-06
4.6368967e-06
5.3592908e-06
5.719795e-06
6.7854095e-06
1.0377731e-06
1.1846637e-06
1.1887456e-06
1.1185909e-06
1.064386e-06
1.0302999e-06
1.0211086e-06
1.0318543e-06
1.0545458e-06
1.0664039e-06
1.0701425e-06
1.0636302e-06
1.0448036e-06
1.0279398e-06
1.0193145e-06
1.0145977e-06
1.0156625e-06
1.0206102e-06
1.0201981e-06
1.0143247e-06
1.0073503e-06
9.9982397e-07
9.9551064e-07
1.002085e-06
1.010313e-06
1.0213089e-06
1.0335065e-06
1.0471195e-06
1.0632928e-06
1.0828564e-06
1.0943985e-06
1.1146819e-06
1.1414422e-06
1.1512874e-06
1.159751e-06
1.1794156e-06
1.1951543e-06
1.2025363e-06
1.2442684e-06
1.3094032e-06
1.4171205e-06
1.4937333e-06
1.6647545e-06
1.8046762e-06
2.1068982e-06
2.2772169e-06
2.5711467e-06
2.7313583e-06
3.0962802e-06
3.3542698e-06
3.839943e-06
4.1675977e-06
4.7317852e-06
5.0204961e-06
5.6144596e-06
1.0385318e-06
1.1869103e-06
1.1908e-06
1.1211968e-06
1.0672888e-06
1.0326807e-06
1.0210917e-06
1.0317e-06
1.0538511e-06
1.0689799e-06
1.0743187e-06
1.0693638e-06
1.047613e-06
1.029685e-06
1.0218739e-06
1.0180379e-06
1.0171686e-06
1.0196937e-06
1.0212537e-06
1.0182697e-06
1.0113192e-06
1.0031665e-06
9.9765616e-07
1.0014677e-06
1.0098993e-06
1.0220582e-06
1.0335293e-06
1.0471417e-06
1.0624965e-06
1.0820221e-06
1.0913582e-06
1.1129544e-06
1.1389783e-06
1.1502604e-06
1.1630147e-06
1.1830095e-06
1.2011582e-06
1.2082462e-06
1.2417093e-06
1.2910839e-06
1.3745496e-06
1.442707e-06
1.591965e-06
1.7251495e-06
1.9811838e-06
2.1454973e-06
2.470816e-06
2.6636243e-06
3.0446589e-06
3.2849545e-06
3.7094412e-06
3.9674703e-06
4.4710847e-06
4.8604713e-06
5.4251142e-06
1.0384382e-06
1.1857393e-06
1.1912952e-06
1.1227953e-06
1.0687763e-06
1.0328301e-06
1.0193431e-06
1.0305744e-06
1.053896e-06
1.0694343e-06
1.0748539e-06
1.0690787e-06
1.0503295e-06
1.0313705e-06
1.0224808e-06
1.0203592e-06
1.0169399e-06
1.0203817e-06
1.0266138e-06
1.0258695e-06
1.0171502e-06
1.0083102e-06
1.0019784e-06
1.0029591e-06
1.0086387e-06
1.0195691e-06
1.0308532e-06
1.0443191e-06
1.0627028e-06
1.08368e-06
1.0917964e-06
1.113571e-06
1.1380424e-06
1.1499768e-06
1.1654932e-06
1.1868028e-06
1.1984383e-06
1.2101876e-06
1.2468831e-06
1.282561e-06
1.3384669e-06
1.3945578e-06
1.5255364e-06
1.6364115e-06
1.8351195e-06
1.9630622e-06
2.2455078e-06
2.4553096e-06
2.7682041e-06
3.0197493e-06
3.5118267e-06
3.7201436e-06
4.1526748e-06
4.5943524e-06
5.2302006e-06
1.038145e-06
1.183939e-06
1.1914065e-06
1.1230199e-06
1.0687485e-06
1.0323357e-06
1.0182077e-06
1.0292799e-06
1.0521505e-06
1.0679828e-06
1.0736987e-06
1.0671689e-06
1.0514471e-06
1.0313199e-06
1.0214884e-06
1.0196448e-06
1.0165373e-06
1.0201631e-06
1.0264277e-06
1.0268886e-06
1.0186135e-06
1.010296e-06
1.004411e-06
1.0034436e-06
1.0072487e-06
1.0178343e-06
1.0295796e-06
1.0418188e-06
1.0623547e-06
1.0847761e-06
1.0939147e-06
1.1145213e-06
1.1376565e-06
1.1498429e-06
1.1700503e-06
1.1927702e-06
1.1994074e-06
1.2132795e-06
1.2494764e-06
1.2783679e-06
1.2985503e-06
1.3791999e-06
1.5144496e-06
1.5910997e-06
1.6924031e-06
1.7944996e-06
2.0402712e-06
2.2407478e-06
2.443034e-06
2.689011e-06
3.1681343e-06
3.3551077e-06
3.7249951e-06
4.0006889e-06
4.7058058e-06
1.0381602e-06
1.1832097e-06
1.192086e-06
1.1225002e-06
1.0683884e-06
1.033161e-06
1.0186913e-06
1.029058e-06
1.0500391e-06
1.0662253e-06
1.0724405e-06
1.0678218e-06
1.0536028e-06
1.0313939e-06
1.0196146e-06
1.017468e-06
1.0164991e-06
1.0198272e-06
1.0240837e-06
1.0248235e-06
1.018914e-06
1.0123706e-06
1.0071424e-06
1.0045263e-06
1.0071816e-06
1.0193144e-06
1.0324938e-06
1.0426465e-06
1.0621281e-06
1.0833771e-06
1.094828e-06
1.1148012e-06
1.13556e-06
1.1472981e-06
1.1691357e-06
1.1936948e-06
1.2034293e-06
1.2204185e-06
1.2509399e-06
1.2766995e-06
1.2963769e-06
1.3765153e-06
1.500671e-06
1.575458e-06
1.6269041e-06
1.682742e-06
1.8731843e-06
2.0461792e-06
2.3339564e-06
2.6286e-06
2.9723475e-06
3.140618e-06
3.4066317e-06
3.5267656e-06
3.8541295e-06
1.0384372e-06
1.1839695e-06
1.1931489e-06
1.1228602e-06
1.069746e-06
1.0349389e-06
1.0190971e-06
1.028646e-06
1.0487816e-06
1.0677778e-06
1.076131e-06
1.0729397e-06
1.0573912e-06
1.0347927e-06
1.0212949e-06
1.0180249e-06
1.0192169e-06
1.0218175e-06
1.0230609e-06
1.0242551e-06
1.0228493e-06
1.018438e-06
1.0134819e-06
1.0095434e-06
1.0099007e-06
1.022307e-06
1.0377853e-06
1.0473157e-06
1.0638017e-06
1.0794585e-06
1.0935628e-06
1.1130782e-06
1.1332883e-06
1.144151e-06
1.1694848e-06
1.1945814e-06
1.207881e-06
1.225083e-06
1.2626701e-06
1.2867919e-06
1.3105709e-06
1.3695043e-06
1.4859355e-06
1.5627299e-06
1.6364524e-06
1.6708353e-06
1.8063025e-06
1.9679872e-06
2.2702058e-06
2.6236305e-06
2.9118123e-06
3.2046883e-06
3.3702783e-06
3.4725805e-06
3.5708423e-06
1.0382948e-06
1.1829822e-06
1.1932805e-06
1.1236654e-06
1.0714939e-06
1.0366218e-06
1.0172882e-06
1.0280646e-06
1.0492172e-06
1.0713647e-06
1.0813216e-06
1.0763453e-06
1.0614998e-06
1.0404477e-06
1.0263027e-06
1.0219666e-06
1.0254247e-06
1.026126e-06
1.0298155e-06
1.0316935e-06
1.0325372e-06
1.0267427e-06
1.0187982e-06
1.0129065e-06
1.011485e-06
1.0219531e-06
1.0363347e-06
1.0472403e-06
1.0631933e-06
1.0761222e-06
1.0916506e-06
1.1108569e-06
1.1298504e-06
1.1423304e-06
1.1705391e-06
1.1957124e-06
1.2171054e-06
1.2295945e-06
1.2799878e-06
1.3102792e-06
1.3425349e-06
1.3683423e-06
1.4584667e-06
1.5291279e-06
1.6413817e-06
1.6839784e-06
1.7837797e-06
1.9434362e-06
2.253391e-06
2.5211947e-06
2.7979808e-06
3.2223712e-06
3.4243787e-06
3.5859202e-06
3.6187247e-06
1.0377773e-06
1.1805396e-06
1.1929233e-06
1.1240398e-06
1.0719882e-06
1.036487e-06
1.015746e-06
1.026667e-06
1.0473141e-06
1.0705314e-06
1.0812242e-06
1.0754929e-06
1.0623833e-06
1.0408841e-06
1.0257312e-06
1.0221522e-06
1.0258363e-06
1.0250941e-06
1.0307882e-06
1.0333914e-06
1.0345309e-06
1.0285187e-06
1.0192156e-06
1.0124133e-06
1.0105278e-06
1.019853e-06
1.0316049e-06
1.0433408e-06
1.0588311e-06
1.0711869e-06
1.0896442e-06
1.1101198e-06
1.1265247e-06
1.1382263e-06
1.1688464e-06
1.192984e-06
1.2194137e-06
1.2345592e-06
1.2873713e-06
1.3222512e-06
1.3567086e-06
1.3771266e-06
1.4499514e-06
1.5038888e-06
1.6226227e-06
1.6772658e-06
1.7604092e-06
1.9707061e-06
2.2328971e-06
2.3287217e-06
2.6354027e-06
3.1141053e-06
3.3530055e-06
3.6290177e-06
3.700072e-06
1.0372303e-06
1.1776036e-06
1.1923825e-06
1.1238651e-06
1.0712232e-06
1.0357917e-06
1.0153664e-06
1.0246267e-06
1.0445037e-06
1.0667558e-06
1.0780764e-06
1.0720539e-06
1.0611882e-06
1.0400522e-06
1.0230025e-06
1.0175666e-06
1.0203232e-06
1.0210715e-06
1.0255665e-06
1.0292751e-06
1.0318536e-06
1.0270928e-06
1.0172121e-06
1.0081741e-06
1.0044635e-06
1.011602e-06
1.0213543e-06
1.0329834e-06
1.0473026e-06
1.0593464e-06
1.081233e-06
1.1041628e-06
1.1214991e-06
1.1338775e-06
1.1649215e-06
1.1861094e-06
1.2104283e-06
1.2298439e-06
1.2790931e-06
1.3129664e-06
1.3470031e-06
1.3900105e-06
1.4266111e-06
1.4997828e-06
1.5794668e-06
1.6302148e-06
1.7012783e-06
1.8887449e-06
2.203993e-06
2.278643e-06
2.4812e-06
2.7999632e-06
3.1314356e-06
3.5241651e-06
3.6351986e-06
1.03677e-06
1.1750786e-06
1.1920237e-06
1.1235689e-06
1.0705792e-06
1.0353326e-06
1.015672e-06
1.0228913e-06
1.0419781e-06
1.0627905e-06
1.074528e-06
1.0703517e-06
1.0597803e-06
1.0382859e-06
1.020239e-06
1.0136897e-06
1.0136195e-06
1.0150109e-06
1.0176583e-06
1.020348e-06
1.0231953e-06
1.0209708e-06
1.0139731e-06
1.0051438e-06
1.001318e-06
1.0073444e-06
1.0161758e-06
1.0281967e-06
1.0410812e-06
1.0510229e-06
1.0723595e-06
1.0951511e-06
1.110705e-06
1.1248106e-06
1.1548839e-06
1.1740345e-06
1.1881907e-06
1.2190238e-06
1.2575308e-06
1.2823067e-06
1.3262171e-06
1.3688243e-06
1.3989979e-06
1.4696788e-06
1.5416131e-06
1.5848617e-06
1.6632724e-06
1.7717153e-06
2.0265868e-06
2.1559075e-06
2.3857666e-06
2.5239952e-06
2.7826588e-06
3.1216547e-06
3.3812212e-06
1.0365391e-06
1.1731444e-06
1.1915926e-06
1.1234583e-06
1.07105e-06
1.0359493e-06
1.0158037e-06
1.0215277e-06
1.0405161e-06
1.0607536e-06
1.073644e-06
1.0723895e-06
1.0608154e-06
1.0388485e-06
1.020419e-06
1.0126478e-06
1.0117545e-06
1.0136733e-06
1.0148721e-06
1.016734e-06
1.019331e-06
1.0194117e-06
1.0145873e-06
1.0055127e-06
1.0001981e-06
1.0039844e-06
1.011485e-06
1.024456e-06
1.0367671e-06
1.0449317e-06
1.0631948e-06
1.0867271e-06
1.0996296e-06
1.1147464e-06
1.1407687e-06
1.1565108e-06
1.1618099e-06
1.1853514e-06
1.2237521e-06
1.241575e-06
1.2746122e-06
1.318478e-06
1.3566841e-06
1.4005755e-06
1.4978328e-06
1.5249762e-06
1.6233856e-06
1.6921463e-06
1.8703893e-06
1.9642508e-06
2.1993496e-06
2.2938053e-06
2.4881559e-06
2.7409848e-06
2.9989203e-06
1.0361885e-06
1.1710477e-06
1.1908617e-06
1.1236265e-06
1.0727048e-06
1.0377906e-06
1.0154235e-06
1.020587e-06
1.0403996e-06
1.0617612e-06
1.0765555e-06
1.0789335e-06
1.0656386e-06
1.0435144e-06
1.0255472e-06
1.0157992e-06
1.015238e-06
1.0182659e-06
1.0187214e-06
1.0200316e-06
1.0217682e-06
1.0239504e-06
1.0207416e-06
1.0114272e-06
1.0035519e-06
1.0033157e-06
1.0076111e-06
1.020033e-06
1.0322189e-06
1.038638e-06
1.0524733e-06
1.0744265e-06
1.0845567e-06
1.0984424e-06
1.1216929e-06
1.1347751e-06
1.1388327e-06
1.1539495e-06
1.1902362e-06
1.2089629e-06
1.2186413e-06
1.2482628e-06
1.2603797e-06
1.3312253e-06
1.3928339e-06
1.4158314e-06
1.5335095e-06
1.5878193e-06
1.7097184e-06
1.6263901e-06
1.6344222e-06
2.129494e-06
2.3319844e-06
2.5048018e-06
2.6532117e-06
1.0358276e-06
1.1688916e-06
1.189803e-06
1.1237226e-06
1.0740091e-06
1.0391929e-06
1.0145388e-06
1.0182528e-06
1.0399336e-06
1.063697e-06
1.0790208e-06
1.0807964e-06
1.0683004e-06
1.0466705e-06
1.0268844e-06
1.0162738e-06
1.0154252e-06
1.0180455e-06
1.0179729e-06
1.0212193e-06
1.0237825e-06
1.0255649e-06
1.0216477e-06
1.0112966e-06
1.0005752e-06
9.9627233e-07
9.9842479e-07
1.0087776e-06
1.0199402e-06
1.024869e-06
1.0350207e-06
1.0538284e-06
1.0638354e-06
1.0745741e-06
1.0947994e-06
1.1070663e-06
1.1116906e-06
1.122621e-06
9.9948219e-07
1.1718195e-06
1.0589003e-06
1.1614017e-06
8.0232084e-07
1.2851948e-06
1.3047578e-06
1.3113503e-06
1.4235943e-06
1.2974876e-06
1.5874135e-06
1.5287138e-06
1.2492804e-06
1.422704e-06
2.058253e-06
2.2692666e-06
2.3763824e-06
1.0351573e-06
1.1660229e-06
1.1886736e-06
1.123341e-06
1.0737532e-06
1.0386081e-06
1.0129202e-06
1.0140157e-06
1.0353e-06
1.0590757e-06
1.0733692e-06
1.0733518e-06
1.061376e-06
1.0383007e-06
1.01721e-06
1.0060666e-06
1.0028001e-06
1.0031285e-06
1.0040911e-06
1.0085535e-06
1.0110734e-06
1.0109796e-06
1.0070622e-06
9.988384e-07
9.8983817e-07
9.8565467e-07
9.882502e-07
9.9784786e-07
1.0082086e-06
1.0121228e-06
1.0196434e-06
1.0358475e-06
1.0512704e-06
1.0684429e-06
1.0908218e-06
9.3535323e-07
1.1147244e-06
1.0548096e-06
8.7973036e-07
1.1712027e-06
9.8685408e-07
9.8095308e-07
5.8577744e-07
1.2577591e-06
1.2742456e-06
1.1362955e-06
1.3315462e-06
1.402835e-06
1.0836557e-06
1.2875778e-06
1.398466e-06
1.1098303e-06
1.1637324e-06
1.9300772e-06
2.1012835e-06
1.0344561e-06
1.162992e-06
1.186454e-06
1.1213888e-06
1.0704983e-06
1.0345748e-06
1.0073738e-06
1.0054554e-06
1.0223557e-06
1.042536e-06
1.0550305e-06
1.0532852e-06
1.0407925e-06
1.0171157e-06
9.9612465e-07
9.8639196e-07
9.8115509e-07
9.8114648e-07
9.8591322e-07
9.9295524e-07
9.9968943e-07
1.0038384e-06
1.0051198e-06
1.0058083e-06
1.0109943e-06
1.0153529e-06
1.0241434e-06
1.0386267e-06
1.0565038e-06
1.0632234e-06
1.0806808e-06
1.1023136e-06
1.1285135e-06
1.1667168e-06
1.2040409e-06
8.3952819e-07
1.2633817e-06
1.2755894e-06
1.0938173e-06
9.7571459e-07
1.0834267e-06
1.2812589e-06
6.8641411e-07
1.1890521e-06
1.46715e-06
1.2831978e-06
1.3812725e-06
1.5446685e-06
1.0585455e-06
9.5498801e-07
1.6644795e-06
1.5497583e-06
1.0480528e-06
1.3285719e-06
1.9769351e-06
1.0334923e-06
1.1584363e-06
1.1812143e-06
1.114227e-06
1.0598911e-06
1.0207868e-06
9.9117331e-07
9.8404234e-07
9.9297773e-07
1.0085821e-06
1.0209293e-06
1.0230221e-06
1.0160153e-06
1.0007982e-06
9.8861077e-07
9.8903151e-07
9.925405e-07
1.0045749e-06
1.021675e-06
1.042653e-06
1.0712285e-06
1.0976314e-06
1.1279883e-06
1.1491686e-06
1.1828329e-06
1.2074828e-06
1.2557519e-06
1.2891162e-06
1.3357632e-06
1.3545987e-06
1.4024336e-06
1.4434333e-06
1.4733335e-06
1.5406379e-06
1.6106882e-06
1.0762128e-06
1.7251168e-06
1.7665432e-06
1.8237333e-06
1.1620612e-06
1.5083746e-06
1.9580369e-06
1.3392754e-06
1.3530633e-06
1.9146832e-06
2.0657057e-06
2.089468e-06
2.1440629e-06
1.6238863e-06
1.1270354e-06
1.6368734e-06
2.2741702e-06
2.0452836e-06
1.793292e-06
2.2005638e-06
1.0313513e-06
1.1467992e-06
1.159082e-06
1.0881764e-06
1.0308728e-06
9.8842256e-07
9.6147973e-07
9.5308864e-07
9.6088395e-07
9.7848341e-07
1.000458e-06
1.0218558e-06
1.0397197e-06
1.0711705e-06
1.0951722e-06
1.1188346e-06
1.1658112e-06
1.195241e-06
1.2483502e-06
1.302608e-06
1.3917771e-06
1.4365788e-06
1.5193648e-06
1.5641161e-06
1.6562187e-06
1.7159745e-06
1.8091285e-06
1.8811437e-06
1.953442e-06
2.0293326e-06
2.1235115e-06
1.9190075e-06
2.2403005e-06
2.3230825e-06
2.4381087e-06
1.7309605e-06
2.5308455e-06
2.7029723e-06
2.7888394e-06
1.8976414e-06
2.2681999e-06
3.0150002e-06
3.0691353e-06
2.4337259e-06
2.2446024e-06
3.2173189e-06
3.2502012e-06
3.3028846e-06
2.9387625e-06
1.991969e-06
2.2549555e-06
3.46842e-06
3.4884049e-06
3.5350343e-06
3.4516062e-06
1.0232087e-06
1.1084534e-06
1.097014e-06
1.0410552e-06
9.9610905e-07
9.6371152e-07
9.5613983e-07
9.5417186e-07
9.8492988e-07
1.0254875e-06
1.0752175e-06
1.1444149e-06
1.2607833e-06
1.3448242e-06
1.4331863e-06
1.512243e-06
1.6188217e-06
1.6670268e-06
1.7656854e-06
1.8416407e-06
1.9893523e-06
2.0644303e-06
2.1929791e-06
2.2721994e-06
2.4200562e-06
2.5189819e-06
2.6358808e-06
2.7518141e-06
2.8542372e-06
3.0029884e-06
3.141373e-06
3.196265e-06
3.3571965e-06
3.4452907e-06
3.5950029e-06
3.0397511e-06
3.6597525e-06
3.9740143e-06
4.1046734e-06
3.2885662e-06
3.4708298e-06
4.4188002e-06
4.5092006e-06
4.1153062e-06
3.4075451e-06
4.7177855e-06
4.7936002e-06
4.8517699e-06
4.750353e-06
3.6216623e-06
3.6086789e-06
4.6485274e-06
5.1478054e-06
5.21609e-06
5.1375636e-06
9.9633792e-07
1.0459783e-06
1.0612753e-06
1.0652792e-06
1.050426e-06
1.0741777e-06
1.0992666e-06
1.1474706e-06
1.2041822e-06
1.2715715e-06
1.4117418e-06
1.545814e-06
1.7248533e-06
1.8066634e-06
1.8982651e-06
1.9710085e-06
2.0514309e-06
2.0880673e-06
2.1917461e-06
2.2234957e-06
2.3940857e-06
2.4957848e-06
2.6336457e-06
2.7886603e-06
2.9208428e-06
3.0936685e-06
3.3496772e-06
3.44206e-06
3.5700339e-06
3.8534769e-06
4.006646e-06
4.1200932e-06
4.3324925e-06
4.4592696e-06
4.6201707e-06
4.5709854e-06
4.935576e-06
5.0997872e-06
5.2670573e-06
4.6144524e-06
4.5747606e-06
5.5789718e-06
5.7125239e-06
5.3471516e-06
4.4903637e-06
5.0759417e-06
6.0148961e-06
6.0506269e-06
5.7330845e-06
4.7091217e-06
4.4146261e-06
4.9549741e-06
6.2042204e-06
6.2767569e-06
6.2810452e-06
9.1860429e-07
1.1367876e-06
1.3362918e-06
1.3982211e-06
1.4373174e-06
1.4904156e-06
1.5825364e-06
1.6894062e-06
1.7110759e-06
1.723572e-06
1.7928901e-06
1.8870762e-06
1.9733518e-06
2.0530425e-06
2.1310209e-06
2.1777527e-06
2.2209409e-06
2.2567797e-06
2.3270428e-06
2.3579547e-06
2.4372103e-06
2.5263877e-06
2.6102835e-06
2.6914694e-06
2.7621276e-06
2.8496466e-06
2.972474e-06
3.0415644e-06
3.0834444e-06
3.2565845e-06
3.3904567e-06
3.3860519e-06
3.5379213e-06
3.7492524e-06
3.8364448e-06
3.7067087e-06
3.8330595e-06
4.0968539e-06
4.2011953e-06
4.1634919e-06
4.0953157e-06
4.3992121e-06
4.4923736e-06
4.52341e-06
4.1858222e-06
4.2257684e-06
4.6312103e-06
4.6597222e-06
4.6163527e-06
4.0262483e-06
3.7266904e-06
3.774937e-06
4.1864582e-06
4.6649643e-06
4.7444746e-06
7.1887789e-07
1.151008e-06
1.6605883e-06
1.7853488e-06
1.8437114e-06
1.8960252e-06
1.9265904e-06
1.9489681e-06
1.9507695e-06
1.9394947e-06
1.9414646e-06
1.9590984e-06
1.974336e-06
1.979723e-06
1.9720434e-06
1.9546768e-06
1.9131576e-06
1.8809583e-06
1.8685538e-06
1.8482962e-06
1.838222e-06
1.8390956e-06
1.8415965e-06
1.8508531e-06
1.8530813e-06
1.8561715e-06
1.8686646e-06
1.8671797e-06
1.8483193e-06
1.8672415e-06
1.8965947e-06
1.8956076e-06
1.9070627e-06
1.9244636e-06
1.9286685e-06
1.9154917e-06
1.9166508e-06
1.9395576e-06
1.951725e-06
1.9382307e-06
1.9289059e-06
1.9479925e-06
1.97563e-06
1.9685747e-06
1.9403573e-06
1.9376587e-06
1.9584233e-06
1.9699226e-06
1.9484173e-06
1.9092492e-06
1.877846e-06
1.884669e-06
1.907273e-06
1.9283284e-06
2.0014934e-06
8.0982778e-07
1.0761173e-06
7.946779e-07
6.9604487e-07
6.9395128e-07
6.8170223e-07
6.4049649e-07
5.9523041e-07
5.5614352e-07
5.1905812e-07
4.9020298e-07
4.7156576e-07
4.6457914e-07
4.6228789e-07
4.573866e-07
4.4732991e-07
4.3214132e-07
4.1338652e-07
3.960001e-07
3.7624641e-07
3.597152e-07
3.5365405e-07
3.5944418e-07
3.7542197e-07
3.9390821e-07
4.088218e-07
4.2233562e-07
4.2680021e-07
4.2590413e-07
4.2352026e-07
4.2027015e-07
4.1223484e-07
4.0068838e-07
3.9076266e-07
3.8095188e-07
3.6677658e-07
3.5064228e-07
3.3964523e-07
3.3114731e-07
3.1904051e-07
3.0450932e-07
2.9442471e-07
2.9246043e-07
2.8855797e-07
2.8457638e-07
2.8141792e-07
2.8337204e-07
2.8746003e-07
2.8725508e-07
2.7997625e-07
2.7006149e-07
2.6192248e-07
2.5865989e-07
2.5837634e-07
2.6013556e-07
2.483286e-07
1.8459789e-06
4.5895979e-06
5.3975194e-06
4.2955775e-06
2.9126913e-06
2.2594813e-06
2.1008394e-06
2.2242594e-06
2.5278052e-06
2.8142844e-06
3.150313e-06
3.6407631e-06
3.8699778e-06
3.8164346e-06
3.7183688e-06
3.6546814e-06
3.9235946e-06
4.8597402e-06
5.8365275e-06
5.8827543e-06
6.0266992e-06
7.1395547e-06
9.5462093e-06
1.0249852e-05
1.0211119e-05
9.5882542e-06
2.1637712e-07
1.5956553e-06
4.0121119e-06
4.4034845e-06
3.3777545e-06
2.0995123e-06
1.2987347e-06
1.184648e-06
1.8593472e-06
2.8896273e-06
3.2111685e-06
2.9952407e-06
3.4500928e-06
4.2925286e-06
4.4123175e-06
4.2630159e-06
4.0999199e-06
4.2815289e-06
5.0174739e-06
6.1439687e-06
6.671411e-06
6.917419e-06
7.9720416e-06
1.0347516e-05
1.1128153e-05
1.1275055e-05
1.1096825e-05
1.7956512e-07
1.3787074e-06
3.5718053e-06
3.9102116e-06
2.9598509e-06
2.0299688e-06
1.5299325e-06
1.7064953e-06
2.3548376e-06
2.174582e-06
2.0170817e-06
2.3062322e-06
3.4478694e-06
4.5916e-06
4.9937341e-06
5.309215e-06
5.2848602e-06
5.2511832e-06
5.572026e-06
6.3979207e-06
7.3243661e-06
7.8721584e-06
9.2044726e-06
1.1871613e-05
1.2573105e-05
1.2499528e-05
1.2627564e-05
1.5406291e-07
1.2217016e-06
3.2080183e-06
4.1579719e-06
3.8510701e-06
4.0805074e-06
3.3761332e-06
2.8000763e-06
2.2023245e-06
2.0881893e-06
2.6180267e-06
3.6419208e-06
4.2519566e-06
4.9182818e-06
5.4251366e-06
5.9651435e-06
6.0531356e-06
6.0290814e-06
6.3382399e-06
7.2437891e-06
7.8406926e-06
8.455873e-06
9.7189866e-06
1.3162946e-05
1.3894946e-05
1.3714685e-05
1.1438718e-05
1.3673742e-07
1.1303357e-06
3.8007114e-06
5.8249845e-06
6.0970638e-06
4.8363173e-06
3.1722289e-06
1.9046953e-06
2.0698357e-06
2.7495028e-06
3.6645893e-06
3.9391773e-06
3.9540938e-06
5.5402209e-06
6.1327117e-06
6.5382956e-06
6.611804e-06
6.7029757e-06
7.0407615e-06
8.3170305e-06
8.6651476e-06
8.9614887e-06
9.7171815e-06
1.3161229e-05
1.4985083e-05
1.5706226e-05
1.6746949e-05
1.2255833e-07
1.0299642e-06
3.671144e-06
5.721958e-06
6.2299929e-06
5.0635439e-06
3.0434822e-06
2.5405373e-06
2.6727863e-06
2.4717547e-06
2.0920948e-06
2.2245767e-06
3.0264474e-06
5.8765147e-06
7.0419513e-06
7.4218116e-06
7.3596255e-06
7.4343111e-06
7.7675535e-06
9.3524225e-06
1.003193e-05
9.872802e-06
1.0083549e-05
1.3007878e-05
1.6173171e-05
1.7490522e-05
1.8697352e-05
1.0932165e-07
8.748044e-07
3.390513e-06
5.4235687e-06
6.2431939e-06
5.1959973e-06
4.2167013e-06
3.7326335e-06
3.6005962e-06
2.6290848e-06
2.5244592e-06
3.3150602e-06
4.9766065e-06
5.7580642e-06
6.1514261e-06
7.8165969e-06
8.3439443e-06
8.0714485e-06
8.3965742e-06
1.002114e-05
1.1634639e-05
1.1355005e-05
1.1351687e-05
1.3863448e-05
1.8154736e-05
1.9443151e-05
1.3627676e-05
8.7698343e-08
6.9237323e-07
2.7044893e-06
3.6712442e-06
3.4983168e-06
2.5715605e-06
1.9701984e-06
1.7970246e-06
2.0047094e-06
2.6185911e-06
4.3865284e-06
4.8834504e-06
5.094032e-06
5.7846488e-06
8.1967355e-06
9.1165045e-06
9.1098628e-06
8.6872325e-06
8.9302472e-06
1.0352835e-05
1.2888356e-05
1.2879978e-05
1.2900846e-05
1.5643174e-05
2.0383896e-05
2.1184065e-05
1.4632519e-05
7.4762384e-08
5.4712822e-07
2.2502016e-06
3.0364044e-06
2.823891e-06
2.1607203e-06
1.8329172e-06
1.9323141e-06
2.2645748e-06
2.2539684e-06
2.0064571e-06
2.0211878e-06
2.6871124e-06
4.6391405e-06
8.3409138e-06
9.5347603e-06
9.7418239e-06
9.2940678e-06
9.3924834e-06
1.0649262e-05
1.3484003e-05
1.4010118e-05
1.4349083e-05
1.6902424e-05
2.2376044e-05
2.2902578e-05
2.2430323e-05
7.5279797e-08
4.6399366e-07
1.9063083e-06
3.116943e-06
3.3546306e-06
3.5024377e-06
4.5918892e-06
4.448025e-06
3.9614007e-06
2.622691e-06
2.2808824e-06
2.7174265e-06
3.7924337e-06
4.2921801e-06
5.2436032e-06
6.8382755e-06
9.1155742e-06
1.0352509e-05
1.003617e-05
1.091182e-05
1.388595e-05
1.4999214e-05
1.5629221e-05
1.7795102e-05
2.4231476e-05
2.4763158e-05
2.4273861e-05
7.7785163e-08
4.3008964e-07
2.1883307e-06
4.5100056e-06
5.9060957e-06
5.7509353e-06
4.9985902e-06
3.5086797e-06
2.9857905e-06
3.2729385e-06
5.0975352e-06
5.5552292e-06
4.3588151e-06
4.8538249e-06
8.1516913e-06
1.2223261e-05
1.2641164e-05
8.5729917e-06
8.5666184e-06
1.2354104e-05
1.5375295e-05
1.6794173e-05
1.7148333e-05
1.8797698e-05
2.5627942e-05
2.7945709e-05
2.022636e-05
7.498942e-08
3.9082792e-07
2.2715319e-06
4.4013668e-06
5.7887556e-06
5.7991302e-06
3.7003793e-06
3.03002e-06
2.917433e-06
3.0496938e-06
2.5544814e-06
2.272557e-06
2.7845959e-06
4.9149116e-06
1.1068943e-05
1.2924603e-05
1.242572e-05
1.2977842e-05
1.2778317e-05
1.4269459e-05
1.7507003e-05
2.0905992e-05
2.0152745e-05
2.0767388e-05
2.7812187e-05
3.2006016e-05
1.9963654e-05
7.1657318e-08
3.2593845e-07
1.9928702e-06
4.0664899e-06
5.4829927e-06
5.8498233e-06
5.4123625e-06
5.3373915e-06
4.1826412e-06
2.7940166e-06
2.2444963e-06
2.3515638e-06
3.6237218e-06
5.0413651e-06
6.7891974e-06
7.9213723e-06
9.6503632e-06
1.3906372e-05
1.4404195e-05
1.5885954e-05
2.2681159e-05
2.5366979e-05
2.4068873e-05
2.387758e-05
3.0406648e-05
3.5055763e-05
3.820152e-05
6.012911e-08
2.5848872e-07
1.5842402e-06
2.6463665e-06
3.2216682e-06
2.9356828e-06
2.470093e-06
2.3606365e-06
2.6106332e-06
3.4210331e-06
5.8182179e-06
6.7995434e-06
6.1164639e-06
5.1962041e-06
7.3968303e-06
1.0623579e-05
1.2977082e-05
1.1242453e-05
9.6662217e-06
1.3641031e-05
2.5515235e-05
2.9128311e-05
2.7805451e-05
2.7183098e-05
3.0760073e-05
3.2267276e-05
4.2506349e-05
5.9653643e-08
2.0895216e-07
1.2466197e-06
2.0170039e-06
2.3787388e-06
2.2944613e-06
2.2132528e-06
2.4740542e-06
2.9039446e-06
3.0185944e-06
2.69283e-06
2.5158356e-06
2.9270496e-06
4.821628e-06
1.2139834e-05
1.6477156e-05
1.9132461e-05
1.4958756e-05
1.4117881e-05
1.9116046e-05
1.9700336e-05
2.1506862e-05
3.1773731e-05
3.0873756e-05
3.5505638e-05
4.7412258e-05
2.5099044e-05
6.9035589e-08
1.8473734e-07
9.8946499e-07
2.0059996e-06
2.9674122e-06
4.0028367e-06
6.0477888e-06
6.2605285e-06
6.2368377e-06
4.1041598e-06
2.9315305e-06
2.6093901e-06
3.0686139e-06
4.3764962e-06
6.6888208e-06
9.3380848e-06
1.3086217e-05
2.2054901e-05
2.2014624e-05
2.3084546e-05
2.3352111e-05
3.0104094e-05
2.9421472e-05
2.4995546e-05
4.0822767e-05
5.1308848e-05
2.6461431e-05
7.5984662e-08
1.8300972e-07
1.1908412e-06
3.1363777e-06
4.7500322e-06
5.7457906e-06
6.1060174e-06
4.6546684e-06
4.3627162e-06
4.3892912e-06
5.1397253e-06
7.2206227e-06
7.6736093e-06
5.6070116e-06
6.90966e-06
1.0703345e-05
1.3828888e-05
1.3739798e-05
1.1682476e-05
1.4206457e-05
2.9310356e-05
3.6256316e-05
3.9193299e-05
3.4839123e-05
4.4974238e-05
3.0655946e-05
4.6241925e-05
8.187862e-08
1.7677317e-07
1.0983787e-06
3.0520822e-06
4.7127781e-06
4.473195e-06
3.8494229e-06
3.594724e-06
3.5628946e-06
3.7437263e-06
3.5872724e-06
3.002657e-06
3.0206916e-06
4.2866046e-06
9.5396436e-06
1.9412645e-05
2.2539531e-05
1.7182854e-05
1.1754726e-05
1.308645e-05
1.9299461e-05
3.0212704e-05
4.5991017e-05
4.6503308e-05
4.899102e-05
3.7554157e-05
5.8483112e-05
8.5715453e-08
1.5106828e-07
8.5480849e-07
2.470864e-06
4.4142853e-06
5.639813e-06
6.4598339e-06
7.1603805e-06
6.347932e-06
3.8519911e-06
2.7616166e-06
2.4061278e-06
2.9875759e-06
4.8793745e-06
8.8309615e-06
1.2774234e-05
1.4290034e-05
1.7988655e-05
2.3272923e-05
2.4087674e-05
1.944792e-05
2.8702029e-05
4.2241277e-05
4.2338325e-05
4.43223e-05
6.6004118e-05
5.5280616e-05
7.0412547e-08
1.2251957e-07
6.1110075e-07
1.5889317e-06
2.4831129e-06
3.0662873e-06
3.1528097e-06
3.3611408e-06
3.6555268e-06
4.15058e-06
5.0047498e-06
6.7918672e-06
7.8413964e-06
6.3803561e-06
7.5926194e-06
1.0694903e-05
1.3075887e-05
1.6422391e-05
1.7213928e-05
1.3954823e-05
2.1537615e-05
5.0801481e-05
5.850361e-05
3.2012646e-05
4.1173072e-05
6.4702838e-05
5.9336044e-05
7.1776784e-08
1.0550399e-07
4.7079247e-07
1.3373191e-06
2.0072407e-06
2.4912296e-06
2.6044545e-06
2.9355824e-06
3.4080779e-06
3.8136602e-06
3.7744534e-06
3.8975288e-06
4.5910916e-06
6.342371e-06
1.170198e-05
2.0989124e-05
2.3141082e-05
1.8871323e-05
1.4045267e-05
1.3586825e-05
2.3947834e-05
4.8008937e-05
4.8588905e-05
5.6096309e-05
6.185457e-05
4.0204448e-05
6.698887e-05
8.6417544e-08
1.0214651e-07
4.1627001e-07
9.9932409e-07
1.8693317e-06
3.044278e-06
4.3810699e-06
6.5069091e-06
8.0670063e-06
7.2815214e-06
4.7700871e-06
3.3315956e-06
3.3388531e-06
4.4433448e-06
7.9934467e-06
1.8293546e-05
2.9974896e-05
2.9797372e-05
2.2912587e-05
2.3253244e-05
2.7969495e-05
3.2070953e-05
3.8890427e-05
6.5822101e-05
5.4349078e-05
5.01359e-05
0.00010299132
9.8904741e-08
1.1442416e-07
3.8979303e-07
1.3395595e-06
3.8314834e-06
5.781686e-06
7.18595e-06
8.1852689e-06
8.8940611e-06
8.2494404e-06
7.3189313e-06
7.3611765e-06
9.15668e-06
1.0679414e-05
1.1011843e-05
1.2616445e-05
1.5013732e-05