/*--------------------------------*- C++ -*----------------------------------*\
| =========                 |                                                 |
| \\      /  F ield         | OpenFOAM: The Open Source CFD Toolbox           |
|  \\    /   O peration     | Version:  2406                                  |
|   \\  /    A nd           | Website:  www.openfoam.com                      |
|    \\/     M anipulation  |                                                 |
\*---------------------------------------------------------------------------*/
FoamFile
{
    version     2.0;
    format      ascii;
    arch        "LSB;label=32;scalar=64";
    class       volScalarField;
    location    "32";
    object      k_0;
}
// * * * * * * * * * * * * * * * * * * * * * * * * * * * * * * * * * * * * * //

dimensions      [0 2 -2 0 0 0 0];

internalField   nonuniform List<scalar> 
62344
(
4.5654464e-06
3.8985677e-06
3.0518426e-06
2.3818938e-06
1.9617882e-06
1.6982595e-06
1.5305511e-06
1.4168495e-06
1.3389037e-06
1.2542176e-06
1.17178e-06
1.0892396e-06
1.0132874e-06
9.5542285e-07
9.0862186e-07
8.7116797e-07
8.4186411e-07
8.1842895e-07
7.9313228e-07
7.6430662e-07
7.3507343e-07
7.1204793e-07
6.9932503e-07
6.9509272e-07
6.9367125e-07
6.9242128e-07
6.97104e-07
7.0348324e-07
7.0865472e-07
7.1207797e-07
7.1640837e-07
7.1875242e-07
7.2529822e-07
7.3547482e-07
7.5757682e-07
8.0285725e-07
9.0821992e-07
1.0045255e-06
1.2039011e-06
1.3423825e-06
1.6106309e-06
1.9518345e-06
2.4137861e-06
2.7206608e-06
3.1296107e-06
3.8126938e-06
5.2983507e-06
6.3891567e-06
7.6280336e-06
8.2544837e-06
9.5256687e-06
1.0362603e-05
1.2126408e-05
1.2968355e-05
1.4790113e-05
4.5629789e-06
3.8991873e-06
3.0625624e-06
2.3937783e-06
1.9679501e-06
1.7018234e-06
1.5348765e-06
1.421331e-06
1.3451237e-06
1.2598922e-06
1.1780963e-06
1.0942068e-06
1.0170288e-06
9.5918846e-07
9.1321282e-07
8.7458778e-07
8.4551118e-07
8.2302518e-07
7.975994e-07
7.6945241e-07
7.4010672e-07
7.1479765e-07
6.9929962e-07
6.9318771e-07
6.9150474e-07
6.8954269e-07
6.9135305e-07
6.9627264e-07
7.0169524e-07
7.0392992e-07
7.0780968e-07
7.0843543e-07
7.1278726e-07
7.1882373e-07
7.2896216e-07
7.5581459e-07
8.2588818e-07
9.0222275e-07
1.0632156e-06
1.2033081e-06
1.5091322e-06
1.769417e-06
2.2768351e-06
2.6072559e-06
3.1353838e-06
3.7004702e-06
4.915304e-06
6.3557868e-06
7.4203195e-06
8.9183155e-06
9.7829062e-06
1.1599611e-05
1.2956432e-05
1.5682218e-05
1.699273e-05
4.5709293e-06
3.9169302e-06
3.0781828e-06
2.4027355e-06
1.9778391e-06
1.7087738e-06
1.5419913e-06
1.4268303e-06
1.3498879e-06
1.2665895e-06
1.1864567e-06
1.104921e-06
1.0263852e-06
9.6745811e-07
9.2014297e-07
8.8019151e-07
8.5154347e-07
8.2830073e-07
8.0297961e-07
7.7458125e-07
7.4577669e-07
7.2111316e-07
7.0471271e-07
6.9698965e-07
6.9414425e-07
6.9275583e-07
6.9367758e-07
6.9782133e-07
7.0467521e-07
7.0730341e-07
7.109404e-07
7.1141107e-07
7.157758e-07
7.1922716e-07
7.2467912e-07
7.4001376e-07
7.777251e-07
8.2948605e-07
9.4276805e-07
1.0402476e-06
1.2484647e-06
1.4096735e-06
1.7003017e-06
2.1427675e-06
2.5332285e-06
3.1020319e-06
3.7258617e-06
5.2399241e-06
6.3189185e-06
8.2758133e-06
9.3374541e-06
1.1474993e-05
1.292988e-05
1.522404e-05
1.7856517e-05
4.5772014e-06
3.9301071e-06
3.0927009e-06
2.4136189e-06
1.9878469e-06
1.7164913e-06
1.5446787e-06
1.4300312e-06
1.3571618e-06
1.2748127e-06
1.1939694e-06
1.1131505e-06
1.0342829e-06
9.7232894e-07
9.2566156e-07
8.8852808e-07
8.563853e-07
8.3204253e-07
8.0847677e-07
7.8093454e-07
7.5238336e-07
7.269951e-07
7.1013631e-07
7.0220579e-07
6.9745063e-07
6.9553498e-07
6.958812e-07
6.9861562e-07
7.079752e-07
7.1390056e-07
7.1805843e-07
7.1937234e-07
7.2404324e-07
7.2622817e-07
7.2998219e-07
7.4052249e-07
7.6115281e-07
7.9482369e-07
8.816644e-07
9.6801397e-07
1.141975e-06
1.2644198e-06
1.4984923e-06
1.7704589e-06
2.0254059e-06
2.5060284e-06
2.8415306e-06
3.6287172e-06
4.3859444e-06
5.4987848e-06
7.2568365e-06
9.2199928e-06
1.1340996e-05
1.3064921e-05
1.6564163e-05
4.5814769e-06
3.9409147e-06
3.1090961e-06
2.4259218e-06
1.9955348e-06
1.7198375e-06
1.5478743e-06
1.4353213e-06
1.3644006e-06
1.2801309e-06
1.19834e-06
1.1164271e-06
1.0392569e-06
9.7560063e-07
9.2789297e-07
8.9056498e-07
8.6128939e-07
8.3879257e-07
8.164407e-07
7.8956571e-07
7.6021733e-07
7.3377972e-07
7.1523541e-07
7.0557312e-07
6.9952217e-07
6.9715429e-07
6.9676545e-07
6.9894186e-07
7.0731799e-07
7.1561232e-07
7.2075472e-07
7.2439661e-07
7.3053045e-07
7.3276385e-07
7.3546325e-07
7.4362666e-07
7.5647755e-07
7.7689991e-07
8.3351184e-07
9.0434295e-07
1.0483025e-06
1.1595816e-06
1.4010411e-06
1.5741519e-06
1.9296025e-06
2.173974e-06
2.5802607e-06
2.9003017e-06
3.5534482e-06
4.0613153e-06
5.1697101e-06
6.026916e-06
7.6554909e-06
8.7331011e-06
1.1637272e-05
4.5848146e-06
3.9487026e-06
3.1230041e-06
2.4346661e-06
2.0035389e-06
1.7272931e-06
1.5540739e-06
1.4420303e-06
1.3675134e-06
1.2846928e-06
1.2029916e-06
1.126373e-06
1.0467404e-06
9.8043203e-07
9.3243064e-07
8.9528495e-07
8.6609138e-07
8.4325293e-07
8.1899786e-07
7.9223873e-07
7.6459978e-07
7.3888458e-07
7.1961178e-07
7.0908618e-07
7.0313734e-07
7.0037298e-07
6.9930748e-07
7.0066445e-07
7.0673829e-07
7.1571369e-07
7.2087686e-07
7.258822e-07
7.3310216e-07
7.3679138e-07
7.4143648e-07
7.5031016e-07
7.6206318e-07
7.7666346e-07
8.1435928e-07
8.6962744e-07
9.8376591e-07
1.0839618e-06
1.3045746e-06
1.4732664e-06
1.8374321e-06
2.0693997e-06
2.5151162e-06
2.78354e-06
3.3659487e-06
3.7782787e-06
4.6053847e-06
5.1675134e-06
6.3197574e-06
7.0047412e-06
8.4293097e-06
4.5929626e-06
3.9647411e-06
3.1346895e-06
2.4444842e-06
2.0134445e-06
1.7354242e-06
1.5584171e-06
1.4453441e-06
1.3693171e-06
1.292742e-06
1.2135387e-06
1.1366772e-06
1.0535877e-06
9.852132e-07
9.3829769e-07
9.0197846e-07
8.6929146e-07
8.4493253e-07
8.2284444e-07
7.9672718e-07
7.6956251e-07
7.4359288e-07
7.2326923e-07
7.1192418e-07
7.0587564e-07
7.0322781e-07
7.0184253e-07
7.0286939e-07
7.0757983e-07
7.1635092e-07
7.2127117e-07
7.2706619e-07
7.3467593e-07
7.3938662e-07
7.4625211e-07
7.5602999e-07
7.6938392e-07
7.8182888e-07
8.1131942e-07
8.5351959e-07
9.3963304e-07
1.0217693e-06
1.2021705e-06
1.3557581e-06
1.6876175e-06
1.9086022e-06
2.3810661e-06
2.6673025e-06
3.2610928e-06
3.6644185e-06
4.4425356e-06
4.933047e-06
5.9345393e-06
6.7135143e-06
7.8926419e-06
4.5961088e-06
3.9719858e-06
3.1468236e-06
2.4560555e-06
2.0227996e-06
1.7407832e-06
1.5590074e-06
1.4485528e-06
1.3741324e-06
1.2993575e-06
1.2192039e-06
1.1385669e-06
1.059364e-06
9.9210615e-07
9.43234e-07
9.0634538e-07
8.7362818e-07
8.5021808e-07
8.308503e-07
8.0792827e-07
7.797678e-07
7.5169918e-07
7.2845505e-07
7.1425e-07
7.0671635e-07
7.0393389e-07
7.0270404e-07
7.038477e-07
7.0997047e-07
7.1953571e-07
7.2414246e-07
7.3050373e-07
7.3770887e-07
7.4238729e-07
7.4989767e-07
7.6118421e-07
7.7108251e-07
7.848066e-07
8.143601e-07
8.4533216e-07
9.0513823e-07
9.6825457e-07
1.1091103e-06
1.2305311e-06
1.4860789e-06
1.6666677e-06
2.0656599e-06
2.3551425e-06
2.8473224e-06
3.2548392e-06
4.0783089e-06
4.5471662e-06
5.4227255e-06
6.2416989e-06
7.4393714e-06
4.597939e-06
3.9766896e-06
3.1591943e-06
2.4651955e-06
2.028881e-06
1.7451202e-06
1.5614913e-06
1.4517941e-06
1.3770616e-06
1.302001e-06
1.2208985e-06
1.139693e-06
1.0633273e-06
9.9502338e-07
9.4436166e-07
9.0628014e-07
8.7530788e-07
8.5226178e-07
8.3179858e-07
8.0994943e-07
7.8317276e-07
7.5443578e-07
7.3092984e-07
7.1538797e-07
7.0665242e-07
7.0362348e-07
7.0277415e-07
7.0358169e-07
7.1011707e-07
7.2043104e-07
7.2630071e-07
7.3387023e-07
7.4210629e-07
7.4749552e-07
7.5657806e-07
7.6887713e-07
7.7643061e-07
7.8974012e-07
8.1515178e-07
8.4172944e-07
8.742725e-07
9.4713762e-07
1.0717469e-06
1.1582171e-06
1.3203315e-06
1.4658558e-06
1.7833997e-06
2.0154266e-06
2.3315397e-06
2.679601e-06
3.3860996e-06
3.7645713e-06
4.5127446e-06
5.0047256e-06
6.2484003e-06
4.6008644e-06
3.9833778e-06
3.1712219e-06
2.4715308e-06
2.0337022e-06
1.7514537e-06
1.5679509e-06
1.456624e-06
1.3788267e-06
1.303887e-06
1.2227359e-06
1.1452344e-06
1.0689973e-06
9.969548e-07
9.4408553e-07
9.061935e-07
8.764765e-07
8.5304371e-07
8.3090093e-07
8.0846637e-07
7.8367124e-07
7.5725499e-07
7.3460087e-07
7.1925377e-07
7.1012259e-07
7.0693432e-07
7.0611923e-07
7.0615603e-07
7.1114893e-07
7.201459e-07
7.2673761e-07
7.3462977e-07
7.4322415e-07
7.4982255e-07
7.5996017e-07
7.7369253e-07
7.8442915e-07
7.9941799e-07
8.1890183e-07
8.4219082e-07
8.7364619e-07
9.4454985e-07
1.0520969e-06
1.128518e-06
1.2386896e-06
1.3388381e-06
1.5903124e-06
1.78987e-06
2.1516976e-06
2.4964574e-06
2.9894166e-06
3.2837757e-06
3.803763e-06
4.0685504e-06
4.6727243e-06
4.6053656e-06
3.9940277e-06
3.1816662e-06
2.4787292e-06
2.0420291e-06
1.7594258e-06
1.573528e-06
1.4606866e-06
1.3805487e-06
1.3105433e-06
1.2324949e-06
1.1560895e-06
1.0769698e-06
1.0031253e-06
9.4857692e-07
9.1129473e-07
8.8081762e-07
8.5579801e-07
8.3200566e-07
8.1032079e-07
7.8764601e-07
7.6414175e-07
7.4247015e-07
7.2691171e-07
7.1722284e-07
7.13804e-07
7.1287014e-07
7.1210774e-07
7.1460909e-07
7.1946064e-07
7.2676944e-07
7.3477191e-07
7.4401564e-07
7.5053052e-07
7.6339555e-07
7.7772683e-07
7.9187693e-07
8.0782197e-07
8.3156119e-07
8.5498013e-07
8.8874456e-07
9.4461196e-07
1.0445937e-06
1.1177786e-06
1.2299487e-06
1.3149581e-06
1.5145461e-06
1.7191516e-06
2.0985677e-06
2.5026979e-06
2.9081127e-06
3.3433819e-06
3.6879717e-06
3.9744435e-06
4.2682495e-06
4.6073044e-06
3.9999161e-06
3.1909825e-06
2.4885381e-06
2.0524355e-06
1.7683053e-06
1.573909e-06
1.4651168e-06
1.3851867e-06
1.3207236e-06
1.2464076e-06
1.1638478e-06
1.0850543e-06
1.014039e-06
9.5820311e-07
9.2065167e-07
8.9164835e-07
8.6404631e-07
8.4200823e-07
8.221031e-07
8.012568e-07
7.75701e-07
7.507229e-07
7.3191345e-07
7.2042239e-07
7.1638943e-07
7.1503674e-07
7.1418115e-07
7.1614164e-07
7.1908671e-07
7.2640999e-07
7.3544775e-07
7.457324e-07
7.5314625e-07
7.6818707e-07
7.8314052e-07
8.031476e-07
8.1692934e-07
8.5078456e-07
8.7794276e-07
9.1967722e-07
9.5276852e-07
1.0351412e-06
1.1018701e-06
1.223962e-06
1.318367e-06
1.4696685e-06
1.6982371e-06
2.0714284e-06
2.435826e-06
2.8228421e-06
3.429095e-06
3.7620558e-06
4.1575559e-06
4.3921357e-06
4.6072809e-06
4.0017045e-06
3.201375e-06
2.4985622e-06
2.0600763e-06
1.7743021e-06
1.5753969e-06
1.4676216e-06
1.3876115e-06
1.324426e-06
1.2509463e-06
1.1663846e-06
1.0887535e-06
1.0182249e-06
9.6140311e-07
9.2259073e-07
8.948547e-07
8.6701835e-07
8.4610147e-07
8.2672932e-07
8.0583767e-07
7.7971508e-07
7.5318335e-07
7.328652e-07
7.201375e-07
7.1516979e-07
7.1312955e-07
7.1261623e-07
7.1456175e-07
7.1722614e-07
7.2520324e-07
7.3525113e-07
7.4666919e-07
7.5490577e-07
7.7202234e-07
7.8723322e-07
8.1042646e-07
8.2581181e-07
8.627546e-07
8.9142168e-07
9.3611438e-07
9.6548391e-07
1.0357449e-06
1.0944543e-06
1.2074707e-06
1.3065551e-06
1.4283888e-06
1.7015509e-06
2.0252848e-06
2.2461832e-06
2.6727307e-06
3.3251046e-06
3.6885433e-06
4.1934675e-06
4.4972216e-06
4.6062456e-06
4.0006669e-06
3.2108727e-06
2.5065106e-06
2.0644326e-06
1.7785561e-06
1.5800975e-06
1.4689383e-06
1.3884518e-06
1.3234056e-06
1.2507028e-06
1.1658969e-06
1.0899436e-06
1.0197363e-06
9.6097628e-07
9.1914437e-07
8.9069426e-07
8.6499243e-07
8.4298284e-07
8.2445995e-07
8.0479342e-07
7.7994726e-07
7.5289552e-07
7.3061844e-07
7.158402e-07
7.0924174e-07
7.062718e-07
7.0571514e-07
7.0748468e-07
7.1024455e-07
7.1995833e-07
7.314328e-07
7.4432101e-07
7.5318621e-07
7.7133276e-07
7.8579143e-07
8.0767642e-07
8.2533369e-07
8.6014189e-07
8.8780382e-07
9.3145927e-07
9.7554427e-07
1.0201144e-06
1.0901091e-06
1.179752e-06
1.2521883e-06
1.3594646e-06
1.5851721e-06
1.9464601e-06
2.1410262e-06
2.4802586e-06
2.9338944e-06
3.39796e-06
3.9897187e-06
4.3460308e-06
4.6058356e-06
4.0010401e-06
3.2199243e-06
2.5130379e-06
2.0685805e-06
1.7824974e-06
1.5866811e-06
1.4708167e-06
1.3899851e-06
1.3221216e-06
1.2494881e-06
1.1678251e-06
1.0913086e-06
1.0198176e-06
9.6006927e-07
9.1672068e-07
8.8497282e-07
8.5989376e-07
8.3725705e-07
8.1743593e-07
7.9821068e-07
7.7563121e-07
7.5128807e-07
7.296691e-07
7.1468927e-07
7.0750911e-07
7.0390008e-07
7.0313085e-07
7.0450369e-07
7.0633232e-07
7.1563574e-07
7.273889e-07
7.3921151e-07
7.4764386e-07
7.6455649e-07
7.7831946e-07
7.9324444e-07
8.172471e-07
8.4437326e-07
8.6854204e-07
9.1168001e-07
9.5889321e-07
9.9370841e-07
1.0615021e-06
1.1476582e-06
1.2027932e-06
1.3057781e-06
1.4332772e-06
1.7385556e-06
1.9361511e-06
2.2920682e-06
2.5037666e-06
2.883742e-06
3.3391991e-06
3.8243632e-06
4.6060817e-06
4.0021378e-06
3.2270216e-06
2.5190911e-06
2.0753565e-06
1.7887464e-06
1.5926966e-06
1.4740949e-06
1.3936229e-06
1.3248597e-06
1.2534356e-06
1.1761739e-06
1.0973776e-06
1.0236708e-06
9.6358527e-07
9.1900797e-07
8.8611882e-07
8.6029924e-07
8.3789751e-07
8.1692626e-07
7.969084e-07
7.7618781e-07
7.5449074e-07
7.3371089e-07
7.1784775e-07
7.0938437e-07
7.0495813e-07
7.0382264e-07
7.0476751e-07
7.0566315e-07
7.1350516e-07
7.2631974e-07
7.3606136e-07
7.4369558e-07
7.5681728e-07
7.6846255e-07
7.7720824e-07
7.9515692e-07
8.2121902e-07
8.4131389e-07
8.7427739e-07
9.214325e-07
9.5692319e-07
1.0105541e-06
1.1075594e-06
1.1591449e-06
1.2592888e-06
1.3522034e-06
1.5576892e-06
1.7178318e-06
2.0295987e-06
2.2011608e-06
2.4803635e-06
2.825602e-06
3.1872907e-06
4.6061855e-06
4.0040407e-06
3.2338942e-06
2.5265083e-06
2.0853697e-06
1.7984448e-06
1.5971447e-06
1.4792508e-06
1.3998385e-06
1.3331659e-06
1.265333e-06
1.1915449e-06
1.1097978e-06
1.0346685e-06
9.7500282e-07
9.2843667e-07
8.9650371e-07
8.7051739e-07
8.4807245e-07
8.2704729e-07
8.0633614e-07
7.8721285e-07
7.6738615e-07
7.4672898e-07
7.2884162e-07
7.1761183e-07
7.115927e-07
7.0968083e-07
7.0999752e-07
7.1002985e-07
7.1556511e-07
7.2795289e-07
7.3622116e-07
7.4325825e-07
7.5416462e-07
7.6399557e-07
7.7194847e-07
7.836301e-07
8.0778748e-07
8.281409e-07
8.4478024e-07
8.8048918e-07
9.3348714e-07
9.695319e-07
1.0367016e-06
1.0903534e-06
1.2008696e-06
1.2814965e-06
1.4237634e-06
1.5479963e-06
1.8405649e-06
2.0453465e-06
2.3279488e-06
2.5905658e-06
2.8058665e-06
4.6056893e-06
4.0039288e-06
3.2391974e-06
2.5340742e-06
2.0947406e-06
1.8084873e-06
1.6003436e-06
1.4832981e-06
1.406255e-06
1.3437881e-06
1.278714e-06
1.2020976e-06
1.1207383e-06
1.0463592e-06
9.8498871e-07
9.3797506e-07
9.0733984e-07
8.8152555e-07
8.5806097e-07
8.3958281e-07
8.2140038e-07
8.0291837e-07
7.8241562e-07
7.6015955e-07
7.4003467e-07
7.2661332e-07
7.1969303e-07
7.1728361e-07
7.1714924e-07
7.1674098e-07
7.2027155e-07
7.3119515e-07
7.4042498e-07
7.4837984e-07
7.5982849e-07
7.7028533e-07
7.7964822e-07
7.8911528e-07
8.0906015e-07
8.3183838e-07
8.4719215e-07
8.6743426e-07
9.1903785e-07
9.7260696e-07
1.008391e-06
1.0533293e-06
1.1652764e-06
1.261918e-06
1.371163e-06
1.4656664e-06
1.6737947e-06
1.902115e-06
2.1921614e-06
2.4270182e-06
2.58868e-06
4.6042511e-06
4.0034113e-06
3.2466006e-06
2.542074e-06
2.1018997e-06
1.8155417e-06
1.6038643e-06
1.4850697e-06
1.4084032e-06
1.3478418e-06
1.283812e-06
1.2047478e-06
1.1239427e-06
1.049412e-06
9.8724956e-07
9.4107003e-07
9.1018172e-07
8.8460229e-07
8.6207041e-07
8.4510648e-07
8.2973697e-07
8.1194382e-07
7.918127e-07
7.7148854e-07
7.5356386e-07
7.4206362e-07
7.3652495e-07
7.3493559e-07
7.3544433e-07
7.354002e-07
7.3892398e-07
7.4990741e-07
7.6468474e-07
7.8006292e-07
7.9735999e-07
8.1551996e-07
8.3049663e-07
8.412483e-07
8.6195924e-07
8.9162054e-07
9.096434e-07
9.2564103e-07
9.6815757e-07
1.0298853e-06
1.0666202e-06
1.1002338e-06
1.1893603e-06
1.2989627e-06
1.4034269e-06
1.4858006e-06
1.6302413e-06
1.8394867e-06
2.1043279e-06
2.3329782e-06
2.4542561e-06
4.6020268e-06
3.9997353e-06
3.2503475e-06
2.5474684e-06
2.1048737e-06
1.8183533e-06
1.6062252e-06
1.484455e-06
1.404579e-06
1.3426014e-06
1.27998e-06
1.2020669e-06
1.1227272e-06
1.048957e-06
9.8821387e-07
9.4573185e-07
9.1545564e-07
8.9148163e-07
8.7400831e-07
8.61232e-07
8.5192024e-07
8.4022384e-07
8.2583729e-07
8.1450924e-07
8.108102e-07
8.0964824e-07
8.1205772e-07
8.1820647e-07
8.2855722e-07
8.3367198e-07
8.4746157e-07
8.6580222e-07
8.921576e-07
9.3026686e-07
9.6854031e-07
1.0156211e-06
1.0483925e-06
1.0709663e-06
1.1074718e-06
1.1641882e-06
1.1996365e-06
1.2199326e-06
1.2628478e-06
1.3333508e-06
1.3793005e-06
1.4076391e-06
1.475792e-06
1.6043293e-06
1.7080292e-06
1.7808262e-06
1.8758811e-06
2.0530812e-06
2.2632179e-06
2.5045223e-06
2.544645e-06
4.5997139e-06
3.9966189e-06
3.2539279e-06
2.5497798e-06
2.1034999e-06
1.8151279e-06
1.6047991e-06
1.4784849e-06
1.3928918e-06
1.3301721e-06
1.2724257e-06
1.2043793e-06
1.1356613e-06
1.0718603e-06
1.0231916e-06
9.9614416e-07
9.8013974e-07
9.7206889e-07
9.7215675e-07
9.7868455e-07
9.9682614e-07
1.0100238e-06
1.026285e-06
1.0421575e-06
1.07567e-06
1.1066816e-06
1.1619021e-06
1.2065354e-06
1.2616988e-06
1.2889306e-06
1.3485703e-06
1.406789e-06
1.4548102e-06
1.549888e-06
1.6524169e-06
1.7838937e-06
1.8603583e-06
1.939061e-06
2.0231854e-06
2.160483e-06
2.2389356e-06
2.3083445e-06
2.3646261e-06
2.4576275e-06
2.5250603e-06
2.6000082e-06
2.6733902e-06
2.8272907e-06
2.9463249e-06
3.0695695e-06
3.1436481e-06
3.2858306e-06
3.3797319e-06
3.6368659e-06
3.5611218e-06
4.5938056e-06
3.9786953e-06
3.2326456e-06
2.5355304e-06
2.0931681e-06
1.8045169e-06
1.6039724e-06
1.4793706e-06
1.3993872e-06
1.3477067e-06
1.3129654e-06
1.2837747e-06
1.2634096e-06
1.2612256e-06
1.2687971e-06
1.2914788e-06
1.3505172e-06
1.3899508e-06
1.4593581e-06
1.5391372e-06
1.6799565e-06
1.7530025e-06
1.8662547e-06
1.9496433e-06
2.1224178e-06
2.2582849e-06
2.4446973e-06
2.6248508e-06
2.8284063e-06
2.9562833e-06
3.1680345e-06
3.3734944e-06
3.490291e-06
3.6816728e-06
3.9509847e-06
4.2771907e-06
4.4984365e-06
4.7047641e-06
4.9231593e-06
5.2323357e-06
5.4516116e-06
5.6196929e-06
5.7405238e-06
5.8912016e-06
6.0209272e-06
6.2105879e-06
6.3243011e-06
6.5299115e-06
6.7097452e-06
6.9522512e-06
7.0926516e-06
7.2620811e-06
7.3159904e-06
7.5251407e-06
7.2637374e-06
4.5850681e-06
3.9323614e-06
3.176349e-06
2.5316195e-06
2.1198204e-06
1.8598332e-06
1.710305e-06
1.618251e-06
1.6010044e-06
1.6167911e-06
1.6764297e-06
1.7874962e-06
1.9909832e-06
2.162065e-06
2.3715056e-06
2.5950392e-06
2.8844434e-06
3.048704e-06
3.3265142e-06
3.5832536e-06
4.0253542e-06
4.2708301e-06
4.6119787e-06
4.8919371e-06
5.3730727e-06
5.7544559e-06
6.1834152e-06
6.6740568e-06
7.2290194e-06
7.6438627e-06
8.1658878e-06
8.7595599e-06
9.1339136e-06
9.469405e-06
1.003666e-05
1.06674e-05
1.1239276e-05
1.1670623e-05
1.2170392e-05
1.2741651e-05
1.327881e-05
1.3629097e-05
1.3935474e-05
1.4196446e-05
1.4464603e-05
1.4806978e-05
1.5043419e-05
1.5266471e-05
1.5567322e-05
1.5930629e-05
1.62471e-05
1.6549224e-05
1.6673688e-05
1.6939289e-05
1.6463647e-05
4.5720099e-06
3.9017929e-06
3.3948251e-06
3.0051712e-06
2.7209882e-06
2.6510717e-06
2.6866805e-06
2.8239845e-06
3.0096065e-06
3.2626067e-06
3.7681585e-06
4.3050094e-06
5.0250889e-06
5.6756395e-06
6.3561018e-06
6.9281049e-06
7.6444134e-06
8.0636714e-06
8.675799e-06
9.1709625e-06
1.0050746e-05
1.0619976e-05
1.1287811e-05
1.1932677e-05
1.2760167e-05
1.3534203e-05
1.4282357e-05
1.5180283e-05
1.618288e-05
1.709785e-05
1.7957406e-05
1.9026848e-05
1.9976449e-05
2.0679675e-05
2.1579097e-05
2.2479121e-05
2.3471279e-05
2.4306876e-05
2.5176841e-05
2.5934719e-05
2.6762217e-05
2.72436e-05
2.7867161e-05
2.8264927e-05
2.8785276e-05
2.9074861e-05
2.9451164e-05
2.9577891e-05
2.9900488e-05
3.0042003e-05
3.0407758e-05
3.0670118e-05
3.0947282e-05
3.1249788e-05
3.0825707e-05
4.7188149e-06
5.4108988e-06
6.8198107e-06
7.3337634e-06
7.5820534e-06
7.9259407e-06
8.5972152e-06
9.4886901e-06
1.0186747e-05
1.0891295e-05
1.194154e-05
1.3102054e-05
1.4287224e-05
1.5407639e-05
1.6489341e-05
1.7232708e-05
1.8052223e-05
1.8705167e-05
1.9478186e-05
2.0069191e-05
2.0924103e-05
2.167473e-05
2.2415886e-05
2.3115017e-05
2.387509e-05
2.4639602e-05
2.5337215e-05
2.6153473e-05
2.6966623e-05
2.7968756e-05
2.8795556e-05
2.9722157e-05
3.0733804e-05
3.1649994e-05
3.2490513e-05
3.3088083e-05
3.3889197e-05
3.4803257e-05
3.5645396e-05
3.6265906e-05
3.6921343e-05
3.7515832e-05
3.8085483e-05
3.8394005e-05
3.8558679e-05
3.878122e-05
3.9034455e-05
3.9115376e-05
3.8994485e-05
3.8780349e-05
3.8701419e-05
3.880878e-05
3.9027212e-05
3.9150343e-05
3.9184165e-05
6.1102662e-06
1.3170523e-05
2.1867195e-05
2.4744958e-05
2.5942748e-05
2.7011419e-05
2.7935346e-05
2.8734555e-05
2.9238231e-05
2.9560532e-05
2.9928993e-05
3.0555701e-05
3.1156117e-05
3.1565148e-05
3.1697183e-05
3.1591898e-05
3.1195135e-05
3.0894389e-05
3.0751178e-05
3.0649641e-05
3.0599725e-05
3.0679735e-05
3.0837078e-05
3.1030685e-05
3.113985e-05
3.1290123e-05
3.1440732e-05
3.1521973e-05
3.1551111e-05
3.1705355e-05
3.2009095e-05
3.2306334e-05
3.2502306e-05
3.2726776e-05
3.2898558e-05
3.2930601e-05
3.2998888e-05
3.3200142e-05
3.3365059e-05
3.3337756e-05
3.328865e-05
3.3418701e-05
3.3588446e-05
3.3498266e-05
3.3174421e-05
3.2971186e-05
3.3009863e-05
3.3009115e-05
3.2763542e-05
3.2377047e-05
3.2011458e-05
3.1891117e-05
3.195439e-05
3.1969502e-05
3.2318676e-05
4.4333994e-05
5.9113539e-05
4.3443211e-05
3.7881881e-05
3.7598985e-05
3.6885084e-05
3.4661351e-05
3.2222139e-05
3.0165021e-05
2.8242073e-05
2.6643901e-05
2.5552442e-05
2.511448e-05
2.5028778e-05
2.4857088e-05
2.445171e-05
2.3772823e-05
2.2886432e-05
2.1978552e-05
2.0974262e-05
2.0060886e-05
1.9612551e-05
1.9766726e-05
2.0474347e-05
2.1488666e-05
2.2437932e-05
2.3281505e-05
2.3691084e-05
2.3872986e-05
2.3820962e-05
2.3718832e-05
2.3440501e-05
2.2935593e-05
2.2330237e-05
2.1821936e-05
2.1226999e-05
2.0451078e-05
1.964993e-05
1.9040782e-05
1.8459055e-05
1.7769747e-05
1.7091934e-05
1.670477e-05
1.6400038e-05
1.6262626e-05
1.6021151e-05
1.589711e-05
1.5948147e-05
1.6029225e-05
1.5908591e-05
1.5580418e-05
1.5108936e-05
1.4742539e-05
1.4514239e-05
1.4497835e-05
1.4360151e-05
3.1630084e-05
3.9321906e-05
3.1927815e-05
1.7841216e-05
8.2888346e-06
4.1234332e-06
2.8965824e-06
2.7629719e-06
2.8896898e-06
3.1002642e-06
3.4794536e-06
4.2509997e-06
4.8453494e-06
4.9158559e-06
4.7903728e-06
4.608412e-06
4.9533205e-06
6.6271728e-06
8.6337873e-06
8.9752631e-06
9.5193903e-06
1.264676e-05
1.9031533e-05
2.0558895e-05
2.0110343e-05
1.7788263e-05
1.3742437e-05
2.9647154e-05
3.9066804e-05
3.3251803e-05
1.9653002e-05
9.6447411e-06
4.9219181e-06
3.4486133e-06
3.3278408e-06
3.4834883e-06
3.7065534e-06
4.0514994e-06
4.7800054e-06
5.6190357e-06
5.9733832e-06
5.7729615e-06
5.4206603e-06
5.6379018e-06
7.07628e-06
9.495863e-06
1.0691486e-05
1.1327627e-05
1.4170016e-05
2.0940344e-05
2.3281053e-05
2.386541e-05
2.2515299e-05
1.2488855e-05
2.754947e-05
3.8723831e-05
3.4374118e-05
2.1699391e-05
1.1271511e-05
5.9919531e-06
4.138283e-06
3.8412422e-06
3.8887887e-06
4.0660143e-06
4.4264533e-06
5.2132682e-06
6.2843067e-06
7.1146503e-06
7.5660561e-06
7.3625498e-06
7.2815337e-06
8.220105e-06
1.0582887e-05
1.2475138e-05
1.3371612e-05
1.6511025e-05
2.498882e-05
2.7599079e-05
2.7891977e-05
2.728663e-05
1.1417956e-05
2.5559236e-05
3.8649088e-05
3.5467468e-05
2.3762613e-05
1.290702e-05
6.9852412e-06
4.7853157e-06
4.3835899e-06
4.3541569e-06
4.4340397e-06
4.745681e-06
5.6582164e-06
7.0072039e-06
8.0872005e-06
8.9182461e-06
8.900767e-06
8.8602354e-06
9.8019807e-06
1.2709063e-05
1.4179966e-05
1.5104769e-05
1.7987169e-05
2.892733e-05
3.2491566e-05
3.188758e-05
3.1731758e-05
1.0583619e-05
2.4049115e-05
3.8782776e-05
3.6473839e-05
2.5723372e-05
1.4363407e-05
8.0835802e-06
5.679474e-06
5.1508094e-06
5.0365191e-06
5.0553646e-06
5.3300145e-06
6.356636e-06
8.1806729e-06
9.6050383e-06
1.0414699e-05
1.0422839e-05
1.0510272e-05
1.1418547e-05
1.5120599e-05
1.6598482e-05
1.7052343e-05
1.8978214e-05
3.0364897e-05
3.7286802e-05
3.7981927e-05
4.050908e-05
9.6936983e-06
2.2444358e-05
3.837496e-05
3.702626e-05
2.7488346e-05
1.5894515e-05
9.2679917e-06
6.5424568e-06
5.8068945e-06
5.6624912e-06
5.7240413e-06
6.0351335e-06
7.179371e-06
9.4464338e-06
1.1572112e-05
1.2646362e-05
1.2509853e-05
1.2399665e-05
1.3153115e-05
1.7491805e-05
2.0356748e-05
2.0056424e-05
2.1054375e-05
3.1450855e-05
4.23051e-05
4.4455943e-05
4.8276845e-05
9.2376117e-06
2.0162391e-05
3.7222311e-05
3.700582e-05
2.9262351e-05
1.7512486e-05
1.075075e-05
7.8916396e-06
6.9643872e-06
6.6554385e-06
6.5383531e-06
6.7619248e-06
7.8176318e-06
1.0325822e-05
1.3611498e-05
1.5399141e-05
1.5093107e-05
1.4039121e-05
1.4693184e-05
1.9348784e-05
2.499261e-05
2.4607589e-05
2.5263085e-05
3.4607767e-05
4.960918e-05
5.2568193e-05
5.6028757e-05
8.3333397e-06
1.7364614e-05
3.5554301e-05
3.6600225e-05
3.0874306e-05
1.9571137e-05
1.2713035e-05
9.5337676e-06
8.2971866e-06
7.6605799e-06
7.2352558e-06
7.3261121e-06
8.2833245e-06
1.1058117e-05
1.4993611e-05
1.7502257e-05
1.7251537e-05
1.5642617e-05
1.6098952e-05
2.0536131e-05
2.9198025e-05
2.9803891e-05
3.0145552e-05
3.9581771e-05
5.8143247e-05
6.0964478e-05
6.4755265e-05
7.6858743e-06
1.4938649e-05
3.3727666e-05
3.6404152e-05
3.2466409e-05
2.1819279e-05
1.4441839e-05
1.073221e-05
9.1937584e-06
8.3826598e-06
7.8395055e-06
7.8543727e-06
8.8305692e-06
1.2070564e-05
1.6377271e-05
1.9346354e-05
1.9455446e-05
1.7655132e-05
1.7738771e-05
2.1893045e-05
3.2286587e-05
3.4247626e-05
3.4631799e-05
4.3356659e-05
6.685907e-05
7.0798481e-05
7.5019065e-05
8.2447336e-06
1.3297378e-05
3.2309071e-05
3.6598783e-05
3.3637462e-05
2.3501782e-05
1.5681409e-05
1.1950645e-05
1.0392007e-05
9.5335269e-06
8.8945844e-06
8.8450225e-06
9.8051296e-06
1.333857e-05
1.9158056e-05
2.3217119e-05
2.3770334e-05
2.1349461e-05
2.0398068e-05
2.3871217e-05
3.5379509e-05
3.8833959e-05
3.9164142e-05
4.6611148e-05
7.5526605e-05
8.2533318e-05
8.5793669e-05
8.869175e-06
1.2393758e-05
3.1424596e-05
3.6841786e-05
3.4326563e-05
2.471311e-05
1.713296e-05
1.3698884e-05
1.2318558e-05
1.1429171e-05
1.0476319e-05
1.0290073e-05
1.1320306e-05
1.5332733e-05
2.3442419e-05
2.9487904e-05
3.0436746e-05
2.7947784e-05
2.6088821e-05
2.8839636e-05
4.1182577e-05
4.6270068e-05
4.5557862e-05
5.1263268e-05
8.3661638e-05
9.9030217e-05
0.00010206046
8.758813e-06
1.1557795e-05
3.0294975e-05
3.6533545e-05
3.4634665e-05
2.6382629e-05
1.915948e-05
1.5792637e-05
1.4191011e-05
1.2902628e-05
1.1685791e-05
1.1433576e-05
1.2564506e-05
1.6950417e-05
2.6423176e-05
3.3500783e-05
3.4664217e-05
3.2084143e-05
3.0559381e-05
3.5273924e-05
5.4074374e-05
6.2000305e-05
5.7617547e-05
6.0526099e-05
9.6211398e-05
0.00011834251
0.0001239101
8.9853994e-06
1.0246517e-05
2.8048033e-05
3.5491809e-05
3.4751767e-05
2.8635832e-05
2.1678738e-05
1.8119621e-05
1.6324541e-05
1.4735719e-05
1.3107117e-05
1.2624472e-05
1.3779666e-05
1.8412233e-05
2.9360661e-05
3.8900448e-05
4.1444953e-05
3.8255057e-05
3.6179436e-05
4.2480716e-05
6.7580527e-05
8.1943993e-05
7.6077089e-05
7.6090684e-05
0.00011032554
0.00014296728
0.00015367895
8.5221743e-06
9.027974e-06
2.5190039e-05
3.3826896e-05
3.4322645e-05
3.088424e-05
2.4397696e-05
2.0836315e-05
1.9107188e-05
1.7591598e-05
1.5520443e-05
1.4512155e-05
1.5502853e-05
2.0369584e-05
3.287959e-05
4.686316e-05
5.2405429e-05
4.9399424e-05
4.5029204e-05
5.1513445e-05
7.9502445e-05
0.00010162419
9.7329564e-05
9.4589023e-05
0.00012907997
0.00017651894
0.00018675865
9.0782348e-06
8.1005523e-06
2.2581957e-05
3.2401158e-05
3.4392796e-05
3.2861824e-05
2.7425554e-05
2.431842e-05
2.2674411e-05
2.0707203e-05
1.7989199e-05
1.6366835e-05
1.727219e-05
2.2266982e-05
3.6070581e-05
5.4804177e-05
6.3926708e-05
6.2138504e-05
5.4790796e-05
6.0429961e-05
8.9797998e-05
0.00012003808
0.00011957995
0.00011301609
0.0001491991
0.00021831681
0.00022667574
1.114587e-05
7.5068313e-06
2.0700565e-05
3.1779084e-05
3.5187595e-05
3.4775027e-05
3.1172939e-05
2.8144628e-05
2.640828e-05
2.3835125e-05
2.0401525e-05
1.839524e-05
1.9177889e-05
2.4176759e-05
3.9229939e-05
6.277233e-05
7.6077913e-05
7.5687866e-05
6.5491965e-05
6.9473412e-05
9.9877176e-05
0.00013564635
0.00013947408
0.00013393608
0.0001721784
0.00025301861
0.00027376232
1.2672879e-05
7.3325684e-06
1.9778362e-05
3.1977028e-05
3.6149474e-05
3.6365742e-05
3.4439768e-05
3.1117691e-05
2.9198292e-05
2.6732501e-05
2.2973353e-05
2.0702838e-05
2.143688e-05
2.6747257e-05
4.317516e-05
7.1279988e-05
8.8076082e-05
8.8339718e-05
7.5404491e-05
7.7487248e-05
0.00011048105
0.00015512383
0.00016578583
0.00015999638
0.00019455456
0.00028981485
0.00032688676
1.3346631e-05
7.2016238e-06
1.8703294e-05
3.1920604e-05
3.7117956e-05
3.8227818e-05
3.7683147e-05
3.5860538e-05
3.3607955e-05
3.0617395e-05
2.6583645e-05
2.3845505e-05
2.4578419e-05
3.0573544e-05
4.9065863e-05
8.2553927e-05
0.0001007716
0.00010122025
8.6028015e-05
8.6060764e-05
0.00012097264
0.00018805031
0.00021153059
0.00019848621
0.00022400286
0.00033579731
0.00039882675
1.5541414e-05
6.7760363e-06
1.6108057e-05
3.0439867e-05
3.7549329e-05
4.0367439e-05
4.1065029e-05
4.0825387e-05
3.9622877e-05
3.6866344e-05
3.1946786e-05
2.8429282e-05
2.8925439e-05
3.5452134e-05
5.5865962e-05
9.5288874e-05
0.00011609767
0.00011687375
0.00010062542
9.8790472e-05
0.00013737186
0.00023779825
0.00028365818
0.00025894624
0.00027379309
0.00039105903
0.00049579596
1.4811022e-05
6.4504632e-06
1.3043882e-05
2.7822675e-05
3.6851247e-05
4.1843435e-05
4.435701e-05
4.5632386e-05
4.5901289e-05
4.4252678e-05
3.8309251e-05
3.3987023e-05
3.4214367e-05
4.1819033e-05
6.5408602e-05
0.00011194936
0.00013730157
0.00013940225
0.00012192233
0.00011767958
0.00016307981
0.00028971961
0.00035598796
0.00033203244
0.00032835148
0.00043376809
0.00061652929
1.5997757e-05
6.2477344e-06
1.0998513e-05
2.5197561e-05
3.6462079e-05
4.4140704e-05
4.887514e-05
5.18721e-05
5.324535e-05
5.2328458e-05
4.6354556e-05
4.0731867e-05
4.0566713e-05
4.9238951e-05
7.5475068e-05
0.00013031262
0.00016427045
0.00016987566
0.0001532318
0.00014701854
0.00019720384
0.00033947712
0.00042024942
0.00040621147
0.00038845181
0.00049558212
0.00075267557
2.0379686e-05
6.2832313e-06
1.0096846e-05
2.3718678e-05
3.7580722e-05
4.8009066e-05
5.4926089e-05
5.9048499e-05
6.0399505e-05
5.9040042e-05
5.2924038e-05
4.6862274e-05
4.6327004e-05
5.4846042e-05
8.1184628e-05
0.00014266554
0.00018856507
0.00020468503
0.0001942283
0.000182518
0.00023538184
0.00039423159
0.00050491954
0.00049919376
0.00046479051
0.00059086551
0.00088204022
2.378671e-05
6.5852792e-06
1.0405049e-05
2.3985121e-05
4.025061e-05
5.2810079e-05
6.1027792e-05
6.5740913e-05
6.701012e-05
6.5778393e-05
6.0053142e-05
5.4236863e-05
5.3461743e-05
6.2195864e-05
8.9176097e-05