/*--------------------------------*- C++ -*----------------------------------*\
| =========                 |                                                 |
| \\      /  F ield         | OpenFOAM: The Open Source CFD Toolbox           |
|  \\    /   O peration     | Version:  2406                                  |
|   \\  /    A nd           | Website:  www.openfoam.com                      |
|    \\/     M anipulation  |                                                 |
\*---------------------------------------------------------------------------*/
FoamFile
{
    version     2.0;
    format      ascii;
    arch        "LSB;label=32;scalar=64";
    class       volScalarField;
    location    "32";
    object      omega;
}
// * * * * * * * * * * * * * * * * * * * * * * * * * * * * * * * * * * * * * //

dimensions      [0 0 -1 0 0 0 0];

internalField   nonuniform List<scalar> 
62344
(
4.4083477
3.3131742
2.6088891
2.1693542
1.881645
1.6757266
1.5178959
1.3895013
1.2847688
1.1920717
1.1153401
1.0515188
0.99417412
0.94446415
0.90535727
0.86907884
0.83579775
0.8098533
0.7876975
0.76635119
0.74549703
0.72655903
0.7102363
0.69575169
0.68327832
0.67424512
0.66760672
0.6595123
0.64985631
0.63939002
0.63181178
0.62746218
0.62798363
0.62950296
0.63387071
0.64550885
0.66619955
0.70044962
0.73753959
0.79235026
0.84272744
0.8889975
0.9268253
0.99128436
1.0622395
1.14387
1.2405239
1.3246549
1.4102127
1.468684
1.5310321
1.5647694
1.6123886
1.6280386
1.6721012
4.414353
3.3252803
2.6194474
2.1783311
1.8882731
1.6820232
1.5247219
1.3964242
1.2923946
1.198365
1.1212002
1.0561703
0.99915143
0.9492041
0.9101008
0.87419078
0.84094208
0.81405389
0.79189137
0.77042343
0.7494508
0.73018806
0.71354989
0.69912571
0.68599746
0.67496886
0.66721899
0.6599858
0.65174258
0.64079067
0.63156631
0.62437004
0.6225619
0.62317636
0.62493708
0.631729
0.64481351
0.66950711
0.70385495
0.75609211
0.81575295
0.86975184
0.91242832
0.97473214
1.0513517
1.1428471
1.2354758
1.3346731
1.4148594
1.5141927
1.5778316
1.6802961
1.7390737
1.8495709
1.8494481
4.4212488
3.3323566
2.6247738
2.1823383
1.8931071
1.6868235
1.5299383
1.4014494
1.2971349
1.2029717
1.1250697
1.06118
1.0037943
0.95347612
0.91371276
0.87731906
0.84395489
0.81642877
0.79510137
0.77278474
0.7515018
0.73321105
0.7168428
0.70254205
0.68936001
0.67746865
0.66861782
0.66178029
0.65526348
0.64559847
0.63565797
0.62696259
0.62403978
0.6233212
0.62383119
0.62729959
0.63473725
0.64760827
0.67545759
0.70274112
0.75073648
0.79895114
0.83807043
0.90198678
0.95732391
1.0499463
1.1411192
1.2629953
1.3564342
1.4773154
1.5602597
1.6778601
1.7538094
1.8483525
1.9267274
4.427633
3.3406617
2.6312901
2.1876816
1.8987986
1.6925225
1.5348227
1.406254
1.302449
1.20929
1.129175
1.0661188
1.0082908
0.95791753
0.91772692
0.8817896
0.84839164
0.81982223
0.79656473
0.77570293
0.75555165
0.73761418
0.720652
0.70563668
0.69217559
0.68024482
0.67036072
0.66308028
0.65799194
0.65147545
0.64237598
0.6327237
0.62748553
0.62499633
0.62505239
0.62730036
0.63105233
0.63838697
0.65920931
0.68251333
0.72381371
0.76327706
0.79344567
0.85558532
0.89433212
0.96197858
1.0063402
1.1050956
1.1722548
1.3029354
1.4132639
1.5467819
1.6595834
1.7674633
1.8866586
4.4334456
3.3490313
2.6394429
2.1943891
1.9038065
1.6960916
1.5381917
1.410406
1.307313
1.213196
1.132591
1.0679897
1.0108926
0.96161325
0.91906673
0.88381086
0.8521567
0.82386322
0.80023746
0.78008526
0.75969411
0.74063515
0.72374058
0.70846325
0.69500253
0.68312398
0.67218242
0.66402101
0.65860801
0.65372292
0.64620653
0.63755621
0.6313314
0.62737004
0.62641397
0.62813587
0.63011119
0.63387853
0.64631519
0.66559587
0.70287775
0.73694989
0.78109192
0.82100728
0.8705948
0.91961096
0.97386951
1.0143444
1.0827539
1.1364561
1.2425328
1.3070195
1.4239954
1.4962988
1.663111
4.4373302
3.35842
2.6485082
2.2006597
1.9091078
1.7008536
1.5429893
1.4153059
1.3117242
1.2171842
1.1368204
1.072493
1.0155157
0.96471531
0.92267464
0.88751095
0.85538544
0.82732009
0.80309825
0.78172754
0.76139408
0.7424997
0.72729543
0.71266527
0.699053
0.68621134
0.67431703
0.66512326
0.65889003
0.65503728
0.64928968
0.64194638
0.63516336
0.63016263
0.6287954
0.630277
0.63186557
0.6343707
0.64317737
0.65860226
0.68968072
0.71434039
0.76429001
0.79985771
0.8622694
0.9034478
0.96814375
1.0008869
1.0677995
1.1103529
1.190884
1.2401061
1.3335536
1.3790309
1.4708307
4.4416363
3.3647626
2.6532841
2.204843
1.9132565
1.7048489
1.5471155
1.4187382
1.3139747
1.2219056
1.1418533
1.0768354
1.0191812
0.9681092
0.92648059
0.89121946
0.85723322
0.82960968
0.80615431
0.7830036
0.76334109
0.74527072
0.73003313
0.71609171
0.70250424
0.68911512
0.67715133
0.66736861
0.66050046
0.65662013
0.65130249
0.64453768
0.63765823
0.63240743
0.63122391
0.63262999
0.63426193
0.63651675
0.64350754
0.65489049
0.6775065
0.69762515
0.74124831
0.77398571
0.83920549
0.8775054
0.95197529
0.98950656
1.0619828
1.1039771
1.1788869
1.2239224
1.3111392
1.3674831
1.4422689
4.4448376
3.3731377
2.6615454
2.2121147
1.9192228
1.70994
1.5501636
1.4232953
1.3180579
1.2273434
1.1464092
1.0789842
1.0219762
0.97343781
0.93086437
0.89371333
0.86165821
0.83433342
0.8099099
0.78854111
0.76901413
0.749846
0.73276129
0.71789536
0.70452857
0.69193572
0.68053838
0.6704629
0.66316405
0.65887542
0.65387729
0.64791978
0.64060459
0.63462702
0.63344918
0.63463259
0.63597164
0.63835801
0.6446975
0.65305327
0.66856847
0.68370764
0.71732709
0.7450016
0.79924966
0.83240165
0.9026623
0.94924356
1.0266025
1.0725833
1.1443741
1.1907781
1.270743
1.3340767
1.4139811
4.4476615
3.3814147
2.6709176
2.219375
1.9243751
1.7148212
1.5540442
1.427966
1.3229203
1.2311346
1.1492802
1.08167
1.0248339
0.97639743
0.93306131
0.89452151
0.86404513
0.83695753
0.81119602
0.79036807
0.77146636
0.75141961
0.73432073
0.71967412
0.70590169
0.69330001
0.68244804
0.67238484
0.66446579
0.65927063
0.65495655
0.65096386
0.64467571
0.63851811
0.63708886
0.63800517
0.63854937
0.64054753
0.64513817
0.65325554
0.66471518
0.67516671
0.69967135
0.72422761
0.77307351
0.8012618
0.85302643
0.88690661
0.95337043
0.9962491
1.059201
1.0956847
1.1722208
1.2181187
1.3129819
4.4502052
3.3887922
2.6788097
2.2250023
1.9288034
1.7195389
1.5595225
1.4327001
1.3273435
1.2347237
1.152502
1.0859645
1.0284426
0.97831645
0.93493839
0.89656986
0.86585359
0.83848646
0.81253781
0.7909289
0.7721253
0.7530409
0.73672864
0.72380304
0.71003165
0.69617085
0.68461967
0.6749095
0.66671929
0.66010602
0.65542739
0.65199796
0.646829
0.64162679
0.64061981
0.64173874
0.64205434
0.64387588
0.64813897
0.65518947
0.66545222
0.67367462
0.69284813
0.71398936
0.7572806
0.78359527
0.82951815
0.85850982
0.91603589
0.95020494
1.0017082
1.0298587
1.0893577
1.1248057
1.1922458
4.4531406
3.3956326
2.6848156
2.2296835
1.9335375
1.723981
1.5644219
1.4370794
1.3305606
1.2391951
1.1579375
1.091098
1.032784
0.98136976
0.93818822
0.90135727
0.86834957
0.83991203
0.81488352
0.79328087
0.77350776
0.7557124
0.7405393
0.72859055
0.71583893
0.70161652
0.68832583
0.67821849
0.66984404
0.66208973
0.65685787
0.6535988
0.64869636
0.64395881
0.6432122
0.64461778
0.64518508
0.64721039
0.65227433
0.66046841
0.67017107
0.67683685
0.69370338
0.71236779
0.74886557
0.77828828
0.82405004
0.85880327
0.91204922
0.94766414
0.99450136
1.0325805
1.0778616
1.1248189
1.1756531
4.4554613
3.4035564
2.6921477
2.2360065
1.9397783
1.7292068
1.5674561
1.4423144
1.3345668
1.2448387
1.165578
1.0953072
1.0368521
0.98691557
0.94339697
0.90747399
0.87395354
0.84467813
0.81968894
0.79885318
0.77975489
0.76120385
0.74517569
0.73149371
0.71842435
0.70512251
0.69181002
0.68083475
0.67223611
0.66399
0.65832131
0.65586234
0.65195877
0.64748314
0.64663564
0.64802862
0.64908213
0.65142839
0.6579345
0.66644408
0.67743654
0.68389324
0.69948549
0.71581168
0.74266526
0.77657715
0.81483198
0.86341579
0.90459157
0.95103409
0.99512708
1.0531716
1.0880081
1.1485442
1.2000299
4.4575712
3.4121306
2.7015109
2.2437685
1.9459448
1.7348187
1.5711258
1.4470277
1.3393548
1.2494814
1.1700168
1.0988395
1.0396587
0.9908517
0.94723674
0.90965792
0.8768627
0.84858883
0.82306186
0.80174335
0.7826182
0.76392228
0.74735504
0.73294138
0.71925293
0.70599067
0.69332154
0.68244958
0.67375763
0.66538031
0.65907326
0.65639484
0.65439701
0.65174428
0.65111199
0.65218947
0.65331885
0.65575071
0.66275481
0.67065401
0.68269194
0.68964263
0.7041786
0.72126263
0.73944296
0.77405262
0.80640114
0.85812045
0.89525449
0.94431505
0.99038466
1.0498764
1.0901981
1.1504102
1.2092706
4.4589062
3.4195835
2.7106219
2.2511199
1.9514287
1.7398166
1.5762881
1.4513956
1.3438949
1.2531042
1.1731748
1.1020301
1.0419774
0.99327591
0.94940502
0.91066415
0.87761847
0.84998418
0.82407249
0.80237321
0.78322186
0.76510143
0.7484308
0.73369988
0.71966229
0.70626025
0.69361056
0.68314894
0.67462587
0.66619025
0.65992442
0.65686855
0.65491391
0.65312608
0.65333358
0.65413915
0.65531307
0.65823695
0.66454599
0.67219363
0.68438803
0.69155091
0.70618726
0.72016159
0.74003303
0.76299042
0.79654056
0.8377533
0.87594438
0.92112253
0.97142553
1.022155
1.0705159
1.1284366
1.1946885
4.4605001
3.4269012
2.7189422
2.257692
1.9566415
1.7444215
1.5823357
1.4557979
1.3488682
1.256785
1.1758541
1.1056535
1.0446713
0.99520331
0.95137787
0.91195198
0.87784
0.85004389
0.82449865
0.80224396
0.78285629
0.76517104
0.74907661
0.73487328
0.72109971
0.70776643
0.69481839
0.68430199
0.67603977
0.66772818
0.66179059
0.65903271
0.65648947
0.65386916
0.65386467
0.65415676
0.65499753
0.65788654
0.66371733
0.67221063
0.68020222
0.69131394
0.70342402
0.71659534
0.73635401
0.75177752
0.78312711
0.81047935
0.85468999
0.88449547
0.93524767
0.96383246
1.0161225
1.0629979
1.1322977
4.4617665
3.4330902
2.7257139
2.2635335
1.9622283
1.7496555
1.5881329
1.4610259
1.354507
1.2619823
1.180499
1.1114317
1.0495091
0.99856132
0.95502489
0.91529574
0.88071814
0.85167055
0.82707477
0.80450288
0.7840659
0.76658924
0.75171388
0.73874744
0.72546923
0.71220039
0.69916406
0.68796038
0.67929261
0.6710735
0.66578852
0.66355262
0.6602857
0.65650526
0.65586615
0.65554374
0.65579151
0.65833029
0.66377493
0.67143511
0.67799408
0.69001728
0.70045867
0.71721732
0.73159005
0.75077053
0.77212646
0.80135714
0.83316308
0.86682195
0.90339796
0.93301199
0.9730217
1.0184162
1.0616496
4.4634172
3.4405181
2.7329099
2.2700356
1.9686435
1.7562771
1.5932496
1.4675575
1.3608341
1.2688722
1.1884986
1.1191261
1.0567577
1.0048873
0.96181696
0.92191419
0.88803205
0.85805863
0.83374599
0.81193098
0.79109592
0.77374459
0.75996779
0.74766317
0.73450248
0.72103558
0.70853943
0.69707153
0.68762883
0.67958306
0.67480306
0.67293064
0.66984593
0.66597823
0.66502317
0.66435363
0.66409913
0.66630297
0.67141513
0.67816315
0.68410703
0.69599372
0.70690806
0.72548565
0.73783245
0.75967183
0.77639592
0.80768854
0.83496367
0.87199812
0.90332393
0.93829934
0.97475646
1.01757
1.0507287
4.4645512
3.4465416
2.7395548
2.2767281
1.9749347
1.7638864
1.5979605
1.4750639
1.3677681
1.2767897
1.1983202
1.1271133
1.0646459
1.0133196
0.97062316
0.93107334
0.89869297
0.86929291
0.84409832
0.82343721
0.80410612
0.78765432
0.77421678
0.76151331
0.7483184
0.73526328
0.72346039
0.71260223
0.70316164
0.69560326
0.69105937
0.68934298
0.68712818
0.68560705
0.68651577
0.68682567
0.68691054
0.68939778
0.69507475
0.70256323
0.70845742
0.72116272
0.73334163
0.75510282
0.76792312
0.79308148
0.80923901
0.84247274
0.86507984
0.90488476
0.92910757
0.97360805
1.0037311
1.0500396
1.075655
4.4660837
3.4544576
2.7482463
2.2846563
1.9819228
1.7718902
1.6041721
1.4831392
1.3760479
1.2863483
1.2095036
1.1374863
1.0747077
1.0245937
0.98225698
0.94377878
0.91297306
0.88548442
0.85985053
0.83936368
0.82243547
0.80772811
0.79486343
0.78285409
0.770565
0.75910044
0.74835785
0.73839226
0.7297645
0.72316479
0.71995673
0.71938474
0.71853665
0.71903683
0.72280238
0.72693563
0.72982172
0.7349247
0.74254989
0.75334213
0.76043997
0.77625205
0.79063229
0.81748679
0.83312679
0.86364343
0.88275239
0.91946136
0.94231037
0.98290261
1.0051986
1.0502577
1.0770938
1.1273051
1.1489671
4.4670122
3.4603241
2.7564567
2.2933131
1.990617
1.7815754
1.6154785
1.4953284
1.389808
1.3017312
1.2269286
1.156663
1.0947895
1.0456001
1.004126
0.96756214
0.9387058
0.91252435
0.8880431
0.86893415
0.85408163
0.8416103
0.83059544
0.82108333
0.81207547
0.80422323
0.79672421
0.79006493
0.78484516
0.78098715
0.77949581
0.7806005
0.78135112
0.78579848
0.79512887
0.80699252
0.81313657
0.823315
0.83278039
0.84909318
0.85855834
0.87738276
0.89193768
0.91986612
0.93663708
0.96937939
0.99012932
1.0297171
1.0536586
1.0966359
1.119699
1.1629809
1.1896361
1.2474651
1.2657752
4.4689832
3.471388
2.7716993
2.3099825
2.0091078
1.802376
1.6405038
1.5218946
1.4191659
1.3331364
1.2605084
1.1932453
1.134438
1.0860187
1.0477271
1.0166831
0.99380098
0.97194178
0.95363132
0.94049317
0.93268837
0.92512508
0.91966036
0.91978967
0.92130769
0.92467718
0.93041162
0.9392558
0.94559499
0.94861211
0.95660789
0.96884721
0.97650661
0.99241786
1.0140977
1.0426492
1.0571313
1.0767032
1.0938476
1.1225373
1.1371647
1.1583049
1.1735431
1.2001005
1.217196
1.2486574
1.2694653
1.3082349
1.3337268
1.3760793
1.3987117
1.4334325
1.4519296
1.5056496
1.5021261
4.4725639
3.4911108
2.8061678
2.3518055
2.0554508
1.8504216
1.69035
1.5724169
1.4735993
1.3923312
1.3274012
1.2734816
1.2333861
1.1942173
1.1730661
1.1656401
1.1663362
1.1683409
1.1722457
1.1839856
1.2099372
1.2268789
1.2414562
1.2646275
1.2988283
1.3284902
1.3600187
1.4011516
1.4332456
1.4535582
1.4854714
1.5209622
1.541931
1.5653279
1.602224
1.6496075
1.6802648
1.7088473
1.7409963
1.7837028
1.8108063
1.8321772
1.8500071
1.8746067
1.8928636
1.9177986
1.9345358
1.9650949
1.9912003
2.0298792
2.0531107
2.0790449
2.0863467
2.1156167
2.0834158
4.49959
3.5701055
2.9134347
2.4542839
2.1543999
1.956133
1.8127004
1.7184776
1.6452825
1.5941427
1.5773681
1.5836001
1.6031749
1.6312108
1.6759554
1.7335593
1.7949888
1.8378715
1.8903226
1.9501531
2.0288587
2.0808168
2.1256969
2.1847123
2.2509164
2.3075302
2.363333
2.4368617
2.4989316
2.5421635
2.5901911
2.6507141
2.6945412
2.7191212
2.761202
2.812792
2.8546278
2.8869362
2.9255707
2.9743806
3.01528
3.0351383
3.0577727
3.084253
3.1098953
3.1230501
3.1272595
3.1351316
3.1566657
3.1791688
3.2077448
3.2227745
3.2280703
3.2372543
3.1834961
4.5644061
3.7543556
3.2191019
2.847722
2.6235584
2.5026559
2.477985
2.4950639
2.531445
2.5956584
2.7014775
2.8247605
2.9587379
3.0763738
3.200886
3.3211827
3.4337947
3.5275365
3.6180185
3.7035646
3.8119115
3.8966532
3.9658221
4.0458265
4.1207662
4.18569
4.2431701
4.3253394
4.3889939
4.4340254
4.4698139
4.5253686
4.5694456
4.5928398
4.6217926
4.6538298
4.6726864
4.6911342
4.7185701
4.7594194
4.7970233
4.8110744
4.8297562
4.8602122
4.8876737
4.8969138
4.8910291
4.8836101
4.8966181
4.9106977
4.9443752
4.9587949
4.9743325
4.974479
4.8909577
4.7562151
4.7879125
5.1353534
5.295206
5.3441467
5.3940391
5.5092336
5.696021
5.8584925
6.0196301
6.1824555
6.3586181
6.5250772
6.6594033
6.790675
6.9099401
7.0212374
7.1298429
7.2262512
7.3071176
7.4330766
7.5433453
7.6561544
7.7805309
7.9062397
8.0157022
8.0952471
8.1984426
8.2618326
8.300019
8.3131237
8.3437855
8.3671357
8.3731228
8.3833614
8.3915761
8.3861528
8.3749354
8.3831886
8.3980348
8.4103404
8.4089736
8.4051617
8.4252887
8.4446357
8.4493017
8.4356884
8.4106279
8.3986385
8.3882854
8.4057986
8.4094579
8.4165791
8.3999087
8.252771
8.4632922
11.506066
13.246741
13.986092
14.248924
14.444126
14.699905
14.946956
15.160333
15.351751
15.482173
15.656079
15.817882
15.935422
16.031089
16.122744
16.208229
16.309356
16.353088
16.420279
16.479822
16.543888
16.594628
16.673153
16.743706
16.778445
16.788761
16.827029
16.878419
16.861165
16.855646
16.877189
16.88429
16.878779
16.896963
16.930484
16.905143
16.882292
16.900197
16.925693
16.91956
16.901262
16.873372
16.894841
16.930253
16.906783
16.877212
16.830598
16.785314
16.754521
16.753048
16.691609
16.659937
16.591037
16.168082
55.222675
55.528917
55.212975
55.0506
54.972242
54.949849
54.935752
54.91527
54.93154
54.979538
54.955728
54.904627
54.873144
54.916402
55.003427
55.123086
55.247028
55.375063
55.418175
55.506269
55.520806
55.429091
55.307082
55.183985
55.218526
55.357425
55.464327
55.609822
55.816426
55.90147
55.97681
56.133132
56.281982
56.263346
56.311172
56.513768
56.690535
56.539467
56.414122
56.529011
56.708302
56.640212
56.338739
56.247007
56.355582
56.297815
56.054275
55.858057
55.960549
56.286379
56.554756
56.536248
56.333789
56.087942
55.972988
57.816689
17.052744
8.4920697
5.0657367
3.3240664
2.2149349
1.6041102
1.3487132
1.219988
1.1376372
1.1031313
1.1074754
1.1675431
1.2441955
1.2710231
1.2672448
1.2457922
1.2597867
1.3706251
1.4835601
1.5137843
1.5456859
1.7255671
1.9781755
2.0191952
1.9754942
1.8238321
62.079712
18.141384
8.8813137
5.3491948
3.5345439
2.391342
1.7349195
1.4436157
1.2970863
1.2007545
1.1503991
1.1497119
1.19409
1.2811291
1.3199003
1.3284817
1.3156235
1.3247152
1.4191685
1.5456396
1.5869264
1.6169024
1.7743125
2.0463355
2.1012719
2.0754845
1.9679462
66.774113
19.217547
9.2858835
5.6433301
3.7527475
2.5696853
1.8765682
1.5561932
1.3859103
1.2697021
1.2031116
1.1964842
1.2289788
1.3225589
1.3842802
1.4010492
1.3873598
1.3866671
1.4667639
1.6276864
1.6735749
1.6958144
1.8277414
2.1548271
2.2107054
2.1846045
2.1279946
71.252951
20.181381
9.7183244
5.9523374
3.9876415
2.7594577
2.0178889
1.6642484
1.4760849
1.3433251
1.2634417
1.2484847
1.2759374
1.3748762
1.453319
1.471803
1.4519313
1.4458858
1.5068473
1.7000743
1.773888
1.7936087
1.8844283
2.2306204
2.3446561
2.323125
2.3163027
75.123935
21.001246
10.085398
6.1866371
4.1544234
2.9117265
2.1482982
1.7691704
1.5668879
1.4222433
1.32295
1.3002066
1.3305412
1.4393272
1.5320156
1.5566247
1.5329155
1.5126899
1.5563854
1.7557701
1.883509
1.9013689
1.9544165
2.2823345
2.4599573
2.4661368
2.5231844
78.90504
21.842194
10.450291
6.434017
4.3622247
3.0862741
2.2991214
1.8993518
1.6757294
1.5111662
1.395243
1.364876
1.3947029
1.5015764
1.6185538
1.6601472
1.63778
1.5970081
1.6277091
1.8217754
1.9961793
2.003598
2.0409837
2.3387408
2.575161
2.6101485
2.6920336
84.14901
22.835721
10.840789
6.7104817
4.5984487
3.2978553
2.4882594
2.0627835
1.8160642
1.6337379
1.4924807
1.4388839
1.4613067
1.5651493
1.7097414
1.7766007
1.7567007
1.6921471
1.7166769
1.9042049
2.1101346
2.1089983
2.1365851
2.4040824
2.7141422
2.7545038
2.8512908
91.183192
24.141512
11.338949
7.0470425
4.8904994
3.5458704
2.6932704
2.2353123
1.963146
1.7506211
1.5842071
1.5139373
1.53385
1.6447233
1.8016834
1.8843677
1.8715393
1.8037858
1.8194763
1.994915
2.2392612
2.2395657
2.2423533
2.4726572
2.8522832
2.892625
3.0228082
98.877559
25.781584
11.939071
7.4289679
5.2106336
3.8101848
2.9244804
2.4316033
2.1100438
1.8647177
1.6716234
1.5860278
1.603722
1.7194884
1.8987644
2.0043727
2.0054921
1.9348264
1.9309958
2.0863655
2.3794892
2.3992179
2.3757981
2.5591696
2.987361
3.0450365
3.1922862
105.85517
27.270036
12.492865
7.7972234
5.5171856
4.0247539
3.1271999
2.6008765
2.2548953
1.9902707
1.7730706
1.6614527
1.6743655
1.7935419
2.0242573
2.1662282
2.1679057
2.0773443
2.0465548
2.1793915
2.5200579
2.5869651
2.557225
2.6842674
3.1396596
3.2253193
3.3800903
111.12377
28.479913
12.962951
8.057694
5.7105085
4.1901339
3.3193111
2.772173
2.4188816
2.1437734
1.9003496
1.7595228
1.774213
1.9108105
2.1895836
2.3503322
2.3406724
2.2108428
2.1542697
2.2619166
2.6294717
2.7859938
2.7490838
2.8292416
3.2965676
3.4615983
3.6445489
116.05675
29.840783
13.401261
8.2878637
5.9288847
4.4701699
3.6005652
3.025304
2.627102
2.3072224
2.0359741
1.8790013
1.8949112
2.0410215
2.351321
2.523209
2.5057966
2.3419146
2.2554357
2.3570321
2.7428311
2.9613466
2.9083632
2.9536445
3.4434146
3.7053573
3.9627851
124.11865
31.200989
13.904214
8.6175424
6.2366493
4.8111875
3.9201058
3.3164675
2.881921
2.5311807
2.2125452
2.0180408
2.0223978
2.1682864
2.527632
2.7464079
2.7435578
2.5522604
2.3988605
2.5050414
2.910145
3.1489165
3.0796929
3.0864142
3.5357532
3.9684501
4.3197741
135.23483
33.540527
14.558981
8.9899132
6.547844
5.1393715
4.2455871
3.6372539
3.1869994
2.7996497
2.4405759
2.190554
2.1698457
2.3242233
2.732768
3.018461
3.0385823
2.8388446
2.6090677
2.6966824
3.1002597
3.38787
3.3072132
3.2592916
3.6454309
4.2877735
4.6522152
146.93192
36.456644
15.487508
9.5047658
6.9539565
5.5578176
4.6686867
4.0341111
3.545124
3.1018357
2.6593099
2.3516501
2.3171892
2.4722362
2.9181484
3.2785583
3.3450247
3.1683347
2.8532529
2.904123
3.3184569
3.671045
3.5890305
3.4815094
3.849148
4.6202701
5.0200939
156.55143
38.946148
16.386754
9.9839384
7.3335022
5.9531922
5.0450562
4.3813364
3.8420777
3.3391953
2.8507265
2.5171402
2.4645591
2.6193609
3.1111457
3.5589999
3.6802273
3.5289346
3.119587
3.1331205
3.5484879
3.9608397
3.9160838
3.7822568
4.1022111
4.8874831
5.4522499
161.91609
40.537111
16.92115
10.285924
7.6021321
6.2601797
5.375801
4.7024169
4.1401971
3.6090778
3.0709621
2.6999528
2.640866
2.8200996
3.3755031
3.895404
4.0360793
3.8712542
3.3994966
3.3399302
3.7411181
4.2646127
4.3192958
4.1628493
4.3972276
5.2364066
5.9668327
168.31603
41.925915
17.480351
10.650652
7.9543432
6.6401204
5.8107515
5.150152
4.5447855
3.9624484
3.3824047
2.9753744
2.8952025
3.0871825
3.6689211
4.2181136
4.3567716
4.2014506
3.7005222
3.5660143
3.9438355
4.6640268
4.8343943
4.5976247
4.7331619
5.640348
6.5818162
181.26227
45.118275
18.639878
11.274054
8.4350876
7.0895582
6.2800793
5.6213019
5.0306457
4.4563284
3.8258887
3.3547735
3.2204375
3.4044201
4.0046041
4.598717
4.759181
4.5938265
4.0483714
3.846339
4.2709712
5.1911474
5.4299527
5.067327
5.1085308
5.9363161
7.234688
198.37824
50.594053
20.248934
12.024624
8.9336705
7.5163308
6.73222
6.1542627
5.6123721
5.0259157
4.3185851
3.7768429
3.5877665
3.7883747
4.452563
5.1215847
5.3077722
5.1055686
4.5049535
4.2335352
4.6978138
5.6629621
5.9493779
5.5755911
5.463935
6.1891254
7.9127666
214.67683
55.486187
21.874315
12.884586
9.5981527
8.1176847
7.3963075
6.8570166
6.3091235
5.664844
4.8320474
4.1561194
3.9208393
4.1511257
4.8637054
5.6435101
5.8934186
5.7180466
5.1271228
4.7752573
5.1668752
6.0976934
6.4397337
6.1371347
5.8735486
6.6530819
8.5718822
227.93154
57.941887
23.219576
13.7251
10.294293
8.7770853
8.042118
7.472017
6.8827899
6.2125735
5.3086404
4.6022939
4.318354
4.5073665
5.1737323
6.0353923
6.3945853
6.3697847
5.8995133
5.4105526
5.7023505
6.6796031
7.1357215
6.8112084
6.442958
7.3403624
9.1594327
233.26508
57.979111
23.72227
14.200503
10.756196
9.2232191
8.4593782
7.8794339
7.2999879
6.6537229
5.7529513
5.0660383
4.7681081
4.9393011
5.5845518
6.5367267
7.0349029
7.0989563
6.6600818
6.0397662
6.2893686
7.3216215
7.9447697
7.6692139
7.3163249
8.1537445
9.654642
234.89177
58.299807
24.16025
14.599466
11.216089
9.7038051
8.9473216
8.4130474
7.8932764
7.2581071
6.3265383
5.5929875
5.2630289
5.4531038
6.1484445
7.2459728
7.8171865
7.8841564
7.4422624
6.7114972
6.8781096
7.7868484
8.6492157
8.6760049
8.4370695
8.966738
10.277115
245.83133
61.408364
25.606715
15.537627
12.054999
10.522969
9.7545554
9.2552307
8.7191024
8.0547375
7.1584807
6.3631248
6.0007893
6.1891567
6.8815118
8.0305319
8.4733158
8.4797748
8.1497815
7.5164853
7.5450508
8.1992771
9.2757542
9.7025894
9.6144607
9.8979867
11.179081
267.22951
70.895239
28.703027
17.11755
13.074164
11.343604
10.508184
10.059486
9.6183723
9.0480906
8.2307113
7.3881496
7.0139791
7.1784883
7.7884583
8.7795765
9.1130805
9.1119637
8.8208171
8.2960241
8.258306
8.8284304
10.091466
10.645655
10.578731
10.853169
12.129082
291.35251
82.241921
32.660928
19.057808
14.19763
12.122917
11.144036
10.68385
10.381877
10.045568
9.3811214
8.6615171
8.2656662
8.3126946
8.8121688
9.6275405
9.8691124
9.8457319
9.6053666
9.0954286
9.0275181
9.6858482
10.952622
11.474793
11.430257
11.721067
12.854087
311.18573
90.570915
35.949505
20.70897
15.265055
12.979079
11.948248
11.525322
11.33607
11.095874
10.460034
9.6726678
9.24082
9.3283823
9.8705362
10.633797
10.810068
10.710867
10.426322
10.054877
10.146439
10.764844
11.650917
12.108464
12.27162
12.56131
13.54041
322.66276
92.164859
37.486949
21.785924
16.179847
13.852113
12.853491
12.427589
12.214351
12.012191
11.386675
10.613625
10.242843
10.337406
10.768597
11.437774
11.63289
11.598178
11.412263
11.330631
11.554652
11.947113
12.249069
12.631379
13.049798
13.509702
14.259414
322.76684
89.706116
37.879313
22.499489
16.962387
14.569209
13.470416
12.943673
12.706169
12.576978
12.197461
11.719782
11.489858
11.481376
11.632147
12.000266
12.165099
12.33757
12.590133
12.93287
13.14728
12.995563
12.884557
13.179425
13.79484
14.46482
15.036282
312.92185
85.722658
37.319843
22.634414
17.138937
14.650072
13.555969
13.138624
13.017474
12.99925
12.951567
12.808613
12.657165
12.586564
12.585618
12.613987
12.63345
12.903251
13.649116
14.429986
14.579657
14.000941
13.632874
13.782375
14.578501
15.35369
15.722153
304.98764
82.507431
36.561907
22.459239
17.039604
14.640274
13.698855
13.41848
13.354813
13.47964
13.600826
13.658885
13.69656
13.655308
13.526838
13.325698
13.226244
13.533995
14.387938
15.467268
15.694448
14.928696
14.361443
14.403024
15.299782
16.206387
16.425465
306.8298
82.162183
36.697263
22.703753
17.197034
14.813085
13.947267
13.722571
13.716937
13.978822
14.350755
14.607941
14.762058
14.701587
14.460548
13.971842
13.752223
13.996158
14.879924
16.197277
16.572411
15.742483
15.026263
15.005206
16.088441
17.127121
17.088742
315.46731
87.487512
38.483451
23.646006
17.763235
15.215714
14.298248
14.083435
14.171643
14.642311
15.323873
15.730083
15.956671
15.866063
15.430561
14.534176
14.083784
14.256865
15.309564
16.944318
17.421116
16.487691
15.473255
15.530754
16.863398
17.993383
17.658996
327.43153
98.984843
42.272924
25.48797
18.675852
15.725403
14.673808
14.451583
14.62561
15.35174
16.481159
17.121648
17.381435
17.17897
16.425878
14.96455
14.284361
14.378835
15.737698
17.828762
18.374791
17.185988
15.78928
15.97069
17.596108
18.769617
18.137096
339.27057
111.92968
47.373698
28.044526
19.947653
16.311349
14.961225
14.76149
15.059036
16.08986
17.635233
18.616366
19.032542
18.755391
17.622832
15.417606
14.534667
14.59018
16.22869
18.660728
19.323263
17.979116
16.120015
16.315597
18.194718
19.455944
18.557115
348.63796
124.07006
53.014537
30.995889
21.536951
17.060121
15.24175
14.913295
15.247486
16.568164
18.874901
20.446612
21.03194
20.512789
18.760719
15.863601
14.852272
14.906047
16.834623
19.579722
20.295816
18.79859
16.479178
16.620284
18.690241
20.060401
18.918066
353.93258
132.50524
57.954119
33.773725
23.074051
17.786201
15.455702
14.935396
15.225948
16.748812
19.84475
22.198354
23.117019
22.379358
19.933993
16.29859
15.167884
15.26608
17.447955
20.357673
21.104335
19.50266
16.869258
16.889276
19.076994
20.65287
19.356446
354.09327
136.42826
61.145047
35.715264
24.222986
18.400981
15.6322
14.92725
15.159738
16.690779
20.593532
23.751935
24.940681
23.93584
20.807254
16.587986
15.442849
15.603542
17.989813
21.027955
21.842118
20.247502
17.39595
17.30394
19.568775
21.324423
19.825296
349.94605
136.64997
62.392976
36.771619
24.939082
18.782334
15.75635
14.943678
15.146382
16.825521
21.353942
25.034606
26.337042
24.918746
21.213646
16.809655
15.717973
15.967159
18.672667
21.727309
22.450303
20.724653
17.764712
17.754401
20.193813
21.954181
20.250738
342.69017
133.69281
61.647249
36.500455
24.764091
18.6836
15.704368
14.953801
15.196503
17.01525
21.881416
25.791186
27.03512
25.244806
21.020571
16.815597
15.911072
16.355934
19.314108
22.089553
22.653955
20.74487
17.866485
17.941779
20.536795
22.237077
20.349273
332.2701
128.57462
59.4887
35.323237
24.08473
18.300738
15.526958
14.906913
15.184429
17.128542
21.873711
25.593767
26.746575
24.915517
20.576186
16.654645
15.879392
16.471393
19.552971
21.94936
22.385462
20.445816
17.735625
17.867813
20.543332
22.012614
20.177827
322.30381
121.64828
55.683578
33.137799
22.825707
17.612104
15.227609
14.793226
15.127704
17.164711
21.522273
24.85236
25.847928
23.945638
19.750876
16.342409
15.68957
16.407037
19.32463
21.435746
21.70776
19.729826
17.318433
17.632492
20.267961
21.498714
19.757732
314.14487
113.53033
50.560978
30.032639
20.97534
16.592398
14.738554
14.52036
14.962093
17.112905
20.816913
23.448288
24.05149
22.159932
18.517534
15.888941
15.37899
16.190562
18.791019
20.470476
20.62594
18.710326
16.740949
17.153252
19.670153
20.628775
19.052593
305.94837
103.88506
44.634153
26.469123
18.91746
15.501667
14.290735
14.262935
14.834278
16.912711
19.444263
21.07117
21.33726
19.742067
17.026708
15.327422
14.982254
15.755249
17.863816
19.01145
19.047455
17.400248
15.979043
16.473764
18.630975
19.352218
18.060785
297.34008
91.644265
37.845272
22.665866
16.917734
14.626681
13.980242
14.059873
14.690594
16.26724
17.595711
18.323802
18.289751
17.164256
15.535827
14.659457
14.476186
15.113398
16.580126
17.282905
17.214939
15.977915
15.172636
15.67003
17.370629
17.843475
16.866366
286.39481
79.322491
31.896493
19.630756
15.454101
13.962744
13.567188
13.662599
14.192713
14.999422
15.538402
15.768232
15.595507
14.967593
14.280867
13.945628
13.904903
14.352239
15.205433
15.594913
15.512477
14.786144
14.451039
14.896155
16.041684
16.289145
15.693302
272.79591
67.340723
27.300139
17.482839
14.358937
13.31165
13.026158
13.039057
13.311041
13.628702
13.758348
13.781742
13.630343
13.394559
13.243285
13.184261
13.250758
13.494057
13.9166
14.15818
14.192209
13.94412
13.836845
14.115802
14.692136
14.93429
14.758399
258.9514
58.329728
24.138662
15.968884
13.554468
12.755898
12.490482
12.413133
12.521927
12.579946
12.547899
12.459344
12.326273
12.29999
12.362972
12.475444
12.586672
12.714079
12.896933
13.105784
13.269975
13.364752
13.316285
13.293184
13.455985
13.771675
14.118205
248.07587
55.790111
22.629131
15.108998
12.961256
12.243609
12.000984
11.913903
11.955044
11.931993
11.837963
11.680995
11.571675
11.588396
11.72845
11.894028
12.01988
12.11913
12.233425
12.413392
12.679695
12.86959
12.825339
12.606586
12.543054
12.824972
13.546146
241.81528
56.939296
22.631702
14.854627
12.626939
11.888152
11.644119
11.565105
11.602696
11.584291
11.492342
11.319502
11.206302
11.203433
11.316818
11.478686
11.596597
11.679434
11.791885
11.954759
12.20728
12.412442
12.39465
12.199597
12.082292
12.270949
13.050578
236.43842
58.591519
22.986114
14.823637
12.442411
11.638102
11.380288
11.317541