/*--------------------------------*- C++ -*----------------------------------*\
| =========                 |                                                 |
| \\      /  F ield         | OpenFOAM: The Open Source CFD Toolbox           |
|  \\    /   O peration     | Version:  2406                                  |
|   \\  /    A nd           | Website:  www.openfoam.com                      |
|    \\/     M anipulation  |                                                 |
\*---------------------------------------------------------------------------*/
FoamFile
{
    version     2.0;
    format      ascii;
    arch        "LSB;label=32;scalar=64";
    class       volScalarField;
    location    "32";
    object      omega_0;
}
// * * * * * * * * * * * * * * * * * * * * * * * * * * * * * * * * * * * * * //

dimensions      [0 0 -1 0 0 0 0];

internalField   nonuniform List<scalar> 
62344
(
4.4084833
3.3132334
2.6087636
2.1692968
1.8816404
1.6757942
1.5179287
1.3895202
1.284812
1.1920177
1.1153212
1.0514522
0.99421507
0.94445383
0.90540683
0.86906977
0.83582155
0.80987557
0.78765884
0.76636235
0.745497
0.72653475
0.71016364
0.69577017
0.6834063
0.67431372
0.66760281
0.65957124
0.64986118
0.63940565
0.63177091
0.62752015
0.62789157
0.62964164
0.63397839
0.64538835
0.66634331
0.70088508
0.73811204
0.79272743
0.84201478
0.88918135
0.92772361
0.99271791
1.0635013
1.1434072
1.2392783
1.3254366
1.4120639
1.4707264
1.5324301
1.5639063
1.6107464
1.6289003
1.6745408
4.4144911
3.3253377
2.6192956
2.1782597
1.8882983
1.6820607
1.5248028
1.3964527
1.2924051
1.1983363
1.1211463
1.0561557
0.99911573
0.94924906
0.91013503
0.87424052
0.84093013
0.81409073
0.79188379
0.77039147
0.74942124
0.73019975
0.71351633
0.69908377
0.68607051
0.67507696
0.66727874
0.66005746
0.65176116
0.64080251
0.6315545
0.62443897
0.62245513
0.62327583
0.62504764
0.63163446
0.64497842
0.66972665
0.70435899
0.75582104
0.81576332
0.87007402
0.91286976
0.97590276
1.0515748
1.1423682
1.2362975
1.3353076
1.4163199
1.5167745
1.5795633
1.6800024
1.7368069
1.8489376
1.8526698
4.4213891
3.3323953
2.6246378
2.1822761
1.8931519
1.6868896
1.530019
1.4015047
1.2971396
1.2029609
1.1250399
1.0611509
1.0037651
0.95351562
0.91369296
0.87737836
0.84396148
0.8164409
0.79509172
0.77276982
0.75147613
0.73317137
0.71683194
0.70255467
0.68941219
0.67752614
0.66870605
0.66185082
0.65529913
0.64557999
0.63566331
0.62698419
0.62395774
0.62343047
0.6238618
0.62726928
0.63493968
0.64774984
0.67567439
0.70243625
0.75125144
0.7993952
0.83826682
0.90236464
0.95697653
1.0502805
1.1430599
1.2639304
1.3571585
1.4789
1.5609561
1.678162
1.7552245
1.8477386
1.9255939
4.4277654
3.3406966
2.6311903
2.187648
1.8988139
1.6925981
1.5348857
1.4063161
1.3024948
1.2092713
1.1291703
1.0660649
1.0083161
0.95794916
0.91777594
0.88179855
0.84839649
0.81985037
0.79655125
0.77569088
0.75556299
0.73755547
0.72061718
0.70565561
0.69225947
0.68027863
0.6704478
0.66315335
0.6580762
0.65146522
0.64243252
0.6326871
0.62743127
0.62509178
0.62503363
0.62725306
0.6312989
0.63858722
0.65925494
0.68223458
0.72442705
0.76387571
0.7939722
0.8555672
0.89377134
0.96264597
1.0075853
1.1065845
1.1730881
1.3025867
1.4130138
1.548389
1.6624906
1.7701578
1.8875164
4.4335769
3.3490776
2.6393738
2.1943665
1.9037963
1.6961572
1.5382502
1.4104523
1.3073693
1.2131947
1.1325566
1.067973
1.0109057
0.96164512
0.91914602
0.88383382
0.85218359
0.8238751
0.80024773
0.78005211
0.75968475
0.74059089
0.72368779
0.7084694
0.69509248
0.68316441
0.67226363
0.66407068
0.65869764
0.65373257
0.64630752
0.6374624
0.63131543
0.62746253
0.62636243
0.62803581
0.63033763
0.63413087
0.64626762
0.66539887
0.70344744
0.73762625
0.78182988
0.82085543
0.87007926
0.92048304
0.97488781
1.0155808
1.0834263
1.1357722
1.2423175
1.3085395
1.4261701
1.499116
1.6665063
4.4374588
3.3584684
2.6484218
2.2006128
1.9091192
1.7009169
1.5430437
1.4153501
1.3117631
1.2171747
1.1367685
1.0724987
1.0155155
0.96476083
0.92271868
0.88756647
0.85543168
0.82730055
0.80312539
0.78170359
0.76134969
0.74247841
0.72726113
0.71267985
0.69913659
0.6862668
0.67439573
0.66516337
0.65896357
0.65506473
0.64942466
0.64183504
0.63518159
0.63025854
0.62874402
0.63015258
0.63201828
0.63462834
0.64311687
0.65852675
0.69002842
0.71493552
0.76491944
0.79968473
0.86230086
0.90389801
0.96908431
1.0019817
1.0677785
1.1103415
1.1912336
1.240206
1.3343838
1.3813008
1.4728818
4.4417629
3.3648231
2.6531702
2.20478
1.9132885
1.7049118
1.5471798
1.4188036
1.3140067
1.2218858
1.1418315
1.0768228
1.0192021
0.96814919
0.92650881
0.891267
0.85728593
0.82961083
0.80616686
0.78298104
0.76327501
0.74524505
0.73000496
0.7161223
0.7025755
0.68917776
0.67722638
0.66742809
0.66053662
0.65667087
0.65141474
0.64442384
0.63769064
0.63249645
0.63117246
0.63253936
0.63433714
0.63672757
0.64344737
0.6549198
0.67773954
0.6980542
0.74162868
0.77388079
0.83991273
0.87796116
0.95249887
0.99037201
1.0619339
1.104499
1.1803433
1.2243787
1.3111914
1.3686607
1.4436185
4.4449654
3.373224
2.6614022
2.2120258
1.9192602
1.7100223
1.5502389
1.4233652
1.3181011
1.2273318
1.1464033
1.0789442
1.0220152
0.97347884
0.930914
0.89375468
0.86170821
0.83437299
0.80991382
0.78853236
0.76895897
0.74980375
0.73272835
0.71792494
0.70460055
0.69200598
0.68060782
0.67052815
0.66318252
0.65896309
0.65396683
0.64781889
0.64065976
0.63470632
0.63336955
0.63461433
0.63601861
0.63847925
0.64461632
0.65315285
0.66882038
0.6839585
0.71748415
0.74491832
0.80001519
0.83327085
0.90315933
0.94944759
1.0268241
1.0736356
1.1459685
1.192187
1.2713883
1.3341479
1.4135884
4.4477885
3.3815158
2.6707577
2.2192771
1.9243941
1.7149004
1.554127
1.4280242
1.3229761
1.2311445
1.1492622
1.0816328
1.0248679
0.97645099
0.93312138
0.89456835
0.86408897
0.8370127
0.81119372
0.79035844
0.77143509
0.75135208
0.7342764
0.71970426
0.70597389
0.69336057
0.6825156
0.67244735
0.66447949
0.65938826
0.6550454
0.65089515
0.64475768
0.63859237
0.63695948
0.63805026
0.63862853
0.64057852
0.64499933
0.65339867
0.66501872
0.67535283
0.69968047
0.72432902
0.77380347
0.802225
0.85373901
0.88675048
0.95328258
0.99726812
1.0604814
1.097143
1.1738696
1.2185572
1.3119388
4.4503255
3.3888971
2.6786639
2.2249124
1.9287945
1.7195998
1.5596067
1.4327617
1.3274022
1.2347485
1.1524652
1.0859492
1.0284592
0.97836899
0.93499334
0.89663829
0.86589155
0.83853901
0.81253704
0.7909143
0.77210593
0.75296567
0.73668026
0.72384008
0.71010805
0.69621716
0.68468813
0.67497049
0.66673068
0.66023829
0.6555061
0.65195573
0.64694319
0.64171845
0.64045458
0.64181254
0.64220172
0.64385668
0.64792881
0.65534939
0.66578594
0.67391999
0.69273696
0.71407908
0.75801002
0.78448281
0.83021472
0.85862467
0.91578236
0.95035172
1.0025491
1.0309259
1.0903989
1.1252569
1.1919455
4.4532516
3.395728
2.6846874
2.2296053
1.9335309
1.7240408
1.5644974
1.4371394
1.3306165
1.2392224
1.1579017
1.091093
1.0327897
0.98142408
0.93823711
0.90143841
0.86837664
0.8399545
0.814898
0.79326552
0.7734821
0.75564219
0.74048759
0.72864572
0.71592273
0.70164935
0.68839869
0.67827474
0.66985288
0.66222261
0.65693356
0.65357355
0.64882084
0.64406344
0.64304632
0.64467806
0.64538351
0.64719447
0.65200463
0.66062953
0.6705244
0.67712686
0.6936251
0.71234554
0.7495211
0.77917579
0.82447604
0.85891744
0.91238506
0.94745337
0.99453058
1.03382
1.0787061
1.1251129
1.1757901
4.4555662
3.4036454
2.6920406
2.2359478
1.9397855
1.729257
1.5675305
1.4423845
1.33462
1.2448546
1.1655476
1.0952907
1.0368673
0.98697567
0.94344257
0.90755109
0.8739874
0.84471223
0.81971966
0.79885157
0.77971601
0.7611333
0.74511346
0.73155538
0.71851285
0.70516159
0.69189018
0.68088533
0.6722584
0.66411021
0.65838448
0.65587042
0.65208628
0.64758043
0.64649426
0.6480679
0.64928822
0.65143479
0.65764544
0.66656846
0.67783536
0.68419091
0.69949289
0.71572289
0.74310244
0.77733399
0.81516699
0.86352823
0.90541517
0.95144696
0.99519787
1.0536993
1.0890675
1.1489484
1.2003082
4.4576738
3.4122189
2.7014293
2.2437179
1.9459678
1.7348716
1.5712004
1.4471031
1.339417
1.2494876
1.1699921
1.0988181
1.039685
0.99091104
0.94728639
0.90972152
0.87691046
0.84861577
0.82310262
0.80174942
0.78256773
0.76385639
0.74729009
0.73299388
0.71933334
0.70603756
0.69341582
0.68248835
0.67381238
0.66548528
0.65911334
0.65643398
0.6545418
0.65181869
0.65100075
0.65224112
0.6534757
0.65577931
0.66245954
0.67073028
0.68308178
0.68995426
0.70419597
0.72126562
0.73968245
0.77453116
0.80677157
0.85823363
0.896164
0.9453689
0.99075498
1.049793
1.0905366
1.1509276
1.2097923
4.4590091
3.4196761
2.7105465
2.2510722
1.9514617
1.739894
1.576358
1.4514702
1.3439572
1.2531082
1.1731596
1.1020018
1.0420094
0.99332885
0.94946383
0.91071562
0.8776803
0.85001152
0.82411482
0.80238275
0.78316552
0.76503787
0.74836425
0.73374465
0.71973288
0.70631995
0.69370678
0.68318532
0.6747061
0.66628717
0.65994733
0.65692213
0.65506919
0.65317088
0.65325344
0.65423842
0.65542765
0.6582603
0.66426748
0.67224931
0.68467498
0.69187388
0.70611997
0.7202709
0.74029592
0.76313787
0.79682411
0.83803639
0.8768057
0.92230853
0.97255629
1.0225118
1.0702036
1.1284795
1.195508
4.4606055
3.4270112
2.7188586
2.2576324
1.9566756
1.7445148
1.5824123
1.4558711
1.3489354
1.2567944
1.1758387
1.1056197
1.0446923
0.9952527
0.95143396
0.91199404
0.87790377
0.85006997
0.82453703
0.80225272
0.78279917
0.76510236
0.74901329
0.7349082
0.72116285
0.70784236
0.69490757
0.68432663
0.67613441
0.6678256
0.66180497
0.65909925
0.6566524
0.65387166
0.6537988
0.65431452
0.65509428
0.65786202
0.66348249
0.67227958
0.68035982
0.69157876
0.70325753
0.71671416
0.73675043
0.75186898
0.78311173
0.81080661
0.85555494
0.88551942
0.93632383
0.96465617
1.0160323
1.0623828
1.1325462
4.4618744
3.4332219
2.7256227
2.2634776
1.9622638
1.7497524
1.5882249
1.4610988
1.3545735
1.2620002
1.1804826
1.1113981
1.0495256
0.99860226
0.95507515
0.91533256
0.88077129
0.8516996
0.82710806
0.80450984
0.78401057
0.76651419
0.75165488
0.73877329
0.7255221
0.71228645
0.69924209
0.68796308
0.67940088
0.67117348
0.66579996
0.66362901
0.66045641
0.65647622
0.65579358
0.65573725
0.65591266
0.65825292
0.66357292
0.67155682
0.67808816
0.69015125
0.70025647
0.71735705
0.73207192
0.75105216
0.77192504
0.80145471
0.83397225
0.86765614
0.90426618
0.93392308
0.97340507
1.0178169
1.0611238
4.4635277
3.4406704
2.7328061
2.269975
1.9686742
1.7563725
1.593352
1.4676418
1.3609082
1.2688997
1.1884844
1.119087
1.0567686
1.0049239
0.96187058
0.92195842
0.88808422
0.85809394
0.83377804
0.81193497
0.79104865
0.77366162
0.75990657
0.74767985
0.73454926
0.72113429
0.70861889
0.69707287
0.68773174
0.67968853
0.67480656
0.67301382
0.67003996
0.66594236
0.66493428
0.66456363
0.66427672
0.66618767
0.67121862
0.67833186
0.68424751
0.69603046
0.70669015
0.72567096
0.73833236
0.76013874
0.77633561
0.80751182
0.83549594
0.87288373
0.90404173
0.93889481
0.97515125
1.0174005
1.0502398
4.4646637
3.4467107
2.7394462
2.2766618
1.9749694
1.7639826
1.598069
1.4751574
1.3678471
1.2768226
1.1983109
1.1270716
1.0646556
1.0133547
0.97068429
0.93112695
0.89874589
0.86934048
0.84412968
0.82344844
0.80407245
0.78756103
0.77414004
0.76151468
0.74837094
0.73537493
0.72353588
0.71260786
0.70326493
0.69572203
0.6910555
0.68941802
0.68736191
0.68559289
0.68642474
0.68702575
0.68717681
0.68927543
0.69486918
0.70276446
0.7087448
0.721189
0.73307922
0.75532971
0.76848407
0.79367554
0.80937526
0.84228604
0.86521438
0.90566148
0.93004717
0.9741081
1.0038994
1.0501501
1.0756431
4.4661971
3.4546398
2.7481399
2.2845833
1.9819611
1.7719855
1.6042759
1.4832453
1.3761367
1.2863855
1.2094936
1.1374356
1.0747143
1.0246273
0.98232042
0.94383909
0.91302952
0.88554187
0.85987624
0.83938229
0.82242086
0.80763039
0.79476928
0.78284551
0.77063024
0.75922035
0.74843862
0.73839465
0.72985514
0.72329154
0.71997063
0.71945085
0.71880093
0.71904929
0.72273464
0.72711447
0.73019782
0.73483322
0.74232847
0.7535283
0.76089992
0.77638334
0.79027766
0.81769978
0.83389006
0.86438323
0.88309367
0.91944888
0.94221701
0.98333252
1.0063181
1.0510313
1.0771066
1.1273619
1.1493849
4.467124
3.4605119
2.7563536
2.2932426
1.9906499
1.7816712
1.615579
1.4954336
1.3899022
1.3017721
1.2269203
1.156603
1.0947896
1.0456291
1.0041928
0.96763069
0.93875747
0.91258774
0.88806776
0.86894938
0.85406648
0.84149581
0.83046871
0.82106088
0.81213949
0.80434253
0.79679857
0.79005527
0.78491574
0.78111187
0.77950228
0.78062707
0.78159834
0.78588675
0.79507295
0.80713362
0.81357099
0.82335487
0.83262059
0.8491969
0.85913629
0.87766374
0.89176624
0.91995044
0.93742175
0.97027671
0.99053158
1.0298924
1.0535172
1.0967185
1.1206276
1.1641997
1.1899725
1.247584
1.2663632
4.4690889
3.4715848
2.7716041
2.3099023
2.0091387
1.8024721
1.6406038
1.5219988
1.419266
1.3331753
1.2605035
1.1931787
1.1344261
1.0860366
1.0477897
1.016749
0.99383601
0.97199946
0.9536443
0.94050347
0.93268704
0.92503328
0.91955692
0.91975371
0.92130408
0.92476707
0.93047678
0.93915631
0.94558695
0.94870965
0.95654918
0.96875197
0.97681968
0.99253961
1.0138711
1.0427418
1.0578584
1.0769454
1.0935406
1.1224502
1.1380752
1.1589854
1.1734379
1.1998405
1.2180328
1.2499893
1.2699902
1.3083056
1.3331492
1.3756621
1.399244
1.4348606
1.4527661
1.505994
1.5023286
4.4726572
3.4913259
2.8060858
2.3517182
2.0554675
1.8505091
1.6904445
1.5725057
1.4736872
1.392349
1.3273812
1.273387
1.2333314
1.194151
1.1730855
1.1656427
1.1662919
1.1683715
1.1721914
1.1839892
1.2099683
1.226754
1.2412623
1.2644815
1.2987089
1.3285359
1.3600668
1.4008463
1.4331108
1.4536902
1.4852834
1.5206194
1.5423721
1.5654742
1.6016053
1.6495241
1.6814914
1.7094535
1.7403108
1.7832233
1.8120824
1.833603
1.8498683
1.8736262
1.8933303
1.9199415
1.9356568
1.9650747
1.9899849
2.0284376
2.0528332
2.0804092
2.0877264
2.1163635
2.0830771
4.4996193
3.5704022
2.9133718
2.4541256
2.1543183
1.9561278
1.8126997
1.7184512
1.6452377
1.5940131
1.5772632
1.583352
1.6029934
1.6309422
1.6758921
1.7334335
1.7947431
1.8378267
1.890167
1.9500843
2.0288846
2.0805846
2.1253052
2.1843865
2.2506762
2.3075372
2.3633572
2.4362365
2.4986386
2.5422902
2.5899489
2.6502568
2.6952478
2.7193276
2.7601408
2.8124932
2.8560591
2.8880589
2.9247218
2.9735341
3.0163631
3.0373392
3.0578683
3.0829968
3.1093283
3.1252178
3.1293124
3.1355436
3.1556208
3.1770143
3.2062418
3.2232164
3.2296182
3.2387095
3.183591
4.5643366
3.7548855
3.2190916
2.8472207
2.6229271
2.5020868
2.4774876
2.4944994
2.5308707
2.5949488
2.7009948
2.8239388
2.9581079
3.0755597
3.2005167
3.3206983
3.4331622
3.5273668
3.6175446
3.7032308
3.8118339
3.8962529
3.9649953
4.0450667
4.1202763
4.1855496
4.2431596
4.3242356
4.3884308
4.4340644
4.4691897
4.524501
4.5703034
4.5933149
4.6201483
4.6528295
4.6738111
4.6927612
4.7171637
4.7582423
4.7972379
4.8138553
4.8305148
4.8581959
4.8861271
4.8980041
4.894203
4.88515
4.8965512
4.9076684
4.9411206
4.9575459
4.9751871
4.9767465
4.8922395
4.7563625
4.789287
5.1366038
5.294594
5.3428408
5.3925805
5.5080976
5.6949032
5.8574043
6.018155
6.1814545
6.3569106
6.5237786
6.6577677
6.7898121
6.9088903
7.0199265
7.1293619
7.2255357
7.3064234
7.4328695
7.5427035
7.6549063
7.77946
7.9057833
8.0154364
8.0952334
8.1968342
8.260563
8.2997193
8.3123713
8.3422594
8.3679832
8.3736236
8.3813911
8.390028
8.3864108
8.3765298
8.3815976
8.3961145
8.4096473
8.4109668
8.4067196
8.4239841
8.4424774
8.4478777
8.4391847
8.4140728
8.400657
8.3857354
8.4001292
8.403497
8.4151089
8.4011433
8.2551764
8.4595593
11.508457
13.249922
13.986525
14.247294
14.4421
14.698504
14.945836
15.159547
15.349515
15.481599
15.653036
15.816558
15.932815
16.030741
16.121759
16.205765
16.310444
16.352789
16.420522
16.480645
16.543623
16.593072
16.671552
16.744375
16.778742
16.790742
16.821882
16.876132
16.861774
16.854161
16.874725
16.886518
16.880763
16.892578
16.928478
16.906844
16.885407
16.898045
16.91849
16.924283
16.903974
16.874812
16.895714
16.927005
16.907084
16.879907
16.836498
16.794234
16.749078
16.74545
16.683926
16.653277
16.586621
16.164157
55.216638
55.521453
55.206445
55.04585
54.967503
54.943128
54.929138
54.909541
54.925383
54.974827
54.956464
54.904775
54.872466
54.910947
55.00051
55.117011
55.239925
55.374892
55.415623
55.507019
55.526777
55.441262
55.323807
55.193476
55.214507
55.351366
55.46349
55.597217
55.807803
55.910829
55.971673
56.123311
56.290813
56.282586
56.301834
56.491403
56.69962
56.587818
56.421506
56.497532
56.704893
56.701082
56.392506
56.243023
56.335326
56.332386
56.134557
55.882759
55.916875
56.192053
56.503536
56.553935
56.408557
56.161262
55.994365
57.749009
17.052199
8.4943775
5.0660251
3.3225931
2.2135424
1.6037109
1.3488187
1.219794
1.1370705
1.1028912
1.1081449
1.1687792
1.2453778
1.2720293
1.2683505
1.2462054
1.2588062
1.3698075
1.4836139
1.5136894
1.5456971
1.7269096
1.9770283
2.021582
1.9791102
1.8265136
61.920884
18.126952
8.878138
5.346129
3.5310961
2.3883474
1.7329201
1.4421417
1.2964717
1.2011154
1.1514182
1.1508287
1.1953292
1.2826578
1.3215927
1.3292476
1.314927
1.3245743
1.4209718
1.5472775
1.5877605
1.6169773
1.7720012
2.0447328
2.1028861
2.078119
1.9719302
66.660449
19.195717
9.2783086
5.6376742
3.7488338
2.5673313
1.8759828
1.5569177
1.3877558
1.2714922
1.2043676
1.1974335
1.2301619
1.3236794
1.3845839
1.4006699
1.3870829
1.3879294
1.4689935
1.6306154
1.6764489
1.6959094
1.8266633
2.155279
2.2099712
2.1854335
2.1261611
71.291365
20.167914
9.7090119
5.9501885
3.989648
2.7635246
2.0220071
1.6676927
1.4786214
1.345039
1.2648013
1.2498156
1.2767856
1.3747003
1.4527516
1.4718374
1.4536836
1.447865
1.5091314
1.7026753
1.7743556
1.7925792
1.8865629
2.2344012
2.3458203
2.3217908
2.3092919
75.376276
21.022206
10.092093
6.1955904
4.1618518
2.9169148
2.1510399
1.7700049
1.5668414
1.4220408
1.3231351
1.3002289
1.3296447
1.4381515
1.5326228
1.5594044
1.5358513
1.5150609
1.5586699
1.7562798
1.8824385
1.9020879
1.9578073
2.2873888
2.4649271
2.462897
2.5203255
79.049224
21.8721
10.460695
6.4411083
4.365867
3.0869528
2.2981921
1.8977439
1.6740434
1.5095474
1.3930386
1.3620801
1.3922434
1.5002009
1.6187426
1.661054
1.6390234
1.5991432
1.6287335
1.8204247
1.9971493
2.0073951
2.0445459
2.3439609
2.5760263
2.6062868
2.6974991
83.997879
22.825299
10.841647
6.710102
4.5965419
3.2945519
2.4859706
2.0615276
1.8145689
1.6312321
1.4897568
1.4369292
1.4601174
1.5638898
1.7086977
1.7760653
1.7553158
1.6908473
1.7145073
1.9034883
2.1130825
2.1122018
2.1407848
2.4070721
2.7110748
2.7563757
2.8566907
90.814795
24.067568
11.325292
7.0381501
4.8828239
3.5387358
2.6873286
2.2297115
1.9587766
1.7485817
1.5846807
1.5159429
1.535917
1.6466917
1.8035763
1.885509
1.8704233
1.8003645
1.8163758
1.9928047
2.2388192
2.2402702
2.2452011
2.4708278
2.8526626
2.8997103
3.0291009
98.627924
25.707742
11.921298
7.4171275
5.1989585
3.8013749
2.9185822
2.4287795
2.1106527
1.8673298
1.6746715
1.5887675
1.6066285
1.7236569
1.9019686
2.0047197
2.0041694
1.9345672
1.9322681
2.0861956
2.3787778
2.3959089
2.3721633
2.5553698
2.9915431
3.0513611
3.2035847
105.98583
27.305665
12.484454
7.793821
5.5179305
4.0307986
3.1354448
2.6091842
2.2625241
1.9963922
1.7773689
1.6646506
1.676518
1.7934511
2.0227603
2.1647564
2.1685318
2.0802622
2.0513205
2.1853189
2.5251425
2.5864394
2.5509764
2.6797043
3.1373399
3.228966
3.3863731
111.79259
28.588565
12.989859
8.0807996
5.7293178
4.2053697
3.3301977
2.778874
2.4225976
2.1461597
1.9026634
1.7610536
1.773736
1.907663
2.1867878
2.3526281
2.3464142
2.2165759
2.158834
2.2670372
2.6323441
2.7834923
2.7492964
2.8302822
3.2958848
3.4582465
3.6354286
116.39438
29.945786
13.43013
8.3019408
5.9365072
4.4740102
3.6005551
3.0233339
2.6244583
2.3048262
2.0331561
1.8752419
1.8904346
2.037198
2.3506206
2.5268409
2.5103407
2.3476853
2.2605976
2.3580871
2.7420007
2.9620475
2.9138342
2.9623017
3.4526892
3.7038173
3.941719
123.79451
31.166074
13.892624
8.6124816
6.2344029
4.8085974
3.9176152
3.3135592
2.8772613
2.5244627
2.2053605
2.0118501
2.0181705
2.1634591
2.5219761
2.7409439
2.7404776
2.5520417
2.3987563
2.5009945
2.9074686
3.1571902
3.0913491
3.0962595
3.5462379
3.9609922
4.3130045
134.57585
33.388419
14.524831
8.9755325
6.5381639
5.1294243
4.2345832
3.6263789
3.1782855
2.7949232
2.4401063
2.1925535
2.1706201
2.3224161
2.7299048
3.0145533
3.0347435
2.8320423
2.6007707
2.6885897
3.0965894
3.3913298
3.3164986
3.2692795
3.6421855
4.2774481
4.6709969
146.53947
36.349579
15.458107
9.4830911
6.9321588
5.5388431
4.6551044
4.0284828
3.5469749
3.1084953
2.6671103
2.3587925
2.3234551
2.4819059
2.9317962
3.2873118
3.3447829
3.1606715
2.8456842
2.8979869
3.3084561
3.6617607
3.585245
3.48038
3.8335405
4.6242071
5.0454525
157.15484
39.152222
16.416218
9.9916926
7.3401531
5.96601
5.0642795
4.4032465
3.8630944
3.3569451
2.8633706
2.5255185
2.4720624
2.6272273
3.1158955
3.5540096
3.6737982
3.5283113
3.124489
3.1356131
3.5469516
3.952026
3.9007291
3.7614284
4.0854815
4.8946172
5.4691676
163.45581
40.882776
17.018899
10.338542
7.6378827
6.2877808
5.398449
4.7195295
4.1523579
3.6179128
3.0779031
2.7066815
2.6458083
2.8176301
3.3628477
3.884133
4.0350417
3.8812382
3.4129503
3.3516499
3.7610544
4.2753102
4.3087527
4.1427625
4.3784792
5.2152052
5.9743239
168.52903
42.094304
17.514141
10.661592
7.9538064
6.6336952
5.8020208
5.139693
4.5341234
3.9543665
3.37707
2.9700438
2.8867673
3.0745448
3.6554171
4.2204179
4.3748944
4.2251755
3.7187588
3.5786102
3.9527185
4.6599393
4.826297
4.6034318
4.7298256
5.62258
6.5759255
180.08803
44.717297
18.55007
11.241897
8.4250014
7.0859062
6.2753868
5.6117318
5.0150527
4.4335163
3.7997523
3.3309639
3.2015676
3.3890116
3.9886456
4.5900439
4.75544
4.5996288
4.0630298
3.8556429
4.2560453
5.1704776
5.4319889
5.093333
5.1285972
5.9669054
7.2184235
197.03104
50.174036
20.12793
11.980854
8.918971
7.5083643
6.7210453
6.1361886
5.5877627
4.9998405
4.2993229
3.767535
3.5817405
3.7740952
4.4286704
5.0948673
5.2800568
5.087508
4.4966703
4.2168043
4.6668508
5.657255
5.9856492
5.6134756
5.4930671
6.211847
7.8736838
213.7394
55.183666
21.792619
12.847878
9.5669367
8.0834744
7.3594242
6.8240346
6.2861173
5.6556696
4.8342731
4.165997
3.9341199
4.167085
4.8822986
5.6491105
5.8812661
5.6886204
5.0904938
4.7374036
5.133814
6.0824679
6.4541152
6.1739284
5.8946503
6.6083795
8.5057736
228.69168
58.46378
23.293039
13.732262
10.279084
8.767082
8.0457541
7.4924895
6.9167672
6.255554
5.3478722
4.6249648
4.3341078
4.5288446
5.213158
6.0747693
6.4099222
6.3524192
5.8608559
5.3800967
5.6681836
6.6275035
7.0907033
6.8155092
6.4270382
7.2494157
9.1352475
236.56015
59.04165
24.00693
14.323967
10.828234
9.2802396
8.511442
7.9319784
7.352485
6.7052588
5.7935263
5.0939884
4.7917226
4.9638016
5.6035338
6.5307003
7.0018877
7.0727148
6.6633086
6.055304
6.2824727
7.283506
7.8907861
7.615439
7.2295124
8.0873673
9.6789824
236.97246
59.135252
24.38393
14.683355
11.247886
9.7171579
8.9572183
8.4268462
7.9138813
7.2826257
6.3486753
5.6137621
5.2789469
5.4531148
6.1250688
7.2048727
7.7977326
7.8886299
7.4636058
6.7403224
6.9137266
7.8381733
8.6357974
8.5710798
8.3167029
8.9221693
10.253673
244.41824
60.807382
25.420153
15.459858
12.013588
10.486462
9.715888
9.2109896
8.6761106
8.0223114
7.1360318
6.3454054
5.9774146
6.1488596
6.820668
7.9906238
8.4952252
8.5323317
8.2069586
7.5521712
7.5744024
8.2531232
9.2757859
9.6217388
9.5400951
9.8459923
11.088548
263.59326
68.84179
28.207988
16.934877
13.013822
11.328713
10.509177
10.051521
9.5809016
8.9730381
8.1275584
7.2814025
6.915578
7.1024243
7.7345675
8.7645787
9.1277267
9.1388026
8.869147
8.350643
8.2948315
8.8016842
10.012793
10.627329
10.616451
10.821674
12.076014
288.23109
80.698025
32.18149
18.872008
14.125746
12.094337
11.129815
10.665924
10.340828
9.966175
9.2773942
8.5679587
8.1964045
8.2526834
8.7398735
9.5720178
9.8354185
9.8348489
9.6269154
9.1218126
9.0157211
9.5958275
10.864227
11.494854
11.509052
11.773227
12.888658
309.57592
90.282728
35.759234
20.631919
15.218832
12.930844
11.877617
11.429403
11.226181
10.997693
10.413795
9.6827939
9.2747898
9.3358831
9.8361069
10.564321
10.730581
10.653387
10.398081
10.003498
10.036511
10.638379
11.623989
12.167658
12.329518
12.644358
13.617628
323.54711
93.516294
37.721651
21.851363
16.155571
13.789611
12.771897
12.358569
12.17863
12.019358
11.427268
10.650422
10.266955
10.369092
10.824798
11.467456
11.602928
11.503798
11.265623
11.146027
11.373054
11.866463
12.275992
12.68086
13.120507
13.588258
14.301888
327.83288
92.308261
38.623345
22.765764
17.0512
14.606313
13.508318
12.995513
12.774083
12.659946
12.279638
11.77738
11.534718
11.524334
11.695706
12.074992
12.217373
12.290536
12.373955
12.64498
12.97173
12.979668
12.901156
13.210801
13.871488
14.530743
15.054422
321.10865
88.921574
38.446507
23.130801
17.425137
14.834473
13.672262
13.218671
13.091763
13.083152
13.034593
12.890405
12.740937
12.667364
12.655383
12.666043
12.647599
12.874121
13.51439
14.250192
14.485045
13.982517
13.618438
13.784103
14.62707
15.386476
15.747734
310.59461
85.00037
37.472541
22.86908
17.258786
14.751521
13.756169
13.462603
13.40953
13.549882
13.68579
13.751646
13.792332
13.742403
13.592136
13.342114
13.179785
13.463449
14.352143
15.501068
15.724823
14.886902
14.305162
14.369635
15.272632
16.16685
16.457155
306.4078
82.771014
36.877881
22.741483
17.184999
14.788646
13.929306
13.723008
13.742188
14.02465
14.410071
14.674005
14.826849
14.749166
14.474651
13.931901
13.680644
13.953648
14.88104
16.285124
16.666562
15.729676
14.949891
14.890738
15.956574
17.040246
17.120874
310.55645
84.276202
37.634336
23.256243
17.561743
15.107848
14.23424
14.037614
14.140396
14.635548
15.318508
15.71399
15.935006
15.823638
15.366399
14.477647
14.034518
14.247794
15.27659
16.977734
17.504638
16.504912
15.41342
15.337934
16.615533
17.877568
17.713524
319.18112
92.475569
40.336021
24.61002
18.255351
15.545172
14.597657
14.382389
14.550605
15.279997
16.367772
16.971116
17.213001
17.013248
16.313628
14.941633
14.268404
14.375235
15.645554
17.798683
18.416883
17.200845
15.76479
15.787324
17.304146
18.633618
18.203945
330.23299
104.60967
44.824406
26.831169
19.327979
16.05134
14.900598
14.73462
15.012608
15.983745
17.385567
18.260992
18.648151
18.440377
17.509288
15.493549
14.560329
14.57822
16.109104
18.640075
19.371095
17.996748
16.123825
16.196208
17.942862
19.311841
18.613406
340.73115
118.00909
50.451821
29.673822
20.76591
16.678525
15.143795
14.925536
15.286889
16.546719
18.564381
19.870989
20.396424
20.06617
18.697902
16.017167
14.896074
14.882875
16.700617
19.592235
20.389332
18.844438
16.498339
16.571351
18.526559
19.928499
18.934906
347.56165
128.16426
55.741975
32.531134
22.273192
17.321968
15.294543
14.938903
15.310162
16.86602
19.600023
21.526808
22.311473
21.853335
19.951524
16.519534
15.222569
15.229445
17.322345
20.413649
21.244085
19.590562
16.902029
16.896517
19.020414
20.547281
19.334081
349.81981
134.12646
59.560042
34.723918
23.528821
17.947978
15.440651
14.91158
15.237976
16.889989
20.45585
23.088225
24.096005
23.455941
20.967253
16.837171
15.495107
15.571711
17.902322
21.120179
22.009903
20.365334
17.439692
17.337652
19.581514
21.267842
19.782755
346.58325
135.44132
61.238136
36.006033
24.382475
18.398127
15.578497
14.923301
15.216119
17.066333
21.304617
24.468633
25.605625
24.571761
21.458727
17.035025
15.770863
15.944122
18.622622
21.844579
22.627846
20.841931
17.807457
17.796011
20.246411
21.951065
20.217997
340.26402
133.34576
60.891258
35.959971
24.357473
18.404417
15.577686
14.95397
15.269777
17.251892
21.881118
25.334286
26.463178
25.042117
21.300722
16.984559
15.95821
16.329718
19.289042
22.200419
22.813316
20.869157
17.902049
17.976868
20.619248
22.303394
20.333687
330.46153
128.73183
58.96131
34.920654
23.786037
18.102002
15.449668
14.919923
15.253053
17.343756
21.896564
25.272435
26.331801
24.784579
20.824167
16.781794
15.923756
16.443134
19.533726
22.043086
22.514714
20.565543
17.757742
17.903958
20.648373
22.098601
20.174811
321.19073
122.02584
55.304683
32.84728
22.616248
17.481584
15.189339
14.816308
15.195898
17.349703
21.54072
24.59788
25.524967
23.859183
19.955559
16.444387
15.726127
16.379935
19.308756
21.516787
21.819041
19.833764
17.336378
17.663966
20.359723
21.584924
19.7571
313.13948
113.5389
50.119553
29.741733
20.78879
16.493546
14.726768
14.550856
15.037976
17.262333
20.798094
23.204023
23.77332
22.086585
18.66582
15.97222
15.410297
16.165587
18.783626
20.54638
20.721035
18.788009
16.753125
17.16703
19.721317
20.687423
19.050262
304.39545
103.0062
44.002763
26.127347
18.732366
15.428033
14.303495
14.304408
14.926173
17.01063
19.353765
20.792702
21.049015
19.635759
17.105556
15.392343
15.012295
15.74379
17.867942
19.075952
19.116171
17.444249
15.990611
16.470264
18.623334
19.347711
18.053993
294.8775
89.726117
37.054768
22.310437
16.759813
14.58812
14.005984
14.109203
14.775292
16.270046
17.434375
18.02759
18.000684
17.013636
15.533467
14.69026
14.499114
15.111805
16.589417
17.339322
17.263892
16.0034
15.187886
15.641347
17.275894
17.774007
16.86212
283.15783
76.698286
31.10832
19.329324
15.344322
13.943732
13.58511
13.685487
14.207105
14.927369
15.358028
15.518708
15.354357
14.80688
14.218376
13.932174
13.918632
14.360674
15.222403
15.638055
15.548467
14.816252
14.466897
14.846135
15.8866
16.181
15.682574
269.83119
65.144093
26.776853
17.289021
14.284067
13.287488
13.016385
13.016787
13.27829
13.549575
13.636647
13.629941
13.471856
13.262363
13.153685
13.13769
13.238791
13.503587
13.939413
14.195315
14.228186
13.987029
13.853455
14.028953
14.514863
14.830491
14.746111
257.56343
57.768233
23.975869
15.884399
13.498028
12.707789
12.445648
12.368686
12.481787
12.538077
12.501516
12.405979
12.263022
12.232922
12.295681
12.415414
12.544858
12.701286
12.912168
13.14299
13.315352
13.400749
13.318765
13.221654
13.323315
13.662375
14.086298
248.86252
56.39886
22.759961
15.112039
12.923985
12.195084
11.957494
11.882323
11.939531
11.929449
11.846238
11.692492
11.579052
11.584472
11.706911
11.856768
11.970622
12.075128
12.217111
12.428678
12.709421
12.88301
12.808914
12.577561
12.49477
12.745699
13.478869
244.16648
57.978844
22.893207
14.909276
12.616905
11.862359
11.624643
11.557247
11.615424
11.612225
11.532885
11.36666
11.250616
11.240536
11.33679
11.478383
11.570992
11.634355
11.743022
11.912995
12.171335
12.390644
12.383068
12.205148
12.092421
12.258364
13.004481
238.90025
59.694566
23.27115