/*--------------------------------*- C++ -*----------------------------------*\
| =========                 |                                                 |
| \\      /  F ield         | OpenFOAM: The Open Source CFD Toolbox           |
|  \\    /   O peration     | Version:  2406                                  |
|   \\  /    A nd           | Website:  www.openfoam.com                      |
|    \\/     M anipulation  |                                                 |
\*---------------------------------------------------------------------------*/
FoamFile
{
    version     2.0;
    format      ascii;
    arch        "LSB;label=32;scalar=64";
    class       volScalarField;
    location    "32";
    object      p;
}
// * * * * * * * * * * * * * * * * * * * * * * * * * * * * * * * * * * * * * //

dimensions      [1 -1 -2 0 0 0 0];

internalField   nonuniform List<scalar> 
62344
(
1.0084817
1.0123779
1.0141682
1.01844
1.0218974
1.0219357
1.0204482
1.0186061
1.0163303
1.0148504
1.0153699
1.0166504
1.0170747
1.0133585
1.0089839
1.0060228
1.0013551
0.99863757
0.99918672
0.99983228
0.99975014
0.99942968
1.0011826
1.0033407
1.0005139
0.99291943
0.99198811
0.98768007
0.98536444
0.98013592
0.98273554
0.97920624
0.98529261
0.98570403
0.97483469
0.97869521
0.98983698
0.98294154
0.96248111
0.95939787
0.97694861
0.99289446
0.98487381
0.95925746
0.94837093
0.9609321
0.98399486
1.0000377
0.98776789
0.96126387
0.95362415
0.9718396
0.99892003
1.0083092
0.99022192
1.0084053
1.0122198
1.0139749
1.0188652
1.0216199
1.022723
1.0206144
1.0186235
1.0174981
1.0148183
1.0161467
1.0166651
1.0185767
1.0143663
1.0106725
1.0059395
1.0023068
1.0006105
0.99890494
1.0005466
1.0011754
1.0018503
1.0018966
1.0038842
1.0031243
0.9957727
0.99316604
0.98785375
0.98647671
0.98174934
0.9847462
0.9781259
0.9829575
0.98405585
0.97766024
0.98149121
0.98809675
0.97872039
0.96689099
0.96978189
0.98125749
0.98305834
0.97435859
0.96437561
0.96089702
0.97114004
0.98208739
0.99010331
0.98676429
0.96670156
0.95206934
0.96020805
0.98539117
1.0123746
1.0168227
1.0083926
1.0122113
1.0137726
1.0183724
1.02165
1.0226744
1.0208752
1.0192464
1.016998
1.0154281
1.0163342
1.0179566
1.0182411
1.0160117
1.0116335
1.0063854
1.0028504
1.0006723
1.0000229
1.0011848
1.0013166
1.0033784
1.00446
1.005056
1.0024266
0.99790796
0.99445636
0.98816029
0.98610247
0.98227842
0.98410727
0.97650144
0.98318484
0.98265887
0.97844114
0.98385774
0.98542712
0.97444335
0.97008706
0.97913265
0.98435294
0.97519399
0.96474496
0.96705149
0.97508582
0.98068118
0.97863059
0.97116166
0.97385146
0.97798663
0.97536291
0.97061807
0.97283494
0.98188523
0.99444928
1.0083545
1.0122396
1.0136689
1.017412
1.0215634
1.0223082
1.0209759
1.0192908
1.0166188
1.0156251
1.0169044
1.0185865
1.0190944
1.01623
1.0121569
1.0077495
1.0035266
1.0009994
1.0007391
1.0021324
1.0023514
1.0039467
1.0062521
1.0076879
1.0029986
0.99872972
0.99541377
0.98945362
0.98670731
0.98403062
0.98329312
0.97766121
0.98429556
0.98096386
0.97819273
0.98561644
0.9854526
0.97221168
0.97130092
0.98487271
0.98974614
0.97358426
0.95829015
0.96533271
0.98336869
0.9881386
0.97938409
0.96265411
0.96101701
0.97758368
0.99444333
0.99359161
0.97844798
0.96281779
0.95940001
1.0082996
1.0121805
1.0135421
1.0168777
1.0212731
1.0219234
1.0209053
1.0191395
1.0171431
1.0154271
1.0170011
1.0185654
1.0199645
1.0165092
1.0125813
1.0087027
1.0044541
1.0019829
1.0009831
1.0020739
1.0038168
1.0052199
1.0075351
1.0095121
1.0046765
0.99980756
0.99529533
0.99091635
0.98741606
0.98579788
0.98170817
0.97800953
0.98427261
0.97945155
0.97688991
0.98598505
0.9863967
0.97268108
0.97166847
0.98639433
0.99149742
0.97521817
0.95857118
0.96333313
0.98322627
0.99211157
0.98077404
0.96451351
0.95926928
0.97220807
0.99307082
1.0008815
0.9888314
0.96561819
0.94962146
1.0082178
1.0119456
1.0133282
1.0169658
1.0210755
1.0215352
1.0206163
1.0190926
1.0173409
1.0154971
1.0165949
1.0188135
1.0199505
1.0170189
1.0130075
1.0090626
1.0054033
1.002641
1.0015334
1.0018204
1.0047147
1.0069331
1.0087223
1.0102187
1.0066482
1.0011614
0.99560505
0.99174436
0.9881906
0.98750146
0.98072118
0.97951132
0.98440765
0.97859213
0.97608299
0.98509754
0.98657714
0.97476605
0.97341462
0.98540244
0.98970152
0.97767031
0.96431943
0.96641455
0.97922078
0.98796472
0.98291556
0.97214322
0.96800322
0.97191021
0.98184667
0.99009222
0.98846032
0.97679094
0.96245816
1.0081288
1.0115876
1.0129865
1.0171352
1.020969
1.0213791
1.0203257
1.0189935
1.0168691
1.0155833
1.0162749
1.0193328
1.0197137
1.0174746
1.0135125
1.0093852
1.0056938
1.0029527
1.0021037
1.0020996
1.0050243
1.0082055
1.0101762
1.0108328
1.0077409
1.0027117
0.99670468
0.99255993
0.98895535
0.98885959
0.98033442
0.98070406
0.9838961
0.97736055
0.97632108
0.98406893
0.9850127
0.97648742
0.97642279
0.98451943
0.98600689
0.97807096
0.97226631
0.97402069
0.97745705
0.97781063
0.9794579
0.98013281
0.98126484
0.98001924
0.97438604
0.97076992
0.9731561
0.97774371
0.9786667
1.0080498
1.0111683
1.0124378
1.0170053
1.0207432
1.0214462
1.020111
1.0188442
1.0164733
1.0154818
1.0163493
1.0195514
1.0198029
1.0178922
1.0139723
1.0099133
1.0057181
1.0033861
1.0023393
1.0028926
1.0051089
1.0087434
1.0114724
1.0118854
1.0084085
1.0037435
0.998384
0.99344407
0.99015385
0.98984583
0.98070845
0.98219857
0.98348307
0.97615459
0.97718369
0.98380608
0.98237524
0.97705305
0.97952744
0.98516463
0.98262049
0.97677595
0.97833418
0.9823482
0.98040033
0.97146056
0.97030749
0.9799253
0.99112085
0.99027239
0.97784544
0.96072392
0.95604729
0.96629968
0.98087517
1.00798
1.0108218
1.0119478
1.0166379
1.0202182
1.0212936
1.0198781
1.0186128
1.0165703
1.0153589
1.0165803
1.0193702
1.0202241
1.0182497
1.0144603
1.0103684
1.0061624
1.0039001
1.0022865
1.0036012
1.0052668
1.0089267
1.0127252
1.0135063
1.0091019
1.0044875
1.000186
0.99431347
0.99187877
0.99030111
0.98134476
0.98344282
0.98350573
0.97483719
0.97781883
0.98445103
0.97975147
0.97623782
0.98178096
0.98712679
0.98106042
0.97485229
0.98018934
0.98849638
0.98534849
0.9725429
0.96410811
0.97331382
0.9904364
0.99657732
0.98483587
0.96443345
0.95087576
0.95541358
0.97229952
1.0079059
1.0106286
1.0115769
1.0159928
1.0196215
1.0211712
1.0197306
1.0183895
1.0167604
1.015234
1.0167293
1.0191093
1.0205716
1.0184379
1.0150615
1.0106904
1.0068436
1.0042443
1.0024131
1.0037522
1.0054684
1.009054
1.013663
1.0151426
1.0100302
1.0053462
1.0015543
0.9950357
0.99375788
0.99048298
0.98230068
0.98443391
0.98348325
0.97419845
0.9779067
0.98504749
0.97819179
0.97441732
0.9831263
0.98896204
0.98159626
0.97331013
0.97914741
0.99095127
0.99024522
0.97721683
0.96578715
0.96841709
0.98300977
0.99401369
0.98929373
0.97388823
0.95905495
0.95541096
0.96444922
1.0078306
1.0105525
1.0113886
1.0154069
1.0191889
1.0208578
1.0197014
1.0182282
1.0167166
1.0151131
1.0167943
1.0190099
1.0208487
1.0186479
1.0154107
1.0109259
1.0073692
1.0043883
1.0028074
1.0034369
1.005735
1.0092665
1.014408
1.0163868
1.0110981
1.0065238
1.0026888
0.99599697
0.99524069
0.99058677
0.9834125
0.9853383
0.98322857
0.97425614
0.9777239
0.98504612
0.97738475
0.97257612
0.983398
0.99032688
0.98311277
0.97294221
0.97755958
0.98975839
0.99284489
0.98296478
0.97258317
0.97128288
0.97672465
0.98342273
0.98626111
0.98057919
0.97100073
0.96517922
0.96511754
1.007767
1.0105382
1.0113129
1.0149548
1.0189546
1.0203188
1.0196171
1.0183408
1.0167383
1.0151005
1.0167476
1.0191411
1.0210781
1.0188401
1.0156921
1.0113007
1.0076247
1.0045273
1.0033835
1.002976
1.0059076
1.0095609
1.0148441
1.0170501
1.0121014
1.0078931
1.0035151
0.99711713
0.99641944
0.99081019
0.98462738
0.98619374
0.98282918
0.97488876
0.97797096
0.98410166
0.97691602
0.97141368
0.9826547
0.99115578
0.98435914
0.97406239
0.97672268
0.98661917
0.99218232
0.98735269
0.98117463
0.97914999
0.97586249
0.97381842
0.97467846
0.97914
0.98011083
0.9772659
0.9738266
1.0077226
1.0105182
1.0112487
1.0146968
1.0189013
1.0199442
1.019468
1.0186168
1.0167046
1.0151419
1.016714
1.0193174
1.0211807
1.0190959
1.0158719
1.0118462
1.007834
1.004774
1.0038191
1.002672
1.005877
1.0099225
1.0150641
1.0174182
1.0130264
1.0092337
1.0040548
0.99837378
0.99732566
0.9910777
0.98601955
0.9870041
0.98229709
0.97571
0.97892811
0.98281392
0.97593558
0.97137382
0.9813703
0.99096486
0.98501563
0.97615889
0.9773032
0.98425344
0.98858149
0.98886284
0.98857266
0.98816852
0.98041951
0.96947289
0.96418196
0.96996841
0.98036698
0.98628358
0.98495492
1.0077034
1.0104476
1.0111866
1.0146061
1.018898
1.0197421
1.0193556
1.0187472
1.0167492
1.0152515
1.0166942
1.0194772
1.0212648
1.0192975
1.0160014
1.0123423
1.008235
1.0051266
1.0040316
1.0026043
1.0057001
1.0102426
1.0152541
1.0175273
1.0139291
1.0102947
1.0043856
0.99969
0.99817187
0.99121844
0.98735845
0.98803041
0.98175967
0.97642801
0.98041897
0.98181378
0.97446048
0.97204806
0.98034735
0.98960815
0.98477126
0.97843727
0.97924943
0.98434537
0.98449198
0.98688515
0.99231734
0.9953295
0.98757642
0.97165627
0.9595175
0.96125745
0.97365026
0.98735197
0.99296247
1.0076995
1.010328
1.0110915
1.0146042
1.018939
1.019751
1.0193138
1.0187518
1.0169256
1.0155153
1.0167329
1.0196592
1.0213768
1.0195882
1.0164717
1.0127359
1.0086311
1.0055605
1.0039487
1.0027777
1.0054001
1.010357
1.0155042
1.0176717
1.0147935
1.0110996
1.0045776
1.000845
0.99896211
0.99138477
0.98840817
0.98912762
0.98143697
0.97695272
0.98188722
0.98125261
0.97304092
0.97240567
0.98070315
0.98726209
0.98350812
0.97982878
0.98245819
0.98619995
0.9827088
0.98276607
0.991551
0.99930128
0.99424124
0.97812076
0.96123217
0.95669545
0.96570667
0.98133457
0.99409108
1.0077081
1.0101908
1.0109553
1.0146391
1.0188944
1.0198484
1.0193128
1.0187059
1.0170858
1.0157516
1.0167793
1.0197832
1.0215523
1.0198364
1.0169876
1.0130275
1.0090242
1.0060963
1.0037688
1.0030559
1.0050431
1.0102366
1.015729
1.0180366
1.0156613
1.0116868
1.0048564
1.0019278
0.99957829
0.99176469
0.98914524
0.99010057
0.98160808
0.9772816
0.98310506
0.9812384
0.97198358
0.97219921
0.98174678
0.98534244
0.98146591
0.97975777
0.98582882
0.98900269
0.98356073
0.97959113
0.98755385
0.9989208
0.99881242
0.98588948
0.96810758
0.95758693
0.96068559
0.97343096
0.98817307
1.0077194
1.0100608
1.010776
1.014676
1.0188079
1.0200055
1.0193498
1.0187298
1.0172037
1.0159846
1.0168619
1.0198363
1.0217958
1.0199923
1.0174875
1.0132903
1.0092418
1.0065774
1.0035788
1.0033683
1.0046661
1.009889
1.0159413
1.0185246
1.0164842
1.0120321
1.0051431
1.00285
1.0002076
0.99244261
0.9897676
0.99075194
0.98222959
0.97750985
0.98373527
0.98162685
0.97144168
0.97172387
0.98224735
0.98446386
0.97934094
0.978498
0.98783173
0.99193401
0.98624893
0.97898269
0.98302908
0.99465209
0.99984552
0.9910649
0.97555794
0.96340809
0.96131064
0.96891464
0.98076279
1.007733
1.0099735
1.0106223
1.0146926
1.0186648
1.0201152
1.0194118
1.0188025
1.0172851
1.0161551
1.016901
1.019904
1.0219734
1.0201968
1.0178793
1.0135761
1.0094536
1.0070236
1.0034607
1.003652
1.0043909
1.0093545
1.0160059
1.0190591
1.0171409
1.0121503
1.0056817
1.0033722
1.0007165
0.99330831
0.99050933
0.99116383
0.98299729
0.97791094
0.98383965
0.98203037
0.97149272
0.97125965
0.98176641
0.98449251
0.9777599
0.97681088
0.98791737
0.9944177
0.98956739
0.98096773
0.98082816
0.9896607
0.9967142
0.99375449
0.9822665
0.9709933
0.96602826
0.96761924
0.97478318
1.007737
1.009918
1.0105312
1.014664
1.0185019
1.0201997
1.0194829
1.0189386
1.0173647
1.0163065
1.0169985
1.0199822
1.0220727
1.0204108
1.0181705
1.0138798
1.0096451
1.0073313
1.0035326
1.003737
1.0042503
1.0087807
1.0158859
1.0196217
1.0176991
1.0123184
1.0063403
1.0038693
1.0011463
0.99418196
0.99120731
0.99142596
0.98392406
0.97874913
0.98353737
0.98217656
0.9720896
0.97134903
0.98052338
0.98450567
0.97695882
0.97552973
0.98665
0.99551242
0.99270929
0.98384333
0.9814832
0.98588572
0.99245817
0.99290773
0.98696593
0.97829535
0.97269898
0.97021652
0.97176473
1.007742
1.0099241
1.0104826
1.014588
1.0184153
1.0202228
1.0195514
1.0191038
1.0175058
1.0164019
1.0171043
1.0200907
1.0221178
1.0206193
1.0183769
1.014194
1.0098515
1.0075047
1.003754
1.0037574
1.0041292
1.0082504
1.0156208
1.0199978
1.018153
1.0125311
1.0071178
1.0042131
1.0014258
0.99512903
0.99190455
0.99143509
0.98479038
0.97996278
0.98309892
0.98183428
0.97294656
0.97211005
0.97924042
0.98341924
0.97681719
0.97518503
0.98457626
0.99487621
0.99465819
0.98683552
0.98403859
0.98461374
0.98824691
0.9897446
0.9884082
0.98403557
0.97931781
0.97556693
0.97223897
1.0077422
1.009972
1.0104833
1.0145244
1.0183813
1.0201983
1.0196244
1.0192639
1.0176518
1.0164501
1.0172082
1.0201795
1.0221534
1.0208492
1.0185845
1.0145058
1.0101114
1.007523
1.0041499
1.0037193
1.0040566
1.0079218
1.015271
1.0201696
1.0185087
1.0128352
1.0080316
1.004609
1.0015033
0.996128
0.99265903
0.9912775
0.98553072
0.98144263
0.98280523
0.98094982
0.97386791
0.97322487
0.97867623
0.98160705
0.97678004
0.97560767
0.98316603
0.99273011
0.99492936
0.98986263
0.98756523
0.98591949
0.98546793
0.985957
0.98692413
0.98706338
0.98550747
0.98191705
0.97561787
1.0077375
1.0100409
1.0105163
1.0144342
1.0183742
1.0201425
1.0196809
1.019389
1.0178015
1.0164658
1.0172784
1.0202328
1.0221922
1.0210451
1.0187444
1.0148065
1.0104169
1.007517
1.0045745
1.0035485
1.0038643
1.0076774
1.0147452
1.0201564
1.0188079
1.0132872
1.0090151
1.0050554
1.0013605
0.99699838
0.99354264
0.99100743
0.98609156
0.98293531
0.98285472
0.97968069
0.97458104
0.97460776
0.97864974
0.97921942
0.97626164
0.97664348
0.98256713
0.99016643
0.99308562
0.99188747
0.99111853
0.98897001
0.98470314
0.98213722
0.98382236
0.98724506
0.98980196
0.98767554
0.98084421
1.0077219
1.0101044
1.010567
1.0143382
1.018396
1.020089
1.0197008
1.0194753
1.0179693
1.0164374
1.0173365
1.0202365
1.0222232
1.0211921
1.0189136
1.0150823
1.0107313
1.0074483
1.0049707
1.0034114
1.0037957
1.0077436
1.0143134
1.0200404
1.0189306
1.013787
1.0100691
1.005645
1.0011631
0.9977287
0.99438999
0.99075864
0.98643084
0.98459768
0.98313152
0.97848038
0.97462999
0.97612101
0.97943915
0.9773702
0.97485866
0.97768025
0.98305706
0.98836267
0.99000944
0.99247816
0.99429952
0.99290022
0.98603833
0.97962052
0.98030433
0.98543311
0.99152702
0.99208663
0.98669053
1.0077171
1.0101652
1.0106131
1.0142546
1.0184328
1.0200423
1.0197121
1.019521
1.0181184
1.0164076
1.0173937
1.0201986
1.0222003
1.0213142
1.0190594
1.0153042
1.0110083
1.0073109
1.0053655
1.0032356
1.0034336
1.0075942
1.0138726
1.0197909
1.0190398
1.0143054
1.0109566
1.0063176
1.001025
0.99803302
0.99520055
0.99060417
0.98650079
0.98564053
0.98383588
0.97765525
0.9742705
0.97689772
0.98005619
0.97602016
0.9730059
0.97765443
0.98394952
0.98732599
0.98647282
0.99139312
0.99629509
0.99682714
0.98888606
0.97896807
0.97692367
0.98251016
0.99075203
0.99464527
0.99177108
1.0076963
1.010207
1.0106257
1.0142037
1.0184717
1.0200144
1.0197139
1.0195447
1.0182537
1.0164023
1.0174542
1.0201368
1.0221599
1.0214515
1.0191993
1.015509
1.0113413
1.0073738
1.0057602
1.0031599
1.003372
1.0075581
1.013434
1.0194589
1.0190327
1.0147576
1.011797
1.0070545
1.0010249
0.99867443
0.99598419
0.99076945
0.98676329
0.98683122
0.98453559
0.97741412
0.97366315
0.97778406
0.98154905
0.97581
0.97151794
0.97697431
0.98507422
0.98726046
0.98403845
0.98862517
0.99680558
1.0002556
0.99237053
0.98008036
0.97425068
0.97915268
0.98828669
0.99551155
0.99542881
1.0077
1.0102327
1.0106567
1.014169
1.0185015
1.0200142
1.0197256
1.0195708
1.0183534
1.0163845
1.0174758
1.0200585
1.0221395
1.0215619
1.0193096
1.0156317
1.0116183
1.0071878
1.0059209
1.0030515
1.003101
1.0074196
1.0132461
1.0193312
1.0190581
1.0150974
1.012284
1.0077905
1.0009078
0.99851975
0.99644167
0.99091981
0.98617467
0.98725504
0.98545376
0.97757458
0.97212075
0.97767836
0.98220165
0.97640001
0.97012911
0.97518077
0.98558246
0.98804416
0.98331519
0.98570894
0.9957
1.0026657
0.99663047
0.98305008
0.97323933
0.9750727
0.98458969
0.99430337
0.9978805
1.0076712
1.0102333
1.0106492
1.0141241
1.0184875
1.0200122
1.0197384
1.019587
1.0184278
1.0163862
1.0174404
1.01995
1.0220875
1.0216492
1.0195282
1.0158633
1.0119235
1.0074842
1.0062361
1.0031715
1.0029731
1.0069997
1.0126317
1.0189009
1.0190949
1.015457
1.013031
1.0085908
1.0016921
0.99909292
0.99706458
0.99188148
0.98667479
0.98768009
0.98627981
0.9789289
0.97237731
0.97732168
0.9820559
0.97766612
0.97084548
0.97312176
0.98410187
0.98776333
0.98333289
0.98397283
0.99282363
1.0016632
0.99905829
0.98738782
0.97591779
0.97458658
0.98122714
0.99042919
0.99674453
0.99496969
0.99152287
0.98611739
0.98007925
0.97446939
0.97046909
0.96922674
0.97110345
0.97632967
0.98452499
0.99293375
0.99743606
0.99551335
0.98722778
0.97646276
0.97009745
0.97263291
0.98275949
0.99418711
0.99417523
0.9777126
0.95680118
0.95100117
0.96886802
0.99386575
0.99417982
0.96850567
0.97393622
0.96758928
0.96259472
0.95937535
0.95831981
0.95993918
0.96433194
0.97146248
0.9801121
0.98678371
0.9884919
0.9843841
0.9758972
0.96649093
0.96225626
0.96727123
0.98129271
0.99714701
1.0028002
0.99392848
0.97790968
0.96978115
0.97796103
0.99335895
0.98703924
0.95772013
0.94887543
0.94920903
0.94429375
0.94420401
0.94649268
0.95080336
0.95709642
0.96440535
0.97045459
0.97323932
0.97129135
0.96511732
0.95623491
0.94853426
0.9464276
0.95242891
0.96667257
0.98341026
0.99177186
0.98674206
0.97467681
0.97072142
0.98465587
1.0085836
1.0153426
0.98588496
0.94769859
0.95425146
0.94193229
0.94274779
0.94893145
0.95459713
0.96020455
0.96403263
0.96460471
0.96178277
0.95589924
0.94734873
0.93912605
0.93367741
0.93358143
0.94058199
0.95383393
0.96732606
0.97348996
0.96865194
0.9575213
0.95180055
0.96225269
0.98885062
1.0127916
1.009043
0.9825043
0.96952998
0.98743565
0.9610817
0.9674825
0.97226138
0.97458001
0.97372636
0.96958766
0.96263958
0.95348297
0.94371597
0.9360087
0.93223138
0.93360399
0.94049663
0.95121858
0.96040678
0.96248535
0.95419199
0.94133839
0.93446523
0.94115104
0.96162522
0.98379966
0.98875517
0.97396149
0.96875918
0.99536352
1.0305263
0.99025383
0.99400317
0.99153014
0.98533196
0.97799879
0.96917449
0.95957696
0.95121326
0.94654398
0.94661597
0.95058457
0.95807728
0.96632174
0.97126597
0.96797565
0.95477865
0.93810116
0.92857582
0.93136327
0.94659673
0.96537867
0.97040139
0.9554441
0.94159542
0.95751137
1.0050907
1.0404238
0.99104934
0.98665526
0.98020279
0.9733605
0.96568131
0.95960104
0.95646166
0.95781636
0.9627018
0.97143834
0.98194465
0.99018652
0.99323586
0.98746454
0.97242217
0.95415889
0.94267636
0.94161779
0.95075868
0.9624062
0.96539344
0.9506132
0.93008744
0.9318839
0.9636108
1.0006682
1.0014864
0.95822009
0.95133747
0.94541826
0.94172863
0.941152
0.94413506
0.9511536
0.96152439
0.97474983
0.98732009
0.99652972
0.99946692
0.99386286
0.98104596
0.96785999
0.96166982
0.96533487
0.97616814
0.98649427
0.98538478
0.96676769
0.9369961
0.92402346
0.94148627
0.97530564
0.98677071
0.94845988
0.92460913
0.9197522
0.92034301
0.92371057
0.93005216
0.93855289
0.94902395
0.95944421
0.96812264
0.97282854
0.97250774
0.96638756
0.95836904
0.9536503
0.95632174
0.96829468
0.98724131
1.0053778
1.0115334
1.0001179
0.97141713
0.94751791
0.9456806
0.963587
0.97817513
0.95785395
0.91588717
0.91825277
0.91994309
0.92809927
0.93510908
0.94311345
0.95041252
0.95424642
0.9535184
0.94843363
0.94068519
0.93155248
0.92395546
0.92156107
0.92671692
0.94178273
0.96286785
0.98309279
0.99642458
0.99607832
0.98264042
0.97177472
0.97434242
0.98997351
0.99764509
0.98030186
0.92981104
0.90967803
0.94911064
0.95671398
0.96237619
0.9648795
0.9643154
0.95988427
0.9524396
0.9426686
0.93293841
0.92315811
0.91485455
0.91318296
0.91743026
0.92813016
0.94117663
0.95119237
0.9553768
0.95224306
0.94318979
0.94285427
0.95898162
0.9905854
1.01986
1.0225377
0.98454234
0.93331903
0.9351079
0.99290206
0.99625826
0.99174001
0.98437657
0.97488219
0.96442557
0.95415579
0.94365205
0.93423884
0.92861228
0.93044065
0.93740705
0.94714455
0.95465
0.955729
0.94766172
0.93110496
0.91160002
0.90236565
0.91246847
0.94109461
0.97908526
1.0045245
0.99917739
0.97370091
0.96666912
0.99244906
0.99097819
0.98658697
0.98099794
0.97490834
0.96859536
0.96274894
0.95748226
0.95521644
0.9584435
0.96548002
0.97383284
0.98169137
0.98776343
0.98360707
0.97008548
0.94948157
0.92715373
0.90836785
0.90686603
0.91950122
0.93891423
0.95173965
0.95162725
0.93719301
0.94442695
0.99460155
1.0519489
0.94923376
0.94347379
0.93890256
0.93653181
0.93767912
0.94269275
0.95265364
0.96715351
0.98346971
0.99848749
1.0102349
1.0145749
1.0081272
0.99346123
0.97436693
0.95509217
0.94050525
0.93971068
0.9483071
0.95998498
0.95813937
0.9378418
0.90509516
0.88916269
0.91942553
0.99296722
1.0509107
0.91229966
0.90877886
0.91057784
0.91627392
0.92585652
0.93828042
0.95216579
0.96558916
0.97758771
0.98560691
0.98866426
0.98498242
0.97765675
0.96981344
0.9631231
0.96215123
0.97202
0.98835865
1.0010034
1.0044335
0.98167252
0.94176453
0.90129706
0.89244457
0.92429081
0.97196101
0.97977045
0.91307593
0.91825432
0.92829248
0.93802185
0.94751101
0.95549981
0.96016223
0.95915448
0.95298689
0.94249163
0.93144527
0.92312254
0.91811697
0.9204342
0.93347538
0.9590561
0.99030141
1.0173748
1.0295444
1.0173753
0.98826737
0.95509531
0.93610851
0.94525208
0.96686473
0.95476258
0.89742575
0.97074021
0.97728768
0.98085812
0.98039318
0.97639212
0.9683584
0.95659224
0.9430107
0.92941364
0.9162143
0.90391564
0.89445665
0.89278735
0.90146914
0.92122252
0.94593367
0.96946892
0.98718329
0.99132177
0.98071166
0.96835455
0.96817749
0.989998
1.0165276
1.0193
0.94826845
0.86443052
1.0230796
1.0251233
1.0176931
1.0065927
0.99239109
0.97629242
0.96039263
0.94507159
0.93053263
0.91805212
0.91071715
0.91265521
0.92202278
0.9349904
0.94491394
0.94788422
0.94161699
0.9284644
0.91429073
0.91061696
0.92631417
0.96764748
1.0239658
1.0593037
1.039193
0.95369904
0.8940409
1.0016039
0.99557764
0.98967216
0.9846406
0.97963931
0.97439522
0.96846703
0.96246822
0.95908423
0.95996503
0.96604324
0.97360459
0.98185656
0.98485727
0.97921471
0.96113237
0.93284316
0.90184437
0.87799776
0.87301654
0.89707092
0.947819
1.0017167
1.028974
1.0005334
0.95997609
0.96458325
0.9405555
0.93500923
0.93213985
0.9307227
0.93171209
0.93658295
0.94663605
0.96270199
0.9840537
1.0072721
1.0278331
1.0409381
1.0409591
1.0274037
1.0026179
0.97053018
0.93962313
0.91179244
0.89647886
0.90211762
0.92037127
0.93922644
0.94629888
0.93537036
0.92242768
0.94903921
1.031205
0.89790508
0.89463439
0.8953668
0.89919708
0.90745096
0.92038327
0.93736838
0.95740482
0.97868384
0.99960361
1.0163262
1.0267449
1.026484
1.0174353
1.0035564
0.985484
0.96602929
0.95454723
0.95783252
0.97048671
0.97614807
0.95460565
0.9090821
0.8617854
0.85807125
0.92723073
1.0477564
0.89092986
0.89503532
0.90557768
0.91769344
0.9311353
0.944636
0.95661828
0.96444827
0.96603684
0.96150958
0.95319883
0.94367311
0.939474
0.94105712
0.94898737
0.96349964
0.98574006
1.0148975
1.0415454
1.0497162
1.0273529
0.97172635
0.90492702
0.85265436
0.85604679
0.92668766
1.022397
0.95221969
0.95958019
0.96695007
0.9720314
0.97423918
0.97206859
0.96513241
0.9532094
0.93848659
0.92170603
0.90365096
0.88781441
0.876077
0.87393277
0.88647093
0.91748378
0.96708023
1.0275179
1.0746991
1.0827572
1.0486006
0.98617801
0.92613468
0.8973064
0.92292338
0.97146541
0.97826436
1.0473674
1.0491924
1.0410497
1.0269407
1.0078608
0.98531779
0.96114118
0.9375115
0.91562711
0.89680104
0.8822723
0.87205648
0.86831734
0.87162009
0.88550831
0.91402097
0.9478587
0.98249713
1.0105522
1.0183387
1.0059328
0.98631276
0.97205632
0.98489433
1.0230186
1.0244057
0.94018421
1.0659428
1.0630207
1.051811
1.0384367
1.0207766
0.99987256
0.9769505
0.95354229
0.93140305
0.91262363
0.90004479
0.89490184
0.89990126
0.9157323
0.93809659
0.95288317
0.9554214
0.94184772
0.91812075
0.90421596
0.9103158
0.94215819
1.0021733
1.0811926
1.1214116
1.0618616
0.92939099
0.99407921
0.98940536
0.9837828
0.9804854
0.9794853
0.97980623
0.97997366
0.97826382
0.97426837
0.97024542
0.96968814
0.97496726
0.98520471
0.99476634
0.99456303
0.98053377
0.95249711
0.91159372
0.8703119
0.84260033
0.84272259
0.89038156
0.99163031
1.1084385
1.1567482
1.073547
0.94153428
0.90712085
0.90348595
0.90381093
0.90686267
0.9128199
0.92275286
0.93812148
0.96048572
0.99000398
1.0240999
1.0583002
1.0844547
1.0925703
1.0769139
1.0388604
0.98724591
0.93438786
0.89053097
0.85705715
0.8359535
0.8428252
0.89292984
0.97522165
1.0573361
1.0930265
1.0410888
0.97134906
0.85352943
0.85177681
0.85518104
0.86232679
0.87440524
0.8924988
0.91788451
0.95157222
0.9925988
1.0384963
1.0816991
1.111746
1.1178216
1.0976735
1.0540432
0.99841868
0.94319839
0.89811217
0.86930774
0.86741899
0.89540795
0.94096669
0.98011181
0.98901867
0.9727997
0.95877568
0.98813014
0.84444531
0.84715185
0.856272
0.86994099
0.88888852
0.91237268
0.94229432
0.97350335
1.000823
1.0206222
1.0305379
1.0330932
1.0323219
1.0271869
1.0162039
0.99680456
0.97031876
0.94166407
0.92754623
0.93837132
0.97111761
1.0009952
0.98530601
0.93012089
0.87807224
0.87994425
0.9644114
0.89277127
0.90084808
0.91340001
0.9294335
0.94803841
0.96635583
0.97902982
0.98299565
0.98006023
0.96948325
0.95349184
0.93660696
0.92505301
0.9237563
0.93425772
0.95495451
0.97714522
0.99773484
1.0213835
1.0475382
1.0622762
1.0376948
0.97225371
0.88948392
0.83436982
0.83599139
0.92397693
0.9980629
1.0027941
1.0071581
1.0092104
1.0063121
0.99686774
0.98051274
0.9583557
0.93252973
0.9074113
0.88615306
0.8701153
0.86017091
0.85979396
0.87222858
0.90188769
0.95537111
1.0296763
1.110001
1.1551598
1.1355583
1.0529253
0.9520728
0.86730082
0.82462441
0.83127068
0.8991845
1.1062524
1.1012916
1.086573
1.0633287
1.0337233
0.99994926
0.9647581
0.93052823
0.89885279
0.8704726
0.84735345
0.83241783
0.82654456
0.83017067
0.84584528
0.88167361
0.94703674
1.0424591
1.1441854
1.1976683
1.1617847
1.058406
0.94933124
0.87096212
0.83862257
0.85418878
0.89791819
1.1517892
1.1415002
1.1176461
1.0837218
1.0427208
0.99918092
0.95753918
0.91980477
0.88679797
0.85931755
0.83800474
0.82460124
0.82133408
0.82951223
0.85148978
0.89333753
0.95662693
1.0344191
1.117188
1.1618331
1.1383723
1.0549307
0.96792893
0.90044267
0.87766136
0.8921636
0.91187834
1.1278005
1.1216547
1.1035355
1.0770858
1.0441969
1.0069169
0.96736413
0.93036789
0.89699655
0.86941485
0.84964673
0.83845495
0.83703205
0.84981601
0.87778559
0.921673
0.97216301
1.0172738
1.0525139
1.0738637
1.073355
1.0448093
0.99868191
0.95333503
0.93501219
0.93677521
0.92709342
1.0650168
1.0611223
1.0546309
1.0449983
1.031044
1.011534
0.98676491
0.95814646
0.92827493
0.90121592
0.88071973
0.86918282
0.86914756
0.88381419
0.91260429
0.94833904
0.97778145
0.99207908
0.99258545
0.99011149
0.99828007
1.0144582
1.0211725
1.0142122
0.99929619
0.97676271
0.93848181
0.98839008
0.98851829
0.99053094
0.99468271
0.99830652
0.99858359
0.99352402
0.98262431
0.9659058
0.94615367
0.92768143
0.91599009
0.91595946
0.92922192
0.95386912
0.97708061
0.98342384
0.97235425
0.94816489
0.92681084
0.9345083
0.97583503
1.0262264
1.058207
1.0519005
1.0087411
0.94340016
0.91479366
0.91803273
0.9250508
0.93628206
0.95026756
0.96573707
0.98063157
0.99123011
0.99563823
0.99315252
0.98537167
0.97802942
0.97789167
0.98703654
1.0003046
1.0034725
0.98887736
0.95831561
0.91762021
0.88495737
0.88480598
0.93152624
1.0093436
1.0778348
1.0889617
1.0390999
0.95478581
0.85863015
0.86263362
0.8709678
0.8842632
0.9028731
0.92654105
0.95455264
0.98286717
1.0093386
1.0301407
1.0426194
1.0476732
1.051059
1.0547119
1.0511792
1.0290768
0.98952181
0.93861611
0.88790949
0.85285122
0.84945233
0.89297733
0.98120351
1.0760519
1.1145683
1.0725347
0.97956415
0.82339154
0.82708459
0.835324
0.84894568
0.86918841
0.89670433
0.93153243
0.97300604
1.0151779
1.0556286
1.0899559
1.1131428
1.1229506
1.1165914
1.0879588
1.0379843
0.97670999
0.91260147
0.86057267
0.82824846
0.82523041
0.866993
0.95854321
1.0715564
1.136824
1.1042747
1.0055186
0.80877015
0.8121107
0.81895791
0.8311247
0.85009591
0.87719722
0.91318287
0.96029562
1.0141475
1.0730122
1.1292676
1.1690963
1.1802862
1.1581176
1.1051105
1.0342477
0.95975375
0.88949701
0.83815358
0.81024891
0.80886823
0.85267289
0.94701443
1.0739968
1.1588366
1.1308489
1.0230891
0.80027315
0.80348934
0.81002854
0.82199366
0.84099375
0.86843017
0.90509488
0.95432155
1.0146586
1.0832672
1.1525581
1.2032938
1.2150352
1.1804743
1.1092218
1.0249595
0.94477242
0.87754044
0.83176971
0.80710203
0.80810652
0.85079113
0.9468206
1.07765
1.1665641
1.138458
1.0218268
0.80231415
0.80521474
0.81109878
0.82202069
0.83966441
0.86599472
0.90204929
0.95060249
1.0127313
1.0852
1.159533
1.2146446
1.226595
1.1866405
1.1089526
1.0213019
0.94003905
0.8758226
0.83316188
0.81036634
0.81209902
0.85707166
0.951113
1.0764253
1.1623535
1.1312786
1.0131854
0.81173123
0.8146119
0.82061415
0.83144551
0.84842562
0.87314545
0.90639768
0.95240886
1.011189
1.0813787
1.1535401
1.2064081
1.2161698
1.1752282
1.1006119
1.0181282
0.94243983
0.8825827
0.84153752
0.81938822
0.82196108
0.86513585
0.95569665
1.0744199
1.1508327
1.1139729
1.0042795
0.83030297
0.83291443
0.83872996
0.8490912
0.86508889
0.88815574
0.9190593
0.96075256
1.0127527
1.07395
1.1346998
1.1769716
1.1827763
1.1479352
1.0857153
1.0154283
0.94891935
0.89408239
0.85417771
0.83097795
0.83280981
0.87452861
0.96011204
1.0686739
1.1357579
1.0980944
1.0000024
0.85991271
0.86214649
0.86775441
0.87757126
0.89203125
0.91137953
0.93763688
0.97087652
1.0117235
1.0578002
1.1009724
1.1289366
1.1319438
1.1086619
1.0648792
1.011043
0.95539854
0.90704377
0.87042437
0.84622953
0.84644891
0.88582328
0.96494168
1.0639421
1.1212608
1.0856286
0.99815097
0.89994821
0.90113585
0.90543972
0.91280868
0.92351796
0.93841789
0.95748419
0.98074412
1.0071105
1.0339214
1.0565235
1.0701114
1.0720721
1.0607927
1.0371173
1.0034183
0.96392896
0.92485805
0.89141189
0.8672656
0.86562416
0.90297386
0.97425795
1.0557952
1.101629
1.0704539
0.99725019
0.94783307
0.94806295
0.94974561
0.9530085
0.95862013
0.96629519
0.97557802
0.98546379
0.99464018
1.0018979
1.0063331
1.0085121
1.0090601
1.0072952
1.0010836
0.98910625
0.9708348
0.94668921
0.92050703
0.90070516
0.89830205
0.93030144
0.98462242
1.0413586
1.0656645
1.0416081
0.99192642
1.0014657
0.99929237
0.99694925
0.99523832
0.9933034
0.99047187
0.98655894
0.98085534
0.97321738
0.9647838
0.95748259
0.95268118
0.95250248
0.95659406
0.96289562
0.96878749