/*--------------------------------*- C++ -*----------------------------------*\
| =========                 |                                                 |
| \\      /  F ield         | OpenFOAM: The Open Source CFD Toolbox           |
|  \\    /   O peration     | Version:  2406                                  |
|   \\  /    A nd           | Website:  www.openfoam.com                      |
|    \\/     M anipulation  |                                                 |
\*---------------------------------------------------------------------------*/
FoamFile
{
    version     2.0;
    format      ascii;
    arch        "LSB;label=32;scalar=64";
    class       volVectorField;
    location    "32";
    object      U_0;
}
// * * * * * * * * * * * * * * * * * * * * * * * * * * * * * * * * * * * * * //

dimensions      [0 1 -1 0 0 0 0];

internalField   nonuniform List<vector> 
62344
(
(0.086103108 0.0006731619 -8.5366767e-22)
(0.083743002 0.00092174159 -4.4422644e-22)
(0.091476304 0.0013891104 -9.2672077e-22)
(0.089912203 0.002595908 4.8023846e-22)
(0.088287302 0.0039707023 0)
(0.088586919 0.0047154135 2.0888439e-21)
(0.089433532 0.0057119269 -2.1756945e-21)
(0.090302135 0.0057254491 1.1299439e-21)
(0.091413586 0.0058895279 0)
(0.091847961 0.0055080174 0)
(0.09085776 0.0061555997 5.0841723e-21)
(0.088820569 0.0071687496 -1.0919705e-20)
(0.087229275 0.008023152 3.5199959e-22)
(0.087584806 0.0081377896 1.1775261e-20)
(0.089039603 0.0074373154 -5.9525537e-21)
(0.090673609 0.0066209582 5.7834881e-21)
(0.091899661 0.0051793287 -6.4407233e-21)
(0.092125485 0.0052263486 0)
(0.090929584 0.0037756106 0)
(0.088870505 0.0041183563 -4.5165652e-22)
(0.086998571 0.0042535108 -2.349933e-22)
(0.085366109 0.0049919303 2.4436961e-22)
(0.083000645 0.0065947926 5.0850471e-22)
(0.080247548 0.0084030531 -1.6921161e-20)
(0.080142548 0.0092945547 1.7592052e-20)
(0.081990878 0.0078191459 0)
(0.082601988 0.006078476 0)
(0.083451588 0.0039747344 -1.5427802e-22)
(0.084302536 0.0027080997 -2.047241e-20)
(0.084491558 0.00072173367 2.154448e-20)
(0.083415552 -5.0053189e-05 2.2334283e-20)
(0.082147917 -0.00090204551 -2.3099165e-20)
(0.078351085 -0.0012686092 -1.8759948e-22)
(0.075176791 -0.0019230109 2.478351e-20)
(0.078452661 -0.0082797387 -2.5778671e-20)
(0.077635643 -0.0097434567 -2.1033173e-22)
(0.071990171 -0.0049286774 -2.8212648e-20)
(0.073416386 -0.0072351462 5.7919249e-20)
(0.083070174 -0.01835973 -6.0294242e-20)
(0.088133413 -0.023503109 -1.3000639e-22)
(0.081804449 -0.016026334 -6.9717573e-22)
(0.072919067 -0.0077997495 6.7795955e-20)
(0.074147969 -0.011705946 -3.5369764e-20)
(0.08605646 -0.02449592 0)
(0.096249024 -0.034379859 -3.8153343e-20)
(0.093942701 -0.032809234 7.8691273e-20)
(0.083192647 -0.023564121 8.8926819e-22)
(0.073757036 -0.017145906 -8.534865e-20)
(0.077896316 -0.02006389 4.4430467e-20)
(0.093143709 -0.030527937 0)
(0.10261274 -0.039837478 0)
(0.095587028 -0.041638737 5.0595992e-20)
(0.079743687 -0.038193857 -5.1758847e-20)
(0.071378801 -0.034666843 -1.0586819e-22)
(0.079575694 -0.035958349 -5.5268179e-20)
(0.087038353 0.00051513594 -4.5058182e-22)
(0.084060251 0.00082753195 4.6903064e-22)
(0.091610601 0.0016171352 1.4666771e-21)
(0.089925187 0.0026263996 -1.5242932e-21)
(0.088257119 0.0037996942 0)
(0.088553801 0.0046184062 2.2055542e-21)
(0.089409054 0.0056621078 -2.8720443e-21)
(0.090434939 0.0061614704 -2.9824394e-21)
(0.091465541 0.0063736775 3.105278e-21)
(0.09185629 0.0067477868 0)
(0.090740966 0.0071344894 0)
(0.088797329 0.0079614013 3.4935747e-22)
(0.087210549 0.008437678 -3.6327115e-22)
(0.087565301 0.0089479074 5.2654264e-21)
(0.088957749 0.0081634696 -6.2876079e-21)
(0.090740814 0.0084562327 0)
(0.091957789 0.0073616973 0)
(0.092115462 0.0070620118 0)
(0.09123349 0.0063680085 7.3345825e-21)
(0.089158116 0.0059116603 2.4671751e-22)
(0.086921419 0.0059205131 6.3049319e-24)
(0.08506199 0.0061708694 -2.5044699e-20)
(0.083020687 0.0082804749 1.6923293e-20)
(0.080587606 0.0095450753 0)
(0.080188236 0.0095936757 1.8502087e-20)
(0.081974205 0.0087853807 -9.7109463e-23)
(0.083041156 0.0088671481 -4.0123149e-20)
(0.083988306 0.0070391313 2.1068825e-20)
(0.084754311 0.0061484986 -1.6936612e-22)
(0.084709375 0.004472277 -2.2680038e-20)
(0.083577481 0.0046429566 2.330103e-20)
(0.08332188 0.0020164862 1.8958521e-22)
(0.080749815 0.00087728166 -2.5197232e-20)
(0.077863727 -0.0011909595 5.2608675e-20)
(0.079430605 -0.0053628199 -2.7375922e-20)
(0.077474071 -0.0040672193 2.2156269e-22)
(0.073691034 -0.0018403476 0)
(0.076484496 -0.007664475 0)
(0.083109728 -0.015065862 1.2462675e-22)
(0.084000721 -0.012349805 3.325547e-20)
(0.079721581 -0.0042397174 -6.887044e-20)
(0.077891165 -0.0038438309 3.6089102e-20)
(0.081225662 -0.014099026 3.6847424e-20)
(0.087262459 -0.023696173 -7.7369785e-20)
(0.091804726 -0.023151182 4.0116406e-20)
(0.090400068 -0.015934855 0)
(0.085389445 -0.010300373 0)
(0.079960459 -0.012211214 0)
(0.079316896 -0.020569173 9.1552507e-23)
(0.089500509 -0.02888896 -9.5548404e-23)
(0.10242858 -0.031475122 0)
(0.10492791 -0.029370996 -2.663113e-25)
(0.093309417 -0.026462692 -1.0643811e-22)
(0.077721668 -0.02502035 1.6853103e-22)
(0.0713859 -0.029172876 -5.7491903e-23)
(0.086682461 0.00059863181 4.7555402e-22)
(0.083674647 0.00077948531 -4.9502227e-22)
(0.09123886 0.0017374358 -5.152021e-22)
(0.089607638 0.0027745555 5.3721816e-22)
(0.0879966 0.0034229955 -5.5974737e-22)
(0.088315383 0.0045523995 5.8247576e-22)
(0.089175993 0.0050904069 1.211722e-21)
(0.090242483 0.0058481589 0)
(0.09133778 0.0062873314 1.963976e-21)
(0.091817406 0.0063037794 -3.0640567e-21)
(0.090742276 0.0067323274 0)
(0.088667862 0.0070836374 -3.6901172e-22)
(0.087011647 0.0084303605 -1.6117568e-25)
(0.087452278 0.0082235328 -3.4543864e-25)
(0.088821462 0.0080991754 6.6169714e-21)
(0.090632747 0.0070122955 -6.4781004e-21)
(0.092221151 0.0065933849 0)
(0.092600686 0.0054911337 0)
(0.091837548 0.0046666478 0)
(0.089819486 0.0041688531 0)
(0.087587785 0.0043961971 0)
(0.085014543 0.0043202001 9.0038737e-21)
(0.082287275 0.0062663707 -9.0726506e-21)
(0.080179102 0.0082580307 -2.9550664e-22)
(0.08017734 0.0083562904 3.0626744e-22)
(0.081710682 0.006925896 0)
(0.083089453 0.0068957357 0)
(0.084536121 0.0049742603 1.7207083e-22)
(0.085488868 0.0040971877 1.7879514e-22)
(0.085543213 0.0023028108 0)
(0.085246764 0.002111765 0)
(0.085437064 -0.0017532392 -2.5827037e-20)
(0.082337039 -0.0010110154 5.3120993e-20)
(0.079982205 -0.0023716682 -2.7780287e-20)
(0.080496765 -0.0060336673 -1.1239574e-22)
(0.077122047 -0.0048293263 3.0062253e-20)
(0.075167608 -0.003539104 -3.1180975e-20)
(0.079643035 -0.0096137917 0)
(0.08321089 -0.015083951 1.2745398e-25)
(0.079775281 -0.011315453 0)
(0.076697611 -0.0045775698 3.6351966e-20)
(0.081001716 -0.0059164488 -3.8066419e-20)
(0.08742268 -0.015051823 -3.9322075e-20)
(0.088305107 -0.021976324 4.0561228e-20)
(0.085210925 -0.018946316 -8.5456979e-25)
(0.083175553 -0.011040821 0)
(0.085152074 -0.0084996089 0)
(0.08900822 -0.013563889 -9.2668224e-23)
(0.088695327 -0.023223861 -4.9972254e-20)
(0.086589542 -0.028364814 5.1213895e-20)
(0.089639668 -0.026105924 0)
(0.096124984 -0.019683042 5.5945443e-20)
(0.098828847 -0.015384195 -5.7464619e-20)
(0.095688282 -0.017168095 6.0105385e-20)
(0.088423827 -0.027433291 -6.2144768e-20)
(0.08659481 0.00055295476 -2.5039803e-22)
(0.08340481 0.00096386944 -7.8339392e-22)
(0.090972305 0.0018492355 1.6324281e-21)
(0.089454059 0.0027773683 -1.1312572e-21)
(0.087829225 0.0033306346 -1.7723601e-21)
(0.08818682 0.004456857 1.8422812e-21)
(0.089130997 0.004952553 -3.1947181e-21)
(0.090113109 0.0055959683 5.3191233e-21)
(0.091318719 0.0062438254 -3.1153875e-21)
(0.091787316 0.0062957358 7.1808413e-22)
(0.090694881 0.0066734501 3.7368334e-22)
(0.088465505 0.0076073603 6.2333217e-21)
(0.086956468 0.0085463407 -5.6605133e-21)
(0.087520676 0.0084027594 7.1375261e-21)
(0.089063977 0.0086943432 -2.9693327e-23)
(0.090845882 0.0071161509 -1.5005408e-20)
(0.092205844 0.0070020674 7.3373102e-21)
(0.092783988 0.0059290136 -2.4514337e-22)
(0.092100828 0.0057466259 8.1634656e-21)
(0.089915241 0.0049749207 -8.2333419e-21)
(0.08764908 0.0050044869 0)
(0.085147164 0.0056523909 0)
(0.082139727 0.0068293056 -9.2917449e-21)
(0.079992485 0.0085713901 1.027387e-20)
(0.080364947 0.0088222018 9.995246e-21)
(0.08191972 0.0076585675 -1.0768554e-20)
(0.083427469 0.0069991219 -1.1152893e-20)
(0.084942345 0.0052573877 1.147025e-20)
(0.085937707 0.0046515958 0)
(0.085752004 0.0038243425 0)
(0.08593746 0.0035524899 0)
(0.086061639 -4.4716899e-05 0)
(0.082981162 0.0015714545 0)
(0.082041623 -0.00078098705 0)
(0.082301439 -0.0042634298 1.1888228e-22)
(0.077663681 -0.0037189592 -3.1729892e-20)
(0.076250302 -0.0033892718 3.2928634e-20)
(0.081998158 -0.0083450539 1.3344462e-22)
(0.084207461 -0.011736031 -2.7700552e-22)
(0.077731469 -0.0080979355 3.7181831e-20)
(0.073719632 -0.0035127609 -3.8409707e-20)
(0.081205107 -0.0059937276 3.9382164e-20)
(0.091569405 -0.01335124 -4.1900296e-20)
(0.090976435 -0.016640715 4.3366496e-20)
(0.082105011 -0.013324114 -8.9456856e-20)
(0.077527679 -0.007569945 -4.3824295e-23)
(0.082647566 -0.0075211622 6.4850009e-22)
(0.092552788 -0.012812599 6.8942506e-22)
(0.09724921 -0.019359776 -1.8514619e-22)
(0.090273706 -0.021024567 -7.8166787e-22)
(0.08165493 -0.017856057 5.6681921e-20)
(0.081141546 -0.012222751 0)
(0.089962053 -0.01002696 6.0489347e-20)
(0.10263775 -0.013931607 -7.8150442e-22)
(0.10700878 -0.022209569 -6.586751e-20)
(0.08667845 0.00062020568 5.2940575e-22)
(0.083338404 0.00099130405 5.5105119e-22)
(0.090864089 0.0015280101 5.7343183e-22)
(0.089367529 0.0023192849 0)
(0.08768285 0.0032637684 0)
(0.087988127 0.0041095308 0)
(0.088876542 0.0046753931 -3.3720927e-22)
(0.089860458 0.0052321009 2.803654e-21)
(0.091120358 0.0056607474 -2.5561545e-21)
(0.09175487 0.0059478164 -3.7887348e-22)
(0.090557095 0.0062085092 -3.1548469e-21)
(0.088308005 0.007455874 3.2849819e-21)
(0.086795428 0.0078441603 -7.2443977e-21)
(0.087283179 0.0080221884 7.1152095e-21)
(0.088975767 0.0078008883 0)
(0.090852245 0.007297539 0)
(0.092391003 0.0068348558 4.9874007e-22)
(0.093047755 0.005368872 2.5859454e-22)
(0.092562903 0.0052876138 -8.6152281e-21)
(0.090689361 0.0042292042 8.6921859e-21)
(0.08802901 0.0033726423 0)
(0.085134 0.0047540185 0)
(0.081845219 0.0058883797 -3.1588878e-22)
(0.079431177 0.0074863383 0)
(0.080037326 0.0075595966 -1.0722329e-20)
(0.081859834 0.0070768969 1.1394377e-20)
(0.08366986 0.0061335663 0)
(0.085190282 0.0046550703 0)
(0.086161625 0.0038010603 0)
(0.086174065 0.0035475738 0)
(0.087432643 0.0022999663 0)
(0.087578086 -0.00060668 0)
(0.084184077 0.00093000679 -1.1585702e-22)
(0.084069877 -0.0017990777 -1.205991e-22)
(0.084029151 -0.0047189992 0)
(0.078656262 -0.0041493149 -1.3059315e-22)
(0.076642915 -0.0047476716 1.7269984e-20)
(0.082519632 -0.008740148 -1.827561e-20)
(0.08467198 -0.0099403465 1.4623015e-22)
(0.077580604 -0.0061573285 1.5263943e-22)
(0.072786732 -0.0043558217 0)
(0.080126539 -0.0087774042 1.6448735e-22)
(0.091362472 -0.013526127 -2.7294921e-25)
(0.092671233 -0.012859707 4.5839367e-20)
(0.083017152 -0.0086417496 7.7372061e-22)
(0.075729603 -0.0066547552 -4.9073684e-20)
(0.080009185 -0.0093266489 -9.9923903e-23)
(0.090855557 -0.014073656 0)
(0.098272467 -0.015577806 -1.0771277e-22)
(0.094626613 -0.012823935 -1.117458e-22)
(0.0840354 -0.010476392 6.0412343e-20)
(0.077242505 -0.010400361 -6.1924225e-20)
(0.081816497 -0.01336606 6.2649725e-23)
(0.096437294 -0.018159723 4.9411007e-25)
(0.10885838 -0.021903576 -6.7803589e-23)
(0.086841215 0.00061230374 0)
(0.083353139 0.0011263271 0)
(0.090840185 0.0013491141 -6.0489546e-22)
(0.089267452 0.0021090624 0)
(0.087560177 0.0034353435 1.3147538e-21)
(0.087881305 0.0040919134 -1.0255572e-21)
(0.088746081 0.0047436495 3.557741e-22)
(0.08976273 0.0052396939 0)
(0.091065352 0.0054062037 3.8462762e-22)
(0.091756443 0.0056599708 0)
(0.090526563 0.0062462934 -4.1579211e-22)
(0.088327791 0.0069169624 -3.0364917e-21)
(0.086726716 0.0078126003 7.1989301e-21)
(0.087192798 0.007702894 -3.7516159e-21)
(0.088849666 0.0072239767 0)
(0.090760156 0.0071716502 0)
(0.092636782 0.0065867055 1.8101091e-25)
(0.093319608 0.0056165018 -2.7355176e-22)
(0.092818396 0.0049901004 0)
(0.091158672 0.0045076129 0)
(0.08818622 0.003669915 3.0818659e-22)
(0.085083982 0.0049751491 9.9489261e-21)
(0.081905203 0.0063200231 -2.1523444e-20)
(0.079510494 0.0076266534 1.1254229e-20)
(0.080063763 0.0072463505 1.1315411e-20)
(0.081923298 0.0069611196 -1.2028142e-20)
(0.083924818 0.0058326626 -1.2431743e-20)
(0.085528793 0.0048285659 1.2971884e-20)
(0.086286213 0.0035192307 -1.3406838e-20)
(0.086219278 0.0038443496 2.7803255e-20)
(0.087956166 0.0019323078 -1.4755063e-20)
(0.087934616 0.00059155232 1.1772058e-22)
(0.084835703 0.0018878355 2.4432808e-22)
(0.085586214 -0.001178395 2.5442386e-22)
(0.085648916 -0.0037957235 0)
(0.080332025 -0.0028029849 -1.753304e-20)
(0.077816531 -0.0044313983 3.6548267e-20)
(0.082525747 -0.0084267335 -1.9119205e-20)
(0.084416489 -0.0080900479 -1.5463527e-22)
(0.078592677 -0.0040648366 -1.6105768e-22)
(0.074401667 -0.0042765643 0)
(0.079562966 -0.010047908 -2.206833e-20)
(0.088522064 -0.012919675 2.8263329e-22)
(0.090990023 -0.008972367 2.3847775e-20)
(0.08528427 -0.0034500315 0)
(0.078984823 -0.0047047109 0)
(0.079554449 -0.010320642 -2.6986231e-20)
(0.086258868 -0.014069553 2.8424819e-20)
(0.092283992 -0.011455236 -1.3327801e-24)
(0.093655552 -0.0053901354 6.1227908e-20)
(0.089667042 -0.0027706953 -1.2675194e-19)
(0.084046363 -0.0062926442 1.3165155e-19)
(0.082549531 -0.014076324 -6.8482249e-20)
(0.088689489 -0.020510262 -6.9020609e-23)
(0.098365359 -0.022243221 7.2179479e-23)
(0.086456154 0.00062841996 2.9492644e-22)
(0.083037043 0.0011533055 -3.0588018e-22)
(0.090587921 0.0011818611 -1.2766175e-21)
(0.088959149 0.001952287 1.3281784e-21)
(0.087262688 0.0031901698 1.7329026e-21)
(0.087639775 0.0038754107 -3.6048563e-21)
(0.08853919 0.0045931957 1.126004e-21)
(0.089588205 0.0050074186 -3.9007858e-22)
(0.090929202 0.0053171793 -4.057446e-22)
(0.091556998 0.0055099967 -3.3724377e-21)
(0.090426574 0.0061459347 3.5073264e-21)
(0.088216613 0.0062831681 0)
(0.086671478 0.0074468973 0)
(0.087177432 0.0072970317 -2.4702878e-22)
(0.088784546 0.0071069006 -2.5709062e-22)
(0.090687331 0.0067607739 4.2656634e-21)
(0.092661757 0.0061514657 -1.3598454e-20)
(0.093633889 0.0059798015 9.810693e-21)
(0.093256682 0.004563723 -9.5925228e-21)
(0.091725328 0.0041287881 2.0001466e-20)
(0.08860904 0.0035764985 -2.9354885e-22)
(0.085012178 0.0040016519 -2.1484441e-20)
(0.08165332 0.0055863018 1.1613359e-20)
(0.079406335 0.0070480896 1.168893e-20)
(0.080028993 0.0067750591 -1.2180114e-20)
(0.081894547 0.0063772097 0)
(0.083949189 0.0053668703 -1.3112614e-20)
(0.085737997 0.0048080673 1.3687668e-20)
(0.086380848 0.0037026012 2.2124769e-22)
(0.086533148 0.0042894449 2.2962428e-22)
(0.088726182 0.0015079072 3.581239e-22)
(0.088480099 0.00093944658 -1.2404626e-22)
(0.085885158 0.0017767476 -2.576588e-22)
(0.087224144 -0.0016036705 -1.3420044e-22)
(0.086894701 -0.0037677116 0)
(0.081942005 -0.0018809877 0)
(0.079620488 -0.0040255317 -1.9258203e-20)
(0.082646438 -0.0084962816 4.0351144e-20)
(0.08329452 -0.0074311605 -2.0551971e-20)
(0.079008253 -0.003190255 -8.4957696e-23)
(0.076741779 -0.0040421078 0)
(0.08008609 -0.010154771 0)
(0.084876919 -0.012069451 -2.442833e-20)
(0.086155295 -0.0062909056 2.5296144e-20)
(0.08539113 -0.0004070282 -2.6468874e-20)
(0.084866672 -0.0023048932 2.739204e-20)
(0.08395842 -0.0090237704 1.1068255e-22)
(0.083443503 -0.01280772 -2.9822831e-20)
(0.083928755 -0.008804207 3.0886405e-20)
(0.086509855 -0.001845505 0)
(0.091030158 0.0010417275 1.1374974e-25)
(0.094106472 -0.0035058256 -3.4628726e-20)
(0.092868866 -0.012326215 7.2165934e-20)
(0.090436407 -0.019627068 -7.4876455e-20)
(0.089511785 -0.02155424 3.8598064e-20)
(0.086563187 0.00058836311 0)
(0.083084104 0.0011893956 6.4646622e-22)
(0.090611694 0.0013311298 5.7249411e-25)
(0.088909786 0.0021627022 -7.009924e-22)
(0.087153816 0.0030661932 -1.4062893e-25)
(0.087576692 0.0037752203 3.7977799e-22)
(0.088514554 0.0044536159 -7.8988813e-22)
(0.08954785 0.0047152593 2.0574912e-21)
(0.090891175 0.005155296 0)
(0.091512574 0.0054481889 0)
(0.09044596 0.0056050203 -3.2430198e-21)
(0.088179659 0.0060151481 3.8493481e-21)
(0.086603301 0.0067626638 0)
(0.087196629 0.00693277 2.6042847e-22)
(0.088839056 0.0068242752 2.7100231e-22)
(0.090807664 0.006334041 0)
(0.092661624 0.0055063956 -4.6787242e-21)
(0.093814916 0.005649701 -2.9496071e-22)
(0.093698786 0.0042047104 5.3749081e-21)
(0.092112211 0.0037875055 0)
(0.089036317 0.0039313484 1.0990747e-20)
(0.085224574 0.0036628684 -2.2839148e-20)
(0.081510755 0.0051455454 1.1687805e-20)
(0.079329322 0.0065549239 -1.2518777e-20)
(0.079971806 0.0063901633 1.3048701e-20)
(0.081862333 0.005693018 0)
(0.083927293 0.0048295076 0)
(0.08586887 0.0043064788 0)
(0.086374465 0.0037070419 -2.3311138e-22)
(0.086763123 0.0042340187 -2.4182e-22)
(0.089102015 0.0013627838 -1.6235702e-20)
(0.088518994 0.0016242327 1.6756328e-20)
(0.086625845 0.0020871616 1.3581661e-22)
(0.088513834 -0.0013905909 0)
(0.087608131 -0.0032872301 0)
(0.083062893 -0.00095024017 1.5322395e-22)
(0.081876768 -0.0031790256 0)
(0.0836117 -0.0081049791 -1.6510914e-22)
(0.082299448 -0.0072085194 -2.2200892e-20)
(0.07872246 -0.0030984014 2.2975501e-20)
(0.078857437 -0.0038494295 2.3648003e-20)
(0.081749722 -0.0092374638 -2.4806732e-20)
(0.0822759 -0.010817806 2.5859458e-20)
(0.080627058 -0.0051798646 -2.6694117e-20)
(0.0820454 -2.0294534e-05 -2.7806344e-20)
(0.087400057 -0.00052729075 6.3380562e-23)
(0.090076867 -0.0060768648 6.0278228e-20)
(0.085772184 -0.0098522893 -3.1118739e-20)
(0.079147483 -0.0075514868 0)
(0.078165279 -0.0027844088 -3.3719068e-20)
(0.085451211 -0.0006548397 7.0017893e-20)
(0.097056296 -0.0038988906 -3.6879994e-20)
(0.10303038 -0.010121427 0)
(0.1004261 -0.015596224 -7.6668227e-23)
(0.091726738 -0.017494574 4.1267397e-20)
(0.086801119 0.0005510619 0)
(0.083226611 0.0010771645 0)
(0.090705086 0.0014941208 0)
(0.088980542 0.0023391706 1.1110534e-21)
(0.087146357 0.0028681843 -1.9200485e-21)
(0.087529697 0.0034467592 1.5999961e-21)
(0.088499573 0.0041606144 -2.0853578e-21)
(0.089515609 0.0044783589 -4.3354166e-22)
(0.090836009 0.0049049951 -4.5098525e-22)
(0.091615367 0.0052854289 -4.2188008e-21)
(0.090592582 0.005144512 3.4115544e-21)
(0.088230627 0.0060243484 0)
(0.08655646 0.006191148 4.2230022e-21)
(0.087065986 0.0066407008 -1.2153473e-23)
(0.088705971 0.0064260474 -9.4315873e-21)
(0.090797589 0.0062818992 4.7621446e-21)
(0.092652928 0.0052046397 -3.0868537e-22)
(0.093894803 0.0051919988 -3.2092518e-22)
(0.094043725 0.0042909531 1.404896e-26)
(0.092476217 0.0035834036 1.7353179e-22)
(0.089536484 0.00367053 1.8069028e-22)
(0.085567459 0.0033493944 1.881053e-22)
(0.081365644 0.004731329 0)
(0.079060837 0.0062943476 0)
(0.079892555 0.0062978231 -1.3703305e-20)
(0.081922983 0.0054741872 1.4328687e-20)
(0.084008168 0.0048688805 0)
(0.086038793 0.0042306265 0)
(0.086420772 0.004019399 0)
(0.08709702 0.0042594901 1.2755825e-22)
(0.089521338 0.0015920316 0)
(0.088661465 0.0021421368 1.7679864e-20)
(0.087395843 0.0021517481 -1.8361825e-20)
(0.089839281 -0.0013406982 1.4887698e-22)
(0.088308531 -0.0028064975 -2.0073267e-20)
(0.083783973 -0.0006376449 2.0427587e-20)
(0.083894832 -0.0026422963 0)
(0.085216032 -0.0074931782 2.2261199e-20)
(0.081841621 -0.007003312 -2.3155719e-20)
(0.0780408 -0.0031079695 9.4583208e-23)
(0.079907981 -0.0036853719 2.5144871e-20)
(0.083682997 -0.0077629889 -2.6191149e-20)
(0.081870318 -0.0092616593 0)
(0.077230122 -0.0053646893 2.8242593e-20)
(0.077815751 -0.0014195943 -2.9366847e-20)
(0.085532219 -0.0012627856 2.3777144e-22)
(0.092706241 -0.0038427657 0)
(0.090273584 -0.0053358913 3.3062531e-20)
(0.081091835 -0.0048521221 -3.3901658e-20)
(0.075082962 -0.0038255597 3.5603554e-20)
(0.07999544 -0.0044620721 -3.7192817e-20)
(0.09285495 -0.007453523 -3.8159842e-20)
(0.10464799 -0.01010281 7.9938574e-20)
(0.10723909 -0.011538132 3.8061357e-22)
(0.099313594 -0.011147804 7.170675e-22)
(0.086859346 0.00049209776 -3.4484765e-22)
(0.083222892 0.00097773307 -3.5898676e-22)
(0.090685787 0.0016889508 -7.4849755e-22)
(0.08899138 0.002533383 -2.835301e-24)
(0.087178173 0.0029035132 8.0904084e-22)
(0.087526428 0.0033205554 1.6859486e-21)
(0.088497787 0.0038478724 -1.7585187e-21)
(0.08954039 0.0042497856 4.5704808e-22)
(0.090864673 0.0045274185 2.3752483e-21)
(0.091733327 0.0047548199 -5.436076e-21)
(0.090731039 0.0047437708 2.4952738e-22)
(0.088360503 0.0056578475 4.2818613e-21)
(0.08665825 0.0056284925 2.7852224e-22)
(0.086994828 0.0060091215 0)
(0.088570766 0.0057097308 3.0105401e-22)
(0.090714104 0.0057742965 -3.1313185e-22)
(0.092687234 0.0047842866 -1.8838817e-25)
(0.093970852 0.0043917357 6.7621662e-22)
(0.094328627 0.0040892832 -3.5085387e-22)
(0.092906949 0.0033637232 5.6643649e-21)
(0.090109223 0.0029968317 -1.237779e-20)
(0.086044975 0.0031270717 6.3327127e-21)
(0.081437783 0.0042126739 0)
(0.078903046 0.0058052043 -6.8454481e-21)
(0.079876999 0.0057448368 6.9210114e-21)
(0.081888551 0.0050021966 -2.3173542e-22)
(0.083894978 0.0045988993 -2.4087772e-22)
(0.085943255 0.0037912025 0)
(0.086186297 0.0039072673 0)
(0.087179258 0.0036558998 -1.3498014e-22)
(0.089619088 0.001427392 0)
(0.088667865 0.0023725496 0)
(0.087991789 0.0020309575 -1.9269028e-20)
(0.090837817 -0.0013782828 -7.8511721e-23)
(0.088967255 -0.0020051754 4.2147617e-20)
(0.084350461 -0.00052078608 -2.1842961e-20)
(0.085508694 -0.0025331062 0)
(0.08707134 -0.0068281301 9.184151e-23)
(0.082181044 -0.0066112062 -9.557893e-23)
(0.077456545 -0.0032899731 -9.9562181e-23)
(0.080020863 -0.0037664306 -2.6335074e-20)
(0.085009457 -0.0068094746 2.768911e-20)
(0.083015299 -0.0076751586 0)
(0.076239698 -0.0053097805 0)
(0.074693616 -0.0030251031 -1.2119852e-22)
(0.081809018 -0.0032311435 -1.2510203e-22)
(0.09071765 -0.0034108919 -3.3388866e-20)
(0.092514874 -0.00143682 3.4627345e-20)
(0.085887381 5.1989752e-05 3.6220919e-20)
(0.078023162 -0.0016281421 -3.75549e-20)
(0.077913743 -0.0061829452 -7.6032525e-23)
(0.086874241 -0.0099656692 4.008231e-20)
(0.098438809 -0.010634659 -4.2353257e-20)
(0.10579887 -0.0083984267 0)
(0.10332782 -0.0045990533 -4.587202e-20)
(0.086791942 0.00047684469 5.4537789e-22)
(0.083085718 0.00093078508 -1.8880829e-22)
(0.090552013 0.0017760417 3.9346436e-22)
(0.088911483 0.0026025072 4.1022497e-22)
(0.087136413 0.0030000175 1.7098717e-21)
(0.087491126 0.0033322543 -3.1094084e-21)
(0.088451295 0.0036622338 1.852927e-21)
(0.089487902 0.0040675922 0)
(0.090843661 0.0043045513 2.2525706e-21)
(0.091741229 0.0042847767 -1.8228703e-21)
(0.0907423 0.0046531267 -5.4160241e-22)
(0.088431978 0.0051975003 0)
(0.086753967 0.0054123813 -5.8691259e-22)
(0.087038776 0.0055470394 3.0497942e-22)
(0.088547623 0.0053372055 -3.1741948e-22)
(0.090648137 0.0051713007 -1.0586784e-25)
(0.092658299 0.0047287232 -5.1338719e-21)
(0.093960634 0.0040255016 1.1046596e-20)
(0.094548894 0.0040304306 -5.9201505e-21)
(0.093393948 0.0033318566 0)
(0.090688703 0.0024716934 -2.0054697e-22)
(0.086460449 0.0030782494 0)
(0.081567766 0.0040757464 -2.1758939e-22)
(0.078940318 0.0055962163 0)
(0.080007387 0.0054181393 -2.4028281e-25)
(0.081905225 0.0049022724 2.4450953e-22)
(0.083843913 0.0045959192 2.5364563e-22)
(0.085815586 0.0036227359 8.4292971e-21)
(0.086043092 0.0040962031 -2.1637652e-23)
(0.087325643 0.0031854778 -9.1281748e-21)
(0.089742812 0.001327962 1.887663e-20)
(0.088767046 0.0025570465 -3.9227783e-20)
(0.088646666 0.0017974649 2.0571213e-20)
(0.091628513 -0.0014437191 -1.6487395e-22)
(0.089716298 -0.0010643335 -1.7213232e-22)
(0.08510057 -0.00014821983 1.7939509e-22)
(0.086697129 -0.0027636097 0)
(0.088728928 -0.0063158399 9.6578373e-23)
(0.082991963 -0.0057912501 1.0079316e-22)
(0.077114569 -0.0032932342 0)
(0.079535255 -0.0037567328 -2.1799369e-22)
(0.085242932 -0.0063792026 0)
(0.084446612 -0.0060456901 1.1755409e-22)
(0.077366698 -0.0044121278 -3.1481245e-20)
(0.073706849 -0.0039843992 3.2716278e-20)
(0.078295208 -0.0053229874 0)
(0.085830089 -0.0039073992 -6.9225126e-23)
(0.090013058 0.00078616782 0)
(0.088850147 0.0047179965 3.8094123e-20)
(0.084868466 0.0022362345 -3.9280532e-20)
(0.081970793 -0.0046799869 8.0970722e-23)
(0.083970318 -0.010504018 0)
(0.090492299 -0.011146 -4.3631531e-23)
(0.097517352 -0.0070712785 0)
(0.099852746 -0.00083029744 4.6742379e-23)
(0.086968747 0.00045274619 -1.9172115e-22)
(0.083147413 0.00092744094 5.9734948e-22)
(0.090567858 0.0017555851 -4.1458014e-22)
(0.088958773 0.0025327996 8.6606305e-22)
(0.087180088 0.0030145138 -1.3485489e-21)
(0.087533974 0.0033138224 -2.0671626e-25)
(0.088438935 0.0034723004 -1.9501051e-21)
(0.08948162 0.0037813947 2.0310061e-21)
(0.090898936 0.0040001532 1.8454083e-21)
(0.09180657 0.0038134021 -4.6630581e-21)
(0.090786681 0.0043663047 2.8080518e-22)
(0.088491017 0.0045925817 2.376329e-21)
(0.086822367 0.0050486136 -4.6324225e-21)
(0.087125157 0.0048925971 4.8256352e-21)
(0.088588599 0.0048558746 3.3445874e-22)
(0.090632432 0.0043456225 -5.203344e-21)
(0.092715164 0.0043988556 5.7894941e-21)
(0.094022944 0.0035409849 0)
(0.094670065 0.0036148518 6.4254547e-21)
(0.093818909 0.0029513992 -1.2973832e-20)
(0.091111771 0.0018670331 -2.1092973e-23)
(0.086827992 0.0026594646 6.8085648e-21)
(0.081833577 0.0037024177 7.8043183e-21)
(0.079079194 0.0048684416 -1.4977498e-20)
(0.080044155 0.004722567 8.1829528e-21)
(0.081810419 0.004607835 -1.2851281e-22)
(0.083748926 0.0041728461 1.3381922e-22)
(0.08564847 0.0031758852 8.7250491e-21)
(0.08596119 0.0040873335 -9.3434067e-21)
(0.087493219 0.0025355766 1.4963729e-22)
(0.089639228 0.00097150206 0)
(0.088770598 0.002545635 1.0301741e-20)
(0.089276838 0.0014415879 -5.8569192e-23)
(0.092094667 -0.0017052557 -1.1099928e-20)
(0.090247383 -0.00030381098 2.720603e-22)
(0.086126139 0.00059884675 -1.2060199e-20)
(0.087850278 -0.0030864126 1.258808e-20)
(0.090034525 -0.0060289209 -1.018539e-22)
(0.084230108 -0.0048518574 1.0610201e-22)
(0.07746541 -0.0030274399 0)
(0.079168372 -0.0040900186 -2.9187235e-20)
(0.084836415 -0.006438022 3.0708493e-20)
(0.085092929 -0.004975082 -6.1890955e-23)
(0.079371472 -0.0028438578 -3.313259e-20)
(0.074971666 -0.0037695879 3.4247972e-20)
(0.076307827 -0.0064504302 6.9539736e-23)
(0.080451368 -0.00487335 7.2202969e-23)
(0.084103037 0.0010247869 3.868364e-20)
(0.087194689 0.0064278028 -4.0294485e-20)
(0.089480381 0.0050716812 -1.6251939e-22)
(0.08901177 -0.0015957279 0)
(0.086705821 -0.0086842272 0)
(0.085676051 -0.01055518 -9.5137472e-26)
(0.08823808 -0.0069417488 0)
(0.091263968 -0.00031809721 -4.9808902e-23)
(0.087416805 0.00046407274 -4.0336162e-22)
(0.083404564 0.00098969983 -4.1989481e-22)
(0.090741092 0.0016602919 1.7483108e-21)
(0.089141422 0.0023903518 -9.0902384e-22)
(0.08731308 0.0029538418 9.488258e-22)
(0.087658178 0.003333047 -1.4799121e-21)
(0.088532536 0.0033795395 -2.0547849e-21)
(0.089511919 0.0035894119 2.1393382e-21)
(0.090997801 0.0038362596 2.2219644e-21)
(0.091939177 0.0036816132 -4.3344872e-21)
(0.090929717 0.0041600325 2.101674e-21)
(0.088624434 0.0041984012 0)
(0.086929485 0.0047420356 3.2569355e-22)
(0.087168166 0.0044371607 0)
(0.088616839 0.0045850001 0)
(0.090711333 0.0038944304 5.6645087e-21)
(0.092834757 0.0041691737 -6.1001853e-21)
(0.094102866 0.0033688235 -1.977484e-22)
(0.094763723 0.0033267215 7.3703959e-26)
(0.094187628 0.0027186391 0)
(0.091500623 0.0017949312 7.3604568e-21)
(0.087122509 0.0024318206 -6.9405935e-21)
(0.082070717 0.003572351 5.378866e-26)
(0.079136219 0.0044088882 7.6381438e-21)
(0.079912216 0.0043629648 -1.6687912e-20)
(0.081663501 0.0045934666 8.431275e-21)
(0.083799167 0.0038396081 -9.1347637e-21)
(0.085593194 0.0029037208 1.7864415e-22)
(0.086050285 0.0040367129 9.8503552e-21)
(0.087913667 0.0021542036 9.7450265e-21)
(0.089659377 0.00090645646 -1.0344378e-20)
(0.088852626 0.0025229265 0)
(0.089956057 0.0012775564 -1.769893e-22)
(0.092412151 -0.0016786757 -4.8028953e-26)
(0.090370135 0.00028551861 -9.5514014e-23)
(0.087149972 0.0014645626 1.2799584e-20)
(0.089048592 -0.002963745 -7.9948034e-23)
(0.090867897 -0.0056749338 -1.3769971e-20)
(0.085362118 -0.0037460818 1.4170682e-20)
(0.07836481 -0.0022649722 -2.9976612e-20)
(0.079076236 -0.0045708334 2.2720901e-22)
(0.08383931 -0.0066856514 3.2254465e-20)
(0.084405661 -0.0046904763 -1.6775559e-20)
(0.080679814 -0.001442302 -6.8058736e-23)
(0.077392441 -0.0024026463 -1.8144772e-20)
(0.076378376 -0.0060298276 1.8852561e-20)
(0.076564265 -0.005338771 0)
(0.077835587 0.00011321671 -2.0392882e-20)
(0.082582547 0.0053229768 2.1299736e-20)
(0.090207737 0.0055125059 1.7227968e-22)
(0.095215647 0.00051097119 0)
(0.093311028 -0.0056485088 -4.7781192e-20)
(0.087109123 -0.0088125908 -3.4780047e-22)
(0.082999444 -0.0072942873 5.1438483e-20)
(0.082561477 -0.0020825824 5.2102685e-23)
(0.087798475 0.00042765177 2.5271841e-27)
(0.083679008 0.0010007766 -8.8413396e-22)
(0.090951174 0.0014396189 0)
(0.089332818 0.0021399162 4.7950667e-22)
(0.087490441 0.0027361669 7.4915572e-22)
(0.087844616 0.003160463 7.793843e-22)
(0.088711916 0.0031798325 -3.2473669e-21)
(0.089625794 0.0033224607 -2.7875927e-22)
(0.091150123 0.0035069624 -2.8868912e-22)
(0.092110331 0.0034875962 4.5653583e-21)
(0.091174398 0.0037708488 -2.2138234e-21)
(0.088858263 0.0037320343 -2.6426002e-21)
(0.087100429 0.0041926569 2.0557353e-21)
(0.087224359 0.0039005903 0)
(0.088643195 0.0040797453 0)
(0.090718453 0.003489935 -6.1607277e-21)
(0.092921927 0.0036820039 2.3358702e-23)
(0.094295884 0.0030758624 6.8852817e-21)
(0.09490701 0.0027881601 -2.1621682e-22)
(0.09455984 0.0022332085 7.2050323e-21)
(0.091971977 0.0016414524 -7.4958936e-21)
(0.087499043 0.0018650564 -2.4427478e-22)
(0.082287003 0.0030787199 -1.2720817e-22)
(0.07912071 0.0037000872 -8.4473213e-21)
(0.079666532 0.0038038263 8.8069449e-21)
(0.081456545 0.0043405924 1.4294024e-22)
(0.083825885 0.003249799 0)
(0.085449598 0.0024880613 0)
(0.086114109 0.0035114146 0)
(0.088310966 0.0017763761 3.3223578e-22)
(0.089634424 0.00081825552 -1.7243657e-22)
(0.088821186 0.0022948006 0)