/*--------------------------------*- C++ -*----------------------------------*\
| =========                 |                                                 |
| \\      /  F ield         | OpenFOAM: The Open Source CFD Toolbox           |
|  \\    /   O peration     | Version:  2406                                  |
|   \\  /    A nd           | Website:  www.openfoam.com                      |
|    \\/     M anipulation  |                                                 |
\*---------------------------------------------------------------------------*/
FoamFile
{
    version     2.0;
    format      ascii;
    arch        "LSB;label=32;scalar=64";
    class       volScalarField;
    location    "29";
    object      omega_0;
}
// * * * * * * * * * * * * * * * * * * * * * * * * * * * * * * * * * * * * * //

dimensions      [0 0 -1 0 0 0 0];

internalField   nonuniform List<scalar> 
62344
(
4.3603348
3.3416607
2.7138416
2.3025939
2.002558
1.7713862
1.5875679
1.4451797
1.3289647
1.2360926
1.1610208
1.0944783
1.0440717
0.99814022
0.95438699
0.92475265
0.89428267
0.8593498
0.83454829
0.81601146
0.79784642
0.78508125
0.77375608
0.75976973
0.74273517
0.73050164
0.72772166
0.72807152
0.7335414
0.74864844
0.76213619
0.77066339
0.77939607
0.7949306
0.82172607
0.87514942
0.96000656
1.0808665
1.1905848
1.3029341
1.4056426
1.598223
1.7978405
2.0007447
2.1680603
2.3473362
2.514121
2.671318
2.8199481
2.9404276
3.0818458
3.1625784
3.2475976
3.3275628
3.5253288
4.3654082
3.3531716
2.7227634
2.308427
2.0106717
1.7809843
1.5934085
1.4482021
1.3308873
1.237309
1.1628222
1.0969574
1.0491217
1.0023026
0.95878496
0.92666258
0.89744212
0.86419052
0.83766504
0.81621317
0.79975638
0.78667612
0.77436989
0.76191322
0.74572518
0.73029439
0.72167626
0.71830101
0.71915211
0.72438578
0.73503049
0.74539378
0.75464163
0.76533214
0.7825825
0.80793569
0.85247303
0.94868079
1.0193696
1.1453068
1.248682
1.3901327
1.5624007
1.786244
1.9977092
2.1949503
2.4011287
2.5545111
2.7179846
2.8320813
2.9875668
3.1106062
3.2575313
3.3291785
3.4363566
4.3720208
3.3565344
2.7308778
2.3186033
2.0194458
1.7862546
1.5989385
1.4523453
1.3367691
1.2424042
1.1685071
1.100674
1.0532278
1.0054621
0.96446054
0.93035409
0.90011726
0.86589458
0.83869464
0.82001841
0.80283522
0.78714304
0.77468309
0.7623291
0.74689545
0.73023877
0.71971441
0.71591976
0.71674474
0.72094612
0.7297193
0.74326735
0.7609282
0.77603215
0.79562633
0.81402026
0.8397666
0.90101886
0.95251779
1.0433262
1.1106759
1.2299774
1.3394386
1.5003092
1.7006197
1.8858592
2.1194554
2.2928808
2.5031792
2.6378814
2.7978573
2.9295761
3.0720992
3.1586673
3.3003544
4.3773552
3.3631057
2.7383518
2.3281185
2.024676
1.7931416
1.6071172
1.460262
1.3423953
1.2485759
1.174861
1.1061374
1.0568545
1.0104112
0.96251571
0.93164873
0.90287204
0.86909076
0.84488869
0.8259741
0.80592522
0.79039704
0.77981058
0.76923698
0.75730366
0.74154525
0.72716371
0.71974722
0.71937332
0.7222109
0.72807544
0.74256863
0.76217044
0.7812497
0.80000615
0.81645425
0.83732768
0.88656625
0.93273788
1.0197654
1.0769371
1.1815762
1.2730516
1.3833569
1.5497588
1.6733173
1.8258764
1.9868521
2.2177846
2.3801419
2.5921954
2.7774291
2.9264098
3.0501732
3.2357207
4.3823752
3.3725556
2.7433934
2.3285753
2.0295102
1.8006698
1.6133981
1.4638869
1.343481
1.2507441
1.1787057
1.1098962
1.0599632
1.0153973
0.97071295
0.93889107
0.90652346
0.87592198
0.84781509
0.82573679
0.80851628
0.79479332
0.78316695
0.77230935
0.75965936
0.7455988
0.72995337
0.71981407
0.71856929
0.72048589
0.7236377
0.73201327
0.74939215
0.77516992
0.7983741
0.81453002
0.8365572
0.88130078
0.92384161
0.99194185
1.0519803
1.1339448
1.2463479
1.3269487
1.4713768
1.582096
1.6881981
1.8288183
2.0038793
2.1525231
2.3523182
2.524331
2.7059406
2.8656011
3.0943674
4.387652
3.3783454
2.7494056
2.3341822
2.0372242
1.804918
1.6180621
1.4670289
1.3472554
1.2557326
1.1828526
1.1125799
1.0632511
1.0191729
0.97644949
0.94141642
0.90932754
0.88067507
0.85071364
0.82961281
0.81288116
0.7973312
0.78430511
0.77434789
0.76322192
0.75313335
0.73954969
0.72573274
0.72162374
0.72219921
0.72354183
0.72773513
0.73859148
0.76411748
0.79503417
0.81373276
0.85094358
0.88016449
0.92945977
0.96627056
1.0371938
1.0909053
1.1976995
1.2712171
1.3978459
1.4847516
1.59941
1.6939401
1.8412019
1.9623726
2.1351883
2.2735522
2.4572593
2.5698228
2.8172507
4.3923269
3.3824064
2.7567543
2.342493
2.0418973
1.810341
1.6227189
1.4740594
1.3556558
1.2599208
1.1858526
1.1158136
1.065734
1.0217379
0.97548675
0.94021624
0.91030288
0.88081942
0.8553554
0.8359563
0.8156164
0.79788532
0.7843478
0.77547349
0.7658903
0.75551769
0.74312494
0.72947127
0.72386324
0.72334686
0.72348618
0.72589157
0.73483992
0.75597552
0.78731987
0.81555959
0.85744848
0.88490286
0.92812516
0.95983706
1.0238129
1.0744237
1.1727757
1.2359826
1.3551244
1.4339809
1.5603901
1.6574512
1.7811261
1.8829418
2.0420119
2.1539899
2.3083755
2.4221474
2.5837151
4.3963955
3.3906323
2.7641274
2.3469726
2.0451878
1.8172924
1.6307409
1.4809456
1.3603592
1.2633796
1.1896097
1.1256326
1.0706038
1.025272
0.9816776
0.94664078
0.91624194
0.88631724
0.86020342
0.83937201
0.8188519
0.80234897
0.7887688
0.77841302
0.76943106
0.7590903
0.74584342
0.73168985
0.72525622
0.7243124
0.7242688
0.72637212
0.73496381
0.7552094
0.78163823
0.81624885
0.8594474
0.88692356
0.92073115
0.95226342
1.0128632
1.0730322
1.1465533
1.2028257
1.2975312
1.3726149
1.5044549
1.6208156
1.7260125
1.8440714
1.990155
2.0918517
2.2304165
2.3802585
2.4953538
4.4009236
3.3980643
2.7682755
2.3503949
2.0513748
1.8213983
1.6350302
1.4830609
1.3605057
1.2675092
1.1930686
1.1299991
1.0728903
1.0287986
0.98953762
0.95290025
0.91860014
0.89000725
0.86252605
0.83765552
0.82093577
0.80621562
0.79087428
0.78001158
0.77169148
0.76361147
0.75237328
0.73702613
0.72846675
0.72617547
0.7258934
0.72785317
0.73735973
0.75556424
0.77657797
0.81107632
0.85409455
0.8844903
0.91300344
0.95093935
1.0073122
1.08353
1.1316799
1.2020612
1.2710675
1.3470983
1.462356
1.5648727
1.642462
1.7709383
1.9061146
2.0244922
2.1628399
2.3347315
2.4730063
4.4054984
3.4027885
2.772804
2.3577349
2.0601982
1.8252442
1.6373454
1.4849997
1.3619997
1.2696054
1.1952924
1.1288545
1.0730649
1.030656
0.99008746
0.95352879
0.91824054
0.89087801
0.86482882
0.83935614
0.82287083
0.80755693
0.79136238
0.78082583
0.77289623
0.76454068
0.75607297
0.74520062
0.73610483
0.73256852
0.73191373
0.73303914
0.7408502
0.75546616
0.76985567
0.79927174
0.84240242
0.87584032
0.90923697
0.94878744
1.0065075
1.0824368
1.1285882
1.1923752
1.2586683
1.3402158
1.4433367
1.5313009
1.5935447
1.7042678
1.8140397
1.9387164
2.0751817
2.2458133
2.415317
4.4093948
3.405963
2.7794743
2.367673
2.066867
1.8315225
1.6429626
1.4910929
1.3686909
1.2727555
1.1971627
1.1298951
1.0749631
1.0325484
0.98748171
0.95206121
0.92015163
0.89202503
0.8687997
0.84738123
0.82904285
0.81019746
0.79329394
0.78303952
0.77533481
0.76586294
0.75619454
0.74825971
0.7404291
0.7357216
0.7342087
0.73477143
0.74019859
0.74978968
0.76140354
0.78704355
0.83013968
0.86871736
0.90713756
0.94866215
1.0078467
1.0756051
1.1203427
1.173719
1.2440345
1.329233
1.4326076
1.5095279
1.5824088
1.6759573
1.7697434
1.8878921
2.0094759
2.1348367
2.3132441
4.4127278
3.4110646
2.787158
2.375028
2.069333
1.8392622
1.6538069
1.5004724
1.3778428
1.2805286
1.199932
1.1402041
1.0835594
1.0375265
0.99360927
0.95708652
0.92799479
0.90037152
0.8738852
0.85358502
0.83428664
0.81471496
0.79668356
0.78554166
0.77739369
0.76861661
0.75818976
0.75050429
0.74328637
0.73692305
0.7341526
0.73423673
0.7374805
0.74333135
0.75377158
0.77836936
0.82039587
0.86531988
0.90766505
0.94890263
1.0100424
1.0599957
1.1128514
1.1482848
1.2158411
1.2890626
1.394335
1.4612346
1.5452427
1.6215846
1.715626
1.8066251
1.9154369
2.008816
2.1661036
4.4157856
3.4175634
2.7929923
2.3780161
2.0734393
1.8441969
1.6605262
1.506054
1.3807684
1.2874356
1.2040826
1.1489468
1.0899809
1.0418034
1.0026861
0.96572657
0.93381262
0.90575147
0.8770313
0.85518454
0.8347782
0.81724694
0.79938612
0.78796913
0.77823827
0.77109107
0.7642246
0.75746069
0.74991117
0.74026598
0.73489855
0.73423304
0.73646726
0.74095959
0.75045678
0.77358628
0.81457502
0.86306934
0.90844139
0.94850294
1.0086224
1.0483329
1.0984084
1.1296761
1.1887801
1.2457174
1.3297613
1.4055713
1.4710203
1.5588787
1.6475106
1.7220301
1.8162669
1.9138382
2.0284452
4.4184609
3.4240949
2.7967991
2.3801486
2.0791933
1.8472313
1.662284
1.5077896
1.3813612
1.2892803
1.2063837
1.1501632
1.0916873
1.0423209
1.0046505
0.96883725
0.93444186
0.90634388
0.87837968
0.85460406
0.83345502
0.81716309
0.80017403
0.78877767
0.77840949
0.77128492
0.76624395
0.76150065
0.75609519
0.74594092
0.73855682
0.73706975
0.73897195
0.74266482
0.75133307
0.77300141
0.81210764
0.86020278
0.90727071
0.94555267
1.0024542
1.0398643
1.0867979
1.1177097
1.1731345
1.227828
1.2989035
1.3792523
1.4330222
1.5293276
1.60655
1.6861045
1.7677013
1.8770471
1.9570502
4.4208797
3.4299668
2.8009139
2.3845547
2.0864722
1.8511564
1.663428
1.5091376
1.383356
1.2882457
1.2085779
1.1461547
1.0901889
1.0405131
1.0001307
0.96685791
0.93141864
0.90298257
0.87748971
0.85458036
0.83350788
0.81648748
0.80021915
0.78862628
0.77925069
0.77231301
0.76663559
0.76188358
0.75696758
0.74894596
0.74330294
0.74247661
0.74481424
0.74890266
0.75759618
0.77713368
0.81212784
0.85793878
0.90515367
0.94441214
0.99910233
1.0391044
1.0814561
1.1226921
1.1723698
1.2327591
1.2960956
1.3786228
1.433666
1.5345021
1.6031862
1.692699
1.7742833
1.8897363
1.955539
4.4227024
3.4347913
2.8069586
2.3920325
2.0936109
1.8577861
1.6689438
1.5143536
1.3891175
1.2905965
1.2113897
1.1457733
1.0908313
1.0410442
0.99801595
0.96592047
0.93096839
0.90205841
0.87832714
0.85746037
0.83720128
0.81800897
0.80191002
0.79026922
0.78174936
0.77494242
0.76795841
0.76239441
0.75673808
0.7502206
0.74681914
0.74736718
0.75083567
0.75723267
0.76898383
0.78764281
0.81791258
0.86056602
0.90641657
0.95235454
1.0022084
1.0519717
1.0864361
1.1467803
1.1881207
1.2609448
1.313697
1.4031952
1.4647305
1.5697607
1.633005
1.7408213
1.8204453
1.9353893
2.0062167
4.4245978
3.4398924
2.815078
2.4014413
2.1000427
1.8669218
1.6799727
1.5248057
1.3987584
1.299954
1.2167988
1.1529755
1.0980038
1.0474291
1.0041455
0.97167469
0.93797385
0.90893671
0.88554341
0.86543749
0.84617776
0.82551773
0.80952744
0.79848105
0.78957706
0.78287414
0.77692604
0.7704546
0.76299159
0.75748094
0.75564781
0.75711027
0.76239422
0.77214753
0.78768566
0.80891239
0.83647987
0.8754611
0.92037015
0.97182429
1.0213252
1.0807557
1.1159045
1.1849624
1.2281542
1.3047408
1.3561428
1.4486072
1.5086716
1.6139347
1.6797793
1.7878984
1.8634203
1.9690497
2.0664503
4.4259365
3.4444406
2.8231654
2.4094309
2.1059141
1.8760018
1.6917874
1.5366865
1.4076473
1.3132907
1.2236296
1.1666906
1.1113177
1.0596488
1.0188495
0.98564663
0.95339289
0.92531553
0.90120847
0.87896902
0.85955975
0.83966593
0.82484419
0.81458313
0.80547509
0.79990219
0.79662718
0.79243247
0.78498312
0.77916002
0.77725509
0.77890972
0.78575601
0.79672843
0.81293388
0.84108968
0.86958383
0.90572394
0.95294967
1.007831
1.0666403
1.138148
1.1792589
1.2560305
1.3019091
1.3811367
1.4361777
1.5256756
1.5871385
1.6938932
1.7579875
1.8660629
1.9358879
2.0375153
2.1360433
4.4280524
3.4499963
2.8302326
2.4157205
2.1127131
1.8840092
1.7012477
1.5468764
1.41539
1.3245597
1.2313524
1.1803753
1.125702
1.0739479
1.0359759
1.003919
0.97145474
0.94699022
0.92323611
0.89835447
0.87834259
0.86216478
0.84851491
0.83922865
0.83212307
0.82918335
0.82873593
0.82900842
0.82830019
0.82406266
0.82213288
0.8237339
0.83148281
0.84622365
0.86053193
0.89238406
0.92588684
0.96096871
1.0057949
1.0619387
1.1300456
1.2112193
1.2765295
1.3725132
1.4322332
1.5236322
1.5859224
1.6727278
1.7355309
1.847867
1.9063923
2.0122975
2.0721934
2.1726389
2.2532517
4.428987
3.4549584
2.8353584
2.4213296
2.1212646
1.8922126
1.7095018
1.5572757
1.427149
1.3372459
1.2461979
1.1972161
1.1449329
1.0944297
1.058462
1.0277533
0.99683119
0.97598431
0.95421366
0.93001088
0.91173491
0.89858906
0.88758053
0.88066576
0.87651867
0.87556069
0.87834875
0.88461499
0.88934307
0.89230823
0.89345272
0.89693038
0.90790371
0.92850857
0.94380233
0.97752794
1.0180167
1.0623789
1.1058164
1.1691776
1.2371044
1.3288889
1.397597
1.4998422
1.573052
1.6957841
1.7727303
1.884325
1.9500732
2.0750055
2.1376273
2.2529103
2.3093213
2.4201314
2.4767719
4.433328
3.4631393
2.8439057
2.4326036
2.1383822
1.910238
1.7295333
1.5808694
1.455311
1.3652954
1.2796215
1.2300223
1.1808169
1.1335581
1.0998899
1.0716173
1.0459975
1.0299971
1.0143055
0.99834721
0.98701484
0.97905784
0.97479329
0.97510625
0.97622999
0.98100104
0.99480747
1.014193
1.0309421
1.0463031
1.0565339
1.0681627
1.0906507
1.1214613
1.1401771
1.1808188
1.2334519
1.2874378
1.3341294
1.4055025
1.4778681
1.5686374
1.6293492
1.7267386
1.7923587
1.9264873
2.0059469
2.1462631
2.2210597
2.3673957
2.444843
2.5869649
2.6507094
2.7842842
2.8383991
4.4397142
3.4793009
2.8676326
2.4654561
2.1810082
1.9556478
1.7812155
1.6347334
1.5163411
1.4321301
1.3580217
1.3135764
1.2776043
1.244032
1.2212582
1.2069241
1.2019587
1.2015688
1.203766
1.2132677
1.2321079
1.2477578
1.2690298
1.2864671
1.3164437
1.3416785
1.3827014
1.429395
1.4769251
1.5196288
1.5528292
1.5802553
1.6176663
1.6713085
1.702171
1.7606909
1.826879
1.8887738
1.950104
2.0192387
2.0891169
2.1586566
2.2158095
2.2846698
2.3380348
2.4251381
2.5026544
2.6400399
2.7112705
2.8486388
2.9275471
3.0885782
3.1680408
3.3320893
3.3884606
4.4803001
3.5406333
2.9418752
2.5474619
2.2687194
2.0539264
1.9098336
1.7956914
1.7116426
1.672736
1.6453699
1.6469211
1.6598372
1.6781389
1.7050848
1.7393629
1.7873161
1.8287982
1.8715631
1.9312946
2.0062371
2.0582565
2.1178392
2.1777522
2.2494228
2.3010884
2.365991
2.4491797
2.5300479
2.6051079
2.6692418
2.7123753
2.7636241
2.8332932
2.8807678
2.9545669
3.0339272
3.0947432
3.1635686
3.2121329
3.2741547
3.3236094
3.4009372
3.4498517
3.4881225
3.50148
3.5499272
3.6428109
3.7125607
3.8014322
3.8638653
3.9973151
4.0813343
4.2561226
4.2870506
4.5616122
3.6607916
3.1264994
2.8115805
2.5979094
2.4664171
2.4519818
2.4799992
2.5434665
2.6533913
2.7420843
2.8534032
2.9603257
3.0489282
3.1398167
3.2445041
3.3482831
3.438368
3.5285345
3.630949
3.742311
3.8276664
3.9112379
4.0079876
4.1142061
4.192937
4.254695
4.341001
4.4289137
4.5140261
4.5806058
4.62525
4.6779539
4.730464
4.760485
4.8033164
4.877361
4.9377941
4.9905692
5.0267537
5.0921715
5.1591548
5.2661013
5.349332
5.3947679
5.4024788
5.4264545
5.4694013
5.5634112
5.6053167
5.6663796
5.716625
5.7722509
5.8752676
5.8647861
4.7117267
4.4289357
4.4425889
4.4836949
4.5551172
4.6603262
4.8681306
5.1236883
5.3775515
5.618403
5.8024476
5.995294
6.1769425
6.3277434
6.4839775
6.6772703
6.8702136
7.0339727
7.1820088
7.3205481
7.4394648
7.5355956
7.6361096
7.7489619
7.8683005
7.9562609
8.0089739
8.0719067
8.1637182
8.2521683
8.3052341
8.3348975
8.3957444
8.442639
8.4462686
8.4421354
8.4603887
8.5103167
8.5608667
8.58414
8.6192864
8.6610341
8.718354
8.7729706
8.8120937
8.8159981
8.7920396
8.7550132
8.7566648
8.7715907
8.805155
8.7963266
8.7876304
8.7524904
8.6395808
8.7030228
11.610825
12.522561
12.781817
12.99366
13.04651
13.195145
13.53845
13.948462
14.291428
14.483227
14.707941
14.90477
15.076666
15.162892
15.369559
15.541574
15.569183
15.532935
15.538064
15.600324
15.640334
15.633456
15.659276
15.778593
15.818579
15.804819
15.847727
15.98452
16.07414
16.094398
16.141188
16.292105
16.388832
16.422295
16.438444
16.485312
16.594673
16.760428
16.812776
16.882053
16.941419
17.028723
17.136111
17.153952
17.161333
17.119089
16.974239
16.904117
16.881875
16.901415
16.889186
16.844858
16.682117
16.14049
55.20051
55.873296
55.644376
55.170441
55.031258
55.136271
55.161748
55.15584
55.095739
55.033817
54.987303
54.764018
54.738015
54.691413
54.713674
54.78988
54.7707
54.777017
54.823119
55.00338
55.229071
55.364342
55.337952
55.272633
55.461503
55.670213
55.808679
55.873782
55.838154
55.78244
55.709481
55.685424
55.756477
55.820803
55.870434
55.861762
55.983548
56.287902
56.519739
56.314675
55.854279
55.539112
55.643711
55.992431
56.163505
56.046523
55.738433
55.548045
55.60268
55.874991
56.186508
56.324142
56.212786
55.943771
55.693022
57.268439
17.025015
9.0259313
6.170543
4.5458589
3.6024009
3.0113823
2.6355117
2.4151435
2.2981357
2.2343569
2.1684538
2.0832306
2.058215
2.106452
2.2587009
2.4467316
2.569832
2.6255757
2.6296966
2.6722644
2.883658
3.2256225
3.3871139
3.4517183
3.6152901
3.8387289
61.178
18.306627
9.3917202
6.4370115
4.7900435
3.833004
3.2123158
2.8081785
2.5864209
2.475316
2.4190883
2.3559472
2.2510693
2.1995757
2.2303318
2.3706103
2.5672708
2.6984013
2.7657024
2.7903672
2.8133602
2.9674838
3.3278786
3.4865033
3.5156576
3.6690229
3.9720841
65.278408
19.10361
9.6358006
6.66767
5.0300327
4.0548756
3.4117497
2.9998148
2.7771129
2.6637775
2.6041932
2.5335223
2.4279845
2.3668496
2.3897008
2.4990013
2.6870793
2.8294875
2.9162926
2.9589986
2.983161
3.128419
3.4482226
3.60334
3.6078715
3.7506162
4.12709
69.128521
19.562204
9.8841193
6.9036436
5.2924728
4.3217306
3.651058
3.2091086
2.9679011
2.842841
2.7771972
2.7108117
2.6200794
2.5579272
2.5700071
2.6455931
2.8235428
2.9841396
3.0871804
3.14209
3.1689059
3.2952974
3.5942884
3.7400888
3.7183579
3.8829553
4.3121404
72.752306
20.214215
10.206488
7.1849981
5.6063114
4.6290262
3.9099943
3.4229684
3.1548626
3.0216411
2.9586012
2.9030887
2.8209963
2.7573902
2.7593047
2.8130049
2.9737726
3.1563262
3.2778193
3.349627
3.3669244
3.4608508
3.768345
3.8993642
3.8535822
4.014188
4.4560874
76.926319
21.038212
10.644809
7.5232152
5.9249165
4.9087177
4.1578368
3.6527988
3.374875
3.2415483
3.1843246
3.134215
3.0464396
2.9722048
2.9630197
2.9960702
3.1336436
3.3329058
3.4859455
3.5738447
3.5705278
3.6293902
3.9354507
4.0851726
4.0283643
4.120361
4.5607816
82.157381
22.385028
11.175433
7.8651103
6.2273796
5.1695059
4.4176399
3.9160546
3.6287568
3.4882952
3.4271266
3.3756233
3.2828967
3.1992106
3.1795009
3.1889094
3.308111
3.5167089
3.6924432
3.7911386
3.7740874
3.7968683
4.0722631
4.264031
4.2173373
4.2466316
4.6750434
88.479543
24.124119
11.757467
8.1920427
6.5040606
5.441359
4.7098712
4.2199785
3.9073195
3.7294803
3.6414903
3.5768841
3.4825121
3.3993453
3.3817567
3.3923768
3.5077143
3.7076886
3.8867763
4.0020734
3.9876999
3.9798674
4.208266
4.4080691
4.363043
4.3949863
4.825136
94.882304
25.38076
12.12944
8.4290618
6.7619628
5.7303922
5.0399762
4.5406722
4.1773195
3.9455615
3.82095
3.737023
3.6298645
3.5551542
3.5559369
3.5939788
3.7258936
3.9077826
4.0878144
4.2256488
4.224392
4.1907858
4.369486
4.550625
4.499561
4.5446227
4.9490942
100.3901
26.237243
12.460712
8.6628114
6.997945
5.9880267
5.3197985
4.8010144
4.4020374
4.140803
3.9882859
3.8876817
3.7822254
3.7237687
3.7521862
3.8124219
3.9446827
4.1165499
4.2982747
4.4526273
4.4706299
4.4279134
4.5524886
4.7276292
4.6992654
4.7204655
5.0322124
104.82869
27.251312
12.882127
8.8944294
7.196692
6.2360798
5.5952256
5.0800487
4.6649501
4.3736458
4.1877533
4.070445
3.9677055
3.9244443
3.9618203
4.0241117
4.1568636
4.3239233
4.4909766
4.6457008
4.6961901
4.6724693
4.753301
4.9294447
4.9311776
4.9285555
5.1416311
110.3178
28.343159
13.275013
9.1264376
7.440409
6.5324189
5.9069347
5.3991685
4.9674158
4.6497486
4.4406579
4.3045865
4.188555
4.1337301
4.1612609
4.2244135
4.3716619
4.5248979
4.6629986
4.8146044
4.8966364
4.8911965
4.9572975
5.1521083
5.1733493
5.1331773
5.2854174
118.48634
29.845495
13.799504
9.4756769
7.7389966
6.8317176
6.2328769
5.7281978
5.2813465
4.948944
4.7241029
4.5728251
4.4407214
4.3773895
4.3982015
4.4635166
4.6054453
4.7283042
4.8464991
4.994077
5.0860371
5.0901407
5.1541661
5.3692074
5.4334495
5.3726653
5.4729807
129.164
32.821907
14.695651
9.9421265
8.0400765
7.0819216
6.5193342
6.0560504
5.6183074
5.2603121
5.0080732
4.8421623
4.7247237
4.6814614
4.7087003
4.7563797
4.8556602
4.9554397
5.0604716
5.1968553
5.2786963
5.2959922
5.3686942
5.5625076
5.6569325
5.6521254
5.7201786
139.97489
36.051332
15.612761
10.395779
8.3452237
7.3768351
6.8889626
6.4919642
6.0335475
5.6251911
5.3183662
5.1170497
4.9984712
4.9613074
4.9935181
5.0398984
5.1222514
5.2284037
5.3231616
5.4291167
5.4933337
5.5196396
5.5982016
5.7551697
5.8322553
5.8771849
5.995094
149.24916
38.378985
16.275577
10.712822
8.6472947
7.7691965
7.3552911
6.9577348
6.4493728
5.9803989
5.6214217
5.372634
5.2156845
5.1680435
5.2046227
5.267149
5.3790684
5.5113539
5.6135941
5.7140594
5.7757116
5.7856984
5.8319468
5.9390686
6.0016172
6.0446434
6.2159288
156.00726
39.788753
16.776809
11.014049
8.9569462
8.130872
7.7298883
7.2801057
6.7511611
6.2561456
5.8559884
5.566798
5.3915055
5.3545262
5.4081709
5.5059066
5.6458172
5.7711821
5.883819
6.0253201
6.128993
6.12532
6.0992433
6.1337584
6.1855871
6.2164659
6.3981903
160.96585
41.038918
17.242518
11.335046
9.3010705
8.4556049
8.0053136
7.5205619
6.992146
6.4878536
6.0644022
5.7515323
5.5943597
5.5871575
5.6637916
5.7836085
5.9250607
6.0314087
6.14488
6.3205273
6.4664848
6.4828316
6.4257658
6.3927066
6.4003226
6.4107795
6.571047
168.23976
42.050813
17.6961
11.61391
9.5576541
8.6934456
8.2538911
7.8112246
7.2851997
6.7725805
6.3448497
6.0344179
5.8899481
5.8794958
5.9485576
6.0579205
6.1938789
6.3134385
6.4440105
6.6040628
6.7244252
6.7614491
6.7488448
6.7232957
6.6788407
6.6285565
6.7513432
178.60029
43.779859
18.469319
12.079989
9.8473981
8.909057
8.4731038
8.0912971
7.6192414
7.15074
6.7564461
6.4548666
6.2871117
6.2360293
6.2568706
6.3303544
6.4608433
6.6099332
6.7608198
6.895453
6.9605044
6.9702892
6.9899315
7.035108
7.0205515
6.9096192
6.9525907
190.61668
47.07792
19.528861
12.567988
10.138672
9.1260657
8.6890737
8.3612423
7.9563112
7.544946
7.1951349
6.9200325
6.7352253
6.6552882
6.6349391
6.6663738
6.7803036
6.9168504
7.0487685
7.1606109
7.2022601
7.1849617
7.1875245
7.2605073
7.3183672
7.2529434
7.2217835
202.52063
51.172916
20.75652
13.002331
10.367876
9.3339914
8.9184653
8.6298706
8.2544781
7.8695589
7.5422474
7.2828919
7.1345314
7.0930965
7.1067062
7.1422965
7.2105178
7.2661679
7.3224858
7.39
7.427599
7.4163075
7.392546
7.4228627
7.4957215
7.5424923
7.5373546
214.48815
54.671637
21.849121
13.449583
10.688251
9.6260668
9.2059523
8.914418
8.551878
8.1816792
7.8482033
7.5855149
7.477941
7.4956646
7.5885003
7.6965093
7.7344605
7.6993431
7.6453602
7.6292362
7.6367985
7.6264111
7.5967386
7.5643243
7.5912721
7.6956972
7.7995819
227.32014
57.961352
22.980783
14.038593
11.120587
9.9682139
9.5005729
9.1959525
8.8620039
8.5400221
8.2425708
7.997314
7.8678891
7.8884993
7.9893269
8.124885
8.2129409
8.1799081
8.0630914
7.9470573
7.8821753
7.8330902
7.7650187
7.7027433
7.7008954
7.7918591
7.9490959
240.58623
61.392785
24.315947
14.818542
11.645627
10.293903
9.6723785
9.3342858
9.0722443
8.8695234
8.6889952
8.5314971
8.4052086
8.323247
8.3281131
8.3941704
8.5073995
8.5685512
8.4909763
8.3488477
8.203343
8.0783597
7.9445529
7.8251419
7.8112341
7.9013953
8.0458407
252.90593
64.766937
26.16499
15.835883
12.131451
10.469028
9.7267363
9.3823386
9.2086324
9.1262181
9.0664857
9.0048542
8.9018769
8.7624797
8.6621892
8.6407455
8.6933125
8.7717553
8.7757716
8.7106607
8.5728733
8.3808919
8.1451147
7.9469507
7.8977191
7.9921826
8.1272439
263.16719
68.206768
27.930464
16.565478
12.446654
10.636918
9.8331278
9.4716563
9.3419327
9.3168032
9.3032185
9.2670082
9.1941582
9.0611292
8.9264821
8.867991
8.8624931
8.8765514
8.8715217
8.8856516
8.8563575
8.6826866
8.3896023
8.098782
7.9762457
8.0474381
8.1918941
271.85303
70.238125
29.149065
17.154683
12.778693
10.843493
9.9859406
9.6131025
9.4464345
9.3950208
9.371593
9.3365609
9.2745838
9.1849692
9.0893278
9.027831
8.9818192
8.9308048
8.8940325
8.9165743
8.9601436
8.8968663
8.6415176
8.2889838
8.0840945
8.1018879
8.2453278
279.67227
71.370669
29.926044
17.656904
13.130556
11.056763
10.059421
9.6180434
9.4243599
9.3612524
9.3415425
9.3372861
9.3135288
9.2525621
9.1762465
9.1120218
9.0387968
8.9623608
8.8982064
8.8983553
8.9734119
9.0082236
8.861375
8.5085829
8.2250476
8.1781778
8.313515
287.31291
71.464224
30.549879
18.23433
13.539062
11.205875
9.9847159
9.4610698
9.2625329
9.2238641
9.2552731
9.3493836
9.3776247
9.3370126
9.2402879
9.1430096
9.0771214
9.0053181
8.933837
8.9163945
8.9966021
9.1064249
9.0634131
8.7389487
8.3972923
8.2893356
8.4149212
293.9418
72.706348
32.164338
19.47169
14.189038
11.214845
9.692097
9.074609
8.9148091
8.9540564
9.164708
9.3848198
9.4551516
9.4014969
9.2642489
9.1686716
9.13628
9.0972508
9.0432102
9.0077301
9.0818874
9.2455079
9.3003937
9.0064399
8.6005024
8.4416157
8.5638976
298.24932
74.448521
34.514944
21.001655
14.564777
11.030578
9.3327556
8.8000376
8.7187017
8.8456866
9.1838754
9.4459598
9.5102123
9.4349751
9.2872872
9.2217321
9.237895
9.2471827
9.2024669
9.1354542
9.213447
9.4472809
9.609156
9.3025984
8.8337051
8.6213342
8.7520618
299.21741
75.555101
36.571786
21.608892
14.223381
10.595276
9.167157
8.7597537
8.7179776
8.8961469
9.3076251
9.5552756
9.596119
9.4922762
9.3490317
9.3509061
9.4376967
9.4815339
9.4035047
9.2890945
9.3850206
9.699223
9.9556292
9.650638
9.08585
8.8205537
8.9509625
297.29859
78.056958
37.888644
21.169831
13.655004
10.446005
9.2178857
8.8714911
8.8779562
9.1586657
9.6071862
9.7885061
9.7852917
9.6479613
9.5410634
9.6078401
9.7371624
9.7547919
9.619477
9.4716266
9.5846772
9.9896534
10.312536
10.00501
9.3607859
9.0202068
9.1370613
293.41614
79.696677
36.963213
19.945572
13.269748
10.567624
9.5411694
9.2971787
9.4210767
9.844674
10.208522
10.297946
10.201012
9.9921376
9.9016038
10.014622
10.1623
10.114716
9.8720551
9.6935876
9.812144
10.243804
10.630477
10.387709
9.6743627
9.2332648
9.2917263
286.19879
78.440733
34.310016
19.012474
13.358253
11.046944
10.27604
10.13973
10.386078
10.885228
11.166403
11.191725
10.972965
10.640925
10.511075
10.581164
10.67215
10.565412
10.257813
10.02027
10.092317
10.464928
10.903249
10.781441
10.031292
9.4631249
9.395899
274.37579
74.838774
32.324713
18.952335
13.822365
11.786099
11.134236
11.076789
11.491442
12.122162
12.385625
12.348989
11.964776
11.437514
11.206186
11.195767
11.259179
11.159363
10.819802
10.487086
10.458307
10.726093
11.178551
11.204109
10.442284
9.7334359
9.5227323
256.66289
70.324149
31.604846
19.321711
14.472438
12.507919
11.939393
12.003652
12.662542
13.469511
13.759778
13.638747
13.040786
12.259561
11.891228
11.832758
11.916178
11.883362
11.550026
11.097994
10.888338
11.048189
11.503587
11.668479
10.929727
10.077853
9.730431
235.03182
66.861188
31.421041
19.821316
15.04338
13.129954
12.625747
12.875571
13.784853
14.789101
15.129021
14.892025
14.037462
12.995988
12.517214
12.435374
12.60868
12.668641
12.332931
11.73029
11.342038
11.413532
11.83752
12.116917
11.427905
10.464484
10.02915
214.0794
64.248273
31.313692
20.206367
15.540293
13.680747
13.229446
13.643123
14.775784
15.891459
16.219698
15.819491
14.735524
13.54261
13.032203
12.967547
13.236054
13.324776
12.996124
12.320088
11.790612
11.787137
12.153153
12.421939
11.786033
10.830674
10.364287
197.59886
61.698807
30.904405
20.405081
15.95276
14.181432
13.775313
14.230616
15.385083
16.448359
16.716444
16.206244
15.061064
13.902754
13.449827
13.419495
13.703167
13.755704
13.37196
12.677067
12.1334
12.090838
12.366254
12.519784
11.929613
11.067705
10.639459
185.53342
58.260179
29.836284
20.269535
16.186902
14.548134
14.170567
14.572074
15.554139
16.499802
16.746308
16.251469
15.176665
14.137284
13.713192
13.648293
13.832433
13.848959
13.478827
12.837316
12.350637
12.270509
12.410291
12.422685
11.858738
11.159255
10.831907
176.07552
53.983234
28.302829
19.818523
16.223005
14.738212
14.360776
14.622431
15.364655
16.090419
16.276053
15.888731
15.058811
14.195598
13.794739
13.675738
13.749378
13.756068
13.446957
12.885917
12.445461
12.318348
12.319719
12.150529
11.643631
11.128093
10.927907
167.90572
49.047164
26.52057
19.202119
16.129216
14.816842
14.409218
14.486819
14.826873
15.198641
15.325755
15.154632
14.70251
14.152901
13.793702
13.644664
13.607315
13.529466
13.262686
12.828358
12.440948
12.237763
12.051468
11.76003
11.364904
11.045741
10.937442
160.277
45.545452
25.20539
18.734278
16.043449
14.844848
14.37914
14.282372
14.366219
14.512368
14.58262
14.541043
14.361273
14.090263
13.835636
13.654515
13.506788
13.335108
13.090873
12.777206
12.420762
12.076265
11.721986
11.364327
11.085678
10.933507
10.899506
152.59273
45.369102
24.96353
18.648447
16.06065
14.888308
14.370251
14.182523
14.149125
14.186329
14.226621
14.231567
14.18203
14.066511
13.907149
13.71993
13.511869
13.294308
13.058905
12.766019
12.359986
11.880129
11.42637
11.104515
10.94192
10.890844
10.902157
145.13693
46.14324
25.16909
18.755537
16.157603
14.976944
14.431458
14.210979
14.1472
14.157207
14.182264
14.188062
14.154342
14.075132
13.960543
13.794947
13.577915
13.326203
13.039166
12.683558
12.23236
11.737034
11.288472
11.032082
10.943258
10.9706
10.995895
139.26066
47.396729
25.631163
19.043331
16.389793
15.187236
14.655449
14.444332
14.38205
14.367252
14.339786
14.275917
14.183936
14.084116
13.968408
13.793148
13.538619
13.218198
12.868725
12.512665
12.135087
11.743652
11.37173
11.132487
11.067224
11.094337
11.146254
136.2786
48.407719
26.059552
19.34189
16.638112
15.433092
14.915717
14.726016
14.669268
14.625538
14.532034
14.371283
14.182296
14.000242
13.811451
13.584009
13.281935
12.933107
12.596088
12.320932
12.090247
11.861417
11.603767
11.358991
11.265586
11.310059
11.49172
133.79064
47.245456
25.679929
19.260752
16.667911
15.49387
14.998347
14.822627
14.752242
14.667581
14.486803
14.207626
13.906884
13.667329
13.458751
13.222567
12.938157
12.625135
12.341712
12.166169
12.07997
11.994016
11.850974
11.687617
11.634165
11.801471
12.419673
129.77004
42.607505
24.364458
18.692974
16.358101
15.289135
14.789941
14.533064
14.350556
14.144216
13.868208
13.565228
13.323674
13.16963
13.0695
12.944356
12.744411
12.486639
12.216859
12.052342
12.037077
12.086982
12.139536
12.172464
12.311917
12.759636
13.60955
126.24792
39.051988
23.059115
17.887267
15.7538
14.73983
14.204939
13.868313
13.603694
13.347478
13.070752
12.812706
12.677494
12.645045
12.703454
12.753857
12.702858
12.519037
12.269592
12.094454
12.085086
12.214173
12.415022
12.595014
12.757946
13.064989
13.588915
123.53463
38.146318
22.328377
17.215897