/*--------------------------------*- C++ -*----------------------------------*\
| =========                 |                                                 |
| \\      /  F ield         | OpenFOAM: The Open Source CFD Toolbox           |
|  \\    /   O peration     | Version:  2406                                  |
|   \\  /    A nd           | Website:  www.openfoam.com                      |
|    \\/     M anipulation  |                                                 |
\*---------------------------------------------------------------------------*/
FoamFile
{
    version     2.0;
    format      ascii;
    arch        "LSB;label=32;scalar=64";
    class       volScalarField;
    location    "29";
    object      p_0;
}
// * * * * * * * * * * * * * * * * * * * * * * * * * * * * * * * * * * * * * //

dimensions      [1 -1 -2 0 0 0 0];

internalField   nonuniform List<scalar> 
62344
(
1.0038925
1.0044129
1.003022
1.0070934
1.0141721
1.010757
1.0058309
1.008591
1.0115045
1.0139811
1.0171315
1.0227411
1.0283764
1.0350547
1.0342534
1.0376079
1.041061
1.0427206
1.0383679
1.0418165
1.0400324
1.0324314
1.0323013
1.0381064
1.041682
1.0334091
1.0334519
1.0281151
1.0268249
1.0340055
1.0324201
1.0306429
1.0282459
1.0366485
1.0466167
1.0329667
1.0167889
1.0264141
1.0494938
1.048096
1.027502
1.0046964
0.99524553
1.0007308
1.0213464
1.0457373
1.0549261
1.0440884
1.0256995
1.0254372
1.0392632
1.049624
1.0374019
1.0096653
0.99245856
1.0039626
1.0044289
1.004026
1.009355
1.0141384
1.0096948
1.0046568
1.0073654
1.0120163
1.0135239
1.0169176
1.0237531
1.0298009
1.0346829
1.0345687
1.0349685
1.0414397
1.0451665
1.0401096
1.0386391
1.0384355
1.0339066
1.0310802
1.0358354
1.0394458
1.0343815
1.0337057
1.0264121
1.0280614
1.0353675
1.0341399
1.0314487
1.0279688
1.036366
1.0447434
1.0339336
1.0277577
1.0383853
1.0443489
1.0330863
1.0135329
1.0133591
1.0188743
1.0149859
1.0196327
1.0422352
1.0659228
1.0636085
1.0344905
1.0012177
0.99241154
1.0120085
1.0377026
1.0442427
1.0345962
1.0046684
1.0041185
1.0040639
1.0124961
1.0152456
1.0091123
1.0036824
1.0049095
1.0109062
1.01259
1.0158328
1.0245953
1.0310483
1.0325778
1.0344987
1.0360595
1.0384447
1.0430953
1.0432818
1.0410476
1.036829
1.0351912
1.0311627
1.0364135
1.0381814
1.0365353
1.0353748
1.0282973
1.0299924
1.0366173
1.0345994
1.030424
1.0280753
1.0367646
1.0422535
1.0320374
1.0299845
1.0400103
1.0458832
1.0317011
1.0133356
1.0101136
1.0230361
1.0304632
1.0266073
1.0339763
1.0491993
1.0537338
1.0379704
1.0107822
0.99018526
0.98899707
1.0123984
1.0422284
1.0603136
1.005167
1.0039683
1.0037678
1.0133714
1.0156704
1.0091618
1.0044136
1.0045115
1.0092648
1.0119992
1.0145874
1.0236588
1.0308604
1.030774
1.0322831
1.0381375
1.0375527
1.0401055
1.0426252
1.0430881
1.0367572
1.0366507
1.0338358
1.0380719
1.0377688
1.0355335
1.0349506
1.0281589
1.0314337
1.0377177
1.0346091
1.029031
1.0282553
1.0383374
1.0401299
1.0303706
1.0323301
1.0432478
1.0432218
1.0283582
1.0128616
1.0102968
1.023598
1.040055
1.0416981
1.033135
1.0277972
1.0301202
1.036779
1.0332149
1.0165362
1.0013843
1.0000472
1.017185
1.0438666
1.0050478
1.0042249
1.0039199
1.0119315
1.0152757
1.0095062
1.0047974
1.0051684
1.0086118
1.0119907
1.014439
1.0225242
1.0296872
1.029724
1.0309397
1.0391948
1.0386678
1.040444
1.0418889
1.0430271
1.0371362
1.0373157
1.0367757
1.0395122
1.036649
1.0339214
1.0329396
1.0277136
1.0334043
1.039363
1.0357267
1.0290091
1.0286926
1.039793
1.0387476
1.0299525
1.0346613
1.0442188
1.0395144
1.0271345
1.0159137
1.0138805
1.0229462
1.0400552
1.0493806
1.0390345
1.0201166
1.0131461
1.0240721
1.04091
1.0433718
1.0317816
1.0175138
1.0080036
1.0109898
1.0045743
1.004855
1.004473
1.0098073
1.0143802
1.0099545
1.0048818
1.0060526
1.0090365
1.0121223
1.0147819
1.0215968
1.0277405
1.0292975
1.030835
1.0381064
1.0386283
1.0415676
1.0416757
1.0418385
1.0371188
1.0368766
1.0376113
1.0409237
1.0353095
1.03362
1.031985
1.0285944
1.0353721
1.0405602
1.0364164
1.0282528
1.0289937
1.0399977
1.0370035
1.0301226
1.0372948
1.0452008
1.0375993
1.0252466
1.0211007
1.0216482
1.0247727
1.0353074
1.0468911
1.0444453
1.0283214
1.0156228
1.0151365
1.0298567
1.0477035
1.051575
1.0409576
1.022519
1.0049831
1.0042329
1.0056974
1.005125
1.0086648
1.0141056
1.0102471
1.0044401
1.0062712
1.0099431
1.0118021
1.0150625
1.0211466
1.0264805
1.029632
1.0316038
1.0364837
1.0375148
1.0418276
1.0416628
1.0406373
1.0373556
1.0368114
1.0371557
1.0415164
1.0349774
1.0341186
1.0321961
1.0299344
1.0367522
1.0409837
1.0359326
1.0273566
1.0295226
1.0395564
1.0348379
1.0305033
1.0399883
1.0461892
1.0367799
1.0244984
1.0247355
1.0300395
1.0314549
1.0323079
1.036905
1.0389735
1.0342885
1.0267801
1.0213884
1.0222938
1.0351509
1.0481872
1.0498252
1.0397371
1.0212073
1.0043162
1.0062496
1.0055911
1.0092525
1.0148851
1.0104556
1.0038693
1.0059646
1.0103799
1.0110914
1.0149062
1.0211471
1.0261867
1.030667
1.0321977
1.0346196
1.037025
1.0415737
1.0416067
1.0398326
1.0383273
1.0379894
1.037324
1.0409975
1.0351685
1.0345751
1.0329372
1.0303673
1.0373137
1.041484
1.0359694
1.0272352
1.0303644
1.038994
1.0329615
1.0308812
1.0416571
1.0470171
1.0361949
1.0244686
1.026205
1.0354164
1.0388762
1.0343504
1.0290825
1.0287637
1.0336295
1.0382148
1.0351515
1.026951
1.0240901
1.029284
1.0392971
1.0428493
1.0372643
1.0047789
1.0062396
1.005676
1.0111741
1.0162243
1.010611
1.0035913
1.0054505
1.0100261
1.0101743
1.0143916
1.0214499
1.026326
1.0316641
1.0322953
1.0331413
1.0375646
1.0414077
1.0414564
1.0393245
1.0391176
1.0399406
1.0388286
1.0406418
1.0356388
1.0350498
1.0335605
1.0306321
1.0376969
1.0421922
1.0370733
1.0287167
1.0319512
1.0386023
1.03169
1.0318812
1.0427359
1.0464881
1.0358788
1.0255257
1.0276069
1.0372199
1.04416
1.0397195
1.0277347
1.0213564
1.028124
1.0402174
1.0454714
1.0376603
1.0247488
1.0170724
1.0206747
1.0312645
1.0386238
1.0053238
1.0057415
1.0054244
1.0134692
1.0174028
1.0105986
1.0039387
1.0050258
1.0089704
1.0094884
1.0138245
1.0218761
1.0265628
1.0320703
1.0321568
1.032579
1.0381655
1.0412939
1.0410954
1.038928
1.0390375
1.0411806
1.0405132
1.0412625
1.0359036
1.0353003
1.0336042
1.0309252
1.0381576
1.0428388
1.0384292
1.0312872
1.0342785
1.0380364
1.0306524
1.0326725
1.0433858
1.0451328
1.03508
1.0276978
1.0296552
1.0377769
1.0456726
1.0432106
1.0306149
1.0197618
1.0224353
1.0341892
1.0462902
1.0462158
1.0332742
1.0182145
1.0110226
1.0158257
1.0276974
1.0057124
1.0050531
1.0050844
1.0151213
1.0179932
1.0103475
1.0045899
1.0047407
1.0077148
1.0093411
1.0133936
1.0220998
1.0268688
1.0316521
1.0320012
1.0327703
1.0385746
1.0414453
1.0407831
1.0392608
1.0382835
1.0412581
1.0410354
1.0419078
1.0358061
1.0352225
1.0331129
1.031064
1.0387214
1.0430075
1.0392481
1.033917
1.0368007
1.0374154
1.029592
1.0330358
1.0436236
1.0435832
1.034343
1.0296645
1.0329715
1.0394547
1.0440808
1.0427512
1.0338244
1.0234342
1.0220893
1.0284455
1.0398343
1.0469455
1.0419137
1.0279755
1.0137166
1.0077756
1.0145153
1.0058609
1.0045469
1.0049313
1.0157147
1.017875
1.0099938
1.0051015
1.0045864
1.0068364
1.0096986
1.0133142
1.0221237
1.0272746
1.0304276
1.0316812
1.033635
1.0387318
1.041444
1.0403131
1.0400394
1.0379142
1.0405272
1.0406588
1.0417322
1.0355774
1.0348513
1.0324391
1.0311112
1.0388349
1.0425839
1.039028
1.0357136
1.0390495
1.0372631
1.0289654
1.0333488
1.0439828
1.0425803
1.0330398
1.0308084
1.0366996
1.0420199
1.0429929
1.0395342
1.0332366
1.0283273
1.0272222
1.0276095
1.0326659
1.0403942
1.042348
1.0352771
1.0217752
1.011513
1.0093697
1.0057148
1.0045026
1.0051001
1.0151545
1.017216
1.009688
1.005296
1.0045539
1.0065604
1.0103567
1.0134741
1.0219533
1.0277741
1.0290269
1.0310639
1.0350294
1.0387097
1.0411017
1.0398606
1.0409464
1.0381868
1.039702
1.0403498
1.0413555
1.0355948
1.0343598
1.0317742
1.031104
1.0385284
1.0415404
1.0377662
1.0365278
1.040946
1.0379282
1.0289624
1.0338087
1.044156
1.0419834
1.0323058
1.0310809
1.0396667
1.0453775
1.0431761
1.0362945
1.0311658
1.0312808
1.0329733
1.031993
1.0295106
1.0323867
1.036331
1.0368137
1.0300355
1.0205964
1.0146537
1.0053289
1.0048326
1.0055013
1.0138717
1.016337
1.0094834
1.0050608
1.0046024
1.0069994
1.011086
1.0137235
1.0217283
1.0283346
1.0280425
1.0304911
1.0362347
1.0387931
1.0405529
1.0397736
1.0417837
1.038876
1.0392254
1.040535
1.0414669
1.036142
1.033961
1.0312238
1.0311132
1.0382134
1.0404712
1.036221
1.0366565
1.0426425
1.03904
1.0296784
1.0340887
1.0438121
1.041149
1.031782
1.0311566
1.0409271
1.04818
1.0448442
1.0345617
1.028397
1.0312797
1.0365622
1.0375668
1.0318998
1.0277395
1.0284328
1.0313655
1.0332859
1.0299747
1.0246707
1.0048509
1.0053866
1.0059483
1.0123554
1.0155306
1.0093904
1.0045143
1.0047413
1.0079735
1.0116581
1.0140058
1.0215769
1.0289331
1.0276989
1.0299256
1.0369085
1.0389604
1.0400573
1.0400115
1.0423808
1.0395621
1.039207
1.0410644
1.0423886
1.0371366
1.033905
1.0310288
1.0313917
1.0382009
1.0398705
1.0351298
1.0365973
1.0438076
1.0404234
1.0309167
1.0344973
1.0428784
1.040316
1.0315695
1.031036
1.0408474
1.0499978
1.0471996
1.0350633
1.0265329
1.0294897
1.0370139
1.0414236
1.0372102
1.028153
1.0224307
1.023935
1.0297234
1.034263
1.0343811
1.0044325
1.0059662
1.0063403
1.0110541
1.0149165
1.0093417
1.0038097
1.0049168
1.0091582
1.0119617
1.0142791
1.0215655
1.0295676
1.0280153
1.0296083
1.0370596
1.0389522
1.0399266
1.0404898
1.0427028
1.0400155
1.0395351
1.0414736
1.0437524
1.0382479
1.0340219
1.0311907
1.0317369
1.0384795
1.0396993
1.0348176
1.0365825
1.0442369
1.0415633
1.0325185
1.0349356
1.04137
1.0390626
1.0314075
1.0313194
1.0403151
1.0506151
1.04935
1.0369331
1.0265932
1.02749
1.0346931
1.0427089
1.0423843
1.0319718
1.0210996
1.0177336
1.0229773
1.0325032
1.039285
1.0041455
1.0064474
1.0065861
1.0101453
1.0145479
1.0094321
1.0031312
1.0050053
1.0101451
1.01204
1.0144434
1.0216718
1.030057
1.0287614
1.0295956
1.0370292
1.038763
1.0401341
1.0411504
1.0427671
1.0401637
1.0400674
1.0417577
1.0450398
1.0392105
1.0340846
1.0314153
1.0320439
1.0387486
1.0397738
1.0350975
1.0367171
1.0440539
1.0421804
1.0339641
1.0351611
1.039653
1.0374005
1.0313278
1.031905
1.0400993
1.0501347
1.0506029
1.039449
1.0289054
1.0270627
1.0325784
1.0413014
1.0451103
1.0368322
1.0234985
1.014906
1.0164568
1.0268966
1.0383826
1.0040442
1.0067647
1.0066733
1.0097534
1.0145246
1.0095416
1.0026627
1.0049916
1.010698
1.0119184
1.0144276
1.0218537
1.0302954
1.029598
1.0298682
1.0368348
1.0383657
1.0403923
1.0417978
1.0425911
1.0399685
1.0405789
1.042081
1.0459443
1.040014
1.0341342
1.0316478
1.0323411
1.038723
1.0398003
1.0357267
1.0370082
1.0436816
1.0422554
1.0353285
1.03538
1.0377598
1.0352098
1.0310273
1.0329213
1.0403914
1.0493193
1.0505724
1.0415229
1.0319291
1.0288079
1.0318797
1.0393237
1.0450048
1.0400287
1.0280242
1.0157623
1.0131718
1.0207748
1.0335872
1.0040915
1.0068174
1.0065843
1.0098536
1.014701
1.0097562
1.0025266
1.0050114
1.0107674
1.0117044
1.0142715
1.0220949
1.0302902
1.0303579
1.0303794
1.0365572
1.0379861
1.0406405
1.0422934
1.0422674
1.0395281
1.0408817
1.0424776
1.0464512
1.0406481
1.0342623
1.0316514
1.03234
1.038204
1.0395891
1.0364268
1.0373969
1.0430083
1.0418774
1.0364507
1.0357376
1.0359057
1.03254
1.0303264
1.0339781
1.0413129
1.0489828
1.049615
1.0423033
1.0348009
1.0317506
1.0332169
1.0379859
1.0431319
1.0407626
1.0316779
1.0194039
1.0134689
1.0165635
1.0272447
1.0042584
1.0065931
1.0063532
1.0102817
1.0150421
1.0099791
1.0027333
1.0050283
1.0104467
1.0114082
1.0140641
1.0223554
1.0300599
1.0309503
1.0309659
1.036221
1.0377272
1.0409059
1.042602
1.0418821
1.0389847
1.0408254
1.043136
1.0467744
1.0410222
1.0345022
1.0315794
1.0321373
1.0374288
1.0393822
1.0374116
1.0382658
1.0425763
1.0413989
1.0375706
1.0364382
1.0346126
1.0298108
1.0289267
1.0347182
1.04282
1.0492367
1.0482488
1.0418741
1.0369681
1.0350287
1.0360597
1.0385314
1.0406578
1.03977
1.0330479
1.0235312
1.016905
1.0166846
1.0229075
1.0044973
1.0061872
1.0060074
1.0109665
1.0155077
1.0101731
1.0032425
1.0050589
1.0098614
1.011046
1.0138371
1.0226043
1.0296462
1.0313098
1.0315223
1.0357474
1.0376384
1.0411925
1.042843
1.0416555
1.0384506
1.0402496
1.0434411
1.0469994
1.0411995
1.034745
1.0314813
1.0318422
1.0364726
1.0388937
1.0384835
1.0391847
1.0422966
1.0410892
1.0385397
1.0374957
1.0340465
1.0273329
1.0270689
1.0347354
1.0447159
1.049994
1.0474425
1.0405775
1.0376695
1.0378594
1.0395729
1.0402794
1.0395044
1.0373802
1.0325482
1.0268402
1.0216135
1.0195879
1.0216624
1.0047855
1.0057141
1.0056113
1.0117987
1.0160376
1.0103158
1.0039125
1.0050788
1.009165
1.0106394
1.0135965
1.0228004
1.0291106
1.0314749
1.0321224
1.0353087
1.0376827
1.0414964
1.0431465
1.0415437
1.0380375
1.0395474
1.0436422
1.0471565
1.041479
1.0350459
1.0314557
1.0316308
1.0356307
1.0384175
1.0395723
1.0403266
1.0421528
1.0410456
1.039522
1.0388585
1.0343609
1.0257079
1.0248993
1.0340708
1.046235
1.051623
1.0472096
1.0393476
1.0370041
1.0396955
1.0431226
1.0431148
1.0402739
1.0353075
1.0313773
1.0282866
1.0256112
1.023969
1.0232884
1.005076
1.0052524
1.0052343
1.0126292
1.0165832
1.0104561
1.0046252
1.0051169
1.0084502
1.0102406
1.0133822
1.0229773
1.0285663
1.0314558
1.0325567
1.0348137
1.0377441
1.0418182
1.043335
1.0416196
1.0377205
1.0385182
1.043231
1.0472294
1.0417536
1.0352563
1.0314756
1.0313337
1.0347547
1.0379162
1.0403229
1.041437
1.0422142
1.0412152
1.0403338
1.0404327
1.0352915
1.0249671
1.0226338
1.0326762
1.0469939
1.0535065
1.0476604
1.0385741
1.0356225
1.0402494
1.0458739
1.0465829
1.0422231
1.0344358
1.0293886
1.0279
1.0280049
1.0282824
1.0266455
1.0053452
1.0048652
1.0048736
1.0133933
1.0170397
1.0105685
1.0052939
1.0051461
1.007809
1.0099136
1.0131809
1.0231029
1.0280064
1.0314028
1.0329617
1.0343712
1.0379816
1.0420327
1.0438742
1.0418647
1.037561
1.0376042
1.0426091
1.047328
1.0420921
1.0355066
1.0315593
1.031045
1.0340809
1.0374141
1.0408279
1.0424704
1.0422825
1.0414612
1.0410022
1.0419044
1.0368218
1.0251394
1.0208145
1.0306251
1.0471357
1.0551943
1.049004
1.0381507
1.0341751
1.0396459
1.0473303
1.0500963
1.0449353
1.0352628
1.0279486
1.026273
1.0288427
1.0312443
1.030477
1.0055484
1.0045642
1.0046091
1.0139925
1.0173753
1.0106866
1.0058532
1.0051837
1.0073261
1.0096299
1.0129776
1.0231353
1.02741
1.0312685
1.0332057
1.0340697
1.0380364
1.0421747
1.0442082
1.0420975
1.0374993
1.0368318
1.0418157
1.0473372
1.0424426
1.0358184
1.0317176
1.0307937
1.0335329
1.0368733
1.0411013
1.0432503
1.0424527
1.0416404
1.0413208
1.0430473
1.038429
1.0259847
1.0196027
1.0282061
1.0465585
1.0568532
1.0508311
1.0382027
1.0327169
1.0382283
1.0474337
1.0529547
1.0480268
1.0375562
1.0276616
1.0242808
1.0280786
1.0324517
1.0340077
1.0056958
1.0043664
1.004451
1.0144255
1.0177124
1.0107806
1.0061692
1.0052087
1.006961
1.0094323
1.0128629
1.0234208
1.0270791
1.0312287
1.0334145
1.0337614
1.0381571
1.0422135
1.0447089
1.0423631
1.037596
1.0362561
1.0412212
1.0474169
1.0428157
1.0361315
1.0317897
1.0305525
1.0330263
1.0363683
1.0411057
1.0440811
1.0426617
1.0418359
1.0415127
1.0438486
1.0400714
1.027339
1.0178693
1.0257175
1.0447369
1.0579858
1.0538579
1.0394383
1.0319303
1.0357068
1.0460938
1.0543718
1.0515897
1.0410928
1.0289419
1.0226268
1.0251165
1.0311698
1.035413
1.0057532
1.0042564
1.0043553
1.0145978
1.0178258
1.0108777
1.0064898
1.0052424
1.0067511
1.0093115
1.0125802
1.023146
1.0267419
1.0310363
1.0333889
1.0336075
1.0380205
1.0419775
1.0447683
1.0426434
1.0378338
1.0359625
1.0404369
1.0473117
1.0432148
1.0367729
1.0322459
1.0305218
1.0326851
1.0357845
1.0405111
1.0438487
1.0429967
1.0419527
1.0415357
1.0440749
1.0415562
1.0299424
1.0186065
1.0233209
1.0408613
1.0556989
1.0556235
1.0420388
1.0334562
1.0338619
1.0440335
1.0525038
1.0530001
1.044814
1.0329207
1.0247324
1.024326
1.0294194
1.0348045
1.0359817
1.0334479
1.0296226
1.0259436
1.0238134
1.0243636
1.0279802
1.0337839
1.0402983
1.0448335
1.0453786
1.040785
1.0310294
1.0203335
1.0148511
1.0187586
1.0297969
1.0392156
1.0395926
1.0237614
1.0004908
0.9967052
1.0244932
1.0633873
1.069051
1.0270193
1.0012036
1.0217767
1.018944
1.0172644
1.0178066
1.0210544
1.026265
1.0322889
1.0377646
1.0411392
1.0413496
1.0368657
1.028785
1.021616
1.0197137
1.0258449
1.0379122
1.0479779
1.0484077
1.0347717
1.009402
0.99207565
1.0011702
1.0314777
1.060251
1.0573765
1.0293259
1.025312
1.0107498
1.0095527
1.0124038
1.0166105
1.0214629
1.0258125
1.0284778
1.0289617
1.0265426
1.0208575
1.0135105
1.0087628
1.0099086
1.019309
1.0342743
1.0470088
1.0516722
1.0436507
1.0234082
1.005259
1.0036368
1.0198102
1.0359543
1.041821
1.0298961
1.0268823
1.0411923
1.0174374
1.0210997
1.0251729
1.0273662
1.0278225
1.0260731
1.021895
1.0154547
1.0073754
0.99932954
0.99573521
0.99816354
1.0074323
1.0203201
1.0313185
1.0368904
1.033142
1.0192053
1.006809
1.0093605
1.0272875
1.0442381
1.0448467
1.0240068
1.0045596
1.0138123
1.0307613
1.0382088
1.0420443
1.0425434
1.0404729
1.035831
1.0286864
1.0197406
1.0104279
1.0023123
0.99925213
1.0019292
1.0097666
1.0194359
1.0253124
1.0247534
1.0157488
1.0003611
0.98874616
0.99134607
1.0136028
1.0437893
1.0612706
1.0535317
1.0212191
0.99668487
0.99734826
1.0021277
1.0507128
1.0507806
1.0468258
1.0412172
1.034575
1.0275689
1.0211336
1.0168221
1.0176383
1.0227688
1.0305428
1.0379294
1.0408359
1.0352297
1.0200191
0.99947171
0.97958768
0.97470136
0.98783817
1.0142183
1.0414177
1.0570959
1.0503423
1.0274209
1.0078268
0.99069527
0.9856891
1.0394794
1.0346122
1.0290579
1.0241231
1.0204261
1.019043
1.0214319
1.0283552
1.0382005
1.0484854
1.0565438
1.0590245
1.0541025
1.0401602
1.0197786
0.99810633
0.98710003
0.98998345
1.0039725
1.0195185
1.0303256
1.0330859
1.0283515
1.0249969
1.0204237
1.0005205
0.99865282
1.0098141
1.0046889
1.0021486
1.002048
1.0050689
1.0119607
1.0218833
1.0330806
1.0434788
1.0516056
1.0554718
1.0522067
1.041645
1.028102
1.015744
1.0098516
1.0153099
1.0258702
1.0348939
1.0364008
1.0260872
1.0094687
0.99914437
1.0042522
1.0147492
1.0187591
1.0318224
0.98843124
0.98636281
0.98972644
0.99611604
1.0045022
1.0134259
1.0211079
1.0267438
1.0301027
1.0298634
1.0255149
1.0171041
1.007603
1.0020253
1.0059248
1.021125
1.0413279
1.0577938
1.0641284
1.0549948
1.0327697
1.004123
0.98197766
0.9796717
0.99411461
1.0273608
1.0612744
0.99580147
1.0009372
1.0084651
1.0145483
1.0190346
1.0210177
1.0201589
1.0161786
1.0083743
0.99785806
0.98703531
0.97844384
0.97588904
0.98198467
0.9983644
1.021787
1.0449091
1.0631358
1.0687712
1.0609123
1.0405362
1.0118955
0.98618469
0.97460256
0.98237508
1.0211723
1.0604263
1.0336686
1.0393136
1.0418528
1.0409955
1.0369027
1.0295234
1.0191449
1.0066778
0.99328439
0.98021078
0.96979228
0.9667767
0.97078159
0.98265361
0.99933494
1.0163807
1.0303397
1.0415967
1.0450971
1.0410584
1.031848
1.0183464
1.0045122
0.99500174
0.99754564
1.0153742
1.0322854
1.0644625
1.0665176
1.0615709
1.0534004
1.0429258
1.0308183
1.0183203
1.0062128
0.9948349
0.9875996
0.9863668
0.99091829
0.99937555
1.0077131
1.0134556
1.015638
1.0141908
1.0094177
1.005362
1.0033398
1.0044384
1.0089529
1.0189896
1.0292139
1.0343838
1.0263215
1.0031982
1.0537183
1.0480293
1.0407927
1.0337896
1.0268982
1.0206388
1.0154585
1.0126275
1.0135532
1.0193111
1.0278542
1.0367188
1.0433373
1.0442113
1.0386949
1.0265396
1.0091681
0.98992552
0.97470118
0.96707644
0.97110883
0.98780642
1.0177354
1.0544139
1.0711031
1.0472932
0.99647975
1.0066039
1.0005954
0.99575385
0.9928992
0.99297007
0.99660561
1.0046353
1.017149
1.0329622
1.0497927
1.0646179
1.074962
1.0783206
1.0738749
1.061945
1.0416765
1.0171628
0.99115129
0.96835688
0.95437731
0.95303673
0.96857021
1.0045796
1.0512298
1.0786495
1.0601405
1.0140086
0.96273662
0.95762399
0.95818282
0.96217522
0.969625
0.98106065
0.9964828
1.0146943
1.0336788
1.0515629
1.0663038
1.0764776
1.0802483
1.077135
1.0666932
1.0511036
1.0307448
1.0080309
0.98509587
0.96787643
0.96110537
0.96911055
0.994297
1.0280931
1.0516936
1.0462012
1.0335306
0.94918702
0.94976885
0.95583124
0.96379653
0.97471962
0.98747156
1.0000891
1.0107651
1.0196851
1.0280947
1.0357861
1.0420208
1.0458408
1.0467987
1.0457195
1.0418065
1.0350512
1.0250574
1.0132613
1.0025201
0.99592186
0.99579039
0.99985514
1.0038321
1.0063451
1.0103136
1.0306373
0.973458
0.97998167
0.98815505
0.99605021
1.0024058
1.0062714
1.008332
1.0086313
1.007018
1.0039418
1.0003266
0.99763395
0.99705635
0.9988228
1.0029935
1.0091166
1.0170149
1.026304
1.0356842
1.0434049
1.0458599
1.0399652
1.0226364
0.99537274
0.97075208
0.97180441
1.0035366
1.0273885
1.0320443
1.0337888
1.0327314
1.029726
1.0249043
1.0184109
1.0100761
1.0006194
0.9910543
0.98155683
0.97244674
0.96491515
0.9606102
0.96101878
0.96754624
0.98173407
1.0050009
1.0357949
1.0675914
1.0879024
1.0843116
1.0525492
1.0053016
0.9652088
0.95088577
0.97087397
1.0669039
1.0697292
1.0661738
1.0598017
1.0513314
1.0414039
1.0307549
1.0193447
1.0066148
0.99296948
0.97945348
0.96689407
0.95604191
0.94628164
0.93973743
0.94044618
0.95127623
0.97559651
1.0136268
1.0581288
1.093336
1.1027965
1.0796658
1.0318756
0.98422894
0.95624696
0.95667321
1.0728464
1.0729098
1.0693183
1.0654787
1.0606902
1.0539956
1.0448762
1.0336774
1.0212928
1.0080095
0.99375583
0.97890447
0.96445545
0.95185492
0.94223022
0.93856854
0.94427215
0.9612683
0.98729261
1.0230247
1.0578928
1.0774155
1.0773274
1.0561649
1.0216403
0.98741202
0.9693498
1.0592361
1.0574358
1.0555952
1.0537216
1.051836
1.049727
1.0466668
1.041613
1.0345311
1.0256503
1.0148525
1.002542
0.98997807
0.97720998
0.96688801
0.9622385
0.96304186
0.96798892
0.97546381
0.9860215
1.0003259
1.0202855
1.0383638
1.0525876
1.0528756
1.0327386
1.0055192
1.043502
1.0423157
1.0405631
1.0386332
1.0366335
1.0347813
1.0335136
1.0328307
1.0321474
1.0311283
1.0292478
1.0263029
1.0225305
1.0180232
1.0120893
1.0063764
1.0009438
0.99273241
0.98058149
0.96566389
0.95439406
0.95839191
0.98092217
1.0157531
1.0506741
1.0657291
1.0493173
1.0257936
1.0236573
1.0218287
1.0202592
1.0187846
1.0175338
1.0164747
1.0164514
1.0183429
1.0227305
1.0295236
1.0381296
1.0479101
1.0574769
1.0638042
1.0619381
1.0499947
1.0277784
0.99676788
0.9649224
0.93681709
0.92186688
0.93211147
0.96696785
1.0149178
1.0598264
1.0771068
1.0020229
0.99969309
0.99822642
0.99712063
0.99651585
0.99650485
0.99735993
0.99923217
1.0028176
1.0093602
1.0203044
1.0365221
1.0573987
1.080108
1.0994014
1.1076761
1.0969578
1.0675656
1.0253274
0.97970941
0.9417559
0.916394
0.9106323
0.92992925
0.97459211
1.0278512
1.0698371
0.97583013
0.97391875
0.97332464
0.97334412
0.97396361
0.97550641
0.97848863
0.98347014
0.99093806
1.0011696
1.0146857
1.0325065
1.0549451
1.0802211
1.1044587
1.1202445
1.1200728
1.0984515
1.0586913
1.0090158
0.96437135
0.93340229
0.9174025
0.92076954
0.94848202
0.9959635
1.0414996
0.95825396
0.95727495
0.95753058
0.95853815
0.96051911
0.96378935
0.96893511
0.97654874
0.98694211
0.99997255
1.0149762
1.0320638
1.0496516
1.0675014
1.0858509
1.0991496
1.1049863
1.0978769
1.0749362
1.0407659
0.99946596
0.96616874
0.94306551
0.93488132
0.94656834
0.97687669
1.013249
0.95414273
0.95427258
0.95613313
0.95873069
0.96266644
0.96790361
0.97500529
0.98381482
0.9942372
1.006175
1.0191342
1.0318353
1.0428201
1.0510914
1.0573153
1.0629809
1.0659697
1.0668838
1.0631506
1.0519639
1.0314014
1.0042564
0.97918337
0.96341065
0.96002725
0.97223065
0.99486628
0.96236081
0.9637244
0.96683521
0.97083855
0.9761093
0.98258543
0.99012924
0.99853218
1.0073363
1.0161358
1.0241596
1.0304925
1.0341438
1.0347211
1.0319586
1.0291492
1.0259903
1.0270685
1.0341879
1.0415435
1.0428665
1.0332021
1.0139441
0.9952345
0.98005505
0.97643056
0.9832092
0.976962
0.97865776
0.98139563
0.98543677
0.99065116
0.99693256
1.0040127
1.0115556
1.0188724
1.0249413
1.0289852
1.0301386
1.0282175
1.0231438
1.0146737
1.0043964
0.99734919
0.99632
1.0048445
1.0207698
1.0372673
1.0450063
1.0382306
1.0203587
0.99764831
0.98068982
0.97451733
0.98837888
0.98975236
0.99222218
0.99590889
1.0007813
1.0066004
1.0130127
1.0195937
1.0255303
1.0300513
1.0320364
1.0305163
1.025222
1.016742
1.0051567
0.99084644
0.98103829
0.97856922
0.98524781
1.003241
1.0279263
1.0485155
1.0527675
1.0376144
1.0095057
0.98117695
0.96466412
0.99554738
0.99685443
0.99927588
1.0028486
1.0074965
1.0130145
1.0189307
1.0242749
1.0283879
1.0304992
1.0298691
1.0260712
1.0190653
1.0089761
0.9962622
0.98208164
0.97249859
0.97049858
0.97769857
0.99738904
1.0259071
1.0525113
1.0645055
1.050894
1.0161441
0.9786945
0.95307352
1.0050331
1.006246
1.0083721
1.0112973
1.0148157
1.0185455
1.0219696
1.0245673
1.0258493
1.0253025
1.0224057
1.0166268
1.0080158
0.99733293
0.98487192
0.97343495
0.9658993
0.96637605
0.97610035
0.997731
1.0296091
1.0604254
1.0775673
1.0632185
1.0238661
0.97601255
0.94224191
1.0184608
1.0191674
1.0202776
1.0214894
1.0226197
1.0233676
1.0234272
1.022434
1.0199613
1.0158658
1.0099981
1.0024206
0.99327492
0.98303318
0.97239616
0.96340322
0.95898292
0.96333259
0.97636781
0.99979567
1.0342522
1.0697719
1.0908268
1.0767695
1.0327102
0.97805569
0.9345896
1.0335141
1.0334358
1.0329544
1.0319313
1.030209
1.0276223
1.0240535
1.0193483
1.0133244
1.0060602
0.99778053
0.9888718
0.9800207
0.97156255
0.9627212
0.95668298
0.95395238
0.95867842
0.97225499
0.9962004
1.0321135
1.0716075
1.0996473
1.0922001
1.0468776
0.98499141
0.93307958
1.0458514
1.0453484
1.0439253
1.041395
1.0376068
1.0323887
1.0256794
1.017671
1.0088812
1.000046
0.99161546
0.98342147
0.97525544
0.96763974
0.96008783
0.95335503
0.94816257
0.94916043
0.96012838
0.98359999
1.0227657
1.0681211
1.1041018
1.1070595
1.0630935
0.99761736
0.93766225
1.0564337
1.0554722
1.053122
1.0491767
1.0436986
1.0369577
1.0292342
1.0207862
1.0118822
1.0029792
0.99448782
0.98631263
0.97810987
0.9692973
0.95976892
0.95006523
0.94181162
0.93570188
0.94360161
0.96644237
1.0067611
1.0571275
1.1027864
1.1184238
1.0806702
1.0127202
0.94451753
1.0585405
1.057619
1.055508
1.0520499
1.0473372
1.0415818
1.0349
1.0275009
1.019756
1.011772
1.0033803
0.99441055
0.98518575
0.97460321
0.96148971
0.94732475
0.93321182
0.92180801
0.92524824
0.94670722
0.98923042
1.0445568
1.0989539
1.124636
1.0943002
1.0256499
0.95248931
1.0543396
1.0536989
1.0522187
1.0498136
1.0466008
1.042616
1.0379599
1.0327253
1.0268524
1.0202764
1.0124838
1.0030306
0.99247281
0.97977828
0.96364538
0.94521801
0.92617151
0.91187851
0.90987905
0.93199973
0.97654732
1.0347572
1.0940896
1.1257706
1.1006479
1.0338146
0.95950155
1.0434614
1.0434228
1.0431386
1.0425326
1.0415129
1.0399359
1.0378122
1.0350954
1.03164
1.0269501
1.0204574
1.011575
1.0006304
0.98626385
0.967057
0.94477202
0.92251861
0.90681091
0.90262581
0.92455677
0.96950179
1.0290451
1.0889546
1.1209928
1.0980077
1.034936
0.96396635
1.0250012
1.0256227
1.0267621
1.0284027
1.0306133
1.0331498
1.0355444
1.0371832
1.0373467
1.0351342
1.030112
1.0219549
1.0101911
0.99372101
0.97188647
0.9470183
0.92267473
0.90510468
0.90124093
0.92416191
0.96935963
1.027414
1.0829697
1.1087292
1.0835989
1.0273182
0.96548499
1.0003923
1.0021145
1.0055291
1.0106723
1.0172677
1.0246916
1.0322018
1.0387169
1.0429731
1.0441065
1.0415654
1.0343835
1.0212537
1.0014324
0.97616659
0.94908508
0.92445392
0.90752486
0.90627261
0.93318971
0.97775207
1.0308989
1.0752806
1.0873905
1.0573449
1.0072808
0.95907721
0.97782392
0.98029777
0.98532333
0.99294215
1.0028831
1.0145321
1.0268441
1.0383361
1.0473534
1.0523964
1.0519483
1.0449401
1.0306843
1.0075461
0.97874088
0.95035283
0.92664492
0.91470206
0.92197597
0.95302857
0.99692334
1.0400214
1.0663092
1.0576129
1.0194358
0.97528229
0.94230565
0.96700092
0.96912386
0.97340763
0.98033856
0.98984732
1.0017075
1.0152107
1.0290241
1.0415507
1.0501827
1.0526325
1.0466952
1.0315987
1.0082509
0.98088099
0.95533036
0.9386129
0.93643236
0.95355122
0.9873153
1.0224226
1.0468116
1.0471286
1.0187444
0.97436029
0.93591665
0.91744181
0.96679575
0.96820236
0.97104
0.97579521
0.9824921
0.99109311
1.0014127
1.012557
1.0231878
1.0312775
1.0344986
1.0303411
1.0185808
1.0021505
0.98475637
0.97237401
0.97019471
0.98124985
1.0026515
1.0268784
1.0413474
1.0399186
1.0147048
0.97156633
0.92898335
0.90058539
0.89351737
0.97205119
0.97247416
0.97356688
0.97544086
0.97824228
0.98217958
0.98714333
0.99245344
0.99742586
1.0010849
1.0025455
1.0015099
0.99909237
0.99757666
0.99911971
1.0066821
1.021232
1.038639
1.0534685
1.0594351
1.0478861
1.0181363
0.97394038
0.92837342
0.89300011
0.87305539
0.87656097
0.97369488
0.97374311
0.97357527
0.97353405
0.97327425
0.97249617
0.97152943
0.97066916
0.97026068
0.97073595
0.9739321
0.98059184
0.99253311
1.0096365
1.0307984
1.0529146
1.0718237
1.0834438
1.0836432
1.0677628
1.0338134
0.98699709
0.93826836
0.89870933
0.87191337
0.86174025
0.87349673
0.96161138
0.96209364
0.96221538
0.96143715
0.9599429
0.95830038
0.95659031
0.95593926
0.9574804
0.96310957
0.97436022
0.99165782
1.0142441
1.039592
1.0644929
1.0841876
1.0939503
1.0912259
1.0741891
1.0432863
1.0027607
0.95893734
0.91927986
0.88914143
0.87256135
0.87361773
0.89366109
0.93431951
0.93521737
0.9367133
0.93944591
0.94383907
0.94995937
0.95867686
0.97021125
0.98485618
1.0014318
1.0183708
1.034445
1.0483491
1.0596571
1.0663504
1.0679619
1.0630559
1.0500583
1.0293733
1.0029562
0.97297526
0.94377298
0.9186684
0.90093279
0.89780255
0.91148317
0.9385376
0.91498271
0.9167383
0.92397736
0.93567323
0.9516343
0.97161611
0.99451417
1.0178738
1.0389899
1.0547541
1.062848
1.0622273
1.0535329
1.0391671
1.0222171
1.0055997
0.99055503
0.97804946
0.96768452
0.95873809
0.95144917
0.94664902
0.94542543
0.94718132
0.95265384
0.96675895
0.98704489
0.95923571
0.96072281
0.96703125
0.97912339
0.99461532
1.0119399
1.0286202
1.0425131
1.0514542
1.053994
1.0487765
1.0348768
1.0135367
0.98776601
0.96070881
0.93638296
0.91834284
0.90991434
0.91264919
0.92612327
0.94686929
0.97037823
0.99302772
1.0127403
1.0255705
1.027286
1.018206
1.0703929
1.0649306
1.057599
1.0484814
1.0375915
1.0255052
1.013898
1.0036448
0.99429868
0.98444754
0.97357847
0.96166314
0.94808977
0.93255114
0.91600938
0.90067035
0.89029481
0.8887563
0.89949682
0.92368582
0.95856119
0.99801156
1.0344521
1.0603782
1.0706938
1.0602478
1.0304594
1.1132269
1.1094337
1.0935083
1.0700367
1.0416137
1.0114793
0.98196584
0.95479449
0.93140454
0.91325634
0.90049638
0.89211743
0.88853584
0.89036118
0.89617533
0.90538599
0.91702981
0.93134544
0.94798005
0.96685149
0.98903814
1.0136259
1.0344235
1.0445019
1.0397303
1.0208669
0.99326753