/*--------------------------------*- C++ -*----------------------------------*\
| =========                 |                                                 |
| \\      /  F ield         | OpenFOAM: The Open Source CFD Toolbox           |
|  \\    /   O peration     | Version:  2406                                  |
|   \\  /    A nd           | Website:  www.openfoam.com                      |
|    \\/     M anipulation  |                                                 |
\*---------------------------------------------------------------------------*/
FoamFile
{
    version     2.0;
    format      ascii;
    arch        "LSB;label=32;scalar=64";
    class       volScalarField;
    location    "29";
    object      rho_0;
}
// * * * * * * * * * * * * * * * * * * * * * * * * * * * * * * * * * * * * * //

dimensions      [1 -3 0 0 0 0 0];

internalField   nonuniform List<scalar> 
62344
(
1.0014597
1.0027439
1.0012063
1.004238
1.0096525
1.0071576
1.0033717
1.0051796
1.0073907
1.0092897
1.0115867
1.0155364
1.0195167
1.0240137
1.0235715
1.0263929
1.029124
1.0302715
1.0274027
1.0302388
1.0287794
1.0234551
1.0234139
1.0278963
1.0305451
1.024463
1.0247474
1.0212937
1.0204805
1.0260255
1.0254787
1.0242897
1.0225242
1.0291433
1.036296
1.026653
1.0157697
1.024277
1.042301
1.0427148
1.02969
1.0147854
1.0099905
1.0159964
1.0337114
1.0547433
1.0643473
1.0575593
1.0447987
1.0444852
1.0535566
1.0602366
1.0518518
1.0335828
1.0235326
1.0015807
1.0028905
1.0020869
1.0059683
1.0094949
1.0060908
1.0022235
1.0041349
1.0076042
1.0089019
1.01132
1.0160633
1.0201565
1.0235633
1.0234202
1.0241611
1.0292629
1.0319508
1.0283132
1.0275033
1.0272978
1.0241447
1.0221855
1.0258332
1.0285402
1.024657
1.0244224
1.0195137
1.0208538
1.0263474
1.0260223
1.0244922
1.0222412
1.0287704
1.0346419
1.0269819
1.0234782
1.0317727
1.0363762
1.0293438
1.0169778
1.0192145
1.0249656
1.0248657
1.0317952
1.0516043
1.071078
1.0707253
1.0507157
1.0280721
1.0235581
1.039107
1.0588827
1.0648226
1.0586186
1.0020761
1.0025771
1.0020956
1.0082692
1.0099484
1.0053143
1.0013659
1.0023163
1.0067764
1.0081991
1.0105726
1.0168439
1.0212984
1.022548
1.0240413
1.0251236
1.027034
1.0304434
1.0304734
1.0289487
1.0259976
1.0250428
1.0221484
1.0260547
1.0273043
1.0259938
1.0254351
1.0207703
1.022292
1.0272257
1.0262367
1.0236333
1.0223714
1.029213
1.0330456
1.0260119
1.025129
1.0329081
1.0371393
1.0269537
1.0147649
1.014315
1.0262204
1.0334879
1.0330778
1.0413813
1.0546584
1.059872
1.0509468
1.0341233
1.0221272
1.0240911
1.0433724
1.0668332
1.080867
1.0024003
1.0023042
1.0017911
1.0087576
1.0100953
1.0053717
1.0021414
1.0022818
1.005783
1.0078011
1.0097681
1.0164774
1.0217381
1.0218326
1.0231188
1.0271167
1.0265118
1.028355
1.0301173
1.0304808
1.0261359
1.026389
1.0242538
1.0274047
1.0270027
1.025288
1.0251103
1.0207008
1.0233517
1.0280956
1.0261894
1.0224181
1.0223967
1.0302563
1.0316106
1.0248522
1.0267802
1.0350647
1.0350398
1.0243062
1.0136321
1.0131995
1.0251364
1.038982
1.0409065
1.0353823
1.0330697
1.0373056
1.0455684
1.0463739
1.0379251
1.0304542
1.032277
1.0469566
1.0685174
1.0022647
1.0024266
1.0018112
1.0076236
1.0099296
1.0059354
1.0027354
1.0029298
1.0054164
1.0078036
1.0096558
1.0157855
1.0211474
1.0212275
1.0223226
1.0281458
1.0274767
1.0286777
1.0297732
1.0307216
1.026675
1.0271325
1.0265369
1.028512
1.0262387
1.024071
1.0235772
1.0202325
1.0246208
1.029193
1.026807
1.0221675
1.0225215
1.031122
1.0304976
1.0245115
1.0282857
1.0353542
1.0321642
1.0233228
1.0154783
1.0154235
1.0241739
1.0387007
1.0458643
1.0380741
1.0251814
1.0224896
1.033785
1.0495212
1.0543174
1.0487637
1.0411138
1.035829
1.0403574
1.001919
1.0029362
1.0022207
1.0060691
1.0095498
1.0065597
1.0029204
1.0036053
1.0057353
1.0079551
1.0099305
1.0149973
1.0194923
1.0204485
1.0217123
1.0270444
1.0272839
1.0293597
1.0296228
1.029946
1.0267044
1.0266546
1.0269948
1.0293217
1.0251268
1.0237177
1.0227827
1.0206661
1.0258527
1.0299229
1.0271814
1.0215544
1.0226691
1.0310298
1.0290965
1.0246304
1.0300899
1.0357189
1.0304023
1.0218268
1.0191409
1.0203558
1.0245492
1.0344888
1.0439588
1.0422117
1.0309758
1.0232604
1.0253733
1.0398021
1.0559729
1.0611508
1.0554205
1.043562
1.0323186
1.0017089
1.0036435
1.0027273
1.0052915
1.0095783
1.0068673
1.0025195
1.0037212
1.0063874
1.0078154
1.0102235
1.0145231
1.0181993
1.0201486
1.0216105
1.0253299
1.0261266
1.0293512
1.0294704
1.0288763
1.0266342
1.026217
1.0262976
1.0294758
1.0246999
1.0240685
1.0230087
1.0216741
1.0268339
1.030198
1.0268761
1.0210152
1.0231864
1.0306679
1.0275135
1.0250219
1.0321228
1.0364858
1.0298274
1.0214538
1.0221578
1.026556
1.02885
1.0310662
1.0359431
1.0385092
1.0360109
1.0315283
1.0287727
1.0320113
1.0445995
1.0564328
1.0597501
1.0541247
1.0423093
1.0018074
1.0041051
1.0031121
1.0058271
1.0102121
1.006948
1.0019229
1.0034096
1.0066313
1.0072873
1.0100729
1.0143586
1.0177038
1.0206487
1.0216559
1.0236424
1.025544
1.0289783
1.0292531
1.0280863
1.0271022
1.0268401
1.0262314
1.0289301
1.0247877
1.02461
1.0238316
1.0222685
1.0273888
1.0305557
1.026824
1.0209364
1.0238597
1.0303644
1.0263154
1.0254945
1.0337016
1.0375125
1.0297266
1.0218563
1.0238538
1.0310409
1.0339985
1.0312548
1.0287691
1.0304471
1.0357069
1.0399336
1.0381426
1.0330098
1.0329132
1.0390946
1.0491141
1.0540502
1.0522635
1.0021613
1.0041101
1.0031788
1.0072239
1.0109816
1.0068137
1.0014895
1.0028474
1.0062069
1.0065061
1.0096075
1.014466
1.0177513
1.0215285
1.0218899
1.0226809
1.0260424
1.0288835
1.0291238
1.0276991
1.0276765
1.0282726
1.0273488
1.0287592
1.0252297
1.0251896
1.0245974
1.0227494
1.027811
1.031008
1.0274239
1.0218609
1.0249808
1.0300617
1.0255383
1.0265096
1.0348966
1.0376872
1.0300764
1.02308
1.0254848
1.0331721
1.0382556
1.0346191
1.0265038
1.0239211
1.0311491
1.0416388
1.0460188
1.0400914
1.0310713
1.0269963
1.0321143
1.0425318
1.0508089
1.0025423
1.0037046
1.0029948
1.0089036
1.0116619
1.0065893
1.0016294
1.0023979
1.0053252
1.0059566
1.0092097
1.0148413
1.0180995
1.0222302
1.0222993
1.0227131
1.0268726
1.0290906
1.0290539
1.0276085
1.0278939
1.0294497
1.0288555
1.0294675
1.0256445
1.0254908
1.0247382
1.0230316
1.0281446
1.0313818
1.0282123
1.0234957
1.0264417
1.0295151
1.0247728
1.0271313
1.0354927
1.0369478
1.029832
1.0248391
1.0270794
1.034099
1.0399198
1.0372359
1.0278802
1.0214582
1.0259727
1.0370707
1.0474829
1.047238
1.0372631
1.0265008
1.0227028
1.0288223
1.0406655
1.0028244
1.0031234
1.0027595
1.0101207
1.011985
1.0063392
1.0022253
1.0022935
1.0045112
1.0058623
1.0088809
1.0151334
1.0186401
1.0224414
1.0227717
1.023353
1.0276584
1.0295916
1.0290814
1.028098
1.0277294
1.0299405
1.0296813
1.0302269
1.0257085
1.0253962
1.0242541
1.0229524
1.0284203
1.0313601
1.0286052
1.0251498
1.0279229
1.028732
1.0237304
1.0270894
1.0353646
1.0356631
1.029221
1.026066
1.0291958
1.035249
1.0390817
1.0374954
1.0304522
1.0235272
1.024675
1.0323055
1.0433582
1.049444
1.0453556
1.0347174
1.0245928
1.0220023
1.0296453
1.0029209
1.0027106
1.0026418
1.0105235
1.0118535
1.0061694
1.002875
1.0024496
1.0040839
1.0062
1.0088516
1.0153378
1.0192787
1.0219632
1.0230356
1.0244207
1.0280783
1.0298312
1.0289166
1.028793
1.0276928
1.0297043
1.0296881
1.0302889
1.0256133
1.0250381
1.0235675
1.02279
1.0283948
1.0310475
1.0284617
1.0264072
1.029322
1.0282804
1.0229111
1.0267461
1.035042
1.0344434
1.0278837
1.0264835
1.031334
1.0365096
1.0381807
1.035716
1.030815
1.0273281
1.02771
1.0304954
1.0376726
1.0457
1.0477609
1.0423454
1.0326076
1.0259299
1.0258451
1.0027956
1.0026605
1.0027243
1.0100776
1.0113682
1.0060699
1.00321
1.0025993
1.0040125
1.0067239
1.0090016
1.0153456
1.0198336
1.0210361
1.022707
1.0255011
1.0280434
1.0295833
1.0286116
1.0294279
1.0278079
1.0291239
1.0294995
1.0300579
1.0256088
1.0245971
1.0229396
1.0226404
1.0281692
1.0304357
1.0277934
1.0271888
1.0306916
1.0286057
1.0225683
1.0266437
1.0346178
1.0334545
1.0268303
1.0262552
1.0330402
1.0383842
1.0379635
1.0336511
1.0300999
1.0300644
1.0317848
1.0328382
1.034166
1.0395146
1.0442349
1.0456303
1.0410717
1.0346099
1.030623
1.0025009
1.0029015
1.0029894
1.009122
1.010836
1.0060416
1.0030648
1.0026481
1.0043553
1.0072502
1.0091733
1.0151954
1.0201779
1.0200685
1.0220164
1.0260413
1.0277457
1.0288994
1.0283797
1.0299023
1.0280962
1.0285762
1.0294374
1.0300083
1.0258811
1.0242434
1.0224666
1.0225555
1.0279426
1.0298027
1.0269608
1.0275795
1.0321415
1.0294756
1.023008
1.0266395
1.0339902
1.0324922
1.0260866
1.0259987
1.0337374
1.040031
1.0386548
1.0321545
1.0283665
1.0304453
1.034391
1.0361986
1.0343706
1.0343097
1.0374766
1.0419204
1.0447939
1.0427639
1.0387494
1.0021637
1.0033424
1.0033074
1.0079964
1.010385
1.006069
1.0026073
1.0026798
1.0050164
1.0076518
1.0093627
1.0149914
1.0203592
1.0193435
1.0210301
1.0259525
1.02733
1.0281178
1.028286
1.0301602
1.0283694
1.0282592
1.0295364
1.030457
1.0265001
1.0241885
1.0222876
1.0226817
1.0278648
1.0293887
1.0262985
1.0277417
1.0331083
1.030578
1.0238924
1.0268704
1.0332356
1.0318295
1.0258053
1.0257748
1.0336629
1.0411905
1.0398134
1.0318295
1.026591
1.0289633
1.034549
1.0383143
1.0366245
1.0320498
1.0305915
1.0345939
1.0411404
1.0454545
1.0454835
1.0018826
1.0038146
1.0035956
1.0070284
1.0100326
1.0061054
1.0020343
1.0027315
1.0058259
1.0078832
1.0095547
1.014847
1.0205097
1.0190782
1.0202331
1.0255412
1.0268611
1.0276641
1.0284167
1.0302836
1.028559
1.0282273
1.029588
1.0312111
1.0272094
1.0243081
1.0224463
1.0228997
1.02794
1.0291385
1.0260375
1.0277454
1.0334076
1.0313371
1.0249856
1.0271394
1.0321834
1.0309892
1.0256895
1.0258978
1.0332912
1.0415145
1.0408858
1.0323302
1.0257012
1.0267877
1.0323567
1.0385154
1.0385781
1.0320069
1.0262775
1.0267656
1.0333911
1.0419266
1.047289
1.001711
1.0042143
1.0038014
1.0063874
1.0098431
1.0062183
1.0015164
1.0027975
1.0065158
1.0079597
1.0097086
1.0148607
1.0206451
1.0192814
1.019876
1.0252646
1.0265219
1.0276259
1.0287896
1.030311
1.0286395
1.0284689
1.0296287
1.0319478
1.0278113
1.0243966
1.0227157
1.023157
1.0280744
1.0290175
1.0260577
1.0276535
1.0330984
1.031619
1.0258519
1.0271383
1.0309587
1.0298502
1.0257718
1.0263754
1.0330778
1.041017
1.0413661
1.033389
1.0262924
1.0255264
1.0299916
1.0365076
1.0389329
1.0329011
1.0246002
1.0209262
1.0249267
1.0345527
1.0438189
1.0016628
1.0044908
1.0038981
1.0061258
1.0098606
1.0063194
1.0011603
1.0027843
1.0068835
1.0078754
1.0097413
1.0149706
1.0207266
1.0197763
1.0199983
1.0251055
1.0262276
1.0277813
1.0292525
1.030226
1.0285672
1.0287983
1.0297281
1.0324159
1.0282965
1.0244466
1.0229817
1.0234384
1.0280149
1.0288807
1.0262658
1.0275241
1.0324798
1.0313883
1.0265962
1.0270417
1.029476
1.028268
1.025601
1.0272031
1.0332433
1.0402491
1.0410609
1.0343439
1.0275865
1.0257521
1.0285501
1.0342501
1.0376548
1.0333737
1.0251695
1.0182195
1.0189869
1.0266038
1.0373061
1.0017094
1.0045411
1.00384
1.0061979
1.0099984
1.0064606
1.001038
1.0027608
1.0068626
1.0076791
1.0096149
1.0151126
1.0206955
1.0203541
1.0204449
1.0250123
1.0260719
1.0280422
1.0296386
1.0300306
1.028315
1.0290478
1.0299588
1.0326589
1.028642
1.0244869
1.0229813
1.023469
1.0276152
1.0285933
1.0265399
1.0274949
1.0316483
1.0308
1.0271385
1.0270384
1.0279448
1.0262174
1.0250607
1.0279465
1.0338416
1.039802
1.0402262
1.0347308
1.0291445
1.0271188
1.0289083
1.0327987
1.0359416
1.0331612
1.0263902
1.0186367
1.0163695
1.0206241
1.0300112
1.0018249
1.0043648
1.0036779
1.0065224
1.0102219
1.0065743
1.0011292
1.0026889
1.0065449
1.0073886
1.0094114
1.0152643
1.020543
1.0208871
1.0210255
1.0249458
1.0260582
1.0283409
1.0298528
1.0297277
1.0279344
1.0290601
1.0304657
1.0328618
1.0287784
1.0245099
1.0228148
1.023272
1.0270204
1.0283711
1.0270847
1.0278551
1.0310749
1.0302059
1.0277609
1.027351
1.0267789
1.0240363
1.0238883
1.0284094
1.0348537
1.0398537
1.0392226
1.0344952
1.0307684
1.0292644
1.030817
1.0332404
1.0347141
1.0330824
1.0274977
1.021004
1.0173866
1.0188362
1.0248341
1.0019821
1.0040445
1.0034264
1.0070323
1.010509
1.0066502
1.0014434
1.00263
1.0060599
1.0070489
1.0091836
1.0154153
1.0202899
1.0213215
1.0216249
1.0248033
1.0261978
1.0287029
1.0300396
1.0295194
1.0275308
1.0287232
1.0307606
1.033088
1.0288686
1.0245396
1.0225876
1.0229496
1.0262714
1.0279918
1.0277539
1.0283718
1.0307017
1.0298891
1.0283574
1.027986
1.0261746
1.0220321
1.0223461
1.0282903
1.0361278
1.0403436
1.0386124
1.033894
1.0316371
1.0316698
1.0335346
1.0350355
1.0348894
1.0328989
1.0286904
1.0243596
1.0208528
1.0204366
1.023008
1.0021866
1.0036747
1.0031381
1.0076563
1.0108447
1.0066949
1.001927
1.0026214
1.0055485
1.0067197
1.0089697
1.0155682
1.0199944
1.0216953
1.0223079
1.0247203
1.0264904
1.0291583
1.0303641
1.0294517
1.0272457
1.0283534
1.0311176
1.0334501
1.0292195
1.0247929
1.0225422
1.0227929
1.0257071
1.0277534
1.0286243
1.0292583
1.0306591
1.0299173
1.0291259
1.0290149
1.0263204
1.0207875
1.0206941
1.0277539
1.0371126
1.0415037
1.0385253
1.0333957
1.0317825
1.0337907
1.0366572
1.0377393
1.0365084
1.0332376
1.0303573
1.0277673
1.025602
1.0246783
1.0245923
1.0023952
1.0033149
1.0028652
1.0082969
1.0112019
1.0067813
1.0025251
1.0027255
1.0051227
1.0064992
1.0088643
1.0157936
1.0198074
1.0220412
1.022957
1.0246987
1.0268501
1.0297599
1.0307801
1.029658
1.0271311
1.0278194
1.0311564
1.0339037
1.0298095
1.0252187
1.0227458
1.0227341
1.025295
1.0276631
1.0294216
1.0302844
1.0309778
1.0303037
1.0298633
1.0303132
1.0271043
1.0203638
1.0191716
1.0267218
1.0375579
1.0426912
1.0389137
1.0331133
1.0314068
1.0349602
1.0393508
1.0407334
1.0386183
1.0339101
1.0310962
1.0302026
1.0301789
1.0302145
1.0288196
1.0025993
1.0030133
1.0026274
1.0089156
1.0115604
1.0069262
1.0031984
1.0029581
1.0049044
1.0064788
1.0089075
1.0161152
1.0197526
1.0225108
1.0237215
1.0248059
1.0274718
1.0304097
1.0316357
1.0301494
1.0272679
1.0274504
1.0311303
1.0344844
1.0306021
1.0259425
1.0232478
1.0229038
1.0251725
1.0276762
1.0301509
1.0313605
1.0314235
1.0308856
1.030614
1.0315074
1.0283451
1.0206633
1.0181784
1.0254555
1.0376578
1.0436042
1.0397811
1.0328418
1.0307786
1.035097
1.0409009
1.0433883
1.0405997
1.0349153
1.0310189
1.0308516
1.033202
1.0349061
1.0339489
1.002778
1.0028196
1.0025168
1.0094858
1.0119568
1.007221
1.0039243
1.0033673
1.0049577
1.0066566
1.0090984
1.0164737
1.0197347
1.0229038
1.0244208
1.0251159
1.0280311
1.031054
1.0323893
1.0307485
1.0275628
1.0272162
1.0308686
1.0348237
1.0313142
1.0266973
1.0238777
1.0231861
1.0252066
1.0277047
1.0306958
1.0321855
1.03184
1.0313744
1.0311267
1.0324331
1.0294773
1.0212826
1.017584
1.0240902
1.0373806
1.044574
1.0407881
1.0325847
1.0298249
1.0342464
1.0411197
1.0451348
1.0420339
1.0357034
1.0301563
1.0295385
1.0334817
1.0370738
1.0380771
1.0030695
1.0028592
1.0026602
1.0101176
1.0125625
1.0077308
1.0046257
1.0038811
1.005212
1.0070176
1.0094319
1.01702
1.0198214
1.0232221
1.0249731
1.0253451
1.0285857
1.0315699
1.0332631
1.0314192
1.0280363
1.0271722
1.0307514
1.0350704
1.0317749
1.0272257
1.0243487
1.0234703
1.0252942
1.0277842
1.0310985
1.0330609
1.0321355
1.0317665
1.0315345
1.0330591
1.0303893
1.0217902
1.0160119
1.0223493
1.0361831
1.0452196
1.0421236
1.0326169
1.0285021
1.0322016
1.0399924
1.0456398
1.0432886
1.0360072
1.0283235
1.0256456
1.0293374
1.0349114
1.0385731
1.00363
1.0032374
1.0030637
1.0106552
1.0131327
1.0083266
1.0053286
1.0043201
1.0054598
1.0073522
1.0095559
1.0170734
1.0197239
1.0231413
1.0250522
1.0254175
1.0287258
1.0316746
1.0336542
1.0319949
1.0285345
1.0272792
1.0304652
1.0351689
1.0321402
1.0276924
1.0247517
1.0236633
1.0253174
1.0277132
1.0310901
1.0332717
1.0325524
1.0319271
1.0317282
1.0334246
1.0314135
1.0232174
1.0157646
1.0200609
1.0329949
1.0434595
1.0427991
1.0333773
1.0280066
1.0297025
1.0379655
1.0442364
1.0441934
1.0377192
1.029037
1.0238307
1.0248348
1.0300567
1.0352388
1.0373038
1.0366566
1.0345111
1.0307304
1.0274051
1.0266971
1.0294575
1.0345714
1.0405109
1.0453788
1.0479843
1.0470074
1.0417285
1.0350729
1.0317421
1.0353436
1.0444096
1.0521579
1.0535565
1.0435538
1.0285832
1.0281394
1.0511168
1.0834162
1.0894423
1.0558001
1.0325164
1.0269819
1.0256568
1.0258164
1.0257032
1.0271311
1.0305688
1.0352034
1.0389482
1.0411039
1.0418658
1.0403772
1.0371742
1.0347276
1.0355902
1.0419786
1.0525985
1.0610078
1.0615413
1.051498
1.034122
1.0239833
1.0332573
1.0574376
1.0816801
1.0818972
1.0599713
1.052762
1.0191588
1.0196281
1.0237737
1.0267352
1.0301015
1.0333697
1.0346095
1.0332834
1.0302618
1.0266461
1.0237784
1.0241226
1.0288813
1.0390305
1.0523135
1.0631232
1.0668463
1.0599714
1.0443071
1.0320934
1.0337227
1.0484186
1.0624384
1.0697561
1.0630289
1.0593309
1.0653609
1.0242188
1.0294
1.0348044
1.03712
1.0380567
1.0363286
1.0312173
1.0241123
1.0171971
1.0126903
1.0135925
1.0202848
1.0320848
1.0454626
1.055747
1.0605875
1.0568383
1.0443471
1.0335934
1.0363085
1.0524094
1.0678282
1.0716326
1.0596999
1.0469164
1.0511079
1.0583819
1.0396906
1.0456147
1.04871
1.0488693
1.0462448
1.0398056
1.0306418
1.021838
1.015813
1.0159272
1.0219869
1.0330856
1.0456212
1.0542201
1.0561408
1.0496949
1.0363886
1.0249541
1.0248937
1.0418552
1.0663383
1.0824259
1.0804437
1.06073
1.0446175
1.0414946
1.040164
1.0491269
1.052391
1.0529896
1.0511741
1.046407
1.0394121
1.0321678
1.0279814
1.0295245
1.0358952
1.0458205
1.0565736
1.0643183
1.0649961
1.0563028
1.0410676
1.0246247
1.0180201
1.0259263
1.0458491
1.0686873
1.0828834
1.0797509
1.0670955
1.0560778
1.0405755
1.0332105
1.0422602
1.041833
1.041555
1.0399603
1.0365285
1.0332837
1.0330559
1.0377193
1.0457352
1.0555659
1.0653352
1.0724604
1.0747957
1.0698402
1.0576448
1.0420389
1.0327756
1.032476
1.0412725
1.0542025
1.0662375
1.0700167
1.0660801
1.0663903
1.0676404
1.053094
1.0482724
1.0224703
1.0214794
1.0237284
1.024989
1.0259617
1.0289705
1.0347436
1.0426039
1.0506427
1.0582442
1.0644009
1.0670076
1.0652435
1.0606595
1.0546781
1.0517186
1.0553365
1.0616699
1.0674014
1.0707574
1.0682905
1.058263
1.0487308
1.0527246
1.0650846
1.0718798
1.0779208
1.0090888
1.0105783
1.0165968
1.0218153
1.026773
1.03177
1.0366567
1.0408706
1.0434133
1.0441549
1.0437686
1.0424039
1.041153
1.0422675
1.0483785
1.0608927
1.0756612
1.087067
1.0916374
1.0874702
1.0766854
1.0591522
1.0413117
1.0380438
1.052371
1.0821569
1.1032604
1.0167267
1.0235022
1.0318748
1.0364453
1.038962
1.0399198
1.0394496
1.0361757
1.0299337
1.0232167
1.0186559
1.0177163
1.0218199
1.0314002
1.0460855
1.0640412
1.0805685
1.093557
1.0977233
1.0938405
1.0839583
1.0681761
1.0495893
1.0393775
1.0478528
1.0800911
1.104851
1.0462721
1.0530037
1.0567229
1.0565807
1.0540823
1.0493292
1.0415267
1.0310321
1.0204452
1.0123235
1.0091583
1.0138126
1.0242292
1.0388549
1.0533445
1.0658917
1.0755132
1.0827358
1.0840561
1.0812057
1.0783975
1.0746383
1.0672486
1.0599025
1.0635618
1.0783262
1.0870007
1.0684613
1.0717687
1.0706098
1.0667677
1.0611771
1.052992
1.0427322
1.0318306
1.0227862
1.0200336
1.0251313
1.0365668
1.0514253
1.0644088
1.0717996
1.0737172
1.071588
1.0660695
1.0603222
1.0572668
1.0600585
1.0687955
1.0807547
1.0900715
1.0948152
1.0890284
1.0694072
1.0599494
1.0575071
1.0558022
1.0543139
1.0517087
1.0472037
1.0414185
1.0373586
1.0384866
1.0468081
1.0600358
1.075528
1.0892409
1.09705
1.0970235
1.0889888
1.0752603
1.0588938
1.0446542
1.0365296
1.0395387
1.0555022
1.0821707
1.1116469
1.1246235
1.1070128
1.0688099
1.026227
1.0242837
1.0256882
1.0276568
1.0291329
1.0304938
1.0340434
1.041703
1.0546123
1.0716426
1.0902148
1.1074289
1.1192672
1.1235188
1.1188707
1.1051802
1.086771
1.0662496
1.046955
1.0342326
1.0323715
1.0459519
1.0758238
1.1111506
1.1310151
1.1182245
1.0850593
0.99710266
0.99659289
1.0022211
1.0087323
1.0145264
1.0213842
1.0300991
1.0418892
1.0573504
1.0754741
1.0943477
1.1117791
1.1244352
1.1297704
1.1262978
1.1163325
1.1017323
1.0844378
1.0658193
1.0512326
1.0455626
1.0529477
1.0728792
1.0967336
1.1124105
1.1093585
1.1019034
0.9909856
0.99553905
1.0054186
1.0135503
1.0210017
1.028249
1.0352086
1.0426998
1.0520246
1.0639638
1.0780213
1.0923649
1.1044206
1.1120268
1.1149025
1.1134893
1.1093559
1.1021958
1.0928489
1.083932
1.0789374
1.0797605
1.0825506
1.0828488
1.0815921
1.0849679
1.1016931
1.0135497
1.0225507
1.0321927
1.0394008
1.0430885
1.0441694
1.0446467
1.0460551
1.0492559
1.0541657
1.0606279
1.0682498
1.0763458
1.0833231
1.0889172
1.0941745
1.1003115
1.1075499
1.1149214
1.1209927
1.1235027
1.1196397
1.1053009
1.0817784
1.0604309
1.0600942
1.084131
1.0572714
1.0638752
1.0680413
1.0678038
1.0648115
1.0606285
1.0564479
1.0529411
1.0510454
1.0514853
1.0539139
1.057383
1.06076
1.0633007
1.0655447
1.0701297
1.0798109
1.0968276
1.1201169
1.1442264
1.1603947
1.1587189
1.134333
1.0958386
1.0628792
1.0501931
1.063954
1.0869654
1.09192
1.0922776
1.0894585
1.0842088
1.0777448
1.0713332
1.0657756
1.0612312
1.0584786
1.05798
1.0593803
1.061448
1.0611654
1.0588851
1.0591062
1.0657957
1.0826384
1.1101569
1.1424322
1.1685262
1.1769896
1.1609506
1.1236307
1.0846566
1.0612827
1.0594278
1.0918077
1.0945904
1.0959519
1.0965238
1.0953416
1.0921868
1.0872287
1.0813278
1.0766186
1.0742097
1.0739839
1.0750087
1.0757182
1.0747247
1.0714334
1.0693229
1.0725399
1.0833389
1.0997654
1.1231926
1.1472061
1.162436
1.164077
1.1484555
1.1208434
1.0926744
1.0762135
1.0838437
1.0865165
1.0903689
1.0928944
1.0937747
1.0934436
1.092202
1.0903992
1.0897473
1.0916677
1.0958912
1.1015205
1.1064116
1.1073411
1.1044029
1.1020557
1.1015016
1.1021934
1.102972
1.1052277
1.111548
1.1252724
1.1395494
1.1507334
1.1510873
1.1352746
1.1114602
1.0768528
1.0804937
1.0853448
1.0879984
1.0885238
1.0875662
1.086496
1.0874693
1.0921392
1.1018472
1.1158119
1.1319591
1.1468391
1.1566036
1.1586151
1.1551073
1.1483777
1.1369656
1.1205798
1.1017531
1.0873225
1.0866837
1.1022307
1.1278576
1.1545996
1.1669235
1.1530401
1.0700514
1.0732659
1.0781482
1.0808632
1.0812783
1.0804534
1.0796689
1.0817247
1.0896996
1.1055076
1.1289107
1.1572079
1.1857271
1.2087915
1.2216851
1.2213499
1.2077193
1.1826637
1.1489363
1.1152024
1.0859671
1.0695283
1.0734809
1.0971214
1.1324106
1.1674512
1.1804402
1.0589048
1.0620456
1.0670784
1.0697424
1.0704367
1.0702483
1.0713943
1.0762547
1.0876939
1.1075804
1.1365831
1.1731832
1.2129608
1.2485658
1.272955
1.2809724
1.2679508
1.2356548
1.1906731
1.1429582
1.1036456
1.0772936
1.0671561
1.0765668
1.1079044
1.1476672
1.1794061
1.0460964
1.0493761
1.054602
1.0576661
1.058825
1.0597919
1.0629988
1.0712722
1.0873244
1.1119656
1.1447861
1.1842593
1.2269706
1.2667652
1.2969972
1.3122129
1.3087442
1.2830123
1.2389798
1.1854476
1.1376397
1.1036029
1.0833896
1.0788457
1.0947059
1.1288405
1.1620265
1.0399721
1.0440951
1.0489574
1.0521569
1.053933
1.0563118
1.0618974
1.0731973
1.0924257
1.1199264
1.1544171
1.1940952
1.2340234
1.2698245
1.2981681
1.3133603
1.3166927
1.3035852
1.2734326
1.2314549
1.1835865
1.1443079
1.1154861
1.0998171
1.1014282
1.1201942
1.145348
1.0449011
1.0495971
1.0547071
1.0584164
1.0616013
1.0659713
1.0740922
1.0876093
1.1075879
1.1342811
1.1670008
1.2032055
1.2388023
1.2686128
1.2892986
1.3010101
1.3031112
1.2975004
1.2831843
1.2598981
1.2278242
1.1911072
1.1575158
1.1330465
1.1206859
1.1236734
1.1369501
1.0587167
1.0646073
1.0697863
1.0746656
1.0796657
1.0863134
1.0963354
1.1112803
1.1312489
1.1563948
1.1859549
1.2176857
1.2478967
1.2722623
1.2866971
1.2920406
1.2892381
1.283541
1.2781444
1.2701793
1.2553761
1.2311186
1.1996817
1.1700504
1.1461582
1.1350457
1.1346146
1.0766196
1.0832257
1.0885472
1.0948893
1.1018754
1.1107164
1.1228188
1.1391605
1.1599318
1.1849062
1.2132194
1.2423147
1.2687678
1.2883589
1.2970231
1.2946457
1.2871573
1.2787583
1.2735999
1.2718272
1.2689268
1.2572815
1.2339013
1.2027586
1.1708111
1.1471895
1.1352665
1.0922075
1.1002298
1.1079828
1.116936
1.1267398
1.1381507
1.1521061
1.1695768
1.191151
1.2170261
1.2457594
1.2742336
1.2983137
1.3138373
1.3174616
1.3094171
1.297688
1.2864258
1.2778831
1.2763589
1.2791851
1.276807
1.2605573
1.2298889
1.1914916
1.1573336
1.1358997
1.1063163
1.1172003
1.1293945
1.1426048
1.1552844
1.1681843
1.1828924
1.2007435
1.2226251
1.2484275
1.2764803
1.3036086
1.3252603
1.3368634
1.3365893
1.3269166
1.3138392
1.3013381
1.2916323
1.2897731
1.2946303
1.2963823
1.2851563
1.253983
1.2086444
1.1658605
1.1360566
1.1247421
1.1397235
1.1572484
1.1732055
1.1859376
1.1979613
1.2122508
1.2304266
1.2526701
1.2781667
1.3047421
1.3286373
1.3456133
1.3528136
1.3497061
1.3405035
1.3276872
1.3158528
1.3067349
1.305443
1.3125846
1.3175814
1.3102661
1.2774878
1.2271995
1.1744581
1.1376649
1.1503134
1.1690096
1.1888883
1.2046129
1.2173838
1.2308127
1.247151
1.2666153
1.2883994
1.3113341
1.3331004
1.35062
1.3608185
1.3624649
1.3570275
1.3474663
1.3355753
1.3252385
1.3173483
1.317192
1.3270888
1.337188
1.3340734
1.3014223
1.2463306
1.1875483
1.1417396
1.1809609
1.2012572
1.2223533
1.2418661
1.2604641
1.2786898
1.2967933
1.3149969
1.3330043
1.3497143
1.3633154
1.3718528
1.3743908
1.3712014
1.3624055
1.351238
1.3375532
1.3250281
1.3168239
1.3178224
1.3310126
1.3468197
1.3516832
1.32584
1.2695004
1.2038013
1.1505292
1.2126451
1.2369879
1.2689004
1.3011476
1.3268777
1.3456518
1.3601143
1.3722828
1.3828997
1.391406
1.3962558
1.3960889
1.3908751
1.3818834
1.3686543
1.3523607
1.3333456
1.3156007
1.3052546
1.306785
1.3245291
1.3484539
1.3629179
1.348203
1.293285
1.2243778
1.1633306
1.2494285
1.2885946
1.3416955
1.3810973
1.4035273
1.4164578
1.4247513
1.4305539
1.4339057
1.4338792
1.4297516
1.4212937
1.408426
1.3916457
1.3716317
1.3489637
1.3253129
1.3004997
1.2880194
1.2906064
1.310365
1.3409624
1.3668395
1.3658839
1.3173669
1.2456824
1.1765825
1.2923052
1.356684
1.4223851
1.4561171
1.4712316
1.4781041
1.4809635
1.4812677
1.478835
1.4724816
1.4616326
1.4454003
1.4253388
1.4015885
1.3743001
1.3453504
1.3153981
1.2866505
1.2705585
1.2723626
1.2951077
1.331765
1.3679183
1.3782429
1.3373095
1.2641185
1.1897404
1.3486126
1.4306138
1.4908974
1.5141024
1.5222789
1.5244446
1.5236974
1.5207922
1.515081
1.5051486
1.4888623
1.466385
1.4400964
1.4108376
1.3786014
1.3444635
1.3098414
1.2790876
1.2582539
1.2610136
1.2860455
1.3262816
1.3688886
1.3867034
1.3511382
1.2784056
1.2019906
1.4169017
1.4966235
1.5421768
1.5558047
1.5588984
1.5581764
1.5555674
1.5514821
1.5447184
1.5326793
1.5132664
1.4868484
1.4563644
1.4229535
1.3863944
1.3480148
1.3106828
1.2789876
1.2559226
1.2583169
1.2839254
1.3263457
1.3713248
1.391549
1.3583106
1.287316
1.2126155
1.4847975
1.5465501
1.5749009
1.5815658
1.5823749
1.5817545
1.5807403
1.5785181
1.5727982
1.5602584
1.5388471
1.5094935
1.4752743
1.4383298
1.3984307
1.3571906
1.3175749
1.2837955
1.2607661
1.263372
1.2897444
1.3317213
1.3746032
1.3910108
1.3560195
1.289975
1.2223395
1.5363109
1.577299
1.5929879
1.5965674
1.5980293
1.5996805
1.6017566
1.6026245
1.599071
1.5875453
1.5659311
1.5348661
1.4972423
1.4556494
1.4115707
1.3677115
1.327262
1.2930537
1.2712961
1.2772922
1.3034129
1.3425644
1.3766985
1.3817289
1.3429672
1.2822202
1.2262394
1.5709118
1.5954075
1.6024252
1.6048687
1.607811
1.6125907
1.6184671
1.6230464
1.6226057
1.6131408
1.5918159
1.5593769
1.5193905
1.4731515
1.4239851
1.3774783
1.3364122
1.3060503
1.2919295
1.3016568
1.3280205
1.3582782
1.3763659
1.3626065
1.3165815
1.2618584
1.2208841
1.6005891
1.6141848
1.6144336
1.6136286
1.6150311
1.619251
1.6255473
1.6315928
1.6341136
1.6278509
1.6092275
1.5775495
1.5358267
1.4872184
1.4368439
1.3908957
1.354987
1.3328749
1.3281322
1.3415427
1.3601231
1.3726037
1.3662297
1.3326035
1.2801693
1.2323898
1.2064593
1.6296173
1.6375992
1.63363
1.629569
1.627332
1.6272997
1.6291355
1.6314584
1.6313334
1.6248708
1.6083369
1.5797051
1.5410557
1.4974161
1.4542826
1.4185318
1.3948198
1.3844226
1.3848806
1.3901303
1.3884198
1.3754874
1.3432917
1.2933443
1.2423038
1.2055906
1.1913305
1.6586882
1.6637191
1.6582234
1.6514839
1.6449393
1.639229
1.6342973
1.6290144
1.6218491
1.6105797
1.5933493
1.5695766
1.5409746
1.5116365
1.4857166
1.467608
1.458814
1.4549662
1.4495925
1.436403
1.4079457
1.3659731
1.3125421
1.2581291
1.2143963
1.1863424
1.1823514
1.6857531
1.6885991
1.6822149
1.6737964
1.6638705
1.6524055
1.6399897
1.6267727
1.6126853
1.5976769
1.5824689
1.5675323
1.5548252
1.5449582
1.5387757
1.5351365
1.530305
1.5196423
1.4987034
1.4627018
1.4105471
1.3484666
1.2878312
1.2384094
1.2035025
1.1844503
1.1875416
1.7022293
1.7020791
1.6946712
1.6845029
1.6722594
1.6586483
1.644347
1.630732
1.6186353
1.6089451
1.6029265
1.6002772
1.600276
1.6007514
1.5997332
1.5934342
1.5780531
1.5516955
1.5120204
1.4589807
1.3976546
1.3360421
1.2828917
1.2428834
1.2174516
1.2086421
1.2173427
1.7002762
1.695901
1.6872684
1.6784258
1.6708058
1.6650814
1.6620359
1.6623141
1.6663523
1.6712396
1.6738278
1.6716238
1.6626233
1.6476645
1.6269739
1.6014284
1.5709124
1.5339081
1.4895482
1.439587
1.3874286
1.3393672
1.2999178
1.272045
1.260073
1.2627075
1.2759691
1.6987053
1.690896
1.686784
1.6879814
1.6933089
1.7032424
1.7174408
1.7333547
1.7467489
1.752441
1.7453612
1.7236042
1.6882718
1.6441043
1.5969235
1.5523337
1.5125409
1.4777973
1.4461224
1.4157734
1.3873305
1.3635766
1.3473726
1.3380665
1.3345291
1.3377413
1.3435639
1.766781
1.7579374
1.7516844
1.7528023
1.7580514
1.7656238
1.7730842
1.7776973
1.7760527
1.7651767
1.7419846
1.7040587
1.6530817
1.5957716
1.5384037
1.4868628
1.4458703
1.418533
1.4043669
1.4007258
1.40328
1.4091882
1.4178419
1.4277622
1.4324447
1.4249897
1.4052004
1.9260143
1.9016466
1.8768376
1.8506657
1.822322
1.7925052
1.7639801
1.7379481
1.7131704
1.6863585
1.6556238
1.6209681
1.5817507
1.5383594
1.4943242
1.4543762
1.4231068
1.4046462
1.4013508
1.4126076
1.4339023
1.4598725
1.4855705
1.5066119
1.5165994
1.5125062
1.5019908
2.0047611
1.9790955
1.9381737
1.889015
1.8340922
1.7782088
1.7249343
1.6762496
1.6331189
1.5961871
1.564887
1.5369358
1.5125004
1.4930247
1.4776763
1.4668805
1.4613051
1.4615061
1.4664683
1.474977
1.4877318
1.5054234
1.5255396
1.5484754
1.5785231
1.6290408
1.7309257
1.9024616
1.8859688
1.8633134
1.8360785
1.8016669
1.7598912
1.7133471
1.6656045
1.6194512
1.5778968
1.5432499
1.5179621
1.5029436
1.4976271
1.5019806
1.5136863
1.5291112
1.5440277
1.5554507
1.5617394
1.564353
1.5679534
1.5824468
1.6259005
1.7305701
1.936238
2.2730061
1.7629174
1.7525821
1.7459442
1.7404035
1.7330312
1.7219551
1.7068899
1.6879505
1.6660985
1.6423733
1.6203538
1.6019219
1.5881636
1.579981
1.5775387
1.5798405
1.5868557
1.5967627
1.6078599
1.6191494
1.6333022
1.6624213
1.7312227