/*--------------------------------*- C++ -*----------------------------------*\
| =========                 |                                                 |
| \\      /  F ield         | OpenFOAM: The Open Source CFD Toolbox           |
|  \\    /   O peration     | Version:  2406                                  |
|   \\  /    A nd           | Website:  www.openfoam.com                      |
|    \\/     M anipulation  |                                                 |
\*---------------------------------------------------------------------------*/
FoamFile
{
    version     2.0;
    format      ascii;
    arch        "LSB;label=32;scalar=64";
    class       volScalarField;
    location    "7";
    object      alphat;
}
// * * * * * * * * * * * * * * * * * * * * * * * * * * * * * * * * * * * * * //

dimensions      [1 -1 -1 0 0 0 0];

internalField   nonuniform List<scalar> 
62344
(
1.0086838e-06
9.790771e-07
9.6126861e-07
9.4942049e-07
9.5101331e-07
9.696474e-07
9.8958882e-07
9.9991332e-07
9.9972387e-07
9.9542546e-07
9.8349105e-07
9.7174751e-07
9.6513934e-07
9.5930748e-07
9.5532684e-07
9.4884822e-07
9.4934825e-07
9.5190846e-07
9.58973e-07
9.6432059e-07
9.6259418e-07
9.7115594e-07
9.7182101e-07
9.7226506e-07
9.8615473e-07
9.9044357e-07
9.9445088e-07
1.0076618e-06
1.0025087e-06
9.992205e-07
1.0162835e-06
1.037281e-06
1.0548126e-06
1.0550754e-06
1.0552483e-06
1.0994512e-06
1.1602041e-06
1.2229255e-06
1.2515809e-06
1.273706e-06
1.3049498e-06
1.3623776e-06
1.4404239e-06
1.5463203e-06
1.6445385e-06
1.774619e-06
1.8505513e-06
1.9624218e-06
1.9883673e-06
2.0607719e-06
2.1218508e-06
2.2557473e-06
2.3931916e-06
2.5701908e-06
2.8297358e-06
1.0083242e-06
9.7821615e-07
9.6042411e-07
9.4958385e-07
9.5194185e-07
9.6923356e-07
9.8900743e-07
1.0020344e-06
1.002003e-06
9.9378638e-07
9.8461714e-07
9.7442469e-07
9.6612917e-07
9.5757583e-07
9.5453906e-07
9.5229086e-07
9.4962602e-07
9.5011308e-07
9.570594e-07
9.6123283e-07
9.6186988e-07
9.7140892e-07
9.7180927e-07
9.727449e-07
9.8357285e-07
9.8506005e-07
9.8926641e-07
1.0001021e-06
9.9261162e-07
9.8881401e-07
1.0027172e-06
1.0226499e-06
1.044797e-06
1.0467303e-06
1.0421751e-06
1.080751e-06
1.1351135e-06
1.1986769e-06
1.2263303e-06
1.2650981e-06
1.2835858e-06
1.37884e-06
1.4596889e-06
1.5764134e-06
1.6334786e-06
1.7497569e-06
1.8180843e-06
1.9277657e-06
1.9568007e-06
2.0322194e-06
2.0751067e-06
2.1991002e-06
2.3438299e-06
2.472966e-06
2.7379473e-06
1.0088212e-06
9.793933e-07
9.6093344e-07
9.4866023e-07
9.5176109e-07
9.6951299e-07
9.9012548e-07
1.0029915e-06
1.0039862e-06
9.9517308e-07
9.8645267e-07
9.7734733e-07
9.6752466e-07
9.5966032e-07
9.5311296e-07
9.5127649e-07
9.5165758e-07
9.5038734e-07
9.5632605e-07
9.5795799e-07
9.5951914e-07
9.7014394e-07
9.7070042e-07
9.7211253e-07
9.8200667e-07
9.8300199e-07
9.8800457e-07
9.9488416e-07
9.8601209e-07
9.851836e-07
9.9445032e-07
1.0152116e-06
1.0403084e-06
1.0387183e-06
1.0313255e-06
1.0593908e-06
1.1026986e-06
1.1537747e-06
1.1766808e-06
1.2217911e-06
1.2334128e-06
1.3448309e-06
1.4335674e-06
1.5557642e-06
1.605361e-06
1.706607e-06
1.7619533e-06
1.8741731e-06
1.9414206e-06
2.0340934e-06
2.088168e-06
2.2127201e-06
2.3594825e-06
2.5072705e-06
2.6621449e-06
1.0093773e-06
9.8130571e-07
9.6218731e-07
9.4824469e-07
9.505319e-07
9.7026427e-07
9.9267385e-07
1.0041501e-06
1.0056862e-06
9.9829596e-07
9.886243e-07
9.7987477e-07
9.6954778e-07
9.634659e-07
9.561679e-07
9.5165255e-07
9.5288288e-07
9.5205051e-07
9.5871071e-07
9.5977635e-07
9.6088927e-07
9.718759e-07
9.7176562e-07
9.7329959e-07
9.8262079e-07
9.8426005e-07
9.9113594e-07
9.9373132e-07
9.8510069e-07
9.8700932e-07
9.9430843e-07
1.0165417e-06
1.0397472e-06
1.0355692e-06
1.0319192e-06
1.0600181e-06
1.0962799e-06
1.1350269e-06
1.1537306e-06
1.1824915e-06
1.1971082e-06
1.2821303e-06
1.3603259e-06
1.4788021e-06
1.5334518e-06
1.6100448e-06
1.6527626e-06
1.7650086e-06
1.8747582e-06
2.011702e-06
2.1058713e-06
2.235787e-06
2.3734658e-06
2.501111e-06
2.5821857e-06
1.0102072e-06
9.8260701e-07
9.6333946e-07
9.4829758e-07
9.4976914e-07
9.7015601e-07
9.9217242e-07
1.0048257e-06
1.0078025e-06
1.0020076e-06
9.9112125e-07
9.8111351e-07
9.7153893e-07
9.6506163e-07
9.5805924e-07
9.5351385e-07
9.5309166e-07
9.5082719e-07
9.5843466e-07
9.6074956e-07
9.6207614e-07
9.7195495e-07
9.7185802e-07
9.7388311e-07
9.8182729e-07
9.8468988e-07
9.9299359e-07
9.9109359e-07
9.8288042e-07
9.8820419e-07
9.9643715e-07
1.0194425e-06
1.0381591e-06
1.0337187e-06
1.0355402e-06
1.0663797e-06
1.0991849e-06
1.1273559e-06
1.139278e-06
1.1668821e-06
1.1874073e-06
1.2521931e-06
1.3102651e-06
1.409299e-06
1.4573972e-06
1.5016265e-06
1.5617862e-06
1.599315e-06
1.7079783e-06
1.8871626e-06
2.0302094e-06
2.1715667e-06
2.3698304e-06
2.4508863e-06
2.4936022e-06
1.0106407e-06
9.8273842e-07
9.6382076e-07
9.48693e-07
9.4971168e-07
9.6865047e-07
9.894028e-07
1.0030814e-06
1.0079092e-06
1.0037687e-06
9.9292738e-07
9.8252069e-07
9.7351675e-07
9.6638726e-07
9.5877598e-07
9.5504853e-07
9.5508647e-07
9.5137729e-07
9.5779304e-07
9.6138122e-07
9.6400918e-07
9.7299805e-07
9.7318793e-07
9.7695548e-07
9.8305096e-07
9.8598388e-07
9.9527126e-07
9.8919073e-07
9.8070487e-07
9.8805061e-07
9.9897606e-07
1.0220438e-06
1.0332684e-06
1.0305901e-06
1.0421928e-06
1.0752267e-06
1.1071811e-06
1.1299613e-06
1.131906e-06
1.1521991e-06
1.1827051e-06
1.23606e-06
1.2812778e-06
1.3445693e-06
1.4240788e-06
1.4605921e-06
1.4826908e-06
1.4951865e-06
1.5963436e-06
1.734929e-06
1.9167709e-06
2.046159e-06
2.1938603e-06
2.233647e-06
2.3288272e-06
1.0105532e-06
9.8209525e-07
9.6388427e-07
9.4932967e-07
9.5029781e-07
9.6814978e-07
9.88797e-07
1.002636e-06
1.0081713e-06
1.004327e-06
9.9448091e-07
9.8396426e-07
9.7408271e-07
9.6723178e-07
9.5936907e-07
9.5574434e-07
9.5727098e-07
9.5375398e-07
9.5737029e-07
9.6066166e-07
9.6522971e-07
9.7339267e-07
9.7417082e-07
9.7957297e-07
9.8387267e-07
9.8648021e-07
9.9547819e-07
9.8662257e-07
9.7795627e-07
9.8652057e-07
1.0025923e-06
1.0251491e-06
1.0275022e-06
1.0283179e-06
1.0469175e-06
1.0845121e-06
1.1158291e-06
1.1352738e-06
1.1347018e-06
1.1414766e-06
1.1790764e-06
1.2235128e-06
1.276478e-06
1.3115415e-06
1.3782255e-06
1.41651e-06
1.4640819e-06
1.4759043e-06
1.5647451e-06
1.6602046e-06
1.8250082e-06
1.9530214e-06
2.0984388e-06
2.1489392e-06
2.2318356e-06
1.0101944e-06
9.8102576e-07
9.6359208e-07
9.5038701e-07
9.5036999e-07
9.678987e-07
9.8883845e-07
1.0024725e-06
1.008284e-06
1.0042048e-06
9.9581439e-07
9.858632e-07
9.7516129e-07
9.6823712e-07
9.616711e-07
9.5704303e-07
9.5783503e-07
9.5584343e-07
9.5791718e-07
9.6016542e-07
9.6621214e-07
9.7384323e-07
9.7506635e-07
9.819679e-07
9.8491086e-07
9.8724573e-07
9.9478266e-07
9.8412788e-07
9.7565571e-07
9.8436186e-07
1.0064318e-06
1.0263236e-06
1.0215519e-06
1.022808e-06
1.0487993e-06
1.0882657e-06
1.1210904e-06
1.137103e-06
1.1453398e-06
1.1447982e-06
1.1831676e-06
1.2292844e-06
1.28352e-06
1.3063972e-06
1.3537328e-06
1.3868453e-06
1.4517686e-06
1.4782306e-06
1.5728832e-06
1.6429581e-06
1.764497e-06
1.8509075e-06
1.9901376e-06
2.111212e-06
2.2059087e-06
1.0100092e-06
9.8009312e-07
9.6329925e-07
9.513645e-07
9.5031849e-07
9.6795912e-07
9.8873766e-07
1.0028991e-06
1.0097957e-06
1.0059463e-06
9.9851293e-07
9.8858707e-07
9.7835875e-07
9.6989389e-07
9.6409064e-07
9.5964136e-07
9.5846327e-07
9.5783226e-07
9.5935651e-07
9.6005e-07
9.6673884e-07
9.7414828e-07
9.7602836e-07
9.8431462e-07
9.8612276e-07
9.8828337e-07
9.944108e-07
9.8305319e-07
9.7451032e-07
9.8259819e-07
1.00918e-06
1.0260291e-06
1.0179018e-06
1.0157814e-06
1.0475808e-06
1.0871387e-06
1.1230917e-06
1.1352645e-06
1.1551594e-06
1.1618507e-06
1.1991056e-06
1.2416481e-06
1.3015466e-06
1.3212486e-06
1.3483962e-06
1.3660163e-06
1.4339953e-06
1.4884836e-06
1.5705219e-06
1.6500816e-06
1.7293024e-06
1.7833867e-06
1.9047823e-06
2.0042026e-06
2.1145915e-06
1.0102168e-06
9.794558e-07
9.6303383e-07
9.5173202e-07
9.5036908e-07
9.6755224e-07
9.8852203e-07
1.0048145e-06
1.0128638e-06
1.0090398e-06
1.0010254e-06
9.8944116e-07
9.8006012e-07
9.7123566e-07
9.6521091e-07
9.6099011e-07
9.5879747e-07
9.5930795e-07
9.6128038e-07
9.6032769e-07
9.6691899e-07
9.7409351e-07
9.7695016e-07
9.8629158e-07
9.8786684e-07
9.9002639e-07
9.9478229e-07
9.8406256e-07
9.7513277e-07
9.824394e-07
1.0105956e-06
1.02489e-06
1.0142256e-06
1.0104637e-06
1.0434158e-06
1.0837633e-06
1.1201197e-06
1.1303159e-06
1.1524677e-06
1.1719671e-06
1.2142488e-06
1.2540543e-06
1.3215016e-06
1.3458256e-06
1.3651817e-06
1.365418e-06
1.4195556e-06
1.4875872e-06
1.583055e-06
1.6715284e-06
1.721954e-06
1.745506e-06
1.8390999e-06
1.9179955e-06
2.0067763e-06
1.0106038e-06
9.7897075e-07
9.6308071e-07
9.5161481e-07
9.5039718e-07
9.6665811e-07
9.8794591e-07
1.0057871e-06
1.0141082e-06
1.0109447e-06
1.0020947e-06
9.8948868e-07
9.8049017e-07
9.7228009e-07
9.6550007e-07
9.6080111e-07
9.581311e-07
9.588586e-07
9.616825e-07
9.596772e-07
9.6593778e-07
9.7289404e-07
9.768565e-07
9.8691856e-07
9.8901065e-07
9.9128989e-07
9.9443497e-07
9.8543307e-07
9.7638263e-07
9.8356903e-07
1.0111555e-06
1.0244054e-06
1.0110145e-06
1.0066429e-06
1.0381318e-06
1.0811295e-06
1.115405e-06
1.1242802e-06
1.1422547e-06
1.169136e-06
1.2216402e-06
1.2616531e-06
1.3280167e-06
1.358598e-06
1.3792951e-06
1.3753678e-06
1.4118918e-06
1.4780047e-06
1.5796968e-06
1.6769645e-06
1.7219607e-06
1.7420409e-06
1.8030103e-06
1.863817e-06
1.9205532e-06
1.0108587e-06
9.7899064e-07
9.6327279e-07
9.5131828e-07
9.4975467e-07
9.6567344e-07
9.8743852e-07
1.0052724e-06
1.0144095e-06
1.0126992e-06
1.003548e-06
9.9119209e-07
9.8183237e-07
9.7398099e-07
9.6653002e-07
9.6099564e-07
9.5789274e-07
9.5810169e-07
9.6179323e-07
9.5953243e-07
9.6541782e-07
9.7203945e-07
9.7660938e-07
9.8682326e-07
9.8997693e-07
9.9195349e-07
9.9323584e-07
9.8585541e-07
9.7753027e-07
9.8488563e-07
1.0101016e-06
1.0231855e-06
1.0093427e-06
1.0055937e-06
1.0333051e-06
1.079855e-06
1.1130953e-06
1.118156e-06
1.1293066e-06
1.1565107e-06
1.2159854e-06
1.2651554e-06
1.3229355e-06
1.3553012e-06
1.3809616e-06
1.3849715e-06
1.4070081e-06
1.4633394e-06
1.5560871e-06
1.6532153e-06
1.7079267e-06
1.7481373e-06
1.7985482e-06
1.8415988e-06
1.8874395e-06
1.0110289e-06
9.796202e-07
9.6368553e-07
9.5083308e-07
9.489581e-07
9.6500943e-07
9.8713165e-07
1.0048178e-06
1.0150023e-06
1.0137024e-06
1.0047145e-06
9.9278241e-07
9.8274961e-07
9.7536331e-07
9.6802928e-07
9.6228346e-07
9.5888941e-07
9.5826762e-07
9.6251107e-07
9.6067174e-07
9.6595044e-07
9.721144e-07
9.7675901e-07
9.8661238e-07
9.914084e-07
9.9299519e-07
9.9218663e-07
9.8594402e-07
9.7864603e-07
9.8601475e-07
1.0081657e-06
1.0212524e-06
1.0090714e-06
1.0068593e-06
1.0313933e-06
1.0757246e-06
1.1115829e-06
1.1143368e-06
1.1167976e-06
1.1406834e-06
1.1935151e-06
1.2615056e-06
1.3152415e-06
1.3415853e-06
1.3667382e-06
1.3837293e-06
1.4085987e-06
1.4607206e-06
1.5280383e-06
1.5899143e-06
1.6518065e-06
1.7410703e-06
1.8030478e-06
1.8396771e-06
1.8553101e-06
1.0111512e-06
9.8058642e-07
9.6430423e-07
9.5032396e-07
9.483719e-07
9.6483755e-07
9.8752003e-07
1.0057833e-06
1.0163469e-06
1.0146197e-06
1.0055679e-06
9.9378155e-07
9.8284163e-07
9.7598682e-07
9.6852698e-07
9.6309155e-07
9.5982879e-07
9.5823233e-07
9.6208225e-07
9.6135705e-07
9.6640908e-07
9.7235577e-07
9.7708208e-07
9.8633253e-07
9.9317364e-07
9.9466148e-07
9.9211212e-07
9.8637567e-07
9.7998434e-07
9.8737157e-07
1.0063389e-06
1.0187187e-06
1.0093889e-06
1.0096355e-06
1.0324677e-06
1.0717972e-06
1.1097232e-06
1.1098494e-06
1.1132332e-06
1.1357068e-06
1.1752389e-06
1.2454943e-06
1.3060456e-06
1.3298768e-06
1.3482104e-06
1.3714274e-06
1.4157003e-06
1.4543659e-06
1.5008246e-06
1.5496923e-06
1.6254468e-06
1.723623e-06
1.7843355e-06
1.8417324e-06
1.8439034e-06
1.0113317e-06
9.8138686e-07
9.6493599e-07
9.5006182e-07
9.474877e-07
9.6505892e-07
9.8828605e-07
1.0074847e-06
1.0186778e-06
1.0171221e-06
1.0079906e-06
9.9627511e-07
9.8443e-07
9.7733314e-07
9.6942698e-07
9.6392654e-07
9.6112136e-07
9.5864869e-07
9.6132075e-07
9.6168765e-07
9.6698861e-07
9.7309667e-07
9.780654e-07
9.8671484e-07
9.9544217e-07
9.9679816e-07
9.9302855e-07
9.8739412e-07
9.8168488e-07
9.8910461e-07
1.0052727e-06
1.0157797e-06
1.0092752e-06
1.0133201e-06
1.0361799e-06
1.068547e-06
1.1069804e-06
1.111009e-06
1.1156047e-06
1.135187e-06
1.1731258e-06
1.2362254e-06
1.3078117e-06
1.3334211e-06
1.3471873e-06
1.3704146e-06
1.4228777e-06
1.4598706e-06
1.5037602e-06
1.5458256e-06
1.606617e-06
1.703301e-06
1.7634151e-06
1.8408827e-06
1.8530023e-06
1.0115405e-06
9.8186082e-07
9.6553829e-07
9.4982764e-07
9.4667587e-07
9.6509768e-07
9.8827921e-07
1.0073586e-06
1.0197789e-06
1.0198104e-06
1.011757e-06
1.0003613e-06
9.8798247e-07
9.7980374e-07
9.7110432e-07
9.6554423e-07
9.6322546e-07
9.5997101e-07
9.6136397e-07
9.6239515e-07
9.6765599e-07
9.7379161e-07
9.7888162e-07
9.8700547e-07
9.9721256e-07
9.9846468e-07
9.9389378e-07
9.878769e-07
9.8303985e-07
9.9039466e-07
1.0042048e-06
1.0126969e-06
1.0085641e-06
1.0159197e-06
1.0395395e-06
1.0681642e-06
1.1040937e-06
1.1127101e-06
1.1237253e-06
1.1413972e-06
1.1843773e-06
1.2374231e-06
1.3166906e-06
1.3497019e-06
1.371143e-06
1.3863442e-06
1.4406225e-06
1.4810822e-06
1.5286151e-06
1.5733227e-06
1.6195383e-06
1.6966656e-06
1.7513569e-06
1.8244442e-06
1.8693563e-06
1.0117792e-06
9.8209614e-07
9.6580378e-07
9.4976111e-07
9.4633746e-07
9.643218e-07
9.8733413e-07
1.0065219e-06
1.019539e-06
1.0203344e-06
1.0129567e-06
1.0010793e-06
9.8850557e-07
9.8004953e-07
9.7098037e-07
9.6531951e-07
9.6359368e-07
9.603726e-07
9.6069888e-07
9.6195871e-07
9.6688596e-07
9.7288365e-07
9.7819212e-07
9.8612791e-07
9.9764652e-07
9.9918313e-07
9.9416067e-07
9.8739334e-07
9.8364817e-07
9.9092189e-07
1.0019874e-06
1.0085429e-06
1.0060925e-06
1.0167389e-06
1.0396568e-06
1.0688565e-06
1.0972719e-06
1.1174695e-06
1.1267327e-06
1.1540762e-06
1.1988945e-06
1.2572164e-06
1.3184922e-06
1.3782029e-06
1.4034267e-06
1.4325297e-06
1.4687906e-06
1.5239283e-06
1.5731215e-06
1.6344345e-06
1.6627778e-06
1.7147281e-06
1.7508858e-06
1.8247351e-06
1.8889666e-06
1.0120519e-06
9.8202639e-07
9.6581932e-07
9.4992653e-07
9.4639956e-07
9.6304106e-07
9.8598492e-07
1.0058896e-06
1.0189645e-06
1.0199428e-06
1.0130054e-06
9.9994664e-07
9.8719476e-07
9.786572e-07
9.6885788e-07
9.6267016e-07
9.6127419e-07
9.5870699e-07
9.5834907e-07
9.5961377e-07
9.6403416e-07
9.6994219e-07
9.7553967e-07
9.8357745e-07
9.9622045e-07
9.9853355e-07
9.9371007e-07
9.8646852e-07
9.8383287e-07
9.9139169e-07
9.9988979e-07
1.0038043e-06
1.0033772e-06
1.0153866e-06
1.0375886e-06
1.0717838e-06
1.0891394e-06
1.1145649e-06
1.1308554e-06
1.1747564e-06
1.2049985e-06
1.2715528e-06
1.3271575e-06
1.4069136e-06
1.4484405e-06
1.4850344e-06
1.5075246e-06
1.5755801e-06
1.6383824e-06
1.7119118e-06
1.7365778e-06
1.7670846e-06
1.7815874e-06
1.8435642e-06
1.9124542e-06
1.0122623e-06
9.8174145e-07
9.6574891e-07
9.5011624e-07
9.4625086e-07
9.6173636e-07
9.8482389e-07
1.0059689e-06
1.0191612e-06
1.0199459e-06
1.0123729e-06
9.980129e-07
9.8427588e-07
9.75065e-07
9.644547e-07
9.5730762e-07
9.5554318e-07
9.5393706e-07
9.5320965e-07
9.5444085e-07
9.5868927e-07
9.6477451e-07
9.7089368e-07
9.7932494e-07
9.9260092e-07
9.9566927e-07
9.911606e-07
9.8343143e-07
9.8162536e-07
9.8967053e-07
9.9618125e-07
9.9695252e-07
9.9752042e-07
1.009331e-06
1.032057e-06
1.0669626e-06
1.0786657e-06
1.1045257e-06
1.1262019e-06
1.1771326e-06
1.2117035e-06
1.2852501e-06
1.3279477e-06
1.4010188e-06
1.4569032e-06
1.5312703e-06
1.561604e-06
1.6333894e-06
1.6953928e-06
1.7883485e-06
1.8261041e-06
1.8694244e-06
1.8783277e-06
1.9369185e-06
1.986956e-06
1.0122643e-06
9.8116156e-07
9.6553557e-07
9.501087e-07
9.4549139e-07
9.603312e-07
9.8325875e-07
1.0046282e-06
1.0175104e-06
1.017649e-06
1.0084524e-06
9.9264373e-07
9.7685812e-07
9.6613125e-07
9.5481991e-07
9.4671431e-07
9.4359412e-07
9.4255712e-07
9.4156725e-07
9.4262991e-07
9.464744e-07
9.5259651e-07
9.5923196e-07
9.6794784e-07
9.8108321e-07
9.8454265e-07
9.8060037e-07
9.7268663e-07
9.7153024e-07
9.8023605e-07
9.8520808e-07
9.832654e-07
9.8415947e-07
9.9616754e-07
1.0174044e-06
1.0475156e-06
1.0514718e-06
9.574451e-07
1.0911886e-06
1.1416248e-06
1.1782957e-06
1.2527003e-06
1.2830485e-06
1.3403291e-06
1.2462597e-06
1.4883079e-06
1.5336881e-06
1.6169234e-06
1.6799825e-06
1.7761005e-06
1.8263169e-06
1.8898973e-06
1.9123628e-06
1.9520735e-06
2.0275806e-06
1.0122729e-06
9.8005834e-07
9.6436098e-07
9.4914597e-07
9.4317815e-07
9.5616543e-07
9.7717943e-07
9.9613358e-07
1.0069436e-06
1.0045885e-06
9.9247404e-07
9.7461203e-07
9.5651944e-07
9.4333584e-07
9.3050435e-07
9.2131895e-07
9.1619893e-07
9.1482981e-07
9.1351024e-07
9.1453009e-07
9.1770263e-07
9.2348565e-07
9.3018073e-07
9.3910818e-07
9.5159996e-07
9.552516e-07
9.5181312e-07
9.4424737e-07
9.4407683e-07
9.5328985e-07
9.5652457e-07
9.1814956e-07
9.5030799e-07
9.5876127e-07
8.0826191e-07
9.9448353e-07
6.5741378e-07
6.1294846e-07
9.2180576e-07
1.0307369e-06
6.9574508e-07
7.7167404e-07
1.1183961e-06
7.9795731e-07
6.555839e-07
1.0069179e-06
1.3472331e-06
1.43093e-06
1.3867771e-06
1.5848108e-06
1.6624275e-06
1.7231399e-06
1.7744924e-06
1.7913077e-06
1.8898839e-06
1.0110048e-06
9.7680294e-07
9.5943827e-07
9.4292627e-07
9.3371792e-07
9.4146388e-07
9.5632147e-07
9.6905999e-07
9.7617466e-07
9.7179079e-07
9.5832519e-07
9.3996491e-07
9.2175022e-07
9.072304e-07
8.9276542e-07
8.8205461e-07
8.7395196e-07
8.7067459e-07
8.6826494e-07
8.6846468e-07
8.7023362e-07
8.7507206e-07
8.8067916e-07
8.8863796e-07
8.9952181e-07
9.031038e-07
9.0048671e-07
8.9330587e-07
8.9431054e-07
9.0420956e-07
9.0664551e-07
7.9597339e-07
8.986793e-07
9.0627364e-07
7.2018465e-07
9.3373069e-07
4.8670759e-07
4.7280603e-07
6.6542162e-07
9.0001855e-07
4.9260538e-07
4.7306007e-07
6.2348427e-07
4.085752e-07
3.8298764e-07
4.3790648e-07
7.1988289e-07
7.2030169e-07
6.5848136e-07
1.1082935e-06
1.2048623e-06
1.227765e-06
1.1964192e-06
1.2109041e-06
1.40857e-06
1.0047718e-06
9.6448571e-07
9.4136804e-07
9.2087703e-07
9.0602355e-07
9.0494136e-07
9.1042038e-07
9.1740866e-07
9.250281e-07
9.2572573e-07
9.1656936e-07
9.0275228e-07
8.8849865e-07
8.7445206e-07
8.5740081e-07
8.4149794e-07
8.268654e-07
8.1877085e-07
8.1325949e-07
8.1106393e-07
8.0948342e-07
8.1140681e-07
8.1556366e-07
8.2220117e-07
8.3044605e-07
8.3245374e-07
8.2911708e-07
8.2175667e-07
8.2390385e-07
8.3447177e-07
8.3622066e-07
7.6780877e-07
8.2730445e-07
8.3562841e-07
7.5686871e-07
8.6179036e-07
4.8391947e-07
4.5376298e-07
6.0632273e-07
5.5303383e-07
4.5315018e-07
4.8092714e-07
4.9562116e-07
3.1997069e-07
3.3066463e-07
3.3442814e-07
3.4834997e-07
4.028253e-07
4.0103403e-07
6.595589e-07
9.207522e-07
9.190699e-07
7.9122981e-07
6.3323992e-07
6.4924058e-07
9.9053526e-07
9.438364e-07
9.1394745e-07
8.8362862e-07
8.5060646e-07
8.2548407e-07
8.083823e-07
7.9990302e-07
8.0552782e-07
8.1634454e-07
8.217772e-07
8.2103982e-07
8.167733e-07
8.0675264e-07
7.9083835e-07
7.6831052e-07
7.4486826e-07
7.3179455e-07
7.2279605e-07
7.1830612e-07
7.1253171e-07
7.0990785e-07
7.113487e-07
7.1745511e-07
7.2405103e-07
7.241909e-07
7.1983239e-07
7.1277431e-07
7.1631864e-07
7.2831534e-07
7.3068551e-07
7.1282884e-07
7.2107052e-07
7.2863351e-07
7.4519514e-07
7.5324337e-07
5.0489145e-07
4.5256141e-07
6.6158845e-07
5.9343231e-07
5.5978636e-07
6.8770334e-07
4.8657897e-07
2.9586883e-07
3.2571184e-07
3.8727778e-07
3.2836535e-07
3.4576829e-07
4.3250948e-07
7.9167814e-07
7.9425523e-07
7.9034707e-07
7.9909467e-07
6.1927613e-07
4.807053e-07
9.7424951e-07
8.6631679e-07
7.8117171e-07
6.9899999e-07
6.1568815e-07
5.4531847e-07
5.0613507e-07
4.9204079e-07
4.9387911e-07
5.048099e-07
5.3408549e-07
5.556103e-07
5.6614902e-07
5.6928391e-07
5.6243528e-07
5.5613117e-07
5.489879e-07
5.4594999e-07
5.4672831e-07
5.4926034e-07
5.5076657e-07
5.5280726e-07
5.563548e-07
5.6310373e-07
5.7083514e-07
5.7540639e-07
5.7545989e-07
5.7315542e-07
5.780827e-07
5.9041319e-07
5.9484665e-07
5.9289192e-07
5.7543171e-07
5.9876509e-07
6.1278438e-07
6.1744851e-07
5.730007e-07
5.0883452e-07
5.3176701e-07
4.4619399e-07
4.8951647e-07
6.2479806e-07
6.1736609e-07
3.5138757e-07
3.7428844e-07
4.1320624e-07
3.0634671e-07
2.7405628e-07
3.8680135e-07
6.2103997e-07
6.1742322e-07
6.1294935e-07
6.1260419e-07
6.1212376e-07
4.8809948e-07
6.8704954e-07
6.0197188e-07
5.3961781e-07
4.7707922e-07
4.2704848e-07
3.8804657e-07
3.6452902e-07
3.5101918e-07
3.3871486e-07
3.2997691e-07
3.2740884e-07
3.2652646e-07
3.2811003e-07
3.2960048e-07
3.3010517e-07
3.3457682e-07
3.4556611e-07
3.5655175e-07
3.6939469e-07
3.7853628e-07
3.8869613e-07
4.0218784e-07
4.1265891e-07
4.2576191e-07
4.3379198e-07
4.4465448e-07
4.5005091e-07
4.5338445e-07
4.6064736e-07
4.6880454e-07
4.7024656e-07
4.6467182e-07
4.5845879e-07
4.6329693e-07
4.7457692e-07
4.7868241e-07
4.7043169e-07
4.6003241e-07
4.4958286e-07
4.520234e-07
4.6367766e-07
4.7253253e-07
4.664231e-07
4.4417328e-07
4.2262532e-07
4.1075358e-07
4.0931051e-07
4.1919711e-07
4.2980951e-07
4.3641283e-07
4.2991396e-07
4.2154035e-07
4.1431883e-07
4.0966377e-07
4.0334542e-07
8.043388e-07
1.2791221e-06
1.1749098e-06
1.136327e-06
1.1391149e-06
1.1510313e-06
1.1660238e-06
1.1359006e-06
1.0698594e-06
9.7676158e-07
8.8814942e-07
8.1959909e-07
7.6172528e-07
7.1190981e-07
6.5899095e-07
6.0603483e-07
5.4528969e-07
4.8505715e-07
4.3033669e-07
3.8379649e-07
3.3971446e-07
3.0384833e-07
2.7806209e-07
2.6444349e-07
2.6052025e-07
2.6409989e-07
2.6672702e-07
2.5753893e-07
2.4249016e-07
2.3238729e-07
2.2510042e-07
2.1184054e-07
2.0002631e-07
2.0540745e-07
2.1288841e-07
2.1953316e-07
2.198743e-07
2.1728292e-07
2.2331104e-07
2.4385935e-07
2.7007517e-07
2.8660599e-07
2.8920391e-07
2.7604205e-07
2.7144394e-07
2.8067804e-07
3.0399086e-07
3.3498024e-07
3.6094457e-07
3.698937e-07
3.6642659e-07
3.5582559e-07
3.4110591e-07
3.2843834e-07
3.166712e-07
2.9351448e-07
3.878647e-07
4.2797147e-07
4.8383704e-07
6.2309695e-07
1.1814003e-06
1.925117e-06
2.09362e-06
2.0736113e-06
1.9784531e-06
1.9532879e-06
1.9297629e-06
1.8924005e-06
1.8657055e-06
1.8834113e-06
1.947126e-06
2.0447184e-06
2.1446295e-06
2.2323489e-06
2.2606391e-06
2.2721178e-06
2.3447407e-06
2.5716492e-06
2.6776143e-06
2.7871413e-06
2.8780774e-06
2.9981598e-06
2.7671197e-07
3.6179393e-07
5.1230961e-07
4.508857e-07
4.9299479e-07
8.8826183e-07
1.9543639e-06
2.1685688e-06
2.1715258e-06
2.061051e-06
2.0163665e-06
1.9853087e-06
1.9641993e-06
1.959319e-06
1.9824301e-06
2.0604874e-06
2.1602824e-06
2.2431134e-06
2.2874561e-06
2.3173887e-06
2.3100217e-06
2.3904632e-06
2.6760566e-06
2.8116175e-06
3.0126388e-06
3.1081644e-06
3.1326406e-06
2.8046156e-07
3.4441131e-07
3.6983253e-07
4.6996887e-07
6.6161855e-07
1.3944462e-06
1.9901724e-06
2.1912691e-06
2.1951498e-06
2.0827088e-06
2.0277786e-06
2.0175461e-06
2.0320461e-06
2.0597438e-06
2.0909498e-06
2.1645166e-06
2.2508668e-06
2.3131285e-06
2.341375e-06
2.357592e-06
2.3650108e-06
2.4647134e-06
2.8271441e-06
3.0249038e-06
3.1587991e-06
3.1923553e-06
3.1438266e-06
2.945344e-07
3.3836135e-07
4.3000286e-07
7.8012195e-07
9.6840886e-07
1.4131877e-06
2.0454694e-06
2.2683569e-06
2.2772369e-06
2.1584439e-06
2.1232053e-06
2.1196978e-06
2.131436e-06
2.1797322e-06
2.235984e-06
2.2572719e-06
2.3071368e-06
2.3301927e-06
2.3748374e-06
2.4693717e-06
2.5127046e-06
2.6399569e-06
3.0292875e-06
3.2395452e-06
3.3068694e-06
3.2275194e-06
3.1328479e-06
3.0080419e-07
3.3345178e-07
5.630825e-07
7.8571847e-07
6.920073e-07
9.6431466e-07
2.0973593e-06
2.3529535e-06
2.4044363e-06
2.3182082e-06
2.2763115e-06
2.3108708e-06
2.3391221e-06
2.3657413e-06
2.3826994e-06
2.3602474e-06
2.3419614e-06
2.3966141e-06
2.4618791e-06
2.5683257e-06
2.6370079e-06
2.7700905e-06
3.1639785e-06
3.3729566e-06
3.4923521e-06
3.3730338e-06
3.2474651e-06
2.8646806e-07
3.142416e-07
4.925189e-07
4.6783044e-07
6.047415e-07
1.3164217e-06
2.1046987e-06
2.4592059e-06
2.5550804e-06
2.5224739e-06
2.4499121e-06
2.4638865e-06
2.4767707e-06
2.4774957e-06
2.469454e-06
2.4633378e-06
2.4803802e-06
2.5405212e-06
2.6045233e-06
2.6995328e-06
2.7859893e-06
2.8955744e-06
3.2238751e-06
3.4668127e-06
3.5972099e-06
3.5763958e-06
3.4573483e-06
2.7372454e-07
2.8968863e-07
4.6448334e-07
4.4763954e-07
4.5789106e-07
5.7989091e-07
1.1626967e-06
2.4043498e-06
2.7826016e-06
2.7734554e-06
2.6620287e-06
2.5843599e-06
2.5434909e-06
2.5345304e-06
2.5207805e-06
2.5297553e-06
2.6042194e-06
2.7122005e-06
2.785837e-06
2.920486e-06
2.9458135e-06
2.9899378e-06
3.2249877e-06
3.5543853e-06
3.6341812e-06
3.7269127e-06
3.7123703e-06
2.8612969e-07
2.7265904e-07
3.612801e-07
3.3780934e-07
3.2828444e-07
4.7068955e-07
1.2682437e-06
2.7462363e-06
2.9017152e-06
2.8743239e-06
2.7350137e-06
2.6398538e-06
2.5869199e-06
2.5848763e-06
2.5827952e-06
2.6163522e-06
2.7298904e-06
2.8370041e-06
2.9637593e-06
3.1395261e-06
3.2528204e-06
3.2527078e-06
3.3518537e-06
3.6081662e-06
3.6947455e-06
3.8026104e-06
3.8165471e-06
3.2864935e-07
2.7653049e-07
2.3744763e-07
2.8134675e-07
3.530672e-07
8.2560321e-07
2.2349559e-06
2.8134277e-06
2.9573782e-06
2.9270358e-06
2.7512816e-06
2.6891009e-06
2.6018285e-06
2.6153708e-06
2.6605276e-06
2.7209483e-06
2.8546095e-06
2.9835621e-06
3.1442452e-06
3.325937e-06
3.4698156e-06
3.4913304e-06
3.5792677e-06
3.8716491e-06
3.9244778e-06
4.0202469e-06
4.0246785e-06
3.6896055e-07
2.9289266e-07
3.4031962e-07
4.4452292e-07
4.6904676e-07
6.0606951e-07
1.1427812e-06
2.0854082e-06
2.4455063e-06
2.8416045e-06
2.8715589e-06
2.7744403e-06
2.6968738e-06
2.6956115e-06
2.7414639e-06
2.8168221e-06
3.0099322e-06
3.170021e-06
3.3412035e-06
3.5017164e-06
3.5183134e-06
3.5883761e-06
3.7096734e-06
4.0773847e-06
4.2212178e-06
4.3668139e-06
4.3242418e-06
3.8161619e-07
3.077559e-07
4.8271952e-07
5.7808934e-07
4.6976416e-07
5.6657286e-07
1.1898218e-06
2.3790774e-06
2.9154598e-06
3.3628653e-06
3.2238461e-06
3.081051e-06
3.0256567e-06
3.0074094e-06
3.0281037e-06
3.101826e-06
3.2479099e-06
3.3828196e-06
3.5074793e-06
3.5817325e-06
3.521723e-06
3.6230201e-06
3.7727106e-06
4.1624181e-06
4.4364103e-06
4.762234e-06
4.7336377e-06
3.5123943e-07
3.0267797e-07
2.9829136e-07
3.0887794e-07
3.3110691e-07
4.6053989e-07
1.1832562e-06
3.0180143e-06
3.3772779e-06
3.5131249e-06
3.4920416e-06
3.3737499e-06
3.3691911e-06
3.4326125e-06
3.5330696e-06
3.6036615e-06
3.6920743e-06
3.7075154e-06
3.7317302e-06
3.7359315e-06
3.6665097e-06
3.6109866e-06
3.7113712e-06
4.2100993e-06
4.6660977e-06
5.2069693e-06
5.2270103e-06
3.1376102e-07
2.9231293e-07
2.6643964e-07
2.6178409e-07
2.8914478e-07
4.0095471e-07
9.2560908e-07
2.2245806e-06
2.9716083e-06
3.2695455e-06
3.5792608e-06
3.6342052e-06
3.6238786e-06
3.7072613e-06
3.8036929e-06
3.8549569e-06
3.9730315e-06
4.0293474e-06
3.9826555e-06
4.0007941e-06
3.9894578e-06
3.9779058e-06
3.9907048e-06
4.4340754e-06
4.8724997e-06
5.5021153e-06
5.5053611e-06
3.2067471e-07
2.9117302e-07
3.7505998e-07
3.5559925e-07
3.9240276e-07
5.0058644e-07
9.1918508e-07
1.9537807e-06
2.4351573e-06
2.7744342e-06
3.172649e-06
3.8816232e-06
3.8888787e-06
3.8807496e-06
3.8266561e-06
3.8197235e-06
4.0264518e-06
4.2118597e-06
4.2196473e-06
4.29212e-06
4.4373437e-06
4.4863102e-06
4.4640769e-06
4.8375789e-06
5.3506738e-06
5.7598485e-06
5.5602137e-06
3.6141175e-07
2.9695849e-07
3.5535054e-07
3.6917188e-07
3.1022126e-07
3.557062e-07
6.8819882e-07
1.7869642e-06
2.6261948e-06
4.0082331e-06
4.2176528e-06
4.1239771e-06
4.0580054e-06
3.994422e-06
3.9049477e-06
3.8717202e-06
4.0266348e-06
4.2166937e-06
4.3379695e-06
4.5420322e-06
4.8348678e-06
5.0196469e-06
5.150506e-06
5.4816756e-06
6.080969e-06
6.1453508e-06
5.7662668e-06
4.2346561e-07
3.1147382e-07
2.5646045e-07
2.3730127e-07
2.2246755e-07
3.1570273e-07
8.2287508e-07
3.1647285e-06
3.9104991e-06
4.277804e-06
4.4167951e-06
4.2614082e-06
4.1490829e-06
4.0829101e-06
3.9726545e-06
3.8860419e-06
4.0212011e-06
4.2886777e-06
4.5171721e-06
4.740781e-06
4.9512729e-06
5.2325215e-06
5.6381642e-06
6.1289531e-06
6.9738343e-06
6.7968055e-06
6.3623888e-06
5.1337613e-07
3.5001502e-07
1.9237257e-07
2.1771305e-07
2.6070126e-07
5.1852343e-07
1.7853772e-06
3.3723609e-06
4.0401343e-06
4.1148557e-06
4.4015529e-06
4.2774502e-06
4.194772e-06
4.1846073e-06
4.0725774e-06
4.0291477e-06
4.1684289e-06
4.4772571e-06
4.7679346e-06
4.9214714e-06
5.1563996e-06
5.3974467e-06
5.7658083e-06
6.1636058e-06
7.0323759e-06
7.3276202e-06
7.2577959e-06
5.8584853e-07
4.0780223e-07
3.0448299e-07
2.9786899e-07
3.0586567e-07
4.0641893e-07
8.4183959e-07
1.9271846e-06
2.3341265e-06
2.7222973e-06
3.2684497e-06
4.1458801e-06
4.3332004e-06
4.2734464e-06
4.2387933e-06
4.2103358e-06
4.3448902e-06
4.6659279e-06
4.9943586e-06
5.3285963e-06
5.6849588e-06
5.9351749e-06
6.0624244e-06
6.098545e-06
6.4818754e-06
7.2644031e-06
7.8414103e-06
5.8038437e-07
4.4808812e-07
4.3765916e-07
4.0196218e-07
3.751296e-07
4.8403621e-07
1.0654532e-06
2.3387486e-06
2.6733831e-06
2.9403554e-06
3.1856019e-06
3.5758922e-06
4.2168478e-06
4.7557797e-06
4.6282757e-06
4.4789789e-06
4.5819413e-06
4.9081469e-06
5.3425378e-06
5.7658361e-06
6.2551662e-06
6.3592965e-06
6.3814778e-06
6.2164272e-06
6.3671799e-06
7.1476452e-06
7.9115049e-06
4.9224482e-07
4.6286177e-07
3.2669166e-07
2.9342975e-07
3.1538814e-07
5.3158568e-07
1.6429088e-06
3.5854463e-06
4.5221511e-06
5.0177832e-06
5.3926038e-06
5.4742353e-06
5.5325322e-06
5.520125e-06
5.3873481e-06
5.1230388e-06
5.1690619e-06
5.4932241e-06
5.8423374e-06
6.1269171e-06
6.4835366e-06
6.6984852e-06
6.847632e-06
6.6768079e-06
6.6913336e-06
7.1974696e-06
8.0724968e-06
4.0500035e-07
4.4185611e-07
4.3793237e-07
3.3685692e-07
3.0295326e-07
3.9809695e-07
8.9954371e-07
2.6414382e-06
3.510901e-06
4.600413e-06
5.4204769e-06
5.7072755e-06
5.8491764e-06
6.0051516e-06
6.0562379e-06
6.0667528e-06
6.2619859e-06
6.7548697e-06
6.814793e-06
6.768453e-06
6.8849513e-06
7.2774167e-06
7.3522361e-06
7.3459498e-06
7.3892648e-06
7.8699144e-06
8.9821741e-06
3.8481436e-07
4.2412734e-07
4.2291815e-07
5.1175996e-07
5.4049834e-07
6.3115918e-07
1.1995507e-06
2.9571986e-06
3.7143017e-06
3.9731158e-06
4.251023e-06
4.3574429e-06
4.8722752e-06
6.038514e-06
6.5944724e-06
6.7390183e-06
7.0223094e-06
7.8235576e-06
8.2134781e-06
8.0247638e-06
7.821483e-06
7.7736315e-06
7.8295028e-06
8.0159731e-06
8.2296163e-06
9.363986e-06
1.0479826e-05
4.0803009e-07
4.275627e-07
4.308293e-07
5.0510046e-07
6.3306631e-07
7.8483257e-07
1.2585578e-06
2.8028664e-06
4.0756071e-06
4.8383147e-06
5.4223606e-06
5.2897751e-06
5.113032e-06
5.572683e-06