/*--------------------------------*- C++ -*----------------------------------*\
| =========                 |                                                 |
| \\      /  F ield         | OpenFOAM: The Open Source CFD Toolbox           |
|  \\    /   O peration     | Version:  2406                                  |
|   \\  /    A nd           | Website:  www.openfoam.com                      |
|    \\/     M anipulation  |                                                 |
\*---------------------------------------------------------------------------*/
FoamFile
{
    version     2.0;
    format      ascii;
    arch        "LSB;label=32;scalar=64";
    class       volScalarField;
    location    "7";
    object      omega_0;
}
// * * * * * * * * * * * * * * * * * * * * * * * * * * * * * * * * * * * * * //

dimensions      [0 0 -1 0 0 0 0];

internalField   nonuniform List<scalar> 
96472
(
3.7087347
3.0062067
2.6237945
2.3606706
2.1577446
1.9773642
1.8040709
1.6429323
1.5066907
1.4034051
1.3325679
1.287778
1.2619692
1.2482153
1.2411364
1.2375396
1.235569
1.2345468
1.2344657
1.23494
1.2359434
1.237371
1.2390616
1.2409733
1.2427174
1.2438882
1.2456036
1.2468959
1.2497363
1.2525012
1.2556809
1.2581836
1.2619326
1.2641708
1.2675763
1.2701524
1.2723627
1.2744736
1.2781673
1.282596
1.2889558
1.2958347
1.3057895
1.3151049
1.3283771
1.3411519
1.3590047
1.3735953
1.3937939
1.4100031
1.4327769
1.4540028
1.4758557
1.5046823
1.53882
3.711247
3.0092377
2.6266666
2.3632424
2.1606916
1.9816686
1.8101097
1.6499064
1.5132991
1.4086627
1.3362877
1.2902601
1.2635382
1.2490772
1.2415344
1.2376035
1.2354878
1.2344202
1.2343457
1.2346244
1.23544
1.2366009
1.2380237
1.2398092
1.2414409
1.2423599
1.2427676
1.2434233
1.2444266
1.2461432
1.2486905
1.2521425
1.2571334
1.2608838
1.2657729
1.2695681
1.2743363
1.2777025
1.2829964
1.2858035
1.291329
1.2955416
1.3042405
1.3106368
1.3223038
1.3342323
1.3458937
1.365197
1.3763709
1.3993387
1.4116921
1.4351557
1.4548178
1.4719226
1.509893
3.7136718
3.012156
2.629639
2.3660775
2.1639163
1.9857898
1.8149101
1.65464
1.5173618
1.4117795
1.3385765
1.2918613
1.2646229
1.2498043
1.2420134
1.2380512
1.2358894
1.234764
1.2345293
1.2347264
1.2353941
1.2364835
1.237832
1.2396069
1.2413639
1.2425807
1.2432676
1.2438676
1.2445821
1.2454595
1.246736
1.2483208
1.2513016
1.2537457
1.2580574
1.2625467
1.2693719
1.274588
1.2809502
1.2852865
1.2903579
1.2960613
1.3009424
1.309514
1.3155205
1.3280159
1.3356018
1.3530525
1.3619568
1.3811739
1.3960367
1.4119964
1.4355736
1.4494033
1.4826076
3.7161893
3.0149819
2.632515
2.3688864
2.1671743
1.990077
1.8202087
1.6603073
1.5225485
1.4158921
1.341571
1.2938502
1.2659316
1.2506986
1.2425764
1.2383716
1.2361304
1.2349778
1.2347088
1.2348557
1.2354361
1.2363954
1.2376262
1.2393149
1.241089
1.242376
1.2431853
1.2439395
1.2446854
1.2455476
1.2467027
1.2479682
1.2500303
1.251626
1.2544246
1.2567928
1.2607136
1.2660778
1.2722051
1.2804177
1.2860163
1.2941517
1.2983362
1.3073544
1.3122025
1.3234667
1.3294454
1.3419612
1.3531894
1.3635977
1.3811938
1.3917681
1.4134892
1.42561
1.454381
3.7187081
3.0177955
2.6353868
2.3717083
2.1704422
1.9942986
1.8253127
1.6656465
1.5274063
1.4198048
1.3444432
1.2958305
1.2672829
1.251593
1.2431445
1.2387704
1.2364845
1.2352752
1.2349266
1.2350139
1.2355117
1.2363807
1.2374836
1.2390374
1.2408096
1.2422207
1.2430709
1.2438332
1.2447334
1.2457886
1.2469617
1.248387
1.2498746
1.2517253
1.2532516
1.2557374
1.2576078
1.2619634
1.2650528
1.2718918
1.2764689
1.286695
1.2919359
1.302747
1.3077821
1.3182976
1.3263996
1.3347802
1.3478545
1.3552245
1.3702853
1.3786621
1.3962789
1.4062335
1.429481
3.7212444
3.0206117
2.6382616
2.3744888
2.1736044
1.9983869
1.8303744
1.6711165
1.5324883
1.4238974
1.3475054
1.2979803
1.2687267
1.2525959
1.2437881
1.2391937
1.2368032
1.2355487
1.235147
1.2351938
1.2355911
1.2363519
1.2373474
1.2387637
1.2404762
1.2419342
1.2428173
1.2435654
1.2444879
1.245638
1.2468861
1.2484944
1.2497593
1.2518149
1.2529823
1.25543
1.2569469
1.2605707
1.2628104
1.2679195
1.2711441
1.278761
1.2831554
1.2917268
1.3004904
1.3074514
1.3195788
1.3264753
1.3402951
1.3475308
1.3622665
1.3700691
1.3857414
1.3941966
1.4134478
3.723796
3.0234163
2.6410937
2.3772082
2.1767717
2.0025383
1.8354986
1.6766284
1.5376258
1.4281113
1.3506411
1.3001765
1.2702249
1.2535928
1.2444096
1.2396335
1.2371773
1.2358728
1.2354067
1.2353934
1.235721
1.2363832
1.2372703
1.2385655
1.2401847
1.2416851
1.2426343
1.2433682
1.2442343
1.2453609
1.2465963
1.2482934
1.2495223
1.2515824
1.252658
1.2550387
1.2564207
1.2597375
1.2617739
1.2660976
1.2692086
1.273926
1.2799074
1.2842725
1.2930474
1.2984428
1.3096336
1.3159901
1.3291317
1.3363397
1.3509142
1.3585993
1.3740896
1.3823152
1.4004418
3.726338
3.0261957
2.6440171
2.3800434
2.1798197
2.0063524
1.8402172
1.6818642
1.5426572
1.4323049
1.3538303
1.3024399
1.2717691
1.2546627
1.2451326
1.2401355
1.2375633
1.236215
1.2356945
1.2356307
1.235886
1.236473
1.2372284
1.2384031
1.2399268
1.241452
1.2424935
1.2432401
1.2440469
1.2451018
1.2463597
1.2480096
1.249212
1.2512189
1.2521856
1.254423
1.2557445
1.2584959
1.2610341
1.2641053
1.2684825
1.2714654
1.2774941
1.2811632
1.2887454
1.2932305
1.3025055
1.3079174
1.3192104
1.3255581
1.3386246
1.3457696
1.3604061
1.3683735
1.3857237
3.7289215
3.028996
2.6468409
2.3826863
2.1827916
2.0104045
1.8454853
1.6877339
1.5482266
1.4369232
1.357268
1.3048337
1.273388
1.2557297
1.2458191
1.2406022
1.23795
1.2365684
1.2360226
1.2359032
1.236108
1.2366032
1.2372586
1.2382876
1.2396991
1.2412582
1.2423833
1.2431356
1.2439212
1.244926
1.246172
1.2476867
1.2491149
1.250588
1.2518558
1.253399
1.2552234
1.2569421
1.2602908
1.2624105
1.266812
1.2695629
1.2751575
1.2785324
1.285485
1.2894343
1.2976234
1.3022766
1.3120157
1.3175177
1.3289155
1.3352987
1.3482158
1.3553748
1.3708901
3.7315027
3.0317936
2.649667
2.3853195
2.1857369
2.0143104
1.8504589
1.6932201
1.5534413
1.4412251
1.3605108
1.3071557
1.2749569
1.2568207
1.2465728
1.2411638
1.2383808
1.2369733
1.236381
1.2362128
1.2363652
1.2367869
1.2373495
1.2382523
1.2395397
1.2410831
1.2422949
1.243071
1.2438192
1.2448131
1.2460539
1.2474664
1.2489672
1.2500215
1.2516001
1.2525828
1.2547183
1.2561125
1.25917
1.2611228
1.2650803
1.2675303
1.2726324
1.2756966
1.2819899
1.2856479
1.2931363
1.2974037
1.3062269
1.3112015
1.3213841
1.3269945
1.3384525
1.3447512
1.3583373
3.7340876
3.0345685
2.6524918
2.3879645
2.1886532
2.0181385
1.8553034
1.6985742
1.5585299
1.4454823
1.3637486
1.3094772
1.2765243
1.2578697
1.2472832
1.241684
1.2388358
1.2374124
1.2367808
1.2365579
1.2366648
1.2370177
1.2374875
1.2382872
1.2394442
1.2409354
1.2422278
1.2430494
1.2437959
1.2447819
1.2459809
1.2473347
1.248779
1.249662
1.2512068
1.2519953
1.2540618
1.2553281
1.258123
1.2599048
1.2634661
1.2656868
1.2702547
1.2730099
1.2787548
1.2820682
1.2889574
1.2928585
1.3010139
1.3055022
1.3147876
1.3198391
1.3302614
1.335791
1.3476279
3.7366684
3.0373015
2.6554125
2.3907594
2.1915303
2.0216353
1.8596037
1.7033684
1.5632153
1.4494675
1.3668128
1.311696
1.278035
1.2588988
1.2480176
1.2422629
1.2392909
1.2378389
1.2371986
1.2369408
1.2370024
1.2372987
1.2377033
1.2383919
1.2394217
1.2408376
1.2421969
1.2430895
1.2438203
1.2447853
1.2459947
1.2472896
1.2486185
1.2494281
1.2508168
1.251495
1.2533973
1.2545935
1.2572197
1.2588224
1.2621104
1.2641281
1.2682662
1.2707818
1.2759011
1.2789109
1.2851798
1.2887543
1.2961936
1.300287
1.3087109
1.3133629
1.3227233
1.3277957
1.338272
3.7392475
3.0400612
2.6582737
2.393395
2.1942733
2.0251699
1.8641918
1.7086081
1.5683417
1.4538345
1.3701415
1.3140259
1.279565
1.2598957
1.2487123
1.2427959
1.2397434
1.2382783
1.2376361
1.2373474
1.2373632
1.2376064
1.2379497
1.238541
1.23948
1.2408069
1.2422173
1.243178
1.2439347
1.2448885
1.2460379
1.2472879
1.2485122
1.2492892
1.2505186
1.2510804
1.2527993
1.2538924
1.256291
1.2578043
1.2608693
1.2627085
1.2665064
1.2687611
1.2734571
1.2762165
1.2819023
1.2851634
1.2919244
1.2956716
1.3032549
1.3077241
1.316023
1.320597
1.3301798
3.7418638
3.0428156
2.6611371
2.3960636
2.197019
2.0285972
1.868564
1.7135646
1.5731932
1.4579553
1.3733047
1.3162543
1.2810539
1.260881
1.2494057
1.2433334
1.2402162
1.2387283
1.2380668
1.2377519
1.2377304
1.237922
1.2382231
1.2387444
1.2395846
1.2408189
1.2422608
1.2433147
1.2441296
1.2450731
1.2461902
1.2473478
1.248484
1.24924
1.2502883
1.2507592
1.2523018
1.2532807
1.25549
1.2568831
1.2597052
1.261437
1.264964
1.267066
1.271363
1.2738498
1.2790694
1.2820114
1.2882058
1.2915645
1.2983371
1.3028133
1.3098265
1.3141109
1.3233854
3.7443935
3.0455283
2.6640097
2.398731
2.1997287
2.0319905
1.8729309
1.7185872
1.5781885
1.4622611
1.3766448
1.318597
1.2825924
1.2618691
1.250055
1.2438074
1.2405932
1.2390962
1.238455
1.2381375
1.2381118
1.2382869
1.2385442
1.2389957
1.2397518
1.2408893
1.2423337
1.2434939
1.2443776
1.2453064
1.2464076
1.2475471
1.2485718
1.2492773
1.2501684
1.2505683
1.2519383
1.2528235
1.2548466
1.2561059
1.2587118
1.2602887
1.2635262
1.2654475
1.2694604
1.2718308
1.2766749
1.2794085
1.2850508
1.2880954
1.2941399
1.2987061
1.3042565
1.3087353
1.3168334
3.7470915
3.048295
2.6668395
2.4013143
2.2023659
2.0354318
1.8774532
1.7238238
1.5833683
1.4667023
1.3800454
1.3209488
1.2840786
1.2627992
1.2506657
1.2442894
1.2409943
1.2394824
1.2388411
1.2385167
1.2384679
1.2386084
1.2388636
1.2392739
1.2399721
1.2410217
1.2424308
1.2436992
1.2446761
1.245616
1.2467062
1.2478114
1.2487446
1.2494022
1.2501459
1.2505234
1.2517481
1.2525289
1.2543673
1.2555227
1.2578391
1.2592747
1.2622379
1.2640523
1.2678323
1.2700231
1.2746258
1.2771482
1.2823556
1.2851669
1.2904401
1.295186
1.2994963
1.3042851
1.3111576
3.7495843
3.0509595
2.6696441
2.403948
2.2050642
2.0388558
1.881935
1.7290197
1.5885603
1.4711752
1.3835231
1.3233894
1.2856692
1.2638197
1.2513221
1.2447545
1.2413563
1.2398285
1.239182
1.2388387
1.2387949
1.2389353
1.2392122
1.2395824
1.2402197
1.2412049
1.2425693
1.2439166
1.2449937
1.2459745
1.2470845
1.2481685
1.2490548
1.249659
1.2502771
1.2506328
1.2516783
1.2523824
1.2540651
1.2550591
1.2571379
1.2584484
1.2611441
1.2628111
1.2662831
1.268396
1.2727176
1.2751433
1.2802053
1.2828359
1.2873108
1.2921641
1.2958929
1.3003736
1.3062554
3.7523364
3.0536997
2.6723904
2.406443
2.2076907
2.0423628
1.8866503
1.734524
1.5940343
1.475884
1.3871321
1.3259257
1.2872996
1.2648451
1.2519624
1.2451946
1.2416962
1.2401226
1.2394705
1.2391344
1.2391163
1.2392715
1.2395398
1.239898
1.2404963
1.2414545
1.242757
1.2441657
1.2453417
1.2463936
1.2475084
1.2485745
1.2494067
1.2499665
1.2504892
1.2508587
1.2517463
1.2523961
1.2539111
1.2548066
1.2566923
1.2578657
1.2602987
1.2617946
1.2650911
1.2671499
1.2709238
1.2736846
1.2781778
1.2804149
1.284525
1.2893707
1.2927548
1.2968551
1.3019112
3.7548471
3.0563406
2.6751876
2.4090581
2.2104068
2.0458222
1.891193
1.7398144
1.5993702
1.4805217
1.3907902
1.3285384
1.2890265
1.2659648
1.2526795
1.2456809
1.2420656
1.2404565
1.2397798
1.2394364
1.2394145
1.2395864
1.2398816
1.240265
1.2408077
1.2416809
1.2429619
1.2444351
1.2457405
1.2468838
1.2480171
1.249096
1.2499614
1.2505124
1.2509318
1.2512025
1.2519294
1.2526084
1.2540616
1.2548451
1.2564909
1.2575118
1.2595732
1.2609811
1.2638752
1.2658163
1.2692968
1.2722759
1.2765969
1.2786901
1.2825315
1.2870901
1.2899436
1.2936723
1.2980136
3.7576025
3.0590661
2.6779211
2.4115425
2.2129991
2.0493377
1.8959808
1.7454993
1.605111
1.4855486
1.3946896
1.331331
1.2908773
1.2671901
1.253478
1.2462534
1.242507
1.240842
1.2401184
1.2397634
1.2397473
1.2399451
1.2402385
1.2406609
1.2411916
1.2420293
1.2432717
1.2447361
1.2461382
1.2473907
1.2485743
1.2496264
1.2504682
1.2510345
1.2514522
1.2517331
1.2522724
1.2529037
1.2542107
1.2549413
1.2564994
1.2574035
1.2593171
1.2605534
1.2632537
1.2651092
1.2682032
1.2710706
1.2750425
1.2770073
1.2803183
1.284898
1.2878228
1.2910593
1.2948734
3.7601356
3.0617364
2.6807616
2.414166
2.2157313
2.0528715
1.9006508
1.750984
1.6107082
1.4905458
1.398763
1.3344227
1.2931293
1.2688063
1.2547177
1.2471876
1.2433076
1.2415722
1.2407741
1.2403968
1.2403515
1.2405714
1.2409108
1.2413193
1.241862
1.2426444
1.2437629
1.2452508
1.2467958
1.2481863
1.2494185
1.2505038
1.2514362
1.2520022
1.2522745
1.2523624
1.2527961
1.253623
1.2548045
1.2554848
1.256829
1.2575834
1.2590426
1.2600987
1.2623677
1.2640549
1.2674083
1.2702638
1.2743283
1.2763508
1.2791785
1.2828737
1.2859361
1.2883057
1.2914371
3.7628741
3.0644228
2.6837328
2.4172375
2.2186938
2.0562361
1.9048294
1.7557723
1.6158055
1.4956934
1.4035917
1.3387558
1.2968643
1.2720198
1.2575142
1.2497238
1.2456331
1.2437326
1.2428312
1.2424135
1.2422732
1.2424358
1.2427998
1.2432307
1.2437581
1.2444943
1.2455488
1.2469132
1.2484605
1.2499754
1.2513364
1.2523633
1.2532391
1.2538734
1.2542186
1.2542858
1.2544161
1.2549646
1.2560555
1.2568845
1.2581411
1.2587921
1.2601049
1.2610677
1.2629248
1.2645613
1.2674778
1.2700108
1.2740953
1.276171
1.2787154
1.2821238
1.2852758
1.2876733
1.2904026
3.7656533
3.0673657
2.6871494
2.4207356
2.2216023
2.0612665
1.9121331
1.7642587
1.6254748
1.506911
1.4160477
1.3515487
1.3094353
1.2838216
1.268761
1.260403
1.2558725
1.2535387
1.2523025
1.251763
1.2513187
1.2512132
1.2514978
1.2518507
1.2522173
1.2528615
1.25362
1.2545407
1.2559102
1.257542
1.2591496
1.2606781
1.2617581
1.2624285
1.2622115
1.2617033
1.2614149
1.2616219
1.2623133
1.2628973
1.2635933
1.2639711
1.264696
1.2652505
1.2664447
1.2682688
1.2706362
1.2738051
1.2777654
1.2796338
1.2813247
1.2841849
1.2871901
1.2894093
1.2910486
3.7700052
3.0733881
2.6952968
2.4305737
2.2280143
2.0786488
1.9375503
1.7910272
1.6560873
1.5462426
1.4642469
1.4048033
1.3647635
1.3380306
1.3216023
1.3122022
1.3062156
1.3026431
1.3007551
1.3000871
1.2988541
1.2982938
1.29867
1.2988223
1.2982386
1.2982658
1.2972576
1.2951992
1.2956194
1.2970595
1.2992379
1.3027544
1.3057829
1.3070212
1.3064086
1.3042138
1.3001544
1.2980202
1.2973399
1.2971648
1.2969218
1.2964312
1.2955789
1.29468
1.2946635
1.2950143
1.2958941
1.2980606
1.3023684
1.3047971
1.305882
1.3079215
1.3090615
1.3121354
1.3116134
3.8031838
3.1173567
2.759306
2.5093901
2.2775115
2.1973024
2.0936218
1.930941
1.7945769
1.7120572
1.6668965
1.6313131
1.6019564
1.5736509
1.5536844
1.5426563
1.5337616
1.5278951
1.5265501
1.5284322
1.5284148
1.5293918
1.5377772
1.5415543
1.5375218
1.5386573
1.5324017
1.5161407
1.5069624
1.5062554
1.5083785
1.523119
1.5431857
1.5471901
1.5452681
1.5327653
1.4998315
1.4817824
1.4722065
1.4670361
1.4612917
1.452675
1.4430457
1.4320863
1.4255824
1.4224387
1.4208707
1.420896
1.4221128
1.4228517
1.4225244
1.4212076
1.4173975
1.415254
1.403849
4.1336615
3.599403
3.2915221
3.1951348
2.8620967
3.1093131
3.2001919
2.9576353
2.7170464
2.7096092
2.7891356
2.9032303
2.9457729
2.9519034
2.9568581
2.9650268
2.9785078
2.9818702
2.9934171
3.0415731
3.0499816
3.0652193
3.1530604
3.1984374
3.1360433
3.1926215
3.1566375
3.0988046
3.0427981
3.04396
3.0533891
3.1365865
3.288736
3.3197556
3.3039113
3.2191248
3.0559425
2.9878954
2.9511022
2.9418734
2.920207
2.8969154
2.861558
2.7823834
2.7357892
2.7096969
2.6890669
2.6831424
2.6845569
2.6845211
2.6744498
2.6544098
2.6108226
2.5857107
2.5050366
11.50673
11.91333
11.691508
11.897211
11.59572
11.57214
11.610146
11.632736
11.615869
11.618212
11.641037
11.674966
11.710952
11.743713
11.767456
11.784672
11.794611
11.807782
11.818332
11.835689
11.851934
11.86837
11.880507
11.902159
11.914982
11.910959
11.927274
11.894252
11.883695
11.832698
11.804052
11.778507
11.787004
11.798828
11.828294
11.832332
11.84868
11.831517
11.846054
11.822942
11.835429
11.806526
11.805889
11.788388
11.758176
11.758267
11.748675
11.729083
11.730381
11.743558
11.7319
11.718968
11.718351
11.724499
11.71611
12.078537
2.5910581
1.4223086
1.316646
1.2945452
1.294011
1.2958162
1.2998178
1.3032565
1.307843
1.3122273
1.3175973
1.3232555
1.3297309
1.336973
1.3451098
1.354236
1.3649781
1.3778967
1.3929822
1.4081521
1.4207785
1.4370465
1.4624668
1.4919137
1.5203765
1.5488264
12.815652
2.7248138
1.4477684
1.3255583
1.3019127
1.2994441
1.3008095
1.3044959
1.3076887
1.3120714
1.3166517
1.3219189
1.3279
1.3349525
1.3425739
1.3509873
1.3603485
1.3710446
1.3838388
1.3992733
1.4153827
1.4293056
1.4432691
1.4657385
1.4959464
1.5265118
1.5536303
13.615564
2.9077103
1.4805345
1.3402617
1.3128514
1.3086114
1.3102463
1.3134888
1.3171251
1.3208828
1.3251957
1.3303489
1.335925
1.3426476
1.3503014
1.3587987
1.3682204
1.3789508
1.3914387
1.406654
1.423247
1.4379923
1.4522064
1.4728509
1.5020438
1.5362216
1.5610658
14.482937
3.0867574
1.5088762
1.3520984
1.3201496
1.3144858
1.3166651
1.3195703
1.3242058
1.3288283
1.334037
1.3397237
1.3460272
1.3529515
1.3604581
1.3689081
1.3782396
1.3887244
1.4008387
1.4155892
1.4322675
1.4475761
1.4616239
1.4811625
1.5080608
1.5457728
1.572342
15.414161
3.2137186
1.5281365
1.3618082
1.3278296
1.3216902
1.3239489
1.3272765
1.3322888
1.3365512
1.3419599
1.3479917
1.3546377
1.3620418
1.3701338
1.379058
1.3887799
1.3994049
1.4116481
1.4261522
1.4430324
1.4589437
1.472576
1.490814
1.5144366
1.5532923
1.5837125
16.416705
3.3454423
1.5504074
1.3708275
1.3351627
1.3284516
1.3302622
1.3338626
1.3398882
1.3446561
1.3503174
1.3560791
1.362725
1.3701027
1.3781959
1.3871793
1.397015
1.4078556
1.4203562
1.4351193
1.4523471
1.4694926
1.4839822
1.5018176
1.5226855
1.5604163
1.5930011
17.49913
3.6043455
1.5937548
1.3901948
1.3515583
1.3404843
1.3415967
1.3442586
1.3491226
1.3530397
1.358665
1.3645323
1.3713207
1.3790068
1.3873462
1.3966179
1.4067091
1.4177884
1.430261
1.4448272
1.4620358
1.4798415
1.4954658
1.5129489
1.5329559
1.5671272
1.6010949
18.668783
4.0327263
1.6867876
1.4170157
1.367113
1.3539212
1.3536239
1.3558457
1.3608083
1.3638662
1.3687304
1.3740856
1.3803661
1.3873844
1.3954795
1.4048242
1.4151044
1.4266041
1.4391673
1.4539665
1.4713452
1.4897471
1.5065174
1.5246294
1.5441363
1.5745072
1.6094449
19.927368
4.3917662
1.7705108
1.4476517
1.3864256
1.3658767
1.3646959
1.3657989
1.3698179
1.3741741
1.3796372
1.3853786
1.3918539
1.3990258
1.4070271
1.4159496
1.4259797
1.4371038
1.4493201
1.4633153
1.4802547
1.4989521
1.516004
1.5349314
1.5529419
1.5816493
1.618133
21.282691
4.6370861
1.8252336
1.4681992
1.3980894
1.3781582
1.3744017
1.3758249
1.3800231
1.3841568
1.3897961
1.3956303
1.4026193
1.4101917
1.4183057
1.4273468
1.4374006
1.4485581
1.4607851
1.4743796
1.4906899
1.5097218
1.5266028
1.5461806
1.5630169
1.5891884
1.6273891
22.742615
4.7830096
1.853194
1.4886898
1.4133878
1.3885322
1.3833498
1.3847901
1.389234
1.3940995
1.4003893
1.4069187
1.4143671
1.4223049
1.430673
1.4399051
1.4498822
1.4607963
1.4726689
1.4854805
1.5008108
1.5194336
1.5360453
1.5554699
1.5722873
1.5950445
1.634559
24.318019
4.8970335
1.87085
1.4998751
1.4232708
1.4017607
1.3935495
1.3947968
1.3986726
1.403415
1.4096724
1.4165579
1.424091
1.4322772
1.4411195
1.4510449
1.4618418
1.4733694
1.4859604
1.4990424
1.5139652
1.5326135
1.5492408
1.5688295
1.5848839
1.6051688
1.6431667
26.016673
5.0269281
1.893333
1.5199056
1.4426888
1.4162446
1.4063168
1.4073592
1.4103707
1.4158178
1.4216683
1.4282093
1.4357344
1.443594
1.452146
1.4618047
1.4722471
1.4837847
1.4960848
1.5091897
1.5235535
1.5419629
1.5585091
1.5793011
1.5955729
1.6137123
1.6501966
27.849826
5.1702187
1.9235367
1.5336558
1.4573957
1.4309293
1.4185869
1.4184309
1.4204772
1.4255792
1.4315252
1.4381178
1.4459055
1.4540402
1.4632446
1.4732914
1.4842544
1.4964134
1.5089247
1.5227444
1.5369346
1.5547101
1.5712666
1.5926773
1.6093968
1.6249752
1.6584115
29.830327
5.4371859
1.9777949
1.5572211
1.4787559
1.4495327
1.4341735
1.4335226
1.4357134
1.4405056
1.4461693
1.452368
1.4588917
1.4665786
1.474811
1.4839654
1.4942687
1.5058643
1.5181369
1.5320666
1.5460481
1.5637816
1.580853
1.6027858
1.6218648
1.6361318
1.6669892
31.967044
5.7093006
2.0200465
1.5730099
1.495031
1.4639491
1.4465874
1.4450606
1.4473373
1.4529949
1.4590557
1.4657524
1.4729293
1.4806654
1.4887745
1.4977926
1.5078173
1.5186066
1.5305757
1.5437006
1.5570594
1.5740163
1.5903495
1.612617
1.6335757
1.6473433
1.6754914
34.269267
5.9826476
2.066765
1.5955876
1.5107558
1.4803566
1.4612961
1.458448
1.4607541
1.4667868
1.472952
1.4803038
1.4875093
1.4949376
1.5029494
1.5118723
1.5215429
1.5320451
1.5438624
1.5560751
1.5691608
1.585137
1.6003382
1.6210141
1.6441569
1.6568904
1.6821207
36.755746
6.4014297
2.1154941
1.6134717
1.5266242
1.4982071
1.4761937
1.471844
1.4730519
1.4789756
1.4859327
1.4932915
1.500856
1.5086491
1.5168849
1.5257557
1.535314
1.545708
1.5572342
1.5687716
1.5813779
1.5966704
1.6105375
1.6298077
1.6548155
1.6678175
1.6910086
39.422178
6.8575378
2.1831355
1.6416662
1.5454407
1.5179685
1.4925446
1.4858031
1.4865688
1.4913353
1.4983326
1.5058752
1.5136083
1.5216236
1.530321
1.5391918
1.5490044
1.559494
1.5708128
1.5824822
1.594521
1.6101629
1.6221263
1.6397426
1.6649598
1.6788133
1.6991309
42.23799
7.4000043
2.2623803
1.6683853
1.5645457
1.5370678
1.5088504
1.4999553
1.4984133
1.502278
1.5093666
1.5166965
1.5245259
1.5331821
1.5421718
1.5516388
1.5617507
1.5726759
1.5835787
1.5956645
1.6065395
1.6225454
1.6332668
1.6477031
1.6741097
1.6894128
1.7080393
45.291718
8.2482021
2.4208552
1.7129068
1.5914261
1.5597697
1.5306745
1.5166098
1.5133489
1.5156115
1.5209096
1.5273646
1.5343685
1.5424308
1.5513785
1.5607872
1.5713643
1.5828931
1.5939497
1.6075594
1.6182297
1.6353298
1.6464623
1.6582783
1.6833649
1.7004523
1.7183345
48.475621
9.0015949
2.5608082
1.7545914
1.6159731
1.5827097
1.5496457
1.5333104
1.527784
1.5293724
1.5336906
1.5394237
1.5458438
1.5535274
1.5617712
1.5712566
1.5814524
1.5931006
1.6037149
1.6181059
1.6278971
1.6450875
1.6576389
1.6677277
1.6907417
1.7091144
1.7280507
51.774505
9.8956031
2.7377113
1.7989572
1.6404935
1.6016098
1.5701794
1.5496632
1.5423209
1.5418036
1.5446555
1.5497305
1.5554477
1.5619848
1.5693423
1.5780987
1.5879658
1.5995921
1.6102524
1.6249912
1.6359458
1.6530496
1.6682712
1.6779593
1.6994278
1.7176975
1.7382601
55.31364
10.859031
2.9224589
1.8426017
1.6639005
1.6230827
1.5890978
1.5685369
1.5582911
1.557521
1.5598816
1.5645793
1.5697591
1.575274
1.5816429
1.5893317
1.5980295
1.6082924
1.6185781
1.6314982
1.6422135
1.657668
1.6740165
1.6833697
1.7031952
1.7203485
1.7424221
58.976326
12.040321
3.1772363
1.902081
1.6909128
1.6384806
1.6081497
1.5827835
1.5712027
1.5689384
1.5712367
1.5752286
1.5801552
1.5853875
1.5914938
1.5986865
1.6070973
1.6170966
1.6271012
1.6396295
1.6508997
1.6649259
1.6820906
1.6915656
1.710855
1.7257671
1.7490658
62.598208
12.909386
3.3372971
1.9387681
1.7044734
1.6530648
1.6205256
1.5966283
1.5833579
1.5803564
1.5829251
1.5874254
1.5922117
1.5972623
1.6025915
1.6092991
1.61655
1.6252947
1.634764
1.6456523
1.6564618
1.6684994
1.6869192
1.6961405
1.7150238
1.727667
1.7512595
66.382391
14.183984
3.5901375
1.9790258
1.7236545
1.6648154
1.6345414
1.6090075
1.5934141
1.5892491
1.5914497
1.5961871
1.6013972
1.6069367
1.6123818
1.619362
1.6263194
1.6351262
1.6441967
1.6545079
1.6645661
1.6752317
1.6926695
1.7015383
1.7196282
1.7305465
1.7526015
70.312335
15.393587
3.8038289
2.0226748
1.739655
1.6775229
1.6447961
1.6198699
1.6030835
1.5977313
1.5988259
1.6033556
1.6086597
1.6146569
1.6203743
1.6271456
1.6339758
1.6424553
1.6509552
1.6612791
1.6708844
1.6801324
1.6978108
1.7067795
1.7245392
1.7346152
1.7550679
73.974275
16.699219
4.1243981
2.0677868
1.7568806
1.6864614
1.6550087
1.6283118
1.6094338
1.6027976
1.6033492
1.6078023
1.6137286
1.6201921
1.6269608
1.6342888
1.6417721
1.6500118
1.6586174
1.6686003
1.6781927
1.6861806
1.7025856
1.7111106
1.7281652
1.7376303
1.75666
77.74423
17.770022
4.3537509
2.1101516
1.7684655
1.69688
1.6625803
1.6369492
1.6166962
1.6085116
1.6081443
1.6114319
1.6167697
1.6230726
1.629916
1.6377258
1.6457781
1.6548607
1.6635944
1.6745959
1.6841668
1.6917092
1.7076817
1.7159826
1.7322967
1.7410443
1.7588689
81.310378
19.423626
4.7450178
2.1691195
1.7843502
1.7038039
1.6694303
1.6431486
1.6215938
1.6118509
1.6099394
1.6126401
1.6181028
1.6244232
1.6312746
1.6393102
1.647689
1.6572183
1.6659183
1.6780064
1.6878986
1.6955437
1.7119543
1.7203158
1.7362624
1.7444112
1.7617193
84.820475
20.381552
5.0038252
2.2110581
1.7933626
1.7121996
1.6765151
1.649616
1.6272126
1.6156899
1.6128999
1.6146199
1.6190001
1.6248101
1.6312524
1.6389923
1.6475551
1.6572132
1.6659043
1.6782858
1.6888804
1.6967514
1.7131161
1.7224703
1.7382091
1.7468501
1.7636105
87.91834
22.165578
5.4618388
2.2760071
1.8083018
1.718587
1.6816939
1.6549971
1.632148
1.619561
1.615408
1.616265
1.6193982
1.624822
1.6309568
1.6383643
1.6469556
1.6565979
1.6653037
1.6776734
1.6883717
1.6963312
1.7125471
1.7224115
1.7380294
1.7471316
1.7634883
90.847593
22.675217
5.7531525
2.3360164
1.8167263
1.7217379
1.6853371
1.6587638
1.635493
1.6220883
1.6171293
1.6176562
1.6200385
1.6247234
1.6304026
1.6374585
1.6459168
1.6555912
1.6642913
1.676535
1.6875098
1.6954505
1.7115217
1.7216259
1.7372244
1.7465302
1.7624943
93.616068
23.624804
6.0619383
2.3894314
1.823606
1.7227899
1.6862589
1.661119
1.6385166
1.6244479
1.6193728
1.6196662
1.6217899
1.6254245
1.6303174
1.6366865
1.6442559
1.6536174
1.6622253
1.6743964
1.686001
1.6940949
1.7099036
1.7202687
1.7359391
1.7455401
1.7612695
95.613512
25.437577
6.6167685
2.4799162
1.8318144
1.7232168
1.6864077
1.6620903
1.6399203
1.6255384
1.6201554
1.6200886
1.6222333
1.6259848
1.6307137
1.6365747
1.6434709
1.6523188
1.6604391
1.6715238
1.6833791
1.6918227
1.7073538
1.7182303
1.7340519
1.744087
1.7598016
97.699533
26.199922
6.9635099
2.5458858
1.8387238
1.7230271
1.6856367
1.6620125
1.6400222
1.6256693
1.6200795
1.6198775
1.6220138
1.6257608
1.6304986
1.6363101
1.642941
1.6514877
1.6594767
1.6696474
1.6813195
1.6897242
1.7041452
1.715485
1.7310569
1.7421006
1.7581676
98.635061
27.974955
7.5271588
2.6402968
1.8466842
1.721276
1.6830588
1.660998
1.6394581
1.6252953
1.6195669
1.6192745
1.621431
1.6252361
1.6299959
1.6358542
1.6424082
1.6506468
1.6586195
1.6678
1.6794928
1.6880423
1.7017369
1.7126982
1.7286654
1.7391547
1.756302
99.402153
28.822159
8.0446827
2.7496562
1.8557636
1.7197066
1.6800797
1.6580195
1.6372196
1.6235186
1.6177861
1.6175479
1.6200551
1.6241893
1.6291012
1.6350995
1.6417726
1.6498312
1.6579641
1.6664689
1.6781279
1.6866182
1.699633
1.7099982
1.7266541
1.7358832
1.7542961
99.603258
29.194472
8.3420208
2.8347695
1.8646118
1.716482
1.6762676
1.6542891
1.6339709
1.6205524
1.6150031
1.6148813
1.617657
1.6221112
1.6272367
1.6335645
1.6405535
1.6486498
1.6572133
1.6654244
1.6771168
1.6856132
1.6980696
1.7085121
1.7247904
1.7343105
1.7523006
99.166926
29.66417
8.6535543
2.895854
1.8719853
1.7138609
1.6724327
1.6503536
1.6303596
1.6172381
1.6117255
1.6115562
1.6145669
1.619614
1.6252287
1.6317851
1.6389511
1.6470496
1.6560224
1.6641548
1.6760165
1.6847555
1.6968747
1.7075635
1.7233772
1.7333679
1.7498464
98.362491
29.846552
8.8982204
2.9522766
1.8766761
1.7105408
1.668161
1.6461777
1.6264179
1.6136391
1.6082364
1.6080071
1.6109202
1.6162219
1.6222191
1.6294021
1.6371601
1.6455565
1.6546712
1.6628415
1.6748508
1.6837837
1.6959113
1.7068495
1.7223937
1.7330589
1.7494724
97.07758
29.898045
9.1440903
3.0119693
1.8799417
1.7077023
1.6638455
1.6416113
1.6216769
1.6090422
1.6041194
1.6036944
1.6069199
1.6123147
1.618768
1.6263529
1.6346853
1.6437294
1.6531821
1.6619147
1.6736393
1.6829687
1.6949914
1.7068658
1.7217767
1.7336853
1.749291
95.311649
29.79985
9.3863577
3.0845903
1.882617
1.7039421
1.6591981
1.6372538
1.617478
1.6048107
1.6003211
1.5998549
1.6029494
1.6082713
1.614933
1.6226722
1.6315931
1.6409608
1.6512072
1.660822
1.6725407
1.6820715
1.6945293
1.7069111
1.7217401
1.7338356
1.7509581
93.273851
29.490994
9.5326986
3.1460979
1.884535
1.6999833
1.6545321
1.6325264
1.6133415
1.6003507
1.5962566
1.595743
1.5991233
1.6046816
1.6114527
1.6192983
1.6280095
1.6379219
1.6479355
1.6592155
1.6705819
1.6813655
1.6941731
1.7074253
1.7222894
1.7358489
1.7522686
90.819698
29.077392
9.584692
3.177269
1.8833228
1.6943116
1.6492378
1.628018
1.6089666
1.5967952
1.592475
1.5926226
1.5954205
1.6012846
1.6079433
1.6163354
1.625025
1.6349658
1.6453177
1.6565171
1.6685766
1.6800127
1.6944462
1.7076232
1.722805
1.7364828
1.7545771
88.050105
28.551724
9.5626166
3.1846975
1.8787587
1.6888649
1.643901
1.6232165
1.6040322
1.592668
1.5887747
1.5888881
1.5920016
1.597965
1.6050751
1.6134916
1.622619
1.63228
1.6428002
1.6539697
1.6656748
1.6786713
1.6941441
1.7085504
1.7240421
1.7399867
1.7587047
85.192717
27.899427
9.4035639
3.1459919
1.8650035
1.680605
1.637243
1.6175216
1.5983153
1.5882122
1.5851497
1.585377
1.5891815
1.5949635
1.6025277
1.6106093
1.6204668
1.6299548
1.6407045
1.6519884
1.6640358
1.6778257
1.6939359
1.7085846
1.724488
1.7416371
1.7614614
82.062513
27.187195
9.1839735
3.0818602
1.8467405
1.671602
1.6297749
1.6109768
1.5921815
1.5833665
1.5814392
1.5818181
1.5868464
1.5924658
1.6006524
1.6088525
1.6186372
1.6284447
1.6391534
1.6511192
1.6633333
1.6778232
1.6938116
1.7099931
1.7272825
1.7473632
1.768575
78.789586
26.390395
8.9064996
3.0013992
1.8257741
1.660756
1.6221619
1.6035124
1.5866141
1.5788624
1.5778536
1.5790502
1.5844726
1.5913751
1.5986936
1.6080806
1.6170216
1.6281323
1.6384269
1.6512861
1.6634509
1.6790467
1.6948846
1.7105878
1.728736
1.7494739
1.7713278
75.551096
25.547056
8.6203239
2.9209832
1.806244
1.6516179
1.614447
1.5966895
1.580397
1.5750801
1.5739477
1.5763596
1.5825173
1.589885
1.5981398
1.6070129
1.6170552
1.6273366
1.638945
1.6510954
1.6644414
1.6794272
1.6958851
1.7123903
1.734066
1.7560831
1.7794878
72.195237
24.649127
8.2961756
2.8354328
1.7855319
1.6414656
1.606328
1.588905
1.5747482
1.570335
1.5703584
1.5738598
1.581113
1.5887868
1.5973805
1.6070823
1.6169328
1.6277812
1.6395398
1.6527699
1.6668052
1.6832291
1.6994602
1.7173224
1.7375227
1.7595496
1.7847099
68.809541
23.729619
7.9545629
2.7411102
1.7640572
1.6315548
1.5988359
1.5812147
1.5689524
1.566125
1.5662537
1.571771
1.5793811
1.5881088
1.5969742
1.6069962
1.6174098
1.6281392
1.6405899
1.6541846
1.6692584
1.685277
1.7021415
1.72042
1.7429073
1.7692915
1.7975568
65.546384
22.753228
7.5664799
2.6356771
1.7403627
1.6213547
1.589905
1.5741959
1.5634181
1.5614262
1.562665
1.5683787
1.5779094
1.5867699
1.5970127
1.6071215
1.6180843
1.6302135
1.6430146
1.657319
1.6733627
1.6922617
1.709625
1.7301539
1.7542727
1.7796124