/*--------------------------------*- C++ -*----------------------------------*\
| =========                 |                                                 |
| \\      /  F ield         | OpenFOAM: The Open Source CFD Toolbox           |
|  \\    /   O peration     | Version:  2406                                  |
|   \\  /    A nd           | Website:  www.openfoam.com                      |
|    \\/     M anipulation  |                                                 |
\*---------------------------------------------------------------------------*/
FoamFile
{
    version     2.0;
    format      ascii;
    arch        "LSB;label=32;scalar=64";
    class       volScalarField;
    location    "7";
    object      p_0;
}
// * * * * * * * * * * * * * * * * * * * * * * * * * * * * * * * * * * * * * //

dimensions      [1 -1 -2 0 0 0 0];

internalField   nonuniform List<scalar> 
96472
(
1.0049773
1.007942
1.011263
1.0170374
1.0206339
1.0221709
1.0224128
1.0222729
1.0224159
1.0223099
1.0209659
1.0191579
1.0181821
1.0185386
1.0196524
1.0211885
1.0224666
1.023644
1.0248794
1.0263815
1.0284671
1.0313728
1.0355026
1.040613
1.0448645
1.0463584
1.0460034
1.0454831
1.0451092
1.0449647
1.0452457
1.0459524
1.0470396
1.0481084
1.0487891
1.0487298
1.0479031
1.0467966
1.0454043
1.0443563
1.0431931
1.0425712
1.0419439
1.0410888
1.0413208
1.0407182
1.0409063
1.0408416
1.040797
1.0402949
1.0394932
1.0387234
1.037251
1.0357464
1.0343191
1.0049036
1.007786
1.0110379
1.0167502
1.0202771
1.0218691
1.0222871
1.0223174
1.0225063
1.0223378
1.0209188
1.0189788
1.017928
1.0182453
1.019331
1.0208345
1.0221454
1.0233252
1.0244656
1.02582
1.0276747
1.0303886
1.0342944
1.0393384
1.043982
1.046111
1.0461178
1.0457581
1.0455361
1.0455345
1.0459703
1.0468152
1.0479821
1.0490954
1.049575
1.049259
1.0483916
1.047041
1.0458173
1.0445889
1.0437082
1.0428177
1.042097
1.0416976
1.04103
1.0409672
1.0408274
1.0408116
1.0408661
1.0405487
1.040126
1.0392747
1.0380895
1.0367777
1.0354824
1.0048262
1.0076147
1.0108144
1.016473
1.0199331
1.0215648
1.0221481
1.0223381
1.0225961
1.0224278
1.0208333
1.0187649
1.0176393
1.0178364
1.0188932
1.0204608
1.0218324
1.0229888
1.0240487
1.0252653
1.0269168
1.0294143
1.0331212
1.0380645
1.0430098
1.0456801
1.0461241
1.045995
1.0459218
1.0460764
1.0466329
1.0476601
1.0489131
1.0498874
1.0502523
1.0497633
1.0485923
1.0473113
1.045979
1.0449395
1.0439225
1.043122
1.0424358
1.0416983
1.041306
1.0409516
1.0407261
1.0409053
1.0408003
1.0407088
1.0404744
1.0398364
1.0388628
1.0378885
1.0365492
1.004751
1.0074429
1.0105926
1.016208
1.0196013
1.0212692
1.0220295
1.0224031
1.0226945
1.022409
1.0208019
1.0186361
1.0174457
1.0176547
1.0186658
1.020148
1.0215101
1.0226793
1.0236788
1.0247424
1.0262162
1.0284274
1.0319229
1.0367598
1.0419518
1.0452034
1.0460642
1.0461617
1.0462349
1.0465425
1.0473056
1.0484224
1.0497125
1.0507172
1.0508094
1.0501238
1.0489746
1.0475352
1.046353
1.0452155
1.0443104
1.0434164
1.0425453
1.0419216
1.0413989
1.0408962
1.040856
1.0406789
1.0406771
1.040867
1.0407018
1.0402098
1.0394713
1.0387247
1.0374066
1.0046738
1.0072813
1.0103794
1.0159568
1.019278
1.0209759
1.0218913
1.0223986
1.0227545
1.0225163
1.0207011
1.0184225
1.0171934
1.0172456
1.0182272
1.0197805
1.0212741
1.0224164
1.0233061
1.0242181
1.025522
1.0275579
1.0307376
1.035375
1.0407548
1.0445631
1.0459091
1.0462533
1.0465111
1.0470167
1.0479001
1.0492035
1.0505677
1.0513906
1.051362
1.0504781
1.0490573
1.0477025
1.0464086
1.0453942
1.0444615
1.0435426
1.0428319
1.0421012
1.0413885
1.0410766
1.0407055
1.04057
1.0407322
1.0407113
1.0405709
1.0403422
1.0402082
1.0394495
1.0382844
1.0045982
1.0071256
1.010178
1.0157209
1.0189713
1.0206874
1.0217413
1.0224449
1.022873
1.0224789
1.0206807
1.0183495
1.017017
1.0171138
1.0180676
1.0195447
1.0209585
1.0221245
1.0229919
1.0238189
1.0248894
1.0266987
1.0296474
1.0340282
1.0394707
1.0437688
1.045638
1.046261
1.046704
1.0473779
1.0484855
1.0498959
1.0512775
1.0519775
1.051722
1.0507401
1.049341
1.0479782
1.0467457
1.0457499
1.0446956
1.0439394
1.0429655
1.0421368
1.0415724
1.0410228
1.0406415
1.0405714
1.0404363
1.0403947
1.0405596
1.0407512
1.0404065
1.0395825
1.039193
1.0045232
1.0069713
1.009993
1.0154972
1.0186822
1.020405
1.0216038
1.0224573
1.0229264
1.0225678
1.0206014
1.0181673
1.0167968
1.0167419
1.0176536
1.0191861
1.0207311
1.0218907
1.02267
1.0233407
1.0242983
1.0258583
1.0285852
1.0327154
1.0380961
1.0428606
1.0452778
1.0462082
1.0468795
1.0477676
1.0489893
1.0505828
1.0519608
1.052565
1.052159
1.0509615
1.04944
1.0479627
1.0468424
1.0457017
1.0449055
1.0438547
1.0430492
1.0423701
1.0416363
1.0410308
1.0406831
1.0403615
1.0402339
1.0404312
1.0405047
1.0404055
1.040257
1.0400351
1.0400784
1.0044516
1.0068281
1.0098198
1.015293
1.0184041
1.0201449
1.0214631
1.0224928
1.023029
1.022553
1.0205597
1.0180943
1.0166441
1.01663
1.017549
1.0190202
1.0204846
1.0216747
1.0223969
1.0229672
1.0237258
1.0251173
1.0275059
1.0313858
1.0366853
1.0418165
1.0447951
1.0460775
1.04697
1.048046
1.0495127
1.0511832
1.0525717
1.0530254
1.0524612
1.0512
1.0496593
1.0483484
1.0470328
1.0461549
1.0450855
1.0441724
1.043249
1.0423286
1.0415959
1.0410934
1.0405546
1.0402739
1.0401419
1.0400278
1.0400477
1.0401141
1.0403625
1.0404931
1.0400134
1.004388
1.0066996
1.0096591
1.0151023
1.0181411
1.0198839
1.021325
1.0225063
1.0230648
1.0226186
1.020527
1.0179534
1.0164587
1.0163121
1.0171608
1.0186458
1.0202478
1.0214358
1.0221606
1.0226099
1.0232268
1.0243945
1.0265629
1.0301132
1.0352066
1.0406364
1.0441813
1.0458643
1.0470314
1.0483424
1.0499259
1.0517644
1.0531345
1.053479
1.0527596
1.0513698
1.0497965
1.048306
1.0472114
1.0460705
1.0450789
1.0441486
1.043233
1.0424761
1.0418234
1.0411117
1.040662
1.0402164
1.0399424
1.0397765
1.0398415
1.0401212
1.040058
1.0401465
1.0397755
1.0043301
1.0065826
1.0095154
1.0149241
1.017893
1.0196355
1.0211908
1.0225303
1.0232044
1.0226362
1.020477
1.0178982
1.0163139
1.0162006
1.0170516
1.0185332
1.02006
1.0212498
1.0218959
1.0222685
1.0227439
1.0237443
1.0256754
1.028927
1.033728
1.0393271
1.0434179
1.0455682
1.0469919
1.0485365
1.0503835
1.0523017
1.0536394
1.0538255
1.0530039
1.0516
1.0499869
1.0486763
1.0474379
1.0463611
1.0453633
1.0443689
1.043498
1.0426134
1.0417139
1.0411155
1.0404867
1.0400771
1.0396846
1.0396098
1.0395486
1.0394833
1.0396078
1.0398538
1.0401618
1.0042773
1.00648
1.0093889
1.014761
1.0176434
1.0193959
1.0210624
1.0225682
1.0232426
1.022691
1.0204744
1.0178063
1.0161524
1.0159323
1.0167272
1.0181819
1.0198211
1.0210803
1.0217063
1.0219722
1.0223212
1.02314
1.024796
1.0277739
1.0322856
1.0379133
1.0425134
1.0451776
1.046933
1.0487135
1.050672
1.0527627
1.0541006
1.0541945
1.0532563
1.051767
1.0501675
1.0487164
1.0474728
1.0464295
1.0453144
1.0443582
1.0434213
1.042569
1.0419582
1.0412257
1.0406497
1.0401008
1.0398044
1.039467
1.0393613
1.0392517
1.0396414
1.0395003
1.0396504
1.0042329
1.0063842
1.0092712
1.0146017
1.0174105
1.019169
1.0209311
1.0226147
1.0233779
1.0227091
1.0204129
1.0177191
1.0160157
1.0157915
1.0165973
1.0180965
1.0196627
1.0209088
1.0215369
1.0217269
1.0219252
1.0225929
1.0240589
1.0267143
1.0308537
1.0364077
1.0414762
1.0446773
1.0467519
1.0488177
1.0510719
1.0532109
1.0544832
1.0544738
1.0534852
1.0519966
1.0503763
1.0490186
1.0478534
1.0466405
1.0455667
1.0445619
1.0435929
1.0428033
1.0418821
1.0411644
1.0405441
1.0400211
1.0395556
1.0392101
1.0389321
1.0390202
1.0389055
1.0390121
1.0391656
1.0041934
1.0062996
1.0091612
1.0144552
1.0171917
1.0189562
1.0208194
1.0226339
1.0234591
1.0228187
1.0204804
1.0177054
1.0159198
1.0156022
1.0163338
1.0177953
1.0194539
1.0207309
1.0213643
1.0215081
1.021605
1.0221143
1.0233547
1.0256953
1.0295369
1.0348719
1.0403068
1.0440156
1.0465263
1.0488822
1.0512879
1.0535795
1.0548438
1.0547265
1.0537304
1.0521783
1.0505631
1.0492049
1.0478907
1.0467489
1.0456593
1.044579
1.0436529
1.0427366
1.0420321
1.0413628
1.0406693
1.0401239
1.0395753
1.0392646
1.0390155
1.0389687
1.038549
1.03888
1.0390372
1.004158
1.0062271
1.0090539
1.0143113
1.0169917
1.0187543
1.0207109
1.0226931
1.02358
1.0228411
1.0204109
1.0175857
1.0157506
1.0154178
1.0161903
1.0176638
1.0193586
1.0206454
1.021232
1.0213146
1.0213203
1.0216584
1.0227219
1.0248062
1.0282753
1.0333218
1.0390042
1.0432477
1.046217
1.0488733
1.051585
1.0538959
1.0551211
1.054983
1.0539366
1.0524012
1.0508354
1.0494692
1.0482185
1.0470211
1.0458174
1.0447932
1.0438116
1.0429586
1.0420596
1.0412195
1.0405689
1.0399253
1.0395026
1.0390169
1.0387294
1.0382632
1.0383967
1.0384126
1.0385094
1.0041291
1.0061592
1.0089574
1.0141644
1.0167798
1.0185574
1.020605
1.0227321
1.0237065
1.0229407
1.0205031
1.0176245
1.0157094
1.0152982
1.0159947
1.0174523
1.019125
1.0204644
1.0210976
1.0211489
1.0210885
1.0213347
1.0221692
1.023978
1.0270994
1.0318159
1.0375732
1.0423454
1.0458326
1.0487679
1.0517005
1.0541705
1.0553516
1.0551974
1.0541693
1.0526194
1.0510411
1.049704
1.0483709
1.0470938
1.0460114
1.0449425
1.0439694
1.0429824
1.042164
1.041509
1.0407783
1.0402011
1.0395774
1.0390654
1.038665
1.0383694
1.0384608
1.0380292
1.0377693
1.0041048
1.0060994
1.0088554
1.0140296
1.0165797
1.0183793
1.0205036
1.0227796
1.0238009
1.0229916
1.020492
1.0175529
1.0155676
1.0151074
1.0158046
1.0172943
1.0190323
1.020386
1.0210118
1.0210526
1.0208953
1.0210012
1.0216782
1.0232344
1.0260514
1.0303914
1.0360485
1.0413
1.0453007
1.0486159
1.0518471
1.0543758
1.0555705
1.0553935
1.0543568
1.052825
1.0513424
1.0499756
1.0486467
1.0474614
1.0462219
1.0450939
1.0440377
1.0431606
1.0423543
1.0414567
1.0407534
1.0400302
1.0394001
1.0389743
1.0385879
1.0383666
1.0377543
1.0377672
1.0377616
1.0040851
1.0060378
1.0087474
1.0138951
1.0163948
1.0182082
1.02041
1.0228164
1.0239334
1.0230886
1.0205952
1.0176056
1.0155576
1.0150342
1.0156871
1.0171153
1.0188492
1.0202344
1.0208892
1.0208957
1.0207145
1.020735
1.0213006
1.0226118
1.025096
1.0290178
1.0345008
1.0401302
1.0446575
1.0483568
1.0518671
1.0545119
1.0557311
1.0555417
1.0545501
1.0530492
1.0515666
1.0502244
1.0489234
1.0475867
1.0463761
1.0452883
1.0443049
1.0433603
1.0423797
1.0416312
1.0409131
1.0402298
1.0397682
1.0392632
1.038561
1.0382021
1.0379556
1.0376187
1.0377269
1.0040764
1.0059813
1.0086331
1.013752
1.016222
1.0180418
1.020319
1.0228479
1.0240244
1.0231678
1.0206252
1.0176082
1.0154748
1.0148619
1.015476
1.0169446
1.0187139
1.020139
1.0208147
1.020828
1.0206029
1.0205424
1.02094
1.0220268
1.0242301
1.027817
1.0329814
1.0388353
1.0438669
1.0480587
1.051808
1.054623
1.0558669
1.0556944
1.0547001
1.0532806
1.0518444
1.0505145
1.0491424
1.0478715
1.0466896
1.0455262
1.0444834
1.0433635
1.0425952
1.0417327
1.0409551
1.0403857
1.0396068
1.0389545
1.0386399
1.0382096
1.0380306
1.0374453
1.0371574
1.004067
1.0059306
1.0085344
1.0135949
1.0160517
1.0179004
1.0202239
1.0228732
1.0241491
1.0232768
1.0207796
1.0176976
1.0155061
1.0148244
1.0153917
1.0168178
1.018571
1.0200061
1.020727
1.0207563
1.0204827
1.0203365
1.0206584
1.0215928
1.0234921
1.0267237
1.0314907
1.0374226
1.042941
1.0476496
1.051721
1.0546551
1.0559417
1.0558298
1.0548975
1.0535197
1.052108
1.0507555
1.0494411
1.0481588
1.046895
1.0457429
1.0445918
1.0437652
1.0427414
1.0418914
1.0412257
1.0403506
1.0398353
1.039258
1.0389457
1.0382829
1.0375521
1.0376899
1.0374904
1.0040584
1.0058844
1.008445
1.013449
1.0158972
1.0177634
1.020129
1.0228822
1.0242188
1.0233487
1.0208406
1.0177479
1.0154644
1.0146873
1.0152047
1.0166231
1.0184121
1.0198893
1.0206233
1.0206645
1.0204028
1.0202217
1.0204234
1.0211952
1.0228181
1.0257126
1.0300965
1.0359411
1.0418892
1.0471384
1.0515155
1.0546743
1.0560051
1.0559447
1.0550733
1.0537218
1.0523494
1.0510794
1.0497634
1.048429
1.0471793
1.0459326
1.0449306
1.0437709
1.0428578
1.0420642
1.0411667
1.0405165
1.0399837
1.0394474
1.0385697
1.0382963
1.0380544
1.0377893
1.0370595
1.0040607
1.0058477
1.0083546
1.0133201
1.0157659
1.0176302
1.0200406
1.022881
1.0243
1.0234485
1.0210013
1.0178762
1.0155364
1.0146807
1.015127
1.0165155
1.0182819
1.0197797
1.0205655
1.0206307
1.020348
1.0200966
1.0202391
1.0208504
1.022264
1.0248681
1.0288131
1.0344424
1.0407072
1.0464839
1.0512348
1.0546033
1.0560208
1.0560758
1.0552502
1.0539682
1.0526313
1.0513711
1.0500175
1.0487495
1.047458
1.0463078
1.0450741
1.044054
1.0431919
1.0422078
1.0413648
1.0408559
1.0398815
1.0393183
1.0389856
1.0385348
1.0381281
1.0374707
1.0370225
1.0040686
1.0058216
1.0082819
1.0132117
1.0156489
1.0174955
1.0199532
1.0228628
1.0243728
1.0235707
1.0211239
1.0179815
1.0155559
1.0146034
1.0149819
1.016349
1.0181215
1.0196403
1.0204772
1.0205944
1.0203085
1.0200296
1.0200572
1.0206106
1.0217815
1.0240654
1.0276859
1.0329724
1.0394051
1.0456452
1.0508781
1.0544419
1.056027
1.0561646
1.0554434
1.0541915
1.0529137
1.0516774
1.050342
1.0490496
1.0477876
1.0465333
1.0453842
1.0443751
1.0432311
1.0423752
1.0416421
1.0406557
1.0402062
1.0396322
1.0391598
1.0384109
1.0380069
1.0373951
1.0379326
1.0040851
1.0058008
1.0082079
1.0131063
1.0155352
1.0173942
1.0198595
1.0228359
1.0244189
1.0236321
1.0212618
1.0181291
1.0156458
1.0146068
1.014907
1.0162291
1.0179936
1.0195277
1.0203951
1.0205461
1.0202591
1.0199842
1.0199573
1.0203654
1.0213987
1.0234299
1.026684
1.0315752
1.0379941
1.0446541
1.0503907
1.054231
1.0559718
1.0562576
1.0556018
1.0544342
1.053228
1.0519891
1.0506523
1.0493949
1.0481216
1.046876
1.045745
1.0444863
1.0436284
1.0426584
1.0417737
1.0410149
1.0403888
1.0397313
1.0389408
1.0385722
1.0383374
1.0380252
1.0373642
1.0041058
1.0057831
1.0081544
1.0130127
1.0154424
1.017299
1.0197609
1.0227887
1.0244479
1.023732
1.0214141
1.0182806
1.015715
1.0145852
1.0148134
1.0160778
1.0178365
1.0194037
1.0203305
1.0205352
1.0202756
1.0199414
1.0198548
1.0201951
1.0210714
1.0228451
1.0258304
1.0302871
1.0365681
1.0435364
1.0497586
1.0538995
1.0558718
1.0562997
1.0557609
1.0546969
1.0535091
1.0522955
1.0510045
1.0497315
1.0484494
1.0472302
1.04597
1.0449518
1.0438489
1.0428745
1.0420113
1.0412879
1.0404798
1.0398202
1.0392274
1.0391919
1.0380827
1.038067
1.0371545
1.0041189
1.0057758
1.0081
1.012911
1.0153541
1.017225
1.0196777
1.0227261
1.0244699
1.0238057
1.0215469
1.0184299
1.0158182
1.0145935
1.0147379
1.0159589
1.0176906
1.0192752
1.0202464
1.0205009
1.0202573
1.0199252
1.0197946
1.0200616
1.0208448
1.0223839
1.0250706
1.0291401
1.0351509
1.0422751
1.0489422
1.0534561
1.0556838
1.0563099
1.0559019
1.0549512
1.0538359
1.0526207
1.0513726
1.0500886
1.0488452
1.0475727
1.0464208
1.045261
1.0441346
1.0432727
1.0422781
1.0414587
1.0407513
1.0400224
1.0397027
1.0388589
1.0384267
1.0379965
1.0379251
1.0041322
1.0057703
1.0080739
1.0128539
1.0152653
1.0171243
1.0195817
1.0226584
1.0244729
1.0238841
1.0216961
1.0185948
1.0159376
1.0146253
1.0146823
1.0158396
1.0175561
1.0191491
1.0201604
1.0204855
1.0202583
1.0199383
1.0197601
1.0200071
1.0206045
1.0220013
1.0244527
1.0281628
1.0338147
1.0409392
1.0479472
1.0529361
1.0554108
1.0562842
1.0560301
1.0551741
1.0541142
1.0529694
1.0517396
1.050489
1.0492235
1.0479947
1.0468157
1.0456104
1.0446431
1.0434915
1.0426441
1.0418275
1.0409763
1.0403682
1.0398522
1.0388688
1.0389277
1.0383339
1.037794
1.0041476
1.0057696
1.0080202
1.0127482
1.0152129
1.0170546
1.0194955
1.0225742
1.0244662
1.0239384
1.0218116
1.0187255
1.0160311
1.0146397
1.0146181
1.0157161
1.0174052
1.0190127
1.0200881
1.0204559
1.0202838
1.0199382
1.0197513
1.0198832
1.020519
1.0216565
1.0238796
1.0272692
1.032621
1.0395131
1.0467556
1.0521977
1.0550857
1.0562345
1.0561295
1.0554194
1.0543884
1.0533038
1.0521219
1.0508583
1.0496201
1.048388
1.0471447
1.0460894
1.044983
1.0439643
1.0430343
1.0421321
1.0414002
1.0406863
1.0398725
1.0395745
1.0389511
1.0383833
1.038059
1.0376208
1.0374379
1.0372265
1.0373337
1.0369348
1.0368181
1.0372029
1.036893
1.0369127
1.0373056
1.0371941
1.037695
1.0381906
1.0383562
1.0389268
1.0395224
1.0396321
1.0398758
1.040011
1.0395271
1.0390617
1.038389
1.037506
1.0364494
1.035282
1.034193
1.0329542
1.03713
1.0368792
1.0368963
1.0366066
1.0367322
1.03661
1.0364655
1.0368177
1.0367141
1.0368603
1.0374388
1.0375182
1.0380773
1.0386668
1.0389723
1.0393948
1.0396187
1.0396565
1.0394071
1.0391013
1.0383254
1.0375582
1.0364297
1.0354415
1.0342263
1.0331148
1.0319081
1.0366578
1.0365231
1.0362666
1.0363868
1.0362157
1.0363114
1.0363463
1.0363316
1.0367831
1.0368222
1.0371884
1.037833
1.0380751
1.0386673
1.0391006
1.0393193
1.0394076
1.0392844
1.038877
1.0382937
1.0375361
1.036575
1.035591
1.034355
1.0332501
1.031984
1.0308641
1.0361828
1.0362054
1.0358721
1.0359983
1.0359614
1.0358819
1.0363206
1.0361868
1.0365917
1.0370765
1.037232
1.0378811
1.0382718
1.0387136
1.0389604
1.0391764
1.0390197
1.0387226
1.0382182
1.0374372
1.036646
1.0355886
1.0345974
1.0334151
1.0322058
1.0309535
1.0297803
1.0357968
1.0357776
1.0357272
1.0355611
1.0358835
1.035717
1.0360581
1.0364473
1.036517
1.0371004
1.03759
1.037872
1.0383809
1.0386933
1.0387804
1.0387663
1.0385241
1.0379961
1.0373964
1.0365267
1.0356633
1.0346451
1.0335243
1.0324519
1.0311669
1.0299359
1.0286529
1.035543
1.0353769
1.0355713
1.0354428
1.0356421
1.0358819
1.0359914
1.0364991
1.03685
1.0371575
1.0376786
1.0381176
1.0382154
1.0385677
1.0384153
1.0382119
1.037849
1.0371354
1.0365227
1.0355733
1.0346925
1.0335963
1.0325525
1.0313711
1.0301489
1.0288646
1.0275582
1.0353767
1.0351248
1.0354793
1.0354884
1.0354626
1.0361574
1.0361161
1.0365702
1.0372383
1.0372786
1.0377618
1.0381691
1.0379865
1.0382449
1.0378048
1.0375439
1.0369487
1.0362817
1.0355555
1.0345721
1.0337218
1.0325703
1.0315639
1.0302687
1.0291199
1.0277416
1.0264936
1.0351657
1.0352935
1.0354373
1.035453
1.0358025
1.0362413
1.0363475
1.0370286
1.0371987
1.0375613
1.0378837
1.0377334
1.0379106
1.0375228
1.0371274
1.0367468
1.0359189
1.0354425
1.0343788
1.0337359
1.0325474
1.031719
1.0303619
1.0293114
1.0279522
1.026694
1.0253655
1.035299
1.0353408
1.0356357
1.0358366
1.0360691
1.0364655
1.0368384
1.0372118
1.0373896
1.0376321
1.0376431
1.0375173
1.0372473
1.0368899
1.0363374
1.0357124
1.0351485
1.0342025
1.0335727
1.0325597
1.031602
1.0305877
1.029362
1.02818
1.0268728
1.0255557
1.0242941
1.0355965
1.0357619
1.035963
1.0362582
1.036622
1.0368592
1.0370902
1.0374854
1.037505
1.0373572
1.0374462
1.0369977
1.0364883
1.0362178
1.0353351
1.0348995
1.0340661
1.0332424
1.0325787
1.0314297
1.0306696
1.02935
1.0284563
1.0269253
1.0259041
1.0243758
1.0232075
1.0360898
1.0363703
1.0365034
1.036762
1.0371813
1.0372997
1.0373
1.0375981
1.0374581
1.0370309
1.0369822
1.0363875
1.035777
1.0352978
1.0345258
1.0339239
1.0330297
1.0323781
1.0313966
1.0305249
1.0294584
1.0283865
1.0272069
1.0259468
1.0247116
1.0233798
1.0219929
1.0366471
1.0372503
1.0371624
1.0371499
1.0378014
1.0376815
1.0373029
1.0376582
1.0372204
1.0365504
1.0365331
1.0356258
1.0350091
1.0345471
1.0335412
1.0330485
1.0321259
1.0312967
1.0304748
1.0293768
1.0284381
1.0272708
1.0260485
1.0249175
1.0235255
1.0223689
1.020853
1.0374078
1.0379436
1.037722
1.0377506
1.0381705
1.0377106
1.0374406
1.0375089
1.0366702
1.0362435
1.0358967
1.0348091
1.034481
1.0336039
1.0327304
1.0322534
1.0310626
1.0304606
1.0294143
1.0283075
1.027457
1.0260473
1.0251239
1.0236865
1.0225748
1.0212011
1.0198751
1.0381299
1.0383565
1.0382542
1.0381744
1.0381215
1.0377292
1.0373906
1.036936
1.0363178
1.0358449
1.034965
1.0343869
1.0337478
1.0327073
1.0321704
1.031237
1.0302743
1.0295596
1.0282905
1.0275147
1.0262668
1.025038
1.0241117
1.022563
1.0216575
1.0200018
1.0189905
1.0384997
1.0386844
1.0383767
1.0381243
1.03797
1.0375029
1.0369453
1.0364004
1.0358732
1.0350792
1.0344403
1.0337902
1.0328035
1.0322267
1.0313796
1.0302994
1.0296254
1.0285515
1.0273981
1.0266424
1.0251046
1.0242941
1.0229332
1.0215918
1.0206765
1.0189604
1.0180606
1.0385832
1.0383682
1.0380514
1.0379038
1.0374945
1.0367501
1.0363499
1.0359016
1.0349953
1.0344126
1.0338775
1.0328899
1.0322246
1.031547
1.0304268
1.0296516
1.0288814
1.0274796
1.0267691
1.0255919
1.0242446
1.0234246
1.0218637
1.0207641
1.0197075
1.017986
1.0170677
1.0380765
1.0376609
1.0374293
1.037074
1.0364478
1.0360861
1.0355542
1.0347607
1.0342267
1.0337701
1.032935
1.0320063
1.0316329
1.030643
1.0295734
1.0290757
1.0277577
1.0268192
1.0259993
1.0245706
1.0234808
1.0225717
1.0210185
1.0198524
1.0188273
1.0171687
1.0161785
1.0368616
1.0366877
1.0363093
1.0357083
1.0352923
1.0349865
1.0343672
1.0336187
1.0333348
1.0326724
1.0317291
1.031449
1.0305702
1.0295377
1.0289619
1.0280749
1.0268587
1.0260105
1.0251731
1.0236762
1.0227503
1.0217253
1.0201773
1.0191137
1.0180533
1.016391
1.0152412
1.035447
1.0351201
1.0346587
1.0342091
1.0340467
1.0334345
1.0327105
1.0325919
1.0320332
1.0311731
1.0307646
1.0302463
1.0293399
1.0285099
1.0280383
1.0269437
1.0258568
1.0252572
1.0241518
1.0228304
1.0219408
1.0209648
1.0193809
1.0183425
1.0173344
1.0157121
1.01446
1.0337889
1.0332074
1.0328559
1.0327281
1.0321569
1.0316526
1.031368
1.0309662
1.0303734
1.0296671
1.0295182
1.0287712
1.0277988
1.0275019
1.026705
1.0257199
1.0248114
1.0242288
1.0231379
1.0218741
1.0211431
1.0200823
1.0185856
1.01767
1.016521
1.0151486
1.0137106
1.0317432
1.0313694
1.0311261
1.0306879
1.0302662
1.0298368
1.0297554
1.0291399
1.0283688
1.0283911
1.0277038
1.0270512
1.0263876
1.025933
1.0254108
1.024124
1.0238102
1.0228709
1.022016
1.0208248
1.0202072
1.019137
1.0177251
1.0169092
1.0157232
1.0145579
1.0130191
1.0296664
1.0294048
1.0292582
1.0286345
1.0281935
1.0282243
1.0276215
1.0270922
1.0268404
1.0263821
1.0259897
1.0250469
1.0248376
1.0244651
1.0234195
1.0229533
1.0221082
1.0217963
1.0204508
1.0197408
1.0191182
1.0180084
1.0169405
1.0158031
1.0150506
1.0137512
1.0124263
1.0277359
1.0273257
1.0270597
1.0266741
1.0263629
1.0262572
1.0254087
1.0251503
1.0250551
1.0243831
1.0240409
1.023146
1.0231418
1.022592
1.0215983
1.0213793
1.0205483
1.020259
1.0189065
1.0184795
1.0178145
1.0168105
1.0159023
1.014733
1.014174
1.0128539
1.0117472
1.0258183
1.0251674
1.0249333
1.0247077
1.0244595
1.0241777
1.0233313
1.0232743
1.0229949
1.022382
1.0220364
1.0213303
1.0213444
1.0205132
1.0198919
1.019563
1.0189567
1.0185276
1.0173158
1.0170626
1.0162597
1.0156163
1.0145374
1.013717
1.0129944
1.0119598
1.0108666
1.0237224
1.0230885
1.0230738
1.0226949
1.0222349
1.0221258
1.0213713
1.021482
1.0209369
1.0201798
1.0201826
1.0193882
1.0196112
1.0184185
1.018082
1.0177681
1.017138
1.0169225
1.0155445
1.0155532
1.0145942
1.0143304
1.0130707
1.0125023
1.0117254
1.0109681
1.0099235
1.0214657
1.0211761
1.0210671
1.0207046
1.0201168
1.0199198
1.0197011
1.0193133
1.0190795
1.01815
1.0180303
1.0179613
1.0172106
1.0169563
1.0158864
1.0160462
1.0153991
1.0149508
1.0142017
1.0134467
1.0133764
1.0124163
1.0119777
1.010795
1.0105748
1.009634
1.0089731
1.0193485
1.0191646
1.018969
1.0187762
1.018007
1.0179276
1.0177941
1.0173012
1.0172636
1.0161459
1.0162359
1.01598
1.015327
1.0152636
1.0140091
1.0143101
1.0134266
1.0132929
1.0124773
1.0118794
1.0116783
1.0108078
1.0104773
1.0093945
1.0091605
1.0083305
1.0077728
1.0172659
1.0171257
1.0168853
1.0166979
1.0161187
1.0159331
1.0158605
1.0153936
1.0152598
1.0145253
1.0144236
1.0140616
1.0134263
1.0134402
1.012506
1.0125388
1.0117094
1.0114058
1.010874
1.0102642
1.0101006
1.0092326
1.008912
1.0080669
1.0076633
1.0070513
1.0064832
1.0152866
1.0150974
1.0147905
1.0145225
1.0144739
1.0140708
1.0139164
1.0135527
1.0129797
1.0131739
1.0125064
1.0124745
1.011628
1.0113892
1.0111817
1.010531
1.0105773
1.0093008
1.0095675
1.0083635
1.0087056
1.0076716
1.0074515
1.0066743
1.0061499
1.0057419
1.0051832
1.0134739
1.0131083
1.0126661
1.0125805
1.0126235
1.0123639
1.0122498
1.0115225
1.0112005
1.0113287
1.0109621
1.0109125
1.0098907
1.0097229
1.0093405
1.0091561
1.0089752
1.0078982
1.0079108
1.0068547
1.007225
1.0062943
1.0061222
1.0052318
1.0048039
1.0043956
1.003985
1.0116675
1.0111561
1.0107229
1.0106446
1.0108326
1.0107234
1.0104761
1.009814
1.0094086
1.0096334
1.0093215
1.0093211
1.008354
1.0080996
1.0077749
1.0075959
1.0075801
1.0064579
1.0065429
1.0053329
1.0059305
1.0048272
1.0049996
1.0038407
1.0036769
1.0030452
1.0027845
1.0098468
1.0093192
1.0090087
1.0088722
1.0090947
1.0090524
1.0086733
1.0082586
1.0077238
1.0080514
1.0077093
1.0077042
1.0070132
1.006477
1.0064182
1.0059074
1.0062526
1.0052003
1.0052244
1.0041429
1.0043424
1.0036269
1.0036519
1.002883
1.0025176
1.0019167
1.0015073
1.0080053
1.0076614
1.0073181
1.0071914
1.0074567
1.007325
1.0071969
1.006793
1.0062118
1.0065065
1.0060256
1.0062813
1.0056494
1.005129
1.0051331
1.0043492
1.0049631
1.0039412
1.0040527
1.0030744
1.0029173
1.0025533
1.0023106
1.0020612
1.0013808
1.0009816
1.0003765
1.006371
1.0060228
1.0057723
1.0057177
1.0058912
1.0058546
1.0056995
1.0052601
1.0048117
1.0049857
1.0046431
1.0049739
1.00432
1.00393
1.0036752
1.0030886
1.0036511
1.0028638
1.0029685
1.0019768
1.0017778
1.0014131
1.0012199
1.0011171
1.0004117
1.0000924
0.999465
1.0052572
1.0047065
1.004377
1.0042481
1.0043907
1.0045781
1.0043488
1.0040125
1.0035598
1.0033959
1.0034325
1.0035608
1.0031699
1.0027951
1.0024717
1.0019745
1.0023095
1.0018212
1.00177
1.0010476
1.0007693
1.0005032
1.0002516
1.0001879
0.99951768
0.99922536
0.99869126
1.0038356
1.0034098
1.00304
1.0028502
1.0030126
1.0032698
1.0031274
1.0028948
1.0024096
1.0021219
1.0022516
1.0021823
1.0020958
1.0016938
1.0015457
1.0010334
1.0010629
1.00084
1.0006202
1.0002773
0.99985615
0.99979584
0.99934369
0.99937975
0.9986695
0.99848436
0.99797071
1.0024703
1.0021395
1.0019078
1.001755
1.0018646
1.0019489
1.0017713
1.0016371
1.0012493
1.0011563
1.001237
1.0010872
1.0010118
1.0005752
1.0004728
1.0001607
1.0000881
1.0000341
0.99969018
0.9995325
0.99896707
0.99905699
0.99851865
0.99866725
0.99794014
0.99789799
0.9974063
1.0010776
1.0009812
1.0008755
1.0007502
1.0008047
1.0007562
1.0005585
1.0004863
1.0002682
1.0002448
1.000267
1.0001138
0.99999009
0.999608
0.99950059
0.9993867
0.99926411
0.99926915
0.99885511
0.99877546
0.99825393
0.99835617
0.99791993
0.9979919
0.99744273
0.99733024
0.99691839
0.99980003
0.99987146
0.9998794
0.99984996
0.99981967
0.99974934
0.99960062
0.99949989
0.99941609
0.99937964
0.99937932
0.99927061
0.99905208
0.99884289
0.99873313
0.9987044
0.99863199
0.99849133
0.99822701
0.99797289
0.99777874
0.99768169
0.99754452
0.99736594
0.99707229
0.99675495
0.99651704
0.99901199
0.99897289
0.99894447
0.9989455
0.99893664
0.99888424
0.99883052
0.99873862
0.99862648
0.99863012
0.99851261
0.9985248
0.99827172
0.99825602
0.99804967
0.99806322
0.99799095
0.9978069
0.99770234
0.99737815
0.99738201
0.99710103
0.99719136
0.99684277
0.99672714
0.99633001
0.99619714
0.99821637
0.99819616
0.99817165
0.99813144
0.99816803
0.99810229
0.9981109
0.99808428
0.99792074
0.99805298
0.99771856
0.99786084
0.99766581
0.99762471
0.99760091
0.9973664
0.99752635
0.9970942
0.99733455
0.99685573
0.99705043
0.99674525
0.99675396
0.99654861
0.99635113
0.9960887
0.99595339
0.99752444
0.99751272
0.99748169
0.99742101
0.99748453
0.99748007
0.99738047
0.99753345
0.99721151
0.99753507
0.99712658
0.99733153
0.99714665
0.99714654
0.99714592
0.9968446
0.99708762
0.99658046
0.9970676
0.99638759
0.99690463
0.99621002
0.99663201
0.99609191
0.99631809
0.99587952
0.99590008
0.99699351
0.99693207
0.99692596
0.99691368
0.99678347
0.99705575
0.99676873
0.99704598
0.99664505
0.99680489
0.9969611
0.99657603
0.9969733
0.99659126
0.99673227
0.99649429
0.99665805
0.99640576
0.99657219
0.99650526
0.99621166
0.99640862
0.99597481
0.99628425
0.99590056
0.9960884
0.99581469
0.99652503
0.996476
0.99636651
0.99656325
0.99628641
0.9965705
0.99644121
0.9965503
0.99639527
0.99610131
0.99661899
0.99621668
0.99658335
0.99623494
0.99655618
0.99591118
0.99666883
0.9959566
0.99644564
0.99628608
0.99617806
0.99614299
0.99594893
0.99603949
0.99598408
0.99609453
0.99591897
0.99607195
0.99608828
0.99594562
0.99611556
0.99616452
0.99597493
0.99628891
0.99584195
0.99647809
0.99561278
0.99630432
0.99589955
0.99626713
0.99607606
0.99617471
0.9960775
0.99584292
0.99648799
0.99565605
0.99670127
0.99566506
0.99649137
0.99559825
0.99633712
0.99585184
0.99626272
0.99599572
0.99571756
0.99565712
0.99581816
0.99548033
0.99601409
0.99569693
0.99589057
0.99574666
0.99566365
0.99617451
0.99538076
0.99635356
0.99544509
0.99628776
0.99568102
0.99621216
0.99581459
0.99607356
0.99614534
0.99578027
0.99649894
0.99573165
0.99655205
0.99568707
0.99650864
0.99595587
0.99631109
0.99543924
0.99537744
0.9953486
0.99530512
0.99551026
0.99569671
0.99547481
0.99569743
0.99505256
0.99604813
0.9954768
0.99595706
0.99556581
0.995759
0.99584183
0.99578197
0.99630943
0.99566241
0.99624089
0.99601798
0.99591409
0.99645409
0.9959838
0.99661312
0.99606547
0.99644992
0.9963573
0.99503065
0.99499574
0.99538319
0.99493364
0.99536863
0.99527041
0.99499411
0.99568791
0.99490992
0.99574806
0.99549558
0.99551592
0.99573174
0.99522991
0.99643914
0.99514881
0.99669298
0.99536667
0.99642736
0.99592717
0.99626782
0.99630403
0.99628138
0.99667094
0.99645512
0.99664154
0.9966045
0.9947347
0.9947286
0.99506117
0.99510562
0.99455672
0.99538559
0.99455096
0.99549108
0.99515401
0.9950166
0.99577286
0.99487663
0.99625021
0.99469733
0.99639859
0.995426
0.99625771
0.99586996
0.995895
0.99634036
0.99615955
0.99685539
0.99618372
0.99693796
0.99643293
0.99712461
0.9969461
0.9944557
0.99483558
0.99432355
0.99498699
0.99466384
0.9944769
0.9953554
0.99431003
0.9958102
0.99445768
0.99542805
0.99518349
0.99529126
0.99619927
0.99471615
0.99661333
0.99489318
0.99708032
0.99533303
0.99691156
0.99589163
0.99689858
0.99664678
0.99680715
0.9970549
0.99704008
0.99745307
0.99444008
0.99420762
0.99449273
0.9943251
0.99463008
0.99473623
0.99435915
0.99501671
0.99448608
0.99546923
0.99473538
0.9952197
0.99510454
0.99548065
0.99607647
0.99528903
0.99614425
0.99536374
0.99688899
0.99607065
0.99706273
0.99615864
0.99699891
0.99685978
0.99754304
0.9976072
0.99766636
0.99408656
0.99436094
0.99384695
0.99440783
0.99427974
0.99442815
0.99481845
0.99410977
0.99490813
0.99443751
0.99528119
0.99513716
0.99507066
0.9953179
0.99524602
0.99609816
0.99581777
0.99616069
0.9960426
0.99646233
0.99671304
0.99691717
0.99703444
0.99732528
0.99747248
0.9977028
0.99785561
0.99384362
0.99404169
0.99405755
0.99380998
0.99456642
0.9937163
0.99482379
0.99415997
0.99438187
0.99498696
0.99415804
0.99571142
0.99454488
0.9956469
0.9951816