/*--------------------------------*- C++ -*----------------------------------*\
| =========                 |                                                 |
| \\      /  F ield         | OpenFOAM: The Open Source CFD Toolbox           |
|  \\    /   O peration     | Version:  2406                                  |
|   \\  /    A nd           | Website:  www.openfoam.com                      |
|    \\/     M anipulation  |                                                 |
\*---------------------------------------------------------------------------*/
FoamFile
{
    version     2.0;
    format      ascii;
    arch        "LSB;label=32;scalar=64";
    class       surfaceScalarField;
    location    "7";
    object      phi;
}
// * * * * * * * * * * * * * * * * * * * * * * * * * * * * * * * * * * * * * //

dimensions      [1 0 -1 0 0 0 0];

oriented        oriented;

internalField   nonuniform List<scalar> 
123996
(
0.0018665354
-8.260427e-05
0.00011723708
0.0019343017
6.0817567e-05
-0.00010397739
0.001956107
0.00014377544
-0.00025366573
0.0019261967
9.6315924e-05
-9.5165293e-05
0.0018775155
-5.8107314e-05
0.00014694595
0.0018890387
-0.00023211409
0.00023439054
0.0019903085
-0.00021333823
0.00026000841
0.0020562486
-0.0002721587
0.00032650784
0.0020472771
-0.00039710165
0.00034847174
0.0020126632
-0.00034131662
0.00031113312
0.0020089284
-0.0002669631
0.00044292649
0.0019767632
-0.00037704896
0.00044745866
0.0019821929
-0.00051556405
0.0003938322
0.0020359334
-0.00045921524
0.00035032671
0.0021311362
-0.00037552363
0.00048425937
0.0022049568
-0.00039459923
0.00055882574
0.002283217
-0.00043796701
0.00035342156
0.0023277559
-0.0002703817
0.00016799374
0.0023005308
-0.00027038085
0.00022661311
0.0023708423
-0.00017752015
0.00024024689
0.0023921172
-0.00010023534
0.00019613764
0.0023357167
-0.0001440605
0.00018954105
0.0024820713
-0.00013159631
0.0001742362
0.0024229562
-0.00015030814
0.00017716942
0.0023403728
-0.00025132832
0.00026476895
0.0024869216
-0.00020236124
0.00020517585
0.0024491368
-0.00017005033
0.00012840503
0.0025098548
-0.00018849044
0.00018649863
0.002901677
5.0330964e-05
-7.8020247e-07
0.0029505306
0.0002222798
-0.00025859149
0.0028335864
0.00022157673
-0.00026526488
0.0026868358
0.00019936567
-0.00020389448
0.002740512
0.00017053528
-0.00020091913
0.0032116764
0.00029762239
-0.00036283564
0.0032973551
0.00049089645
-0.00061630154
0.0029250802
0.00048935924
-0.00063933984
0.0025511964
0.00038592497
-0.00043641129
0.0025321237
0.0003378853
-0.00031487842
0.0029789772
0.00047953247
-0.00039120648
0.0035427852
0.00071619547
-0.0006773942
0.0037566962
0.00093807112
-0.0010145858
0.0036523039
0.00098881789
-0.0011524081
0.0034453055
0.00084902155
-0.001079173
0.0032267249
0.0006786704
-0.00091855736
0.0030135512
0.00061606364
-0.0007780024
0.0028632361
0.00066668621
-0.00072811897
0.0029442215
0.0007536872
-0.00076194389
0.0034002243
0.00087856195
-0.00085495223
0.0040526867
0.0010252817
-0.0010234763
0.0045568554
0.0011297461
-0.0012067497
0.004764005
0.0011897696
-0.0013352702
0.0047290552
0.0011770976
-0.0013768353
0.0045105133
0.0011197612
-0.0013605119
0.0041011697
0.0010171992
-0.001290224
0.00095716464
0.0036258808
-0.0012068936
0.0017841273
-1.4216321e-05
0.0018466792
-6.8203652e-06
0.0018659488
1.0542541e-05
0.0018372303
4.0561892e-05
0.0017892532
-7.0886334e-08
0.0018088068
-0.00015607379
0.0018976488
-0.00022720343
0.0019549503
-0.00027873895
0.0019591151
-0.00027940611
0.0019365213
-0.00030811284
0.0019205072
-0.0002235724
0.0018809509
-0.00033726318
0.0018921803
-0.00044242131
0.0019407043
-0.00047607011
0.0020297989
-0.00047112933
0.0020886083
-0.00033841321
0.0021800115
-0.0003577253
0.0022004364
-0.00031045401
0.0021941858
-0.00031499391
0.002266335
-0.00021848254
0.0022695721
-0.0001004674
0.0022166263
-0.0001506518
0.0023427675
-0.00012555192
0.0022872959
-0.00013551772
0.0022370678
-0.00022769404
0.0023526973
-0.00019086333
0.0022884721
-0.00021830486
0.0023863246
-0.00019856539
0.0027095252
6.4956416e-05
0.0027388611
0.00020112268
0.0026724031
0.00019867434
0.0025279707
0.00016410627
0.0025662145
9.3957639e-05
0.002989406
0.00026079225
0.0030588831
0.0004380814
0.0027645548
0.00040429805
0.0024829114
0.00032181521
0.0025120968
0.00033535365
0.0028937223
0.0005124068
0.0034182296
0.00073185192
0.0035378917
0.00086219234
0.00328991
0.00081476324
0.0030459576
0.00066010134
0.0029792314
0.00052358231
0.0030031955
0.00049315126
0.0029826736
0.00056935458
0.0030442988
0.00074413457
0.0033521152
0.00097123541
0.0038129133
0.0011271469
0.0042043242
0.0011460575
0.0043498294
0.0010671133
0.0042796325
0.00095541923
0.004115143
0.00087133714
0.0038581033
0.000761745
0.00074540207
0.0035356894
0.0016944379
1.8523632e-05
0.0017520501
-4.5625469e-05
0.0017718069
-5.8203978e-05
0.0017459939
-2.2239753e-06
0.0016942961
2.422191e-05
0.0017136505
-8.7513286e-05
0.0017967542
-0.00022044586
0.0018564959
-0.00025813127
0.0018598227
-0.00018250047
0.0018437406
-0.00025758024
0.0018175715
-0.00028430058
0.0017843128
-0.00029888563
0.0017963124
-0.00035559829
0.0018346561
-0.00039898724
0.0019308487
-0.00046909802
0.0019796162
-0.00040437124
0.0020818571
-0.00033042829
0.0020975175
-0.00026166798
0.0021007371
-0.00026233531
0.002175362
-0.00022218161
0.0021576102
-0.00014568962
0.0021165148
-0.00020061115
0.0022315698
-0.00015341377
0.0021772499
-0.00016056701
0.0021440529
-0.00022270489
0.0022275164
-0.00018077259
0.0021771841
-0.00024456739
0.0023352354
-0.00019931117
0.0025989315
9.5839631e-05
0.0026328516
0.00019931769
0.0025901694
0.00017165039
0.0024072923
0.00010252708
0.0024717325
2.8320015e-05
0.0028798619
0.00026242221
0.0029325595
0.00046086963
0.0026876601
0.00037507636
0.0024409728
0.00024894904
0.0024620125
0.00027141221
0.0027708454
0.00047335272
0.0032357788
0.00070918744
0.0033245241
0.0007895798
0.0030375816
0.00069863538
0.0027775205
0.00056878404
0.0027457943
0.00046786822
0.0028788268
0.00040915243
0.0030177231
0.00048378225
0.0032123839
0.00071133751
0.0033861552
0.00098937395
0.003573503
0.0011762994
0.0037465039
0.0011614725
0.0038210871
0.0010018349
0.0037679577
0.00078130148
0.0036659731
0.00063612957
0.0035521907
0.00055795042
0.00057659987
0.0034713367
0.0016120248
-9.7180696e-06
0.0016702329
-4.5146236e-05
0.0016928137
-5.0261805e-05
0.0016681767
-1.1801497e-05
0.001615813
2.0559536e-05
0.0016299529
-7.8480806e-05
0.0017125578
-0.00019239113
0.001778926
-0.00018669792
0.0017766212
-0.00016314103
0.0017629437
-0.00022349348
0.0017363561
-0.00032300412
0.0017021562
-0.00030605734
0.0017139738
-0.00032252405
0.0017427955
-0.00040784635
0.0018398106
-0.00038917132
0.0018818804
-0.00037539893
0.0019805884
-0.00035325472
0.0019947534
-0.00027697256
0.0020049508
-0.00020515134
0.002076583
-0.00017100042
0.0020407169
-0.00014900395
0.0020088871
-0.00021268364
0.0021070924
-0.00014525792
0.0020590302
-0.00017489256
0.0020478332
-0.00022849779
0.0020954776
-0.0001712663
0.0020631037
-0.00026453607
0.0022660507
-0.00018075689
0.0024704015
0.0001150508
0.0024909314
0.0002054409
0.0024575779
0.00014218312
0.0022525406
1.0813216e-05
0.0023865203
-1.5175252e-05
0.0027850038
0.00029261734
0.0027822651
0.0004633171
0.002562466
0.00035297098
0.0023617788
0.00020077407
0.0024052935
0.00020624627
0.0026813333
0.00041565641
0.0030275713
0.00068546911
0.0030959309
0.00070866185
0.0028586648
0.00057485342
0.0026160634
0.00047681513
0.0025257133
0.00043296735
0.002720679
0.00040089414
0.0030399115
0.00045333924
0.0033784944
0.0006587776
0.0035294402
0.00089187445
0.0034724358
0.0010651896
0.0033710823
0.0010779481
0.0032782026
0.00094673477
0.0032369351
0.00072337496
0.0032579328
0.00052642802
0.0033397502
0.00042407084
0.00043976676
0.0034467825
0.0015321153
-6.8459725e-05
0.001588412
-2.5065618e-05
0.0016119504
5.7905325e-06
0.0015889166
1.9515389e-05
0.0015329837
7.1718694e-06
0.0015426573
-5.8716267e-05
0.0016273281
-0.00013952863
0.0016949875
-0.00012291862
0.001690495
-0.0001617584
0.0016738051
-0.00020739389
0.0016546896
-0.00028558048
0.0016188498
-0.00033578583
0.0016197925
-0.00033630817
0.0016544847
-0.00042789648
0.0017482552
-0.00036271082
0.0017859701
-0.00032419334
0.0018836128
-0.0003146024
0.0019067241
-0.00031508128
0.001914902
-0.00022568728
0.0019825144
-0.00014319822
0.0019444426
-0.00012830604
0.0019266515
-0.00019092646
0.0020016189
-0.0001107356
0.0019565545
-0.00015676562
0.0019612792
-0.00022336953
0.0019704892
-0.00017965162
0.001966462
-0.00026556076
0.0022118834
-0.00014964197
0.0023585161
0.00013826732
0.0023560821
0.00022123135
0.002310115
0.00011886121
0.0021235268
-7.4847585e-05
0.0023302702
-2.9400726e-05
0.0026759475
0.00032083777
0.0026307727
0.00043531158
0.002426356
0.00031270365
0.0022715568
0.00016626431
0.0023498102
0.00016572606
0.002640459
0.00035812851
0.0028300955
0.00061290914
0.0028550247
0.00064305947
0.0027046902
0.00047839109
0.0025255774
0.00039438878
0.0023679374
0.00037729468
0.0025365621
0.00043277917
0.0029571368
0.00051129918
0.0033750657
0.00064676105
0.0035497646
0.00077890867
0.003393117
0.00084030836
0.0031220988
0.00085342616
0.002849307
0.00080726969
0.0027180919
0.00066116778
0.0028061345
0.00053208963
0.0030595191
0.00041579086
0.00039150893
0.0033516782
0.001459967
-0.00011705066
0.0015135011
-1.7250911e-05
0.0015373842
7.1717857e-05
0.0015151972
5.337239e-05
0.0014605534
-8.0362174e-06
0.0014699481
-4.4983772e-05
0.0015574435
-9.4464523e-05
0.0016229594
-8.3178888e-05
0.0016193457
-0.00013706291
0.0016021661
-0.00017327009
0.0015826873
-0.00019679255
0.00154666
-0.00032450918
0.0015365502
-0.00035011445
0.0015772398
-0.000404744
0.001662848
-0.00035323831
0.0016997237
-0.00033506219
0.0017905563
-0.00025708526
0.0018248257
-0.00028989729
0.0018309726
-0.00027326861
0.0018897898
-0.00015093906
0.001845831
-0.00011846996
0.0018435844
-0.0001598765
0.0018965486
-7.8739223e-05
0.001852719
-0.00014099177
0.0018764178
-0.000211786
0.0018558468
-0.00019843091
0.0018824634
-0.00025672271
0.002152154
-0.00010275603
0.002259717
0.00014991987
0.0022240164
0.00022774163
0.002151316
0.00010352817
0.0020246109
-0.00014042256
0.0022952401
-1.0629968e-05
0.0025510491
0.00033290749
0.0024831526
0.00038387418
0.0022903329
0.00023973128
0.0021726175
0.00011296394
0.0022829266
0.00015832446
0.0025990622
0.00034164146
0.0026782848
0.00052172099
0.0026035983
0.00057840405
0.002547804
0.00043582273
0.0024450762
0.00031642458
0.0023255641
0.00029526932
0.0024135087
0.00042514075
0.0028113264
0.00059836983
0.0032343052
0.00070414555
0.0033922915
0.00071968141
0.0032681961
0.00065998711
0.0029671999
0.00058048752
0.0026094406
0.00054157692
0.0024018358
0.00052011971
0.0024441698
0.00050859658
0.0027073625
0.00047677166
0.00046620822
0.0030701563
0.0013910496
-0.00013737655
0.0014414762
-2.0651802e-05
0.0014637198
0.00011729518
0.001442005
9.0956805e-05
0.0013896627
-2.4611379e-05
0.001396744
-4.5985783e-05
0.0014805334
-7.3737705e-05
0.0015404012
-4.398144e-05
0.0015395731
-0.00010049149
0.0015258747
-0.00013117285
0.0015033837
-0.0001507516
0.0014718818
-0.00027800347
0.0014572015
-0.00034660518
0.001499616
-0.0003735505
0.0015754881
-0.0003259957
0.0016201331
-0.0003596414
0.0016985738
-0.00025608564
0.0017364024
-0.000243482
0.0017491664
-0.00028638572
0.0018006066
-0.00017152803
0.0017574325
-0.00011663831
0.0017684706
-0.00013957073
0.0017983087
-6.3908615e-05
0.0017545967
-0.00013588032
0.0017889332
-0.00020348617
0.0017536576
-0.00020970074
0.0018029992
-0.00023687446
0.0020777408
-5.0934144e-05
0.002162532
0.00015681432
0.0020982365
0.00021326065
0.0019842831
8.0716291e-05
0.0019464859
-0.00017760164
0.0022539994
1.7774717e-05
0.0024182465
0.00032070661
0.0023312515
0.00034378828
0.002158452
0.00016562623
0.0020884824
6.1384471e-05
0.0022124251
0.00015942532
0.0025088696
0.00035413113
0.0025740575
0.00047321529
0.0023993513
0.00049226528
0.0023494635
0.00042599692
0.0023065842
0.0002804253
0.0022943301
0.00021867377
0.0023834356
0.00035770872
0.0026578751
0.00061028848
0.002983123
0.00075656034
0.0031075576
0.00069725578
0.0030200075
0.00054074202
0.0028054014
0.0003852791
0.0025275131
0.00030766742
0.0022954066
0.00031834764
0.0022660638
0.00041864712
0.0024307778
0.00048230564
0.00054732747
0.002716385
0.001326257
-0.00012816724
0.001375126
-3.04019e-05
0.0013943315
0.00011689485
0.0013717379
0.00011350137
0.0013247752
-1.8667526e-05
0.0013288681
-6.4071974e-05
0.0014106605
-5.9563988e-05
0.0014646824
-3.172216e-05
0.0014669005
-7.7376871e-05
0.0014568307
-0.00011960261
0.0014310654
-0.00015844342
0.0014039436
-0.00023077456
0.0013874383
-0.00030648169
0.0014289624
-0.00035440471
0.0014940812
-0.00031062707
0.0015475199
-0.00034539335
0.0016160085
-0.00026643242
0.0016513457
-0.00021559633
0.0016759608
-0.00026309123
0.0017200611
-0.00018080379
0.0016729603
-0.00011811985
0.0016946882
-0.00012105569
0.0017041648
-6.0269425e-05
0.001660202
-0.00013631833
0.0017035256
-0.00019229531
0.0016640137
-0.00021387179
0.0017320331
-0.00020956425
0.0019932079
-9.5832397e-06
0.0020698184
0.00014687579
0.0019865736
0.00018698049
0.0018313876
4.0688306e-05
0.0018834828
-0.00017123231
0.0022004991
3.1909358e-05
0.0022986426
0.00029541018
0.00217067
0.00031347331
0.0020275378
0.00010387533
0.002012471
1.084367e-05
0.0021457017
0.00012885814
0.0023959157
0.00036371128
0.0024672138
0.00047761581
0.0022822101
0.00042093843
0.0021640881
0.00039176709
0.002133599
0.00027828881
0.0022223563
0.00017763628
0.0023968893
0.00027361131
0.0025846271
0.00052639932
0.0027278123
0.00072999778
0.0027681901
0.00069596549
0.0027002135
0.0005120698
0.0025703976
0.00029927616
0.0024303359
0.00017893869
0.0023116632
0.00016469961
0.0022454407
0.00027756868
0.0022908153
0.00042092955
0.00055274845
0.0024373066
0.0012636479
-0.00010569174
0.0013111175
-5.1862122e-05
0.0013279901
8.004076e-05
0.0013037868
0.00010750028
0.0012613789
4.0948961e-07
0.0012649803
-6.0668025e-05
0.0013421243
-3.3175683e-05
0.0013917416
-4.3581697e-05
0.0013955682
-8.5364156e-05
0.0013847121
-0.00012193454
0.0013605244
-0.00018911775
0.0013367886
-0.00019235662
0.0013202604
-0.0002635939
0.0013603416
-0.00031573614
0.0014149333
-0.00031090909
0.0014731397
-0.00031410565
0.0015356549
-0.0002590476
0.0015650046
-0.00019389647
0.0015994553
-0.00022504311
0.0016419976
-0.00017009804
0.0015938087
-0.00012332759
0.0016218922
-0.00010749072
0.0016166805
-5.7272637e-05
0.0015740948
-0.00013833324
0.0016191607
-0.00018653925
0.0015829723
-0.00022041852
0.0016619937
-0.00018397582
0.0018958818
1.1034657e-05
0.0019752979
0.00012945967
0.0018766159
0.00015142805
0.0016993381
-9.2748053e-06
0.0018169447
-0.00013594013
0.0021310299
5.7544714e-05
0.0021957493
0.00027309863
0.0020166029
0.00027401867
0.0018984996
7.6774064e-05
0.0019294
-2.7976702e-05
0.0020919206
7.3465396e-05
0.0022963906
0.00034802559
0.0023362313
0.00049818276
0.0022100099
0.0003972681
0.0020366943
0.00032764614
0.0019611696
0.00025794801
0.0021058965
0.0001861088
0.0023791625
0.00023212529
0.0025690409
0.00041776456
0.002571981
0.00060202469
0.0024941178
0.00064709721
0.0024020486
0.00052124134
0.0023198712
0.00031632924
0.002274697
0.00015281963
0.0022924668
0.00010427615
0.0023116138
0.00017261439
0.0023084797
0.0003011294
0.00046628588
0.0023266504
0.0012035556
-8.2893216e-05
0.0012497974
-6.2905035e-05
0.0012655898
2.1020908e-05
0.001240524
7.7546499e-05
0.0012008775
4.3467995e-05
0.0012053541
-3.2853616e-05
0.0012758803
-1.0369123e-05
0.001323477
-6.3168035e-05
0.0013291647
-0.0001016422
0.0013170381
-0.00014580142
0.0012968267
-0.00020048136
0.001273705
-0.000169936
0.0012583489
-0.00022518973
0.0012952323
-0.00026930113
0.001344766
-0.00031378065
0.0014027231
-0.00029146107
0.0014631321
-0.00025157806
0.0014860957
-0.00018249506
0.001526076
-0.00019084005
0.0015682422
-0.00015305442
0.0015219922
-0.0001267397
0.0015511126
-9.8063003e-05
0.0015353071
-6.1979011e-05
0.0014952544
-0.00013173976
0.00153774
-0.00017521978
0.0015110751
-0.00022795806
0.0015935919
-0.00016839484
0.0017952321
1.4756171e-05
0.0018819797
0.00011188985
0.0017708454
9.8099301e-05
0.0015954836
-5.2927845e-05
0.0017430077
-9.2877741e-05
0.0020516827
8.5987388e-05
0.0020973644
0.00026724477
0.0018863551
0.0002229767
0.0017771136
7.0187797e-05
0.0018343795
-4.3254707e-05
0.0020456738
3.0206267e-05
0.0022279214
0.00029839086
0.0022031057
0.00048739209
0.0021195161
0.00041541373
0.0019475554
0.00027782904
0.0018232545
0.00020555375
0.0019602845
0.00019631929
0.0022874279
0.00024837376
0.0025175417
0.00035388523
0.0024925416
0.00045458008
0.002331175
0.00050395586
0.0021769135
0.00047505004
0.0020874579
0.00035332586
0.0020929353
0.00021309968
0.0021922918
0.00012005924
0.0023180282
0.00014345224
0.0023720454
0.00021219507
0.00032812528
0.0023434408
0.0011457098
-5.7123316e-05
0.0011902655
-6.9927134e-05
0.0012061144
-3.8132596e-05
0.0011818672
3.6413695e-05
0.0011430727
9.2741828e-05
0.0011486216
2.3586216e-05
0.0012119426
4.8571863e-06
0.0012577662
-6.653497e-05
0.001264628
-0.00010452416
0.0012529365
-0.000155998
0.0012376307
-0.00018473007
0.0012129051
-0.00016137765
0.0011973974
-0.000215498
0.001229198
-0.00023285085
0.0012779475
-0.00030161764
0.0013330483
-0.00026796449
0.0013939331
-0.00025513795
0.0014125609
-0.00019092554
0.0014525813
-0.00016598874
0.0014935182
-0.0001386466
0.0014522766
-0.00012904459
0.001479333
-9.2316076e-05
0.0014583927
-6.9493323e-05
0.0014209789
-0.00011971345
0.0014564921
-0.00015575846
0.0014429187
-0.00023743482
0.001524904
-0.00015933833
0.0016973965
1.0205429e-05
0.00178466
9.7989152e-05
0.0016726984
3.9139287e-05
0.0015135381
-9.3951746e-05
0.0016621738
-6.3346748e-05
0.0019618784
0.0001239187
0.0019961074
0.00026989884
0.0017865975
0.00017388555
0.0016649442
6.9951734e-05
0.0017276278
-4.3601021e-05
0.001986157
1.8800908e-05
0.0021692707
0.00024340813
0.0020979335
0.00042085202
0.0020039573
0.00042453598
0.0018687067
0.00027554926
0.0017352206
0.00015625015
0.0018293878
0.00017774134
0.0021415611
0.00027923167
0.0023957122
0.0003523672
0.0023981783
0.00036388689
0.0022308745
0.00034840097
0.0020368497
0.00034270149
0.0019136574
0.00032284012
0.0019205456
0.0002665949
0.0020455776
0.00019587719
0.0022222931
0.00017391064
0.0023488177
0.00018618417
0.00023474614
0.0023475488
0.0010903917
-3.2097727e-05
0.0011332889
-6.8986043e-05
0.0011496875
-8.2577249e-05
0.0011273753
2.9454106e-06
0.0010883295
0.00013144034
0.0010940017
7.8757721e-05
0.0011520408
3.0840017e-06
0.0011970062
-5.1354428e-05
0.0012032554
-9.4022748e-05
0.001192473
-0.00014836361
0.0011801508
-0.00014925958
0.0011540511
-0.00015930172
0.0011403336
-0.00022369083
0.0011656471
-0.00020998173
0.0012162095
-0.00027558951
0.0012667051
-0.00023506013
0.0013286658
-0.00025492528
0.0013465363
-0.00021314618
0.0013834253
-0.00015658282
0.001422576
-0.0001265534
0.0013864017
-0.00012931761
0.0014099832
-9.0216522e-05
0.0013875258
-7.4204318e-05
0.0013530604
-0.00010457976
0.0013756537
-0.00013945625
0.0013789234
-0.00024202473
0.0014568716
-0.00015508717
0.0016049589
5.5061829e-06
0.0016853058
9.0052647e-05
0.0015841021
-2.3696493e-06
0.0014469096
-0.00012597071
0.0015849995
-5.0368123e-05
0.0018686219
0.00016097284
0.0018892451
0.00026851294
0.0017113846
0.00013032485
0.0015672575
4.9713379e-05
0.0016248506
-3.2446694e-05
0.0019074516
4.5646077e-05
0.0020998048
0.00021999537
0.0020207709
0.0003303577
0.0018889096
0.00037874718
0.0017673811
0.00028959834
0.0016686017
0.00013667676
0.0017412811
0.00013981891
0.0019957903
0.00028549045
0.0022342561
0.00037891889
0.0022658885
0.00033539086
0.0021494657
0.0002487178
0.0019792944
0.00020710342
0.0018216766
0.00021924053
0.0017923422
0.00025167609
0.0018972076
0.0002437275
0.0020785017
0.00024255104
0.0022458027
0.0002142074
0.00019401747
0.0022967205
0.0010375125
-1.7435783e-05
0.0010783475
-6.2747322e-05
0.0010961152
-9.642938e-05
0.0010764364
-1.6376868e-05
0.0010363206
0.00014158637
0.00104008
0.00011537269
0.0010955201
-6.7191379e-07
0.0011394422
-2.842189e-05
0.001144531
-7.1445025e-05
0.0011360417
-0.00012417976
0.0011245711
-0.00011364
0.0010976947
-0.00015509793
0.0010864147
-0.0002248939
0.0011057171
-0.00019916749
0.0011590084
-0.00024959922
0.0012028709
-0.00019251473
0.0012640491
-0.00023056196
0.0012831498
-0.00022775184
0.0013164752
-0.00015884813
0.0013542422
-0.00011395104
0.0013237753
-0.00012706543
0.0013427402
-8.8278367e-05
0.0013206179
-7.8419025e-05
0.0012873128
-8.9857582e-05
0.0012961761
-0.00012594364
0.0013161529
-0.00023768751
0.0013903204
-0.00015354526
0.0015204132
1.0685319e-06
0.0015893618
8.5737557e-05
0.0015033258
-2.4740007e-05
0.001390228
-0.00014290594
0.0015162966
-4.3920362e-05
0.0017723134
0.00019024577
0.0017788363
0.00025420387
0.0016455612
8.2397591e-05
0.0014917836
4.9136056e-06
0.0015363892
-2.3793283e-05
0.0018213946
8.117314e-05
0.0020114837
0.00022853897
0.0019574551
0.00026090384
0.0018100302
0.00028201567
0.0016628973
0.00026548784
0.0015962416
0.00014485947
0.0016858478
0.00011713378
0.0018875215
0.00026120766
0.0020686261
0.00038502095
0.0021136709
0.00034954937
0.0020509668
0.00021795352
0.0019349516
0.0001326364
0.0017974936
0.00010918961
0.0017243297
0.00016417712
0.0017800401
0.00023024935
0.0019172374
0.00027317563
0.0020714399
0.00026047226
0.00020511434
0.0021628836
0.00098725814
-1.3877668e-05
0.0010263051
-5.5580187e-05
0.0010451056
-8.2675683e-05
0.001027865
-1.9539836e-05
0.00098682276
0.00012793967
0.0009879483
0.00012195954
0.0010421524
7.2773654e-06
0.0010843715
-5.4181726e-06
0.0010896189
-4.3396188e-05
0.0010833192
-9.0856514e-05
0.0010709187
-8.9095262e-05
0.0010436691
-0.00014708339
0.0010355134
-0.00020987324
0.0010497862
-0.00018548867
0.0011053152
-0.00022024243
0.0011422094
-0.00015744474
0.0012012446
-0.00018508722
0.0012234131
-0.00022256548
0.0012545477
-0.00016754267
0.0012903595
-0.00010329284
0.0012655353
-0.000123031
0.0012796451
-8.5185394e-05
0.0012597769
-8.05883e-05
0.0012262314
-7.7396862e-05
0.0012218679
-0.00011346221
0.0012552374
-0.00022226369
0.0013267779
-0.00015206728
0.0014431191
-8.2253328e-07
0.0014990036
8.4809408e-05
0.001428538
-3.2894461e-05
0.0013408681
-0.00014923781
0.0014557309
-3.4231592e-05
0.001672702
0.00020802338
0.0016667348
0.00023090224
0.0015755539
5.4013902e-05
0.0014315908
-5.5411697e-05
0.0014599448
-3.9960146e-05
0.0017280548
0.00012149663
0.0019019025
0.00025353282
0.0018795518
0.0002253943
0.0017514577
0.00018791626
0.0015774876
0.00018571034
0.0015103358
0.00014209138
0.0016296925
0.0001236357
0.0018108333
0.00023545094
0.0019340931
0.00036057924
0.0019498563
0.00036188772
0.0019231921
0.00024769741
0.0018464597
0.00011467696
0.0017578506
4.252241e-05
0.0016948778
6.1288066e-05
0.0016989036
0.00015554473
0.0017773792
0.0002495081
0.0018745564
0.00026950934
0.00023045894
0.001961069
0.00093946446
-1.9517837e-05
0.00097686275
-5.0658753e-05
0.00099641309
-5.4290743e-05
0.00098130213
-1.3158279e-05
0.00093979943
9.639028e-05
0.0009381917
9.5594143e-05
0.00099175896
2.4364316e-05
0.0010320101
1.6454837e-05
0.0010374412
-1.6514899e-05
0.0010331693
-5.5539995e-05
0.0010195069
-7.3618124e-05
0.00099287364
-0.00013491964
0.00098694584
-0.00017893013
0.00099680683
-0.00017479534
0.0010533123
-0.00019008282
0.0010852628
-0.00013911562
0.0011412006
-0.00013851094
0.0011664836
-0.00019429012
0.0011960381
-0.00016891083
0.0012285837
-9.6037665e-05
0.0012096536
-0.00011825273
0.001219645
-8.1037971e-05
0.0012034374
-7.9230569e-05
0.0011684605
-6.944852e-05
0.0011534536
-0.00010440651
0.0011953809
-0.00019682936
0.0012656937
-0.00014460509
0.0013708736
-7.7432353e-07
0.0014126738
8.438902e-05
0.0013551894
-3.8684331e-05
0.001292318
-0.00015010592
0.0013993866
-2.3411652e-05
0.0015755577
0.00021571713
0.0015631147
0.00020751535
0.0014970123
4.4629068e-05
0.0013746544
-0.0001103765
0.0014012813
-6.7064186e-05
0.0016369989
0.00014810762
0.0017834941
0.00027064485
0.0017827654
0.00021763396
0.0016880383
0.00012309076
0.0015144556
8.3040197e-05
0.0014279013
9.4721565e-05
0.0015609096
0.00014131622
0.0017330338
0.00023469404
0.0018219076
0.00033175036
0.0018100095
0.00034655097
0.001780278
0.00028188154
0.0017240087
0.00014451111
0.0016728311
1.7467597e-05
0.001654465
-4.9734132e-06
0.0016565345
5.9141256e-05
0.0016781311
0.00017020378
0.0017169416
0.00023404767
0.00022749623
0.0017678509
0.00089413148
-3.06148e-05
0.0009301676
-4.7399115e-05
0.00094968369
-1.9341181e-05
0.00093611635
-1.707346e-06
0.0008948647
5.7960916e-05
0.00089164047
5.4328446e-05
0.00094362319
3.9278471e-05
0.00098183861
3.13061e-05
0.00098798677
4.4941494e-06
0.00098499258
-2.4635684e-05
0.0009711584
-5.8849282e-05
0.00094617682
-0.00011650112
0.00094054533
-0.00014185298
0.00094723834
-0.0001633804
0.0010030042
-0.00016411067
0.0010320525
-0.00013397635
0.0010838619
-0.00010645783
0.0011113862
-0.0001533321
0.0011409885
-0.00015875821
0.0011695778
-8.9995129e-05
0.0011562717
-0.00011527241
0.0011631208
-7.5518876e-05
0.0011510568
-7.153771e-05
0.0011150666
-6.705544e-05
0.0010924007
-9.9828454e-05
0.0011392294
-0.00017029793
0.0012093781
-0.00013043173
0.0013044834
1.6275198e-06
0.0013317727
7.9296008e-05
0.00128396
-4.4660798e-05
0.001244334
-0.00014774998
0.001346504
-1.6240201e-05
0.0014824437
0.00021320492
0.0014653439
0.00019126629
0.0014075294
3.8644599e-05
0.0013218743
-0.00014725743
0.0013567888
-9.724102e-05
0.001545707
0.00016372784
0.0016648361
0.00028803426
0.0016749248
0.00021199163
0.0016112626
8.3204386e-05
0.0014653892
-4.2384498e-06
0.0013656315
2.754919e-06
0.0014818452
0.00014085786
0.0016512339
0.00025294266
0.0017275199
0.00031685654
0.0017075756
0.00032267224
0.0016507275
0.00027948777
0.0015930424
0.00017649723
0.0015615708
3.134905e-05
0.0015820424
-2.6082799e-05
0.0016191653
-8.6038439e-06
0.0016154243
8.1208583e-05
0.0016014626
0.00015789741
0.00018936467
0.0016170833
0.00085113547
-4.42009e-05
0.00088599126
-4.2077834e-05
0.0009049821
1.5029382e-05
0.00089235705
1.2505224e-05
0.00085182333
2.4214002e-05
0.00084804822
1.0817168e-05
0.00089761205
4.9395332e-05
0.0009343711
3.8861091e-05
0.00094101006
1.9427035e-05
0.00093821652
-6.8857986e-07
0.00092469962
-4.4347752e-05
0.00090212546
-9.3330547e-05
0.00089600516
-0.00010815971
0.00090067991
-0.00015044163
0.00095351278
-0.00013893616
0.00098137173
-0.00013899064
0.0010289216
-9.4601164e-05
0.0010569725
-0.0001130327
0.0010878071
-0.00013737927
0.0011123939
-8.4745907e-05
0.0011045631
-0.00011182409
0.0011090031
-6.6284344e-05
0.0010998908
-5.9274476e-05
0.0010637642
-6.5247278e-05
0.0010355332
-9.7779901e-05
0.0010823605
-0.00014764455
0.0011534136
-0.00011575913
0.0012412531
5.0308773e-06
0.001255821
7.3859269e-05
0.0012148339
-4.9034004e-05
0.0011949783
-0.00014116115
0.0012941491
-9.1624726e-06
0.0013952045
0.00019648005
0.0013761462
0.00017890908
0.0013139206
3.306072e-05
0.0012622723
-0.00015918365
0.0013194663
-0.0001227416
0.001469801
0.00015793338
0.0015519493
0.00030099394
0.0015632673
0.00021302749
0.0015181995
6.8831291e-05
0.0014052317
-6.568888e-05
0.0013312117
-8.5534341e-05
0.0014075881
9.061743e-05
0.0015578203
0.00027436222
0.0016303774
0.00031635245
0.0016176015
0.00030498061
0.0015440943
0.00025532725
0.0014644602
0.0001756003
0.0014433962
5.9393564e-05
0.0014862065
-2.1829279e-05
0.0015574304
-3.9534924e-05
0.001568979
1.6078533e-05
0.001529887
7.8491758e-05
0.00012695888
0.0015072215
0.00081030592
-5.7972877e-05
0.00084406035
-3.5017068e-05
0.00086223503
4.2114709e-05
0.00085035114
2.7145552e-05
0.00081088849
-5.2755415e-06
0.00080735422
-2.4064029e-05
0.0008537326
4.9230001e-05
0.00088944463
4.1651311e-05
0.00089683579
2.9069599e-05
0.00089367378
1.2925065e-05
0.00088063222
-3.1756783e-05
0.00086015968
-7.3064837e-05
0.00085317321
-7.7286299e-05
0.00085744995
-0.00014022129
0.00090673101
-0.00011149226
0.00093442041
-0.00014319124
0.00097790242
-0.00010029227
0.0010048885
-8.2443829e-05
0.0010363925
-0.00011288764
0.0010575677
-7.8558048e-05
0.0010552687
-0.00010342006
0.0010586709
-5.5596636e-05
0.001051283
-4.3848526e-05
0.0010156456
-6.1627575e-05
0.00098413671
-9.8208265e-05
0.0010295941
-0.00012654623
0.0011015031
-0.00010060289
0.0011839177
7.242176e-06
0.0011876521
6.4111288e-05
0.0011516862
-5.3544393e-05
0.0011484979
-0.00013973583
0.0012430752
-7.643752e-06
0.0013169479
0.00017304227
0.0012944406
0.00016643721
0.0012280863
2.8066177e-05
0.0012006025
-0.00015833051
0.0012844002
-0.00013273687
0.0014049836
0.00012990337
0.0014508824
0.00029560043
0.001459363
0.00022769474
0.001417453
7.2884709e-05
0.0013308543
-9.9646126e-05
0.0012996011
-0.00016023176
0.0013629131
2.1158332e-05
0.0014689709
0.00025659363
0.0015362996
0.00033511742
0.0015292878
0.00030808449
0.0014547195
0.00023708172
0.0013629391
0.00015201779
0.0013299409
6.693954e-05
0.0013824112
-2.6182866e-06
0.0014665947
-3.5725345e-05
0.0015109735
-1.8056078e-05
0.0014778076
1.6068327e-05
6.0556797e-05
0.0014374376
0.00077163648
-6.8587807e-05
0.00080420536
-2.9563606e-05
0.00082135855
5.8949678e-05
0.00080990794
4.1139636e-05
0.00077191024
-2.8851754e-05
0.00076895425
-3.7520558e-05
0.00081158439
3.8122249e-05
0.00084625763
4.1545227e-05
0.00085430085
3.6542795e-05
0.00085088924
2.0655287e-05
0.00083839283
-1.9488976e-05
0.00081950603
-5.6693333e-05
0.00081100685
-5.3759569e-05
0.00081614814
-0.00013523034
0.0008607063
-8.53973e-05
0.00088887738
-0.00014211726
0.00092968291
-0.00011308258
0.00095461115
-6.3550068e-05
0.00098599757
-9.004308e-05
0.0010042208
-7.0795727e-05
0.0010068287
-9.0488453e-05
0.0010097989
-4.2110504e-05
0.0010027042
-2.5825477e-05
0.00096776195
-5.5405014e-05
0.0009350703
-9.9208784e-05
0.00097640472
-0.00010734876
0.0010490606
-8.8821018e-05
0.0011272132
8.5444658e-06
0.0011221446
5.8610254e-05
0.0010887459
-5.3257405e-05
0.0010996485
-0.00014226567
0.0011918308
-1.0488257e-05
0.0012454762
0.0001509207
0.0012184602
0.00015357372
0.0011469261
2.2505864e-05
0.0011368528
-0.0001496165
0.0012441291
-0.00013093575
0.001349224
9.1612274e-05
0.0013638877
0.00027179931
0.0013603507
0.00024468641
0.0013183408
8.6918795e-05
0.0012514217
-0.00011625103
0.0012604993
-0.00020642239
0.0013359054