/*--------------------------------*- C++ -*----------------------------------*\
| =========                 |                                                 |
| \\      /  F ield         | OpenFOAM: The Open Source CFD Toolbox           |
|  \\    /   O peration     | Version:  2406                                  |
|   \\  /    A nd           | Website:  www.openfoam.com                      |
|    \\/     M anipulation  |                                                 |
\*---------------------------------------------------------------------------*/
FoamFile
{
    version     2.0;
    format      ascii;
    arch        "LSB;label=32;scalar=64";
    class       volScalarField;
    location    "7";
    object      rho;
}
// * * * * * * * * * * * * * * * * * * * * * * * * * * * * * * * * * * * * * //

dimensions      [1 -3 0 0 0 0 0];

internalField   nonuniform List<scalar> 
62344
(
1.0057682
1.0109599
1.0133165
1.0203531
1.026799
1.0316293
1.0308651
1.0268792
1.0252499
1.0280691
1.0276623
1.0279253
1.0305758
1.0317364
1.0313003
1.026897
1.027153
1.0288002
1.0336953
1.0375022
1.0357724
1.0419383
1.0415984
1.0400793
1.0479585
1.0473543
1.0452962
1.0496192
1.0383631
1.0271053
1.0314778
1.0376307
1.0429927
1.0303985
1.0164236
1.0274818
1.0487349
1.0600857
1.0492797
1.0253623
1.0083177
1.0112413
1.023132
1.0375148
1.0515536
1.0634719
1.0677371
1.0577864
1.0340958
1.0108544
0.99971541
1.0015545
1.0135304
1.0355934
1.0644929
1.0053523
1.0100406
1.0123793
1.0198878
1.0273412
1.031821
1.0309082
1.0286606
1.0263326
1.0267603
1.0281775
1.0292457
1.0305403
1.0296779
1.0302962
1.0294272
1.0272944
1.0274663
1.0324504
1.035238
1.0353063
1.0424879
1.0423114
1.0418283
1.0484626
1.0467092
1.0460427
1.0498416
1.03838
1.0287803
1.0319856
1.0373756
1.0449743
1.0333219
1.0185049
1.0280155
1.046098
1.0570396
1.0478227
1.0254497
1.0085021
1.0166407
1.0342948
1.0464179
1.0500887
1.0549859
1.0587245
1.0518992
1.0328639
1.0122069
1.0021055
1.0063763
1.0184938
1.0361535
1.0582163
1.005383
1.0106333
1.012346
1.0192269
1.0277597
1.0326931
1.0321947
1.0294456
1.0272822
1.0264577
1.0281256
1.0303877
1.0312542
1.0310688
1.0291192
1.028897
1.0291576
1.0281726
1.0326318
1.0335215
1.034322
1.0424641
1.0425407
1.0426646
1.0488375
1.0470967
1.0477179
1.0490231
1.0363774
1.0298214
1.0309709
1.0376852
1.0468621
1.0337927
1.0189596
1.0262671
1.0423849
1.0530044
1.0469677
1.0273786
1.0120742
1.0219276
1.0411432
1.0516759
1.0496988
1.0463939
1.042496
1.0379681
1.0318386
1.0228064
1.0172842
1.019315
1.028687
1.0400537
1.0519458
1.0056471
1.0118159
1.0126872
1.0187329
1.0274004
1.0337412
1.0338995
1.0296966
1.0278124
1.0275875
1.0282414
1.0310033
1.031847
1.0330138
1.0304485
1.0279649
1.0288294
1.0281035
1.0331975
1.0338257
1.0342814
1.0427869
1.0425486
1.0429199
1.0488569
1.0478682
1.0501187
1.0479344
1.0352613
1.0307624
1.031117
1.0401952
1.0482801
1.031439
1.0195075
1.0277923
1.0414099
1.0493302
1.0436261
1.0274512
1.0164092
1.0256522
1.0436953
1.0565358
1.0535471
1.0398291
1.0253798
1.0181448
1.0247607
1.034411
1.0414185
1.0440973
1.0447165
1.044
1.0430768
1.0060586
1.0126429
1.0130623
1.0185207
1.027086
1.0343216
1.0344599
1.0303359
1.0284091
1.0293029
1.0292714
1.0311627
1.0328518
1.0336423
1.0313598
1.0288722
1.0285711
1.0267876
1.0328297
1.0344399
1.0350827
1.0427503
1.0424342
1.0433256
1.0484666
1.0487936
1.0522814
1.046411
1.0337117
1.0319692
1.0327416
1.0426987
1.0470587
1.0284183
1.0204439
1.029927
1.0424689
1.0468746
1.0384048
1.0267451
1.0231267
1.0296466
1.0422638
1.0567632
1.0585284
1.0396304
1.0158542
1.0027424
1.0121324
1.03546
1.0577758
1.0706219
1.0701351
1.0576433
1.041958
1.006189
1.0125618
1.0130398
1.0183941
1.0269078
1.0342679
1.0343025
1.0305887
1.0288886
1.0303988
1.0302623
1.0315059
1.0336044
1.0338285
1.030926
1.029422
1.0295734
1.0265978
1.0316263
1.0341235
1.0357639
1.042424
1.0421218
1.0444272
1.0482919
1.0490044
1.0536216
1.044809
1.0323897
1.0330484
1.0353275
1.0448476
1.0439322
1.0251772
1.0220451
1.032038
1.0444945
1.0467117
1.0339924
1.0236543
1.0291217
1.0343544
1.040942
1.0522814
1.0584751
1.0432118
1.0160446
0.99953404
1.0039679
1.0270866
1.0580569
1.0826631
1.0895768
1.0784065
1.0554681
1.0059564
1.0119307
1.0128219
1.018626
1.0271823
1.034191
1.0342687
1.0305689
1.0290935
1.0303649
1.0308087
1.0323023
1.0339312
1.0340867
1.0310774
1.0291518
1.0303052
1.0277244
1.030678
1.0329701
1.0361431
1.041977
1.0420574
1.0457205
1.0483815
1.0491806
1.0539973
1.0433403
1.0311786
1.0331392
1.0390072
1.0473331
1.0395321
1.0226846
1.0238893
1.0342216
1.0454729
1.0456267
1.0328799
1.0199238
1.0302269
1.0397495
1.0422884
1.047124
1.050219
1.0430645
1.0226178
1.0074511
1.008594
1.0237109
1.0479643
1.0746995
1.0903762
1.0890885
1.0737111
1.0055297
1.0109676
1.0123154
1.0190547
1.0274796
1.0345117
1.0344622
1.0306361
1.0292583
1.0300912
1.0312561
1.0331853
1.0343136
1.0342007
1.031989
1.0294584
1.0300674
1.0287869
1.0304398
1.0319072
1.036209
1.0416646
1.0420647
1.0468727
1.0485738
1.0493549
1.0534785
1.0418536
1.0303604
1.0327376
1.0430778
1.0492796
1.035934
1.0210426
1.0251276
1.0366226
1.0446035
1.042807
1.0325609
1.0190376
1.0279627
1.0419934
1.047198
1.0454218
1.0403469
1.034659
1.0275351
1.0216191
1.0213573
1.028525
1.0412983
1.0571033
1.0730313
1.0818194
1.0790971
1.0051832
1.0100819
1.0117072
1.0194012
1.0279677
1.0349787
1.0347321
1.0309373
1.0298029
1.030269
1.031674
1.0337179
1.0350838
1.0343193
1.03259
1.0302792
1.0296378
1.029349
1.0307262
1.0311605
1.0359167
1.0411844
1.041994
1.0478003
1.0486526
1.0494452
1.0528005
1.040982
1.0300521
1.0322967
1.046353
1.0510484
1.0337242
1.01976
1.0267239
1.0395459
1.044037
1.0397223
1.0297545
1.0209756
1.0260387
1.0404045
1.0522938
1.0492057
1.0346245
1.0224563
1.0237671
1.0312368
1.0369822
1.0399463
1.0433806
1.0465774
1.0514682
1.0604749
1.0688972
1.0051148
1.0094055
1.0111221
1.0194747
1.0283491
1.0351641
1.0348487
1.0315733
1.0305485
1.0308265
1.0321548
1.0336002
1.0357948
1.0348411
1.0329123
1.0307959
1.0293244
1.0295235
1.0312498
1.0306742
1.0353841
1.0405131
1.0419225
1.0483494
1.0488989
1.0497253
1.052142
1.04104
1.0303901
1.0324289
1.0481661
1.0520941
1.0328074
1.0184672
1.0278751
1.0429132
1.0453504
1.0372762
1.0242773
1.0221569
1.0273522
1.0384667
1.0541377
1.055302
1.035486
1.0153358
1.0141858
1.0298896
1.046578
1.0539265
1.0531248
1.047256
1.0406308
1.0399935
1.0493715
1.0051956
1.0090159
1.0107163
1.0192575
1.028505
1.0351384
1.0350059
1.0324365
1.0311718
1.0314762
1.0323614
1.0333309
1.0361562
1.0356293
1.0332666
1.0309268
1.0289183
1.0293145
1.0317553
1.0304282
1.034875
1.0398147
1.0419228
1.048662
1.049384
1.0502273
1.0513803
1.0416424
1.0312986
1.0332693
1.0489116
1.0527217
1.0326939
1.0176164
1.02784
1.0449896
1.0480999
1.0364948
1.0185557
1.0202497
1.0304245
1.0390101
1.0533045
1.0585944
1.0404868
1.0164768
1.008416
1.0226123
1.0446528
1.0614788
1.0645507
1.0560254
1.0422095
1.0317675
1.0333521
1.0052348
1.00904
1.0104909
1.0187894
1.0283066
1.035005
1.0354229
1.0330912
1.0316377
1.0318582
1.0323649
1.0333625
1.0361971
1.0364653
1.0338627
1.0310389
1.0286952
1.0288155
1.0319387
1.0303548
1.0345471
1.0392929
1.041919
1.0487484
1.0502416
1.0508601
1.0505862
1.0421847
1.0325811
1.034592
1.0487605
1.0525543
1.0328785
1.0181176
1.0275847
1.0451434
1.0512453
1.0369486
1.0152518
1.0158036
1.0312035
1.042503
1.0529611
1.057811
1.0449256
1.0229027
1.0103733
1.0175877
1.0360548
1.057779
1.0693761
1.0660546
1.0516868
1.0350896
1.0276695
1.0052273
1.0093869
1.0105023
1.0182272
1.0278912
1.0350825
1.0360037
1.0335156
1.0319718
1.0320236
1.0322715
1.0337267
1.0361481
1.0368782
1.0343888
1.0314151
1.0288828
1.0283071
1.0316954
1.0304254
1.0344351
1.039028
1.0419258
1.0485808
1.0513214
1.0516178
1.0498227
1.0424518
1.0338122
1.0358837
1.0479963
1.0516746
1.0332606
1.020168
1.0279135
1.044025
1.0536343
1.0383506
1.0147444
1.0119066
1.0277492
1.0454617
1.0556105
1.0559498
1.0454324
1.0294819
1.0180009
1.0189142
1.0294091
1.0472015
1.064563
1.0695128
1.0613807
1.0463635
1.0334336
1.0052058
1.0099072
1.0106833
1.0176676
1.0274175
1.0354515
1.0365966
1.0338058
1.0321848
1.0320097
1.0322234
1.0341429
1.0360708
1.0369371
1.0344809
1.0317284
1.0293505
1.0279803
1.0310498
1.030527
1.0344322
1.0388756
1.041946
1.048153
1.0523621
1.0524093
1.0492685
1.0426163
1.0348933
1.0370739
1.046917
1.0501846
1.0333622
1.0232518
1.0290965
1.0425964
1.0539673
1.0396068
1.0161449
1.0109382
1.022661
1.0441541
1.0590634
1.0558991
1.0434629
1.0324297
1.0266184
1.0251958
1.0284439
1.0395393
1.0540379
1.0642993
1.0645096
1.0571851
1.0466876
1.005207
1.0103627
1.0108706
1.0171291
1.0270471
1.0358617
1.0370247
1.0339152
1.0322427
1.0319076
1.0323276
1.0345038
1.0360052
1.0367569
1.0342639
1.0318102
1.0299611
1.0279082
1.0302452
1.0305436
1.0343563
1.0386748
1.0418337
1.0475366
1.0532005
1.0531432
1.0489812
1.0426145
1.0357727
1.0381791
1.046116
1.0480782
1.0331572
1.0266341
1.0308475
1.0419096
1.0523398
1.0401132
1.0187047
1.0126448
1.0191406
1.0389711
1.0590751
1.0576559
1.0421461
1.0321631
1.0314597
1.0324681
1.0333396
1.0384438
1.0455647
1.0535795
1.0600822
1.0617787
1.0582356
1.0052169
1.0106433
1.011004
1.0166891
1.0268273
1.0360836
1.0372489
1.0339047
1.0322262
1.0318845
1.032557
1.0346639
1.0358982
1.0365931
1.0339659
1.0316152
1.030546
1.0281661
1.0295588
1.0303936
1.0340548
1.0382947
1.0415221
1.0468199
1.0537195
1.0537289
1.0489722
1.0424803
1.0365695
1.039213
1.0455395
1.0459297
1.032863
1.0293598
1.0332821
1.041999
1.0492953
1.0389798
1.0220276
1.0158616
1.0184297
1.0337343
1.0545558
1.0579202
1.042506
1.0314539
1.0320916
1.0367375
1.0409852
1.0429412
1.0436204
1.0446581
1.0504156
1.0589635
1.0633066
1.005255
1.010729
1.0110338
1.016374
1.0266799
1.0360802
1.037251
1.0339201
1.0322157
1.0319226
1.0328357
1.0345961
1.0357907
1.0365724
1.03385
1.0313608
1.0308756
1.0286268
1.0290787
1.0300879
1.0335092
1.037684
1.0410509
1.0461528
1.0539672
1.0542265
1.0491409
1.0421871
1.0372597
1.040277
1.045018
1.0439019
1.032839
1.0310945
1.0359324
1.0429681
1.0458144
1.0366899
1.024896
1.019537
1.0204365
1.0306274
1.0472005
1.0538243
1.0428489
1.0321339
1.0313715
1.0376006
1.0464911
1.0497252
1.046155
1.0409282
1.0412282
1.0511489
1.0612435
1.0053052
1.010612
1.0109375
1.016192
1.0266154
1.0359367
1.0370647
1.0339742
1.03228
1.0320714
1.0330988
1.0344525
1.0356523
1.0366398
1.033952
1.0312369
1.0309005
1.0290875
1.0288297
1.029785
1.0328343
1.0370033
1.0405495
1.0456014
1.0539612
1.0545342
1.0494416
1.0419907
1.0379928
1.0415176
1.0447533
1.0420326
1.0331812
1.0322158
1.0381977
1.0443716
1.0426221
1.0333778
1.0268835
1.0236509
1.0237712
1.0305119
1.0411222
1.0455912
1.0417104
1.0328767
1.0314319
1.0367486
1.0484271
1.0552535
1.0512996
1.042035
1.0367486
1.0422276
1.053965
1.0053283
1.0103576
1.0107626
1.016154
1.0265512
1.0356912
1.0368156
1.0341321
1.0324033
1.0323089
1.0332971
1.034317
1.035575
1.0367557
1.0342043
1.0312919
1.0306829
1.029398
1.0287901
1.02956
1.0322145
1.0363072
1.040073
1.045221
1.0538022
1.0546971
1.0497887
1.0418948
1.0386767
1.0428977
1.0449224
1.0404084
1.0335254
1.0331709
1.0399996
1.0459828
1.0403065
1.0297567
1.0272403
1.0276582
1.0274829
1.0327491
1.037792
1.0370065
1.0366623
1.0337495
1.0317442
1.0365253
1.0479176
1.0574223
1.0562733
1.0459238
1.03664
1.0364889
1.0451169
1.0053132
1.0100112
1.0105308
1.0162273
1.0264896
1.0353844
1.0366315
1.0343502
1.0325263
1.0325529
1.0333744
1.0342441
1.0356043
1.0369103
1.0344871
1.0315527
1.0303482
1.0295394
1.0288585
1.0295173
1.0317409
1.035697
1.0396548
1.0449494
1.0535718
1.0547634
1.050108
1.0418855
1.0391521
1.0440856
1.0453016
1.0391782
1.0334424
1.0340643
1.0416685
1.0475624
1.0389641
1.0267412
1.0259596
1.0305389
1.0313144
1.0364166
1.0367391
1.0303472
1.0289868
1.0323097
1.0327858
1.0378757
1.047568
1.0578299
1.0593628
1.0502359
1.0400064
1.0351184
1.0387199
1.0052822
1.0096277
1.0102466
1.0164183
1.0264351
1.0350508
1.0364554
1.0343633
1.0326268
1.032683
1.0333486
1.0342149
1.035713
1.0370509
1.0347018
1.0319398
1.0299703
1.0294601
1.0289166
1.0295933
1.0314002
1.0351965
1.0392828
1.0447786
1.0533057
1.054799
1.0503837
1.0419768
1.0396
1.04514
1.0455859
1.0384594
1.0328778
1.0347181
1.0432135
1.048927
1.0388865
1.0247865
1.0236646
1.0316754
1.0355487
1.0407579
1.0380039
1.0268432
1.0213287
1.0275953
1.0336859
1.040525
1.0490341
1.0579621
1.0606291
1.0542973
1.0455675
1.037908
1.035996
1.0052184
1.0092629
1.0099657
1.0166587
1.0263684
1.0347836
1.0364162
1.0342969
1.032691
1.0327585
1.0333232
1.0342632
1.0359482
1.0371115
1.0348244
1.0323811
1.0296404
1.0292548
1.0289423
1.02974
1.0311653
1.0347761
1.0388617
1.0446693
1.0529779
1.0547724
1.0507753
1.0420091
1.0399496
1.0461106
1.0458377
1.0380796
1.0321165
1.0351288
1.0447617
1.0497504
1.0396758
1.0237934
1.0212187
1.0309187
1.0393225
1.0456027
1.0407706
1.0258938
1.0154604
1.0207569
1.0323212
1.0429347
1.052213
1.0596494
1.0612138
1.0573049
1.0510505
1.0431186
1.0366659
1.0051416
1.0089545
1.0096983
1.0169196
1.0262769
1.0345465
1.0363869
1.0341989
1.0327428
1.0327951
1.0331675
1.0342885
1.0361687
1.0371668
1.034845
1.0328005
1.0293587
1.0289911
1.0289128
1.0299195
1.030979
1.0344414
1.0385421
1.0446767
1.0526017
1.0546513
1.0512057
1.0420818
1.040148
1.0468934
1.0463596
1.0382036
1.0313818
1.0351681
1.0463114
1.050375
1.0409998
1.0243276
1.0189501
1.0286919
1.0418882
1.0501325
1.0448663
1.0272556
1.0123769
1.0141569
1.0282332
1.0439645
1.0563597
1.063493
1.0632395
1.0597992
1.0560878
1.0494193
1.0406136
1.0050521
1.0087085
1.0094674
1.0171248
1.0261933
1.0344535
1.036499
1.0340739
1.0328143
1.0328707
1.0331277
1.0343573
1.0365046
1.0372782
1.0348979
1.0332213
1.0292541
1.0287815
1.0288944
1.03012
1.0308824
1.0342278
1.0383129
1.0446582
1.0523347
1.0546518
1.0517249
1.0424784
1.0402751
1.0473118
1.0470249
1.038791
1.0305811
1.03467
1.0471647
1.0511455
1.0422114
1.0255598
1.0177097
1.0254122
1.0425317
1.0539575
1.0493757
1.03016
1.0118765
1.0089017
1.0225015
1.0422418
1.0598922
1.0679513
1.0657857
1.0620448
1.0601436
1.0555247
1.0464371
1.0049886
1.0085303
1.0092722
1.0172632
1.0260955
1.0342516
1.0365435
1.0340029
1.0328639
1.0329059
1.0330097
1.0343776
1.0365576
1.0372845
1.0348299
1.0335278
1.0292443
1.0286244
1.0288879
1.0302948
1.0308245
1.0341069
1.0381259
1.0446363
1.052165
1.0547033
1.0522536
1.0428018
1.0404483
1.0478014
1.0477948
1.0395096
1.0302708
1.0340861
1.0475682
1.0521017
1.0436439
1.0275705
1.0171095
1.0225402
1.041523
1.0573789
1.0542422
1.0343838
1.0132628
1.0059976
1.0163946
1.0385287
1.0616345
1.0731272
1.070302
1.0649606
1.062808
1.0601449
1.0524063
1.0049786
1.0084385
1.0091685
1.0173704
1.0260321
1.0343325
1.0367534
1.0340514
1.0329805
1.0329913
1.0329451
1.0343792
1.0366288
1.037261
1.0347472
1.0336923
1.0292523
1.0284553
1.0288242
1.0303567
1.0307425
1.0340393
1.0379366
1.0446435
1.0519385
1.0549297
1.0528597
1.0430675
1.0404162
1.0475979
1.0485888
1.0404995
1.0295053
1.0334061
1.0471537
1.0532588
1.0451442
1.029911
1.0158785
1.019856
1.0382262
1.058503
1.0590446
1.0388116
1.0157566
1.0034834
1.0095944
1.0314582
1.058873
1.075009
1.0748127
1.0684104
1.0641641
1.0619454
1.0559886
1.0051839
1.0086618
1.009358
1.0176143
1.0262162
1.0344968
1.0370771
1.0343811
1.033321
1.0332712
1.033018
1.0343395
1.0365364
1.0372366
1.0347593
1.0338471
1.0293866
1.028428
1.0287902
1.0303796
1.0306319
1.0337554
1.0375746
1.0440833
1.051462
1.0547415
1.0533569
1.0439517
1.0403346
1.0468588
1.0491576
1.0420886
1.0301272
1.0324568
1.0449307
1.0534363
1.0462843
1.0337308
1.0177185
1.0180444
1.0341046
1.0546034
1.0599674
1.0431232
1.0214761
1.005731
1.0061878
1.0242947
1.0503989
1.0696703
1.072798
1.0686323
1.0642197
1.0618386
1.0572905
1.0441041
1.0404723
1.0366315
1.0327477
1.0313781
1.0332698
1.0385415
1.0465708
1.0555473
1.0625546
1.0641499
1.059667
1.049452
1.03749
1.0311722
1.0349594
1.0474831
1.0635283
1.071545
1.0664432
1.0494345
1.0305245
1.0273869
1.041431
1.0617921
1.0822867
1.0922908
1.0243896
1.0216852
1.0226726
1.0243314
1.0280537
1.0335202
1.0408373
1.0478836
1.0520367
1.0519226
1.0476522
1.040443
1.0339705
1.0336054
1.0405654
1.0530953
1.0684514
1.0753294
1.0695302
1.052487
1.0313203
1.0197713
1.0231491
1.038727
1.0617142
1.0890747
1.0915516
1.0241688
1.0265631
1.0324394
1.0357843
1.0391537
1.0416743
1.0424941
1.0411598
1.0373377
1.031248
1.0253306
1.0227723
1.0261557
1.0350472
1.0481206
1.0619311
1.0700134
1.06743
1.0550481
1.0390282
1.0296457
1.0295012
1.0352807
1.0478707
1.0635623
1.0736256
1.0556029
1.04488
1.0509712
1.055867
1.0563215
1.0539857
1.0493573
1.0435648
1.0360759
1.028367
1.0240288
1.0243094
1.0295852
1.0382412
1.0485395
1.0564211
1.0575528
1.0513906
1.0379839
1.0241834
1.0212694
1.030903
1.0442786
1.0566859
1.0669213
1.0675745
1.0506286
1.0203204
1.0688427
1.0718795
1.0697499
1.0635014
1.056165
1.0479086
1.0399751
1.0346521
1.0344739
1.0398584
1.0487579
1.0592498
1.0692226
1.0734889
1.0681259
1.0537367
1.0321069
1.0116775
1.0022638
1.0072351
1.0244718
1.047433
1.0687079
1.0771438
1.0652988
1.0355585
1.0081191
1.064998
1.0624398
1.0569641
1.0491205
1.0413719
1.0364241
1.0360116
1.0408006
1.0504105
1.0634784
1.0780331
1.0897643
1.0949427
1.0882764
1.0719135
1.050062
1.0280101
1.0151131
1.010797
1.0160951
1.0282471
1.0446221
1.058693
1.0602839
1.0441656
1.0257442
1.0162052
1.0376318
1.0324086
1.0289685
1.026314
1.0265143
1.0303686
1.0377063
1.0487315
1.0621706
1.0753157
1.0857347
1.0891343
1.0832634
1.0716673
1.0562124
1.0414467
1.0340663
1.0347798
1.0388651
1.0456361
1.0529964
1.0560566
1.0477264
1.0277482
1.0082277
1.0075476
1.0205191
1.0183961
1.0185732
1.0227803
1.0270355
1.0329623
1.0403491
1.04874
1.0566789
1.0617064
1.0631594
1.0604419
1.0545128
1.0446043
1.0338645
1.0256056
1.0254159
1.0327663
1.0455119
1.0617952
1.0762042
1.0841087
1.0777225
1.051294
1.0131293
0.98933774
0.98879663
1.0079686
1.0360607
1.0440598
1.053316
1.0599981
1.0645781
1.0658831
1.0636546
1.0580321
1.0505465
1.0414432
1.0323831
1.0221714
1.0125276
1.0059817
1.005487
1.0119314
1.024095
1.0418821
1.0628731
1.0820666
1.0910835
1.0825944
1.0574069
1.0269157
1.0036405
0.99241504
1.0010571
1.0871354
1.0977756
1.1022147
1.0997756
1.0929328
1.0826516
1.0707474
1.0589763
1.0484406
1.0376385
1.0271138
1.0187819
1.0141933
1.0130583
1.0149329
1.0201915
1.0278664
1.0394638
1.0506992
1.0575863
1.0569736
1.0510648
1.0443669
1.0396772
1.0322312
1.020609
1.0249402
1.1199707
1.1232444
1.1184113
1.1099703
1.0990673
1.0867289
1.074932
1.0642239
1.0545245
1.0470002
1.0428062
1.0429359
1.044975
1.0474912
1.0511574
1.0560447
1.060478
1.0576959
1.0474934
1.0294216
1.0120185
1.0054921
1.0097931
1.0241435
1.0384569
1.0572213
1.0697868
1.0971382
1.0937894
1.0897294
1.0826026
1.0745732
1.0662612
1.0589049
1.0532382
1.0512778
1.0539796
1.060626
1.0703058
1.0818802
1.0936202
1.1035976
1.1070781
1.1027227
1.0856648
1.0591065
1.0284796
1.0000987
0.98785889
0.98666966
0.99511623
1.0208865
1.0675181
1.0990685
1.0585424
1.0512759
1.0462184
1.0393555
1.0326394
1.0267262
1.0235879
1.0250333
1.031844
1.0433167
1.0600998
1.08039
1.102053
1.1225054
1.1346971
1.1348695
1.1224086
1.1014
1.0757873
1.0491048
1.0277159
1.0110758
0.99899715
0.99475475
1.0122348
1.0484551
1.0745638
1.0221765
1.0180455
1.0157136
1.0117771
1.0081483
1.0060179
1.0069397
1.0113882
1.0204359
1.0359404
1.0554603
1.0759387
1.0943451
1.1071931
1.1111037
1.10498
1.0945159
1.0828773
1.0734137
1.0666454
1.0634613
1.0560141
1.0446236
1.0375924
1.0379248
1.0351406
1.0228734
1.0003663
0.99864571
1.0013903
1.0025303
1.004984
1.0093631
1.0166091
1.0273443
1.0399744
1.0540761
1.0651297
1.0706294
1.0711818
1.0654264
1.0567613
1.0471379
1.0393254
1.0348263
1.0374643
1.0496572
1.0663173
1.0844456
1.1026864
1.1075604
1.09069
1.0474525
0.99222646
1.0027285
1.005695
1.0143139
1.0205856
1.027521
1.0354921
1.0441664
1.0521632
1.0582991
1.0615996
1.0618872
1.05718
1.0472612
1.035486
1.0219371
1.0082676
0.99874676
0.99560597
0.99980237
1.0120165
1.0339327
1.0709557
1.118291
1.1501222
1.1345975
1.0743075
1.0078422
1.0437941
1.0538031
1.0637061
1.0709581
1.0748161
1.0745812
1.0704562
1.0640146
1.0568002
1.0495271
1.0410081
1.0330134
1.0265706
1.0187231
1.008766
1.0006086
0.99304222
0.98838419
0.98737353
0.99336754
1.0133293
1.0478149
1.0869908
1.1130912
1.1103876
1.0827715
1.0504023
1.1229335
1.1308253
1.1322975
1.1262485
1.1149422
1.1004429
1.0848124
1.0697498
1.0562723
1.0437171
1.0341952
1.0266704
1.0185434
1.0104793
1.0054446
1.0020827
0.99999442
0.99913263
1.0006364
1.009459
1.0243813
1.0415203
1.0513347
1.0489927
1.0338745
1.0348794
1.0593911
1.1554511
1.156959
1.1507455
1.1412378
1.1295358
1.1145674
1.0990204
1.0840008
1.0716734
1.062494
1.0539335
1.0447314
1.0367754
1.0301081
1.0238716
1.0190654
1.0166441
1.019027
1.0271556
1.0396711
1.0505146
1.0494646
1.0315865
1.0006298
0.98112664
0.98137002
1.0165666
1.1185854
1.114586
1.1111072
1.1051951
1.0989294
1.0930085
1.0879109
1.0843085
1.0818035
1.0802866
1.0791959
1.0779771
1.0753932
1.0708507
1.0664179
1.0622319
1.0604666
1.0639743
1.068747
1.0711927
1.0647739
1.0476608
1.0227668
0.98736211
0.96696956
0.96475126
0.99148836
1.0657853
1.060115
1.0584035
1.0556293
1.0525524
1.049502
1.048114
1.0495913
1.0544053
1.063006
1.073595
1.084186
1.094504
1.1042661
1.1137009
1.1224815
1.1297087
1.1318244
1.1240132
1.1046914
1.0747904
1.0431573
1.0128321
0.99159166
0.98465104
0.98282482
1.0079623
1.0330857
1.0300266
1.0294673
1.0273624
1.0242867
1.0209266
1.0183972
1.0178191
1.0205724
1.0277021
1.0395804
1.0565897
1.0773807
1.103032
1.1313124
1.1584887
1.1766511
1.1791945
1.1629873
1.1313018
1.0917746
1.0520327
1.0218253
1.0108565
1.0138605
1.0277534
1.0482752
1.0203696
1.0200206
1.0218013
1.0204017
1.0173673
1.012955
1.0085726
1.0059779
1.0069686
1.0126769
1.0247958
1.0424155
1.0649483
1.0922857
1.1198486
1.1428876
1.1563588
1.1578913
1.1463865
1.1250864
1.099736
1.0746933
1.0594519
1.0588272
1.0676447
1.0859815
1.0920529
1.0224744
1.0235467
1.0267079
1.025849
1.0230458
1.0191324
1.0160658
1.0157282
1.0195284
1.0285607
1.0425501
1.0588603
1.0747488
1.0868271
1.094121
1.0963868
1.0977215
1.0924356
1.0841551
1.076389
1.0736629
1.0796312
1.0992437
1.1236618
1.1447275
1.1513937
1.1235743
1.0352071
1.0366068
1.0391758
1.0388488
1.0381528
1.0378664
1.0392081
1.0444282
1.0535174
1.0650601
1.076635
1.0845584
1.0864895
1.0804098
1.0681566
1.0525334
1.0382245
1.0271156
1.0196163
1.0163205
1.0291996
1.0621854
1.1075452
1.1646243
1.2110243
1.2090556
1.1452965
1.0569353
1.0599742
1.064546
1.0686115
1.0721663
1.0752559
1.0786877
1.0831017
1.0885316
1.0924463
1.0936116
1.0900012
1.0801491
1.0648959
1.0456402
1.02536
1.0067259
0.99232322
0.98368395
0.98684164
1.0047817
1.0418209
1.0978408
1.163078
1.2118053
1.2125336
1.1516892
1.108006
1.1108427
1.1152672
1.1182053
1.1187791
1.1164366
1.111849
1.1058899
1.0992975
1.0923818
1.084754
1.0745531
1.061424
1.0475773
1.0330933
1.0182977
1.0024356
0.9926419
0.98780239
0.99231149
1.0107711
1.0453895
1.0901765
1.134594
1.1567039
1.1499775
1.1255877
1.1793496
1.1781202
1.1764852
1.1699669
1.1582519
1.1423104
1.1243798
1.107123
1.0919408
1.0785008
1.0668837
1.0566932
1.0476108
1.039492
1.0312386
1.0237778
1.0197668
1.0205354
1.0248881
1.0346873
1.0474698
1.0667928
1.0828218
1.0891481
1.0862752
1.074199
1.0746067
1.2235406
1.2179241
1.210219
1.1968491
1.1778875
1.1542324
1.1291572
1.1052851
1.0850804
1.069198
1.0581477
1.050314
1.0446945
1.0413396
1.0404171
1.0430086
1.0524657
1.0674068
1.0838379
1.0943956
1.0948702
1.0868187
1.0701019
1.0468091
1.0192405
1.0136613
1.0292318
1.2121299
1.2025497
1.1949083
1.1827179
1.1662652
1.146436
1.1251632
1.1057183
1.0900529
1.0779845
1.0695859
1.063312
1.0594534
1.05982
1.0658353
1.0801379
1.1016827
1.1278443
1.1481639
1.1514954
1.133543
1.0989041
1.0569291
1.0142738
0.9759148
0.97402384
1.0052863
1.1582106
1.150809
1.1455913
1.1391054
1.1297504
1.1184817
1.1076334
1.0994601
1.093891
1.0920687
1.091843
1.0927507
1.0951766
1.1015875
1.1145662
1.1352282
1.1605805
1.184157
1.1955765
1.1841534
1.1492372
1.1003544
1.0450808
0.99742744
0.96252505
0.96650641
1.0092794
1.1025285
1.0968458
1.0914518
1.0873374
1.0830143
1.0791628
1.0768484
1.0777864
1.0833679
1.0939236
1.1088948
1.1265594
1.1451574
1.1643953
1.1830341
1.2011114
1.2153098
1.224903
1.2168611
1.1890974
1.1461261
1.0940645
1.0433717
1.0009813
0.97675765
0.99064186
1.0474332
1.0639467
1.0603558
1.0539333
1.0500715
1.0469599
1.04512
1.0457674
1.0517511
1.064571
1.0861592
1.1166611
1.1530774
1.1907686
1.2240877
1.2480303
1.2590958
1.2587589
1.2461937
1.2177307
1.1793448
1.1332346
1.0876818
1.0514371
1.0259349
1.0186838
1.0452638
1.1089116
1.0483869
1.0463193
1.0386372
1.0331182
1.0291776
1.0270838
1.0285064
1.0367889
1.053635
1.0815454
1.1213523
1.1680521
1.2160734
1.2563322
1.2824054
1.2903069
1.2811007
1.2544433
1.2146923
1.1663634
1.1194963
1.0835889
1.0663268
1.0661844
1.0819098
1.1242909
1.1735006
1.0531877
1.0512327
1.0418192
1.035342
1.0312076
1.029922
1.0325092
1.0422865
1.0603541
1.0896423
1.1299873
1.1762051
1.2213751
1.2576934
1.2805665
1.2865948
1.27509
1.2498066
1.2121396
1.1635804
1.1171828
1.0880314
1.0861071
1.1108777
1.1564092
1.2116556
1.2281615
1.0802857
1.0773549
1.0649274
1.0565034
1.0511363
1.0501033
1.0537205
1.0641463
1.0821129
1.1089783
1.1425521
1.1783829
1.2115206
1.2376488
1.2522779
1.2559314
1.2495302
1.2360787
1.2098883
1.1700692
1.1296119
1.1052937
1.1117749
1.1576333
1.2325708
1.2888448
1.2663392
1.1255802
1.1205658
1.105267
1.0943211
1.0883647
1.08673
1.0900217
1.0981151
1.1122653
1.1331274
1.1571158
1.1802487
1.1973462
1.2075872
1.2107851
1.2122436
1.2131576
1.2128566
1.2032906
1.1790831
1.1501995
1.1346771
1.1495872
1.2097873
1.2990429
1.3453587
1.2870486
1.1838581
1.1764858
1.1583472
1.1442733
1.1354687
1.1308596
1.1304201
1.1343618
1.1425553
1.1551612
1.1681864
1.1779807
1.1802688
1.1770262
1.1702398
1.1668864
1.1727706
1.1829586
1.1910413
1.1858505
1.1735849
1.1700253
1.1962887
1.2641786
1.3458797
1.3782114
1.2945598
1.2554552
1.2433746
1.2192923
1.1991762
1.1840611
1.1734801
1.1666137
1.163859
1.1652521
1.1684396
1.1720601
1.1706604
1.1640382
1.1512261
1.1379795
1.1314531
1.1381417
1.1550275
1.1768443
1.1903201
1.195703
1.2071398
1.2438025
1.313364
1.3781548
1.3884427
1.2962555
1.3369078
1.3154222
1.2795305
1.2484915
1.224088
1.2054155
1.1919205
1.183217
1.1779665
1.1748488
1.1714579
1.1637253
1.1501672
1.133071
1.1172099
1.1100644
1.1161622
1.1363493
1.1671262
1.1932755
1.2151125
1.2416945
1.2874652
1.3479261
1.4006309
1.3850286
1.2884685
1.4136963
1.3819712
1.331471
1.287503
1.2529997
1.2264245
1.206777
1.1932986
1.1836439
1.1783542
1.1712753
1.1602895
1.1446102
1.1259691
1.110407
1.1033473
1.1090885
1.1292034
1.1629983
1.1969964
1.2308325
1.2677582
1.3175058
1.3698541
1.4065994
1.3794939
1.2832009
1.4775379
1.4389083
1.3748872
1.3171719
1.2721763
1.2385685
1.2144409
1.1989625
1.1881298
1.1830659
1.1759891
1.1646103
1.1484843
1.1300819
1.1147161
1.1075675
1.1128204
1.1327517
1.166525
1.2010525
1.2380622
1.280208
1.3304038
1.3799499
1.4080144
1.37933
1.2915463
1.5185267
1.4778577
1.4066104
1.3381775
1.2840927
1.244826
1.2185819
1.2037131
1.1957454
1.1930306
1.1884453
1.1786489
1.1629405
1.1439451
1.127248
1.1199709
1.1247525
1.1439893
1.1752881
1.2064383
1.2385335
1.2788889
1.3309125
1.3840055
1.4164465
1.3939038
1.309941
1.5348754
1.4925224
1.4186557
1.346401
1.2888139
1.2478874
1.2227549
1.2105294
1.207198
1.208829
1.2081912
1.2001894
1.1848227
1.1658817
1.1486007
1.1411877
1.145621
1.1627626
1.1871373
1.2126814
1.2377008
1.2746582
1.3308426
1.3938738
1.4399985
1.4239702
1.3368559
1.54362
1.4967014
1.4184537
1.3443325
1.2873326
1.2487806
1.2281894
1.2209804
1.2235946
1.229841
1.232338
1.2256512
1.21107
1.1925794
1.1759108
1.1698606
1.1749334
1.187753
1.2025236
1.2213418
1.2409728
1.2747564
1.3378869
1.4132253
1.4778699
1.4693762
1.3726333
1.5579298
1.50351
1.4168192
1.3397047
1.2832662
1.2475901
1.2316996
1.2300858
1.2386014
1.2507115
1.2583543
1.2555544
1.2438509
1.2269938
1.210495
1.2039366
1.2068172
1.2134237
1.2210164
1.2323322
1.2465114
1.2784444
1.3444871
1.4353814
1.5218942
1.5221015
1.4016007
1.5777747
1.5141764
1.4155368
1.3332439
1.2773993
1.2456995
1.235887
1.2415466
1.25741
1.2766466
1.2900041
1.291646
1.2825578
1.2661234
1.2481815
1.2383602
1.2372543
1.2395499
1.2395915
1.2431495
1.2523667
1.2812016
1.3470153
1.4481922
1.5577673
1.5718665
1.4269013
1.6008464
1.5315237
1.4218509
1.3309427
1.2718926
1.2418242
1.2362784
1.2483542
1.2717493
1.2997978
1.3215934
1.3313588
1.3280407
1.3137451
1.2964146
1.2833424
1.2770285
1.2726503
1.2637896
1.2564403
1.2580999
1.2783159
1.3376678
1.4486458
1.5760163
1.6094441
1.4527431
1.6133834
1.5411418
1.4230082
1.3247227
1.2624709
1.232811
1.2311419
1.2495954
1.2813997
1.3201842
1.3534294
1.3742018
1.3790697
1.3712216
1.3569637
1.3428252
1.3315719
1.3177923
1.2979829
1.2774938
1.2674393
1.2746219
1.3245976
1.4285
1.5669859
1.6250689
1.485921
1.6052577
1.5321659
1.4144978
1.3126408
1.248827
1.2209255
1.2245539
1.2502158
1.2912753
1.340077
1.3846277
1.416338
1.4335998
1.4386835
1.4358787
1.4254136
1.4082135
1.3810225
1.3442971
1.3060325
1.2783827
1.2732975
1.3100509
1.3995365
1.5305149
1.6046864
1.5144597
1.6043362
1.5281573
1.4105255
1.3060057
1.238379
1.2096217
1.2171011
1.2477807
1.2964561
1.3538591
1.4091603
1.4569904
1.4953868
1.5228388
1.5384597
1.5346842
1.5027864
1.4507764
1.3862697
1.3281033
1.291207
1.2824501
1.3078642
1.3738334
1.4692538
1.5480567
1.5214661
1.6158837
1.5293675
1.4028258
1.2969963
1.2316856
1.207129
1.2189384
1.2540409
1.3091139
1.3723931
1.4352918
1.4981418
1.5554411
1.6064544
1.6387003
1.6358976
1.5880288
1.5090507
1.4220642
1.3551602
1.3193289
1.3118862
1.3235579
1.3495187
1.3921265
1.4534327
1.4900116
1.6673333
1.5521641
1.4038944
1.2918313
1.2317313
1.2184304
1.2391819
1.2832387
1.3450518
1.4110962
1.4748901
1.5373794
1.5983015
1.6526456
1.6870331
1.6804085
1.6279689
1.5496506
1.4716722
1.417246
1.3846485
1.3640266
1.3408768
1.3133027
1.3057558
1.3499585
1.436381
1.771638
1.612023
1.427618
1.3064132
1.2534789
1.2545346
1.2876082
1.3456402
1.4117487
1.4712055
1.5215818
1.5657184
1.6058527
1.6407905
1.660326
1.6553923
1.6293606
1.5913143
1.5531006
1.5198403
1.4839882
1.4207131
1.3410856
1.2675694