/*--------------------------------*- C++ -*----------------------------------*\
| =========                 |                                                 |
| \\      /  F ield         | OpenFOAM: The Open Source CFD Toolbox           |
|  \\    /   O peration     | Version:  2406                                  |
|   \\  /    A nd           | Website:  www.openfoam.com                      |
|    \\/     M anipulation  |                                                 |
\*---------------------------------------------------------------------------*/
FoamFile
{
    version     2.0;
    format      ascii;
    arch        "LSB;label=32;scalar=64";
    class       volVectorField;
    location    "7";
    object      U_0;
}
// * * * * * * * * * * * * * * * * * * * * * * * * * * * * * * * * * * * * * //

dimensions      [0 1 -1 0 0 0 0];

internalField   nonuniform List<vector> 
62344
(
(0.10133155 0.0011876377 -1.422748e-21)
(0.098155612 -0.00046260959 -7.3957578e-22)
(0.10662917 -0.0018974009 -1.5455974e-21)
(0.10566652 -0.00095209035 7.9656978e-22)
(0.10254302 0.001530115 0)
(0.10110648 0.0038584133 3.4941113e-21)
(0.10379128 0.0039617611 -3.6360569e-21)
(0.10873241 0.0041887105 1.8925653e-21)
(0.11119057 0.0057564903 0)
(0.11035476 0.0058550699 0)
(0.10943526 0.0061473271 8.5106877e-21)
(0.10920899 0.0075164786 -1.8272886e-20)
(0.10878482 0.0093177301 5.5839831e-22)
(0.11035156 0.0087832483 1.9743561e-20)
(0.11436477 0.0083089328 -9.9835449e-21)
(0.11929723 0.0088155819 9.7309011e-21)
(0.12348249 0.0086185418 -1.0798842e-20)
(0.12639569 0.0048185549 0)
(0.12678467 0.0055766318 0)
(0.12698415 0.0050680517 -7.5592366e-22)
(0.12888505 0.0027754235 -3.9297652e-22)
(0.12807581 0.0034388454 4.094886e-22)
(0.12942176 0.0033311075 8.5647831e-22)
(0.13244621 0.0027654392 -2.8619741e-20)
(0.12989157 0.00656327 2.9563583e-20)
(0.12993608 0.0059412326 0)
(0.13250537 0.0029253702 0)
(0.13236692 0.0042999395 -2.5981275e-22)
(0.13948555 -0.0021641845 -3.4311489e-20)
(0.14976255 -0.012439628 3.6683469e-20)
(0.15024806 -0.013517438 3.76909e-20)
(0.14427639 -0.010659126 -3.8669095e-20)
(0.13923633 -0.0087432809 -3.1643998e-22)
(0.14638751 -0.015581721 4.1393199e-20)
(0.1592633 -0.029004039 -4.3799725e-20)
(0.15660274 -0.031451331 -3.5179553e-22)
(0.14060495 -0.021650935 -4.8179307e-20)
(0.12714336 -0.012611359 9.9221827e-20)
(0.12945484 -0.016373592 -1.0181193e-19)
(0.14592512 -0.032675892 1.6016143e-21)
(0.16246514 -0.054597319 7.8134332e-22)
(0.16682713 -0.067219294 1.1363549e-19)
(0.1610236 -0.064736056 -5.8112965e-20)
(0.15314041 -0.054684215 0)
(0.14384242 -0.044466343 -6.6022211e-20)
(0.13357636 -0.039154197 1.3575019e-19)
(0.12594777 -0.040100442 2.6082144e-22)
(0.12868901 -0.049329628 -1.4541603e-19)
(0.14469615 -0.066830862 7.6242142e-20)
(0.16728715 -0.088013271 0)
(0.18489151 -0.10576557 0)
(0.19251962 -0.11473191 8.2714842e-20)
(0.18806663 -0.1149056 -8.3181103e-20)
(0.17745565 -0.10742278 -1.7128471e-22)
(0.15580038 -0.096730395 -9.708795e-20)
(0.10148815 0.00032321524 -7.5074021e-22)
(0.098546857 -0.00059263535 7.8152877e-22)
(0.10696615 -0.0011013458 2.443641e-21)
(0.10587416 -0.0011839914 -2.5358793e-21)
(0.1024212 -0.00071307898 0)
(0.10103332 0.0013288769 3.6878798e-21)
(0.10380985 0.0017251788 -4.8005514e-21)
(0.10825465 0.0024918592 -4.9921878e-21)
(0.11076084 0.0036215067 5.2022376e-21)
(0.11060809 0.0042669374 0)
(0.10961125 0.0027430299 0)
(0.10844506 0.0042912504 5.8332649e-22)
(0.10807437 0.0067170519 -6.0915145e-22)
(0.10999586 0.0070891552 8.8623369e-21)
(0.1140655 0.0073582846 -1.0535974e-20)
(0.11826355 0.0060753144 0)
(0.12272767 0.0069066431 0)
(0.12629313 0.0056067965 0)
(0.12668183 0.0061102393 1.239182e-20)
(0.12735848 0.0050229806 4.2934431e-22)
(0.1289971 0.0023482425 6.124299e-23)
(0.12743529 0.0032258783 -4.1950472e-20)
(0.12860971 0.0031760536 2.8467773e-20)
(0.13135677 0.0035880116 0)
(0.12935706 0.0067403957 3.1192775e-20)
(0.13023926 0.0061694984 -6.2780694e-23)
(0.13214607 0.0057653356 -6.7717766e-20)
(0.13220184 0.0071738474 3.5253907e-20)
(0.13987231 0.00045222676 -2.8537095e-22)
(0.14953489 -0.0054669408 -3.8432729e-20)
(0.1504656 -0.0055368945 3.9287297e-20)
(0.14539102 -0.0052787169 3.2014658e-22)
(0.14023257 -0.0040391993 -4.2244424e-20)
(0.14716563 -0.00921181 8.8306805e-20)
(0.16023923 -0.017755052 -4.6648997e-20)
(0.15856638 -0.018591455 3.7159274e-22)
(0.14373931 -0.014319339 0)
(0.13136211 -0.013351577 0)
(0.13323749 -0.021388946 2.1246666e-22)
(0.14981172 -0.034792452 5.537129e-20)
(0.16738076 -0.048267266 -1.1702989e-19)
(0.16937841 -0.053086264 5.9846425e-20)
(0.15863469 -0.047157455 6.2441658e-20)
(0.14979864 -0.038439755 -1.3172441e-19)
(0.14631471 -0.034204153 6.8800683e-20)
(0.14331091 -0.036781084 0)
(0.13805028 -0.04425931 0)
(0.13777368 -0.056689922 0)
(0.14813103 -0.073073471 1.5538925e-22)
(0.16707595 -0.086568917 -1.6246335e-22)
(0.18492999 -0.093797258 0)
(0.19291767 -0.094296259 -2.2841279e-24)
(0.18976346 -0.091467489 -1.7578974e-22)
(0.18117503 -0.08391379 2.7358845e-22)
(0.16416211 -0.080414246 -9.8915346e-23)
(0.10144662 -0.00034373306 7.9244176e-22)
(0.098137565 -9.3003676e-06 -8.2528931e-22)
(0.10663293 0.00034445516 -8.5671236e-22)
(0.10582468 0.00015910409 8.9533742e-22)
(0.102124 6.0256691e-05 -9.3571188e-22)
(0.10053404 0.0015302326 9.7453458e-22)
(0.10330351 0.0029539292 2.0266686e-21)
(0.10783941 0.0042284146 0)
(0.1103703 0.0038323487 3.2895281e-21)
(0.11058811 0.0048388763 -5.1263011e-21)
(0.10955744 0.0048290852 0)
(0.10830462 0.0057320029 -6.1823127e-22)
(0.10791786 0.0074355703 -4.7208274e-25)
(0.10972049 0.007964248 -1.3065409e-24)
(0.11403306 0.0093221729 1.1108673e-20)
(0.11848284 0.0079598672 -1.0855758e-20)
(0.12269941 0.0069392134 0)
(0.12645627 0.0057268639 0)
(0.1268774 0.005528999 0)
(0.12818785 0.0046045347 0)
(0.12960455 0.0023705611 0)
(0.12772577 0.0034547361 1.5088777e-20)
(0.12867983 0.0027731873 -1.5256982e-20)
(0.13087408 0.0028238505 -4.9621204e-22)
(0.12891772 0.0051893516 5.1461524e-22)
(0.12969968 0.0043450493 0)
(0.13124774 0.0052630115 0)
(0.13291381 0.0060305988 2.9077157e-22)
(0.14142062 -0.0022678509 3.0183564e-22)
(0.14994635 -0.0079015049 0)
(0.1511688 -0.0077834584 0)
(0.14618601 -0.0071038401 -4.3925829e-20)
(0.14073648 -0.0039231215 8.9485638e-20)
(0.14816065 -0.0095468934 -4.7092205e-20)
(0.16096353 -0.019128562 -1.9030906e-22)
(0.16001765 -0.018890475 5.0862552e-20)
(0.14739322 -0.014106343 -5.2127922e-20)
(0.13638373 -0.013149158 0)
(0.13723938 -0.021142741 -9.7951598e-25)
(0.15162807 -0.034082606 0)
(0.1685098 -0.044804102 6.1623378e-20)
(0.16922031 -0.044967488 -6.3290122e-20)
(0.15700263 -0.037617999 -6.6656469e-20)
(0.1468052 -0.030602881 6.9116353e-20)
(0.14647511 -0.027574333 -8.7666773e-25)
(0.15037876 -0.030506089 0)
(0.15308628 -0.040917318 0)
(0.15456146 -0.058298533 -1.5712286e-22)
(0.15714346 -0.07621256 -8.4314022e-20)
(0.16416314 -0.0862664 8.8261526e-20)
(0.17469654 -0.086531151 0)
(0.1816986 -0.078365986 9.4901451e-20)
(0.18358439 -0.070223106 -9.7833797e-20)
(0.18035079 -0.060082453 1.0354039e-19)
(0.16956202 -0.057827243 -1.0587866e-19)
(0.1016347 -0.00048094235 -4.1676238e-22)
(0.098052092 -0.00014180782 -1.3060208e-21)
(0.1067308 0.00023601388 2.7192371e-21)
(0.10614622 -0.00022479045 -1.8803697e-21)
(0.10232415 -0.00075937171 -2.9785522e-21)
(0.10034334 -6.0031272e-05 3.0667681e-21)
(0.10285273 0.0015753356 -5.3360216e-21)
(0.10770443 0.0022682751 8.9134294e-21)
(0.11038359 0.0016499977 -5.2188282e-21)
(0.11049761 0.0023526142 1.2044601e-21)
(0.10957496 0.0037113898 6.2680662e-22)
(0.10795968 0.0040826249 1.0444296e-20)
(0.10744109 0.0048278831 -9.4674242e-21)
(0.10895496 0.006068512 1.1953437e-20)
(0.11313905 0.006971064 -3.6359837e-23)
(0.11799116 0.0070151757 -2.5227916e-20)
(0.1224565 0.006576597 1.2309573e-20)
(0.12604445 0.0057342043 -4.1258545e-22)
(0.1267766 0.0048497198 1.3787702e-20)
(0.1283779 0.0040666838 -1.3880801e-20)
(0.12966372 0.0030108924 0)
(0.12752096 0.0048039819 0)
(0.12843186 0.0039519346 -1.5593185e-20)
(0.13042438 0.0042752369 1.7279919e-20)
(0.12903131 0.0062909537 1.6837148e-20)
(0.12971298 0.0048323472 -1.8067239e-20)
(0.13052319 0.0066931894 -1.8915416e-20)
(0.13376282 0.0067619075 1.9361811e-20)
(0.14292111 -0.0022086887 0)
(0.15011819 -0.0070870144 0)
(0.15139531 -0.0064130093 0)
(0.14632526 -0.0037732777 0)
(0.14122842 -0.00015020123 0)
(0.15041021 -0.0089031485 0)
(0.16249106 -0.019429886 2.0123396e-22)
(0.16041948 -0.017985337 -5.3628168e-20)
(0.14939563 -0.011988164 5.5058573e-20)
(0.14058151 -0.010635226 2.2638168e-22)
(0.14249443 -0.018872928 -4.7032087e-22)
(0.15406781 -0.033043446 6.2227304e-20)
(0.16747425 -0.041807407 -6.5779986e-20)
(0.16805018 -0.038825677 6.7265992e-20)
(0.1568752 -0.032157368 -6.9146529e-20)
(0.14507717 -0.027822771 7.421056e-20)
(0.14349729 -0.025291444 -1.5108522e-19)
(0.15323755 -0.028016595 1.3279582e-21)
(0.16629523 -0.04058358 1.596155e-21)
(0.17522855 -0.059377999 7.8879628e-22)
(0.17421247 -0.077124942 -5.5980923e-22)
(0.16712641 -0.084467068 -7.7523536e-22)
(0.16243798 -0.080987285 9.3970486e-20)
(0.16259118 -0.069684532 0)
(0.16705623 -0.057390028 1.0441579e-19)
(0.173078 -0.048578163 -1.1081482e-22)
(0.17400275 -0.044683148 -1.0968298e-19)
(0.10161674 0.00015116804 8.8207046e-22)
(0.097792625 0.00024255283 9.1812809e-22)
(0.10658391 0.00019349406 9.5423157e-22)
(0.10619139 9.6316711e-05 0)
(0.10225796 2.2152353e-05 0)
(0.10000837 0.001113849 0)
(0.10242222 0.0026261132 -5.6437616e-22)
(0.10763007 0.0025409681 4.693028e-21)
(0.11051363 0.0026240849 -4.2744903e-21)
(0.11037132 0.0031016635 -6.331315e-22)
(0.1095229 0.0047756109 -5.2887805e-21)
(0.10820401 0.0056642987 5.5001817e-21)
(0.10727378 0.0058035942 -1.2148763e-20)
(0.10853872 0.0076779454 1.1888155e-20)
(0.11284409 0.0073287503 0)
(0.11759088 0.0068291813 0)
(0.12217251 0.0066738348 8.3819056e-22)
(0.12631353 0.0064512351 4.3582441e-22)
(0.12722553 0.0049146337 -1.4560654e-20)
(0.1284224 0.0033563607 1.4632544e-20)
(0.12959157 0.0024783624 0)
(0.12766473 0.0044293446 0)
(0.12843113 0.0029604346 -5.3078661e-22)
(0.12986882 0.0035911496 0)
(0.12893726 0.0058071435 -1.8060301e-20)
(0.12926087 0.0045094367 1.9064118e-20)
(0.12947801 0.007081041 0)
(0.13460448 0.0060943175 0)
(0.14459459 -0.0032672759 0)
(0.1501109 -0.0077440272 0)
(0.1505124 -0.0060562316 0)
(0.14559352 -0.0004709228 0)
(0.1424664 0.0022175319 -1.9658252e-22)
(0.1532141 -0.009751451 -2.0271761e-22)
(0.1637773 -0.019194429 0)
(0.16022035 -0.016427728 -2.1784861e-22)
(0.15027382 -0.010192219 2.957546e-20)
(0.14395145 -0.0084849579 -3.0668733e-20)
(0.14843004 -0.016245131 2.4840635e-22)
(0.1582916 -0.030595049 2.5819912e-22)
(0.16590385 -0.038038365 0)
(0.16561836 -0.032270623 2.735749e-22)
(0.15799168 -0.026547463 -5.8973456e-26)
(0.14663855 -0.023614178 7.8811197e-20)
(0.14104019 -0.024309556 -1.7930059e-22)
(0.15153996 -0.028719096 -8.3528641e-20)
(0.17159826 -0.040698338 -1.696495e-22)
(0.18936909 -0.056690055 0)
(0.19141301 -0.068894709 -1.8139683e-22)
(0.17784819 -0.073228713 -1.8956655e-22)
(0.15957964 -0.070875225 1.031728e-19)
(0.1470482 -0.060625929 -1.0583165e-19)
(0.14563548 -0.050187433 1.0684009e-22)
(0.15610252 -0.040534932 3.2973437e-24)
(0.16866858 -0.039231148 -1.1548762e-22)
(0.10162718 0.00089169869 0)
(0.097817262 0.00022064463 0)
(0.10663964 -0.00071633591 -1.0064432e-21)
(0.10626026 -0.00083410943 0)
(0.1022682 -0.00043738629 2.2058722e-21)
(0.09994677 0.00035113577 -1.7046944e-21)
(0.10250193 0.0012735802 5.9546741e-22)
(0.10793782 0.00095045913 0)
(0.11090902 0.00149464 6.4324529e-22)
(0.11056131 0.0021523077 0)
(0.10955062 0.0029413485 -6.9728739e-22)
(0.10823218 0.0046809794 -5.0891238e-21)
(0.10696519 0.0053474817 1.2063544e-20)
(0.10814658 0.0071374745 -6.2770836e-21)
(0.11250597 0.0065276034 0)
(0.11718685 0.0062341554 0)
(0.12160382 0.0053227437 3.1477712e-25)
(0.12626117 0.0059072341 -4.5998588e-22)
(0.12777072 0.0055184163 0)
(0.12887445 0.0033573239 0)
(0.12940118 0.0023421929 5.1678356e-22)
(0.12751497 0.0042694512 1.6628707e-20)
(0.12836468 0.0024182859 -3.6143882e-20)
(0.12914647 0.0033125998 1.8934586e-20)
(0.1287378 0.0057921931 1.9046956e-20)
(0.12909329 0.0051118631 -2.0115819e-20)
(0.12889954 0.0073833416 -2.0863834e-20)
(0.13543716 0.0049091972 2.1939415e-20)
(0.14631996 -0.0040442846 -2.2731831e-20)
(0.15023597 -0.0082079168 4.7014423e-20)
(0.14876289 -0.0059028593 -2.4769103e-20)
(0.1441094 0.0023109068 2.0110446e-22)
(0.1444946 0.0027933099 4.1445512e-22)
(0.15642083 -0.010985352 4.2821195e-22)
(0.16460775 -0.018309519 0)
(0.1596805 -0.014214279 -2.9639283e-20)
(0.1504573 -0.0081896037 6.2413712e-20)
(0.1458559 -0.0072931537 -3.2127004e-20)
(0.15303247 -0.01541787 -2.6078111e-22)
(0.16338283 -0.027430764 -2.7375402e-22)
(0.16508982 -0.033931252 0)
(0.16228385 -0.028256939 -3.7435334e-20)
(0.15868167 -0.022490127 -2.4330933e-22)
(0.15127907 -0.020001187 4.0750553e-20)
(0.14403731 -0.023329982 0)
(0.15010493 -0.03267221 0)
(0.17037998 -0.044362011 -4.4875241e-20)
(0.19223678 -0.055465676 4.7990496e-20)
(0.1992689 -0.059840662 -6.2597575e-26)
(0.18901833 -0.058358215 1.0223197e-19)
(0.1673035 -0.054787373 -2.1604298e-19)
(0.14661752 -0.04836466 2.2554309e-19)
(0.13448977 -0.043931939 -1.1702602e-19)
(0.1392474 -0.039745852 -1.1570895e-22)
(0.15412861 -0.04072667 1.219044e-22)
(0.10149233 0.0014175459 4.9218988e-22)
(0.09787019 0.0005227017 -5.0908931e-22)
(0.10664637 -0.0010955362 -2.1258482e-21)
(0.1062397 -0.0011452857 2.2088416e-21)
(0.10219486 8.3716575e-05 2.9037402e-21)
(0.099851903 0.00055092436 -6.0229801e-21)
(0.10231052 0.0012425224 1.8828288e-21)
(0.10766128 0.0010010778 -6.5392332e-22)
(0.11063083 0.0018090713 -6.798819e-22)
(0.11042762 0.0025686222 -5.6628038e-21)
(0.10940694 0.0027921137 5.8892648e-21)
(0.1080125 0.0048190367 0)
(0.10670503 0.0059845041 0)
(0.10787226 0.0071595421 -4.1464976e-22)
(0.11209123 0.0064290801 -4.3110998e-22)
(0.11707233 0.0069881535 7.1723971e-21)
(0.12140016 0.0053998739 -2.2814383e-20)
(0.12581384 0.0053201644 1.6509072e-20)
(0.12792936 0.0063095449 -1.6173965e-20)
(0.12944585 0.0040671833 3.3646779e-20)
(0.129585 0.0024697303 -4.3845474e-22)
(0.12773056 0.0036051146 -3.5845183e-20)
(0.12838628 0.0016124648 1.9406332e-20)
(0.12836492 0.0029113912 1.9737981e-20)
(0.12824472 0.0054893294 -2.0459228e-20)
(0.12881245 0.0056207917 0)
(0.12852507 0.0075810686 -2.1976935e-20)
(0.13618796 0.0037755246 2.3151866e-20)
(0.14763946 -0.0042060768 3.7439269e-22)
(0.15052344 -0.0077279664 3.867554e-22)
(0.14657904 -0.0052169519 6.0446534e-22)
(0.14206707 0.0047480139 -2.1149044e-22)
(0.14683715 0.002576502 -4.3657328e-22)
(0.15947249 -0.011204285 -2.2601693e-22)
(0.16491804 -0.016474796 0)
(0.15908668 -0.010935412 0)
(0.15087376 -0.0048325512 -3.3089009e-20)
(0.1481005 -0.0060738761 6.7961207e-20)
(0.15603052 -0.015558473 -3.4866291e-20)
(0.16732585 -0.025058819 -1.4377587e-22)
(0.16658395 -0.029533134 0)
(0.15940189 -0.025963225 0)
(0.15629804 -0.01978556 -4.1931952e-20)
(0.15436885 -0.01566156 4.2657911e-20)
(0.1520313 -0.020367469 -4.4484476e-20)
(0.15505612 -0.03330408 4.6813605e-20)
(0.16872227 -0.047583267 1.8823734e-22)
(0.18625808 -0.054542991 -4.9851444e-20)
(0.19574534 -0.051959575 5.2073279e-20)
(0.19140771 -0.043283924 0)
(0.17723665 -0.036557642 -4.7427284e-25)
(0.15722711 -0.032635113 -6.0353132e-20)
(0.14045189 -0.03444905 1.2406231e-19)
(0.1348341 -0.037703801 -1.2657728e-19)
(0.14358276 -0.044878921 6.5630686e-20)
(0.10136201 0.0015163371 0)
(0.098063654 0.00059076879 1.0773544e-21)
(0.10681427 -0.0014024196 1.4417872e-24)
(0.10616551 -0.0017228382 -1.1662733e-21)
(0.10214553 -0.00016703926 4.3853119e-25)
(0.099754809 0.00019241634 6.3614509e-22)
(0.1021641 0.00057295129 -1.3175472e-21)
(0.10746857 0.00026304259 3.454962e-21)
(0.11032771 0.00090993648 0)
(0.11039401 0.0016696917 0)
(0.10934954 0.0019967909 -5.4347568e-21)
(0.10769902 0.0036574961 6.4558505e-21)
(0.10644705 0.0051847275 0)
(0.10759933 0.0063854473 4.3749051e-22)
(0.11164263 0.0056071579 4.5423231e-22)
(0.11671741 0.0065184071 0)
(0.12130506 0.0053306019 -7.8555128e-21)
(0.1253549 0.0044093751 -5.1405762e-22)
(0.12802681 0.0057241453 9.0401386e-21)
(0.13011717 0.0040626371 0)
(0.12971555 0.0024157418 1.8468814e-20)
(0.12800665 0.0030221553 -3.808885e-20)
(0.12842293 0.0012363773 1.9530471e-20)
(0.12759784 0.0027984146 -2.1136278e-20)
(0.12757192 0.0051424439 2.2038836e-20)
(0.12835604 0.0056180073 0)
(0.12833461 0.0069116999 0)
(0.13665927 0.00201801 0)
(0.14847297 -0.004669969 -3.9518769e-22)
(0.15090575 -0.0074796391 -4.0810094e-22)
(0.14453485 -0.0045563639 -2.7628303e-20)
(0.14004802 0.0052700514 2.8266875e-20)
(0.14860894 0.001313296 2.3052852e-22)
(0.16196646 -0.011245393 0)
(0.16452657 -0.015329534 0)
(0.15747751 -0.0082110141 2.5821487e-22)
(0.151174 -0.0018964538 0)
(0.15110401 -0.0048091523 -2.8021137e-22)
(0.1587637 -0.015369908 -3.6982199e-20)
(0.16934322 -0.024945196 3.9358853e-20)
(0.16870366 -0.025810971 4.0092121e-20)
(0.15891241 -0.023718395 -4.1214836e-20)
(0.15279805 -0.018466001 4.4190269e-20)
(0.1536743 -0.012927432 -4.512542e-20)
(0.1591304 -0.016561642 -4.6647086e-20)
(0.1650231 -0.030570913 2.1624439e-22)
(0.17166675 -0.047170433 1.0155e-19)
(0.17904027 -0.052612642 -5.2792218e-20)
(0.18385567 -0.046158904 0)
(0.18442243 -0.033664616 -5.7739101e-20)
(0.17851888 -0.023283714 1.1977921e-19)
(0.16842343 -0.018545403 -6.207381e-20)
(0.15594066 -0.023132032 0)
(0.14579696 -0.030958444 -1.3137216e-22)
(0.14415507 -0.043717916 6.9919397e-20)
(0.10119639 0.0012730526 0)
(0.098195527 0.00076918261 0)
(0.1069804 -0.0010265528 0)
(0.10610579 -0.0016088197 1.8605223e-21)
(0.10201454 -0.00021357263 -3.203372e-21)
(0.099703583 0.0005777204 2.6843127e-21)
(0.10202445 0.00049843471 -3.4899632e-21)
(0.10729218 0.00031850181 -7.2731864e-22)
(0.11012303 0.000967617 -7.5662826e-22)
(0.11026095 0.001804503 -7.087285e-21)
(0.10916036 0.0027244369 5.7302452e-21)
(0.10750823 0.0035508092 0)
(0.10623874 0.0047542304 7.0767555e-21)
(0.10738813 0.0060746454 -1.3839772e-23)
(0.11124462 0.0058559026 -1.5820823e-20)
(0.11625387 0.0063384444 7.984042e-21)
(0.12107073 0.0056686084 -5.1752939e-22)
(0.12490027 0.0042787492 -5.3886378e-22)
(0.12771323 0.0051874491 3.8549763e-25)
(0.13044435 0.0041792055 2.9170154e-22)
(0.13001552 0.0028415088 3.0276925e-22)
(0.12844558 0.0029243455 3.1433141e-22)
(0.12864846 0.0012917002 0)
(0.12712192 0.003057386 0)
(0.12708324 0.0050725178 -2.327464e-20)
(0.12806097 0.0059884299 2.4221574e-20)
(0.12849703 0.0064683419 0)
(0.13699099 0.00092097051 0)
(0.14882366 -0.0043740145 0)
(0.15123639 -0.0064984247 2.1490094e-22)
(0.14302067 -0.0025100851 0)
(0.13835794 0.0051063407 2.9725082e-20)
(0.14957961 0.00030561062 -3.1302788e-20)
(0.16402155 -0.01063664 2.5216904e-22)
(0.16449054 -0.013904909 -3.3882636e-20)
(0.1554761 -0.006434874 3.4225822e-20)
(0.15084316 -0.000114412 0)
(0.15421409 -0.0028542851 3.7182383e-20)
(0.16268046 -0.014108921 -3.952304e-20)
(0.17078186 -0.025221731 1.5970338e-22)
(0.17017705 -0.023843203 4.2522103e-20)
(0.16099624 -0.02096799 -4.3506213e-20)
(0.15094824 -0.017046148 0)
(0.15020927 -0.012157546 4.7309181e-20)
(0.16137036 -0.013876648 -4.9657038e-20)
(0.17495592 -0.026004562 4.0543924e-22)
(0.18064121 -0.041444043 0)
(0.17765814 -0.048259984 5.4721096e-20)
(0.17360179 -0.042999853 -5.6833954e-20)
(0.1718508 -0.030849455 6.0967077e-20)
(0.17177506 -0.019005677 -6.3223233e-20)
(0.17110719 -0.012021672 -6.6047716e-20)
(0.16988411 -0.014971585 1.3404492e-19)
(0.16454779 -0.024167845 8.7956992e-22)
(0.1580768 -0.037986979 6.3438323e-22)
(0.10108742 0.00092480612 -5.7466602e-22)
(0.098260827 0.00079858221 -5.9821325e-22)
(0.10714761 -0.00052493124 -1.2493315e-21)
(0.1061639 -0.001343296 -1.4977976e-23)
(0.10188217 -0.00067313112 1.3499405e-21)
(0.099648337 0.00048002556 2.8292436e-21)
(0.10186977 0.00016924373 -2.9432842e-21)
(0.10703459 0.0002496924 7.661583e-22)
(0.10996864 0.00086989446 3.9865093e-21)
(0.11013492 0.001670807 -9.1305863e-21)
(0.1089987 0.0028141078 4.2009412e-22)
(0.1073825 0.0030232212 7.1823263e-21)
(0.10603685 0.0039522785 4.6633395e-22)
(0.1071383 0.0049780334 0)
(0.11090786 0.0057965583 5.0528509e-22)
(0.11588128 0.0058550588 -5.2536762e-22)
(0.1208694 0.0053209792 2.4034853e-25)
(0.12459 0.0039158969 1.1357933e-21)
(0.12732381 0.0041784488 -5.9138546e-22)
(0.13052215 0.0036023719 9.5622241e-21)
(0.13030812 0.0027887506 -2.0755447e-20)
(0.12887643 0.0025031413 1.0590072e-20)
(0.12878622 0.0011819153 0)
(0.12670804 0.002981644 -1.1559016e-20)
(0.12658066 0.0045903673 1.1690835e-20)
(0.12775249 0.0060413927 -3.9267672e-22)
(0.12888776 0.0057893911 -4.0652469e-22)
(0.13703437 0.00015755181 0)
(0.14872378 -0.0041947999 0)
(0.15120532 -0.0054693365 -2.2660676e-22)
(0.14199644 -0.00047587426 0)
(0.13716596 0.0042514444 0)
(0.14975871 -0.00104725 -3.225542e-20)
(0.16537499 -0.010401196 8.1346752e-23)
(0.16467488 -0.012042435 7.0839419e-20)
(0.15374981 -0.0055414304 -3.661366e-20)
(0.14948645 0.00069007678 0)
(0.15616204 -0.00066077804 1.5518874e-22)
(0.16736095 -0.011928382 -1.6158217e-22)
(0.17325204 -0.024636748 -1.6857325e-22)
(0.17016128 -0.02406538 -4.4222324e-20)
(0.16267269 -0.01897056 4.583882e-20)
(0.1510712 -0.014581313 0)
(0.14691676 -0.011778998 0)
(0.1592416 -0.013888454 -2.0378381e-22)
(0.1789418 -0.023306006 -2.1287629e-22)
(0.18955362 -0.034337782 -5.6902505e-20)
(0.18379786 -0.040516019 5.809998e-20)
(0.17150831 -0.038591241 6.1461886e-20)
(0.16201727 -0.030203155 -6.3721892e-20)
(0.16081327 -0.019699364 -1.3197737e-22)
(0.16559068 -0.011798322 6.9322819e-20)
(0.17343933 -0.012182463 -7.2281842e-20)
(0.17898333 -0.017928455 0)
(0.17603529 -0.029845326 -7.8299558e-20)
(0.10098766 0.00063141866 9.08809e-22)
(0.098238202 0.00075803056 -3.1437431e-22)
(0.10725224 0.00013968105 6.5453579e-22)
(0.10630008 -0.0006764047 6.8418909e-22)
(0.10186406 -0.0010075731 2.8768729e-21)
(0.099546732 3.9563029e-05 -5.2035821e-21)
(0.10175835 -0.00011830645 3.101853e-21)
(0.10671215 0.00052185629 0)
(0.10979961 0.0012923262 3.7821329e-21)
(0.11002071 0.0020967472 -3.0602325e-21)
(0.1089867 0.0030432418 -9.096412e-22)
(0.10746753 0.0028498214 0)
(0.1058588 0.0038068363 -9.8308718e-22)
(0.10677515 0.0042750969 5.1134117e-22)
(0.11042083 0.0057234275 -5.3289352e-22)
(0.11547405 0.0055825466 -1.5221497e-25)
(0.1207974 0.0054298936 -8.6266103e-21)
(0.12457106 0.0041609895 1.85834e-20)
(0.12703578 0.0037828961 -9.9546333e-21)
(0.13029986 0.003342768 0)
(0.13051118 0.0030267124 -3.3602025e-22)
(0.12922115 0.0024779111 0)
(0.1289161 0.0014447379 -3.6467196e-22)
(0.12640128 0.0030387852 0)
(0.1261026 0.0042318755 -2.7191847e-25)
(0.12747667 0.0063884647 4.1414585e-22)
(0.12935389 0.0056336527 4.3006771e-22)
(0.13720333 6.9943637e-05 1.4141694e-20)
(0.1483679 -0.0038797396 -1.2920537e-22)
(0.15087225 -0.0038465154 -1.5297782e-20)
(0.14163681 0.0014584635 3.2182278e-20)
(0.13666375 0.0034863646 -6.6108864e-20)
(0.14941358 -0.0025584974 3.5093296e-20)
(0.16566245 -0.010810608 -2.801159e-22)
(0.16500773 -0.010114156 -2.8912305e-22)
(0.15267738 -0.004819547 3.0225782e-22)
(0.14742508 0.00074948019 0)
(0.15620113 0.00050432671 1.6362308e-22)
(0.17126031 -0.010044227 1.7115002e-22)
(0.17741617 -0.022035001 0)
(0.17083728 -0.024241191 -3.6825426e-22)
(0.16285134 -0.018630224 0)
(0.15231753 -0.012270508 2.0172083e-22)
(0.14633084 -0.010421549 -5.2772213e-20)
(0.15607139 -0.015060709 5.5412357e-20)
(0.1772265 -0.022879372 0)
(0.19301386 -0.028933607 -1.1602672e-22)
(0.19104567 -0.031116731 0)
(0.17627192 -0.029948746 6.4479839e-20)
(0.16133108 -0.026739943 -6.6692845e-20)
(0.15318324 -0.021681708 1.3724643e-22)
(0.15700967 -0.015807048 0)
(0.1683483 -0.01499644 -7.4519884e-23)
(0.18160739 -0.017072125 0)
(0.18805475 -0.02277687 8.0066465e-23)
(0.10092996 0.00038610939 -3.1955558e-22)
(0.098173697 0.00056953822 9.9496736e-22)
(0.1073267 0.00063646333 -6.8948808e-22)
(0.10648474 -0.00013635351 1.4508633e-21)
(0.10191994 -0.0014188756 -2.2518011e-21)
(0.099446665 -0.0008095734 -9.6540602e-26)
(0.10162835 -0.00041807745 -3.2637545e-21)
(0.10650369 0.00052112934 3.4106044e-21)
(0.10960903 0.001228917 3.0997124e-21)
(0.10982673 0.0021313884 -7.8335311e-21)
(0.10889907 0.0026441124 4.7641922e-22)
(0.10741471 0.0025583084 3.9895319e-21)
(0.10577155 0.0037963217 -7.7678213e-21)
(0.10640658 0.0037768736 8.066992e-21)
(0.10988121 0.0052613052 5.6030044e-22)
(0.11506985 0.0049116535 -8.7346343e-21)
(0.12065854 0.0052279998 9.717846e-21)
(0.12475654 0.0044749341 0)
(0.1269673 0.0035416757 1.0828984e-20)
(0.13013012 0.0029010471 -2.1901108e-20)
(0.1305516 0.0028478312 -6.5905997e-23)
(0.12938979 0.0021578174 1.1404331e-20)
(0.12890277 0.0014723149 1.3122017e-20)
(0.12626206 0.0027291129 -2.5210395e-20)
(0.12550996 0.003546664 1.3753311e-20)
(0.12698847 0.0065055634 -2.1669311e-22)
(0.12974336 0.005429472 2.2676922e-22)
(0.13724322 0.00017791142 1.4715255e-20)
(0.14770955 -0.0035952281 -1.5955967e-20)
(0.15029499 -0.0021886553 2.5197006e-22)
(0.14176891 0.0032104894 0)
(0.13697956 0.0031495796 1.7380582e-20)
(0.14924896 -0.0041382026 -4.4190906e-22)
(0.16516198 -0.01149238 -1.8994865e-20)
(0.1649844 -0.0082760098 4.5686826e-22)
(0.15276366 -0.0036759905 -2.0549132e-20)
(0.1455222 0.00042672857 2.1164719e-20)
(0.15485529 0.00012356096 -1.7204224e-22)
(0.17317385 -0.0093083586 1.793274e-22)
(0.18171163 -0.018493411 0)
(0.17319626 -0.022229348 -4.9561193e-20)
(0.1621372 -0.018890401 5.1366736e-20)
(0.15250106 -0.011215512 -1.0577075e-22)
(0.14782679 -0.0084362758 -5.5578457e-20)
(0.15534107 -0.015238711 5.793452e-20)
(0.17341362 -0.02370461 1.1869809e-22)
(0.19063086 -0.026777723 1.2161957e-22)
(0.1939215 -0.024183522 6.4445437e-20)
(0.18377211 -0.020749548 -6.6069168e-20)
(0.16787588 -0.019145732 -2.790562e-22)
(0.15422025 -0.019423135 0)
(0.15198446 -0.018447691 0)
(0.16099729 -0.019100024 -7.8474787e-25)
(0.17662842 -0.019570598 0)
(0.18918732 -0.02116815 -8.4079366e-23)
(0.10090049 0.00018953527 -6.7204761e-22)
(0.098061421 0.00040398261 -6.991141e-22)
(0.1073237 0.00091399986 2.9118341e-21)
(0.10672637 0.000272999 -1.5094643e-21)
(0.10207505 -0.0016002893 1.5959394e-21)
(0.099322111 -0.0015143963 -2.4730857e-21)
(0.10142058 -0.00043812585 -3.4387454e-21)
(0.10633686 0.00038678854 3.5936282e-21)
(0.10943296 0.0010813276 3.731769e-21)
(0.1096461 0.0020779992 -7.2742312e-21)
(0.10886335 0.0021798091 3.5308714e-21)
(0.10733565 0.0024290873 0)
(0.10574954 0.0039510461 5.4534605e-22)
(0.10615532 0.0037049878 0)
(0.10953762 0.0049574647 0)
(0.11474098 0.0041808772 9.5104566e-21)
(0.12031318 0.0048348107 -1.0238622e-20)
(0.12473114 0.004903655 -3.3203384e-22)
(0.12698984 0.0037735475 -2.7011509e-25)
(0.13001119 0.0027140333 0)
(0.1306637 0.0029364424 1.2358691e-20)
(0.12958749 0.0021568007 -1.1625406e-20)
(0.1288906 0.0016893615 -2.2839512e-26)
(0.12615696 0.0025589256 1.2947399e-20)
(0.1248578 0.0031081883 -2.810349e-20)
(0.12636819 0.0065801446 1.4169281e-20)
(0.12997961 0.0053506898 -1.5462435e-20)
(0.13735267 0.00033768566 4.1897305e-22)
(0.14694368 -0.0033691348 1.6804495e-20)
(0.14952297 -0.0010009677 1.6582694e-20)
(0.14214014 0.0044359069 -1.7328582e-20)
(0.137975 0.0030940012 0)
(0.14944927 -0.0056531956 -2.9863727e-22)
(0.16392204 -0.011866109 -4.1803035e-25)
(0.16452673 -0.0067407142 -1.6033576e-22)
(0.15370259 -0.0020178354 2.1854578e-20)
(0.14479491 0.00048554854 7.119866e-23)
(0.15315283 -0.0015902052 -2.3379811e-20)
(0.17304198 -0.010040315 2.3606901e-20)
(0.18456969 -0.015533143 -4.991059e-20)
(0.17755783 -0.017752004 -3.3034538e-22)
(0.16327492 -0.017227634 5.4650345e-20)
(0.15179029 -0.011062897 -2.8478006e-20)
(0.14884368 -0.0072950856 -1.1490764e-22)
(0.15666418 -0.014383418 -3.0058306e-20)
(0.17095369 -0.024028329 3.2073043e-20)
(0.18529481 -0.026665753 0)
(0.19110562 -0.021029442 -3.4666368e-20)
(0.18745412 -0.014634142 3.5625323e-20)
(0.17617263 -0.011708162 2.9347675e-22)
(0.16220867 -0.013519945 0)
(0.15410028 -0.016625269 -8.1444547e-20)
(0.15657614 -0.021148772 9.5488751e-22)
(0.16844302 -0.023032998 8.6759654e-20)
(0.18187075 -0.022613027 8.790693e-23)
(0.10089679 8.1820194e-05 6.6935955e-26)
(0.097956972 0.00030347957 -1.4730565e-21)
(0.10729958 0.00086634294 0)
(0.10694607 0.00043116599 7.9762924e-22)
(0.10225797 -0.0016394278 1.2523249e-21)
(0.099182942 -0.0018972826 1.3084045e-21)
(0.10118504 -0.00043680084 -5.4340339e-21)
(0.10611379 0.00011847303 -4.6164149e-22)
(0.10926688 0.00074173258 -4.8656223e-22)
(0.10956792 0.0016320078 7.6499955e-21)
(0.10884155 0.0016065828 -3.7133587e-21)
(0.10715886 0.0023051285 -4.4348245e-21)
(0.10564016 0.0038385248 3.4423628e-21)
(0.10598084 0.0035967049 0)
(0.10930244 0.0045830205 0)
(0.11442037 0.0034907599 -1.034656e-20)
(0.1197813 0.0040206937 2.9199209e-23)
(0.12448416 0.0049025966 1.1563825e-20)
(0.12711512 0.0040532598 -3.6444184e-22)
(0.13008462 0.0024306036 1.2157157e-20)
(0.13080937 0.0028234829 -1.2553434e-20)
(0.1297881 0.0020241132 -4.0960794e-22)
(0.12897601 0.0017547318 -2.1428705e-22)
(0.12621459 0.0022328933 -1.4341845e-20)
(0.12420664 0.002649878 1.4777126e-20)
(0.12561652 0.0062424798 2.4068782e-22)
(0.130038 0.0051055887 0)
(0.13749533 0.00043682985 0)
(0.14623836 -0.0032428274 0)
(0.14859414 -0.00033642863 5.5917333e-22)
(0.14260024 0.0049697034 -2.9196501e-22)
(0.13947785 0.0030217085 0)
(0.14980791 -0.0064532924 1.5714969e-22)
(0.16244111 -0.011563069 3.2812287e-22)
(0.1634375 -0.0051527988 0)
(0.15486568 0.00011543791 2.2668231e-20)
(0.14539808 0.0017230347 -2.3241991e-20)
(0.15209687 -0.0034854166 0)
(0.17134226 -0.011618106 1.9897838e-22)
(0.18453077 -0.014202087 2.0588487e-22)
(0.18102145 -0.013401126 0)
(0.16708483 -0.013148058 0)
(0.15196946 -0.010148339 3.0220363e-20)
(0.14851699 -0.0073268009 -3.0993357e-20)
(0.15801715 -0.013282463 0)
(0.170818 -0.023046983 0)
(0.18035328 -0.026535223 -1.3668851e-22)
(0.18487791 -0.020974245 1.4094922e-22)
(0.18535784 -0.012993389 0)
(0.1799993 -0.0072453635 -3.9855749e-20)
(0.1706759 -0.0066009682 4.0819548e-20)
(0.1621156 -0.011323232 -8.4447187e-23)
(0.1582563 -0.01903069 4.4377922e-20)