/*--------------------------------*- C++ -*----------------------------------*\
| =========                 |                                                 |
| \\      /  F ield         | OpenFOAM: The Open Source CFD Toolbox           |
|  \\    /   O peration     | Version:  2406                                  |
|   \\  /    A nd           | Website:  www.openfoam.com                      |
|    \\/     M anipulation  |                                                 |
\*---------------------------------------------------------------------------*/
FoamFile
{
    version     2.0;
    format      ascii;
    arch        "LSB;label=32;scalar=64";
    class       volScalarField;
    location    "24";
    object      alphat;
}
// * * * * * * * * * * * * * * * * * * * * * * * * * * * * * * * * * * * * * //

dimensions      [1 -1 -1 0 0 0 0];

internalField   nonuniform List<scalar> 
96472
(
8.5055036e-07
9.2917178e-07
9.3594692e-07
9.3210827e-07
9.3474253e-07
9.3855745e-07
9.3120557e-07
9.0572385e-07
8.7133625e-07
8.4224197e-07
8.2871999e-07
8.2835816e-07
8.3393319e-07
8.3502899e-07
8.2875019e-07
8.126332e-07
7.9384994e-07
7.7392821e-07
7.6149858e-07
7.5524612e-07
7.5884474e-07
7.6716399e-07
7.8072919e-07
7.9291856e-07
8.0403207e-07
8.104082e-07
8.1105262e-07
8.0827839e-07
7.9974805e-07
7.8964894e-07
7.7963569e-07
7.692081e-07
7.6056026e-07
7.5647137e-07
7.5797795e-07
7.5886416e-07
7.6678962e-07
7.6896037e-07
7.7824116e-07
7.821921e-07
7.9406233e-07
8.0092302e-07
8.1555619e-07
8.3051788e-07
8.5065618e-07
8.7233774e-07
9.0019406e-07
9.2711915e-07
9.603298e-07
9.9394366e-07
1.0338185e-06
1.0800761e-06
1.1196524e-06
1.1691263e-06
1.2441854e-06
8.4966224e-07
9.2427478e-07
9.3201621e-07
9.2902431e-07
9.3203633e-07
9.3615946e-07
9.2971767e-07
9.0546794e-07
8.7147582e-07
8.4182129e-07
8.2719556e-07
8.2612071e-07
8.3154709e-07
8.3342246e-07
8.2820523e-07
8.1321929e-07
7.9492331e-07
7.7475279e-07
7.6162139e-07
7.5400847e-07
7.5656976e-07
7.6367902e-07
7.7696677e-07
7.8885894e-07
8.0056371e-07
8.0735354e-07
8.0959254e-07
8.0752011e-07
7.9997346e-07
7.8801716e-07
7.7655812e-07
7.635835e-07
7.5279353e-07
7.4150449e-07
7.3799977e-07
7.4139068e-07
7.470915e-07
7.5414459e-07
7.6636589e-07
7.7523327e-07
7.8971898e-07
7.9889254e-07
8.1311687e-07
8.2896907e-07
8.4208689e-07
8.6681069e-07
8.815432e-07
9.1074773e-07
9.28732e-07
9.6643279e-07
9.877886e-07
1.027491e-06
1.0685048e-06
1.0994419e-06
1.1748103e-06
8.4898465e-07
9.213124e-07
9.2944836e-07
9.2658062e-07
9.2929855e-07
9.3384023e-07
9.2871483e-07
9.0577713e-07
8.7201186e-07
8.417785e-07
8.2610745e-07
8.2456795e-07
8.2998097e-07
8.3285694e-07
8.2838953e-07
8.1455578e-07
7.9625099e-07
7.7624074e-07
7.6206422e-07
7.5357311e-07
7.5530916e-07
7.6139771e-07
7.7449198e-07
7.8676889e-07
7.9909878e-07
8.0658745e-07
8.1001273e-07
8.0795626e-07
8.0217251e-07
7.9138505e-07
7.7966999e-07
7.6683491e-07
7.5490398e-07
7.4373572e-07
7.3636373e-07
7.331177e-07
7.3699921e-07
7.4099069e-07
7.4738858e-07
7.5703262e-07
7.6822715e-07
7.8628997e-07
8.0103095e-07
8.2331684e-07
8.343509e-07
8.5880385e-07
8.7216844e-07
9.009476e-07
9.1524331e-07
9.4327788e-07
9.7132847e-07
9.9253889e-07
1.0309594e-06
1.0538613e-06
1.1089712e-06
8.4854559e-07
9.1983691e-07
9.2804856e-07
9.2473919e-07
9.2684325e-07
9.3167856e-07
9.2779176e-07
9.060885e-07
8.7269045e-07
8.419505e-07
8.2542067e-07
8.234171e-07
8.2880272e-07
8.3251778e-07
8.2884268e-07
8.1605495e-07
7.9771002e-07
7.77987e-07
7.6222369e-07
7.5347018e-07
7.5323548e-07
7.5926216e-07
7.713419e-07
7.8371399e-07
7.9648734e-07
8.0492618e-07
8.0972044e-07
8.0832024e-07
8.0397931e-07
7.9337961e-07
7.8283274e-07
7.6960624e-07
7.586932e-07
7.47071e-07
7.3838891e-07
7.3309628e-07
7.3448279e-07
7.3744764e-07
7.4301107e-07
7.4918582e-07
7.566037e-07
7.7028117e-07
7.7982056e-07
8.024486e-07
8.1493921e-07
8.4122191e-07
8.5351849e-07
8.7717449e-07
9.0365057e-07
9.1959898e-07
9.531863e-07
9.7084739e-07
1.0067491e-06
1.0257425e-06
1.0695352e-06
8.4824974e-07
9.1914333e-07
9.2728893e-07
9.2344554e-07
9.2482122e-07
9.297287e-07
9.2685483e-07
9.0634987e-07
8.7332423e-07
8.422151e-07
8.2483251e-07
8.2233469e-07
8.2766521e-07
8.3216811e-07
8.2915751e-07
8.1741311e-07
7.9920614e-07
7.796197e-07
7.6299039e-07
7.5349626e-07
7.5193095e-07
7.5748432e-07
7.6850751e-07
7.8145174e-07
7.9389002e-07
8.0323108e-07
8.0887888e-07
8.0858448e-07
8.0535179e-07
7.9540753e-07
7.8579261e-07
7.7179293e-07
7.6160999e-07
7.4947253e-07
7.4116907e-07
7.3319956e-07
7.3280401e-07
7.3526385e-07
7.4063886e-07
7.4557922e-07
7.5218337e-07
7.6277017e-07
7.7038256e-07
7.8674438e-07
7.9849525e-07
8.153109e-07
8.3734294e-07
8.5034907e-07
8.780311e-07
8.9308794e-07
9.2404398e-07
9.4087029e-07
9.7535593e-07
9.9285903e-07
1.0343456e-06
8.4816081e-07
9.1935583e-07
9.2712347e-07
9.2251384e-07
9.2307826e-07
9.2806529e-07
9.2611277e-07
9.0667614e-07
8.7400693e-07
8.4252476e-07
8.2433698e-07
8.2134555e-07
8.2664805e-07
8.3177433e-07
8.2952555e-07
8.1866468e-07
8.0074681e-07
7.8113571e-07
7.6387796e-07
7.5352709e-07
7.5080976e-07
7.5570141e-07
7.6576218e-07
7.7888469e-07
7.9157199e-07
8.0156602e-07
8.0781501e-07
8.0881707e-07
8.0600823e-07
7.9734538e-07
7.8849693e-07
7.7396051e-07
7.6414743e-07
7.5157624e-07
7.4308023e-07
7.3401259e-07
7.3151705e-07
7.327972e-07
7.3742557e-07
7.4125028e-07
7.4807415e-07
7.5539681e-07
7.6555251e-07
7.746752e-07
7.905977e-07
8.0055808e-07
8.2086111e-07
8.324544e-07
8.5627294e-07
8.6934471e-07
8.9631194e-07
9.1099526e-07
9.4122588e-07
9.5865627e-07
9.9602052e-07
8.4818707e-07
9.1949979e-07
9.2712274e-07
9.2207804e-07
9.2152576e-07
9.2570097e-07
9.2430343e-07
9.0606441e-07
8.7411196e-07
8.4248765e-07
8.2375019e-07
8.203097e-07
8.2558284e-07
8.312585e-07
8.2993376e-07
8.1981069e-07
8.0245249e-07
7.8284288e-07
7.6500567e-07
7.5363058e-07
7.4998134e-07
7.5400106e-07
7.6325177e-07
7.76205e-07
7.8904882e-07
7.9985496e-07
8.0674164e-07
8.0901391e-07
8.0651208e-07
7.9962528e-07
7.9045282e-07
7.7732804e-07
7.6656392e-07
7.5396601e-07
7.4533854e-07
7.3593253e-07
7.3102111e-07
7.3035434e-07
7.3429487e-07
7.3797642e-07
7.4379424e-07
7.4940074e-07
7.5940376e-07
7.6678462e-07
7.8128921e-07
7.898034e-07
8.0802729e-07
8.1830592e-07
8.3916106e-07
8.504964e-07
8.7385031e-07
8.8710629e-07
9.132469e-07
9.2704266e-07
9.6038664e-07
8.4816396e-07
9.1885976e-07
9.2597832e-07
9.1985426e-07
9.1789259e-07
9.2131687e-07
9.2053698e-07
9.0395571e-07
8.7330782e-07
8.4203257e-07
8.230566e-07
8.1926015e-07
8.2457028e-07
8.3079317e-07
8.3030501e-07
8.2108502e-07
8.0413986e-07
7.8465221e-07
7.6637071e-07
7.5408378e-07
7.4945597e-07
7.5258202e-07
7.6115501e-07
7.7382889e-07
7.8654965e-07
7.9787851e-07
8.0549764e-07
8.0891217e-07
8.0704489e-07
8.0157701e-07
7.9199107e-07
7.8073176e-07
7.6861648e-07
7.5681143e-07
7.4679958e-07
7.384447e-07
7.3133714e-07
7.2885039e-07
7.3121759e-07
7.3563045e-07
7.3946449e-07
7.4503584e-07
7.5351184e-07
7.5988309e-07
7.7250998e-07
7.8042626e-07
7.9653041e-07
8.0567218e-07
8.2477869e-07
8.3517366e-07
8.5660888e-07
8.6732765e-07
8.9022164e-07
9.0246715e-07
9.3047613e-07
8.4757399e-07
9.1348752e-07
9.1952311e-07
9.1279537e-07
9.1063654e-07
9.1494521e-07
9.1624798e-07
9.0179961e-07
8.7255656e-07
8.4167108e-07
8.2243659e-07
8.1830494e-07
8.236661e-07
8.3035467e-07
8.3066652e-07
8.2228266e-07
8.0590111e-07
7.8639972e-07
7.6787317e-07
7.5470091e-07
7.4916271e-07
7.5134731e-07
7.5921216e-07
7.7145639e-07
7.8441892e-07
7.9596698e-07
8.0420632e-07
8.0849272e-07
8.0749805e-07
8.0331731e-07
7.9388261e-07
7.8394785e-07
7.7085063e-07
7.6004508e-07
7.4870995e-07
7.4049188e-07
7.326368e-07
7.284306e-07
7.28652e-07
7.3277582e-07
7.3595837e-07
7.4134223e-07
7.4810117e-07
7.5435257e-07
7.6530166e-07
7.7202084e-07
7.8641282e-07
7.9484071e-07
8.122452e-07
8.2153704e-07
8.4062891e-07
8.5084004e-07
8.7156666e-07
8.828504e-07
9.0628613e-07
8.4666985e-07
9.0482635e-07
9.0897402e-07
9.0289777e-07
9.0230835e-07
9.0887326e-07
9.1258538e-07
9.0027176e-07
8.7227863e-07
8.4165771e-07
8.2206232e-07
8.1754582e-07
8.2286939e-07
8.2996669e-07
8.3109066e-07
8.2349696e-07
8.0773565e-07
7.8830814e-07
7.6943394e-07
7.5549799e-07
7.4897055e-07
7.5027166e-07
7.5741085e-07
7.6899455e-07
7.8205743e-07
7.9407247e-07
8.0286281e-07
8.07933e-07
8.0776055e-07
8.0440827e-07
7.9584965e-07
7.8664987e-07
7.7353108e-07
7.6275218e-07
7.5121022e-07
7.4258153e-07
7.3397732e-07
7.2923901e-07
7.2673893e-07
7.3011364e-07
7.3283831e-07
7.3765657e-07
7.4362675e-07
7.4924806e-07
7.5867284e-07
7.6493738e-07
7.7782565e-07
7.8521376e-07
8.0047473e-07
8.0918715e-07
8.2678589e-07
8.363986e-07
8.550503e-07
8.6413402e-07
8.8604231e-07
8.4642321e-07
9.0473823e-07
9.0824149e-07
9.0168463e-07
9.0075118e-07
9.0752736e-07
9.1215184e-07
9.0083446e-07
8.7335661e-07
8.4249203e-07
8.2222474e-07
8.1707218e-07
8.2220199e-07
8.2962457e-07
8.315364e-07
8.2476121e-07
8.0956655e-07
7.9039936e-07
7.7118234e-07
7.5655945e-07
7.490292e-07
7.4939086e-07
7.5593745e-07
7.6692137e-07
7.7958746e-07
7.9212861e-07
8.0134043e-07
8.0734293e-07
8.0813347e-07
8.0538062e-07
7.977881e-07
7.8905068e-07
7.7661986e-07
7.6547306e-07
7.5375608e-07
7.4484552e-07
7.3595605e-07
7.3012771e-07
7.2611229e-07
7.277305e-07
7.3005529e-07
7.3463013e-07
7.3924301e-07
7.4466495e-07
7.5295098e-07
7.5865473e-07
7.6991242e-07
7.7642981e-07
7.9051238e-07
7.9824845e-07
8.1421225e-07
8.2235745e-07
8.3979825e-07
8.4948938e-07
8.6804351e-07
8.4627002e-07
9.075497e-07
9.1042599e-07
9.0315857e-07
9.015511e-07
9.0793207e-07
9.127483e-07
9.0188337e-07
8.7466812e-07
8.4349245e-07
8.2253915e-07
8.1668778e-07
8.2163223e-07
8.2932931e-07
8.3197631e-07
8.2604018e-07
8.114859e-07
7.9248831e-07
7.7309456e-07
7.5784887e-07
7.4943574e-07
7.4874844e-07
7.5458386e-07
7.650825e-07
7.7755577e-07
7.9015767e-07
7.9989361e-07
8.0641341e-07
8.0829984e-07
8.0627614e-07
7.9959597e-07
7.9131409e-07
7.7961475e-07
7.683343e-07
7.5632245e-07
7.4720736e-07
7.3785862e-07
7.3180769e-07
7.263758e-07
7.255913e-07
7.2794077e-07
7.316904e-07
7.3539931e-07
7.4051229e-07
7.4763346e-07
7.5296698e-07
7.6287089e-07
7.6913377e-07
7.815194e-07
7.8811472e-07
8.0281075e-07
8.1055286e-07
8.2700806e-07
8.3481424e-07
8.5221081e-07
8.4659258e-07
9.1570914e-07
9.2003073e-07
9.1237979e-07
9.0919328e-07
9.1372186e-07
9.1718904e-07
9.0553259e-07
8.7762783e-07
8.455428e-07
8.2346368e-07
8.1666737e-07
8.2126127e-07
8.2909739e-07
8.3241913e-07
8.2722685e-07
8.1340472e-07
7.9455618e-07
7.7499268e-07
7.5914168e-07
7.4985459e-07
7.4834849e-07
7.5331023e-07
7.6311674e-07
7.7545262e-07
7.8826084e-07
7.9856891e-07
8.0558201e-07
8.0822191e-07
8.0712505e-07
8.0116316e-07
7.9356311e-07
7.8227767e-07
7.7146135e-07
7.5902461e-07
7.4977752e-07
7.3975312e-07
7.3352814e-07
7.2730199e-07
7.246885e-07
7.2543684e-07
7.2918404e-07
7.3216238e-07
7.3696087e-07
7.4293574e-07
7.4797062e-07
7.5693451e-07
7.6216923e-07
7.7337107e-07
7.8004586e-07
7.9286841e-07
8.000982e-07
8.1474037e-07
8.2189473e-07
8.3859874e-07
8.4650475e-07
9.1600993e-07
9.2225168e-07
9.1642907e-07
9.1403715e-07
9.1849029e-07
9.213696e-07
9.0894078e-07
8.8033442e-07
8.4742307e-07
8.2431785e-07
8.1668668e-07
8.2088329e-07
8.288841e-07
8.3287061e-07
8.2848173e-07
8.1532313e-07
7.9686515e-07
7.7711514e-07
7.6070069e-07
7.5047087e-07
7.4812499e-07
7.5234249e-07
7.6156149e-07
7.7339661e-07
7.863662e-07
7.9712609e-07
8.0475497e-07
8.080866e-07
8.0783494e-07
8.025789e-07
7.958621e-07
7.8475648e-07
7.747133e-07
7.6189182e-07
7.5250368e-07
7.4200073e-07
7.35352e-07
7.285755e-07
7.2486324e-07
7.2360258e-07
7.2666803e-07
7.2929413e-07
7.335503e-07
7.3880382e-07
7.4359816e-07
7.5110526e-07
7.5620128e-07
7.6655443e-07
7.7206459e-07
7.8378161e-07
7.9049094e-07
8.0354554e-07
8.1188809e-07
8.2533353e-07
8.4647401e-07
9.1711862e-07
9.2600396e-07
9.2183079e-07
9.1996706e-07
9.2447822e-07
9.271042e-07
9.1402614e-07
8.8439714e-07
8.5024077e-07
8.2582023e-07
8.1709883e-07
8.2073578e-07
8.2878207e-07
8.3333842e-07
8.2973449e-07
8.1720078e-07
7.9907084e-07
7.7921256e-07
7.6237943e-07
7.5134131e-07
7.4797823e-07
7.5150475e-07
7.6020402e-07
7.7167332e-07
7.8450852e-07
7.9573009e-07
8.038418e-07
8.0790955e-07
8.0850723e-07
8.0381373e-07
7.9793299e-07
7.8710771e-07
7.7775074e-07
7.6487798e-07
7.5518701e-07
7.4439616e-07
7.3722857e-07
7.3012617e-07
7.2567177e-07
7.2255692e-07
7.2449377e-07
7.2682506e-07
7.3078421e-07
7.349415e-07
7.3954931e-07
7.4641549e-07
7.5133982e-07
7.6010557e-07
7.6528094e-07
7.7616248e-07
7.8165047e-07
7.9520244e-07
8.0101454e-07
8.1407533e-07
8.4616718e-07
9.1651306e-07
9.2611481e-07
9.2202256e-07
9.2037061e-07
9.2545501e-07
9.2884104e-07
9.1630675e-07
8.8675154e-07
8.521423e-07
8.2688595e-07
8.1733081e-07
8.2054977e-07
8.2866998e-07
8.3376851e-07
8.3090809e-07
8.1915382e-07
8.0127243e-07
7.8139323e-07
7.6417329e-07
7.5244832e-07
7.4826487e-07
7.509085e-07
7.590558e-07
7.7017773e-07
7.8295452e-07
7.9445219e-07
8.0313636e-07
8.0763465e-07
8.0902001e-07
8.0524566e-07
7.9982295e-07
7.8960751e-07
7.8057808e-07
7.6807205e-07
7.579946e-07
7.469836e-07
7.3941401e-07
7.318424e-07
7.2682528e-07
7.2256245e-07
7.2251088e-07
7.2475297e-07
7.2806442e-07
7.3146468e-07
7.3575985e-07
7.4201743e-07
7.4613586e-07
7.5439452e-07
7.5954359e-07
7.6844372e-07
7.7448543e-07
7.8656099e-07
7.9148327e-07
8.0366895e-07
8.4521177e-07
9.1404381e-07
9.2472673e-07
9.2196897e-07
9.2150438e-07
9.2738688e-07
9.3106249e-07
9.1858785e-07
8.8890392e-07
8.5388292e-07
8.2790391e-07
8.1765025e-07
8.2049327e-07
8.2865243e-07
8.3419958e-07
8.319857e-07
8.2089516e-07
8.033641e-07
7.83464e-07
7.6580438e-07
7.5336926e-07
7.4843983e-07
7.5030533e-07
7.5794473e-07
7.6858525e-07
7.8137762e-07
7.9307485e-07
8.0246875e-07
8.0738405e-07
8.092613e-07
8.0645199e-07
8.0146567e-07
7.919177e-07
7.8323323e-07
7.7119772e-07
7.6090214e-07
7.4942574e-07
7.4167576e-07
7.3362924e-07
7.2825252e-07
7.2331937e-07
7.2141063e-07
7.2272537e-07
7.2585725e-07
7.2854717e-07
7.328604e-07
7.3787163e-07
7.4225571e-07
7.4953618e-07
7.5383424e-07
7.6218609e-07
7.6865619e-07
7.7780729e-07
7.8411271e-07
7.9345361e-07
8.4497241e-07
9.1400698e-07
9.2518743e-07
9.2288034e-07
9.2244968e-07
9.2820156e-07
9.31898e-07
9.1968418e-07
8.9027034e-07
8.5519234e-07
8.2877134e-07
8.1798358e-07
8.2047496e-07
8.2868942e-07
8.3465953e-07
8.3314522e-07
8.2265592e-07
8.05543e-07
7.8571721e-07
7.6779167e-07
7.5472385e-07
7.4892967e-07
7.5010888e-07
7.5721902e-07
7.6748131e-07
7.8003671e-07
7.9191264e-07
8.0170483e-07
8.0721954e-07
8.0959873e-07
8.0761493e-07
8.0308106e-07
7.9415827e-07
7.8574033e-07
7.7414928e-07
7.6407156e-07
7.5213531e-07
7.4404953e-07
7.3551669e-07
7.2975088e-07
7.2437407e-07
7.2142917e-07
7.2074977e-07
7.2356359e-07
7.2561317e-07
7.2975374e-07
7.3413811e-07
7.3816879e-07
7.443583e-07
7.4888834e-07
7.5674996e-07
7.6172165e-07
7.7133746e-07
7.7576962e-07
7.8469829e-07
8.4492711e-07
9.1356405e-07
9.2493441e-07
9.2312917e-07
9.2319341e-07
9.2921512e-07
9.3309974e-07
9.2107623e-07
8.9177432e-07
8.5652899e-07
8.2967309e-07
8.1839929e-07
8.2063025e-07
8.2889869e-07
8.3520712e-07
8.3422887e-07
8.242832e-07
8.0734568e-07
7.8758116e-07
7.6933453e-07
7.5581713e-07
7.4922607e-07
7.496189e-07
7.5624041e-07
7.661708e-07
7.7857396e-07
7.9051361e-07
8.0081833e-07
8.067893e-07
8.0958975e-07
8.08234e-07
8.0414969e-07
7.9583818e-07
7.8792076e-07
7.7646965e-07
7.6656153e-07
7.5455442e-07
7.4623398e-07
7.377989e-07
7.3092719e-07
7.2542912e-07
7.2183788e-07
7.1963568e-07
7.2121731e-07
7.2354456e-07
7.270223e-07
7.3091902e-07
7.3436977e-07
7.400294e-07
7.4392072e-07
7.5135918e-07
7.5564475e-07
7.6494819e-07
7.691388e-07
7.7660945e-07
8.4538877e-07
9.1480936e-07
9.2628916e-07
9.2456342e-07
9.2428894e-07
9.2994554e-07
9.3380243e-07
9.2206985e-07
8.9309991e-07
8.5790094e-07
8.3075056e-07
8.1908673e-07
8.2110105e-07
8.2937313e-07
8.3595231e-07
8.354102e-07
8.2595387e-07
8.0924672e-07
7.8944847e-07
7.7095351e-07
7.5680673e-07
7.4961087e-07
7.4924695e-07
7.5515322e-07
7.6471591e-07
7.7689524e-07
7.8885412e-07
7.9952305e-07
8.0620938e-07
8.0933747e-07
8.0863333e-07
8.0475607e-07
7.9698816e-07
7.8903355e-07
7.783799e-07
7.6853251e-07
7.5684299e-07
7.4746203e-07
7.39015e-07
7.3175486e-07
7.2588568e-07
7.2179708e-07
7.1859906e-07
7.185122e-07
7.2020742e-07
7.2356635e-07
7.2653889e-07
7.3020927e-07
7.3516165e-07
7.3900403e-07
7.4562998e-07
7.5002072e-07
7.5696517e-07
7.631266e-07
7.6779557e-07
8.4581339e-07
9.1574718e-07
9.2681522e-07
9.2500314e-07
9.2473454e-07
9.3035886e-07
9.3429722e-07
9.2278494e-07
8.9399795e-07
8.5878787e-07
8.3139671e-07
8.195205e-07
8.2142875e-07
8.2977884e-07
8.3662746e-07
8.364223e-07
8.2716936e-07
8.1061269e-07
7.9055943e-07
7.714706e-07
7.567268e-07
7.4864594e-07
7.4760499e-07
7.5286739e-07
7.6230185e-07
7.7410904e-07
7.8625764e-07
7.9775652e-07
8.0641871e-07
8.1020243e-07
8.1040993e-07
8.0609046e-07
7.9919069e-07
7.9023815e-07
7.7998855e-07
7.6866501e-07
7.5755099e-07
7.4746861e-07
7.3878655e-07
7.304696e-07
7.2429795e-07
7.1961997e-07
7.1624398e-07
7.1489728e-07
7.1578265e-07
7.1874047e-07
7.2146709e-07
7.247973e-07
7.2789805e-07
7.3229746e-07
7.3838772e-07
7.4242849e-07
7.4784648e-07
7.5367085e-07
7.5814953e-07
8.4641448e-07
9.1730825e-07
9.2857339e-07
9.2684425e-07
9.2599005e-07
9.309814e-07
9.3484419e-07
9.2363916e-07
8.9522171e-07
8.598404e-07
8.3188821e-07
8.1918513e-07
8.2066839e-07
8.2950803e-07
8.3749189e-07
8.3874638e-07
8.3069056e-07
8.1447831e-07
7.937945e-07
7.7369787e-07
7.5809862e-07
7.4959602e-07
7.4851707e-07
7.5340653e-07
7.6413128e-07
7.7592119e-07
7.8958556e-07
8.0384509e-07
8.1622076e-07
8.2523704e-07
8.312428e-07
8.2697315e-07
8.1993925e-07
8.0914231e-07
7.9657306e-07
7.8034999e-07
7.6567822e-07
7.5189312e-07
7.4124327e-07
7.312681e-07
7.2372851e-07
7.1773201e-07
7.1346175e-07
7.105969e-07
7.0985772e-07
7.1194992e-07
7.1517511e-07
7.1826482e-07
7.2091096e-07
7.2432792e-07
7.2981371e-07
7.3359118e-07
7.3825098e-07
7.4388746e-07
7.4830794e-07
8.4678383e-07
9.1891105e-07
9.3037673e-07
9.2920279e-07
9.2856097e-07
9.3369883e-07
9.3896328e-07
9.3006772e-07
9.0184181e-07
8.6358169e-07
8.3334263e-07
8.1883954e-07
8.2059057e-07
8.3377902e-07
8.5062511e-07
8.6239934e-07
8.6431509e-07
8.5359387e-07
8.3326603e-07
8.0990723e-07
7.918069e-07
7.8619723e-07
7.8938363e-07
7.983697e-07
8.1015947e-07
8.2951662e-07
8.649214e-07
8.9541367e-07
9.204878e-07
9.3846676e-07
9.5106929e-07
9.6617457e-07
9.7420181e-07
9.6844258e-07
9.4973514e-07
9.0926924e-07
8.679917e-07
8.4051653e-07
8.208474e-07
7.9748911e-07
7.7857229e-07
7.6512373e-07
7.5557837e-07
7.5040509e-07
7.4798357e-07
7.469852e-07
7.4720688e-07
7.4899433e-07
7.5056537e-07
7.5207254e-07
7.5456626e-07
7.5774529e-07
6.9484327e-07
7.0494491e-07
6.6459737e-07
8.4722011e-07
9.2263011e-07
9.4063971e-07
9.4798717e-07
9.5163507e-07
9.6247481e-07
9.7868423e-07
9.885179e-07
9.6803518e-07
9.2055582e-07
8.8417712e-07
8.7727269e-07
9.0177175e-07
9.330046e-07
9.9902887e-07
1.0676999e-06
1.1126676e-06
1.1395828e-06
1.1513808e-06
1.1207633e-06
1.0983357e-06
1.0918906e-06
1.0938053e-06
1.0988149e-06
1.125773e-06
1.207958e-06
1.3120792e-06
1.3722114e-06
1.419993e-06
1.4805634e-06
1.5235518e-06
1.532109e-06
1.539629e-06
1.5458001e-06
1.5484684e-06
1.5304772e-06
1.4305178e-06
1.3462255e-06
1.3197957e-06
1.2629525e-06
1.207916e-06
1.1649444e-06
1.1291329e-06
1.1089248e-06
1.1027422e-06
1.1017062e-06
1.0977554e-06
1.0939983e-06
1.0925224e-06
1.0914669e-06
1.0929684e-06
1.0816069e-06
1.0591597e-06
1.1015338e-06
1.0674033e-06
8.4186728e-07
9.1034304e-07
9.5618478e-07
9.9796346e-07
1.0001268e-06
1.0540891e-06
1.1387569e-06
1.2528521e-06
1.3388259e-06
1.3598572e-06
1.3447949e-06
1.3581979e-06
1.3931656e-06
1.5349786e-06
1.7505941e-06
1.9078356e-06
2.0007343e-06
2.0375726e-06
2.048366e-06
2.0549435e-06
2.0284611e-06
2.0119366e-06
2.0150638e-06
2.0275722e-06
2.0955367e-06
2.2373412e-06
2.4043358e-06
2.510422e-06
2.5588789e-06
2.654031e-06
2.7396872e-06
2.771228e-06
2.7828314e-06
2.7778401e-06
2.7747011e-06
2.7658186e-06
2.6864302e-06
2.5566136e-06
2.5262328e-06
2.4685599e-06
2.3951226e-06
2.338925e-06
2.2776593e-06
2.240498e-06
2.2326024e-06
2.2412555e-06
2.2453912e-06
2.2512752e-06
2.2501817e-06
2.1374731e-06
2.2493402e-06
2.279435e-06
2.1608173e-06
2.0871823e-06
2.1478193e-06
7.1901507e-07
9.1253255e-07
1.081821e-06
1.2446982e-06
1.3315266e-06
1.4409576e-06
1.7254673e-06
2.0681346e-06
2.1584147e-06
2.2018546e-06
2.2462878e-06
2.302416e-06
2.3935013e-06
2.613315e-06
2.8473495e-06
2.9863283e-06
3.1489927e-06
3.1670142e-06
3.2242977e-06
3.23844e-06
3.2418712e-06
3.2504687e-06
3.2336819e-06
3.3077783e-06
3.1975805e-06
3.4889318e-06
3.3984572e-06
3.7404345e-06
3.6824751e-06
3.7237887e-06
3.8201267e-06
4.0355426e-06
3.937626e-06
4.0896308e-06
4.0319015e-06
3.9806678e-06
3.8788849e-06
3.8813538e-06
3.865956e-06
3.8452002e-06
3.763725e-06
3.7913422e-06
3.5727584e-06
3.7128985e-06
3.3962608e-06
3.5691062e-06
3.7896074e-06
3.4746971e-06
3.5305431e-06
3.7768246e-06
3.5801733e-06
3.5103033e-06
3.6534084e-06
3.4684989e-06
3.8080495e-06
3.9474692e-07
1.1675236e-06
1.7669052e-06
1.7131552e-06
1.7041296e-06
1.7856385e-06
1.8593907e-06
1.862458e-06
1.8263865e-06
1.7744746e-06
1.7058759e-06
1.6061795e-06
1.5138482e-06
1.4592911e-06
1.4111942e-06
1.3956431e-06
1.358932e-06
1.3586001e-06
1.3512332e-06
1.3542161e-06
1.3594563e-06
1.3755265e-06
1.3931588e-06
1.394307e-06
1.4552246e-06
1.4142457e-06
1.4970462e-06
1.4610698e-06
1.4937495e-06
1.5116184e-06
1.5353392e-06
1.4955461e-06
1.5766944e-06
1.5813095e-06
1.6335229e-06
1.6441386e-06
1.5938409e-06
1.7752509e-06
1.8345241e-06
1.7507883e-06
1.9541427e-06
1.8251546e-06
2.0139241e-06
1.9195182e-06
2.0938188e-06
2.0867765e-06
2.027667e-06
2.21962e-06
2.2304311e-06
2.1355007e-06
2.3253559e-06
2.4464092e-06
2.3215609e-06
2.4498989e-06
2.4338776e-06
2.2499167e-06
3.4874323e-06
2.3036619e-06
1.0648558e-06
6.7103112e-07
7.0377516e-07
7.6774086e-07
7.7727165e-07
7.8592921e-07
7.9421038e-07
8.0303407e-07
8.1267381e-07
8.2306519e-07
8.3425406e-07
8.4727628e-07
8.6162845e-07
8.7801053e-07
8.9610624e-07
9.1636086e-07
9.4095348e-07
9.7108511e-07
1.0085635e-06
1.0473288e-06
1.0825996e-06
1.1236288e-06
1.1870662e-06
1.2547913e-06
2.1481914e-06
3.7141454e-06
2.3803703e-06
1.1442209e-06
6.3749037e-07
6.6767263e-07
7.7557781e-07
7.8556917e-07
7.9559359e-07
8.0553348e-07
8.1447247e-07
8.2373394e-07
8.3410044e-07
8.4494808e-07
8.5735374e-07
8.7174703e-07
8.8732185e-07
9.0626325e-07
9.2676582e-07
9.5071926e-07
9.8055438e-07
1.0176357e-06
1.0589362e-06
1.092921e-06
1.1282849e-06
1.193636e-06
1.2598921e-06
1.8610533e-06
3.6447826e-06
2.4320383e-06
1.203784e-06
6.6404067e-07
6.3056186e-07
7.8196763e-07
7.9242071e-07
8.0488239e-07
8.1481022e-07
8.2546229e-07
8.3607509e-07
8.4673783e-07
8.581953e-07
8.7052333e-07
8.8406392e-07
9.0051066e-07
9.1788056e-07
9.3945118e-07
9.6249175e-07
9.9049019e-07
1.0263199e-06
1.0700368e-06
1.1059039e-06
1.1370465e-06
1.1978895e-06
1.2685242e-06
1.7173976e-06
3.7653925e-06
2.554536e-06
1.2873405e-06
6.685213e-07
5.7263168e-07
7.6613474e-07
8.0651326e-07
8.2004735e-07
8.2928136e-07
8.3792546e-07
8.4709568e-07
8.5799303e-07
8.6996562e-07
8.8356155e-07
8.9779613e-07
9.1461362e-07
9.3374793e-07
9.5492829e-07
9.7877511e-07
1.0061721e-06
1.0415877e-06
1.0849499e-06
1.1258099e-06
1.1544882e-06
1.2094273e-06
1.2752125e-06
1.5289268e-06
3.8547047e-06
2.8479934e-06
1.5420793e-06
7.1013212e-07
5.4735035e-07
6.6693177e-07
8.2327403e-07
8.3664013e-07
8.4639822e-07
8.5537259e-07
8.6405293e-07
8.7398385e-07
8.8460599e-07
8.9717071e-07
9.1167069e-07
9.2771706e-07
9.4676731e-07
9.6705437e-07
9.9117565e-07
1.0183623e-06
1.0537611e-06
1.0984228e-06
1.1416697e-06
1.1695585e-06
1.2248682e-06
1.2890165e-06
1.2498065e-06
3.5496942e-06
3.1687217e-06
1.6739836e-06
7.4175479e-07
5.3298533e-07
5.9413991e-07
8.3548298e-07
8.4680466e-07
8.5660894e-07
8.665129e-07
8.7578943e-07
8.8703359e-07
8.9908031e-07
9.1137014e-07
9.2595969e-07
9.4164306e-07
9.5999713e-07
9.80777e-07
1.0037579e-06
1.0301229e-06
1.0651734e-06
1.1132961e-06
1.1599757e-06
1.1861038e-06
1.2348117e-06
1.309953e-06
1.1366415e-06
3.2550536e-06
3.0867139e-06
1.6516688e-06
7.3819137e-07
5.1121411e-07
5.6159181e-07
7.6507907e-07
8.5321358e-07
8.6314174e-07
8.7506676e-07
8.8647247e-07
8.982544e-07
9.1172166e-07
9.2569997e-07
9.4064679e-07
9.5740816e-07
9.7485807e-07
9.9584249e-07
1.0179808e-06
1.0429355e-06
1.0748458e-06
1.121448e-06
1.1734231e-06
1.2028849e-06
1.2398865e-06
1.3279553e-06
1.0222733e-06
3.1821005e-06
3.0196907e-06
1.7150572e-06
7.5004276e-07
5.008826e-07
5.3410375e-07
6.81254e-07
8.6391657e-07
8.7551343e-07
8.870683e-07
8.9823039e-07
9.0896501e-07
9.2122648e-07
9.358757e-07
9.5083996e-07
9.6895759e-07
9.8775828e-07
1.0094724e-06
1.0326598e-06
1.0586704e-06
1.0870588e-06
1.1326908e-06
1.186905e-06
1.2212225e-06
1.2534917e-06
1.3375046e-06
8.3191795e-07
3.0703584e-06
3.1719125e-06
1.8275357e-06
7.484189e-07
4.707026e-07
4.8421524e-07
6.09441e-07
8.8451703e-07
8.9918021e-07
9.0746966e-07
9.1701348e-07
9.2699211e-07
9.3748433e-07
9.5066392e-07
9.6498204e-07
9.8126289e-07
1.0000525e-06
1.0202678e-06
1.0438766e-06
1.0700293e-06
1.0959298e-06
1.1417553e-06
1.2003866e-06
1.2392472e-06
1.2697736e-06
1.3454803e-06
6.6816336e-07
2.796808e-06
3.295627e-06
1.9072621e-06
8.1314184e-07
4.5945896e-07
4.5320303e-07
5.6880355e-07
7.8579978e-07
9.1758018e-07
9.296142e-07
9.4029728e-07
9.5118847e-07
9.6140594e-07
9.732759e-07
9.8678314e-07
1.001094e-06
1.0184157e-06
1.0366134e-06
1.0590221e-06
1.0830437e-06
1.1060842e-06
1.1449559e-06
1.2096544e-06
1.2551285e-06
1.2861469e-06
1.3550907e-06
5.8054469e-07
2.6312953e-06
3.2369495e-06
1.874015e-06
8.4835044e-07
4.6828515e-07
4.4012935e-07
5.404912e-07
7.1938997e-07
9.2570949e-07
9.4028092e-07
9.5365415e-07
9.6676164e-07
9.7934433e-07
9.9375803e-07
1.0083431e-06
1.0232953e-06
1.040265e-06
1.0583307e-06
1.0790953e-06
1.1040875e-06
1.1250526e-06
1.1540882e-06
1.2179627e-06
1.2744348e-06
1.3038984e-06
1.3683974e-06
5.0739671e-07
2.5720628e-06
3.2262764e-06
1.8944992e-06
8.9121189e-07
4.7978096e-07
4.207717e-07
4.9330806e-07
6.4592868e-07
9.426437e-07
9.5558588e-07
9.6709306e-07
9.7977674e-07
9.9230815e-07
1.007168e-06
1.0227283e-06
1.0390283e-06
1.0569762e-06
1.075826e-06
1.0962327e-06
1.1244967e-06
1.1484951e-06
1.1726746e-06
1.2294026e-06
1.2942294e-06
1.3204576e-06
1.3856e-06
4.3980729e-07
2.4962707e-06
3.1826576e-06
2.0182699e-06
9.5889242e-07
4.938916e-07
4.0777535e-07
4.5398926e-07
5.7506739e-07
8.3728668e-07
9.7971563e-07
9.9251034e-07
1.0028229e-06
1.0136873e-06
1.026968e-06
1.0397019e-06
1.0553581e-06
1.0709678e-06
1.0907866e-06
1.1099949e-06
1.1388922e-06
1.1665375e-06
1.1881066e-06
1.2316285e-06
1.3097255e-06
1.3390182e-06
1.4016121e-06
3.7911483e-07
2.2977866e-06
3.2070192e-06
2.2532564e-06
1.0635908e-06
5.237541e-07
4.0304999e-07
4.3087654e-07
5.2970271e-07
7.5589299e-07
9.9319254e-07
1.0093985e-06
1.022932e-06
1.0349704e-06
1.0479856e-06
1.0608045e-06
1.0753936e-06
1.089905e-06
1.1089909e-06
1.1278699e-06
1.1553675e-06
1.1842137e-06
1.2070235e-06
1.2393266e-06
1.3218509e-06
1.3560829e-06
1.4216794e-06
3.2853845e-07
1.9195858e-06
3.162638e-06
2.3356091e-06
1.1040474e-06
5.3801969e-07
4.0104913e-07
4.0629947e-07
4.9292998e-07
6.8618962e-07
9.8994391e-07
1.0197297e-06
1.0322081e-06
1.0445691e-06
1.0581267e-06
1.0724285e-06
1.0882586e-06
1.1043789e-06
1.1246053e-06
1.144299e-06
1.1699549e-06
1.200042e-06
1.2241459e-06
1.2509138e-06
1.3284241e-06
1.3690643e-06
1.4430806e-06
2.9030046e-07
1.657034e-06
3.0706306e-06
2.352414e-06
1.1422671e-06
5.4517922e-07
3.9990518e-07
3.9519881e-07
4.5665174e-07
6.2307359e-07
8.7936054e-07
1.0336273e-06
1.0462166e-06
1.0571794e-06
1.0697262e-06
1.0831574e-06
1.0995387e-06
1.1161409e-06
1.1371592e-06
1.1573843e-06
1.1819866e-06
1.2139289e-06
1.2400478e-06
1.2634507e-06
1.3309222e-06
1.3753186e-06
1.4556716e-06
2.6462509e-07
1.5146154e-06
3.0093235e-06
2.3062405e-06
1.1612113e-06
5.6689876e-07
4.0064002e-07
3.8532962e-07
4.3538876e-07
5.6755982e-07
7.9855851e-07
1.0483467e-06
1.0639738e-06
1.0761598e-06
1.0888546e-06
1.1022191e-06
1.1174826e-06
1.13453e-06
1.1540484e-06
1.1753198e-06
1.1982641e-06
1.2300638e-06
1.258681e-06
1.2797379e-06
1.3370392e-06
1.3788307e-06
1.4612182e-06
2.5243658e-07
1.4416267e-06
2.9753675e-06
2.2867658e-06
1.1663055e-06
5.6023521e-07
4.0464096e-07
3.7361377e-07
4.1537374e-07
5.2163442e-07
7.1991456e-07
1.021199e-06
1.0794543e-06
1.0922334e-06
1.1045204e-06
1.1184202e-06
1.1328909e-06
1.1493628e-06
1.1680706e-06
1.1891314e-06
1.2103629e-06
1.2394841e-06
1.2721724e-06
1.2916406e-06
1.3446059e-06
1.3802995e-06
1.4607963e-06
2.3317138e-07
1.3906459e-06
2.946878e-06
2.3162923e-06
1.1745149e-06
5.6971996e-07
3.9778409e-07
3.6638838e-07
3.9931038e-07
4.8716766e-07
6.5504268e-07
9.1589026e-07
1.0919276e-06
1.1057033e-06
1.1173299e-06
1.129948e-06
1.1429834e-06
1.1588271e-06
1.1760501e-06
1.1975047e-06
1.2166823e-06
1.245458e-06
1.2805552e-06
1.2992579e-06
1.3503298e-06
1.3847201e-06
1.4587728e-06
2.6951657e-07
1.3273815e-06
2.919035e-06
2.3789272e-06
1.2414624e-06
5.9576244e-07
3.9954606e-07
3.7218743e-07
3.8115103e-07
4.6569964e-07
6.1780804e-07
8.3280257e-07
1.1069584e-06
1.1218457e-06
1.1339301e-06
1.1461989e-06
1.1610574e-06
1.1772012e-06
1.1937509e-06
1.2158778e-06
1.2316883e-06
1.2618124e-06
1.2970352e-06
1.3154163e-06
1.3629769e-06
1.3968157e-06
1.4604572e-06
2.6229418e-07
1.189194e-06
2.7918557e-06
2.5751493e-06
1.3832336e-06
6.844264e-07
4.2749649e-07
3.7246855e-07
3.7999485e-07
4.4626575e-07
5.9033758e-07
7.8610254e-07
1.0757666e-06
1.1419505e-06
1.1546462e-06
1.166865e-06
1.1836191e-06
1.2007845e-06
1.2176307e-06
1.2417049e-06
1.257187e-06
1.2844724e-06
1.3185018e-06
1.3360223e-06
1.3799362e-06
1.4110584e-06
1.4681411e-06
2.9938176e-07
1.0342277e-06
2.6437549e-06
2.7214815e-06
1.5331324e-06
7.6243378e-07
4.5152741e-07
3.717322e-07
3.7867096e-07
4.3876073e-07
5.5115831e-07
7.280841e-07
1.0318361e-06
1.1612908e-06
1.1757829e-06
1.1879102e-06
1.2019484e-06
1.2169647e-06
1.2311891e-06
1.2544201e-06
1.2683227e-06
1.2935539e-06
1.3283558e-06
1.3451614e-06
1.3867365e-06
1.4165002e-06
1.4698669e-06
3.4426367e-07
9.6082872e-07
2.5544049e-06
2.7775408e-06
1.6462754e-06
7.9982038e-07
4.6812014e-07
3.7626452e-07
3.823413e-07
4.3160468e-07
5.2386441e-07
6.8319093e-07
9.6194716e-07
1.1723626e-06
1.1887465e-06
1.2026375e-06