/*--------------------------------*- C++ -*----------------------------------*\
| =========                 |                                                 |
| \\      /  F ield         | OpenFOAM: The Open Source CFD Toolbox           |
|  \\    /   O peration     | Version:  2406                                  |
|   \\  /    A nd           | Website:  www.openfoam.com                      |
|    \\/     M anipulation  |                                                 |
\*---------------------------------------------------------------------------*/
FoamFile
{
    version     2.0;
    format      ascii;
    arch        "LSB;label=32;scalar=64";
    class       volScalarField;
    location    "24";
    object      k_0;
}
// * * * * * * * * * * * * * * * * * * * * * * * * * * * * * * * * * * * * * //

dimensions      [0 2 -2 0 0 0 0];

internalField   nonuniform List<scalar> 
62344
(
4.6566292e-06
3.7915867e-06
2.851602e-06
2.2782201e-06
1.951068e-06
1.7538525e-06
1.5870372e-06
1.4377924e-06
1.2969314e-06
1.1987286e-06
1.1406623e-06
1.1094112e-06
1.0739907e-06
1.0415337e-06
1.0186396e-06
9.9670099e-07
9.5534791e-07
9.228705e-07
9.2314959e-07
9.278978e-07
9.2605433e-07
9.3733748e-07
9.7032645e-07
9.8406736e-07
9.9100574e-07
9.9678361e-07
1.0076979e-06
1.0361777e-06
1.1097452e-06
1.2153387e-06
1.3034786e-06
1.4041805e-06
1.5604278e-06
1.8654798e-06
2.578451e-06
3.2869029e-06
4.6773374e-06
6.8173275e-06
9.5025843e-06
1.5113463e-05
2.363924e-05
2.8937586e-05
3.8393287e-05
5.1327428e-05
6.4568083e-05
8.1576647e-05
0.00010014855
0.00011894261
0.0001338674
0.00015231256
0.00016652238
0.00018841967
0.00020686218
0.0002399752
0.00031043482
4.6616906e-06
3.8020132e-06
2.8590087e-06
2.2891681e-06
1.9601506e-06
1.7593606e-06
1.5929724e-06
1.4463472e-06
1.3047688e-06
1.1973939e-06
1.1410248e-06
1.1035303e-06
1.0669704e-06
1.0401122e-06
1.0262094e-06
1.0062177e-06
9.6542604e-07
9.1609639e-07
9.0283819e-07
9.054862e-07
9.0349956e-07
9.1014516e-07
9.4276174e-07
9.6889125e-07
9.7909803e-07
9.8496441e-07
9.9239564e-07
1.0011174e-06
1.0305604e-06
1.0987422e-06
1.1954317e-06
1.2846054e-06
1.3919253e-06
1.6101476e-06
1.9867172e-06
2.3811758e-06
3.2384566e-06
4.9976829e-06
6.7972262e-06
9.1762255e-06
1.5189772e-05
2.0316463e-05
2.8757007e-05
3.9460862e-05
5.9199711e-05
7.9277517e-05
0.00010063291
0.00012134538
0.0001439223
0.00016799638
0.0001981924
0.00022107978
0.00025107773
0.00027613454
0.00030186372
4.6711772e-06
3.8220171e-06
2.8692759e-06
2.2877999e-06
1.9663938e-06
1.7589661e-06
1.6029779e-06
1.4463662e-06
1.3181395e-06
1.2038364e-06
1.1481006e-06
1.1049608e-06
1.0785064e-06
1.0533264e-06
1.0280567e-06
1.011265e-06
9.7420223e-07
9.2774039e-07
9.056742e-07
9.0566473e-07
9.0693122e-07
9.0996948e-07
9.3455945e-07
9.6737205e-07
9.8804634e-07
9.9490308e-07
9.9713109e-07
9.9924868e-07
1.0209443e-06
1.0744829e-06
1.1701972e-06
1.2711789e-06
1.3757594e-06
1.590951e-06
1.9011889e-06
2.2401645e-06
2.9526954e-06
4.4403813e-06
5.6564847e-06
7.3171723e-06
1.161505e-05
1.5478013e-05
2.3181843e-05
2.9811542e-05
4.4417457e-05
6.2189554e-05
8.2321868e-05
9.8013359e-05
0.00012438281
0.00015054972
0.00018731257
0.00021929034
0.00025276188
0.0002990565
0.00031875897
4.6757615e-06
3.8453474e-06
2.8870241e-06
2.2956705e-06
1.974119e-06
1.7652607e-06
1.6144355e-06
1.4556926e-06
1.3204146e-06
1.2059807e-06
1.1424591e-06
1.110596e-06
1.0825448e-06
1.0592736e-06
1.0294117e-06
1.0112029e-06
9.6841678e-07
9.2856286e-07
9.0922497e-07
8.9912861e-07
8.9741848e-07
9.0229235e-07
9.2712849e-07
9.675082e-07
9.9551731e-07
1.0063835e-06
1.0061845e-06
1.0058304e-06
1.0190343e-06
1.0603066e-06
1.1468287e-06
1.2722406e-06
1.3846105e-06
1.6108782e-06
1.8856077e-06
2.2012362e-06
2.8912489e-06
4.148554e-06
5.0826847e-06
6.5747156e-06
9.7143782e-06
1.3109812e-05
1.8644522e-05
2.5358123e-05
3.5404013e-05
4.7584859e-05
6.2370215e-05
7.3967967e-05
9.3726182e-05
0.00012608053
0.00016549503
0.00020291904
0.00024080867
0.00029716388
0.00032726885
4.6819592e-06
3.8616578e-06
2.8989544e-06
2.3060916e-06
1.983592e-06
1.7755412e-06
1.6253464e-06
1.4705005e-06
1.3334454e-06
1.2134308e-06
1.1526829e-06
1.1151765e-06
1.0943305e-06
1.0637726e-06
1.0427625e-06
1.0308673e-06
9.9456836e-07
9.415197e-07
9.1105784e-07
8.9969122e-07
8.9389816e-07
8.9891934e-07
9.2494731e-07
9.6527883e-07
9.9438813e-07
1.0077061e-06
1.0063225e-06
1.007039e-06
1.0190772e-06
1.053677e-06
1.1170765e-06
1.2685412e-06
1.3825685e-06
1.5421719e-06
1.7591828e-06
2.0153728e-06
2.5945006e-06
3.4945383e-06
4.3564896e-06
6.3540142e-06
8.1288691e-06
1.1973326e-05
1.5480472e-05
2.317249e-05
3.0377816e-05
4.2228598e-05
5.3214237e-05
6.9963641e-05
8.2642371e-05
0.00010412755
0.00013054568
0.0001713472
0.00021453104
0.00027159847
0.00031712272
4.6868497e-06
3.8676177e-06
2.906766e-06
2.3140417e-06
1.9862305e-06
1.7753341e-06
1.6303295e-06
1.4727729e-06
1.3380101e-06
1.221179e-06
1.1578192e-06
1.1117707e-06
1.1041022e-06
1.0800617e-06
1.0543248e-06
1.0381713e-06
1.0057545e-06
9.5515112e-07
9.2706741e-07
9.1319585e-07
9.0046727e-07
8.9808592e-07
9.1531533e-07
9.5433191e-07
9.9263521e-07
1.0166529e-06
1.0163349e-06
1.012406e-06
1.0251308e-06
1.0571624e-06
1.0980891e-06
1.2232933e-06
1.3433733e-06
1.5042658e-06
1.693372e-06
1.951384e-06
2.5122227e-06
3.25068e-06
4.0952911e-06
6.121984e-06
7.8370143e-06
1.1311621e-05
1.4656523e-05
2.2311506e-05
2.9138616e-05
4.1697088e-05
5.0033228e-05
6.5278589e-05
7.6430922e-05
9.6096939e-05
0.00011226885
0.00013634081
0.00017858952
0.00022175191
0.00028226103
4.6940416e-06
3.8813495e-06
2.9198472e-06
2.3225219e-06
1.9896159e-06
1.7809717e-06
1.6347143e-06
1.4740966e-06
1.3368602e-06
1.2226022e-06
1.1483145e-06
1.1175152e-06
1.1011643e-06
1.0831539e-06
1.0601546e-06
1.0423455e-06
1.0114141e-06
9.6036076e-07
9.3036217e-07
9.1050748e-07
9.0173588e-07
9.0073931e-07
9.1742574e-07
9.5016263e-07
9.9190549e-07
1.0183556e-06
1.0219117e-06
1.0221745e-06
1.0360797e-06
1.0657791e-06
1.0938055e-06
1.1774485e-06
1.2759483e-06
1.4710563e-06
1.6537195e-06
1.9216177e-06
2.4609767e-06
2.9863376e-06
3.8202681e-06
5.8149202e-06
7.4808635e-06
1.0932179e-05
1.4666201e-05
2.2293517e-05
2.9923505e-05
4.2433e-05
4.9859541e-05
6.3931062e-05
7.4121113e-05
9.3910278e-05
0.00011294192
0.00013237427
0.00016709036
0.00019852867
0.00023753109
4.6994105e-06
3.8915639e-06
2.9348688e-06
2.3314047e-06
1.9979046e-06
1.7947076e-06
1.6381656e-06
1.4886906e-06
1.3521716e-06
1.2276202e-06
1.1576943e-06
1.1369669e-06
1.1103974e-06
1.0799605e-06
1.0609149e-06
1.0447376e-06
1.0132927e-06
9.6693937e-07
9.2958147e-07
9.1413357e-07
9.0798696e-07
9.0606443e-07
9.1829455e-07
9.4506806e-07
9.8006306e-07
1.0105891e-06
1.0248181e-06
1.0428298e-06
1.0663607e-06
1.0940291e-06
1.1114366e-06
1.1606096e-06
1.2398169e-06
1.4370133e-06
1.6343943e-06
1.9367731e-06
2.4028253e-06
2.8249712e-06
3.6236294e-06
5.3199261e-06
6.7508398e-06
9.7065193e-06
1.4648112e-05
2.1338743e-05
2.7936377e-05
3.9992038e-05
4.8862436e-05
6.4234311e-05
7.530316e-05
9.4543598e-05
0.00011264679
0.00013497378
0.00016257145
0.00019429774
0.0002238593
4.7043471e-06
3.8965273e-06
2.9376992e-06
2.3389541e-06
2.0026864e-06
1.7960642e-06
1.6389743e-06
1.494461e-06
1.3654537e-06
1.2312029e-06
1.1682431e-06
1.1345176e-06
1.1110196e-06
1.0837869e-06
1.0647591e-06
1.0462037e-06
1.0171007e-06
9.7946638e-07
9.3473885e-07
9.1761896e-07
9.0511153e-07
9.0039963e-07
9.1077611e-07
9.4175795e-07
9.7316965e-07
1.0132228e-06
1.0459304e-06
1.0596218e-06
1.0801685e-06
1.1073363e-06
1.121561e-06
1.1509334e-06
1.2130191e-06
1.3799556e-06
1.5749289e-06
1.9193626e-06
2.2888727e-06
2.6354517e-06
3.4060541e-06
4.7171317e-06
5.9942556e-06
8.4888609e-06
1.433814e-05
1.9814062e-05
2.4786996e-05
3.5803261e-05
4.7737727e-05
6.3219565e-05
7.4594326e-05
9.2447203e-05
0.00010855694
0.00013253679
0.00015805554
0.00019781009
0.00023158123
4.7077044e-06
3.9038362e-06
2.9371138e-06
2.3449805e-06
2.0055353e-06
1.7929395e-06
1.6435932e-06
1.4928827e-06
1.3665112e-06
1.2348753e-06
1.160499e-06
1.1164669e-06
1.100626e-06
1.0914388e-06
1.0765566e-06
1.0589442e-06
1.0375819e-06
9.9990376e-07
9.4333868e-07
9.1389053e-07
9.0162326e-07
9.0015782e-07
9.1261888e-07
9.4141723e-07
9.6820271e-07
1.0143401e-06
1.0539765e-06
1.0655576e-06
1.0797484e-06
1.1018931e-06
1.1151366e-06
1.1342308e-06
1.1886091e-06
1.3158042e-06
1.5158769e-06
1.830018e-06
2.2040393e-06
2.5101138e-06
3.0717981e-06
4.2268135e-06
5.4124304e-06
7.5607441e-06
1.2774297e-05
1.7457688e-05
2.1379274e-05
3.0418492e-05
4.2356083e-05
5.6348521e-05
6.7841829e-05
8.4574547e-05
0.00010224729
0.0001287481
0.00015623716
0.00020395133
0.00024763221
4.7118496e-06
3.9194444e-06
2.9476282e-06
2.3498447e-06
2.0101637e-06
1.7954683e-06
1.6567602e-06
1.4999174e-06
1.3650422e-06
1.2393745e-06
1.1567475e-06
1.1184145e-06
1.1085089e-06
1.1000109e-06
1.0790171e-06
1.0592542e-06
1.0462429e-06
1.0131402e-06
9.5662441e-07
9.2168308e-07
9.13467e-07
9.1128901e-07
9.1578039e-07
9.281305e-07
9.5682795e-07
1.0102076e-06
1.0443123e-06
1.0599983e-06
1.0769635e-06
1.093437e-06
1.1093542e-06
1.1291796e-06
1.1804313e-06
1.261808e-06
1.4655379e-06
1.7160327e-06
2.0787918e-06
2.3861265e-06
2.9499983e-06
3.9317341e-06
5.016882e-06
6.8422331e-06
1.1057095e-05
1.5396459e-05
1.8906349e-05
2.6099988e-05
3.5348429e-05
4.7503868e-05
5.9478823e-05
7.4956487e-05
9.3357961e-05
0.00012039043
0.00014959587
0.00019283785
0.00023791642
4.7157175e-06
3.9343562e-06
2.9659759e-06
2.3586643e-06
2.0213214e-06
1.8018274e-06
1.6675557e-06
1.5204336e-06
1.3761558e-06
1.249935e-06
1.1673651e-06
1.1394021e-06
1.1258327e-06
1.1114448e-06
1.0774817e-06
1.0529713e-06
1.0347122e-06
1.0087197e-06
9.7100079e-07
9.3332983e-07
9.1832321e-07
9.1364426e-07
9.1441377e-07
9.2150968e-07
9.5067143e-07
1.003169e-06
1.0352316e-06
1.0550697e-06
1.0837749e-06
1.1003028e-06
1.1165872e-06
1.1356978e-06
1.1786972e-06
1.2499517e-06
1.4352548e-06
1.6350261e-06
1.9850751e-06
2.2944596e-06
2.8632367e-06
3.5561782e-06
4.8258475e-06
6.2993915e-06
9.4847343e-06
1.2756305e-05
1.6987868e-05
2.2446609e-05
2.9413157e-05
3.9295948e-05
5.1003997e-05
6.5161147e-05
8.2738182e-05
0.00010677532
0.00013340537
0.00016566396
0.00020589443
4.718372e-06
3.9416784e-06
2.9760741e-06
2.3658005e-06
2.0322893e-06
1.80709e-06
1.6705469e-06
1.529103e-06
1.3890761e-06
1.256054e-06
1.1768066e-06
1.1419355e-06
1.1238476e-06
1.1126419e-06
1.0825058e-06
1.0589355e-06
1.0308425e-06
1.0098011e-06
9.7363915e-07
9.3412949e-07
9.0937787e-07
9.0501796e-07
9.1111335e-07
9.2061763e-07
9.5062327e-07
9.9545358e-07
1.0287569e-06
1.0572507e-06
1.0888579e-06
1.1049443e-06
1.124185e-06
1.1451539e-06
1.173777e-06
1.2357203e-06
1.4146974e-06
1.6016147e-06
1.9413743e-06
2.2354589e-06
2.8103713e-06
3.3351242e-06
4.662328e-06
6.0047699e-06
8.5624704e-06
1.0988669e-05
1.5419126e-05
2.0479509e-05
2.6082264e-05
3.4142251e-05
4.4630148e-05
5.6903241e-05
7.2846601e-05
9.2662879e-05
0.00011315243
0.00013610678
0.00016707751
4.7198078e-06
3.9438014e-06
2.9787827e-06
2.3683464e-06
2.0331813e-06
1.8108327e-06
1.6688013e-06
1.5249796e-06
1.3930564e-06
1.2570722e-06
1.1780842e-06
1.1260739e-06
1.1112874e-06
1.107444e-06
1.0861473e-06
1.0658426e-06
1.0423634e-06
1.0206159e-06
9.7250167e-07
9.2589013e-07
9.0456643e-07
8.9972766e-07
9.0399951e-07
9.1165464e-07
9.3971307e-07
9.8026322e-07
1.0201226e-06
1.0577957e-06
1.0857245e-06
1.1032125e-06
1.126617e-06
1.1504573e-06
1.1742085e-06
1.2278016e-06
1.3911779e-06
1.568733e-06
1.9145979e-06
2.2001494e-06
2.740043e-06
3.1981199e-06
4.3175717e-06
5.5080416e-06
7.9474297e-06
1.0166374e-05
1.3895576e-05
1.8959704e-05
2.4073556e-05
3.098269e-05
3.9794532e-05
5.0560788e-05
6.4549539e-05
8.0780653e-05
9.7099405e-05
0.00011511838
0.00014031986
4.7212235e-06
3.9469144e-06
2.9821509e-06
2.3695531e-06
2.0257654e-06
1.8116809e-06
1.6670739e-06
1.5195029e-06
1.3859182e-06
1.2557276e-06
1.1759361e-06
1.1194443e-06
1.1044113e-06
1.1004342e-06
1.0817303e-06
1.0623307e-06
1.046522e-06
1.0218696e-06
9.6957411e-07
9.2499655e-07
9.115941e-07
9.0225961e-07
8.9924903e-07
9.0401561e-07
9.3025566e-07
9.6848199e-07
1.0069478e-06
1.0502921e-06
1.0775343e-06
1.0960438e-06
1.1246912e-06
1.1528296e-06
1.179195e-06
1.2263323e-06
1.3584354e-06
1.5196882e-06
1.8663767e-06
2.1536903e-06
2.6895286e-06
3.1070399e-06
4.0832445e-06
5.0928494e-06
7.1824465e-06
9.5832477e-06
1.2799973e-05
1.7530117e-05
2.2842013e-05
2.9257049e-05
3.7205523e-05
4.7535387e-05
6.099551e-05
7.6063787e-05
9.0759726e-05
0.00010589749
0.00012775776
4.7227092e-06
3.953202e-06
2.9909805e-06
2.3752873e-06
2.0226668e-06
1.8145991e-06
1.6686775e-06
1.5211112e-06
1.3808296e-06
1.2587359e-06
1.1770689e-06
1.1228719e-06
1.1100578e-06
1.0997636e-06
1.077208e-06
1.056237e-06
1.0382824e-06
1.0083454e-06
9.6476644e-07
9.2892721e-07
9.1539335e-07
9.0452337e-07
8.9926538e-07
9.0416938e-07
9.3105719e-07
9.671577e-07
9.9928868e-07
1.0356745e-06
1.0667506e-06
1.0865191e-06
1.1158025e-06
1.1421597e-06
1.1720228e-06
1.2163024e-06
1.3205168e-06
1.4578053e-06
1.7794719e-06
2.065346e-06
2.5966321e-06
2.9677151e-06
3.823358e-06
4.6703789e-06
6.2970315e-06
8.5512794e-06
1.0999728e-05
1.5236233e-05
2.0595952e-05
2.7111083e-05
3.5512626e-05
4.566808e-05
5.873248e-05
7.3718781e-05
8.9086275e-05
0.00010461455
0.00012476035
4.7245385e-06
3.9634634e-06
3.0046934e-06
2.387333e-06
2.02993e-06
1.8235444e-06
1.6748079e-06
1.5332142e-06
1.3908978e-06
1.2710868e-06
1.1809695e-06
1.1311795e-06
1.1160739e-06
1.1038848e-06
1.0844156e-06
1.064681e-06
1.0378098e-06
1.0024683e-06
9.677928e-07
9.3565892e-07
9.1156131e-07
9.0098409e-07
9.0258722e-07
9.1072288e-07
9.3774257e-07
9.7093771e-07
9.9580825e-07
1.0204299e-06
1.054563e-06
1.0782568e-06
1.1045877e-06
1.130022e-06
1.1622342e-06
1.2068114e-06
1.2935968e-06
1.4088598e-06
1.6492719e-06
1.9072244e-06
2.4294519e-06
2.7574529e-06
3.4660194e-06
4.2791733e-06
5.339607e-06
7.4087163e-06
9.1899951e-06
1.1971646e-05
1.7046929e-05
2.3458241e-05
3.1900576e-05
4.2004422e-05
5.4315005e-05
6.8422636e-05
8.4381486e-05
0.00010113748
0.00012107686
4.725666e-06
3.971255e-06
3.0158436e-06
2.3998817e-06
2.045157e-06
1.8362421e-06
1.6832598e-06
1.5515275e-06
1.4194207e-06
1.285954e-06
1.1886914e-06
1.1399711e-06
1.1236077e-06
1.1173022e-06
1.1025773e-06
1.0889343e-06
1.0598094e-06
1.0243855e-06
9.9146819e-07
9.5025828e-07
9.1384211e-07
9.0291393e-07
9.0695824e-07
9.1460094e-07
9.3834049e-07
9.7268715e-07
9.9404321e-07
1.0100705e-06
1.0401579e-06
1.0698632e-06
1.0973948e-06
1.1270144e-06
1.1588873e-06
1.200344e-06
1.2742546e-06
1.4013302e-06
1.5509469e-06
1.7454323e-06
2.1898719e-06
2.5635561e-06
3.0679118e-06
4.0646479e-06
4.8550106e-06
6.3906275e-06
8.3617225e-06
1.0227307e-05
1.3477262e-05
1.8604273e-05
2.5571636e-05
3.4267109e-05
4.5215359e-05
5.780947e-05
7.312698e-05
8.9489106e-05
0.00010996496
4.7266434e-06
3.9751245e-06
3.0225512e-06
2.4059988e-06
2.0551946e-06
1.8457115e-06
1.6891167e-06
1.559522e-06
1.4387525e-06
1.2923652e-06
1.1950681e-06
1.1441548e-06
1.1255117e-06
1.1230485e-06
1.10933e-06
1.0969421e-06
1.0736414e-06
1.0471894e-06
1.015686e-06
9.6498166e-07
9.2600035e-07
9.1252964e-07
9.133973e-07
9.1828948e-07
9.4028748e-07
9.8049141e-07
1.0046457e-06
1.0166253e-06
1.0421425e-06
1.0736062e-06
1.1126968e-06
1.14888e-06
1.1863277e-06
1.2367112e-06
1.3005061e-06
1.4112193e-06
1.5425105e-06
1.7169361e-06
2.108151e-06
2.5277671e-06
2.9700597e-06
3.9685989e-06
4.7326584e-06
6.040273e-06
8.0713723e-06
9.7619611e-06
1.2360679e-05
1.5686042e-05
2.0846474e-05
2.6055245e-05
3.430215e-05
4.2650093e-05
5.571625e-05
6.9170137e-05
8.8620095e-05
4.7243079e-06
3.9707765e-06
3.022024e-06
2.4056158e-06
2.0545743e-06
1.8441816e-06
1.6871601e-06
1.556149e-06
1.4403987e-06
1.2878531e-06
1.1966706e-06
1.1403456e-06
1.1198275e-06
1.1165565e-06
1.10194e-06
1.0887219e-06
1.0730329e-06
1.0552917e-06
1.0284415e-06
9.8427431e-07
9.5681134e-07
9.4228664e-07
9.4086003e-07
9.4890572e-07
9.8148931e-07
1.0359178e-06
1.0709504e-06
1.0913303e-06
1.1280304e-06
1.1648638e-06
1.2281764e-06
1.2912461e-06
1.3551736e-06
1.4552739e-06
1.5545038e-06
1.6664359e-06
1.791185e-06
1.9314908e-06
2.2185039e-06
2.6730628e-06
3.0976347e-06
4.0527081e-06
4.9063987e-06
6.0637831e-06
8.1946852e-06
9.7161566e-06
1.2222551e-05
1.4623877e-05
1.8844667e-05
2.2148558e-05
2.8361665e-05
3.269003e-05
4.1128877e-05
4.8166424e-05
6.2644584e-05
4.7247292e-06
3.9678143e-06
3.0185266e-06
2.4010559e-06
2.0418506e-06
1.8304699e-06
1.6737122e-06
1.5416137e-06
1.4240601e-06
1.2801293e-06
1.1928195e-06
1.1368609e-06
1.1206781e-06
1.1167082e-06
1.1056467e-06
1.1013141e-06
1.105824e-06
1.1122444e-06
1.1022261e-06
1.088471e-06
1.0857614e-06
1.0842773e-06
1.0982643e-06
1.1401234e-06
1.1984165e-06
1.2919253e-06
1.3701454e-06
1.4211196e-06
1.4949086e-06
1.5847036e-06
1.7266455e-06
1.8694915e-06
2.0112902e-06
2.2215055e-06
2.5029302e-06
2.7085261e-06
2.9501413e-06
3.1365003e-06
3.3516961e-06
3.784383e-06
4.2074461e-06
4.9749695e-06
6.0537586e-06
7.1879229e-06
9.5077572e-06
1.0987878e-05
1.3389333e-05
1.5167557e-05
1.8643198e-05
2.1080336e-05
2.5958429e-05
2.9290703e-05
3.4988958e-05
3.8911898e-05
4.6458808e-05
4.7164227e-06
3.9474297e-06
3.0018971e-06
2.3879931e-06
2.0239422e-06
1.8129876e-06
1.6632346e-06
1.5420107e-06
1.4327312e-06
1.3130642e-06
1.2426012e-06
1.2049161e-06
1.2172339e-06
1.2314646e-06
1.2423567e-06
1.2769819e-06
1.3434629e-06
1.431975e-06
1.4801724e-06
1.5156932e-06
1.5789679e-06
1.6445776e-06
1.7260811e-06
1.8642012e-06
1.9756267e-06
2.1750192e-06
2.3771166e-06
2.494273e-06
2.6847518e-06
2.9416627e-06
3.282306e-06
3.6495404e-06
4.0012682e-06
4.4387028e-06
5.1903076e-06
5.7433828e-06
6.4089086e-06
6.8947518e-06
7.2969288e-06
7.6917214e-06
8.3415338e-06
8.8765843e-06
1.0067894e-05
1.1250481e-05
1.3666258e-05
1.5362193e-05
1.7849123e-05
1.9091099e-05
2.1607039e-05
2.3314656e-05
2.6907865e-05
2.9512688e-05
3.358529e-05
3.6370886e-05
4.0800928e-05
4.708763e-06
3.909591e-06
2.9864562e-06
2.3992106e-06
2.0593329e-06
1.8763521e-06
1.7607349e-06
1.691557e-06
1.6562096e-06
1.6177099e-06
1.6192408e-06
1.6635707e-06
1.7656019e-06
1.8775461e-06
1.9647224e-06
2.0922961e-06
2.3285246e-06
2.6186771e-06
2.8001922e-06
2.9634252e-06
3.2112173e-06
3.4756613e-06
3.7078685e-06
4.0709703e-06
4.3497721e-06
4.7680546e-06
5.3077861e-06
5.6160652e-06
6.0814729e-06
6.7176146e-06
7.4646893e-06
8.3731725e-06
9.2567934e-06
1.0108779e-05
1.1747217e-05
1.3142929e-05
1.467014e-05
1.5867803e-05
1.6902387e-05
1.7501746e-05
1.8457247e-05
1.8977494e-05
2.019764e-05
2.1223337e-05
2.3375378e-05
2.505449e-05
2.782089e-05
2.9315435e-05
3.1484991e-05
3.2432315e-05
3.4432425e-05
3.5677414e-05
3.7993752e-05
4.0092374e-05
4.2311788e-05
4.6554085e-06
3.9000491e-06
3.2337581e-06
2.7986385e-06
2.5853108e-06
2.5777692e-06
2.6032272e-06
2.7261243e-06
2.9837363e-06
3.2153772e-06
3.4390938e-06
3.7769403e-06
4.1673739e-06
4.4777413e-06
4.7026074e-06
5.0132171e-06
5.569373e-06
6.2332006e-06
6.6614206e-06
7.1507391e-06
7.72207e-06
8.4109766e-06
8.9311797e-06
9.720932e-06
1.0400662e-05
1.112722e-05
1.2293907e-05
1.3081362e-05
1.3940344e-05
1.517963e-05
1.6473324e-05
1.8155949e-05
1.9889602e-05
2.1457111e-05
2.4118222e-05
2.6581455e-05
2.9115703e-05
3.1116883e-05
3.3112321e-05
3.4742478e-05
3.6207533e-05
3.7201304e-05
3.8746832e-05
3.9724237e-05
4.1078186e-05
4.1971789e-05
4.3955209e-05
4.608619e-05
4.826874e-05
4.9857922e-05
5.1075816e-05
5.1262898e-05
5.1561826e-05
5.2360768e-05
5.244876e-05
4.8475722e-06
5.5082045e-06
6.0477327e-06
6.1640599e-06
6.3562624e-06
6.8959351e-06
7.4013125e-06
8.1376434e-06
8.9046346e-06
9.7735308e-06
1.0427131e-05
1.1236524e-05
1.1999624e-05
1.2419842e-05
1.2657847e-05
1.3107892e-05
1.3907605e-05
1.4871699e-05
1.5550284e-05
1.6408109e-05
1.7310052e-05
1.8525669e-05
1.9413645e-05
2.0427853e-05
2.1504191e-05
2.2434354e-05
2.3842574e-05
2.4997732e-05
2.6069305e-05
2.7581645e-05
2.8837403e-05
2.9813326e-05
3.1013411e-05
3.2642293e-05
3.5012192e-05
3.6572157e-05
3.8717798e-05
4.0539048e-05
4.3146993e-05
4.5248606e-05
4.7260832e-05
4.9240078e-05
5.0956146e-05
5.1926646e-05
5.19495e-05
5.2163287e-05
5.3014452e-05
5.4454517e-05
5.5831615e-05
5.7013756e-05
5.7629377e-05
5.7397531e-05
5.7080244e-05
5.6862334e-05
5.6966575e-05
8.513098e-06
1.9409444e-05
2.3285934e-05
2.3864798e-05
2.4381762e-05
2.5370443e-05
2.5895797e-05
2.6555392e-05
2.6841935e-05
2.7254689e-05
2.77518e-05
2.8082626e-05
2.8209848e-05
2.7968854e-05
2.7647685e-05
2.7438321e-05
2.7515507e-05
2.7586378e-05
2.7413212e-05
2.7544557e-05
2.8024914e-05
2.8788305e-05
2.9219486e-05
2.9610174e-05
3.0022834e-05
3.0478168e-05
3.1193842e-05
3.1937588e-05
3.2571572e-05
3.3079912e-05
3.34642e-05
3.3410304e-05
3.3415259e-05
3.4245864e-05
3.5660056e-05
3.6794047e-05
3.7473701e-05
3.8227105e-05
3.9388285e-05
4.1019438e-05
4.2670747e-05
4.4558877e-05
4.6140788e-05
4.6751856e-05
4.6850309e-05
4.6952544e-05
4.74535e-05
4.8364136e-05
4.954401e-05
5.0741511e-05
5.1546939e-05
5.1731506e-05
5.1388409e-05
5.0559107e-05
5.0522121e-05
6.4501677e-05
9.889516e-05
8.6734865e-05
7.8349027e-05
7.1163358e-05
6.2094531e-05
5.4998696e-05
4.9207126e-05
4.3982394e-05
3.9725385e-05
3.652843e-05
3.5342996e-05
3.639939e-05
3.9410579e-05
4.2338268e-05
4.3500751e-05
4.3427987e-05
4.3269474e-05
4.318406e-05
4.322912e-05
4.2981273e-05
4.2232337e-05
4.0914818e-05
3.954465e-05
3.865006e-05
3.801625e-05
3.7112874e-05
3.6319901e-05
3.5735472e-05
3.5654514e-05
3.5075343e-05
3.3250526e-05
3.0705513e-05
2.8852405e-05
2.8848187e-05
2.9804176e-05
3.0372288e-05
2.966679e-05
2.8499052e-05
2.8162796e-05
2.7928812e-05
2.8118466e-05
2.9173092e-05
3.0121439e-05
3.0092315e-05
2.9411426e-05
2.9714891e-05
3.0378354e-05
3.0862767e-05
3.1041484e-05
3.1927913e-05
3.3080679e-05
3.3307764e-05
3.2677484e-05
3.2280948e-05
3.2215886e-05
5.0026025e-05
5.7866296e-05
5.4331406e-05
4.6917669e-05
4.7635026e-05
5.5229583e-05
7.6120157e-05
0.00010809875
0.0001347744
0.00015019973
0.00015773429
0.00016546546
0.00018292014
0.000217908
0.00026910905
0.00030766022
0.00031645476
0.00030279296
0.00029560246
0.00030210025
0.0003566033
0.00039819146
0.0003934676
0.00037779579
0.00035858547
0.00038758061
3.2981517e-05
4.9679046e-05
6.0211862e-05
5.8071734e-05
5.3203442e-05
5.5660879e-05
6.6557878e-05
9.4987729e-05
0.00013581377
0.00016707441
0.00018651889
0.00019947336
0.00021369025
0.0002413109
0.00029029121
0.00035092429
0.00038724164
0.00038798253
0.00037579246
0.0003690182
0.00038484674
0.00042439564
0.00046609619
0.00047816467
0.00047375269
0.00046268622
0.00048745689
3.3489475e-05
4.9635239e-05
6.2705133e-05
6.1905575e-05
5.8981747e-05
6.2813742e-05
7.9389335e-05
0.00012096568
0.00016944995
0.00020393476
0.00022690391
0.00024358756
0.00026437434
0.00030331662
0.00036557118
0.00043440701
0.00046692508
0.00046330277
0.0004517763
0.00045625556
0.00048038182
0.00049183373
0.00051934615
0.0005501943
0.00057679624
0.00055348125
0.00060503014
3.3457023e-05
4.8772569e-05
6.4261522e-05
6.4524272e-05
6.4139076e-05
7.1396688e-05
9.7250371e-05
0.00015125044
0.00020318295
0.00024370257
0.00027399261
0.00029835361
0.00032827378
0.00037846763
0.00044864899
0.00051746439
0.00054660971
0.00054578436
0.00054797491
0.00056854058
0.00058185233
0.00057984202
0.00059146881
0.00060918013
0.00066919058
0.00063859265
0.00072634521
3.5113716e-05
4.6283353e-05
6.3416153e-05
6.5123263e-05
6.8184887e-05
8.0513958e-05
0.0001142443
0.00017405289
0.00023293631
0.00028339002
0.00032463283
0.00036120322
0.00040381073
0.00046851083
0.00055012471
0.00062251727
0.00064824856
0.00064721643
0.00066050622
0.00068011953
0.00067196866
0.00067499607
0.00067416698
0.00068120477
0.00074331723
0.00070580909
0.00081632519
3.6169294e-05
4.2879567e-05
6.1222981e-05
6.5042186e-05
7.1116992e-05
8.7779656e-05
0.00012915951
0.00019678837
0.00026520831
0.00032721902
0.00037856256
0.00042352978
0.00047684079
0.00055617814
0.00065414634
0.00074126702
0.00077599
0.00078125942
0.00078360987
0.00078151106
0.00077114257
0.00077233376
0.00075479306
0.00076545445
0.00081767165
0.00076813969
0.00088035481
3.4334395e-05
3.9694557e-05
5.8745103e-05
6.5145611e-05
7.3959159e-05
9.5557395e-05
0.00014747892
0.00022360791
0.00030462088
0.00037695306
0.00043311465
0.00048324017
0.00054291085
0.00063004084
0.00074328372
0.0008570838
0.00091741303
0.00093379082
0.00091797281
0.00090754182
0.00090615763
0.00088931675
0.00085545893
0.000869613
0.00092454105
0.00086016441
0.00094333969
3.2070831e-05
3.7147889e-05
5.7159649e-05
6.6654955e-05
7.9137848e-05
0.00010776898
0.00016871694
0.00025296455
0.00034273497
0.00042152566
0.00048130163
0.00053602681
0.00060184798
0.00069812959
0.00082735819
0.00096826722
0.0010530376
0.0010673427
0.0010575991
0.0010684493
0.0010801257
0.0010552941
0.00099618111
0.00099809684
0.0010604423
0.00099103273
0.0010213968
3.0650586e-05
3.4793512e-05
5.4842753e-05
6.9733707e-05
8.5879324e-05
0.00012111992
0.00018886419
0.00028313675
0.00038107958
0.00046078027
0.0005214644
0.00058059407
0.00065483696
0.00076849135
0.00092670526
0.0010888461
0.0011667913
0.0011754661
0.0011858201
0.0012300715
0.0012645466
0.0012549487
0.0011842973
0.0011614403
0.0012186603
0.0011266699
0.0010991752
3.2105345e-05
3.3518525e-05
5.33269e-05
7.2105911e-05
9.1082935e-05
0.00013108504
0.00020895641
0.00031486862
0.00041580137
0.00049830034
0.00056414268
0.0006308738
0.00071854601
0.00085236119
0.001031019
0.0011910174
0.0012604465
0.0012708168
0.0012932109
0.001359945
0.0014291652
0.0014532183
0.0013969422
0.0013557684
0.0013875876
0.0012623885
0.0011850162
3.6823619e-05
3.1439709e-05
5.0810192e-05
7.1994342e-05
9.2673793e-05
0.00013751711
0.00022511216
0.0003333118
0.0004381385
0.00053081212
0.00061529693
0.00070274794
0.00081025428
0.00096501048
0.0011472612
0.0013005935
0.0013667105
0.0013811714
0.001408041
0.0014763496
0.0015677381
0.0016254035
0.0015997744
0.0015746399
0.0016068361
0.0014497794
0.0013054021
4.1690249e-05
2.8089357e-05
4.539954e-05
6.8791443e-05
9.0915107e-05
0.00013906519
0.00022653423
0.00033480747
0.00045154482
0.00056861815
0.0006814557
0.00079582046
0.00093209227
0.0011105688
0.0013075805
0.0014596739
0.0015159244
0.0015248897
0.0015431202
0.0016094177
0.001719704
0.001793929
0.0017808931
0.0017872273
0.0018565861
0.0016967592
0.0014675935
4.3905741e-05
2.5254833e-05
3.9052189e-05
6.3807914e-05
8.8087597e-05
0.00013714048
0.00022454416
0.00034368739
0.00048493679
0.0006291587
0.00076259723
0.00089654382
0.0010600599
0.0012698866
0.0014967386
0.0016613634
0.0017099745
0.0017003635
0.0017030737
0.0017759135
0.0019052022
0.0019709583
0.0019425631
0.0019566618
0.0020718427
0.001969932
0.0016822578
4.4727247e-05
2.3266081e-05
3.471802e-05
6.0167737e-05
8.6085431e-05
0.00013811181
0.00023522502
0.00037883645
0.00054967828
0.00071573428
0.00086349428
0.0010092646
0.0011903957
0.001422922
0.0016779548
0.0018598264
0.0019090873
0.0018845463
0.0018893301
0.0019766896
0.0021098399
0.002152765
0.0020991544
0.0020869928
0.0022095165
0.0022046289
0.0019205057
4.5673537e-05
2.1369735e-05
3.1264391e-05
5.6434206e-05
8.6604071e-05
0.00014876897
0.00027643921
0.0004626473
0.00066175915
0.00084001547
0.0009972201
0.0011551395
0.0013469495
0.00158655
0.0018332587
0.0019984617
0.0020582424
0.0020629838
0.002094899
0.0022019762
0.0023292335
0.0023480252
0.0022660026
0.0022260774
0.0023360243
0.002401937
0.0021644143
5.1747285e-05
2.0239913e-05
2.9162175e-05
5.4636273e-05
9.6311845e-05
0.0001930233
0.0003893008
0.00061422533
0.00081955099
0.00099690492
0.0011561641
0.0013206008
0.0015222198
0.0017582036
0.0019761732
0.0021147666
0.0021822382
0.0022210399
0.0022912419
0.0024204358
0.0025517629
0.0025606891
0.002463151
0.0024011242
0.0025208476
0.0026030352
0.0023513618
6.1561307e-05
2.0458287e-05
2.9799457e-05
6.0925871e-05
0.0001365307
0.00031746461
0.00056057655
0.00078754565
0.00098661704
0.0011614962
0.0013295332
0.0015117992
0.0017240279
0.001945822
0.0021343657
0.0022595891
0.0023325166
0.0023858053
0.0024671494
0.0026068787
0.0027550554
0.0027801157
0.0026864137
0.0026248319
0.0027643067
0.0027907273
0.0024617657
7.5480477e-05
2.1621891e-05
3.4861656e-05
9.064179e-05
0.00024484406
0.0004906244
0.00072594799
0.00093797776
0.0011341096
0.0013255009
0.0015229998
0.0017378895
0.0019674241
0.0021809823
0.0023473801
0.0024570195
0.0025217166
0.0025725225
0.0026509937
0.0027947909
0.0029541526
0.0030098649
0.0029511302
0.0029111009
0.0030182451
0.0029423794
0.0025464468
9.1355928e-05
2.5954039e-05
5.456863e-05
0.0001691171
0.00040046724
0.00063543214
0.00085230486
0.0010564061
0.0012626861
0.0014830335
0.0017237465
0.0019840501
0.0022442717
0.0024646625
0.0026184275
0.0027017368
0.0027411411
0.0027839081
0.0028615813
0.0030116539
0.0031756095
0.0032676825
0.0032656682
0.0032335631
0.0032656155
0.0030946418
0.0026546888
0.00010992334
3.8828254e-05
0.0001045849
0.00029474727
0.00053358417
0.00075748513
0.00096935306
0.0011851978
0.0014182306
0.0016750919
0.0019571283
0.0022550404
0.0025372638
0.0027579188
0.0028934514
0.0029562479
0.0029815892
0.0030198029
0.0031048045
0.003259841
0.0034303123
0.0035480666
0.0035831716
0.0035524082
0.0035267372
0.0032711934
0.0027866618
0.00013315429
6.4908565e-05
0.00018168073
0.00043393524
0.00067754125
0.00090753247
0.0011356
0.0013749677
0.0016361804
0.001925533
0.0022390634
0.0025533939
0.0028306011
0.0030332849
0.0031505941
0.0032036819
0.0032313689
0.0032808816
0.0033731658
0.0035285633
0.0036936711
0.0038048315
0.0038352678
0.003821466
0.0037696732
0.0034692877
0.0029455862
0.00016282208
0.00012129369
0.00030989388
0.00059258848
0.00084760516
0.0010934642
0.0013447741
0.0016127467
0.0019042972
0.0022205203
0.0025481078
0.0028565606
0.0031156819
0.0033022058
0.0034158234
0.0034752871
0.0035213334
0.003588736
0.0036916678
0.0038309023
0.0039564102
0.0040264999
0.004033169
0.0040312987
0.0039785473
0.0036833432
0.0031487191
0.00017987748
0.00018532294
0.00044153927
0.00075012973
0.0010274035
0.0012994273
0.0015811124
0.0018818509
0.0022046599
0.0025420946
0.002871211
0.0031690153
0.0034211051
0.0036088937
0.0037306903
0.0038059846
0.0038801542
0.0039711133
0.0040742036
0.0041709529
0.0042298968
0.0042308899
0.0042047704
0.0041770974
0.0041230437
0.0038793923
0.003383309
0.00017830257
0.00025091151
0.00058654229
0.00092503407
0.0012331513
0.0015370679
0.0018495391