/*--------------------------------*- C++ -*----------------------------------*\
| =========                 |                                                 |
| \\      /  F ield         | OpenFOAM: The Open Source CFD Toolbox           |
|  \\    /   O peration     | Version:  2406                                  |
|   \\  /    A nd           | Website:  www.openfoam.com                      |
|    \\/     M anipulation  |                                                 |
\*---------------------------------------------------------------------------*/
FoamFile
{
    version     2.0;
    format      ascii;
    arch        "LSB;label=32;scalar=64";
    class       volScalarField;
    location    "24";
    object      p;
}
// * * * * * * * * * * * * * * * * * * * * * * * * * * * * * * * * * * * * * //

dimensions      [1 -1 -2 0 0 0 0];

internalField   nonuniform List<scalar> 
62344
(
1.0045052
1.0030562
1.0027809
0.99965096
0.99058107
0.99422802
0.99037443
0.99114126
0.98600586
0.99652269
0.99987673
1.0150666
1.0226791
1.0116987
0.99886586
0.98847001
0.99717374
1.0013238
1.0019372
1.0043386
0.99015893
0.98292716
0.99487452
0.99584031
0.98930387
0.99455478
0.99660232
0.99572049
1.0001722
1.00307
1.008682
0.9967249
0.97692071
0.97253421
0.98318709
1.000804
1.0168696
1.0254423
1.0222631
1.0092469
0.98736422
0.96837359
0.96790199
0.98380238
0.99828956
0.99603054
0.99357039
1.0105186
1.0428281
1.0621358
1.0497861
1.0181235
0.99365802
0.98997493
0.99766213
1.0059047
1.0031951
1.0016712
0.99933392
0.98962358
0.99144697
0.9876244
0.98925333
0.98545621
0.9907443
1.0015509
1.0114452
1.0165602
1.0158422
1.0028286
0.99221016
0.99717339
0.99643556
0.99428808
1.0049509
1.0010653
0.98451231
0.99033896
0.9979441
0.99552697
0.99835894
0.9966367
0.990013
0.99632844
1.0052574
1.0022978
0.98596204
0.97623914
0.97844164
0.98166843
0.99767312
1.0297838
1.0380319
1.0145824
0.98620257
0.97197176
0.96649074
0.96813287
0.98751226
1.0151862
1.0259321
1.0156941
1.0074618
1.0166413
1.0363875
1.0440799
1.0248516
0.98903384
0.96072649
0.9508509
1.0062672
1.0058247
1.0004872
0.99624222
0.99083498
0.98820853
0.98802185
0.98633074
0.98871539
0.9863398
0.99931683
1.0086377
1.0107408
1.0139043
0.99924957
0.99779159
1.0031978
0.99873419
0.98864512
0.99712679
1.0016726
0.99014597
0.99120375
0.99807915
1.001323
1.0048414
0.99956575
0.9876521
0.99469073
1.00959
1.0026882
0.98142609
0.97299673
0.97681929
0.98088044
0.99864654
1.0333451
1.0458694
1.0176106
0.97701838
0.95818556
0.96416113
0.97728798
0.99084428
1.0196189
1.0470347
1.0457728
1.020643
0.99762094
0.9920721
1.002944
1.0129737
1.008648
0.99240266
0.97624513
1.0056808
1.0089238
1.0007094
0.9936685
0.99243095
0.98792423
0.99122425
0.98576822
0.98955127
0.98748106
0.99433935
1.0055565
1.0137729
1.012958
0.99583926
0.99913957
1.0051368
1.004025
0.99342952
0.99242803
0.99438192
0.99184154
0.99414819
0.99493716
1.0020665
1.0076913
0.99957686
0.98537808
0.99347594
1.0127118
1.0060557
0.98339238
0.97638272
0.98321248
0.98177191
0.99212931
1.0241571
1.0396116
1.0158254
0.97239096
0.94934946
0.96137459
0.99122263
1.0102253
1.0240255
1.0428037
1.0475634
1.0286514
0.99448547
0.96690857
0.95582096
0.96900159
0.99703382
1.018547
1.029783
1.0050642
1.0102452
1.0020126
0.99301928
0.9922986
0.98904236
0.99316808
0.98687682
0.9855701
0.98970924
0.99231613
1.0041389
1.0197609
1.0141816
0.99907055
0.99939772
0.99843701
1.0017316
1.000003
0.99467053
0.99098807
0.99087849
0.99528545
0.99126241
0.99868932
1.0052957
0.99481028
0.98079172
0.99033417
1.0107054
1.0053994
0.98418339
0.97918979
0.98891755
0.98667454
0.98790569
1.0100981
1.0234669
1.0063272
0.96873942
0.94593328
0.95723245
0.99784464
1.0345336
1.0432046
1.0357787
1.0250394
1.0118921
0.99340977
0.96813438
0.94705868
0.9414245
0.96011335
1.0005958
1.0447729
1.00492
1.0091245
1.0035201
0.99374634
0.99064165
0.98956403
0.99163519
0.98775409
0.98216101
0.98991778
0.99373478
1.0064848
1.0219475
1.0131023
1.0036153
0.99883652
0.99098816
0.99332009
1.0012237
1.0004283
0.99363523
0.98993895
0.99510727
0.9907706
0.99594778
1.0031184
0.99079388
0.97766707
0.98904769
1.0080673
1.0007287
0.98032982
0.97882813
0.99279251
0.99602705
0.99184564
0.99941743
1.005665
0.99380608
0.96788167
0.94734519
0.95587475
0.99505717
1.0422098
1.0554257
1.0355728
1.0045043
0.98216344
0.97664742
0.97489405
0.9646955
0.9536233
0.95603297
0.97619706
1.0142466
1.0051289
1.0069496
1.0038843
0.9948884
0.98854945
0.9896053
0.98691339
0.98615751
0.98296877
0.98786566
0.99535213
1.0127409
1.0187767
1.0089008
1.0054867
0.99839953
0.9900877
0.98920527
0.99931987
1.0041689
0.9979928
0.9894814
0.99442625
0.99310298
0.99594547
1.003694
0.99010818
0.97729961
0.99080344
1.0093336
0.99793207
0.97443759
0.97366901
0.99094104
1.003501
1.0023505
0.99644968
0.99137577
0.98265079
0.96841436
0.95658843
0.96027661
0.98881081
1.0316305
1.0545259
1.0409234
1.0026301
0.96764486
0.95312329
0.96160051
0.9782902
0.98770587
0.98904959
0.99154376
0.99925012
1.0053565
1.0049429
1.0028627
0.99537951
0.98717636
0.99009351
0.98239591
0.98372035
0.98604255
0.98524477
0.99565599
1.0153951
1.0137588
1.0052615
1.005306
0.99956763
0.99537627
0.99270779
0.99709038
1.0051294
0.99991224
0.9892682
0.99429352
0.9966659
0.99796616
1.0060802
0.99189323
0.97889196
0.99341714
1.0125193
0.999278
0.9721885
0.96811061
0.98442607
1.0060388
1.0138408
1.0005819
0.98173096
0.97199921
0.97031937
0.97085728
0.9747005
0.98858576
1.0142535
1.0370388
1.035227
1.0068466
0.96736769
0.94064205
0.94336565
0.97384588
1.0090968
1.0298821
1.0314887
1.0192242
1.0054517
1.0040021
1.0009425
0.99549386
0.98693762
0.99005241
0.98106033
0.98283319
0.98824289
0.98304571
0.99312003
1.0127476
1.0111345
1.0050665
1.00479
1.001364
1.0026707
1.0017605
0.99747861
1.0028049
0.99835451
0.98893558
0.99438281
0.99906552
0.99936877
1.0079322
0.99468319
0.98140414
0.99538476
1.0140561
1.000939
0.97374176
0.96544884
0.97682606
1.0026531
1.0213222
1.0081478
0.97718421
0.96082088
0.96837233
0.98342565
0.99253526
0.99502661
0.99926346
1.0105063
1.0142332
1.0026288
0.97595701
0.9492172
0.94264046
0.96366518
1.0060659
1.0453803
1.0609284
1.0494424
1.0054043
1.0041628
0.99903956
0.99544189
0.98789603
0.98896223
0.98346117
0.98393783
0.98772397
0.98168751
0.98870398
1.0074034
1.011593
1.0086397
1.0044878
1.0022625
1.0062857
1.0084336
0.99913701
0.99981742
0.99533153
0.98882103
0.99443369
0.9993567
0.99898155
1.0081884
0.99748978
0.9853102
0.99699477
1.0124185
1.0001242
0.97686935
0.96654961
0.97224263
0.99857816
1.0246207
1.0151578
0.97680798
0.9513454
0.96072883
0.9893981
1.0083953
1.0079945
0.99575808
0.98796405
0.98832892
0.98857529
0.98284335
0.96871362
0.95937668
0.96836497
0.99463145
1.0302593
1.0571829
1.0629029
1.0053215
1.0049996
0.99813051
0.99514742
0.98936806
0.98670851
0.98761661
0.9862099
0.98473575
0.98135707
0.98590004
1.0025319
1.0127318
1.014941
1.0046079
1.0005695
1.0052529
1.0081856
0.99986639
0.99776783
0.99302066
0.98917565
0.99447744
0.99762558
0.99656252
1.0063947
0.99905909
0.98933925
0.99833811
1.0079399
0.99663348
0.98002126
0.97069704
0.97082418
0.99456071
1.0243948
1.019388
0.97901555
0.9466046
0.95091619
0.98545216
1.0177848
1.0234606
1.0029491
0.97708422
0.96437823
0.96784725
0.97903094
0.98700036
0.98753449
0.98793649
0.99640765
1.0124057
1.0300483
1.0432525
1.0053163
1.0060596
0.99837244
0.99470802
0.99065139
0.98408447
0.99109375
0.98743809
0.9808739
0.98182183
0.98662045
0.99947503
1.0136188
1.0201732
1.0051324
0.99721527
1.0006084
1.0040388
0.99999011
0.99747695
0.9927663
0.99054432
0.99559518
0.99529646
0.9936811
1.0034735
0.99832852
0.99212124
0.99905084
1.0022584
0.99175502
0.98178017
0.97432733
0.97189083
0.99193392
1.0214316
1.0199386
0.98192708
0.945765
0.9432558
0.97511351
1.0174955
1.0343328
1.0154686
0.97816143
0.94925492
0.9447158
0.96432418
0.99243245
1.0119097
1.0160285
1.0126548
1.0064797
1.0049515
1.0113189
1.0054152
1.006974
0.99944859
0.99420528
0.99133665
0.98268262
0.9923451
0.98697599
0.97792452
0.98265143
0.9902682
0.998863
1.0142138
1.0221697
1.0057176
0.99438259
0.99608983
0.99902335
0.99944134
0.9991658
0.99479048
0.99282919
0.99705349
0.99359346
0.99201006
1.0010921
0.99600646
0.99255711
0.99905564
0.99692811
0.98687521
0.98271687
0.97789961
0.97443582
0.99099509
1.0171365
1.0170438
0.98406266
0.94810278
0.93932806
0.96474901
1.0092357
1.0373459
1.0276777
0.98672983
0.94583342
0.92981721
0.94516719
0.98304238
1.0210996
1.0397732
1.0349385
1.0163341
0.99660895
0.98681951
1.0055219
1.0075955
1.0009586
0.99383661
0.99113677
0.98329181
0.99121141
0.98505341
0.97639858
0.98341511
0.99434622
1.0001618
1.0138705
1.0216895
1.0059574
0.99362405
0.99415525
0.99582757
0.99867234
1.0012979
0.99778807
0.99536669
0.99838157
0.99328355
0.99250871
1.0010775
0.99401702
0.99128499
0.99831041
0.99283852
0.98320806
0.98287229
0.98127006
0.97800458
0.99098723
1.0124783
1.0117916
0.98462479
0.95249225
0.94075463
0.95776257
0.99811692
1.033799
1.0335062
0.99691708
0.952149
0.92511764
0.92986289
0.96567826
1.0142876
1.049236
1.0539983
1.0341994
1.0038939
0.97856586
1.0055731
1.0078936
1.0023968
0.99362481
0.99003614
0.98567646
0.98868197
0.98266548
0.97674108
0.98387635
0.9968625
1.001121
1.0137621
1.019568
1.0057097
0.99473181
0.99529773
0.99538355
0.9983584
1.0035744
1.0005513
0.99693331
0.99909773
0.99359952
0.99490842
1.0033949
0.99391539
0.99015086
0.99738799
0.990547
0.98091011
0.98275883
0.9840347
0.98227173
0.99140782
1.0077677
1.0056846
0.98340508
0.95763058
0.9461654
0.95648236
0.98835324
1.0244833
1.031995
1.0049744
0.96066574
0.92919649
0.92502125
0.95112955
0.99713074
1.0414945
1.0593357
1.0491032
1.0210413
0.9878922
1.0055942
1.0080506
1.0035133
0.99361837
0.98853883
0.98892321
0.98594611
0.98054895
0.9786319
0.9840815
0.9957233
1.00118
1.0149162
1.0172566
1.0051326
0.99656327
0.99907497
0.99802882
0.99852413
1.0054664
1.0021349
0.99670697
0.99855978
0.99375569
0.99819843
1.0072664
0.99595932
0.99033249
0.99705863
0.98991951
0.98058736
0.98293327
0.98626847
0.98705177
0.9931572
1.0035202
0.999718
0.98166464
0.96301387
0.95354257
0.95860306
0.98205357
1.013499
1.0252864
1.0074028
0.9706783
0.93985579
0.93033951
0.94443116
0.97945013
1.0205715
1.0487311
1.052532
1.0323003
1.000815
1.0056202
1.0080943
1.0041941
0.99369927
0.98704136
0.99204473
0.98381671
0.97938228
0.98138809
0.98424926
0.99197036
1.0008045
1.0167303
1.0158463
1.0042828
0.9985135
1.0032815
1.0019299
0.99925413
1.0066828
1.0022234
0.99456981
0.99632968
0.99344576
1.0010591
1.0109141
0.99922127
0.99208719
0.99769679
0.99071046
0.98142051
0.98298191
0.98792515
0.99206886
0.99586969
1.0002635
0.99441985
0.97914783
0.96737672
0.96141028
0.9636995
0.9797653
1.0036504
1.0159815
1.0050871
0.97803002
0.95279833
0.94196426
0.94784713
0.96905505
0.9998599
1.0277921
1.0408422
1.0354873
1.0124155
1.0056133
1.0080241
1.0042997
0.99378084
0.98596433
0.99433132
0.98267371
0.97926741
0.98425544
0.9843828
0.98714286
1.0003946
1.0189484
1.0154589
1.0033637
0.999857
1.0064514
1.0054227
0.99988842
1.007121
1.0014078
0.99152342
0.99282798
0.99251406
1.0021124
1.012687
1.0026303
0.99474712
0.99924741
0.99249971
0.98269163
0.98268902
0.9889782
0.99680854
0.99960944
0.99866135
0.9896537
0.97631534
0.96990481
0.96841795
0.97056256
0.98108395
0.99661161
1.005885
0.99946655
0.98161281
0.96437947
0.9551921
0.95614149
0.96644126
0.9840711
1.0050519
1.0200645
1.0248232
1.0157502
1.0056227
1.0078281
1.0039074
0.99389846
0.98555394
0.99517513
0.98255059
0.9800795
0.98653769
0.9843792
0.98295252
1.0000273
1.0206372
1.0157473
1.0028279
1.0004546
1.0079309
1.00719
1.0003717
1.0070725
1.0003445
0.98882393
0.98942529
0.99117261
1.001371
1.0120205
1.0044552
0.99741295
1.0011285
0.99481681
0.98389301
0.98138893
0.98889416
1.0008891
1.0040667
0.99887685
0.98591962
0.9732029
0.97016468
0.97345107
0.97793723
0.98503349
0.99304342
0.99629747
0.99113402
0.98060394
0.97229512
0.96783355
0.96702601
0.97097473
0.97771332
0.98752796
0.99886217
1.0060193
1.0082473
1.0056227
1.0075192
1.0031931
0.99406751
0.98591023
0.99474278
0.98328909
0.98139234
0.98774212
0.98420723
0.98051199
0.99979959
1.0211154
1.0162924
1.0030543
1.0008849
1.0076777
1.0073445
1.0008444
1.0066415
0.99972408
0.9874001
0.98710838
0.99011712
0.99982667
1.0095229
1.0043543
0.99933954
1.002862
0.99721438
0.98480325
0.97894036
0.98717757
1.003635
1.008651
1.000495
0.98355911
0.97020153
0.96860859
0.97591964
0.98432572
0.99065655
0.99298705
0.98912389
0.98142182
0.97605139
0.97546264
0.97807294
0.98007447
0.97977651
0.97767731
0.97695481
0.97922609
0.9852179
0.99269668
1.0055978
1.0071411
1.0023372
0.99429017
0.98690554
0.99312418
0.98455344
0.98292966
0.98761258
0.98385887
0.98014908
0.9998267
1.0203148
1.016755
1.00426
1.0013114
1.0061467
1.00604
1.0010938
1.0058948
0.99970602
0.98756944
0.9864549
0.99045457
0.9986236
1.0060361
1.0027323
1.0001549
1.0041335
0.9994128
0.98542026
0.97555379
0.98383787
1.0043194
1.0126905
1.0030135
0.9826312
0.96705234
0.96548008
0.97587009
0.98859512
0.99702171
0.99566013
0.98490981
0.97259812
0.96855202
0.97382281
0.98409026
0.99222506
0.99191198
0.98429861
0.97356232
0.96476044
0.96408142
0.97230379
1.0055694
1.0067489
1.0014664
0.99452329
0.98831634
0.99076446
0.98605196
0.98426401
0.98639857
0.9832597
0.98161475
1.0000712
1.0181431
1.0169495
1.0059871
1.002071
1.0039639
1.0038675
1.0011147
1.005019
1.0000151
0.98921773
0.98750747
0.99191942
0.99837332
1.0025211
1.0000353
1.0000313
1.0048063
1.0012827
0.98590321
0.97173008
0.97880406
1.0027877
1.0156824
1.0060925
0.9830101
0.96421125
0.96174116
0.97337348
0.99033184
1.0025787
1.0002415
0.98394809
0.96631533
0.95954252
0.96808345
0.98536822
1.0007461
1.0049017
0.99572599
0.97703923
0.9576319
0.94762476
0.95120944
1.0055349
1.006381
1.0006536
0.99472939
0.98988359
0.98813575
0.98753304
0.98537014
0.98446047
0.98229367
0.98407061
1.0005554
1.0153053
1.0169236
1.0081556
1.0031539
1.0016722
1.0010597
1.0007938
1.003997
1.0005826
0.99175652
0.98977507
0.99423051
0.99909389
0.99972751
0.99704339
0.9991579
1.0045963
1.0028021
0.9865442
0.96825572
0.97294157
0.99939053
1.0173023
1.0094004
0.98447135
0.96248207
0.95776737
0.96932566
0.98972171
1.0067602
1.0053545
0.98622469
0.96339656
0.95240985
0.95986649
0.98208144
1.0046555
1.0162141
1.0093948
0.98598866
0.95846173
0.93907588
0.93444853
1.0055231
1.0060685
0.99997505
0.99489574
0.99140803
0.98565616
0.98879732
0.98624325
0.98238032
0.98130121
0.98679227
1.0011818
1.0125245
1.0166644
1.0103681
1.0044346
0.99981032
0.99870045
1.0005109
1.0029907
1.0010656
0.99453918
0.99252599
0.99683838
1.0005065
0.99808506
0.9942047
0.99786962
1.0038692
1.0039568
0.98757878
0.96562015
0.96735373
0.99457881
1.0173916
1.0125369
0.98654916
0.96194818
0.95455796
0.96435734
0.98696889
1.0085916
1.0097814
0.99056176
0.96339493
0.94697502
0.95189079
0.97483243
1.0032197
1.0232895
1.0210337
0.99766467
0.9658379
0.93833863
0.9244727
1.0054859
1.0058287
0.99941688
0.99501237
0.99267771
0.98363879
0.98972132
0.98684305
0.9805746
0.98036045
0.98921802
1.0016875
1.0101684
1.016361
1.0121917
1.0056683
0.99861118
0.99666828
1.0001438
1.0021529
1.0015057
0.99702839
0.99502757
0.99922406
1.0020829
0.99755835
0.991885
0.99642419
1.0028973
1.0045581
0.98898867
0.96417308
0.96295991
0.98888623
1.016335
1.0147345
0.98923644
0.96289568
0.95243162
0.95969562
0.98294471
1.0083685
1.0142348
0.99587104
0.96622688
0.94472625
0.9456641
0.96593406
0.99785338
1.0255466
1.030598
1.0102269
0.97655275
0.94327019
0.92176375
1.0055156
1.0056753
0.99909552
0.99505157
0.99353975
0.98226507
0.99026623
0.98721963
0.97928306
0.97946824
0.99089733
1.0019426
1.0085469
1.0159516
1.0135851
1.0066125
0.99803184
0.99522925
0.99976771
1.0014718
1.0018238
0.99873513
0.9967748
1.000876
1.003566
0.99776797
0.99059186
0.99526927
1.0018992
1.005405
0.99073312
0.96412147
0.95812797
0.98381403
1.0144537
1.0182319
0.99292405
0.96513047
0.94942291
0.95516962
0.97755534
1.0057657
1.0181306
1.0021412
0.97155873
0.94548363
0.93916419
0.956698
0.98866153
1.0225316
1.0363741
1.0239242
0.99051353
0.9529217
0.92506916
1.0054657
1.0056246
0.99898893
0.99505287
0.99401653
0.98161713
0.9905125
0.98744982
0.97870945
0.97904308
0.99153508
1.0021693
1.0073927
1.0157569
1.0143849
1.0073753
0.99810927
0.99475392
0.999415
1.0009767
1.0018186
0.9996569
0.99777121
1.0015705
1.0042616
0.99815484
0.9906427
0.99439605
1.0009152
1.005678
0.99325318
0.96726278
0.95744284
0.97882216
1.0104941
1.0186029
0.99668778
0.9702065
0.95179278
0.95299627
0.97239127
0.99945615
1.0166386
1.0071934
0.97906806
0.95210113
0.94013684
0.95018034
0.9788517
1.0116704
1.0324013
1.0290274
1.0035905
0.96796167
0.93747444
0.91588248
0.91254461
0.91918558
0.93073943
0.94876616
0.96970768
0.98785152
0.99895241
1.0014243
0.99409072
0.9794292
0.9657664
0.95725113
0.96359093
0.98577361
1.016855
1.0424054
1.045392
1.0191118
1.0040154
1.0206451
1.0613533
1.0840206
1.0368179
0.97257558
0.95401196
0.98075339
0.92738052
0.93737557
0.95722254
0.97507002
0.99210597
1.0040401
1.0077628
1.0022331
0.9884315
0.9694155
0.95330303
0.94414197
0.94738284
0.96546868
0.99106055
1.0109678
1.0142619
0.99980394
0.98049142
0.99450291
1.0420163
1.088923
1.0880142
1.0432395
0.99611814
0.97689044
0.96411896
0.98404051
1.0019207
1.0169738
1.0284162
1.0334917
1.029642
1.0175673
1.000237
0.98195979
0.96710926
0.95939643
0.96071109
0.97417859
0.99142122
1.0010727
0.99403546
0.974145
0.9593115
0.961833
0.99987468
1.0493872
1.0725521
1.0541122
1.0290428
1.0208424
1.0075528
0.97106439
1.0509545
1.0617622
1.0624027
1.0571173
1.0463695
1.0309404
1.0139859
0.99948322
0.99070253
0.98914145
0.99624383
1.0107624
1.0242797
1.0265652
1.0093007
0.97924645
0.95418267
0.94976944
0.97368428
1.013912
1.0374045
1.0247248
1.0020532
1.0009343
1.0242081
1.0293717
0.99461733
1.0673215
1.0666353
1.0539452
1.0419504
1.0282655
1.0144997
1.0051121
1.0046125
1.011782
1.0264995
1.0452968
1.0605196
1.0618156
1.0443098
1.0134267
0.98552707
0.97066742
0.98292243
1.0108244
1.0260647
1.0083517
0.97823671
0.95839645
0.97053392
1.0064393
1.0276854
1.0241477
1.028613
1.0168476
1.0047066
0.99674898
0.99240722
0.99403776
1.0029159
1.0179516
1.0366039
1.0552433
1.0732095
1.0756083
1.0622633
1.0386396
1.0167621
1.0085649
1.0197169
1.0441714
1.0531896
1.0301245
0.98693207
0.95519918
0.9398056
0.95049235
0.98130565
1.0114763
1.0377475
0.97672823
0.96902816
0.96794402
0.97148714
0.97971753
0.99368435
1.0129498
1.0333659
1.052034
1.0649396
1.0623432
1.0493161
1.03144
1.0193217
1.0220049
1.0407877
1.0712532
1.0923711
1.0759815
1.0317141
0.98982907
0.96111091
0.94787228
0.94835109
0.96295819
0.99446422
1.0222074
0.96704677
0.97119565
0.98132458
0.99375152
1.0094323
1.0259131
1.0396968
1.0478869
1.0481361
1.0389573
1.0220307
1.0037604
0.99304361
1.001025
1.0274252
1.0633786
1.0947929
1.0966081
1.0679886
1.0352206
1.0105913
0.99275806
0.97620813
0.96345326
0.95964467
0.9746035
0.98623811
1.0131662
1.0280294
1.042603
1.0549762
1.0639391
1.0672757
1.0629677
1.0510768
1.0326104
1.010133
0.99039933
0.9783568
0.9840604
1.0052188
1.0350226
1.0646343
1.0781966
1.0621309
1.038705
1.0310807
1.0326925
1.0324641
1.0168711
0.99423725
0.97228072
0.95577378
0.94353391
1.088363
1.0977176
1.1003223
1.0993336
1.0937735
1.0822724
1.0651778
1.0454206
1.026538
1.0107292
1.0014388
1.0066825
1.0198376
1.0369463
1.0493737
1.0495065
1.032444
1.0122761
1.0068615
1.0199066
1.0378835
1.0520476
1.052764
1.0321109
0.99624922
0.94883373
0.91958844
1.1145693
1.1136272
1.1037642
1.0930898
1.0793958
1.0643491
1.0504909
1.0390891
1.0338715
1.0391643
1.052121
1.0681197
1.0798035
1.0798435
1.0648858
1.0371004
1.0060879
0.98710385
0.98902325
1.0016409
1.0222696
1.0463431
1.0655577
1.061901
1.0224854
0.96376978
0.92673887
1.0743148
1.0644625
1.0535936
1.0435569
1.0352049
1.0302587
1.0301616
1.0373067
1.0524703
1.0732948
1.0943098
1.1105405
1.1170121
1.1071372
1.0805018
1.0479989
1.0178732
0.99702008
0.98805463
0.98807734
1.0002884
1.0270945
1.0556333
1.0646625
1.0396122
0.99687162
0.96715687
1.0102824
1.0030182
0.99935915
0.99819297
0.99981556
1.0069512
1.0202785
1.038105
1.05806
1.0752716
1.0880213
1.0955092
1.0963512
1.0917611
1.084032
1.0714931
1.0507523
1.029154
1.0063875
0.98965953
0.99271069
1.0092131
1.0302828
1.0385824
1.0371974
1.0366069
1.0349709
0.98307525
0.98292399
0.98704298
0.99341197
1.0018591
1.0126203
1.023896
1.0346504
1.0422808
1.0471237
1.0487188
1.0495763
1.0507529
1.055597
1.0650284
1.0708316
1.0672448
1.0531223
1.035413
1.0201287
1.0101382
1.0024438
0.99806478
0.99846161
1.0199329
1.0673083
1.1038875
1.0037462
1.0098805
1.0192618
1.0267081
1.0320291
1.0349025
1.0355459
1.0335319
1.0293102
1.0228448
1.0172068
1.0142998
1.0159233
1.0203634
1.0277316
1.0363335
1.0466435
1.0547211
1.0620795
1.0578383
1.0393445
1.0073351
0.97450074
0.96320364
1.0002636
1.0770969
1.1393001
1.0535093
1.0587156
1.0603771
1.0614133
1.0615004
1.0601943
1.0556381
1.0473413
1.0363577
1.024369
1.0126083
1.0022542
0.99482746
0.98998942
0.98888984
0.9952601
1.0122403
1.0385399
1.0639469
1.0720149
1.0539518
1.013232
0.97307694
0.95804818
0.99336407
1.0687552
1.1185188
1.0831513
1.0858592
1.0845773
1.0839644
1.0821771
1.0791292
1.0737678
1.0660533
1.0565236
1.045151
1.0312056
1.0156693
0.99841849
0.98314462
0.97528428
0.97883675
0.99470938
1.0172925
1.0396298
1.0495243
1.0399819
1.0175552
0.99377475
0.98761325
1.0106304
1.0408624
1.0479424
1.0907725
1.0906297
1.0890595
1.0879728
1.0868233
1.0847635
1.0811757
1.075668
1.0683399
1.0593142
1.048236
1.0341028
1.0189346
1.0054431
0.99775741
0.99584522
0.99755617
1.0004453
1.0038156
1.0079772
1.01404
1.0244339
1.0336181
1.0403668
1.0343018
1.0032905
0.96312291
1.0855686
1.0843509
1.0821795
1.0800641
1.0772681
1.0741943
1.0707527
1.0663451
1.0611563
1.0568774
1.0534042
1.0511121
1.0488218
1.0441624
1.0368262
1.0240226
1.0057603
0.98743372
0.97488369
0.9782264
0.99858621
1.0355169
1.0752893
1.0873787
1.0488642
0.97325457
0.9012898
1.0684614
1.0662574
1.0633204
1.0602875
1.0567324
1.0531733
1.0500874
1.0483735
1.0488622
1.0522905
1.0586903
1.0667524
1.0727649
1.0717923
1.0597518
1.0367255
1.007151
0.9802168
0.96622563
0.97062809
0.99635414
1.0434295
1.0940617
1.1063233
1.0588763
0.96563629
0.87698116
1.0400616
1.0373247
1.0350014
1.0332427
1.0321792
1.0328451
1.0358113
1.0412353
1.0492137
1.0596959
1.0709299
1.0796019
1.0823843
1.0765168
1.0585973
1.0329826
1.0059822
0.98395464
0.97297578
0.97629346
0.99715218
1.03501
1.0763419
1.0925842
1.0619223
0.98324187
0.89504276
1.0133925
1.0116231
1.0117837
1.0138036
1.0179886
1.0251107
1.0351022
1.0471834
1.0600655
1.0716647
1.0797116
1.0821273
1.0777344
1.0654657
1.0485718
1.0295705
1.0120188
0.99700091
0.9866165
0.98316836
0.98909864
1.0075612
1.0310553
1.0524541
1.0488514
1.0088352
0.95051882
1.0017609
1.0017615
1.0045226
1.0094667
1.016667
1.0264558
1.0384375
1.0512605
1.0630735
1.072211
1.0757381
1.0730772
1.0659872
1.0567518
1.0461796
1.0358877
1.0262385
1.0147423
1.0007953
0.98621209
0.97463806
0.96946048
0.97474197
0.99157554
1.012938
1.0236877
1.0206389
1.005909
1.0075688
1.0107912
1.0151987
1.020821
1.027627
1.0353768
1.043257
1.0496778
1.053495
1.0545807
1.0534665
1.0518585
1.0503574
1.0490948
1.0485498
1.0457218
1.0382546
1.0207734
0.99320819
0.96278881
0.93809262
0.92356891
0.9282874
0.96153624
1.0119541
1.0670064
1.0181462
1.019598
1.0213478
1.022462
1.0228499
1.0229781
1.0230673
1.0230726
1.0229737
1.0232454
1.0246258
1.0277968
1.0330789
1.0401045
1.0493434
1.0593772
1.0668846
1.0686274
1.0540285
1.0189158
0.97061139
0.92412473
0.88987828
0.87904892
0.90719061
0.97380323
1.061035
1.030813
1.030603
1.0294567
1.0270697
1.0226878
1.0163314
1.0091136
1.0021378
0.9964954
0.99338894
0.99409199
0.99907275
1.0081466
1.0207427
1.0387012
1.0599815
1.0817771
1.0985638
1.1004323
1.0701649
1.0084019
0.93773114
0.88247181
0.85395255
0.86500465
0.92167671
1.008194
1.0460081
1.0451872
1.0421267
1.036505
1.0280037
1.0164886
1.0029771
0.98938474
0.9777173
0.96954058
0.96594891
0.96784666
0.97577866
0.99038166
1.0132708
1.0436538
1.0802704
1.1185011
1.1427321
1.131943
1.0739917
0.98591546
0.90746055
0.86003835
0.84652119
0.87378353
0.93636092
1.0758057
1.0747173
1.0699988
1.0610267
1.0475292
1.0295149
1.0080176
0.98520581
0.96382177
0.94627617
0.93411896
0.92927615
0.93323394
0.94756257
0.97306825
1.0105866
1.0590295
1.1127515
1.1618722
1.178215
1.1439395
1.0628772
0.96598141
0.89329706
0.85139232
0.84397452
0.87586522
1.1238709
1.1214784
1.1134862
1.0990913
1.0780471
1.0508269
1.0188487
0.98445451
0.95055091
0.92061302
0.89731119
0.8828922
0.88041144
0.89202875
0.9189597
0.96106274
1.0163107
1.0796285
1.1453457
1.1883111
1.186671
1.1349977
1.0473895
0.94975945
0.87580544
0.83858825
0.84437851
1.1626401
1.1586578
1.1470511
1.1270073
1.0986823
1.0626806
1.020999
0.9768457
0.93371188
0.89496258
0.86366459
0.84282879
0.83547229
0.84345079
0.86911731
0.91096531
0.96512887
1.0290269
1.0940278
1.1484301
1.1771247
1.1597826
1.10262
1.0147912
0.92134738
0.85876845
0.84328904
1.1560622
1.1513117
1.1376591
1.1153332
1.0857629
1.0495666
1.0088096
0.96621262
0.92462244
0.88761977
0.85825313
0.83770308
0.82894406
0.83470122
0.85714177
0.89211636
0.93683106
0.9880062
1.0409335
1.0849056
1.1166622
1.1243681
1.0958544
1.0394751
0.9655534
0.89711163
0.86875687
1.1004787
1.0926175
1.0808326
1.0635229
1.0407893
1.0142522
0.98492494
0.95502057
0.92656687
0.90131038
0.88170167
0.86961751
0.86778259
0.87558282
0.89389392
0.91840002
0.94657839
0.97675033
1.0072626
1.0314706
1.042411
1.045215
1.0377066
1.0117705
0.97787085
0.93623686
0.90852811
0.99548282
0.99168184
0.98565334
0.9795155
0.97353569
0.96650747
0.95766576
0.94706736
0.93623977
0.9291969
0.92965544
0.93765902
0.9523063
0.97037572
0.98541292
0.99877006
1.0023828
1.0031117
0.99938376
0.9892594
0.97468743
0.96280773
0.95629178
0.95601659
0.95899034
0.95604939
0.95040553
0.8780952
0.87755955
0.87895438
0.88195874
0.88700075
0.89351885
0.90288148
0.91461082
0.92844466
0.94869189
0.97850996
1.0166959
1.0581931
1.0946074
1.1148648
1.1150272
1.0911504
1.0494815
1.0015967
0.95646869
0.91676709
0.8892479
0.88561794
0.90155621
0.92877648
0.95744483
0.98577546
0.77500011
0.77608628
0.7801239
0.78801846
0.80094698
0.81936956
0.84326084
0.87425511
0.91248759
0.96142254
1.0204892
1.0891251
1.1576926
1.2127694
1.2358967
1.2187238
1.1621418
1.079479
0.99847915
0.92510014
0.86809406
0.83571549
0.83226481
0.85855233
0.90364487
0.95728113
1.0211924
0.68842578
0.69134033
0.69835093
0.7111706
0.73121828
0.75913838
0.79561818
0.84295149
0.90353713
0.97492575
1.0602444
1.1558339
1.2502139
1.3217413
1.3438315
1.2981517
1.2071308
1.0906148
0.98272955
0.89273428
0.83204069
0.80538071
0.80803904
0.84118359
0.89756711
0.96962398
1.0648352
0.63185172
0.63707816
0.64663222
0.66357449
0.68842878
0.7226268
0.7685205
0.82657987
0.90150152
0.99482225
1.1094067
1.2368566
1.3543686
1.4210126
1.4005073
1.2931992
1.1525401
1.0230602
0.91710498
0.84415846
0.80776434
0.79795624
0.81272687
0.85364868
0.91349592
1.0041548
1.1156223
0.63317208
0.63891271
0.64904169
0.66712823
0.69365051
0.72941064
0.77743587
0.84432888
0.93377741
1.0453438
1.1745002
1.2981738
1.3715293
1.3657411
1.2723884
1.1348885
1.0090526
0.91339064
0.84900623
0.81479778
0.80311694
0.81082126
0.83821038
0.88479331
0.95606351
1.0519356
1.1450079
0.70216154
0.70743654
0.71690303
0.73353678
0.75782708
0.79310431
0.84982569
0.92928914
1.0232195
1.1207296
1.2083178
1.2635338
1.2675691
1.2132588
1.1217634
1.0177848
0.93100422
0.86593018
0.82460073
0.80806045
0.81375618
0.83964369
0.88321763
0.94145607
1.0117449
1.0837744
1.1312763
0.77584101
0.77960049
0.78718411
0.8013245
0.82756448
0.87411987
0.93534104
1.0021858
1.0684005
1.126987
1.1695313
1.1865524
1.1720373
1.1266886
1.0601944
0.98587244
0.91758504
0.86762922
0.84006476
0.83573766
0.85421367
0.89050918
0.93767161
0.98868111
1.0367584
1.0754887
1.0927622
0.82543233
0.82986339
0.83856131
0.85417951
0.88114997
0.91616663
0.95829663
1.0043426
1.0504995
1.0911042
1.1199603
1.1332196
1.1280836
1.1026197
1.0578277
1.0003894
0.94467864
0.90423287
0.88390816
0.88491472
0.90403209
0.93523688
0.97166136
1.0095299
1.0377255
1.0551171
1.0536224
0.85180401
0.85513568
0.86303243
0.87702169
0.89595131
0.91983339
0.9496029
0.98302071
1.0148063
1.0422439
1.0637597
1.0767641
1.0796489
1.0686361
1.0407406
1.0019038
0.96345206
0.9360984
0.92575422
0.93231751
0.95188243
0.9778248
1.0038296
1.0258544
1.0384129
1.0321539
1.0094008
0.89671106
0.89983453
0.90706611
0.91773405
0.93159051
0.94961025
0.97013285
0.98970867
1.0066674
1.0198617
1.0275708
1.0296925
1.0248132
1.0103458
0.98878931
0.96789336
0.95380113
0.9503977
0.95965588
0.97962559
1.0040442
1.0265757
1.0423952
1.047437
1.0376708
1.0102347
0.97002915
0.95588282
0.95896873
0.96563606
0.97506897
0.98620193
0.99761193
1.0069579
1.0125185
1.0130336
1.0080736
0.99691588
0.9788605
0.95436644
0.92743117
0.90770793
0.90238248
0.91431571
0.94234765
0.98304645
1.0286648
1.0673412
1.0906346
1.0939854
1.0754825
1.0406169
0.99610762
0.95142162
1.0644098
1.0620249
1.0618363
1.0608679
1.0576939
1.0512998
1.0406855
1.0263624
1.0072598
0.98155042
0.94838375
0.91009147
0.87220021
0.84257255
0.827125
0.83071266
0.85843484
0.91271802
0.99054376
1.0764922
1.1430417
1.1676009
1.145933
1.0964742
1.0414713
0.9943282
0.95509443
1.2065732
1.1973749
1.1778272
1.1507419
1.1183862
1.0827518
1.0451501
1.0057534
0.96464322
0.9230117
0.88334953
0.8485494
0.82117527
0.80419657
0.80010594
0.81125742
0.84084023
0.89206193
0.96822348
1.0657077
1.1660939
1.2245997
1.2081377
1.1321538
1.0375177
0.96082601
0.91269974
1.2241743
1.2167541
1.1976627
1.1689159
1.1328729
1.0915649
1.0469167
1.0015994
0.95814862
0.91870764
0.88495901
0.85857291
0.84072165
0.83207355
0.83236411
0.84078693
0.85899028
0.88210594
0.91127512
0.94342434
0.98073509
1.0187288
1.0865493
1.1570247
1.2110582
1.2162369
1.13151
1.1073049
1.1059759
1.1001104
1.0898957
1.0756011
1.0582028
1.0389457
1.0193379
1.0008044
0.98442408
0.97127549
0.96208935
0.95687307
0.95433284
0.95196398
0.94699711
0.93812841
0.9213932
0.89625822
0.86218062
0.82316887
0.79618177
0.81133272
0.9007902
1.0884698
1.3072815
1.4113355
1.0450261
1.0440282
1.041191
1.0366016
1.0308363
1.0247623
1.0195073
1.0160617
1.0153821
1.0184173
1.0254171