/*--------------------------------*- C++ -*----------------------------------*\
| =========                 |                                                 |
| \\      /  F ield         | OpenFOAM: The Open Source CFD Toolbox           |
|  \\    /   O peration     | Version:  2406                                  |
|   \\  /    A nd           | Website:  www.openfoam.com                      |
|    \\/     M anipulation  |                                                 |
\*---------------------------------------------------------------------------*/
FoamFile
{
    version     2.0;
    format      ascii;
    arch        "LSB;label=32;scalar=64";
    class       volScalarField;
    location    "24";
    object      p_0;
}
// * * * * * * * * * * * * * * * * * * * * * * * * * * * * * * * * * * * * * //

dimensions      [1 -1 -2 0 0 0 0];

internalField   nonuniform List<scalar> 
62344
(
1.0045642
1.0030496
1.0021955
1.0003829
0.9899304
0.99423833
0.99011731
0.99132594
0.98490642
0.99578583
1.0001655
1.0132534
1.0233873
1.013598
1.0016517
0.98827139
0.99443905
1.0000811
1.0020061
1.0064723
0.99404906
0.98273304
0.99332341
0.99675835
0.99046436
0.99322087
0.99684919
0.99493964
1.0006559
1.0023942
1.008926
1.0006944
0.98043228
0.97232213
0.98095462
0.99841356
1.014169
1.023167
1.023253
1.0151378
0.99545828
0.97361629
0.96635753
0.97888826
0.9948217
0.99477658
0.98907124
0.99942425
1.0306676
1.058604
1.0578699
1.030926
1.0022784
0.99250239
0.99932164
1.0060587
1.003386
1.0009791
0.99932395
0.98974472
0.99125158
0.98720026
0.98881728
0.98595705
0.98968785
1.0005255
1.0112155
1.0157918
1.0155493
1.0048543
0.99284393
0.99627381
0.99620159
0.99219569
1.0030366
1.003605
0.98687427
0.98988346
0.99898026
0.99747177
0.99865296
0.99865327
0.99041042
0.99584786
1.0051416
1.0051387
0.98992765
0.97679209
0.97725913
0.97957258
0.99173524
1.0236803
1.0403276
1.0226932
0.99299847
0.97563586
0.96860086
0.96615608
0.97900065
1.0067316
1.0236117
1.017009
1.0063792
1.0114322
1.0323673
1.0485466
1.0403009
1.0072435
0.97255873
0.95270945
1.0062935
1.0059086
1.0007156
0.99589608
0.99165636
0.98827751
0.98846644
0.98621029
0.9898978
0.98638077
0.99726988
1.0092507
1.0097546
1.0133125
0.9995739
0.99648678
1.003239
1.0004621
0.98829832
0.99407254
1.0015031
0.99157957
0.99116247
0.99803469
1.0017669
1.0051808
1.002293
0.98857013
0.99253579
1.0085432
1.0062885
0.98551131
0.97334368
0.97511196
0.97762246
0.99186486
1.0259221
1.0478028
1.0282675
0.98630388
0.96127752
0.96187653
0.9737814
0.98348521
1.0078947
1.0394395
1.0483906
1.0290237
1.0044094
0.99355546
1.0012176
1.0146103
1.0164467
1.0026294
0.98342305
1.0053975
1.00876
1.0016896
0.99343482
0.99333966
0.98845415
0.99223338
0.98659677
0.99013961
0.98821689
0.99344895
1.0048045
1.0128443
1.0142342
0.99620606
0.99743393
1.0043833
1.005673
0.99531565
0.99274007
0.99371273
0.99118132
0.99337528
0.99366548
1.0002398
1.0072198
1.0021908
0.98679879
0.9907061
1.0108554
1.0091317
0.98683136
0.97623457
0.98240744
0.98125177
0.98664093
1.017122
1.0407532
1.02624
0.98288043
0.95177168
0.95553054
0.9832464
1.0041146
1.0164507
1.0355967
1.0489445
1.0401363
1.0091141
0.97810374
0.95951651
0.96251457
0.98683434
1.0120246
1.0269508
1.0045418
1.0097401
1.0028126
0.99315393
0.99284551
0.98929787
0.99402497
0.98840657
0.98554194
0.98972725
0.99291977
1.0021381
1.01833
1.0163763
0.99976719
0.99934908
0.99821197
1.001838
1.0017311
0.99706757
0.99161888
0.98964803
0.99454811
0.99078644
0.99660355
1.0050942
0.99760721
0.98285269
0.98833272
1.0096554
1.0087046
0.98719244
0.97856213
0.98805721
0.98804285
0.98536327
1.0050834
1.0245969
1.0145958
0.9782591
0.94791701
0.94945535
0.98402369
1.0251368
1.0408452
1.0377227
1.0300917
1.0191865
1.0048836
0.98006617
0.95449236
0.94046347
0.94743811
0.97974387
1.0246325
1.0043775
1.0084831
1.0035788
0.99424603
0.9907185
0.98940859
0.99190284
0.98893163
0.98195072
0.98921401
0.99456082
1.0044658
1.0208527
1.014754
1.004028
1.0002197
0.99195771
0.99213667
1.0007031
1.0018351
0.99517966
0.98996126
0.99539715
0.99207867
0.99524551
1.0041801
0.99414395
0.9793587
0.98704617
1.0078755
1.0048656
0.98330848
0.97795642
0.99118729
0.99720504
0.99212417
0.99769141
1.0071488
0.99964366
0.97507234
0.9490181
0.9477908
0.97983245
1.029599
1.0552618
1.0447421
1.0152393
0.989071
0.97908702
0.97856957
0.97092389
0.95613377
0.94994756
0.96114507
0.9913849
1.0047813
1.006425
1.0033181
0.99567175
0.98814276
0.98959022
0.98692525
0.98624328
0.98271049
0.98710634
0.99436788
1.011484
1.019641
1.0094467
1.0056325
0.99978693
0.9913986
0.98793658
0.99681873
1.003371
0.99946526
0.9906523
0.99534351
0.9951075
0.99619334
1.0055952
0.99383523
0.9777287
0.98736876
1.0087969
1.0023573
0.97750868
0.97224789
0.98808269
1.0028692
1.0037172
0.99829517
0.99372609
0.98674069
0.97241439
0.95762431
0.95454764
0.97589606
1.018098
1.0516704
1.0499975
1.017
0.97820429
0.95548246
0.9573523
0.97241919
0.98413219
0.98605599
0.98549762
0.99021884
1.0052328
1.0047695
1.0021518
0.9962302
0.9865968
0.99053906
0.98283867
0.98290314
0.98533215
0.98490923
0.99324672
1.01499
1.0162321
1.0050264
1.0051788
1.0001178
0.99632079
0.9922841
0.99494798
1.0031017
1.0010656
0.99043956
0.99446638
0.99754669
0.9976633
1.0073383
0.99539655
0.97831685
0.98863813
1.0112518
1.0036547
0.97534143
0.96662872
0.98054081
1.0025113
1.0144381
1.0051316
0.98622243
0.97446065
0.97097541
0.97013307
0.97139186
0.98134453
1.0054747
1.0335671
1.0409178
1.0212557
0.98246416
0.94772977
0.93732415
0.95849984
0.99410346
1.0207516
1.0297614
1.0226155
1.0055174
1.0041524
1.0005825
0.99619902
0.98649514
0.99074866
0.98189783
0.98161974
0.98776426
0.98324566
0.99038179
1.0126093
1.0132408
1.0048986
1.0044055
1.0010242
1.0022558
1.0022653
0.99721369
1.0015286
0.99928014
0.98919315
0.99310766
0.99838508
0.99789605
1.0077111
0.99745412
0.98066645
0.99049468
1.0128963
1.0054443
0.97731661
0.96482082
0.97302496
0.9967941
1.0199202
1.0138921
0.98436165
0.9630518
0.96583444
0.97994481
0.98993876
0.99343334
0.99670796
1.0080365
1.017021
1.0107961
0.98767654
0.95729785
0.94040772
0.94970992
0.98527492
1.0284395
1.0551323
1.0559584
1.0055141
1.0044535
0.99922068
0.99574955
0.98795296
0.98951716
0.9839918
0.98343098
0.98812065
0.98236823
0.98721175
1.0063813
1.0124925
1.0088704
1.0042255
1.0015596
1.0055204
1.009626
1.001037
1.0003735
0.99645225
0.98835025
0.99240408
0.99790267
0.99695133
1.0068336
0.99937643
0.98488604
0.99365654
1.0123063
1.0049243
0.98069405
0.96733398
0.96905826
0.99149585
1.0213875
1.0207887
0.98619598
0.954607
0.95578149
0.98234888
1.0049042
1.0090587
0.99911682
0.99002982
0.98962065
0.99072194
0.98695316
0.97370547
0.95949341
0.96001821
0.97920929
1.0128831
1.0463993
1.063552
1.005366
1.0051928
0.99862944
0.99490985
0.98992322
0.98676146
0.98750178
0.98680183
0.98616895
0.9822645
0.98588024
1.0008212
1.0117729
1.0153705
1.0050484
1.0002489
1.0043075
1.0098455
1.0024863
0.99971681
0.99454561
0.98880784
0.99290648
0.99706244
0.99531171
1.0050345
1.0004928
0.98931196
0.99674204
1.009277
1.0013217
0.98347908
0.97239705
0.96885801
0.98759225
1.02
1.0244683
0.98953246
0.9509736
0.94583453
0.9752952
1.011074
1.0247914
1.0106289
0.98442598
0.96735807
0.96665226
0.9760578
0.98466412
0.98620816
0.98398034
0.98964165
1.0036188
1.0225691
1.0389805
1.0052343
1.0060088
0.99882342
0.99391223
0.99147448
0.98378648
0.99035418
0.98896743
0.98264964
0.98246243
0.98721103
0.99816747
1.0115049
1.0205652
1.0066924
0.99774242
0.99987167
1.0048049
1.0017322
0.99949589
0.9944011
0.99065435
0.99543303
0.99642818
0.99398505
1.0032098
0.99991322
0.99226796
0.99877864
1.0046937
0.99556543
0.98439043
0.97632987
0.97095708
0.98589612
1.0168853
1.0243823
0.99260466
0.95142145
0.93929423
0.96393217
1.0070769
1.0335462
1.0245144
0.99004546
0.95675924
0.94371038
0.95597407
0.98195466
1.0046967
1.0136785
1.0122869
1.0080822
1.0047598
1.0092268
1.0051988
1.0066546
0.99965671
0.99319191
0.99214375
0.98237947
0.99128307
0.98871889
0.97925146
0.98251856
0.99043209
0.99845194
1.011699
1.0226284
1.0081165
0.99559714
0.99572678
0.99859319
0.99970378
1.0001781
0.99594626
0.99306106
0.99784792
0.99586263
0.99334309
1.0019246
0.99808312
0.99254913
0.99928414
0.99962497
0.98949608
0.98393627
0.97955117
0.97384912
0.98569879
1.0133216
1.0211651
0.99408276
0.95475566
0.93726109
0.95437554
0.99654378
1.0329191
1.0349855
1.0011046
0.95728858
0.9313788
0.93592173
0.96732752
1.0065787
1.0331359
1.0370035
1.0237881
1.0043465
0.99090179
1.0051971
1.0070749
1.000815
0.99297321
0.99157153
0.9831155
0.99045787
0.9865161
0.97684127
0.98240554
0.99383044
1.0004559
1.0119655
1.0219119
1.0085803
0.99497589
0.99420563
0.99495204
0.99764889
1.0009756
0.99812635
0.99514609
0.99929318
0.99533729
0.99361701
1.0022955
0.99640415
0.9909425
0.99831101
0.9952222
0.98443148
0.98265973
0.98197181
0.97743194
0.98650828
1.0096671
1.0158237
0.99354431
0.95919448
0.94031133
0.94971521
0.98511654
1.0265517
1.0380335
1.0112119
0.96561877
0.93064397
0.92353383
0.94889253
0.9943432
1.0366808
1.0535639
1.0435405
1.01698
0.98899874
1.0051767
1.0072633
1.0020219
0.99329441
0.98998638
0.98561307
0.98864564
0.98339043
0.97630428
0.98227185
0.99578028
1.0017348
1.0128829
1.0197206
1.0078495
0.99590177
0.99551988
0.99458301
0.99660743
1.0022291
1.0002759
0.9961695
0.99947824
0.99489915
0.9945826
1.0043064
0.99628986
0.98947758
0.99686479
0.99238324
0.98128919
0.98155291
0.98383415
0.98160168
0.98814233
1.0058571
1.0097152
0.99098593
0.9637981
0.94681878
0.95079337
0.97752414
1.0157745
1.0337289
1.0171696
0.97497553
0.93664475
0.92174534
0.93706562
0.97699936
1.0246385
1.0542487
1.055401
1.0344057
1.0031941
1.0051674
1.0073854
1.0030813
0.99398766
0.98810641
0.98888253
0.98669021
0.98050118
0.97764792
0.98249616
0.99475445
1.0013296
1.014538
1.0177757
1.006501
0.99701895
0.99892087
0.99786205
0.9968023
1.003799
1.0019049
0.99578454
0.99830466
0.99404788
0.99648246
1.0070746
0.9981815
0.98958299
0.99617555
0.99135529
0.98045698
0.98119633
0.98545455
0.98633821
0.99104453
1.0025441
1.0035923
0.98751813
0.96763961
0.9547761
0.95507766
0.97390863
1.0052256
1.0251997
1.0162744
0.98308229
0.94761377
0.92973284
0.93509566
0.96283023
1.0033081
1.038379
1.0528791
1.0430469
1.0166089
1.0051982
1.0074968
1.0038306
0.99469904
0.98638935
0.99197315
0.98520121
0.97881269
0.98024514
0.98323788
0.99118178
1.0000343
1.0162926
1.0168853
1.0050597
0.99821496
1.0028076
1.0026039
0.99829907
1.0054322
1.0027659
0.99418852
0.99576862
0.99299338
0.99818844
1.00988
1.0011198
0.99154964
0.99688874
0.99197114
0.98130139
0.98127623
0.98679087
0.99132982
0.99497
1.0004021
0.99789287
0.98358586
0.97008496
0.96249803
0.96160868
0.97382508
0.99728143
1.0149634
1.0112643
0.98764743
0.95970755
0.9428121
0.94245059
0.95825227
0.98605569
1.0164912
1.0364641
1.040216
1.0253592
1.0052369
1.0075148
1.0041443
0.99522794
0.98530276
0.9940933
0.984453
0.97847312
0.98323894
0.98427253
0.98657295
0.9984401
1.0181416
1.016998
1.0039208
0.99908004
1.0056494
1.0067765
0.99983754
1.0066044
1.0029922
0.99210369
0.99253696
0.99163862
0.99885194
1.0112947
1.0043005
0.9946559
0.99891369
0.99392045
0.98314529
0.98149425
0.98760599
0.99603262
0.9997473
0.99999356
0.99296489
0.97948568
0.97086887
0.96861585
0.96939029
0.97759272
0.99263819
1.0049202
1.0034945
0.98770911
0.96912089
0.95667289
0.95321439
0.96021106
0.97513086
0.99566183
1.0145064
1.0242987
1.0223187
1.0053091
1.0074294
1.0039706
0.99552828
0.98503263
0.9947641
0.98441493
0.97935914
0.98584266
0.98515619
0.98259239
0.99710297
1.0193501
1.017683
1.0034387
0.99947374
1.0069162
1.0089799
1.0009498
1.0072171
1.0027844
0.99033716
0.98978737
0.99042759
0.99849745
1.0108607
1.0060781
0.99780688
1.0014294
0.9966579
0.98535036
0.98104499
0.98730583
0.99986169
1.0048447
1.0013806
0.98948964
0.97538655
0.96977472
0.97231678
0.97673737
0.98316978
0.99140616
0.99674916
0.99404505
0.98392571
0.97430588
0.96860023
0.96581776
0.96782675
0.97327282
0.98210848
0.99392656
1.0037332
1.0092547
1.0053721
1.0072351
1.0034195
0.99559315
0.98559734
0.9942293
0.98493269
0.98091895
0.98745446
0.98558591
0.98025601
0.99644306
1.0196625
1.0184054
1.0039303
0.99992093
1.0066369
1.0091803
1.0016754
1.0071585
1.0025059
0.98942284
0.98806328
0.98978662
0.99780437
1.0088771
1.0060801
0.99998516
1.0036102
0.99949605
0.98735162
0.97949957
0.98539813
1.0019947
1.0095994
1.0040074
0.98778726
0.97196315
0.96717218
0.97334578
0.98227078
0.98964594
0.99349512
0.99157385
0.98424804
0.97710541
0.97484488
0.97654554
0.97877877
0.97901357
0.97763558
0.97668801
0.97790406
0.98316192
0.9904236
1.0054048
1.0069528
1.002628
0.99547095
0.98681407
0.99267831
0.98575998
0.98279717
0.98775306
0.98539311
0.97988937
0.99670477
1.0189328
1.0187325
1.0052399
1.0007391
1.0052889
1.0076288
1.001869
1.006517
1.00235
0.98962408
0.98763017
0.99026865
0.99748428
1.0060119
1.0043504
1.0008147
1.0050255
1.0019026
0.98895756
0.97700368
0.98167068
1.0017491
1.0134116
1.007164
0.98763897
0.96922823
0.96358751
0.97194415
0.98515844
0.99577141
0.99784084
0.98946496
0.97626521
0.96873459
0.97085749
0.97982478
0.98930122
0.99196943
0.98711681
0.97786031
0.96841221
0.96447557
0.96885177
1.005423
1.0066342
1.0017314
0.99519606
0.98841983
0.99055668
0.98670362
0.98447518
0.9868101
0.98454441
0.98127332
0.9976046
1.0170568
1.0184541
1.006975
1.001853
1.0035446
1.0049483
1.0016467
1.0054963
1.0021795
0.99090583
0.98844437
0.99159728
0.99795914
1.0031054
1.0013321
1.0003238
1.005565
1.0036341
0.9901435
0.97394816
0.97649749
0.99904794
1.0157335
1.010426
0.98885829
0.96727296
0.95989725
0.96872735
0.98542439
1.0004908
1.0032825
0.99017515
0.97136312
0.96015424
0.9634749
0.97834508
0.99537553
1.0039993
0.99983584
0.98512124
0.96591222
0.95187924
0.94916845
1.0054275
1.0063208
1.0008416
0.99482275
0.9901205
0.9882529
0.98759189
0.98586107
0.98514548
0.9831031
0.98360801
0.99899339
1.0147512
1.0177372
1.0089845
1.0032576
1.0018702
1.0016141
1.0009124
1.0042354
1.0019081
0.99279921
0.99018567
0.99359779
0.99926741
1.0008031
0.99787952
0.99880671
1.0049744
1.0047448
0.9910944
0.97110146
0.97041936
0.99462983
1.0163543
1.0134711
0.99102832
0.9664164
0.9567248
0.96453766
0.98350338
1.003412
1.0085323
0.9934487
0.96999358
0.95397212
0.95477801
0.97303697
0.99666394
1.0129294
1.0135688
0.99651433
0.96996039
0.94686038
0.9354129
1.0054284
1.0060539
1.0000607
0.99442291
0.99170469
0.98611974
0.98830923
0.98693126
0.98323494
0.98147633
0.98613593
1.0005624
1.012454
1.016773
1.0109484
1.0050905
1.0005648
0.99854549
1.0002908
1.0030114
1.00169
0.99483965
0.99236078
0.99583362
1.0009685
0.99943242
0.99478362
0.99685014
1.0037043
1.0053605
0.99210404
0.96885828
0.96452113
0.98881565
1.0151867
1.016231
0.99352826
0.96647554
0.95420676
0.95990091
0.97989505
1.0041849
1.0122966
0.99844178
0.97142312
0.94973236
0.94707514
0.96502488
0.99272445
1.0173457
1.0245684
1.0090154
0.97926462
0.94900051
0.92848635
1.0054043
1.0058417
0.99943313
0.99407748
0.99300339
0.98441606
0.98880549
0.98770327
0.98150843
0.98002817
0.98838762
1.0019821
1.0104268
1.0156376
1.0124704
1.0065869
0.99979064
0.99595755
0.99950453
1.0019558
1.0014122
0.9966866
0.99435964
0.99782209
1.0028249
0.99909181
0.99238682
0.99486217
1.0022005
1.0055435
0.99337835
0.96771565
0.95977895
0.98246836
1.0129501
1.018195
0.99630088
0.96777027
0.95264963
0.95558255
0.97554249
1.0029522
1.0162844
1.0039753
0.97547804
0.94875869
0.94170898
0.95598709
0.98530138
1.0171722
1.0324263
1.0216673
0.99187996
0.95698528
0.92854436
1.0054491
1.005703
0.99903712
0.99383225
0.99388707
0.98326968
0.98906268
0.98814988
0.98027416
0.97869891
0.98989493
1.0028227
1.0090685
1.0150437
1.0136006
1.0077597
0.99955656
0.99411253
0.99877428
1.001124
1.0012551
0.99799873
0.99568951
0.99912238
1.0043496
0.99955652
0.99103092
0.99339597
1.000785
1.0058178
0.99502811
0.96813243
0.95524073
0.97642603
1.0097329
1.02124
0.99999477
0.97076178
0.95116609
0.95065724
0.97022464
0.99908302
1.0180197
1.0103776
0.98199637
0.95150883
0.93731879
0.94660046
0.97505206
1.0109045
1.0342367
1.0331796
1.0069856
0.96963078
0.93533027
1.0053875
1.0056546
0.99892753
0.99367235
0.9943353
0.9827417
0.98915921
0.98839472
0.97973226
0.97821015
0.9904718
1.0029767
1.0081451
1.0145409
1.0141891
1.0086423
0.99981503
0.99354391
0.99837031
1.000533
1.0011555
0.99865587
0.99641103
0.99963024
1.004635
1.0000502
0.99101348
0.99261904
0.99937171
1.0053719
0.99685225
0.97186088
0.9559253
0.97197663
1.0039937
1.0199533
1.0033206
0.97685979
0.95500402
0.95048542
0.96564872
0.99158879
1.0140183
1.0131365
0.98875478
0.96016372
0.94159921
0.94346984
0.96606215
0.99848286
1.025872
1.0327558
1.0165199
0.98423929
0.95082911
0.92079535
0.91182991
0.91411617
0.92367684
0.93999903
0.96040736
0.98121093
0.99733751
1.006347
1.0057147
0.99525628
0.98063759
0.96870294
0.96844378
0.98508964
1.0163129
1.045942
1.0577179
1.0350236
1.0095663
1.0078668
1.0373259
1.0705259
1.0368963
0.97372155
0.94717026
0.98807403
0.9188592
0.92263835
0.94002662
0.95683458
0.97579226
0.99188137
1.0009421
1.0012345
0.99337884
0.97751334
0.96038576
0.94860932
0.94652943
0.96137903
0.98775735
1.0134185
1.0266644
1.0184567
0.99459623
0.99688355
1.0335372
1.0790796
1.0905621
1.0452634
0.9905782
0.96551784
0.969926
0.96116722
0.97745012
0.99622198
1.0116495
1.0212381
1.0220786
1.0146175
1.0006348
0.98279416
0.96516541
0.95336481
0.9501643
0.96046426
0.97945818
0.99702131
0.99942268
0.98638191
0.97037873
0.96527226
0.99700313
1.0487252
1.0821992
1.0690973
1.0374018
1.0143455
0.99735453
0.9698039
1.0305459
1.0452003
1.0511263
1.0504086
1.0435636
1.0307657
1.0145562
0.99804648
0.98542341
0.97854259
0.97971888
0.98999955
1.0058188
1.0151945
1.006788
0.98120792
0.95451399
0.94604294
0.96430123
1.0094809
1.0470652
1.0462218
1.0215268
1.0103338
1.0245313
1.0247534
0.98754099
1.0656464
1.07033
1.0620293
1.0496479
1.0340336
1.0186203
1.0059388
0.99980363
1.0021008
1.0115164
1.0279507
1.0453712
1.0529134
1.0420775
1.0118062
0.97895776
0.95745968
0.96264323
0.99362432
1.0246252
1.0243334
0.99685813
0.97236323
0.97763842
1.0125747
1.0309222
1.0149447
1.0439016
1.0353639
1.0200384
1.0088501
1.0003589
0.99733044
1.0014073
1.0119122
1.0277238
1.0459751
1.0659203
1.0753719
1.0671862
1.0434223
1.0155018
0.99649848
0.99537451
1.0163418
1.0376901
1.0322323
0.99727895
0.9636323
0.94468998
0.95440226
0.98822069
1.0180359
1.0368516
0.98881176
0.97888366
0.97352335
0.9728834
0.97795255
0.98994248
1.0081317
1.0285006
1.0480577
1.0656775
1.0727326
1.0648822
1.0471847
1.027979
1.0180719
1.0274295
1.0494016
1.0749063
1.0703712
1.0333856
0.98872599
0.95781527
0.94324314
0.94582054
0.96761809
1.0017831
1.0340801
0.96403575
0.96303092
0.96892097
0.97993499
0.99550474
1.0132283
1.0307128
1.0445559
1.0522833
1.0509971
1.0398917
1.0231032
1.0073837
1.006401
1.0239596
1.0549511
1.085736
1.0970235
1.0726213
1.03494
1.0036144
0.9797325
0.96347364
0.9536836
0.95842386
0.98537998
1.0058753
0.99254355
1.0040561
1.0197147
1.034048
1.046989
1.0553039
1.0568703
1.0515681
1.0385973
1.0193376
0.99903656
0.98441828
0.98362089
1.0017135
1.0313126
1.0643148
1.0865501
1.0769039
1.0506812
1.033613
1.0260765
1.0187768
0.99915664
0.97853669
0.96510509
0.96501446
0.96338508
1.064934
1.0774154
1.0852092
1.0894228
1.0881874
1.0799001
1.0654194
1.0468954
1.0269902
1.0082575
0.99451161
0.99243418
1.0041769
1.0243931
1.0438937
1.0555272
1.048354
1.0284894
1.0166165
1.025306
1.0397965
1.0467744
1.0383343
1.014893
0.98620444
0.95192105
0.92769098
1.1105111
1.113747
1.1086456
1.0994645
1.0861305
1.0703601
1.0546891
1.0401353
1.0289443
1.0269564
1.0335159
1.0464419
1.0592936
1.0660022
1.0604262
1.0407341
1.0114922
0.99290732
0.99340641
1.0086054
1.0307391
1.0494803
1.0610972
1.0510776
1.0138607
0.95783025
0.91976161
1.0917272
1.084517
1.0710766
1.0585858
1.0476899
1.0389612
1.0339334
1.035564
1.0454921
1.062536
1.0833038
1.1007145
1.1095454
1.1019952
1.0768416
1.0430603
1.0109055
0.99096257
0.98584771
0.99187398
1.0074381
1.0337844
1.0615936
1.0681329
1.0362558
0.9824657
0.94574217
1.0272646
1.0188512
1.0121677
1.0073466
1.0055405
1.0095077
1.0203137
1.0364963
1.0564815
1.0761105
1.0919266
1.1029155
1.1066383
1.1015449
1.0872029
1.066619
1.040889
1.0179702
0.9972898
0.98512433
0.99224936
1.0152406
1.0429458
1.0539688
1.0413926
1.0198529
1.0046543
0.9869129
0.98335396
0.9841989
0.98856578
0.99640968
1.0077217
1.0207548
1.0341966
1.0454734
1.0538012
1.0588799
1.0625781
1.0651037
1.0700131
1.0775249
1.0788302
1.0673059
1.0473372
1.0233636
1.0060726
1.0011449
1.0042038
1.0131936
1.0164908
1.0268876
1.0538564
1.0776931
0.99310571
0.99783868
1.0063572
1.0146664
1.0207949
1.0261976
1.0297257
1.0304847
1.0290803
1.0256617
1.0229474
1.0227082
1.0260276
1.0335127
1.0437785
1.054158
1.0595421
1.0583878
1.0551729
1.0455668
1.0291317
1.0060762
0.98159493
0.97358248
1.0027576
1.0704927
1.131243
1.038799
1.0452549
1.0493957
1.0523969
1.0539335
1.0527736
1.0477803
1.0396921
1.0295261
1.0184071
1.0083369
1.0016857
0.99858406
0.99693322
1.0002728
1.0093023
1.0254574
1.0482366
1.07045
1.0745074
1.0535454
1.0112521
0.96886623
0.95136219
0.98608913
1.0680261
1.1353629
1.0779912
1.0817536
1.0815449
1.0810451
1.0788617
1.0750655
1.0685038
1.0593283
1.0482298
1.0361809
1.022945
1.007955
0.99203517
0.97863591
0.97232784
0.97913839
0.99968524
1.0291407
1.0576672
1.0677754
1.0511621
1.0152348
0.97805769
0.96599417
0.99329197
1.0483275
1.0826409
1.0922008
1.0932219
1.091632
1.0906708
1.0892554
1.0863827
1.0813836
1.0746972
1.0666113
1.0560876
1.0419241
1.0240439
1.0046638
0.9884995
0.98094061
0.98370194
0.99561884
1.011391
1.0255258
1.0314333
1.0285773
1.022247
1.0114021
1.0112659
1.0176247
1.0151631
0.99917237
1.091464
1.0904802
1.0883442
1.0863437
1.0839046
1.0811737
1.0775931
1.0723769
1.065473
1.0579336
1.0496293
1.0405077
1.0314134
1.0231979
1.0172431
1.0109132
1.003207
0.99528481
0.98951068
0.99364176
1.0081177
1.0341068
1.0584276
1.0664625
1.0390112
0.98265552
0.9250552
1.0786787
1.0767481
1.0738336
1.0706983
1.0669509
1.0629514
1.0589607
1.0552943
1.0525956
1.051925
1.0535635
1.0567788
1.0591235
1.0573985
1.0483746
1.0305243
1.0062235
0.98215469
0.9683272
0.97397169
1.0003186
1.0454976
1.0929917
1.1049104
1.0574513
0.96776916
0.88306593
1.0532911
1.0505609
1.0476686
1.0452426
1.0431881
1.0422095
1.0425354
1.0446815
1.0491544
1.0563445
1.0650734
1.0732985
1.0775654
1.0733337
1.057274
1.0315589
1.0022988
0.97759126
0.96517858
0.97097926
0.99713418
1.0438499
1.0939024
1.1112325
1.0725292
0.98000836
0.88303682
1.0244158
1.0220901
1.0211528
1.021991
1.0248636
1.0302623
1.0379891
1.0476533
1.0587257
1.06984
1.0789533
1.0833693
1.0812124
1.0695181
1.0505516
1.0275706
1.0041325
0.98466697
0.97294916
0.97268732
0.98709719
1.0195828
1.0593099
1.0864902
1.0744186
1.0093611
0.92508551
1.0061804
1.0054538
1.0073637
1.0117677
1.0188755
1.0289106
1.0413652
1.0549783
1.0678987
1.0783781
1.0840142
1.082578
1.0750021
1.0629583
1.0480626
1.0319301
1.0159161
0.9985587
0.98253833
0.97160426
0.9694314
0.98001907
1.0036919
1.0344915
1.0491884
1.0356788
0.99536056
1.0031461
1.0035824
1.0068007
1.0120939
1.0194916
1.0291014
1.040288
1.0518357
1.0620507
1.0689054
1.0711784
1.0696773
1.0654624
1.0600293
1.0530128
1.0455721
1.0351891
1.0191106
0.99705809
0.97233101
0.95179636
0.94104393
0.94548955
0.9662263
1.0017427
1.0356214
1.0576599
1.0080582
1.0098753
1.0122992
1.0149885
1.0185782
1.0233234
1.028841
1.0346023
1.0396435
1.043214
1.0459581
1.0482683
1.0512484
1.055023
1.0586698
1.0618317
1.0602085
1.0502486
1.0255511
0.98895821
0.94909898
0.91731817
0.89871711
0.90331696
0.94085468
1.002769
1.0738501
1.015646
1.0161587
1.0167024
1.0165505
1.0154521
1.0139083
1.0125582
1.0117229
1.0114951
1.0123652
1.0154387
1.0213163
1.0303641
1.041509
1.0553596
1.0701251
1.0836915
1.087604
1.0735934
1.0334299
0.97530702
0.91878575
0.8772933
0.8600917
0.88366081
0.9495191
1.0364087
1.0263194
1.0259824
1.0246223
1.0217028
1.0167035
1.0097818
1.0020769
0.99479335
0.98884245
0.98533864
0.98540715
0.99006503
0.99948758
1.0139317
1.0352129
1.0622612
1.0916118
1.1206377
1.1301148
1.1028221
1.034639
0.95224273
0.88726293
0.85003088
0.85019664
0.89302716
0.96600854
1.0511936
1.0508102
1.0479909
1.0420296
1.0324124
1.0190621
1.0032085
0.98671592
0.97142374
0.95896546
0.95142661
0.94983955
0.95601111
0.97073816
0.99533061
1.0312934
1.0773134
1.1288551
1.1698331
1.1710311
1.1169215
1.0229691
0.93182036
0.87183056
0.84294451
0.85036858
0.8970169
1.0995069
1.0982859
1.0926353
1.0814157
1.0641939
1.0411511
1.0137529
0.98413112
0.95497672
0.9290466
0.90933465
0.89777284
0.89733359
0.90967775
0.93649878
0.97874682
1.0363068
1.1041847
1.1706533
1.2070916
1.1855625
1.111589
1.0094226
0.91948321
0.85963524
0.83394198
0.85108343
1.1539864
1.1509161
1.1407802
1.1221313
1.0949455
1.0600087
1.0194546
0.97622961
0.93367442
0.89535202
0.86427772
0.84336584
0.83527476
0.84328576
0.87031311
0.9151744
0.97658839
1.0502219
1.1271219
1.1897597
1.2073464
1.1685686
1.0868455
0.98498548
0.89672961
0.84252104
0.8348972
1.1746687
1.1700484
1.1556056
1.1314754
1.0989336
1.0587469
1.0130993
0.9650372
0.91803398
0.87593088
0.8418391
0.81796669
0.8067847
0.8116191
0.83583609
0.87455308
0.93176341
0.99887035
1.0675641
1.130914
1.1694947
1.1649012
1.1138046
1.0313915
0.94022745
0.8693408
0.84501932
1.1461194
1.14074
1.1260098
1.102906
1.0724427
1.0354947
0.99525673
0.95406796
0.91416137
0.87819381
0.84891356
0.82869153
0.82007834
0.82505404
0.84478541
0.87668827
0.92099141
0.97542907
1.0300368
1.0775938
1.106814
1.1102534
1.0798583
1.0245262
0.95987859
0.90149778
0.87299574
1.0693908
1.0618366
1.0512029
1.037794
1.021326
1.0014696
0.97802378
0.95241813
0.92719965
0.90460617
0.888315
0.87983452
0.88039842
0.89146595
0.9090964
0.93234425
0.96176144
0.99383329
1.0215708
1.0411036
1.046526
1.0357208
1.0100047
0.97890659
0.94822311
0.91954302
0.90293255
0.95172727
0.94973192
0.94700668
0.94469979
0.94295728
0.94164293
0.93930784
0.93609338
0.93334682
0.93314719
0.9400502
0.95502249
0.97573005
1.0002867
1.0228234
1.0370247
1.0444384
1.0402208
1.029223
1.0142816
0.9906486
0.96084648
0.93910991
0.924885
0.91962176
0.9198431
0.92863625
0.83481542
0.83529891
0.83760972
0.84328868
0.85310943
0.86632951
0.88282864
0.90304779
0.92708611
0.95501211
0.99092373
1.0331689
1.0767771
1.1160651
1.1389622
1.136541
1.1151825
1.0761999
1.0341165
0.98792532
0.9417336
0.90361353
0.88094253
0.87778989
0.89220895
0.9176096
0.95569596
0.72824619
0.73156046
0.7386094
0.75220552
0.77283312
0.80013666
0.83345286
0.87477959
0.9209638
0.97490035
1.0372011
1.1054268
1.1714391
1.2242747
1.2478734
1.2246232
1.1716992
1.0983737
1.0270491
0.95659747
0.90183367
0.86651978
0.84896954
0.85468854
0.88172785
0.92495892
0.99595922
0.66034044
0.66628315
0.67677914
0.69498806
0.7215898
0.75751147
0.80053757
0.85348966
0.91777506
0.99294923
1.0813304
1.174332
1.2546498
1.3021633
1.2954314
1.2273119
1.1315443
1.0396118
0.95630737
0.89963573
0.86467843
0.84460868
0.84071295
0.86070992
0.89528929
0.9553587
1.0505858
0.66219176
0.66913451
0.68079387
0.70020077
0.72852498
0.76538699
0.81308695
0.8739182
0.94843328
1.0313142
1.1186134
1.2015837
1.2526093
1.2568523
1.1999212
1.1029844
1.0062649
0.93120446
0.87981903
0.84878148
0.83906524
0.84146737
0.85648144
0.88598802
0.93438771
1.0097765
1.102554
0.73421598
0.74009048
0.75051271
0.76838503
0.79502369
0.8345059
0.88691021
0.94869271
1.0166209
1.0841029
1.1450557
1.1844051
1.1902567
1.1532298
1.0814059
0.99748529
0.92526742
0.87123127
0.8378308
0.82485318
0.83173317
0.85434987
0.89048873
0.93979363
1.0015606
1.069592
1.1214442
0.80627238
0.81043948
0.81836999
0.8335731
0.86395672
0.90710578
0.95811543
1.0115459
1.0627527
1.1075395
1.1387741
1.1477289
1.1287002
1.0828979
1.0205035
0.9551019
0.89765893
0.85599494
0.83511575
0.83630455
0.85935744
0.89856939
0.94930268
1.0042834
1.0532643
1.0874926
1.0976284
0.84328423
0.84837402
0.8585354
0.87700724
0.90754677
0.94608443
0.98965642
1.0339457
1.0739292
1.1032112
1.1175895
1.1147627
1.0927236
1.0543447
1.0040028
0.9505907
0.90566134
0.87767073
0.86933297
0.88160316
0.91196731
0.95511613
1.0021669
1.0459861
1.0687734
1.0716886
1.0532617
0.86139082
0.86750946
0.88033324
0.90020118
0.92545058
0.95580972
0.98946276
1.020515
1.0445824
1.0598652
1.0645674
1.0583227
1.0405994
1.0114035
0.97458453
0.93955088
0.91411358
0.90409988
0.91200303
0.93646425
0.97305893
1.0139113
1.0488849
1.0689708
1.0673561
1.0428907
1.0030034
0.91346622
0.91978055
0.93137679
0.94656973
0.96542115
0.98649316
1.0057453
1.0204389
1.0288644
1.0294246
1.0212114
1.0045993
0.97967391
0.94968615
0.92244382
0.90562388
0.90397829
0.91915579
0.95058392
0.99353272
1.0382492
1.0739756
1.0917618
1.0857642
1.0559523
1.0103916
0.96012238
0.99074067
0.99436634
1.0012279
1.0106034
1.0205743
1.0285796
1.0322134
1.0304752
1.0215659
1.0053032
0.98037175
0.94745177
0.91073472
0.8782439
0.8577476
0.85533676
0.87436983
0.91479153
0.97335597
1.0398875
1.0982195
1.1320731
1.1310444
1.0973356
1.046357
0.99224714
0.9479524
1.1141452
1.1102888
1.1049862
1.0958642
1.0832316
1.0674343
1.0486118
1.0258212
0.99762852
0.96247751
0.92242408
0.88150608
0.84519966
0.81881969
0.80609107
0.81097038
0.83936347
0.89460339
0.9750356
1.0693449
1.1503963
1.1861465
1.1615375
1.1015559
1.0388322
0.99386466
0.96829026
1.2372843
1.225742
1.2007576
1.1668837
1.1271593
1.084259
1.0397212
0.99419974
0.94877433
0.90581104
0.86812507
0.83769712
0.81621914
0.80539006
0.80707428
0.82280079
0.85384205
0.90013456
0.96305356
1.0396585
1.113227
1.1681181
1.1756096
1.1337708
1.0658248
0.99526924
0.9394364
1.1990695
1.1929093
1.1765658
1.1511506
1.1181282
1.0798157
1.0388082
0.99802582
0.95982088
0.92579836
0.89780681
0.877649
0.86613701
0.86312822
0.86748605
0.8769902
0.88977935
0.90281116
0.91278379
0.9159162
0.91647298
0.92522211
0.97838888
1.0746355
1.1940964
1.2804674
1.255029
1.0747392
1.0740208
1.0700272
1.0628371
1.0528311
1.0409331
1.0282086
1.0159197
1.0053326
0.99766257
0.99335818
0.99264052
0.99516709
0.99859438
0.99912043
0.99367943
0.97941324
0.9518119
0.91107917
0.85858316
0.80293612
0.76028794
0.75628131
0.82210322
0.99985804
1.2477727
1.4244772
1.0366417
1.0353329
1.0323804
1.0279379
1.022681
1.0174278
1.0131512
1.0108188
1.0115523
1.0165114
1.0262182
1.0401293