/*--------------------------------*- C++ -*----------------------------------*\
| =========                 |                                                 |
| \\      /  F ield         | OpenFOAM: The Open Source CFD Toolbox           |
|  \\    /   O peration     | Version:  2406                                  |
|   \\  /    A nd           | Website:  www.openfoam.com                      |
|    \\/     M anipulation  |                                                 |
\*---------------------------------------------------------------------------*/
FoamFile
{
    version     2.0;
    format      ascii;
    arch        "LSB;label=32;scalar=64";
    class       surfaceScalarField;
    location    "24";
    object      phi;
}
// * * * * * * * * * * * * * * * * * * * * * * * * * * * * * * * * * * * * * //

dimensions      [1 0 -1 0 0 0 0];

oriented        oriented;

internalField   nonuniform List<scalar> 
123996
(
0.0015513661
-1.0031062e-05
7.1261172e-05
0.001508037
-7.0985161e-05
7.4821739e-05
0.0014980489
1.6723306e-06
-0.00015384042
0.0015846583
9.9755014e-05
5.9047639e-05
0.0015827919
-0.00028224815
9.2089771e-05
0.0016099318
-0.00017698954
0.00018790667
0.001638662
-0.00027336792
0.00017751487
0.0016924995
-0.00025410886
0.0002620095
0.0016543611
-0.0005559581
0.00027648474
0.0015669561
-0.00028523418
0.00027014957
0.001398332
-0.00031330936
0.00053544042
0.0011516223
-0.00067499012
0.00058667496
0.0011301678
-0.00037615436
0.00063663708
0.0011670161
-0.00058346352
0.0009344015
0.0012433682
-0.00071922665
0.0011086887
0.0012064898
-0.00061535563
0.00047551022
0.0010949705
-0.00067438387
0.00032157452
0.0010880012
-0.00068500754
0.00055381119
0.0010281071
-0.00042039031
0.00057191031
0.00098053961
-0.00037977969
0.00081976621
0.0010786904
-0.00065044889
0.0010578077
0.0010203137
-0.00069851931
0.0006461889
0.00091120563
-0.00052584851
0.00044762303
0.00092747733
-0.00052516849
0.00063821647
0.00093244187
-0.00063011629
0.00071964189
0.00084631496
-0.00071946838
0.00062379457
0.00098596384
-0.00064580479
0.00053042503
0.00093735253
-0.00046113994
0.00043296042
0.00092307207
-0.00031691588
0.00040181536
0.00081429924
-0.00048075434
0.00052123946
0.0008874322
-0.00055625619
0.00056344325
0.0012593386
-0.00023579743
0.00024904762
0.0014963033
7.7308834e-05
-4.8675656e-05
0.0014384719
7.9744386e-05
-7.4891972e-05
0.0011609389
4.1189329e-06
8.843628e-05
0.00082024553
-9.9853384e-05
0.00024748324
0.00060175814
-0.00032133016
0.00029637664
0.0006489013
-0.00054925679
0.00033468926
0.00092715964
-0.00040733947
0.00027212789
0.0013518974
3.3526029e-05
3.4611002e-05
0.0017709377
0.0004240211
-0.0003078352
0.0020047464
0.00058377744
-0.00055489523
0.0019129941
0.00061106233
-0.00068083095
0.0016995957
0.00058618373
-0.00068410211
0.0016652883
0.00048086369
-0.00061949865
0.0017938703
0.00033552745
-0.00055701037
0.0017556117
0.00026926976
-0.0005451618
0.0013987255
0.00028228765
-0.00054428646
0.0010041924
0.00037055985
-0.00049922462
0.00099184789
0.00044486056
-0.00042093438
0.0013783522
0.00049262402
-0.00038418135
0.0018217911
0.00049871679
-0.00037240517
0.0019991056
0.00054905887
-0.00041789941
0.0019548331
0.0006583256
-0.00055439816
0.00083457219
0.0019783771
-0.00075296348
0.0014825275
8.1156898e-05
0.0014388936
-3.8809236e-06
0.0014336491
-0.00017607953
0.0014886895
7.1146308e-05
0.001511471
-0.00030727773
0.0015197059
-0.00022610445
0.0015542681
-0.0004442465
0.0015798335
-0.00037113126
0.0015869521
-0.00050370247
0.0015054893
-0.00043780207
0.0013170634
-0.00029035857
0.0011487002
-0.00054298616
0.0010771416
-0.00043801719
0.001115796
-0.00061636461
0.0012167755
-0.00042223643
0.0011361652
-0.0004655067
0.0010219303
-0.0007508401
0.0010650815
-0.00080553637
0.0010140967
-0.00069407689
0.00091788451
-0.00047239763
0.0010275083
-0.00035831271
0.0010207249
-0.00043458222
0.00089272313
-0.00048273141
0.00089151071
-0.00038218417
0.00088780897
-0.00041193189
0.0008062605
-0.00060814549
0.00097021503
-0.00059339397
0.0009480871
-0.00042484585
0.00082960931
-0.00026720483
0.00075193758
-0.00040346073
0.00092278894
-0.00045534491
0.0012000124
-0.00020214424
0.0012700809
9.5267224e-06
0.001272038
-1.738041e-05
0.0011890824
-8.4414334e-05
0.00079604912
-0.00020209456
0.0004506709
-0.00034650956
0.00059218645
-0.0004378389
0.0010536298
-0.00030727617
0.0014132633
8.2774625e-05
0.0016102254
0.00041020823
0.0017251377
0.00055327257
0.0016706295
0.00046473327
0.0013771907
0.00035027138
0.0011683522
0.00027081218
0.0012823224
0.00016535106
0.0015475405
7.3092882e-05
0.0016472722
0.0001168476
0.0015308238
0.00025487746
0.0013989502
0.00049505853
0.001505025
0.0007216357
0.0019002475
0.00083085377
0.002302983
0.00081843612
0.0025637924
0.00071211618
0.00065545036
0.002669788
0.0014071559
0.0001420639
0.0013577469
5.9365868e-05
0.0013728336
-0.00015044745
0.0013950017
-3.6877341e-05
0.0014395524
-0.00016293535
0.0014329482
-0.00024115922
0.0014745949
-0.00041995502
0.0014984882
-0.00044880871
0.0015158558
-0.0002471733
0.0014420293
-0.00041088153
0.0012423086
-0.00044925269
0.0011035991
-0.0002801132
0.00098778921
-0.00057981529
0.0010609768
-0.00079205861
0.0011453661
-0.00047613722
0.0010480367
-0.00055015455
0.00096003606
-0.00061485192
0.0010048408
-0.00061660509
0.00097009379
-0.0007866826
0.00087481746
-0.00079720509
0.00096395843
-0.00040861948
0.00098761256
-0.00028127095
0.0008984437
-0.0004080731
0.00087103051
-0.00033630356
0.00082804323
-0.00030260606
0.00077942783
-0.00049056016
0.00097361807
-0.00048091467
0.00098039896
-0.00036675302
0.00078126145
-0.00028972052
0.00071854301
-0.00039437578
0.00096369484
-0.00037474666
0.0012084537
-0.00015729327
0.0012340454
-3.3744749e-05
0.0012109412
-0.00013642875
0.0011204117
-0.00025792997
0.00074923471
-0.00032697001
0.00039097338
-0.00040522797
0.00056544783
-0.00035572517
0.0011142014
-0.0001280567
0.0015121881
0.00017981734
0.0015872205
0.00044263283
0.0014174004
0.00054138623
0.0012607214
0.00039833005
0.0010184396
0.00012078746
0.00069788663
-2.055662e-05
0.00066166101
-5.8919443e-05
0.00098861197
3.4415879e-06
0.0014219525
0.00010953799
0.0017159355
0.00025184133
0.0018102801
0.00043162382
0.0018056403
0.00067280603
0.0018543344
0.00090928806
0.0020065102
0.0010000403
0.0021773135
0.00088752552
0.00073837561
0.0022516536
0.0013407412
0.00011534755
0.0012849125
0.00010138684
0.0013160863
4.7443932e-05
0.0013250941
-0.00013070529
0.0013687317
2.2197522e-05
0.0013592696
-0.0001351761
0.0014031653
-0.00023916743
0.0014432595
-0.00034425393
0.0014429056
-7.922022e-05
0.0013757183
-0.0002178014
0.0012105345
-0.00046842718
0.0010388391
-0.00025462343
0.00092266674
-0.0006416623
0.0010338146
-0.00070650759
0.0010756113
-0.00053796927
0.0010085437
-0.00072742495
0.00094879453
-0.00058675643
0.00095381482
-0.00033347679
0.00091999806
-0.0005294983
0.00087332341
-0.00075010478
0.00092541582
-0.00056574203
0.00092842295
-0.00035544112
0.00087768365
-0.00042764067
0.00084404452
-0.00044319443
0.00074946216
-0.00037677051
0.00073949197
-0.00048051005
0.00094227251
-0.00039961463
0.0009669871
-0.00028303582
0.00073006755
-0.0003093619
0.00067619262
-0.00043541285
0.00094017803
-0.00034996782
0.0011325319
-0.00010938317
0.001062197
-9.5354232e-06
0.0010018262
-0.00012185054
0.000985995
-0.00030266324
0.00069336595
-0.00044086081
0.00038698769
-0.00048461966
0.00055084881
-0.00032646948
0.0011124915
1.5352155e-06
0.0015687788
0.0002773394
0.0016067954
0.00044388392
0.0013047511
0.00046693736
0.00095520652
0.00033866419
0.00074900471
1.6734035e-05
0.00056747388
-0.00022241476
0.00048391902
-0.00022247453
0.00069535137
-4.3171739e-06
0.0011659394
0.00025011255
0.0016097052
0.00041291387
0.0019289457
0.00050094153
0.0020649655
0.00057565093
0.0019609988
0.00068316318
0.0017781699
0.00082577812
0.0016351968
0.00084467181
0.0007991541
0.0015231641
0.0012747484
2.5426753e-05
0.0012213304
7.0949404e-05
0.0012469005
0.0002083378
0.0012676622
-0.00014397171
0.0012988257
0.00013079354
0.0012953244
-7.5943213e-05
0.0013360767
-6.5377894e-05
0.0013892716
-9.8359898e-05
0.0013730046
-7.2773211e-05
0.0013031734
-0.00012589219
0.0011735977
-0.00027151965
0.00096561577
-0.00041665899
0.00087602953
-0.00073050743
0.00099214309
-0.0004611435
0.00099763731
-0.00046631321
0.00096616784
-0.00068341278
0.00093937711
-0.00057896789
0.00090839712
-0.00024594854
0.00087504885
-0.00025246701
0.00086044279
-0.00046909467
0.00089497006
-0.00057086462
0.00085817887
-0.00046724963
0.00082227148
-0.00045354516
0.0008036449
-0.00050394309
0.00068409513
-0.00046774327
0.00070667131
-0.00050067493
0.00091301999
-0.00035433111
0.0009411738
-0.00017419461
0.00069821012
-0.00025687294
0.00065516096
-0.00042783103
0.00093861652
-0.00033948571
0.0011201181
-8.0475241e-05
0.0010214408
2.6601516e-05
0.00091405342
-4.6554652e-05
0.0009285833
-0.00023654214
0.00073880077
-0.00046249202
0.00050386422
-0.00052588427
0.00063241064
-0.0003016519
0.0010796477
7.2862148e-05
0.0015032187
0.00032121818
0.0015615307
0.00039339016
0.0012335183
0.00031949672
0.00070511255
0.0001772335
0.00042207454
-5.5397649e-05
0.00042121524
-0.00024892957
0.00059228647
-0.00024304366
0.00087095234
2.3555051e-06
0.0011304304
0.0003295206
0.0014557777
0.00057244229
0.0017464003
0.00063566196
0.0019313115
0.00057687484
0.0019544086
0.00051086847
0.0017314661
0.00049492835
0.0013662642
0.00047832587
0.00056809766
0.0010137961
0.0012162654
-6.2600949e-05
0.0011681175
-7.2457657e-06
0.0011772676
0.00022926456
0.0012172633
-8.6723702e-05
0.0012296306
0.00014212827
0.0012357312
-0.00010731482
0.0012743885
-6.1204971e-06
0.0013263826
9.5294719e-05
0.0013072655
-0.00014553221
0.0012463606
-0.00015811447
0.0011223075
-1.5718323e-05
0.00090343567
-0.00054906825
0.00085856744
-0.00077483087
0.0009497324
-0.0002856864
0.00094198996
-0.00038349234
0.00092915838
-0.00047475028
0.00092238565
-0.00050361274
0.00087766401
-0.00038970249
0.00082989127
-0.00023932233
0.00082346065
-0.00029015344
0.00086940957
-0.00045907924
0.00082594128
-0.00043117578
0.00078168745
-0.00036765675
0.00077866094
-0.0004030729
0.00065149508
-0.00042381283
0.0006924508
-0.00043626038
0.00090106826
-0.00029559419
0.00090796504
-9.3423313e-05
0.00065829315
-0.00019011949
0.00062945674
-0.00038436789
0.00091339183
-0.0003090965
0.0010734312
-5.3619611e-05
0.00096540029
6.753321e-05
0.00080903566
3.0354534e-05
0.00078350236
-0.00012429968
0.00071210057
-0.00040722545
0.00060945873
-0.00051883222
0.00070682104
-0.0002714015
0.0010066974
9.4691851e-05
0.0013425533
0.00032163037
0.0014229976
0.00029388537
0.0011389874
0.00013149608
0.00061764503
-3.4666418e-05
0.00027047278
-0.00014596023
0.0003293771
-0.00018268595
0.00066804411
-0.00013566891
0.001044045
5.3394952e-05
0.0012884184
0.00029620834
0.0013879355
0.00054129637
0.0014784787
0.00070098053
0.0015939704
0.00067488001
0.0016174098
0.00048970586
0.0015117003
0.00028887972
0.0012770521
0.00014576335
0.00015168425
0.00095621094
0.0011574051
-9.9926393e-05
0.001115774
-8.1655789e-05
0.0011113328
0.00013630044
0.0011672509
2.3570466e-05
0.0011585406
5.6973552e-05
0.0011767001
-0.00013295331
0.0012170369
-4.8479892e-05
0.0012497141
8.104372e-05
0.00124166
-0.0002104201
0.0012069194
-0.00023826673
0.0010556108
-3.870548e-06
0.00085884779
-0.00049638746
0.00085265184
-0.00060906446
0.0008967866
-0.00027047685
0.00089909831
-0.0003482449
0.00089320776
-0.0003082933
0.00088470434
-0.00039725708
0.00084018798
-0.00056686403
0.00078641961
-0.00046425771
0.00076667916
-0.00032829184
0.00083784844
-0.00035746126
0.00081026651
-0.00029386873
0.00075762763
-0.00022219671
0.00076576581
-0.00023794162
0.00064036525
-0.00028973254
0.000684814
-0.00029958325
0.00089525325
-0.0002207441
0.00087452323
-8.6448644e-05
0.00061784846
-0.00020353288
0.00061055061
-0.00038025561
0.00089591878
-0.00028897193
0.0010567711
-5.8991466e-05
0.00096816516
4.70018e-05
0.00077887823
5.9844582e-05
0.00067761446
-3.5987485e-05
0.00066040094
-0.00030514929
0.00071134075
-0.00046541622
0.00082230065
-0.00024927347
0.00099646393
0.00013022828
0.0011519332
0.00032312577
0.0012031154
0.00022521287
0.0010139873
-8.5479824e-06
0.00061214504
-0.00023552481
0.00024713279
-0.00028485821
0.0002615138
-0.00017520343
0.00059017197
-1.2155133e-05
0.0010204577
0.00015395214
0.0013441418
0.00029929736
0.0014436232
0.00045033919
0.0013736148
0.00058817004
0.0012291277
0.00062552312
0.0011266795
0.00048158362
0.0010478391
0.0002489434
0.00096070533
5.6561727e-06
-4.7314213e-05
0.00086217842
0.0011028356
-8.5375045e-05
0.0010651541
-9.6813272e-05
0.0010561457
1.9191579e-05
0.0011135239
0.00013473745
0.0010953988
-5.232894e-05
0.0011211659
-6.9237274e-05
0.0011613955
-5.7706945e-05
0.0011746263
-8.3485463e-05
0.0011755869
-0.00031743494
0.0011597715
-0.00027851632
0.00098595752
-0.00015637343
0.00082830725
-0.0003187673
0.00084065415
-0.00030348848
0.00084579095
-0.0003581368
0.00086520815
-0.00037843079
0.00086121058
-0.0002534847
0.00083354279
-0.00028458103
0.00079947664
-0.00062915281
0.00074763042
-0.00066073496
0.00072008335
-0.00047697294
0.00081103992
-0.00030448916
0.00079990948
-0.0001812534
0.00074013935
-0.00014700699
0.00074765757
-0.0001616658
0.00063540895
-0.00020508352
0.00066767047
-0.00020022876
0.00086613607
-0.00016163924
0.00082634587
-0.00013284462
0.00057184154
-0.00029399737
0.00057512421
-0.00041768276
0.0008541128
-0.00026585885
0.0010116666
-6.8368733e-05
0.00094905798
-1.0877658e-05
0.00075871167
1.1888201e-05
0.00057149453
-2.4010769e-05
0.00056209017
-0.00022211087
0.00073742821
-0.00038464925
0.00093225091
-0.00022853315
0.0010316204
0.00013237567
0.0010175777
0.00034348095
0.00095060515
0.00023042134
0.00082153916
-5.4087036e-05
0.00059431718
-0.00032407429
0.00035613386
-0.00036406272
0.0003155013
-0.00016553316
0.00053270009
5.8047167e-05
0.00093419367
0.00030789779
0.0012956434
0.00041314323
0.0014483273
0.00042802244
0.0013133939
0.00041145848
0.0010132582
0.00039927572
0.00072984968
0.00034380296
0.000567302
0.00021458347
0.00055998881
3.3053862e-05
-4.5560434e-05
0.00069350506
0.0010502926
-3.2525577e-05
0.0010145144
-5.0119492e-05
0.0010077883
-4.1584525e-05
0.0010553156
0.00022022012
0.0010420332
-0.00014240382
0.0010676079
4.0601569e-05
0.0011010912
-8.9034445e-06
0.0011043882
-0.00031237705
0.0011188807
-0.00036686724
0.0011063946
-0.00025066284
0.00093658938
-0.00034813251
0.00080299232
-0.00015136794
0.00079997439
-6.9786892e-05
0.00079874043
-0.00042782416
0.00083095433
-0.00045839381
0.00082820517
-0.00028947305
0.00077646332
-0.00025451236
0.00075468598
-0.00053209755
0.00071816786
-0.00065948411
0.00069205181
-0.00055656975
0.00078477562
-0.00029804062
0.00077638993
-0.00016502424
0.00070912474
-0.00018862162
0.00071360854
-0.00020323331
0.00061829498
-0.00022256247
0.00063155477
-0.00019686676
0.00080801701
-0.00014522726
0.00076355496
-0.00018504564
0.00053690942
-0.00040146637
0.00055355635
-0.00044727552
0.00081059095
-0.00021565397
0.00096364259
-4.2923525e-05
0.00093751213
-5.591732e-05
0.00076991347
-5.5930044e-05
0.00051101915
-8.0735268e-05
0.00048613196
-0.00021410074
0.00073130006
-0.00030264318
0.0010071771
-0.00017937663
0.0010745136
0.00012697784
0.00094737588
0.00034027623
0.00076750546
0.00026303909
0.00063431623
-2.5458915e-05
0.00057201153
-0.00031185511
0.00050785213
-0.00039356097
0.00049450641
-0.00020532066
0.00060658297
9.7953728e-05
0.00084290426
0.00038237857
0.0011256553
0.00050403945
0.0012918318
0.00043896014
0.0012246932
0.00030730854
0.00093087845
0.00018858316
0.00055209806
0.00011266095
0.00029250656
9.7592152e-05
0.00026645282
3.3684633e-05
3.9547074e-05
0.00044066495
0.0010014638
2.4044783e-05
0.00096608179
2.7246272e-05
0.00096610125
-2.3878339e-05
0.0009963729
0.0002496507
0.00099988447
-0.00014846339
0.0010180029
0.00013344601
0.0010371306
1.773247e-05
0.0010471059
-0.00041822426
0.0010705019
-0.00029435526
0.0010507709
-0.00015468292
0.00090731692
-0.00041925915
0.00077921099
-0.00014789205
0.00074108166
6.672359e-05
0.00075155751
-0.00044419869
0.0007956046
-0.00053851091
0.00079257895
-0.00034208446
0.00073057618
-0.00022566165
0.00072214774
-0.00033414718
0.00069904815
-0.00044602514
0.00067719656
-0.00048104391
0.00075430686
-0.00028365734
0.0007360588
-0.00020804258
0.00066699224
-0.00028915162
0.00067135936
-0.00030598352
0.00059382367
-0.00029673444
0.00059054159
-0.00026180829
0.0007401657
-0.00016692311
0.00069910083
-0.00020474446
0.00051819864
-0.00042927434
0.00054488747
-0.00041880683
0.00076320596
-0.00012602204
0.00089356199
1.9465975e-05
0.00090085431
-4.9186285e-05
0.0007533781
-0.00011119547
0.00047005409
-0.00016963809
0.00041586202
-0.00025370483
0.00068548492
-0.00025175642
0.0010326388
-0.00011736482
0.001120354
0.00012371044
0.00093597286
0.00028081347
0.00066381277
0.00026779573
0.00050449558
3.9683895e-05
0.00050759683
-0.00024471539
0.00061223729
-0.00037027843
0.00070338891
-0.00023091697
0.00077996797
8.3202623e-05
0.0008470823
0.00038876352
0.0009413629
0.00054318604
0.0010181069
0.00048202976
0.00097617669
0.00027350647
0.00080122128
6.311036e-05
0.00052524384
-6.3803981e-05
0.00027511787
-7.764007e-05
0.0001781463
-2.9786954e-05
8.618551e-05
0.00027193787
0.00095463354
6.4277219e-05
0.00091928918
9.3766302e-05
0.00092649213
3.497304e-05
0.00094051787
0.00020106287
0.00095952938
-7.6388115e-05
0.00096730146
0.00013989283
0.00097604628
-1.3737691e-06
0.0010018887
-0.00034499066
0.0010277677
-0.00010605667
0.00099668666
-1.73672e-05
0.00087948653
-0.00034674769
0.00075443962
-0.00025513752
0.00068012771
2.568371e-05
0.00070379429
-0.00040760869
0.00076113994
-0.00055615638
0.00076050409
-0.00035724469
0.00069844597
-0.00021482569
0.00069798553
-0.0001233719
0.00068034641
-0.00018291554
0.0006643552
-0.00030305607
0.00072128618
-0.00023426315
0.00069172927
-0.00022949714
0.00062755399
-0.00035390979
0.00063485961
-0.00034349038
0.00056923148
-0.00032676693
0.00055492978
-0.00031987843
0.00068089844
-0.00019301933
0.00064771719
-0.00018776641
0.00052008682
-0.00038346221
0.000559259
-0.00033297374
0.00072844672
-2.0337792e-05
0.00082937747
9.1676286e-05
0.00086148669
-4.0872167e-07
0.00073748617
-0.00012123868
0.00045524258
-0.00024232287
0.00037156636
-0.00030945243
0.00063386553
-0.00022426991
0.0010070502
-4.884471e-05
0.0011233887
0.00012467955
0.00094420808
0.00020794863
0.00061203231
0.00021133237
0.00039702667
6.4949838e-05
0.00041583159
-0.00015564471
0.00061801254
-0.00028390802
0.00082841816
-0.00021793537
0.00094299852
3.35752e-05
0.00094449087
0.00033037044
0.00087769017
0.00051671073
0.00079141074
0.00050677231
0.00071306886
0.00030730578
0.00059747423
3.291982e-05
0.00046907502
-0.00012499416
0.00035831409
-0.00017195752
0.00029340111
-9.5568463e-05
4.8027856e-05
0.00029040437
0.00091077575
8.0277866e-05
0.00087539551
0.00012482071
0.00088711248
8.0021484e-05
0.000890259
7.2335359e-05
0.00091847533
3.0330462e-05
0.00091780556
7.3113151e-05
0.00092292461
-7.2899108e-05
0.00096463531
-0.00015054169
0.00098691659
8.7476569e-05
0.00094707491
9.5579349e-05
0.00084751858
-0.0002133928
0.00073046609
-0.00032065345
0.00063011448
-0.00010572894
0.00066139118
-0.00035247615
0.00073113772
-0.00046955231
0.00073199565
-0.00031155797
0.00067836398
-0.00022583424
0.0006783773
-4.1834174e-05
0.00066247952
-1.9849734e-05
0.0006481262
-0.00013769248
0.00068949794
-0.0001700232
0.00065275795
-0.00019966926
0.00060018539
-0.00030903601
0.00060956331
-0.00027125533
0.00054797419
-0.00026103282
0.00053179476
-0.0003089967
0.00063896823
-0.00019650077
0.00060822688
-0.00014615063
0.00052465848
-0.00029329528
0.00058052135
-0.00022490863
0.00070121295
5.4426726e-05
0.0007609629
0.0001568551
0.00079802476
5.4883701e-05
0.00070274056
-9.9498535e-05
0.00044483287
-0.00027728461
0.00034669338
-0.00035436559
0.00057884041
-0.00020758497
0.00095006701
1.3038201e-05
0.0010974032
0.00014111561
0.00095676425
0.00014551345
0.00062261631
0.00011349157
0.0003413015
3.1520834e-05
0.00033342795
-9.5631071e-05
0.00056561334
-0.00017533203
0.00086185806
-0.0001510504
0.001050115
2.7463899e-05
0.001050792
0.00023997952
0.00089884563
0.00040135061
0.00067611829
0.00045094494
0.00050080664
0.00032844499
0.00040322342
9.7739705e-05
0.00038156093
-9.699418e-05
0.00042850186
-0.00016872379
0.00044820674
-0.00012802405
1.0025982e-05
0.00044914415
0.00086955071
7.6173469e-05
0.00083395773
0.00011667451
0.00084558067
9.1564888e-05
0.00084732827
-8.5904466e-05
0.00087499665
0.00013919666
0.00087074952
-3.9974971e-06
0.00087787152
-0.00017858358
0.00092911861
4.2662519e-05
0.00094429207
0.00021301859
0.00090171994
0.0001210963
0.00081006442
-0.00010881489
0.00070389718
-0.00028263747
0.00059108237
-0.00024388523
0.00062707008
-0.00029742659
0.00070469995
-0.00031298841
0.00070225725
-0.00022267643
0.00065611089
-0.00023852187
0.00065543232
-9.7879968e-05
0.00063510676
2.0272782e-05
0.00062253507
-5.1827378e-05
0.0006583849
-0.00013285453
0.00062203625
-0.00015089918
0.00058545133
-0.00020372355
0.00059485698
-0.00013368089
0.00053031097
-0.00013318443
0.00051577355
-0.00024445494
0.00060999551
-0.00017354832
0.00057495156
-0.00010888463
0.00052625826
-0.00020772068
0.00059858654
-0.00014454541
0.00067950208
9.0075519e-05
0.00070499439
0.00018410639
0.00073830503
9.7205508e-05
0.00066597535
-8.0006309e-05
0.00044115546
-0.00029434728
0.00034740066
-0.00036988947
0.00054330396
-0.00018604466
0.00087574956
6.9893823e-05
0.0010357805
0.00017829475
0.00093728246
0.00011160067
0.00064218285
1.4038158e-05
0.00032334762
-5.0142103e-05
0.00026331447
-0.00010175479
0.00047986682
-9.5545242e-05
0.00081585534
-5.3599393e-05
0.00105699
6.4257309e-05
0.001099993
0.0001704764
0.00093754638
0.00025743563
0.00064994281
0.00031805174
0.00038507973
0.00026950178
0.00027048697
0.00012313778
0.00029970143
-2.3118939e-05
0.00042173893
-9.746326e-05
0.00053896254
-8.9511976e-05
-1.5055515e-06
0.00060870474
0.00083049163
5.7876094e-05
0.00079516261
8.0926187e-05
0.00080335558
6.1956871e-05
0.0008115937
-0.00022396069
0.00083236868
0.00019749983
0.00082433334
-5.6024195e-05
0.00084067502
-0.00026015316
0.00089095614
0.00018712374
0.0008999248
0.00021821222
0.00085941709
4.8707081e-05
0.00077627325
-5.5488877e-05
0.00067457317
-0.00014477105
0.00056130707
-0.00031736638
0.00059826153
-0.00028190746
0.00067899496
-0.00014919798
0.00067135814
-0.00012590951
0.00062862487
-0.00022658214
0.00062959805
-0.00020707274
0.00060430128
-4.1411996e-05
0.00058930149
-6.4425957e-05
0.00062799384
-0.00014981233
0.00059764996
-0.00012826669
0.00057729427
-0.00010563301
0.00058526445
-1.8477728e-05
0.00051203063
-1.4366633e-05
0.00050099456
-0.00016337376
0.00058626095
-0.00014273059
0.00054497347
-9.5735732e-05
0.00051842835
-0.00016213369
0.00060064386
-0.00011084677
0.00065386967
6.8130539e-05
0.00065364169
0.00016577219
0.00067182771
0.00010983134
0.00061727984
-7.2289497e-05
0.00043523246
-0.00030467645
0.00035981743
-0.00036182514
0.00052442244
-0.00015872909
0.00080417555
0.0001202351
0.00095819586
0.00021898332
0.00089827115
0.0001060875
0.00065737843
-4.8870179e-05
0.00033890524
-0.00015026218
0.00023529661
-0.00014157561
0.00040441132
-6.0863055e-05
0.00073585094
3.7916247e-05
0.0010014185
0.00012786661
0.0010834367
0.00017081413
0.00094785007
0.00015914863
0.00066063115
0.00015166816
0.00033910973
0.00013515028
0.0001780544
8.7075443e-05
0.000200167
3.4941737e-05
0.00035069273
3.2625866e-06
0.00052742229
3.6079698e-06
3.375137e-05
0.00066326798
0.0007932506
3.0767333e-05
0.00075809247
2.963623e-05
0.00076147687
1.1609602e-05
0.00077943571
-0.00029386523
0.00078976228
0.00018896242
0.00078114826
-7.8262787e-05
0.00080854556
-0.00028214506
0.00084927509
0.00022582588
0.00085275945
0.00012929023
0.00081861527
-8.8082806e-05
0.00074456338
-3.762229e-05
0.0006442501
3.1587305e-05
0.00053787629
-0.00030071954
0.00057608557
-0.00029870693
0.00065254668
-4.1276619e-05
0.00064029107
-3.2215961e-05
0.00059769815
-0.00019685611
0.00060169072
-0.00031506669
0.0005693736
-0.000151318
0.00054974611
-0.0001382841
0.00059584684
-0.00020643362
0.00057636557
-0.00014240873
0.00056750894
-5.174867e-05
0.00057437438
4.9669008e-05
0.00048863303
3.5131922e-05
0.00048291495
-0.00010124
0.00056078635
-0.0001166426
0.00051671986
-0.0001066656
0.00050009461
-0.00016138407
0.00058646688
-0.00011980411
0.00062622639
1.5041105e-05
0.00061219129
0.00011653449
0.00060983546
0.00010255419
0.00056452941
-7.1180364e-05
0.00043109294
-0.00030740342
0.00038018969
-0.00034855624
0.00052454083
-0.0001301424
0.00074246946
0.00016507715
0.00087408452
0.00026161578
0.00083676565
0.00012589239
0.00064746475
-6.9466594e-05
0.00037184475
-0.00021427381
0.00023592761
-0.00020313538
0.00035411739
-6.5894771e-05
0.00065407939
0.00010297293
0.00091815664
0.00020297646
0.0010131356
0.0001991249
0.00091823366
0.000107311
0.00067039345
2.4949942e-05
0.00036142446
-1.9516294e-05
0.00016006352
-4.7657818e-06
0.00014649994
3.7249209e-05
0.00026146321
8.2573336e-05
0.00044543635
0.00010604755
0.00011870289
0.00063647929
0.00075713216
1.175454e-06
0.0007224674
-2.3489768e-05
0.00072218828
-3.4904702e-05
0.00074933709
-0.00027717542
0.00074865735
0.00013446846
0.00074101329
-7.7499494e-05
0.00077895407
-0.00024351952
0.00080609308
0.00017129452
0.0008059517
4.1573425e-07
0.00078054453
-0.00022587121
0.0007178861
-1.7883291e-05
0.00061355776
0.00015929387
0.00051762184
-0.00023666824
0.00055836658
-0.00030417303
0.00062533773
4.3794527e-07
0.0006084523
9.2660638e-06
0.00056478387
-0.00017316511
0.0005753744
-0.00035710667
0.00053831548
-0.00024778922
0.0005145288
-0.0002180883
0.00056633142
-0.00025811561
0.00055663132
-0.00017427435
0.00055283883
-4.0335061e-05
0.00055254594
6.0949429e-05
0.00046465069
2.2195226e-05
0.00045882145
-8.9762948e-05
0.0005324419
-9.377834e-05
0.00048835284
-0.00012323881
0.00047444342
-0.00018585408
0.00055978202
-0.00015198147
0.00059873207
-5.5275291e-05
0.0005787025
5.7145492e-05
0.00055444598
9.2601479e-05
0.00050887948
-6.2908977e-05
0.00041935348
-0.00029987076
0.00039847779
-0.00033894388
0.00053011408
-0.00011007023
0.00069926161
0.00018246217
0.00079411708
0.00029230955
0.00077150026
0.00016125817
0.00062620861
-5.2891635e-05
0.00040575188
-0.00023953124
0.00026626689
-0.00025991903
0.00034743012
-9.1808689e-05
0.0005865636
0.00012308768
0.00082069105
0.00025837723
0.00091400473
0.00023851631
0.00085510575
0.00010050758
0.00066766401
-3.4476543e-05
0.00041449639
-0.00013548731
0.00019949919
-0.00011286839
0.00012370608
-1.8127155e-05
0.00020009936
8.6443799e-05
0.00037247645
0.00017420661
0.00022261843
0.00055000998
0.00072307441
-2.4985452e-05
0.00068874512
-6.2810721e-05
0.00068627185
-6.4794817e-05
0.00071985169
-0.0001899463
0.00070998183
5.5163845e-05
0.0007050347
-5.9762597e-05
0.00074915089
-0.00015796343
0.00076352751
6.9730035e-05
0.00076107642
-0.00011830158
0.0007470983
-0.00030870547
0.00069222201
-9.8421284e-06
0.00058212764
0.00020209486
0.0004959613
-0.00018301803
0.00054094721
-0.00027837059
0.00059653342
-2.9283305e-06
0.00057614899
4.4334445e-06
0.00053315486
-0.00015244211
0.0005513704
-0.00032364379
0.00051096454
-0.00027377677
0.00048378662
-0.00025517585
0.00053735389
-0.00026510311
0.00053533922
-0.00018800103
0.00053223447
-5.4775623e-05
0.00052520865
3.7934108e-05
0.00043900681
-3.5072463e-05
0.00043356284
-0.00010756366
0.00050146078
-7.8192963e-05
0.00046078804
-0.00012650923
0.0004473645
-0.00020687281
0.00052770708
-0.00018794963
0.00057313192
-0.00012388036
0.00055587397
3.6679285e-06
0.00051221398
9.1648285e-05
0.00045881727
-4.0088054e-05
0.00040322722
-0.00027598667
0.0004129906
-0.0003298873
0.00053683623
-0.00010769282
0.00066837725
0.00017935686
0.00072260714
0.00030586974
0.00069964427
0.00020414102
0.00058963353
-2.5764884e-05
0.00041836221
-0.00024273312
0.00030295201
-0.00029321886
0.00035552931
-0.00012630654
0.00053855529
0.00011625916
0.00072400017
0.00029101664
0.00080023445
0.00028511418
0.00075821737
0.0001251688
0.00062192125
-3.9107965e-05
0.00043519435
-0.00018047391
0.00026381016
-0.00020061172
0.00017219688
-9.5005159e-05
0.00018770692
3.7384444e-05
0.00030838225
0.00019135596
0.0003031336
0.00046738232
0.00069006372
-4.4296485e-05
0.00065656408
-8.772059e-05
0.00065364367
-6.6058132e-05
0.00068965304
-5.9313383e-05
0.00067481661
-2.343346e-05
0.00067253343
-4.703238e-05
0.00071749333
-4.4777618e-05
0.00072326589
-4.0432721e-05
0.00072083135
-0.00020400359
0.00071711342
-0.00030935952
0.00066593831
-1.6179386e-05
0.00055185397
0.00014727352
0.00047535414
-0.00015315413
0.00052218165
-0.00021647186
0.00056740079
-2.1683263e-05
0.00054740456
-2.9707536e-05
0.00050623149
-0.00014112431
0.00052970376
-0.00023141951
0.0004887579
-0.00023583314
0.00046016745
-0.00024209686
0.00051450353
-0.00021844357
0.00051675156
-0.00016380023
0.00051098192
-6.5926746e-05
0.00049493883
3.9569888e-07
0.00041405718
-0.00010529848
0.00041035956
-0.00013620077
0.00047139661
-5.616203e-05
0.00043527826
-0.00010533758
0.00042239824
-0.00020246536
0.00049559514
-0.00020782848
0.00055228134
-0.00017256782
0.0005440202
-3.0893283e-05
0.00048468674
0.00010284382
0.000419183
2.3344756e-06
0.00038202643
-0.00022923583
0.00041852371
-0.00031384641
0.00053998263
-0.00012204741
0.00064707707
0.00015477142
0.00067149627
0.00030066984
0.00063792372
0.00024050673
0.0005449814
2.5613178e-05
0.00041967385
-0.00021287852
0.00033974982
-0.00030117964
0.00038326584
-0.00016466757
0.00052302121
9.002719e-05
0.00065251327
0.00029396113
0.00070507314
0.00031664264
0.00066854861
0.00017214377
0.00056865563
-2.1070158e-05
0.000442856
-0.00018476084
0.00032576945
-0.00025511474
0.00025625086
-0.00017904027
0.00024714215
-1.2819625e-05
0.00030885197
0.00015271928
0.00032185445
0.00042078561
0.00065925754
-5.3382713e-05
0.00062661645
-9.7279818e-05
0.00062408792
-4.4648918e-05
0.00065874729
8.4543384e-05
0.00064334137
-8.5768914e-05
0.00064201869
-4.9997203e-05
0.00068430387
7.1292472e-05
0.00068603431
-0.00012758884
0.00068502481
-0.00024215559
0.00068976879
-0.00023814195
0.00063792532
-2.7181672e-05
0.00052263018
2.0270005e-05
0.00045459348
-0.00015588057