/*--------------------------------*- C++ -*----------------------------------*\
| =========                 |                                                 |
| \\      /  F ield         | OpenFOAM: The Open Source CFD Toolbox           |
|  \\    /   O peration     | Version:  2406                                  |
|   \\  /    A nd           | Website:  www.openfoam.com                      |
|    \\/     M anipulation  |                                                 |
\*---------------------------------------------------------------------------*/
FoamFile
{
    version     2.0;
    format      ascii;
    arch        "LSB;label=32;scalar=64";
    class       surfaceScalarField;
    location    "24";
    object      phi_0;
}
// * * * * * * * * * * * * * * * * * * * * * * * * * * * * * * * * * * * * * //

dimensions      [1 0 -1 0 0 0 0];

oriented        oriented;

internalField   nonuniform List<scalar> 
192068
(
0.0010963957
-1.3128734e-05
6.7139797e-07
0.001070646
-6.904527e-08
-1.795732e-05
0.0010248372
5.4690997e-06
-1.729238e-05
0.00098107759
3.1417678e-06
-1.5698578e-05
0.00096765312
2.4861084e-05
-3.9246953e-05
0.00096223082
7.4227935e-05
-9.1302975e-05
0.00094323487
0.00011345753
-0.00013173529
0.00091736563
0.00013377939
-0.00015132374
0.00089685925
0.00014476189
-0.00016192629
0.00088359432
0.00015110894
-0.00016281852
0.00087211334
0.00013576237
-0.00014352124
0.00086028209
0.00010111664
-0.00010548634
0.0008475607
6.01862e-05
-6.0052771e-05
0.00083400165
1.2312295e-05
-1.0141841e-05
0.00081955757
-3.7629946e-05
3.8515456e-05
0.00080491513
-8.2907827e-05
8.7483613e-05
0.00079050548
-0.00012609779
0.00013150931
0.00077697118
-0.00016100129
0.00017051808
0.00076489862
-0.00019047737
0.00020497137
0.00075363103
-0.0002129566
0.0002269512
0.00074304359
-0.0002303025
0.00024535773
0.00073343265
-0.00024101453
0.00025640297
0.00072616409
-0.00024439324
0.00026358736
0.00072075273
-0.00024759312
0.00026188735
0.00071776144
-0.00024535953
0.0002523273
0.00071737833
-0.00023434594
0.0002393367
0.0007197427
-0.00021660604
0.00022770764
0.00072487969
-0.0001987787
0.00021034175
0.00073263521
-0.00017839583
0.00018420437
0.00074279444
-0.0001528788
0.00015393154
0.00075480496
-0.0001235268
0.00012492361
0.00076881402
-9.2834137e-05
9.4495747e-05
0.00078355648
-6.2114642e-05
6.2649966e-05
0.00079944118
-2.9496893e-05
2.9029412e-05
0.00081564452
3.0876232e-06
-4.4030631e-06
0.00083251091
3.6261471e-05
-3.9326377e-05
0.00084974821
6.8375372e-05
-7.3786734e-05
0.00086789738
0.0001021824
-0.00010840629
0.00088674854
0.00013174132
-0.0001421317
0.0009071036
0.00016392473
-0.00017491156
0.00092774986
0.00019049864
-0.00020600369
0.00095028371
0.00021990444
-0.00023490898
0.00097270748
0.00024342566
-0.00026410678
0.00099516518
0.00026905217
-0.00028913604
0.0010208503
0.00029190047
-0.00030968447
0.0010451675
0.00031239982
-0.00033718706
0.0010698889
0.00032888917
-0.00035777982
0.0010962425
0.00034937858
-0.00037540991
0.0011226001
0.00036437683
-0.00039285971
0.0011530058
0.00038299256
-0.00040911263
0.0011781301
0.00039213155
-0.0004271205
0.0012111092
0.00040722172
-0.00043924792
0.0012397693
0.00041836396
-0.00045262258
0.0012761467
0.00042488012
-0.00046404626
0.00044995978
0.0013088359
-0.00048088625
0.0011051001
-2.1509303e-05
0.0010725299
-1.0943323e-05
0.0010252523
-4.2726349e-06
0.00098241193
-8.8811451e-06
0.00096863178
1.1846803e-05
0.00096209362
5.9886376e-05
0.00094328512
9.5516063e-05
0.00091842707
0.00011590804
0.00089835836
0.00012811918
0.00088534914
0.00013888046
0.00087380767
0.00012649858
0.00086207524
9.5603206e-05
0.00085000472
5.6356513e-05
0.00083633608
1.160442e-05
0.00082196356
-3.631093e-05
0.00080708683
-8.162649e-05
0.00079254454
-0.00012223908
0.00077873847
-0.00015844344
0.00076660449
-0.00018172016
0.00075531549
-0.00020457497
0.00074506542
-0.00021996819
0.00073577509
-0.0002304048
0.00072815295
-0.00023330998
0.00072252492
-0.00023068811
0.00071938968
-0.00022776933
0.00071900724
-0.00022249554
0.0007210577
-0.00021082064
0.00072559508
-0.00019164429
0.00073259759
-0.00016982846
0.0007420342
-0.00014636113
0.00075371822
-0.00012053945
0.00076738347
-9.124592e-05
0.00078286211
-6.1523743e-05
0.00079952932
-3.0646108e-05
0.00081785443
4.0416009e-07
0.00083595917
3.2369128e-05
0.00085500031
6.3810161e-05
0.00087366478
9.4057388e-05
0.0008935813
0.00012384191
0.00091290271
0.00015209399
0.00093383592
0.000178745
0.00095447543
0.00020536928
0.0009762851
0.00022749516
0.00099958965
0.00025216988
0.0010213657
0.00026823219
0.0010454155
0.00029080477
0.0010703819
0.00030760454
0.0010963447
0.00032476416
0.0011222754
0.00033768039
0.0011483846
0.00034996561
0.0011765312
0.00036496401
0.0012083014
0.00037532042
0.0012340258
0.00038763893
0.001269256
0.00039136381
0.00040931074
0.0012972016
0.001111221
-2.9045346e-05
0.0010770713
-1.9781373e-05
0.0010283925
-1.179864e-05
0.00098511924
-1.917502e-05
0.00097179179
-5.8310921e-07
0.00096540242
4.5925625e-05
0.00094662073
7.995499e-05
0.00092160146
9.8075201e-05
0.00090128061
0.00011337278
0.00088759177
0.00012598654
0.00087535156
0.00011808279
0.00086308933
8.9665394e-05
0.00085052816
5.0717886e-05
0.00083669024
8.4837929e-06
0.00082192325
-3.4844152e-05
0.00080676878
-7.8276447e-05
0.0007919648
-0.00011610518
0.0007783944
-0.00014976844
0.00076610712
-0.00017696058
0.00075536348
-0.00019708008
0.00074543157
-0.00021275122
0.0007366424
-0.000221853
0.00072969917
-0.0002269028
0.00072453584
-0.00022443995
0.00072174564
-0.000215849
0.00072155955
-0.00020643377
0.00072379391
-0.0001972029
0.00072847182
-0.00018368771
0.00073568705
-0.00016372516
0.00074502175
-0.00014031169
0.00075669061
-0.00011517898
0.00077014136
-8.8624341e-05
0.00078551839
-6.0198044e-05
0.00080227344
-3.0934893e-05
0.00081980022
-1.2913523e-06
0.00083898463
2.8751794e-05
0.00085813132
5.6989012e-05
0.00087853989
8.8290832e-05
0.00089815941
0.00011295321
0.00091931077
0.00014294712
0.00093978791
0.00016528352
0.00096110057
0.00019082851
0.00098295429
0.00021218285
0.0010040741
0.00023226516
0.0010272095
0.00025251504
0.0010512523
0.00027045866
0.001073059
0.00028396789
0.0010982107
0.00029934942
0.001121879
0.00031502791
0.001150055
0.0003259081
0.0011762771
0.00033945597
0.0012023456
0.00034354485
0.001230239
0.00035641449
0.001259476
0.00036260261
0.00037742815
0.0012920956
0.0011149519
-3.5783931e-05
0.0010802065
-2.7045335e-05
0.001031365
-1.781974e-05
0.00098839714
-2.9537167e-05
0.00097565669
-1.2185463e-05
0.00096946875
3.2213807e-05
0.00095065757
6.49377e-05
0.00092533908
8.2708496e-05
0.00090448771
0.00010122577
0.00088986168
0.0001151539
0.00087676171
0.00011071084
0.00086377951
8.2871409e-05
0.00085099333
4.6238902e-05
0.0008368242
4.3190782e-06
0.00082176755
-3.6578121e-05
0.00080653721
-7.6068999e-05
0.00079173698
-0.00011196667
0.00077820124
-0.00014014727
0.00076613358
-0.00016835593
0.00075569715
-0.00018681605
0.00074628246
-0.00020219962
0.00073772168
-0.00020954456
0.00073122808
-0.00021100318
0.00072646583
-0.00021228964
0.00072377503
-0.00020914725
0.00072359079
-0.00019829908
0.000725814
-0.00018510166
0.00073055604
-0.00017138302
0.00073744326
-0.00015552276
0.00074677809
-0.00013513394
0.00075821401
-0.00011095397
0.0007715746
-8.5395076e-05
0.00078661545
-5.8178132e-05
0.0008031225
-3.0345202e-05
0.00082111932
-2.9709065e-06
0.00083967373
2.5291003e-05
0.00085923042
5.3568314e-05
0.00087852397
7.902755e-05
0.00089948159
0.0001069097
0.00091977815
0.00012999646
0.00094090832
0.00015439935
0.00096297234
0.00017728183
0.00098341044
0.00019532875
0.0010074934
0.00021712746
0.0010289691
0.00023358725
0.0010519289
0.00024751195
0.0010755635
0.00026622222
0.0011012068
0.00027798965
0.001124539
0.00029086737
0.0011498219
0.00029810771
0.0011744998
0.00031224857
0.0011998149
0.00031806676
0.0012334496
0.00033504741
0.0012534537
0.00032924229
0.00034932204
0.0012868081
0.0011167274
-4.2196594e-05
0.001082324
-3.3660645e-05
0.0010338914
-2.4013007e-05
0.00099150352
-3.9130591e-05
0.00097927169
-2.376119e-05
0.00097331722
1.9223714e-05
0.00095455116
5.0426215e-05
0.00092905193
6.8549531e-05
0.0009075997
8.8542659e-05
0.00089211452
0.00010489892
0.00087789003
0.00010222932
0.00086435118
7.5863182e-05
0.00085114178
4.2384172e-05
0.00083675544
6.5183458e-07
0.00082146518
-4.0367097e-05
0.00080612451
-7.7480194e-05
0.0007914988
-0.00011111396
0.00077786523
-0.00014029748
0.00076642038
-0.00015980243
0.00075621378
-0.00017822669
0.00074732704
-0.00019089294
0.00073940514
-0.00019897826
0.00073303311
-0.0001986052
0.00072850459
-0.0001946029
0.00072602312
-0.00019146406
0.00072581617
-0.00018762253
0.00072810501
-0.00017658711
0.00073291311
-0.00016058637
0.00074012856
-0.00014384496
0.00074943925
-0.00012550919
0.00076074936
-0.00010507168
0.00077435274
-8.1292339e-05
0.00078951714
-5.6472163e-05
0.00080616425
-3.0109226e-05
0.0008237186
-3.7436672e-06
0.00084274337
2.3171877e-05
0.00086130268
4.7926938e-05
0.00088180609
7.5219099e-05
0.00090064723
9.6804965e-05
0.00092226401
0.00012237181
0.00094207726
0.00014222918
0.00096332527
0.00016197375
0.00098554897
0.00018423182
0.0010070187
0.00019749784
0.0010285261
0.00021568575
0.0010537015
0.0002306993
0.0010761761
0.00024546051
0.0010989922
0.00025317963
0.0011233999
0.00026936319
0.001148887
0.00027701172
0.0011747598
0.00029128888
0.0012018637
0.00029240078
0.0012222146
0.00030242377
0.0012539733
0.00030568399
0.000318725
0.0012780756
0.001116903
-4.8662245e-05
0.0010838341
-4.1232353e-05
0.0010365994
-3.0801141e-05
0.00099526486
-4.8966661e-05
0.00098359059
-3.5542208e-05
0.0009778923
6.3773249e-06
0.0009591833
3.662051e-05
0.00093334951
5.6073955e-05
0.0009110963
7.8218959e-05
0.00089439902
9.6675463e-05
0.00087899645
9.3646734e-05
0.0008648965
7.1277515e-05
0.00085118558
3.6791285e-05
0.00083650897
-3.7229709e-06
0.00082106955
-4.2145788e-05
0.0008055901
-7.9312983e-05
0.00079088115
-0.00010937612
0.00077760137
-0.00013810193
0.00076622882
-0.00015842797
0.00075643662
-0.00017547406
0.0007479362
-0.00018639818
0.0007405441
-0.00019150237
0.00073461664
-0.00019334412
0.00073035934
-0.00018826841
0.00072791524
-0.00017925804
0.00072802525
-0.00017058177
0.00073018224
-0.00016376997
0.00073478679
-0.00015269575
0.00074180547
-0.00013671135
0.00075115257
-0.00011795171
0.00076260757
-9.8257123e-05
0.00077588595
-7.6534143e-05
0.00079092623
-5.3116055e-05
0.0008072875
-2.9029296e-05
0.00082525045
-4.1282373e-06
0.00084376918
2.0076553e-05
0.00086328781
4.5528751e-05
0.00088221815
6.6877007e-05
0.00090283098
9.2018163e-05
0.00092249935
0.00011034738
0.00094291205
0.00013282707
0.00096506243
0.00015140431
0.00098400123
0.00016669211
0.0010066984
0.00018314188
0.0010295416
0.00020156439
0.0010507427
0.00020899247
0.0010731066
0.00022517852
0.0010981144
0.00023561576
0.0011223204
0.00024912261
0.0011470094
0.00025370291
0.0011679787
0.00026248276
0.0011952534
0.00027012916
0.0012210661
0.00028090166
0.0012474238
0.0002830072
0.0002950286
0.0012754894
0.0011161643
-5.543981e-05
0.0010851254
-5.0732632e-05
0.0010399618
-3.8834239e-05
0.0010003588
-6.009333e-05
0.00098942926
-4.7587541e-05
0.00098372927
-7.0295247e-06
0.00096471094
2.3872025e-05
0.00093813692
4.4836276e-05
0.00091474543
7.0636108e-05
0.00089663127
9.0148127e-05
0.0008800874
9.017463e-05
0.0008652193
6.6962118e-05
0.00085097715
3.1402012e-05
0.00083625079
-8.0170412e-06
0.00082064285
-4.4263154e-05
0.00080521602
-7.8924215e-05
0.0007905043
-0.00010828313
0.00077741899
-0.00013082205
0.00076602539
-0.00015299556
0.00075657781
-0.00016877982
0.00074846403
-0.00018049779
0.00074130745
-0.00018429746
0.00073580915
-0.00018301073
0.00073194193
-0.00018019283
0.00072988612
-0.00017345409
0.00072986843
-0.0001620374
0.00073225046
-0.00014921624
0.00073685069
-0.00013838996
0.00074395711
-0.00012540016
0.00075319248
-0.00010973694
0.00076453893
-9.1197742e-05
0.00077795182
-7.1105248e-05
0.0007929506
-4.9546437e-05
0.00080934964
-2.7358629e-05
0.00082684628
-4.3956737e-06
0.00084565075
1.8720926e-05
0.0008641428
4.0350975e-05
0.0008842582
6.3101712e-05
0.00090305491
8.2729691e-05
0.00092383757
0.00010298121
0.00094402882
0.0001219737
0.00096329514
0.00013580894
0.00098527297
0.00015660023
0.0010064781
0.00016746306
0.0010262379
0.00018143128
0.0010493986
0.00019387627
0.0010730297
0.00020920581
0.001095126
0.00021439286
0.001117616
0.00022585996
0.0011395283
0.0002314423
0.0011680083
0.00024643057
0.0011909449
0.0002481523
0.0012172797
0.0002577591
0.0012392786
0.00025331465
0.00026944636
0.001265412
0.0011201567
-6.3238652e-05
0.0010914542
-6.2234627e-05
0.0010474358
-4.6959269e-05
0.0010088559
-7.1753979e-05
0.00099781944
-5.885912e-05
0.00099096737
-1.8893115e-05
0.00097059013
1.2590086e-05
0.00094274289
3.5541376e-05
0.00091803184
6.4433494e-05
0.00089859746
8.5397612e-05
0.00088092871
8.7119625e-05
0.00086535997
6.3275505e-05
0.00085085104
2.9057092e-05
0.00083595791
-1.0978299e-05
0.00082027687
-4.791646e-05
0.00080482338
-7.9643422e-05
0.00079033618
-0.00010882889
0.00077716207
-0.00013070615
0.00076615324
-0.00014840893
0.00075692208
-0.00016140543
0.00074922696
-0.00017113689
0.00074265257
-0.00017536834
0.00073741628
-0.00017021808
0.00073367237
-0.00016447241
0.00073176347
-0.00015902986
0.00073188343
-0.00015282389
0.00073402709
-0.00014192936
0.0007387111
-0.00012731121
0.00074578826
-0.00011364453
0.00075485552
-9.9257173e-05
0.00076628597
-8.2734481e-05
0.00077932779
-6.4945211e-05
0.00079413537
-4.5378003e-05
0.00081029006
-2.5400825e-05
0.00082787552
-3.9369504e-06
0.00084598141
1.6608896e-05
0.00086520133
3.8012065e-05
0.00088391581
5.6639773e-05
0.00090386896
7.7211572e-05
0.00092338238
9.4001962e-05
0.00094279761
0.0001112405
0.00096399426
0.00012702503
0.00098336748
0.00014107549
0.0010033992
0.00015234184
0.0010261695
0.00016962515
0.0010473209
0.00017625527
0.0010681345
0.00018816687
0.0010903122
0.00019565093
0.0011143411
0.00020988995
0.0011387977
0.00021403963
0.0011616039
0.0002237785
0.0011833557
0.00022241169
0.0012055716
0.00023433689
0.0012368417
0.0002398155
0.00024520845
0.0012582429
0.0011341045
-7.2040321e-05
0.0011056312
-7.2932263e-05
0.0010591635
-5.1438301e-05
0.0010188392
-8.0598367e-05
0.0010063983
-6.8610864e-05
0.00099749045
-2.7982379e-05
0.00097520529
3.6209054e-06
0.00094606487
2.8739554e-05
0.0009203837
5.9521563e-05
0.00090014386
8.274065e-05
0.00088154888
8.4044513e-05
0.00086562055
6.2182091e-05
0.00085069371
2.7913156e-05
0.00083562096
-1.3197403e-05
0.00081990941
-5.0588232e-05
0.00080431895
-8.3697802e-05
0.00078989551
-0.00010894626
0.00077679221
-0.00013381274
0.00076614374
-0.00014756101
0.00075720494
-0.00016021736
0.00074990315
-0.00016652432
0.00074395464
-0.00016926409
0.00073894687
-0.00016752159
0.00073535823
-0.00015911046
0.00073360104
-0.00014785861
0.00073389009
-0.00013773489
0.00073607702
-0.00012879754
0.0007405512
-0.00011829454
0.00074751224
-0.00010410899
0.0007568751
-8.9266753e-05
0.00076782477
-7.4185861e-05
0.00078097191
-5.8080728e-05
0.00079552925
-4.0545107e-05
0.00081160795
-2.2167947e-05
0.00082868929
-3.4512935e-06
0.00084681621
1.5658618e-05
0.00086524805
3.4405848e-05
0.00088444656
5.2472733e-05
0.00090347344
7.0078449e-05
0.00092248669
8.4914069e-05
0.00094285835
0.00010272308
0.00096146646
0.00011363136
0.00098179594
0.00012931202
0.0010028046
0.00014005306
0.001022399
0.00015216438
0.0010429516
0.00015980173
0.0010654098
0.00017391263
0.0010884458
0.00018031649
0.0011093604
0.00018871727
0.0011318294
0.00019223189
0.0011519393
0.00020141042
0.0011793927
0.00020902294
0.0012064327
0.00021713313
0.0012221035
0.00021138478
0.0002253104
0.0012515395
0.0011482462
-7.7681934e-05
0.0011150369
-7.8211566e-05
0.0010665615
-5.3148879e-05
0.0010253055
-8.6753684e-05
0.0010122339
-7.6972953e-05
0.0010021295
-3.614756e-05
0.00097866304
-3.033393e-06
0.00094872862
2.2670614e-05
0.0009224982
5.6055005e-05
0.00090150773
8.0639552e-05
0.00088225111
8.3378215e-05
0.00086581193
6.282168e-05
0.00085052394
2.6336378e-05
0.00083529853
-1.4877749e-05
0.00081952149
-5.0967163e-05
0.00080399213
-8.4125273e-05
0.0007893784
-0.0001098842
0.00077666152
-0.00012929252
0.00076592854
-0.00014651429
0.00075729148
-0.00015817882
0.0007502299
-0.00016556198
0.00074459127
-0.00016397282
0.00073990346
-0.0001616294
0.00073674096
-0.0001554388
0.00073529376
-0.00014449254
0.00073564225
-0.00013026966
0.00073795486
-0.00011702246
0.00074231354
-0.0001051975
0.00074917337
-9.4001405e-05
0.00075800496
-8.0791605e-05
0.00076916034
-6.6654255e-05
0.00078195271
-5.1347035e-05
0.00079637095
-3.5538478e-05
0.00081214119
-1.9174969e-05
0.00082910948
-2.0553474e-06
0.00084676305
1.5033363e-05
0.000865112
3.152977e-05
0.00088373496
4.7818564e-05
0.00090228679
6.3248841e-05
0.00092184316
7.8841119e-05
0.00094015569
9.1403022e-05
0.00095989395
0.00010399117
0.00097971067
0.00011726362
0.00099857767
0.00012526769
0.0010188661
0.00013790538
0.0010403417
0.00014587961
0.0010614747
0.00015684081
0.0010809918
0.00016026791
0.0011032148
0.00017132365
0.001125528
0.00017759354
0.0011517698
0.00018719994
0.0011710618
0.00018578764
0.0011915396
0.00019334527
0.0012175868
0.00019401005
0.00020508999
0.0012404888
0.0011471485
-8.4789511e-05
0.001116143
-8.4980708e-05
0.0010679625
-5.3537848e-05
0.0010269589
-9.1740759e-05
0.0010140483
-8.3289229e-05
0.0010039893
-4.364573e-05
0.0009805877
-1.004612e-05
0.00095090243
1.627173e-05
0.00092454269
5.2703891e-05
0.00090304446
7.8836026e-05
0.0008830391
8.4741766e-05
0.00086601171
6.3942328e-05
0.00085032076
2.7418572e-05
0.00083504078
-1.4411947e-05
0.00081924635
-5.1124353e-05
0.00080374687
-8.2038063e-05
0.00078932725
-0.00010968358
0.00077657675
-0.00012627007
0.00076605542
-0.00014186944
0.00075754627
-0.00015149328
0.00075095108
-0.00015849647
0.00074542164
-0.00016067004
0.00074121944
-0.00015256034
0.00073828064
-0.00014349416
0.00073701599
-0.00013467795
0.00073746165
-0.00012385662
0.00073963972
-0.0001103946
0.00074410491
-9.5755633e-05
0.00075083933
-8.1887734e-05
0.00075969074
-6.9191241e-05
0.0007704166
-5.6503441e-05
0.00078311425
-4.3297235e-05
0.00079728435
-2.9292403e-05
0.00081278107
-1.4965512e-05
0.00082931236
-1.2501034e-07
0.0008465117
1.4405222e-05
0.00086456431
2.9743948e-05
0.00088267939
4.3484457e-05
0.00090151808
5.7781002e-05
0.00091928963
6.9618329e-05
0.00093854399
8.3204468e-05
0.00095730716
9.3572858e-05
0.00097593662
0.00010453207
0.00099536566
0.00011308073
0.0010158653
0.00012557024
0.0010353157
0.00013043656
0.0010548994
0.00014007051
0.0010764179
0.0001462395
0.0011001132
0.00015777108
0.0011194031
0.00015691068
0.0011408312
0.00016658497
0.0011617143
0.0001671013
0.00118619
0.00017814873
0.0012112451
0.00018021296
0.00018354156
0.0012314404
0.0011452069
-9.2654728e-05
0.0011158922
-9.2453366e-05
0.0010684784
-5.3035989e-05
0.0010279625
-9.4948502e-05
0.0010150724
-8.7821187e-05
0.0010051935
-4.9360831e-05
0.0009820929
-1.7189036e-05
0.0009528713
9.8492472e-06
0.00092650025
4.7034967e-05
0.00090452828
7.584472e-05
0.00088376667
8.4385921e-05
0.00086613942
6.501073e-05
0.00085016847
3.1023141e-05
0.00083481657
-1.1691628e-05
0.00081904995
-4.9856295e-05
0.00080344369
-8.1720547e-05
0.00078928186
-0.00010697911
0.000776367
-0.00012862368
0.00076624086
-0.00014087777
0.000757912
-0.00014989646
0.00075144353
-0.00015332676
0.00074657333
-0.00015480125
0.00074266776
-0.00015003298
0.0007398213
-0.00013916377
0.00073875221
-0.00012498631
0.00073923209
-0.00011244602
0.00074156205
-9.9819982e-05
0.00074576754
-8.6753363e-05
0.00075241853
-7.3384535e-05
0.00076091103
-6.0612409e-05
0.00077158646
-4.8075241e-05
0.00078390486
-3.5436665e-05
0.0007977105
-2.355109e-05
0.00081288043
-1.100973e-05
0.00082901023
1.9781258e-06
0.00084599628
1.5233047e-05
0.00086333576
2.7364381e-05
0.00088129231
4.0008776e-05
0.00089915326
5.1794695e-05
0.00091729644
6.3025844e-05
0.00093563403
7.4630116e-05
0.00095361441
8.3381307e-05
0.00097248424
9.3610773e-05
0.00099179452
0.00010135758
0.0010103409
0.00011034547
0.0010294491
0.00011591459
0.0010507744
0.00012743869
0.0010720572
0.00013195067
0.0010893644
0.00013695628
0.001112737
0.00014237475
0.0011326292
0.00015082373
0.0011577115
0.0001543693
0.0011803088
0.00016170105
0.0011946899
0.00015288392
0.00016756644
0.0012211908
0.0011292039
-0.00010126843
0.0011037092
-0.00010283645
0.0010606732
-5.4390866e-05
0.0010230121
-9.9069697e-05
0.0010110372
-9.1603909e-05
0.0010025535
-5.4767411e-05
0.00098127205
-2.4808579e-05
0.00095374866
2.1021373e-06
0.00092809126
3.9759274e-05
0.00090601362
7.1363311e-05
0.00088449929
8.1683916e-05
0.00086645828
6.7187667e-05
0.00085009535
3.4108951e-05
0.00083459135
-7.850849e-06
0.00081880979
-4.6186401e-05
0.00080328564
-8.0338012e-05
0.00078901649
-0.00010459724
0.00077631442
-0.00012518043
0.00076619888
-0.00013874825
0.00075808808
-0.00014993455
0.00075176779
-0.00015478846
0.00074724889
-0.0001511314
0.00074356795
-0.00014742761
0.00074117439
-0.00013859841
0.00074029738
-0.00012446522
0.00074107363
-0.00010669457
0.00074342688
-9.1128205e-05
0.00074747643
-7.7056392e-05
0.00075383494
-6.3968761e-05
0.00076215717
-5.1514188e-05
0.00077258747
-3.9481088e-05
0.00078439057
-2.8674691e-05
0.00079812031
-1.7264128e-05
0.00081292171
-6.2082938e-06
0.00082862928
4.5297113e-06
0.0008449061
1.5258608e-05
0.00086203897
2.6572904e-05
0.00087934141
3.6471473e-05
0.00089691028
4.6437353e-05
0.00091465373
5.6360271e-05
0.00093208414
6.499977e-05
0.00094994953
7.366721e-05
0.00096858581
8.3095466e-05
0.00098638317
8.8848681e-05
0.0010054737
9.8726038e-05
0.0010253913
0.00010424488
0.0010446887
0.00011289916
0.0010622853
0.00011382943
0.0010847398
0.00012484267
0.0011060866
0.00012916129
0.0011265513
0.00013334076
0.0011484429
0.00013640501
0.0011612028
0.00013834677
0.0011933149
0.00014587702
0.00014966988
0.0012109663
0.0011256882
-0.00010827788
0.001098644
-0.0001104091
0.0010555474
-5.4584855e-05
0.0010182195
-9.9817065e-05
0.0010069303
-9.2173295e-05
0.00099961627
-5.9059029e-05
0.00097980389
-3.1805934e-05
0.00095378525
-7.2705524e-06
0.00092905974
3.2636771e-05
0.00090707945
6.6084587e-05
0.00088520191
7.9716141e-05
0.00086668523
6.9051369e-05
0.00084990885
3.7106836e-05
0.00083447381
-3.220764e-06
0.00081865111
-4.0335311e-05
0.00080329666
-7.262846e-05
0.00078904343
-0.0001011171
0.00077649917
-0.00011754613
0.00076622165
-0.00013262887
0.00075818093
-0.00014341014
0.00075223152
-0.00015096359
0.00074764849
-0.00015074548
0.0007444731
-0.00014208077
0.00074242075
-0.00013084367
0.00074185235
-0.00011808701
0.0007426503
-0.00010278312
0.00074495271
-8.5461427e-05
0.0007490706
-6.994871e-05
0.00075516039
-5.542733e-05
0.00076329836
-4.2861661e-05
0.00077304493
-3.2057375e-05
0.00078482651
-2.1219986e-05
0.00079802904
-1.1352809e-05
0.00081237603
-2.2173008e-06
0.00082762534
7.1050709e-06
0.00084363008
1.6553675e-05
0.00085993382
2.4764589e-05
0.00087685593
3.3634186e-05
0.00089406904
4.1922897e-05
0.00091090874
4.9595999e-05
0.0009284223
5.8575919e-05
0.00094593244
6.523603e-05
0.00096335868
7.2211554e-05
0.00098162071
7.8223842e-05
0.0010003877
8.6616456e-05
0.0010187871
9.0961165e-05
0.0010360392
9.6924948e-05
0.0010582027
0.00010476431
0.0010783952
0.0001104043
0.0010946331
0.00010952506
0.0011189986
0.00012010561
0.0011338201
0.00012039424
0.0011624214
0.00012780587
0.0011789978
0.00012885463
0.00013055869
0.0011991601
0.0011237355
-0.00011322927
0.0010931833
-0.00011186822
0.0010478618
-4.9654847e-05
0.00100941
-9.7155141e-05
0.00099880293
-8.9884909e-05
0.00099321163
-6.1919769e-05
0.00097539235
-3.9043919e-05
0.00095164026
-1.7697785e-05
0.00092859346
2.2251239e-05
0.0009075309
5.7078509e-05
0.00088580076
7.5830901e-05
0.00086697208
6.8215251e-05
0.00085005121
4.1409871e-05
0.00083456906
3.1493476e-06
0.00081879664
-3.3143131e-05
0.00080336982
-6.4046469e-05
0.00078940638
-9.2345564e-05
0.00077665698
-0.00011373698
0.00076650107
-0.00012869707
0.0007585679
-0.00013795337
0.00075276716
-0.00014287358
0.00074861318
-0.00014563569
0.00074581972
-0.0001389731
0.00074398894
-0.00012651764
0.00074364937
-0.00011010069
0.00074449507
-9.4895814e-05
0.00074675017
-7.8973946e-05
0.00075066314
-6.2572439e-05
0.00075660942
-4.7870081e-05
0.00076419507
-3.5046321e-05
0.00077387354
-2.3674229e-05
0.00078496575
-1.3992652e-05
0.00079778433
-5.6987702e-06
0.00081171644
1.9320023e-06
0.00082659216
9.8683321e-06
0.00084183248
1.7313675e-05
0.00085789078
2.4459056e-05
0.00087421458
3.1002203e-05
0.00089075557
3.7071148e-05
0.0009077387
4.4339312e-05
0.00092426325
5.0021142e-05
0.00094113165
5.6725507e-05
0.0009586055
6.2742068e-05
0.00097629501
6.8534164e-05
0.00099433133
7.4811365e-05
0.0010111918
7.8630102e-05
0.0010327124
8.8249e-05
0.0010495015
8.8665359e-05
0.0010671917
9.4339969e-05
0.0010900777
0.00010005257
0.001108879
0.00010538009
0.0011262775
0.00010386756
0.0011534971
0.00011696834
0.001162702
0.00010599501
0.00011937676
0.0011898706
0.0011285688
-0.00011494056
0.0010933674
-0.0001083348
0.0010458845
-4.0529692e-05
0.00100619
-9.0929689e-05
0.00099506815
-8.5292815e-05
0.00098956082
-6.1372138e-05
0.00097229882
-4.4398547e-05
0.00094973023
-2.7290303e-05
0.000927707
8.8460699e-06
0.00090743045
4.4413464e-05
0.00088581911
6.6247025e-05
0.00086703448
6.4462137e-05
0.00085000762
4.4690878e-05
0.00083453204
1.0070875e-05
0.00081886826
-2.4656546e-05
0.00080347223
-5.6315376e-05
0.00078947025
-8.2232729e-05
0.00077661784
-0.00010726162
0.00076659208
-0.00012365378
0.00075877738
-0.00013633839
0.00075298562
-0.00014223846
0.00074930778
-0.00014034115
0.00074671057
-0.00013628932
0.00074533547
-0.00012554445
0.00074503418
-0.00010889075
0.00074614523
-8.9663678e-05
0.00074842185
-7.1847105e-05
0.00075222018
-5.5682403e-05
0.00075757838
-4.1193208e-05
0.00076510932
-2.8711927e-05
0.00077404786
-1.7838161e-05
0.00078476701
-8.5663811e-06
0.00079708516
-8.1043438e-07
0.00081055096
5.5875926e-06
0.00082480359
1.1805536e-05
0.00083971307
1.799166e-05
0.00085502942
2.3595648e-05
0.00087074958
2.8049238e-05
0.00088713457
3.3542466e-05
0.00090303171
3.8267894e-05
0.00091980193
4.4454725e-05
0.00093606349
4.8709627e-05
0.00095350937
5.5194783e-05
0.00096988022
5.7476752e-05
0.00098782568
6.5324324e-05
0.0010061856
6.7743036e-05
0.0010230672
7.4333666e-05
0.0010411781
7.6752544e-05
0.0010620592
8.4653567e-05
0.0010806144
8.5133511e-05
0.0010956943
8.9049262e-05
0.0011242196
9.5678429e-05
0.0011309282
9.4597671e-05
0.0011615469
0.00010014275
0.00010236772
0.001176442
0.0011349534
-0.00011278125
0.0010942251
-9.8656236e-05
0.0010449126
-2.7324505e-05
0.0010042179
-7.9689908e-05
0.00099241355
-7.7823249e-05
0.00098652151
-5.8339491e-05
0.0009692477
-4.6200793e-05
0.00094724078
-3.5615324e-05
0.00092600972
-4.5348079e-06
0.00090655808
3.0779715e-05
0.00088546223
5.4479826e-05
0.00086698979
5.9917609e-05
0.00085000178
4.5591005e-05
0.00083463553
1.6152696e-05
0.00081895058
-1.4882324e-05
0.00080370562
-4.4670452e-05
0.00078948579
-7.3150812e-05
0.00077684377
-9.4504108e-05
0.00076662887
-0.00011361499
0.00075885135
-0.00012883239
0.00075342256
-0.0001392986
0.0007497966
-0.00013908886
0.00074763517
-0.00013202566
0.00074666903
-0.00012027886
0.00074664268
-0.00010535585
0.00074782498
-8.7016445e-05
0.00075012167
-6.7818825e-05
0.0007536842
-5.0532688e-05
0.0007587649
-3.4728317e-05
0.00076569404
-2.2128935e-05
0.00077427861
-1.2056294e-05
0.00078430789
-3.2807508e-06
0.00079603286
3.5766854e-06
0.00080902215
8.4132033e-06
0.00082296824
1.3493025e-05
0.00083737035
1.8589523e-05
0.00085193657
2.2601579e-05
0.00086748284
2.5823218e-05
0.00088304784
2.8751501e-05
0.00089919207
3.3685123e-05
0.00091502627
3.8103424e-05
0.00093168607
4.300372e-05
0.00094700441
4.4841551e-05
0.00096492939
5.0823636e-05
0.00098090843
5.3349791e-05
0.00099936296
5.9540676e-05
0.0010156823
6.2179057e-05
0.0010356559
6.7969352e-05
0.0010517844
6.9941717e-05
0.0010701391
7.3162886e-05
0.0010912223
7.8512753e-05
0.0011071316
8.0815984e-05
0.0011282373
8.2907395e-05
0.0011460426
8.6111769e-05
8.695777e-05
0.0011644316
0.0011377498
-0.00010801666
0.0010944702
-8.471472e-05
0.0010449526
-1.2287478e-05
0.0010042892
-6.6153473e-05
0.00099197933
-6.5095475e-05
0.0009856786
-5.0917196e-05
0.00096823377
-4.5787256e-05
0.00094656471
-4.2983155e-05
0.00092570686
-1.7363686e-05
0.00090652051
1.7078097e-05
0.00088547468
4.2995552e-05
0.00086690632
5.3391317e-05
0.00084976395
4.4417296e-05
0.00083444691
2.1500862e-05
0.00081897406
-5.0409299e-06
0.00080372534
-3.0715488e-05
0.00078968218
-6.0398575e-05
0.00077695309
-8.3374459e-05
0.00076674041
-0.00010400306
0.00075895888
-0.00011855053
0.00075378091
-0.00012809943
0.00075038479
-0.00013280906
0.00074866493
-0.00012673306
0.00074797573
-0.00011349223
0.00074816826
-9.7574855e-05
0.00074929822
-8.08145e-05
0.00075152838
-6.1969918e-05
0.00075494545
-4.4615424e-05
0.00075956523
-2.9745955e-05
0.00076594482
-1.7351481e-05
0.00077401541
-7.0049855e-06
0.00078352494
1.1881593e-06
0.00079450807
6.7626004e-06
0.00080699518
1.0580137e-05
0.00082033738
1.4555486e-05
0.0008341765
1.8477088e-05
0.0008483243
2.1255143e-05
0.00086319832
2.3421453e-05
0.00087870669
2.5851269e-05
0.00089425134
2.9157783e-05
0.0009101252
3.3331852e-05
0.00092494339
3.5112481e-05
0.00094232935
3.9911097e-05
0.00095702512
4.0977507e-05
0.00097583327
4.7109802e-05
0.00099029804
4.7455886e-05
0.0010101808
5.4733937e-05
0.0010247
5.4745817e-05
0.0010442124
5.9746109e-05
0.0010613431
6.246877e-05
0.0010812468
6.6383651e-05
0.0010951071
6.5702662e-05
0.0011201133
7.5652873e-05
0.0011305238
6.7649893e-05
7.9134664e-05
0.0011547912
0.0011366813
-0.0001048686
0.0010955107
-7.2004838e-05
0.001045424
4.3974312e-06
0.001004156
-5.2522075e-05
0.00099115007
-5.1473045e-05
0.00098446285
-4.2397141e-05
0.00096689685
-4.2731058e-05
0.00094545823
-4.7934523e-05
0.00092509901
-2.937103e-05
0.00090639443
1.6198563e-06
0.00088561038
3.0507351e-05
0.00086691123
4.3853311e-05
0.00084969254
4.2668512e-05
0.00083439691
2.6060484e-05
0.00081902001
4.700771e-06
0.00080363358
-1.9843884e-05
0.00078966779
-4.5139606e-05
0.00077673308
-7.2755111e-05
0.00076673506
-9.538378e-05