/*--------------------------------*- C++ -*----------------------------------*\
| =========                 |                                                 |
| \\      /  F ield         | OpenFOAM: The Open Source CFD Toolbox           |
|  \\    /   O peration     | Version:  2406                                  |
|   \\  /    A nd           | Website:  www.openfoam.com                      |
|    \\/     M anipulation  |                                                 |
\*---------------------------------------------------------------------------*/
FoamFile
{
    version     2.0;
    format      ascii;
    arch        "LSB;label=32;scalar=64";
    class       volScalarField;
    location    "24";
    object      T;
}
// * * * * * * * * * * * * * * * * * * * * * * * * * * * * * * * * * * * * * //

dimensions      [0 0 0 1 0 0 0];

internalField   nonuniform List<scalar> 
62344
(
1.0029101
1.0016686
1.0017419
1.0008098
0.99778091
0.99888766
0.99764421
0.99805123
0.99645984
0.99920701
1.0008275
1.0043283
1.0063538
1.0036896
1.0006549
0.99742946
0.99873343
0.99951838
0.99940553
1.0005358
0.99681417
0.99361352
0.99619182
0.99730686
0.99598602
0.99697455
0.99818763
0.99728118
0.9977017
0.99768571
0.99894334
0.99656416
0.99079736
0.98726433
0.98732295
0.99050661
0.99439915
0.99567735
0.99135307
0.98270685
0.97142544
0.9603806
0.95417046
0.95382047
0.95591902
0.95476018
0.95222999
0.9531844
0.95716658
0.96043403
0.95833797
0.95187938
0.9454103
0.9428326
0.94183539
1.0033365
1.001898
1.0014684
1.0004429
0.9974568
0.9980287
0.99692518
0.99734259
0.99668863
0.99773827
1.0003362
1.0034031
1.0046203
1.0041314
1.0014815
0.99879925
0.99951265
0.99867636
0.99706947
1.0000978
0.9999968
0.99510667
0.99543488
0.99778882
0.99788715
0.99868715
0.99886992
0.99650431
0.99740104
0.9991374
0.99856294
0.99439447
0.9903498
0.98848527
0.98722203
0.99036783
0.99869254
1.0014543
0.99418655
0.98294592
0.97471449
0.96944531
0.96514408
0.96454565
0.96581345
0.96479475
0.95850507
0.95211019
0.94853717
0.94816349
0.94790664
0.94350372
0.93497495
0.92723857
0.92382854
1.0035357
1.0025813
1.0012273
0.99951081
0.99802087
0.99732389
0.99744151
0.99676027
0.99764635
0.99677841
0.99925357
1.002561
1.0033514
1.0039137
1.0002214
0.99961864
1.0009716
0.99963373
0.99611682
0.9978578
0.99970133
0.99648141
0.99585856
0.99759181
0.99885168
1.0000995
0.99952871
0.99604054
0.99701762
1.0005581
0.99945541
0.99367896
0.98978426
0.98866626
0.98790962
0.99140687
0.99987765
1.003196
0.99484296
0.9803811
0.97163619
0.9709172
0.97236938
0.97160244
0.97315784
0.97488482
0.97150022
0.96193276
0.95093561
0.94288919
0.93972823
0.93877332
0.93596722
0.93163858
0.92757486
1.0033594
1.0032101
1.0012776
0.99880592
0.99873862
0.99747003
0.99843217
0.99683958
0.9976679
0.9970811
0.99842658
1.0014409
1.0039254
1.0043307
0.99934552
0.99937812
1.0009349
1.0009645
0.99829618
0.99745143
0.9974992
0.9964954
0.99679235
0.99689265
0.99861294
1.0003594
0.99899659
0.99510935
0.99650317
1.0015717
1.0006719
0.99437776
0.99103854
0.99137351
0.98994689
0.99130678
0.99799073
1.0011664
0.99351394
0.97839123
0.96856393
0.96892579
0.97459853
0.9762866
0.97507263
0.97458786
0.97266417
0.96690849
0.95581589
0.94459993
0.93564303
0.93306238
0.93545088
0.93730394
0.93870378
1.003092
1.003356
1.0015149
0.99876783
0.99877866
0.99763212
0.99873292
0.99722118
0.99644765
0.99744009
0.99850578
1.0010974
1.0050356
1.0046795
1.000156
0.99942688
0.99891426
1.0000102
1.0001056
0.99851387
0.99647981
0.99580243
0.9971656
0.99637845
0.99780187
0.99976406
0.9976289
0.99363042
0.99570359
1.0014904
1.0008044
0.99429222
0.99119333
0.99289801
0.99199788
0.99147782
0.99563278
0.99784725
0.99165738
0.97863218
0.96933465
0.96888507
0.97618064
0.98255305
0.98074814
0.9736803
0.96587871
0.95939924
0.95325996
0.94427518
0.93512951
0.92850659
0.9271992
0.93201124
0.93909807
1.0029277
1.0030148
1.0018556
0.99920819
0.99816457
0.99757187
0.99811009
0.9973582
0.99555924
0.99735892
0.99906486
1.0019801
1.005761
1.0040837
1.0013011
0.99974249
0.99748676
0.99794424
1.000089
0.99974754
0.99720235
0.99566467
0.99731359
0.99655313
0.99724947
0.99940452
0.99667264
0.99274238
0.99534397
1.0011254
0.99990813
0.99292584
0.99004832
0.99287961
0.9941853
0.99317086
0.99414046
0.99432031
0.98959489
0.9810297
0.97307781
0.97208427
0.97781241
0.98642601
0.98707328
0.97821039
0.96487031
0.95309632
0.94702803
0.94318937
0.93726777
0.93017901
0.92606798
0.92593538
0.9305828
1.0029453
1.0025255
1.0019556
0.99960846
0.99716333
0.99742767
0.99678802
0.99663687
0.9957154
0.99685218
0.99907334
1.0038868
1.0056296
1.0027884
1.0018873
1.0002167
0.99801817
0.99737783
0.99951242
1.0005368
0.9986055
0.99587768
0.99715584
0.99704758
0.9971375
0.9994982
0.99660838
0.99253466
0.9955141
1.0013106
0.99897456
0.9910147
0.98800664
0.99143467
0.99552598
0.99631182
0.99434486
0.99132671
0.9870901
0.9823171
0.97796381
0.97601325
0.979306
0.98630145
0.98899306
0.9827978
0.96929593
0.95425367
0.94374184
0.93968202
0.93874173
0.93771592
0.93466169
0.93142277
0.92949667
1.003048
1.0021916
1.0017722
0.99961937
0.99645509
0.9975628
0.99567421
0.99571418
0.99633861
0.99634354
0.99878192
1.0045672
1.004822
1.0018494
1.0019121
1.000879
0.99975862
0.99863571
0.99904008
1.0007346
0.99934131
0.99596683
0.99688323
0.99754712
0.99728988
0.99981262
0.99708478
0.99298596
0.99591472
1.0016717
0.99886627
0.99020239
0.98647179
0.98937866
0.99566421
0.99924617
0.99601708
0.98890063
0.98357287
0.98213981
0.98202719
0.98143502
0.98200849
0.98447555
0.98662093
0.98333492
0.97390119
0.95871152
0.94426346
0.9375081
0.93896486
0.94307109
0.94504766
0.94377739
0.93851343
1.0031452
1.0021241
1.0014236
0.99950941
0.99639604
0.99766741
0.99548217
0.99544051
0.99698405
0.99586609
0.99802686
1.0036454
1.0041095
1.0018723
1.0017554
1.0011544
1.0012371
1.000869
0.99931336
1.0002057
0.99905449
0.99582903
0.99658248
0.99764284
0.99735338
1.0000912
0.99796259
0.99401416
0.9966781
1.0019336
0.99913188
0.99071046
0.98613705
0.98779574
0.99456332
1.0008319
0.99816484
0.98791056
0.98008567
0.98010189
0.98393797
0.98606238
0.98481577
0.98255939
0.98139695
0.97926483
0.97328753
0.96223263
0.94878116
0.94032607
0.93884886
0.94398924
0.94991773
0.95215489
0.94854929
1.0032234
1.0022117
1.0008928
0.99933106
0.99695374
0.99742208
0.99607359
0.99591766
0.99708151
0.99554114
0.99700946
1.0018931
1.0037698
1.0028015
1.0015368
1.0009047
1.0016745
1.0021499
0.99959804
0.99958887
0.99820474
0.99555621
0.99635581
0.99755938
0.99724727
1.0002245
0.99889342
0.99551845
0.99772256
1.0018154
0.99907711
0.99192381
0.9872387
0.98731264
0.99365669
1.0013803
0.99991234
0.98810067
0.97741487
0.97692841
0.98368734
0.98894097
0.98847003
0.98308996
0.97698548
0.97295512
0.96914603
0.96390242
0.95563818
0.94732322
0.9438594
0.94457247
0.9482211
0.95222521
0.95284655
1.0032484
1.0023064
1.0005335
0.99913189
0.99770536
0.99682506
0.99694019
0.9967259
0.99650052
0.99544804
0.99638747
1.0003311
1.0034408
1.004452
1.0015884
1.0002115
1.0011162
1.001625
0.99958544
0.99907941
0.99757974
0.99572833
0.99666182
0.99752203
0.99696984
0.99999496
0.99942137
0.99681466
0.99860645
1.0011337
0.9983898
0.99321035
0.98928805
0.98786751
0.99319062
1.0012876
1.0009494
0.9891769
0.97661814
0.97411672
0.98125728
0.98976215
0.9919267
0.9856165
0.97534651
0.967071
0.96300063
0.9616889
0.96018264
0.95641981
0.95156302
0.94859329
0.94713901
0.94730372
0.94793601
1.0032489
1.0024213
1.0004288
0.99892304
0.99828991
0.99617231
0.99764821
0.99717254
0.99550888
0.99536233
0.99651668
0.99957218
1.0033091
1.0056904
1.0018359
0.99940425
0.99988628
1.0004402
0.99938309
0.99894401
0.99757968
0.99643945
0.99753178
0.99736683
0.99657032
0.99945548
0.99913759
0.99740898
0.99892373
0.9999555
0.99717447
0.99376716
0.9908518
0.98912408
0.99316209
1.000691
1.0011335
0.99057634
0.97743231
0.97285494
0.97832091
0.98865322
0.9939493
0.989194
0.97695336
0.96440303
0.95705848
0.95667208
0.96011126
0.96206612
0.95954802
0.95421966
0.94784515
0.94213236
0.93994603
1.003233
1.0025415
1.0005774
0.99879279
0.99851158
0.9958155
0.99789931
0.99708552
0.99455376
0.99528355
0.99742457
0.99967257
1.0034759
1.006082
1.0020594
0.9987958
0.9988552
0.99924731
0.99911649
0.99929265
0.99820234
0.99737954
0.99840102
0.99723626
0.99625728
0.99888472
0.99829222
0.99703082
0.99866679
0.99854411
0.995762
0.99392875
0.9922283
0.9904951
0.99350238
0.99989765
1.000702
0.99178467
0.97929001
0.97309224
0.97653379
0.98653726
0.99421336
0.99277674
0.9809544
0.96541685
0.95460882
0.95220862
0.95682516
0.96284404
0.96499947
0.96044447
0.95119408
0.94060992
0.9332862
1.0031975
1.0026837
1.0010058
0.99883053
0.99833566
0.99598313
0.99772588
0.99657158
0.99394717
0.99534615
0.99843982
1.0003761
1.0036447
1.0058876
1.0021381
0.99872917
0.99857303
0.99864261
0.9990176
0.99977116
0.99891617
0.99809367
0.99891471
0.99725149
0.99633591
0.99876447
0.99742948
0.99610376
0.99800044
0.99711218
0.9944297
0.99381701
0.99326274
0.99181118
0.99381362
0.99887987
0.9994234
0.9922302
0.98156431
0.97497451
0.97622872
0.98459295
0.99406384
0.99503489
0.98528982
0.96983945
0.95627148
0.95060729
0.95366925
0.96124358
0.96741774
0.966021
0.9572322
0.94386341
0.93178605
1.0031447
1.0027657
1.0014548
0.99894328
0.99786293
0.99659967
0.99728627
0.99587484
0.99393441
0.99555671
0.99914166
1.0008243
1.0039125
1.0054163
1.0019965
0.99894693
0.99902968
0.9988411
0.99913307
1.0003444
0.99950091
0.99836419
0.99904292
0.99724934
0.99666354
0.99908035
0.99709575
0.99537039
0.99726838
0.99614991
0.99348067
0.99363892
0.99402135
0.99303023
0.99406045
0.99763453
0.99757247
0.99185356
0.98341781
0.97786093
0.97761334
0.98374077
0.99255818
0.99568455
0.989139
0.97466392
0.96072502
0.9529244
0.95357876
0.96017474
0.96770719
0.96977815
0.96378672
0.9519418
0.93777862
1.0030644
1.0028422
1.0019027
0.99910184
0.9972462
0.99739332
0.99679831
0.99523387
0.99445449
0.99579589
0.99889788
1.0008193
1.0044329
1.0050345
1.0019224
0.99932513
1.0000414
0.99991712
0.99943352
1.0008867
0.99989059
0.99814415
0.99866769
0.99699513
0.99716564
0.99972738
0.99744267
0.99523492
0.99694112
0.9957263
0.99322939
0.99369316
0.99465873
0.99430383
0.99467893
0.99644636
0.99556476
0.99084939
0.98496312
0.98079048
0.97984728
0.98386259
0.99120491
0.99512971
0.9909204
0.97968695
0.96686836
0.95869284
0.95665746
0.96108998
0.9679553
0.97212131
0.97014863
0.96098726
0.94744335
1.0030027
1.0028949
1.0022109
0.99923843
0.99663566
0.9981033
0.99639917
0.99484131
0.99517627
0.99601126
0.99809282
1.0006083
1.0049162
1.0048608
1.0017101
0.99974259
1.0010338
1.0011395
0.99989204
1.0012773
0.99998733
0.99754228
0.99783275
0.99664253
0.9976698
1.0005479
0.99830646
0.99584339
0.99718167
0.99598034
0.99358032
0.99382796
0.99516497
0.99578396
0.99558584
0.99565895
0.99377965
0.98948297
0.98581707
0.98329975
0.98233216
0.98493435
0.99020262
0.99371594
0.99119982
0.98315414
0.97321736
0.96549417
0.96249223
0.96461199
0.96943089
0.97374216
0.97404687
0.96936267
0.95859715
1.0029661
1.0029075
1.0023488
0.99932223
0.99623638
0.99860105
0.99618175
0.99477061
0.99591183
0.99620433
0.99693217
1.0003018
1.0053836
1.0048838
1.0014754
1.0000315
1.001656
1.0020384
1.0002215
1.0015602
0.99999632
0.99681744
0.99675188
0.99621462
0.99791269
1.0011199
0.99944101
0.9969446
0.99800907
0.99682168
0.99426475
0.99395242
0.99551882
0.99709439
0.99691601
0.9955186
0.99235555
0.98809565
0.9858248
0.98494679
0.98483481
0.98666673
0.98982402
0.99207974
0.9904008
0.98468501
0.97764559
0.97160005
0.96836897
0.96900969
0.97149777
0.97438969
0.97565896
0.97378106
0.96746356
1.0029664
1.0028987
1.0023144
0.99937403
0.9961472
0.99876318
0.99616736
0.99498388
0.99648766
0.99629617
0.9958589
0.99995906
1.0056582
1.0050488
1.0014428
1.0002402
1.0019539
1.0023402
1.0004199
1.0018265
1.0000043
0.9963011
0.99588557
0.99587905
0.9979026
1.0012355
1.0002611
0.99820463
0.99908856
0.99792796
0.99504862
0.99385371
0.99546087
0.99824149
0.99848692
0.99607352
0.99149754
0.98684457
0.98514673
0.98570129
0.98677756
0.98842221
0.99007291
0.9905019
0.98845214
0.98425705
0.97969757
0.97573769
0.97337375
0.97344318
0.9742449
0.97494416
0.97558572
0.97490154
0.97212372
1.0029884
1.0028585
1.0021409
0.99939932
0.99632638
0.99865821
0.99633769
0.99536973
0.99683676
0.99631684
0.99521637
0.99973278
1.0057298
1.0052808
1.001681
1.0005181
1.0019995
1.002311
1.0005597
1.0019165
1.0000329
0.99609048
0.99539841
0.9957288
0.99784286
1.000957
1.0004632
0.99911493
1.0000697
0.99901716
0.99572926
0.99350414
0.99504839
0.99894536
1.0000966
0.99709019
0.9913073
0.98600926
0.98419726
0.98566314
0.98797562
0.9899662
0.99072921
0.98927893
0.98601998
0.98258605
0.97962024
0.97767753
0.97703657
0.97678573
0.97607942
0.97489462
0.97355127
0.97288409
0.97201798
1.0030242
1.0027922
1.0018635
0.99938861
0.99673756
0.99831135
0.9965676
0.99585679
0.99691681
0.99623552
0.99505053
0.99976319
1.0055753
1.0054426
1.0021248
1.0008801
1.001785
1.0019657
1.0005797
1.0018263
1.0001456
0.99625128
0.9953935
0.99596586
0.99788863
1.0003169
1.0001212
0.99947325
1.0006223
0.9998126
0.99617063
0.99280227
0.99404545
0.99899116
1.0013389
0.99835225
0.99161085
0.98551458
0.98327935
0.98516631
0.98845651
0.99120392
0.99136295
0.98836776
0.98381586
0.98034338
0.97825656
0.97796816
0.97923509
0.97931748
0.97755403
0.97436131
0.97051506
0.96789974
0.96757505
1.0030739
1.0026986
1.0015394
0.99934263
0.99726653
0.9977925
0.99682669
0.99626151
0.99671482
0.99602909
0.99535976
0.99993525
1.0050646
1.0053769
1.0025163
1.0011596
1.0013575
1.0013244
1.0005115
1.0015704
1.0002312
0.99676119
0.99576598
0.99642881
0.99798521
0.99943786
0.99925345
0.99926658
1.0007217
1.0002153
0.99623266
0.9917289
0.9923644
0.99821826
1.0019884
0.99943147
0.99227686
0.98525929
0.98257453
0.98440886
0.98854859
0.99217572
0.99207648
0.98780548
0.98210049
0.97790831
0.97652699
0.97773797
0.98013285
0.98154087
0.97944093
0.97449736
0.96816392
0.96307097
0.96138454
1.0031365
1.002578
1.0012105
0.99926497
0.9977867
0.99723454
0.99703942
0.99655051
0.99627172
0.99563748
0.99591917
1.00016
1.004376
1.0050926
1.0027566
1.0012606
1.0007293
1.0003606
1.0001548
1.0010627
1.0001577
0.99740254
0.99637908
0.99700186
0.9981247
0.99847847
0.99794971
0.9984784
1.0002559
1.000161
0.9960135
0.99044116
0.99030305
0.99660527
1.0019467
1.0002509
0.99295426
0.9851747
0.98195258
0.9835987
0.98837028
0.99302962
0.99312304
0.98802874
0.98103917
0.97576565
0.97448549
0.97724387
0.98120527
0.98383652
0.98268291
0.97662806
0.96814642
0.96050579
0.95644294
1.0031784
1.0024483
1.0008896
0.99913665
0.99823339
0.99663202
0.99712892
0.99666228
0.99562962
0.99508978
0.99639293
1.0003434
1.0035517
1.0045496
1.0027796
1.0012691
1.0000165
0.99924765
0.99955611
1.000275
0.99983708
0.99787581
0.99703668
0.99762916
0.99838435
0.99762933
0.99652917
0.99737747
0.99934299
0.99971649
0.99565467
0.98916962
0.98812824
0.99458549
1.0011328
1.000683
0.9934777
0.9851543
0.98122056
0.98250199
0.98777773
0.99384674
0.99461591
0.9895323
0.98135687
0.97431548
0.97259581
0.97580961
0.98113746
0.98583313
0.98640006
0.98078395
0.97174398
0.96247894
0.95576424
1.0031587
1.0022821
1.00051
0.99890494
0.99845149
0.99598871
0.9970105
0.99651383
0.99482274
0.99440257
0.99665517
1.0003326
1.0026831
1.0038245
1.0025721
1.0010582
0.9993035
0.99812746
0.99871296
0.99933731
0.99923078
0.99803198
0.9975196
0.99828824
0.99891006
0.9973364
0.99543091
0.99623227
0.99831754
0.99906781
0.99530758
0.98819036
0.98640592
0.99246459
1.0001104
1.0005588
0.99393038
0.98535968
0.98058313
0.98113034
0.98677547
0.99389345
0.99626516
0.99177754
0.98338605
0.97493033
0.97220493
0.97466677
0.98050833
0.98722573
0.98934225
0.98457772
0.97627067
0.96684801
0.95855949
1.002941
1.0019806
1.0000177
0.99846143
0.99829101
0.99526132
0.99665572
0.9960881
0.99392053
0.99353719
0.99663749
1.0001547
1.0020098
1.0032528
1.0023967
1.0007445
0.99871452
0.99716562
0.99792382
0.99846837
0.9985052
0.9977331
0.99743979
0.99858927
0.9995262
0.99768635
0.99506897
0.99561287
0.99756263
0.99866142
0.99517032
0.98766278
0.98475926
0.99085473
0.99933606
1.001342
0.99484496
0.98614666
0.98001785
0.97983651
0.98524502
0.99296503
0.99746687
0.99441032
0.98617906
0.97719226
0.97265249
0.97484868
0.98104024
0.98923422
0.99332248
0.9906849
0.98214037
0.97159648
0.96265265
1.0022644
1.0014924
0.99947657
0.99790291
0.99790894
0.99465448
0.99631633
0.99571453
0.99325977
0.99292656
0.99643935
0.99999095
1.0015295
1.0030096
1.0023698
1.0006484
0.9984284
0.99672023
0.99754516
0.99797351
0.99799468
0.99730619
0.99706227
0.99835944
0.99960553
0.99796251
0.99543929
0.99570777
0.99737271
0.99866961
0.99537879
0.98825368
0.98461459
0.9896079
0.99808454
1.001378
0.99601154
0.98849508
0.98165389
0.98024287
0.98436681
0.99099476
0.99693343
0.99572165
0.9888931
0.98089019
0.97546545
0.97544838
0.98136177
0.98876654
0.9954089
0.99570849
0.98990451
0.98010875
0.97056491
0.96164698
0.95662407
0.953307
0.95170908
0.95530957
0.96209766
0.96829623
0.97037113
0.96660103
0.95684827
0.94309141
0.92962739
0.92034816
0.91905299
0.92536685
0.9356587
0.94378814
0.94534544
0.93811517
0.93051451
0.92955328
0.93631923
0.94378876
0.9378937
0.9237871
0.91818858
0.9328554
0.96100604
0.95930729
0.95749946
0.95693233
0.96159772
0.96720445
0.9698911
0.96712679
0.95752498
0.94207755
0.92543479
0.91167446
0.90408336
0.90627252
0.91468737
0.92371907
0.92880776
0.92717859
0.92130657
0.92154603
0.93036064
0.94160395
0.94403508
0.93584637
0.92543649
0.9175403
0.92333043
0.97218435
0.97131473
0.96725689
0.96667149
0.96991974
0.97158765
0.96934138
0.96161584
0.94806725
0.9309146
0.91368022
0.89935365
0.89278927
0.89410766
0.89967442
0.90326591
0.90395262
0.90373235
0.90551067
0.91538268
0.92942246
0.93891687
0.93601969
0.92912344
0.92607518
0.91976555
0.91870787
0.98845556
0.98402799
0.97684252
0.97465275
0.97384488
0.97142129
0.96567235
0.95573715
0.94182421
0.9246589
0.90663722
0.89142717
0.882202
0.87890708
0.8784697
0.87744585
0.8780565
0.88325309
0.89426556
0.91085298
0.92451928
0.92696271
0.9214707
0.91825071
0.92263394
0.91984588
0.91715544
0.99309198
0.98567205
0.97688784
0.97372418
0.9704443
0.96594628
0.95987386
0.95154473
0.93899208
0.92173524
0.90208998
0.88314598
0.86753997
0.85745504
0.85258833
0.85282081
0.85750678
0.86934147
0.88778598
0.90592147
0.91359808
0.91143289
0.90629087
0.90639536
0.914871
0.91487768
0.91713113
0.9833099
0.97406529
0.96586014
0.96251395
0.95911671
0.95632584
0.95407937
0.94856217
0.93617155
0.9162664
0.89223296
0.86673474
0.84483151
0.8307782
0.82702953
0.83066757
0.84144157
0.86065955
0.88249221
0.8978778
0.90134645
0.89952815
0.89490457
0.89611078
0.90497785
0.90722962
0.9154444
0.96786047
0.96055732
0.9553888
0.95197492
0.94917739
0.94890457
0.94941502
0.94434073
0.92901505
0.90400229
0.87191799
0.83999297
0.81523351
0.80241915
0.80260358
0.81144304
0.82765847
0.85132057
0.87320718
0.88677617
0.89217906
0.89211964
0.88816338
0.88841167
0.89685246
0.90107739
0.90885102
0.96185685
0.95830374
0.95445923
0.95051646
0.94871014
0.9496502
0.94934578
0.93953876
0.91610407
0.88208448
0.84372219
0.8090012
0.78414088
0.77482971
0.7799385
0.79281916
0.81184327
0.83438486
0.8558419
0.87356328
0.88532654
0.88852475
0.88556731
0.88508638
0.89198524
0.89536905
0.89732535
0.9688597
0.96757901
0.96277863
0.95760739
0.95527806
0.95510066
0.94980574
0.93125211
0.89862488
0.85842282
0.81812452
0.78439725
0.76269658
0.75541145
0.76068228
0.77349707
0.7905315
0.80955947
0.83195226
0.85727914
0.8772676
0.88679149
0.88578794
0.88549247
0.89108672
0.88844973
0.88182349
0.98431083
0.98066753
0.9711888
0.96401638
0.96049268
0.95708379
0.94530966
0.91988866
0.88426593
0.84509327
0.80733646
0.7767182
0.75666214
0.74772392
0.74844893
0.75498806
0.7643824
0.78022825
0.80515353
0.83783437
0.86597569
0.8819208
0.88572439
0.88702849
0.89201891
0.88305289
0.86886788
0.99235787
0.98465289
0.97157726
0.9628076
0.95843564
0.95231227
0.93715102
0.91063139
0.87727351
0.84313699
0.81017474
0.78149151
0.75981211
0.74668297
0.74132504
0.74097256
0.74439968
0.75704365
0.78206888
0.8168378
0.85028581
0.87248086
0.88233152
0.88772233
0.89169636
0.88097576
0.86291169
0.98256989
0.9730171
0.96033954
0.95332962
0.94960607
0.94302505
0.92802583
0.90458425
0.8761825
0.84549624
0.814024
0.78450147
0.761207
0.74511994
0.73661477
0.73401735
0.73628778
0.74531274
0.76654483
0.7995824
0.83411947
0.86088272
0.87561762
0.88350353
0.88896933
0.88122614
0.86419419
0.96408801
0.95609061
0.9480581
0.94288877
0.93896952
0.93210168
0.91890485
0.89777943
0.87000494
0.83773655
0.80403328
0.77305786
0.74920935
0.73552258
0.73159767
0.73249368
0.73539724
0.74341019
0.76124016
0.78975862
0.82306465
0.84998999
0.86553624
0.87286352
0.88138136
0.88198693
0.87017374
0.95533448
0.94988132
0.94306801
0.93802674
0.93279398
0.92430383
0.90883463
0.88410843
0.85128465
0.81477725
0.77934271
0.74959816
0.72940467
0.72166043
0.72367529
0.7288209
0.7351433
0.74501808
0.76265742
0.78930709
0.81890719
0.84136332
0.85310059
0.85823347
0.86976023
0.87953018
0.87563478
0.95584382
0.95249526
0.94535457
0.93798751
0.92998461
0.9180056
0.89602163
0.86283749
0.82329781
0.78389246
0.74981251
0.72456998
0.71089088
0.70806975
0.71238815
0.72033989
0.73105964
0.74537795
0.76665072
0.79328971
0.81938411
0.83592528
0.84066422
0.8433208
0.85738185
0.87369718
0.87685487
0.96442558
0.95952442
0.94892085
0.93913826
0.9288359
0.9092678
0.87617281
0.83508205
0.79319839
0.75536796
0.72506517
0.70489151
0.69566122
0.69517445
0.70069039
0.71025596
0.72394535
0.74308652
0.76794777
0.79533275
0.8188125
0.83057179
0.83246259
0.83400557
0.84757046
0.86619515
0.87047358
0.9702762
0.96286621
0.95042172
0.9392285
0.92095321
0.88903263
0.84871234
0.80709179
0.76855045
0.73587447
0.71050206
0.69412215
0.68691668
0.68728455
0.69312026
0.70355019
0.71888856
0.73949212
0.76487909
0.79139964
0.81274485
0.82455716
0.82794881
0.83139221
0.84362748
0.85606264
0.85486933
0.96953699
0.96046262
0.94733741
0.92977207
0.8993003
0.86047889
0.82092045
0.78370009
0.75026321
0.72223299
0.70109358
0.68839255
0.68349522
0.68522243
0.69191579
0.70270519
0.7176931
0.73647181
0.75859932
0.78220911
0.80306269
0.81871157
0.82698147
0.83345961
0.84213842
0.84431578
0.83434719
0.96258228
0.95311874
0.93688309
0.90792043
0.86974845
0.83167444
0.79601869
0.76293733
0.73339741
0.70963769
0.69321105
0.68479252
0.68313016
0.68699971
0.69488206
0.70555929
0.71854766
0.73398298
0.75186912
0.77311037
0.79450561
0.81372832
0.82776273
0.83646368
0.84008274
0.83326287
0.815694
0.95215288
0.94246063
0.91716851
0.87858525
0.8396067
0.80405785
0.77135251
0.74171048
0.7165624
0.69773564
0.68632876
0.68216482
0.68366143
0.68934475
0.69756839
0.70725453
0.71824948
0.73120451
0.74727926
0.76680513
0.78797666
0.80851149
0.82571744
0.83523536
0.83680847
0.82534772
0.80313817
0.94078378
0.92568209
0.88732083
0.84510881
0.8087701
0.77663444
0.74760857
0.72243766
0.70232708
0.68840324
0.68105991
0.67974018
0.68306992
0.68954333
0.69737364
0.70604837
0.71627651
0.72868735
0.74404724
0.76230099
0.78190143
0.80086057
0.81685757
0.82693926
0.83111535
0.82071496
0.79805551
0.9284163
0.89999893
0.85205981
0.81205163
0.77983365
0.75169972
0.72704705
0.7065531
0.69102884
0.68101906
0.67658197
0.67684084
0.6808393
0.68721207
0.69503625
0.70408425
0.71448049
0.72672385
0.74145554
0.75818559
0.77459615
0.789436
0.80144482
0.81248911
0.82067507
0.81640499
0.79990283
0.91296745
0.86957501
0.82077092
0.78520529
0.75660192
0.73178308
0.71062395
0.69365066
0.68138327
0.6741892
0.67162799
0.67278254
0.67742674
0.68471166
0.69355513
0.7032493
0.71378838
0.72537926
0.73889415
0.75339005
0.76603429
0.77495232
0.7820315
0.79202524
0.80406116
0.80962147
0.80510412
0.89320934
0.84228827
0.79681541
0.76429938
0.73758989
0.71454796
0.6954341
0.68074938
0.67070651
0.6652898
0.66396847
0.66658572
0.67282004
0.68172396
0.69196979
0.70271485
0.71354036
0.72491862
0.7368492
0.74804059
0.75627136
0.76036585
0.76259074
0.7688943
0.7832507
0.7975647
0.80572423
0.87034882
0.81906682
0.77683887
0.74554979
0.71917115
0.69683275
0.67899356
0.66593007
0.65746633
0.65340821
0.65342509
0.65766419
0.66554903
0.67601516
0.68785037
0.69987814
0.71158057
0.72344591
0.73448635
0.74303421
0.74718554
0.74712783
0.74525609
0.74762983
0.76040696
0.77965628
0.79691966
0.84729343
0.79734353
0.75726515
0.72670927
0.7005985
0.67888934
0.66217753
0.65028103
0.6427352
0.63926409
0.6398633
0.64485861
0.65356582
0.6646952
0.67737055
0.6903901
0.70337884
0.71638195
0.72868861
0.73697374
0.73882957
0.73525599
0.73080737
0.72934475
0.73819968
0.75786712
0.77931583
0.82623677
0.77662049
0.73740293
0.70722232
0.68194553
0.66150421
0.64601834
0.6347695
0.62716526
0.62322335
0.62268428
0.62649606
0.6340408
0.64458932
0.65715886
0.67051602
0.68409425
0.69885268
0.71323367
0.72455987
0.72800167
0.7235952
0.71731922
0.71390014
0.71845709
0.7342445
0.75564434
0.8117312
0.76201689
0.72272868
0.69207313
0.66699537
0.6471607
0.63199877
0.62006791
0.61075783
0.6042663
0.6009476
0.6014115
0.60616397
0.61465168
0.62599131
0.63895165
0.65274108
0.66754933
0.68374423
0.69927627
0.70909969
0.70840583
0.70140097
0.69663248
0.69823032
0.70949602
0.72898879
0.80531348
0.75820053
0.72048204
0.69038713
0.66518149
0.644305
0.62721
0.61243781
0.59930384
0.5885326
0.58065065
0.57663274
0.57708221
0.58249234
0.59178262
0.60314619
0.6151051
0.62726953
0.64210362
0.65899537
0.67584723
0.68397562
0.68032923
0.67380688
0.67297793
0.68230469
0.70063939
0.80360583
0.7627572
0.72810738
0.69903412
0.67340518
0.6512485
0.63205729
0.61462948
0.59828468
0.58331916
0.57137622
0.56387295
0.56141407
0.56480326
0.5729881
0.58397933
0.59461148
0.60233006
0.60744805
0.61637158
0.63204329
0.64662763
0.65079944
0.64566073
0.64194559
0.65035534
0.66942602
0.79838455
0.76824815
0.73866159
0.71366227
0.69092312
0.67006445
0.65072641
0.6320407
0.61388055
0.59740246
0.58388797
0.57474805
0.57105659
0.57245288
0.58025916
0.59045521
0.60023302
0.60464006
0.60326762
0.59898001
0.60010703
0.60970796
0.61641996
0.61443467
0.60966375
0.61454664
0.63505369
0.78421977
0.7680361
0.74923733
0.7332392
0.71840566
0.70362666
0.68854048
0.67274962
0.656553
0.64001871
0.62419019
0.61097499
0.60327104
0.60270243
0.60984155
0.62039943
0.62978801
0.63234101
0.62434365
0.60680098
0.59063859
0.5868216
0.58943135
0.58771465
0.58247779
0.58328233
0.60025332
0.75954896
0.75220521
0.74556394
0.74181915
0.73910283
0.73589633
0.73125826
0.72470415
0.7153568
0.70328628
0.68967987
0.67561879
0.66422825
0.66103775
0.66587359
0.67402313
0.67718416
0.67310874
0.65300845
0.62120602
0.59009395
0.57274912
0.56891442
0.56842818
0.56343537
0.56026987
0.57173934
0.72594052
0.7232693
0.72525836
0.72764908
0.73117055
0.73662217
0.74288542
0.74926151
0.75198984
0.75127487
0.74709881
0.73997503
0.73050146
0.72248575
0.7196037
0.71680327
0.70671029
0.68487669
0.65100145
0.61054887
0.573418
0.55237122
0.54843848
0.54990409
0.54722714
0.54384949
0.55362301
0.68470824
0.68280914
0.68812132
0.69649741
0.70797525
0.7210644
0.73504101
0.74765791
0.75997423
0.76904266
0.77128298
0.77014633
0.76181758
0.74820314
0.73098344
0.71118762
0.68391273
0.64754266
0.60694048
0.56541996
0.53527791
0.52124148
0.52206699
0.52870525
0.53075674
0.53228146
0.54356737
0.63991318
0.63908536
0.64819733
0.66239769
0.67867486
0.69657227
0.71588414
0.73440699
0.74732015
0.75176035
0.74947612
0.73902641
0.71733247
0.68681732
0.65299654
0.61947319
0.58909999
0.55831474
0.52925391
0.50409321
0.49056129
0.4904799
0.49792379
0.50876644
0.51669589
0.52500167
0.54121001
0.6095524
0.6095001
0.62046441
0.63600103
0.65161615
0.66528399
0.67500133
0.67766409
0.67248658
0.65627696
0.63086446
0.59846239
0.56157504
0.53256577
0.5154887
0.50478415
0.4952398
0.484505
0.47297105
0.4680387
0.47084157
0.47730416
0.48670321
0.49795026
0.50909744
0.52379628
0.54397103
0.60805825
0.60626106
0.61329893
0.61850332
0.61620038
0.60418892
0.58317251
0.555333
0.52497356
0.49555517
0.470226
0.44902628
0.44074748
0.44231749
0.44947288
0.45540808
0.45775809
0.45864458
0.46029357
0.464579
0.47121903
0.47850184
0.48807825
0.49985525
0.51387905
0.53050156
0.54749129
0.64073758
0.63178603
0.61653233
0.58401176
0.53536538
0.48327266
0.44036564
0.41258019
0.39783401
0.39400887
0.39692175
0.40467818
0.41723633
0.43221766
0.44675918
0.4566423
0.46264604
0.4669983
0.47114957
0.4761552
0.48258018
0.4908937
0.50166262
0.51476173
0.52876741
0.54121507
0.54798235
0.662827
0.62151286
0.54134503
0.44899141
0.38219605
0.35253767
0.3528347
0.36060488
0.37381731
0.38909139
0.40490876
0.42138679
0.43936689
0.45819348
0.47449833
0.48465357
0.48924085
0.49174085
0.4943139
0.49826671
0.50513535
0.51468346
0.52585085
0.53690924
0.54498481
0.54883123
0.54822819
0.40917932
0.37730705
0.33156138
0.32037605
0.32682361
0.34332982
0.36326348
0.38295222
0.40231166
0.42194674
0.4421242
0.46297306
0.48369704
0.50172176
0.51369125
0.51917041
0.52137073
0.52299302
0.52540285
0.52968445
0.53595233
0.54356054
0.55116446
0.55720487
0.55944333
0.5581943
0.55398243
0.27312966
0.28877781
0.31044241
0.33171012
0.35269283
0.37355786
0.39411463
0.41419689
0.43416477
0.45471103
0.4755617
0.49572461
0.51399963
0.52784001
0.53625335
0.54188537
0.54637703
0.5505313
0.55490862
0.55971487
0.56492817
0.57006278
0.57380711
0.57586455
0.57455385
0.56932984
0.56119177
0.2809285
0.30748916
0.33400276
0.35665339
0.37710379
0.39674268
0.4161105
0.43523044
0.4544511
0.47356449
0.49137448
0.50744098
0.52083747
0.5306915
0.53861869
0.54656635
0.55505799
0.56379207
0.57178955
0.57869028
0.5845058
0.58900704
0.59171173
0.59255106
0.5889561
0.58035423
0.57013061
0.29798271
0.32685702
0.3520753
0.37315496
0.39252863
0.4109151
0.42851715
0.44530763
0.4609851
0.47555625
0.48856288
0.4991962
0.50727842
0.51409162
0.52137352
0.5302039
0.54142741
0.5545121
0.56803746
0.58079107
0.59084267
0.5967912
0.59941984
0.59792052
0.59109373
0.58133775
0.57332508
0.32208811
0.34986592
0.37220245
0.39036138
0.40658887
0.42138198
0.43467725
0.44657126
0.4569674
0.46551254
0.47200538
0.47660072
0.48016409
0.48371299
0.48816844
0.49453337
0.50433115
0.51831682
0.53570919
0.55441502
0.5697501
0.57967716
0.58312704
0.58011264
0.57122704
0.56080926
0.5513702
0.35773238