/*--------------------------------*- C++ -*----------------------------------*\
| =========                 |                                                 |
| \\      /  F ield         | OpenFOAM: The Open Source CFD Toolbox           |
|  \\    /   O peration     | Version:  2406                                  |
|   \\  /    A nd           | Website:  www.openfoam.com                      |
|    \\/     M anipulation  |                                                 |
\*---------------------------------------------------------------------------*/
FoamFile
{
    version     2.0;
    format      ascii;
    arch        "LSB;label=32;scalar=64";
    class       volVectorField;
    location    "24";
    object      U_0;
}
// * * * * * * * * * * * * * * * * * * * * * * * * * * * * * * * * * * * * * //

dimensions      [0 1 -1 0 0 0 0];

internalField   nonuniform List<vector> 
62344
(
(0.087232533 9.460926e-05 -1.3067381e-21)
(0.078174521 0.001237527 -6.7987392e-22)
(0.083857438 -0.0014043156 -1.4131445e-21)
(0.084707783 -0.0012529597 7.3792523e-22)
(0.087202093 0.0027505238 0)
(0.088891619 0.0024678999 3.1749979e-21)
(0.090413628 0.0035051644 -3.3128796e-21)
(0.093149536 0.0034420111 1.7201322e-21)
(0.094273745 0.0067841043 0)
(0.091055286 0.004396263 0)
(0.084315096 0.0057512355 7.8273076e-21)
(0.073099752 0.011713393 -1.6722699e-20)
(0.064585517 0.0100718 5.2645505e-22)
(0.065251226 0.012795041 1.807006e-20)
(0.069398967 0.017340094 -9.144658e-21)
(0.071512485 0.011846664 8.8508239e-21)
(0.068131348 0.010776163 -9.7951748e-21)
(0.064807787 0.013946188 0)
(0.062931507 0.011072927 0)
(0.060125673 0.010744222 -6.8863408e-22)
(0.062190167 0.018133345 -3.5758236e-22)
(0.065157596 0.017644445 3.7426615e-22)
(0.061150319 0.0138486 7.7522181e-22)
(0.057944826 0.015817781 -2.5757436e-20)
(0.059665979 0.018086879 2.6972786e-20)
(0.058503409 0.019330929 0)
(0.058789122 0.018048674 0)
(0.060248446 0.014775744 -2.3657154e-22)
(0.058706456 0.011610094 -3.15416e-20)
(0.056679263 0.015750169 3.3010836e-20)
(0.054590243 0.02118622 3.4206041e-20)
(0.059972526 0.011327794 -3.5581622e-20)
(0.071390393 -0.0057245362 -2.8878546e-22)
(0.078078317 -0.010983024 3.8039167e-20)
(0.073882713 -0.0036519429 -3.8913827e-20)
(0.061410801 0.0042658093 -3.2138907e-22)
(0.048817429 0.01190187 -4.3659223e-20)
(0.044225993 0.020060046 8.9679577e-20)
(0.048446258 0.020331518 -9.2448503e-20)
(0.057222727 0.0063070019 6.5985369e-22)
(0.06808686 -0.017298367 8.3401363e-22)
(0.079090214 -0.035694415 1.0107253e-19)
(0.0827311 -0.043962606 -5.2345549e-20)
(0.07661077 -0.043728106 0)
(0.069806116 -0.039883391 -5.6655454e-20)
(0.071141912 -0.035789394 1.1733887e-19)
(0.076680044 -0.032518936 1.5266848e-22)
(0.072531985 -0.028228488 -1.2740917e-19)
(0.056480778 -0.023203365 6.5107092e-20)
(0.039741992 -0.019492576 0)
(0.037966323 -0.022263007 0)
(0.052294418 -0.027256588 7.2245116e-20)
(0.067970147 -0.033224582 -7.7678668e-20)
(0.075628465 -0.039465383 -1.5175651e-22)
(0.068498435 -0.050247425 -8.0990235e-20)
(0.087709374 -0.00078480116 -6.9073687e-22)
(0.078216002 -8.4532592e-05 7.1764735e-22)
(0.084181585 0.0015123237 2.2348205e-21)
(0.084415823 -0.00093975083 -2.3243154e-21)
(0.086820482 0.0037779022 0)
(0.088737272 0.0034908995 3.3490918e-21)
(0.090372079 0.0054970795 -4.3677218e-21)
(0.092619591 0.005382599 -4.5334959e-21)
(0.094109721 0.0077332145 4.7197958e-21)
(0.092160739 0.0073400222 0)
(0.084355376 0.0043681698 0)
(0.073580998 0.010524814 5.3575479e-22)
(0.065762806 0.007916205 -5.5506454e-22)
(0.064509468 0.0097531437 8.0426588e-21)
(0.069009339 0.010110722 -9.643653e-21)
(0.071484567 0.0081713453 0)
(0.067776218 0.013170243 0)
(0.065504159 0.015878612 0)
(0.065244396 0.014120738 1.1236276e-20)
(0.06040597 0.0096500107 4.3081466e-22)
(0.059363808 0.00959421 -9.9894237e-23)
(0.064188034 0.012738657 -3.8289804e-20)
(0.062493693 0.013150188 2.5766383e-20)
(0.058102838 0.011867563 0)
(0.058381592 0.012800158 2.8428426e-20)
(0.057538525 0.017973387 1.7162696e-23)
(0.05930957 0.018949125 -6.1356696e-20)
(0.062637315 0.015594458 3.2305307e-20)
(0.059285197 0.010622908 -2.5916412e-22)
(0.054198638 0.014812691 -3.4889362e-20)
(0.054861466 0.019821345 3.6023533e-20)
(0.063862602 0.011512803 2.9092314e-22)
(0.072475582 0.0012910887 -3.845846e-20)
(0.075099997 0.00011670057 8.0140491e-20)
(0.073825012 0.0022235312 -4.1433442e-20)
(0.064609305 0.0028523648 3.4075182e-22)
(0.04570175 0.0087277943 0)
(0.035305877 0.018302648 0)
(0.045321047 0.018490285 1.9222279e-22)
(0.063166393 0.0035203598 5.0192752e-20)
(0.074367019 -0.016270307 -1.0480849e-19)
(0.079340041 -0.029992647 5.4450451e-20)
(0.081550945 -0.033769026 5.5573204e-20)
(0.074840991 -0.031987521 -1.1532486e-19)
(0.062473501 -0.02792917 5.966368e-20)
(0.05710738 -0.022511429 0)
(0.065798052 -0.017584446 0)
(0.076408016 -0.015758199 0)
(0.07640369 -0.019342772 1.3399183e-22)
(0.063713692 -0.027931083 -1.3676078e-22)
(0.051257532 -0.038910232 0)
(0.051376707 -0.049135222 1.2485352e-24)
(0.065805343 -0.056883522 -1.5689325e-22)
(0.084147351 -0.062221045 2.4533832e-22)
(0.097164386 -0.069494335 -8.4474604e-23)
(0.087679274 -0.0013563812 7.2900835e-22)
(0.077561129 -0.0014190349 -7.5915496e-22)
(0.083916541 0.0023409961 -7.866775e-22)
(0.084121771 0.00037895959 8.1836339e-22)
(0.086086539 0.002568743 -8.508346e-22)
(0.08854339 0.0035909148 8.8532775e-22)
(0.089979285 0.0052481651 1.843668e-21)
(0.092336249 0.0062625201 0)
(0.093781916 0.0047260856 2.9760164e-21)
(0.092547171 0.0068562903 -4.6654456e-21)
(0.084487177 0.0070481474 0)
(0.073393607 0.0075176285 -5.6316576e-22)
(0.065830473 0.0095032173 7.897693e-25)
(0.064161748 0.013871904 3.7206033e-25)
(0.069200466 0.010336355 1.0108153e-20)
(0.070700447 0.0097778707 -9.8886432e-21)
(0.066059217 0.013654835 0)
(0.064734351 0.014759841 0)
(0.066163036 0.017112593 0)
(0.062862836 0.0170454 0)
(0.060193087 0.010806521 0)
(0.063002597 0.0082159689 1.370764e-20)
(0.062591108 0.011139703 -1.3797615e-20)
(0.059196282 0.010150889 -4.4903729e-22)
(0.057271319 0.0090545518 4.684717e-22)
(0.055430719 0.014980311 0)
(0.058942634 0.016359624 0)
(0.065082579 0.013008731 2.6307075e-22)
(0.061234682 0.0085672249 2.741797e-22)
(0.052428211 0.012189476 0)
(0.054060292 0.014773468 0)
(0.066441993 0.0071385255 -3.9422148e-20)
(0.075454699 1.4701263e-05 8.1718186e-20)
(0.076950085 0.00087361208 -4.2249556e-20)
(0.075721736 0.0045147923 -1.7190646e-22)
(0.066833785 0.0085883542 4.6826397e-20)
(0.046486778 0.014514196 -4.7508766e-20)
(0.032216611 0.01763161 0)
(0.041987306 0.011633568 3.3045162e-25)
(0.065428409 -0.0033035058 0)
(0.079872166 -0.020999243 5.5030968e-20)
(0.078478153 -0.031664015 -5.6861469e-20)
(0.070559436 -0.029153019 -5.9500901e-20)
(0.063791181 -0.018831265 6.1327995e-20)
(0.05320879 -0.0097248864 -6.1812073e-25)
(0.041535718 -0.0051567577 0)
(0.041850132 -0.0041261678 0)
(0.056828112 -0.0063009418 -1.3993385e-22)
(0.074218164 -0.012901253 -7.3265269e-20)
(0.082304524 -0.024646228 7.6182248e-20)
(0.077956902 -0.040340905 0)
(0.069128116 -0.057102159 8.1830201e-20)
(0.065283745 -0.070624981 -8.4361296e-20)
(0.069781601 -0.073704827 8.6192854e-20)
(0.083511216 -0.072519734 -8.9914276e-20)
(0.088228119 -0.0014659295 -3.8360881e-22)
(0.077193611 -0.0017964584 -1.1983536e-21)
(0.083662157 0.00041620188 2.4897488e-21)
(0.084358153 0.0014009146 -1.7323961e-21)
(0.085920745 0.00037061036 -2.6842871e-21)
(0.088024114 0.0021315493 2.8111503e-21)
(0.089619011 0.0036208422 -4.8508286e-21)
(0.092464281 0.0056246056 8.0909919e-21)
(0.093895386 0.002779658 -4.7099008e-21)
(0.092089348 0.0040819892 1.0921481e-21)
(0.08521682 0.0083522904 5.6959064e-22)
(0.074280312 0.004840455 9.5571458e-21)
(0.0648164 0.0089210795 -8.6426081e-21)
(0.063877128 0.013446917 1.0869915e-20)
(0.069585041 0.0096179594 -8.8054256e-23)
(0.070791204 0.012369964 -2.2922193e-20)
(0.066667715 0.012844977 1.1160479e-20)
(0.064181501 0.009292609 -3.7526766e-22)
(0.064588811 0.012549319 1.248139e-20)
(0.063628879 0.018029006 -1.2601112e-20)
(0.062667261 0.013269526 0)
(0.063391924 0.0077497458 0)
(0.062405856 0.010283835 -1.4130685e-20)
(0.060309719 0.011339058 1.5688378e-20)
(0.056827247 0.0098356723 1.5409151e-20)
(0.053395393 0.01467807 -1.6423954e-20)
(0.057804453 0.014949994 -1.7013601e-20)
(0.066135251 0.011499332 1.76238e-20)
(0.062868499 0.0099470634 0)
(0.052205753 0.014036818 0)
(0.053471875 0.013794387 0)
(0.066106205 0.0058010423 0)
(0.072954091 0.00093580551 0)
(0.071743277 0.0053322004 0)
(0.071903775 0.013318026 1.8186683e-22)
(0.067932406 0.019069052 -4.9329725e-20)
(0.050815836 0.023457808 5.0123484e-20)
(0.035453224 0.021564759 2.0531475e-22)
(0.042849665 0.0094703187 -4.264719e-22)
(0.067776183 -0.007172917 5.5299855e-20)
(0.08688259 -0.021784636 -5.881359e-20)
(0.084098413 -0.028854217 6.0324395e-20)
(0.067505383 -0.025225006 -6.1730403e-20)
(0.053928898 -0.011665982 6.596702e-20)
(0.046563467 0.0026890424 -1.3630707e-19)
(0.039319051 0.0090497879 -1.1056909e-21)
(0.034759867 0.0043527977 -1.571165e-24)
(0.042051252 -0.0077502374 1.6102803e-21)
(0.060341185 -0.019937279 2.4003638e-21)
(0.079405051 -0.031327363 2.1803567e-21)
(0.091867008 -0.043726025 8.3392938e-20)
(0.090269902 -0.057218857 0)
(0.078540775 -0.069338522 9.0291782e-20)
(0.063135813 -0.072410162 1.817559e-21)
(0.059941698 -0.074692988 -9.4557995e-20)
(0.088346392 -0.00084220432 8.1160975e-22)
(0.077009818 -0.0012034305 8.4393053e-22)
(0.083180128 -0.0022716398 8.7718015e-22)
(0.084237702 0.0016223508 0)
(0.085857528 -0.0010608211 0)
(0.087580204 0.00089731889 0)
(0.089194819 0.0018730269 -5.1268705e-22)
(0.092313439 0.0027527017 4.260864e-21)
(0.094018514 0.0021625909 -3.879758e-21)
(0.091540211 0.001992795 -5.7586542e-22)
(0.085510812 0.0059329833 -4.835386e-21)
(0.074686376 0.0054965721 4.995712e-21)
(0.063884919 0.011047283 -1.1128125e-20)
(0.063417664 0.011064836 1.0899127e-20)
(0.068762409 0.0087114269 0)
(0.070049103 0.014348634 0)
(0.067913594 0.014363374 7.6076868e-22)
(0.065208996 0.0081366983 3.9738524e-22)
(0.063257548 0.007570679 -1.3170486e-20)
(0.063016163 0.013173109 1.3321647e-20)
(0.064014373 0.013993528 0)
(0.064073138 0.010886527 0)
(0.061958693 0.011672637 -4.8110856e-22)
(0.060605343 0.013558818 0)
(0.05703372 0.012733429 -1.652538e-20)
(0.052468094 0.015428721 1.7312127e-20)
(0.057333933 0.013594509 0)
(0.066595896 0.0085903409 0)
(0.063723208 0.0092890048 0)
(0.052832864 0.015035477 0)
(0.054677763 0.014012858 0)
(0.068043283 0.0045197596 0)
(0.073560101 -0.0016676762 -1.7727968e-22)
(0.068942772 0.001140714 -1.8501195e-22)
(0.067713433 0.0085428202 0)
(0.06744899 0.017757923 -2.01135e-22)
(0.056374823 0.023378004 2.6986141e-20)
(0.043592193 0.018413855 -2.7863401e-20)
(0.047241065 0.0027369609 2.2675362e-22)
(0.06732458 -0.013263748 2.3130686e-22)
(0.087318591 -0.023176988 0)
(0.087178711 -0.02485268 2.4698987e-22)
(0.066505699 -0.018561702 2.3181994e-25)
(0.041988396 -0.0051136711 7.0225205e-20)
(0.032781333 0.010243572 4.2351857e-22)
(0.035715686 0.017210392 -7.4460266e-20)
(0.043307046 0.0085081471 -1.5104587e-22)
(0.049882029 -0.010427632 0)
(0.057942472 -0.029393268 -1.5820063e-22)
(0.070823254 -0.042279409 -1.6526147e-22)
(0.085085943 -0.04851812 8.6135569e-20)
(0.094379056 -0.051775902 -9.0005932e-20)
(0.0922935 -0.056203634 9.1350516e-23)
(0.07507746 -0.054972975 -2.4184664e-24)
(0.057805687 -0.05922064 -9.8826937e-23)
(0.088552529 6.6288221e-05 0)
(0.077277813 1.2793641e-05 0)
(0.082986514 -0.0032452449 -9.2371511e-22)
(0.084093958 0.0010974001 0)
(0.085927947 -0.001569404 1.992163e-21)
(0.087401915 0.0010795892 -1.5584069e-21)
(0.089063776 0.0011595707 5.4156395e-22)
(0.092120899 -0.00048520767 0)
(0.094070665 0.0018495735 5.8327305e-22)
(0.091558145 0.0022655828 0)
(0.085431715 0.0010717007 -6.3436472e-22)
(0.074080537 0.0062708015 -4.6823716e-21)
(0.063986871 0.01344561 1.0976569e-20)
(0.06404775 0.0078498951 -5.7569114e-21)
(0.068036663 0.0074942723 0)
(0.069011711 0.011872875 0)
(0.068771555 0.012586337 -1.3491772e-24)
(0.066839483 0.0086670723 -4.1632605e-22)
(0.063174056 0.0052770375 0)
(0.061471306 0.007405098 0)
(0.063537309 0.011732133 4.7067751e-22)
(0.064834976 0.011611765 1.5151955e-20)
(0.062183788 0.010896318 -3.2713829e-20)
(0.06063614 0.012037545 1.7239217e-20)
(0.057440933 0.012807612 1.7443985e-20)
(0.05276362 0.014195204 -1.8274085e-20)
(0.057836942 0.011363023 -1.8899433e-20)
(0.067048924 0.0049176656 1.9860625e-20)
(0.063232469 0.0064709311 -2.0747561e-20)
(0.05212933 0.013930908 4.2785736e-20)
(0.054673363 0.013705976 -2.269643e-20)
(0.068902703 0.0049945961 1.7969775e-22)
(0.073948781 -0.0013902747 3.7315151e-22)
(0.066487211 -0.00022518915 3.8900318e-22)
(0.061321246 0.0054864011 0)
(0.062268205 0.017233346 -2.6973389e-20)
(0.059330531 0.025348692 5.6205172e-20)
(0.053515472 0.018628013 -2.9125778e-20)
(0.055094558 0.0015713049 -2.358537e-22)
(0.068517069 -0.013891801 -2.4534464e-22)
(0.084995618 -0.020083869 0)
(0.087913374 -0.016039906 -3.3936741e-20)
(0.068939647 -0.007158003 -1.3255003e-21)
(0.039877429 0.0022925533 3.5795668e-20)
(0.022331473 0.0104078 0)
(0.027471003 0.011953224 0)
(0.045522381 0.0041238556 -3.9930286e-20)
(0.061633989 -0.0125215 4.2366148e-20)
(0.068539211 -0.031750308 4.235784e-24)
(0.069189206 -0.046038199 8.8964615e-20)
(0.073441211 -0.0515152 -1.8284785e-19)
(0.080344884 -0.048322838 1.9006545e-19)
(0.086135886 -0.041335263 -9.8391007e-20)
(0.080394437 -0.031301764 -1.0078988e-22)
(0.069726157 -0.030504294 1.0397902e-22)
(0.088300568 0.00078459001 4.5143863e-22)
(0.077456515 0.0011585353 -4.687977e-22)
(0.082871409 -0.0022412661 -1.944674e-21)
(0.083905826 0.00011900055 2.0306726e-21)
(0.085812216 -0.0010268795 2.6341613e-21)
(0.087034954 0.0014901761 -5.4768797e-21)
(0.089295227 0.0018122653 1.7108503e-21)
(0.091914775 -0.0013716232 -5.8984722e-22)
(0.093530509 0.0017578694 -6.1494083e-22)
(0.092164635 0.0037748994 -5.1434251e-21)
(0.085453001 -0.0014915591 5.3263227e-21)
(0.073076076 0.0068096349 0)
(0.064243509 0.013251062 0)
(0.06469638 0.0063518687 -3.7702471e-22)
(0.067241142 0.0070634781 -3.9298644e-22)
(0.068385076 0.0081157514 6.5073535e-21)
(0.068903806 0.0089568847 -2.0769822e-20)
(0.067994592 0.010565319 1.4963706e-20)
(0.064198471 0.0084243854 -1.4730421e-20)
(0.060587193 0.0063525909 3.0484781e-20)
(0.062140987 0.0094005266 -5.9616701e-22)
(0.064804317 0.0094807261 -3.2788979e-20)
(0.062532218 0.0080198375 1.7646489e-20)
(0.06070256 0.0079797721 1.7881622e-20)
(0.057645384 0.0097307409 -1.8580493e-20)
(0.053059097 0.010707959 0)
(0.058800829 0.0085903395 -1.9914962e-20)
(0.068021459 0.0026920544 2.0947166e-20)
(0.062968825 0.0048807586 3.3877665e-22)
(0.051301397 0.01246686 3.5539815e-22)
(0.05476446 0.012060807 5.5242656e-22)
(0.070307899 0.0039857897 -1.9040891e-22)
(0.07664582 -0.0017838083 -3.9319945e-22)
(0.068156073 -0.00256222 -2.0540966e-22)
(0.057835433 0.0003791207 0)
(0.055793494 0.011318823 0)
(0.058608395 0.021165283 -2.960284e-20)
(0.061080714 0.01529408 6.170296e-20)
(0.063614318 -0.0019226866 -3.1567696e-20)
(0.069904549 -0.016399067 -1.2923368e-22)
(0.078949393 -0.018336404 0)
(0.082658743 -0.0081816155 0)
(0.071259771 0.0050676973 -3.8077668e-20)
(0.045703574 0.01283294 3.8043719e-20)
(0.023399063 0.012648947 -4.0424223e-20)
(0.020613491 0.0065349433 4.175127e-20)
(0.037636719 -0.0026696817 1.6788905e-22)
(0.061893479 -0.015336388 -4.3827719e-20)
(0.077265711 -0.029902136 4.5888403e-20)
(0.077813384 -0.043587892 0)
(0.070106912 -0.050089147 -6.2229279e-25)
(0.062606539 -0.045080049 -5.0402696e-20)
(0.063066616 -0.032696315 1.0450164e-19)
(0.063853639 -0.015136592 -1.0860599e-19)
(0.06316459 -0.0045555308 5.5997559e-20)
(0.08820564 0.00091806076 0)
(0.077627524 0.0014378662 9.8776795e-22)
(0.083014041 -0.0005226805 -7.3355164e-25)
(0.083931668 -0.0012536248 -1.0680202e-21)
(0.085559176 0.00010307744 -4.5242396e-25)
(0.086800018 0.0011815631 5.7771311e-22)
(0.089463116 0.0017448927 -1.1998735e-21)
(0.091987498 0.00021390616 3.1240448e-21)
(0.092864912 0.0029171741 0)
(0.092606575 0.0047246297 0)
(0.085675988 0.0012195243 -4.9933575e-21)
(0.072263101 0.0069734807 5.8406201e-21)
(0.064656966 0.0095540395 0)
(0.065346991 0.0066251139 3.9892857e-22)
(0.067158557 0.0073152545 4.1481972e-22)
(0.068375913 0.0051815725 0)
(0.068341819 0.004556286 -7.1381564e-21)
(0.0676611 0.010667267 -4.5905048e-22)
(0.065330005 0.012932877 8.2001981e-21)
(0.061178633 0.0099361861 0)
(0.06182596 0.008578658 1.6667009e-20)
(0.065158624 0.0064279559 -3.4834423e-20)
(0.063077799 0.0047294863 1.7751904e-20)
(0.060627326 0.0042765723 -1.9145527e-20)
(0.057525401 0.0062345396 1.9898547e-20)
(0.053044928 0.0068344089 0)
(0.058758354 0.0058579685 0)
(0.068329245 0.0028088451 0)
(0.062744681 0.0066846003 -3.569971e-22)
(0.050540512 0.013167217 -3.7361323e-22)
(0.054093275 0.011152468 -2.4614659e-20)
(0.070144624 0.0036367527 2.5974062e-20)
(0.078137138 0.00013272438 2.0753292e-22)
(0.070542712 -0.00080915817 0)
(0.056786541 3.9931007e-05 0)
(0.048938264 0.0088649123 2.3731189e-22)
(0.054645496 0.018710297 0)
(0.066101061 0.014595121 -2.5461001e-22)
(0.073118571 -0.0030109906 -3.3797677e-20)
(0.073058056 -0.017522756 3.5093661e-20)
(0.072488132 -0.016871264 3.5967714e-20)
(0.072451889 -0.0030845513 -3.7473875e-20)
(0.067632133 0.014749503 3.9879451e-20)
(0.053182796 0.022787633 -4.0308022e-20)
(0.035460972 0.017914073 -4.2724228e-20)
(0.025936333 0.0046051349 1.0188725e-22)
(0.034192691 -0.010718063 9.0381488e-20)
(0.055222216 -0.023115478 -4.7358155e-20)
(0.07683192 -0.032601907 0)
(0.084350266 -0.039051282 -4.9157405e-20)
(0.073246932 -0.041784478 1.0171163e-19)
(0.054023394 -0.037718471 -5.2674743e-20)
(0.040411532 -0.027204967 0)
(0.036136374 -0.011018513 -1.1434508e-22)
(0.040717648 0.0010872878 5.9326104e-20)
(0.088112831 0.00059099317 0)
(0.077625085 0.00091092206 0)
(0.083221494 0.00081444953 0)
(0.083877368 -0.002386639 1.6778647e-21)
(0.08538625 0.0012004118 -2.9312927e-21)
(0.086647371 0.00025282518 2.4262889e-21)
(0.089248681 0.000162923 -3.1754431e-21)
(0.091636605 0.0028767163 -6.5895878e-22)
(0.09258444 0.0050313665 -6.8563255e-22)
(0.092925856 0.0047510648 -6.4250523e-21)
(0.086203003 0.0053636205 5.1666252e-21)
(0.072205467 0.0053779343 0)
(0.064697434 0.0036788843 6.4413e-21)
(0.065127478 0.0069458284 -2.900106e-23)
(0.067432755 0.0084222919 -1.4390456e-20)
(0.068919639 0.0051318874 7.2712883e-21)
(0.06773091 0.0033404736 -4.726823e-22)
(0.06611392 0.0094498466 -4.9268541e-22)
(0.06533022 0.014410505 1.5672926e-24)
(0.062412198 0.013124957 2.6521536e-22)
(0.062697139 0.0085219773 2.7562873e-22)
(0.065839149 0.0046512783 2.8614356e-22)
(0.063515903 0.0041751963 0)
(0.060631466 0.0044266044 0)
(0.057545487 0.0057982278 -2.1092665e-20)
(0.052916994 0.0057810507 2.1745278e-20)
(0.057861277 0.0046641165 0)
(0.067112004 0.0041058509 0)
(0.062383322 0.010279041 0)
(0.051169294 0.014992709 1.9713493e-22)
(0.054310468 0.0099648313 0)
(0.069645382 0.0024644625 2.686813e-20)
(0.078966183 0.0014212971 -2.809227e-20)
(0.074140032 0.0010158843 2.2657115e-22)
(0.058649729 0.001182585 -3.1173285e-20)
(0.045154721 0.0076111716 3.1373214e-20)
(0.049637343 0.01496697 0)
(0.067948971 0.011908525 3.3587518e-20)
(0.081184804 -0.0031766556 -3.5680271e-20)
(0.078456916 -0.017512338 1.426125e-22)
(0.067832432 -0.017314415 3.8725421e-20)
(0.060858275 -0.0031586396 -3.9728077e-20)
(0.058803816 0.015551037 0)
(0.056850598 0.024767719 4.3025783e-20)
(0.049191794 0.018803432 -4.4173622e-20)
(0.040810721 0.001690302 3.6168409e-22)
(0.039493838 -0.018651682 0)
(0.050637855 -0.032053892 4.8447472e-20)
(0.069076906 -0.036616882 -5.1300824e-20)
(0.08099787 -0.034367876 5.224035e-20)
(0.077699561 -0.028888486 -5.3275979e-20)
(0.057726683 -0.022019987 -5.7135384e-20)
(0.034195593 -0.015942374 1.1743653e-19)
(0.017441202 -0.0080740649 9.034261e-22)
(0.018578793 -0.0039467299 -5.0398744e-22)
(0.088228679 -3.7096595e-05 -5.2856141e-22)
(0.077585281 -0.00015394418 -5.4811975e-22)
(0.08351557 0.00089695933 -1.1370736e-21)
(0.083877132 -0.0030972474 7.1394709e-24)
(0.085263529 0.0015453445 1.234686e-21)
(0.086860818 -0.00092550686 2.5569651e-21)
(0.088872528 -0.0016053803 -2.6720445e-21)
(0.090980608 0.0047513333 6.9233494e-22)
(0.09259365 0.0056572326 3.597369e-21)
(0.093015806 0.0034974441 -8.2549785e-21)
(0.086738363 0.0075206772 3.1315636e-22)
(0.073704116 0.0040783485 6.4856183e-21)
(0.064552601 -0.00098361945 4.2576117e-22)
(0.063950246 0.0060962676 0)
(0.067312534 0.0097059319 4.5938069e-22)
(0.069582058 0.0065279943 -4.7752543e-22)
(0.067453409 0.0045913924 -4.8002238e-25)
(0.064997013 0.0083358485 1.0340415e-21)
(0.064934515 0.012042309 -5.3755306e-22)
(0.063369288 0.013077251 8.6507481e-21)
(0.064017183 0.0082740164 -1.8863347e-20)
(0.066348208 0.004813239 9.676174e-21)
(0.063791089 0.0063660136 0)
(0.060770272 0.0074181006 -1.0461495e-20)
(0.058101187 0.0079080694 1.0550015e-20)
(0.053341733 0.0072609993 -3.5468203e-22)
(0.056908115 0.004850769 -3.6860153e-22)
(0.065110984 0.0049498432 0)
(0.061323693 0.012613677 0)
(0.052176351 0.015945093 -2.0786382e-22)
(0.055202133 0.0082033235 0)
(0.068184825 0.00069984169 0)
(0.077644413 0.0017309331 -2.9612537e-20)
(0.076066083 0.003381472 -6.282793e-22)
(0.061156576 0.0050322765 6.4537803e-20)
(0.043770673 0.0095820497 -3.3517453e-20)
(0.045042898 0.01338383 0)
(0.066794011 0.0095307501 1.403185e-22)
(0.087659358 -0.0031063502 -1.4468655e-22)
(0.086536504 -0.015175497 -1.5045814e-22)
(0.069105142 -0.016554342 -4.0482914e-20)
(0.052321299 -0.0056346924 4.1730905e-20)
(0.048294519 0.011015104 0)
(0.054630349 0.022154856 0)
(0.060446634 0.018099131 -1.8145693e-22)
(0.059372757 0.00080491343 -1.9143722e-22)
(0.054640551 -0.020820981 -5.0229327e-20)
(0.052820144 -0.036257779 5.225522e-20)
(0.05884464 -0.039466556 5.2605179e-20)
(0.067111618 -0.030989921 -5.5402877e-20)
(0.069812449 -0.017566632 -1.1340829e-22)
(0.060498265 -0.0043180025 6.0629209e-20)
(0.042797976 0.00055350651 -6.0970129e-20)
(0.022288676 0.0022703686 0)
(0.014007946 -0.0052752614 -6.707799e-20)
(0.088364054 -0.00058007128 8.3559205e-22)
(0.077495163 -0.0011459315 -2.896188e-22)
(0.083682417 -4.5463686e-05 6.0101265e-22)
(0.083832155 -0.0028657357 6.2428331e-22)
(0.085101805 0.0010645212 2.592891e-21)
(0.087041407 -0.0012412507 -4.7382986e-21)
(0.088359208 -0.0016922127 2.8085423e-21)
(0.090367962 0.0050451531 0)
(0.092823615 0.0044051246 3.4134997e-21)
(0.092965033 0.001261435 -2.7658785e-21)
(0.087093327 0.0067977757 -8.2333973e-22)
(0.075409402 0.00469126 0)
(0.064710427 -0.0019112423 -8.9740087e-22)
(0.062340086 0.0056520383 4.6844743e-22)
(0.066896921 0.010804856 -4.8531875e-22)
(0.070279246 0.0081404425 9.66648e-25)
(0.067682718 0.0058362149 -7.8780296e-21)
(0.064547817 0.0061375432 1.6886305e-20)
(0.064343427 0.0074569205 -9.1136323e-21)
(0.063622066 0.0098677687 0)
(0.064875986 0.0070747865 -3.059475e-22)
(0.066511248 0.0053878699 0)
(0.063684468 0.0082219314 -3.3082199e-22)
(0.061020749 0.0097101051 0)
(0.058902688 0.0097991957 5.3258276e-25)
(0.054327934 0.0095845772 3.7273825e-22)
(0.056546428 0.0060913015 3.8818341e-22)
(0.063291098 0.0054261215 1.293618e-20)
(0.060613389 0.01293376 1.3511579e-22)
(0.054066096 0.014749371 -1.3920069e-20)
(0.057176645 0.0051599527 2.8803085e-20)
(0.067253754 -0.0020588148 -6.040511e-20)
(0.075757126 -0.00019434288 3.1658463e-20)
(0.076776457 0.003780296 -2.5274944e-22)
(0.06385026 0.0078131624 -2.6369575e-22)
(0.044560784 0.012315559 2.7791222e-22)
(0.04236124 0.012393661 0)
(0.064157682 0.0062502936 1.4842726e-22)
(0.089264868 -0.0040235267 1.5298467e-22)
(0.09313844 -0.011578226 0)
(0.073569772 -0.012977038 -3.2885093e-22)
(0.048721162 -0.0059966234 0)
(0.038521292 0.007083913 1.8188944e-22)
(0.046690393 0.018069345 -4.7309966e-20)
(0.063965999 0.01717144 5.0214351e-20)
(0.074565529 0.0029859286 0)
(0.073636822 -0.017499776 -1.017149e-22)
(0.064470938 -0.034635072 0)
(0.055717799 -0.040113695 5.6124884e-20)
(0.052711313 -0.030770877 -5.8240364e-20)
(0.053936004 -0.013225873 1.1752081e-22)
(0.052760643 0.0041557997 0)
(0.04730402 0.013279969 -6.3994689e-23)
(0.036041026 0.012279178 0)
(0.026322196 0.0012514469 6.9685436e-23)
(0.088603112 -0.00095951206 -2.9357433e-22)
(0.077497064 -0.0017472726 9.1531975e-22)
(0.083772644 -0.0010378128 -6.3411337e-22)
(0.083852684 -0.0017047344 1.3155342e-21)
(0.084931737 -0.00011401448 -2.0564194e-21)
(0.087258603 -0.00080271918 -1.5717323e-24)
(0.087805863 -0.0005410868 -2.959892e-21)
(0.089965289 0.0035066077 3.0832961e-21)
(0.093228405 0.0012198896 2.8048168e-21)
(0.092905902 -0.0012071593 -7.0834594e-21)
(0.087097224 0.0034928814 4.0543573e-22)
(0.076777191 0.0054218587 3.6071969e-21)
(0.065174307 0.00010491667 -7.1344213e-21)
(0.060948868 0.0058199766 7.3594844e-21)
(0.066201607 0.010034657 5.1043543e-22)
(0.070834474 0.0080183758 -7.9501894e-21)
(0.068468234 0.0062662304 8.8088021e-21)
(0.06492824 0.0035317989 0)
(0.064222457 0.0023096802 9.8350561e-21)
(0.0635179 0.0051618679 -1.9806428e-20)
(0.064979934 0.0048450985 4.5490306e-23)
(0.066231702 0.0047656927 1.0401079e-20)
(0.06330106 0.0080487899 1.1860945e-20)
(0.061075753 0.0091453786 -2.2880483e-20)
(0.05935935 0.0091074 1.2484581e-20)
(0.055198852 0.010302477 -1.9691465e-22)
(0.056870087 0.0070345164 2.0416144e-22)
(0.062052448 0.0050577769 1.3418919e-20)
(0.059863014 0.011360371 -1.432514e-20)
(0.055977965 0.012133192 2.2969798e-22)
(0.059390571 0.001688199 0)
(0.066456096 -0.0046048464 1.5828104e-20)
(0.072808491 -0.0018284121 -1.1201348e-22)
(0.075484515 0.0035565649 -1.6960551e-20)
(0.065176089 0.010079101 4.1733817e-22)
(0.046537932 0.015314263 -1.878822e-20)
(0.041734358 0.012804893 1.9363551e-20)
(0.061119658 0.0036779774 -1.5613871e-22)
(0.088457934 -0.0054554504 1.6132107e-22)
(0.097180739 -0.0089406021 0)
(0.080142415 -0.0085756056 -4.5272745e-20)
(0.051421662 -0.0043138007 4.5794833e-20)
(0.032599847 0.0039730387 -9.4806575e-23)
(0.037191889 0.011418725 -4.9551888e-20)
(0.059183031 0.012592793 5.2738796e-20)
(0.081927416 0.0030040854 1.0444902e-22)
(0.08984323 -0.013423446 1.0918439e-22)
(0.080520554 -0.029217832 5.818932e-20)
(0.061695342 -0.03602402 -5.9030496e-20)
(0.04465366 -0.029993714 -2.4144321e-22)
(0.037264486 -0.014028517 0)
(0.037866116 0.0036552136 0)
(0.042430511 0.014225516 -6.830351e-25)
(0.044563942 0.015177044 0)
(0.042232328 0.0060938955 -7.0980538e-23)
(0.088936212 -0.0010298684 -6.1827255e-22)
(0.077570801 -0.0017919226 -6.4019415e-22)
(0.083750047 -0.0015938072 2.6688595e-21)
(0.083889295 0.00022314294 -1.3916199e-21)
(0.084890446 -0.0013126327 1.4347087e-21)
(0.087207905 -0.00033397355 -2.2560811e-21)
(0.087643443 0.0017909686 -3.1228812e-21)
(0.089924299 0.001229673 3.2554919e-21)
(0.093618841 -0.0017162013 3.3809073e-21)
(0.092876276 -0.0023858239 -6.5825127e-21)
(0.086887542 0.00082760735 3.1844116e-21)
(0.077195194 0.0047059061 0)
(0.065494872 0.0030452619 4.9859561e-22)
(0.060274246 0.0060497379 0)
(0.065828948 0.0078941223 0)
(0.071077012 0.006301425 8.6510701e-21)
(0.069267787 0.0061492914 -9.2889378e-21)
(0.065973069 0.0031567342 -3.0216814e-22)
(0.064385864 -0.00034225829 -6.4184173e-25)
(0.063061093 0.0013942299 0)
(0.064498459 0.0029160208 1.1194556e-20)
(0.065768275 0.0035964736 -1.0606424e-20)
(0.063072362 0.0063980195 7.0663833e-25)
(0.061284771 0.0061757423 1.1663259e-20)
(0.059506933 0.0058319655 -2.5532837e-20)
(0.055495348 0.0086477 1.2779439e-20)
(0.057346813 0.0069652918 -1.3942664e-20)
(0.061436227 0.0044725615 2.1313185e-22)
(0.059210287 0.0088451221 1.5086456e-20)
(0.057862108 0.008936405 1.4940099e-20)
(0.061728001 -0.0009929734 -1.5917164e-20)
(0.066097545 -0.0065000558 0)
(0.070341614 -0.0041900944 -2.7126603e-22)
(0.073480662 0.0020547864 -4.7024462e-25)
(0.065577702 0.010921702 -1.4716272e-22)
(0.048951887 0.016751362 1.9935636e-20)
(0.04334156 0.012587688 -1.996429e-22)
(0.059417233 0.00092313513 -2.139305e-20)
(0.085045968 -0.0076097458 2.1211846e-20)
(0.097259267 -0.0076868914 -4.5174297e-20)
(0.085298215 -0.0037306883 -5.4611472e-22)
(0.057235132 2.9327635e-05 4.9193373e-20)
(0.032035409 0.0042249698 -2.5441767e-20)
(0.029678918 0.0073764843 -1.0374292e-22)
(0.050860147 0.0072159744 -2.6768829e-20)
(0.079716362 0.0003003643 2.8758985e-20)
(0.098130634 -0.010093535 0)
(0.094578576 -0.02065278 -3.0672944e-20)
(0.073608272 -0.027190653 3.0863691e-20)
(0.04609548 -0.025407611 2.5466005e-22)
(0.027880815 -0.015118601 0)
(0.023354367 -0.0018019702 -7.026992e-20)
(0.031191573 0.0077372466 1.3099284e-21)
(0.042404548 0.010801616 7.571023e-20)
(0.05063318 0.0059302062 7.6043999e-23)
(0.089290905 -0.00090418853 7.3005244e-27)
(0.077729413 -0.00145325 -1.3545866e-21)
(0.083677596 -0.0015992097 0)
(0.084023158 0.002102382 7.2999788e-22)
(0.085139054 -0.0021300427 1.1376443e-21)
(0.086966939 -0.00019699862 1.1887261e-21)
(0.087603509 0.0039569574 -4.9155873e-21)
(0.090263399 -0.0010780785 -4.026793e-22)
(0.09388794 -0.0033917255 -4.3622055e-22)
(0.092921771 -0.0019018374 6.9272849e-21)
(0.0867864 -0.00038515761 -3.354571e-21)
(0.077284495 0.0028560786 -4.0506706e-21)
(0.065656256 0.0050082587 3.1256099e-21)
(0.060060194 0.0061272481 0)
(0.065542353 0.0048603344 0)
(0.071042105 0.0036300858 -9.4016469e-21)
(0.069671998 0.0050932644 -2.9428296e-26)
(0.066976262 0.004112073 1.0514142e-20)
(0.065057448 6.3681728e-05 -3.3195259e-22)
(0.062727277 8.4213982e-05 1.1010294e-20)
(0.064004749 0.0023667905 -1.1474018e-20)
(0.065337724 0.0027655279 -3.71684e-22)
(0.063112139 0.0038308154 -1.9336992e-22)
(0.061699925 0.0022045517 -1.2896652e-20)
(0.059400721 0.0012305964 1.3400733e-20)
(0.055173138 0.0056599389 2.1763548e-22)
(0.057387253 0.0055724812 0)
(0.061227027 0.0039321948 0)
(0.058778706 0.0068824179 0)
(0.059229617 0.0063750036 5.097997e-22)
(0.063736275 -0.0015790169 -2.6505936e-22)
(0.066084835 -0.0066384043 0)
(0.067991412 -0.0050750323 1.4338283e-22)
(0.070499787 0.0013282871 2.9766132e-22)
(0.064893015 0.011847914 0)
(0.051262892 0.017775995 2.0637089e-20)
(0.046300579 0.012029074 -2.1295673e-20)
(0.059262526 -0.0016136275 0)