/*--------------------------------*- C++ -*----------------------------------*\
| =========                 |                                                 |
| \\      /  F ield         | OpenFOAM: The Open Source CFD Toolbox           |
|  \\    /   O peration     | Version:  2406                                  |
|   \\  /    A nd           | Website:  www.openfoam.com                      |
|    \\/     M anipulation  |                                                 |
\*---------------------------------------------------------------------------*/
FoamFile
{
    version     2.0;
    format      ascii;
    arch        "LSB;label=32;scalar=64";
    class       volScalarField;
    location    "27";
    object      k_0;
}
// * * * * * * * * * * * * * * * * * * * * * * * * * * * * * * * * * * * * * //

dimensions      [0 2 -2 0 0 0 0];

internalField   nonuniform List<scalar> 
62344
(
4.5080836e-06
3.5640954e-06
2.974113e-06
2.5469596e-06
2.1963954e-06
1.893489e-06
1.6487507e-06
1.4671804e-06
1.3434142e-06
1.2657234e-06
1.1865702e-06
1.1147815e-06
1.0517142e-06
9.8805447e-07
9.5133929e-07
9.1551127e-07
9.0082339e-07
9.0795245e-07
9.1101581e-07
9.0967776e-07
9.0363873e-07
8.6763025e-07
8.5531434e-07
8.5872509e-07
8.6379995e-07
8.8658005e-07
9.2443251e-07
9.5797459e-07
1.0231512e-06
1.1365475e-06
1.2997047e-06
1.486707e-06
1.6438393e-06
1.7749851e-06
2.0676886e-06
2.5743826e-06
3.106201e-06
4.2144076e-06
5.411236e-06
6.6536115e-06
9.1481216e-06
1.1178517e-05
1.3529542e-05
1.8602601e-05
2.4533751e-05
3.1693808e-05
4.2190316e-05
5.3198632e-05
6.1422264e-05
7.1722422e-05
8.3702714e-05
9.7264847e-05
0.00010964186
0.00011879687
0.00013471086
4.5111921e-06
3.5787276e-06
2.9600226e-06
2.5705245e-06
2.2182875e-06
1.8905247e-06
1.6421026e-06
1.4691594e-06
1.3562953e-06
1.2761359e-06
1.1935067e-06
1.120959e-06
1.0515815e-06
9.8844931e-07
9.5244985e-07
9.1133818e-07
8.9782548e-07
9.0029336e-07
8.9980077e-07
8.997613e-07
8.9774698e-07
8.6941337e-07
8.4501983e-07
8.4306009e-07
8.4203882e-07
8.5617046e-07
8.8047533e-07
9.0733194e-07
9.5637151e-07
1.0212416e-06
1.1390059e-06
1.2822682e-06
1.4076827e-06
1.5238145e-06
1.7565215e-06
2.0343235e-06
2.3932497e-06
3.1270754e-06
3.9809945e-06
5.1100699e-06
7.0592302e-06
9.4614045e-06
1.1663712e-05
1.4563552e-05
1.9680867e-05
2.892413e-05
3.5903668e-05
4.7670818e-05
5.5621439e-05
7.1029929e-05
8.4117135e-05
0.00011021697
0.00013040538
0.00016697492
0.00018872771
4.5126868e-06
3.5834704e-06
2.9829441e-06
2.5694409e-06
2.2254313e-06
1.8993051e-06
1.6505253e-06
1.4694829e-06
1.3526902e-06
1.2724671e-06
1.2013245e-06
1.1289914e-06
1.0579672e-06
9.9735646e-07
9.6190925e-07
9.1541411e-07
9.0104493e-07
9.0100485e-07
9.0467349e-07
9.04737e-07
8.9632772e-07
8.6442738e-07
8.4086806e-07
8.3649189e-07
8.3830673e-07
8.5523135e-07
8.7687834e-07
9.0637899e-07
9.4921085e-07
1.0026758e-06
1.0961171e-06
1.231574e-06
1.357146e-06
1.5053759e-06
1.7291439e-06
1.9344459e-06
2.2614575e-06
2.5923963e-06
3.3664432e-06
4.0797079e-06
5.4262929e-06
7.1575643e-06
8.7145225e-06
1.195695e-05
1.5206534e-05
2.2472976e-05
2.7309915e-05
3.6562869e-05
4.2162561e-05
5.5658821e-05
6.8783444e-05
9.741744e-05
0.00012234726
0.00015822928
0.00018955648
4.5144961e-06
3.5960346e-06
3.0028566e-06
2.5674128e-06
2.2380407e-06
1.9250206e-06
1.6661457e-06
1.4847022e-06
1.35925e-06
1.2846744e-06
1.2083792e-06
1.1389826e-06
1.0649562e-06
9.9312388e-07
9.6705896e-07
9.2514368e-07
9.0599842e-07
9.0611866e-07
9.0897346e-07
9.0865576e-07
9.0765702e-07
8.919173e-07
8.6232757e-07
8.4607668e-07
8.431853e-07
8.5746526e-07
8.7518736e-07
8.9530029e-07
9.2888766e-07
9.9425094e-07
1.0752613e-06
1.2030511e-06
1.3430648e-06
1.5331212e-06
1.7509826e-06
1.9621961e-06
2.2016615e-06
2.4744324e-06
3.0512349e-06
3.7303477e-06
4.4685612e-06
6.1455308e-06
7.4800837e-06
1.0100814e-05
1.2465762e-05
1.7957289e-05
2.1754213e-05
2.9319399e-05
3.3790154e-05
4.4160696e-05
5.2839706e-05
6.9477956e-05
9.3347406e-05
0.00011798128
0.00016418111
4.5179943e-06
3.6067058e-06
2.9958002e-06
2.5993064e-06
2.2622277e-06
1.934093e-06
1.6655697e-06
1.4895088e-06
1.3785667e-06
1.2994222e-06
1.2137559e-06
1.1481921e-06
1.0769921e-06
1.0032442e-06
9.7413972e-07
9.2946433e-07
9.1688082e-07
9.1129275e-07
9.1241711e-07
9.1815733e-07
9.1828887e-07
9.0656244e-07
8.7438819e-07
8.509734e-07
8.4663857e-07
8.5798812e-07
8.6902551e-07
8.845401e-07
9.1225515e-07
9.8845382e-07
1.0823296e-06
1.196521e-06
1.3102565e-06
1.5144299e-06
1.6666983e-06
1.9203183e-06
2.0877423e-06
2.4423408e-06
2.745211e-06
3.4137393e-06
3.9891074e-06
5.2829984e-06
6.446426e-06
8.5751788e-06
1.1411217e-05
1.4084904e-05
1.9293764e-05
2.6572842e-05
3.4013859e-05
3.9910491e-05
5.0676095e-05
5.9623414e-05
7.9282382e-05
9.646304e-05
0.00013083139
4.5207867e-06
3.6068907e-06
3.0126601e-06
2.606682e-06
2.2583748e-06
1.9305694e-06
1.6737542e-06
1.4881232e-06
1.3737491e-06
1.2948145e-06
1.2128571e-06
1.1501709e-06
1.0822254e-06
1.0082728e-06
9.7826988e-07
9.3705321e-07
9.2004008e-07
9.164929e-07
9.1701461e-07
9.2538878e-07
9.2421375e-07
9.0934602e-07
8.8477413e-07
8.580296e-07
8.490733e-07
8.5666281e-07
8.6308499e-07
8.7602354e-07
9.102968e-07
9.9290206e-07
1.092237e-06
1.2004556e-06
1.3000792e-06
1.4959364e-06
1.6449902e-06
1.8867515e-06
2.0438218e-06
2.3855709e-06
2.6444154e-06
3.1956447e-06
3.687192e-06
4.7461032e-06
5.8524243e-06
7.3406075e-06
1.0008829e-05
1.2089787e-05
1.6883386e-05
2.1633153e-05
3.1807945e-05
3.841962e-05
5.1126465e-05
5.9350549e-05
7.7523161e-05
9.2072697e-05
0.00011850336
4.523706e-06
3.6157456e-06
3.0364454e-06
2.6029363e-06
2.2688376e-06
1.942248e-06
1.6890445e-06
1.5032319e-06
1.3716391e-06
1.2928785e-06
1.220199e-06
1.1546562e-06
1.0838659e-06
1.0042518e-06
9.7739341e-07
9.4105056e-07
9.177594e-07
9.1814069e-07
9.157629e-07
9.2233039e-07
9.2532125e-07
9.1897381e-07
9.0369325e-07
8.751548e-07
8.5697874e-07
8.5952553e-07
8.6727588e-07
8.8008506e-07
9.1555279e-07
9.9238409e-07
1.0800084e-06
1.1802486e-06
1.2710483e-06
1.4595553e-06
1.62481e-06
1.8556092e-06
2.0318276e-06
2.3789836e-06
2.6173451e-06
3.0815722e-06
3.552143e-06
4.430925e-06
5.8941222e-06
7.0224191e-06
8.5495367e-06
1.1105047e-05
1.6013119e-05
1.9714372e-05
2.6720863e-05
3.4271077e-05
4.8958189e-05
6.1554607e-05
7.5174346e-05
9.2171417e-05
0.00011493065
4.5261115e-06
3.627043e-06
3.03266e-06
2.6168868e-06
2.3036026e-06
1.9677216e-06
1.6965786e-06
1.5130064e-06
1.3938657e-06
1.3121085e-06
1.2330825e-06
1.164865e-06
1.0899867e-06
1.0229504e-06
9.8669173e-07
9.4777713e-07
9.2322973e-07
9.189005e-07
9.1700736e-07
9.2080631e-07
9.2335287e-07
9.2140375e-07
9.0985939e-07
8.7523785e-07
8.5670336e-07
8.6009648e-07
8.6916603e-07
8.8488586e-07
9.1512456e-07
9.7519048e-07
1.0618431e-06
1.1489236e-06
1.2263439e-06
1.3882134e-06
1.5760233e-06
1.780049e-06
2.0437537e-06
2.3510274e-06
2.5605144e-06
2.9413232e-06
3.4076793e-06
4.3444785e-06
5.6817904e-06
6.6739984e-06
7.8603939e-06
1.0584853e-05
1.4776296e-05
1.8664411e-05
2.2862925e-05
2.9636497e-05
4.3394133e-05
5.842536e-05
6.7830919e-05
8.4128146e-05
0.00010664285
4.5275128e-06
3.6316066e-06
3.02602e-06
2.6273177e-06
2.3098653e-06
1.9696106e-06
1.6964209e-06
1.5082982e-06
1.4037252e-06
1.318814e-06
1.2352621e-06
1.1725881e-06
1.0975538e-06
1.0342881e-06
9.9173144e-07
9.5343294e-07
9.2458792e-07
9.1821227e-07
9.1968924e-07
9.2737897e-07
9.2802708e-07
9.2582104e-07
9.1762102e-07
8.7868625e-07
8.5509352e-07
8.5981835e-07
8.6744766e-07
8.8061133e-07
9.1172855e-07
9.5788235e-07
1.0368978e-06
1.1284731e-06
1.1952402e-06
1.3310117e-06
1.5289721e-06
1.7382591e-06
1.9939215e-06
2.2673341e-06
2.494575e-06
2.7388106e-06
3.2423911e-06
4.2783969e-06
5.1746105e-06
6.0055483e-06
7.3952145e-06
1.0365036e-05
1.411149e-05
1.7309014e-05
2.0309836e-05
2.5138398e-05
3.6048555e-05
4.9825212e-05
5.7846608e-05
7.0483826e-05
9.3745063e-05
4.5286684e-06
3.6349451e-06
3.0369087e-06
2.6226013e-06
2.2916193e-06
1.9575745e-06
1.6983953e-06
1.505997e-06
1.3946573e-06
1.3057894e-06
1.2320778e-06
1.1726321e-06
1.1037854e-06
1.0275073e-06
9.879105e-07
9.5349927e-07
9.2163244e-07
9.1598188e-07
9.1751953e-07
9.2875681e-07
9.341944e-07
9.319449e-07
9.3260852e-07
9.0895083e-07
8.7668166e-07
8.7040819e-07
8.7298043e-07
8.7971582e-07
9.067752e-07
9.4301325e-07
1.001658e-06
1.0960441e-06
1.1718262e-06
1.3044363e-06
1.5002247e-06
1.6846428e-06
1.8960428e-06
2.1713813e-06
2.419148e-06
2.638265e-06
3.0646361e-06
3.9424643e-06
4.6765065e-06
5.3808855e-06
6.6136628e-06
9.1994089e-06
1.2631412e-05
1.5066247e-05
1.8003882e-05
2.1643215e-05
2.9740905e-05
4.0933115e-05
5.1637401e-05
6.2305009e-05
7.8815784e-05
4.5302818e-06
3.6452199e-06
3.0560192e-06
2.6217724e-06
2.2965711e-06
1.9695587e-06
1.7072368e-06
1.5143654e-06
1.391065e-06
1.3033622e-06
1.2354341e-06
1.1733008e-06
1.1034714e-06
1.025598e-06
9.8805229e-07
9.574276e-07
9.3123566e-07
9.2116276e-07
9.1843085e-07
9.2536468e-07
9.3207737e-07
9.3336409e-07
9.3592898e-07
9.1508393e-07
8.8595595e-07
8.740669e-07
8.731144e-07
8.7892459e-07
9.0076592e-07
9.2875213e-07
9.7548184e-07
1.0608563e-06
1.1640074e-06
1.2849761e-06
1.4798461e-06
1.6510212e-06
1.8242225e-06
2.1069222e-06
2.3326236e-06
2.5736662e-06
2.9698256e-06
3.7035013e-06
4.1848125e-06
4.9638057e-06
5.784374e-06
7.3680015e-06
1.0569445e-05
1.2533385e-05
1.5795948e-05
1.8937748e-05
2.5435981e-05
3.3546424e-05
4.3733632e-05
5.3810265e-05
6.7478378e-05
4.5322339e-06
3.6577025e-06
3.0645772e-06
2.6315865e-06
2.3312402e-06
2.008975e-06
1.7209113e-06
1.5282075e-06
1.4039061e-06
1.3224613e-06
1.2531584e-06
1.186882e-06
1.1071535e-06
1.0472872e-06
9.9820292e-07
9.6848125e-07
9.4509627e-07
9.2762915e-07
9.2495628e-07
9.2716917e-07
9.2687166e-07
9.3228074e-07
9.3494452e-07
9.1212904e-07
8.7883098e-07
8.6621716e-07
8.6160243e-07
8.6600583e-07
8.8400898e-07
9.112677e-07
9.7145488e-07
1.0593662e-06
1.1871363e-06
1.2790099e-06
1.4655086e-06
1.6317265e-06
1.789801e-06
2.0510484e-06
2.2183231e-06
2.5599459e-06
2.9288245e-06
3.5396104e-06
3.9333864e-06
4.7063418e-06
5.5345112e-06
6.5399599e-06
8.9212958e-06
1.0570564e-05
1.3723463e-05
1.6482189e-05
2.2649214e-05
2.7329309e-05
3.5683013e-05
4.3317176e-05
5.7061258e-05
4.533751e-06
3.6629199e-06
3.0629936e-06
2.645292e-06
2.3523926e-06
2.0269733e-06
1.7297584e-06
1.5332414e-06
1.4179159e-06
1.3400462e-06
1.2638762e-06
1.1968774e-06
1.1140242e-06
1.0632556e-06
1.0049146e-06
9.7464095e-07
9.4894147e-07
9.2795367e-07
9.2694598e-07
9.2978403e-07
9.2688706e-07
9.330025e-07
9.3757141e-07
9.2233214e-07
8.8386711e-07
8.6454723e-07
8.5445964e-07
8.5594504e-07
8.7110991e-07
9.0089548e-07
9.7021897e-07
1.0751655e-06
1.2007409e-06
1.2878369e-06
1.4535807e-06
1.5849454e-06
1.7643619e-06
2.0036865e-06
2.1621622e-06
2.4529855e-06
2.997633e-06
3.4881324e-06
3.8295591e-06
4.5172052e-06
5.7010019e-06
6.4815841e-06
8.2346244e-06
9.747602e-06
1.288483e-05
1.519295e-05
2.0057264e-05
2.3514351e-05
3.0193377e-05
3.5841983e-05
4.6413519e-05
4.53459e-06
3.6613831e-06
3.0609265e-06
2.6533121e-06
2.3401747e-06
2.0134498e-06
1.7298054e-06
1.5304327e-06
1.4165291e-06
1.3380849e-06
1.2606997e-06
1.1918946e-06
1.1189158e-06
1.0624997e-06
1.0026192e-06
9.7183139e-07
9.383912e-07
9.188877e-07
9.1799204e-07
9.2427082e-07
9.2624761e-07
9.3141305e-07
9.3808117e-07
9.2986518e-07
9.0588146e-07
8.7812694e-07
8.584882e-07
8.564601e-07
8.6933834e-07
9.0024733e-07
9.6525091e-07
1.06697e-06
1.1960926e-06
1.2861409e-06
1.4296165e-06
1.5531404e-06
1.696957e-06
1.9484419e-06
2.133076e-06
2.3695188e-06
2.916955e-06
3.481374e-06
3.843669e-06
4.4272012e-06
5.7339974e-06
6.5320489e-06
8.2039223e-06
9.5914538e-06
1.2559366e-05
1.46835e-05
1.8638915e-05
2.1169207e-05
2.6228918e-05
3.1037717e-05
3.804143e-05
4.5351537e-06
3.6592372e-06
3.0656551e-06
2.657604e-06
2.3195211e-06
1.9957185e-06
1.7277485e-06
1.5274812e-06
1.4046885e-06
1.3213344e-06
1.24814e-06
1.1787601e-06
1.116033e-06
1.051019e-06
9.9681939e-07
9.5789685e-07
9.2697278e-07
9.1137454e-07
9.074985e-07
9.1159453e-07
9.1954842e-07
9.2472086e-07
9.3055482e-07
9.2446898e-07
9.0812625e-07
8.8471013e-07
8.6577123e-07
8.6284023e-07
8.7454247e-07
9.0557536e-07
9.5749047e-07
1.0336375e-06
1.1623614e-06
1.2574997e-06
1.380756e-06
1.5224614e-06
1.6393412e-06
1.8497011e-06
2.0716863e-06
2.2635976e-06
2.6941535e-06
3.3260837e-06
3.7362995e-06
4.2000469e-06
5.3760719e-06
6.2249692e-06
7.9699366e-06
9.2437523e-06
1.1916924e-05
1.3752927e-05
1.727254e-05
1.9343354e-05
2.355733e-05
2.7688185e-05
3.2823902e-05
4.5359795e-06
3.6614606e-06
3.0766249e-06
2.6626551e-06
2.3210801e-06
1.9994123e-06
1.7336682e-06
1.5312086e-06
1.401808e-06
1.3133405e-06
1.2428726e-06
1.176331e-06
1.1098434e-06
1.0476404e-06
9.9583461e-07
9.5107309e-07
9.256887e-07
9.1143533e-07
9.0561689e-07
9.0660921e-07
9.1348775e-07
9.2140691e-07
9.2321985e-07
9.1093045e-07
8.8700991e-07
8.7206611e-07
8.6270819e-07
8.6097374e-07
8.719234e-07
9.0029065e-07
9.4735557e-07
1.0033792e-06
1.104791e-06
1.2105027e-06
1.3169509e-06
1.4687082e-06
1.6065543e-06
1.7583767e-06
2.0041625e-06
2.1942722e-06
2.5069331e-06
3.0291983e-06
3.5695788e-06
3.9181612e-06
4.6975092e-06
5.444603e-06
7.1966886e-06
8.3930797e-06
1.0609099e-05
1.2110553e-05
1.4959247e-05
1.7764401e-05
2.1973329e-05
2.5470896e-05
2.9564917e-05
4.5365615e-06
3.6678935e-06
3.0888473e-06
2.6708762e-06
2.3470006e-06
2.0277941e-06
1.7514636e-06
1.5432399e-06
1.4150558e-06
1.3213308e-06
1.2543342e-06
1.1911643e-06
1.110638e-06
1.0624583e-06
1.0059488e-06
9.6061264e-07
9.382586e-07
9.235624e-07
9.1393962e-07
9.1211324e-07
9.157662e-07
9.2511486e-07
9.2608498e-07
9.0967907e-07
8.8101634e-07
8.6430923e-07
8.5661784e-07
8.5501851e-07
8.6381521e-07
8.8495216e-07
9.302599e-07
9.878935e-07
1.0582288e-06
1.1647809e-06
1.2512828e-06
1.3744184e-06
1.5721029e-06
1.6971096e-06
1.9144058e-06
2.1236859e-06
2.4552789e-06
2.7714365e-06
3.3034007e-06
3.6497049e-06
4.3414048e-06
4.9104747e-06
6.2868432e-06
7.3328719e-06
9.2163852e-06
1.0628689e-05
1.2290408e-05
1.5603102e-05
1.9840225e-05
2.3548931e-05
2.7061153e-05
4.5368618e-06
3.6736227e-06
3.0955898e-06
2.6780767e-06
2.3832789e-06
2.0603309e-06
1.7741858e-06
1.5585918e-06
1.4383023e-06
1.343504e-06
1.2802263e-06
1.2181346e-06
1.1252897e-06
1.0921562e-06
1.0268693e-06
9.8797512e-07
9.5715281e-07
9.3845722e-07
9.2670101e-07
9.2536513e-07
9.2770955e-07
9.38541e-07
9.4280967e-07
9.2969674e-07
9.0411288e-07
8.7494093e-07
8.6184863e-07
8.5844395e-07
8.6427433e-07
8.7856093e-07
9.1474242e-07
9.7269414e-07
1.0254318e-06
1.1113012e-06
1.1903873e-06
1.2749906e-06
1.4727655e-06
1.6083807e-06
1.8437172e-06
2.016246e-06
2.386074e-06
2.6706871e-06
3.1851623e-06
3.54762e-06
4.256115e-06
4.7581038e-06
5.919502e-06
6.8224708e-06
8.5566026e-06
9.8378152e-06
1.1577557e-05
1.3699774e-05
1.7072852e-05
2.0913359e-05
2.4018994e-05
4.5369049e-06
3.6760384e-06
3.0950381e-06
2.6821853e-06
2.399695e-06
2.0724125e-06
1.784951e-06
1.5645441e-06
1.4497809e-06
1.3572375e-06
1.2950554e-06
1.2300623e-06
1.1350987e-06
1.1048684e-06
1.0381426e-06
1.0040083e-06
9.6355475e-07
9.4379809e-07
9.3156129e-07
9.3157393e-07
9.3399794e-07
9.4837753e-07
9.5832966e-07
9.5192974e-07
9.4210448e-07
9.1397692e-07
8.9336365e-07
8.8808578e-07
8.9183058e-07
8.9964036e-07
9.2198433e-07
9.7474496e-07
1.0233375e-06
1.1018081e-06
1.1760545e-06
1.2465786e-06
1.4138866e-06
1.5525998e-06
1.8019461e-06
1.9845764e-06
2.3762511e-06
2.6627703e-06
3.1981647e-06
3.5815433e-06
4.3346881e-06
4.8389009e-06
5.9469325e-06
6.7750453e-06
8.4166844e-06
9.6385969e-06
1.1455263e-05
1.3089194e-05
1.5437466e-05
1.8582379e-05
2.1091165e-05
4.5358716e-06
3.673416e-06
3.089172e-06
2.6807932e-06
2.3891893e-06
2.0623669e-06
1.78075e-06
1.560907e-06
1.442129e-06
1.3519778e-06
1.2891549e-06
1.2220494e-06
1.1352004e-06
1.1038818e-06
1.0362097e-06
1.0027244e-06
9.622301e-07
9.4673482e-07
9.3761423e-07
9.3786109e-07
9.4296566e-07
9.6772097e-07
9.9189854e-07
9.9802764e-07
9.990274e-07
9.9610538e-07
9.9104012e-07
9.8970628e-07
9.990046e-07
1.0121961e-06
1.0412527e-06
1.1078332e-06
1.1754513e-06
1.2531409e-06
1.3407854e-06
1.414363e-06
1.5777418e-06
1.7072299e-06
1.9581779e-06
2.1441459e-06
2.5436635e-06
2.8452327e-06
3.4435272e-06
3.9064575e-06
4.8350118e-06
5.3844035e-06
6.5092942e-06
7.2693373e-06
8.7537643e-06
1.0013856e-05
1.1673388e-05
1.3149783e-05
1.4946013e-05
1.7600426e-05
1.9718439e-05
4.5354035e-06
3.6710584e-06
3.0813372e-06
2.674068e-06
2.3587201e-06
2.0375825e-06
1.7661994e-06
1.5501396e-06
1.4256053e-06
1.3357036e-06
1.2744323e-06
1.2127083e-06
1.1389936e-06
1.1105095e-06
1.0586434e-06
1.0324925e-06
1.0078071e-06
1.0094932e-06
1.0121056e-06
1.0180493e-06
1.0370521e-06
1.0939571e-06
1.1595854e-06
1.1997105e-06
1.2325832e-06
1.2740433e-06
1.3214004e-06
1.34985e-06
1.4142651e-06
1.4582194e-06
1.5382299e-06
1.6572377e-06
1.829854e-06
1.9360385e-06
2.0940632e-06
2.2046637e-06
2.4441632e-06
2.6202422e-06
2.9492735e-06
3.1415359e-06
3.5473027e-06
3.8984309e-06
4.6380749e-06
5.2839254e-06
6.5152497e-06
7.2858537e-06
8.471413e-06
9.2993064e-06
1.0461404e-05
1.1792424e-05
1.3095251e-05
1.4497431e-05
1.5775664e-05
1.8014942e-05
1.9597121e-05
4.5321901e-06
3.6626295e-06
3.0641382e-06
2.6515453e-06
2.3321753e-06
2.0301615e-06
1.7709607e-06
1.5671215e-06
1.4590211e-06
1.377526e-06
1.3378516e-06
1.2991844e-06
1.2581026e-06
1.2689471e-06
1.273058e-06
1.2951215e-06
1.3128645e-06
1.3690401e-06
1.4250022e-06
1.4595948e-06
1.5316166e-06
1.6761608e-06
1.8466374e-06
1.9761405e-06
2.0920453e-06
2.2399601e-06
2.4596946e-06
2.5880565e-06
2.8270691e-06
2.978702e-06
3.2264885e-06
3.4732482e-06
3.937526e-06
4.2237802e-06
4.5805982e-06
4.7909855e-06
5.2423363e-06
5.5770497e-06
6.1833363e-06
6.5243973e-06
7.0019191e-06
7.4475341e-06
8.4559718e-06
9.4971531e-06
1.0900725e-05
1.1989907e-05
1.3312652e-05
1.4421737e-05
1.535159e-05
1.6810045e-05
1.777109e-05
1.9296516e-05
2.0067289e-05
2.178977e-05
2.2594943e-05
4.5281592e-06
3.6514383e-06
3.0389176e-06
2.6438411e-06
2.3848946e-06
2.1556813e-06
1.9649243e-06
1.8269542e-06
1.806187e-06
1.7993181e-06
1.8386722e-06
1.9094446e-06
1.97483e-06
2.169356e-06
2.2884368e-06
2.4907942e-06
2.6301012e-06
2.8628634e-06
3.1033839e-06
3.2112293e-06
3.4303148e-06
3.7559779e-06
4.1303338e-06
4.5063722e-06
4.9041844e-06
5.2659607e-06
5.8979436e-06
6.3551105e-06
7.0527778e-06
7.5608145e-06
8.2644062e-06
8.7757258e-06
9.760878e-06
1.0566359e-05
1.1474655e-05
1.189344e-05
1.2759147e-05
1.3336257e-05
1.4354816e-05
1.5113849e-05
1.5849019e-05
1.6405592e-05
1.7703843e-05
1.900242e-05
2.0506128e-05
2.1876561e-05
2.3488921e-05
2.4978033e-05
2.6076789e-05
2.7802942e-05
2.881717e-05
3.04209e-05
3.1249755e-05
3.3266061e-05
3.3213355e-05
4.5029028e-06
3.6554876e-06
3.1352046e-06
2.9117961e-06
2.9230182e-06
3.0136702e-06
3.213317e-06
3.3837335e-06
3.6724914e-06
3.838407e-06
4.2252965e-06
4.6547248e-06
4.9865078e-06
5.6548156e-06
6.0259708e-06
6.6202149e-06
6.9726396e-06
7.5531567e-06
8.2578175e-06
8.5647396e-06
9.1146789e-06
9.7514358e-06
1.0404812e-05
1.1170471e-05
1.2208196e-05
1.3023953e-05
1.4253852e-05
1.5406722e-05
1.7008718e-05
1.8241948e-05
1.9442704e-05
2.0246574e-05
2.1884065e-05
2.3673514e-05
2.5447096e-05
2.6421401e-05
2.7744502e-05
2.8459142e-05
2.9880262e-05
3.1455231e-05
3.3192617e-05
3.4276722e-05
3.5184695e-05
3.6129177e-05
3.7790424e-05
3.9056423e-05
4.028157e-05
4.1344401e-05
4.234756e-05
4.3372854e-05
4.4356148e-05
4.5232555e-05
4.612422e-05
4.7300014e-05
4.7472754e-05
4.4067784e-06
4.2644683e-06
4.4760845e-06
4.9180787e-06
5.813652e-06
6.9312176e-06
8.3469099e-06
9.57064e-06
1.0368941e-05
1.0951352e-05
1.1773622e-05
1.2691951e-05
1.3416119e-05
1.4455494e-05
1.5105987e-05
1.5962577e-05
1.6564179e-05
1.7187765e-05
1.8147851e-05
1.8835361e-05
1.9712769e-05
2.0558051e-05
2.1053454e-05
2.1597746e-05
2.2655414e-05
2.3391412e-05
2.4170618e-05
2.5390013e-05
2.7120711e-05
2.8830324e-05
3.0301717e-05
3.125976e-05
3.2295745e-05
3.3839989e-05
3.5450564e-05
3.697654e-05
3.756467e-05
3.7660018e-05
3.8680146e-05
4.0463201e-05
4.2752366e-05
4.4237759e-05
4.470615e-05
4.5262252e-05
4.5987149e-05
4.6794368e-05
4.741312e-05
4.806692e-05
4.8801603e-05
4.9177821e-05
4.9620561e-05
5.0010904e-05
5.0194667e-05
5.0173292e-05
5.0645919e-05
5.7111558e-06
9.5474125e-06
1.2578281e-05
1.3653811e-05
1.5305196e-05
1.7045744e-05
1.88634e-05
2.0252674e-05
2.0276268e-05
2.0314849e-05
2.0348483e-05
2.0507315e-05
2.1044125e-05
2.1170748e-05
2.113333e-05
2.1036134e-05
2.0990899e-05
2.0975759e-05
2.1183996e-05
2.1777185e-05
2.260251e-05
2.3209444e-05
2.3298316e-05
2.3383657e-05
2.3574158e-05
2.3698565e-05
2.3834208e-05
2.4149343e-05
2.4869077e-05
2.6045783e-05
2.6886166e-05
2.7584431e-05
2.8257955e-05
2.913375e-05
3.0257413e-05
3.1250882e-05
3.1294803e-05
3.1086839e-05
3.147719e-05
3.2776033e-05
3.4644224e-05
3.5888294e-05
3.5858728e-05
3.5315981e-05
3.5108433e-05
3.5296691e-05
3.5782971e-05
3.6664179e-05
3.7689415e-05
3.8430297e-05
3.8863279e-05
3.9029892e-05
3.8989327e-05
3.8719521e-05
3.8794479e-05
4.2556749e-05
6.1880459e-05
4.853302e-05
3.8611323e-05
3.4196988e-05
3.002334e-05
2.6345724e-05
2.3771912e-05
2.1861743e-05
2.1039215e-05
2.1210119e-05
2.171158e-05
2.2558573e-05
2.3239351e-05
2.4141051e-05
2.465174e-05
2.4891635e-05
2.4474834e-05
2.3820249e-05
2.3409923e-05
2.3234695e-05
2.2661014e-05
2.2393256e-05
2.2268377e-05
2.2191603e-05
2.2415773e-05
2.2654686e-05
2.2454477e-05
2.2171246e-05
2.2192043e-05
2.2190482e-05
2.1574592e-05
2.0434268e-05
1.939849e-05
1.9261641e-05
1.9761914e-05
1.9717812e-05
1.9362929e-05
2.0392537e-05
2.1758327e-05
2.2438731e-05
2.3877577e-05
2.5076333e-05
2.5449318e-05
2.5032918e-05
2.4727934e-05
2.4149457e-05
2.3632444e-05
2.341768e-05
2.3045147e-05
2.2541358e-05
2.2322353e-05
2.2392155e-05
2.2682405e-05
2.3297105e-05
2.3079263e-05
3.8072579e-05
5.0552801e-05
4.8746724e-05
3.627568e-05
2.526953e-05
2.2112914e-05
2.2482274e-05
2.4301275e-05
2.8330067e-05
3.2263638e-05
3.5675414e-05
3.988574e-05
4.6186658e-05
5.7358814e-05
7.2038426e-05
8.6898883e-05
0.00010269415
0.00012248815
0.00013400257
0.00013748107
0.00014041484
0.00015417449
0.00018855571
0.00023745624
0.00023135134
0.00018278932
2.1696725e-05
3.6453438e-05
5.044684e-05
4.9770018e-05
3.9595889e-05
2.8552954e-05
2.5599143e-05
2.641615e-05
2.9470059e-05
3.4532839e-05
3.8946683e-05
4.3082305e-05
4.8236457e-05
5.6205491e-05
6.947167e-05
8.8088607e-05
0.00010904604
0.00013008937
0.00015972144
0.00017437331
0.00017417105
0.0001714914
0.00018630424
0.00022532546
0.00025152311
0.0002596872
0.00023095603
2.1192201e-05
3.470663e-05
5.1475458e-05
5.1376238e-05
4.2045546e-05
3.2162361e-05
3.0015102e-05
3.1183253e-05
3.4642365e-05
4.0531078e-05
4.6280995e-05
5.0803256e-05
5.6599072e-05
6.6181864e-05
8.2716946e-05
0.00010620273
0.00013320035
0.00016063714
0.00020573973
0.00023231631
0.00023383014
0.00022002896
0.00022522695
0.00026155455
0.00027879736
0.00030794362
0.00027780621
2.1692825e-05
3.3639548e-05
5.3338759e-05
5.3834582e-05
4.5810416e-05
3.7129906e-05
3.5361961e-05
3.6509646e-05
3.9805046e-05
4.766361e-05
5.5405798e-05
6.0249233e-05
6.5988589e-05
7.732715e-05
9.7427113e-05
0.00012735975
0.00016499375
0.00020380165
0.00026347652
0.00030036289
0.00030366343
0.00028375068
0.0002690067
0.00030286398
0.00031791299
0.00037203528
0.00033149537
2.2359234e-05
3.4002444e-05
5.4962008e-05
5.6218109e-05
4.9426142e-05
4.1497774e-05
4.0222517e-05
4.1986334e-05
4.8167247e-05
6.0171287e-05
6.8939745e-05
7.3798477e-05
7.9050489e-05
9.0992879e-05
0.00011412658
0.00015087003
0.00019910875
0.00025281732
0.00032262457
0.0003714807
0.00037883472
0.00036434987
0.00032415218
0.00035213109
0.00037678044
0.00043751457
0.00038164028
2.2072023e-05
3.3798621e-05
5.5577436e-05
5.7984247e-05
5.2581454e-05
4.693342e-05
4.6919352e-05
5.0768886e-05
6.1265475e-05
7.455877e-05
8.3447272e-05
8.8699824e-05
9.407834e-05
0.00010696206
0.00013401137
0.00017600419
0.00023308871
0.00029709874
0.00037328009
0.00043246197
0.00044678802
0.00044757486
0.00039937744
0.00041799015
0.00044720885
0.00051285624
0.00044026302
2.2767899e-05
3.1904373e-05
5.4359477e-05
5.8804658e-05
5.5282959e-05
5.1579193e-05
5.3204827e-05
5.9378036e-05
7.2123091e-05
8.5604103e-05
9.5820806e-05
0.00010291253
0.00010982754
0.00012580309
0.00015906073
0.00021020814
0.00027385967
0.00034490222
0.00042896555
0.00049142837
0.00050411484
0.00052257556
0.00049558125
0.0005089504
0.00052791312
0.00060314262
0.00054074575
2.4103524e-05
2.9492688e-05
5.1962791e-05
5.8588375e-05
5.7111574e-05
5.5601666e-05
5.7924371e-05
6.5076438e-05
7.9874468e-05
9.7709735e-05
0.00011006168
0.00011803224
0.00012559783
0.00014380804
0.00018410722
0.0002460459
0.00031845918
0.0004038714
0.00050304236
0.00056844362
0.00056966292
0.00058752209
0.00059602936
0.00061234453
0.00062338891
0.00066902734
0.00066469427
2.4995325e-05
2.714462e-05
4.903986e-05
5.8219546e-05
5.9244178e-05
6.035268e-05
6.4346388e-05
7.40975e-05
9.3841554e-05
0.00011651851
0.00013072903
0.00013922514
0.00014694727
0.00016448655
0.00020604786
0.00027540173
0.00036086226
0.00046233003
0.00058379867
0.00067065115
0.00067474386
0.00067264405
0.00069707676
0.00070766754
0.00071139974
0.00070786136
0.0007425795
2.4135712e-05
2.512939e-05
4.5967154e-05
5.7966596e-05
6.1353979e-05
6.4163351e-05
7.008711e-05
8.2690412e-05
0.00011025969
0.00013939728
0.00015737674
0.0001673742
0.00017430417
0.00018985497
0.00023025038
0.0003008068
0.0003900988
0.00050074635
0.00063916875
0.00076827312
0.0008158366
0.00082532393
0.00083413198
0.00079343423
0.00077446847
0.00074010971
0.00077576092
2.3860962e-05
2.3505586e-05
4.3471565e-05
5.8156728e-05
6.3420138e-05
6.8317568e-05
7.7202427e-05
9.6114566e-05
0.0001334658
0.00016928275
0.0001899533
0.00019965211
0.00020657861
0.00022406148
0.00026929852
0.00034321363
0.00042948617
0.00053310406
0.00066761466
0.00083339933
0.00095116666
0.0010313235
0.0010582453
0.00095067561
0.00085328815
0.0007712162
0.0008170851
2.4209006e-05
2.2503562e-05
4.1807756e-05
5.911007e-05
6.6249696e-05
7.303041e-05
8.6748296e-05
0.00011764886
0.00016524366
0.00020595867
0.00022682848
0.00023428387
0.00024180698
0.00026298348
0.0003146248
0.00039366587
0.00048771702
0.00059510397
0.00073027812
0.00090300035
0.0010517109
0.0011925367
0.001335865
0.0012195397
0.0010119947
0.00083523275
0.0008691277
2.4764796e-05
2.1869421e-05
4.0890295e-05
6.0602398e-05
7.0088216e-05
8.1479316e-05
0.00010523636
0.00015115605
0.00020556704
0.00024739205
0.0002686715
0.00027783374
0.00028860048
0.00031394616
0.00036653303
0.00044630379
0.00054364781
0.00066610304
0.00083369536
0.001021193
0.0011565201
0.0012729423
0.001496246
0.0015368238
0.0012817414
0.00099366993
0.00095190252
2.5418556e-05
2.1152104e-05
3.9299195e-05
6.282537e-05
7.5697362e-05
9.4701648e-05
0.00013012447
0.00018643647
0.00024493135
0.00028877043
0.00031448177
0.00032972289
0.00034793969
0.00037946835
0.00043335132
0.00051278809
0.00061671851
0.00075349656
0.00094030147
0.001147892
0.0012784591
0.0013510185
0.0015530672
0.0017212323
0.0016242943
0.0012806384
0.0011150813
2.820387e-05
2.0344255e-05
3.7547623e-05
6.5001074e-05
8.1976705e-05
0.00010610556
0.00015093141
0.00021560048
0.00027912297
0.00032923832
0.00036426749
0.00039019216
0.00041839615
0.00045940081
0.00052072883
0.00061160276
0.00073341464
0.00088135193
0.0010699162
0.0012575602
0.0013994724
0.0014709304
0.0016616983
0.0018471527
0.0018300761
0.0016207455
0.001397805
3.1739949e-05
1.9545191e-05
3.5737131e-05
6.6376277e-05
8.7644188e-05
0.00011863156
0.00017525755
0.0002497545
0.00032164633
0.00037881103
0.00042242105
0.00045680534
0.00049478327
0.00054970369
0.00063194389
0.00076196915
0.00091522848
0.0010693887
0.0012270976
0.0013782351
0.0014985069
0.0015770273
0.0017958814
0.0020310758
0.0020570402
0.0018808302
0.0016800748
3.5647397e-05
1.8631029e-05
3.2237887e-05
6.3995238e-05
8.8997037e-05
0.00012609565
0.00019150463
0.00027623407
0.00036085642
0.00043272593
0.00049259793
0.00054366963
0.00059596227
0.00066491816
0.00077145267
0.00093616389
0.0011142481
0.0012763996
0.0014287418
0.0015492993
0.0016366622
0.0016955637
0.0018862916
0.00221147
0.0023413558
0.0021664835
0.0018084935
3.9061962e-05
1.8080686e-05
2.818078e-05
5.8789428e-05
8.819458e-05
0.00013234766
0.00020906027
0.00030910767
0.0004119944
0.00050345767
0.00058542205
0.00065984963
0.00073728652
0.00082554964
0.00095158818
0.0011193556
0.001290787
0.0014481538
0.0016011369
0.0017335404
0.0018314375
0.0018656705
0.0020077063
0.0023465057
0.0025679408
0.0024576468
0.001935174
4.2474291e-05
1.8635487e-05
2.5691977e-05
5.368603e-05
8.8005721e-05
0.00013988211
0.00022567823
0.00033930287
0.00046111405
0.00057809303
0.00068945281
0.00079465432
0.00089934983
0.0010081902
0.0011475834
0.0013156398
0.0014802184
0.0016183739
0.0017610605
0.0018960596
0.0020115435
0.0020852886
0.0022238288
0.0025350416
0.002766996
0.0026816236
0.0021249477
4.2552386e-05
2.0088318e-05
2.6212989e-05
5.3292062e-05
9.5176394e-05
0.00015787987
0.00025556575
0.00038371795
0.00052868412
0.00067177646
0.00080690939
0.00093473642
0.0010569701
0.0011819014
0.0013393009
0.0015222069
0.0016954019
0.0018302941
0.0019618289
0.0020783474
0.0021794728
0.0023103704
0.0024998568
0.0028131429
0.0030264464
0.0029001318
0.0023523479
4.06072e-05
2.0915615e-05
2.7326823e-05
5.3885231e-05
0.00010271985
0.00017869109
0.00029678062
0.00044557615
0.00060291924
0.00075839154
0.00090248662
0.001035517
0.0011636249
0.001301075
0.0014698145
0.001676991
0.0018926491
0.0020750958
0.0022219523
0.0023268454
0.002406781
0.0025257761
0.0027341404
0.0030819046
0.0033028568
0.0031419534
0.0025665542
4.0039191e-05
2.1854369e-05
2.9355592e-05
5.7001425e-05
0.00011862399
0.00021901821
0.00036860148
0.00054543432
0.00071516677
0.000865521
0.00099955055
0.0011229136
0.001246549
0.0013869857
0.0015701633
0.0017960695
0.0020418597
0.0022753932
0.0024900281
0.0026512041
0.0027311775
0.0028124959
0.0029478159
0.0032308266
0.0034450844
0.0033644484
0.0028451531
4.2260707e-05
2.4506268e-05
3.3876506e-05
6.7851955e-05
0.00014943336
0.00028391738
0.00046381188
0.00065140102
0.0008168634
0.00095942376
0.0010847122
0.0012048602
0.0013310309
0.0014798704
0.0016865722
0.0019367278
0.0021999244
0.002446171
0.0027093843
0.0029971578
0.0031911781
0.0032737133
0.003270854
0.0033583453
0.0034798209
0.0034850513
0.0031940805