/*--------------------------------*- C++ -*----------------------------------*\
| =========                 |                                                 |
| \\      /  F ield         | OpenFOAM: The Open Source CFD Toolbox           |
|  \\    /   O peration     | Version:  2406                                  |
|   \\  /    A nd           | Website:  www.openfoam.com                      |
|    \\/     M anipulation  |                                                 |
\*---------------------------------------------------------------------------*/
FoamFile
{
    version     2.0;
    format      ascii;
    arch        "LSB;label=32;scalar=64";
    class       volScalarField;
    location    "27";
    object      nut;
}
// * * * * * * * * * * * * * * * * * * * * * * * * * * * * * * * * * * * * * //

dimensions      [0 2 -1 0 0 0 0];

internalField   nonuniform List<scalar> 
62344
(
1.0346113e-06
1.0516463e-06
1.0789726e-06
1.1033966e-06
1.1071457e-06
1.0838011e-06
1.051084e-06
1.0248701e-06
1.0170266e-06
1.0246236e-06
1.0212086e-06
1.0117386e-06
1.0027551e-06
9.8609611e-07
9.8393206e-07
9.8959192e-07
1.0115637e-06
1.0338038e-06
1.0568586e-06
1.0866954e-06
1.1001455e-06
1.0916512e-06
1.0992275e-06
1.1097172e-06
1.1216375e-06
1.1515511e-06
1.1953034e-06
1.2363491e-06
1.3070854e-06
1.4163e-06
1.5660509e-06
1.7156488e-06
1.8355856e-06
1.9047553e-06
2.1392074e-06
2.5127093e-06
2.7137013e-06
3.236271e-06
3.8241775e-06
4.3430438e-06
5.4101179e-06
6.038788e-06
6.6190238e-06
8.2562217e-06
9.983237e-06
1.1784207e-05
1.4696623e-05
1.7463221e-05
1.9147159e-05
2.1190179e-05
2.385856e-05
2.7200083e-05
3.0353152e-05
2.6914627e-05
2.7005069e-05
1.0339897e-06
1.0523233e-06
1.073124e-06
1.106866e-06
1.1110507e-06
1.0810406e-06
1.0470542e-06
1.0237932e-06
1.0201447e-06
1.0266979e-06
1.0222182e-06
1.0126781e-06
1.0003121e-06
9.8503333e-07
9.8179863e-07
9.8231684e-07
1.0042438e-06
1.0247723e-06
1.0482161e-06
1.0752275e-06
1.0921359e-06
1.090201e-06
1.0860152e-06
1.0955595e-06
1.1039849e-06
1.1268276e-06
1.1572226e-06
1.1914397e-06
1.2488967e-06
1.3155964e-06
1.4325808e-06
1.5707207e-06
1.6733626e-06
1.7498903e-06
1.9431999e-06
2.1512381e-06
2.3218329e-06
2.7379306e-06
3.1599103e-06
3.7121996e-06
4.6197321e-06
5.6045353e-06
6.1695167e-06
6.8657775e-06
8.3815835e-06
1.1214958e-05
1.2804975e-05
1.5821264e-05
1.7394918e-05
2.0543476e-05
2.2881387e-05
2.7886526e-05
3.139578e-05
3.825824e-05
4.1658885e-05
1.0333093e-06
1.0516927e-06
1.0761259e-06
1.1051102e-06
1.1121078e-06
1.0832351e-06
1.0494765e-06
1.0231778e-06
1.0170925e-06
1.0236064e-06
1.0259827e-06
1.0155025e-06
1.0032647e-06
9.8976749e-07
9.8579067e-07
9.8369549e-07
1.0028678e-06
1.0249855e-06
1.0476752e-06
1.0772692e-06
1.0940898e-06
1.0853608e-06
1.0801692e-06
1.0895356e-06
1.1016161e-06
1.1267662e-06
1.1527717e-06
1.1886636e-06
1.2384395e-06
1.2949063e-06
1.388811e-06
1.5268163e-06
1.6324102e-06
1.7432408e-06
1.9231903e-06
2.0699633e-06
2.2588981e-06
2.4513372e-06
2.8740714e-06
3.2624965e-06
3.9543539e-06
4.7022115e-06
5.1079643e-06
6.2123583e-06
7.1525808e-06
9.5760561e-06
1.0731798e-05
1.3148566e-05
1.404674e-05
1.6989103e-05
1.9621004e-05
2.5230644e-05
2.945503e-05
3.6116981e-05
4.1322338e-05
1.0330347e-06
1.0522931e-06
1.0783328e-06
1.1025496e-06
1.1144849e-06
1.0903815e-06
1.0536701e-06
1.0276151e-06
1.0183454e-06
1.0274278e-06
1.0288463e-06
1.0207054e-06
1.0050967e-06
9.8735114e-07
9.8732484e-07
9.8649294e-07
1.0056249e-06
1.0253894e-06
1.0491113e-06
1.0817541e-06
1.0954513e-06
1.1041147e-06
1.0941057e-06
1.0928733e-06
1.1046708e-06
1.1292892e-06
1.1517784e-06
1.1773428e-06
1.2175709e-06
1.2870655e-06
1.3645793e-06
1.4956595e-06
1.6156045e-06
1.7684372e-06
1.9295355e-06
2.0819858e-06
2.2282769e-06
2.3901602e-06
2.7043924e-06
3.122201e-06
3.4475806e-06
4.2857183e-06
4.6792492e-06
5.6691405e-06
6.3617331e-06
8.2924796e-06
9.3338964e-06
1.1593848e-05
1.2572006e-05
1.4855644e-05
1.6411913e-05
1.9572931e-05
2.4130777e-05
2.8764065e-05
3.707301e-05
1.0324302e-06
1.05367e-06
1.0761e-06
1.1091328e-06
1.1208468e-06
1.0926615e-06
1.0525967e-06
1.0283082e-06
1.0251335e-06
1.032627e-06
1.0304311e-06
1.0250057e-06
1.0105744e-06
9.9147525e-07
9.919456e-07
9.8640904e-07
1.0107751e-06
1.0270233e-06
1.0531319e-06
1.0820679e-06
1.1023206e-06
1.1129553e-06
1.1029808e-06
1.0953736e-06
1.1050426e-06
1.1283814e-06
1.1464736e-06
1.1667982e-06
1.1996843e-06
1.2807465e-06
1.3684229e-06
1.4793498e-06
1.5745646e-06
1.7598797e-06
1.8562412e-06
2.065948e-06
2.1564786e-06
2.3858107e-06
2.5310829e-06
2.972078e-06
3.2231639e-06
3.9013261e-06
4.2763645e-06
5.1604433e-06
6.2524003e-06
7.0330652e-06
8.6067199e-06
1.0886869e-05
1.2749304e-05
1.3977832e-05
1.6234946e-05
1.8127325e-05
2.239008e-05
2.5902024e-05
3.2226635e-05
1.0317937e-06
1.0529374e-06
1.0784869e-06
1.109181e-06
1.1183901e-06
1.0903898e-06
1.0545024e-06
1.0265732e-06
1.0212818e-06
1.0287728e-06
1.0288902e-06
1.0249525e-06
1.0129908e-06
9.9343939e-07
9.9279872e-07
9.8985698e-07
1.008754e-06
1.0301823e-06
1.0527511e-06
1.0825714e-06
1.109424e-06
1.11581e-06
1.1066559e-06
1.0978284e-06
1.106533e-06
1.1267182e-06
1.1395973e-06
1.1569381e-06
1.1944663e-06
1.2781876e-06
1.3748055e-06
1.4775857e-06
1.5591847e-06
1.7419747e-06
1.8413627e-06
2.0416015e-06
2.1214871e-06
2.3531254e-06
2.4837672e-06
2.8562582e-06
3.0632919e-06
3.6282034e-06
4.041625e-06
4.7005165e-06
5.8188443e-06
6.452206e-06
7.9598787e-06
9.3593556e-06
1.2303158e-05
1.3806369e-05
1.6659855e-05
1.8395098e-05
2.2525412e-05
2.5594218e-05
3.0816397e-05
1.0317743e-06
1.0534703e-06
1.0823546e-06
1.1071441e-06
1.1203446e-06
1.0937408e-06
1.0591027e-06
1.0316831e-06
1.0192851e-06
1.0261975e-06
1.0308181e-06
1.0273656e-06
1.0123769e-06
9.9098488e-07
9.9122129e-07
9.9080119e-07
1.0040006e-06
1.0301145e-06
1.0504829e-06
1.0811615e-06
1.1057265e-06
1.1184214e-06
1.1218306e-06
1.1108223e-06
1.1104709e-06
1.1257413e-06
1.1404482e-06
1.1592426e-06
1.198535e-06
1.271862e-06
1.3594934e-06
1.4562637e-06
1.5300118e-06
1.7096087e-06
1.8318023e-06
2.0117471e-06
2.1009393e-06
2.3582923e-06
2.4748697e-06
2.7834625e-06
2.9718078e-06
3.4103516e-06
4.1534682e-06
4.6091798e-06
5.0685073e-06
6.0283376e-06
7.8657427e-06
8.8926324e-06
1.0767835e-05
1.249131e-05
1.623715e-05
1.9139162e-05
2.2025692e-05
2.5581484e-05
3.0430441e-05
1.0314489e-06
1.0542058e-06
1.0800073e-06
1.1090834e-06
1.1286908e-06
1.1009721e-06
1.0607667e-06
1.0345293e-06
1.0271299e-06
1.0328361e-06
1.0352226e-06
1.0326429e-06
1.0145604e-06
9.9901738e-07
9.976675e-07
9.9215349e-07
1.0047476e-06
1.026866e-06
1.0511575e-06
1.0810791e-06
1.098786e-06
1.1147866e-06
1.1266037e-06
1.1114792e-06
1.1107936e-06
1.1235622e-06
1.1401781e-06
1.1632782e-06
1.1967275e-06
1.253846e-06
1.3414945e-06
1.4273133e-06
1.4933287e-06
1.6513906e-06
1.8081962e-06
1.9418304e-06
2.1128684e-06
2.3431794e-06
2.4617928e-06
2.6747064e-06
2.872419e-06
3.3856268e-06
4.1010788e-06
4.4164963e-06
4.7425207e-06
5.8290859e-06
7.5826074e-06
8.7711025e-06
9.714641e-06
1.1277888e-05
1.5125646e-05
1.8749287e-05
2.0557147e-05
2.3937446e-05
2.8930839e-05
1.0306329e-06
1.0539983e-06
1.0769087e-06
1.1098609e-06
1.1289009e-06
1.1004121e-06
1.0595229e-06
1.031762e-06
1.0298256e-06
1.0341076e-06
1.035927e-06
1.0345999e-06
1.0179041e-06
1.0029324e-06
1.0009293e-06
9.9392792e-07
1.001197e-06
1.0247687e-06
1.0519931e-06
1.08094e-06
1.1011654e-06
1.1183489e-06
1.1266917e-06
1.1114196e-06
1.1087167e-06
1.1226496e-06
1.1376815e-06
1.1577029e-06
1.1916299e-06
1.2372429e-06
1.3204938e-06
1.4104039e-06
1.4678653e-06
1.5983132e-06
1.7728344e-06
1.912042e-06
2.0806079e-06
2.2811729e-06
2.4350211e-06
2.5345988e-06
2.7708923e-06
3.4247347e-06
3.8387591e-06
4.0421315e-06
4.4992107e-06
5.8076576e-06
7.3751486e-06
8.3731378e-06
8.9388365e-06
1.0026694e-05
1.3244263e-05
1.6929485e-05
1.8701099e-05
2.1357133e-05
2.663657e-05
1.0300478e-06
1.0534334e-06
1.0773456e-06
1.106662e-06
1.1220454e-06
1.095241e-06
1.0588258e-06
1.0296656e-06
1.0244175e-06
1.0258651e-06
1.033656e-06
1.0331146e-06
1.0199502e-06
9.9895814e-07
9.965021e-07
9.9342787e-07
9.9583377e-07
1.0219339e-06
1.0504734e-06
1.0777681e-06
1.1078112e-06
1.1232047e-06
1.133574e-06
1.1325642e-06
1.1200423e-06
1.1273193e-06
1.1419007e-06
1.1565503e-06
1.18653e-06
1.2232556e-06
1.2881139e-06
1.3849257e-06
1.4485887e-06
1.5716658e-06
1.7462999e-06
1.8690772e-06
2.004478e-06
2.2259923e-06
2.4040936e-06
2.4780447e-06
2.6714302e-06
3.240053e-06
3.629075e-06
3.788432e-06
4.197167e-06
5.3891591e-06
6.8567656e-06
7.5805353e-06
8.2705519e-06
9.0670779e-06
1.1453138e-05
1.4683733e-05
1.7536496e-05
2.0071336e-05
2.3794616e-05
1.0299928e-06
1.0540064e-06
1.0798731e-06
1.1047803e-06
1.1223596e-06
1.0981351e-06
1.0610132e-06
1.0314562e-06
1.0218817e-06
1.023428e-06
1.033406e-06
1.0330689e-06
1.0189436e-06
9.9809576e-07
9.9346265e-07
9.9424967e-07
1.0008057e-06
1.0211663e-06
1.0499407e-06
1.0760528e-06
1.1038973e-06
1.1194688e-06
1.1348946e-06
1.1382989e-06
1.1257025e-06
1.1267309e-06
1.1393072e-06
1.1575779e-06
1.1834548e-06
1.2119831e-06
1.2611899e-06
1.3463058e-06
1.4413186e-06
1.5460333e-06
1.72222e-06
1.8412612e-06
1.9496229e-06
2.1913304e-06
2.3498934e-06
2.4360001e-06
2.626659e-06
3.1093272e-06
3.352573e-06
3.6738773e-06
3.9133255e-06
4.6104297e-06
6.1221853e-06
6.667255e-06
7.6695501e-06
8.4037325e-06
1.0319272e-05
1.2662538e-05
1.5616407e-05
1.8099919e-05
2.1333266e-05
1.0299764e-06
1.0549992e-06
1.0803045e-06
1.1056529e-06
1.1308598e-06
1.1096949e-06
1.0651761e-06
1.0353101e-06
1.0261819e-06
1.0313686e-06
1.0391066e-06
1.0401015e-06
1.0216538e-06
1.0081973e-06
9.9819476e-07
9.9955168e-07
1.0076583e-06
1.0224643e-06
1.0495306e-06
1.0792128e-06
1.0969983e-06
1.1140094e-06
1.1334965e-06
1.1370836e-06
1.1209835e-06
1.1184809e-06
1.126764e-06
1.1451983e-06
1.1665308e-06
1.1939527e-06
1.2555867e-06
1.3361485e-06
1.4621836e-06
1.5319388e-06
1.701681e-06
1.8292558e-06
1.9278093e-06
2.1498381e-06
2.2509507e-06
2.4427702e-06
2.6190434e-06
3.0013824e-06
3.1971037e-06
3.5491801e-06
3.8955413e-06
4.2742542e-06
5.4226758e-06
5.8838493e-06
6.9935796e-06
7.7584778e-06
9.7238713e-06
1.0990217e-05
1.3487928e-05
1.5280061e-05
1.8832496e-05
1.0295383e-06
1.0549634e-06
1.0784232e-06
1.1071455e-06
1.1348723e-06
1.1143207e-06
1.0667898e-06
1.0360104e-06
1.0301279e-06
1.0379188e-06
1.042026e-06
1.0438087e-06
1.0249347e-06
1.0147606e-06
1.0016026e-06
1.0023058e-06
1.0075525e-06
1.0211038e-06
1.04852e-06
1.0790219e-06
1.092773e-06
1.1125438e-06
1.1338902e-06
1.1408755e-06
1.1247703e-06
1.1168685e-06
1.1217276e-06
1.1347021e-06
1.1516983e-06
1.1812147e-06
1.2488027e-06
1.343244e-06
1.4661267e-06
1.5332766e-06
1.6827351e-06
1.7842483e-06
1.9143728e-06
2.1045748e-06
2.1988024e-06
2.3548422e-06
2.6858107e-06
2.9529667e-06
3.1017149e-06
3.398224e-06
4.031095e-06
4.2790719e-06
5.0336259e-06
5.502408e-06
6.7008549e-06
7.4129663e-06
9.0060711e-06
1.0004065e-05
1.1989462e-05
1.3256876e-05
1.6110251e-05
1.0288439e-06
1.0538147e-06
1.0763785e-06
1.1069905e-06
1.1292233e-06
1.1082466e-06
1.0653554e-06
1.0331553e-06
1.0276245e-06
1.0353641e-06
1.0387572e-06
1.0392457e-06
1.0269604e-06
1.0131759e-06
9.985354e-07
9.9980965e-07
9.973764e-07
1.0123806e-06
1.041331e-06
1.0712297e-06
1.0897435e-06
1.1106908e-06
1.1330148e-06
1.1397464e-06
1.1366405e-06
1.1241619e-06
1.123836e-06
1.1325092e-06
1.1466004e-06
1.1759514e-06
1.2372996e-06
1.3316546e-06
1.4568184e-06
1.5270627e-06
1.6533604e-06
1.7540908e-06
1.8567508e-06
2.0509551e-06
2.1611473e-06
2.2843781e-06
2.6295481e-06
2.9412932e-06
3.0690019e-06
3.3011471e-06
4.0187675e-06
4.2869546e-06
4.956401e-06
5.38432e-06
6.5212407e-06
7.187638e-06
8.5705663e-06
9.2522316e-06
1.0774989e-05
1.1834228e-05
1.3786052e-05
1.0283026e-06
1.0524127e-06
1.0754869e-06
1.1056523e-06
1.1210236e-06
1.1007358e-06
1.0630693e-06
1.0303286e-06
1.0204107e-06
1.0251371e-06
1.0304508e-06
1.0300879e-06
1.0232367e-06
1.0060282e-06
9.9302772e-07
9.9000987e-07
9.8846191e-07
1.0033319e-06
1.0329708e-06
1.0576819e-06
1.083352e-06
1.1034087e-06
1.1239665e-06
1.1334297e-06
1.1349651e-06
1.1250129e-06
1.1227586e-06
1.1317182e-06
1.1454315e-06
1.1754493e-06
1.2235196e-06
1.2969955e-06
1.4220749e-06
1.4984401e-06
1.5996155e-06
1.7254613e-06
1.8037813e-06
1.9559157e-06
2.1082592e-06
2.1974205e-06
2.4575627e-06
2.8330874e-06
2.9849972e-06
3.138384e-06
3.7722368e-06
4.0880591e-06
4.8136136e-06
5.1412819e-06
6.1839336e-06
6.6914492e-06
7.9783112e-06
8.4553783e-06
9.793039e-06
1.0692429e-05
1.2064832e-05
1.0281079e-06
1.0516232e-06
1.0759304e-06
1.1044256e-06
1.1194227e-06
1.100166e-06
1.0636548e-06
1.030147e-06
1.0174754e-06
1.0194763e-06
1.0261661e-06
1.0275945e-06
1.0179793e-06
1.003645e-06
9.9079366e-07
9.8459097e-07
9.8626507e-07
9.9892107e-07
1.0282483e-06
1.0513089e-06
1.0775624e-06
1.0988638e-06
1.1142692e-06
1.1209116e-06
1.1116832e-06
1.1086128e-06
1.1134694e-06
1.1220085e-06
1.1352805e-06
1.1627258e-06
1.2078328e-06
1.2617558e-06
1.3585035e-06
1.4488452e-06
1.5273525e-06
1.6598494e-06
1.7632398e-06
1.8533829e-06
2.029168e-06
2.1226742e-06
2.2948184e-06
2.5938836e-06
2.8633521e-06
2.9429416e-06
3.326216e-06
3.6115285e-06
4.3994622e-06
4.7040382e-06
5.5611254e-06
5.9115777e-06
6.9393622e-06
7.6794693e-06
8.8916032e-06
9.8224427e-06
1.084382e-05
1.0281299e-06
1.0512266e-06
1.0764331e-06
1.1038088e-06
1.1241953e-06
1.107018e-06
1.0685538e-06
1.0329347e-06
1.0213289e-06
1.0207167e-06
1.0297776e-06
1.0338237e-06
1.0165589e-06
1.010014e-06
9.9542715e-07
9.8739638e-07
9.9191615e-07
1.0032907e-06
1.0257081e-06
1.0500167e-06
1.0742895e-06
1.094528e-06
1.10858e-06
1.1131719e-06
1.0994652e-06
1.0952948e-06
1.1002176e-06
1.1045736e-06
1.1147532e-06
1.1330983e-06
1.1773275e-06
1.2336118e-06
1.2932169e-06
1.3875342e-06
1.4426096e-06
1.529812e-06
1.2636875e-06
1.7478273e-06
1.8847799e-06
1.9968084e-06
2.2001156e-06
2.3332412e-06
2.6126214e-06
2.7098812e-06
3.0535859e-06
3.2508003e-06
3.8495392e-06
4.1229394e-06
4.8545467e-06
5.2101687e-06
5.7334502e-06
6.6843101e-06
8.1410201e-06
8.9798014e-06
9.8253517e-06
1.0281146e-06
1.0507692e-06
1.075734e-06
1.1031697e-06
1.1319582e-06
1.1154045e-06
1.0752377e-06
1.0370693e-06
1.029052e-06
1.0277515e-06
1.0395564e-06
1.0445723e-06
1.0225217e-06
1.021371e-06
1.0047787e-06
9.985286e-07
9.9728091e-07
1.0056926e-06
1.0230054e-06
1.0497407e-06
1.0686194e-06
1.0874327e-06
1.1038763e-06
1.1080437e-06
1.0979496e-06
1.0837391e-06
1.0822124e-06
1.0827056e-06
1.0888292e-06
1.1003029e-06
1.1335157e-06
1.1851082e-06
1.2225834e-06
1.1931197e-06
1.3435512e-06
1.3780559e-06
8.0776664e-07
1.3162079e-06
1.6978941e-06
1.4810873e-06
1.985663e-06
2.1116364e-06
2.3834123e-06
2.4999788e-06
2.8589602e-06
3.0380487e-06
3.5316235e-06
3.7562565e-06
4.412516e-06
4.7268366e-06
5.3192827e-06
5.7890419e-06
6.8681979e-06
7.8293624e-06
8.6273549e-06
1.0277818e-06
1.0495789e-06
1.0731878e-06
1.1013051e-06
1.1331805e-06
1.1162851e-06
1.0758656e-06
1.0359397e-06
1.0292603e-06
1.0282017e-06
1.039546e-06
1.0416727e-06
1.0201593e-06
1.015654e-06
9.9940812e-07
9.9335224e-07
9.8430737e-07
9.9259369e-07
1.0092535e-06
1.031461e-06
1.0481061e-06
1.0656818e-06
1.082208e-06
1.0852405e-06
1.0859007e-06
1.0744909e-06
1.0667036e-06
1.0655158e-06
1.0688848e-06
1.074086e-06
9.9733682e-07
8.7496943e-07
1.1587354e-06
1.1032381e-06
9.6517649e-07
9.4584237e-07
5.547842e-07
7.6061899e-07
1.5477543e-06
1.0406664e-06
1.4754263e-06
1.8887307e-06
2.1495317e-06
2.2755752e-06
2.6424734e-06
2.8316549e-06
3.3009505e-06
3.5099493e-06
4.1073889e-06
4.3845076e-06
5.0110798e-06
5.3456072e-06
6.0328633e-06
6.7968904e-06
7.4777447e-06
1.0271651e-06
1.0476669e-06
1.0694079e-06
1.0975748e-06
1.1256828e-06
1.1079517e-06
1.0678525e-06
1.0268583e-06
1.0156891e-06
1.0136043e-06
1.0214034e-06
1.0200662e-06
1.0018581e-06
9.9536398e-07
9.7486037e-07
9.65826e-07
9.57069e-07
9.6749031e-07
9.8381067e-07
1.0005509e-06
1.0160436e-06
1.0405678e-06
1.0642095e-06
1.0733072e-06
1.0786124e-06
1.0857896e-06
1.092467e-06
1.0944763e-06
1.1026647e-06
9.8375341e-07
8.3992837e-07
8.3060417e-07
1.0330372e-06
1.2467502e-06
8.7597602e-07
6.7127519e-07
4.7018181e-07
5.1773154e-07
1.114646e-06
8.5549084e-07
1.2107649e-06
1.8186628e-06
1.7851625e-06
2.1973481e-06
2.605927e-06
2.7618963e-06
3.2033649e-06
3.3745656e-06
3.8863584e-06
4.1721763e-06
4.7169654e-06
5.0349918e-06
5.5432106e-06
6.1704239e-06
6.7632457e-06
1.0261455e-06
1.0451294e-06
1.0633648e-06
1.0889631e-06
1.1058783e-06
1.0863117e-06
1.0459627e-06
1.0034862e-06
9.864187e-07
9.8127411e-07
9.86706e-07
9.8641518e-07
9.728691e-07
9.6957138e-07
9.5695525e-07
9.5273353e-07
9.5379642e-07
9.7491461e-07
9.9335523e-07
1.007877e-06
1.0285025e-06
1.0761623e-06
1.1246041e-06
1.1573078e-06
1.1879875e-06
1.2228213e-06
1.0946992e-06
1.2831185e-06
1.329905e-06
1.3584297e-06
9.6807925e-07
9.9021839e-07
1.0013478e-06
1.5880446e-06
1.5891744e-06
7.8402788e-07
5.9967027e-07
6.0152027e-07
8.6958412e-07
9.8554827e-07
1.2976585e-06
2.1546827e-06
1.5742574e-06
1.9724041e-06
3.0142132e-06
3.1801172e-06
3.5507019e-06
3.7112084e-06
4.0436674e-06
4.3188469e-06
4.6773974e-06
4.9494175e-06
5.2737878e-06
5.7619938e-06
6.2057573e-06
1.023999e-06
1.0384757e-06
1.0482183e-06
1.0641125e-06
1.0729669e-06
1.0549625e-06
1.0161149e-06
9.7869556e-07
9.6719843e-07
9.6648724e-07
9.8067405e-07
9.8979352e-07
9.9229888e-07
1.0108461e-06
1.0326176e-06
1.0576812e-06
1.080057e-06
1.1211659e-06
1.15893e-06
1.1821466e-06
1.2305627e-06
1.2500789e-06
1.3916303e-06
1.4588034e-06
1.5156223e-06
1.5859942e-06
1.3508221e-06
1.542732e-06
1.8530308e-06
1.9146861e-06
1.6331145e-06
1.4994489e-06
1.4887089e-06
2.3226503e-06
2.4608884e-06
1.4988565e-06
1.122751e-06
1.1221379e-06
1.3038926e-06
1.7322042e-06
2.6520662e-06
3.1131367e-06
2.0152734e-06
2.3762278e-06
3.9155479e-06
4.1039983e-06
4.3936983e-06
4.5944749e-06
4.1588424e-06
5.0221311e-06
5.1748691e-06
5.4236221e-06
5.5708628e-06
5.8599443e-06
5.5774353e-06
1.0149972e-06
1.0185258e-06
1.0117182e-06
1.0231955e-06
1.0423589e-06
1.0444961e-06
1.0291177e-06
1.0228819e-06
1.0385959e-06
1.0725554e-06
1.1093681e-06
1.1524098e-06
1.1891262e-06
1.2764225e-06
1.325003e-06
1.4054458e-06
1.4610154e-06
1.5077528e-06
1.5645906e-06
1.6364535e-06
1.7091835e-06
1.5447721e-06
1.7553804e-06
2.0144641e-06
2.1255644e-06
2.2112198e-06
2.0151993e-06
2.1867437e-06
2.6960873e-06
2.8204781e-06
2.9837271e-06
2.7995846e-06
2.8102099e-06
3.4904418e-06
3.678161e-06
3.4613305e-06
2.4262716e-06
2.4150196e-06
2.471117e-06
3.0777717e-06
4.4639362e-06
4.5225948e-06
3.1064168e-06
3.111757e-06
4.5358435e-06
5.3886047e-06
5.6150048e-06
5.8437619e-06
4.508795e-06
4.7611292e-06
6.3023783e-06
6.5418592e-06
6.6434266e-06
6.8824586e-06
5.3390468e-06
9.9496695e-07
9.8592843e-07
9.7368156e-07
1.0042582e-06
1.0708592e-06
1.1421329e-06
1.2175009e-06
1.2734881e-06
1.3474216e-06
1.3943174e-06
1.4930552e-06
1.5872263e-06
1.6568722e-06
1.7882337e-06
1.8615537e-06
1.9769677e-06
2.0407337e-06
1.8702665e-06
1.9835074e-06
2.2856809e-06
2.3625862e-06
2.1228107e-06
2.2544393e-06
2.6923412e-06
2.8727894e-06
2.9835852e-06
2.9007805e-06
3.0931137e-06
3.6573949e-06
3.8606696e-06
4.0381558e-06
4.1365466e-06
4.4052924e-06
4.6888126e-06
4.9572199e-06
5.100895e-06
4.0729968e-06
4.0589858e-06
3.9518646e-06
4.2422153e-06
6.0375314e-06
6.1326444e-06
4.2630933e-06
4.0586102e-06
5.0422349e-06
6.4652585e-06
6.5660254e-06
6.679178e-06
5.5869009e-06
5.2501949e-06
6.206137e-06
7.0136423e-06
7.0860523e-06
7.1496306e-06
5.5501603e-06
9.5377733e-07
9.665002e-07
9.9381708e-07
1.0601578e-06
1.1991133e-06
1.3580217e-06
1.5507513e-06
1.6441002e-06
1.6766607e-06
1.7753316e-06
1.7840394e-06
1.8356624e-06
1.8721816e-06
1.9319256e-06
2.0069662e-06
2.0714091e-06
2.2121085e-06
2.0927361e-06
2.1698052e-06
2.3818299e-06
2.4298332e-06
2.3541249e-06
2.3988742e-06
2.6068704e-06
2.7659783e-06
2.7616503e-06
2.683087e-06
2.7879913e-06
3.1356695e-06
3.3233206e-06
3.4661134e-06
3.5114476e-06
3.517208e-06
3.7902264e-06
3.9477731e-06
4.093245e-06
3.8411894e-06
3.7045157e-06
3.5711578e-06
3.878213e-06
4.6470635e-06
4.7804595e-06
4.6199384e-06
4.3134975e-06
4.6019454e-06
4.9252889e-06
4.9639601e-06
5.0188638e-06
5.0730749e-06
4.7444074e-06
4.803081e-06
5.0753612e-06
5.0608552e-06
5.0461481e-06
5.00237e-06
6.973588e-07
8.7819458e-07
1.0314151e-06
1.0781984e-06
1.1844591e-06
1.2649484e-06
1.3339352e-06
1.4057984e-06
1.3644365e-06
1.3524712e-06
1.3317218e-06
1.3334589e-06
1.362504e-06
1.338922e-06
1.3352332e-06
1.309203e-06
1.3061467e-06
1.287461e-06
1.3012484e-06
1.3303428e-06
1.381846e-06
1.4161263e-06
1.4011352e-06
1.4039456e-06
1.4211734e-06
1.4160516e-06
1.4161052e-06
1.4380129e-06
1.4721328e-06
1.533236e-06
1.5864231e-06
1.627543e-06
1.6510404e-06
1.6762257e-06
1.730048e-06
1.7799594e-06
1.7730267e-06
1.772743e-06
1.8064437e-06
1.7530947e-06
1.8929573e-06
1.98568e-06
1.9779253e-06
1.9617477e-06
1.973457e-06
1.983662e-06
1.9990494e-06
2.0452994e-06
2.1121756e-06
2.1611118e-06
2.1778241e-06
2.1756317e-06
2.1402374e-06
2.1169954e-06
2.1525489e-06
7.7272502e-07
1.1180106e-06
8.8154632e-07
7.0565116e-07
6.2714115e-07
5.5058076e-07
4.8080763e-07
4.333939e-07
3.9817806e-07
3.8497207e-07
3.8759605e-07
3.9685852e-07
4.1145617e-07
4.2273284e-07
4.3851003e-07
4.4659679e-07
4.4957205e-07
4.3806605e-07
4.2698013e-07
4.2338218e-07
4.1965938e-07
4.0887173e-07
4.0556e-07
4.043234e-07
4.044213e-07
4.0914406e-07
4.1085277e-07
4.0544888e-07
4.0289501e-07
4.0537625e-07
4.018696e-07
3.8378384e-07
3.5900005e-07
3.4393253e-07
3.4864177e-07
3.5692545e-07
3.4593244e-07
3.3691393e-07
3.5698486e-07
3.8587152e-07
4.1169908e-07
4.4461787e-07
4.5554935e-07
4.4949677e-07
4.4053122e-07
4.3875938e-07
4.3167175e-07
4.2379137e-07
4.1911297e-07
4.1188452e-07
4.0526959e-07
4.0735975e-07
4.1354813e-07
4.1949852e-07
4.262593e-07
3.9925748e-07
2.065635e-06
4.602598e-06
4.8642936e-06
4.5390158e-06
4.0942696e-06
4.1757975e-06
4.5531912e-06
5.7539132e-06
8.1886587e-06
1.0982296e-05
1.2326378e-05
1.3902589e-05
1.5947994e-05
1.9004477e-05
2.2530995e-05
2.5916663e-05
2.9184018e-05
3.279623e-05
3.4561352e-05
3.4914819e-05
3.5185414e-05
3.6854793e-05
4.1749888e-05
4.4992074e-05
4.7535181e-05
3.9098968e-05
3.515276e-07
1.8625381e-06
4.7227613e-06
4.6138564e-06
3.9969097e-06
3.3471369e-06
3.4824165e-06
4.2627987e-06
6.3457382e-06
9.8523084e-06
1.210668e-05
1.1928448e-05
1.2526252e-05
1.4290492e-05
1.8932972e-05
2.6387642e-05
3.0959812e-05
3.517552e-05
4.0565799e-05
4.259433e-05
4.1999445e-05
4.1128294e-05
4.2868004e-05
4.8414021e-05
5.1709157e-05
5.0196482e-05
3.9112155e-05
3.251015e-07
1.6637365e-06
4.2634346e-06
4.3912121e-06
3.8631024e-06
3.6840828e-06
4.6543214e-06
7.4157314e-06
1.0253153e-05
1.2205364e-05
1.3640587e-05
1.1724916e-05
1.2074964e-05
1.453592e-05
1.8532729e-05
2.5147426e-05
3.3108326e-05
4.0516615e-05
4.9781979e-05
5.3047486e-05
5.2128063e-05
4.9123482e-05
4.9504835e-05
5.4710248e-05
5.6821218e-05
4.9428987e-05
3.6214435e-05
3.1481458e-07
1.5698301e-06
3.903561e-06
4.5284366e-06
4.658043e-06
5.6643388e-06
8.7520889e-06
9.8299177e-06
1.1163482e-05
1.3314776e-05
1.3145895e-05
1.4388685e-05
1.8463715e-05
2.341012e-05
2.836422e-05
3.4964341e-05
3.4460352e-05
3.3635587e-05
4.0911968e-05
6.4744755e-05
6.3425996e-05
5.894678e-05
5.6418747e-05
6.1059031e-05
6.3386799e-05
6.4802975e-05
5.7169873e-05
3.0794436e-07
1.5510007e-06
4.5052952e-06
6.3250404e-06
7.7389639e-06
8.3619913e-06
9.3467994e-06
8.8743038e-06
8.2099975e-06
8.7059334e-06
9.9154572e-06
1.1704606e-05
1.5560568e-05
2.4893753e-05
3.2119286e-05
3.9888272e-05
4.7191808e-05
5.4791872e-05
5.7608386e-05
5.0962539e-05
5.3171531e-05
7.1120153e-05
6.4311973e-05
6.7633242e-05
4.6583972e-05
5.9073894e-05
6.2283492e-05
2.9736517e-07
1.4475803e-06
4.5592726e-06
6.9298604e-06
8.151156e-06
8.8581246e-06
1.0175825e-05
8.5739526e-06
8.4779556e-06
9.0889166e-06
9.9798286e-06
1.1061035e-05
1.21132e-05
1.4007792e-05
1.6626875e-05
2.1859509e-05
3.5611392e-05
6.5290414e-05
7.6914085e-05
6.5657426e-05
5.4650365e-05
6.600438e-05
7.5613241e-05
7.6446433e-05
7.0463281e-05
5.8769268e-05
4.7198435e-05
2.92982e-07
1.2927026e-06
4.2946045e-06
6.7940718e-06
8.2541814e-06
9.3286052e-06
1.0913521e-05
1.312774e-05
1.4857831e-05
1.4269754e-05
1.4706145e-05
1.4949199e-05
1.4086692e-05
1.3778182e-05
1.5503902e-05
2.0550659e-05
2.850453e-05
3.7670453e-05
4.8398696e-05
6.6569304e-05
9.4566509e-05
9.3550407e-05
7.7283845e-05
6.4417241e-05
8.8424466e-05
9.2542621e-05
4.3865568e-05
2.8395304e-07
1.1367883e-06
3.9755165e-06
5.9706938e-06
6.7442386e-06
7.6920268e-06
1.0785945e-05
1.3653201e-05
1.7451438e-05
2.18861e-05
2.5377985e-05
2.5343487e-05
2.1286754e-05
2.2363382e-05
2.7650724e-05
3.2430877e-05
3.1647024e-05
3.2264834e-05
3.6834719e-05
4.6594102e-05
7.7235273e-05
0.00010317163
0.00010099114
7.2742331e-05
6.0210988e-05
8.2588112e-05
7.1761398e-05
2.6379427e-07
9.9454213e-07
3.3556781e-06
4.8872879e-06
5.241796e-06
5.8642812e-06
7.0459469e-06
8.9950774e-06
1.2120708e-05
1.4961388e-05
1.6959211e-05
1.972433e-05
2.5835154e-05
3.7540346e-05
4.524636e-05
5.6621529e-05
4.6010538e-05
4.5116882e-05
4.6051574e-05
4.624005e-05
4.7498617e-05
6.1105932e-05
0.00011223846
0.0001077452
6.5068592e-05
4.6688869e-05
6.8008886e-05
2.3401956e-07
8.8296135e-07
3.2739323e-06
5.2521028e-06
5.5549268e-06
5.9953685e-06
6.7523346e-06
7.8348732e-06
1.0098559e-05
1.2843139e-05
1.5353436e-05
1.8408434e-05
2.1903347e-05
2.2748237e-05
2.5061844e-05
3.2054452e-05
4.6267927e-05
8.3874078e-05
0.00010003121
7.9631833e-05
5.24335e-05
4.9302816e-05
7.0941553e-05
0.00011640312
0.00011092098
5.2950345e-05
5.1493073e-05
2.195591e-07
7.6680941e-07
2.9734828e-06
5.280647e-06
5.4998789e-06
5.6955733e-06
6.3794321e-06
8.3261098e-06
1.2728452e-05
2.0274573e-05
3.1447326e-05
2.8869788e-05
2.1220035e-05
1.8374884e-05
2.1000272e-05
2.9566542e-05
4.4864409e-05
7.206263e-05
0.0001003953
0.00011992792
0.00011674827
7.4001633e-05
6.7201746e-05
6.7975509e-05
8.047489e-05
0.00010790475
6.8384563e-05
2.1105971e-07
6.9811922e-07
2.6972393e-06
4.5673806e-06
4.9561073e-06
5.7167145e-06
7.4839683e-06
1.2887014e-05
2.7195338e-05
3.5015135e-05
4.0711291e-05
2.9439159e-05
2.3504147e-05
2.3281338e-05
3.0080325e-05
4.3669986e-05
5.7816772e-05
6.400943e-05
6.7469082e-05
7.8543206e-05
0.00012755682
0.00015088008
0.00011615283
7.398541e-05
5.5248857e-05
7.2801803e-05
0.00010299021
2.0330524e-07
6.6217912e-07
2.457053e-06
4.7460902e-06
5.8345618e-06
8.5860952e-06
1.4958277e-05
2.2223173e-05
3.1354195e-05
3.2956648e-05
2.7619295e-05
2.5869923e-05
2.7757147e-05
4.001332e-05
6.5609401e-05
7.425214e-05
7.6444626e-05
6.6498316e-05
7.7316683e-05
9.103422e-05
9.5629224e-05
0.00011347857
0.00016281874
0.00015869608
7.1841126e-05
4.332784e-05
5.1126991e-05
2.0593621e-07
6.1558728e-07
2.4374375e-06
5.8422204e-06
8.6925542e-06
1.205839e-05
1.7409749e-05
2.5265481e-05
2.449635e-05
2.4705806e-05
2.5436323e-05
2.8509123e-05
3.8129145e-05
6.3401534e-05
7.2987254e-05
6.7285354e-05
7.0387376e-05
8.8269388e-05
0.00011599913
0.00013365289
0.00011300192
9.3769846e-05
0.00011189718
0.00016631823
0.00015732579
5.7459681e-05
3.9286834e-05
2.26268e-07
5.5984374e-07
2.2322274e-06
5.8080883e-06
8.9753492e-06
1.2839034e-05
1.7232576e-05
1.8715848e-05
2.1442153e-05
2.5162085e-05
2.8578696e-05
3.3663313e-05
3.9987364e-05
4.4056434e-05
4.4682859e-05
5.0332739e-05
7.1396926e-05
0.00010980218
0.00012341562
0.00013917452
0.00012972017
0.00011482142
0.00014777222
0.00016553587
0.00016540182
0.00015361961
5.9378657e-05
2.3845779e-07
5.1409097e-07
2.0320209e-06
5.7100885e-06
9.3196415e-06
1.3713729e-05
2.0883897e-05
3.0314066e-05
3.5115539e-05
3.6206066e-05
3.4525916e-05
3.3233591e-05
3.2506125e-05
3.4335604e-05
4.2115892e-05
6.4252395e-05
0.00010608359
0.00011925795
0.00013019881
0.00014367775
0.00014734144
0.00016132867
0.00016967131
0.00017673938
0.00014001415
0.00011369898
0.00014506601
2.3886779e-07
4.4936848e-07
1.4575458e-06
4.1685592e-06
5.9989276e-06
9.9116252e-06
2.0806307e-05
3.0329738e-05
4.0072396e-05
4.9624345e-05
4.6564431e-05
3.6005932e-05
3.3829096e-05
3.797684e-05
5.2291687e-05
8.9483919e-05
0.00012013296
0.00012450457
0.00012686296
0.00013396153
0.00016079261
0.00016516589
0.00017380519
0.00018540518
0.00018535973
0.0001301131
0.00010195443
2.2981097e-07
3.8762197e-07
1.2148836e-06
3.4498204e-06
4.8158543e-06
7.4960002e-06
1.2335445e-05
1.987183e-05
2.7951671e-05
3.3334171e-05
3.9117917e-05
4.8515249e-05
5.8127574e-05
7.0201833e-05
8.5690762e-05
8.7988509e-05
9.0410754e-05
0.00010272923
0.00012180088
0.00014961411
0.00016776932
0.00017115713
0.00017850926
0.00019194397
0.00019364554
0.00017897523
8.904805e-05
2.3218587e-07
3.6374047e-07
1.1566197e-06
3.3592272e-06
4.8148486e-06
6.7906713e-06
1.0012003e-05
1.4228863e-05
1.9190523e-05
2.4736429e-05
3.2706085e-05
4.7357854e-05
9.3647061e-05
0.00010515225
0.00011459328
9.1233379e-05
8.2383662e-05
9.0056877e-05
0.0001175669
0.00016784835
0.00017478237
0.00017943902
0.00018689307
0.00019938522
0.0002012274
0.00018806349
0.00011417372
2.2483718e-07
3.7213634e-07
1.1626148e-06
3.3450103e-06
4.9181812e-06
7.1001185e-06
1.0237982e-05
1.4506896e-05
2.018728e-05
2.7242315e-05
3.5147744e-05
4.264327e-05
5.0223529e-05
6.1045993e-05
7.3509207e-05
9.0360492e-05
9.9258262e-05
9.9943997e-05
0.00010909632
0.00013061608
0.00015563832
0.00016676584
0.00019736718
0.00020730682
0.00020968231
0.00019797604
0.00014106344
2.0795341e-07
3.7497452e-07
1.1949758e-06
2.7861673e-06
4.467131e-06
7.5254604e-06
1.2180371e-05
1.9307426e-05
3.0275969e-05
3.8659275e-05
4.3318146e-05
4.3398352e-05
4.05769e-05
4.2274791e-05
4.9773061e-05
6.8258032e-05
0.00011530712
0.00016213556
0.00012809315
9.9309444e-05
9.9225038e-05
0.00013782728
0.00020676688
0.00021531695
0.00021844155
0.00020718313
0.00018138854
1.9758446e-07
3.8459573e-07
1.0038673e-06
2.560833e-06
4.7289595e-06
9.7076558e-06
2.05829e-05
4.2527231e-05
5.5045758e-05
6.6560651e-05
5.7730372e-05
4.9524588e-05
4.4175546e-05
4.3133301e-05
4.6858e-05
5.6110215e-05
8.2332958e-05
0.00016723879
0.00017985629
0.00011356101
9.2475767e-05
0.00012147383
0.00021417184
0.00022055201
0.00022298863
0.00021509643
0.00019080071
2.1073378e-07
4.4278995e-07
1.0512657e-06
3.0727721e-06
6.5891559e-06
1.5568137e-05
3.3880212e-05
4.6336617e-05
5.7691016e-05
6.8209124e-05
7.9219751e-05
7.3429474e-05
6.364826e-05
5.957778e-05
5.9985208e-05
6.2491428e-05