/*--------------------------------*- C++ -*----------------------------------*\
| =========                 |                                                 |
| \\      /  F ield         | OpenFOAM: The Open Source CFD Toolbox           |
|  \\    /   O peration     | Version:  2406                                  |
|   \\  /    A nd           | Website:  www.openfoam.com                      |
|    \\/     M anipulation  |                                                 |
\*---------------------------------------------------------------------------*/
FoamFile
{
    version     2.0;
    format      ascii;
    arch        "LSB;label=32;scalar=64";
    class       volScalarField;
    location    "27";
    object      omega_0;
}
// * * * * * * * * * * * * * * * * * * * * * * * * * * * * * * * * * * * * * //

dimensions      [0 0 -1 0 0 0 0];

internalField   nonuniform List<scalar> 
62344
(
4.3573791
3.388758
2.7566589
2.3080295
1.9837374
1.7473785
1.5687734
1.4314122
1.3206065
1.2353196
1.1618371
1.102105
1.0490658
1.0017019
0.96687656
0.92539919
0.89043102
0.87800349
0.86178925
0.83764079
0.8212998
0.79497656
0.77857809
0.77327384
0.76970653
0.77018234
0.7732529
0.77421282
0.78220031
0.80306609
0.82973906
0.86658498
0.89524482
0.93086827
0.96660285
1.0268961
1.1438614
1.2991193
1.4106393
1.5278824
1.6865577
1.8516212
2.0503128
2.2607863
2.4627949
2.6795581
2.8602753
3.0419095
3.2087381
3.3839989
3.4878302
3.5504532
3.6059837
3.745808
4.0328446
4.3631915
3.3999624
2.7578051
2.3221663
1.9960707
1.7489103
1.5687056
1.4352697
1.3293429
1.2428626
1.1674405
1.1067333
1.0517198
1.0034347
0.97010393
0.9276414
0.89412037
0.87858739
0.85810472
0.83703003
0.82200344
0.79752031
0.77837844
0.76936193
0.76256178
0.76028115
0.76062923
0.76088228
0.76548388
0.77657093
0.79461816
0.81637251
0.84137379
0.87022016
0.90459753
0.94766925
1.0305523
1.1399972
1.2569832
1.3725332
1.5262656
1.6933215
1.9009803
2.1304083
2.3405675
2.5699143
2.7879941
3.0056739
3.1981834
3.4586289
3.681353
3.9655149
4.1656897
4.3724496
4.5214021
4.3676333
3.4065414
2.7708675
2.3247674
2.0005778
1.7532461
1.5730384
1.4366464
1.3300284
1.243087
1.1710016
1.111609
1.0546153
1.0079609
0.97574846
0.9303117
0.89829252
0.8793974
0.86345964
0.83993133
0.8191715
0.79638856
0.7785284
0.76763256
0.76118659
0.75965177
0.7604714
0.76193265
0.76620232
0.77450742
0.78846272
0.80632443
0.83105304
0.86271557
0.90028886
0.9369009
1.0010657
1.0567042
1.1684778
1.2464388
1.3717845
1.5268642
1.7122925
1.9249464
2.1215811
2.3392455
2.5316329
2.771105
2.9950588
3.2805579
3.5357509
3.8883863
4.1563672
4.3562848
4.5568502
4.3706084
3.4169318
2.7838739
2.3281963
2.0078103
1.7653707
1.5812911
1.445045
1.3349222
1.2504873
1.1747685
1.1159576
1.0594104
1.0061249
0.97927336
0.9376782
0.90066459
0.88382108
0.86658418
0.84008637
0.82843637
0.80783837
0.78828702
0.77395944
0.76349077
0.75970996
0.7596123
0.76002314
0.7626048
0.77269274
0.78711455
0.80373316
0.83050095
0.86605464
0.9089623
0.94361588
0.98874919
1.0346238
1.1264012
1.1922334
1.2976217
1.4373425
1.6015905
1.7781257
1.9558358
2.1598186
2.3200925
2.5224752
2.6918371
2.9816842
3.2361836
3.5595011
3.8720936
4.0897073
4.4134313
4.3764861
3.4231026
2.7838289
2.343071
2.0184786
1.7701592
1.5822279
1.4483633
1.3448177
1.2585459
1.1781197
1.1204633
1.0656245
1.0119537
0.98177796
0.94232813
0.9069009
0.88715012
0.866375
0.84858781
0.83293398
0.81474555
0.79307056
0.77669066
0.7662165
0.76039792
0.75757212
0.75775328
0.76033174
0.77183274
0.79012871
0.80838677
0.8314734
0.85994299
0.89896582
0.92968795
0.96816766
1.0233771
1.083813
1.1466909
1.2402724
1.3577176
1.5068458
1.6577722
1.8210906
2.0004827
2.2299769
2.4393028
2.6735705
2.8631932
3.1206395
3.278271
3.5392798
3.7214005
4.0546631
4.381823
3.4258381
2.7938872
2.3497169
2.0196196
1.7706804
1.5872128
1.4493757
1.3450639
1.2587243
1.1787602
1.1224789
1.0683963
1.0149065
0.98524223
0.94675543
0.91199803
0.88938133
0.87089271
0.85488749
0.83296031
0.81543649
0.80003631
0.78147781
0.76732531
0.76021535
0.75679108
0.75680954
0.76226355
0.77690876
0.79375699
0.8121978
0.83343246
0.85851011
0.89437118
0.92370703
0.96272204
1.0131841
1.0639723
1.1180947
1.2069313
1.3115397
1.4465493
1.5568313
1.7161229
1.8713858
2.1158608
2.3154788
2.5911353
2.787
3.0584012
3.2089502
3.4283875
3.5905813
3.8383574
4.3846932
3.4323782
2.8058203
2.3506903
2.0250218
1.7759286
1.5949522
1.4569522
1.3456116
1.2598448
1.1835379
1.1239611
1.0708478
1.0133023
0.98608962
0.94974838
0.91413882
0.89109878
0.87161291
0.85330601
0.83675456
0.82202469
0.8060591
0.78782925
0.77183304
0.76343714
0.75981102
0.75877201
0.76439239
0.7805287
0.7937305
0.81026958
0.83068831
0.85395768
0.88816281
0.92183493
0.96567556
1.0079673
1.0564235
1.1075606
1.198978
1.3023346
1.416833
1.5207034
1.682659
1.8333142
2.0350343
2.2259763
2.4915811
2.7369257
2.9981231
3.1992298
3.3914876
3.5773314
3.7630493
4.3883641
3.4403555
2.8078952
2.3590832
2.0404089
1.7873161
1.5997251
1.4625411
1.3569789
1.2702244
1.1910145
1.1278901
1.0745673
1.0238574
0.98914995
0.95508855
0.9188474
0.89480706
0.87227907
0.85206008
0.8401718
0.82664367
0.80781494
0.78736458
0.77150152
0.76555157
0.76168566
0.76034778
0.76543579
0.77800882
0.79078187
0.80457993
0.82112112
0.84122228
0.87306109
0.91593639
0.96563046
1.0024768
1.0390083
1.1011238
1.1898058
1.284755
1.383165
1.508646
1.653605
1.8040277
1.9486077
2.1397312
2.3599688
2.6176487
2.8519585
3.1026972
3.2812674
3.486663
3.6734127
4.3931836
3.4450481
2.8092738
2.3668666
2.0454798
1.7898844
1.6014538
1.4620668
1.3629866
1.2750967
1.1924829
1.1332273
1.0782701
1.0312069
0.9909763
0.95897624
0.92332649
0.89608458
0.87421674
0.8581587
0.84252142
0.82794092
0.81445095
0.79038661
0.77146671
0.76609043
0.76204644
0.7604615
0.76575187
0.77418347
0.78443859
0.79954206
0.813813
0.83350297
0.8643932
0.90849833
0.95698517
0.99293611
1.0236712
1.0827449
1.172866
1.2498271
1.3461861
1.4829861
1.6374232
1.773031
1.9139471
2.0767557
2.2771859
2.5015282
2.7074476
2.9314174
3.080595
3.2824989
3.5127164
4.3968427
3.4499246
2.8178921
2.3695025
2.0418599
1.7873536
1.6042793
1.4629139
1.3614408
1.2726737
1.1922627
1.1349637
1.0820785
1.0286186
0.99149271
0.95953198
0.92524948
0.89629963
0.87350365
0.86180706
0.8430202
0.82989651
0.82270164
0.80223742
0.78285928
0.77232961
0.76424991
0.76050708
0.76457192
0.77072732
0.77689525
0.79060668
0.80792753
0.83050435
0.86140824
0.90114606
0.94478287
0.97414701
1.0056856
1.0671464
1.1500558
1.2164721
1.2872799
1.4179674
1.5690069
1.6977439
1.8419385
1.9918478
2.1809635
2.3877536
2.5859153
2.7728163
2.9333773
3.1017033
3.3133691
4.3987351
3.4576882
2.8289454
2.3727943
2.045955
1.7935802
1.6092013
1.4685121
1.3614463
1.2734447
1.195979
1.1358976
1.0828517
1.0276385
0.99458062
0.96274634
0.93021109
0.90190454
0.8748563
0.85996215
0.84415099
0.83400426
0.82467362
0.80359834
0.78713296
0.77587408
0.76617483
0.75912908
0.7612441
0.76606493
0.77301818
0.78697182
0.8063097
0.83146217
0.86156011
0.89695837
0.93467179
0.9600187
0.99216163
1.0591926
1.1334281
1.1909963
1.2469949
1.3494675
1.4733688
1.5915516
1.7252564
1.8786221
2.0602026
2.2548707
2.458703
2.6374383
2.7934846
2.9755798
3.1662982
4.4007544
3.4663324
2.8358479
2.3797381
2.06151
1.8104805
1.6157361
1.4763674
1.3682982
1.282351
1.2064554
1.1414808
1.0836443
1.0388674
0.99999859
0.9688599
0.93768341
0.90701235
0.88140842
0.85908846
0.8448024
0.83727541
0.82494359
0.80193973
0.78413021
0.77452516
0.76445135
0.75611776
0.75772665
0.76291117
0.77336513
0.79170848
0.8107117
0.83539965
0.86311053
0.89251986
0.92756654
0.95268577
0.98470227
1.0501548
1.121336
1.1792319
1.2291506
1.324394
1.4172098
1.5279053
1.6444184
1.7915577
1.9579691
2.1232031
2.3271788
2.4820776
2.6441014
2.8381188
3.029301
4.4041035
3.4716328
2.8395538
2.3888782
2.0730418
1.8191927
1.6216361
1.480138
1.376674
1.2914276
1.2130915
1.1470828
1.0869941
1.0479197
1.0032205
0.97259178
0.94165017
0.90852793
0.88411613
0.86161584
0.8481218
0.83920854
0.82716311
0.80828
0.78601812
0.77416009
0.76146524
0.75435115
0.75623546
0.76234686
0.77656235
0.79929647
0.81804176
0.84053988
0.86522305
0.88896036
0.92091935
0.95067065
0.98232837
1.0434742
1.119039
1.1815808
1.2336962
1.3268778
1.4107522
1.5145177
1.6360496
1.765722
1.9145058
2.0438763
2.2253028
2.3514048
2.5215023
2.7067371
2.8779717
4.4079005
3.474288
2.8433927
2.3965113
2.0726009
1.8169971
1.6239347
1.4814148
1.3785671
1.2928536
1.2136032
1.1471623
1.0897626
1.0488885
1.0039477
0.97234304
0.94081034
0.90745782
0.88155808
0.86270785
0.8498777
0.83913634
0.82821601
0.8157972
0.79718026
0.78122854
0.76355547
0.75622935
0.75807392
0.76514591
0.77983318
0.80026432
0.82025733
0.84295892
0.86542077
0.88636475
0.91339079
0.94852073
0.98578984
1.0391654
1.1116847
1.1839484
1.2513333
1.3390905
1.4234516
1.5238131
1.6554594
1.7758559
1.9169545
2.0336243
2.1712197
2.2914287
2.4411566
2.6281407
2.7579059
4.4107951
3.4772019
2.8505927
2.4033238
2.0691439
1.8132749
1.6255392
1.4825537
1.3766031
1.2893539
1.2110931
1.1443707
1.0909864
1.044973
1.003719
0.96779309
0.93785064
0.90827044
0.87846377
0.86177693
0.84875594
0.83839792
0.82793811
0.8156135
0.80037179
0.78646702
0.77069614
0.76223948
0.76332374
0.77000715
0.78240543
0.79634378
0.8167241
0.83988706
0.86322073
0.88310524
0.90867609
0.94424223
0.98136293
1.0321101
1.0984366
1.1741233
1.2504059
1.3368249
1.4225443
1.5234886
1.6558251
1.7929545
1.9196565
2.0462928
2.159061
2.2887813
2.4127163
2.5979859
2.7218988
4.412426
3.4821766
2.8600331
2.4105562
2.0732776
1.8175596
1.6302069
1.4864063
1.3776406
1.2884745
1.2109821
1.1446211
1.0905319
1.0440692
1.0050472
0.96594171
0.93873861
0.91255281
0.88057283
0.86230355
0.84775605
0.83873394
0.82839654
0.81266974
0.79821948
0.78668204
0.77434628
0.76707951
0.7677544
0.77385697
0.78423667
0.79506965
0.81269145
0.83599928
0.86187387
0.88489855
0.91139173
0.94778923
0.98651237
1.0355179
1.0949929
1.1674098
1.2452216
1.3300522
1.41026
1.5085239
1.635412
1.7799723
1.9023081
2.0417627
2.1478274
2.3079617
2.4131151
2.6023588
2.7309521
4.4129006
3.489701
2.8702621
2.4193415
2.0873156
1.8319657
1.6393538
1.4940324
1.385318
1.2945437
1.217898
1.1519972
1.0927568
1.0520844
1.0105972
0.97265439
0.94607588
0.92086429
0.89080939
0.86861396
0.85260018
0.84535584
0.83514741
0.81715005
0.80171468
0.78924473
0.77818523
0.77379156
0.77463164
0.78050764
0.78990107
0.80104279
0.81792234
0.8398059
0.86691104
0.89754569
0.93055978
0.97130087
1.0150494
1.0650813
1.1185515
1.1873308
1.2629619
1.3449331
1.4195841
1.5112832
1.6330668
1.7754911
1.8933147
2.0357269
2.1374678
2.3245833
2.434634
2.6276041
2.7598309
4.4132029
3.4966587
2.8783758
2.4272819
2.1048439
1.8473693
1.650255
1.5028887
1.3974338
1.3071259
1.2314228
1.1659357
1.1006632
1.0692978
1.022066
0.98911494
0.95991529
0.93358744
0.90558904
0.88145549
0.86841451
0.86315979
0.85383937
0.83891139
0.82388248
0.80759359
0.79607672
0.79260165
0.79353927
0.79800767
0.80659937
0.82102107
0.83866285
0.86116563
0.88559064
0.924164
0.97320935
1.0291913
1.0860303
1.1462634
1.2038253
1.2638257
1.3351643
1.4168496
1.4860231
1.5659806
1.6764197
1.8147064
1.9343598
2.0761867
2.1729652
2.3605595
2.4785369
2.6691033
2.786772
4.4146375
3.5027925
2.88449
2.435145
2.1169788
1.8566951
1.6592382
1.5103066
1.4082742
1.3198204
1.2458362
1.1806501
1.1127953
1.0877295
1.0388844
1.0104208
0.97898863
0.95118434
0.92275028
0.9031193
0.89141426
0.88997767
0.88532382
0.87696994
0.86791513
0.85098798
0.83737161
0.83328056
0.83419542
0.83724244
0.84438325
0.86235823
0.88329429
0.91018985
0.93510992
0.97574715
1.0307452
1.09586
1.1651619
1.2495226
1.333539
1.4083596
1.4867318
1.5715373
1.6369434
1.7069266
1.8012418
1.9302994
2.04565
2.1926353
2.2815616
2.4455032
2.5526301
2.7267583
2.8185047
4.4162703
3.5065116
2.8888778
2.4421733
2.1217878
1.8615041
1.6677091
1.5201965
1.4196304
1.3336403
1.2623199
1.1978943
1.1331907
1.1089132
1.0631103
1.0379706
1.0053766
0.97872308
0.95285262
0.93731791
0.92832565
0.93002621
0.9318831
0.92966835
0.92658389
0.91787228
0.90727323
0.90417578
0.90586967
0.90994232
0.91855773
0.94046903
0.96723206
1.0051201
1.0340584
1.078223
1.1372678
1.212112
1.28614
1.3806602
1.4695972
1.5639162
1.6509545
1.7659648
1.8510455
1.9458598
2.0305222
2.1545182
2.2508121
2.3948511
2.4692727
2.6081187
2.6903811
2.8438142
2.9104471
4.4201714
3.5125708
2.8975454
2.4552875
2.1323987
1.8756774
1.688682
1.5449425
1.4451612
1.3610626
1.2918214
1.2294169
1.1708366
1.145297
1.1063858
1.0835105
1.0565682
1.0356659
1.0187088
1.0100648
1.0085828
1.0166326
1.0308294
1.0362603
1.038129
1.0429568
1.0475572
1.0518864
1.0632344
1.073435
1.0934059
1.1258913
1.1690163
1.2191045
1.2560559
1.3026618
1.366205
1.4458523
1.5294226
1.6273192
1.7063297
1.8114865
1.9194528
2.0567754
2.1561567
2.2861103
2.3836281
2.5065231
2.5877228
2.7269579
2.7943181
2.9249355
2.9856665
3.1175494
3.1499123
4.4262918
3.5266855
2.9225834
2.4913925
2.1732184
1.9242961
1.7429865
1.6014544
1.508528
1.4251901
1.3643947
1.3124997
1.2678928
1.2548871
1.2327028
1.2236196
1.215512
1.2217549
1.2291505
1.2344025
1.2452764
1.2765609
1.3265293
1.3538656
1.3812539
1.4143492
1.4511842
1.4837681
1.5253183
1.5555772
1.6089441
1.667088
1.7341012
1.8047952
1.8611753
1.9128074
1.9835064
2.068589
2.157789
2.2391564
2.2938482
2.3957454
2.5295163
2.6760251
2.7792847
2.9166257
3.0272251
3.1406201
3.2186975
3.3464478
3.4297575
3.5530549
3.5982531
3.7133443
3.70831
4.4615432
3.5844932
3.0028673
2.5833699
2.2876173
2.0636872
1.9093977
1.7862506
1.7387396
1.6771474
1.6575016
1.6563473
1.660625
1.6981061
1.7265756
1.7705671
1.7997699
1.8613022
1.9332649
1.9617917
2.0083593
2.0836091
2.171334
2.2358613
2.3085247
2.3845184
2.461216
2.5377122
2.6158071
2.6801677
2.7699657
2.8515561
2.9322239
3.0287303
3.1192033
3.175969
3.2589165
3.3398255
3.4292748
3.5003797
3.5489207
3.6293319
3.7585031
3.8667494
3.9740465
4.0565755
4.180493
4.2758056
4.3705692
4.4815982
4.5715928
4.6461437
4.6986445
4.8286085
4.8102491
4.5260003
3.7068044
3.2191159
2.8986573
2.7288256
2.6377941
2.6387479
2.6570801
2.7248991
2.7520105
2.8300679
2.9317597
3.0094363
3.1537337
3.2365397
3.3469736
3.416266
3.5420939
3.6848398
3.7470012
3.8368334
3.9455746
4.063377
4.1483755
4.2508475
4.3689024
4.4547508
4.5493725
4.6515154
4.7238217
4.812354
4.8926494
4.9680218
5.0532364
5.1331777
5.1730223
5.2520346
5.3120545
5.3797009
5.4381173
5.5054576
5.5821588
5.6969835
5.8025855
5.9509252
6.0466445
6.1366996
6.1897307
6.276778
6.3407151
6.4166878
6.4576761
6.504789
6.5969223
6.547614
4.6203451
4.4104501
4.502322
4.6370341
4.8457221
5.1004749
5.3797445
5.6154962
5.8705248
5.9618542
6.1291883
6.310275
6.4069109
6.632457
6.7433851
6.9162853
7.0058224
7.1882894
7.3936902
7.4869547
7.606066
7.7682477
7.9647565
8.0809162
8.1899606
8.3354771
8.4176411
8.4926211
8.6022045
8.6741182
8.7301402
8.7750547
8.8475581
8.9384855
8.9851304
9.0114926
9.0411856
9.0319317
9.0845964
9.1532679
9.2305264
9.2325165
9.2455635
9.3390986
9.4299532
9.5230155
9.5632446
9.5764176
9.6229829
9.672404
9.7853157
9.8870734
9.9266027
9.9188709
9.8120388
8.1900943
10.867738
12.182397
12.656107
12.91789
13.467327
14.133677
14.402177
14.871188
15.03265
15.280583
15.390705
15.446655
15.836891
15.84006
16.094577
16.075342
16.282135
16.299036
16.385078
16.334641
16.37432
16.643602
16.673727
16.586072
16.696981
16.779588
16.780712
16.909375
16.98931
16.917903
16.889974
17.089483
17.397659
17.510287
17.505415
17.565376
17.4702
17.467587
17.669748
17.988088
18.066323
18.01888
17.946319
17.797444
17.847746
17.93471
17.917978
17.826772
17.800361
17.917931
18.038962
18.27431
18.273426
17.901856
55.188982
55.466167
55.199558
54.919758
54.715233
54.581027
54.749739
54.71762
54.785011
54.565321
54.623802
54.699712
54.736941
54.950805
54.980237
55.175134
55.204256
55.588165
55.65657
55.353125
55.428891
55.604829
55.571885
55.536925
55.399879
55.281228
55.423533
55.583749
55.40081
55.113082
55.253576
55.752449
56.216946
56.045227
55.432084
55.173821
55.907789
56.866933
57.273583
56.464281
54.914427
54.05378
54.594284
55.572755
56.026959
55.868062
55.358713
55.063103
55.091759
55.241283
55.231795
54.872638
54.39301
54.119673
54.218389
56.400975
18.216192
9.9287384
6.8099883
5.044623
3.9041674
3.3092553
3.0627688
2.9853451
2.9715383
2.9398399
2.8898567
2.8599835
2.8850859
3.0065624
3.1863096
3.3450277
3.5137366
3.7344347
3.8860729
3.9515914
3.9902741
4.152689
4.4752
4.8439916
4.8588698
4.6994548
60.979938
19.368989
10.327405
7.1078728
5.3416739
4.1565282
3.5385022
3.276733
3.1843919
3.1530345
3.1007417
3.0356216
2.9948192
3.0207212
3.1281722
3.3142232
3.4961405
3.6790596
3.9362271
4.1190828
4.1807069
4.1942151
4.3433494
4.622974
4.8260003
4.9699689
5.090529
65.70172
20.745372
10.801338
7.4045386
5.5830612
4.450223
3.8131563
3.5112907
3.379623
3.3158138
3.2492222
3.1708046
3.1232747
3.1522145
3.2666491
3.4558623
3.6394829
3.8382365
4.1354184
4.3862749
4.501834
4.5121893
4.567877
4.7830501
4.872518
5.2214356
5.4148204
69.801919
21.539682
11.211745
7.6974916
5.8519307
4.7195321
4.0495339
3.7173674
3.5665532
3.4974902
3.4169004
3.3131637
3.2526967
3.2829947
3.4110311
3.6193279
3.8294175
4.0757264
4.3884868
4.635651
4.7638012
4.8269187
4.7963897
4.9981813
5.0309929
5.5519769
5.7836417
72.732891
22.188845
11.642245
8.0542289
6.1678714
4.9746337
4.310805
3.979605
3.8249773
3.7406855
3.6363244
3.5064352
3.412986
3.4213709
3.5442049
3.7766891
4.0373403
4.3321975
4.6488069
4.847455
4.9695927
5.0874057
5.0282139
5.2452351
5.3302669
5.8523731
6.0992085
75.177133
23.519413
12.239362
8.3885251
6.4573991
5.2997958
4.6127074
4.2531839
4.0871053
3.9922899
3.8817657
3.7438723
3.6347731
3.6125759
3.7178843
3.9632391
4.2495333
4.5587044
4.8406435
5.0167285
5.1446895
5.3192738
5.2563844
5.4752377
5.6857616
6.1888886
6.4288359
78.747547
24.620582
12.607307
8.6180346
6.6771155
5.5122994
4.8600584
4.505678
4.3122351
4.204084
4.1003999
3.9800271
3.8824963
3.8689281
3.987447
4.2542832
4.5566876
4.840155
5.090595
5.2065942
5.2862525
5.538768
5.5748036
5.7893789
5.9846024
6.5426151
7.0102026
84.586797
25.551385
12.91913
8.8252975
6.8862435
5.7603124
5.1034946
4.7302326
4.5437317
4.4407596
4.3261565
4.191126
4.1031594
4.127893
4.3015741
4.605112
4.9205308
5.2458273
5.5198469
5.5619968
5.4867943
5.6780303
5.9066251
6.2053466
6.3165501
6.7344858
7.6303087
92.287451
26.864813
13.428423
9.1160068
7.1602356
6.0512571
5.4246158
5.0692992
4.8917907
4.7647131
4.6030679
4.4598113
4.3638726
4.3779629
4.5395466
4.8485682
5.2293887
5.6429989
6.0254965
6.1060664
5.9244487
5.9333294
6.2245369
6.5485548
6.674431
6.8364956
7.8982568
100.1034
28.081144
13.893247
9.4094472
7.4018439
6.3078497
5.7388337
5.442852
5.2650298
5.1258829
4.9584241
4.7706405
4.6428031
4.6352213
4.7795801
5.0968437
5.4753579
5.9258115
6.3647047
6.6092465
6.5676436
6.5460772
6.7026638
6.8219956
6.9164679
6.9708119
7.9261738
107.60147
30.326632
14.508333
9.7201444
7.6901961
6.6389269
6.0880874
5.8040804
5.6496501
5.4951413
5.259158
5.0061136
4.8580563
4.8559103
5.0528075
5.4530274
5.8689517
6.2494972
6.6111788
6.9400694
7.093964
7.3826695
7.5954341
7.4034329
7.1925615
7.0855519
8.0598291
114.47279
32.112354
15.055659
10.06682
7.9898606
6.9812002
6.5410352
6.2904788
6.1044915
5.8904332
5.560165
5.2281407
5.0438974
5.0515438
5.2941985
5.7846099
6.3091175
6.727549
7.0879257
7.3185255
7.4879087
7.9039792
8.6495316
8.4921346
7.8757973
7.2933985
8.2144932
120.09951
33.317008
15.644974
10.442303
8.4033839
7.4822888
7.085897
6.8383479
6.5749089
6.2716983
5.8957375
5.5415178
5.3610173
5.3460147
5.5516398
5.9771163
6.5207663
7.0893173
7.6829586
8.0020373
7.9936324
8.2004488
9.1547113
9.6353507
9.1234229
7.9663567
8.4944044
124.44973
34.849106
16.386425
10.865165
8.7702264
7.8959767
7.5030863
7.2282912
6.9602489
6.6448924
6.2702768
5.962702
5.8071095
5.7773582
5.926997
6.2846152
6.8138353
7.4351921
8.1134425
8.5718248
8.6161075
8.6736901
9.4031658
10.274859
10.424072
9.3215681
9.2211399
128.98141
36.472289
16.84895
11.169183
9.1094867
8.2365195
7.8310746
7.5818908
7.3404239
7.0571784
6.7043493
6.3911585
6.2566271
6.2630231
6.4365641
6.8512541
7.4270766
8.0560361
8.6738411
9.0081151
9.0807693
9.246453
9.9662495
10.776744
11.074427
10.635814
10.576957
136.49128
37.42463
17.144714
11.396672
9.2493938
8.5013332
8.2485135
8.1266575
7.9803608
7.7132536
7.3002662
6.8847083
6.698579
6.7309156
7.0338685
7.6985644
8.3944873
8.9908769
9.4356288
9.5828793
9.5477805
9.7078702
10.518182
11.494214
11.857232
11.549213
11.628524
147.19731
40.233598
18.143636
11.825349
9.6041388
8.9959225
8.9031181
8.9243538
8.8775901
8.6334845
8.0942944
7.5967917
7.3648168
7.4154456
7.8377273
8.5981652
9.3046361
9.8500236
10.191905
10.257935
10.175408
10.238962
10.83539
11.968974
12.732671
12.664955
12.02151
159.93475
45.304566
19.958163
12.648808
10.226442
9.6805755
9.7047057
9.802442
9.7920536
9.5706268
8.9898924
8.5132408
8.3475267
8.4445567
8.9179472
9.532671
10.007077
10.369417
10.662902
10.876569
10.92073
10.916416
11.302725
12.316527
13.28582
13.659789
12.55056
173.00964
49.90775
21.485349
13.507157
10.976441
10.456964
10.507915
10.631428
10.632759
10.410777
9.9024027
9.5348633
9.4494537
9.5771232
10.014357
10.450374
10.747725
10.908603
11.084443
11.311057
11.521931
11.677568
12.005727
12.811484
13.708096
14.14856
13.197968
185.58022
53.190841
22.261474
14.182082
11.731441
11.18836
11.220923
11.321609
11.371263
11.240554
10.857506
10.588857
10.534706
10.650062
10.968797
11.326693
11.60403
11.747583
11.823058
11.883989
11.954064
12.220756
12.768582
13.607579
14.378324
14.584166
13.653608
195.6416
56.109386
23.353844
14.795742
12.310404
11.868388
12.01872
12.201781
12.243533
12.180303
11.888348
11.577334
11.477222
11.55519
11.749475
12.039222
12.404717
12.767486
12.856289
12.78224
12.654226
12.74259
13.294669
14.28787
15.036759
15.138844
14.163284
201.22317
58.364142
24.918645
15.76824
13.158989
12.774081
12.941779
13.188138
13.237869
13.160635
12.825132
12.436436
12.296192
12.329136
12.515569
12.755296
13.082229
13.502834
13.839338
13.92257
13.78976
13.624033
13.842365
14.616701
15.352073
15.586595
14.946686
201.24941
57.732313
25.104013
16.319039
14.207232
13.99445
14.224964
14.446149
14.417065
14.239606
13.802932
13.286649
13.102683
13.116908
13.38578
13.708912
13.977371
14.223809
14.475939
14.872711
15.116075
14.977076
14.756439
14.875493
15.361476
15.696867
15.624628
197.21014
56.526428
25.406072
17.263471
15.546789
15.39386
15.546169
15.568773
15.451021
15.250985
14.836491
14.22149
14.001576
13.985454
14.260446
14.638475
14.913946
15.103973
15.32291
15.693392
16.208007
16.380123
15.958944
15.502238
15.405338
15.626468
15.870959
193.5687
56.225828
26.347473
18.642827
17.057163
16.838655
16.845228
16.782108
16.550233
16.248736
15.856205
15.353562
15.1164
15.041472
15.195389
15.538767
15.821337
16.071056
16.266321
16.572171
17.103393
17.412789
17.133989
16.437208
15.861866
15.760522
16.025493
193.21804
57.043491
27.355774
19.960251
18.557121
18.355622
18.22032
17.987241
17.701317
17.414653
17.022912
16.575941
16.353893
16.238992
16.251114
16.462229
16.702087
16.893139
17.083009
17.455732
18.028825
18.360186
17.997799
17.267121
16.707486
16.374454
16.499005
195.79865
60.966116
29.422766
21.546987
20.00895
19.633197
19.299178
18.985512
18.88319
18.736544
18.486574
18.186172
17.96082
17.762111
17.581437
17.505141
17.600714
17.687726
17.754426
18.055637
18.807988
19.278283
18.842349
17.899174
17.418422
17.368805
17.462761
206.2405
69.068333
33.171928
23.524185
21.155029
20.351728
19.976413
19.795304
19.819684
20.020418
20.161347
20.068988
19.890965
19.674179
19.315548
18.921724
18.644073
18.474008
18.417501
18.64427
19.384011
19.914327
19.565524
18.598896
17.929387
18.064868
18.533944
221.40956
80.680413
38.576293
26.260714
22.55443
21.17083
20.497613
20.370434
20.503184
20.955499
21.667728
22.081513
22.165503
21.946952
21.360981
20.441016
19.774962
19.325778
19.127205
19.296411
19.863091
20.228517
19.991794
19.295995
18.465375
18.488665
19.259322
235.35447
88.777116
43.0188
28.736829
23.839414
21.940447
20.992859
20.754188
20.835675
21.358734
22.534509
23.315361
23.959378
24.163891
23.487877
22.008612
20.804319
20.036426
19.740196
19.939881
20.281424
20.451603
20.199328
19.625103
18.934124
18.849694
19.593229
243.9259
93.390116
45.424062
29.924241
24.254777
22.015997
20.929815
20.642978
20.702127
21.082513
22.407353
23.684584
24.703912
25.254687
24.731239
23.053288
21.465256
20.362119
19.903097
20.052802
20.335036
20.478204
20.28681
19.792755
19.222736
19.079708
19.756155
247.33656
94.667109
46.251534
30.162255
24.112524
21.758587
20.582598
20.275749
20.33044
20.699696
21.955386
23.250392
24.390886
25.181567
24.932294
23.425104
21.727161
20.42143
19.848221
19.916676
20.181993
20.32124
20.251938
19.904516
19.387216
19.091426
19.626242
249.41812
93.840164
45.714869
29.742176
23.678796
21.217264
20.041242
19.657074
19.706886
20.005811
21.058827
22.40459
23.478945
24.297481
24.390765
23.317675
21.608019
20.189464
19.485974
19.367508
19.605977
19.833232
19.994194
19.817641
19.428552
19.076349
19.389609
252.22335
92.597915
45.187239
29.528837
23.170354
20.466842
19.023562
18.463966
18.49346
18.748306
19.647802
21.018281
22.17386
23.207974
23.686449
22.989261
21.248214
19.711067
18.866569
18.59607
18.843044
19.249269
19.505703
19.459811
19.262564
18.872972
18.882453
257.11397
93.481293
45.545325
29.689845
22.748507
19.639909
18.102692
17.432754
17.386722
17.564252
18.339179
19.740205
21.14631
22.495864
23.248993
22.798213
20.974683
19.204149
18.235668
17.883752
18.088191
18.501285
18.863496
18.942322
18.775517
18.350952
18.181912
263.2961
95.212289
46.781185
30.229453
22.857405
19.36735
17.681757
16.962927
16.8083
16.845339
17.161202
18.545952
20.51897
22.190716
23.199463
22.900512
20.926481
18.851772
17.723589
17.341033
17.554776
17.957152
18.235855
18.342917
18.156188
17.716201
17.441668
267.73088
97.073935
48.314693
31.302736
23.365088
19.562688
17.617938
16.624026
16.1895
16.042961
16.261446
17.885412
20.363915
22.393511
23.538998
23.135702
20.897021
18.522005
17.341202
16.942405
17.189073
17.587993
17.805279
17.835882
17.524402
17.051305
16.77033
268.83159
99.017027
49.88363
32.348317
24.115198
19.916232
17.520421
16.116812
15.493266
15.314435
15.8063
18.019787
20.708912
22.949148
23.863463
23.073414
20.503351
18.007562
16.953207
16.666408
16.999718
17.374846
17.522921
17.395571
16.902919
16.456417
16.312898
268.02935
99.673095
50.333949
32.238155
23.935361
19.829427
17.217024
15.638744
15.045597
15.033238
15.993507
18.635037
21.290326
23.149395
23.523818
22.324878
19.402639
17.314452
16.589037
16.533235
16.942591
17.162244
17.165789
16.819398
16.298998
16.00216
16.058714
264.95815
97.789993
48.680052
30.851711
23.178108
18.943231
16.427926
15.218081
14.890926
15.132288
16.592925
19.113621
21.333452
22.638479
22.417017
20.668628
17.97353
16.574853
16.223968
16.400834
16.774914
16.747787
16.565679
16.067811
15.722267
15.67611
15.949623
258.91151
92.819606
44.5988
28.326251
21.255659
17.612817
15.691552
14.965858
14.892671
15.457007
17.104881
19.192628
20.840964
21.340301
20.70806
18.699029
16.683625
15.911989
15.842017
16.186047
16.430872
16.250149
15.83508
15.328131
15.141994
15.2969
15.802727
249.28092
84.939814
40.061484
25.710316
19.660615
16.672703
15.278973
14.876316
15.007696
15.816829
17.374665
18.908697
19.74978
19.704657
18.836859
17.141912
15.894192
15.54418
15.610083
15.962744
16.069826
15.798883
15.242631
14.853203
14.807279
15.242772
15.885921
236.45063
76.725051
36.079336
23.786385
18.713101
16.297682
15.251813
14.991241
15.242567
16.072715
17.34871
18.41541
18.796902
18.528609
17.558012
16.34118
15.581449
15.421309
15.537965
15.870317
15.93925
15.669769
15.123959
14.828881
14.888831
15.486105
16.340007
219.02476
67.038096
32.710194
22.935783
18.823342
16.743685
15.82061
15.601328
15.83729
16.532327
17.539386
18.378289
18.527178
18.162192
17.229986
16.293125
15.678317
15.541426
15.666147
15.990019
16.119774
15.920011
15.425778
15.153885
15.394507
16.450817
17.692064
193.25471
55.403915
30.785434
23.698709
20.580305
18.975545
18.089191
17.780818
17.867113
18.286941
18.968778
19.532699
19.516568
19.062592
18.134021
17.229476
16.567205
16.282094
16.309323
16.511494
16.684059
16.598242
16.280309
16.069686
16.315039
17.31226
18.212535
161.6957
52.614633
33.921251
28.796705
25.658127
22.813145
21.099669
20.529309
20.519926
21.038738
21.893244
22.432524
22.299071
21.622295
20.464031
19.21553
18.163826
17.630433
17.564643
17.745154
17.955853
17.89805
17.61234
17.178368
17.040616
17.571647
18.502281
125.1194
54.166455
40.760932
36.193505
30.069652
24.939837
22.435244
21.691181
21.751186
22.624329
24.095648
24.919254
24.863711
23.918174
22.366956
20.667164
19.356193
18.839087
18.872799
19.194066
19.441692
19.228558
18.629959
17.878255
17.613487
18.060045
19.079777
102.08801
54.350631
42.752989
37.225594
30.69712
25.389796
22.565295
21.706281
21.783909
22.734207
24.415623
25.428038
25.545239
24.665214
23.067884
21.365021
20.370507
20.148343
20.434452
20.828322
20.818447
20.169416
19.108307
18.381796
18.413746
19.146841
20.297403
99.359778
54.728898
42.026363
34.438337
27.964672
23.632033
21.486099
20.823823
21.040995
22.034844
23.63942
24.728732
24.937766
24.196713
22.793823
21.50371
21.053863
21.209283
21.662215
21.741475
21.304804
20.28149
19.206112
18.836797
19.361398
20.511766
21.20326
103.53993
53.124206
35.128114
26.212928
21.542093
19.097227
18.025706
17.902904
18.282243
19.245142
20.406671
21.189484
21.353329
21.025239
20.595773
20.540189
20.888958
21.480232
21.902973
21.762247
21.067961
19.925869
19.209639
19.254503
20.154388
21.093934
21.347111
111.97456
47.775096
28.168089
21.024351
17.69025
16.011237
15.240428
15.048716
15.187792
15.591958
16.091512
16.474622
16.653362
16.738702
16.996998
17.758065
19.147819
20.593304
21.231151
21.121367
20.394106
19.455493
19.056902
19.447457
20.448896
21.182646
21.351149
115.70232
44.49088
25.627785
19.09417
16.12973
14.625605
13.867254
13.542764
13.476573
13.543451
13.653389
13.717429
13.720655
13.75371
13.982015
14.654238
15.887155
17.428922
18.599378
18.966361
18.801492
18.489312
18.526112
19.118423
20.112737
20.830966
21.080745
114.4359
42.501487
24.628236
18.47622
15.729228