/*--------------------------------*- C++ -*----------------------------------*\
| =========                 |                                                 |
| \\      /  F ield         | OpenFOAM: The Open Source CFD Toolbox           |
|  \\    /   O peration     | Version:  2406                                  |
|   \\  /    A nd           | Website:  www.openfoam.com                      |
|    \\/     M anipulation  |                                                 |
\*---------------------------------------------------------------------------*/
FoamFile
{
    version     2.0;
    format      ascii;
    arch        "LSB;label=32;scalar=64";
    class       volScalarField;
    location    "27";
    object      p;
}
// * * * * * * * * * * * * * * * * * * * * * * * * * * * * * * * * * * * * * //

dimensions      [1 -1 -2 0 0 0 0];

internalField   nonuniform List<scalar> 
62344
(
1.0065624
1.0075335
1.0129722
1.0198958
1.016695
1.0122671
1.0166075
1.0170186
1.0151412
1.0153164
1.0172171
1.0172612
1.0262233
1.0203521
1.0135469
1.0167489
1.0175845
1.015455
1.0042724
1.0121426
1.02032
1.0096291
1.0208217
1.021334
1.0000758
1.0049075
1.0200135
1.008553
0.99539558
1.0056436
1.0243759
1.0243187
1.0063265
0.98615811
0.99123357
1.0195839
1.0458615
1.0292663
0.98511181
0.95691031
0.95780094
0.97507944
1.0006379
1.0309503
1.0480601
1.0349846
1.0025461
0.9787619
0.97456306
0.98004925
0.97473842
0.95835423
0.93795656
0.93018542
0.94915932
1.0072265
1.0090154
1.0105717
1.0194962
1.0197666
1.0118403
1.0152521
1.0161684
1.0179935
1.0157796
1.0223374
1.0183586
1.0238069
1.0259058
1.0196088
1.0157086
1.0095587
1.0158559
1.0096933
1.0093105
1.0186696
1.0095693
1.015237
1.0181309
1.0043497
1.0107385
1.0216773
1.0075682
0.99713543
1.0077595
1.0188833
1.0130838
0.99913687
0.98734908
0.99217138
1.0194658
1.0414916
1.0305313
0.99251056
0.96593866
0.96366722
0.98016754
1.0108759
1.049223
1.0657306
1.0386113
0.98368073
0.93675477
0.927962
0.95629688
0.99860462
1.0265316
1.0293405
1.0146726
0.98570163
1.0069343
1.0113266
1.0105329
1.0168239
1.0196343
1.0149846
1.0127905
1.0138778
1.0171058
1.0174042
1.0252566
1.0257401
1.0218059
1.0265729
1.0242691
1.0162887
1.0051587
1.0087755
1.0108118
1.0110359
1.0169298
1.0099069
1.0129674
1.0135157
1.0057612
1.0150914
1.0235028
1.0069871
0.99641961
1.0091538
1.015711
1.0075839
0.99488394
0.98561598
0.99267807
1.0202357
1.041093
1.030094
0.99710265
0.97159884
0.97358852
0.9936666
1.0210724
1.0475104
1.0533572
1.0243465
0.97533541
0.93503481
0.92061941
0.94046086
0.9927996
1.0563525
1.0902528
1.0774709
1.0250063
1.0065206
1.0122178
1.0121797
1.0157701
1.017402
1.0174962
1.0114946
1.012625
1.014122
1.0186538
1.0243826
1.0279856
1.0206925
1.0231125
1.0228844
1.0160979
1.0096842
1.0050722
1.0090462
1.0113557
1.0144102
1.0103881
1.0146021
1.0127802
1.0069359
1.0166004
1.0212789
1.0047629
0.99672656
1.0101542
1.0151137
1.0037692
0.99484744
0.98897289
0.99704001
1.0171745
1.0291745
1.0181463
0.99363177
0.97665117
0.98278772
1.0085127
1.0341988
1.0406319
1.0288884
1.0047809
0.9765612
0.95283088
0.9434034
0.9541125
0.98634169
1.0332092
1.0728141
1.075772
1.0407858
1.0065435
1.01167
1.0146888
1.0181324
1.0158714
1.0177241
1.012151
1.0126771
1.0111018
1.0187929
1.0202918
1.023913
1.020298
1.0194273
1.0187689
1.0142677
1.0142252
1.0076234
1.0063654
1.0103666
1.0113661
1.0099534
1.0174672
1.015535
1.0105476
1.0184295
1.0168632
1.0003175
0.99794829
1.0119259
1.0152962
1.0005163
0.9928721
0.9945095
1.0022895
1.0158563
1.0166884
1.0050351
0.98710764
0.97841625
0.99109425
1.0187739
1.0386599
1.0297856
1.0037766
0.98632313
0.98324166
0.98098939
0.98112598
0.98492884
0.99009374
0.99731123
1.0071663
1.0155316
1.0108164
1.0069036
1.0104991
1.0164265
1.0217706
1.0168462
1.016662
1.0140558
1.0137253
1.0104363
1.0170687
1.0165256
1.0178724
1.0199343
1.0175691
1.0154854
1.0130618
1.0137981
1.0106365
1.0046653
1.0103311
1.010445
1.0092335
1.019188
1.0181679
1.0144636
1.0211285
1.0135316
0.99609808
0.99884844
1.0156289
1.0153919
0.99755943
0.98866542
0.99552759
1.0086111
1.0168484
1.0095351
0.99432705
0.97889185
0.97839728
0.99884871
1.0268041
1.0395587
1.0183852
0.98470299
0.97203961
0.98514928
1.005916
1.0175802
1.0171727
1.0018471
0.97491269
0.95386592
0.95051666
0.96309063
1.0071395
1.0096045
1.0163247
1.023539
1.0191023
1.0148018
1.0161153
1.0146407
1.0124075
1.014619
1.0149576
1.0153756
1.0195803
1.0179644
1.0142436
1.0129009
1.0090603
1.0116039
1.0036702
1.010911
1.0113529
1.0087513
1.0192766
1.0183191
1.0162264
1.0239512
1.013541
0.99479018
1.0000603
1.0191089
1.0159897
0.99420731
0.9814563
0.99239985
1.0133238
1.0210786
1.0069929
0.98704289
0.97334604
0.97867955
1.0039447
1.032945
1.0387059
1.0103554
0.97434835
0.96332165
0.98217428
1.0156156
1.0419396
1.0427705
1.0137004
0.97059086
0.93394642
0.91930665
0.9300507
1.0070649
1.0095123
1.0148897
1.0220481
1.0207011
1.013321
1.0173323
1.0149129
1.0152719
1.0130299
1.0154147
1.0179424
1.0191853
1.0192898
1.0148961
1.0138953
1.0041204
1.0100294
1.0035573
1.0112274
1.01228
1.0091292
1.0190766
1.0161118
1.0144705
1.0248333
1.0156125
0.99745144
1.0025347
1.0207023
1.0170101
0.992241
0.97486244
0.9867425
1.0160385
1.0268391
1.0091835
0.98402964
0.97117621
0.97939356
1.007527
1.0366423
1.037732
1.0063889
0.97080718
0.95946292
0.97720804
1.0153066
1.0491692
1.0531165
1.0230033
0.97810514
0.94001661
0.92049465
0.92481655
1.0068404
1.0102944
1.0132795
1.0190533
1.021213
1.0135736
1.0168933
1.0143296
1.0171084
1.012789
1.017298
1.0224979
1.019126
1.0198907
1.0174434
1.0154953
1.002124
1.0069444
1.003608
1.0109618
1.0118943
1.0094234
1.0192729
1.0134012
1.0104276
1.0225184
1.0172193
1.0015508
1.0060363
1.0206812
1.0166861
0.992085
0.97039546
0.98052351
1.0154105
1.0321305
1.0141282
0.98393967
0.97076052
0.98155315
1.0109774
1.0389051
1.0365421
1.0060026
0.97380716
0.96111655
0.97586227
1.0094384
1.0412668
1.0477377
1.024903
0.98992348
0.95939706
0.94227554
0.94256541
1.0066361
1.011431
1.0123398
1.0163779
1.0206153
1.0152476
1.0153622
1.0134151
1.0173481
1.0138119
1.0194387
1.025575
1.0196944
1.0190903
1.0192375
1.0163684
1.0037651
1.0032462
1.0037419
1.0101306
1.0098647
1.0094162
1.0196502
1.0116411
1.0068131
1.0180959
1.0167304
1.0051432
1.0093268
1.0192333
1.0148677
0.99300662
0.96882708
0.97565745
1.0121274
1.0346408
1.0193738
0.98527742
0.97071146
0.98374228
1.0143348
1.0387804
1.0349387
1.007781
0.97842911
0.96752415
0.97776841
1.0010327
1.0250244
1.0328178
1.0198304
0.99952004
0.98230202
0.97237824
0.97126717
1.0066719
1.0126065
1.0125328
1.0151847
1.0199222
1.0176506
1.0137573
1.0127249
1.0159862
1.0154208
1.0210185
1.0259792
1.0204939
1.0172303
1.0193474
1.0157238
1.0083629
1.000662
1.0036545
1.0090122
1.0066579
1.0085414
1.0201008
1.0117402
1.0055927
1.0147112
1.0145249
1.0073169
1.0113248
1.0170142
1.0124563
0.99453407
0.97019489
0.97310274
1.0075446
1.0339847
1.0228949
0.98756427
0.97041844
0.98509857
1.0163592
1.0380464
1.0331292
1.009518
0.98504733
0.97677835
0.98312129
0.99547498
1.0069842
1.0126002
1.0107377
1.0064861
1.003069
1.0012464
1.0007514
1.006859
1.01355
1.013478
1.0160501
1.0195794
1.0199297
1.012869
1.0129634
1.014033
1.0170339
1.0216762
1.0236921
1.0210135
1.0159397
1.018097
1.0136322
1.0122145
0.99978748
1.0036632
1.0079852
1.0033873
1.0069413
1.0196449
1.012605
1.0070168
1.0141283
1.0128744
1.0083335
1.0124551
1.014645
1.0100781
0.99630777
0.97384339
0.97321563
1.002506
1.0297609
1.0237734
0.98944052
0.97031374
0.98497309
1.0166675
1.0372018
1.0310237
1.0086569
0.99105292
0.98730532
0.99169189
0.99408397
0.99147801
0.98944834
0.99721949
1.0090862
1.0188854
1.0258537
1.0272107
1.0070804
1.0139891
1.0151138
1.0183978
1.0197906
1.0211235
1.0131295
1.014124
1.0126138
1.0182914
1.0213723
1.0205804
1.0210415
1.0161149
1.0167195
1.0104881
1.0136459
1.000615
1.0039427
1.0073038
1.0011944
1.0057221
1.0181715
1.0128345
1.009565
1.0159873
1.0132656
1.0090674
1.012919
1.0126777
1.0080161
0.99788753
0.97869079
0.97560863
0.99798248
1.0231008
1.0224063
0.99111292
0.97052734
0.9832893
1.0159364
1.0367147
1.0296483
1.0068686
0.994649
0.99696686
1.0016942
0.99714058
0.98299927
0.97313446
0.98072081
1.0029227
1.0258103
1.0425242
1.048101
1.0073023
1.0139228
1.0169222
1.0214434
1.0203741
1.0209977
1.0145114
1.015726
1.0120884
1.0188403
1.020574
1.0176473
1.020395
1.0177372
1.0163661
1.0079735
1.0120328
1.0024542
1.0044491
1.0068383
1.0006422
1.0055366
1.0159106
1.011634
1.0115871
1.0190196
1.015249
1.0098648
1.0131186
1.0111288
1.0061044
0.99961231
0.98466888
0.97971286
0.99506077
1.0155891
1.0187224
0.99208787
0.97153011
0.98183523
1.0132232
1.0360953
1.0281791
1.0041424
0.99504396
1.0029373
1.0115038
1.0039064
0.98282828
0.96621659
0.96838452
0.98994375
1.0207855
1.0472559
1.060431
1.0075601
1.0134129
1.0185754
1.0244918
1.0212724
1.0198526
1.016466
1.0171485
1.0127156
1.0184292
1.0199463
1.016327
1.019179
1.0199292
1.0171969
1.0070486
1.0085822
1.0045361
1.0048871
1.0059437
1.0014104
1.0066869
1.013944
1.0094022
1.0121855
1.0215571
1.0174815
1.0104718
1.0128216
1.0100018
1.004182
1.0011935
0.99140937
0.98562325
0.99424214
1.007908
1.0131204
0.99224417
0.97348051
0.9814358
1.0095631
1.0343442
1.0268713
1.0016831
0.99254034
1.0046081
1.018664
1.0131249
0.99036052
0.96885627
0.96283951
0.97685443
1.0071398
1.0398022
1.0608795
1.0077764
1.0127276
1.0196761
1.0269725
1.0221734
1.0182627
1.0183756
1.018059
1.0140801
1.0173209
1.0196639
1.0167601
1.0178551
1.0216447
1.0183339
1.0080017
1.0043021
1.0063422
1.0047872
1.0040527
1.0023096
1.008714
1.0128964
1.0070392
1.0113808
1.0226512
1.0188511
1.010721
1.0117353
1.0089611
1.0024496
1.0015819
0.99761081
0.99230604
0.99597976
1.0016057
1.0058185
0.99163717
0.9771104
0.98216513
1.0066372
1.030733
1.0249021
0.99958657
0.98907985
1.0026869
1.0211949
1.0213619
1.0022648
0.9788335
0.96461072
0.96921323
0.99192108
1.023292
1.0490039
1.0079147
1.0121232
1.0201416
1.0283762
1.0229507
1.0169302
1.019745
1.0184317
1.0157238
1.0159376
1.0197864
1.0184136
1.0171238
1.0224805
1.0190125
1.0103727
1.0006699
1.0072917
1.0039511
1.001127
1.002841
1.0105452
1.0127521
1.0055057
1.0098815
1.0223655
1.0190455
1.010491
1.0104438
1.0078282
1.0007689
1.0006479
1.0023109
0.99943253
0.99932893
0.99765882
0.997765
0.99012213
0.98187396
0.98491592
1.0056268
1.0264974
1.0225925
0.99893891
0.98659668
0.99874315
1.0185222
1.0262694
1.014344
0.99212105
0.97451414
0.969821
0.98241256
1.0069713
1.03077
1.0079218
1.0117947
1.0201113
1.0285806
1.0234932
1.0161659
1.0203886
1.018348
1.0172817
1.0146375
1.0204263
1.0204828
1.0174052
1.022527
1.0190234
1.0129816
0.99885372
1.0073163
1.0026122
0.99789094
1.0025833
1.0117304
1.0131339
1.005241
1.0086714
1.0211773
1.0183852
1.0099011
1.009642
1.0070336
0.99925608
0.99859273
1.0044747
1.0058588
1.0039732
0.99620777
0.99021375
0.9870523
0.98614937
0.98987905
1.0069469
1.0234277
1.0196109
0.99863073
0.98607614
0.99506537
1.0126212
1.0265247
1.023148
1.0056736
0.98800504
0.9775649
0.97956744
0.99423609
1.0117331
1.0078344
1.0118154
1.0196461
1.0278335
1.0238249
1.0161618
1.0203629
1.0179473
1.0184997
1.013787
1.0212287
1.0224696
1.0183968
1.0219446
1.0184804
1.0151498
0.99904406
1.0067509
1.0013086
0.99540775
1.0015064
1.0116816
1.0135567
1.0057808
1.0083475
1.0196081
1.0171425
1.0092375
1.0094837
1.0071759
0.99833117
0.99579495
1.0036633
1.0103589
1.0091016
0.99674361
0.98381483
0.9818554
0.98846165
0.99684365
1.0104693
1.0220172
1.0168386
0.99788622
0.98732381
0.99258918
1.0063159
1.0224582
1.026858
1.0167406
1.0014228
0.98893936
0.98389874
0.98741656
0.99636444
1.0076964
1.0121316
1.0188756
1.0264164
1.0239601
1.0168274
1.0199131
1.0176079
1.0191889
1.0136966
1.0219626
1.0240403
1.0197461
1.0211053
1.0177696
1.016456
1.000705
1.005788
1.0002753
0.99450733
1.0004985
1.0106086
1.0134381
1.0067067
1.0088477
1.0182787
1.0156179
1.0085936
1.0099105
1.0085269
0.99847005
0.99303059
1.0005654
1.0123253
1.0136224
0.99871232
0.97912815
0.97480467
0.98818629
1.0038203
1.0165368
1.0236152
1.0144958
0.99664824
0.98922098
0.99174722
1.0015006
1.0158677
1.0255798
1.0235524
1.0135463
1.0018702
0.99296454
0.988128
0.9870189
1.0075633
1.0125841
1.0179852
1.0246553
1.0239543
1.017994
1.0192644
1.0173991
1.0192991
1.0144737
1.0225246
1.0249411
1.0210573
1.0202694
1.0171912
1.0170063
1.0030398
1.0046548
0.9994871
0.99540567
1.0000442
1.0088694
1.012601
1.0074475
1.0098218
1.0173367
1.0140967
1.008092
1.0109686
1.0108495
0.9997996
0.99097034
0.99622543
1.0117779
1.0170083
1.0017303
0.97625562
0.96733609
0.98498325
1.0088227
1.0241942
1.027551
1.0131437
0.99538051
0.99049281
0.99253501
0.99903286
1.0093255
1.0205885
1.0253079
1.0222015
1.014642
1.0048928
0.99398845
0.98431926
1.0074856
1.0130555
1.0170915
1.0228413
1.0238453
1.0194437
1.0186244
1.0173135
1.0188637
1.0160357
1.0229257
1.0251133
1.0220577
1.0196619
1.0169688
1.016807
1.005446
1.0034691
0.99914306
0.99762625
1.0005276
1.0067982
1.0113447
1.0079293
1.0108959
1.016794
1.0128571
1.0076729
1.0122287
1.0136962
1.0021445
0.98992627
0.99170588
1.0091432
1.0190317
1.0053553
0.97529871
0.96060351
0.97907376
1.0109094
1.032303
1.0335685
1.0131416
0.99438753
0.99096476
0.99473308
0.99910342
1.0047599
1.0137346
1.0221087
1.0262475
1.0249885
1.0173222
1.0035904
0.98745961
1.0073928
1.0135002
1.0162545
1.0211802
1.0236408
1.0210048
1.0180952
1.0173319
1.0180313
1.0180548
1.0231757
1.0247698
1.0226722
1.0192289
1.017139
1.0161674
1.0075198
1.002287
0.99913545
1.0005446
1.001613
1.0047182
1.0096152
1.0080447
1.0117221
1.0166478
1.0121186
1.0072636
1.0134094
1.0167451
1.0052771
0.98991568
0.9875558
1.0049881
1.0198702
1.0091386
0.97597975
0.95565773
0.97151951
1.009148
1.0397995
1.0410305
1.0152383
0.99409935
0.99071303
0.99683698
1.0009279
1.0027975
1.0072293
1.0159004
1.0260818
1.0318052
1.0286519
1.0151698
0.99506377
1.007358
1.0139007
1.0155235
1.0198049
1.0234064
1.0225299
1.0177163
1.0174177
1.0170452
1.0201438
1.0232902
1.0241791
1.0229475
1.0189429
1.0175945
1.015455
1.0092244
1.0011933
0.99924577
1.0036466
1.0029875
1.0030826
1.007665
1.0077309
1.012381
1.0167471
1.0117205
1.0072274
1.0143608
1.0196732
1.0087364
0.99075498
0.98423412
1.0006303
1.0193583
1.0122972
0.97796475
0.95238515
0.96358413
1.0043156
1.0449799
1.0482578
1.01972
0.99415708
0.98981507
0.99776753
1.0030028
1.0026826
1.0024521
1.0087411
1.0220991
1.0341583
1.0368967
1.0261871
1.0051101
1.0073164
1.0142484
1.0149545
1.0187413
1.0231924
1.0238342
1.0174762
1.0174883
1.0161583
1.0219456
1.0233781
1.0235515
1.0230282
1.0187417
1.0181862
1.0148886
1.0106265
1.0003286
0.99930994
1.0063294
1.004397
1.0020533
1.0057735
1.0072186
1.0123939
1.016916
1.0114431
1.0067872
1.0145397
1.0220159
1.012057
0.99222485
0.98190709
0.99701011
1.0184053
1.0152915
0.98097224
0.95099433
0.95642773
0.9980157
1.0472805
1.0564724
1.0252818
0.99502148
0.98844208
0.99707935
1.0047089
1.0052154
1.0008852
1.0033481
1.0160148
1.0325707
1.0419337
1.0353135
1.0157559
1.0073299
1.0144776
1.0145821
1.0180637
1.0230342
1.0247995
1.0173471
1.0175222
1.0154849
1.0231965
1.0233851
1.0230805
1.0230397
1.0186065
1.0187077
1.0145012
1.0115565
0.99971222
0.99917584
1.0082362
1.0056726
1.0016154
1.0048233
1.0065532
1.0126483
1.0172257
1.0116666
1.0064505
1.0143819
1.023631
1.0152281
0.9943106
0.98006393
0.99241774
1.0167706
1.0181842
0.98494576
0.95079198
0.94858725
0.988944
1.0454152
1.0646085
1.0334242
0.99831692
0.98620604
0.99385228
1.0043874
1.0064445
1.001108
1.0001332
1.0096533
1.0279933
1.0430885
1.0428888
1.0262967
1.0072796
1.0145547
1.0143776
1.0177174
1.0229194
1.0252962
1.0173764
1.0176144
1.0151106
1.0238205
1.0233813
1.0228557
1.0231044
1.0184967
1.0190855
1.0142978
1.0122631
0.99984582
0.99878628
1.0091531
1.0062058
1.0014372
1.003878
1.0059474
1.0118407
1.0173556
1.0119264
1.0062407
1.0136946
1.0236943
1.0173429
0.99750205
0.98102891
0.98976461
1.0131971
1.0198984
0.99084617
0.95600689
0.946979
0.97980926
1.0340243
1.0618719
1.0406493
1.0062839
0.98984904
0.99230007
1.0033404
1.0061781
1.0023524
0.99931286
1.0048055
1.021047
1.0375034
1.0431581
1.0334828
1.0044733
0.99349793
0.98321462
0.97518316
0.97022817
0.97012662
0.9761111
0.98810476
1.0053198
1.0255772
1.0444467
1.0582251
1.0631751
1.0550635
1.0405344
1.0220873
1.0015469
0.98147746
0.96458685
0.95562601
0.96212658
0.97851413
0.98669208
0.9734702
0.95376636
0.96804227
1.0032724
0.96277214
0.95155135
0.94747834
0.9474519
0.95162646
0.9604991
0.9735406
0.98896196
1.0043808
1.017557
1.0260548
1.0298631
1.02667
1.0172718
1.0055288
0.99456804
0.99016181
0.99310668
1.005081
1.0192011
1.0276466
1.0161
0.96890687
0.90549575
0.88164455
0.93005162
1.0352409
0.93919986
0.93639296
0.94077465
0.94813795
0.95842797
0.96999001
0.98122664
0.99009085
0.99518408
0.99562391
0.99084987
0.9832336
0.97426035
0.96288204
0.95497346
0.95156039
0.9589665
0.98425781
1.0259821
1.0715409
1.0894233
1.0606643
0.9782827
0.88497765
0.85342789
0.901831
1.0108117
0.94883106
0.95446979
0.96787802
0.97861547
0.98825897
0.99498838
0.99726819
0.99490113
0.98841621
0.97845292
0.96611843
0.95283267
0.93845726
0.92597822
0.91754462
0.91783284
0.93174016
0.9642047
1.0143734
1.067134
1.0919596
1.0703883
1.0050238
0.9189374
0.88244636
0.90856508
0.97008537
0.99288289
1.0051994
1.0141384
1.0195281
1.0223087
1.0205033
1.0138532
1.0032807
0.99050174
0.97694863
0.96323182
0.94895571
0.93412737
0.92168211
0.91486537
0.91649603
0.93051017
0.95486588
0.98249591
1.0086119
1.0211476
1.0159834
1.0058571
0.98509247
0.9648333
0.96052317
0.94796495
1.0468548
1.0578755
1.058792
1.0548455
1.0472535
1.0371715
1.0255784
1.0137289
1.0017665
0.99034584
0.97879299
0.96882149
0.95879263
0.95129017
0.94965137
0.95355356
0.96194826
0.96542648
0.95745495
0.93901428
0.92597209
0.92577897
0.96135326
1.0270998
1.0720989
1.0467906
0.9621842
1.0733312
1.075361
1.0668205
1.0591432
1.0501291
1.0396971
1.0295761
1.0205893
1.0123764
1.0051612
0.9998534
0.99897683
1.0023704
1.0084715
1.0157182
1.0199204
1.0133633
0.98845664
0.94768589
0.90019144
0.86338417
0.86075557
0.90443326
1.0068224
1.1198552
1.1245212
1.0090757
1.0542355
1.0470923
1.0391077
1.0314517
1.0242124
1.0184981
1.0145209
1.0114523
1.0095166
1.0104773
1.016188
1.0283541
1.047396
1.0688485
1.0848003
1.0837386
1.0635382
1.0186364
0.96262867
0.90390887
0.85712062
0.84596345
0.87889828
0.95886795
1.0657267
1.106494
1.048296
1.010699
1.0031117
0.99667668
0.99205733
0.98856125
0.98571068
0.98474981
0.98707804
0.99397941
1.0062099
1.0251552
1.0494268
1.0761538
1.0986511
1.1091863
1.1025076
1.0799307
1.0426911
0.99829234
0.94902318
0.90787234
0.89054023
0.8987921
0.92731337
0.96179778
0.99301377
1.006638
0.97410301
0.96690103
0.96322027
0.96101685
0.96012593
0.96125873
0.96531636
0.97253584
0.98462483
1.002916
1.0261331
1.0499866
1.069434
1.0798839
1.0788164
1.0670135
1.0491195
1.0349177
1.0233834
1.0155825
1.0061891
0.98891672
0.96384419
0.92809952
0.88472136
0.87104204
0.90191108
0.95029261
0.94752994
0.94789768
0.94959048
0.95333911
0.9594716
0.9685636
0.98044721
0.99498318
1.0097293
1.0211868
1.0280301
1.0295041
1.0249126
1.0146653
1.002723
0.99589837
1.0002082
1.0195284
1.0568242
1.1010107
1.1162009
1.0657185
0.96624379
0.8602968
0.80013062
0.81524158
0.94651224
0.94813315
0.9544852
0.96210012
0.97157337
0.9823104
0.99347096
1.003502
1.0099624
1.011297
1.0068022
0.99725887
0.98347481
0.96692836
0.95352271
0.947232
0.95151612
0.96865055
1.0034193
1.0602453
1.1310871
1.1832195
1.1613297
1.0448628
0.89644598
0.79692254
0.79027982
0.97238709
0.97947188
0.9886196
0.99775809
1.0064755
1.0138764
1.0182817
1.0180803
1.0121233
1.000136
0.98440497
0.96652622
0.94903063
0.93160091
0.92080853
0.91934685
0.9313811
0.95901115
1.0004949
1.0476906
1.0963524
1.1376759
1.1508455
1.1138262
0.99790819
0.87875669
0.83886867
1.026289
1.0360343
1.0415089
1.0439202
1.0426567
1.0373526
1.0282186
1.015758
1.0000543
0.9821086
0.96394619
0.94612134
0.93101745
0.92356598
0.92268687
0.93014606
0.9476866
0.97382611
1.0021491
1.0266021
1.0418236
1.044518
1.0440177
1.071327
1.0915089
1.0464136
0.97476238
1.0780717
1.0830666
1.0801725
1.0736723
1.0632866
1.0484802
1.0306844
1.0109758
0.99095756
0.97175866
0.95414435
0.94069177
0.93610389
0.9401536
0.95299505
0.97193214
0.99027938
1.0030271
1.0057113
0.99885579
0.98477277
0.96105424
0.94887509
0.9705333
1.0691529
1.1963769
1.1838589
1.0867114
1.0833225
1.0747082
1.0649422
1.0534185
1.0396851
1.0243422
1.0084978
0.99292691
0.97864025
0.96754199
0.96336945
0.96807855
0.98135519
1.0030292
1.0251364
1.0363018
1.03077
1.0094885
0.97423134
0.93685479
0.90061897
0.89534263
0.91997102
1.0046837
1.1903672
1.3179813
1.0455111
1.0384891
1.0302353
1.0222089
1.0144839
1.0077743
1.0023191
0.99843568
0.99639329
0.9974927
1.0029513
1.0132436
1.0269467
1.0432194
1.0607756
1.0697967
1.062661
1.0399134
1.0020382
0.95641046
0.912509
0.87649969
0.87804705
0.91995768
0.98844443
1.1116895
1.2360875
0.98347118
0.97621288
0.97114725
0.96825855
0.96722924
0.96854075
0.97301365
0.98136514
0.99467012
1.014306
1.0401693
1.0686129
1.0944245
1.1105969
1.1152718
1.1004859
1.0696585
1.0285487
0.98458495
0.94279849
0.90666964
0.88597004
0.89976231
0.94919861
1.0106954
1.0587908
1.0713888
0.92890572
0.92221891
0.92043526
0.92160218
0.92613101
0.93502039
0.94869966
0.96793918
0.99399735
1.0272264
1.0655144
1.104177
1.1365888
1.1532599
1.1482317
1.1200856
1.0750336
1.0205168
0.96838117
0.92975689
0.90799367
0.91604971
0.95091665
1.0010288
1.0328334
1.0270072
0.96137745
0.89262486
0.88960614
0.89192311
0.89723535
0.90638262
0.92083007
0.94163138
0.96786846
1.0001802
1.0354107
1.0699878
1.1031306
1.1301616
1.1436275
1.1403898
1.1192839
1.0799818
1.0283966
0.97504366
0.93360124
0.92239056
0.94930466
1.0007671
1.0426939
1.0440905
0.99871935
0.90872694
0.88281171
0.88494217
0.89300101
0.90274286
0.91649327
0.93506704
0.95698101
0.98072213
1.0053862
1.028952
1.0494265
1.0652279
1.0751555
1.0824175
1.0842551
1.0806385
1.0685538
1.0447476
1.0098793
0.9775831
0.96889677
0.99087861
1.0290501
1.0488018
1.0333336
0.9731154
0.89253416
0.90969912
0.91719228
0.92755399
0.94040083
0.95555255
0.97057159
0.98436852
0.99575585
1.0035833
1.0069064
1.0063079
1.0025425
0.99657111
0.99327154
0.99622705
1.0074302
1.0243045
1.0397611
1.0500607
1.0563901
1.0574878
1.056534
1.0460808
1.0259182
0.99092751
0.94479126
0.89175916
0.98859188
0.99705002
1.0052109
1.012284
1.016915
1.0176439
1.0139313
1.0050732
0.99115158
0.97287641
0.95264719
0.93276222
0.91543712
0.90527489
0.90644857
0.92230881
0.95444682
1.0024623
1.0639802
1.1265399
1.1604949
1.1455563
1.0844633
1.0120228
0.94766493
0.90266375
0.88765213
1.105678
1.1135659
1.1126588
1.1048405
1.0898445
1.0686433
1.0426101
1.0129272
0.97979881
0.94371576
0.90699383
0.87388735
0.84840685
0.83398264
0.83236886
0.84754382
0.88558421
0.95236085
1.045211
1.1452587
1.2188259
1.2244252
1.149206
1.0372808
0.93778998
0.87666139
0.87368023
1.2059705
1.2120564
1.2022847
1.1834227
1.155845
1.1196749
1.0766796
1.0293478
0.98026679
0.93169294
0.88521118
0.84311762
0.80995847
0.78966661
0.78554556
0.80197911
0.84317137
0.91321398
1.0053405
1.1098624
1.2016468
1.2370539
1.1993608
1.0945882
0.97839267
0.89326601
0.87516087
1.2384185
1.2381792
1.2255206
1.2063901
1.1801067
1.1461994
1.1058576
1.0595879
1.0072384
0.95125796
0.89962852
0.85169218
0.81301378
0.78803134
0.78218393
0.80025922
0.83905954
0.89565265
0.9652902
1.0473649
1.1225028
1.1725712
1.1795494
1.1341228
1.04462
0.95283812
0.90822115
1.1825893
1.1741874
1.1653039
1.156699
1.1455024
1.1308333
1.1112835
1.0848569
1.0501927
1.0066498
0.95620301
0.90885642
0.86446875
0.83382817
0.82267386
0.83376496
0.86409039
0.90411583
0.94504119
0.98649182
1.0245973
1.0669968
1.0906272
1.1007213
1.0781324
1.0259584
0.97455507
1.0642047
1.0606138
1.0571088
1.0571442
1.0606132
1.0655157
1.0702005
1.0724404
1.0693234
1.0594321
1.0387622
1.0037702
0.96566994
0.93359116
0.91344717
0.90972964
0.91924788
0.9313687
0.94130223
0.94630165
0.94427778
0.95694104
0.9768718
1.0069227
1.0389277
1.0554743
1.0496033
0.95731988
0.95469764
0.95513282
0.95975817
0.96872092
0.98265331
1.0006273
1.0225281
1.0468329
1.0713472
1.0917627
1.0992318
1.0892168
1.0684303
1.0448814
1.0217897
0.99862811
0.97177228
0.94474992
0.9154372
0.88336307
0.8691653
0.88021668
0.90642704
0.95542403
1.021747
1.0881554
0.8933237
0.89100718
0.89207159
0.89755062
0.90771289
0.92296344
0.94500072
0.97372838
1.0084777
1.0495004
1.0967417
1.1446306
1.1794829
1.1925218
1.181132
1.1459951
1.0896493
1.021316
0.95415918
0.89182493
0.84033684
0.8105349
0.80664833
0.82804208
0.876131
0.9614526
1.0877461
0.86728731
0.866994
0.86894225
0.87425288
0.88354131
0.89756302
0.91823142
0.94592221
0.98150132
1.0260399
1.080251
1.14218
1.205032
1.2513127
1.2647308
1.2363055
1.1667289
1.0715427
0.97157062
0.88451274
0.82018518
0.77810032
0.76105368
0.77499214
0.82073135
0.91302264
1.0700507
0.86164893
0.8626582
0.86561753
0.87126005
0.87990038
0.89252766
0.91062488
0.93556747
0.96884091
1.011453
1.0636289
1.1242988
1.1905701
1.2515305
1.2862306
1.2756971
1.2130708
1.1122345
0.99757361
0.89569704
0.81938186
0.76731058
0.74438743
0.74946163
0.79187668
0.88307715
1.0523971
0.85746036
0.85886054
0.86236462
0.86872383
0.87798812
0.89080494
0.90860611
0.93223113
0.96266988
1.0007531
1.0477071
1.1032145
1.1641975
1.224728
1.2684284
1.2760431
1.2346248
1.1490395
1.038659
0.92726163
0.83722886
0.77555406
0.74351698
0.74183171
0.78028739
0.87004101
1.0352562
0.85167343
0.8531561
0.85684347
0.86346799
0.87305778
0.88607703
0.90408245
0.92715417
0.95627895
0.99260847
1.0360623
1.0864968
1.1419427
1.1981336
1.2444607
1.2638967
1.2426427
1.1796635
1.0781826
0.96580032
0.86634659
0.79360646
0.75275624
0.7449985
0.77668516
0.85941838
1.0057984
0.8433701
0.84503254
0.84928271
0.85662687
0.86741393
0.88179789
0.9009822
0.92508652
0.95475239
0.99089959
1.0323944
1.0786502
1.1300292
1.1825632
1.2275675
1.2532464
1.247693
1.1960996
1.1075112
0.99712556
0.89078599
0.80983554
0.75923976
0.74797967
0.77274053
0.84428345
0.96904598
0.83832913
0.84067675
0.84591378
0.85458004
0.86652907
0.88206499
0.90188635
0.92642499
0.95653149
0.99282664
1.0340576
1.0797497
1.128382
1.1801553
1.2242259
1.2509368
1.2487604
1.2046295
1.1161984
1.0123575
0.90451316
0.81787846
0.7642416
0.74600062
0.76583473
0.82890768
0.93859635
0.83977647
0.8426731
0.84867973
0.85785742
0.87020543
0.8859085
0.9051865
0.92865255
0.95714849
0.99344998
1.0352593
1.0819991
1.131501
1.1806019
1.2254456
1.2500939
1.2473907
1.2019416
1.12137
1.0167546
0.90967322
0.82179125
0.76770279
0.74749624
0.76541393
0.82232622
0.92150879
0.8462057
0.84861722
0.85430296
0.8627019
0.87407912
0.88874706
0.90725912
0.93023076
0.95871007
0.9931175
1.0319587
1.0793203
1.131271
1.1793509
1.2201075
1.2449799
1.2415215
1.1987247
1.1200599
1.0182
0.91330571
0.82857419
0.77596046
0.7590203
0.77586471
0.83041507
0.9209409
0.85833289
0.86084675
0.86634986
0.87416479
0.88424743
0.89669072
0.91218853
0.93232415
0.9584131
0.990399
1.0269053
1.0692538
1.1196699
1.1683954
1.2064071
1.2306966
1.2277128
1.1881424
1.1150194
1.0199702
0.92168148
0.84313827
0.79419943
0.7781088
0.79595254
0.84825332
0.92875079
0.87961782
0.88151289
0.88572422
0.8924254
0.90098986
0.91106845
0.92323785
0.9391758
0.96038119
0.98740416
1.0193835
1.0582084
1.1034908
1.1469776
1.1827161
1.2045894
1.202151
1.1685044
1.1044534
1.0182953
0.93138709
0.86217743
0.82084763
0.80790531
0.82642029
0.87539038
0.94515678
0.9148795
0.91570404
0.91777462
0.9211714
0.92583645
0.93177506
0.93859608
0.94916506
0.96533462
0.98634301
1.0122957
1.0486625
1.0855706
1.1205532
1.1511618
1.1676954
1.1639168
1.1352843
1.0821188
1.0123839
0.94507335
0.89311136
0.86248177
0.85403683
0.86860441
0.90563105
0.95915513
0.9535688
0.9534526
0.95353583
0.95367934
0.95399032
0.95464502
0.95617522
0.96117529
0.97145474
0.98738003
1.0096898
1.0375102
1.0666546
1.0958495
1.1186384
1.1279101
1.1204113
1.0945322
1.0513719
1.0019253
0.95941612
0.92993792
0.91503208
0.91289902
0.92209633
0.9429349
0.97054373
0.98691617
0.98592808
0.98427269
0.98166183
0.97835787
0.97526524
0.97377459
0.97501421
0.98015134
0.99011743
1.0084415
1.0279417
1.0500531
1.0717507
1.0867353
1.0897961
1.0794317
1.0553163
1.0209446
0.9883465
0.96771173
0.96136145
0.96466932
0.97314626
0.98158752
0.98924699
0.99791632
1.0116191
1.0105611
1.0089551
1.0066301
1.0038114
1.0011903
0.9990038
0.99807534
0.9992354
1.0028044
1.0104821
1.019051
1.0293031
1.0393528
1.0462339
1.0453409
1.0358384
1.0173875
0.9940685
0.97634464
0.97277286
0.98482343
1.0052972
1.0254691
1.0367096
1.0393392
1.036082
1.0352148
1.0346859
1.0339198
1.0331831
1.0324769
1.0314046
1.0295124
1.0265253
1.0225438
1.0181049
1.0133238
1.0102668
1.0081069
1.0077358
1.0072549
1.0023413
0.99339176
0.98072634
0.96760497
0.96082118
0.96961606
0.99467188
1.0292576
1.0612297
1.0803207
1.0823683
1.0678958
1.0655961
1.0653488
1.0646082
1.0632965
1.0611448
1.057761
1.0522663
1.0442659
1.0344361
1.0234707
1.0124545
1.0026644
0.99402442
0.98690841
0.98073622
0.97287047
0.9630827
0.95260269
0.94382583
0.94253202
0.95485421
0.98456669
1.0277313
1.0728767
1.1071696
1.1212113
1.1147692
1.060567
1.0623627
1.0641342
1.0655609
1.0654134
1.0629142
1.058026
1.0510666
1.042548
1.0320845
1.0204735
1.0088002
0.99804682
0.98907806
0.97954395
0.97009582
0.95838215
0.94530405
0.93478257
0.92821576
0.93184765
0.95402031
0.99207041
1.0394075
1.0865085
1.1237396
1.1383479
0.9892782
0.99352375
0.99948642
1.0067815
1.0142642
1.0211501
1.0267761
1.0317361
1.0364091
1.0395965
1.0414805
1.0416904
1.0402998
1.0361985
1.0281897
1.0152136
0.99834729
0.97830357
0.95583167
0.93445156
0.92524922
0.93254417
0.95446822
0.98565193
1.0225899
1.0602052
1.0883139
0.94117621
0.94450326
0.94981109
0.9569761
0.967103
0.98001587
0.99503566
1.011392
1.028418
1.0455939
1.0620058
1.0776752
1.0916084
1.0996802
1.0984739
1.0880516
1.0656255
1.0323346
0.99255342
0.95413129
0.92758561
0.91486859
0.91626593
0.92544811
0.94438607
0.98191589
1.0175487
0.95010644
0.9495248
0.95141634
0.95604685
0.96327014
0.97401261
0.98736656
1.0029266
1.0205497
1.0401193
1.0622949
1.0843521
1.1063913
1.1237424
1.1345737
1.1312435
1.110425
1.0726112
1.024963
0.97666066
0.9367218
0.90831848
0.89405373
0.89340907
0.90985972
0.95191595
0.99728806
0.98635006