/*--------------------------------*- C++ -*----------------------------------*\
| =========                 |                                                 |
| \\      /  F ield         | OpenFOAM: The Open Source CFD Toolbox           |
|  \\    /   O peration     | Version:  2406                                  |
|   \\  /    A nd           | Website:  www.openfoam.com                      |
|    \\/     M anipulation  |                                                 |
\*---------------------------------------------------------------------------*/
FoamFile
{
    version     2.0;
    format      ascii;
    arch        "LSB;label=32;scalar=64";
    class       volScalarField;
    location    "27";
    object      rho_0;
}
// * * * * * * * * * * * * * * * * * * * * * * * * * * * * * * * * * * * * * //

dimensions      [1 -3 0 0 0 0 0];

internalField   nonuniform List<scalar> 
62344
(
1.0034368
1.0051681
1.0080107
1.0134509
1.0112465
1.0078237
1.0111453
1.011849
1.0107823
1.0100601
1.0117707
1.0111062
1.0179008
1.0150744
1.0093012
1.0112475
1.0127524
1.0119898
1.0037818
1.0076373
1.0149984
1.0073617
1.0148329
1.0175634
1.002392
1.003972
1.016156
1.009546
0.99919402
1.0047906
1.0188765
1.0210275
1.0108567
0.99630361
0.99843334
1.0178842
1.0434072
1.0403039
1.0124796
0.99089004
0.99007688
1.0030539
1.0231488
1.0474739
1.065755
1.0635242
1.0422858
1.0231743
1.0185905
1.0248056
1.0239423
1.0119444
0.99478275
0.98421522
0.99376018
1.0038396
1.0064832
1.0067422
1.0129863
1.0137575
1.0075161
1.0098666
1.0106222
1.0124173
1.0104484
1.0150832
1.0127198
1.0160262
1.0184749
1.0140062
1.0113198
1.0066513
1.011224
1.0077035
1.0063757
1.0139175
1.0078075
1.0109166
1.0141095
1.0044466
1.0078783
1.0172658
1.0086796
0.99987524
1.0064978
1.0154467
1.0130002
1.004138
0.9955253
0.99650523
1.015997
1.0360321
1.0348557
1.0102779
0.99039421
0.9886655
1.0018996
1.026454
1.0593537
1.0808841
1.0707199
1.0357459
0.9989113
0.98566219
1.0016271
1.0333232
1.058411
1.0639715
1.0571088
1.0390107
1.0035446
1.0080316
1.0069506
1.0108373
1.0133529
1.0098997
1.0080521
1.0087678
1.0113883
1.0115909
1.0171085
1.018482
1.0152394
1.0183007
1.0174411
1.0121465
1.0037593
1.0053317
1.0076373
1.0077057
1.0127204
1.0080821
1.0095168
1.0103361
1.0046345
1.0106681
1.0185358
1.0082186
0.99921127
1.0079731
1.0143341
1.0096859
1.0010524
0.99370144
0.99622307
1.0153308
1.0342198
1.0304556
1.0093521
0.98942209
0.99041608
1.0073334
1.0312336
1.0556193
1.0688561
1.0564628
1.0249766
0.99437527
0.9798084
0.98881796
1.0236509
1.0739566
1.1107366
1.1148472
1.0845252
1.003169
1.008456
1.0079462
1.01002
1.0115217
1.0117956
1.007561
1.0081653
1.0093025
1.0126739
1.0168729
1.019982
1.0149751
1.0156646
1.0167202
1.0114462
1.0070619
1.0029822
1.0059355
1.007808
1.0107671
1.00798
1.0105897
1.0099572
1.0055604
1.0122812
1.0173678
1.0066244
0.99950975
1.0087862
1.0146228
1.007274
1.0008622
0.99589495
0.99938968
1.014155
1.0253109
1.0205121
1.0039361
0.99079278
0.99451221
1.0145957
1.0381698
1.0498334
1.047071
1.0348384
1.0173996
1.000946
0.99308563
0.99964086
1.0232042
1.0617637
1.1016007
1.1178853
1.1020045
1.0032265
1.0078161
1.009246
1.0118924
1.010236
1.0120323
1.0082936
1.008614
1.0073176
1.0129004
1.0140467
1.0165211
1.0144687
1.0132663
1.0137426
1.0097718
1.0103273
1.0055007
1.0045278
1.0071686
1.0083259
1.0068984
1.012142
1.0119823
1.0084663
1.0143359
1.0148105
1.0032984
1.000112
1.0099249
1.0145151
1.0047548
0.99863204
0.99925621
1.0037164
1.0141706
1.017338
1.0106281
0.99830303
0.99108621
0.999285
1.0202081
1.0394361
1.0402947
1.0257004
1.0134135
1.0126084
1.0140721
1.0170112
1.0240874
1.0336656
1.044716
1.0565684
1.0684085
1.0705177
1.0035212
1.0069522
1.0102229
1.0146437
1.0109947
1.0112378
1.0094377
1.0094518
1.0069552
1.0115493
1.011243
1.0115626
1.0135855
1.0121105
1.0108461
1.0089485
1.0099379
1.008095
1.0038363
1.0070674
1.0074054
1.0056572
1.0128064
1.0136616
1.0112185
1.0165746
1.012744
0.99979558
1.0001026
1.0125945
1.014238
1.0022271
0.9946497
0.99886987
1.0083398
1.0162833
1.0132518
1.0035245
0.99227034
0.99046661
1.0043052
1.0252207
1.0394892
1.0307634
1.0083265
0.99735545
1.006184
1.0247062
1.0390757
1.0461379
1.0437005
1.0305109
1.0166152
1.0126061
1.0227252
1.0037242
1.0064151
1.0102786
1.0159641
1.0130415
1.0098397
1.0107468
1.0101111
1.0084842
1.009795
1.0100935
1.0098272
1.012947
1.0125919
1.0096955
1.0091222
1.0063509
1.008755
1.0029783
1.0070707
1.0079601
1.0052143
1.0127876
1.0137058
1.0121229
1.0183904
1.0127001
0.99849649
1.0005528
1.0151324
1.014998
1.0002069
0.98951487
0.99563815
1.0115226
1.0200816
1.0125446
0.99874424
0.98821966
0.99035921
1.0077039
1.0302932
1.0399649
1.0247664
0.99888341
0.98819755
1.000675
1.0270595
1.0516138
1.0610075
1.0480917
1.0207758
0.99396111
0.98004396
0.9863638
1.0037086
1.0065026
1.0095599
1.0149934
1.0145286
1.0087754
1.0114144
1.0100765
1.0104952
1.0087746
1.0102423
1.0122867
1.0126946
1.0135795
1.01012
1.0101475
1.0026952
1.0071609
1.0024513
1.0069668
1.008904
1.0061387
1.0133086
1.0124074
1.0104845
1.0185566
1.013855
1.0001899
1.0023727
1.0164064
1.0163736
0.99988371
0.98544795
0.99119748
1.0127439
1.0244163
1.01487
0.99699969
0.9864504
0.99069939
1.0104436
1.0340946
1.0409579
1.0225109
0.99596849
0.98525923
0.99650102
1.0248813
1.0548325
1.0658905
1.0506629
1.0195409
0.99015922
0.97309138
0.97422886
1.0035678
1.007144
1.008694
1.0126514
1.0147599
1.0088046
1.0109616
1.0094128
1.0117037
1.0086551
1.0113631
1.0159182
1.013182
1.0138683
1.0119557
1.0115975
1.0013939
1.0044605
1.0020409
1.0068832
1.0091359
1.0070824
1.0144726
1.0111126
1.0076056
1.0163915
1.0145518
1.0030508
1.0052661
1.016892
1.0167229
1.0008338
0.98328681
0.9868056
1.0114873
1.0279607
1.0186486
0.99703326
0.98583311
0.99210048
1.0130355
1.0368845
1.0415857
1.022969
0.99917785
0.98753388
0.9963971
1.0220192
1.0501714
1.0622718
1.0499232
1.0249068
1.0010761
0.98659217
0.985651
1.0033942
1.0079948
1.0082205
1.0105731
1.0139624
1.0098505
1.009925
1.0086525
1.0116664
1.0094007
1.0128063
1.0181837
1.0142242
1.0133186
1.0134051
1.0123479
1.0028874
1.0019002
1.0020428
1.0066962
1.0079732
1.0072762
1.015229
1.0103573
1.0053482
1.0131092
1.0137603
1.0057007
1.008129
1.0163765
1.015433
1.0018392
0.98294535
0.98347567
1.0085611
1.0291436
1.0222707
0.99833375
0.98537926
0.99317369
1.0155884
1.0378131
1.0405304
1.0245859
1.0034266
0.99342903
0.99996991
1.0182842
1.0401529
1.0516391
1.0458181
1.0306976
1.0170592
1.0093609
1.0093874
1.0033724
1.0089364
1.0084101
1.0096366
1.0131657
1.0116253
1.0089564
1.0080865
1.0104962
1.0104805
1.0140034
1.0182696
1.0150254
1.012229
1.0137699
1.0117064
1.0065189
1.0005706
1.0021956
1.0063021
1.0054888
1.0061214
1.0152253
1.0103108
1.0045595
1.0107334
1.0118538
1.0070821
1.0098308
1.0149298
1.013129
1.002443
0.98398674
0.98171346
1.0048628
1.0278272
1.0243296
1.0000111
0.98490917
0.99360392
1.0171605
1.0373074
1.0389249
1.0254787
1.0085888
1.0012765
1.0056923
1.0161983
1.0282102
1.0359477
1.0372491
1.0345367
1.0321898
1.0320475
1.034085
1.0034532
1.0096462
1.0090519
1.010378
1.0129016
1.0134854
1.0084801
1.008257
1.0091324
1.0115995
1.0146653
1.0164672
1.0152872
1.0114126
1.012998
1.0098758
1.0094184
1.000511
1.0025449
1.0059561
1.0027779
1.0043156
1.0141828
1.0104421
1.0055394
1.0104981
1.0105276
1.007447
1.0106742
1.0131144
1.010469
1.0026144
0.98613135
0.98175497
1.0012979
1.0241108
1.0243422
1.001315
0.98480878
0.99328496
1.0171786
1.0363714
1.0366356
1.0235278
1.0115166
1.0088594
1.0131515
1.0175495
1.0178623
1.0174738
1.0231413
1.0337975
1.0431048
1.0511036
1.0561323
1.0035867
1.009878
1.0100863
1.0121328
1.0130516
1.014457
1.0087182
1.009193
1.0082054
1.012416
1.0147325
1.0139924
1.0149049
1.01135
1.0121278
1.0072431
1.0104854
1.0013554
1.0030566
1.0057171
1.0010297
1.0029175
1.012588
1.0101317
1.007447
1.0122564
1.0110508
1.0077544
1.010839
1.0114606
1.0081815
1.0025697
0.98878054
0.98360258
0.99837959
1.0188234
1.0225382
1.0022712
0.98482707
0.99159232
1.0158915
1.0351766
1.0345612
1.020299
1.0117223
1.0145249
1.0207779
1.0208193
1.0122942
1.0040602
1.0078281
1.0252126
1.0462273
1.0633178
1.0730023
1.0037081
1.0096804
1.0111518
1.0142837
1.013488
1.014346
1.0096162
1.0104692
1.0079823
1.0125711
1.0143569
1.0117942
1.0138912
1.0120572
1.0118543
1.0052294
1.0091029
1.0024198
1.0035423
1.005404
1.0005529
1.0027079
1.0108455
1.0089764
1.0088577
1.0148751
1.0129663
1.0085713
1.0110215
1.0102346
1.0064492
1.0029718
0.99255743
0.98679225
0.996892
1.0129985
1.0190832
1.0022702
0.98530904
0.99004709
1.0127312
1.0333113
1.0324823
1.0165577
1.0092103
1.0163231
1.0263974
1.0254748
1.0120719
0.99801928
0.99675686
1.012421
1.039198
1.0647978
1.081643
1.0038732
1.0091192
1.012053
1.0165085
1.0142728
1.0134164
1.0109001
1.0116145
1.0085595
1.0120937
1.0138952
1.010863
1.0125728
1.0131775
1.0121413
1.0045836
1.0062182
1.0034542
1.0038239
1.0045954
1.0009954
1.0039744
1.0097229
1.0072092
1.0091336
1.0168452
1.0149931
1.009429
1.0109672
1.0093524
1.0050875
1.0034833
0.99719046
0.99147261
0.99727403
1.0075676
1.0140635
1.0014329
0.98620021
0.98929822
1.0088209
1.0301802
1.0301703
1.013371
1.0053063
1.0146934
1.0288704
1.030239
1.0158746
0.99867623
0.99180747
1.0008726
1.025372
1.055279
1.0786271
1.0040321
1.0084911
1.0125952
1.0183163
1.0151372
1.0121826
1.0122168
1.0123653
1.0096865
1.0113508
1.0136006
1.01127
1.0113333
1.0141937
1.0127091
1.0055711
1.0027491
1.0042216
1.0036617
1.0029307
1.0015136
1.0059454
1.0095015
1.0055195
1.0082618
1.0174624
1.0160582
1.0098652
1.0102952
1.008586
1.0039486
1.0035214
1.0015322
0.99692315
0.99939802
1.0034881
1.0078498
0.99963018
0.98809315
0.98933817
1.0058657
1.0259307
1.0271023
1.0107636
1.0012954
1.0108066
1.0275526
1.0328702
1.0218387
1.0041763
0.99179845
0.99340238
1.0110506
1.0384167
1.0644313
1.0041556
1.0080035
1.0128256
1.0193463
1.0159348
1.011179
1.0132589
1.0127184
1.0110466
1.0105363
1.0134869
1.012642
1.0108325
1.014884
1.0130444
1.0077032
0.99996335
1.0044714
1.0029937
1.000532
1.0016439
1.0077021
1.0099101
1.0045055
1.0069003
1.01687
1.0159129
1.0096085
1.0092926
1.0078364
1.0028774
1.0027261
1.0047604
1.0025349
1.0026316
1.0014235
1.0015012
0.99700472
0.99075032
0.99110265
1.004633
1.0219185
1.0236608
1.0089722
0.99869162
1.0062748
1.022955
1.0325888
1.0271037
1.0113022
0.9971869
0.99220199
1.0010959
1.0217709
1.044931
1.0042207
1.0077532
1.0128341
1.0195173
1.0165274
1.0105979
1.0138005
1.0126773
1.0122715
1.0098075
1.0137295
1.0142715
1.0111904
1.0153722
1.0130229
1.0100052
0.998665
1.0043096
1.0019876
0.99800034
1.0012836
1.0086623
1.0104937
1.0044371
1.0058082
1.0155036
1.0148346
1.0088262
1.0084858
1.0072239
1.0020094
1.0013112
1.0060549
1.0074245
1.0066642
1.0012428
0.99603927
0.99351854
0.9928968
0.99463202
1.0053995
1.0191555
1.0201715
1.0077843
0.99760658
1.0029701
1.0166971
1.0292348
1.0302587
1.0186483
1.0050139
0.99661069
0.99752534
1.0091682
1.0256287
1.0041874
1.007835
1.0126244
1.0189801
1.0168116
1.0105914
1.0138247
1.0123123
1.0131414
1.0093587
1.0141359
1.0158034
1.0121209
1.0154398
1.0127319
1.0117733
0.9989424
1.0039785
1.0010525
0.99609977
1.0004217
1.0085627
1.0107586
1.0049007
1.0054823
1.0139337
1.0133204
1.0078178
1.0080406
1.0071679
1.0015116
0.99934825
1.0051067
1.0105743
1.0107349
1.0025261
0.99193052
0.98894344
0.9935174
0.99941437
1.0084744
1.0183481
1.017686
1.0064009
0.99795906
1.001348
1.0113321
1.024025
1.030143
1.0247212
1.0139085
1.0043379
1.0003143
1.0032791
1.0115832
1.0040937
1.0081522
1.01226
1.0179465
1.0168156
1.0110801
1.0134969
1.0119379
1.0135326
1.0093488
1.014561
1.016937
1.0132714
1.0151783
1.0122888
1.0126608
1.0002744
1.0035084
1.0003024
0.99548731
0.9995301
1.0075482
1.0104159
1.0054809
1.0058263
1.0127469
1.0118017
1.0069499
1.0079762
1.0079349
1.0017325
0.99742166
1.0023869
1.0114938
1.0140008
1.0046089
0.98932284
0.98369317
0.99220931
1.0040324
1.0135842
1.0201856
1.0166336
1.0049558
0.99894292
1.0011492
1.0081655
1.0188202
1.0275637
1.0282959
1.0222951
1.0141002
1.0079481
1.0049462
1.0049127
1.0039989
1.0085812
1.0118402
1.0166979
1.0166221
1.0119436
1.0130109
1.0116752
1.0134396
1.0098879
1.0149309
1.0174575
1.0143201
1.0146598
1.0118892
1.0127545
1.0020633
1.0029395
0.99968107
0.99612001
0.99923324
1.0059906
1.0094254
1.0057948
1.0065455
1.012102
1.0105559
1.0063206
1.0083789
1.0094721
1.0028502
0.99610307
0.99890614
1.0102846
1.0161789
1.0071369
0.9882117
0.97854087
0.98902641
1.0072075
1.0198766
1.0242842
1.016954
1.0040178
1.0000766
1.0022293
1.0073868
1.0148786
1.0236925
1.0289773
1.0284668
1.0242872
1.0184123
1.0116438
1.0053603
1.0039475
1.0090522
1.0114097
1.0154177
1.0163512
1.0130505
1.0125305
1.0115442
1.0129208
1.0109511
1.0152788
1.0174186
1.0151438
1.0140688
1.0116956
1.0121953
1.0039441
1.0023489
0.99938611
0.99781371
0.99980761
1.0042764
1.0081683
1.0059269
1.0074646
1.0120067
1.0098121
1.005989
1.0091987
1.0114786
1.0046747
0.99567256
0.9955419
1.0076699
1.0171789
1.0099017
0.988557
0.97442605
0.98445967
1.0081985
1.0261918
1.0303596
1.0185423
1.0039978
1.0008217
1.0042987
1.0086075
1.0130418
1.0195959
1.0266627
1.0313205
1.0324518
1.0292121
1.0213735
1.0107202
1.0039
1.0095405
1.0110022
1.0142641
1.0160829
1.0142874
1.0122014
1.0115766
1.0122023
1.0123649
1.0156652
1.0170699
1.0157319
1.0135409
1.0118738
1.0114423
1.0056983
1.0018422
0.99941778
1.0001884
1.0010663
1.0029147
1.0068405
1.0059975
1.008384
1.0124469
1.0097347
1.0060065
1.0101731
1.0137899
1.0070807
0.99613951
0.99273272
1.0041874
1.0172218
1.0126903
0.99021911
0.97193081
0.97932907
1.0063003
1.0315314
1.0373964
1.021597
1.0048451
1.0013355
1.0066317
1.011132
1.0131783
1.0163414
1.0226161
1.0310111
1.0378521
1.0386885
1.0320201
1.0190675
1.0038913
1.0100103
1.0106627
1.0133738
1.0159304
1.0156079
1.0120819
1.0118184
1.0115315
1.0139573
1.0161384
1.0167729
1.016226
1.0131979
1.0124335
1.0108257
1.0072923
1.0014955
0.99964028
1.0028291
1.0027535
1.002247
1.0056561
1.0059788
1.0094147
1.0132022
1.0102607
1.006506
1.0112573
1.0162181
1.0099995
0.9973413
0.99068032
1.0007017
1.0160566
1.014997
0.99251025
0.97072408
0.97456273
1.0019196
1.0348912
1.0434963
1.0261575
1.0061647
1.0015034
1.0078402
1.0136966
1.0147
1.0141728
1.0176287
1.027605
1.0391114
1.0453491
1.0416676
1.0288504
1.003908
1.0104318
1.0104779
1.0128251
1.0159806
1.0169159
1.0122319
1.0122472
1.0111286
1.0155004
1.0167372
1.0166693
1.0167492
1.013099
1.0132259
1.0105268
1.0087293
1.0013393
0.99983328
1.0051829
1.0045299
1.0021876
1.0046627
1.0058888
1.0098573
1.0139685
1.0108714
1.0068597
1.0119365
1.018292
1.0128295
0.9991305
0.98958962
0.99798852
1.0147357
1.0166829
0.99515571
0.97070023
0.97042012
0.99675518
1.0354659
1.0499438
1.0309035
1.0077873
1.0005761
1.007722
1.0152886
1.0176427
1.0146759
1.0139795
1.021957
1.0359807
1.0474622
1.0485961
1.0382336
1.0040726
1.0108976
1.0106152
1.0127313
1.0162584
1.018083
1.0125574
1.0127751
1.0109675
1.0166493
1.0172469
1.0167017
1.0172589
1.0131728
1.0139461
1.0104566
1.0097977
1.0013063
0.99981083
1.0066685
1.0060275
1.0024716
1.0043633
1.0056831
1.0104244
1.0145387
1.0116027
1.0071251
1.0119779
1.0197145
1.0154823
1.0012855
0.98927567
0.99525081
1.0129921
1.0185164
0.9980139
0.97159563
0.96463395
0.99001709
1.0325234
1.054061
1.0369936
1.0095862
0.99841649
1.0037984
1.0139565
1.0183696
1.0149475
1.0117171
1.015943
1.0286435
1.0431677
1.04887
1.042802
1.0044586
1.0113596
1.0110936
1.0130563
1.0166434
1.0188303
1.0129359
1.0132172
1.0109461
1.0172085
1.0174777
1.0166969
1.0176255
1.013247
1.0143762
1.0104234
1.0104602
1.0015929
0.99956475
1.0072717
1.0065977
1.00266
1.0039474
1.0053382
1.0098959
1.0146394
1.011942
1.0072155
1.011319
1.0195624
1.0168079
1.0037883
0.99054987
0.99412244
1.010351
1.0195603
1.0015626
0.97605384
0.96418832
0.98337001
1.0229717
1.0502746
1.0404219
1.0144924
0.9998344
1.000192
1.010011
1.0158445
1.0146805
1.0112587
1.0122416
1.0217067
1.0348592
1.0428054
1.040764
1.0260768
1.0236765
1.0168739
1.0082023
1.0017525
0.9986826
0.99996061
1.0068769
1.0201107
1.0395291
1.0613283
1.0794041
1.0891159
1.0858108
1.0750538
1.0602044
1.0424116
1.0234505
1.0045933
0.99502452
1.0051836
1.0304935
1.0545226
1.0605926
1.0388975
1.0283573
1.038066
0.99658808
0.99095387
0.98708923
0.98471357
0.98571215
0.98945587
0.99658792
1.0071794
1.0213124
1.0373839
1.0525894
1.06473
1.0688077
1.0646194
1.0568555
1.0490998
1.0455171
1.0428741
1.043123
1.0458562
1.0539267
1.057055
1.0392794
1.0028264
0.98095017
1.0043992
1.077389
0.97511537
0.97291518
0.9750832
0.97999391
0.98690654
0.99373184
1.0007127
1.0078896
1.0148969
1.0212218
1.0261506
1.0287333
1.0284775
1.0246842
1.0215988
1.021603
1.0292983
1.0462883
1.0712259
1.0987307
1.1117523
1.0966848
1.0438596
0.97779252
0.94962106
0.98096564
1.0708634
0.97560663
0.9796837
0.99125067
1.0009603
1.0079723
1.0116869
1.0122749
1.0113299
1.0095268
1.0069432
1.0043597
1.001364
0.99687707
0.99212186
0.98998957
0.99372342
1.00742
1.0340368
1.0731208
1.1145868
1.1363926
1.1210022
1.0674317
0.99587325
0.96311762
0.98371708
1.0435646
1.0042462
1.0145596
1.0258821
1.0336246
1.0360855
1.0330677
1.0269565
1.0192645
1.0118762
1.0058725
1.0016216
0.99704807
0.99147286
0.98619709
0.98352143
0.98739104
1.0012052
1.0239091
1.0517788
1.0821228
1.1008577
1.099497
1.0820234
1.0481098
1.0226776
1.0213811
1.0275925
1.0469343
1.0590886
1.0651808
1.0644521
1.0576928
1.048704
1.038951
1.029978
1.0233257
1.0204555
1.0192385
1.0183324
1.0144322
1.0104082
1.0092162
1.0121749
1.0209975
1.0291865
1.0311228
1.0280456
1.0301057
1.0361911
1.0605621
1.0969123
1.1142556
1.091397
1.0360105
1.0749776
1.0816
1.0806005
1.074778
1.0655202
1.0550361
1.0462836
1.0401443
1.0377475
1.0396236
1.0446769
1.0511621
1.0564536
1.0601574
1.0631245
1.0655674
1.0630077
1.0488429
1.02267
0.99225024
0.97257178
0.97800917
1.0168484
1.0998818
1.1806085
1.1699535
1.0720779
1.0685123
1.0677461
1.0652244
1.0588488
1.0518857
1.046611
1.0431785
1.0417431
1.0440687
1.0517769
1.0646788
1.0816737
1.1005563
1.1178634
1.1289486
1.1276196
1.1121107
1.0784373
1.0356826
0.99149671
0.95876917
0.95590751
0.99042578
1.0689979
1.1659121
1.1889666
1.115801
1.03733
1.0362262
1.0351494
1.031822
1.0287545
1.0264222
1.0256664
1.0283076
1.0372256
1.0534974
1.0771492
1.105923
1.1348145
1.1577625
1.1689909
1.1635572
1.1444007
1.1108087
1.0713764
1.0268762
0.99306969
0.983367
0.99938843
1.0407174
1.0934499
1.1195833
1.1095649
1.0101221
1.0080027
1.0092465
1.0087669
1.0086422
1.0091991
1.0106784
1.015577
1.0281959
1.0506216
1.0810269
1.1145603
1.1429698
1.1603803
1.1646198
1.1570359
1.1415072
1.1247509
1.1064312
1.0889651
1.072088
1.058176
1.0476216
1.037566
1.0222612
1.0197506
1.0373699
0.99321484
0.99423099
0.99779522
1.0005142
1.0034147
1.0061857
1.0103857
1.018734
1.0342315
1.056724
1.0821471
1.1059059
1.1226516
1.1293997
1.1267081
1.1185926
1.1119575
1.1119951
1.1208784
1.1410502
1.1649998
1.1699497
1.1311029
1.064017
0.99193811
0.94859366
0.95995454
0.98999885
0.99406872
1.0020175
1.0096298
1.017009
1.0232564
1.0291984
1.0381325
1.0510702
1.0671301
1.0821386
1.0926176
1.0955554
1.0902777
1.0829232
1.078535
1.081888
1.0934884
1.1181992
1.1611491
1.2191285
1.2582661
1.2283364
1.126735
1.0105199
0.93407665
0.92636156
1.0073169
1.0148127
1.0261509
1.0363508
1.0439527
1.0491342
1.0529703
1.0574573
1.0643821
1.0729294
1.0804731
1.083907
1.0805984
1.0708244
1.062148
1.0599884
1.0681115
1.0888376
1.122021
1.1645258
1.2132591
1.2574671
1.2616721
1.2046752
1.0876271
0.98733632
0.95425038
1.0463466
1.0569353
1.0677921
1.0746707
1.0755181
1.0724065
1.0681428
1.0667208
1.0695144
1.0751328
1.0811016
1.0849437
1.0838179
1.0795251
1.0768853
1.0779683
1.0880265
1.1083411
1.1338136
1.1589662
1.181422
1.195361
1.1999686
1.2098755
1.1896398
1.121464
1.0551914
1.0913778
1.1008383
1.1072305
1.1070701
1.0996507
1.0889535
1.0791214
1.0738072
1.0748208
1.080956
1.0895092
1.0973698
1.1054027
1.1137933
1.122309
1.1312919
1.1393745
1.1465353
1.1490183
1.1485256
1.1425759
1.1302804
1.1189435
1.1381401
1.2115154
1.2792076
1.2314664
1.1101062
1.1156771
1.1175889
1.1144491
1.1057497
1.0949629
1.0862478
1.0840973
1.0890298
1.0999022
1.1146258
1.1326692
1.1526257
1.1709243
1.1893617
1.2030862
1.2047493
1.1918192
1.1689302
1.1396893
1.1100838
1.0815729
1.0721128
1.0855286
1.163362
1.3289136
1.3965544
1.0936293
1.0951391
1.0975859
1.0948459
1.0879758
1.0816171
1.0801185
1.0873193
1.1041404
1.1297205
1.1617163
1.1963946
1.2286815
1.2537507
1.2719224
1.2753971
1.2586917
1.2262176
1.1834684
1.1382344
1.0990759
1.0668823
1.0591349
1.0836751
1.1437409
1.2769939
1.4000151
1.0553737
1.0572163
1.0608607
1.0612205
1.0589764
1.0591296
1.0663045
1.0843691
1.1151025
1.1590125
1.2140676
1.2728374
1.3232194
1.3542577
1.3639648
1.3427556
1.2975717
1.2416924
1.1870709
1.1426175
1.1081458
1.0841832
1.0829735
1.1115992
1.163299
1.2342832
1.2817098
1.0182868
1.0181956
1.0233865
1.0271041
1.0308237
1.0387277
1.0549114
1.0834837
1.1275077
1.1883265
1.2635231
1.3435056
1.4109711
1.446884
1.4435823
1.3997909
1.3309066
1.2547882
1.1888652
1.145138
1.1202532
1.1183963
1.1353291
1.1651085
1.1935478
1.2106997
1.1776637
0.99056722
0.99214456
0.99984444
1.006927
1.0150824
1.0291202
1.0535812
1.0922157
1.1480632
1.2210285
1.3065595
1.3949079
1.4659936
1.4986824
1.488564
1.4378293
1.3626398
1.2799519
1.2074673
1.1569715
1.137417
1.1554286
1.1912067
1.2194903
1.2183184
1.1918501
1.1238271
0.98340067
0.98888847
1.0006408
1.0110976
1.0228128
1.0409357
1.0689322
1.1095792
1.1676247
1.2406302
1.3238034
1.4061875
1.4693018
1.4975472
1.4870215
1.4463058
1.3881914
1.321683
1.2540217
1.2000371
1.1797612
1.1967565
1.2304844
1.2468172
1.2300233
1.1778727
1.1101566
1.0062025
1.017103
1.031594
1.044563
1.0581231
1.0753775
1.1005071
1.1375546
1.1877534
1.2491954
1.3172687
1.381275
1.4262835
1.4464648
1.4421518
1.4215394
1.3924772
1.3580869
1.3185966
1.284362
1.2639376
1.2602751
1.2591298
1.2457049
1.2138205
1.1676425
1.1185136
1.0719007
1.0846565
1.099047
1.1105415
1.1194484
1.1294803
1.1453484
1.1706898
1.2058133
1.2486345
1.2952673
1.337075
1.363707
1.3741636
1.3744064
1.3717214
1.3690601
1.3692867
1.3745223
1.3836575
1.3818668
1.3551231
1.3022939
1.2419751
1.1865962
1.1447478
1.124058
1.1786038
1.1924903
1.2017654
1.2026175
1.1973789
1.1930671
1.1960459
1.2077509
1.2274938
1.2524954
1.278576
1.2994739
1.3098338
1.3117934
1.3111206
1.3140956
1.3284547
1.358817
1.4051049
1.4565308
1.4874334
1.4638522
1.3768235
1.2672291
1.1768191
1.1226998
1.1172695
1.2945889
1.3069418
1.3078998
1.2965556
1.2787554
1.2632623
1.2538385
1.2525494
1.2602186
1.2743713
1.2878306
1.2927821
1.2869091
1.2775421
1.2708756
1.2745377
1.2972137
1.34479
1.4113702
1.4835034
1.5381074
1.5369675
1.4601054
1.3298839
1.2089082
1.1282379
1.1119804
1.3730178
1.3849399
1.3792943
1.3613096
1.3391631
1.32073
1.3103986
1.3082799
1.3131272
1.3228993
1.3316267
1.3297519
1.3143857
1.2954977
1.2824293
1.2854994
1.3045546
1.3466117
1.4017266
1.4710308
1.5288594
1.5477768
1.5088658
1.4074653
1.2784919
1.1734715
1.1303378
1.3977823
1.3970039
1.3888704
1.3719864
1.3530176
1.3431371
1.3465933
1.357856
1.3765558
1.398287
1.4115578
1.4127974
1.3930934
1.3665657
1.346618
1.3415511
1.3547522
1.378872
1.4088811
1.4436592
1.4818135
1.507831
1.4963607
1.4463308
1.3528911
1.2510261
1.1830528
1.3407228
1.3387183
1.3331043
1.3228248
1.3147229
1.3169218
1.3363951
1.3702294
1.4161817
1.4680261
1.5115115
1.5301608
1.5201572
1.4915041
1.4649484
1.4475763
1.4425576
1.4416296
1.4391803
1.4357546
1.4316395
1.4353684
1.4340379
1.4227112
1.3849692
1.3242624
1.2650668
1.2502923
1.2515575
1.2505849
1.2487598
1.2483219
1.2602735
1.2884981
1.3376655
1.408288
1.4962916
1.5881037
1.6564384
1.6799275
1.6655082
1.6310616
1.5892253
1.5531135
1.5165646
1.4787137
1.4397686
1.3943235
1.365821
1.3607544
1.3621901
1.3647002
1.3581521
1.3436688
1.186173
1.1878056
1.1881509
1.1895531
1.1930371
1.2066974
1.2371313
1.2888291
1.3659286
1.4707755
1.6022474
1.7368581
1.8298226
1.8554099
1.823321
1.7547539
1.6721975
1.5903081
1.5164648
1.4457314
1.3727859
1.3195647
1.2977458
1.3009823
1.3195774
1.3519941
1.3974872
1.1635576
1.1661868
1.165294
1.1654231
1.1678904
1.1786832
1.2071069
1.2553924
1.3309771
1.4380962
1.5809865
1.7514418
1.9062214
1.9880998
1.9784778
1.8970558
1.7830613
1.6653323
1.5561226
1.458796
1.3720581
1.302482
1.2605783
1.2551606
1.2771633
1.3304645
1.4245023
1.1695178
1.1720558
1.1693852
1.1663636
1.1646822
1.1704718
1.1934241
1.2355826
1.3047483
1.4061913
1.5442348
1.7151325
1.891222
2.0161276
2.0475446
1.9862116
1.8687025
1.7338716
1.6018274
1.4864074
1.3906243
1.3071506
1.2535904
1.2361929
1.2546599
1.3141554
1.4320067
1.1805984
1.1831321
1.1783712
1.1717528
1.1660767
1.1677905
1.1857731
1.2218609
1.2819648
1.3710944
1.4932554
1.6481311
1.818255
1.9616154
2.0321489
2.0144155
1.9257378
1.8031623
1.6658387
1.5350407
1.4221478
1.3286249
1.2645729
1.2346101
1.2487267
1.3076859
1.4331338
1.1863
1.1882188
1.1819202
1.1729317
1.1654662
1.1640917
1.1767006
1.206185
1.2549145
1.3303457
1.4353828
1.5705314
1.7258581
1.8740235
1.9747616
2.0019374
1.9554728
1.8619945
1.7337438
1.5918254
1.4630627
1.3570497
1.2801988
1.241067
1.2480263
1.3026855
1.4172816
1.1823566
1.1845554
1.1781779
1.1683871
1.1602748
1.1572236
1.1654189
1.1890964
1.2299415
1.2933586
1.383592
1.5028958
1.6493908
1.8063923
1.9336323
1.9926513
1.9778204
1.9011793
1.7814177
1.6363434
1.4952193
1.3777904
1.2905114
1.2450402
1.2440354
1.2893351
1.386426
1.173867
1.1768706
1.1705161
1.1611166
1.1531779
1.1508767
1.1580793
1.1794651
1.2183728
1.2787642
1.3666572
1.4857854
1.6371249
1.8041354
1.9447286
2.0153572
2.0067517
1.9288065
1.8009827
1.6554289
1.5079056
1.38425
1.2936089
1.2406381
1.234722
1.2728819
1.3563858
1.1683969
1.1723204
1.1657879
1.1569593
1.1507005
1.1497551
1.1591296
1.1842957
1.2273142
1.2963089
1.3937649
1.5233882
1.6851275
1.8575795
1.9949231
2.0554906
2.0335017
1.9349496
1.8049126
1.6535342
1.5053646
1.3815686
1.2902172
1.236806
1.2286088
1.2622608
1.3388655
1.1728124
1.1768055
1.1700159
1.1620259
1.1572453
1.1625072
1.1842306
1.2226708
1.2824965
1.3670434
1.4744107
1.6124534
1.7769712
1.9345402
2.0455656
2.0741794
2.0259636
1.9192103
1.7857036
1.6358867
1.494117
1.3770563
1.2898047
1.2408472
1.2329569
1.2678632
1.3412881
1.1856493
1.1905575
1.1866825
1.1861092
1.1964318
1.2190486
1.2561702
1.3092959
1.3807551
1.4692176
1.5761563
1.7049975
1.8528934
1.9741122
2.0445429
2.0451243
1.9792056
1.8713293
1.7447838
1.6081142
1.4798676
1.3740564
1.2957333
1.250386
1.2477659
1.2849883
1.3540646
1.210049
1.2182942
1.225428
1.2446297
1.2755682
1.3138567
1.35812
1.4101531
1.4747441
1.5539814
1.6496555
1.7610072
1.8747026
1.957087
1.9913867
1.9671093
1.8936732
1.7962137
1.6852145
1.5670701
1.4594265
1.3693126
1.3040969
1.2680411
1.2710559
1.3106109
1.3739315
1.2482483
1.2679852
1.2967115
1.3328177
1.3691502
1.4053363
1.44306
1.4865758
1.5397092
1.609215
1.687566
1.7787075
1.8528765
1.8981983
1.9013663
1.8594829
1.7883649
1.7038172
1.6108328
1.5182615
1.4370167
1.3711811
1.3243928
1.3017405
1.3075396
1.3415715
1.3913201
1.2950573
1.3290362
1.3730137
1.4122398
1.4450445
1.4748591
1.5051476
1.5403123
1.5844273
1.643037
1.7063366
1.7685166
1.8134755
1.8313034
1.812659
1.7626153
1.6943826
1.6172779
1.5375238
1.4673342
1.4134751
1.3753166
1.3528353
1.3472991
1.3563556
1.3763606
1.3993132
1.3465879
1.3894698
1.4379856
1.4747552
1.5038428
1.5302483
1.5573598
1.5879988
1.6251764
1.6705345
1.7196978
1.7581355
1.7807105
1.7790369
1.7492273
1.6974528
1.6324612
1.5602789
1.4886011
1.4301026
1.3927955
1.3771391
1.3788828
1.3922146
1.4072294
1.4165567
1.4198103
1.4103246
1.4580179
1.506783
1.5415047
1.5696681
1.5962859
1.6233349
1.6518531
1.6822495
1.716645
1.7461278
1.7650871
1.7669644
1.7478343
1.7095584
1.6575469
1.5974816
1.5325635
1.4707823
1.4237122
1.397556
1.3939229
1.4102263
1.4377146
1.4620132
1.4797896
1.4851104
1.5142211
1.5639002
1.6095065
1.6418436
1.6687487
1.693609
1.7179107
1.7420182
1.7655132
1.7875684
1.8046674
1.8099016
1.7966954
1.7644588
1.716153
1.6571241
1.5953564
1.533928
1.4784405
1.43671
1.4151657
1.4177942
1.4435358
1.4813802
1.5207096
1.5590098
1.6280753
1.6670703
1.7148557
1.7611131
1.7922924
1.811608
1.8232965
1.830805
1.8402222
1.8537074
1.8721636
1.891563
1.9030196
1.8939738
1.8581502
1.8000245
1.7273195
1.6524785
1.5831826
1.5237547
1.4804382
1.4541785
1.4502628
1.4702681
1.5078836
1.5592141
1.6271522
1.7637952
1.8692405
1.9032901
1.9447368
1.9661853
1.9593556
1.9325085
1.9047085
1.890838
1.8969294
1.9211309
1.96253
2.0076244
2.0305888
2.0091958
1.9444404
1.8555638
1.76128
1.6761549
1.6060437
1.5532535
1.5179388
1.4995074
1.4971528
1.5125567
1.5516651
1.6275705
1.7751116
1.9807533
1.9939736
2.0008877
1.9857268
1.9489668
1.9065694
1.8733285
1.8594451
1.8727352
1.9121114
1.9762724
2.0529544
2.1119916
2.1196841
2.0657534
1.9725383
1.8696213
1.7765029
1.7004662
1.6432363
1.6024739
1.5678558
1.5369176
1.5137662
1.5164644
1.5735932
1.7059913
1.9542635
1.9556958
1.9392999
1.9052358
1.8648255
1.8311485
1.8110843
1.8078818
1.8256576
1.8671458
1.9318559
2.0141991
2.0928293
2.1266785
2.1016941
2.02728
1.9353972
1.839988
1.7559381
1.6896681
1.6408145
1.5906245
1.5375777
1.4908568
1.4753524
1.5251023
1.6487082
1.9275798
1.9001394
1.8594676
1.8217457
1.792141
1.7730238
1.7632579
1.7631376
1.7741015
1.7981991
1.8383755
1.889841
1.9427982
1.9803674
1.9884136
1.958793
1.9026552
1.8339704
1.7664961
1.7063807
1.6505502
1.5925659
1.5359875
1.4932621
1.4875438
1.5388977
1.6602194
1.9290087
1.8829008
1.8404728
1.8093702
1.7851459
1.7656724
1.7505528
1.740045
1.734958
1.736296
1.7447809
1.7600121
1.7799352
1.7991445
1.8106436
1.8062977
1.78464
1.7525683
1.7163776
1.6802236
1.6426682
1.6099254
1.5799164
1.5678259
1.5869879
1.6322182
1.7091082
1.9520081
1.901295
1.8592689
1.8277381
1.8010911
1.77709
1.7548514
1.7345246
1.7166518
1.7018324
1.6905337
1.6829658
1.6788072
1.6767135
1.673932
1.6681665
1.6557199
1.6424947
1.6311775
1.6248981
1.6289186
1.6442604
1.6689517
1.7014064
1.7226455
1.717921
1.7154806
1.9615244
1.9110257
1.870987
1.8402612
1.8141087
1.7905273
1.7684441
1.7476721
1.7269616
1.7063296
1.6856561
1.6655832
1.647151
1.6305546
1.6143468
1.5974491
1.5808365
1.5679227
1.5625045
1.5713122
1.5984476
1.646518
1.7102755
1.7679547
1.7695009
1.7039157
1.6377203