/*--------------------------------*- C++ -*----------------------------------*\
| =========                 |                                                 |
| \\      /  F ield         | OpenFOAM: The Open Source CFD Toolbox           |
|  \\    /   O peration     | Version:  2406                                  |
|   \\  /    A nd           | Website:  www.openfoam.com                      |
|    \\/     M anipulation  |                                                 |
\*---------------------------------------------------------------------------*/
FoamFile
{
    version     2.0;
    format      ascii;
    arch        "LSB;label=32;scalar=64";
    class       volScalarField;
    location    "3";
    object      alphat;
}
// * * * * * * * * * * * * * * * * * * * * * * * * * * * * * * * * * * * * * //

dimensions      [1 -1 -1 0 0 0 0];

internalField   nonuniform List<scalar> 
62344
(
1.0543686e-06
1.0405288e-06
9.5284095e-07
9.202066e-07
9.1577113e-07
9.1377542e-07
9.1486378e-07
9.1023049e-07
8.9986543e-07
8.8556256e-07
8.6589145e-07
8.4766907e-07
8.4162925e-07
8.4359941e-07
8.4467144e-07
8.4282911e-07
8.5993666e-07
8.7230681e-07
8.7879133e-07
8.8709649e-07
8.9369066e-07
9.0197245e-07
9.2190673e-07
9.3021278e-07
9.2978557e-07
9.4069648e-07
9.4668231e-07
9.5130669e-07
9.6622758e-07
9.7131718e-07
9.6692201e-07
9.7558145e-07
9.9354565e-07
1.0043004e-06
1.0035426e-06
1.0035285e-06
1.0051729e-06
1.0160048e-06
1.0324875e-06
1.0507451e-06
1.0593857e-06
1.0635929e-06
1.0629973e-06
1.0675298e-06
1.0759936e-06
1.0962597e-06
1.1163034e-06
1.1472341e-06
1.164506e-06
1.1828299e-06
1.1921946e-06
1.2028903e-06
1.2234627e-06
1.2433509e-06
1.2935775e-06
1.0537599e-06
1.0418112e-06
9.5475692e-07
9.217479e-07
9.1700892e-07
9.1483095e-07
9.1629851e-07
9.1206366e-07
9.0077297e-07
8.8737198e-07
8.6837146e-07
8.485681e-07
8.3945787e-07
8.414292e-07
8.4391417e-07
8.4139141e-07
8.5119619e-07
8.6298246e-07
8.7435012e-07
8.8428949e-07
8.8439251e-07
8.9295179e-07
9.1360151e-07
9.2473333e-07
9.2464228e-07
9.3212251e-07
9.3747231e-07
9.4471082e-07
9.583366e-07
9.6149602e-07
9.5638154e-07
9.6397967e-07
9.8314625e-07
9.9500438e-07
9.9318633e-07
9.9354813e-07
1.000264e-06
1.0185522e-06
1.0364785e-06
1.049617e-06
1.0576335e-06
1.0620195e-06
1.0662695e-06
1.0719717e-06
1.0818164e-06
1.098089e-06
1.1151391e-06
1.1325895e-06
1.1540204e-06
1.1669895e-06
1.1786876e-06
1.1825455e-06
1.2013637e-06
1.2121866e-06
1.2484226e-06
1.0537518e-06
1.0461578e-06
9.5653899e-07
9.2237989e-07
9.1718259e-07
9.145406e-07
9.1665978e-07
9.1288299e-07
9.0081258e-07
8.8776914e-07
8.7044417e-07
8.5029713e-07
8.3894715e-07
8.4029873e-07
8.439159e-07
8.4435636e-07
8.4895526e-07
8.5924922e-07
8.7320886e-07
8.8584366e-07
8.8302331e-07
8.8963654e-07
9.1044203e-07
9.2315329e-07
9.2449394e-07
9.2956807e-07
9.3390146e-07
9.4117323e-07
9.5144852e-07
9.536306e-07
9.5047092e-07
9.5739559e-07
9.7390839e-07
9.8234404e-07
9.7887428e-07
9.7601875e-07
9.8646099e-07
1.0085789e-06
1.0251081e-06
1.0345132e-06
1.0457101e-06
1.0530463e-06
1.067597e-06
1.0771014e-06
1.0884112e-06
1.0967603e-06
1.1043065e-06
1.1118607e-06
1.134492e-06
1.150393e-06
1.1721602e-06
1.1852051e-06
1.2033538e-06
1.2179567e-06
1.2356193e-06
1.0531836e-06
1.0489646e-06
9.5785984e-07
9.2305785e-07
9.1774069e-07
9.1488917e-07
9.1713577e-07
9.145553e-07
9.0261866e-07
8.8881479e-07
8.728363e-07
8.5323246e-07
8.3949578e-07
8.3887688e-07
8.4257734e-07
8.4535487e-07
8.4877095e-07
8.540466e-07
8.6711305e-07
8.836521e-07
8.8250649e-07
8.885682e-07
9.0688653e-07
9.1878226e-07
9.2184128e-07
9.2643544e-07
9.3101885e-07
9.3899262e-07
9.4550323e-07
9.4691073e-07
9.475919e-07
9.5654046e-07
9.7237307e-07
9.7949523e-07
9.7572806e-07
9.7125496e-07
9.8242722e-07
1.0023629e-06
1.0161953e-06
1.0189547e-06
1.0239702e-06
1.0314137e-06
1.0497075e-06
1.0681344e-06
1.0866881e-06
1.0887011e-06
1.0898605e-06
1.0890404e-06
1.1067086e-06
1.1236394e-06
1.1529694e-06
1.1783056e-06
1.2050756e-06
1.21965e-06
1.2238186e-06
1.0529096e-06
1.051193e-06
9.5918102e-07
9.2399196e-07
9.1821733e-07
9.1504936e-07
9.1726601e-07
9.1567102e-07
9.0413988e-07
8.8915939e-07
8.7371823e-07
8.5602859e-07
8.4096827e-07
8.3813984e-07
8.4190143e-07
8.4620356e-07
8.5029373e-07
8.5220227e-07
8.6244104e-07
8.8205335e-07
8.838895e-07
8.9112587e-07
9.0606727e-07
9.1566901e-07
9.1997363e-07
9.2408288e-07
9.3021599e-07
9.401932e-07
9.4300091e-07
9.4232881e-07
9.4661194e-07
9.5827368e-07
9.7186016e-07
9.772333e-07
9.7219359e-07
9.6692791e-07
9.7819837e-07
9.9966073e-07
1.012475e-06
1.0113019e-06
1.0075034e-06
1.0100473e-06
1.0268846e-06
1.0504283e-06
1.06897e-06
1.0710057e-06
1.0714281e-06
1.0640077e-06
1.0720929e-06
1.0908176e-06
1.1254626e-06
1.1609835e-06
1.1955703e-06
1.2094766e-06
1.215617e-06
1.051158e-06
1.0519235e-06
9.5996474e-07
9.2447673e-07
9.182699e-07
9.1476649e-07
9.1682029e-07
9.161367e-07
9.057194e-07
8.8986362e-07
8.7396403e-07
8.583206e-07
8.4298992e-07
8.380562e-07
8.4147929e-07
8.4571683e-07
8.5124437e-07
8.5278304e-07
8.5883432e-07
8.7933681e-07
8.8451644e-07
8.9403068e-07
9.0609227e-07
9.1324336e-07
9.1789899e-07
9.2103234e-07
9.2870799e-07
9.4184799e-07
9.4273711e-07
9.3903157e-07
9.4582636e-07
9.5981658e-07
9.7241287e-07
9.7602061e-07
9.7092594e-07
9.6568938e-07
9.7610328e-07
9.9818964e-07
1.0122268e-06
1.0097132e-06
1.0001085e-06
9.9788856e-07
1.0133501e-06
1.0358724e-06
1.0542504e-06
1.0601138e-06
1.061561e-06
1.0569626e-06
1.0561322e-06
1.064823e-06
1.0929519e-06
1.122087e-06
1.1586438e-06
1.1796987e-06
1.2001527e-06
1.0515472e-06
1.0495439e-06
9.5961803e-07
9.2477783e-07
9.184621e-07
9.1465557e-07
9.1655179e-07
9.1652465e-07
9.0736729e-07
8.9091356e-07
8.7404477e-07
8.6013931e-07
8.4559061e-07
8.3916448e-07
8.4137867e-07
8.4447468e-07
8.511257e-07
8.5398444e-07
8.5726074e-07
8.7579235e-07
8.8357013e-07
8.9588935e-07
9.065029e-07
9.1187171e-07
9.1672913e-07
9.1852348e-07
9.2696344e-07
9.4292483e-07
9.4358546e-07
9.3733404e-07
9.4510084e-07
9.6069907e-07
9.7209912e-07
9.7297125e-07
9.6790655e-07
9.6299599e-07
9.7162862e-07
9.9169492e-07
1.0071929e-06
1.0084591e-06
1.0000569e-06
9.9437632e-07
1.0028229e-06
1.0208407e-06
1.0401414e-06
1.0499586e-06
1.0511834e-06
1.0468808e-06
1.0510519e-06
1.0558492e-06
1.0741077e-06
1.0947748e-06
1.1206842e-06
1.1387879e-06
1.1608554e-06
1.0513092e-06
1.0518604e-06
9.60732e-07
9.2527889e-07
9.1860183e-07
9.1456861e-07
9.1626526e-07
9.1663065e-07
9.0893604e-07
8.9241576e-07
8.739885e-07
8.6111431e-07
8.4790381e-07
8.4074219e-07
8.4129681e-07
8.428695e-07
8.5023864e-07
8.5524358e-07
8.5847052e-07
8.7348432e-07
8.8205919e-07
8.9695769e-07
9.0705513e-07
9.1140203e-07
9.1663059e-07
9.1705589e-07
9.2539471e-07
9.4327065e-07
9.4477661e-07
9.3723583e-07
9.4499263e-07
9.6209819e-07
9.725067e-07
9.7098162e-07
9.6566528e-07
9.6193004e-07
9.7016731e-07
9.8672071e-07
1.0012988e-06
1.0077053e-06
1.0021254e-06
9.9483616e-07
9.9801064e-07
1.0085473e-06
1.0229365e-06
1.0352547e-06
1.0441932e-06
1.0478742e-06
1.0546198e-06
1.0578875e-06
1.0701309e-06
1.0788847e-06
1.0931202e-06
1.1124296e-06
1.1317358e-06
1.051036e-06
1.0542025e-06
9.6189708e-07
9.2576983e-07
9.1874959e-07
9.1446124e-07
9.1587514e-07
9.1652651e-07
9.1020402e-07
8.9411964e-07
8.7428437e-07
8.6168781e-07
8.5009742e-07
8.428526e-07
8.4142653e-07
8.4140876e-07
8.4869248e-07
8.558531e-07
8.6075189e-07
8.7291799e-07
8.8031586e-07
8.9645259e-07
9.0660862e-07
9.1127496e-07
9.1718296e-07
9.1687584e-07
9.2468721e-07
9.4275019e-07
9.4523827e-07
9.3724429e-07
9.444479e-07
9.6247109e-07
9.724152e-07
9.6845191e-07
9.6247599e-07
9.6108776e-07
9.6931162e-07
9.8151365e-07
9.9343327e-07
1.0021593e-06
1.0016204e-06
9.9879987e-07
1.0002085e-06
1.0028584e-06
1.0112014e-06
1.0253027e-06
1.0384353e-06
1.0471627e-06
1.056937e-06
1.0624548e-06
1.0686692e-06
1.0744203e-06
1.0853989e-06
1.0934956e-06
1.1052169e-06
1.0507257e-06
1.0563457e-06
9.6301732e-07
9.2623541e-07
9.1894489e-07
9.1450649e-07
9.1554994e-07
9.1636306e-07
9.1128653e-07
8.9602253e-07
8.7495812e-07
8.6188457e-07
8.5184238e-07
8.4504724e-07
8.4173961e-07
8.4031428e-07
8.4698423e-07
8.559241e-07
8.6321077e-07
8.7392634e-07
8.7927545e-07
8.9535594e-07
9.0565833e-07
9.1111938e-07
9.1801122e-07
9.178164e-07
9.2499092e-07
9.4196292e-07
9.4523135e-07
9.3757476e-07
9.4395945e-07
9.6259588e-07
9.7237093e-07
9.6692218e-07
9.6047448e-07
9.6207992e-07
9.7085664e-07
9.7943634e-07
9.8735473e-07
9.9488947e-07
1.0001673e-06
1.0035819e-06
1.0033037e-06
1.0006191e-06
1.0028983e-06
1.0130471e-06
1.0283966e-06
1.0427126e-06
1.0569654e-06
1.0672034e-06
1.0724243e-06
1.0760574e-06
1.0768619e-06
1.0770026e-06
1.0813533e-06
1.0503695e-06
1.0583946e-06
9.6410258e-07
9.2678724e-07
9.191866e-07
9.146219e-07
9.15307e-07
9.1616239e-07
9.1208035e-07
8.9788082e-07
8.7600832e-07
8.6196747e-07
8.5321192e-07
8.4721868e-07
8.4225734e-07
8.3957033e-07
8.4560128e-07
8.5561712e-07
8.6548634e-07
8.7550548e-07
8.7899964e-07
8.9391069e-07
9.0414196e-07
9.1056805e-07
9.1864767e-07
9.1945158e-07
9.2638197e-07
9.4153827e-07
9.4489635e-07
9.3777004e-07
9.4360152e-07
9.6242304e-07
9.7203043e-07
9.6583264e-07
9.5883327e-07
9.6273677e-07
9.7338117e-07
9.8018588e-07
9.8257591e-07
9.8676263e-07
9.9635464e-07
1.0047443e-06
1.0050951e-06
1.0028119e-06
9.9926993e-07
1.0008563e-06
1.0142113e-06
1.0335442e-06
1.0540569e-06
1.0701268e-06
1.0788881e-06
1.0781763e-06
1.073221e-06
1.0621026e-06
1.059709e-06
1.049984e-06
1.0603288e-06
9.6514906e-07
9.2739299e-07
9.1952397e-07
9.1479096e-07
9.1515022e-07
9.1597363e-07
9.1263469e-07
8.9964774e-07
8.774372e-07
8.6219585e-07
8.5420795e-07
8.4914762e-07
8.4296687e-07
8.39151e-07
8.447095e-07
8.550922e-07
8.6719219e-07
8.7700129e-07
8.7950315e-07
8.9280692e-07
9.0277468e-07
9.0984743e-07
9.1886652e-07
9.2157993e-07
9.2855827e-07
9.4171627e-07
9.4484419e-07
9.3884811e-07
9.4406442e-07
9.6232415e-07
9.7171697e-07
9.6570922e-07
9.5794697e-07
9.6344216e-07
9.7654512e-07
9.8337263e-07
9.8081329e-07
9.802314e-07
9.8882585e-07
1.0017548e-06
1.0091809e-06
1.0080503e-06
1.0009437e-06
9.9570435e-07
1.0018476e-06
1.0200807e-06
1.0431878e-06
1.0672231e-06
1.0785866e-06
1.0752282e-06
1.0681511e-06
1.0583241e-06
1.0592964e-06
1.049569e-06
1.0622091e-06
9.662006e-07
9.2803062e-07
9.1990737e-07
9.149564e-07
9.1506501e-07
9.1578925e-07
9.1300688e-07
9.0125481e-07
8.7918204e-07
8.6272204e-07
8.5482342e-07
8.5073066e-07
8.4374763e-07
8.3916992e-07
8.4433795e-07
8.5471321e-07
8.6824655e-07
8.7794108e-07
8.8038017e-07
8.9229676e-07
9.0189018e-07
9.0894622e-07
9.1855401e-07
9.2319016e-07
9.3104139e-07
9.4230049e-07
9.4526e-07
9.4059393e-07
9.4545861e-07
9.6207316e-07
9.7139509e-07
9.661079e-07
9.578882e-07
9.6431753e-07
9.7971445e-07
9.8736661e-07
9.819802e-07
9.7613254e-07
9.819792e-07
9.9716402e-07
1.0097884e-06
1.0109245e-06
1.0035293e-06
9.9539833e-07
9.9568785e-07
1.0090146e-06
1.0324573e-06
1.0543626e-06
1.0666323e-06
1.0731518e-06
1.0729973e-06
1.0647588e-06
1.0563057e-06
1.0491563e-06
1.0639192e-06
9.67203e-07
9.2866521e-07
9.2029408e-07
9.1511502e-07
9.1506043e-07
9.1564747e-07
9.1324665e-07
9.0265751e-07
8.8116146e-07
8.63635e-07
8.5515538e-07
8.5183211e-07
8.4452285e-07
8.3962146e-07
8.4440355e-07
8.5458805e-07
8.6867629e-07
8.7808405e-07
8.812711e-07
8.9224861e-07
9.0161842e-07
9.0823495e-07
9.1777223e-07
9.24173e-07
9.3338765e-07
9.4318608e-07
9.4587139e-07
9.4278229e-07
9.4762977e-07
9.6217209e-07
9.7116082e-07
9.6676294e-07
9.5882353e-07
9.658244e-07
9.8254876e-07
9.9170387e-07
9.8575095e-07
9.7629245e-07
9.7781745e-07
9.9223789e-07
1.0085094e-06
1.0144076e-06
1.0090331e-06
1.0001072e-06
9.9564773e-07
1.0041077e-06
1.0218525e-06
1.0429108e-06
1.0594669e-06
1.073374e-06
1.0756002e-06
1.0686409e-06
1.0572926e-06
1.0487709e-06
1.0655106e-06
9.6813537e-07
9.2927227e-07
9.2074043e-07
9.1536028e-07
9.1515891e-07
9.1559067e-07
9.1337539e-07
9.0386662e-07
8.8324811e-07
8.6491846e-07
8.5522416e-07
8.5238829e-07
8.4520253e-07
8.4038477e-07
8.4490314e-07
8.5459649e-07
8.6849024e-07
8.7743646e-07
8.8186006e-07
8.9237738e-07
9.0174998e-07
9.0778804e-07
9.1654515e-07
9.2439975e-07
9.3493892e-07
9.4397625e-07
9.4653468e-07
9.4524678e-07
9.4985536e-07
9.6229044e-07
9.7056583e-07
9.6710794e-07
9.6021657e-07
9.6732316e-07
9.8453694e-07
9.9572899e-07
9.9167141e-07
9.8037878e-07
9.7751561e-07
9.8911775e-07
1.0067678e-06
1.0173937e-06
1.0152588e-06
1.0068566e-06
1.0007777e-06
1.0043618e-06
1.0161406e-06
1.0329458e-06
1.0526406e-06
1.0683524e-06
1.0727741e-06
1.067391e-06
1.0618381e-06
1.0483835e-06
1.066895e-06
9.6899176e-07
9.2980852e-07
9.2118436e-07
9.1565432e-07
9.1526677e-07
9.1553126e-07
9.1339916e-07
9.0486378e-07
8.8531677e-07
8.6648073e-07
8.5520669e-07
8.524603e-07
8.4576026e-07
8.4150576e-07
8.4574041e-07
8.548005e-07
8.680113e-07
8.7624871e-07
8.8213945e-07
8.9248998e-07
9.0209446e-07
9.0765941e-07
9.1532512e-07
9.2411279e-07
9.3576736e-07
9.442089e-07
9.466072e-07
9.4743086e-07
9.5256935e-07
9.6293187e-07
9.6958545e-07
9.6659277e-07
9.612882e-07
9.6809182e-07
9.8517538e-07
9.9823942e-07
9.9673893e-07
9.8677816e-07
9.8138769e-07
9.8848451e-07
1.0034722e-06
1.0169557e-06
1.0192011e-06
1.0139148e-06
1.007916e-06
1.0074646e-06
1.0148971e-06
1.0281056e-06
1.0431978e-06
1.0582097e-06
1.0667728e-06
1.0692814e-06
1.0656371e-06
1.0480209e-06
1.0684217e-06
9.6978284e-07
9.3034965e-07
9.2161863e-07
9.1604782e-07
9.1552206e-07
9.1560996e-07
9.1343547e-07
9.0576678e-07
8.8732954e-07
8.6825759e-07
8.5517885e-07
8.5208225e-07
8.460809e-07
8.4276834e-07
8.4668003e-07
8.5492169e-07
8.6732777e-07
8.746312e-07
8.8199519e-07
8.924646e-07
9.024931e-07
9.0800447e-07
9.1432093e-07
9.2369948e-07
9.3605071e-07
9.43678e-07
9.4588455e-07
9.4915378e-07
9.5546341e-07
9.6363772e-07
9.6822939e-07
9.6549557e-07
9.6251739e-07
9.6928784e-07
9.8540478e-07
9.9933676e-07
1.0013918e-06
9.9393102e-07
9.8671712e-07
9.8949958e-07
1.0010133e-06
1.014949e-06
1.0225833e-06
1.0222647e-06
1.018947e-06
1.0159056e-06
1.0182578e-06
1.0250793e-06
1.0365458e-06
1.0517485e-06
1.0625406e-06
1.0698555e-06
1.0709386e-06
1.0476707e-06
1.0695297e-06
9.7042745e-07
9.3074426e-07
9.2196314e-07
9.1628791e-07
9.15614e-07
9.1553274e-07
9.1326967e-07
9.0638826e-07
8.8907082e-07
8.7010478e-07
8.5538777e-07
8.5153561e-07
8.4642152e-07
8.4422667e-07
8.4789274e-07
8.5512738e-07
8.6669048e-07
8.7289749e-07
8.8148466e-07
8.9214846e-07
9.0268299e-07
9.0845965e-07
9.1353832e-07
9.2307921e-07
9.3563209e-07
9.4233647e-07
9.4394066e-07
9.4943613e-07
9.5736867e-07
9.6404533e-07
9.6625998e-07
9.6397008e-07
9.6273846e-07
9.6956261e-07
9.8454532e-07
9.9820873e-07
1.0022875e-06
9.9710884e-07
9.9065793e-07
9.908006e-07
9.983122e-07
1.0097232e-06
1.0216365e-06
1.025557e-06
1.0243429e-06
1.0202687e-06
1.0207144e-06
1.0249447e-06
1.0328764e-06
1.0407757e-06
1.0496843e-06
1.0594915e-06
1.0688236e-06
1.0472975e-06
1.0711484e-06
9.7103607e-07
9.3094096e-07
9.2209388e-07
9.1635001e-07
9.1564606e-07
9.1539341e-07
9.1302481e-07
9.0672704e-07
8.9047508e-07
8.7163248e-07
8.5536139e-07
8.5033061e-07
8.4614064e-07
8.4520954e-07
8.4877374e-07
8.5500824e-07
8.6593193e-07
8.710892e-07
8.8074971e-07
8.9167508e-07
9.0280553e-07
9.091904e-07
9.1329893e-07
9.2263336e-07
9.3506832e-07
9.4072368e-07
9.415994e-07
9.4873589e-07
9.5864091e-07
9.6468223e-07
9.6455441e-07
9.6200363e-07
9.628728e-07
9.7082469e-07
9.843594e-07
9.9619459e-07
1.0006895e-06
9.9940824e-07
9.9604473e-07
9.9459608e-07
9.9711475e-07
1.0058594e-06
1.0167719e-06
1.0244618e-06
1.0265388e-06
1.0268944e-06
1.0295746e-06
1.0287168e-06
1.0297542e-06
1.03211e-06
1.039516e-06
1.0523208e-06
1.0629102e-06
1.0469339e-06
1.071642e-06
9.7112502e-07
9.3052234e-07
9.2143223e-07
9.1554132e-07
9.1469796e-07
9.1427674e-07
9.1172463e-07
9.0595518e-07
8.9076437e-07
8.7241277e-07
8.5493391e-07
8.4852589e-07
8.4515654e-07
8.4539483e-07
8.4885967e-07
8.5400065e-07
8.6428038e-07
8.682456e-07
8.7872583e-07
8.8989342e-07
9.0171604e-07
9.0890297e-07
9.1223945e-07
9.2128987e-07
9.3341044e-07
9.3787362e-07
9.3775332e-07
9.4569365e-07
9.5773272e-07
9.6366096e-07
9.6153062e-07
9.5836451e-07
9.6077466e-07
9.6978111e-07
9.8135327e-07
9.9043791e-07
9.9517724e-07
9.971423e-07
9.9628878e-07
9.9428019e-07
9.9348145e-07
9.9756178e-07
1.0045003e-06
1.0145935e-06
1.0224544e-06
1.0291692e-06
1.0297123e-06
1.0258545e-06
1.0220774e-06
1.0221753e-06
1.026807e-06
1.0353784e-06
1.0464378e-06
1.0460302e-06
1.072199e-06
9.6957363e-07
9.2736636e-07
9.1715852e-07
9.1067028e-07
9.0951403e-07
9.088652e-07
9.0635625e-07
9.0109838e-07
8.8701718e-07
8.6935683e-07
8.5111981e-07
8.4348013e-07
8.4110497e-07
8.4271465e-07
8.4631033e-07
8.5055752e-07
8.60389e-07
8.6333243e-07
8.7435146e-07
8.8572105e-07
8.9808318e-07
9.0606211e-07
9.090596e-07
9.1779444e-07
9.2944491e-07
9.3288375e-07
9.31766e-07
9.4016022e-07
9.5413935e-07
9.6077846e-07
9.5712672e-07
9.5342427e-07
9.5672412e-07
9.6644795e-07
9.7669725e-07
9.8288711e-07
9.8703309e-07
9.9038986e-07
9.9224919e-07
9.9167231e-07
9.8958596e-07
9.8797838e-07
9.9137241e-07
1.0017929e-06
1.0154456e-06
1.0251041e-06
1.0273796e-06
1.0256066e-06
1.0209424e-06
1.0158725e-06
1.0140667e-06
1.0190533e-06
1.0308723e-06
1.0428501e-06
1.0640522e-06
9.5995633e-07
9.1488069e-07
9.0168489e-07
8.9359615e-07
8.9170887e-07
8.9063875e-07
8.8797852e-07
8.8316062e-07
8.7070291e-07
8.545744e-07
8.3641773e-07
8.2778475e-07
8.2626541e-07
8.292996e-07
8.3286008e-07
8.3605942e-07
8.4511054e-07
8.4709345e-07
8.5836241e-07
8.6984627e-07
8.8250871e-07
8.9126326e-07
8.9422318e-07
9.0279109e-07
9.142093e-07
9.1686874e-07
9.1472571e-07
9.2294427e-07
9.3808189e-07
9.4562868e-07
9.4150681e-07
9.3670368e-07
9.4009013e-07
9.5051625e-07
9.592153e-07
9.6256811e-07
9.6460762e-07
9.6818232e-07
9.7242742e-07
9.734122e-07
9.7032905e-07
9.645689e-07
9.6353886e-07
9.7163686e-07
9.8623856e-07
9.9924413e-07
1.0061197e-06
1.006798e-06
8.5141677e-07
8.7420055e-07
9.8738621e-07
9.8647694e-07
9.9494332e-07
1.0261916e-06
1.0222885e-06
9.2643161e-07
8.817795e-07
8.6504377e-07
8.5511836e-07
8.517272e-07
8.4961528e-07
8.4653587e-07
8.4170773e-07
8.3031935e-07
8.1534838e-07
7.9707825e-07
7.8735132e-07
7.8611833e-07
7.8976988e-07
7.9280356e-07
7.9532367e-07
8.0348482e-07
8.0466208e-07
8.1551318e-07
8.2656924e-07
8.3891213e-07
8.4794971e-07
8.5100135e-07
8.5905288e-07
8.6959121e-07
8.7179631e-07
8.69304e-07
8.7737728e-07
8.9392384e-07
9.0352068e-07
9.0049179e-07
8.9602406e-07
9.0060273e-07
9.1211856e-07
9.2118299e-07
9.2371134e-07
9.2459834e-07
9.2920949e-07
9.3619586e-07
9.3972779e-07
9.3652898e-07
8.9184082e-07
9.2491936e-07
9.3068664e-07
8.1286812e-07
9.5459205e-07
9.7172551e-07
9.3883835e-07
6.6787297e-07
5.7438499e-07
6.2117151e-07
9.1720155e-07
9.5345134e-07
9.9482887e-07
9.5438067e-07
8.8541547e-07
8.3553505e-07
8.0505335e-07
7.8605646e-07
7.7708795e-07
7.7218159e-07
7.6786581e-07
7.6249919e-07
7.5213501e-07
7.3892354e-07
7.2131037e-07
7.1132642e-07
7.1077036e-07
7.1530954e-07
7.1867053e-07
7.2014735e-07
7.2722167e-07
7.2741133e-07
7.3758308e-07
7.4813029e-07
7.6007325e-07
7.6927378e-07
7.7273031e-07
7.8024291e-07
7.8956825e-07
7.9110425e-07
7.876791e-07
7.9513992e-07
8.1185111e-07
8.2266371e-07
8.2087718e-07
8.1698899e-07
8.2245024e-07
8.3502528e-07
8.4495034e-07
8.4730408e-07
8.4736179e-07
8.5248137e-07
8.6202793e-07
8.682734e-07
8.6652688e-07
7.9214032e-07
8.5449577e-07
8.5849221e-07
8.3116204e-07
8.2361265e-07
9.0360838e-07
9.0967536e-07
7.2242606e-07
5.2614768e-07
5.2400385e-07
7.3046429e-07
8.8717693e-07
1.0706055e-06
1.0602161e-06
9.6419258e-07
8.7100813e-07
7.9729263e-07
7.4565281e-07
7.1471587e-07
6.897081e-07
6.7131679e-07
6.5313972e-07
6.3430874e-07
6.1604865e-07
5.977374e-07
5.8675833e-07
5.8296775e-07
5.8574767e-07
5.8781996e-07
5.9003629e-07
5.9641233e-07
5.9829401e-07
6.1034857e-07
6.2330166e-07
6.3451682e-07
6.4379103e-07
6.4726884e-07
6.5354001e-07
6.6119161e-07
6.6262728e-07
6.5817237e-07
6.6297987e-07
6.770544e-07
6.8691942e-07
6.8459808e-07
6.7898001e-07
6.8142722e-07
6.9327306e-07
7.0090545e-07
7.0042618e-07
6.9801681e-07
6.9991053e-07
7.0745273e-07
7.1157578e-07
7.0908912e-07
7.0263452e-07
6.963607e-07
6.959837e-07
7.0133571e-07
6.1057654e-07
7.3286653e-07
7.4228223e-07
7.4594581e-07
6.3478537e-07
5.3369279e-07
6.3262054e-07
7.3119059e-07
1.3331307e-06
1.6693253e-06
1.6304128e-06
1.5727185e-06
1.4732669e-06
1.371856e-06
1.3020658e-06
1.2167702e-06
1.1369176e-06
1.0506216e-06
9.4614877e-07
8.4523614e-07
7.5965935e-07
6.9038072e-07
6.2222792e-07
5.7005954e-07
5.3094988e-07
5.0184666e-07
4.8329857e-07
4.6131131e-07
4.5033367e-07
4.4604879e-07
4.4328551e-07
4.4230979e-07
4.3842149e-07
4.383212e-07
4.3509974e-07
4.2794602e-07
4.1560104e-07
4.1137685e-07
4.1447766e-07
4.1771367e-07
4.1370531e-07
4.0560243e-07
4.0208666e-07
4.0269765e-07
4.0290776e-07
3.9837572e-07
3.8811423e-07
3.8408468e-07
3.8478031e-07
3.8392918e-07
3.7680001e-07
3.6985904e-07
3.6055228e-07
3.5858448e-07
3.6286322e-07
3.736868e-07
3.8429595e-07
3.9102635e-07
3.9590209e-07
3.9743154e-07
3.9370688e-07
3.9031373e-07
3.9721135e-07
9.6424524e-07
1.6794902e-06
1.6107581e-06
1.5139125e-06
1.4719982e-06
1.4681383e-06
1.5079188e-06
1.5957311e-06
1.7191051e-06
1.8602839e-06
1.9316841e-06
1.8952885e-06
1.7279399e-06
1.5060924e-06
1.2789059e-06
1.0590741e-06
8.5103401e-07
6.5866201e-07
5.051433e-07
3.738996e-07
2.7458468e-07
2.0215447e-07
1.4928393e-07
1.1513062e-07
8.8185554e-08
6.7439572e-08
5.3121008e-08
4.4823009e-08
3.6771375e-08
3.002295e-08
2.8660029e-08
3.1638876e-08
3.3571963e-08
3.2155103e-08
3.2087379e-08
3.3818953e-08
3.5619906e-08
3.8047744e-08
3.925409e-08
4.0169571e-08
4.2612436e-08
4.5401774e-08
4.7912559e-08
5.0415155e-08
5.564008e-08
6.7848514e-08
8.2391244e-08
1.0053725e-07
1.1815173e-07
1.3199456e-07
1.4203054e-07
1.5212138e-07
1.7010135e-07
1.8911115e-07
2.0778639e-07
2.3397097e-07
3.7517334e-07
7.2528894e-07
8.3732629e-07
7.8687149e-07
1.0050208e-06
1.043544e-06
1.0576684e-06
1.0726417e-06
1.0750875e-06
1.0734924e-06
1.0663305e-06
1.0571524e-06
1.0494426e-06
1.0470297e-06
1.0578191e-06
1.0767424e-06
1.0949383e-06
1.1175247e-06
1.1448242e-06
1.1647459e-06
1.1939871e-06
1.2198777e-06
1.2288949e-06
1.2534961e-06
1.2745796e-06
1.322354e-06
2.7811017e-07
3.7332579e-07
6.4230575e-07
6.8278264e-07
6.6742692e-07
1.0189735e-06
1.0580785e-06
1.0698433e-06
1.0821046e-06
1.0788539e-06
1.0747244e-06
1.0669659e-06
1.0578277e-06
1.0517258e-06
1.0516553e-06
1.0606312e-06
1.0848216e-06
1.1150011e-06
1.1333225e-06
1.1489296e-06
1.1640824e-06
1.186754e-06
1.2080798e-06
1.2240846e-06
1.2604487e-06
1.3017759e-06
1.3489681e-06
3.2995692e-07
3.7542146e-07
6.8971365e-07
9.0537831e-07
8.8026105e-07
1.0277728e-06
1.0701361e-06
1.0793104e-06
1.0914872e-06
1.0894133e-06
1.08433e-06
1.074569e-06
1.0661504e-06
1.0641347e-06
1.0688766e-06
1.0818058e-06
1.1033403e-06
1.1342406e-06
1.1552484e-06
1.1629715e-06
1.1683161e-06
1.1811495e-06
1.2017016e-06
1.2243008e-06
1.2656035e-06
1.3153185e-06
1.3650094e-06
3.6445286e-07
3.7614385e-07
6.868449e-07
9.0467848e-07
9.9237806e-07
1.0334422e-06
1.0754645e-06
1.0843909e-06
1.0959845e-06
1.095808e-06
1.0979435e-06
1.0900926e-06
1.0860251e-06
1.085614e-06
1.0953578e-06
1.1110271e-06
1.1339586e-06
1.1579698e-06
1.1713223e-06
1.1783068e-06
1.1749858e-06
1.1813515e-06
1.2087896e-06
1.2344506e-06
1.2733997e-06
1.3138452e-06
1.3600945e-06
3.9146476e-07
3.9029816e-07
6.756085e-07
8.0315943e-07
6.8862915e-07
7.3997367e-07
1.0676591e-06
1.0789882e-06
1.0980245e-06
1.1004958e-06
1.1094519e-06
1.1080242e-06
1.1067535e-06
1.1107832e-06
1.1238385e-06
1.1425523e-06
1.1613927e-06
1.1763744e-06
1.1902864e-06
1.1916161e-06
1.1922246e-06
1.1978418e-06
1.2276598e-06
1.2522367e-06
1.2935577e-06
1.3265846e-06
1.3424782e-06
4.1619093e-07
3.8839793e-07
6.387513e-07
5.2868747e-07
5.2573336e-07
5.7129258e-07
9.3189838e-07
1.072982e-06
1.0918913e-06
1.1030842e-06
1.1164284e-06
1.1215509e-06
1.1272752e-06
1.1349383e-06
1.1455749e-06
1.1613194e-06
1.1748719e-06
1.1897784e-06
1.2035097e-06
1.2045702e-06
1.2096479e-06
1.2226972e-06
1.2573291e-06
1.2856992e-06
1.3157564e-06
1.3382456e-06
1.335076e-06
4.4659503e-07
4.0601518e-07
5.8489308e-07
4.8479747e-07
5.3354242e-07
5.9745719e-07
9.00029e-07
1.0705903e-06
1.093663e-06
1.104163e-06
1.1214843e-06
1.134994e-06
1.1417643e-06
1.1492456e-06
1.1530512e-06
1.1636768e-06
1.1767343e-06
1.1937971e-06
1.206193e-06
1.2131844e-06
1.2232962e-06
1.2496624e-06
1.2954526e-06
1.3219976e-06
1.3374717e-06
1.3475515e-06
1.3604546e-06
4.8000993e-07
4.0671585e-07
6.0147168e-07
6.0821964e-07
6.3889809e-07
7.7085133e-07
9.6353498e-07
1.0691721e-06
1.1001916e-06
1.1138202e-06
1.131542e-06
1.1419663e-06
1.1502104e-06
1.1516561e-06
1.1563765e-06
1.162848e-06
1.1714469e-06
1.1817339e-06
1.1973851e-06
1.2219311e-06
1.2441691e-06
1.2714401e-06
1.3163462e-06
1.3430144e-06
1.3620438e-06
1.368544e-06
1.3914977e-06
5.4401902e-07
4.2815516e-07
5.8095162e-07
7.4518749e-07
7.137407e-07
7.7871431e-07
8.5270566e-07
1.0770018e-06
1.1120029e-06
1.1296714e-06
1.145529e-06
1.1500483e-06
1.1525528e-06
1.1518312e-06
1.1477722e-06
1.1520845e-06
1.1612899e-06
1.172499e-06
1.191921e-06
1.221424e-06
1.2582854e-06
1.2819442e-06
1.3232331e-06
1.3475198e-06
1.3872786e-06
1.3956294e-06
1.429453e-06
6.1562095e-07
4.6087279e-07
5.8133532e-07
6.7795734e-07
5.7714693e-07
7.1420072e-07
7.4731314e-07
1.0953353e-06
1.1326734e-06
1.1435494e-06
1.1537629e-06
1.1587723e-06
1.1607228e-06
1.1538399e-06
1.1388314e-06
1.1390372e-06
1.1537092e-06
1.1700824e-06
1.192717e-06
1.2294438e-06
1.2577564e-06
1.2765977e-06
1.3141204e-06
1.3388663e-06
1.4019272e-06
1.4278063e-06
1.4698668e-06
6.9545238e-07
4.9261088e-07
5.8355206e-07
7.1010699e-07
5.6325273e-07
7.4640429e-07
8.2128378e-07
1.1139379e-06
1.1570762e-06
1.1640517e-06
1.1710948e-06
1.1753527e-06
1.1683568e-06
1.157049e-06
1.1477855e-06
1.1394862e-06
1.1529198e-06
1.1819249e-06
1.2118047e-06
1.2362899e-06
1.2582559e-06
1.2676186e-06
1.2950897e-06
1.3215064e-06
1.4019041e-06
1.4476468e-06
1.4967159e-06
7.7994063e-07
5.3629995e-07
5.8951949e-07
8.1390656e-07
6.6103395e-07
8.9289494e-07
8.5272488e-07
1.1259249e-06
1.1718402e-06
1.1763757e-06
1.1933641e-06
1.1877807e-06
1.1785281e-06
1.1685582e-06
1.1615496e-06
1.1594515e-06
1.1711941e-06
1.2025028e-06
1.2381317e-06
1.2516648e-06
1.2614093e-06
1.2606547e-06
1.2762125e-06
1.3104654e-06
1.3947507e-06
1.4550219e-06
1.5042645e-06
8.4431839e-07
5.7695208e-07
6.1032045e-07
8.2672664e-07
7.4922974e-07
7.674635e-07
7.4106614e-07
9.2853984e-07
1.1831584e-06
1.1942128e-06
1.2082255e-06
1.2072885e-06
1.1980484e-06
1.1907603e-06
1.186398e-06
1.1884177e-06
1.2004866e-06
1.2249273e-06
1.2631656e-06
1.270482e-06
1.2671324e-06
1.2616082e-06
1.2730032e-06
1.3191192e-06
1.3942317e-06
1.4625553e-06
1.5074324e-06
8.8851832e-07
6.2130066e-07
6.0791848e-07
8.080926e-07
6.6532154e-07
6.5270255e-07
6.5813049e-07
9.0747044e-07
1.1922989e-06
1.211462e-06
1.2290365e-06
1.2299043e-06
1.2203073e-06
1.2137212e-06
1.2172236e-06
1.2216823e-06
1.2333323e-06
1.2524562e-06
1.2838917e-06
1.2836089e-06
1.2836239e-06
1.2789507e-06
1.290217e-06
1.3345876e-06
1.4017586e-06
1.464782e-06
1.516961e-06
9.1266366e-07
6.5032247e-07
6.0986502e-07
6.1009649e-07
5.6269709e-07
6.0627289e-07
6.8104425e-07
1.006707e-06
1.1969024e-06
1.2210681e-06
1.2444128e-06
1.2424799e-06
1.2420862e-06
1.2473845e-06
1.2516901e-06
1.2491155e-06
1.2564426e-06
1.2772114e-06
1.2951997e-06
1.3021324e-06
1.3059391e-06
1.3101686e-06
1.3217009e-06
1.3591329e-06
1.4258314e-06
1.4744841e-06
1.5135313e-06
9.3029988e-07
6.8088897e-07
5.9551386e-07
5.9344803e-07
5.8660838e-07
6.3146935e-07
6.9760832e-07
8.3605369e-07
1.1959359e-06
1.227353e-06
1.2540452e-06
1.257497e-06
1.2663109e-06
1.2725976e-06
1.2677268e-06
1.2587271e-06
1.2646404e-06
1.2864366e-06
1.2987805e-06
1.3214807e-06
1.3415485e-06
1.3492975e-06
1.3702504e-06
1.3930727e-06
1.4477205e-06
1.4878512e-06
1.5233566e-06
9.5985434e-07
7.2209482e-07
6.0615099e-07
7.3872625e-07
6.3950255e-07
7.1718701e-07
6.5492418e-07
7.9091769e-07
1.0052056e-06
1.2296102e-06
1.2526395e-06
1.2712027e-06
1.281828e-06
1.2770175e-06
1.2596331e-06
1.2553598e-06
1.2586275e-06
1.2849481e-06
1.3120228e-06
1.3386548e-06
1.3755275e-06
1.3877206e-06
1.4129927e-06
1.4253251e-06
1.4663416e-06
1.5024075e-06
1.534123e-06
1.0089377e-06
7.5375083e-07
6.3706994e-07
7.4620978e-07
5.9404165e-07
7.2290377e-07
6.4458332e-07
8.0389676e-07
1.0714083e-06
1.2290926e-06
1.249356e-06
1.2702317e-06
1.2717154e-06
1.2620933e-06
1.2502378e-06
1.2538439e-06
1.2600485e-06
1.2829997e-06
1.3158018e-06
1.3539139e-06
1.4014363e-06
1.4265457e-06
1.441063e-06
1.4433938e-06
1.4737753e-06
1.5180456e-06
1.5511699e-06
1.0685696e-06
7.9980067e-07
6.4546336e-07
7.45068e-07
6.2674622e-07
7.3288757e-07
6.1357585e-07
7.5060809e-07
9.6885495e-07
1.2350242e-06
1.256312e-06
1.2652444e-06
1.264599e-06
1.2572095e-06
1.253519e-06
1.2500832e-06
1.2537495e-06
1.2782917e-06
1.3197958e-06
1.3658603e-06
1.4190503e-06
1.4386507e-06
1.4558399e-06
1.4591714e-06
1.48187e-06
1.5384829e-06
1.5740772e-06
1.118217e-06
8.4491908e-07
6.6505815e-07
7.4503446e-07
7.2616667e-07
7.7870671e-07
6.5800973e-07
6.8628952e-07
7.9346051e-07
1.1143618e-06
1.2703979e-06
1.2737047e-06
1.2772042e-06
1.2731031e-06
1.2594891e-06
1.2547075e-06
1.2633958e-06
1.289328e-06
1.3343135e-06
1.3729204e-06
1.4153101e-06
1.4302958e-06
1.4543465e-06
1.4511047e-06
1.4799775e-06
1.5472013e-06
1.5949694e-06
1.1482638e-06
8.866677e-07
6.9397995e-07
7.39786e-07
7.1249066e-07
7.05976e-07
6.4016598e-07
6.675803e-07
7.9953717e-07
1.1325071e-06
1.2877887e-06
1.2948655e-06
1.2976915e-06
1.292016e-06
1.2796809e-06
1.2838656e-06
1.3021161e-06
1.3174665e-06
1.3524729e-06
1.3761126e-06
1.4029174e-06
1.4073914e-06
1.4273253e-06
1.4272248e-06
1.4622037e-06
1.5507467e-06
1.6141843e-06
1.1560277e-06
9.2679253e-07
7.236285e-07
7.5084581e-07
6.9217014e-07
6.6842179e-07
6.7519499e-07
8.0102979e-07
1.0190916e-06
1.2606153e-06
1.3112086e-06
1.3257011e-06
1.326136e-06
1.3173664e-06
1.3203832e-06
1.3262168e-06
1.3367515e-06
1.3459706e-06
1.3688549e-06
1.3868016e-06
1.4044095e-06
1.3954824e-06
1.4048764e-06
1.4061579e-06
1.4442596e-06
1.5497184e-06
1.6256718e-06
1.1467226e-06
9.524637e-07
7.322562e-07
7.2668207e-07
6.8628677e-07
6.7511513e-07
7.8240673e-07
9.0933166e-07
1.1013342e-06
1.2589804e-06
1.332926e-06
1.349841e-06
1.3610399e-06
1.356965e-06
1.3550685e-06