/*--------------------------------*- C++ -*----------------------------------*\
| =========                 |                                                 |
| \\      /  F ield         | OpenFOAM: The Open Source CFD Toolbox           |
|  \\    /   O peration     | Version:  2406                                  |
|   \\  /    A nd           | Website:  www.openfoam.com                      |
|    \\/     M anipulation  |                                                 |
\*---------------------------------------------------------------------------*/
FoamFile
{
    version     2.0;
    format      ascii;
    arch        "LSB;label=32;scalar=64";
    class       volScalarField;
    location    "3";
    object      nut;
}
// * * * * * * * * * * * * * * * * * * * * * * * * * * * * * * * * * * * * * //

dimensions      [0 2 -1 0 0 0 0];

internalField   nonuniform List<scalar> 
62344
(
1.0529147e-06
1.0449599e-06
9.6563422e-07
9.3866847e-07
9.3518197e-07
9.3244229e-07
9.3252195e-07
9.312814e-07
9.2849382e-07
9.2451433e-07
9.1848208e-07
9.1317303e-07
9.1146214e-07
9.123852e-07
9.129809e-07
9.12649e-07
9.1808924e-07
9.2201748e-07
9.2398902e-07
9.2639397e-07
9.2886264e-07
9.3248923e-07
9.3938013e-07
9.4323117e-07
9.4495961e-07
9.5008182e-07
9.5402103e-07
9.5800134e-07
9.6540537e-07
9.7070061e-07
9.7388361e-07
9.8083846e-07
9.8993545e-07
9.9730734e-07
1.0019381e-06
1.0095e-06
1.0148899e-06
1.0225782e-06
1.0311745e-06
1.0417271e-06
1.0476407e-06
1.056513e-06
1.0645987e-06
1.0755686e-06
1.0851895e-06
1.1007578e-06
1.1134086e-06
1.1370825e-06
1.1522297e-06
1.1751772e-06
1.1940477e-06
1.2146485e-06
1.2416338e-06
1.2608816e-06
1.304506e-06
1.0522347e-06
1.0459284e-06
9.6714571e-07
9.3978909e-07
9.3605708e-07
9.3316348e-07
9.3319055e-07
9.3181492e-07
9.2860065e-07
9.2488244e-07
9.1887389e-07
9.1273329e-07
9.097499e-07
9.1042134e-07
9.1093718e-07
9.1030576e-07
9.1328145e-07
9.1677835e-07
9.2010549e-07
9.2318584e-07
9.2383315e-07
9.2713656e-07
9.3338393e-07
9.3757889e-07
9.3917953e-07
9.4312365e-07
9.4679802e-07
9.5137644e-07
9.5810457e-07
9.6243628e-07
9.647152e-07
9.7073378e-07
9.8040797e-07
9.8949027e-07
9.9444301e-07
1.0022922e-06
1.0093884e-06
1.0210216e-06
1.0312889e-06
1.0399914e-06
1.0477942e-06
1.0556782e-06
1.0650932e-06
1.0743031e-06
1.0850247e-06
1.100387e-06
1.1149442e-06
1.1293366e-06
1.148411e-06
1.1614359e-06
1.1765335e-06
1.1860996e-06
1.2100128e-06
1.2227117e-06
1.2556741e-06
1.0522627e-06
1.050113e-06
9.687469e-07
9.403344e-07
9.3628496e-07
9.3315803e-07
9.3327272e-07
9.3205258e-07
9.2858367e-07
9.2478439e-07
9.1930255e-07
9.131154e-07
9.0958008e-07
9.1018707e-07
9.1119394e-07
9.1139757e-07
9.1286774e-07
9.1595661e-07
9.1984331e-07
9.234541e-07
9.2308901e-07
9.2562829e-07
9.320092e-07
9.3668339e-07
9.3851472e-07
9.4159628e-07
9.445096e-07
9.4842519e-07
9.5345568e-07
9.5687013e-07
9.5912504e-07
9.6388111e-07
9.7133184e-07
9.7728928e-07
9.8121776e-07
9.8599034e-07
9.9450453e-07
1.0081214e-06
1.0181386e-06
1.0268007e-06
1.040303e-06
1.0491602e-06
1.0627894e-06
1.071213e-06
1.0835076e-06
1.0959698e-06
1.108626e-06
1.119399e-06
1.141364e-06
1.1530676e-06
1.1697501e-06
1.1799563e-06
1.1979922e-06
1.2154034e-06
1.2366108e-06
1.0517101e-06
1.0528425e-06
9.6991677e-07
9.4079906e-07
9.3668662e-07
9.3356862e-07
9.3381684e-07
9.3298469e-07
9.2978082e-07
9.2590933e-07
9.2080787e-07
9.1469311e-07
9.1036762e-07
9.1020126e-07
9.110162e-07
9.1172716e-07
9.1272024e-07
9.1415643e-07
9.1768727e-07
9.2235246e-07
9.2235555e-07
9.2479367e-07
9.3044966e-07
9.3474217e-07
9.3685586e-07
9.3948315e-07
9.4218537e-07
9.4611401e-07
9.4998297e-07
9.532216e-07
9.5641313e-07
9.6161964e-07
9.6914614e-07
9.7414089e-07
9.7804554e-07
9.8117968e-07
9.8912717e-07
9.9903627e-07
1.0078129e-06
1.0137739e-06
1.0244162e-06
1.0330477e-06
1.0458529e-06
1.0574291e-06
1.0742147e-06
1.0822894e-06
1.0946054e-06
1.1036175e-06
1.1244509e-06
1.1365257e-06
1.1553761e-06
1.1701529e-06
1.190289e-06
1.2042023e-06
1.2140751e-06
1.0514009e-06
1.0550946e-06
9.7122409e-07
9.4169683e-07
9.3741376e-07
9.3420497e-07
9.3438832e-07
9.338585e-07
9.3068411e-07
9.264635e-07
9.2153833e-07
9.159696e-07
9.1135685e-07
9.1042322e-07
9.1138282e-07
9.1269646e-07
9.1369305e-07
9.1412606e-07
9.1696369e-07
9.2251854e-07
9.2335408e-07
9.261059e-07
9.3080403e-07
9.3428552e-07
9.3653807e-07
9.3886453e-07
9.4197678e-07
9.4624862e-07
9.4890253e-07
9.5138713e-07
9.5543497e-07
9.6140632e-07
9.6764908e-07
9.7175739e-07
9.7449098e-07
9.7660259e-07
9.8372688e-07
9.937375e-07
1.0014584e-06
1.0062396e-06
1.0118092e-06
1.0173101e-06
1.0274812e-06
1.0401615e-06
1.0534994e-06
1.0600982e-06
1.0721991e-06
1.078772e-06
1.0946287e-06
1.1105353e-06
1.1348011e-06
1.1555713e-06
1.1781247e-06
1.1872949e-06
1.1971281e-06
1.0495585e-06
1.0558335e-06
9.7206466e-07
9.4218447e-07
9.3769605e-07
9.3439289e-07
9.3455613e-07
9.3431168e-07
9.3152163e-07
9.2718586e-07
9.221474e-07
9.1709737e-07
9.1250007e-07
9.1096205e-07
9.1194095e-07
9.1325706e-07
9.1470997e-07
9.1509128e-07
9.1668774e-07
9.2243873e-07
9.2423024e-07
9.2742806e-07
9.3115834e-07
9.3373015e-07
9.3590319e-07
9.3788237e-07
9.4140568e-07
9.4650958e-07
9.485379e-07
9.4995438e-07
9.5434661e-07
9.608632e-07
9.6712441e-07
9.7092652e-07
9.7361265e-07
9.7532538e-07
9.8157316e-07
9.9130149e-07
9.9867017e-07
1.002219e-06
1.0042864e-06
1.0082721e-06
1.0187167e-06
1.0303727e-06
1.0409083e-06
1.0478172e-06
1.0588578e-06
1.0673179e-06
1.0760263e-06
1.0858205e-06
1.1062802e-06
1.1222976e-06
1.146238e-06
1.1592661e-06
1.1789982e-06
1.049893e-06
1.0533501e-06
9.7166451e-07
9.4249747e-07
9.3807242e-07
9.3470265e-07
9.3485517e-07
9.3482016e-07
9.3244049e-07
9.2797906e-07
9.2274274e-07
9.1827364e-07
9.1389701e-07
9.1190436e-07
9.1258043e-07
9.1347334e-07
9.1527638e-07
9.1597746e-07
9.1677398e-07
9.2190196e-07
9.2444823e-07
9.2824789e-07
9.3150049e-07
9.3356934e-07
9.3575984e-07
9.3739207e-07
9.4102332e-07
9.4676608e-07
9.4868729e-07
9.4911926e-07
9.5336287e-07
9.5990154e-07
9.6567381e-07
9.6869161e-07
9.7124753e-07
9.7254299e-07
9.7755326e-07
9.8604081e-07
9.9357407e-07
9.9847045e-07
1.0012168e-06
1.0041867e-06
1.0115162e-06
1.0214374e-06
1.0327786e-06
1.0403261e-06
1.0464213e-06
1.0512992e-06
1.0637678e-06
1.0719442e-06
1.0871106e-06
1.099805e-06
1.1165038e-06
1.1270037e-06
1.1452566e-06
1.0495935e-06
1.055507e-06
9.7272331e-07
9.4301477e-07
9.3843405e-07
9.3504365e-07
9.3514855e-07
9.3527029e-07
9.3332949e-07
9.2890351e-07
9.2321264e-07
9.1904519e-07
9.150101e-07
9.1286868e-07
9.1312384e-07
9.1359179e-07
9.1569578e-07
9.1706719e-07
9.1791443e-07
9.2200313e-07
9.2471941e-07
9.2921626e-07
9.3219376e-07
9.338985e-07
9.3618604e-07
9.3733919e-07
9.4094353e-07
9.4718399e-07
9.4924007e-07
9.4922268e-07
9.5330801e-07
9.5998808e-07
9.6516951e-07
9.6760427e-07
9.6957163e-07
9.7096219e-07
9.7613161e-07
9.8339133e-07
9.901933e-07
9.9694077e-07
9.9978061e-07
1.0014007e-06
1.0074337e-06
1.0145238e-06
1.0228495e-06
1.031057e-06
1.0397646e-06
1.0471258e-06
1.0582842e-06
1.064871e-06
1.0780799e-06
1.0850038e-06
1.0958273e-06
1.1111532e-06
1.1270988e-06
1.0492709e-06
1.0576904e-06
9.7378549e-07
9.4349632e-07
9.3875528e-07
9.3528517e-07
9.3533086e-07
9.3557027e-07
9.3402427e-07
9.2980702e-07
9.2375908e-07
9.197232e-07
9.1618282e-07
9.1406322e-07
9.1371352e-07
9.1378048e-07
9.1591601e-07
9.1792195e-07
9.1926906e-07
9.2261626e-07
9.2484525e-07
9.2963753e-07
9.325922e-07
9.3442166e-07
9.3689241e-07
9.3785742e-07
9.4131485e-07
9.4747677e-07
9.4963316e-07
9.4935924e-07
9.5312715e-07
9.5977809e-07
9.6447993e-07
9.6594881e-07
9.672706e-07
9.6926758e-07
9.7440146e-07
9.8002216e-07
9.8631543e-07
9.9333116e-07
9.9686248e-07
1.0008052e-06
1.0072918e-06
1.0114662e-06
1.0175615e-06
1.0279153e-06
1.0369001e-06
1.0430125e-06
1.0524366e-06
1.0592243e-06
1.0684669e-06
1.0777573e-06
1.0913884e-06
1.1009686e-06
1.1124143e-06
1.0489424e-06
1.059725e-06
9.747951e-07
9.4393733e-07
9.3910002e-07
9.355975e-07
9.3554235e-07
9.3585491e-07
9.3470759e-07
9.3077047e-07
9.2439513e-07
9.2021731e-07
9.1713479e-07
9.1518939e-07
9.1424373e-07
9.1403134e-07
9.1601849e-07
9.1857474e-07
9.2063701e-07
9.2369875e-07
9.2528077e-07
9.3000572e-07
9.3301702e-07
9.351273e-07
9.3788425e-07
9.3890576e-07
9.4207687e-07
9.4782006e-07
9.5015452e-07
9.4987095e-07
9.5318535e-07
9.5983812e-07
9.6424396e-07
9.6525947e-07
9.6642619e-07
9.6928903e-07
9.7412748e-07
9.7869596e-07
9.8408165e-07
9.9005818e-07
9.9532588e-07
1.0012755e-06
1.0057775e-06
1.0083568e-06
1.0132972e-06
1.0219667e-06
1.0319631e-06
1.0390006e-06
1.0472537e-06
1.0553571e-06
1.0630106e-06
1.0730996e-06
1.0818927e-06
1.0888676e-06
1.0972729e-06
1.0486011e-06
1.0617011e-06
9.7576558e-07
9.4439919e-07
9.3940171e-07
9.3587668e-07
9.3573794e-07
9.3609343e-07
9.3524466e-07
9.316507e-07
9.2511078e-07
9.2064714e-07
9.1795836e-07
9.1629246e-07
9.1480758e-07
9.143125e-07
9.1616648e-07
9.1909478e-07
9.219859e-07
9.2485619e-07
9.2586414e-07
9.3025833e-07
9.3329553e-07
9.3575099e-07
9.3885268e-07
9.4008713e-07
9.4311765e-07
9.4837387e-07
9.5063325e-07
9.5028966e-07
9.5339611e-07
9.6004876e-07
9.6427813e-07
9.650165e-07
9.6603519e-07
9.6922148e-07
9.7435129e-07
9.7850805e-07
9.8202682e-07
9.8667628e-07
9.9377489e-07
9.9970944e-07
1.0021471e-06
1.0062536e-06
1.0099023e-06
1.0142574e-06
1.0234009e-06
1.0332155e-06
1.0435948e-06
1.0528899e-06
1.0616673e-06
1.0676417e-06
1.0731618e-06
1.0728775e-06
1.0789988e-06
1.0482548e-06
1.0635715e-06
9.766889e-07
9.4485558e-07
9.3972865e-07
9.3616558e-07
9.3593149e-07
9.3632302e-07
9.3568041e-07
9.3247473e-07
9.259093e-07
9.2108641e-07
9.1862299e-07
9.172734e-07
9.154455e-07
9.1462834e-07
9.1638637e-07
9.1944704e-07
9.2311578e-07
9.2594595e-07
9.2667143e-07
9.3060805e-07
9.3367038e-07
9.3637807e-07
9.3975303e-07
9.4144869e-07
9.4437975e-07
9.4906418e-07
9.5130757e-07
9.5127952e-07
9.5423165e-07
9.606718e-07
9.6482509e-07
9.6570025e-07
9.6635373e-07
9.6981924e-07
9.7536013e-07
9.7945123e-07
9.8111702e-07
9.8402136e-07
9.8980436e-07
9.9644031e-07
1.0016157e-06
1.0057914e-06
1.0082543e-06
1.0104257e-06
1.0155851e-06
1.0248235e-06
1.0353105e-06
1.0489583e-06
1.0569988e-06
1.0580055e-06
1.0612574e-06
1.0644179e-06
1.0769796e-06
1.0478924e-06
1.0653947e-06
9.7759086e-07
9.4530208e-07
9.4005089e-07
9.3644232e-07
9.3612248e-07
9.3651208e-07
9.3604588e-07
9.3323971e-07
9.2675647e-07
9.2158436e-07
9.1917051e-07
9.1813761e-07
9.1607935e-07
9.1504875e-07
9.167395e-07
9.198178e-07
9.2398726e-07
9.2679392e-07
9.2752631e-07
9.3112956e-07
9.3412249e-07
9.3681186e-07
9.4038064e-07
9.4249016e-07
9.4561983e-07
9.4983706e-07
9.5217909e-07
9.5260592e-07
9.5550206e-07
9.6152283e-07
9.6574636e-07
9.6688639e-07
9.6724695e-07
9.7101208e-07
9.7694467e-07
9.8091033e-07
9.8128902e-07
9.8220398e-07
9.8673509e-07
9.937028e-07
9.9986575e-07
1.0035333e-06
1.0055776e-06
1.007833e-06
1.0114441e-06
1.0185375e-06
1.0297468e-06
1.0396671e-06
1.044996e-06
1.0526008e-06
1.0602568e-06
1.0640072e-06
1.0684084e-06
1.0475413e-06
1.0670779e-06
9.784432e-07
9.457251e-07
9.403469e-07
9.3668327e-07
9.3632186e-07
9.3668867e-07
9.3634888e-07
9.3390833e-07
9.2763796e-07
9.2217864e-07
9.1959348e-07
9.1880739e-07
9.1668355e-07
9.1554557e-07
9.171529e-07
9.2023022e-07
9.2458642e-07
9.2735677e-07
9.2837314e-07
9.3172535e-07
9.3469244e-07
9.372145e-07
9.4073281e-07
9.4335955e-07
9.4690259e-07
9.5066838e-07
9.5305021e-07
9.5397204e-07
9.5718762e-07
9.6278077e-07
9.6704961e-07
9.6850824e-07
9.6884307e-07
9.7293823e-07
9.7902395e-07
9.8290989e-07
9.8287162e-07
9.8257256e-07
9.8565616e-07
9.9200679e-07
9.990111e-07
1.0033892e-06
1.0056486e-06
1.0079538e-06
1.0104086e-06
1.0167697e-06
1.025199e-06
1.0341513e-06
1.0414876e-06
1.0529602e-06
1.0597259e-06
1.0620978e-06
1.0621559e-06
1.0472158e-06
1.0686837e-06
9.7925142e-07
9.4611873e-07
9.406605e-07
9.3694672e-07
9.3655172e-07
9.3689214e-07
9.3660272e-07
9.3449978e-07
9.285091e-07
9.2284269e-07
9.1987414e-07
9.1927597e-07
9.1721815e-07
9.1607327e-07
9.1766258e-07
9.2061635e-07
9.2485857e-07
9.2758568e-07
9.2902077e-07
9.3226082e-07
9.3522538e-07
9.3752867e-07
9.4075172e-07
9.438391e-07
9.4779412e-07
9.5148387e-07
9.5397678e-07
9.5538432e-07
9.5850589e-07
9.6379931e-07
9.6818051e-07
9.6986755e-07
9.7043099e-07
9.7457282e-07
9.8097407e-07
9.8534007e-07
9.8595182e-07
9.8522202e-07
9.8699006e-07
9.9252259e-07
9.9982247e-07
1.0055407e-06
1.0076081e-06
1.0091131e-06
1.0122421e-06
1.0176597e-06
1.0236415e-06
1.0309678e-06
1.0415527e-06
1.0516065e-06
1.0567138e-06
1.0572945e-06
1.0601108e-06
1.0468812e-06
1.0701101e-06
9.8001284e-07
9.4645448e-07
9.4093996e-07
9.3718271e-07
9.3672047e-07
9.3703436e-07
9.367906e-07
9.3497406e-07
9.2933162e-07
9.2355168e-07
9.2010127e-07
9.1957574e-07
9.1770066e-07
9.1672233e-07
9.1825473e-07
9.2106214e-07
9.2501164e-07
9.2761649e-07
9.2954966e-07
9.3271424e-07
9.3566883e-07
9.3778214e-07
9.4068261e-07
9.4400451e-07
9.483986e-07
9.5207021e-07
9.5453632e-07
9.5652068e-07
9.5987003e-07
9.6492073e-07
9.6876919e-07
9.7047942e-07
9.7135308e-07
9.7543453e-07
9.8205073e-07
9.8721406e-07
9.8878018e-07
9.889072e-07
9.9044117e-07
9.9440767e-07
1.0007576e-06
1.0068204e-06
1.0095007e-06
1.0113524e-06
1.0144606e-06
1.0186499e-06
1.024534e-06
1.0320782e-06
1.0394333e-06
1.0479176e-06
1.0538544e-06
1.0585044e-06
1.0599065e-06
1.046562e-06
1.071683e-06
9.8074433e-07
9.4681598e-07
9.4120952e-07
9.3747227e-07
9.3698109e-07
9.3726354e-07
9.3700802e-07
9.354521e-07
9.3014764e-07
9.2430695e-07
9.2027544e-07
9.1964938e-07
9.1802296e-07
9.1732883e-07
9.1874897e-07
9.2133135e-07
9.2500185e-07
9.273893e-07
9.2981924e-07
9.3301221e-07
9.3601644e-07
9.3808017e-07
9.4059727e-07
9.4411012e-07
9.4872944e-07
9.5215734e-07
9.5466249e-07
9.5747774e-07
9.6121278e-07
9.6557072e-07
9.6876778e-07
9.7040464e-07
9.7207562e-07
9.7620535e-07
9.8278635e-07
9.8864372e-07
9.919178e-07
9.9323172e-07
9.9380173e-07
9.9668105e-07
1.0019311e-06
1.0085492e-06
1.0133965e-06
1.0167615e-06
1.0202009e-06
1.0228892e-06
1.0274322e-06
1.0322946e-06
1.0391236e-06
1.0489723e-06
1.055484e-06
1.0614768e-06
1.0641788e-06
1.0462409e-06
1.0728167e-06
9.8134275e-07
9.4707035e-07
9.4138207e-07
9.3759067e-07
9.3702635e-07
9.3728245e-07
9.3700745e-07
9.3571064e-07
9.3076298e-07
9.2504921e-07
9.2059542e-07
9.1974719e-07
9.1843468e-07
9.1805471e-07
9.1937733e-07
9.2165063e-07
9.2502733e-07
9.2709864e-07
9.29836e-07
9.3305086e-07
9.3613216e-07
9.382595e-07
9.4037156e-07
9.4391225e-07
9.4853167e-07
9.5165218e-07
9.5402052e-07
9.5745074e-07
9.6154605e-07
9.6540857e-07
9.6780467e-07
9.6973386e-07
9.7159233e-07
9.7559448e-07
9.8222923e-07
9.885319e-07
9.9252302e-07
9.938741e-07
9.9468227e-07
9.9740788e-07
1.0019135e-06
1.0078749e-06
1.015259e-06
1.019172e-06
1.0213204e-06
1.0221661e-06
1.0267387e-06
1.0327736e-06
1.0396302e-06
1.0447076e-06
1.0497281e-06
1.0562447e-06
1.0640079e-06
1.0458822e-06
1.0744321e-06
9.8192119e-07
9.4716368e-07
9.4136737e-07
9.3753992e-07
9.3698297e-07
9.3719624e-07
9.3689754e-07
9.3576872e-07
9.31145e-07
9.254267e-07
9.2050675e-07
9.1925155e-07
9.1825572e-07
9.1826102e-07
9.1958671e-07
9.216094e-07
9.2485804e-07
9.2669058e-07
9.2972673e-07
9.3300225e-07
9.3624517e-07
9.3856109e-07
9.403411e-07
9.437326e-07
9.4819454e-07
9.5103081e-07
9.5313522e-07
9.5693577e-07
9.6146015e-07
9.6504941e-07
9.6672574e-07
9.68424e-07
9.7088014e-07
9.7545945e-07
9.8204888e-07
9.8785041e-07
9.9159192e-07
9.9436531e-07
9.9656436e-07
9.9903464e-07
1.0019575e-06
1.0079529e-06
1.0148385e-06
1.0194544e-06
1.0209631e-06
1.0239502e-06
1.0307933e-06
1.0342003e-06
1.0378196e-06
1.0405128e-06
1.0458872e-06
1.0551387e-06
1.0621088e-06
1.0455144e-06
1.0748813e-06
9.8196772e-07
9.4666147e-07
9.4056918e-07
9.3661475e-07
9.3591854e-07
9.3605973e-07
9.356612e-07
9.34721e-07
9.3049801e-07
9.2503795e-07
9.1983522e-07
9.1811682e-07
9.1736005e-07
9.1764804e-07
9.18932e-07
9.2058516e-07
9.2363768e-07
9.250618e-07
9.2833771e-07
9.3167501e-07
9.3522522e-07
9.3775816e-07
9.3929012e-07
9.4250567e-07
9.4671593e-07
9.4913243e-07
9.5082862e-07
9.5464698e-07
9.595743e-07
9.6286126e-07
9.638836e-07
9.6516895e-07
9.6793268e-07
9.7278191e-07
9.7853417e-07
9.8350643e-07
9.8743227e-07
9.9117592e-07
9.9360124e-07
9.9571072e-07
9.9806261e-07
1.0026572e-06
1.0075562e-06
1.0128307e-06
1.0164174e-06
1.0223299e-06
1.0258499e-06
1.0270201e-06
1.0285256e-06
1.0325306e-06
1.0378221e-06
1.0440574e-06
1.051037e-06
1.0445963e-06
1.0753696e-06
9.803532e-07
9.43401e-07
9.3611743e-07
9.3153611e-07
9.3051665e-07
9.3049238e-07
9.3020596e-07
9.2952254e-07
9.2577613e-07
9.2069231e-07
9.1541682e-07
9.1342927e-07
9.1317845e-07
9.1398824e-07
9.1547274e-07
9.169215e-07
9.1989112e-07
9.2105145e-07
9.2446751e-07
9.2789195e-07
9.3165683e-07
9.3438884e-07
9.358603e-07
9.3889939e-07
9.4286605e-07
9.4494064e-07
9.4625407e-07
9.5017502e-07
9.554289e-07
9.5877283e-07
9.5917401e-07
9.6032467e-07
9.6323958e-07
9.6778584e-07
9.7303094e-07
9.7699292e-07
9.8090969e-07
9.843602e-07
9.8709259e-07
9.897149e-07
9.9245776e-07
9.9489937e-07
9.9856507e-07
1.0042211e-06
1.0107404e-06
1.0160308e-06
1.0187737e-06
1.0215654e-06
1.0236871e-06
1.0253035e-06
1.0274454e-06
1.0321852e-06
1.0406415e-06
1.0413911e-06
1.0671112e-06
9.7057302e-07
9.3066194e-07
9.2025451e-07
9.1405599e-07
9.122168e-07
9.1178979e-07
9.1136921e-07
9.10861e-07
9.0807649e-07
9.0402188e-07
8.9919449e-07
8.9709237e-07
8.9734283e-07
8.9880094e-07
9.0028562e-07
9.0131942e-07
9.0386285e-07
9.0477408e-07
9.0830231e-07
9.1188788e-07
9.158244e-07
9.1880342e-07
9.204125e-07
9.235359e-07
9.2749671e-07
9.2935159e-07
9.3031388e-07
9.3405114e-07
9.3928213e-07
9.4261724e-07
9.4295775e-07
9.4353672e-07
9.4617577e-07
9.5055267e-07
9.5462249e-07
9.5721958e-07
9.6006408e-07
9.6293553e-07
9.6589789e-07
9.6853772e-07
9.7063892e-07
9.7160175e-07
9.7357501e-07
9.7800036e-07
9.8450919e-07
9.9000354e-07
9.9420272e-07
9.9784829e-07
8.4966972e-07
8.797175e-07
1.0004607e-06
1.0019891e-06
1.0084509e-06
1.0247359e-06
1.0251382e-06
9.3661594e-07
8.9695086e-07
8.8281725e-07
8.7463913e-07
8.712236e-07
8.6973629e-07
8.6882968e-07
8.6795932e-07
8.6544038e-07
8.6172555e-07
8.5651933e-07
8.5377065e-07
8.5395951e-07
8.5547623e-07
8.5664928e-07
8.573967e-07
8.5958248e-07
8.6029561e-07
8.6366689e-07
8.6713432e-07
8.7096029e-07
8.7399451e-07
8.7572742e-07
8.7868737e-07
8.8227987e-07
8.8402613e-07
8.8519541e-07
8.8924107e-07
8.95363e-07
8.9977939e-07
9.0112112e-07
9.0252712e-07
9.0621692e-07
9.1138512e-07
9.1576866e-07
9.1859387e-07
9.2128757e-07
9.249658e-07
9.2925785e-07
9.326602e-07
9.3428633e-07
8.9751825e-07
9.3624989e-07
9.4027444e-07
8.1412356e-07
9.4667219e-07
9.5849705e-07
9.2663038e-07
6.6316567e-07
5.7554153e-07
6.2817245e-07
9.3237325e-07
9.6940069e-07
9.9339232e-07
9.5696208e-07
8.9508998e-07
8.4988881e-07
8.215546e-07
8.0401408e-07
7.9483055e-07
7.9043136e-07
7.8809743e-07
7.8620858e-07
7.8357114e-07
7.8031745e-07
7.7470914e-07
7.7163231e-07
7.7236794e-07
7.7446435e-07
7.7605029e-07
7.763787e-07
7.7810163e-07
7.7826915e-07
7.8166023e-07
7.8536169e-07
7.8949952e-07
7.9286865e-07
7.950072e-07
7.9800663e-07
8.0116359e-07
8.0230258e-07
8.028992e-07
8.0703696e-07
8.1363361e-07
8.1872221e-07
8.2071155e-07
8.2275314e-07
8.2761525e-07
8.3396656e-07
8.3921348e-07
8.4219296e-07
8.4489556e-07
8.4963322e-07
8.5570345e-07
8.602202e-07
8.6219812e-07
7.9575992e-07
8.6528708e-07
8.6959723e-07
8.3553788e-07
8.1874578e-07
8.9069344e-07
8.9513905e-07
7.1429712e-07
5.2505097e-07
5.2813902e-07
7.4192619e-07
9.0330437e-07
1.0690322e-06
1.063001e-06
9.7463582e-07
8.8591799e-07
8.1358836e-07
7.626284e-07
7.3096506e-07
7.0593922e-07
6.8893285e-07
6.732625e-07
6.6049818e-07
6.5008515e-07
6.4167261e-07
6.3663413e-07
6.3361912e-07
6.3400824e-07
6.3474647e-07
6.3617213e-07
6.3826634e-07
6.4052827e-07
6.4741365e-07
6.5477956e-07
6.5944522e-07
6.6359785e-07
6.6591712e-07
6.6856142e-07
6.7096878e-07
6.7195355e-07
6.7132409e-07
6.737379e-07
6.7912458e-07
6.8333871e-07
6.8380667e-07
6.8345481e-07
6.8587926e-07
6.9236016e-07
6.9560162e-07
6.9573119e-07
6.9595704e-07
6.9824473e-07
7.0261608e-07
7.0433943e-07
7.0395063e-07
7.0415259e-07
7.0458726e-07
7.0628117e-07
7.0710487e-07
6.0877847e-07
7.2304754e-07
7.2902923e-07
7.3492238e-07
6.3043358e-07
5.357577e-07
6.4111416e-07
7.4447114e-07
1.3309567e-06
1.6735294e-06
1.6478711e-06
1.599387e-06
1.5030954e-06
1.4028656e-06
1.331406e-06
1.2451548e-06
1.1665968e-06
1.082851e-06
9.8484526e-07
8.9141413e-07
8.1501279e-07
7.4898103e-07
6.7630196e-07
6.168154e-07
5.72958e-07
5.4097658e-07
5.1714086e-07
4.9393545e-07
4.7778449e-07
4.6873375e-07
4.6085486e-07
4.5581674e-07
4.5091447e-07
4.4837071e-07
4.4150279e-07
4.3380589e-07
4.2396096e-07
4.1849341e-07
4.1617595e-07
4.1548134e-07
4.1271017e-07
4.0804834e-07
4.0486653e-07
4.0244901e-07
3.9979831e-07
3.9532362e-07
3.8679781e-07
3.8341373e-07
3.8245603e-07
3.7989387e-07
3.7350657e-07
3.6967453e-07
3.6423841e-07
3.6424474e-07
3.6714243e-07
3.738397e-07
3.7992025e-07
3.8398083e-07
3.8909623e-07
3.9303111e-07
3.9338467e-07
3.9424285e-07
4.0398613e-07
9.6214952e-07
1.683438e-06
1.6278122e-06
1.5392152e-06
1.5012621e-06
1.5007146e-06
1.5412834e-06
1.6322131e-06
1.7631404e-06
1.9161485e-06
2.009042e-06
1.9967392e-06
1.8521437e-06
1.632975e-06
1.3897879e-06
1.1458119e-06
9.1827107e-07
7.101456e-07
5.4056585e-07
4.0044627e-07
2.9154727e-07
2.1263955e-07
1.5535358e-07
1.1872049e-07
9.0735124e-08
6.9031436e-08
5.3938416e-08
4.543014e-08
3.7503892e-08
3.0569308e-08
2.8831616e-08
3.1502695e-08
3.3479829e-08
3.2332039e-08
3.2317853e-08
3.3833622e-08
3.5385796e-08
3.7756391e-08
3.9110398e-08
4.01093e-08
4.2399042e-08
4.4956519e-08
4.7464168e-08
5.0285913e-08
5.6081575e-08
6.8861612e-08
8.3480737e-08
1.009409e-07
1.1724653e-07
1.2991564e-07
1.3961137e-07
1.5021583e-07
1.6943541e-07
1.9029931e-07
2.1073062e-07
2.3819253e-07
3.8195392e-07
7.3736076e-07
8.4945994e-07
7.954799e-07
1.0122164e-06
1.046324e-06
1.0566149e-06
1.0683902e-06
1.0705615e-06
1.071168e-06
1.0685899e-06
1.0663371e-06
1.0663504e-06
1.0704644e-06
1.0847382e-06
1.1018511e-06
1.1129292e-06
1.1244196e-06
1.1398623e-06
1.1517162e-06
1.17999e-06
1.2114186e-06
1.2288938e-06
1.2558324e-06
1.2711807e-06
1.317362e-06
2.8145384e-07
3.7706727e-07
6.4611956e-07
6.8465543e-07
6.671076e-07
1.0149797e-06
1.051371e-06
1.0620489e-06
1.0751974e-06
1.0754639e-06
1.0768373e-06
1.0764309e-06
1.0748925e-06
1.0750735e-06
1.0789819e-06
1.0878416e-06
1.107681e-06
1.1298447e-06
1.1384766e-06
1.146542e-06
1.1600166e-06
1.1877834e-06
1.2181113e-06
1.2376296e-06
1.2655842e-06
1.2898383e-06
1.328358e-06
3.3003994e-07
3.7397409e-07
6.849551e-07
8.969174e-07
8.6998451e-07
1.0148422e-06
1.0567412e-06
1.0680484e-06
1.0838358e-06
1.0874481e-06
1.088858e-06
1.0855696e-06
1.0823801e-06
1.0836376e-06
1.0887609e-06
1.0983522e-06
1.1151306e-06
1.1390816e-06
1.1550045e-06
1.1625462e-06
1.1738053e-06
1.198057e-06
1.2282639e-06
1.2494208e-06
1.2760037e-06
1.3046466e-06
1.344338e-06
3.6041826e-07
3.7076302e-07
6.758964e-07
8.901179e-07
9.7666341e-07
1.018287e-06
1.0625901e-06
1.0752671e-06
1.0916361e-06
1.0964396e-06
1.1029719e-06
1.098171e-06
1.0954144e-06
1.093686e-06
1.100062e-06
1.1118748e-06
1.1292654e-06
1.1498014e-06
1.1641889e-06
1.1774589e-06
1.1859246e-06
1.2060127e-06
1.240936e-06
1.2632439e-06
1.2891289e-06
1.3138772e-06
1.3546658e-06
3.8558255e-07
3.841246e-07
6.6538713e-07
7.9230526e-07
6.8082926e-07
7.3369769e-07
1.0619943e-06
1.0773385e-06
1.0996623e-06
1.1046737e-06
1.1144642e-06
1.1115891e-06
1.107211e-06
1.106091e-06
1.1137301e-06
1.1269489e-06
1.1423447e-06
1.1583277e-06
1.1779737e-06
1.1897197e-06
1.2026144e-06
1.2180859e-06
1.2517566e-06
1.2739445e-06
1.3102789e-06
1.3417071e-06
1.3616567e-06
4.1254846e-07
3.8520078e-07
6.3541834e-07
5.274194e-07
5.2603626e-07
5.7324254e-07
9.374407e-07
1.0811914e-06
1.1009406e-06
1.1110316e-06
1.121388e-06
1.1215794e-06
1.1208728e-06
1.1217556e-06
1.125822e-06
1.1375832e-06
1.151205e-06
1.1704087e-06
1.1918583e-06
1.2024291e-06
1.2149712e-06
1.2305878e-06
1.2651087e-06
1.2938161e-06
1.329149e-06
1.3641129e-06
1.3760048e-06
4.4849552e-07
4.088281e-07
5.9053691e-07
4.9078845e-07
5.4132928e-07
6.0725725e-07
9.152404e-07
1.0880401e-06
1.1090724e-06
1.1155304e-06
1.1271822e-06
1.1334746e-06
1.1326348e-06
1.1334513e-06
1.1333729e-06
1.1435037e-06
1.1599928e-06
1.1838521e-06
1.2029789e-06
1.214109e-06
1.2234272e-06
1.2446242e-06
1.285671e-06
1.3148106e-06
1.3439544e-06
1.3747373e-06
1.4070546e-06
4.8934296e-07
4.1545948e-07
6.1536859e-07
6.2309064e-07
6.5493861e-07
7.9003849e-07
9.8617821e-07
1.0913675e-06
1.118685e-06
1.1268667e-06
1.138168e-06
1.1418993e-06
1.1441284e-06
1.1422263e-06
1.146136e-06
1.155577e-06
1.1705051e-06
1.1872978e-06
1.2069213e-06
1.2289232e-06
1.2425785e-06
1.2592265e-06
1.2977282e-06
1.3280999e-06
1.3627007e-06
1.3889323e-06
1.424211e-06
5.5919447e-07
4.4041885e-07
5.972651e-07
7.6580345e-07
7.3267935e-07
7.9795048e-07
8.7139685e-07
1.097104e-06
1.1283417e-06
1.1414459e-06
1.1528556e-06
1.1538319e-06
1.1544646e-06
1.1542023e-06
1.1535103e-06
1.1635706e-06
1.1789173e-06
1.194108e-06
1.2129382e-06
1.2353223e-06
1.2603266e-06
1.2720237e-06
1.3079086e-06
1.337074e-06
1.3881459e-06
1.4054766e-06
1.439471e-06
6.320462e-07
4.7259161e-07
5.9453861e-07
6.9186295e-07
5.8781302e-07
7.2561808e-07
7.5735051e-07
1.1073792e-06
1.1426771e-06
1.1518874e-06
1.1615195e-06
1.1672951e-06
1.1718355e-06
1.1692538e-06
1.1602198e-06
1.1662254e-06
1.185055e-06
1.2022529e-06
1.2206035e-06
1.2488796e-06
1.2666673e-06
1.2773042e-06
1.3133711e-06
1.3427544e-06
1.4102298e-06
1.4307976e-06
1.4589538e-06
7.0700009e-07
4.9933568e-07
5.8982256e-07
7.1614709e-07
5.6649572e-07
7.4905321e-07
8.2309932e-07
1.1160359e-06
1.1601571e-06
1.168997e-06
1.1792857e-06
1.1879895e-06
1.1863521e-06
1.1815967e-06
1.1777113e-06
1.1727113e-06
1.187589e-06
1.2151543e-06
1.2404868e-06
1.2590454e-06
1.2765776e-06
1.2847191e-06
1.314967e-06
1.3445244e-06
1.422175e-06
1.4519896e-06
1.4779491e-06
7.8172737e-07
5.3566622e-07
5.8722679e-07
8.096546e-07
6.5704085e-07
8.8767681e-07
8.4836798e-07
1.1221423e-06
1.1712181e-06
1.1803459e-06
1.2025663e-06
1.2027825e-06
1.1988217e-06
1.1934465e-06
1.1886276e-06
1.1873352e-06
1.1981872e-06
1.2274461e-06
1.2620276e-06
1.2760719e-06
1.2889004e-06
1.2937277e-06
1.3147833e-06
1.3498862e-06
1.42612e-06
1.4659837e-06
1.4923561e-06
8.3640364e-07
5.6995367e-07
6.0218045e-07
8.1630407e-07
7.4057238e-07
7.6001533e-07
7.357543e-07
9.2536484e-07
1.184055e-06
1.1999676e-06
1.2186767e-06
1.2217285e-06
1.2148962e-06
1.2078217e-06
1.202656e-06
1.2030404e-06
1.2137568e-06
1.2392012e-06
1.2806223e-06
1.2945495e-06
1.3010013e-06
1.305224e-06
1.322446e-06
1.3663997e-06
1.4314241e-06
1.4827965e-06
1.5144428e-06
8.7770442e-07
6.1301242e-07
6.0018821e-07
7.9935678e-07
6.5950904e-07
6.489495e-07
6.5658617e-07
9.0826143e-07
1.1972001e-06
1.2195197e-06
1.2391676e-06
1.2405146e-06
1.2292086e-06
1.2200228e-06
1.219857e-06
1.2216032e-06
1.2337678e-06
1.2564356e-06
1.296027e-06
1.3072019e-06
1.3192485e-06
1.3235443e-06
1.3371198e-06
1.3775858e-06
1.4362907e-06
1.4921933e-06
1.5455201e-06
9.088879e-07
6.4739091e-07
6.079398e-07
6.0968515e-07
5.6365652e-07
6.0875431e-07
6.851162e-07
1.0145816e-06
1.2071457e-06
1.2313097e-06
1.2530795e-06
1.2479192e-06
1.2432543e-06
1.2439756e-06
1.244476e-06
1.24066e-06
1.2504409e-06
1.2776799e-06
1.3062006e-06
1.324804e-06
1.3378936e-06
1.3460191e-06
1.3560778e-06
1.3882932e-06
1.451986e-06
1.5052679e-06
1.5613311e-06
9.3875456e-07
6.876157e-07
6.0194075e-07
6.0066809e-07
5.9442246e-07
6.4054536e-07
7.0783401e-07
8.480003e-07
1.2113259e-06
1.2402401e-06
1.2629388e-06
1.2613502e-06
1.2652427e-06
1.2670996e-06
1.260548e-06
1.2525034e-06
1.2624803e-06
1.2916691e-06
1.3121591e-06
1.3424545e-06
1.3654524e-06
1.370151e-06
1.3852282e-06
1.4042256e-06
1.4628381e-06
1.519563e-06
1.5829736e-06
9.8034306e-07
7.3746539e-07
6.1884031e-07
7.5418481e-07
6.5294632e-07
7.3206117e-07
6.6787825e-07
8.0512392e-07
1.0211116e-06
1.2457532e-06
1.265172e-06
1.2805042e-06
1.2880293e-06
1.2814397e-06
1.2635301e-06
1.2617438e-06
1.2690183e-06
1.3000418e-06
1.3308501e-06
1.3577204e-06
1.3900163e-06
1.3940049e-06
1.410451e-06
1.4213029e-06
1.4728461e-06
1.5333976e-06
1.596312e-06
1.0337439e-06
7.7112777e-07
6.5075856e-07
7.6209086e-07
6.0643249e-07
7.3735163e-07
6.5697808e-07
8.1851829e-07
1.0899198e-06
1.2492731e-06
1.268914e-06
1.2895715e-06
1.2914295e-06
1.2825993e-06
1.2727066e-06
1.2786042e-06
1.2864578e-06
1.3096281e-06
1.3399051e-06
1.3714561e-06
1.4087921e-06
1.4233206e-06
1.4303957e-06
1.4352553e-06
1.4798343e-06
1.5490382e-06
1.6083386e-06
1.0905981e-06
8.1464922e-07
6.56259e-07
7.5674288e-07
6.3615339e-07
7.4397787e-07
6.2296545e-07
7.6288632e-07
9.8582943e-07
1.2590328e-06
1.2834143e-06
1.2958279e-06
1.2984509e-06
1.2939469e-06
1.2924514e-06
1.2894571e-06
1.2916381e-06
1.3122628e-06
1.3470037e-06
1.3834285e-06
1.4259726e-06
1.4366814e-06
1.451555e-06
1.4606939e-06
1.498439e-06
1.5732945e-06
1.6226362e-06
1.1342925e-06
8.5491796e-07
6.7185193e-07
7.5258368e-07
7.3391781e-07
7.8796479e-07
6.6690669e-07
6.9716429e-07
8.0825675e-07
1.1390774e-06
1.3032739e-06
1.3114593e-06
1.318982e-06
1.3173543e-06
1.304012e-06
1.2978454e-06
1.3026906e-06
1.3231356e-06
1.3613649e-06
1.392145e-06
1.4285504e-06
1.4414174e-06
1.4683852e-06
1.4741475e-06
1.5146235e-06
1.5903827e-06
1.6377639e-06
1.1616227e-06
8.9526026e-07
6.9994005e-07
7.4703681e-07
7.2067052e-07
7.1566771e-07
6.5043844e-07
6.8035096e-07
8.1710134e-07
1.1608673e-06
1.3236013e-06
1.3335578e-06
1.3379811e-06
1.3322111e-06
1.3179644e-06
1.3187088e-06
1.3326018e-06
1.3440329e-06
1.3764243e-06
1.3992353e-06
1.4286553e-06
1.4390218e-06
1.4674902e-06
1.4758326e-06
1.5168256e-06
1.6048172e-06
1.6554052e-06
1.1764413e-06
9.4188892e-07
7.352526e-07
7.6366569e-07
7.0497131e-07
6.8208319e-07
6.9046038e-07
8.2056469e-07
1.045793e-06
1.2949493e-06
1.3471393e-06
1.3606199e-06
1.3589713e-06
1.3462192e-06
1.3449152e-06
1.3465938e-06
1.3546412e-06
1.3637314e-06
1.389562e-06
1.4143699e-06
1.4428372e-06
1.4460712e-06
1.4675545e-06
1.4757755e-06
1.5144135e-06
1.6131251e-06
1.6689913e-06
1.1815272e-06
9.8030291e-07
7.529581e-07
7.4773348e-07
7.0668223e-07
6.9577619e-07
8.0646322e-07
9.3718542e-07
1.1342787e-06
1.2943868e-06
1.3669319e-06
1.3793105e-06
1.3847804e-06
1.374377e-06
1.3668159e-06
1.3656756e-06
1.3725687e-06