/*--------------------------------*- C++ -*----------------------------------*\
| =========                 |                                                 |
| \\      /  F ield         | OpenFOAM: The Open Source CFD Toolbox           |
|  \\    /   O peration     | Version:  2406                                  |
|   \\  /    A nd           | Website:  www.openfoam.com                      |
|    \\/     M anipulation  |                                                 |
\*---------------------------------------------------------------------------*/
FoamFile
{
    version     2.0;
    format      ascii;
    arch        "LSB;label=32;scalar=64";
    class       volScalarField;
    location    "3";
    object      p;
}
// * * * * * * * * * * * * * * * * * * * * * * * * * * * * * * * * * * * * * //

dimensions      [1 -1 -2 0 0 0 0];

internalField   nonuniform List<scalar> 
62344
(
1.0038291
0.99457344
0.98094366
0.97158178
0.97032738
0.97153353
0.97304748
0.96780761
0.95596392
0.94015444
0.91968726
0.89998656
0.89324831
0.89510284
0.89683216
0.8939712
0.91120396
0.92480073
0.93234754
0.94087479
0.94749149
0.95359996
0.97240657
0.97983344
0.97653874
0.98477547
0.9875857
0.98775786
0.99871583
0.99944535
0.98805015
0.98924538
1.0013092
1.0067402
0.9996357
0.98915697
0.98320783
0.98643002
0.99657659
1.006833
1.0110339
1.0053244
0.99380538
0.98418983
0.98176796
0.98690517
0.99640034
1.0054385
1.0086915
1.0035666
0.99244695
0.98052088
0.97201164
0.97121914
0.97860749
1.0039357
0.99496227
0.98152161
0.97220916
0.97088801
0.97202188
0.9741527
0.96982212
0.95721303
0.94217425
0.92273598
0.90193392
0.89236028
0.89433549
0.89811216
0.8953087
0.90536941
0.91810984
0.93079816
0.9414371
0.94133034
0.94793077
0.96866241
0.97964859
0.97769713
0.98246923
0.98463604
0.98786508
0.99826692
0.99757769
0.98626201
0.98708134
1.0000662
1.0047524
0.99559765
0.98452531
0.98292999
0.99127902
1.0014941
1.0077391
1.0084879
1.003999
0.99700981
0.99166732
0.98987111
0.99104442
0.9942461
0.99818659
1.0011015
1.001014
0.99669892
0.98938845
0.98233743
0.97902903
0.98223699
1.0039151
0.99517012
0.98174477
0.97226804
0.97072123
0.97144408
0.97438562
0.97057641
0.95723071
0.94271128
0.92493565
0.90398059
0.89178568
0.8928306
0.89748799
0.89798274
0.90292521
0.91356464
0.92895546
0.94324211
0.94058275
0.94522776
0.96584027
0.97842533
0.97835205
0.98122473
0.98266364
0.98711519
0.99515214
0.99413808
0.98561385
0.98736535
1.0000632
1.0043159
0.99413317
0.98257207
0.98396702
0.99538062
1.0042829
1.0056383
1.0026067
1.0002905
1.0010653
1.0025384
1.001437
0.99665799
0.99040818
0.98627259
0.98653862
0.99081365
0.99627658
0.99938289
0.99873453
0.99537897
0.9910454
1.0039047
0.99527524
0.98195092
0.97256272
0.97092316
0.97136149
0.97429322
0.9716458
0.95824461
0.9426437
0.92619572
0.9060458
0.89161779
0.89067903
0.89538642
0.89878611
0.90313437
0.90861996
0.92279132
0.94128622
0.94063838
0.94511524
0.9632782
0.97484706
0.97684822
0.97975271
0.98178644
0.98740914
0.99178446
0.98945687
0.98514573
0.98940865
1.0011033
1.004937
0.99437281
0.98283718
0.98604963
0.99958419
1.007098
1.0030747
0.99523118
0.99277072
0.99940208
1.0086118
1.0117927
1.0047194
0.99108228
0.9781977
0.97310204
0.97794837
0.9895838
1.0020245
1.0099844
1.0112489
1.0053983
1.0039399
0.9952356
0.98195168
0.97258201
0.97052643
0.9706227
0.97357729
0.97194244
0.95922132
0.94237804
0.9262843
0.90825403
0.89252645
0.88925924
0.89371735
0.89848433
0.90402417
0.90629193
0.91673892
0.93832552
0.94071101
0.9471004
0.96191451
0.97126593
0.97463295
0.97702685
0.98078333
0.9890714
0.98997896
0.9853315
0.98491208
0.99228902
1.0026329
1.005391
0.99460799
0.98328338
0.98771004
1.0033377
1.0114184
1.0038043
0.99055955
0.98515689
0.99349118
1.007697
1.0157515
1.0112927
0.99621871
0.97801277
0.96684796
0.96812942
0.98086815
0.99779723
1.0124439
1.019188
1.0166749
1.0039976
0.99520291
0.98187283
0.97254407
0.97016207
0.96990498
0.97263292
0.97191595
0.96034685
0.94249343
0.9256433
0.90985071
0.89402108
0.8884471
0.89222591
0.89685595
0.90384191
0.90607349
0.91191493
0.9340964
0.93988899
0.94937142
0.9617565
0.96872496
0.97267282
0.97394689
0.97924247
0.99103199
0.99022384
0.98245191
0.98506997
0.99527868
1.0044691
1.0050588
0.99417881
0.98342337
0.98790193
1.0046526
1.0149919
1.007645
0.99122807
0.98152371
0.98686836
1.0016254
1.0130062
1.0127604
1.00074
0.98344422
0.96960073
0.96637443
0.97505225
0.99033879
1.0062368
1.0172029
1.0193107
1.0040717
0.9953007
0.98189777
0.97250242
0.96986277
0.96924852
0.9717534
0.971687
0.961464
0.94299332
0.92488017
0.91070724
0.89589611
0.8888788
0.89117696
0.89466187
0.90267165
0.90662248
0.90965265
0.92948766
0.93783858
0.95073016
0.9618704
0.9671101
0.97126179
0.97104987
0.97710496
0.99214803
0.99137739
0.98113336
0.98514477
0.99788383
1.0062813
1.0039965
0.99335744
0.98367268
0.98732669
1.0030166
1.0149483
1.0112285
0.9957345
0.98279692
0.98302105
0.99378529
1.0050329
1.0090496
1.0025918
0.99043229
0.97877221
0.97277646
0.9756354
0.98526526
0.99675217
1.006719
1.0121973
1.0041641
0.99550966
0.98196943
0.97245167
0.96952095
0.96860794
0.97087874
0.97116152
0.96248604
0.94396181
0.92416599
0.91094043
0.89762772
0.88994455
0.89036652
0.89215732
0.900522
0.90679149
0.90995231
0.92607558
0.93505833
0.95066897
0.96156156
0.9659434
0.97060368
0.96911778
0.97498522
0.99204976
0.99235418
0.9807539
0.98494505
0.99966386
1.0077106
1.00267
0.99234182
0.98439044
0.98743682
0.99999339
1.0112329
1.0118809
1.000682
0.98796904
0.98297734
0.98727397
0.99527749
1.0011812
1.0016081
0.99667465
0.99023241
0.98497383
0.98302356
0.98503651
0.98951282
0.99450468
0.99894136
1.0042445
0.9957358
0.98212817
0.97245456
0.96924456
0.96808966
0.97002573
0.97054256
0.96331998
0.9452383
0.92388694
0.91075151
0.89904685
0.89148882
0.8898775
0.8898463
0.89773907
0.90622819
0.91135607
0.92462679
0.93233185
0.94917132
0.96026023
0.96487432
0.97034714
0.96815028
0.97349243
0.99083974
0.99239416
0.98060948
0.98440556
1.0004981
1.008577
1.0013719
0.99095567
0.98552231
0.9889884
0.99764661
1.005631
1.0087178
1.0036739
0.99441395
0.98713481
0.98443446
0.98693736
0.99182583
0.99693612
1.0001887
1.0004751
0.99860577
0.99479201
0.99033949
0.98688453
0.98507965
0.98525978
1.0042848
0.99591007
0.98231148
0.97248781
0.96901669
0.96771163
0.96925263
0.96988099
0.96389875
0.94671479
0.92406141
0.91029656
0.90008462
0.89322718
0.88976398
0.88799419
0.89494732
0.90508757
0.91294492
0.92478032
0.93031588
0.94696445
0.95818684
0.96349375
0.96998969
0.96804858
0.97291117
0.98923161
0.99157129
0.9804025
0.9836127
1.000583
1.0088518
1.0001721
0.98915807
0.98658864
0.99178694
0.99718709
1.0004733
1.0027192
1.0031272
1.0000169
0.99382102
0.98645125
0.98211098
0.98320446
0.98956661
0.9987332
1.0065857
1.009924
1.0073505
0.99968295
0.9897604
0.98087076
0.97526989
1.0042834
0.99603719
0.98250224
0.97262747
0.9689154
0.96748281
0.96862631
0.96923431
0.96426407
0.94822919
0.92469696
0.90981689
0.90074972
0.89491607
0.88989874
0.88659068
0.89264928
0.90362305
0.91421278
0.92553345
0.92925343
0.94458845
0.95558657
0.96162653
0.96939334
0.96870249
0.9734745
0.98791588
0.9903662
0.980235
0.98282603
1.0000487
1.0084398
0.99910518
0.98714697
0.98720954
0.99508811
0.99904486
0.99718946
0.99601168
0.99923375
1.0030471
1.0010701
0.99251761
0.98228217
0.97726347
0.98159151
0.99344695
1.0069429
1.0163418
1.0175237
1.0100144
0.99704464
0.982968
0.9714423
1.0042502
0.99614575
0.98269973
0.97285297
0.96891688
0.96730536
0.96812709
0.96862755
0.96444479
0.94968459
0.92576941
0.90958442
0.90110682
0.89636239
0.89016899
0.88561333
0.89098451
0.90214788
0.91490646
0.92615302
0.92900875
0.94262673
0.95310656
0.95957404
0.96827018
0.96959812
0.97492864
0.98726987
0.98931942
0.98036579
0.98244081
0.99899594
1.0074019
0.99807261
0.9853561
0.98725354
0.99808293
1.0024883
0.99644451
0.99059599
0.99370287
1.0025955
1.0067601
1.0002666
0.98719057
0.97603282
0.97528817
0.98636205
1.0026502
1.016785
1.022785
1.0185402
1.0060939
0.98957499
0.97409959
1.0041973
0.99624328
0.98292994
0.97314252
0.9689964
0.96714325
0.96774089
0.96810061
0.96447517
0.95096574
0.92721034
0.90975074
0.90114014
0.89744598
0.8904786
0.88510359
0.88992054
0.90092934
0.91501991
0.92624564
0.92917865
0.94126831
0.95118792
0.95761761
0.96670906
0.9701065
0.97668597
0.98719826
0.98868997
0.98103223
0.98269318
0.99759001
1.005796
0.99696819
0.98404013
0.9868079
1.0001067
1.0062829
0.99831767
0.98791345
0.98805404
0.99936421
1.0091794
1.0073379
0.99472297
0.97972053
0.97306493
0.97981762
0.99541589
1.0118377
1.0223771
1.0225526
1.0132027
0.99817996
0.98148246
1.0041297
0.99630792
0.98316822
0.97346871
0.96913006
0.96703856
0.96746584
0.96766609
0.96440483
0.95206471
0.92891349
0.91037441
0.90098608
0.89807846
0.89077677
0.88507835
0.8894301
0.90007102
0.91466857
0.92554348
0.92929117
0.94038164
0.94998177
0.95602767
0.96485003
0.97002918
0.97816353
0.98734246
0.9883409
0.98226486
0.98361967
0.99613877
1.0036233
0.99567283
0.98323281
0.98620166
1.0009942
1.0095135
1.0018409
0.988178
0.98402
0.99461045
1.0080609
1.0116993
1.0022601
0.98678313
0.97532302
0.9760843
0.98809788
1.0036453
1.0167171
1.0217185
1.0168966
1.0053901
0.99064586
1.0040568
0.99632521
0.98338018
0.97380564
0.96933438
0.96703354
0.96729574
0.96732145
0.96425022
0.95298043
0.93075176
0.91143094
0.90071534
0.89818693
0.89098782
0.88543377
0.88945234
0.89949642
0.91397405
0.92417127
0.92914977
0.9397731
0.94939381
0.95494675
0.96293235
0.96945553
0.97899615
0.98729513
0.98793421
0.98379085
0.98511696
0.99501969
1.0012303
0.99422402
0.98297344
0.98574581
1.0008674
1.0114939
1.0058936
0.99086447
0.9826805
0.98983173
1.0040499
1.0124427
1.007933
0.99461585
0.98113175
0.97655401
0.98295711
0.99517697
1.0077994
1.0161624
1.0166572
1.0098328
0.99888316
1.0039867
0.99630395
0.983554
0.97413069
0.96959474
0.96713322
0.96722537
0.96706249
0.9640346
0.95373444
0.93260439
0.91283457
0.90044916
0.89783065
0.891056
0.88610528
0.88987071
0.89915449
0.91310462
0.92232918
0.92868157
0.93919172
0.94922706
0.95444369
0.96119254
0.96864082
0.97918914
0.98670082
0.98711881
0.9851563
0.98708887
0.99445275
0.9988999
0.99257578
0.98317986
0.98565068
1.0001944
1.0120012
1.0091243
0.99488828
0.98399073
0.98669555
0.99877403
1.0095672
1.0104553
1.0011761
0.98865007
0.98076134
0.98129554
0.98878512
0.99855047
1.007531
1.0120955
1.0105114
1.0039696
1.0039246
0.99626953
0.98367776
0.97442346
0.96985439
0.96729323
0.96723557
0.96687019
0.96379017
0.95433926
0.93437894
0.91446562
0.90029124
0.89710927
0.8909718
0.88700012
0.89058879
0.89897672
0.91219421
0.92022235
0.92793422
0.93859803
0.94921143
0.95452729
0.95980235
0.96777202
0.97897323
0.98573776
0.98569183
0.98604515
0.98930277
0.99456042
0.99687038
0.9909021
0.98373442
0.98622498
0.99932288
1.0112554
1.0108842
0.99898512
0.98739047
0.98581253
0.99405474
1.0043512
1.0091893
1.0051512
0.9959284
0.98746533
0.98363782
0.98545423
0.99119454
0.99817115
1.0042946
1.0068444
1.0052271
1.0038812
0.99625011
0.98377344
0.97464876
0.97011321
0.96747258
0.96730759
0.96674501
0.9635595
0.95484163
0.93602919
0.91620938
0.90030708
0.89612376
0.89075139
0.88801565
0.8915202
0.89889345
0.91133722
0.91803867
0.92698959
0.93790566
0.9491873
0.95487919
0.95892625
0.96708114
0.9785655
0.98441608
0.98358575
0.98619099
0.9914297
0.99533259
0.99527823
0.98934355
0.98441838
0.9874965
0.99871077
1.0095421
1.0108802
1.0023278
0.99193828
0.98736924
0.9906918
0.99834868
1.004727
1.0057866
1.001433
0.99475057
0.98885469
0.98586115
0.98664917
0.99023849
0.99532492
0.99996443
1.0024256
1.003857
0.99626491
0.98383915
0.97480872
0.9703221
0.96761869
0.96741421
0.96667504
0.96336973
0.95523454
0.93751028
0.91796629
0.90052968
0.89499771
0.89042309
0.88902689
0.89253981
0.89885218
0.91058358
0.91593058
0.92590342
0.9370924
0.94900554
0.95542249
0.95854753
0.96663226
0.97817571
0.98293814
0.98122531
0.9855204
0.99309613
0.99665727
0.9942051
0.98802191
0.98516324
0.98928565
0.99865852
1.0074207
1.009406
1.0042988
0.99665512
0.9907862
0.98953383
0.99307483
0.99841815
1.0028666
1.0041879
1.0011554
0.99556566
0.98967192
0.9857895
0.98488048
0.98729927
0.99176237
0.99654304
1.0038583
0.99632006
0.9839054
0.97492233
0.97049786
0.96774292
0.96754172
0.96667076
0.96324435
0.9555655
0.93880868
0.91966719
0.90094929
0.89387754
0.89001893
0.88997786
0.89355954
0.89884121
0.90995776
0.91400255
0.9247244
0.93616366
0.94859762
0.95600243
0.95843732
0.9664096
0.97784725
0.9814891
0.97871343
0.98409102
0.99409584
0.9981714
0.9937266
0.98704287
0.98580864
0.99128234
0.99924883
1.0052418
1.0069102
1.0048349
1.0006623
0.99507731
0.9903397
0.98901253
0.99135977
0.99747101
1.0036861
1.0055498
1.0022163
0.99564803
0.98842788
0.98282629
0.98125124
0.9838998
0.98912706
1.0038736
0.99640708
0.98397145
0.975005
0.97063142
0.96786694
0.96767413
0.96671342
0.96317297
0.95583269
0.93992494
0.92121093
0.90148999
0.89285991
0.88956979
0.89085518
0.89451072
0.89885267
0.9094779
0.91231364
0.92353531
0.93516277
0.94805189
0.95649443
0.9585849
0.96638196
0.97762344
0.98025187
0.97635982
0.98214249
0.99446023
0.99962611
0.99390216
0.98637479
0.98619269
0.99323337
1.0003447
1.003726
1.0041103
1.0040328
1.0034073
0.99945351
0.99277001
0.98671437
0.98527869
0.99110734
1.0005077
1.0073436
1.0077856
1.0023294
0.99355871
0.98437564
0.97825637
0.97762193
0.98185808
1.0039085
0.99651627
0.98404977
0.97507062
0.97073364
0.96787133
0.96778809
0.96678079
0.96315113
0.95606983
0.9408715
0.92265478
0.90213593
0.89198977
0.88906856
0.8916145
0.89538108
0.89887039
0.90911888
0.9108716
0.92238254
0.93413419
0.94735901
0.95681592
0.95878528
0.9664222
0.97748053
0.9793112
0.97423316
0.97990737
0.99421863
1.0008297
0.99441718
0.98600437
0.98620838
0.99475397
1.0016105
1.0028913
1.0015219
1.0023861
1.0047511
1.0031935
0.99611838
0.98631621
0.98089582
0.98463468
0.9955494
1.0064898
1.0112897
1.0085035
0.99970504
0.98827253
0.97843221
0.97390627
0.97553931
1.0039319
0.99663589
0.98414561
0.9751453
0.97081429
0.96796135
0.96793046
0.96687153
0.96317671
0.95630588
0.94164511
0.92384635
0.90278615
0.89131732
0.88861368
0.89219617
0.89591775
0.89887944
0.90881336
0.90966655
0.92122731
0.93308477
0.94655168
0.9569153
0.95902875
0.96651987
0.97738005
0.97873308
0.97249592
0.97764063
0.9933887
1.0017727
0.99528111
0.9858432
0.98598992
0.99566067
1.0028743
1.0027915
0.99957186
1.0003651
1.0048092
1.0059607
0.99958984
0.98755425
0.97832628
0.97918255
0.98994045
1.0035793
1.0125761
1.01325
1.0058161
0.9937558
0.98111613
0.97289949
0.97133752
1.0039631
0.99674522
0.98423822
0.97520294
0.97088222
0.96793641
0.96800096
0.96693992
0.96317411
0.95643963
0.94225502
0.92488793
0.90346486
0.89086906
0.88815332
0.89267065
0.89665029
0.89888864
0.90865426
0.90878266
0.92036664
0.93212438
0.94571324
0.95683783
0.95927696
0.9665945
0.97725503
0.97852199
0.97117599
0.97557637
0.9920894
1.0023728
0.99622159
0.98588393
0.98561429
0.99587844
1.0039182
1.0032041
0.99844063
0.99833929
1.0039676
1.0076052
1.0027824
0.9898704
0.97774995
0.97512641
0.98442943
0.99926807
1.0117641
1.016192
1.0110889
0.99917279
0.98535051
0.97413926
0.96931318
1.003977
0.99683846
0.98435237
0.97527531
0.97094588
0.96800978
0.9681017
0.96704182
0.96330177
0.95678295
0.9428553
0.92581829
0.90408317
0.89061937
0.88779214
0.8928989
0.89668129
0.89867694
0.90837123
0.90796539
0.91908568
0.9310903
0.94478585
0.95648947
0.95917825
0.96625744
0.97697993
0.97853656
0.97024021
0.97370578
0.99061048
1.0025767
0.99727799
0.98617059
0.98511793
0.99545682
1.0045802
1.0039324
0.9981323
0.99657226
1.0025762
1.0082223
1.005345
0.99280867
0.97881083
0.97265628
0.97959638
0.99441635
1.0094161
1.017372
1.0151398
1.0047841
0.99065657
0.97697363
0.96918558
1.0040014
0.99689731
0.98440652
0.97532862
0.97099053
0.96799531
0.96813513
0.96708435
0.9632734
0.95675102
0.94311465
0.92632191
0.9046437
0.89057717
0.88755076
0.89305232
0.89726446
0.89875616
0.90833854
0.9076143
0.9186216
0.93047949
0.94408231
0.95648263
0.95939149
0.96614157
0.9769086
0.9788915
0.96994457
0.97211585
0.98901359
1.002414
0.99891279
0.98682002
0.98454998
0.99432391
1.0045237
1.0050072
0.99877168
0.99545363
1.0009764
1.0079938
1.0071537
0.99628725
0.9810923
0.97179267
0.9750341
0.98894693
1.0056182
1.0167261
1.01756
1.0100366
0.99674766
0.98161071
0.97094364
1.0039983
0.99695425
0.98451106
0.97539193
0.97104036
0.96803645
0.96817882
0.96717248
0.96344823
0.95715834
0.94371393
0.92715395
0.90535254
0.89089076
0.8874399
0.89286304
0.89702969
0.89827101
0.90799672
0.90710479
0.91753132
0.9292173
0.94270025
0.95555204
0.95887857
0.96530789
0.97609716
0.97908458
0.97029514
0.97112477
0.98684628
1.0011515
0.99965423
0.98808375
0.98446724
0.99327936
1.0032638
1.0051369
0.99952458
0.99544652
0.99971092
1.0069434
1.007794
0.9991533
0.98482244
0.97381062
0.97388175
0.98514034
1.0006364
1.0131001
1.0171061
1.0122464
1.0011151
0.98722484
0.97559359
0.96857265
0.96733298
0.96902745
0.9723084
0.9772136
0.98337322
0.99006547
0.99615044
1.001099
1.0024124
1.0000484
0.99396137
0.98463563
0.97424351
0.96535474
0.9610853
0.9632762
0.97212906
0.9855492
0.99995709
1.0103321
1.0122217
1.0054632
0.9950244
0.98971263
0.99307622
0.99442485
0.97532473
0.97751751
0.98256088
0.9872916
0.99268305
0.99799711
1.0025725
1.0049454
1.0047593
1.0009272
0.99389933
0.98409471
0.97342868
0.96404508
0.9584684
0.95833285
0.96430159
0.97500562
0.98724447
0.9966467
0.99950327
0.99448423
0.98499607
0.97993788
0.98696702
1.00318
1.0115385
0.9910003
0.99518941
1.0001239
1.004262
1.0083146
1.0110357
1.0119805
1.0103549
1.0062341
0.99929636
0.9905967
0.98110538
0.97267196
0.96737618
0.96623585
0.96996349
0.97729637
0.98621206
0.99316987
0.99403663
0.98736261
0.97536524
0.96547442
0.96671731
0.98166882
1.0036308
1.0142773
1.0069831
1.0109956
1.0134223
1.0149485
1.0156743
1.0150389
1.012693
1.0084535
1.0028368
0.9962182
0.9896716
0.98437857
0.9811057
0.98092715
0.98397229
0.98933815
0.99631236
1.0013988
1.0012519
0.99404223
0.98030392
0.96501362
0.95691734
0.96124355
0.97612163
0.99295345
0.99977732
1.0139414
1.0150813
1.0141311
1.0126545
1.0106671
1.0075929
1.0037227
0.99946302
0.99527004
0.99171813
0.98968353
0.98973396
0.99207028
0.99662062
1.0027604
1.0092068
1.0139114
1.0141224
1.0077028
0.99528086
0.98025962
0.96795811
0.96376669
0.96751756
0.97474967
0.97836201
0.97523528
1.0067124
1.0049781
1.001403
0.99818528
0.99497809
0.99172034
0.9889531
0.98687346
0.9860245
0.98684968
0.98964916
0.99435943
1.000649
1.0080594
1.015191
1.0204473
1.0215554
1.0171356
1.0078527
0.99583111
0.98546549
0.98064024
0.98087661
0.98195556
0.9788004
0.96704114
0.95273768
0.98908444
0.98502946
0.98117178
0.97807173
0.97557994
0.97389167
0.97355912
0.97476497
0.97776099
0.98253394
0.98889204
0.99660251
1.0047987
1.0119835
1.0167789
1.0178383
1.0144463
1.0071715
0.99873595
0.99249158
0.99115422
0.99496677
0.99973328
0.99816839
0.98584076
0.96477437
0.94530486
0.96888821
0.96468201
0.96237473
0.96098161
0.96055754
0.96132555
0.96373684
0.96774671
0.97333573
0.98018187
0.98783689
0.99544505
1.0018852
1.0058373
1.0064659
1.0031035
0.99645314
0.98916119
0.98449003
0.98585328
0.99363139
1.0039634
1.0107492
1.007681
0.99180002
0.97090771
0.95676764
0.95610288
0.95406824
0.95417303
0.95493872
0.95675202
0.95973226
0.96398678
0.96928706
0.97522474
0.98134912
0.98698584
0.99121894
0.9931631
0.9921819
0.98807177
0.98160804
0.97456543
0.97001182
0.97079839
0.97828024
0.99067228
1.0032913
1.0087393
1.0042628
0.99222505
0.98039605
0.97775883
0.95623131
0.95670091
0.9597517
0.96255638
0.96613934
0.97022524
0.97456591
0.97864362
0.98239314
0.98518972
0.98652105
0.9856769
0.98245152
0.97683109
0.96942501
0.96206126
0.95725308
0.9570326
0.96230808
0.9721624
0.98363838
0.99221881
0.99461676
0.9897187
0.9847016
0.98688931
0.99701286
0.96875365
0.97096315
0.97483703
0.97840805
0.98255886
0.98628976
0.98913332
0.99065587
0.99084101
0.98940986
0.98608238
0.98080901
0.97397444
0.96557212
0.95811644
0.95301964
0.95158929
0.95442953
0.9607999
0.96855191
0.97437103
0.97601281
0.97326606
0.96998443
0.97259563
0.98573611
1.005382
0.98755202
0.9910131
0.99431746
0.99676118
0.99879148
0.99991393
1.0000686
0.99871204
0.99573084
0.99109748
0.98508181
0.97798027
0.97072078
0.96399902
0.95964347
0.95803156
0.95938107
0.96264765
0.96613501
0.9673687
0.96494398
0.95913693
0.95315962
0.95229367
0.96144491
0.97977318
1.0001151
1.0048646
1.0074582
1.0085491
1.0085866
1.0080652
1.0064531
1.0036032
0.99949127
0.99458226
0.98915624
0.98360766
0.97836212
0.97415957
0.97181063
0.97145146
0.97262929
0.97452251
0.97547079
0.97407447
0.96830654
0.95833442
0.94741938
0.94061088
0.94283557
0.95447735
0.97148876
0.98451358
1.0105622
1.0111271
1.0097218
1.0075667
1.0052434
1.0017832
0.99795391
0.9938836
0.98994408
0.98640423
0.98373835
0.98238199
0.98254421
0.98427677
0.98694969
0.98921144
0.9897545
0.98721373
0.98017406
0.96901094
0.95620545
0.94536628
0.941072
0.94565318
0.95583843
0.96510629
0.96634868
1.0013572
0.99980752
0.99700136
0.99430288
0.99153349
0.98878926
0.98640705
0.98460342
0.98372634
0.98391954
0.98536046
0.98801335
0.99160426
0.99556146
0.99878059
1.0001507
0.9980417
0.99181427
0.98175889
0.9698592
0.95951494
0.95373945
0.95409442
0.95902539
0.96442593
0.96273579
0.95028989
0.98324565
0.98047756
0.97831629
0.97651929
0.97522889
0.97439717
0.97444993
0.97549777
0.97776002
0.98122216
0.98569198
0.99064003
0.99541326
0.99911974
1.0007173
0.9993156
0.99456216
0.9871113
0.97856486
0.97110715
0.96712212
0.96801763
0.97261402
0.97686203
0.97558055
0.96322563
0.94092304
0.96642526
0.96433674
0.9634919
0.9632964
0.96378008
0.96497057
0.96709115
0.97002266
0.97373779
0.977938
0.98226761
0.98612586
0.98899642
0.99027245
0.98944679
0.98633137
0.9815655
0.97656982
0.9728586
0.97238208
0.97599592
0.98290583
0.99027378
0.99258557
0.98442063
0.9645423
0.93864987
0.96058602
0.9599853
0.96079281
0.96152483
0.96276318
0.96453073
0.96678346
0.96923053
0.97167588
0.97375914
0.97521525
0.97570091
0.97494004
0.97296723
0.96994922
0.96685431
0.96453472
0.96409007
0.96679899
0.97327652
0.98276313
0.99277722
0.99940876
0.99824415
0.98608017
0.96487411
0.94265446
0.9654574
0.9659946
0.96768637
0.96896249
0.97042666
0.97134954
0.97195748
0.97194272
0.97127096
0.96976191
0.96733514
0.96386466
0.95983705
0.95569182
0.95221389
0.95037758
0.9511443
0.95520465
0.96273785
0.97305664
0.98406932
0.99291423
0.99602831
0.98999161
0.97712841
0.96161824
0.9491255
0.9745155
0.97533064
0.9764079
0.97673408
0.97685015
0.9763885
0.97520896
0.97311159
0.97010203
0.96611301
0.9613251
0.95603774
0.95101534
0.94695879
0.94458966
0.94466116
0.94774168
0.95385058
0.96234271
0.97148679
0.97869878
0.9816455
0.97900367
0.97098919
0.9610487
0.95438787
0.95407856
0.97991219
0.98011557
0.97985487
0.97857929
0.97709969
0.97498182
0.97243576
0.96941252
0.96599461
0.9621325
0.95815282
0.95448094
0.95155452
0.94992845
0.95000448
0.9520804
0.95589531
0.96079273
0.96551583
0.96848957
0.96823588
0.96376821
0.95595402
0.94767793
0.94270197
0.94477871
0.95523516
0.97376432
0.97294696
0.97175248
0.97018767
0.96851024
0.96653409
0.96446002
0.96236523
0.96037511
0.9588357
0.95803466
0.95818071
0.95922143
0.96115483
0.9638469
0.96686659
0.9694521
0.97066041
0.96947499
0.96514172
0.95687267
0.94578436
0.93455818
0.92713745
0.92707126
0.93608846
0.95316704
0.95854483
0.95719382
0.95607054
0.95499603
0.95426134
0.95368261
0.9535166
0.95390175
0.95506261
0.95710836
0.96010493
0.96391346
0.96838973
0.97301667
0.9772416
0.98010999
0.98064067
0.97784212
0.97088792
0.96019318
0.94677477
0.93267022
0.92133474
0.9161254
0.9194313
0.93164346
0.9507523
0.94243364
0.94099635
0.94034578
0.94012077
0.94064229
0.94187419
0.94403387
0.94714691
0.9512572
0.95625431
0.961932
0.96802431
0.97420694
0.97969681
0.98350699
0.98484352
0.98276118
0.97653619
0.96645161
0.95364547
0.93965309
0.92702714
0.91848188
0.91632259
0.92167516
0.93402109
0.95068201
0.93214675
0.93143674
0.93164868
0.93253871
0.93425299
0.93678088
0.94024934
0.94459441
0.94973381
0.9554439
0.96141793
0.96721519
0.97231435
0.97613604
0.97779087
0.97672321
0.97243837
0.96533107
0.95608131
0.94536948
0.93528756
0.92781092
0.92461941
0.92651005
0.93329657
0.94339487
0.95391146
0.93297921
0.93325186
0.93478853
0.93630891
0.93851158
0.94099839
0.94404249
0.94737386
0.95091874
0.95447285
0.95772625
0.96032183
0.96196071
0.96228689
0.96119484
0.95809577
0.95334347
0.9474826
0.94112953
0.93555903
0.93211362
0.93172208
0.93470403
0.94074885
0.94823639
0.95532754
0.95902366
0.94508081
0.94603173
0.94780017
0.94909417
0.95050806
0.95172948
0.9527625
0.95345088
0.95370259
0.95333117
0.95225011
0.95040331
0.94767015
0.94408454
0.93968533
0.93503606
0.93067354
0.92709528
0.92504928
0.92554459
0.92907564
0.93561202
0.94452941
0.95418382
0.96218808
0.96621562
0.9635057
0.96207677
0.96291601
0.96359476
0.96378558
0.96369272
0.96302895
0.96163517
0.95929268
0.95601796
0.95178942
0.94664479
0.94068302
0.93413886
0.92733299
0.92061358
0.9149914
0.91126907
0.91009784
0.9121766
0.91772541
0.92661067
0.93824171
0.9511638
0.96306076
0.97113336
0.97238254
0.96509105
0.97586713
0.97641063
0.97611138
0.9749457
0.97310198
0.97032378
0.96655671
0.96179944
0.95595709
0.94906281
0.94133506
0.9330436
0.92448357
0.91593424
0.90860146
0.90336808
0.90063709
0.90126229
0.90570331
0.91398758
0.92558602
0.93934103
0.95343188
0.96553618
0.97251621
0.97174004
0.96286883
0.98012105
0.98014955
0.97910312
0.97701775
0.97408349
0.97009244
0.9651292
0.95924197
0.95246066
0.9449048
0.93674254
0.92827568
0.91994101
0.91225481
0.905905
0.90182189
0.90033521
0.90203225
0.90716571
0.9156983
0.92700528
0.93979155
0.9521553
0.96182099
0.96660147
0.96465682
0.95622678
0.97253981
0.97194176
0.97042079
0.96817019
0.9652159
0.96147678
0.95700536
0.95182107
0.94608063
0.93985713
0.93341474
0.92695338
0.92085562
0.91556854
0.91164101
0.90950336
0.90936014
0.91157656
0.91616547
0.92297532
0.93138849
0.94028752
0.94826815
0.9540071
0.95577427
0.95335386
0.94650255
0.95442819
0.95358812
0.95223382
0.9505401
0.94866596
0.94646152
0.9438782
0.94096021
0.93776916
0.93451165
0.93133427
0.92842069
0.92599681
0.92422855
0.92329914
0.9232634
0.92440713
0.92655465
0.92969875
0.93343288
0.93753059
0.94117331
0.94367603
0.94441411
0.94346936
0.9400982
0.93504823
0.93227307
0.93169172
0.9309626
0.93027702
0.92969025
0.92910272
0.92873287
0.92857469
0.92869661
0.92911438
0.92987869
0.93102031
0.93247954
0.93433457
0.93648879
0.9387737
0.94099884
0.94290312
0.94427826
0.94486189
0.94420873
0.94222145
0.93901415
0.93513749
0.93095684
0.92691774
0.92327832
0.91143621
0.91106655
0.91098915
0.91133149
0.91221642
0.91364021
0.91562252
0.9182073
0.92140387
0.9251628
0.92942661
0.93410096
0.93905481
0.94403132
0.94878388
0.952937
0.95605696
0.95766422
0.95732323
0.95466429
0.94983622
0.94326463
0.93572033
0.92797835
0.92113109
0.91607475
0.91282714
0.89597046
0.89591359
0.89646928
0.89771402
0.89974409
0.90257153
0.90629513
0.91090728
0.91635603
0.92255702
0.92937612
0.93660428
0.94416378
0.95167479
0.95846821
0.96385827
0.96738147
0.96849423
0.96670732
0.96191707
0.9543393
0.94459361
0.9337382
0.92306988
0.91385452
0.90747084
0.90420596
0.88770704
0.88787984
0.88886871
0.89072668
0.89349265
0.89716195
0.9018315
0.90747715
0.91410664
0.92165737
0.92993875
0.93867936
0.94750152
0.95594787
0.96344532
0.9695208
0.97339238
0.97429868
0.97192379
0.96594647
0.95673211
0.94518224
0.93254367
0.92013133
0.90941204
0.901758
0.89795573
0.88559916
0.88597822
0.88725752
0.88935101
0.89236261
0.89630925
0.90123818
0.90715219
0.91402125
0.92175626
0.93020159
0.93907956
0.94815808
0.95696559
0.96480791
0.97096645
0.97475503
0.97556914
0.97298228
0.96679756
0.95731519
0.94538166
0.93214006
0.91888886
0.90717387
0.89847617
0.89379102
0.88832243
0.88877086
0.8900253
0.89203548
0.89487634
0.89853669
0.90310744
0.90858693
0.91496934
0.92217409
0.9300237
0.93829402
0.94669344
0.95480148
0.96208555
0.96791661
0.97158285
0.97246926
0.97027914
0.96473604
0.95606579
0.94482606
0.93195698
0.91869655
0.9064583
0.89689794
0.89171835
0.89340251
0.89375709
0.89489869
0.89665489
0.89902813
0.90211272
0.90596316
0.91060397
0.91613952
0.92241861
0.92925907
0.93646137
0.94383008
0.95098091
0.95749807
0.96280097
0.96623349
0.96734338
0.96577925
0.96118639
0.95376562
0.94384841
0.93209144
0.91949232
0.90741376
0.89748647
0.89121528
0.89974192
0.90002409
0.90088398
0.90227969
0.90422523
0.90675345
0.90992428
0.91372707
0.91816047
0.92317104
0.9286596
0.93450521
0.94052737
0.9464739
0.95197132
0.95652446
0.95975827
0.9612518
0.9606348
0.95711175
0.95107941
0.94260746
0.93254282
0.92125274
0.90977736
0.89969948
0.89270098
0.9070911
0.90727091
0.90789725
0.90892345
0.91036958
0.91223272
0.91453619
0.91731597
0.9205604
0.92426423
0.92840197
0.93291049
0.9376557
0.94246613
0.94706778
0.95098616
0.95389081
0.95548908
0.95545465
0.95302784
0.94864805
0.94200071
0.93343485
0.92353557
0.91298677
0.90320884
0.89575575
0.91477127
0.91483552
0.91516176
0.91574182
0.9166261
0.91783058
0.91938824
0.92131262
0.92359412
0.92623518
0.9292521
0.93258457
0.93612393
0.93975416
0.94332052
0.94657269
0.94923574
0.95095449
0.95140006
0.94992746
0.94677822
0.94176778
0.93478546
0.92613311
0.91642288
0.9069917
0.89942242
0.92133799
0.92131023
0.92144715
0.921745
0.92222339
0.92291338
0.92384857
0.92505403
0.92650997
0.92824094
0.93028962
0.93263539
0.93524211
0.93800102
0.94076558
0.94339105
0.94572059
0.94750435
0.94846437
0.94777927
0.94572693
0.9419786
0.93623413
0.92875263
0.9199522
0.91096771
0.90325182
0.92618847
0.92612322
0.9261905
0.92633876
0.92659043
0.9269565
0.92747601
0.92816975
0.92903964
0.93012536
0.93149089
0.93313335
0.93503907
0.93716825
0.93940718
0.94161242
0.94370272
0.94544542
0.94660734
0.94676339
0.94517728
0.94231326
0.93755802
0.9310909
0.92308354
0.9145038
0.90682084
0.92967195
0.92957387
0.9295585
0.92957782
0.92964688
0.92977941
0.92999576
0.93031786
0.93075827
0.93139172
0.93230923
0.93350761
0.93493722
0.93652166
0.93829621
0.94021905
0.94214054
0.94387363
0.94520792
0.94577713
0.94484035
0.94270841
0.93863983
0.93298231
0.92562244
0.91751692
0.91007201
0.93239881
0.93227654
0.9321966
0.9321118
0.93203674
0.93198494
0.9319795