/*--------------------------------*- C++ -*----------------------------------*\
| =========                 |                                                 |
| \\      /  F ield         | OpenFOAM: The Open Source CFD Toolbox           |
|  \\    /   O peration     | Version:  2406                                  |
|   \\  /    A nd           | Website:  www.openfoam.com                      |
|    \\/     M anipulation  |                                                 |
\*---------------------------------------------------------------------------*/
FoamFile
{
    version     2.0;
    format      ascii;
    arch        "LSB;label=32;scalar=64";
    class       volScalarField;
    location    "3";
    object      p_0;
}
// * * * * * * * * * * * * * * * * * * * * * * * * * * * * * * * * * * * * * //

dimensions      [1 -1 -2 0 0 0 0];

internalField   nonuniform List<scalar> 
62344
(
1.0036546
0.99425412
0.98094576
0.97198299
0.97107517
0.97263883
0.97422619
0.96771062
0.95311737
0.93655132
0.9181644
0.89881816
0.89205613
0.89441119
0.89960762
0.89570979
0.91016846
0.92646863
0.93676124
0.94352414
0.9517953
0.95413436
0.97120381
0.9836796
0.97885172
0.98386847
0.9892468
0.9873426
0.99635796
1.0027868
0.99240482
0.98756624
0.99723945
1.0069494
1.0042292
0.99428643
0.98523464
0.98319027
0.99018818
1.0014919
1.0104686
1.0106938
1.0011517
0.98838641
0.98012261
0.97999401
0.98744464
0.99798669
1.0067544
1.0084687
1.0014284
0.98931843
0.97685761
0.96850897
0.96812711
1.0037334
0.9945829
0.98142675
0.97254648
0.97165978
0.9730511
0.97507886
0.97010118
0.95477108
0.93788443
0.9209116
0.90044977
0.89110671
0.89259786
0.89931369
0.89785583
0.90623724
0.91869736
0.93342739
0.94478587
0.94742626
0.94823078
0.9667255
0.98173486
0.98057093
0.98286069
0.98624192
0.9866736
0.99634367
1.00129
0.99101902
0.98563384
0.99593488
1.0054821
1.0007425
0.98853272
0.98139173
0.98496372
0.99478152
1.0036846
1.008358
1.0075789
1.0013037
0.99352419
0.98848638
0.98716788
0.9894153
0.99420498
0.99922037
1.0022949
1.0010284
0.99493213
0.98617986
0.97830763
0.97511313
1.0037138
0.99474323
0.98151969
0.97245437
0.97133981
0.97211248
0.9747289
0.97078589
0.95493539
0.93803576
0.92236512
0.90264585
0.89070274
0.8911101
0.89821497
0.89991457
0.90550969
0.91399201
0.92994031
0.94626189
0.94757081
0.94630159
0.96370308
0.97948761
0.98087474
0.98283543
0.98446863
0.98637268
0.99416978
0.99725603
0.98916324
0.98541092
0.99584985
1.0051748
0.99970412
0.98632163
0.98077648
0.98858684
0.99921701
1.0041263
1.0036329
1.0012182
1.0005297
1.0017428
1.0017142
0.99878487
0.99338346
0.98831037
0.98638991
0.98854758
0.99319441
0.99738943
0.99855906
0.99642143
0.99203605
1.0036893
0.99482565
0.98160439
0.97265139
0.9714636
0.97198927
0.9745923
0.9717142
0.95621859
0.93797989
0.92284746
0.90445274
0.8907718
0.88899875
0.89518576
0.89973263
0.90638193
0.91049031
0.92325559
0.94338786
0.94693981
0.94701464
0.96245557
0.97584153
0.97905253
0.98183006
0.98327314
0.98744066
0.9925135
0.99213046
0.9867801
0.98648768
0.99683779
1.0056438
1.0000981
0.98647629
0.9823461
0.99319908
1.0047377
1.0056787
0.99882295
0.99292576
0.99509512
1.0038562
1.0111399
1.0102157
1.0004781
0.98679391
0.97629738
0.97435291
0.9810451
0.9924282
1.0035121
1.0099812
1.0099052
1.0036587
0.99474075
0.98150564
0.97252506
0.97102836
0.97121067
0.97370291
0.97178148
0.95754425
0.93806626
0.92238677
0.9062277
0.89193609
0.88786083
0.89325211
0.89879077
0.90697714
0.90995902
0.91709959
0.93955471
0.94547615
0.94919463
0.96253774
0.97306275
0.97691951
0.97910698
0.98132764
0.98904164
0.99255438
0.98798627
0.98475903
0.98872276
0.99876659
1.0062215
1.0003611
0.98669641
0.98346763
0.99640251
1.0101919
1.0098448
0.99758362
0.9867398
0.98773232
0.99994298
1.0126727
1.0163102
1.0073101
0.99054412
0.97395517
0.9660591
0.97037417
0.98384731
1.0003363
1.0135298
1.0192326
1.003661
0.99462625
0.98135868
0.97234062
0.9706331
0.97046237
0.97268449
0.97157914
0.95875099
0.93868417
0.92129003
0.90717381
0.89353457
0.88737181
0.89160897
0.89689369
0.90606939
0.91076228
0.91325841
0.93466996
0.94299759
0.95092774
0.96373133
0.97127202
0.97529839
0.97616007
0.9786014
0.99019819
0.99402111
0.98561193
0.98356924
0.99134368
1.0015895
1.0067071
0.99985371
0.98670901
0.98343116
0.9967045
1.0126855
1.0143885
1.0005547
0.98552845
0.98229984
0.99342822
1.0078693
1.0155001
1.0105643
0.99580279
0.97842881
0.96666555
0.96629213
0.97680084
0.99223576
1.0078934
1.0177617
1.0037204
0.99464786
0.98128983
0.97221681
0.97029038
0.969781
0.97178528
0.9711963
0.9600189
0.93964555
0.92049236
0.90744482
0.89518349
0.88813493
0.89056563
0.89475288
0.90416534
0.91130304
0.91203996
0.93031123
0.93972596
0.95143393
0.96440497
0.97036073
0.97428087
0.97389645
0.97571344
0.99024305
0.99559707
0.98482241
0.98278218
0.99360912
1.0045407
1.0067702
0.99895348
0.98691452
0.98329621
0.99498105
1.0111671
1.0160788
1.0051269
0.98896817
0.98135455
0.98729997
0.9995413
1.0088387
1.0088445
0.9992682
0.98599665
0.97491297
0.97081966
0.97552568
0.98578452
0.99747144
1.0076291
1.0038276
0.99482091
0.98129563
0.9720791
0.9699414
0.96915502
0.97091299
0.9706423
0.96106922
0.94095155
0.92002337
0.90724164
0.8964835
0.88936802
0.89002028
0.8926532
0.90134433
0.91088218
0.91274257
0.92789128
0.9364998
0.95065199
0.96428358
0.96940226
0.97396263
0.97284833
0.97349644
0.989353
0.9964544
0.9847646
0.98218584
0.9949182
1.0067283
1.0065937
0.99766903
0.98731191
0.9842581
0.99338254
1.0067822
1.0139675
1.0082783
0.99468469
0.98482954
0.98408913
0.99086118
0.99861234
1.0026679
1.0004193
0.99374253
0.98677401
0.98196683
0.98099517
0.98409449
0.9892319
0.99487078
1.0039405
0.99507406
0.98142757
0.97203266
0.96964773
0.96867086
0.9701141
0.97002002
0.96187064
0.94249417
0.92008697
0.90674748
0.89734351
0.89102069
0.89005589
0.89091539
0.8982329
0.90948735
0.91382399
0.92751443
0.93410663
0.94885468
0.96307758
0.96816313
0.97375432
0.9723047
0.97222959
0.98788711
0.99605877
0.98482769
0.98149677
0.99518676
1.0079217
1.0062218
0.99597813
0.98764235
0.98659556
0.99315463
1.0021115
1.0086655
1.008191
1.0001739
0.99117615
0.98534001
0.98492844
0.98866522
0.9936902
0.99802012
0.9995088
0.99840755
0.99586441
0.99197411
0.98811098
0.98571287
0.98481525
1.0040259
0.99532762
0.98162784
0.97203705
0.96940909
0.96834999
0.96948112
0.96939779
0.96238349
0.94417131
0.92066911
0.90613307
0.89774136
0.89279395
0.89051126
0.88957689
0.89544958
0.90745286
0.91476018
0.92831003
0.93293607
0.94674081
0.96099215
0.96636282
0.97314534
0.97237767
0.97216385
0.98659375
0.99482209
0.98469706
0.98071899
0.9947699
1.0083703
1.0057139
0.99396113
0.9873891
0.98955713
0.99495538
0.99896706
1.0021585
1.0041696
1.0030957
0.99826482
0.99076662
0.9839616
0.98138407
0.98444334
0.99175738
1.000478
1.0068005
1.0084501
1.004837
0.9970627
0.98795307
0.98007546
1.004079
0.99553427
0.98184967
0.9721593
0.96927105
0.96813233
0.96898566
0.96881903
0.96268636
0.94581208
0.92173092
0.90569139
0.89775958
0.89442768
0.89116263
0.88857713
0.89330249
0.90527101
0.91525703
0.92927097
0.9328207
0.94499314
0.95862357
0.96415524
0.972034
0.97276484
0.97328009
0.98600469
0.99350548
0.98452767
0.98012612
0.99402546
1.0081293
1.0051291
0.99192941
0.98646633
0.9922518
0.99833993
0.99830138
0.99631902
0.99755944
1.0020983
1.0037408
0.99822905
0.98811669
0.97886947
0.97688364
0.9839179
0.99641852
1.0092721
1.0166752
1.015984
1.0076521
0.99506394
0.98170418
1.004101
0.99569193
0.98207346
0.97236752
0.96922012
0.9679297
0.96859591
0.96831876
0.96285564
0.9473483
0.92317639
0.90566473
0.89752021
0.89573906
0.89182486
0.88791224
0.89175681
0.90332272
0.91525874
0.92977798
0.93326643
0.94382184
0.95646907
0.96199461
0.97051822
0.97288693
0.97502898
0.98621819
0.99257332
0.98467611
0.98011061
0.99325586
1.0070967
1.0044298
0.99024632
0.9852563
0.9939173
1.0022899
1.0000681
0.99262161
0.99074156
0.9977728
1.0057638
1.0053169
0.99534318
0.98164225
0.97345929
0.97668922
0.98969501
1.0060216
1.0187671
1.0226604
1.0170977
1.0042943
0.98833225
1.0040954
0.9958262
0.98231224
0.97264906
0.96924793
0.96777196
0.96831833
0.96793247
0.9629285
0.94865794
0.92485859
0.90616195
0.897182
0.89665414
0.89234563
0.88757689
0.89075326
0.90184304
0.9149322
0.92962901
0.93372213
0.94313074
0.95477565
0.96018112
0.96867137
0.972418
0.97675003
0.9869032
0.99205496
0.98531061
0.98092612
0.99255342
1.0054872
1.0034269
0.98906038
0.98399591
0.99454465
1.0056131
1.0034799
0.9921137
0.98550939
0.99188943
1.0042636
1.0096815
1.0029301
0.98834529
0.97513399
0.97261225
0.9827215
0.99894491
1.0149506
1.0235277
1.0221876
1.0121852
0.99711134
1.0040614
0.99594827
0.98257928
0.97298803
0.96936705
0.96771797
0.96814481
0.96767085
0.96294006
0.9497344
0.92662665
0.90715341
0.89689407
0.89711146
0.89267453
0.88754787
0.89029672
0.90083453
0.91447348
0.92869694
0.93387837
0.94270404
0.95368994
0.95893371
0.96671348
0.97146288
0.97793417
0.98759957
0.99172184
0.98633666
0.98260593
0.99213795
1.003489
1.001892
0.98826695
0.98306714
0.99427666
1.0076633
1.0073312
0.99445238
0.98326285
0.98634274
0.99995627
1.0104509
1.0089076
0.99634177
0.98105543
0.97308248
0.97763001
0.99111335
1.0067925
1.0188047
1.0221233
1.0165134
1.0047228
1.0039994
0.99604503
0.98285713
0.97335208
0.96957185
0.96776578
0.96805773
0.96751369
0.96288977
0.95057914
0.92837453
0.90855286
0.8967296
0.89707833
0.89277443
0.88772814
0.89035185
0.90018945
0.91400963
0.92717872
0.93353609
0.94231309
0.95311151
0.95828766
0.96493912
0.97020826
0.97841412
0.98788836
0.99121714
0.98749076
0.98484647
0.99224655
1.0014239
0.9999456
0.98770142
0.98258308
0.99357757
1.0081668
1.0106389
0.99837964
0.98423343
0.98281365
0.99459934
1.0078043
1.0116641
1.0033488
0.98898157
0.97769947
0.97633505
0.98491919
0.99749274
1.0099641
1.017145
1.0166154
1.0093385
1.0039228
0.99610401
0.98310852
0.97372641
0.96984872
0.96788123
0.96804728
0.9674334
0.96279074
0.95121978
0.93003784
0.91024911
0.89676425
0.89662956
0.89259299
0.88807818
0.89083278
0.89982582
0.91358898
0.92529399
0.93276492
0.94176501
0.95279615
0.95824068
0.96351221
0.96892951
0.97833214
0.98751128
0.99019917
0.98821655
0.9873631
0.99296654
0.99960822
0.99769267
0.98727515
0.98272364
0.99273843
1.0075289
1.0125568
1.0024512
0.98765887
0.98212729
0.98988197
1.0028746
1.0107272
1.0076998
0.9965984
0.98516608
0.97930462
0.98175484
0.99000879
0.99996449
1.0085862
1.0122001
1.0101333
1.0038488
0.99612761
0.98331674
0.97405641
0.97012109
0.96801474
0.96809285
0.96740108
0.96266062
0.95168612
0.93157228
0.91209391
0.89702564
0.89584418
0.89215343
0.88854112
0.89163281
0.89970858
0.91321115
0.92321301
0.93166766
0.94106302
0.95248609
0.95857512
0.96258302
0.96788805
0.97800917
0.9867679
0.98849059
0.9881736
0.98973073
0.99424801
0.9982977
0.99533836
0.9869174
0.9834426
0.99234919
1.0061029
1.0127794
1.0057445
0.99223757
0.98415932
0.9870939
0.99728526
1.0065673
1.0086019
1.0024191
0.99308413
0.98549143
0.98276699
0.98555918
0.99162207
0.99879643
1.0044431
1.0065623
1.0037973
0.99613618
0.98347447
0.97430939
0.9703748
0.96814197
0.968177
0.96741078
0.96254439
0.95204763
0.93296613
0.91399872
0.8975131
0.89484689
0.89149227
0.88908805
0.89263339
0.8997592
0.91288007
0.92110476
0.930368
0.94018245
0.95208449
0.95903663
0.96211279
0.96720382
0.97770664
0.9858025
0.98621668
0.98722777
0.99160418
0.99589416
0.99753596
0.99309558
0.98647191
0.98477707
0.99257968
1.0045156
1.0114512
1.0074749
0.99685238
0.98812231
0.98668491
0.99263035
1.0005881
1.0056684
1.0051522
0.99991309
0.99297717
0.98727156
0.98491382
0.98623602
0.99014276
0.99529118
0.99967451
1.003771
0.99615198
0.98358422
0.97448361
0.97056375
0.96821962
0.96827585
0.96745244
0.96245677
0.95235306
0.93421052
0.91583649
0.89818919
0.89377838
0.89067142
0.88963448
0.89373499
0.89990842
0.9126196
0.91911287
0.92894186
0.93917392
0.95148277
0.95954409
0.96202119
0.9668607
0.97756222
0.98486871
0.98383833
0.98542865
0.99262479
0.99770228
0.99733021
0.99127363
0.98593283
0.98638717
0.9936009
1.0032669
1.0090909
1.0074868
1.0006155
0.99311217
0.98864348
0.98962274
0.99454213
1.0000196
1.0042144
1.0043109
1.0001387
0.99383698
0.98799246
0.98443283
0.98405708
0.98693602
0.99141182
1.0037723
0.99618993
0.98366518
0.97460279
0.97073369
0.9682795
0.96838165
0.96753154
0.96242781
0.95260328
0.93530147
0.91756812
0.89900939
0.89277741
0.88975983
0.89012395
0.89483944
0.90009599
0.9124284
0.91734339
0.92744367
0.93809547
0.9506279
0.95997215
0.96213179
0.96680191
0.97757878
0.98408428
0.98145435
0.98311896
0.99264387
0.99937662
0.99751986
0.98999065
0.98543654
0.98799038
0.99530276
1.0024946
1.0063914
1.0060799
1.0030203
0.99806409
0.99223971
0.98872979
0.98892432
0.99316386
1.0000916
1.0053474
1.0055572
1.0008608
0.99354762
0.98629314
0.98131065
0.98048345
0.98348026
1.0037875
0.99625349
0.98373104
0.97469863
0.9708692
0.96834329
0.96848717
0.96763968
0.96243982
0.95286366
0.93623202
0.91909321
0.89990208
0.89194975
0.88883215
0.89054285
0.89586544
0.90027829
0.91229059
0.91584715
0.92595444
0.9370014
0.94959318
0.96023454
0.96242468
0.96694309
0.9777511
0.98350891
0.97935017
0.98057162
0.99185586
1.000665
0.99823288
0.98930613
0.98493142
0.98942159
0.99731376
1.0024199
1.0040083
1.0037484
1.0039559
1.0020963
0.99658412
0.98986709
0.98523199
0.98665051
0.99428039
1.0034035
1.0083725
1.0070105
1.0002363
0.99100148
0.98217617
0.97694214
0.97705162
1.0038234
0.99633729
0.98379691
0.97479432
0.97095458
0.96830035
0.96856991
0.96776482
0.96250996
0.95311314
0.93703169
0.92051396
0.90078193
0.89130738
0.88801845
0.89088414
0.89677618
0.90041534
0.91220059
0.91462025
0.92453833
0.93591175
0.94848021
0.96027293
0.96273251
0.96716629
0.97794122
0.9831863
0.97766856
0.97800266
0.99048652
1.0013758
0.99907603
0.98910833
0.98439237
0.99040415
0.99917724
1.0029758
1.0021968
1.0011767
1.0035568
1.0047268
1.0008185
0.99212627
0.98340137
0.98108538
0.98783907
0.99936789
1.0085669
1.0112342
1.0066545
0.99693796
0.98558079
0.97659783
0.97306748
1.0038478
0.99643637
0.98387647
0.9748956
0.9710908
0.96837688
0.9686934
0.96790015
0.96262472
0.95338951
0.93770295
0.92165535
0.90168334
0.89086045
0.88713046
0.89106417
0.8975111
0.90040357
0.91212147
0.9136393
0.92316746
0.93484417
0.94730293
0.96009308
0.96298507
0.96737599
0.97812058
0.98308771
0.97651963
0.9755729
0.98879421
1.001549
1.0000094
0.98929888
0.98383026
0.99084354
1.0005961
1.0040195
1.0011721
0.99892446
1.0022508
1.0059571
1.00441
0.99518225
0.98332478
0.97734324
0.98182521
0.99409032
1.0065284
1.0132683
1.0118214
1.0031217
0.99072181
0.97882859
0.97164428
1.0038823
0.99652886
0.98394541
0.97500014
0.97116152
0.96834332
0.96871834
0.96799525
0.96270673
0.95355429
0.93824376
0.92265733
0.9024846
0.89059732
0.88660443
0.8911927
0.89812781
0.900601
0.91204045
0.91293019
0.9222559
0.93390891
0.94614006
0.95973457
0.96317211
0.96750013
0.97823568
0.98316487
0.97587743
0.9735115
0.98684056
1.0013
1.0008328
0.98982101
0.98347423
0.99072029
1.0014174
1.0052197
1.0009119
0.99735252
1.0004708
1.0060926
1.0069401
0.99837625
0.98480793
0.97540489
0.97692371
0.9884446
1.0029192
1.0133173
1.015203
1.0085526
0.99617602
0.98270273
0.97248264
1.0038988
0.996607
0.98403528
0.97510288
0.97127486
0.96841708
0.96882915
0.96811932
0.96290934
0.95395002
0.93875961
0.92357122
0.90321771
0.89050785
0.88599924
0.89110765
0.89838248
0.90023501
0.91183557
0.91227078
0.92089925
0.93281941
0.94498278
0.95913693
0.96312981
0.9673854
0.97797287
0.9833631
0.97558131
0.97184621
0.98482166
1.000716
1.0015952
0.99050471
0.98332601
0.99006385
1.0016375
1.0062877
1.0015703
0.9964141
0.99852223
1.0053862
1.0083875
1.0013605
0.98735677
0.97518661
0.97329498
0.98314088
0.9983591
1.0116753
1.0169072
1.0128959
1.0018408
0.98760254
0.97494676
1.0039227
0.99666618
0.98406517
0.97518023
0.97132925
0.96840021
0.96882468
0.96816608
0.96293153
0.9539504
0.9389868
0.92400479
0.90383566
0.89057944
0.88575019
0.89104392
0.89886797
0.90043215
0.91182647
0.91205747
0.92038934
0.93230777
0.94417049
0.9588183
0.96325883
0.9672322
0.97783557
0.98375769
0.97582537
0.97073935
0.98273465
0.99982189
1.0028206
0.99168206
0.9833896
0.98886797
1.0010255
1.0068305
1.0030447
0.99640479
0.99695979
1.0041634
1.0089142
1.0040097
0.99083585
0.97653712
0.97114678
0.97790995
0.99280613
1.0083932
1.0168448
1.0157395
1.0073661
0.99363037
0.97903942
1.0039211
0.99672275
0.98416507
0.97526255
0.97139494
0.96844081
0.96886846
0.96826863
0.96317517
0.95441785
0.93955239
0.92478027
0.90449123
0.8909153
0.88567365
0.89076117
0.89851114
0.89990212
0.91131852
0.91167221
0.91933852
0.9311301
0.94272727
0.95768183
0.96280947
0.96657635
0.97687293
0.983703
0.97630213
0.97062796
0.98081576
0.99792425
1.0027971
0.99297267
0.9841048
0.98803495
0.99962367
1.006103
1.0037984
0.99711818
0.99630359
1.002845
1.0082117
1.0054576
0.99428761
0.9800394
0.97239308
0.97591607
0.98850176
1.0034163
1.0138555
1.0158557
1.0099585
0.99839828
0.98465983
0.97107815
0.96726679
0.96649114
0.96760029
0.97054058
0.97544167
0.98193943
0.98926465
0.99643358
1.0018827
1.0041553
1.0022209
0.99629965
0.98742497
0.97808474
0.97086392
0.96872358
0.97328571
0.9841614
0.99850265
1.0123748
1.0198561
1.0168039
1.0043669
0.98972454
0.9812969
0.97890123
0.96868886
0.96936978
0.97256052
0.97657575
0.98167089
0.98736897
0.99317552
0.9982845
1.0014125
1.0011358
0.99769725
0.99054237
0.98078358
0.97039456
0.96200344
0.95838523
0.96129105
0.97024332
0.98330211
0.99680056
1.0063225
1.0081503
1.0013119
0.99190144
0.98839594
0.99367254
0.99844813
0.98084086
0.98371736
0.98872145
0.99337958
0.9982248
1.0024707
1.0057316
1.0068529
1.0052224
1.0004295
0.99270028
0.98273658
0.97236239
0.96382079
0.9589319
0.95949491
0.96552111
0.97548674
0.98640489
0.99400228
0.99494528
0.98857631
0.97947327
0.97577981
0.98404642
1.0013099
1.0123293
0.99758504
1.001835
1.0057966
1.0089535
1.0115847
1.0129637
1.0126675
1.0103719
1.0056595
0.99868848
0.99035167
0.98167234
0.9743334
0.96997385
0.96980591
0.97345079
0.98043169
0.98854535
0.99380879
0.99289705
0.98452255
0.97153145
0.96163008
0.96303645
0.97767264
0.99874293
1.0107349
1.0110653
1.0139349
1.0151631
1.0153331
1.0147582
1.0130202
1.010058
1.0057273
1.0004924
0.99482426
0.98943869
0.98537327
0.98336737
0.98414319
0.98754934
0.99332652
0.99983778
1.0039828
1.0027224
0.99430839
0.9799287
0.96452746
0.95616962
0.9599008
0.97299994
0.98751379
0.99304518
1.0123517
1.0121246
1.0101839
1.0080701
1.0055867
1.0023113
0.99864364
0.9950114
0.99185443
0.98969489
0.98906563
0.99019394
0.99336091
0.99840223
1.0047398
1.0112527
1.015332
1.0149812
1.0083768
0.99613164
0.98162349
0.96999179
0.96576363
0.96864077
0.97386978
0.97431086
0.9683911
0.99979925
0.99726088
0.99355392
0.99032167
0.98735804
0.98461721
0.98276977
0.98194493
0.98252743
0.98475009
0.98860925
0.99396249
1.0005718
1.0077828
1.0144284
1.0186659
1.019227
1.0151357
1.0063271
0.9954691
0.98654761
0.98311106
0.98438591
0.98510907
0.98037346
0.96674274
0.94989512
0.97988174
0.97551543
0.97225113
0.96983029
0.96820553
0.96760873
0.96850605
0.97093476
0.975064
0.9807443
0.98764377
0.99537162
1.002959
1.009172
1.012774
1.0128757
1.0091341
1.0022342
0.99495774
0.9903497
0.99095197
0.99599287
1.0015874
1.0007119
0.98854944
0.96731535
0.94735133
0.96118971
0.95769647
0.95622823
0.95572974
0.95631305
0.9581835
0.96157262
0.9663493
0.97240297
0.97937628
0.98669408
0.99336355
0.99839125
1.0008547
1.0000605
0.99600017
0.98960182
0.98281907
0.97960863
0.98250751
0.99150184
1.0027749
1.0101793
1.0079729
0.99367589
0.9739522
0.96075363
0.95271943
0.95161848
0.9528994
0.95433515
0.95688693
0.96047135
0.96506388
0.97040024
0.97612494
0.98157448
0.98611382
0.9887648
0.98898468
0.98655231
0.98131783
0.97434545
0.96772059
0.96441593
0.96644121
0.97462638
0.98701464
0.99936008
1.0053269
1.001403
0.99088432
0.98121631
0.98009127
0.95760762
0.95889081
0.96251827
0.96576997
0.96964813
0.97381054
0.97793297
0.98149177
0.98444145
0.98607419
0.98585843
0.98338024
0.97868985
0.97198117
0.96400262
0.95695974
0.95281342
0.95336989
0.9591677
0.96894874
0.97963684
0.98728888
0.98891688
0.98431935
0.97993925
0.98327103
0.9954905
0.97341327
0.97611174
0.97994756
0.98326423
0.98704877
0.99025292
0.99225485
0.99300079
0.99252814
0.99009495
0.98552605
0.97926132
0.97174543
0.96357514
0.95591526
0.95135583
0.95055215
0.9535131
0.95951098
0.96617936
0.97066371
0.97083636
0.96686747
0.96332442
0.96561425
0.97873455
0.99965014
0.99335317
0.99673375
0.99938519
1.0010611
1.0020998
1.0021901
1.0012904
0.99916795
0.99558206
0.99040549
0.9842225
0.97730095
0.97036053
0.96401728
0.96034782
0.95929089
0.96096462
0.96407967
0.96682186
0.96680081
0.96277185
0.95536947
0.94783291
0.94578304
0.95362988
0.97125036
0.99147816
1.0078463
1.0098188
1.0099311
1.0090823
1.0080518
1.0056829
1.002362
0.99800795
0.9930212
0.98777597
0.98265689
0.97813522
0.97485388
0.97332568
0.97380131
0.97534406
0.97694555
0.97773604
0.97535738
0.96850935
0.95778033
0.94603299
0.93805459
0.93832643
0.94832257
0.96380397
0.9767313
1.0086279
1.0083916
1.0063884
1.0039584
1.0012699
0.99783398
0.9943008
0.99071877
0.98737527
0.98457237
0.98276308
0.98230516
0.98328314
0.98564436
0.98855802
0.99091411
0.9913507
0.98830493
0.98102671
0.96993614
0.95723519
0.94629816
0.9411889
0.94381291
0.95218141
0.96026881
0.96095738
0.99546284
0.9934133
0.99078148
0.98831291
0.98591934
0.98357581
0.98176793
0.98071771
0.98064252
0.98173013
0.9840407
0.98737404
0.99133203
0.99517444
0.99812431
0.99909047
0.99687113
0.99079635
0.98141831
0.97067831
0.96128755
0.95586976
0.95542962
0.95929275
0.96357375
0.96141955
0.94865968
0.97625264
0.97356199
0.97178917
0.97052391
0.96982588
0.96966699
0.9703925
0.97203698
0.97481428
0.97865734
0.98323772
0.98804035
0.9924746
0.99573681
0.9968692
0.99525274
0.99073728
0.98411568
0.97683267
0.97098688
0.96845693
0.96991853
0.97471779
0.97883554
0.9770391
0.96462239
0.94225791
0.96208776
0.96050615
0.96005572
0.96021574
0.96098277
0.96241536
0.96463157
0.96752601
0.97097217
0.97467193
0.97827639
0.98124648
0.98321281
0.98380269
0.98273338
0.97984146
0.97590866
0.97213031
0.97003226
0.97108641
0.97597723
0.98373111
0.9912799
0.99407851
0.98641543
0.96708094
0.94136231
0.959604
0.95940377
0.96065107
0.96154134
0.96284509
0.96429088
0.96603746
0.96776261
0.96928733
0.9703294
0.97064219
0.97002351
0.9683859
0.96584196
0.96279658
0.96006602
0.958554
0.95920479
0.96322122
0.97079399
0.98104348
0.99169218
0.99869019
0.99788638
0.98668348
0.96653299
0.94448722
0.96633246
0.96693784
0.96848648
0.96955232
0.97071301
0.97129259
0.97140589
0.97068818
0.96908243
0.96650906
0.96304123
0.95872372
0.9542275
0.94991762
0.94656178
0.94507083
0.94627609
0.95097642
0.95910339
0.96984497
0.981114
0.99008872
0.99340253
0.98827228
0.97628933
0.96142388
0.9488403
0.97552194
0.97629295
0.97688451
0.97664575
0.97615279
0.97503927
0.97338534
0.97082489
0.96728895
0.96279866
0.95767539
0.95233496
0.94733184
0.94339389
0.94126659
0.94163533
0.94485681
0.95095602
0.95925322
0.96808038
0.97502798
0.97793435
0.97570281
0.96803549
0.95837517
0.95146291
0.95046521
0.97826358
0.97814594
0.97753223
0.97609533
0.97439736
0.9720968
0.96935038
0.96614382
0.96257016
0.95877254
0.95504653
0.95179201
0.94933533
0.9481053
0.94849072
0.95067513
0.95447981
0.95908866
0.9634291
0.96597184
0.96542008
0.96086693
0.95282897
0.944353
0.93885946
0.93984706
0.94891981
0.96952789
0.96863299
0.96745061
0.96595974
0.96436633
0.96252615
0.9605816
0.95866713
0.95703168
0.95590347
0.9555115
0.95602156
0.95734422
0.9595676
0.96247822
0.96558091
0.96816691
0.96923531
0.96776357
0.96313846
0.95475819
0.94368404
0.93253968
0.92455353
0.92324425
0.93032584
0.94565639
0.95398897
0.95261828
0.95149985
0.95054404
0.94995819
0.94961313
0.94975364
0.95048244
0.95198984
0.95434403
0.95759144
0.9615804
0.96619732
0.9708977
0.97501735
0.97784857
0.97838073
0.97558979
0.96899994
0.95879853
0.94575777
0.93187667
0.92025976
0.91401517
0.91560416
0.92594139
0.94345374
0.93818231
0.93694265
0.93650417
0.93651557
0.93724714
0.93867276
0.94097942
0.94420108
0.9483773
0.95340415
0.95905357
0.96507031
0.97100244
0.97632648
0.98014764
0.98154565
0.97961125
0.97395238
0.96456793
0.95247687
0.93908925
0.92668403
0.91765985
0.91438266
0.91822939
0.92897653
0.94451822
0.92996883
0.92944997
0.92976724
0.93073477
0.93245017
0.93491866
0.93823853
0.94236112
0.94721017
0.95256593
0.95814458
0.96359003
0.96836223
0.97188357
0.97338632
0.97243637
0.96863095
0.96211598
0.95357413
0.94349347
0.93382009
0.92632559
0.92264127
0.92362743
0.92939842
0.9387433
0.94929506
0.93263928
0.93292502
0.93438877
0.93591058
0.93799163
0.94014892
0.94273377
0.94561998
0.94867697
0.95169795
0.95445079
0.95658568
0.95790967
0.95808378
0.95686135
0.95403857
0.94955043
0.9439854
0.93802909
0.93269912
0.92916747
0.92832857
0.93078881
0.93604389
0.94320022
0.95069403
0.9555825
0.94522495
0.94609858
0.94763579
0.94877512
0.94991437
0.95081841
0.95148891
0.95178633
0.95162514
0.95088805
0.94949145
0.9473814
0.94445947
0.94082677
0.9365965
0.93183319
0.927543
0.92400091
0.9218844
0.92199597
0.92493859
0.93079472
0.9389986
0.94844519
0.95673267
0.96193879
0.96117306
0.96208677
0.96275073
0.9632087
0.96319882
0.96286246
0.96190796
0.96019195
0.95756216
0.9540409
0.94960456
0.94429546
0.93824015
0.93162863
0.92481567
0.91820591
0.91239842
0.9085314
0.90708928
0.9085642
0.91339306
0.92144646
0.93230588
0.94479848
0.95677343
0.96574047
0.96877374
0.96397466
0.97534944
0.97578658
0.97538876
0.97409089
0.97204183
0.9689971
0.96501434
0.96005783
0.95402516
0.94697355
0.93911698
0.93068537
0.92208041
0.91376325
0.90627159
0.90054694
0.89750997
0.89766449
0.90149422
0.90901136
0.91990656
0.93331647
0.947467
0.96017259
0.96848926
0.96983593
0.96318371
0.9796067
0.97962613
0.97854267
0.97645402
0.97336839
0.96919663
0.96400349
0.95786539
0.95082865
0.94304627
0.93464038
0.9259121
0.91734447
0.90943935
0.902785
0.89817607
0.8961516
0.89732823
0.90202105
0.91018329
0.92134674
0.93434392
0.94752693
0.95856754
0.96517639
0.96539955
0.95848136
0.97299799
0.9724215
0.97087907
0.96851482
0.96541784
0.96142235
0.95665592
0.95112613
0.94496111
0.93824894
0.93126075
0.92425144
0.91754318
0.91156916
0.90684643
0.90387794
0.9030293
0.90479505
0.90929591
0.91646617
0.92559014
0.93567908
0.94543593
0.95320428
0.95707212
0.95613378
0.95017315
0.9563417
0.95557486
0.95420103
0.95234828
0.95014276
0.9475323
0.94443469
0.9409179
0.93706983
0.9330545
0.92903473
0.92517977
0.92170492
0.91882162
0.91683317
0.91599712
0.91650185
0.9184418
0.92167
0.92605004
0.93150276
0.93714816
0.94204121
0.94536458
0.94667453
0.94495637
0.94041065
0.93589233
0.93534214
0.93456879
0.93374281
0.93285176
0.93185297
0.93088273
0.92998903
0.92914875
0.92842738
0.92789212
0.92763316
0.92765813
0.92799707
0.92875173
0.92988966
0.93136632
0.93305296
0.93494084
0.93672252
0.93807959
0.93884659
0.93874934
0.93775943
0.93590022
0.93338947
0.92973823
0.91637687
0.91611338
0.91597398
0.91610903
0.9166097
0.91747827
0.91876982
0.9204373
0.92251615
0.92498824
0.92782251
0.93093393
0.93426725
0.93773058
0.9410566
0.94396815
0.94621624
0.947447
0.94748768
0.94636135
0.94401873
0.94032227
0.93564385
0.93070063
0.92604541
0.92244018
0.91970771
0.90142537
0.90143753
0.90192678
0.90295078
0.90461592
0.90692829
0.90992874
0.91364068
0.91802812
0.92301006
0.92852483
0.93435134
0.94023075
0.9458646
0.95098491
0.95518934
0.95806385
0.95915546
0.95799208
0.95453193
0.94881702
0.94144796
0.93335385
0.92536104
0.91854573
0.91360308
0.91076376
0.89193672
0.89216635
0.89310437
0.89479941
0.89730863
0.90062463
0.90480368
0.90982759
0.91565763
0.92221626
0.92933731
0.93679834
0.94438259
0.95179789
0.9583788
0.96341291
0.96648742
0.96717194
0.96503433
0.95980775
0.9519123
0.9422088
0.93168996
0.92147779
0.91268041
0.90644409
0.90333764
0.88759324
0.88802152
0.88918059
0.89115404
0.89402498
0.89778137
0.90249078
0.90811922
0.91464272
0.92193418
0.92987413
0.93817174
0.94649674
0.9543762
0.96128551
0.96680183
0.9701737
0.9707387
0.96827339
0.96252062
0.95376431
0.94278513
0.93072352
0.9189702
0.90878942
0.90143427
0.89777015
0.88663085
0.88713217
0.88844796
0.8906111
0.89355485
0.89738119
0.90213494
0.9077997
0.91435202
0.92169778
0.92966248
0.93802371
0.94653384
0.95472028
0.96194865
0.96755684
0.97091667
0.97145964
0.96887099
0.96299003
0.95408017
0.94282935
0.93022314
0.9177031
0.90671583
0.89852382
0.8941691
0.88828658
0.88876353
0.88998847
0.89198925
0.8947862
0.89842154
0.90292377
0.90829936
0.91454055
0.92154364
0.92913927
0.93710155
0.94517705
0.95294404
0.95988414
0.9654252
0.96899388
0.96978004
0.96755055
0.9621609
0.95380569
0.94294344
0.93053815
0.91790544
0.90647579
0.89760137
0.89246283
0.89175637
0.89220215
0.893328
0.89515496
0.8977122
0.90094393
0.90499796
0.90989444
0.91555055
0.92192691
0.92885904
0.93618726
0.94360142
0.95087161
0.95748065
0.96280662
0.96614409
0.96701739
0.96525187
0.96055999
0.95307381
0.94316845
0.93154277
0.9193135
0.90782906
0.89858166
0.89287483
0.89754297
0.89783439
0.89866669
0.90009741
0.90222611
0.9049752
0.90845635
0.91266302
0.91757423
0.9231514
0.92930245
0.93583709
0.94248672
0.94896571
0.95487942
0.95980089
0.96306787
0.96423038
0.96296445
0.95906359
0.95250738
0.94357768
0.93288124
0.92132464
0.91013686
0.90085099
0.89467335
0.90340771
0.90359659
0.90424764
0.90546415
0.90723353
0.90955028
0.9125126
0.91612015
0.92036501
0.92517776
0.93047887
0.93613839
0.94196717
0.94769297
0.95298818
0.95742875
0.96044776
0.96177883
0.9609771
0.9577958
0.95218457
0.94430199
0.93454578
0.92367302
0.9128973
0.90366593
0.89719292
0.90869771
0.90883677
0.9094359
0.91047073
0.91196055
0.91393925
0.91646106
0.91952537
0.92314176
0.92730009
0.93191319
0.93687641
0.94204292
0.94717056
0.95198516
0.95613476
0.95904823
0.96040219
0.95987706
0.95720864
0.95228959
0.94521663
0.93624146
0.9259953
0.91562092
0.90641124
0.89990927
0.91300441
0.91311322
0.9136279
0.91448997
0.91574622
0.9174203
0.91955201
0.92215662
0.92526381
0.92888858
0.93298543
0.93746917
0.94222123
0.94705195
0.9515062
0.95520415
0.95785672
0.95919859
0.95893783
0.9567322
0.95238327
0.94596018
0.93767022
0.92806382
0.91807685
0.90908061
0.90246229
0.91591535
0.91602506
0.91650118
0.9172839
0.91840484
0.91988015