/*--------------------------------*- C++ -*----------------------------------*\
| =========                 |                                                 |
| \\      /  F ield         | OpenFOAM: The Open Source CFD Toolbox           |
|  \\    /   O peration     | Version:  2406                                  |
|   \\  /    A nd           | Website:  www.openfoam.com                      |
|    \\/     M anipulation  |                                                 |
\*---------------------------------------------------------------------------*/
FoamFile
{
    version     2.0;
    format      ascii;
    arch        "LSB;label=32;scalar=64";
    class       volScalarField;
    location    "3";
    object      p_0;
}
// * * * * * * * * * * * * * * * * * * * * * * * * * * * * * * * * * * * * * //

dimensions      [1 -1 -2 0 0 0 0];

internalField   nonuniform List<scalar> 
96472
(
1.0076366
0.99472452
0.97351616
0.96259169
0.96308455
0.97141873
0.97670443
0.97038017
0.95452043
0.93690903
0.92322682
0.91481398
0.91090267
0.91056822
0.9127568
0.91681766
0.92236802
0.92861101
0.93526606
0.94194172
0.9483692
0.95461676
0.96053225
0.96603464
0.97113122
0.97586467
0.98003412
0.98347998
0.98632799
0.98866005
0.99036408
0.99177835
0.99277699
0.99356566
0.99425968
0.9947559
0.99516178
0.99545708
0.99568257
0.99584124
0.99574662
0.99562838
0.99565383
0.99537906
0.99494322
0.99488998
0.99442696
0.99380192
0.99350413
0.99303065
0.99255713
0.99173297
0.99086594
0.99005682
0.98940647
1.0076133
0.99483806
0.97362779
0.96265169
0.96300394
0.97127002
0.97667069
0.97062722
0.95496113
0.93735225
0.92353739
0.91492488
0.91085864
0.91036944
0.91241628
0.91641569
0.9217947
0.92805422
0.93461605
0.94123395
0.94768857
0.95390611
0.95980144
0.96532749
0.97042445
0.97517409
0.97939005
0.98294485
0.98586814
0.98822621
0.99005297
0.99136172
0.99248277
0.99334298
0.99403349
0.9945779
0.99502756
0.99535782
0.99559992
0.995666
0.99574368
0.9956998
0.99542375
0.99510466
0.9950094
0.99463547
0.99430801
0.99406729
0.99367906
0.99309254
0.99246674
0.99170913
0.99118476
0.99052396
0.98977854
1.0075995
0.99483262
0.97369813
0.96266403
0.96291754
0.97108278
0.97658409
0.97082783
0.95539622
0.93780931
0.92384797
0.9150464
0.91085874
0.91023159
0.91208029
0.91598898
0.92127646
0.92741559
0.93399914
0.940557
0.9469765
0.95320083
0.95909529
0.96458912
0.96971806
0.97448918
0.9787725
0.98237823
0.98540491
0.98789135
0.98976465
0.99121419
0.99222181
0.99309997
0.99378729
0.99441414
0.99484361
0.99515469
0.99543871
0.99563475
0.99554813
0.99532707
0.99521089
0.99518541
0.99490905
0.99464487
0.9943521
0.99401102
0.9935013
0.99312639
0.99262312
0.99220691
0.99154286
0.99075296
0.98986806
1.0075241
0.99486829
0.97382774
0.96275771
0.96287423
0.97095499
0.976538
0.97103904
0.95581999
0.93827004
0.92416496
0.91516668
0.9108283
0.91008797
0.9118255
0.9155666
0.9207884
0.92681918
0.93331372
0.93990161
0.94631237
0.95252006
0.95842106
0.96388043
0.96899736
0.97384108
0.97814749
0.98182423
0.98487458
0.98734196
0.98928656
0.99074046
0.99194732
0.99283721
0.99363711
0.9941736
0.99464823
0.9951321
0.99532498
0.99537159
0.995383
0.99540101
0.99525
0.994918
0.99466291
0.99443149
0.99424092
0.99393283
0.99364408
0.99323713
0.992663
0.99200948
0.99130987
0.99072432
0.9902138
1.0074863
0.99487161
0.97395038
0.96280729
0.96278177
0.9707583
0.97641766
0.97121638
0.95624265
0.93873721
0.92451743
0.9153481
0.91085648
0.90991747
0.91151529
0.9151584
0.92022293
0.92626645
0.93268561
0.93923428
0.94566052
0.95184365
0.95771758
0.96319106
0.96829615
0.97309298
0.97747694
0.98119032
0.98436841
0.9869674
0.98900073
0.99056595
0.99167862
0.99265364
0.99340697
0.99407775
0.99461759
0.99485077
0.9951383
0.99527334
0.99523193
0.99509491
0.99492274
0.9949057
0.99479055
0.99461979
0.99426297
0.99388503
0.99351192
0.99303734
0.99265737
0.9922669
0.99189965
0.99124269
0.99060752
1.0073562
0.9948281
0.97410771
0.96295714
0.96278545
0.97064145
0.97634024
0.97138101
0.95665116
0.93920043
0.92484893
0.91550751
0.91090024
0.90980416
0.91121727
0.914792
0.91974693
0.92566414
0.93209389
0.93858909
0.9449929
0.95115549
0.9570101
0.96244244
0.96757188
0.97243735
0.97679116
0.98058593
0.98377328
0.98640471
0.98850391
0.99009617
0.9913893
0.99239892
0.99321724
0.99381737
0.99427666
0.99478471
0.9950124
0.99509586
0.99517528
0.99518168
0.99515645
0.99490286
0.99457305
0.99425634
0.99401786
0.99383977
0.99357956
0.99327769
0.99288964
0.99229129
0.99161701
0.99103707
0.99041568
1.0072695
0.99487018
0.97433066
0.96305816
0.96269877
0.97043262
0.97619135
0.97152538
0.95707378
0.939691
0.92521512
0.91571808
0.91094153
0.90970331
0.91100203
0.9143663
0.919295
0.92509277
0.93145989
0.9379642
0.94432878
0.95045112
0.95630074
0.96172067
0.96683451
0.97168202
0.97613634
0.97995163
0.98327429
0.98604406
0.98823411
0.98991465
0.99114944
0.99213473
0.99295603
0.9936545
0.99422591
0.99453018
0.99480362
0.99501961
0.99508329
0.99495887
0.99474174
0.99457575
0.99449851
0.9944042
0.99423158
0.99391047
0.993528
0.99310094
0.99264369
0.99238337
0.99195851
0.99161363
0.99099728
1.0071337
0.99474674
0.97443822
0.96321252
0.96274005
0.97031961
0.97608887
0.9716536
0.95744681
0.94013463
0.92556193
0.91592707
0.9109776
0.90954679
0.91074883
0.91400985
0.91878657
0.92456869
0.93084412
0.93727618
0.94364259
0.9497548
0.95557595
0.96100515
0.96613119
0.9710299
0.97545918
0.97938779
0.98268137
0.98543285
0.98767006
0.98941626
0.99077044
0.99188151
0.99275263
0.99343816
0.99397634
0.99450781
0.99485217
0.9949461
0.99488858
0.99491489
0.99489319
0.99479225
0.99455877
0.99426858
0.99394854
0.99373475
0.99351276
0.99334882
0.99301196
0.99250302
0.99196502
0.9913936
0.99088372
1.0069675
0.99475561
0.97471902
0.9634025
0.96269812
0.97012606
0.97593756
0.97178689
0.9578686
0.94063946
0.92597201
0.91620246
0.91109485
0.90950109
0.91050312
0.91365969
0.9183141
0.92397296
0.93024638
0.9366327
0.94295743
0.9490711
0.95487323
0.96030296
0.96542967
0.97031468
0.97481209
0.97871501
0.98215747
0.98501898
0.98733787
0.98915886
0.99051677
0.99158075
0.99247663
0.9932605
0.99389893
0.99430094
0.99449453
0.99469561
0.99483936
0.99476108
0.99457959
0.99440282
0.99428172
0.99420759
0.99415469
0.9939719
0.99363404
0.99308386
0.99268445
0.99231535
0.99204327
0.99160653
0.99128773
1.0068585
0.99467401
0.97484076
0.96353662
0.96275503
0.97000352
0.97578795
0.97185673
0.95821873
0.94108553
0.9263335
0.91643454
0.91113771
0.9093932
0.91031353
0.913277
0.91789864
0.9234465
0.92960675
0.93596628
0.9422708
0.94838966
0.9542093
0.95961034
0.964713
0.96963695
0.97410643
0.97809713
0.98147576
0.98434661
0.98672899
0.9886549
0.99019678
0.99138202
0.99235242
0.99314325
0.99366807
0.99412089
0.99452726
0.99468264
0.99463961
0.99462404
0.99468725
0.99470008
0.99461001
0.99437575
0.99406541
0.99363514
0.99336767
0.99320473
0.99297684
0.99264901
0.99231897
0.99179161
0.99138399
1.0066517
0.99456163
0.97511467
0.96377058
0.96277024
0.96984749
0.97564629
0.97197693
0.95862181
0.94158767
0.92676929
0.91674519
0.91125693
0.90932654
0.9101301
0.91296173
0.91740967
0.92291327
0.9289844
0.93531773
0.94161608
0.94771762
0.95352192
0.95893142
0.96401807
0.9688686
0.973401
0.97740184
0.98096121
0.98392588
0.98641077
0.98839113
0.98986996
0.99110069
0.99201189
0.99277621
0.9935132
0.99397552
0.99420726
0.99437916
0.994594
0.99468341
0.99455387
0.99433812
0.99413058
0.99401052
0.99385718
0.99381319
0.99355797
0.99323599
0.99288631
0.9924317
0.99200238
0.99172546
0.99141385
1.0064979
0.99456017
0.97531292
0.96391115
0.96282348
0.9697228
0.975475
0.9720255
0.95895511
0.94203977
0.92717954
0.91702993
0.91135682
0.90928532
0.90989664
0.91264786
0.91697079
0.92237556
0.928397
0.93467618
0.94094888
0.94703724
0.95283259
0.95819502
0.96329016
0.96817909
0.97267769
0.97676516
0.9802743
0.98331118
0.98582904
0.98791458
0.98958155
0.99077888
0.99185694
0.99265271
0.99325493
0.99370648
0.99413999
0.99447612
0.99455507
0.99449405
0.99446926
0.99451128
0.99452055
0.99437313
0.9941204
0.99377054
0.99347743
0.99318812
0.99287313
0.99277959
0.99255977
0.99230952
0.99174301
1.0063076
0.99437567
0.97553201
0.96416225
0.96289132
0.96960505
0.97533205
0.97211977
0.95934165
0.94254503
0.92763543
0.91734579
0.91148604
0.90926966
0.90976388
0.91233462
0.9165673
0.92185536
0.92777451
0.93402361
0.94029096
0.94636006
0.95213467
0.95749469
0.96255572
0.96742422
0.97201681
0.97611042
0.97977238
0.98285135
0.98543819
0.98749351
0.98914734
0.99047191
0.99144465
0.99234358
0.99304915
0.99372782
0.99410875
0.99420909
0.99427479
0.99435477
0.99439433
0.99426492
0.99405187
0.9938616
0.99381287
0.99366236
0.99348709
0.99334038
0.99306815
0.99263097
0.992153
0.99171991
0.99143846
1.0060744
0.99440997
0.9758133
0.96438186
0.96295368
0.96948155
0.97514168
0.97214123
0.95966155
0.94301236
0.92808356
0.91766527
0.91162349
0.9092237
0.90959386
0.91203638
0.91611404
0.92135782
0.9272055
0.93338375
0.93963141
0.94567621
0.95142567
0.95677303
0.96187391
0.96675828
0.97128631
0.97547344
0.97909111
0.98220737
0.9848165
0.98702765
0.98879722
0.99018252
0.99131431
0.99221348
0.99297365
0.99343239
0.99379656
0.99415056
0.9943471
0.99437452
0.99427401
0.99426475
0.99436315
0.99440784
0.99419344
0.99396668
0.99368938
0.9932017
0.99292746
0.99273137
0.99258029
0.99237635
0.99205032
1.0058986
0.9942248
0.97603437
0.96462435
0.96305465
0.96938586
0.97500017
0.97222225
0.96002508
0.94351047
0.92855875
0.91799777
0.91178755
0.9092399
0.9094272
0.91179799
0.91573065
0.92083792
0.92660527
0.93272451
0.93896845
0.94499096
0.95074046
0.95607509
0.96114607
0.96603934
0.97062065
0.97477659
0.97851248
0.98168284
0.98436394
0.98658614
0.98842078
0.98984998
0.99099401
0.99191016
0.99267716
0.99330426
0.9937474
0.99392451
0.99397486
0.99405072
0.99421771
0.99429509
0.99415117
0.99396278
0.99374919
0.99355797
0.99334506
0.99332796
0.99309821
0.99278928
0.99241414
0.99203524
0.99180522
1.0056526
0.99418521
0.97634565
0.96493318
0.96314389
0.96927881
0.97480997
0.97224297
0.96035105
0.9440056
0.92904836
0.91834248
0.91196529
0.90927397
0.90931046
0.911501
0.91534178
0.92033149
0.92604942
0.93209922
0.93831147
0.94431073
0.95004779
0.95537462
0.96045327
0.96532041
0.96989404
0.97411662
0.97782056
0.9810286
0.98377558
0.98609728
0.98802475
0.98960697
0.99080827
0.99175107
0.99249048
0.99310082
0.99349741
0.99378901
0.99408007
0.99426632
0.99425382
0.99421053
0.99422908
0.99414215
0.99411153
0.99398655
0.99372663
0.99337519
0.99305551
0.99279941
0.99260069
0.99230581
0.99201108
1.0054825
0.99402616
0.97654689
0.96517759
0.96325816
0.96919451
0.97465838
0.97229077
0.96068745
0.94450359
0.92952982
0.9186786
0.91214821
0.9092717
0.90918512
0.91125658
0.91495198
0.9198665
0.92548101
0.93145485
0.93764983
0.9436445
0.94935624
0.95469236
0.95974946
0.96460649
0.96917324
0.97340686
0.97720295
0.98052734
0.98331364
0.98567957
0.9876316
0.98915813
0.99041595
0.99141403
0.99219969
0.99281183
0.9933323
0.99373577
0.99387638
0.99389395
0.99403689
0.9940974
0.9940807
0.99398936
0.99378541
0.99351574
0.99345425
0.99327256
0.99310462
0.99292014
0.99266193
0.99249836
0.99220528
1.0052648
0.99389679
0.97683808
0.96550599
0.96338121
0.96910598
0.97448686
0.97232675
0.96102234
0.94502018
0.93004711
0.91905719
0.91238111
0.90934281
0.9090576
0.91101519
0.91460043
0.91937265
0.92491794
0.93083889
0.93700903
0.94297563
0.94868067
0.95398252
0.95903732
0.96387579
0.96846981
0.97273266
0.97654611
0.97986261
0.98273234
0.98514537
0.98719858
0.9889123
0.99019597
0.9911803
0.99204829
0.99274907
0.99325491
0.99352558
0.9937711
0.99402073
0.99407192
0.99410747
0.99400188
0.99400267
0.99397987
0.99398427
0.99372483
0.99354272
0.99337609
0.9930905
0.99272945
0.99234396
0.99206688
1.0051191
0.99381183
0.97703171
0.96575741
0.96350994
0.96902951
0.97434068
0.97236955
0.96134472
0.94552054
0.93054155
0.91941047
0.9125875
0.9093866
0.90897675
0.91076816
0.9142631
0.91891541
0.92436247
0.93021927
0.93635935
0.94230608
0.94799136
0.95329526
0.95832243
0.96315442
0.96775381
0.97204832
0.97593295
0.9793395
0.98221559
0.98467889
0.98668723
0.98837683
0.98979414
0.99094242
0.99180256
0.99250651
0.99303155
0.99346032
0.99370378
0.99376733
0.99380825
0.99385631
0.99403198
0.99400074
0.99385208
0.99367652
0.99354528
0.99336026
0.99309614
0.992837
0.99273414
0.99267557
0.99232034
1.0049191
0.99365333
0.97726202
0.96603938
0.96363267
0.96895767
0.97419863
0.97242086
0.96169005
0.94606015
0.93107729
0.91981405
0.9128473
0.90946318
0.90890719
0.91055232
0.91390099
0.9184503
0.92381092
0.92960287
0.93573328
0.9416372
0.94730181
0.95259347
0.95763358
0.96244836
0.96703053
0.97134572
0.97526281
0.97868579
0.98163991
0.98413301
0.98630322
0.98809049
0.98953471
0.99069674
0.99163973
0.9923793
0.99293752
0.99326229
0.99346497
0.99359756
0.99387478
0.99397235
0.99395944
0.99391821
0.99402659
0.99388074
0.99379141
0.99358888
0.99342853
0.99324343
0.99297854
0.99260294
0.99240675
1.0047583
0.99355815
0.97743263
0.96626964
0.963748
0.96889117
0.97406856
0.97246018
0.96200446
0.94656548
0.9315854
0.9202022
0.91308864
0.90954656
0.9088182
0.91033427
0.91357511
0.91801527
0.92328926
0.92899625
0.93509397
0.94095992
0.94662161
0.9519028
0.95690503
0.96173616
0.96635265
0.97066683
0.97460898
0.97807867
0.98107525
0.98362591
0.98575266
0.98759337
0.98917779
0.9904332
0.99140621
0.99212199
0.99265086
0.99305674
0.99334686
0.99369392
0.99365812
0.99382828
0.99391765
0.99403861
0.99383648
0.99378816
0.99354518
0.99339393
0.99320163
0.99305612
0.99290503
0.99258802
0.99250126
1.0046143
0.99346078
0.97762163
0.96648664
0.96385771
0.96882754
0.97395825
0.97254241
0.96236445
0.94711604
0.93213627
0.9206341
0.91336472
0.90966626
0.9087899
0.91015115
0.91326053
0.91759016
0.92276742
0.92838535
0.93447499
0.94029198
0.94593049
0.95122668
0.95621577
0.96103817
0.96561159
0.96998
0.97392774
0.97744639
0.98050105
0.98310153
0.98535145
0.98724456
0.98880933
0.990131
0.99116531
0.99194304
0.99250819
0.99294378
0.99328872
0.99340547
0.99375756
0.99388112
0.99391418
0.99387724
0.99383525
0.99376301
0.99369593
0.99361596
0.99347209
0.99321869
0.99305829
0.99299261
0.99270721
1.0044659
0.99336936
0.97776768
0.9666857
0.9639447
0.96876393
0.97385792
0.97260329
0.96268915
0.94763585
0.9326674
0.92105737
0.91363546
0.90977629
0.90875011
0.9099718
0.91292669
0.9171458
0.92226763
0.92779778
0.93383489
0.93963321
0.94523647
0.95054027
0.9555091
0.96034804
0.96492124
0.96924383
0.97325101
0.97680889
0.9799247
0.98258861
0.98481958
0.98678047
0.98846811
0.98981634
0.99086963
0.991675
0.99230607
0.99272343
0.9931071
0.99343357
0.99360768
0.9936652
0.99384167
0.99381832
0.99392984
0.99378657
0.99372471
0.99353992
0.99341243
0.99338642
0.9931446
0.99292863
0.99266433
1.004364
0.99333667
0.97792655
0.96685155
0.96402725
0.96870131
0.97376332
0.97269908
0.96305696
0.9481901
0.9332264
0.92151444
0.91392961
0.9099264
0.90872627
0.90981919
0.91262326
0.91675451
0.92179051
0.92718093
0.93322913
0.93896553
0.94455718
0.94986114
0.9548174
0.95964235
0.96420854
0.96857052
0.97255596
0.97617377
0.97932115
0.98205386
0.98437296
0.98635591
0.98803696
0.98946002
0.99062746
0.99154524
0.99215422
0.99270906
0.99299781
0.99333453
0.99348014
0.99371641
0.9937371
0.993813
0.99368536
0.99374445
0.9936987
0.99363179
0.9935271
0.99333795
0.99317368
0.99306048
0.99279188
1.0042701
0.99327243
0.97807502
0.96699701
0.96407915
0.96863677
0.9736814
0.97279374
0.96341252
0.94872846
0.93378317
0.92197733
0.91422643
0.91008597
0.90872027
0.90967483
0.91233027
0.9163367
0.92130137
0.92663485
0.93259282
0.93831144
0.94384694
0.94919445
0.95411037
0.95894978
0.96346959
0.96784825
0.97186184
0.97553811
0.97874795
0.98148053
0.98385677
0.98591106
0.98764536
0.98910284
0.9903273
0.99125701
0.99199136
0.99240574
0.99289576
0.9931266
0.99342399
0.99358126
0.99364517
0.99375353
0.99385405
0.99387523
0.99375671
0.99374403
0.99367381
0.99347458
0.99337038
0.99306693
0.99299264
1.0042254
0.99327678
0.97820753
0.96710873
0.96412205
0.96856105
0.97360204
0.97292078
0.9637973
0.94929144
0.93435503
0.9224529
0.91454182
0.9102477
0.90872769
0.90955245
0.91205967
0.91595406
0.92085172
0.92599341
0.93200392
0.93764993
0.94319427
0.94852603
0.95342453
0.95824461
0.9627558
0.9671449
0.97117618
0.97488814
0.97812274
0.98096217
0.98335438
0.98542822
0.98722608
0.98874557
0.99001995
0.99107132
0.99179312
0.99237352
0.99268622
0.99303042
0.99330621
0.99346999
0.99374046
0.99377198
0.99381463
0.99370995
0.99375732
0.99366314
0.99351964
0.99344991
0.99335041
0.99316896
0.9930463
1.00419
0.99326139
0.97838646
0.96717516
0.96415048
0.96847246
0.97352163
0.97304757
0.96416671
0.94982401
0.93492098
0.92292809
0.91485444
0.91043303
0.90873188
0.90942713
0.91177234
0.91553284
0.92034291
0.92551079
0.93136434
0.93697614
0.94245066
0.94786806
0.95269321
0.95757071
0.96198852
0.96646703
0.97044219
0.9742499
0.97747227
0.98038214
0.9828212
0.98498426
0.98679192
0.98836122
0.98971929
0.99080395
0.99160165
0.99213139
0.99255008
0.9928797
0.99319244
0.99351139
0.99364422
0.99377705
0.99378556
0.99381381
0.99374209
0.99368975
0.99363211
0.99357976
0.99340584
0.99334354
0.99313311
0.99298602
0.99279267
0.99269808
0.99255674
0.99246194
0.99236273
0.99223371
0.99203843
0.99199685
0.99193643
0.9915968
0.99184861
0.99139231
0.9914377
0.99140987
0.99097269
0.99123233
0.99064031
0.99079518
0.99030549
0.99028298
0.98998401
0.98966539
0.98952313
0.98917543
0.9888445
0.98854206
0.99269659
0.99245585
0.99238156
0.99220867
0.99206352
0.99196338
0.9918195
0.99177874
0.99141193
0.99157503
0.99120283
0.99120945
0.99116618
0.99076569
0.9909175
0.99045573
0.99050822
0.99015682
0.98999995
0.98979744
0.9893205
0.98932928
0.98879778
0.98868567
0.98826102
0.98799614
0.98761522
0.99230231
0.99210501
0.99199712
0.99180165
0.99165573
0.99158983
0.99126568
0.99140596
0.99099545
0.990984
0.99090107
0.99049399
0.99070619
0.99026047
0.99020862
0.99000548
0.98965344
0.98965372
0.98906456
0.98915726
0.98855406
0.98844872
0.98802591
0.98774714
0.98740126
0.98705922
0.98666641
0.99185194
0.99167554
0.99158372
0.99137292
0.99116864
0.99116797
0.99080561
0.9908277
0.99063871
0.99033794
0.99044788
0.98996496
0.99002431
0.98972132
0.98946414
0.9894334
0.98884618
0.98893593
0.98836368
0.98817097
0.98792989
0.98743366
0.98729203
0.98676175
0.98655454
0.98606289
0.98570989
0.99140931
0.99112768
0.99113749
0.99093223
0.99059698
0.99074525
0.99027581
0.99022978
0.99022665
0.9896554
0.98993111
0.98940662
0.98925781
0.98921282
0.98860489
0.98874024
0.9881351
0.9879724
0.98772941
0.98718132
0.98713484
0.98654708
0.98637688
0.98586682
0.98557611
0.98510775
0.98469777
0.99091382
0.99061438
0.99062271
0.99036331
0.99006866
0.99023181
0.98972525
0.98960033
0.98964888
0.98908015
0.98922094
0.98883607
0.98849607
0.98850284
0.98789349
0.98779238
0.9874855
0.98697874
0.98689936
0.98635588
0.98610531
0.98575499
0.98532003
0.98500076
0.98451153
0.98412211
0.98364396
0.9903469
0.99010607
0.99005
0.98980502
0.98946018
0.98954938
0.98930137
0.98885007
0.98896212
0.98856436
0.98830178
0.98826989
0.98768444
0.98761531
0.98728471
0.9867054
0.98677613
0.98603292
0.98593062
0.98553631
0.98505557
0.98485681
0.98426692
0.9840096
0.98347576
0.98302138
0.9825474
0.98980259
0.98944386
0.98939354
0.98933952
0.98876585
0.98876444
0.98879969
0.98808634
0.98823063
0.98789208
0.98741035
0.98757139
0.98677504
0.98672258
0.98652171
0.98568454
0.98591841
0.98511512
0.98495064
0.9845825
0.98409961
0.98378611
0.98327826
0.98288647
0.982403
0.98187111
0.98140269
0.98922108
0.98875458
0.98865657
0.9887765
0.9880816
0.98800699
0.98805406
0.98734159
0.98748895
0.98701633
0.98655471
0.98675907
0.98580999
0.98578865
0.98558641
0.98476796
0.98489636
0.98417152
0.98399256
0.9834996
0.98316613
0.98264367
0.98225299
0.98172997
0.98126315
0.98067253
0.98022922
0.98852457
0.98804273
0.98799612
0.98787135
0.98743625
0.98737537
0.98695552
0.98665522
0.98668501
0.98598254
0.9857643
0.9857064
0.98493594
0.98479921
0.98447441
0.98397021
0.9837008
0.98325573
0.98292287
0.98244316
0.98206815
0.98156617
0.98110343
0.98057871
0.98004813
0.97946719
0.97896652
0.98773296
0.9874003
0.98713917
0.98692995
0.98670182
0.98653971
0.9860166
0.98573251
0.98573375
0.985051
0.98474028
0.98468911
0.98395522
0.98378031
0.98341006
0.98293734
0.98269709
0.98209491
0.98191186
0.98127332
0.98094934
0.98038871
0.97992614
0.97936604
0.97881013
0.9782006
0.97766081
0.98679055
0.98667856
0.9862943
0.98587031
0.98587355
0.98560375
0.98492206
0.98488298
0.98461152
0.98396694
0.98388442
0.98338978
0.983024
0.98275277
0.98221103
0.98200152
0.98146749
0.98110028
0.98068084
0.9801499
0.97975709
0.97914236
0.97872394
0.97807304
0.97756182
0.97688732
0.97629925
0.98583778
0.98574654
0.98521146
0.98496644
0.98483581
0.98436502
0.98404946
0.98375703
0.98335017
0.98307372
0.98262315
0.98229876
0.98198554
0.98147561
0.98125549
0.98073932
0.98034901
0.97996135
0.9793957
0.97905655
0.97839369
0.97799417
0.977343
0.97686105
0.97616134
0.97564027
0.97484175
0.98481012
0.9845213
0.98420536
0.98388064
0.9835671
0.98330711
0.98284401
0.98254462
0.98230091
0.98175356
0.98149809
0.98121514
0.98061107
0.98047551
0.97996057
0.97951445
0.97921726
0.97856125
0.9782972
0.97763103
0.97721679
0.97661056
0.97603673
0.97554071
0.9747572
0.97434136
0.97335235
0.98354775
0.98340167
0.98289434
0.9825784
0.98246655
0.98194741
0.98155199
0.98143982
0.98088751
0.98057266
0.98035614
0.9797648
0.97955901
0.97916144
0.97856569
0.97844497
0.97773554
0.97732521
0.97696532
0.97620691
0.97603068
0.97506337
0.97485528
0.97402226
0.97343789
0.9729355
0.97189025
0.98232174
0.98184704
0.98157759
0.98142085
0.98089646
0.98055961
0.9804184
0.97993041
0.97954443
0.97940147
0.97885634
0.97852055
0.97828765
0.97760479
0.97744802
0.97697332
0.97624989
0.9761684
0.97533914
0.97493886
0.97456874
0.97361843
0.97355621
0.97245319
0.97210286
0.97147727
0.970424
0.98082211
0.98044054
0.98022525
0.97980001
0.97945118
0.9793356
0.97882885
0.97840578
0.97839857
0.97780181
0.97736293
0.97729964
0.97667355
0.97622613
0.97608467
0.97531266
0.9750185
0.97465592
0.97371047
0.97372651
0.97292967
0.97221351
0.97208446
0.97096926
0.970638
0.96998779
0.96893175
0.97920208
0.97904383
0.97859612
0.97823253
0.97810074
0.97769885
0.97725983
0.97712107
0.97674649
0.97614551
0.97613276
0.97566383
0.97497396
0.974952
0.97441654
0.97371105
0.97364315
0.97296259
0.97228921
0.97223429
0.97123613
0.97080976
0.97057899
0.96942124
0.96904087
0.96852941
0.96747297
0.97774737
0.97727214
0.97693606
0.97688432
0.97644834
0.97592348
0.97583389
0.97559199
0.9749456
0.97470137
0.97454894
0.97384634
0.9735443
0.97336219
0.97258785
0.97223625
0.97213102
0.97118236
0.97078859
0.97067797
0.96959322
0.96925331
0.96892109
0.96791863
0.96741197
0.96693321
0.96595971
0.97607606
0.97559752
0.97543807
0.97519997
0.97466444
0.97444591
0.97430351
0.97367261
0.97330705
0.97326676
0.97265036
0.97210763
0.97202343
0.97163558
0.97074625
0.97073767
0.97038343
0.96945046
0.96928949
0.96892624
0.96799311
0.96754837
0.96736148
0.96623857
0.96573111
0.9652662
0.96449085
0.97420822
0.97407939
0.9738761
0.97326733
0.97294649
0.97300223
0.97241183
0.97189098
0.97176046
0.97148641
0.97089002
0.97035681
0.97045875
0.96966422
0.96908662
0.96920018
0.96841011
0.96780417
0.9675451
0.96730536
0.96620326
0.96586572
0.96562983
0.96470712
0.96392564
0.96349538
0.96291645
0.97254924
0.97237879
0.97194841
0.97153141
0.97138977
0.97111938
0.97043744
0.97027758
0.97019502
0.96950201
0.96894082
0.96889927
0.96869967
0.96771798
0.9674162
0.96747848
0.96670479
0.96594387
0.96577394
0.96556126
0.96456389
0.96402833
0.96376492
0.96311465
0.96226934
0.96163207
0.9611746
0.97085757
0.97037838
0.96998087
0.96996544
0.96970618
0.96916681
0.96857716
0.96858777
0.96848463
0.96750377
0.96724734
0.96723497
0.96673306
0.96600937
0.96565749
0.96571846
0.96486026
0.96423996
0.96405709
0.9636654
0.9628372
0.9622709
0.96197154
0.96137263
0.960469
0.95990527
0.95945577
0.96901155
0.96836091
0.96814332
0.96816998
0.9677891
0.96717006
0.96683836
0.96689063
0.9664463
0.96573102
0.9655899
0.96547677
0.96482716
0.96424481
0.96400864
0.96385238
0.96306992
0.96246709
0.9623555
0.96179454
0.96114956
0.96041143
0.96017539
0.95966041
0.95879418
0.9581129
0.95759273
0.96691842
0.96649251
0.96644469
0.96620256
0.96557472
0.96530928
0.96517753
0.96505334
0.96443686
0.96376259
0.96409099
0.96361682
0.96299814
0.96240401
0.96222596
0.96233679
0.96110903
0.96081069
0.96025458
0.96032141
0.95942236
0.95860811
0.95818792
0.95799832
0.95725782
0.95639131
0.95565459
0.96479156
0.96456757
0.9646321
0.96416672
0.96348528
0.96362501
0.96333854
0.96311128
0.96252267
0.96186789
0.9625094
0.96161454
0.9612985
0.96053637
0.96048905
0.96061437
0.9592806
0.95927565
0.95818391
0.95881066
0.95748475
0.9571978
0.95621989
0.95629711
0.95547418
0.95495117
0.95399579
0.96272227
0.96260632
0.96266037
0.96206877
0.9615953
0.96175675
0.96141324
0.96132499
0.96052967
0.96021138
0.96051988
0.95978219
0.95969633
0.95864988
0.95885566
0.95847727
0.95791974
0.95751206
0.95651902
0.95683248
0.95578492
0.95588184
0.95449754
0.9544781
0.95358438
0.95359348
0.95259636
0.96073242
0.96063229
0.96071774
0.96006255
0.95970616
0.95982425
0.95945123
0.95958239
0.95860742
0.95849079
0.9585711
0.95797832
0.9580901
0.95677257
0.95718803
0.95647554
0.95654729
0.95566529
0.95500553
0.9548892
0.95424297
0.95437833
0.95288641
0.95287029
0.95185213
0.95206945
0.95111091
0.95879999
0.95873001
0.95872046
0.95815881
0.95788858
0.95796177
0.95754601
0.95767196
0.95674633
0.95685643
0.95672286
0.95620478
0.95630623
0.95501169
0.95561519
0.95471051
0.9549228
0.95388751
0.95357928
0.95318214
0.95271223
0.95259976
0.95148491
0.95150928
0.95039351
0.95031152
0.9494834
0.95708156
0.95688743
0.95660733
0.95632656
0.95611286
0.95632265
0.95582807
0.95553234
0.95529997
0.95493691
0.95516563
0.95437917
0.95444675
0.95363862
0.95377364
0.95332342
0.95276065
0.95271124
0.95190083
0.95194584
0.9508853
0.95094954
0.95010955
0.95029224
0.94908999
0.94859958
0.94792268
0.95527426
0.95506606
0.95481175
0.95459011
0.95440237
0.95461363
0.95405096
0.9539519
0.95367653
0.95321319
0.95343976
0.9527241
0.95293677
0.95219609
0.9521318
0.95156517
0.95121287
0.95133782
0.95055507
0.95048959
0.94926822
0.94946899
0.9488063
0.94897077
0.94781943
0.94721204
0.94659743
0.95349304
0.95344414
0.95326169
0.9529503
0.95278146
0.95277347
0.95250398
0.95260844
0.9519894
0.9517778
0.95160131
0.95134791
0.95147626
0.95075984
0.95069414
0.94984623
0.95010761
0.94966174
0.9494735
0.9488053
0.94823048
0.94800143
0.9476441
0.94743758
0.94667112
0.94611518
0.94551422
0.95184046
0.95188412
0.95170959
0.95141121
0.95121886
0.95123959
0.95126947
0.95114706
0.95052685
0.95031052
0.95013826
0.95018749
0.94999105
0.949594
0.94916195
0.94869285
0.94875061
0.94832514
0.94817016
0.947534
0.94734119
0.94666519
0.94644403
0.94588839
0.945682
0.94518658
0.94464697
0.95027947
0.95060073
0.95048856
0.95013667
0.9497686
0.94987042
0.94992768
0.94990713
0.94947568
0.94904461
0.94905154
0.94862157
0.94877318
0.94843099
0.94814178
0.94781714
0.94734942
0.94709538
0.94677372
0.94667286
0.94652079
0.94563737
0.94523966
0.94450206
0.94471445
0.944352
0.94394325
0.94937196
0.94944057
0.94942081
0.94914339
0.94870519
0.94870093
0.94860599
0.94881093
0.94857265
0.94821566
0.94803612
0.94731882
0.9476091
0.94737017
0.94752794
0.9469073
0.94639125
0.94577714
0.94562292
0.9458699
0.94571884
0.94500552
0.94413158
0.94353767
0.94360215
0.94359696
0.9432233
0.94811596
0.94838696
0.94858334
0.94844498
0.94798384
0.94767117
0.94745818
0.94778715
0.9477347
0.94769555
0.94719967
0.94646015
0.94650817
0.9464284
0.94684914
0.94614971
0.94578719
0.94486685
0.94481191
0.94499669
0.94483488
0.94441511
0.94334956
0.94299531
0.94273103
0.94290285
0.94242343
0.94754915
0.94759487
0.94788924
0.94777734
0.94738867
0.94689141
0.94670303
0.94700856
0.94704582
0.94716519
0.94653554
0.94586395
0.94574602
0.9457934
0.9461565
0.94555884
0.94523143
0.94433371
0.94427167
0.94428925
0.94420283
0.94369921
0.94297099
0.94247826
0.94228134
0.94230093
0.94179254
0.9468307
0.94694667
0.94727494
0.94714299
0.94692114
0.94651298
0.94627131
0.94645902
0.94647759
0.9465287
0.94608067
0.94560741
0.94535982
0.94545323
0.94552531
0.945102
0.94465392
0.94410107
0.94401452
0.94381703
0.94388699
0.94309229
0.94272263
0.94209608
0.94199186
0.94185907
0.94142013
0.94651522
0.94646506
0.94651189
0.94647229
0.94656981
0.94641387
0.94625183
0.94623161
0.94603537
0.94598198
0.94576144
0.94555579
0.9453284
0.94533076
0.94509366
0.94476204
0.94438554
0.94400066
0.94395777
0.94363601
0.94355673
0.94287936
0.94249856
0.94208581
0.94182467
0.94159898
0.94121362
0.94661729
0.94635232
0.94623531
0.94619573
0.9463451
0.94642626
0.94630645
0.94616205
0.94589156
0.94578785
0.9456865
0.94562126
0.94547465
0.945249
0.94495686
0.94467178
0.9444234
0.94415756
0.94399407
0.94364008
0.94336332
0.94291967
0.94253376
0.94224405
0.94188517
0.9415478
0.94113085
0.94673889
0.94655919
0.94644871
0.94638798
0.94649997
0.94654186
0.94640793
0.94625798
0.94603034
0.94596377
0.94594505
0.94584985
0.94565311
0.94533546
0.94510013
0.94481341
0.94475184
0.9444272
0.94423148
0.94384809
0.9434084
0.94316547
0.94277003
0.94255655
0.94211615
0.941746
0.94126436
0.94698997
0.94706975
0.94705042
0.94701478
0.94695032
0.94681169
0.94672484
0.94664148
0.94651554
0.94650724
0.94634148
0.94619819
0.94601444
0.94564204
0.94560817
0.94525953
0.94524948
0.94486843
0.9446107
0.94418395
0.9438186
0.94360318
0.9433039
0.94295868
0.9425581
0.94208872
0.94162461
0.9477775
0.94788337
0.94790425
0.9478258
0.94765677
0.94747378
0.94739691
0.94744694
0.94727243
0.94719339
0.94697552
0.94665907
0.94670731
0.94631957
0.94636087
0.94598716
0.9457797
0.9455141
0.94509089
0.94488071
0.94446359
0.94439694
0.94388892
0.94361323
0.94307166
0.94269369
0.94223623
0.94888176
0.94896964
0.94903066
0.94888159
0.94864696
0.94847446
0.94836187
0.94850324
0.94832051
0.94806948
0.94784706
0.94745134
0.94760761
0.94728768
0.94739603
0.94668796
0.94672167
0.94601468
0.94621901
0.94558775
0.94566663
0.94499199
0.94476066
0.94427941
0.94386437
0.94353523
0.94314818
0.95018112
0.95029339
0.95032829
0.95021307