/*--------------------------------*- C++ -*----------------------------------*\
| =========                 |                                                 |
| \\      /  F ield         | OpenFOAM: The Open Source CFD Toolbox           |
|  \\    /   O peration     | Version:  2406                                  |
|   \\  /    A nd           | Website:  www.openfoam.com                      |
|    \\/     M anipulation  |                                                 |
\*---------------------------------------------------------------------------*/
FoamFile
{
    version     2.0;
    format      ascii;
    arch        "LSB;label=32;scalar=64";
    class       surfaceScalarField;
    location    "3";
    object      phi;
}
// * * * * * * * * * * * * * * * * * * * * * * * * * * * * * * * * * * * * * //

dimensions      [1 0 -1 0 0 0 0];

oriented        oriented;

internalField   nonuniform List<scalar> 
123996
(
0.0022997012
-9.8483449e-05
0.00011771257
0.0022277511
-0.00012805751
0.00016567428
0.0021700008
-9.8167786e-05
0.00015986245
0.002155535
-7.2760965e-05
0.00013453935
0.0022031916
-5.1965955e-05
9.366529e-05
0.00228937
9.2632114e-06
3.6061691e-05
0.0023519732
8.3711048e-06
8.4813659e-05
0.0023098506
-0.00011239063
0.00015399791
0.0020591449
-1.2972149e-05
-1.345619e-05
0.0017156949
0.00021123501
-0.00019655113
0.0014957883
0.00018203738
-9.0965816e-05
0.0013198456
0.000146395
-0.00010595265
0.0012146664
0.00018084561
-0.00020420821
0.0011573783
0.00023077813
-0.00023955845
0.0013061573
0.00016259094
-7.1202318e-05
0.0013748248
-9.3141368e-05
8.5329717e-05
0.0014406688
-9.1874672e-05
-5.7247319e-05
0.001618815
8.9494357e-05
-8.4857966e-05
0.0017905745
1.4156916e-05
0.00016065717
0.001896585
-0.00019212387
0.00023125092
0.0022077142
-9.3725317e-05
5.7103247e-05
0.0022798788
0.00010314542
-0.00017942924
0.0022377707
3.8937022e-05
-3.3134929e-05
0.0024365802
-1.2794718e-05
8.563774e-05
0.0025391678
-5.2250937e-06
-2.1309881e-05
0.0025506986
4.9978211e-05
-0.00010735095
0.0026851345
0.00016755077
-0.00019027099
0.0026548065
0.00018655215
-0.00020160171
0.0025780718
0.00013387959
-0.00012661163
0.0027601208
0.00022267702
-0.00018672961
0.0029067631
0.00036543442
-0.00035917356
0.0028166206
0.00042320291
-0.00045791313
0.0027023888
0.00038447395
-0.00042354618
0.0027901782
0.00038596899
-0.00040120894
0.0030046137
0.00051271539
-0.00052299326
0.0032035551
0.00070063187
-0.0007290184
0.0032838958
0.00081104207
-0.00088189854
0.0032208036
0.00077003573
-0.00087256963
0.003105777
0.00068265674
-0.00078295474
0.0030457292
0.00065480934
-0.00071815323
0.0031322477
0.00072722356
-0.00076231644
0.00335282
0.00083549441
-0.00087023734
0.003620907
0.00092700904
-0.0010215826
0.0038096317
0.00094852228
-0.001102966
0.0038950093
0.00094132831
-0.001149956
0.003888899
0.00092765159
-0.001132695
0.0038621631
0.00095446674
-0.0011346513
0.0038725861
0.00099986778
-0.0011247513
0.0039949111
0.0010801406
-0.0011569771
0.0042095373
0.0011237311
-0.0011661543
0.0044812628
0.0011606365
-0.0012319845
0.004733662
0.0011480539
-0.0012587387
0.0049250895
0.0011564667
-0.0013262737
0.0049986763
0.0011113272
-0.0013249671
0.0011378187
0.004988677
-0.0013630689
0.0021929395
-8.3893703e-05
0.0021255278
-0.00010073541
0.0020688782
-4.913891e-05
0.002052587
-1.8554383e-05
0.002099996
-7.1241395e-06
0.0021775039
5.3396072e-05
0.0022309817
7.0168518e-05
0.0022176962
-4.1154573e-05
0.0020108823
-3.5232374e-05
0.0016670687
0.00017618216
0.0014523162
0.0002542952
0.0012837344
0.00016421173
0.0011936728
0.00014383619
0.0011168388
0.00017110692
0.0012258641
0.00018671437
0.0013063094
5.8676427e-06
0.0014016108
-0.00015809184
0.00153944
-2.7733333e-06
0.0016737195
8.4094885e-05
0.0017954986
-7.8110474e-05
0.0021015463
-6.8130119e-05
0.0021407183
1.6431319e-05
0.0021200196
-3.4340046e-05
0.0022784832
-2.7623811e-07
0.0023925668
1.8038685e-05
0.0024250373
3.759217e-05
0.0025273547
0.00013757975
0.0025019179
0.00013290674
0.0024718888
0.00012914076
0.0026417156
0.00027451327
0.0027684747
0.0004054769
0.0026692727
0.00039989335
0.0025662322
0.00033444192
0.0026778807
0.0003485552
0.0029100569
0.00047153335
0.0030691054
0.00062938128
0.0030602719
0.00069261513
0.0029767525
0.00061755758
0.002934202
0.00053832875
0.0029658608
0.00055747012
0.0030739465
0.00066998236
0.003228119
0.00080418874
0.003376686
0.00086970351
0.0034837249
0.00083599912
0.0035712209
0.00077754181
0.0036474654
0.00074712986
0.0037215305
0.00078872605
0.003798347
0.00087495067
0.00389254
0.00099118803
0.00402278
0.0010580463
0.0041841327
0.0011026661
0.0043629081
0.0010618718
0.0045285701
0.0010197474
0.0046269653
0.00093904179
0.00092858541
0.0046712397
0.0020839259
-7.4211507e-05
0.0020251618
-8.4643245e-05
0.0019735541
-2.0087145e-05
0.001957449
1.1970253e-05
0.002004309
1.3157823e-05
0.0020768185
4.6446818e-05
0.0021228704
7.8503887e-05
0.0021157677
1.2504783e-05
0.0019318876
-5.7215608e-05
0.0016028909
0.00010345466
0.001381832
0.00027809451
0.001216492
0.00020931064
0.0011312771
0.00011296838
0.0010518615
0.00011346457
0.0011251771
0.00018546093
0.0012014804
6.6942764e-05
0.001332471
-0.00014993119
0.001449256
-0.00011887138
0.0015498209
6.0923162e-05
0.0016960545
1.7493123e-05
0.0019852879
2.6205881e-05
0.0020281685
-3.732911e-05
0.0020149538
-0.00013663022
0.0021588136
-4.6265823e-05
0.0022871594
2.1623315e-05
0.0023471741
6.2969134e-05
0.0024115701
0.00014278561
0.0023937118
9.4917674e-05
0.0024083093
0.00010103239
0.0025567533
0.00029086574
0.0026515519
0.00041960812
0.0025496899
0.00036942869
0.0024536476
0.00028412694
0.0025713848
0.00030736513
0.0028052867
0.00043329565
0.0029339089
0.00056410987
0.0028622684
0.00059223107
0.0027572935
0.00050068384
0.0027639212
0.00041800672
0.0028702846
0.00045234257
0.0030055371
0.00058589099
0.0030975358
0.00073565945
0.0031354674
0.0008087248
0.0031720049
0.00078303806
0.0032554521
0.00071449427
0.0033987751
0.00067113614
0.0035624428
0.00069949149
0.0036959873
0.00077968276
0.0037803511
0.00089222521
0.0038194356
0.00096505421
0.0038475681
0.0010160381
0.0039072765
0.00097857845
0.0039943476
0.00093345341
0.0041141612
0.00083888233
0.00079161079
0.0042572461
0.0019858914
-6.9083668e-05
0.0019327672
-7.308169e-05
0.001881798
-4.1666109e-06
0.0018634357
3.6548532e-05
0.0019095237
2.6429761e-05
0.0019766466
4.7026523e-05
0.002018005
8.2609472e-05
0.0020214859
4.1476863e-05
0.0018649153
-6.9939e-05
0.0015601061
2.0647982e-05
0.0013272861
0.00026517592
0.0011673767
0.00023704002
0.0010896884
9.3674751e-05
0.0010076443
5.4225128e-05
0.0010567117
0.00011556292
0.0011200204
7.9198513e-05
0.0012498841
-6.4054377e-05
0.0013826592
-0.0001822444
0.0014564104
1.194801e-05
0.0015930673
4.9416014e-05
0.0018502085
0.00010953137
0.0018933362
-3.7029569e-05
0.0019011957
-0.00018717368
0.0020282382
-0.0001052205
0.0021530795
4.679364e-06
0.0022373198
9.1445388e-05
0.0022651057
0.00017019324
0.0022556198
9.5002044e-05
0.0023213633
7.7593525e-05
0.0024494196
0.00026902124
0.0024991999
0.00039312329
0.0024040055
0.00031599513
0.0023267868
0.00022319399
0.0024467412
0.00026115841
0.0026827363
0.0003965274
0.0027902683
0.00051944844
0.0026861438
0.00053223442
0.0025657259
0.00044436025
0.0026009494
0.00036561378
0.0027617642
0.000386889
0.0029321922
0.00050112176
0.0029979852
0.00063613474
0.0029650377
0.00071727806
0.0029425308
0.00071916924
0.0030144716
0.00068949859
0.003188111
0.00066360627
0.003415215
0.00068430871
0.0036080062
0.00073045256
0.0037041943
0.00079923074
0.0036973428
0.00085502507
0.0036445764
0.00089052281
0.0035969466
0.00086790562
0.0036142504
0.0008476308
0.0037017664
0.000779891
0.00075143561
0.0038511244
0.0018915196
-7.2717103e-05
0.00184228
-7.1941598e-05
0.0017932961
-8.1762416e-07
0.0017730787
4.6433035e-05
0.0018166499
3.0397416e-05
0.00188048
3.8252529e-05
0.0019187346
6.8245206e-05
0.001918683
5.0003283e-05
0.0017859187
-6.4505223e-05
0.0015068936
-5.2526914e-05
0.0012706955
0.00021489933
0.0011083043
0.00025729107
0.0010302159
9.9695955e-05
0.00096004546
-5.1973486e-07
0.00099153471
4.3634533e-05
0.0010441642
5.37036e-05
0.0011667665
1.6719997e-05
0.0013236954
-0.00015379699
0.0013759356
-6.8996548e-05
0.0015097419
2.6992958e-05
0.0017283235
0.00013579684
0.001780304
-1.1069095e-05
0.0018175897
-0.000193944
0.0019330472
-0.00013117485
0.0020601881
-2.1270287e-05
0.0021537169
9.0542852e-05
0.0021499086
0.00018240289
0.0021438038
0.00010956787
0.0022533165
7.6604073e-05
0.0023613679
0.00023915878
0.0023647119
0.00034393224
0.0022760562
0.00025872843
0.0022233053
0.00016243378
0.0023446459
0.00021726753
0.002569313
0.00036592004
0.002665719
0.00047689678
0.0025534726
0.00048231722
0.0024104942
0.00041995951
0.0024481645
0.0003651666
0.0026453724
0.00037455136
0.0028450946
0.0004477081
0.0029115418
0.00053932899
0.0028509979
0.00061059229
0.0027853258
0.00063520371
0.0028215836
0.00065714248
0.0029845015
0.00066965922
0.0032223555
0.00069519522
0.0034493546
0.00071386369
0.0035728895
0.00073361174
0.0035670682
0.00073544221
0.0034987585
0.00074417322
0.0034027736
0.00073267489
0.0033675891
0.00073650562
0.0034096215
0.00072274702
0.00073708084
0.0035315698
0.001817449
-7.7851624e-05
0.0017626733
-7.6146914e-05
0.0017116798
-1.6631603e-06
0.0016887115
4.3189724e-05
0.0017300682
2.9582945e-05
0.0017903394
2.5870428e-05
0.0018270608
4.1856339e-05
0.0018273385
4.1487318e-05
0.0017103684
-5.9793804e-05
0.0014624413
-9.5477925e-05
0.0012247782
0.00013224132
0.0010564766
0.00024870653
0.00097987191
0.00012589741
0.00091411813
-3.9330769e-05
0.00093739171
-2.8513942e-05
0.00098513705
9.1067439e-06
0.0010832003
6.7601094e-05
0.0012552154
-6.7401074e-05
0.0013004548
-0.00011014385
0.0014223207
-4.3488317e-05
0.001601957
0.00010514586
0.0016543668
6.5212288e-06
0.0017244568
-0.00015800712
0.0018276525
-0.0001237487
0.0019501181
-3.1959748e-05
0.0020535244
6.7709752e-05
0.0020273141
0.00016128045
0.0020189744
0.00011193388
0.0021667146
8.8792375e-05
0.0022654878
0.00021692475
0.0022244562
0.00029950356
0.0021384037
0.00021008725
0.0021183886
0.0001190101
0.0022408266
0.00019074205
0.0024451667
0.00033875538
0.0025367056
0.00043243069
0.0024338259
0.00042297696
0.0022911201
0.00037861926
0.0023114456
0.00036637729
0.0025005564
0.00039701551
0.0027083927
0.0004357601
0.002795319
0.00047223281
0.0027466631
0.00050811878
0.0026766316
0.00054332379
0.0026855123
0.00060477018
0.00281388
0.00065980475
0.0030246942
0.00069967025
0.0032395695
0.00070725986
0.003372747
0.00069059527
0.003388801
0.00063877639
0.0033293757
0.00060969503
0.0032479184
0.00059120579
0.0031888596
0.00060919179
0.0032072756
0.00063639324
0.00068748995
0.0033066343
0.001730448
-8.57128e-05
0.001680149
-9.0120057e-05
0.0016313308
-1.3047151e-05
0.0016065868
3.5753508e-05
0.0016450125
2.5335961e-05
0.0017019246
8.457668e-06
0.0017375271
9.3799673e-06
0.0017353873
2.125553e-05
0.0016332109
-4.9272526e-05
0.0014111948
-0.00011821221
0.0011816771
4.6038187e-05
0.001007072
0.00021344628
0.00092541593
0.00015543911
0.0008694463
-5.6058157e-05
0.00088747491
-9.1395566e-05
0.00093625337
-4.0288182e-05
0.0010122954
9.1458403e-05
0.001182445
2.5209046e-05
0.0012331321
-0.00010156479
0.0013498884
-0.0001260881
0.0014992575
3.2490959e-05
0.0015507168
-2.6381335e-06
0.0016443434
-0.00011742739
0.0017435905
-8.6049468e-05
0.0018605271
-2.5253097e-05
0.0019689524
5.1599937e-05
0.0019268165
0.00012047121
0.0019089185
9.4473294e-05
0.0020778899
0.00010054944
0.0021780995
0.00020407369
0.0021112227
0.0002593451
0.0020178558
0.00017977376
0.0020252472
9.9916413e-05
0.0021543435
0.00017602201
0.00232655
0.00032754847
0.0024041764
0.00039954702
0.002319331
0.00036104648
0.00219422
0.00031659766
0.002195589
0.00034397526
0.0023507073
0.00041000472
0.0025460221
0.00044505749
0.002653277
0.00044056564
0.0026416711
0.00043308376
0.0025928773
0.00045912636
0.0025894863
0.00053687372
0.0026740786
0.00062667884
0.002824923
0.00068447729
0.0029832902
0.00068822009
0.0031042258
0.00064547864
0.00315277
0.00056310397
0.003134191
0.00050393435
0.0031011951
0.00046518345
0.0030767171
0.00048968606
0.003090744
0.00053159209
0.00060897787
0.0031593661
0.001647991
-9.202445e-05
0.0016021784
-0.00010632612
0.0015554826
-2.9918669e-05
0.0015293926
2.2215867e-05
0.0015648851
2.0880162e-05
0.0016185872
-7.5542936e-06
0.001654034
-2.1564496e-05
0.0016525672
-2.4527327e-06
0.0015589307
-3.654901e-05
0.0013602336
-0.00012456052
0.001144237
-2.627928e-05
0.00096392966
0.00016364963
0.00087400062
0.00017443514
0.00082510728
-6.2564788e-05
0.00084287081
-0.00013823579
0.00089584363
-7.8722659e-05
0.00095232782
8.2995711e-05
0.0011076765
9.2868433e-05
0.0011606931
-5.7645043e-05
0.0012775502
-0.0001771746
0.0014035715
-5.3129201e-05
0.0014486022
-3.339071e-05
0.0015582933
-8.6310897e-05
0.0016523118
-4.392265e-05
0.0017620657
-2.6347825e-07
0.0018780521
5.5251796e-05
0.0018272907
8.0797132e-05
0.0018021465
6.0356551e-05
0.0019763078
0.00010491854
0.0020822194
0.00019289187
0.0020017829
0.00022614422
0.0019047138
0.00015371525
0.0019337146
9.134707e-05
0.0020714288
0.00017070914
0.0022139071
0.00032386634
0.0022675855
0.00038197053
0.002202875
0.00030935335
0.0021149012
0.00025278886
0.0021021396
0.0002981174
0.002208921
0.00040216562
0.0023694007
0.00045675031
0.0024816843
0.0004321734
0.0025198085
0.00038586599
0.0025137224
0.00038713259
0.002522207
0.00045740683
0.0025659223
0.00056051688
0.0026470288
0.00064087855
0.0027414563
0.00065059297
0.0028224383
0.00059792971
0.0028731596
0.00051109606
0.0029062785
0.00042796706
0.0029225684
0.00037851411
0.002949701
0.00039403983
0.0029972052
0.00043088724
0.00051388216
0.0030628417
0.0015690711
-9.5209671e-05
0.0015274067
-0.00011839183
0.0014828083
-4.691793e-05
0.0014558291
7.2071044e-06
0.0014879322
1.5116381e-05
0.0015383392
-2.1533634e-05
0.0015736805
-5.1869023e-05
0.0015727292
-2.882123e-05
0.0014869245
-2.8671823e-05
0.001307274
-0.00011922055
0.0011064414
-8.1194184e-05
0.00092432408
0.00010392894
0.00082491918
0.00017615852
0.00078143589
-5.843373e-05
0.00080202192
-0.00015764345
0.00085833034
-9.464916e-05
0.00090090727
5.5246381e-05
0.0010359499
0.00012483376
0.0010861933
-1.6630574e-05
0.0012105254
-0.00018479643
0.0013232521
-0.00012200158
0.0013617126
-7.4277439e-05
0.0014821483
-7.0906723e-05
0.0015726648
-1.0029382e-05
0.0016761227
3.2109991e-05
0.0017884158
6.9163355e-05
0.0017399573
4.6811315e-05
0.0017113069
1.8559232e-05
0.0018772739
9.533289e-05
0.0019886631
0.00018017283
0.0019047815
0.00019519813
0.001803124
0.00012476677
0.0018473901
8.1076041e-05
0.0019922122
0.00017030339
0.0021095391
0.0003216094
0.0021356092
0.00037313851
0.0020879067
0.00027732669
0.0020426598
0.00019750199
0.0020411114
0.00024434335
0.0021068406
0.00037020962
0.0022118261
0.00046122911
0.0023032243
0.0004416566
0.0023718965
0.00036893476
0.0024158906
0.00033282542
0.002449379
0.00037796584
0.0024826083
0.00047288629
0.0025092859
0.00056539707
0.0025384393
0.00059575205
0.0025673644
0.00055513269
0.0026012991
0.00047454366
0.0026566248
0.00038947917
0.0027248695
0.00033234058
0.0028058608
0.00032769596
0.0028878541
0.00035691183
0.00042442858
0.0029703019
0.0014937708
-9.5137906e-05
0.0014559988
-0.00012354501
0.0014138178
-6.0455393e-05
0.0013863441
-8.9927214e-06
0.0014148433
9.2481283e-06
0.0014618625
-2.9140138e-05
0.0014973934
-7.3894339e-05
0.001498267
-5.4923076e-05
0.0014184202
-2.7389087e-05
0.0012542771
-0.00010303
0.0010687958
-0.0001147428
0.00088910734
3.6791013e-05
0.00077945252
0.00015755832
0.00074022656
-4.6482845e-05
0.00076498351
-0.00014837701
0.00082287654
-8.9782503e-05
0.00085723718
2.4637031e-05
0.00097011736
0.00012120673
0.0010148013
7.3524605e-06
0.0011432996
-0.00015974588
0.0012495946
-0.00015518364
0.0012832176
-0.00011512594
0.0014070284
-7.2261282e-05
0.0014935919
4.8710224e-06
0.0015886933
5.9674569e-05
0.0016929043
9.0514658e-05
0.0016536581
2.2837013e-05
0.0016268676
-1.9498054e-05
0.0017767374
7.4647492e-05
0.0018904593
0.0001624741
0.0018107371
0.00016110529
0.0017074718
9.06409e-05
0.0017601167
7.0000179e-05
0.0019127057
0.00016908606
0.0020112292
0.00031601526
0.0020051635
0.00036605019
0.0019588382
0.00026410825
0.0019515811
0.00016068178
0.0019836422
0.00018977863
0.0020335101
0.00031900986
0.0020862162
0.0004420963
0.0021392197
0.00045057663
0.0022095491
0.00037546982
0.0022904603
0.00031006706
0.0023611385
0.00031407329
0.0024001051
0.00038366245
0.0024036319
0.00047036334
0.0023791856
0.00051639475
0.0023584759
0.00050620179
0.0023719658
0.00044426156
0.0024257298
0.00037549035
0.0025230906
0.0003190555
0.0026417445
0.00030154861
0.002758248
0.00031297129
0.00035951345
0.0028584453
0.001421913
-9.1576034e-05
0.0013876654
-0.00012371116
0.0013479373
-7.0677438e-05
0.0013204649
-2.4206881e-05
0.0013454355
2.2103126e-06
0.0013890876
-3.2496512e-05
0.0014245715
-8.8082424e-05
0.0014279022
-7.9690052e-05
0.0013532869
-3.2656545e-05
0.0012013763
-8.0502568e-05
0.0010297896
-0.00012590443
0.00085661592
-2.9809494e-05
0.00073837761
0.00011778239
0.00070232906
-3.1712126e-05
0.00073071526
-0.00011589938
0.0007869643
-6.9630808e-05
0.00081632888
1.851331e-06
0.00090944118
9.1559191e-05
0.00095000551
6.9914841e-06
0.0010787264
-0.00012184305
0.001183695
-0.0001503152
0.0012141704
-0.00013537341
0.0013352672
-7.7972492e-05
0.0014192289
7.894088e-07
0.0015070248
7.2522383e-05
0.0016012248
0.00011332776
0.0015726733
1.5111665e-05
0.001551129
-4.2870301e-05
0.0016824524
5.5248725e-05
0.001792768
0.00014187583
0.0017217528
0.00012338936
0.0016229501
5.3522633e-05
0.0016776964
5.954651e-05
0.0018354081
0.0001687225
0.0019226284
0.00030580138
0.0018891651
0.00035064301
0.0018344346
0.00026005259
0.0018496643
0.00014790687
0.0019148613
0.00014674216
0.0019684945
0.00026193351
0.001982612
0.00039192588
0.001995252
0.00043431237
0.0020494518
0.00038289084
0.0021471998
0.00030802992
0.00225359
0.00027933781
0.0023127024
0.00031147405
0.0023107154
0.00037267415
0.0022607095
0.00042214236
0.0022021731
0.00043645814
0.0021882393
0.00040682924
0.002231645
0.00036789825
0.0023293858
0.00032503794
0.0024641268
0.00030352157
0.0026040548
0.00029923498
0.00032558528
0.0027207291
0.0013535064
-8.4770818e-05
0.0013223883
-0.00012205988
0.0012849393
-7.9308941e-05
0.0012579217
-3.8447013e-05
0.00127982
-5.9413208e-06
0.0013198438
-3.6290133e-05
0.0013550784
-9.6941547e-05
0.0013612714
-0.00010175537
0.0012914039
-4.0324652e-05
0.0011497085
-5.2946892e-05
0.00098973511
-0.00011660189
0.00082642533
-8.9311467e-05
0.00070155668
5.9891575e-05
0.00066858649
-1.8910176e-05
0.00069886367
-6.7441648e-05
0.00075110273
-3.8298165e-05
0.00077756395
-1.4498378e-05
0.00085383681
4.901796e-05
0.00089168973
-1.7248018e-05
0.0010171009
-8.6640095e-05
0.0011219143
-0.00011778825
0.0011516769
-0.00013015211
0.0012657984
-7.8638657e-05
0.0013480167
-1.4645489e-05
0.0014307926
7.1298825e-05
0.0015109071
0.00012703168
0.0014924103
1.9406328e-05
0.0014814247
-5.021541e-05
0.0015946525
4.5874302e-05
0.0016954938
0.00012579007
0.0016354494
8.6628249e-05
0.0015469908
1.9647083e-05
0.0015984519
4.931938e-05
0.001757825
0.00016800166
0.0018388011
0.00029318339
0.00178529
0.00032914525
0.0017169081
0.00025230883
0.0017419336
0.00014841036
0.001836167
0.00012254774
0.001907732
0.00020139349
0.0019050737
0.0003207641
0.0018787621
0.00038657097
0.0019046921
0.00037272196
0.0019966391
0.00031297285
0.0021229924
0.00027000815
0.0022134302
0.00026342694
0.0022210349
0.00028995793
0.0021648013
0.00032850974
0.0020875663
0.00035377052
0.0020459895
0.00035502227
0.0020764267
0.00034621232
0.0021604525
0.00033252739
0.0022886228
0.00032280138
0.002433319
0.00031041543
0.00031460986
0.0025645657
0.0012884262
-7.5256372e-05
0.0012599182
-0.00011881348
0.0012247776
-8.7314233e-05
0.0011984545
-5.1061483e-05
0.0012174889
-1.5545206e-05
0.0012541331
-4.0342017e-05
0.0012886079
-0.00010048432
0.0012978704
-0.00011927889
0.001233251
-4.8080837e-05
0.0010998694
-2.4593275e-05
0.00094874808
-9.2549416e-05
0.00079675554
-0.00013445286
0.00066885299
-7.2511162e-06
0.00063796426
-9.516134e-06
0.00066782285
-1.2073042e-05
0.00071496633
-6.27096e-07
0.00073928589
-2.8419006e-05
0.00080244109
5.0591386e-06
0.00083999114
-5.6583475e-05
0.00096001588
-5.8885408e-05
0.0010631634
-7.2935199e-05
0.0010950478
-0.00010592265
0.001199879
-7.3182345e-05
0.0012819735
-3.2518815e-05
0.0013602253
5.9157178e-05
0.001425164
0.00012515956
0.0014153865
2.5928538e-05
0.0014176642
-4.5781303e-05
0.0015137158
4.9155603e-05
0.0016015926
0.00011930445
0.0015545269
5.6676894e-05
0.0014802519
-8.7161078e-06
0.0015263266
4.1616969e-05
0.0016765314
0.00017035827
0.0017534082
0.00028158147
0.0016924736
0.00029905056
0.0016142158
0.00023507797
0.0016375641
0.00015039382
0.0017450909
0.00011695141
0.0018329462
0.0001569698
0.0018303409
0.00024201599
0.0017803811
0.00031225554
0.0017766267
0.0003363214
0.001850137
0.000309352
0.0019729778
0.00027301201
0.0020862508
0.00024218742
0.0021181435
0.00023404816
0.0020743457
0.00024574796
0.0019990302
0.00027077229
0.0019386941
0.00028955244
0.0019436965
0.00031257406
0.0020131802
0.00032670488
0.0021268569
0.00033369722
0.0022630881
0.00032633895
0.00032135104
0.0023921056
0.0012263531
-6.4367256e-05
0.0012003073
-0.00011232784
0.0011673618
-9.2506542e-05
0.0011419584
-6.0657735e-05
0.0011584277
-2.450269e-05
0.001191882
-4.1062518e-05
0.0012252375
-9.8969957e-05
0.0012375712
-0.00013043925
0.001178314
-5.3522135e-05
0.0010520434
1.7818012e-06
0.00090752738
-6.1999321e-05
0.00076776892
-0.00016400672
0.00064011034
-7.3819211e-05
0.00060979037
-3.0244068e-06
0.00063793442
4.2808586e-05
0.00067897439
3.7874607e-05
0.0007019426
-4.0661966e-05
0.00075498122
-3.4855405e-05
0.00079397238
-0.00010034169
0.00090768376
-4.2948013e-05
0.0010084117
-2.6418336e-05
0.0010420442
-7.0183934e-05
0.0011357192
-5.9150438e-05
0.0012197457
-4.6832963e-05
0.001294265
3.9441477e-05
0.0013437277
0.00011041779
0.0013415266
2.564858e-05
0.0013563297
-3.5294273e-05
0.001439221
6.1370514e-05
0.0015108922
0.00012469761
0.0014747617
4.1813529e-05
0.0014166637
-2.9514852e-05
0.0014594789
3.2739468e-05
0.0015973738
0.00017167735
0.0016706159
0.00027085263
0.0016088965
0.00026618479
0.0015242689
0.00020691247
0.0015365239
0.00014964165
0.0016437246
0.00012015675
0.0017485808
0.00013166374
0.0017555699
0.00017231129
0.0016993505
0.00022910229
0.0016695354
0.00027372681
0.0017183934
0.00028930897
0.0018275322
0.00027444642
0.0019456544
0.00024033882
0.0020016284
0.00020850207
0.0019776827
0.00018546842
0.0019217892
0.00019466311
0.0018658877
0.00021698398
0.0018448388
0.00026479012
0.0018903503
0.00030200149
0.0019847455
0.00032738937
0.0021010228
0.00033305354
0.00033176578
0.0022157731
0.0011672182
-5.3889743e-05
0.0011433137
-0.00010160536
0.0011125435
-9.2560486e-05
0.0010880302
-6.6467217e-05
0.0011023775
-3.1119636e-05
0.0011329675
-3.7244817e-05
0.0011649794
-9.3538256e-05
0.0011801158
-0.0001346937
0.001126139
-5.6364812e-05
0.0010061824
2.3637384e-05
0.00086665845
-3.1758057e-05
0.00073883421
-0.00017915822
0.00061437076
-0.00013260327
0.00058418686
-3.564678e-07
0.00060899204
9.3734304e-05
0.00064285931
7.3096036e-05
0.00066603335
-5.1484443e-05
0.00071054435
-6.8462675e-05
0.00075282373
-0.00013834054
0.0008596364
-3.6271208e-05
0.00095617286
1.2926625e-05
0.00099184733
-3.1368969e-05
0.0010737281
-3.6290928e-05
0.0011584743
-5.3169633e-05
0.0012304721
1.844679e-05
0.0012683459
8.4705687e-05
0.0012714268
1.526763e-05
0.0012995373
-2.6888786e-05
0.0013717493
7.8419925e-05
0.0014268848
0.00014233029
0.0014025311
3.9703155e-05
0.0013615501
-4.1331346e-05
0.0014016372
2.5274813e-05
0.0015207758
0.00017324518
0.0015879143
0.0002592558
0.0015302094
0.00023208559
0.0014448657
0.00017259456
0.0014444307
0.00013673837
0.001542797
0.00012690574
0.0016507882
0.00012652557
0.0016739019
0.000124676
0.001627766
0.00014758353
0.0015854194
0.000197914
0.001608608
0.0002478304
0.001696882
0.00026871445
0.0018016663
0.00024957261
0.0018721745
0.00020508422
0.0018794439
0.00014919367
0.0018402694
0.00013715915
0.0017966953
0.00015150684
0.0017740213
0.00019969705
0.0017974488
0.00025476812
0.0018628447
0.00030438343
0.0019521824
0.00032640882
0.0003361906
0.0020456579
0.0011109341
-4.5117516e-05
0.0010888548
-8.7644512e-05
0.0010602165
-8.7589e-05
0.0010367332
-6.7034319e-05
0.0010495502
-3.3514016e-05
0.0010772794
-3.0125048e-05
0.0011077331
-8.5234459e-05
0.001125327
-0.00013290097
0.00107653
-5.7034013e-05
0.00096233423
3.9018209e-05
0.00082687768
-5.8006451e-06
0.0007097052
-0.00018141089
0.00059113175
-0.00017819292
0.0005609378
-1.1046255e-06
0.00058091828
0.00013600509
0.00060709022
0.00010165524
0.00063153536
-5.993634e-05
0.00066906398
-9.5698989e-05
0.0007155069
-0.0001649375
0.00081514598
-3.4995354e-05
0.00090673974
4.1796368e-05
0.00094394032
3.1219158e-06
0.0010154623
-9.0292443e-06
0.001100153
-4.8746018e-05
0.0011694805
5.4681402e-07
0.0011982182
5.2996793e-05
0.0012052234
-5.5185845e-06
0.0012451791
-2.7956831e-05
0.0013105826
9.357842e-05
0.0013479423
0.00016618471
0.0013284788
5.3265583e-05
0.0013036728
-4.2992502e-05
0.0013455336
1.6595431e-05
0.0014475463
0.00017105876
0.0015030733
0.00024798402
0.0014533198
0.00019848969
0.0013749574
0.00013059946
0.0013654347
0.00011318654
0.0014479304
0.00013205869
0.0015493508
0.00013279086
0.0015886828
9.9464514e-05
0.0015578753
8.3462637e-05
0.0015175824
0.00012106864
0.0015219565
0.00019089151
0.001580924
0.00025230138
0.0016671734
0.00025653813
0.0017358029
0.00021540338
0.001762672
0.00014192947
0.0017492765
9.8656302e-05
0.0017288112
9.3385757e-05
0.0017137335
0.00013685636
0.0017193272
0.00019678441
0.0017611399
0.0002597064
0.0018256538
0.00030373359
0.00032847443
0.0018950311
0.0010575027
-3.8191556e-05
0.0010368683
-7.2414157e-05
0.0010102808
-7.8511179e-05
0.00098784537
-6.3409669e-05
0.00099924219
-3.2864605e-05
0.0010242543
-2.1840158e-05
0.0010531016
-7.5053753e-05
0.0010726836
-0.00012669406
0.0010289043
-5.6783555e-05
0.00091987888
4.6932575e-05
0.00078831215
1.3600943e-05
0.00068039779
-0.00017417235
0.00056969226
-0.00020825854
0.00053914052
-5.3801002e-06
0.00055353226
0.0001669189
0.00057252422
0.00012104307
0.00059845028
-6.4905801e-05
0.00062993361
-0.00011414164
0.00068077048
-0.00017950125
0.00077387081
-3.7539426e-05
0.00085928407
6.0505774e-05
0.00089785403
3.0146838e-05
0.00095956466
1.7645219e-05
0.0010438607
-3.6804353e-05
0.0011114709
-1.0880523e-05
0.0011320456
2.2626177e-05
0.0011411997
-3.1498842e-05
0.0011917704
-3.7524426e-05
0.0012528437
0.00010044772
0.0012755866
0.00018647561
0.0012577163
7.6720695e-05
0.0012477322
-3.5386603e-05
0.0012924511
1.1383843e-05
0.0013764983
0.00016423726
0.0014188723
0.00023566848
0.0013773715
0.00016501601
0.001310292
8.8141488e-05
0.0012964309
8.0157816e-05
0.0013637369
0.0001282787
0.0014518089
0.00014357973
0.0014965499
9.4013929e-05
0.001485525
3.919544e-05
0.0014594298
5.5020906e-05
0.0014537487
0.00012829463
0.0014916447
0.00021826711
0.0015504113
0.00026092133
0.0016078437
0.00023026098
0.0016419313
0.00015170804
0.0016518415
8.5654111e-05
0.0016480963
5.4315142e-05
0.0016479915
8.1203132e-05
0.0016555706
0.00013509635
0.0016802046
0.00020304437
0.0017219351
0.00026257135
0.00030392622
0.001771776
0.0010066494
-3.2521247e-05
0.00098731291
-5.7898844e-05
0.00096264557
-6.7011676e-05
0.0009413228
-5.8139603e-05
0.00095172087
-3.0622389e-05
0.00097433297
-1.4058895e-05
0.0010017165
-6.4244403e-05
0.0010227766
-0.00011749175
0.00098349446
-5.5394996e-05
0.00087996047
4.7598591e-05
0.00075175255
2.6620216e-05
0.00065198773
-0.0001595939
0.00054979396
-0.00022250859
0.00051926247
-1.2920751e-05
0.000527197
0.00018505803
0.00053950882
0.00013237545
0.00056728058
-6.713773e-05
0.00059400308
-0.00012327269
0.00064887042
-0.00018389963
0.00073558162
-4.2108467e-05
0.00081453105
7.0849909e-05
0.00085355502
4.8267972e-05
0.00090685418
4.1296533e-05
0.00098951653
-2.2350392e-05
0.0010557085
-1.5731983e-05
0.0010703582
-1.9883139e-06
0.0010808805
-5.6072731e-05
0.0011400322
-5.2244694e-05
0.0011983741
9.665844e-05
0.0012076976
0.00019869248
0.001189099
0.0001037883
0.0011914409
-2.1666118e-05
0.0012409443
9.2750908e-06
0.0013104297
0.00015121535
0.0013385838
0.00021908707
0.0013010091
0.00013824891
0.001247175
4.8707097e-05
0.0012358974
4.3293336e-05
0.0012871243
0.00011506245
0.0013577337
0.00015085787
0.0014012913
9.9409861e-05
0.0014073229
1.808058e-05
0.0013958855
6.7012983e-06
0.0013954588
7.0418342e-05
0.0014187318
0.00017016717
0.0014538976
0.00025021861
0.0014923483
0.00024103783
0.0015216637
0.00017293348
0.0015443748
9.101125e-05
0.0015582349
3.7251271e-05
0.001575554
3.70918e-05
0.0015911133
8.1295232e-05
0.0016074887
0.00014615264
0.0016320516
0.00021064842
0.00026275457
0.0016642859
0.00095849673
-2.717987e-05
0.00094019617
-4.4927817e-05
0.00091707966
-5.5074162e-05
0.0008967233
-5.2772352e-05
0.00090615832
-2.9158959e-05
0.00092629232
-8.3107975e-06
0.00095216949
-5.3717766e-05
0.00097414048
-0.00010647472
0.00093917346
-5.3554608e-05
0.00084043267
4.4581567e-05
0.0007160226
3.4275477e-05
0.00062312925
-0.00014101228
0.00053004495
-0.00022317962
0.00050015584
-2.2913749e-05
0.000501417
0.00019040188
0.00050777315
0.00013617333
0.00053723485
-6.5467633e-05
0.00056037459
-0.00012342466
0.00061832879
-0.00017951579
0.00069948451
-4.734771e-05
0.00077161318
7.4632651e-05
0.00081131381
5.7380161e-05
0.00085688689
5.9935005e-05
0.00093754043
-7.9230426e-06
0.0010028353
-1.5575274e-05
0.0010123665
-1.8929574e-05
0.0010238992
-7.5456698e-05
0.0010891728
-6.6492178e-05
0.0011476654
8.4743879e-05
0.0011462184
0.00019819384
0.0011248396
0.00012727215
0.0011358003
-3.3526055e-06
0.0011922667
8.0263547e-06
0.0012506472
0.00013376146
0.0012631988
0.00019795629
0.0012279839
0.00011715144
0.0011884087
1.5532723e-05
0.0011840559
8.4261662e-06
0.0012222298
9.4950084e-05
0.0012721825
0.00015002161
0.001308681
0.00010742733
0.0013281759
1.3104363e-05
0.0013368059
-2.5649586e-05
0.0013486813
2.1689437e-05
0.0013659916
0.00012206646
0.001379772
0.00022216146
0.0013963576
0.00024212206
0.0014160552
0.00019192491
0.0014420261