/*--------------------------------*- C++ -*----------------------------------*\
| =========                 |                                                 |
| \\      /  F ield         | OpenFOAM: The Open Source CFD Toolbox           |
|  \\    /   O peration     | Version:  2406                                  |
|   \\  /    A nd           | Website:  www.openfoam.com                      |
|    \\/     M anipulation  |                                                 |
\*---------------------------------------------------------------------------*/
FoamFile
{
    version     2.0;
    format      ascii;
    arch        "LSB;label=32;scalar=64";
    class       volScalarField;
    location    "3";
    object      rho_0;
}
// * * * * * * * * * * * * * * * * * * * * * * * * * * * * * * * * * * * * * //

dimensions      [1 -3 0 0 0 0 0];

internalField   nonuniform List<scalar> 
96472
(
1.0046875
0.99591137
0.98010767
0.97367688
0.9736706
0.97959679
0.98333571
0.97863756
0.96716438
0.95447258
0.94459007
0.93848619
0.9356461
0.93542672
0.937055
0.94003742
0.9441014
0.94866273
0.95352259
0.958386
0.96305031
0.96756736
0.97182958
0.97578126
0.97943392
0.98282109
0.98580717
0.98827883
0.9903274
0.99200813
0.9932441
0.99426511
0.99497516
0.99553312
0.99600593
0.99635485
0.99663342
0.99684987
0.99702435
0.99715174
0.99710364
0.9970222
0.99706896
0.99686708
0.99658605
0.99651802
0.99622727
0.99577756
0.99558784
0.99522009
0.99491439
0.99431415
0.99372361
0.9931074
0.99269624
1.0046768
0.99598268
0.98017724
0.97372016
0.97361191
0.97948538
0.98330829
0.97880672
0.967467
0.9547757
0.94479862
0.93854923
0.93559409
0.9352593
0.93678203
0.93971594
0.94365086
0.94821891
0.95300287
0.95782333
0.96250928
0.96700633
0.97125735
0.97523055
0.97888338
0.98228308
0.98530346
0.98785579
0.98996049
0.99166901
0.99300088
0.99396382
0.99479042
0.99541927
0.99591648
0.99629422
0.99659619
0.99681257
0.99697872
0.99701835
0.99708805
0.99705514
0.99688552
0.99665098
0.99662133
0.99633856
0.99614567
0.99596265
0.99572333
0.99529472
0.99486336
0.99433554
0.99394796
0.99350366
0.99301194
1.004672
0.99597396
0.98022113
0.97372787
0.97354597
0.97934563
0.98324704
0.97895233
0.96777898
0.95510346
0.94502282
0.93863843
0.93559637
0.93515897
0.93653775
0.93941359
0.94328039
0.94775966
0.95255535
0.95732973
0.96199404
0.96650045
0.97075386
0.97470451
0.97837821
0.98178624
0.98484633
0.98742562
0.98959908
0.99139394
0.99275511
0.99381777
0.99456413
0.99522062
0.99573352
0.9961957
0.99651142
0.99672479
0.99693196
0.99705131
0.996998
0.99681559
0.99674196
0.99670138
0.99653216
0.99632803
0.99615083
0.99590865
0.99556191
0.99531724
0.99495344
0.99470377
0.99421915
0.99369409
0.99309539
1.0046233
0.99598969
0.9803072
0.97379514
0.97351401
0.97924974
0.98321408
0.97910328
0.9680799
0.95543055
0.94524678
0.9387206
0.93557127
0.93505149
0.93634813
0.93910759
0.94293243
0.94733105
0.95206007
0.95685269
0.96151151
0.96601317
0.97027996
0.97421101
0.97788038
0.98134076
0.98441144
0.98703269
0.98921083
0.9909836
0.99238936
0.99345019
0.99433315
0.99499246
0.99558788
0.99598455
0.99634472
0.99669326
0.99686201
0.99688954
0.99692386
0.99691751
0.99682836
0.99656418
0.99637889
0.99619428
0.99605459
0.99585199
0.99563633
0.9953858
0.99496372
0.99454243
0.994034
0.99364829
0.99331947
1.0046032
0.99598799
0.98039327
0.97382975
0.97344349
0.97910308
0.98312824
0.97923252
0.96838209
0.95576382
0.94549833
0.93884867
0.93558833
0.93492371
0.93611899
0.93880739
0.94252154
0.94693433
0.95160684
0.9563692
0.96103803
0.9655236
0.96977855
0.97372772
0.97739219
0.98082316
0.9839519
0.98659679
0.98886309
0.99072261
0.99218211
0.99331401
0.99412212
0.99484056
0.99539567
0.99588773
0.9962958
0.99646045
0.99669579
0.99679313
0.99679594
0.99670109
0.99659573
0.99658671
0.99650152
0.99639129
0.99611049
0.99585809
0.99556097
0.99524961
0.99495221
0.9947078
0.99443328
0.99399524
0.99356844
1.004515
0.99594449
0.98049935
0.97393592
0.97344472
0.97901466
0.98307227
0.97935064
0.96867215
0.95609241
0.94573289
0.93895917
0.93561585
0.93483498
0.93589596
0.93853674
0.94217027
0.94649904
0.95118399
0.95590587
0.96055555
0.96502415
0.9692671
0.97319394
0.97688398
0.98036841
0.98347688
0.98618015
0.98844894
0.99032754
0.99183147
0.99298376
0.99391582
0.99465909
0.99524928
0.99569448
0.99603102
0.99639821
0.99657829
0.99664654
0.99671568
0.99673805
0.99673337
0.9965888
0.99635186
0.99616046
0.99596735
0.99586618
0.99565174
0.99546086
0.99515672
0.9947566
0.99425184
0.99385839
0.99341963
1.0044608
0.99596606
0.98065838
0.97400834
0.97337923
0.97885997
0.98296631
0.97945696
0.96897518
0.95644309
0.94599401
0.93910764
0.93564219
0.93475844
0.9357364
0.93822185
0.94183627
0.94607956
0.95072782
0.95546214
0.96008276
0.96451709
0.96875336
0.97267246
0.97635704
0.97983855
0.98302652
0.98574708
0.98811282
0.99008489
0.99164531
0.99285148
0.99373665
0.99446292
0.99504983
0.99557549
0.9959827
0.99622113
0.99641252
0.99658569
0.99663096
0.99656656
0.99640831
0.99632057
0.99626073
0.99623583
0.99610832
0.99591941
0.99563076
0.99535449
0.99500507
0.99484263
0.99451661
0.99429007
0.99385257
1.0043689
0.99587001
0.98073447
0.97411609
0.97340642
0.97877357
0.98289129
0.97954901
0.96924034
0.95675818
0.94623936
0.93925361
0.93566186
0.93463711
0.93554805
0.93795479
0.94146056
0.94569393
0.9502789
0.95496924
0.95959687
0.96402285
0.9682336
0.97215512
0.97585052
0.97937427
0.98255204
0.98535907
0.98770362
0.989662
0.99125457
0.99250631
0.99347263
0.99428565
0.99490354
0.99542253
0.99579805
0.9962065
0.99644716
0.99654488
0.99649036
0.9965311
0.99650754
0.99646583
0.99629424
0.99612116
0.99588444
0.99576535
0.99559923
0.99551846
0.99526885
0.99493932
0.99454186
0.99415759
0.9937909
1.0042572
0.99586423
0.98093676
0.97425333
0.97337464
0.97863142
0.98278446
0.97964838
0.96954296
0.95711885
0.94653195
0.9394493
0.93574233
0.93459802
0.93536293
0.93769406
0.94110914
0.94525541
0.94984064
0.95450176
0.95910759
0.96354095
0.96773707
0.97165434
0.97534557
0.9788612
0.98209314
0.98488938
0.98734751
0.98938447
0.99103175
0.99232891
0.993292
0.99406613
0.99469687
0.99528594
0.99573469
0.99606053
0.99619118
0.99636409
0.99645604
0.99642603
0.99628456
0.99617617
0.99607484
0.99604648
0.99600241
0.99590646
0.99566213
0.9953073
0.99501139
0.99477821
0.99457296
0.99428692
0.99407074
1.0041858
0.99579732
0.98102613
0.97434632
0.97341175
0.97853756
0.98267532
0.97969964
0.9697931
0.95743679
0.94678917
0.93961325
0.93576823
0.93451432
0.93521756
0.93740639
0.94080064
0.94486526
0.94937135
0.95401534
0.95861058
0.96305558
0.96727094
0.97116817
0.97483963
0.97837736
0.98158686
0.98444735
0.98686422
0.9889154
0.99061345
0.99198983
0.99308419
0.99393671
0.99461829
0.99520719
0.99556943
0.99592357
0.99620726
0.99635429
0.9963155
0.9963259
0.99635894
0.99639024
0.99631896
0.99617624
0.9959436
0.99565907
0.99545283
0.99536391
0.99519375
0.99499466
0.99475928
0.99441139
0.99412822
1.0040483
0.99570192
0.98122166
0.97451295
0.97342205
0.97842305
0.98257518
0.97978947
0.97008233
0.95779536
0.94709968
0.9398334
0.93584796
0.93445889
0.93507793
0.93716831
0.94043841
0.94447158
0.94891203
0.95353883
0.9581334
0.96257065
0.96678288
0.97069366
0.97435486
0.97783836
0.98108763
0.9839528
0.98650062
0.98862086
0.99039591
0.99180889
0.9928579
0.9937423
0.99437835
0.99494462
0.99545578
0.99581847
0.99597856
0.99612823
0.99627249
0.99636396
0.99626649
0.99613408
0.99597403
0.99590485
0.99578307
0.99577293
0.99558043
0.99537963
0.99512485
0.99482412
0.9945062
0.99433092
0.99411905
1.0039413
0.99569545
0.98137407
0.97461337
0.97345655
0.97832763
0.98245124
0.97982699
0.97032175
0.95811857
0.94739331
0.94003706
0.93591607
0.93442303
0.93489864
0.93693195
0.94010892
0.94407194
0.94847911
0.95306833
0.95764717
0.96207604
0.96628585
0.97017042
0.97384794
0.97736135
0.9805836
0.98350349
0.98600969
0.98818211
0.98998539
0.99148339
0.99267227
0.99353205
0.99428682
0.99486681
0.9952802
0.99562307
0.99592034
0.99619179
0.99624891
0.99623055
0.99620254
0.99625348
0.99625675
0.99617437
0.99598605
0.99575862
0.99553358
0.99534181
0.99510668
0.99506091
0.9949001
0.99474696
0.99434875
1.0038155
0.99554869
0.98152984
0.97479005
0.97350461
0.97824109
0.98234992
0.97989863
0.97059951
0.95847904
0.94771869
0.94026139
0.93600367
0.93440628
0.93479189
0.93669702
0.93980726
0.94368484
0.94801857
0.95258703
0.95716538
0.96158226
0.96578074
0.96966697
0.97332495
0.97683503
0.98013133
0.98305668
0.9856665
0.98786005
0.98970613
0.99117771
0.99236118
0.99331539
0.9940013
0.99465576
0.99514025
0.99564274
0.99590609
0.99600108
0.99603895
0.99611935
0.996146
0.99607858
0.99592121
0.99580318
0.9957565
0.99566695
0.99553252
0.99544966
0.9952493
0.99495529
0.99460474
0.99431123
0.9941121
1.0036524
0.99556203
0.98174033
0.97494877
0.97354677
0.97814779
0.98221311
0.97991788
0.97083091
0.95881429
0.94804074
0.9404908
0.93609917
0.93436769
0.93466037
0.93647089
0.93946688
0.94331389
0.9475974
0.95211546
0.95668124
0.96108168
0.96526487
0.96914502
0.97283602
0.97636127
0.97962173
0.98262213
0.98520411
0.98742212
0.98927771
0.99085425
0.99211548
0.99311372
0.99391426
0.99457085
0.99510194
0.99544671
0.99569212
0.99596087
0.99609578
0.99613894
0.99605948
0.99606753
0.99613212
0.99618684
0.99603107
0.99589118
0.99568698
0.99535279
0.99514397
0.99501959
0.99490348
0.99477321
0.99454682
1.0035342
0.99541998
0.98190303
0.97512018
0.9736184
0.97807686
0.98211228
0.97997984
0.97109231
0.95916978
0.94838054
0.94072803
0.93621296
0.93437275
0.93452856
0.93629012
0.93917706
0.94292742
0.94715345
0.95162786
0.95619288
0.96057742
0.96476366
0.96863816
0.97231035
0.97584793
0.9791506
0.98213895
0.98481517
0.98707657
0.98897969
0.99055432
0.99185129
0.99286984
0.99368108
0.99435125
0.99489376
0.99535765
0.99566451
0.99580985
0.99583545
0.99590449
0.99601611
0.99608985
0.99598553
0.99586911
0.99570737
0.99558355
0.99542869
0.99543118
0.99526089
0.99506079
0.99478934
0.99453384
0.99436894
1.0033651
0.99537753
0.98213289
0.97534228
0.97368102
0.97799686
0.98197665
0.9800004
0.97132953
0.95952597
0.9487337
0.9409766
0.93633887
0.93439419
0.93443543
0.9360666
0.93888462
0.94254933
0.94674084
0.95116427
0.95570825
0.96007546
0.96425528
0.9681266
0.97180822
0.97532959
0.97863356
0.98167321
0.98433319
0.98662965
0.98858847
0.99023765
0.99159952
0.99272053
0.99356061
0.994239
0.9947594
0.99521579
0.99549426
0.9957152
0.99591604
0.99606907
0.99605489
0.99603393
0.99603686
0.99598719
0.99596216
0.99588736
0.99569962
0.99546648
0.99523188
0.9950616
0.99491321
0.99471351
0.99450521
1.0032502
0.9952545
0.98228221
0.97551586
0.97376218
0.97793462
0.98186823
0.9800387
0.97157205
0.9598823
0.94907938
0.94121728
0.9364669
0.93438699
0.9343368
0.93587972
0.93859202
0.94220242
0.94631959
0.95068567
0.95521946
0.95958229
0.96374601
0.96762725
0.97129599
0.97481496
0.97811647
0.98117072
0.98390136
0.9862847
0.98827568
0.98996205
0.99134604
0.99242765
0.99330898
0.99401835
0.9945604
0.99500367
0.9953654
0.99567498
0.99577691
0.99580628
0.99590178
0.99595843
0.99594566
0.99589368
0.9957384
0.99555142
0.99550154
0.99538202
0.99525709
0.99513892
0.99495684
0.99485473
0.99464758
1.0031026
0.99514791
0.98249582
0.97574934
0.97384974
0.97786937
0.98174637
0.98007077
0.97181642
0.9602549
0.94945299
0.94149078
0.93663373
0.93443483
0.93423715
0.9356978
0.93832851
0.94183354
0.94590062
0.95022719
0.95474664
0.95908741
0.96324825
0.96710717
0.97077698
0.97428465
0.9776104
0.98068844
0.98343449
0.98581858
0.98787697
0.98960393
0.9910678
0.99228542
0.99318564
0.9938817
0.99448139
0.99497999
0.99532554
0.99552492
0.99568991
0.9958834
0.99592437
0.9959654
0.99588502
0.99589431
0.99587659
0.99589149
0.99570322
0.99558093
0.99546052
0.99526945
0.99500526
0.99473537
0.99454087
1.0030032
0.99507842
0.98264177
0.97592887
0.97394142
0.97781358
0.98164191
0.98010619
0.97204982
0.96061452
0.94980923
0.94174516
0.93678054
0.93446344
0.93417148
0.93551006
0.93807635
0.94149166
0.9454894
0.94976685
0.95426747
0.9585919
0.96274059
0.96660248
0.97025355
0.97376037
0.97709295
0.98019779
0.98299971
0.98544926
0.98751473
0.98928093
0.99071655
0.99192441
0.99292779
0.9937423
0.99433873
0.99483653
0.99519192
0.99549706
0.99566084
0.99571505
0.99573695
0.99577958
0.99590609
0.99589612
0.99578858
0.99567533
0.99557883
0.99545307
0.99526237
0.99508544
0.99501013
0.9949783
0.99472861
1.0028682
0.99495503
0.98281353
0.97612838
0.97402893
0.97776128
0.98154153
0.98014975
0.97230218
0.96100468
0.95019683
0.94203734
0.93696743
0.9345167
0.93411704
0.9353484
0.93780654
0.94114413
0.94508145
0.94930893
0.95380758
0.95809841
0.96223268
0.9660883
0.96974977
0.97324437
0.97656591
0.97968945
0.98251749
0.98498547
0.98711131
0.98890304
0.99045845
0.99173643
0.99276185
0.99359133
0.99425363
0.99478062
0.99516494
0.99539406
0.99552206
0.99560804
0.99579716
0.9958731
0.9958607
0.99583495
0.9959082
0.99580946
0.99574654
0.99561163
0.99549523
0.99537261
0.99518696
0.99492841
0.99479155
1.0027585
0.99487319
0.98293823
0.97629138
0.97411078
0.97771364
0.98144875
0.98018324
0.97253086
0.96136958
0.95056388
0.94231846
0.93714132
0.93457524
0.93404751
0.9351844
0.93756221
0.94081879
0.94469679
0.9488582
0.95333771
0.95759932
0.96173341
0.96558335
0.96921615
0.97272386
0.9760703
0.97919446
0.9820453
0.98454851
0.98670773
0.98854196
0.99006965
0.99139219
0.99252587
0.99342439
0.99411353
0.99462547
0.99499079
0.99527163
0.9954657
0.99570864
0.99567135
0.99579563
0.99585398
0.99594519
0.99579981
0.99576743
0.99558833
0.99548167
0.99534292
0.99524599
0.99513452
0.99491274
0.99485331
1.0026597
0.99479899
0.98308217
0.9764441
0.97418876
0.97766819
0.98137091
0.98024893
0.97279394
0.96176854
0.95096246
0.94263221
0.93734162
0.93466235
0.9340233
0.93504877
0.93732813
0.94050415
0.94431399
0.94840182
0.95288751
0.95710801
0.96122608
0.96509014
0.96871254
0.97221478
0.97553078
0.97869606
0.98154974
0.98409071
0.9862937
0.98816844
0.98978658
0.9911479
0.99227082
0.99322088
0.99396114
0.9945215
0.99491647
0.99522377
0.99545888
0.99553385
0.99577175
0.99586386
0.99588123
0.99585526
0.99581568
0.99576369
0.99570819
0.99565045
0.9955446
0.99536507
0.995249
0.99520734
0.99500719
1.0025591
0.9947233
0.983192
0.9765848
0.97425068
0.97762325
0.98129986
0.98029869
0.97303103
0.96214561
0.95134719
0.94294001
0.93753829
0.93474242
0.93399186
0.9349153
0.93708044
0.94017295
0.94394762
0.94796722
0.95241679
0.95662636
0.96071588
0.96459004
0.96819481
0.97171326
0.97502723
0.97816178
0.98105925
0.98362945
0.98587678
0.98779702
0.98940597
0.9908207
0.99203424
0.9930041
0.99375997
0.99434217
0.99479033
0.99508281
0.99535111
0.99557887
0.99569834
0.99573912
0.99586019
0.99584246
0.99592034
0.99581818
0.99576659
0.99563321
0.99553611
0.99551721
0.99534072
0.99518792
0.99500065
1.0024922
0.99469367
0.98331127
0.97670046
0.97430938
0.9775797
0.98123285
0.98037405
0.97329989
0.96254782
0.95175209
0.94327327
0.93775321
0.93485329
0.93397261
0.93480466
0.93685458
0.93988602
0.94360297
0.94750484
0.95198646
0.95613506
0.96021685
0.96409582
0.96769077
0.97120288
0.97451146
0.97767678
0.98055781
0.98317264
0.98544308
0.98741671
0.98908669
0.99051673
0.99172802
0.99274956
0.99358918
0.99425332
0.99468839
0.99508398
0.99528761
0.99552892
0.99562607
0.99579432
0.99580934
0.99586248
0.99576595
0.99580321
0.99576399
0.99571297
0.99563532
0.99550009
0.9953815
0.99529916
0.99510792
1.0024289
0.99464212
0.98342363
0.97680253
0.97434592
0.97753523
0.98117524
0.98044869
0.97356067
0.96293937
0.95215646
0.94361205
0.93797114
0.93497231
0.93396834
0.93469906
0.93664299
0.93957479
0.9432524
0.9471119
0.95151665
0.95566602
0.95969337
0.96361798
0.96717249
0.97070808
0.97397696
0.97716264
0.98005987
0.98272167
0.98503518
0.98700975
0.98872143
0.99020569
0.99145373
0.99249668
0.99337615
0.99404905
0.9945762
0.99487156
0.99521965
0.99538596
0.99559683
0.99571333
0.99575516
0.99583284
0.99590254
0.99591849
0.99583213
0.99581879
0.99576654
0.99562506
0.99554993
0.99533125
0.99527016
1.0024069
0.99464369
0.98353166
0.97688564
0.9743916
0.97749591
0.98113332
0.98056124
0.97385616
0.96336268
0.95258521
0.94397515
0.93821732
0.93510854
0.93398726
0.93462825
0.93645698
0.93931109
0.9429498
0.94663302
0.9511263
0.95518486
0.95922755
0.96314338
0.96668755
0.97020699
0.97346876
0.97666287
0.97957355
0.98226261
0.98459374
0.98664613
0.98836758
0.98986742
0.99116129
0.99224727
0.9931625
0.99391883
0.99443699
0.9948495
0.99507381
0.99531846
0.99551698
0.99563078
0.99582568
0.99584945
0.99588241
0.99580475
0.99583289
0.99576071
0.99566042
0.99560663
0.99553296
0.99539908
0.99530978
1.0024618
0.99478294
0.98380718
0.97701379
0.97457185
0.97751622
0.98119294
0.98075294
0.97419826
0.96381766
0.95305588
0.94439958
0.93851483
0.93530247
0.93405142
0.93455486
0.93634136
0.93895521
0.94266768
0.94627927
0.95060838
0.95478053
0.95863417
0.96271976
0.96608278
0.96975006
0.97284364
0.97617957
0.97897394
0.98177894
0.98405842
0.98618562
0.98791501
0.98949391
0.99079704
0.9919096
0.99287452
0.99365467
0.99422995
0.99460925
0.99490428
0.99513523
0.99535487
0.99557897
0.99567126
0.99576141
0.99576282
0.99577211
0.99571766
0.99567355
0.99562485
0.99557992
0.99544357
0.99540164
0.99523176
0.99513197
0.99513824
0.99506587
0.99495221
0.99486527
0.99477765
0.99468137
0.99454482
0.99451566
0.99446114
0.99422512
0.99440768
0.99408216
0.99412771
0.99410462
0.99380859
0.99400496
0.99360231
0.99372934
0.99337916
0.99334817
0.99310676
0.99288493
0.99281514
0.99258708
0.9923226
0.99202803
0.99490081
0.99489412
0.99484395
0.99470386
0.99458429
0.99449746
0.99439448
0.99436526
0.9941035
0.99421422
0.9939444
0.99396258
0.99392538
0.99365145
0.99376151
0.99343922
0.99349559
0.99325646
0.99317062
0.9930256
0.99267546
0.99265055
0.99226481
0.99221356
0.99193998
0.99174221
0.99138405
0.99462468
0.99463842
0.99457095
0.99441176
0.99429689
0.99423432
0.99400392
0.99410862
0.99380667
0.99380563
0.99373608
0.99345876
0.99361052
0.99329083
0.99326742
0.99311893
0.99288964
0.99289916
0.99250414
0.99257831
0.99213499
0.99203671
0.9917135
0.99153204
0.99132009
0.99109522
0.99072041
0.99427129
0.99432771
0.99427638
0.99410526
0.99395344
0.99394072
0.99367905
0.99370721
0.99355623
0.99335095
0.99342318
0.993078
0.993132
0.99290618
0.99273533
0.99271122
0.99230653
0.9923888
0.9919955
0.99187888
0.99169747
0.9913235
0.99119059
0.990816
0.99070062
0.99039774
0.99005137
0.99392704
0.99393187
0.99396026
0.9937919
0.9935513
0.99364798
0.99330623
0.99329186
0.99327103
0.99286589
0.99306373
0.99267776
0.99258721
0.99254471
0.99211892
0.99222324
0.99179545
0.9917084
0.9915454
0.99117747
0.99114108
0.99070023
0.99054621
0.9901702
0.98998918
0.98972227
0.98934041
0.99360167
0.99356063
0.99359405
0.99338979
0.9931807
0.99329007
0.99292049
0.99284849
0.99286746
0.99245433
0.99255964
0.99227139
0.99204043
0.99204408
0.99160783
0.99155298
0.99133416
0.99099749
0.99095853
0.99058656
0.99041829
0.99014303
0.98980307
0.98955154
0.98921718
0.98901969
0.98859642
0.9931069
0.99319009
0.99318818
0.99299853
0.9927496
0.99281372
0.99262752
0.99231266
0.99239096
0.99208923
0.99190992
0.99187777
0.99146142
0.99142618
0.99117827
0.99078506
0.99084003
0.99032144
0.99027929
0.99000188
0.98967858
0.98951344
0.98906382
0.98884934
0.98846699
0.98823011
0.98781879
0.99271764
0.99270882
0.99272555
0.99267284
0.99225361
0.9922669
0.99227884
0.99176913
0.99188142
0.99161172
0.99128193
0.99138973
0.99081422
0.9908023
0.9906391
0.99005974
0.99023601
0.98966403
0.98957998
0.98931935
0.98899813
0.98875863
0.98836967
0.98805458
0.98769147
0.98739972
0.98700118
0.99239172
0.99221587
0.99220868
0.99228064
0.99177146
0.99173745
0.99175483
0.99124782
0.99136055
0.990994
0.99068438
0.99082083
0.99013514
0.99014686
0.98998137
0.98941157
0.98951011
0.98899353
0.98889147
0.98854801
0.98833316
0.98795391
0.98765078
0.98724041
0.98687014
0.98653249
0.98616018
0.99164788
0.99170536
0.99174004
0.9916409
0.99132684
0.99128701
0.99097834
0.9907741
0.99078844
0.99026869
0.99012915
0.99007478
0.98952218
0.98944194
0.98919525
0.98884415
0.98865576
0.98834067
0.9881215
0.98779306
0.98754879
0.98719422
0.98684316
0.98643301
0.98599929
0.98565858
0.98525378
0.99128801
0.99124825
0.99113061
0.99097937
0.99081731
0.99069532
0.99031895
0.99012927
0.99011582
0.98961663
0.98940824
0.98935494
0.98883283
0.98871911
0.9884424
0.98811218
0.98793868
0.98751372
0.98739404
0.98695562
0.98674859
0.98636137
0.9860153
0.98558383
0.9851165
0.98474292
0.9843165
0.99037162
0.99072964
0.99052562
0.99023555
0.99024044
0.99003111
0.98955254
0.98953503
0.98932022
0.98885879
0.98880255
0.98843574
0.98817916
0.98798634
0.98759723
0.98744694
0.9870637
0.98680599
0.9865125
0.98615375
0.98589723
0.98548009
0.98516881
0.98468184
0.98423325
0.98379907
0.98334165
0.98989245
0.99005944
0.98975599
0.98960228
0.98950419
0.98915813
0.9889429
0.98873488
0.98843315
0.98823077
0.98790604
0.98766918
0.98744207
0.98707989
0.98692074
0.98654676
0.98626898
0.9859903
0.98559522
0.98536771
0.9849223
0.98466179
0.98419079
0.98383567
0.98324589
0.9829062
0.9823009
0.98880753
0.9891747
0.98904729
0.98882984
0.98860893
0.98841642
0.98808832
0.9878792
0.98769403
0.98729525
0.98711321
0.98690135
0.98647059
0.98637458
0.98599862
0.98568289
0.98546343
0.98499548
0.98481365
0.98434833
0.98408361
0.98367042
0.98326775
0.98290884
0.98226216
0.98197732
0.98124181
0.9881955
0.98837275
0.98811481
0.98790937
0.98782904
0.98745241
0.98718008
0.98709385
0.98669049
0.98646563
0.98629938
0.98587201
0.98573006
0.985434
0.98500939
0.98492166
0.9844041
0.984121
0.98385713
0.98333499
0.98322807
0.98256374
0.98242915
0.98183842
0.98134598
0.98097956
0.98020887
0.9868826
0.9872462
0.98718483
0.98708543
0.98671274
0.9864769
0.9863757
0.98601937
0.98574635
0.98563278
0.98523198
0.98499911
0.98482287
0.98432801
0.98422314
0.98386672
0.98335461
0.98329609
0.9826921
0.98243534
0.98216798
0.98153052
0.98149178
0.98072589
0.98040838
0.97994082
0.97916365
0.9861589
0.98623991
0.98622085
0.98592775
0.98569047
0.98561105
0.98524095
0.98494253
0.98493283
0.98448845
0.98418003
0.98412806
0.98366741
0.98335716
0.98324555
0.98268172
0.98248642
0.98220834
0.98153762
0.98156941
0.98098582
0.98053425
0.98043089
0.97967802
0.97938142
0.9788913
0.97810854
0.98442457
0.98520655
0.98505425
0.98481929
0.98472941
0.98444016
0.98413123
0.98403485
0.98374752
0.98331505
0.98330988
0.98295337
0.98246319
0.98245141
0.98204474
0.98154961
0.98150062
0.98099021
0.98052724
0.98048961
0.97976457
0.97951999
0.97933577
0.97856796
0.97824492
0.97785175
0.97706496
0.98383004
0.98391951
0.98386965
0.98385924
0.98354738
0.98318053
0.98312283
0.98293813
0.98246666
0.98229724
0.98217091
0.98165746
0.98145479
0.98130952
0.98074014
0.98050728
0.9804159
0.97971998
0.9794651
0.97936894
0.97858871
0.97840123
0.97814487
0.97749048
0.97709107
0.97672172
0.97599549
0.9819138
0.98268651
0.98279915
0.98264503
0.98227383
0.98213624
0.98202478
0.98156201
0.98130679
0.98126917
0.98080551
0.98042171
0.98036682
0.98006264
0.9794284
0.97943688
0.97915111
0.97848334
0.97838489
0.97810407
0.97742509
0.97716851
0.97700699
0.97627338
0.97588025
0.97553249
0.97494671
0.98112557
0.98158061
0.98166839
0.98126192
0.98106222
0.98109917
0.98066572
0.98030443
0.98020281
0.97998982
0.97954616
0.97918058
0.97924601
0.97864257
0.97825937
0.97833241
0.97773929
0.97731089
0.97713801
0.97694561
0.97613813
0.97595954
0.97575753
0.97516522
0.97458544
0.97427134
0.97383288
0.97907975
0.98029548
0.98027518
0.98002609
0.97994832
0.97973906
0.97924779
0.97915807
0.97907531
0.97855584
0.97815607
0.97813461
0.97796935
0.97724681
0.97706011
0.97708573
0.97650629
0.97597128
0.97585875
0.97568306
0.97494589
0.97462196
0.9744024
0.97399886
0.97338192
0.9729291
0.9725901
0.97851058
0.97882611
0.97886169
0.97890711
0.97873481
0.97833968
0.97792367
0.97794795
0.97783843
0.9771229
0.9769601
0.97693178
0.97655284
0.97603
0.9758027
0.9758233
0.97517896
0.97475651
0.97462825
0.97432756
0.97370169
0.97335099
0.97311148
0.97273597
0.97208107
0.97168252
0.97136994
0.9761987
0.97731265
0.97754189
0.97760815
0.97734286
0.97690752
0.97668742
0.9767168
0.97636023
0.97585176
0.97576923
0.97565764
0.97516867
0.97475756
0.97460704
0.97447424
0.97387777
0.97347023
0.97338885
0.97297901
0.97247275
0.97198864
0.97179972
0.97148428
0.97085891
0.97037276
0.9700255
0.97540696
0.97593819
0.97631135
0.97617738
0.97574807
0.97557468
0.97549215
0.97539222
0.97490695
0.97444584
0.97469371
0.97430981
0.97386632
0.97342026
0.97333608
0.97337391
0.97247597
0.97227515
0.97186768
0.97193457
0.9712215
0.97069114
0.97035139
0.97028001
0.96974317
0.96912288
0.96862492
0.97280357
0.97446484
0.97498901
0.97469673
0.97424485
0.97436471
0.97414749
0.97399357
0.97351905
0.97308639
0.97353871
0.97285104
0.97264987
0.97205309
0.97208719
0.97210163
0.97116593
0.97114516
0.97036523
0.97083019
0.96980743
0.96966589
0.96890288
0.96903059
0.96843239
0.96806897
0.96741455
0.97205289
0.97299404
0.97353624
0.97317216
0.97289208
0.97300147
0.97275297
0.97269156
0.9720816
0.97189719
0.97208098
0.97153674
0.97147791
0.97069904
0.9708992
0.97055203
0.97019352
0.9698494
0.96917822
0.96937998
0.96859815
0.96869197
0.96765703
0.96769334
0.96705932
0.96707314
0.96638713
0.96952843
0.97146626
0.9721019
0.97171708
0.97152507
0.9715964
0.97133069
0.97142052
0.97068699
0.97066314
0.97065401
0.9702423
0.97029027
0.96934354
0.96968249
0.96909964
0.96919529
0.9684787
0.96808786
0.96794212
0.96749736
0.96755812
0.96648721
0.966494
0.96580171
0.96594105
0.9652899
0.96880487
0.97000985
0.97062156
0.970319
0.97021013
0.97023652
0.96993846
0.97001645
0.96932971
0.96947674
0.96930623
0.96895844
0.9689764
0.96806712
0.96853913
0.96782492
0.96801469
0.96718283
0.96705303
0.96670162
0.96639957
0.9662557
0.96547598
0.96548405
0.96473855
0.96464576
0.96409692
0.96658646
0.96855467
0.96905127
0.9689884
0.96890315
0.96905965
0.96866463
0.96846643
0.96827236
0.96806392
0.96819366
0.96760205
0.96764449
0.96703332
0.96720298
0.96680114
0.96643902
0.96632869
0.96578595
0.96580208
0.96503118
0.9650741
0.96443893
0.96458344
0.96374084
0.963397
0.96294693
0.96574028
0.96713349
0.96771627
0.96769969
0.96765232
0.96779772
0.96735838
0.96729995
0.96706312
0.96678618
0.96692933
0.96638844
0.9665382
0.96596148
0.96598464
0.96552119
0.96531916
0.96533387
0.96478749
0.96472976
0.96384892
0.96401583
0.96348404
0.96360609
0.96278332
0.96237779
0.961979
0.96368841
0.96583846
0.96652191
0.96649273
0.96644917
0.96645061
0.96624458
0.96629722
0.96582098
0.9657204
0.96557533
0.96540004
0.96544081
0.96491062
0.96487905
0.96427047
0.96448702
0.96409802
0.96396856
0.96346094
0.96307993
0.96291507
0.96263841
0.96245201
0.961933
0.96154292
0.96117764
0.96266869
0.96457326
0.96537223
0.96533929
0.96528529
0.96531166
0.96532487
0.96519605
0.96473616
0.96461477
0.96449884
0.96453671
0.96434971
0.96405518
0.96373992
0.96344159
0.96347622
0.96314499
0.96300178
0.96254889
0.96240601
0.96193569
0.96175083
0.96131287
0.96119856
0.9608345
0.96050978
0.96083117
0.96355227
0.96437254
0.96437182
0.9641992
0.96430911
0.96432786
0.96429078
0.96394805
0.96367704
0.96367798
0.96335685
0.96345484
0.96316915
0.96298394
0.96274854
0.96241724
0.96222009
0.96195503
0.96191963
0.96176562
0.96116989
0.96083926
0.96029984
0.96047654
0.96020958
0.95996662
0.96020278
0.96253218
0.96358778
0.96362164
0.96338514
0.96340278
0.96331723
0.96346815
0.96325951
0.96304711
0.96289283
0.9623825
0.96259501
0.96239727
0.96253794
0.96205822
0.96171574
0.96122617
0.96113966
0.96130962
0.96118721
0.96066401
0.96001819
0.95956593
0.9596519
0.95963068
0.95941124
0.95881032
0.96162438
0.96287751
0.96306657
0.96282491
0.96263104
0.96248144
0.96271946
0.96265322
0.96264414
0.96223806
0.96171978
0.96174943
0.9616978
0.96200494
0.96147016
0.96123272
0.96051643
0.96053689
0.96063943
0.96054461
0.96019874
0.95944052
0.95913915
0.95899913
0.95910398
0.95881429
0.95819535
0.96086633
0.96234097
0.96255907
0.9623405
0.96198756
0.96187365
0.96209713
0.96213223
0.96222551
0.96172882
0.96125898
0.96116902
0.96123395
0.96148493
0.96104036
0.96080505
0.96011804
0.96011084
0.96010806
0.96006044
0.95966258
0.95913699
0.9587351
0.95863547
0.95863315
0.95832358
0.95734151
0.96021049
0.96180298
0.96206689
0.96197788
0.96169169
0.96154091
0.9616845
0.96170707
0.96174158
0.96137106
0.96102548
0.9608415
0.96093789
0.9609871
0.96068663
0.96034037
0.95994129
0.95986686
0.95975358
0.95979299
0.95921243
0.9589464
0.95843801
0.95840636
0.95829243
0.95802697
0.95667542
0.95959297
0.96113483
0.96150938
0.96167602
0.96157023
0.96147528
0.96147356
0.96134854
0.96130541
0.96112441
0.9609652
0.96079887
0.96082094
0.9606466
0.96041228
0.96011047
0.95984157
0.95979429
0.95958278
0.95952366
0.95901942
0.95874409
0.95840088
0.95823947
0.95806801
0.95783495
0.95639787
0.95925572
0.96078543
0.96121766
0.96144348
0.96153142
0.96147303
0.96137191
0.96118748
0.96110557
0.96101922
0.96096666
0.96085863
0.96070906
0.96049794
0.96028762
0.96009283
0.95990128
0.95977949
0.95953463
0.95933364
0.95899986
0.95871455
0.95847605
0.95823453
0.95798814
0.95773083
0.95652753
0.95916912
0.96081563
0.96128344
0.96149971
0.9615813
0.96150887
0.96141027
0.96125039
0.96119977
0.96118744
0.96112533
0.96098016
0.96076262
0.96058672
0.96037394
0.96032933
0.96008589
0.95995984
0.95967464
0.95935961
0.95916684
0.95887571
0.95869953
0.95839438
0.95812072
0.95781628
0.95670322
0.95930573
0.96111125
0.96164666
0.96175166
0.96170887
0.96167111
0.96162224
0.961533
0.96153641
0.96142447
0.96134167
0.96119901
0.96093778
0.96090201
0.96064348
0.96065154
0.96036042
0.96019633
0.95987309
0.95961413
0.95944638
0.95923964
0.95896932
0.95869957
0.95835054
0.95806191
0.95629232
0.95963362
0.96160064
0.96215908
0.96219409
0.96211505
0.96208942
0.96213628
0.96201206
0.96198826
0.96183226
0.96163742
0.96167163
0.9613876
0.96143153
0.96114449
0.96102867
0.96081301
0.96052851
0.96035349
0.96005081
0.95999902
0.95962853
0.95941284
0.9590291
0.95875282
0.95847091
0.9579493
0.9602349
0.96231084
0.96286836
0.96285583
0.96278371
0.96272249
0.96284532
0.96270309
0.96256297
0.96239777
0.96214289
0.96225767
0.96203368
0.962118
0.96160843
0.96165277
0.96112964
0.96129636
0.96080675
0.96089543
0.96038054
0.96024813
0.959852
0.95957932