/*--------------------------------*- C++ -*----------------------------------*\
| =========                 |                                                 |
| \\      /  F ield         | OpenFOAM: The Open Source CFD Toolbox           |
|  \\    /   O peration     | Version:  2406                                  |
|   \\  /    A nd           | Website:  www.openfoam.com                      |
|    \\/     M anipulation  |                                                 |
\*---------------------------------------------------------------------------*/
FoamFile
{
    version     2.0;
    format      ascii;
    arch        "LSB;label=32;scalar=64";
    class       volScalarField;
    location    "90";
    object      alphat;
}
// * * * * * * * * * * * * * * * * * * * * * * * * * * * * * * * * * * * * * //

dimensions      [1 -1 -1 0 0 0 0];

internalField   nonuniform List<scalar> 
20580
(
8.9041594e-07
9.1145188e-07
9.0662914e-07
8.872734e-07
8.651309e-07
8.4404696e-07
8.2808169e-07
8.1710729e-07
8.0735211e-07
7.9893313e-07
7.9402443e-07
7.8926726e-07
7.8519195e-07
7.8312552e-07
7.8331073e-07
7.8187733e-07
7.8651052e-07
7.9760886e-07
7.9978237e-07
8.0679411e-07
8.214225e-07
8.2645868e-07
8.378313e-07
8.5012196e-07
8.870862e-07
9.026003e-07
9.0293197e-07
9.1319313e-07
9.2329226e-07
9.4279182e-07
1.0035803e-06
8.9190927e-07
9.1660862e-07
9.3212131e-07
9.2055926e-07
8.9223955e-07
8.6052634e-07
8.3793623e-07
8.2169349e-07
8.0949368e-07
7.9989677e-07
7.947738e-07
7.8941024e-07
7.8554233e-07
7.8340788e-07
7.8237103e-07
7.7921478e-07
7.8402852e-07
7.9577356e-07
7.9646722e-07
8.0591065e-07
8.2639288e-07
8.2239103e-07
8.4262192e-07
8.6210259e-07
8.9955955e-07
9.3813731e-07
9.4657302e-07
9.9733772e-07
1.0319448e-06
1.05344e-06
1.0291132e-06
8.9181271e-07
9.2198001e-07
9.370756e-07
9.3489924e-07
9.1559791e-07
8.8511868e-07
8.5724568e-07
8.352003e-07
8.1871768e-07
8.0653526e-07
7.9808817e-07
7.9068125e-07
7.852369e-07
7.8279868e-07
7.7977536e-07
7.7699925e-07
7.8157785e-07
7.9018804e-07
7.8952974e-07
7.9939306e-07
8.2098744e-07
8.1617549e-07
8.3308332e-07
8.5477882e-07
8.8635858e-07
9.3106467e-07
9.3889471e-07
9.7951814e-07
1.0467124e-06
1.103931e-06
1.1205159e-06
8.9168379e-07
9.2611791e-07
9.4232418e-07
9.3939728e-07
9.2128831e-07
9.0022615e-07
8.7978618e-07
8.5642659e-07
8.3718727e-07
8.2120098e-07
8.0721231e-07
7.9810727e-07
7.8896302e-07
7.8614858e-07
7.8041272e-07
7.761715e-07
7.8144248e-07
7.8502849e-07
7.8625729e-07
7.9323707e-07
8.1258837e-07
8.0815621e-07
8.2265411e-07
8.4394677e-07
8.6736441e-07
9.1226984e-07
9.4437951e-07
9.772586e-07
1.0361516e-06
1.09677e-06
1.1341296e-06
8.9157358e-07
9.3203038e-07
9.388526e-07
9.3984158e-07
9.279213e-07
9.0377321e-07
8.9118136e-07
8.7484805e-07
8.5740452e-07
8.3977506e-07
8.2055299e-07
8.078283e-07
7.956923e-07
7.9038073e-07
7.8295477e-07
7.782285e-07
7.8058354e-07
7.8105445e-07
7.838345e-07
7.9273964e-07
8.0308756e-07
8.0532171e-07
8.172602e-07
8.3824331e-07
8.5441451e-07
8.9796405e-07
9.4594116e-07
9.9961086e-07
1.0614938e-06
1.1384091e-06
1.1606496e-06
8.9118255e-07
9.3824721e-07
9.3885866e-07
9.3718883e-07
9.259108e-07
9.08145e-07
8.9505037e-07
8.7957716e-07
8.6622288e-07
8.5423085e-07
8.3525327e-07
8.219842e-07
8.0819636e-07
7.9897251e-07
7.8818953e-07
7.8446741e-07
7.8253628e-07
7.8029022e-07
7.8222233e-07
7.9386659e-07
7.9681711e-07
8.0170342e-07
8.1511966e-07
8.32457e-07
8.3872215e-07
8.7925462e-07
9.3869559e-07
1.0161464e-06
1.0582473e-06
1.1888579e-06
1.2265044e-06
8.9166676e-07
9.3953422e-07
9.3728772e-07
9.3386981e-07
9.1992765e-07
9.0391636e-07
8.9475151e-07
8.8371423e-07
8.6905267e-07
8.5867985e-07
8.4648428e-07
8.370645e-07
8.2744555e-07
8.1773034e-07
8.035625e-07
7.9774854e-07
7.9143813e-07
7.8538954e-07
7.8597161e-07
7.9597741e-07
7.939676e-07
7.9851009e-07
8.1210923e-07
8.2481066e-07
8.2067687e-07
8.4208504e-07
8.9796152e-07
9.9003993e-07
1.0308984e-06
1.1312441e-06
1.2398313e-06
8.9853689e-07
9.337112e-07
9.3710836e-07
9.3217426e-07
9.1512102e-07
8.9757216e-07
8.8351734e-07
8.7738878e-07
8.687834e-07
8.6075495e-07
8.491719e-07
8.4533634e-07
8.4394034e-07
8.3984937e-07
8.3121139e-07
8.2644445e-07
8.1823812e-07
8.0502098e-07
8.0160793e-07
8.0604876e-07
7.9645973e-07
8.0113249e-07
8.1531189e-07
8.253405e-07
8.2118503e-07
8.3030457e-07
8.6889972e-07
9.1305112e-07
9.5171291e-07
9.9643826e-07
1.1634355e-06
9.4238145e-07
9.8663479e-07
9.7161057e-07
9.5179859e-07
9.2550777e-07
9.0186068e-07
8.8449156e-07
8.7342061e-07
8.6283636e-07
8.5624564e-07
8.5147136e-07
8.4813449e-07
8.482476e-07
8.4882421e-07
8.5111572e-07
8.5274222e-07
8.4891894e-07
8.4788806e-07
8.4508354e-07
8.4301022e-07
8.2562609e-07
8.1991203e-07
8.3287175e-07
8.3735807e-07
8.3797533e-07
8.4466548e-07
8.7559876e-07
9.2031278e-07
9.6424637e-07
9.782762e-07
1.0481106e-06
1.2310678e-06
1.2813462e-06
1.2087412e-06
1.1055046e-06
1.012938e-06
9.4943741e-07
9.0913164e-07
8.8475635e-07
8.6888729e-07
8.5611134e-07
8.4989195e-07
8.4845221e-07
8.4898223e-07
8.4835521e-07
8.5295658e-07
8.5524843e-07
8.5727672e-07
8.5565587e-07
8.717703e-07
8.6841875e-07
8.7035806e-07
8.7199906e-07
8.8251981e-07
8.8559725e-07
8.9124278e-07
8.9761581e-07
9.2306865e-07
9.5576677e-07
1.0177264e-06
1.0235696e-06
1.0695449e-06
9.8628051e-07
1.1454067e-06
1.2949584e-06
1.2930107e-06
1.2319034e-06
1.1417924e-06
1.0425006e-06
9.6556794e-07
9.1995801e-07
8.8700396e-07
8.6854369e-07
8.5831421e-07
8.540501e-07
8.5358669e-07
8.5430259e-07
8.5694883e-07
8.5854028e-07
8.5844465e-07
8.7152756e-07
8.719707e-07
8.7434562e-07
8.9323159e-07
9.0300549e-07
9.1039329e-07
9.3154209e-07
9.5488963e-07
9.7354953e-07
1.0222693e-06
1.0756512e-06
1.1685739e-06
1.1734751e-06
8.8457447e-07
9.6255601e-07
1.0954422e-06
1.1893844e-06
1.1917403e-06
1.1875444e-06
1.1761281e-06
1.1449929e-06
1.0962811e-06
1.0450094e-06
9.8602343e-07
9.4381972e-07
9.1720235e-07
9.0436039e-07
8.9593347e-07
8.9056416e-07
8.8406391e-07
8.8287891e-07
8.8414132e-07
8.8202415e-07
8.8257089e-07
9.0423713e-07
9.0826947e-07
9.0822059e-07
9.3173711e-07
9.5952155e-07
9.6608409e-07
9.8658501e-07
1.0439118e-06
1.1562196e-06
1.2724184e-06
9.7153617e-07
1.0638308e-06
1.0772715e-06
1.0647338e-06
1.0690507e-06
1.0688485e-06
1.0993457e-06
1.1082356e-06
1.1029943e-06
1.1027223e-06
1.1125457e-06
1.1230966e-06
1.1241394e-06
1.1248686e-06
1.1196796e-06
1.1140539e-06
1.0877203e-06
1.0691892e-06
1.0461696e-06
1.0039571e-06
9.7439801e-07
9.6495833e-07
9.4667593e-07
9.3142856e-07
9.4455366e-07
9.7222618e-07
9.7382075e-07
9.6977303e-07
1.0001232e-06
1.0748033e-06
1.1985152e-06
9.2291933e-07
1.0649902e-06
1.1198608e-06
1.1213106e-06
1.0889822e-06
1.0516523e-06
1.0203172e-06
1.0057344e-06
1.00381e-06
1.0111625e-06
1.0387496e-06
1.081592e-06
1.1092365e-06
1.143497e-06
1.1736409e-06
1.1916024e-06
1.204555e-06
1.2207722e-06
1.2204679e-06
1.2108762e-06
1.2002119e-06
1.2035128e-06
1.1693135e-06
1.1233801e-06
1.1173973e-06
1.0965064e-06
1.0757691e-06
1.0569109e-06
1.0683494e-06
1.1201113e-06
1.1998708e-06
9.0466475e-07
9.7084599e-07
1.0323915e-06
1.0783527e-06
1.0807552e-06
1.0672714e-06
1.0442669e-06
1.021799e-06
1.0007969e-06
9.8290519e-07
9.746776e-07
9.7535049e-07
9.9257942e-07
1.0174254e-06
1.0406814e-06
1.0614515e-06
1.0803042e-06
1.113471e-06
1.1266575e-06
1.1434158e-06
1.1632016e-06
1.1855719e-06
1.2025714e-06
1.2115324e-06
1.2383358e-06
1.2826947e-06
1.3174995e-06
1.3320319e-06
1.3386647e-06
1.3964839e-06
1.4060618e-06
1.0648552e-06
1.1734871e-06
1.1185265e-06
1.0727578e-06
1.0361517e-06
1.0170623e-06
1.0146668e-06
1.009581e-06
1.0010312e-06
9.9236424e-07
9.893516e-07
9.8920723e-07
9.9258051e-07
1.0003046e-06
1.0077073e-06
1.016316e-06
1.0149504e-06
1.0177776e-06
1.0263732e-06
1.0219966e-06
1.0273098e-06
1.0467371e-06
1.0700339e-06
1.1111937e-06
1.1799859e-06
1.2281799e-06
1.2849921e-06
1.3530236e-06
1.4295457e-06
1.4805327e-06
1.5480162e-06
8.6231173e-07
9.7979591e-07
1.1074578e-06
1.1365193e-06
1.0945299e-06
1.0424087e-06
9.9745453e-07
9.6688346e-07
9.5230621e-07
9.4460096e-07
9.5141477e-07
9.644606e-07
9.7955127e-07
9.9414506e-07
1.0081862e-06
1.0215722e-06
1.0215733e-06
1.0286633e-06
1.0259112e-06
1.0149462e-06
1.0222503e-06
1.0019556e-06
1.0008966e-06
1.0319508e-06
1.0601519e-06
1.0737862e-06
1.115532e-06
1.1840977e-06
1.306828e-06
1.3646823e-06
1.4653523e-06
8.7548254e-07
9.6030768e-07
1.0049262e-06
1.0242677e-06
1.0302849e-06
1.0240956e-06
1.0137174e-06
9.9818777e-07
9.7311492e-07
9.5038427e-07
9.3295699e-07
9.1912634e-07
9.193247e-07
9.2396922e-07
9.3099577e-07
9.4057446e-07
9.4427069e-07
9.5185593e-07
9.4943453e-07
9.5635437e-07
9.6887455e-07
9.6069721e-07
9.5147728e-07
9.7463966e-07
9.9931881e-07
9.9752271e-07
9.9480763e-07
1.0209566e-06
1.0852401e-06
1.1250928e-06
1.1719975e-06
9.0089364e-07
1.037742e-06
1.0421632e-06
1.0237233e-06
9.8479458e-07
9.6365233e-07
9.6223638e-07
9.5954241e-07
9.5778078e-07
9.6234284e-07
9.6521619e-07
9.6198757e-07
9.5902879e-07
9.5427127e-07
9.4656311e-07
9.4674521e-07
9.4177885e-07
9.3352583e-07
9.2323791e-07
9.2353648e-07
9.281052e-07
9.2282309e-07
9.2048875e-07
9.4511065e-07
9.726592e-07
9.7889664e-07
9.9042661e-07
1.0213539e-06
1.0778942e-06
1.136208e-06
1.1567273e-06
8.8190628e-07
9.596664e-07
9.7774813e-07
9.818508e-07
9.7237668e-07
9.6080219e-07
9.5073081e-07
9.3949567e-07
9.3429826e-07
9.4384421e-07
9.6281124e-07
9.8254754e-07
1.0072466e-06
1.0286651e-06
1.049714e-06
1.0690355e-06
1.0830238e-06
1.0821985e-06
1.0795449e-06
1.085817e-06
1.0959211e-06
1.1078031e-06
1.1135172e-06
1.14509e-06
8.0348025e-07
9.6181022e-07
1.2010487e-06
1.0157588e-06
1.2713578e-06
7.7232663e-07
1.2417112e-06
9.2613124e-07
1.0233256e-06
1.109626e-06
1.1621754e-06
1.2133483e-06
1.2440513e-06
1.260257e-06
1.2740397e-06
1.2883028e-06
1.3135604e-06
1.3398955e-06
1.3707937e-06
1.4011896e-06
1.4384988e-06
1.4918321e-06
1.5455456e-06
1.6029017e-06
1.6330391e-06
1.6992739e-06
1.7519301e-06
1.3280231e-06
1.9050072e-06
1.9628684e-06
2.0468734e-06
1.3456367e-06
1.4526861e-06
2.2235915e-06
2.2522481e-06
2.321873e-06
1.1956444e-06
1.2567188e-06
1.0450551e-06
1.960242e-06
2.0391018e-06
2.3653863e-06
2.4393701e-06
2.4876069e-06
2.5239772e-06
2.5688738e-06
2.6077537e-06
2.6518299e-06
2.6842687e-06
2.725214e-06
2.7679225e-06
2.8144764e-06
2.9024574e-06
2.9800162e-06
3.0917533e-06
3.1166643e-06
3.2644619e-06
3.3658543e-06
3.0830195e-06
3.6391315e-06
3.7849781e-06
3.9082999e-06
3.3516509e-06
3.3261337e-06
4.1763757e-06
4.2824573e-06
4.284082e-06
3.2088478e-06
3.1560378e-06
1.0414716e-06
2.1746296e-06
2.5522132e-06
2.2645927e-06
2.2582283e-06
2.0758195e-06
2.1346857e-06
2.0688002e-06
2.0404244e-06
1.9968595e-06
2.0071001e-06
2.0116484e-06
2.1033284e-06
2.0929681e-06
2.1031158e-06
2.1498768e-06
2.2431205e-06
2.2732486e-06
2.1899324e-06
2.2910947e-06
2.5126613e-06
2.4281526e-06
2.2020823e-06
2.2215754e-06
2.6007928e-06
2.8998141e-06
2.3954681e-06
2.063786e-06
2.229215e-06
3.2737441e-06
3.6780864e-06
2.6423622e-06
4.5062218e-06
2.6109777e-06
1.4491955e-06
1.2028107e-06
1.1883415e-06
1.4828752e-06
1.6689867e-06
1.5720048e-06
1.3705493e-06
1.2911709e-06
1.3573802e-06
1.2876004e-06
1.184064e-06
1.1677055e-06
1.2704542e-06
1.3558782e-06
1.324221e-06
1.2391403e-06
1.1876272e-06
1.1984002e-06
1.1758738e-06
1.1519188e-06
1.7800194e-06
4.5753952e-06
2.5977054e-06
1.2317986e-06
1.3211985e-06
1.268702e-06
1.5649074e-06
1.8526057e-06
1.7394415e-06
1.480009e-06
1.3213855e-06
1.419831e-06
1.416426e-06
1.3722334e-06
1.3259798e-06
1.3782898e-06
1.475361e-06
1.4189833e-06
1.3467876e-06
1.2690881e-06
1.3104946e-06
1.3313256e-06
1.2483161e-06
3.0817582e-06
3.2282915e-06
2.8430233e-06
1.7063232e-06
1.3541736e-06
1.4498619e-06
1.7337248e-06
2.0551826e-06
1.9578935e-06
1.6650104e-06
1.418011e-06
1.5096469e-06
1.5705903e-06
1.576121e-06
1.4731814e-06
1.4452728e-06
1.5319108e-06
1.5434619e-06
1.5365279e-06
1.483957e-06
1.4971002e-06
1.4856713e-06
1.3930116e-06
3.2082975e-06
3.4861314e-06
1.6518082e-06
1.6889675e-06
1.8430846e-06
1.631265e-06
1.8718443e-06
2.3306819e-06
2.3377948e-06
2.2217259e-06
1.7861116e-06
1.8162783e-06
1.869428e-06
1.8248258e-06
1.7114084e-06
1.5440888e-06
1.587116e-06
1.7126906e-06
1.8237969e-06
1.8550029e-06
1.7646859e-06
1.7234767e-06
1.5854693e-06
2.1762171e-06
2.5517035e-06
3.4827482e-06
2.5509848e-06
1.6922248e-06
1.3869441e-06
1.9708795e-06
2.5618456e-06
2.6478656e-06
2.7077263e-06
2.3657213e-06
2.1523625e-06
2.1875672e-06
2.0674553e-06
1.9363627e-06
1.7646042e-06
1.7553351e-06
1.9143262e-06
2.0233253e-06
2.1090543e-06
2.050082e-06
1.9612283e-06
1.8617343e-06
1.1621797e-06
3.8789147e-06
2.118078e-06
1.4901538e-06
1.9130417e-06
1.8910652e-06
2.0986566e-06
2.8284636e-06
2.9760323e-06
3.0133129e-06
2.682376e-06
2.3362784e-06
2.3463936e-06
2.2796762e-06
2.1959245e-06
2.0746571e-06
2.0845365e-06
2.2264399e-06
2.2820556e-06
2.2182413e-06
2.0905967e-06
1.9743302e-06
1.9835976e-06
2.0600696e-06
2.3130128e-06
3.6028225e-06
3.1292619e-06
2.2219231e-06
1.2932588e-06
1.4181352e-06
2.9291698e-06
3.6279816e-06
3.4426671e-06
3.038589e-06
2.5118283e-06
2.5022465e-06
2.5321054e-06
2.5573052e-06
2.5250945e-06
2.5555959e-06
2.6503143e-06
2.6533396e-06
2.4624858e-06
2.2562775e-06
2.1200408e-06
2.0965102e-06
1.5808738e-06
1.9975856e-06
2.3316873e-06
2.4969011e-06
2.2837527e-06
2.7038152e-06
3.2635951e-06
4.4824827e-06
3.836569e-06
3.8136375e-06
4.0830371e-06
3.2206755e-06
3.0674945e-06
3.2216801e-06
3.2845555e-06
3.254136e-06
3.104952e-06
3.1126676e-06
3.1959976e-06
3.0371759e-06
2.7886891e-06
2.581986e-06
2.4837192e-06
9.0558876e-07
1.6444649e-06
2.0915697e-06
3.2600018e-06
3.4370779e-06
2.2609537e-06
2.1832656e-06
3.3616575e-06
5.4358632e-06
5.4847143e-06
5.3057226e-06
4.7929936e-06
4.1623279e-06
4.2369878e-06
4.1758941e-06
3.8190292e-06
3.5315381e-06
3.4214721e-06
3.5030103e-06
3.7140701e-06
3.7287098e-06
3.5813255e-06
3.4503446e-06
1.2425317e-06
1.6138657e-06
4.3244016e-06
5.0614887e-06
4.6436662e-06
3.4838201e-06
3.2554871e-06
4.3022488e-06
5.7874118e-06
6.7511854e-06
6.8323531e-06
6.4842343e-06
5.7685971e-06
5.7331945e-06
5.3741137e-06
4.665796e-06
3.9743688e-06
3.7128249e-06
3.7569037e-06
4.0475513e-06
4.2406865e-06
4.3127681e-06
4.4061654e-06
1.18507e-06
2.9701938e-06
4.6616095e-06
3.8764599e-06
5.6393872e-06
5.0605919e-06
4.8429493e-06
6.5354152e-06
7.862197e-06
8.6179512e-06
8.5569359e-06
8.4263404e-06
7.7104535e-06
7.7473676e-06
7.3510094e-06
6.386333e-06
5.0648077e-06
4.4998301e-06
4.398093e-06
4.6631e-06
4.8695707e-06
4.9553972e-06
4.8719675e-06
1.8734641e-06
3.0294443e-06
5.7015021e-06
5.1225042e-06
5.9947448e-06
7.2421853e-06
7.225743e-06
1.0090424e-05
1.2451291e-05
1.3106029e-05
1.2391715e-05
1.0900489e-05
6.7791634e-06
8.1883884e-06
1.0229592e-05
9.5024175e-06
7.5162894e-06
6.2086743e-06
5.7398342e-06
6.1011414e-06
6.5274592e-06
6.4001959e-06
5.7402729e-06
9.6639819e-07
1.9389843e-06
5.3322187e-06
8.3602857e-06
1.0507309e-05
9.3857821e-06
1.1562755e-05
1.5633001e-05
2.0917773e-05
2.198379e-05
1.731578e-05
1.4718889e-05
1.3164728e-05
1.3280683e-05
1.4242155e-05
1.3919613e-05
1.133444e-05
9.2260163e-06
8.3557507e-06
8.9714445e-06
1.0459632e-05
9.7399085e-06
7.746032e-06
7.2220069e-07
2.3662542e-06
3.8154486e-06
8.4978662e-06
1.1970174e-05
1.740996e-05
2.1641789e-05
3.0172904e-05
3.8117449e-05
3.8324559e-05
2.8618643e-05
2.397127e-05
2.0970354e-05
2.0785509e-05
2.22242e-05
2.2165111e-05
1.8817645e-05
1.4588039e-05
1.3308864e-05
1.5020378e-05
1.8704962e-05
1.6238427e-05
1.1467219e-05
8.6820429e-07
2.9397424e-06
4.9712031e-06
8.329299e-06
1.4727962e-05
2.6959922e-05
4.71969e-05
6.2367337e-05
6.1091095e-05
5.3347519e-05
3.9483581e-05
3.6172052e-05
3.506539e-05
3.5562658e-05
3.743391e-05
3.6789004e-05
2.9668893e-05
2.2023658e-05
2.0598801e-05
2.2174657e-05
2.7407331e-05
2.3835031e-05
1.6797921e-05
1.1311358e-06
3.112944e-06
6.6556945e-06
1.0441943e-05
1.6962498e-05
3.2936096e-05
6.6593755e-05
8.6465164e-05
8.1970706e-05
6.2614069e-05
4.802854e-05
4.5673238e-05
5.1618448e-05
5.8569698e-05
6.0823128e-05
5.5064535e-05
3.952982e-05
2.9631764e-05
2.9475392e-05
3.4025801e-05
4.2660164e-05
3.6663281e-05
2.409544e-05
1.5983008e-06
3.6114268e-06
7.8574973e-06
1.2839058e-05
2.1467886e-05
4.4470902e-05
8.6507983e-05
0.00010783443
0.00010116898
8.1354626e-05
7.1183793e-05
7.6104863e-05
9.6470338e-05
0.00011530012
0.00011849928
9.9729544e-05
6.3788687e-05
4.4816875e-05
4.5924113e-05
5.5836823e-05
7.0565687e-05
5.5556013e-05
3.006043e-05
2.4747677e-06
4.0457569e-06
8.8346064e-06
1.4872538e-05
2.5547403e-05
5.3620282e-05
0.00010037916
0.00012511852
0.0001177132
0.00010098483
9.3445609e-05
0.00010642974
0.00013667812
0.00015585612
0.00015775016
0.00013552323
8.862795e-05
6.4164561e-05
6.7503351e-05
8.9360428e-05
0.00011487606
8.11054e-05
4.0105226e-05
2.8015768e-06
4.1699198e-06
9.3805897e-06
1.6133132e-05
2.9061207e-05
6.2663836e-05
0.00011617078
0.00014145726
0.00013235981
0.00011978015
0.00011451081
0.00013448712
0.00017197723
0.00018997472
0.00019089081
0.00017066042
0.00012498893
0.0001097561
0.00013748794
0.00021070916
0.00022596678
0.00013685298
5.8930368e-05
2.73431e-06
4.1815958e-06
9.2495972e-06
1.6834354e-05
3.2245345e-05
7.214256e-05
0.00013141862
0.00016026005
0.00015295903
0.00014991364
0.00014564469
0.0001698424
0.00020876247
0.00022330866
0.00022070232
0.00019683103
0.00016042696
0.00016441157
0.00021503643
0.00029407214
0.00028130299
0.00015990329
7.7234987e-05
2.1819487e-06
4.2239239e-06
8.6440586e-06
1.7105123e-05
3.6030566e-05
8.4376893e-05
0.00015027125
0.00018285765
0.00018229621
0.00018188781
0.00018617806
0.00021700565
0.0002519009
0.00026171794
0.00025162246
0.000221207
0.00019652005
0.00021834236
0.00030510971
0.00037702003
0.00030432844
0.00016301348
0.00010903708
1.2735001e-06
4.6501478e-06
8.6907524e-06
1.806275e-05
4.1600295e-05
9.9061446e-05
0.00012297355
0.00014795146
0.0002074901
0.00021761935
0.00023298947
0.00026802425
0.00028884149
0.00029532395
0.00028356498
0.00026343003
0.00027695621
0.00034521571
0.00045174401
0.00045711374
0.00029968636
0.00018784111
0.00016366819
1.2302398e-06
3.6244066e-06
8.2165979e-06
2.18397e-05
5.1961626e-05
6.8664821e-05
8.1887308e-05
0.00010248451
0.00016313152
0.00026150003
0.00029121311
0.00032567793
0.00033385925
0.00033855344
0.00028464884
0.00036002768
0.00041589875
0.00050299597
0.00051067936
0.00044584898
0.00029759902
0.000243674
0.00023960374
1.8203231e-06
4.1716093e-06
1.4631921e-05
3.0327016e-05
4.4923549e-05
6.1863059e-05
7.9121228e-05
0.0001020275
0.00017190164
0.00031297234
0.00036125722
0.00026916561
0.00023521906
0.00024106199
0.00033014435
0.00050507292
0.00054080737
0.00041446381
0.00038520425
0.00039982248
0.00031350273
0.00028777669
0.00026986224
3.9079278e-06
1.0860648e-05
2.0989144e-05
3.2237796e-05
5.3459621e-05
9.2897886e-05
0.00012713111
0.00015689975
0.00021871168
0.00035803865
0.00034091262
0.00025837701
0.00027384933
0.00038807416
0.00058423313
0.00057190251
0.00045012357
0.00040245577
0.00041796777
0.00035146611
0.00031346498
0.00029862052
0.00028711103
6.8435117e-06
1.5669431e-05
2.8575973e-05
5.0121494e-05
0.00010753163
0.00016102032
0.0002097599
0.00027262089
0.00030178635
0.00028469883
0.00036390006
0.00057316185
0.0006237878
0.00063934822
0.000507297
0.00048483842
0.00049748957
0.00043822326
0.00037645272
0.000327174
0.00031401774
0.00031513776
0.00030568563
4.0050871e-06
1.170328e-05
3.5296174e-05
7.5532931e-05
0.00014011956
0.0001597371
0.00018011463
0.00023368325
0.00034710314
0.00047270269
0.00053951177
0.00045803809
0.00044866953
0.00053486213
0.00059212161
0.00053316959
0.00047026598
0.00040453099
0.00035502778
0.00032612677
0.00031980117
0.00030782976
0.00029174111
2.5888513e-06
1.283025e-05
2.5575027e-05
8.2835249e-05
0.00014390109
0.00016367346
0.00020926854
0.00033814072
0.0004633083
0.00050033582
0.00039105157
0.00032566209
0.00036958465
0.00059224881
0.00058182049
0.00053995085
0.00046934818
0.00040119033
0.00035610075
0.00032567583
0.00029600802
0.00026583881
0.00024449002
2.8020902e-06
1.6227782e-05
3.5019816e-05
9.2328486e-05
0.00019612867
0.00028427873
0.00037541445
0.00044967039
0.00041941357
0.00044607784
0.00051151704
0.00052047462
0.00054215134
0.00055089976
0.00051552309
0.00052988609
0.00046094326
0.00040183195
0.0003493693
0.00030168062
0.00025954674
0.00023932167
0.00022608824
4.9168512e-06
2.5450618e-05
6.81128e-05
0.00013601371
0.00020945227
0.00020740291
0.00027657765
0.00044514364
0.00049225271
0.00051824114
0.00052794313
0.00053266525
0.00054142418
0.00053980704
0.00051449658
0.00045810419
0.00039917162
0.0003615391
0.00032950943
0.00030208178
0.00028036512
0.00026982239
0.00029162929
8.4247552e-06
3.3524171e-05
7.89051e-05
0.00014635959
0.00021403621
0.00027879965
0.00035156939
0.00042286217
0.00045437535
0.00048066639
0.00055969824
0.0005632965
0.00054845904
0.00051843056
0.00045512132
0.00037240312
0.00033281348
0.00031339784
0.00031732248
0.00033029747
0.00035499196
0.00041601036
0.00050756261
4.5570728e-06
3.3744634e-05
8.2328813e-05
0.00015278513
0.0002220483
0.00029031297
0.0003598984
0.00042360368
0.00047508379
0.00051150937
0.00053371015
0.00054090411
0.0005262323
0.00048697134
0.0004099858
0.00034327387
0.00031294369
0.00030313829
0.00032749573
0.00037302167
0.00046473813
0.00058671717
0.00064293914
3.5668924e-06
3.3759676e-05
7.765647e-05
0.00015463971
0.00022938861
0.00030468252
0.00037555358
0.00042957709
0.00046261746
0.00047290026
0.0004710363
0.00046404416
0.00045586597
0.00044176783
0.00040057
0.00036451083
0.00034252853
0.00034828826
0.00039725566
0.00046390604
0.0005382115
0.00062297029
0.00067721814
4.5154234e-06
3.5728229e-05
8.4245367e-05
0.00014761516
0.00021370681
0.00028341399
0.00035293768
0.00041121959
0.00044650181
0.00045150315
0.00044016316
0.00042447862
0.00041197416
0.00040305155
0.0003813196
0.00037757265
0.00038532165
0.00043254948
0.00049123661
0.00053250408
0.00058133564
0.00063072178
0.00059493416
5.0210067e-06
3.918775e-05
9.0835483e-05
0.00015358369
0.00021399386
0.00027381344
0.00033043733
0.00038262061
0.00042226184
0.00044000737
0.00043590873
0.00041498618
0.00038999109
0.00036917677
0.00034965552
0.00035449717
0.00039156976
0.00048123421
0.00056409918
0.00060894016
0.00064296067
0.00067026684
0.00067833215
3.4502622e-06
3.5417916e-05
8.2879893e-05
0.00014132388
0.00019853041
0.00025228026
0.00030112259
0.00034242719
0.00037643438
0.00040057155
0.00041305172
0.00041198648
0.00039692214
0.00037394652
0.00034635354
0.00033341161
0.00034585774
0.00040729188
0.00051191671
0.00059282645
0.00064292444
0.0006579724
0.00064931478
3.1314212e-06
3.2110294e-05
7.4013284e-05
0.00012812265
0.00018370212
0.00023776627
0.00028698081
0.00032396511
0.00034864867
0.00036334617
0.00036986841
0.00037190337
0.00036956262
0.00036181097
0.00034759665
0.00033101072
0.00032526951
0.00034291987
0.00040734682
0.0004805647
0.00054289685
0.00058172147
0.00059346382
3.6975732e-06
3.0705799e-05
6.778616e-05
0.00011575724
0.00016475539
0.00021395745
0.00026241099
0.00030274063
0.00032972932
0.00034224474
0.00034292772
0.00033811574
0.00033292353
0.00032843581
0.0003252777
0.00032082635
0.00031753725
0.00031931419
0.00034332923
0.00039099827
0.00043493104
0.0004747871
0.00050514737
3.7584945e-06
2.9491182e-05
6.3029137e-05
0.00010607971
0.00014813084
0.0001895497
0.00023116189
0.00026935259
0.00030002714
0.00032022366
0.00032729698
0.00032408687
0.00031601701
0.00030687626
0.00030003751
0.00029672959
0.00029624812
0.0002976141
0.00030383192
0.00032500702
0.00035230267
0.00037859335
0.00041304879
3.0226618e-06
2.8044012e-05
5.8617474e-05
9.8627959e-05
0.00013772646
0.00017499215
0.00021076628
0.00024302593
0.00026940452
0.00028937284
0.00030155064
0.00030580231
0.0003034882
0.00029606452
0.00028648268
0.00027832013
0.00027369817
0.00027216219
0.00027225333
0.0002785399
0.00029309452
0.00030963479
0.00034095254
2.9168484e-06
2.7763557e-05
5.652342e-05
9.3255958e-05
0.00012974551
0.00016545722
0.00019931083
0.00022796099
0.00024864724
0.00026251453
0.00027076313
0.00027488614
0.00027634686
0.00027443116
0.00026875493
0.00026130932
0.00025486982
0.00025151247
0.00024993664
0.00025065131
0.00025881654
0.00026780421
0.0002858223
3.3831015e-06
2.8829602e-05
5.7703138e-05
9.0824529e-05
0.00012270661
0.00015399094
0.00018425352
0.00021073036
0.00023005388
0.00024137324
0.00024569329
0.00024621349
0.00024562968
0.00024465005
0.00024239708
0.00023923537
0.00023608811
0.00023432926
0.00023327591
0.00023211941
0.00023342439
0.00023561632
0.00024528498
3.2935227e-06
3.0114222e-05
5.9606969e-05
9.0653854e-05
0.00011873614
0.00014490441
0.00016960344
0.0001917842
0.00020886166
0.00021945082
0.00022343768
0.00022352532
0.0002223886
0.00022104172
0.00021889318
0.00021510193
0.00021056337
0.00020623672
0.00020415733
0.00020400938
0.00020761616
0.00022820369
0.0002294936
2.8057501e-06
3.1208842e-05
6.0861069e-05
9.0951016e-05
0.00011776773
0.00014154076
0.00016196951
0.00017863548
0.00019063064
0.00019780476
0.00020074082
0.00020086583
0.00019861121
0.00019428967
0.00018827882
0.00018229092
0.00017921304
0.00018058055
0.00018851321
0.00020098012
0.00021404805
0.00025126429
0.00026489112
2.84174e-06
3.3250467e-05
6.3481862e-05
9.1604879e-05
0.00011658478
0.00013821998
0.00015554872
0.00016797031
0.00017545508
0.00017870622
0.00017748426
0.00017267503
0.000165866
0.00016095822
0.00016031456
0.00016498813
0.00017442121
0.00018677069
0.00020637635
0.00023907934
0.00029034337
0.00036283231
0.00041366868
3.1569063e-06
3.7200399e-05
6.7692663e-05
9.3313903e-05
0.00011492392
0.0001326418
0.00014620101
0.00015448604
0.00015776935
0.00015618852
0.0001510511
0.00014687945
0.00014798564
0.00015393705
0.00016367168
0.00017816702
0.00020451299
0.00024851879
0.00031319459
0.00038613887
0.00045464615
0.0005123873
0.0005509125
3.0567565e-06
4.080166e-05
7.1214662e-05
9.5281615e-05
0.00011440503
0.00012882014
0.00013716303
0.00014027347
0.00013843604
0.000135946
0.0001380281
0.00014473491
0.0001544561
0.00017283287
0.00020588319
0.00026230669
0.0003313098
0.00040236763
0.00046262091
0.00051195981
0.00054855996
0.00057549823
0.0005952502
2.9470426e-06
4.3675927e-05
7.4043322e-05
9.737924e-05
0.00011485971
0.00012483688
0.00012860305
0.0001278801
0.00012854879
0.00013416447
0.00014329926
0.00016241771
0.00019857699
0.00026192446
0.00033488139
0.00040142423
0.00045741834
0.0005008701
0.0005304412
0.00054970901
0.00055985609
0.00055866336
0.00055309916
3.4762839e-06
4.9025149e-05
7.8739826e-05
0.0001007422
0.00011374991
0.00011899349
0.00012002097
0.00012376407
0.00013058079
0.0001452157
0.00017737298
0.0002400044
0.00031906504
0.00038752652
0.00044475914
0.00048720399
0.00051395756
0.00053020239
0.00053485867
0.00052177832
0.00049223731
0.00045538835
0.00042877451
3.9713647e-06
5.3315896e-05
8.3673674e-05
0.00010231265
0.00011116551
0.00011509969
0.00011991883
0.0001276265
0.00014869201
0.00019488325
0.00027791966
0.00035862031
0.00042392566
0.00047134732
0.00049913954
0.00051405447
0.00051776317
0.00050190842
0.0004595284
0.0004147066
0.00037903352
0.00032728246
0.0002855589
4.5647798e-06
5.7378493e-05
8.740875e-05
0.00010353445
0.00011089938
0.0001162882
0.00012625049
0.00015240475
0.00021132887
0.00030421914
0.00038419589
0.00044573358
0.00048267808
0.0005002218
0.00049700153
0.00045417099
0.00041040268
0.00037893367
0.0003654246
0.00032518791
0.00027731179
0.0002267742
0.0001829166
6.4774235e-06
6.02316e-05
9.0296134e-05
0.00010452055
0.00011217047
0.00012263258
0.00015084834
0.00021607413
0.00031325457
0.00039653542
0.0004531949
0.00047318999
0.00047369606
0.00046466395
0.00044287111
0.00041740179
0.00037918879
0.00033486937
0.00029266432
0.00025037954
0.00020855298
0.00016555398
0.00012435158
8.3971762e-06
6.2248633e-05
9.2666305e-05
0.00010619544
0.0001172152
0.00014310595
0.00020850276
0.0003080758
0.0003970263
0.00045353988
0.00048061619
0.00047936895
0.00046683063
0.00043906454
0.00040105658
0.00035411649
0.00031275453
0.00027606442
0.00024056878
0.00020417846
0.00016749687
0.00013043429
9.4169554e-05
8.6619149e-06
6.7205668e-05
9.0240042e-05
0.00010986768
0.00013073494
0.00019277567
0.00028881269
0.00038452072
0.00044802572
0.00046529921
0.00045074363
0.00042121121
0.00037437892
0.00032939993
0.00029555776
0.00026832176
0.00024604938
0.00022853497
0.00020630931
0.00017455148
0.00014290248
0.00011230227
8.1667413e-05
9.3559866e-06
6.9109115e-05
9.2486212e-05
0.00012005184
0.00016313683
0.0002510943
0.00035489438
0.00042434499
0.00043576186
0.00041964612
0.00038508452
0.00033346372
0.000286098
0.00025194017
0.00022963434
0.00021486003
0.00020312949
0.00019534859
0.00018625361
0.00015904896
0.00013384769
0.00010952307
8.2314729e-05
4.9379964e-06
7.1090397e-05
9.3524487e-05
0.0001157027
0.00017487593
0.00028049402
0.00038210507
0.00042082444
0.00041202861
0.0003818809
0.00032978595
0.00027332057
0.00023203818
0.00020900146
0.00019888866
0.00018898404
0.00017731816
0.00017120968
0.00017344643
0.00015646693
0.00013540465
0.00011705412
9.7662387e-05
6.9236328e-06
4.8990385e-05
8.409576e-05
0.00012229301
0.00018958136
0.00029859023
0.00037024262
0.00038535448
0.00037354908
0.0003363116
0.00027689724
0.00022617649
0.00019499918
0.00018088124
0.00017361302
0.00016512487
0.00015670186
0.00015465105
0.00015981589
0.00016135758
0.00014134135
0.00012535347
0.00011064461
4.8477141e-06
6.2145649e-05
0.00010498562
0.00017760664
0.00025706151
0.00034675663
0.00038216342
0.00037810757
0.00035487224
0.00030614143
0.00025092842
0.00020741167
0.00018341452
0.00017230649
0.00016433938
0.00015749385
0.00015403199
0.00015528285
0.00016402299
0.00018145572
0.00016235379
0.00014206877
0.00012465242
2.6401144e-06
8.1106188e-05
0.00013017397
0.00020224619
0.00030968515
0.00038823898
0.0004076777
0.00039445469
0.00036295674
0.00030980829
0.00025391489
0.00021194221
0.00018848884
0.00017818664
0.00017266902
0.00016979992
0.00016808554
0.00016927247
0.00017702243
0.0001902276
0.0002001014
0.00019376498
0.00016766372
3.4005135e-06
4.8509937e-05
0.00013508306
0.00019613541
0.00030488475
0.00038042983
0.00040109195
0.00039275502
0.00036440501
0.00031401969
0.00025894031
0.00022113036
0.00020640029
0.00020094024
0.00019660837
0.0001926248
0.00019127383
0.00019336631
0.00019969551
0.00020873793
0.00021518129
0.00021201274
0.00022605527
4.0881398e-06
4.7985871e-05