/*--------------------------------*- C++ -*----------------------------------*\
| =========                 |                                                 |
| \\      /  F ield         | OpenFOAM: The Open Source CFD Toolbox           |
|  \\    /   O peration     | Version:  2406                                  |
|   \\  /    A nd           | Website:  www.openfoam.com                      |
|    \\/     M anipulation  |                                                 |
\*---------------------------------------------------------------------------*/
FoamFile
{
    version     2.0;
    format      ascii;
    arch        "LSB;label=32;scalar=64";
    class       volScalarField;
    location    "90";
    object      k_0;
}
// * * * * * * * * * * * * * * * * * * * * * * * * * * * * * * * * * * * * * //

dimensions      [0 2 -2 0 0 0 0];

internalField   nonuniform List<scalar> 
20580
(
3.1724473e-06
2.4608813e-06
1.9813362e-06
1.6275027e-06
1.3693092e-06
1.1768339e-06
1.0386117e-06
9.3391866e-07
8.5039499e-07
7.8301034e-07
7.278947e-07
6.8286409e-07
6.4410318e-07
6.1174409e-07
5.8495006e-07
5.6144864e-07
5.4520836e-07
5.3557726e-07
5.2358185e-07
5.1649633e-07
5.1147581e-07
5.04183e-07
5.0194355e-07
5.0376626e-07
5.2060176e-07
5.3063196e-07
5.3345136e-07
5.2808742e-07
5.3552086e-07
5.6290731e-07
6.143391e-07
3.1785148e-06
2.4674155e-06
2.0359964e-06
1.6910173e-06
1.4181659e-06
1.2046856e-06
1.0558472e-06
9.4374367e-07
8.5710328e-07
7.8781463e-07
7.3293989e-07
6.8697851e-07
6.4882533e-07
6.1628006e-07
5.8805811e-07
5.6423487e-07
5.4569704e-07
5.3807569e-07
5.2624929e-07
5.2066783e-07
5.2116745e-07
5.1343668e-07
5.1276747e-07
5.2209798e-07
5.4582637e-07
5.7794107e-07
5.9733385e-07
6.2955098e-07
6.4391001e-07
6.6073492e-07
6.4669736e-07
3.1791617e-06
2.4616291e-06
2.0375189e-06
1.7142744e-06
1.4543833e-06
1.2421743e-06
1.0835161e-06
9.6281189e-07
8.7072517e-07
7.9756327e-07
7.395906e-07
6.9206305e-07
6.5200997e-07
6.2015713e-07
5.8980207e-07
5.6743026e-07
5.4750481e-07
5.3754243e-07
5.2536958e-07
5.1774911e-07
5.1850364e-07
5.1220668e-07
5.1002034e-07
5.1755438e-07
5.3713326e-07
5.7488088e-07
5.9455158e-07
6.2161445e-07
6.623433e-07
7.1667125e-07
7.483228e-07
3.1831825e-06
2.4512582e-06
2.0218285e-06
1.7081316e-06
1.4570866e-06
1.2628741e-06
1.1134685e-06
9.904984e-07
8.9395506e-07
8.158488e-07
7.5148749e-07
7.0172473e-07
6.5821255e-07
6.2562498e-07
5.9363585e-07
5.6964961e-07
5.5074637e-07
5.3773964e-07
5.2642359e-07
5.1757117e-07
5.155725e-07
5.1005752e-07
5.0711461e-07
5.1220185e-07
5.2752595e-07
5.6566905e-07
6.0189635e-07
6.2486103e-07
6.5621191e-07
7.0209406e-07
7.552478e-07
3.1871669e-06
2.4589689e-06
1.992159e-06
1.6811783e-06
1.4491902e-06
1.2609177e-06
1.1263059e-06
1.0121274e-06
9.1681294e-07
8.3693297e-07
7.672644e-07
7.1307795e-07
6.6659684e-07
6.313402e-07
5.9867816e-07
5.7238739e-07
5.5286568e-07
5.3707814e-07
5.2661794e-07
5.1834287e-07
5.1436947e-07
5.1055572e-07
5.0974495e-07
5.1339736e-07
5.2586034e-07
5.606295e-07
6.0638014e-07
6.5764653e-07
6.994001e-07
7.5405851e-07
7.7793026e-07
3.1927151e-06
2.4768803e-06
1.9828268e-06
1.6619059e-06
1.4280822e-06
1.2504946e-06
1.1220574e-06
1.0138285e-06
9.2492536e-07
8.5090343e-07
7.8260571e-07
7.2758752e-07
6.7970719e-07
6.4064206e-07
6.0602586e-07
5.7802461e-07
5.5712241e-07
5.3814637e-07
5.2692369e-07
5.1933517e-07
5.1354968e-07
5.1010118e-07
5.0993539e-07
5.1224601e-07
5.2003092e-07
5.505718e-07
5.9593611e-07
6.7259886e-07
7.1777435e-07
8.4258048e-07
8.6467455e-07
3.1960092e-06
2.4856577e-06
1.9777041e-06
1.6483368e-06
1.4059474e-06
1.2307675e-06
1.1066806e-06
1.0072123e-06
9.2185952e-07
8.5223563e-07
7.9227565e-07
7.4129893e-07
6.977299e-07
6.5899007e-07
6.2124747e-07
5.9030207e-07
5.6679187e-07
5.44246e-07
5.3069046e-07
5.2175148e-07
5.1338786e-07
5.0796776e-07
5.0646777e-07
5.0538692e-07
5.0560098e-07
5.2057219e-07
5.5706325e-07
6.4128443e-07
6.9654096e-07
8.0746042e-07
9.0306554e-07
3.2233876e-06
2.4835721e-06
1.984374e-06
1.6451822e-06
1.3947135e-06
1.212233e-06
1.0813266e-06
9.8599752e-07
9.0937489e-07
8.4656473e-07
7.9100396e-07
7.4725174e-07
7.1133743e-07
6.7885894e-07
6.4579196e-07
6.1569286e-07
5.9027232e-07
5.6239734e-07
5.4410215e-07
5.3140497e-07
5.1729765e-07
5.0979064e-07
5.0874214e-07
5.0729344e-07
5.0343567e-07
5.0688641e-07
5.2636883e-07
5.6065845e-07
6.1145429e-07
6.7625811e-07
8.4755431e-07
3.4778584e-06
2.7171958e-06
2.1091767e-06
1.7031425e-06
1.4218555e-06
1.2209371e-06
1.0820593e-06
9.7739235e-07
8.9452114e-07
8.3196831e-07
7.8456472e-07
7.4510345e-07
7.1279819e-07
6.8560355e-07
6.6151439e-07
6.3846897e-07
6.1529739e-07
5.9773914e-07
5.7800029e-07
5.6295383e-07
5.418914e-07
5.2587671e-07
5.2392196e-07
5.224845e-07
5.1885428e-07
5.2095932e-07
5.3795619e-07
5.6885816e-07
6.1939843e-07
6.5615115e-07
7.3681762e-07
4.8873056e-06
4.2685708e-06
3.027083e-06
2.1703636e-06
1.6438198e-06
1.324577e-06
1.1282472e-06
9.9697702e-07
9.0267779e-07
8.3122823e-07
7.7653434e-07
7.357702e-07
7.0429609e-07
6.7736388e-07
6.5779401e-07
6.3759777e-07
6.1978171e-07
6.0273315e-07
5.9609024e-07
5.8365636e-07
5.7414275e-07
5.6554555e-07
5.6545868e-07
5.6570259e-07
5.6754673e-07
5.731214e-07
5.9410055e-07
6.2266994e-07
6.7883145e-07
7.1205736e-07
7.6077644e-07
3.651958e-06
3.7453158e-06
3.4877709e-06
2.9123637e-06
2.3142851e-06
1.7963588e-06
1.3953222e-06
1.141171e-06
9.8469049e-07
8.7608265e-07
8.0055002e-07
7.4644032e-07
7.0700359e-07
6.75659e-07
6.4982224e-07
6.2853539e-07
6.1017093e-07
5.9461401e-07
5.8769512e-07
5.8019434e-07
5.7233629e-07
5.7590123e-07
5.8037133e-07
5.8506898e-07
5.9596578e-07
6.1193428e-07
6.3534869e-07
6.8840183e-07
7.379801e-07
8.4084498e-07
8.5798335e-07
3.2929191e-06
2.8881426e-06
2.7902252e-06
2.6127802e-06
2.274385e-06
2.0041309e-06
1.7776523e-06
1.5432696e-06
1.3212058e-06
1.1321121e-06
9.6886603e-07
8.5769607e-07
7.8353546e-07
7.3249872e-07
6.9327548e-07
6.6158129e-07
6.3362051e-07
6.1233822e-07
5.9613425e-07
5.8430735e-07
5.7299068e-07
5.7317055e-07
5.7518201e-07
5.7828651e-07
5.8778195e-07
6.0228639e-07
6.1649262e-07
6.4951942e-07
7.067586e-07
8.1363445e-07
9.4326271e-07
3.7455191e-06
3.3009593e-06
2.7345734e-06
2.2662596e-06
1.9623712e-06
1.740162e-06
1.6303064e-06
1.5028862e-06
1.3839817e-06
1.2892746e-06
1.2210131e-06
1.1584063e-06
1.0931136e-06
1.0330933e-06
9.7683064e-07
9.2566992e-07
8.6176511e-07
8.0819499e-07
7.5563614e-07
7.0013829e-07
6.5567515e-07
6.2537567e-07
6.0470099e-07
5.9590001e-07
5.9528122e-07
6.0089351e-07
6.0389321e-07
6.1352996e-07
6.4541601e-07
7.0164329e-07
8.2149154e-07
3.4134754e-06
3.2546615e-06
2.8687502e-06
2.4362927e-06
2.0208374e-06
1.7023354e-06
1.4678348e-06
1.3159525e-06
1.2131628e-06
1.1434541e-06
1.11823e-06
1.1137009e-06
1.1020173e-06
1.097587e-06
1.0892907e-06
1.0726305e-06
1.0523432e-06
1.0292689e-06
1.0020156e-06
9.6532137e-07
9.2516733e-07
8.88913e-07
8.3962368e-07
7.9060982e-07
7.5900661e-07
7.1768165e-07
6.9304137e-07
6.8914688e-07
7.0704492e-07
7.5292007e-07
8.2084859e-07
3.2958905e-06
2.7223579e-06
2.4506287e-06
2.2288201e-06
1.9671551e-06
1.7256881e-06
1.5151713e-06
1.346604e-06
1.2103642e-06
1.1011398e-06
1.019883e-06
9.6804676e-07
9.4393915e-07
9.3167914e-07
9.1999611e-07
9.097143e-07
9.0443752e-07
9.0498103e-07
8.9770779e-07
8.9692426e-07
8.9480098e-07
8.9543686e-07
9.0446444e-07
9.1052096e-07
9.2397918e-07
9.5097898e-07
9.7360815e-07
9.8680733e-07
9.9260217e-07
1.0512423e-06
1.0490972e-06
4.146739e-06
3.7460794e-06
2.7920415e-06
2.1976111e-06
1.8029547e-06
1.5655695e-06
1.4200873e-06
1.304967e-06
1.2007313e-06
1.1126209e-06
1.0437496e-06
9.8966748e-07
9.4731654e-07
9.1522617e-07
8.8567652e-07
8.6075778e-07
8.2801216e-07
8.0360881e-07
7.8892726e-07
7.6116431e-07
7.5261024e-07
7.5625301e-07
7.741874e-07
8.0618795e-07
8.6386445e-07
9.1050099e-07
9.6417986e-07
1.0290475e-06
1.1029775e-06
1.1765818e-06
1.2672436e-06
3.1145881e-06
3.0280519e-06
2.8847994e-06
2.4765899e-06
2.0027003e-06
1.6364372e-06
1.3808018e-06
1.2053006e-06
1.0924965e-06
1.0149959e-06
9.6952472e-07
9.422425e-07
9.2074253e-07
9.0328804e-07
8.85774e-07
8.6733347e-07
8.3879074e-07
8.1764892e-07
7.9354468e-07
7.6095959e-07
7.4376895e-07
7.196459e-07
7.0844546e-07
7.1808203e-07
7.3800935e-07
7.5791855e-07
7.9818177e-07
8.5017693e-07
9.5405853e-07
1.0237784e-06
1.1604646e-06
3.3493794e-06
2.8638282e-06
2.4956532e-06
2.1608869e-06
1.8984179e-06
1.6671342e-06
1.4696391e-06
1.2987191e-06
1.1464578e-06
1.0298049e-06
9.4064634e-07
8.7076523e-07
8.2577399e-07
7.959949e-07
7.7401055e-07
7.5548312e-07
7.3520413e-07
7.1989517e-07
7.0203604e-07
6.9050922e-07
6.8384095e-07
6.7193899e-07
6.5838315e-07
6.5944875e-07
6.69212e-07
6.7245263e-07
6.7693448e-07
6.8971203e-07
7.2680975e-07
7.6070022e-07
8.1816565e-07
3.387729e-06
3.1448721e-06
2.6060922e-06
2.168727e-06
1.7974371e-06
1.5440939e-06
1.3837691e-06
1.2594324e-06
1.1632561e-06
1.0859465e-06
1.0188994e-06
9.5421874e-07
8.9547629e-07
8.4661693e-07
8.0242055e-07
7.6874904e-07
7.3569068e-07
7.0344279e-07
6.763137e-07
6.5491666e-07
6.4264246e-07
6.3156206e-07
6.2485933e-07
6.30695e-07
6.4412786e-07
6.5633161e-07
6.7470526e-07
7.0123356e-07
7.3891409e-07
7.8602695e-07
8.1489574e-07
3.2886787e-06
2.765763e-06
2.3362113e-06
2.0194693e-06
1.7449312e-06
1.5262487e-06
1.3586669e-06
1.224616e-06
1.1295007e-06
1.0720044e-06
1.039382e-06
1.0179374e-06
1.0043908e-06
9.9339796e-07
9.7990176e-07
9.6565846e-07
9.449386e-07
9.1372917e-07
8.8271949e-07
8.5909018e-07
8.4695e-07
8.4165638e-07
8.3470056e-07
8.4359967e-07
8.6608769e-07
8.9081791e-07
9.0530373e-07
9.4867178e-07
9.8240146e-07
1.0548928e-06
1.0400712e-06
3.6051095e-06
3.3288497e-06
2.883249e-06
2.5906032e-06
2.354974e-06
2.1647191e-06
1.9903634e-06
1.8562569e-06
1.7568855e-06
1.6958007e-06
1.6551702e-06
1.6378554e-06
1.6365874e-06
1.6581483e-06
1.6982892e-06
1.7396332e-06
1.7855879e-06
1.8067295e-06
1.8590092e-06
1.8995511e-06
1.9654065e-06
2.0555205e-06
2.0987271e-06
2.1741571e-06
2.2723047e-06
2.3665584e-06
2.4014166e-06
2.4687413e-06
2.5320076e-06
2.6151381e-06
2.5015609e-06
4.4715642e-06
1.0685212e-05
8.378833e-06
8.6107107e-06
8.3049713e-06
8.0238352e-06
7.7141956e-06
7.5335127e-06
7.371046e-06
7.3012859e-06
7.1640656e-06
7.0730535e-06
7.0513526e-06
7.046519e-06
7.1411517e-06
7.2459114e-06
7.4324966e-06
7.4488453e-06
7.7334957e-06
7.9615644e-06
8.2458158e-06
8.6870476e-06
8.9278352e-06
9.1822486e-06
9.4569759e-06
9.6914653e-06
9.7597127e-06
9.8698775e-06
9.8566131e-06
9.9026113e-06
9.6022816e-06
2.0806449e-05
8.600763e-05
4.9484367e-05
5.2864463e-05
4.2599113e-05
4.3026545e-05
3.9660292e-05
3.745578e-05
3.6073232e-05
3.5240149e-05
3.4894457e-05
3.449075e-05
3.4197668e-05
3.3855738e-05
3.3567697e-05
3.3470026e-05
3.3477221e-05
3.3413044e-05
3.3382235e-05
3.3359796e-05
3.2991581e-05
3.2510234e-05
3.2463784e-05
3.2052358e-05
3.1814082e-05
3.0942544e-05
3.0982496e-05
3.0248486e-05
3.0280472e-05
2.8761098e-05
2.8562499e-05
2.7328374e-05
1.0900359e-05
3.0416461e-06
1.2178254e-06
8.8688436e-07
8.5466925e-07
1.1896036e-06
1.4111407e-06
1.2332505e-06
1.0062085e-06
9.2325138e-07
1.0528271e-06
1.0005584e-06
8.9082545e-07
8.4018873e-07
9.3538468e-07
1.0299519e-06
1.0030888e-06
9.0762215e-07
8.5038899e-07
8.437541e-07
7.7513549e-07
7.208229e-07
2.9246899e-05
1.1462656e-05
3.5101882e-06
1.4544133e-06
1.0185293e-06
9.2164259e-07
1.2540843e-06
1.6435849e-06
1.488201e-06
1.1845633e-06
1.0149802e-06
1.1763215e-06
1.1660851e-06
1.0956809e-06
9.8956417e-07
1.0389347e-06
1.1700897e-06
1.1498467e-06
1.0827157e-06
9.6205088e-07
9.8115198e-07
9.642621e-07
8.4100447e-07
2.5597341e-05
1.2917222e-05
4.5015877e-06
1.9050966e-06
1.2669705e-06
1.0781949e-06
1.4070289e-06
1.8939098e-06
1.8159826e-06
1.4883902e-06
1.1553818e-06
1.2850932e-06
1.3557509e-06
1.3430416e-06
1.2027172e-06
1.1566373e-06
1.2914153e-06
1.3198336e-06
1.2939471e-06
1.1647513e-06
1.1473368e-06
1.1350401e-06
1.0516771e-06
2.6464509e-05
1.4115977e-05
5.8101731e-06
2.7976495e-06
1.7631729e-06
1.3216581e-06
1.6226629e-06
2.3156962e-06
2.350664e-06
2.1903713e-06
1.5615759e-06
1.5913654e-06
1.7023872e-06
1.6901055e-06
1.6050417e-06
1.4013824e-06
1.464478e-06
1.5837796e-06
1.6542315e-06
1.6029421e-06
1.4364343e-06
1.4144107e-06
1.2925887e-06
2.3127974e-05
1.4620166e-05
6.5514368e-06
3.4779814e-06
2.2547108e-06
1.6351915e-06
1.9124051e-06
2.8022307e-06
2.8748797e-06
2.866294e-06
2.2553477e-06
1.9683121e-06
2.1255053e-06
2.0646483e-06
1.9784833e-06
1.7522128e-06
1.7030265e-06
1.8814976e-06
1.9644658e-06
2.0201566e-06
1.8877178e-06
1.8136421e-06
1.6984483e-06
2.2207643e-05
1.5411765e-05
7.6766242e-06
4.359583e-06
2.8230193e-06
2.0347843e-06
2.2230966e-06
3.2573222e-06
3.4374873e-06
3.4429086e-06
2.9046322e-06
2.3450067e-06
2.4900027e-06
2.4544173e-06
2.3459682e-06
2.1334403e-06
2.0422458e-06
2.2155475e-06
2.3267037e-06
2.3182643e-06
2.1879235e-06
2.0293569e-06
2.0117184e-06
2.0653281e-05
1.6791645e-05
9.7818738e-06
6.2296977e-06
3.9448608e-06
2.8132315e-06
2.8758109e-06
4.2125221e-06
4.5819508e-06
4.404302e-06
3.8743236e-06
2.9404204e-06
3.0075583e-06
3.1055299e-06
2.9960949e-06
2.809167e-06
2.6309059e-06
2.7231013e-06
2.8312295e-06
2.7286312e-06
2.5355044e-06
2.3238901e-06
2.2691777e-06
1.894169e-05
1.7218016e-05
1.229502e-05
9.2311065e-06
6.2232515e-06
4.5392024e-06
4.3160648e-06
6.4007032e-06
7.2048085e-06
6.6836295e-06
6.092501e-06
4.490243e-06
4.1881235e-06
4.4984383e-06
4.5218971e-06
4.3244924e-06
3.8229798e-06
3.7111512e-06
3.9557136e-06
3.8122502e-06
3.4263258e-06
2.9870937e-06
2.7600909e-06
1.8595767e-05
1.7973013e-05
1.5504593e-05
1.3652755e-05
1.0014652e-05
7.2467289e-06
6.2917276e-06
8.9434821e-06
9.9369611e-06
9.1977124e-06
8.8021385e-06
7.4356539e-06
5.9995959e-06
6.2631705e-06
6.2926712e-06
5.7126994e-06
5.2250507e-06
4.959062e-06
5.1359461e-06
5.5308279e-06
5.3798995e-06
4.7468208e-06
4.1572954e-06
1.9899862e-05
1.9975703e-05
2.0036707e-05
1.8699261e-05
1.4874366e-05
1.0481701e-05
8.9208403e-06
1.2466618e-05
1.4242982e-05
1.3571642e-05
1.251399e-05
1.0720191e-05
8.6561579e-06
8.7992198e-06
8.578565e-06
7.5949886e-06
6.4982018e-06
6.0392986e-06
6.1873385e-06
6.8599506e-06
7.0386005e-06
6.5973463e-06
6.0337981e-06
2.2731515e-05
2.3717972e-05
2.4603131e-05
2.3678476e-05
2.1571917e-05
1.6707206e-05
1.4688586e-05
2.0335043e-05
2.3787792e-05
2.3223794e-05
1.965161e-05
1.6272214e-05
1.3221437e-05
1.3294653e-05
1.3172507e-05
1.1640176e-05
8.9415783e-06
7.831088e-06
7.5841689e-06
8.2692857e-06
8.6461778e-06
8.5059125e-06
7.6796868e-06
2.4039909e-05
2.8106815e-05
3.4939459e-05
3.6841256e-05
3.6354922e-05
3.2601121e-05
2.9769036e-05
4.1461746e-05
4.9910251e-05
4.8483483e-05
3.5929945e-05
2.7283779e-05
2.2124248e-05
2.2725745e-05
2.4656377e-05
2.2422288e-05
1.5501577e-05
1.1747469e-05
1.0355482e-05
1.1246187e-05
1.242491e-05
1.2215176e-05
1.034103e-05
2.861084e-05
3.4155461e-05
4.4837793e-05
5.1103933e-05
6.0978818e-05
7.0084075e-05
7.4848333e-05
0.00010518998
0.00011668134
0.00010402793
6.9154202e-05
5.4584534e-05
4.4753568e-05
4.4715284e-05
4.9758196e-05
4.7640618e-05
3.3948601e-05
2.2007248e-05
1.7408903e-05
1.8880051e-05
2.4455053e-05
2.3341988e-05
1.6870154e-05
2.8777002e-05
3.7033706e-05
5.1418375e-05
6.0350675e-05
8.033146e-05
0.0001250374
0.00018493966
0.00026675205
0.00026633174
0.00022427427
0.00014689169
0.00011769804
9.8409605e-05
9.3635885e-05
9.8799325e-05
9.5969319e-05
6.9427892e-05
4.4372005e-05
3.5409418e-05
3.9028436e-05
5.7297967e-05
5.2038652e-05
3.4058267e-05
3.5806583e-05
4.3944434e-05
6.2831884e-05
7.6632411e-05
0.00010937023
0.00020415613
0.00039763368
0.00053055425
0.00048713954
0.00033620186
0.00022298751
0.00020647759
0.00020974983
0.00021103421
0.00021869412
0.00020610792
0.00013475829
8.4063611e-05
7.0554539e-05
7.0570096e-05
9.6673052e-05
8.8018639e-05
5.9392064e-05
3.863448e-05
4.7662683e-05
7.4126845e-05
9.0851725e-05
0.00013149321
0.000263557
0.00061076149
0.00080659728
0.00069998068
0.00041628819
0.00030627942
0.0003042592
0.00040732157
0.00050606706
0.00052452071
0.00043872917
0.00022491489
0.00013177708
0.00011837072
0.00012717574
0.00017213048
0.00015159699
9.1247779e-05
4.555505e-05
5.4813002e-05
8.4623777e-05
0.00010852731
0.00016814275
0.0003683635
0.00083037445
0.0010551929
0.00088982022
0.00056465563
0.0004850187
0.00057388798
0.00091031834
0.0011816292
0.0012101757
0.00093479056
0.00042157297
0.00022359154
0.00021211049
0.00026065178
0.0003721449
0.00027730006
0.00011898731
4.8359957e-05
5.9981837e-05
9.6085011e-05
0.00012610531
0.00019971604
0.00044655252
0.00099489625
0.001252956
0.001053193
0.00072072087
0.00066036032
0.00085792835
0.001389838
0.0017023802
0.0017104568
0.0013512842
0.00064493967
0.00036880208
0.00039228689
0.00064926853
0.00090299774
0.00052303224
0.00017299107
4.7142073e-05
6.0749045e-05
9.9495188e-05
0.00013791799
0.00023019431
0.00052754978
0.0011315583
0.001406882
0.0011773415
0.00087496163
0.00084065816
0.0011509375
0.0018337991
0.002143008
0.0021171994
0.0017015643
0.00095643806
0.00073514178
0.00098641812
0.0018129447
0.00197165
0.00098011276
0.00028750007
4.3368262e-05
5.8625833e-05
9.8004992e-05
0.00014640569
0.00026076293
0.00061796143
0.001274836
0.0015654636
0.0013347974
0.0011213055
0.0011217279
0.0015418061
0.0023055602
0.0025911355
0.002486555
0.0019282762
0.0012653097
0.0012044177
0.0017050668
0.0026302818
0.0024842433
0.0011535934
0.00045274609
4.2280296e-05
5.6218189e-05
9.104686e-05
0.00015180166
0.00030023335
0.00074419906
0.0014317704
0.0017295123
0.0015489718
0.0014124183
0.0015185541
0.0020927359
0.0028537963
0.0030879818
0.0028493795
0.0021037689
0.0015748088
0.0016869886
0.0026465306
0.00343474
0.0026376291
0.0011384748
0.00073470958
4.5118866e-05
5.7469068e-05
8.8599167e-05
0.0001598142
0.00035371514
0.0008889935
0.0015445349
0.0018307991
0.0017748981
0.0017389861
0.0019739698
0.0026758552
0.0032635305
0.0034309191
0.0030708759
0.0023816206
0.0022633103
0.0028387933
0.0039783855
0.0040876238
0.0024741801
0.001379239
0.001235281
5.3610701e-05
6.5170242e-05
9.7382721e-05
0.0001878805
0.00044125611
0.0010121272
0.0015587286
0.0018249303
0.0019080402
0.0020723974
0.002484537
0.0032512308
0.0036097813
0.0036722243
0.0033429576
0.0031228353
0.0034131169
0.0042521165
0.0046266431
0.0038674722
0.00233289
0.0018810424
0.0020452142
7.0369641e-05
8.1639012e-05
0.00012295893
0.0002481644
0.0005666813
0.0011072842
0.0015251464
0.0018152389
0.0020813074
0.002441236
0.0030127965
0.0036755539
0.0039806751
0.0040496676
0.0039940255
0.0040792194
0.0044030262
0.0045605956
0.0042711419
0.0032830883
0.0024744171
0.0022964834
0.0023427678
8.9386213e-05
0.00010275163
0.00016119753
0.00032584082
0.00068553791
0.0011652736
0.0015308635
0.0018902404
0.0022966452
0.0027599343
0.0033882602
0.0039883338
0.0043371193
0.0044783413
0.0045039247
0.0044740539
0.0043811416
0.0041306575
0.0036223723
0.0028282119
0.0024600255
0.0023666186
0.0023048452
9.9699191e-05
0.0001223554
0.0002037706
0.00041077919
0.00081708836
0.0012563792
0.0016510122
0.002102075
0.0025614707
0.0030427656
0.0036205449
0.0041388512
0.0044790787
0.0045881489
0.0044753404
0.0042592239
0.0040020727
0.0036072405
0.0030674762
0.0025791273
0.0023784353
0.0023077024
0.0021873385
9.8288206e-05
0.00013050494
0.00023638902
0.000494412
0.00095010932
0.0013872884
0.0018417855
0.0023662679
0.0028204106
0.0032202355
0.0036370984
0.0039694533
0.0042437814
0.004347229
0.0042093458
0.0039688018
0.0036091419
0.0031244511
0.0027051013
0.0024053505
0.0022616026
0.0021010432
0.0019666096
9.5217739e-05
0.00013959461
0.00027058314
0.0005800729
0.0010515185
0.0015094997
0.0020231362
0.0025574972
0.0029384624
0.0032082589
0.003425238
0.0035756869
0.0038059642
0.0039722213
0.0039452041
0.0036937018
0.0032110597
0.0027456737
0.0024574651
0.0022510623
0.0020230538
0.0018140181
0.0017250963
9.3577369e-05
0.00015593561
0.00032563066
0.00067319059
0.0010995853
0.0015412333
0.0020643239
0.0025613596
0.0028680631
0.0030484847
0.0031636741
0.0032680971
0.0034566543
0.0035939591
0.0035309745
0.0032232895
0.0027442733
0.0024229548
0.0022183933
0.0020036188
0.0017789959
0.0016812014
0.0016736458
9.640382e-05
0.00017721035
0.00038038336
0.00072422723
0.0010895654
0.0014630915
0.0019111055
0.0023656307
0.0027009132
0.0029170613
0.0030189991
0.0030883824
0.0031857863
0.0031895509
0.0029848702
0.0025722802
0.0022128048
0.0020733151
0.0020068915
0.001912305
0.0018172814
0.0018040877
0.0020693584
9.1343743e-05
0.00018418118
0.00040179526
0.00072393528
0.0010489907
0.0013676156
0.0017472976
0.0021514095
0.0025016984
0.0027294413
0.002824347
0.002851459
0.0028849787
0.0028230695
0.002513078
0.0020555927
0.0018504001
0.0018253488
0.0019127111
0.0019813645
0.0020729836
0.0024370193
0.0031128516
8.3272011e-05
0.00017182314
0.0003840613
0.00068796188
0.00099059182
0.0013010615
0.0016538919
0.0020049163
0.0022592485
0.0023936839
0.0024547501
0.0025003076
0.0025372695
0.0024507711
0.0021296723
0.0018257947
0.0017274853
0.0017689677
0.0019315484
0.0021252251
0.00251543
0.0031425015
0.003509284
7.7876678e-05
0.00016017919
0.00035779974
0.00063813484
0.0009235738
0.0012208788
0.0015436621
0.0018406649
0.0020393565
0.0021078261
0.0021010486
0.0020894541
0.0021204536
0.0021165499
0.0019501828
0.0017881583
0.0017434507
0.0018994263
0.0022080019
0.0025254696
0.0028141182
0.003185832
0.003412293
7.6606706e-05
0.00015589369
0.00033595607
0.00056363677
0.00079708674
0.0010468056
0.0013265276
0.0016050479
0.001805781
0.0018718867
0.001858537
0.0018429074
0.0018668437
0.0018659491
0.0017491017
0.0017089381
0.0017984557
0.0021253759
0.0024874183
0.0026897612
0.0028837115
0.0030667694
0.0031320815
7.4720204e-05
0.00015299316
0.00032973272
0.00054278421
0.00074981947
0.0009628531
0.0011917569
0.0014187675
0.0015986161
0.0016899371
0.001705095
0.0016935058
0.0016899984
0.0016580271
0.0015738729
0.0015744627
0.0017551428
0.0021619504
0.0025229793
0.0026817898
0.002771163
0.0028206438
0.0026933145
7.1227124e-05
0.00013223018
0.00028175539
0.00046402669
0.00064462359
0.00082413333
0.0010090821
0.0011884405
0.0013385352
0.0014362186
0.0014814125
0.0015030187
0.0015203337
0.0015203394
0.0014638508
0.001425529
0.0014917323
0.0017532696
0.0021372884
0.0023590761
0.002421688
0.0024032666
0.0022731338
7.0619185e-05
0.00011573817
0.00023915205
0.0003957226
0.00055445953
0.00071386608
0.00087555858
0.0010272144
0.0011493562
0.0012268839
0.0012586906
0.0012733013
0.0012946016
0.0013212535
0.0013231195
0.001292054
0.0012916929
0.0013759669
0.0016048432
0.001815783
0.0019252309
0.0019505818
0.0019079322
7.2575406e-05
0.00010516209
0.00020725191
0.00033895735
0.00047055539
0.00060352295
0.00074212806
0.00087679158
0.00098954455
0.0010626834
0.0010901842
0.0010920695
0.001095644
0.0011120238
0.0011338024
0.0011372644
0.0011347329
0.0011554883
0.0012428552
0.0013921204
0.0014872011
0.0015346866
0.0015592308
7.418377e-05
9.6308231e-05
0.00018090295
0.00029266088
0.00040097902
0.00050872629
0.00062112727
0.00073355577
0.00083477138
0.00091019275
0.00094844824
0.00095713959
0.00095534098
0.00095648544
0.00096410345
0.00097055574
0.00097163858
0.00097842908
0.0010032579
0.0010703523
0.0011444671
0.0011894852
0.0012481555
7.4375044e-05
8.8628627e-05
0.00015917638
0.00025505744
0.00034778523
0.00043868942
0.00053195634
0.00062315868
0.00070418156
0.00076709857
0.00080621497
0.00082422237
0.00082983768
0.00083116622
0.00083239439
0.00083276246
0.00083119712
0.00083037343
0.00083552842
0.00085329695
0.00089379278
0.00092980159
0.00099946457
7.4864271e-05
8.385334e-05
0.00014550748
0.00022674939
0.00030564768
0.0003839412
0.00046379061
0.00054004363
0.00060464162
0.00065110599
0.00067822674
0.00069160738
0.00069943733
0.0007051724
0.00070876007
0.00070923788
0.0007072167
0.00070547977
0.00070735813
0.00071533548
0.00073801488
0.00075841323
0.00080484342
7.6016194e-05
8.1955387e-05
0.00013933997
0.00020814772
0.00027310652
0.00033728094
0.0004026432
0.00046553268
0.00051860891
0.00055516837
0.0005735723
0.00057987298
0.00058249313
0.00058583575
0.00058942133
0.00059304461
0.0005974011
0.00060286241
0.00060827202
0.00061228009
0.00061693249
0.00062131829
0.00064949419
7.4969498e-05
8.1006524e-05
0.00013455514
0.00019478564
0.00024973485
0.00030189633
0.00035319228
0.000402206
0.00044343855
0.00047095408
0.00048302098
0.0004856767
0.00048663565
0.00048995403
0.00049484328
0.00049644626
0.00049412852
0.00048857319
0.00048561325
0.00048806546
0.00050499007
0.00056485391
0.00058008713
7.1817973e-05
8.0150517e-05
0.00012992956
0.00018371194
0.00023224827
0.00027682103
0.00031754976
0.00035328817
0.00038089404
0.00039750182
0.00040420353
0.00040627168
0.00040613647
0.00040332399
0.00039602019
0.00038611625
0.00038126801
0.00038765091
0.000413951
0.00045885853
0.00050934819
0.0006117702
0.00065894405
6.8879843e-05
8.1167648e-05
0.00012820022
0.00017478485
0.00021673747
0.00025417159
0.00028581931
0.00031080251
0.00032805292
0.00033741877
0.00033806406
0.00033118639
0.00031912488
0.00031048625
0.00031076888
0.00032420628
0.00035208681
0.00039107292
0.00045024312
0.00054159731
0.00067230732
0.00084426106
0.00097223007
6.4812809e-05
8.4286893e-05
0.000129007
0.00016906739
0.0002036806
0.00023289101
0.00025621114
0.00027212228
0.00028046064
0.00027984572
0.00027107722
0.00026336202
0.00026681594
0.00028242151
0.00030893819
0.00034880753
0.00041521768
0.00052169578
0.00067306559
0.00083692712
0.00098435091
0.0011015947
0.001195114
5.938645e-05
8.7544317e-05
0.00012965419
0.0001653192
0.00019466532
0.00021764021
0.00023149742
0.00023732778
0.00023473098
0.00022993736
0.00023457774
0.0002507501
0.00027507438
0.00031823362
0.00039234176
0.00051582745
0.00066736167
0.00081814689
0.00094044698
0.001036512
0.0011035859
0.0011479043
0.0011993104
5.4461028e-05
9.0261573e-05
0.00013067451
0.00016379062
0.00018919645
0.00020364544
0.00020853351
0.00020669651
0.00020746407
0.00021984137
0.00024204966
0.00028423846
0.00036003638
0.0004887846
0.00063907107
0.00077447623
0.00088358798
0.0009639287
0.0010141745
0.0010407359
0.0010453655
0.0010298479
0.0010304994
5.3187184e-05
9.7410832e-05
0.0001338795
0.00016405156
0.00018202135
0.00018821277
0.00018868454
0.00019443012
0.0002090942
0.00024030037
0.00030672874
0.00043034458
0.00058456409
0.00071951785
0.00082669888
0.00090099884
0.00094190712
0.00095967655
0.00095348666
0.00091360344
0.0008440669
0.00076659864
0.00073362711
5.0035565e-05
0.00010293623
0.00013908962
0.00016311083
0.00017406711
0.00017876915
0.0001863092
0.00020168536
0.00024268934
0.00033413647
0.00049265621
0.00064699966
0.0007696164
0.00085179612
0.00089268168
0.00090486178
0.00089348192
0.0008462161
0.00076981634
0.00068282512
0.00059568658
0.00050578254
0.00045492528
4.7053058e-05
0.00010909743
0.00014331157
0.00016313391
0.00017222287
0.0001799784
0.00019700481
0.00024522078
0.00035893993
0.00053415359
0.00068528845
0.00079847305
0.00085896721
0.00087767782
0.00086811066
0.00082458803
0.00074406489
0.00065147059
0.0005606049
0.00047656861
0.00040129363
0.0003275143
0.00027296736
4.3881062e-05
0.00011405627
0.00014768141
0.00016459129
0.0001746013
0.00019093639
0.00024014158
0.00036394749
0.00054829845
0.00070655118
0.00081243929
0.00085990093
0.0008669222
0.00084024674
0.00077137476
0.00067323083
0.00057349858
0.00048314913
0.00040686319
0.00034241822
0.00028422012
0.00022584378
0.00017270032
4.2067904e-05
0.00011838498
0.00015233401
0.0001682003
0.00018438884
0.00022762189
0.00034858408
0.00054036096
0.00071143413
0.00082011602
0.00086425271
0.00086692906
0.00082943071
0.00074221405
0.00063061546
0.00052600426
0.00043886786
0.00036987053
0.0003135743
0.00026373251
0.00021624631
0.00016877216
0.00012255569
4.4174968e-05
0.00012994332
0.00016169843
0.00017736432
0.00021348495
0.0003188989
0.00050520251
0.00069332752
0.00081889949
0.00086955925
0.00087419389
0.0008317582
0.00073074112
0.00060691151
0.00049766992
0.00041391388
0.00035200129
0.00030205952
0.00025738196
0.00021485456
0.00017520135
0.00013766581
0.0001001772
4.9077154e-05
0.00013914585
0.00017128699
0.00020005716
0.00027845463
0.00043724174
0.00064003473
0.00080059414
0.00087198517
0.00088514608
0.00084529003
0.00074018235
0.00060656575
0.00049017917
0.00040751467
0.0003500344
0.00030446318
0.00026442909
0.00022649794
0.00018963038
0.00015732931
0.00012768881
9.5501962e-05
5.1765423e-05
0.00014141437
0.00017545871
0.00021665014
0.00032819906
0.00053771634
0.00074692588
0.0008619393
0.00089534016
0.00087243129
0.00077923692
0.00063982657
0.00051047478
0.00042088932
0.0003645528
0.00032090302
0.00028289139
0.00024837063
0.00021551326
0.00018338438
0.00015542644
0.00013211244
0.00010858662
5.8265916e-05
0.00015239974
0.00018387943
0.00024452412
0.00040896921
0.0006457988
0.00082809129
0.00089865239
0.00090343218
0.00083939076
0.00070537362
0.00056380815
0.00045903166
0.00039734491
0.000353471
0.00031460111
0.0002799147
0.00024776463
0.00021723606
0.00018798199
0.0001610772
0.00013974865
0.0001205422
7.2936972e-05
0.00016827136
0.00021166089
0.00031417433
0.00051639446
0.00073823305
0.0008718094
0.00091100669
0.00089214929
0.0007905102
0.00064912349
0.0005243414
0.00044628802
0.00039767489
0.00035800934
0.00032372998
0.00029359071
0.00026547627
0.00023824566
0.00021138538
0.00018375538
0.00015769744
0.0001353649
8.3969931e-05
0.00016729738
0.00022641368
0.00036450958
0.0005810239
0.00078942134
0.00089385907
0.00091768912
0.00087972239
0.00076787746
0.00063108274
0.00052096127
0.00045298115
0.00041471383
0.00038778611
0.00036674506
0.00034641173
0.0003240468
0.00029940372
0.00027302321
0.00024400991
0.00021340261
0.00018155551
8.605105e-05
0.00017308024
0.00023636773
0.00038770957
0.00061006987
0.00080806749
0.00090401312
0.00092380252
0.00088023048
0.00076788706
0.0006337245
0.00053706942
0.00049329845
0.0004743763
0.00046059742
0.00044224805
0.00042436413
0.00040394308
0.0003812184
0.00035708988
0.00033061644
0.00030176611
0.00026997863
0.00010550814
0.00018036455
0.0002458035
0.0004023049
0.00061858477
0.00080745063
0.0009021963
0.00092263285
0.00088203974
0.00077418606
0.00064869506
0.00058115223
0.00055640936
0.00054504861
0.00053413361
0.00051816853
0.0005023857
0.0004847783
0.00046482797
0.00044328813
0.00041954518
0.00039338782
0.00036491704
0.00013418399
0.00017610959
0.00024337859
0.00039974047