/*--------------------------------*- C++ -*----------------------------------*\
| =========                 |                                                 |
| \\      /  F ield         | OpenFOAM: The Open Source CFD Toolbox           |
|  \\    /   O peration     | Version:  2406                                  |
|   \\  /    A nd           | Website:  www.openfoam.com                      |
|    \\/     M anipulation  |                                                 |
\*---------------------------------------------------------------------------*/
FoamFile
{
    version     2.0;
    format      ascii;
    arch        "LSB;label=32;scalar=64";
    class       volScalarField;
    location    "90";
    object      T;
}
// * * * * * * * * * * * * * * * * * * * * * * * * * * * * * * * * * * * * * //

dimensions      [0 0 0 1 0 0 0];

internalField   nonuniform List<scalar> 
20580
(
1.0016696
1.0010678
1.0018384
1.0021785
1.0029185
1.0031051
1.002522
1.0030957
1.0027246
1.0026794
1.003034
1.0030781
1.0027983
1.0029059
1.003213
1.0028328
1.0026291
1.0044914
1.0033113
1.0019928
1.0039661
1.0038328
1.0021463
1.0023524
1.0055703
1.0049501
1.0009476
1.0024485
1.0029511
0.99731564
0.99694276
1.0016289
1.0009377
1.001912
1.002146
1.0027592
1.0031117
1.002609
1.0030683
1.0026065
1.0026004
1.003144
1.0029682
1.0026331
1.0030047
1.003214
1.0023542
1.0029441
1.004876
1.0024163
1.0022006
1.0047873
1.0031595
1.0019052
1.003574
1.0071513
1.0049071
0.99814973
0.99919425
1.0045868
1.002117
0.99584592
1.0018867
1.0012812
1.0021504
1.0021395
1.0025451
1.0028538
1.0027625
1.0028977
1.0026467
1.002629
1.0031428
1.0028965
1.0025089
1.0031374
1.0031486
1.0021207
1.0032345
1.0049173
1.0016981
1.0025856
1.0052513
1.0024181
1.0017085
1.0037379
1.0067705
1.0047484
0.99711303
0.99667277
1.0048495
1.0075325
0.99848289
1.0023622
1.0019699
1.0024249
1.0021781
1.0023285
1.0024439
1.0028979
1.0026745
1.0027396
1.0027295
1.0030216
1.002903
1.002546
1.0032638
1.0030714
1.0022204
1.0034721
1.0045224
1.0014411
1.0030773
1.0052143
1.0017631
1.0018261
1.003577
1.0046533
1.0039544
0.99829202
0.99619484
1.0036513
1.0107394
1.0044012
1.0027945
1.0027133
1.0025682
1.0023845
1.0022449
1.0021653
1.0029323
1.0025222
1.0027347
1.0028255
1.0029142
1.0028335
1.0027758
1.0032514
1.0030326
1.0025759
1.003627
1.0037855
1.0016604
1.0035792
1.0046304
1.0013173
1.0025025
1.0035252
1.0019921
1.0023758
1.0008786
0.99804254
1.0016296
1.009209
1.0092765
1.0029316
1.0031349
1.0024871
1.0026098
1.0022922
1.0021656
1.0028238
1.0025425
1.002699
1.0029285
1.00282
1.0026636
1.00311
1.003089
1.0029065
1.0030069
1.0037586
1.0029275
1.0020771
1.0041755
1.0038297
1.0007964
1.0035566
1.0042518
1.0000497
1.0002567
1.0035633
1.0020814
1.0002895
1.0035766
1.0084929
1.0028695
1.0030528
1.0021642
1.0026892
1.00239
1.0023887
1.0025727
1.0027003
1.0027358
1.003017
1.0026905
1.0025643
1.0033142
1.0028639
1.0026656
1.0033139
1.0038355
1.0021649
1.0025697
1.0046213
1.0030148
1.000483
1.0042545
1.0055322
0.99950231
0.9985337
1.0048569
1.006582
1.0010188
0.99722061
1.00203
1.0026505
1.0025235
1.0017708
1.0026256
1.0025106
1.0027061
1.0023094
1.0027602
1.0028493
1.0029707
1.0025878
1.0025554
1.0033084
1.0027337
1.0024405
1.0034043
1.0037539
1.0016003
1.003122
1.0047082
1.0021934
1.0006616
1.0043133
1.0060957
1.0004863
0.99815411
1.0044414
1.0091598
1.0030336
0.99423085
0.99325898
1.002272
1.00185
1.0016486
1.002444
1.0025961
1.0029146
1.0021884
1.002641
1.0029788
1.0027987
1.0025481
1.0026471
1.0031491
1.0026533
1.0023582
1.0033118
1.0035353
1.0014698
1.0036244
1.0044187
1.0017019
1.0013851
1.0040027
1.005365
1.002132
0.99931655
1.0030441
1.0083347
1.0052839
0.99532074
0.98941243
1.0016672
1.0011462
1.0018132
1.0021179
1.0025465
1.0028358
1.002296
1.0025133
1.0029484
1.0026643
1.0025743
1.0027733
1.0028747
1.0026128
1.0024097
1.003057
1.0031941
1.0017713
1.0039054
1.0037351
1.0015638
1.0025973
1.0035564
1.0033923
1.0032344
1.0018146
1.0021903
1.0043959
1.0055668
0.99971129
0.99279566
1.0012694
1.0006476
1.002084
1.0017226
1.0023726
1.0025366
1.0025509
1.0024911
1.0027198
1.0025899
1.0026362
1.0029263
1.0026143
1.0026233
1.002625
1.0028207
1.0028116
1.0023129
1.0041329
1.0029138
1.0013707
1.0041961
1.003482
1.0008796
1.0029141
1.0047534
1.0025921
1.0000848
1.0021688
1.0044144
1.0012561
1.0014414
1.00084
1.0023215
1.0016157
1.0022407
1.0021649
1.0027682
1.0025556
1.0024042
1.002537
1.0026634
1.0029859
1.0024172
1.0026174
1.0029666
1.0027305
1.0024842
1.0028819
1.0041945
1.0021971
1.0011737
1.0054856
1.0038805
0.99883918
1.0012717
1.0065186
1.0039183
0.99794347
0.99679473
1.0041819
1.0082089
1.0019673
1.0015913
1.0023755
1.001811
1.0021845
1.0019503
1.002839
1.0026963
1.0022114
1.0024516
1.002658
1.0028871
1.0022723
1.0025233
1.003207
1.0027624
1.0021851
1.0033276
1.0039359
1.0015929
1.0011325
1.0057993
1.0043334
0.99798362
0.99969028
1.0061854
1.0054
0.99807694
0.99429079
1.0000285
1.0087279
1.0024885
1.0024094
1.0021277
1.0022205
1.0022123
1.0020365
1.0027162
1.0027834
1.0023394
1.0024032
1.0026721
1.0027325
1.0022571
1.002455
1.0032381
1.0028422
1.002063
1.0036256
1.0034314
1.001398
1.001433
1.005187
1.0043532
0.99881349
0.9995587
1.004442
1.0059277
1.0000782
0.99591781
0.99717416
1.004529
1.0026935
1.0027652
1.0016186
1.0025587
1.0022543
1.0023336
1.0024035
1.0026859
1.0026588
1.0024074
1.0026362
1.0026081
1.0023363
1.0025064
1.0030352
1.0029316
1.0022305
1.0036584
1.0027787
1.0017842
1.0021534
1.0040805
1.0035499
1.0008923
1.0011556
1.0029355
1.0041921
1.0030382
1.0001729
0.99881234
1.0000509
1.0025506
1.0025402
1.0011708
1.0026418
1.0022749
1.0025535
1.0020623
1.0024042
1.0028397
1.00246
1.0025665
1.0025045
1.0025021
1.0026579
1.0026573
1.0029526
1.0025745
1.0035487
1.0020363
1.0023044
1.0033718
1.0030796
1.0017982
1.0028904
1.003813
1.002647
1.0009817
1.0038447
1.0052334
1.0031171
0.99905519
1.0022345
1.001967
1.0011542
1.0023482
1.0022501
1.002643
1.0019648
1.0021716
1.0027666
1.002526
1.0025546
1.0023567
1.0026821
1.0027517
1.0022297
1.0028179
1.0028648
1.0034097
1.0014073
1.0026546
1.0045762
1.0024216
0.99990571
1.003388
1.0062867
1.0028994
0.99801623
1.0009884
1.0071713
1.0070526
1.0009463
1.0017823
1.0013135
1.0016851
1.0018733
1.0022002
1.0025547
1.002201
1.0021657
1.0025164
1.0026546
1.0026366
1.0022348
1.0028115
1.0027773
1.0019992
1.0026222
1.003039
1.0032528
1.001148
1.002748
1.0053014
1.0023488
0.99868685
1.0027197
1.0073243
1.0035235
0.9968272
0.99745802
1.0049699
1.0083021
1.0030723
1.0014886
1.0008815
1.0023981
1.0014835
1.0021112
1.0021795
1.0024768
1.0023552
1.0022103
1.0027448
1.0026302
1.0021826
1.0027648
1.002714
1.002025
1.0024411
1.0030858
1.0030153
1.0012999
1.0026223
1.0051919
1.0025592
0.9990362
1.0018509
1.0065348
1.00387
0.99772093
0.99675123
1.0013041
1.0060448
1.004001
1.0014392
1.0008729
1.002714
1.0014401
1.0020708
1.0019092
1.0025877
1.002511
1.0020268
1.0027411
1.0025125
1.0022481
1.0025612
1.0025382
1.0022305
1.0023589
1.0029348
1.0026511
1.0018652
1.002633
1.0040242
1.0028654
1.0004037
1.002098
1.0046512
1.0036286
1.0001325
0.99911783
1.0002205
1.0025349
1.0033087
1.0016662
1.0012833
1.0024361
1.0017443
1.0021508
1.0019638
1.0025649
1.0025607
1.0021905
1.0026513
1.0024499
1.0024748
1.0023845
1.0022998
1.0025315
1.0024246
1.0027397
1.0021964
1.0026985
1.0027972
1.0024842
1.0025635
1.0024706
1.0032083
1.0026355
1.0017297
1.0027581
1.0029059
1.001787
0.99971951
1.0008262
1.0021553
1.0019509
1.0015808
1.0020559
1.0021032
1.0021208
1.0022077
1.0023131
1.0024202
1.0021981
1.0022759
1.0025887
1.0020925
1.0019235
1.0026311
1.0024267
1.0024986
1.0016161
1.0032562
1.0030436
1.000982
1.0014089
1.0039288
1.0043097
1.0011754
0.99906147
1.0028905
1.0062142
1.0037952
0.99814421
0.99716442
1.0025725
1.0016284
1.0006358
1.0016331
1.0017432
1.0018326
1.0014795
1.0017459
1.0022931
1.001488
1.0018434
1.0023348
1.0016057
1.0013151
1.0024098
1.0022956
1.0021247
1.0009281
1.003131
1.0031383
0.99993001
1.0000133
1.0037068
1.0051444
1.0006679
0.99697822
1.0008635
1.0070501
1.0054699
0.9981488
0.99463963
0.99903117
1.0018553
1.0028839
1.0008508
0.99684044
0.99321226
0.99337563
0.99790791
1.0042533
1.0083826
1.009444
1.0055341
0.99803994
0.99276555
0.99473077
1.0012456
1.0056715
1.0034348
0.99527804
0.98991903
0.99338151
1.0029295
1.0111925
1.0076297
1.0071144
1.0043041
0.99946587
0.99496385
0.9940881
0.99643437
1.0000472
1.0016547
0.99920349
0.99459945
0.99327081
0.99663485
1.0025566
1.008426
1.0112857
1.0086497
0.99826447
0.98626767
0.98304663
0.99022122
1.0020021
1.0104049
0.99822824
0.99845636
1.0001657
1.0029532
1.0056749
1.0071196
1.0089234
1.0059183
0.997947
0.98789667
0.98272315
0.98680966
0.99666766
1.0054388
1.0086722
1.0062132
1.0000551
0.99532521
0.99388954
0.99608441
1.0014113
1.0055952
1.00273
0.98337902
0.98864929
0.99727329
1.0052231
1.0093698
1.0092803
1.0065038
1.0022676
0.99750568
0.99313979
0.99271537
0.99747301
1.0039127
1.0042167
0.99473972
0.98223437
0.97939306
0.98726689
1.0005377
1.0105584
1.0150915
1.0121885
0.99908874
0.99181499
0.99808486
1.0022802
1.0012607
0.994632
0.98688571
0.9844075
0.98795711
0.9960592
1.0046891
1.0094904
1.0127884
1.0122244
1.0036498
0.98777918
0.97232638
0.97015865
0.98157684
0.99753642
1.0073671
1.0064828
0.99924341
0.99205429
1.0115545
1.0104133
1.0048684
0.99528468
0.98295769
0.97279761
0.97228904
0.98137722
0.9951061
1.0052613
1.0069557
1.0030347
0.99917977
0.9966452
0.99373103
0.98811776
0.98599293
0.99327456
1.0010392
0.99811392
0.98133535
0.96706888
0.96956357
1.0017777
1.0017883
1.0010529
0.99704143
0.99012671
0.98539998
0.98786459
0.9965635
1.0025535
0.99933958
0.98448267
0.96903142
0.96702353
0.97611011
0.99199793
1.004887
1.0078036
1.0102732
1.0087943
0.99623721
0.97354221
0.95097812
0.95003343
0.971103
0.9764968
0.98514304
0.99696983
1.0057266
1.0087323
1.0086004
1.0093305
1.0055837
0.99494313
0.97561706
0.95392507
0.94771954
0.9587855
0.98130254
1.0013798
1.0067428
1.0016531
0.99829666
0.9949161
0.98535596
0.96805009
0.9570919
0.95780752
0.96702907
0.98169318
0.99552831
1.0027778
1.0011666
0.99597006
0.9959572
0.99770624
0.99608235
0.98467181
0.9674034
0.95792315
0.96664077
0.98274776
0.99234564
0.98313489
0.96287007
0.95819885
0.9687422
0.98582304
0.99308337
0.98515079
0.97109714
0.98317466
0.99441164
0.99647926
0.98562787
0.96455492
0.94955141
0.95366313
0.96871758
0.98794929
0.99859576
0.9941068
0.98172659
0.98454725
0.99048358
0.98949712
0.96923872
0.93769985
0.91847396
0.92797926
0.95517126
0.9887071
1.0043186
1.0010129
1.0027663
0.99827456
0.9847934
0.96348003
0.93863401
0.92107484
0.92129965
0.93571499
0.96350088
0.99163341
1.0034358
0.9962289
0.9893728
0.98794508
0.98551587
0.96956097
0.93764871
0.90837213
0.90769086
0.92848324
0.96435145
0.98994526
1.0000601
0.99851212
0.99423386
0.98039668
0.95738785
0.92819128
0.90779115
0.90868267
0.92639495
0.95565865
0.98022455
0.98410838
0.97111188
0.95653444
0.96398507
0.97670853
0.9766011
0.95311739
0.91977667
0.90576626
0.92142751
0.95231331
0.97150563
0.95747432
0.96803974
0.98090796
0.98190025
0.96483252
0.9340597
0.90920215
0.90692447
0.92856617
0.95938941
0.97473329
0.96213699
0.92904357
0.9012004
0.91275741
0.94475614
0.97285572
0.97158587
0.94319392
0.9137325
0.92263199
0.94837779
0.96043978
0.90932403
0.92701159
0.9531108
0.97164083
0.96966912
0.94604794
0.91900035
0.91225951
0.93441628
0.95983577
0.96315132
0.9359199
0.8921692
0.85805239
0.86539295
0.90008885
0.94607849
0.97166558
0.95958638
0.928007
0.92551332
0.94392891
0.953024
0.87732849
0.89560821
0.9260419
0.95273926
0.95963757
0.94522035
0.92168125
0.91429205
0.93463174
0.95123286
0.94529645
0.91259539
0.86602346
0.83261379
0.83375542
0.86447987
0.91472381
0.95421018
0.95660291
0.93354754
0.92348217
0.93992586
0.9451711
0.85756204
0.87499142
0.9063559
0.93391058
0.94462483
0.93336927
0.91136492
0.90463775
0.92436868
0.93817138
0.92683831
0.89095062
0.84562207
0.81606489
0.81479721
0.84250256
0.89246668
0.93430681
0.94337973
0.92542117
0.91305444
0.93184798
0.93703681
0.84364394
0.86188601
0.89401587
0.91993686
0.92748872
0.91395777
0.89292083
0.88901291
0.90888614
0.9203817
0.90723426
0.87082385
0.82854351
0.8039406
0.80385862
0.83050027
0.87679342
0.9167979
0.9264233
0.90948079
0.89836094
0.92073458
0.92628408
0.83072282
0.8487344
0.879852
0.90525497
0.91224929
0.89721114
0.87596073
0.87270564
0.89191432
0.90206467
0.88711242
0.851469
0.81369948
0.79286812
0.79451477
0.81951983
0.86311669
0.89998549
0.90753254
0.89220578
0.88659888
0.90991836
0.91377784
0.81466754
0.83325903
0.86501934
0.89120737
0.89835972
0.88355894
0.86241941
0.8585122
0.87604556
0.88373673
0.86703535
0.83178094
0.79775277
0.78054336
0.78455115
0.80998414
0.85076023
0.88299595
0.88974473
0.8815724
0.88167414
0.89964454
0.89761824
0.79771756
0.81734836
0.85045357
0.87857408
0.88557438
0.86966118
0.84772521
0.84335459
0.85892907
0.86406189
0.84626248
0.81203188
0.78144333
0.76648766
0.77467401
0.80214807
0.83978759
0.86743118
0.87365027
0.87133325
0.87694596
0.88824871
0.87732735
0.77825023
0.80022147
0.83636344
0.86747652
0.87352943
0.85377981
0.82906278
0.82512727
0.84064786
0.84382082
0.82454735
0.79133708
0.76486394
0.75375876
0.76696141
0.79707025
0.83253043
0.85430106
0.85863166
0.8591874
0.86861253
0.8736198
0.85260238
0.76441388
0.78912604
0.82860882
0.86098362
0.86102899
0.83184207
0.80333694
0.80200959
0.81969227
0.82382454
0.80565903
0.77445215
0.75267826
0.74722631
0.76782715
0.8005926
0.83041915
0.84125987
0.84159743
0.84408754
0.85461868
0.85195131
0.82239174
0.76455776
0.7909384
0.83056833
0.85246007
0.8398628
0.80016681
0.77131911
0.77517801
0.79630464
0.80516234
0.79309111
0.76792566
0.75099227
0.75529183
0.78266051
0.81087589
0.82359993
0.82167142
0.81766718
0.82528399
0.83471897
0.82660114
0.79838342
0.7771614
0.80168855
0.83240615
0.83678815
0.80759748
0.76429965
0.74221889
0.75253581
0.77561519
0.78743006
0.7834554
0.77213755
0.76789231
0.78383952
0.80523262
0.81229253
0.80509155
0.79417792
0.79191479
0.80380025
0.81223222
0.80501338
0.79222394
0.78954562
0.81130868
0.82753157
0.81649743
0.77662115
0.740681
0.7274545
0.74036069
0.76069285
0.77542265
0.78377682
0.79033833
0.79985859
0.81127395
0.81093732
0.79857717
0.77969426
0.76912232
0.77069707
0.78472706
0.79472589
0.80058035
0.80816145
0.78472289
0.80919442
0.8218069
0.80418163
0.76590326
0.7375047
0.72950782
0.74275448
0.76129188
0.7788321
0.79301662
0.80486989
0.81249357
0.81346657
0.80046491
0.78074436
0.76442467
0.75718413
0.76267144
0.7779388
0.79445943
0.81416971
0.83309696
0.76706333
0.79525666
0.81390163
0.8038624
0.77464463
0.75446289
0.75220436
0.76603629
0.77919748
0.78656465
0.78933558
0.79274153
0.79837863
0.79986737
0.79103232
0.77609588
0.76527829
0.76476392
0.77773344
0.79396507
0.80724808
0.81755076
0.82558095
0.7639012
0.78618763
0.80459082
0.8026462
0.79088692
0.78509543
0.78675185
0.79069168
0.78852917
0.78118217
0.77377968
0.77106788
0.77602572
0.78331591
0.78798664
0.78932335
0.79179227
0.79636447
0.80381941
0.80443039
0.79997545
0.79421365
0.78882667
0.77984353
0.79718194
0.8082412
0.80335746
0.79492045
0.79433602
0.79804782
0.79855974
0.79010757
0.77684197
0.76620532
0.76263586
0.76804721
0.77966351
0.79332379
0.80655742
0.81732633
0.82274421
0.81864079
0.80017933
0.77905988
0.76328918
0.75416324
0.80889168
0.81894602
0.81743297
0.80104866
0.7860562
0.78191725
0.78610374
0.79152647
0.79149323
0.78610034
0.78052838
0.77927386
0.78416072
0.79121186
0.79817028
0.80457629
0.81001153
0.81252228
0.80934933
0.79684871
0.77849014
0.75821006
0.74063232
0.82150134
0.82975316
0.82243133
0.80116916
0.78406409
0.77695789
0.77829599
0.78487103
0.79288866
0.8004245
0.80602605
0.80881935
0.8088016
0.8042577
0.79680814
0.78913491
0.78501695
0.78510914
0.78594459
0.78457199
0.78100729
0.77365885
0.75846005
0.81397868
0.82558588
0.82438539
0.81110133
0.79902998
0.79333464
0.79284251
0.79541092
0.79915174
0.80350909
0.80839106
0.8132819
0.81575504
0.81210934
0.80211591
0.78995292
0.77918563
0.77301565
0.76854887
0.76503048
0.7630011
0.76479756
0.76726359
0.81748418
0.82609149
0.82566112
0.81855742
0.81441595
0.81431221
0.81430512
0.81191975
0.80700189
0.80184963
0.79837181
0.79898197
0.80383998
0.80991979
0.81277154
0.81038373
0.80159531
0.78542519
0.76617792
0.74941755
0.74181395
0.74937605
0.77190373
0.83591703
0.83975017
0.83323915
0.82191422
0.81524651
0.81448996
0.81702816
0.81872031
0.81652288
0.80987937
0.80227606
0.79747506
0.79826263
0.80352541
0.81115207
0.81651174
0.8146457
0.799547
0.77280398
0.7480481
0.74087116
0.75202815
0.7793838
0.84391185
0.84860337
0.84081033
0.82651376
0.81597291
0.81169892
0.81194806
0.81536642
0.8199851
0.8230138
0.82233078
0.81744524
0.81057217
0.80515534
0.80135676
0.79930299
0.7973608
0.79166698
0.77839663
0.76334502
0.75942607
0.7691272
0.78822633
0.84202918
0.84789705
0.84485932
0.83631814
0.82841381
0.82279142
0.81896097
0.81753722
0.81905528
0.82273816
0.82782731
0.83159477
0.83068869
0.82322743
0.81037327
0.79760749
0.78781116
0.78216837
0.78022614
0.77986231
0.78032848
0.78270189
0.78810913
0.84735784
0.8503704
0.84741718
0.84153614
0.83769916
0.83640085
0.83480777
0.8312511
0.82649266
0.82320607
0.82281422
0.82530552
0.82941992
0.83170632
0.82872063
0.81885637
0.80564715
0.79408718
0.7868944
0.78473895
0.78570224
0.78801739
0.78999374
0.86121949
0.86168951
0.85460534
0.84497798
0.83867275
0.83728047
0.83869101
0.83992306
0.83861354
0.83389322
0.82805547
0.82414753
0.82380424
0.8266461
0.83030812
0.83160249
0.82743992
0.81826769
0.80739781
0.79830992
0.79268322
0.79116418
0.79149605
0.86629618
0.86900686
0.8632487
0.85187838
0.84165556
0.83655851
0.83594536
0.8380187
0.84081328
0.84250645
0.84150069
0.83789622
0.83347813
0.83070796
0.83088955
0.83285538
0.83387994
0.83159111
0.82498757
0.81598277
0.80745716
0.80212656
0.79971896
0.86407713
0.86829874
0.86666696
0.8601625
0.85285114
0.84693795
0.84315556
0.84153879
0.84195083
0.84372592
0.8459113
0.84740839
0.84689227
0.84433793
0.84083706
0.83817463
0.83673991
0.83539263
0.83253437
0.82762082
0.8220557
0.81810071
0.81496202
0.86947744
0.87130842
0.86925819
0.86476757
0.86064331
0.85819875
0.85633549
0.85384455
0.85046783
0.8477006
0.84667722
0.847252
0.84863769
0.84961784
0.84901718
0.84705699
0.84460121
0.84239589
0.8404109
0.8380339
0.83538326
0.83378123
0.83119769
0.88021409
0.88067935
0.87529161
0.86745007
0.86161576
0.85901258
0.85874203
0.8590791
0.85853143
0.85627491
0.85307591
0.85088066
0.85041566
0.8511717
0.85221964
0.85273803
0.85243575
0.85175288
0.85109016
0.85032165
0.84911145
0.84828749
0.84550598
0.88172274
0.88406944
0.87972551
0.87183507
0.86459246
0.85988612
0.85850115
0.85938702
0.8611633
0.86237568
0.86228186
0.86119699
0.860084
0.8595257
0.85946919
0.85963905
0.85970133
0.85949004
0.85930891
0.85907532
0.85858787
0.85845048
0.85574536
0.87937739
0.88234238
0.88022929
0.87585907
0.87178293
0.86884091
0.86689032
0.86611225
0.8664638
0.86735507
0.8679524
0.86797676
0.86775885
0.86752329
0.86743367
0.86745512
0.86740239
0.86699816
0.86651014
0.86633932
0.86657182
0.86796967
0.86642146
0.88424492
0.88543876
0.88221734
0.87843561
0.87609857
0.87519485
0.87470035
0.87412471
0.87345456
0.87269836
0.87198904
0.87136591
0.87108828
0.87118064
0.87165177
0.87242885
0.87332521
0.87432857
0.87556283
0.87745189
0.88029433
0.88454854
0.88603844
0.89034686
0.89077391
0.88568277
0.88045002
0.8771782
0.87580234
0.87547295
0.875663
0.87589255
0.87607824
0.8762385
0.87650011
0.87700496
0.87775899
0.87884914
0.88052051
0.88287966
0.88607335
0.8899934
0.89463362
0.90009139
0.9062382
0.91052689
0.88967228
0.89073585
0.88650856
0.88226692
0.87953257
0.87832836
0.8781363
0.87856259
0.87930062
0.88035072
0.88140747
0.88265777
0.88420041
0.88620871
0.88890222
0.89247965
0.89696641
0.90228906
0.90837821
0.91513617
0.92235464
0.92987804
0.93593595
0.88948361
0.89015835
0.88679142
0.88431299
0.88328597
0.8833844
0.88390616
0.88462543
0.88531759
0.88596116
0.8867844
0.88841589
0.89111558
0.89505758
0.9001552
0.9062283
0.91306914
0.92060573
0.92863888
0.9370383
0.94564689
0.95397404
0.96078891
0.89276868
0.89255223
0.88892842
0.88653907
0.88565365
0.88571775
0.88613646
0.88682312
0.88764567
0.88904326
0.8917009
0.89586296
0.9015012
0.9082415
0.91593341
0.92433589
0.93299289
0.94162125
0.95002973
0.95821379
0.96617516
0.97376912
0.98000917
0.89339652
0.8929521
0.88971539
0.8877262
0.88691621
0.8869067
0.88725109
0.88838158
0.89083852
0.89518427
0.90146853
0.90890818
0.91710447
0.92576739
0.93461637
0.94332809
0.95159328
0.95932474
0.96654788
0.97342062
0.98002437
0.98616231
0.99122044
0.89322814
0.89237079
0.88982302
0.88884103
0.88881928
0.88962552
0.8910746
0.89415904
0.89959087
0.90694098
0.9153288
0.92403848
0.93278388
0.94126376
0.94912159
0.95654283
0.96352846
0.97009566
0.97644871
0.98264373
0.98858952
0.99382944
0.99766352
0.89483149
0.89367414
0.89133964
0.890621
0.89088959
0.89235723
0.89546419
0.90128132
0.90917717
0.91793804
0.92704168
0.93591942
0.94429464
0.95194564
0.95889141
0.96559433
0.97211822
0.9784291
0.98443161
0.98986704
0.99458016
0.99822792
1.0005968
0.89583832
0.89401735
0.89195917
0.89144161
0.89236009
0.89532477
0.90105357
0.90940323
0.91885369
0.92849368
0.93801492
0.94674897
0.95440541
0.9611083
0.96719543
0.97310165
0.97905595
0.98485617
0.99010853
0.99430671
0.99748242
0.99934723
1.000397
0.89565533
0.8938427
0.89241221
0.89258294
0.89505594
0.900603
0.90899293
0.91882859
0.92887316
0.93867492
0.94781788
0.9555413
0.96183223
0.96710455
0.97180014
0.97643965
0.98131784
0.98607844
0.99050038
0.99413225
0.99690522
0.99870611
0.99990818
0.89610714
0.8943525
0.89331212
0.89433043
0.89879156
0.90683913
0.91688835
0.92728427
0.93731484
0.9464586
0.95420363
0.96028416
0.96496342
0.96883495
0.97260422
0.97665621
0.98095134
0.98514373
0.98914186
0.99263135
0.99571191
0.9981618
1.000066
0.89739434
0.89478973
0.89387721
0.8957095
0.90209609
0.91208314
0.92319721
0.93402519
0.94392501
0.95214615
0.95834525
0.9627264
0.96582508
0.96866684
0.97183205
0.97513153
0.9786132
0.98210044
0.98554979
0.98891845
0.99224327
0.99527419
0.99786277
0.89723054
0.89487023
0.89434416
0.89748249
0.90581727
0.91713441
0.92872208
0.93959979
0.94893456
0.95591809
0.96053208
0.96341319
0.96540386
0.96718212
0.96899789
0.97092391
0.97308481
0.9755323
0.97828901
0.9815311
0.98515015
0.98893039
0.99250301
0.89666497
0.89514369
0.89558547
0.90084806
0.91081368
0.92260505
0.93402711
0.94423399
0.95229181
0.9577596
0.96089598
0.96265158
0.96394604
0.96500466
0.96592048
0.96681746
0.9677613
0.9689423
0.97057521
0.9730645
0.97610927
0.97970792
0.98344119
0.89706368
0.89544646
0.89670832
0.90346381
0.91442891
0.92628375
0.93756929
0.94728598
0.95437996
0.95870473
0.96088399
0.96193267
0.96261472
0.96319864
0.96377278
0.96419093
0.96434
0.96463116
0.9650256
0.96600639
0.96753075
0.96951923
0.9718958
0.89760452
0.89556116
0.89716433
0.90445964
0.91570682
0.92756456
0.93869422
0.94809411
0.95472355
0.95871751
0.9608032
0.9616784
0.96218781
0.96257411
0.96288626
0.96314087
0.96322103
0.96317547
0.96302097
0.96295865
0.96311964
0.96341768
0.96406366
0.89693677
0.89578343
0.89800385
0.90624743
0.91767904
0.92913517
0.93947478
0.94813781
0.95456303
0.95854699
0.96063789
0.96163987
0.9621253
0.96244738
0.96262022
0.96269049
0.9628476
0.96301819
0.96305726
0.96299954
0.96275665
0.96233067
0.96199835
0.8975598
0.89608445
0.89924516
0.90797282
0.91914235
0.93004709
0.93978858
0.94785505
0.95380952
0.95765514
0.95989667
0.96122082
0.96203938
0.96263665
0.96306102
0.96326747
0.96343629
0.96357764
0.96373351
0.9637444
0.96342807
0.9629235
0.9622899
0.89775298
0.8967745
0.89953339
0.90771723
0.91858082
0.92932888
0.938944
0.94689604
0.95284608
0.95682146
0.95926545
0.960865
0.96205532
0.96304975
0.96386605
0.96444633
0.96486945
0.96512464
0.96532056
0.96532613
0.96507203
0.96454804
0.96390892
0.89815698
0.89716099
0.89915
0.90643354
0.91665495
0.92712657
0.93671187
0.94489511
0.95135306
0.95593753
0.95890921
0.96082669
0.96218304
0.9634205
0.96446672
0.96544026
0.96629472
0.96696953
0.96741779
0.96760777
0.96756169
0.96723179
0.96671311
0.89934693
0.89771848
0.89873678
0.90426656
0.91364644
0.9238666
0.93343862
0.9418378
0.9487565
0.95402863
0.9577135
0.9602108
0.96193944
0.96333072
0.96458082
0.96584711
0.96704378
0.96820687
0.96912596
0.96966427
0.96983683
0.96978623
0.96948533
0.90067549
0.89894835
0.89889782
0.90193629
0.90950133
0.91905805
0.92857906
0.93723831
0.94464162
0.95064089
0.95522851
0.95853541
0.96093277
0.96278239
0.96438154
0.96584742
0.96718672
0.96838578
0.96935542
0.97020992
0.97075511
0.97108367
0.97120674
0.90330725
0.90123619
0.89974142
0.90096593
0.90477846
0.91232891
0.92142064
0.93041385
0.93854225
0.94547432
0.95122989
0.95553056
0.95901915
0.96142789
0.96351325
0.96523972
0.96665632
0.9679209
0.96894922
0.96979896
0.9705648
0.97118861
0.97177856
0.90791054
0.90462304
0.90189431
0.90135683
0.90256689
0.90612396
0.912765
0.92110026
0.92978383
0.9376021
0.9446477
0.95025601
0.95483637
0.95837011
0.96113317
0.96326208
0.96505264
0.96651733
0.9678585
0.96897377
0.97003783
0.9708164
0.97152442
0.91271475
0.90915113
0.90569292
0.90330146
0.9028701
0.90384658
0.90615282
0.91085489
0.91806898
0.92599199
0.93390545
0.94116474
0.94721109
0.95224636
0.95626849
0.95943792
0.96202121
0.96395458
0.96579254
0.96725112
0.96851564
0.96962542
0.97051442
0.91915936
0.91593968
0.911793
0.90819156
0.90561467
0.90447537
0.9049666
0.90586934
0.90835094
0.91294107
0.91917456
0.92662608
0.93379474
0.94064859
0.94664624
0.95149811
0.95563098
0.95883275
0.96151109
0.96376346
0.96546963
0.96708369
0.9686003
0.92833059
0.92579483
0.92139747
0.9170116
0.91302259
0.90939195
0.90730512
0.90645271
0.90679841
0.9077822
0.9094041
0.91293894
0.91778412
0.92363747
0.93014016
0.93658607
0.94251612
0.94769559
0.95207247
0.95584574
0.95877424
0.96137516
0.96437663
0.93729376
0.93641905
0.93311856
0.92896733
0.92435633
0.9191825
0.9150006
0.91163646
0.90931352
0.90862487
0.90880882
0.90949343
0.91051156
0.91230158
0.9153547
0.91982021
0.92479703
0.93027906
0.9354963
0.94046104
0.9451819
0.94924568
0.95462223
0.94630348
0.94667043
0.94552822
0.94311869
0.93896148
0.93339827
0.92813632
0.92286315
0.91805991
0.91476451
0.91219255
0.911196
0.91065246
0.91100671
0.91146061
0.91261456
0.91428772
0.91664849
0.91965135
0.92342804
0.92774973
0.93182685
0.93795723
0.95638949
0.9573151
0.95773396
0.95717804
0.95483174
0.95121217
0.94677226
0.94075896
0.93459272
0.9289708
0.92325774
0.91954135
0.91637439
0.91411713
0.91306035
0.91258981
0.91330177
0.91369283
0.91417347
0.91538899
0.9168912
0.91911191
0.92260043
0.96362789
0.96417086
0.9638237
0.96317187
0.96184288
0.9608288
0.95952113
0.95662357
0.95310819
0.94859252
0.94250941
0.93717992
0.9316012
0.92595151
0.92210143
0.91844513
0.91693408
0.91584891
0.91505459
0.91525611
0.91529433
0.91620089
0.91699553
0.96605943
0.9648941
0.96370495
0.96271583
0.96168691
0.96123116
0.96096524
0.96016587
0.95963307
0.95874839
0.95642552
0.95384158
0.94981752
0.94456299
0.93976809
0.93400889
0.92928785
0.92530632
0.92194169
0.91979489
0.91810221
0.91777618
0.91718647
0.96562564
0.96404294
0.96210601
0.96079402
0.95987037
0.95952792
0.95968081
0.95934657
0.95925069
0.95895912
0.95818562
0.95798824
0.95708977
0.95522682
0.95317368
0.94975088
0.945589
0.94095002
0.93596787
0.93175426
0.92780798
0.92529118
0.92161548
0.96486584
0.96354532
0.96167847
0.96040018
0.9593098
0.95858201
0.95829735
0.95809677
0.95777964
0.95732955
0.95693561
0.956997
0.95689998
0.95584747
0.955159
0.9540747
0.95280924
0.95085833
0.94775467
0.94430269
0.94024766
0.93685754
0.93179875
0.96541918
0.96407908
0.96249179
0.96164351
0.96056729
0.95982012
0.95946563
0.95884136
0.95809577
0.95715897
0.95645368
0.95600866
0.95561718
0.95497538
0.95415754
0.95339552
0.95287114
0.9520329
0.95036119
0.94854482
0.94637486
0.9442284
0.94118883
0.96729628
0.96599895
0.96522661
0.96535452
0.96529712
0.96503718
0.96502253
0.96446421
0.96370965
0.96240234
0.96108059
0.95989933
0.95849242
0.95731886
0.9557614
0.9545672
0.95356857
0.95271507
0.95148843
0.94997907
0.94850508
0.94753193
0.94345592
0.97037651
0.96912644
0.96922423
0.97024632
0.97154228
0.97276785
0.97406377
0.97478642
0.97502826
0.97477716
0.97427342
0.9736326
0.97223759
0.97044434
0.96818101
0.96600827
0.96384395
0.96161386
0.95940516
0.95732487
0.95529743
0.95388544
0.95014663
0.97375298
0.97277864
0.97392817
0.97548679
0.97728836
0.97914353
0.98117226
0.98310957
0.98457154
0.98565779
0.98662362
0.98745218
0.98780266
0.98754063
0.98672213
0.98568884
0.98426704
0.98224868
0.97987588
0.977209
0.97458968
0.97217547
0.96863731
0.97748075
0.97679316
0.97839883
0.98020271
0.98226874
0.98431477
0.98626827
0.98812484
0.98987938
0.99137212
0.99252944
0.99348765
0.9944892
0.99513583
0.99533756
0.99558944
0.99568484
0.99544723
0.99472645
0.99375259
0.99275613
0.991717
0.98959953
0.97991869
0.98027411
0.98241596
0.98440333
0.98655124
0.98862979
0.99050863
0.99208375
0.993393
0.99437507
0.99525864
0.99635026
0.99708821
0.9970703
0.99706993
0.99756639
0.998283
0.9984257
0.99802913
0.99765725
0.99792574
0.9982333
0.99786489
0.9812016
0.9826258
0.98530505
0.98792282
0.99041379
0.9924146
0.99379039
0.99491294
0.99609585
0.99711696
0.99728124
0.99699643
0.99742387
0.99833767
0.9985801
0.99794782
0.99786023
0.99861933
0.99901419
0.99850275
0.99825251
0.99882962
0.99918101
0.98346578
0.98562291
0.98903493
0.99176119
0.99358197
0.99519076
0.99673293
0.99760524
0.99741814
0.99714026
0.99773335
0.99850748
0.99837942
0.99790443
0.99812132
0.99869725
0.99866869
0.99829716
0.99855198
0.99894822
0.99872441
0.99854475
0.99908754
0.98853524
0.9903334
0.99285147
0.99524306
0.99694881
0.99759402
0.99760051
0.9977571
0.99803719
0.99798692
0.99788296
0.99827462
0.99869817
0.99852519
0.99807512
0.998238
0.99880109
0.99875474
0.99841387
0.99865829
0.99918434
0.99887444
0.99834709
0.99253017
0.99533281
0.99631702
0.99681832
0.99768647
0.99844982
0.99827213
0.997542
0.99755633
0.99837375
0.99876782
0.99832559
0.99800477
0.99841141
0.99874173
0.99849654
0.99841756
0.99884129
0.99899881
0.99871478
0.99859786
0.99860501
0.99880716
0.99472035
0.99717085
0.99825968
0.99793363
0.99719396
0.99723283
0.99812645