/*--------------------------------*- C++ -*----------------------------------*\
| =========                 |                                                 |
| \\      /  F ield         | OpenFOAM: The Open Source CFD Toolbox           |
|  \\    /   O peration     | Version:  2406                                  |
|   \\  /    A nd           | Website:  www.openfoam.com                      |
|    \\/     M anipulation  |                                                 |
\*---------------------------------------------------------------------------*/
FoamFile
{
    version     2.0;
    format      ascii;
    arch        "LSB;label=32;scalar=64";
    class       volScalarField;
    location    "60";
    object      nut;
}
// * * * * * * * * * * * * * * * * * * * * * * * * * * * * * * * * * * * * * //

dimensions      [0 2 -1 0 0 0 0];

internalField   nonuniform List<scalar> 
20580
(
8.9183465e-07
8.7034808e-07
8.623774e-07
8.6476855e-07
8.614377e-07
8.5515231e-07
8.489791e-07
8.4326851e-07
8.336742e-07
8.2548984e-07
8.1571282e-07
8.0887645e-07
8.0123203e-07
7.9709462e-07
7.8854674e-07
7.8433937e-07
7.7880588e-07
7.7618253e-07
7.7257449e-07
7.7782465e-07
7.7930813e-07
7.8420011e-07
7.8182127e-07
7.9017388e-07
8.0053769e-07
8.1323677e-07
8.2823098e-07
8.4036624e-07
8.5585324e-07
8.8369478e-07
9.2809544e-07
8.9156159e-07
8.9149685e-07
8.7148187e-07
8.6687619e-07
8.6170304e-07
8.5452778e-07
8.5004265e-07
8.4571675e-07
8.3612306e-07
8.2929365e-07
8.1948705e-07
8.1150497e-07
8.0420619e-07
7.9864252e-07
7.9027529e-07
7.8503967e-07
7.7964639e-07
7.7624053e-07
7.7368824e-07
7.7678806e-07
7.8214539e-07
7.8793709e-07
7.8800515e-07
7.9572043e-07
8.0425455e-07
8.1815566e-07
8.3635531e-07
8.5648143e-07
8.6654431e-07
8.8968512e-07
9.3082155e-07
8.9142041e-07
9.0231675e-07
8.7949798e-07
8.7202741e-07
8.6312934e-07
8.5426369e-07
8.4867071e-07
8.4453518e-07
8.3585514e-07
8.2904872e-07
8.2105517e-07
8.1250222e-07
8.0575811e-07
8.0101159e-07
7.9128115e-07
7.8739342e-07
7.8090234e-07
7.7690837e-07
7.7521093e-07
7.7474233e-07
7.8051935e-07
7.866479e-07
7.8869779e-07
7.9467022e-07
8.0237484e-07
8.1553226e-07
8.3291116e-07
8.530444e-07
8.6771557e-07
8.8741451e-07
9.2784121e-07
8.9241723e-07
9.0555983e-07
8.8687299e-07
8.7859648e-07
8.6751448e-07
8.5667482e-07
8.4966316e-07
8.4417804e-07
8.3427874e-07
8.2801586e-07
8.1925869e-07
8.1254363e-07
8.0532339e-07
8.0112628e-07
7.9305502e-07
7.877323e-07
7.8336355e-07
7.7725595e-07
7.7805453e-07
7.7430076e-07
7.7810783e-07
7.8585455e-07
7.8850861e-07
7.9249294e-07
8.0172766e-07
8.1185575e-07
8.2944489e-07
8.4513288e-07
8.6128644e-07
8.7537888e-07
9.1220828e-07
8.9322548e-07
9.0938361e-07
9.0117063e-07
8.9294751e-07
8.7877059e-07
8.6452915e-07
8.5464664e-07
8.4719485e-07
8.3624301e-07
8.2812925e-07
8.1854091e-07
8.120238e-07
8.0448977e-07
8.0059234e-07
7.9322081e-07
7.8877433e-07
7.8340276e-07
7.7903708e-07
7.7949227e-07
7.7566162e-07
7.7808312e-07
7.8509347e-07
7.9095317e-07
7.9065346e-07
8.0294373e-07
8.1027646e-07
8.2735416e-07
8.4818057e-07
8.6288509e-07
8.7513927e-07
8.947431e-07
8.9269062e-07
9.1480065e-07
9.1322853e-07
9.1747455e-07
9.0589469e-07
8.8473202e-07
8.6807537e-07
8.5603249e-07
8.4267999e-07
8.3162394e-07
8.2129111e-07
8.131094e-07
8.0567186e-07
7.9947791e-07
7.934435e-07
7.8799004e-07
7.8283661e-07
7.779568e-07
7.8107283e-07
7.7451198e-07
7.7941027e-07
7.854508e-07
7.9056587e-07
7.9078571e-07
8.030332e-07
8.1044258e-07
8.2258091e-07
8.5048506e-07
8.6729937e-07
8.9413629e-07
9.0379779e-07
8.9123996e-07
9.1858971e-07
9.1598976e-07
9.2572042e-07
9.2567205e-07
9.1646516e-07
9.0382033e-07
8.8636677e-07
8.6840987e-07
8.4771246e-07
8.3286666e-07
8.2035807e-07
8.1121803e-07
8.0282062e-07
7.9566388e-07
7.895304e-07
7.8341229e-07
7.7841124e-07
7.8039542e-07
7.7482195e-07
7.7779214e-07
7.8427167e-07
7.8782179e-07
7.8952592e-07
7.9715076e-07
8.0758456e-07
8.1424097e-07
8.3657576e-07
8.6464417e-07
8.9329938e-07
9.1973382e-07
8.9092987e-07
9.1737894e-07
9.1705595e-07
9.2809629e-07
9.2839269e-07
9.2680187e-07
9.2752222e-07
9.1897984e-07
9.0646834e-07
8.87603e-07
8.6777034e-07
8.4595047e-07
8.3096681e-07
8.1522985e-07
8.0455177e-07
7.9517394e-07
7.8773749e-07
7.8208844e-07
7.8123164e-07
7.7713362e-07
7.7801426e-07
7.8278443e-07
7.8714159e-07
7.9059689e-07
7.9460926e-07
8.018432e-07
8.0774098e-07
8.1670504e-07
8.4075646e-07
8.6725297e-07
9.1124665e-07
8.9679852e-07
9.1981693e-07
9.1932297e-07
9.2393058e-07
9.2608086e-07
9.266084e-07
9.2843275e-07
9.2346433e-07
9.1257917e-07
9.0156302e-07
8.8881627e-07
8.7504303e-07
8.6321215e-07
8.4857225e-07
8.3617564e-07
8.1995321e-07
8.0895167e-07
7.9862896e-07
7.8958457e-07
7.8413369e-07
7.8145238e-07
7.8260358e-07
7.8928888e-07
7.9296965e-07
7.9600093e-07
8.0103452e-07
8.0890321e-07
8.1601286e-07
8.3092251e-07
8.5160933e-07
8.7944398e-07
9.1842578e-07
1.013616e-06
9.7072641e-07
9.5491368e-07
9.4201002e-07
9.3370237e-07
9.2873538e-07
9.2195214e-07
9.1067093e-07
8.9939679e-07
8.8791408e-07
8.7828211e-07
8.682389e-07
8.6024583e-07
8.5187604e-07
8.42232e-07
8.3208545e-07
8.2525747e-07
8.1550514e-07
8.1078055e-07
8.0509451e-07
7.987089e-07
8.0095492e-07
8.0569943e-07
8.1173379e-07
8.1209126e-07
8.1863701e-07
8.251407e-07
8.3617189e-07
8.5483649e-07
8.7953989e-07
1.0814896e-06
1.2102948e-06
1.2240994e-06
1.1682176e-06
1.0791522e-06
1.0209969e-06
9.8382898e-07
9.5635077e-07
9.3158091e-07
9.1061334e-07
8.9449962e-07
8.8318751e-07
8.7316389e-07
8.6537277e-07
8.5609944e-07
8.4798061e-07
8.3854792e-07
8.3231098e-07
8.2489865e-07
8.2056319e-07
8.1859945e-07
8.1449573e-07
8.1832971e-07
8.2176292e-07
8.2692403e-07
8.2958418e-07
8.400922e-07
8.4704264e-07
8.5827285e-07
8.7822845e-07
9.0456757e-07
8.9528196e-07
1.0592449e-06
1.2177426e-06
1.2902974e-06
1.3104987e-06
1.2937263e-06
1.2451637e-06
1.1816554e-06
1.1113731e-06
1.0360304e-06
9.7718138e-07
9.3867876e-07
9.116419e-07
8.9415985e-07
8.7792691e-07
8.6563932e-07
8.5371853e-07
8.4442442e-07
8.3764367e-07
8.3297366e-07
8.3102107e-07
8.2454208e-07
8.2812194e-07
8.3175931e-07
8.354269e-07
8.3543452e-07
8.4554589e-07
8.5230123e-07
8.6058896e-07
8.736546e-07
9.0353554e-07
8.8844841e-07
9.5667448e-07
1.0594906e-06
1.1443946e-06
1.2165379e-06
1.2579942e-06
1.277689e-06
1.268023e-06
1.2347081e-06
1.2021073e-06
1.1653659e-06
1.1322204e-06
1.0967446e-06
1.0643508e-06
1.0319539e-06
9.9935532e-07
9.7485676e-07
9.4328752e-07
9.1945137e-07
9.0094266e-07
8.8742749e-07
8.6915653e-07
8.6273253e-07
8.6071478e-07
8.5869971e-07
8.5315309e-07
8.5179482e-07
8.6095672e-07
8.6667963e-07
8.7281728e-07
8.868547e-07
9.490431e-07
1.0510005e-06
1.0638536e-06
1.0924646e-06
1.0938156e-06
1.1165939e-06
1.1319176e-06
1.1320215e-06
1.1253128e-06
1.1183734e-06
1.12543e-06
1.1205779e-06
1.1191363e-06
1.1151383e-06
1.1059761e-06
1.0942493e-06
1.0810735e-06
1.0678927e-06
1.0553314e-06
1.0442882e-06
1.0309971e-06
1.0147407e-06
9.9700953e-07
9.8627404e-07
9.7104801e-07
9.5089119e-07
9.2849101e-07
9.1310969e-07
9.0476536e-07
9.0220019e-07
8.9845889e-07
8.9722574e-07
9.6676652e-07
1.0328522e-06
1.0838772e-06
1.1007514e-06
1.1083561e-06
1.104494e-06
1.0907699e-06
1.0676122e-06
1.0456918e-06
1.0276065e-06
1.0266089e-06
1.0296135e-06
1.0311574e-06
1.0316271e-06
1.0319501e-06
1.0262521e-06
1.0304325e-06
1.0271612e-06
1.0246725e-06
1.0247812e-06
1.0228651e-06
1.0224175e-06
1.0243094e-06
1.0273694e-06
1.0237938e-06
1.0205519e-06
1.0195155e-06
1.0173955e-06
1.0144852e-06
1.0027998e-06
9.5667479e-07
1.0534663e-06
1.0514718e-06
1.0531345e-06
1.0555923e-06
1.0652565e-06
1.0688559e-06
1.0682288e-06
1.0561959e-06
1.040787e-06
1.0253735e-06
1.0152681e-06
1.010142e-06
1.0049937e-06
1.0014164e-06
9.9596864e-07
9.9144184e-07
9.8191717e-07
9.7892983e-07
9.741063e-07
9.7535478e-07
9.7470545e-07
9.8144982e-07
9.8871962e-07
9.9908184e-07
1.0073823e-06
1.0115917e-06
1.0161685e-06
1.0283236e-06
1.0401039e-06
1.0496367e-06
8.5110497e-07
9.1871825e-07
1.0026975e-06
1.0287504e-06
1.038668e-06
1.045127e-06
1.0346399e-06
1.0171622e-06
1.0015384e-06
9.8740007e-07
9.793253e-07
9.7402473e-07
9.7403489e-07
9.7690716e-07
9.8213671e-07
9.8327389e-07
9.8115521e-07
9.7222007e-07
9.7186891e-07
9.6892051e-07
9.6360699e-07
9.59041e-07
9.6236012e-07
9.6103439e-07
9.6531915e-07
9.7261363e-07
9.7580744e-07
9.8035301e-07
9.8939827e-07
1.0034376e-06
1.0255158e-06
8.8159616e-07
9.5931148e-07
9.5638009e-07
9.6782922e-07
9.8831778e-07
1.0055773e-06
1.0126316e-06
1.0082701e-06
9.95872e-07
9.8159415e-07
9.6483821e-07
9.4881991e-07
9.3677811e-07
9.2888721e-07
9.2627602e-07
9.2575292e-07
9.1956853e-07
9.161127e-07
9.1883716e-07
9.1660702e-07
9.141893e-07
9.1616542e-07
9.1844508e-07
9.1563579e-07
9.1656069e-07
9.2416636e-07
9.2769426e-07
9.2634145e-07
9.2517282e-07
9.3206401e-07
9.4654469e-07
8.7931584e-07
9.3105382e-07
9.327433e-07
9.5534385e-07
9.5155292e-07
9.4671577e-07
9.504643e-07
9.5421571e-07
9.5401234e-07
9.5027015e-07
9.4573694e-07
9.4103217e-07
9.3615797e-07
9.3482864e-07
9.3264333e-07
9.2920045e-07
9.2421439e-07
9.1987531e-07
9.1683716e-07
9.1198508e-07
9.0662903e-07
9.0758613e-07
9.0833791e-07
9.04203e-07
9.006162e-07
9.0666371e-07
9.1311144e-07
9.163473e-07
9.1836017e-07
9.242929e-07
9.3135624e-07
8.809381e-07
9.3477409e-07
9.3292642e-07
9.5722954e-07
9.6001393e-07
9.5512778e-07
9.5232149e-07
9.5081394e-07
9.5068496e-07
9.5063096e-07
9.5150465e-07
9.5631969e-07
9.6571204e-07
9.7312728e-07
9.8314114e-07
9.9102519e-07
9.9301618e-07
1.0057548e-06
1.0048482e-06
1.0048253e-06
1.0059585e-06
1.0069862e-06
1.0078603e-06
1.0049335e-06
9.9886459e-07
1.002886e-06
6.8208616e-07
9.9657244e-07
9.5947237e-07
1.021271e-06
1.0037139e-06
8.7798635e-07
9.5479669e-07
1.00903e-06
1.1035465e-06
1.1652507e-06
1.2168863e-06
1.2473036e-06
1.2771352e-06
1.3124953e-06
1.3432971e-06
1.3755597e-06
1.4001245e-06
1.4202724e-06
1.4435076e-06
1.4636733e-06
1.4925459e-06
1.5513238e-06
1.5508861e-06
1.5761595e-06
1.6042978e-06
1.6131344e-06
1.6359695e-06
1.1913383e-06
1.6846519e-06
1.6898734e-06
1.7159844e-06
9.2087114e-07
1.0925701e-06
1.8162463e-06
1.8371003e-06
1.7829949e-06
1.0821856e-06
1.7206986e-06
1.9427495e-06
2.21576e-06
2.2215463e-06
2.309429e-06
2.3641432e-06
2.3784859e-06
2.5484854e-06
2.5555538e-06
2.6946569e-06
2.6936598e-06
2.783613e-06
2.8039052e-06
2.821071e-06
2.9274291e-06
3.1169949e-06
3.0406423e-06
2.7925262e-06
3.1279304e-06
3.2014211e-06
3.2328765e-06
2.4662995e-06
3.371094e-06
3.4170567e-06
3.4697694e-06
2.5187904e-06
2.7438562e-06
3.6552786e-06
3.7183155e-06
3.7444719e-06
1.0636432e-06
2.2291228e-06
2.8097835e-06
2.0682206e-06
1.8689752e-06
1.92529e-06
1.8282927e-06
1.8588306e-06
1.9151644e-06
1.7623221e-06
1.9430084e-06
1.819368e-06
2.0497973e-06
1.8279487e-06
2.155424e-06
2.1424664e-06
2.2503524e-06
1.9039537e-06
2.5015186e-06
2.0998899e-06
2.3705843e-06
2.1953342e-06
3.0934136e-06
2.5319613e-06
2.5663632e-06
2.5628088e-06
3.8318591e-06
3.9138912e-06
3.2896686e-06
2.8167001e-06
3.7886912e-06
3.5977921e-06
3.8072381e-06
1.2644196e-06
6.8294231e-07
9.4275669e-07
9.5271512e-07
1.024129e-06
1.0646943e-06
1.0327189e-06
9.3396624e-07
9.1474325e-07
9.292795e-07
9.329826e-07
9.0914403e-07
9.0201573e-07
9.2647129e-07
9.49089e-07
9.4744427e-07
9.3777307e-07
9.465689e-07
9.6836604e-07
9.6751197e-07
9.5433994e-07
2.5830465e-06
2.6586644e-06
1.5957476e-06
1.255479e-06
9.7634622e-07
9.5641782e-07
1.0188242e-06
1.0875464e-06
1.0718672e-06
9.7958222e-07
9.4722738e-07
9.6693496e-07
9.7988512e-07
9.6269115e-07
9.3163306e-07
9.4403915e-07
9.8793084e-07
9.9929536e-07
9.8641833e-07
9.7944301e-07
9.9128488e-07
1.0179806e-06
1.0122455e-06
7.5230064e-07
1.6721914e-06
2.5134917e-06
8.1169536e-07
8.8622165e-07
9.6705007e-07
1.0194212e-06
1.1177783e-06
1.1279632e-06
1.0514461e-06
9.7421751e-07
9.8628107e-07
1.013151e-06
1.0050147e-06
9.7255805e-07
9.7694491e-07
1.017565e-06
1.0338736e-06
1.0263386e-06
1.0139055e-06
1.0214376e-06
1.0533545e-06
1.0599558e-06
7.6804689e-07
1.125732e-06
2.6384826e-06
1.0463895e-06
5.1089962e-07
6.9415884e-07
1.0431665e-06
1.1620183e-06
1.1762567e-06
1.1120837e-06
1.014173e-06
1.0177454e-06
1.0563238e-06
1.0658493e-06
1.0479382e-06
1.028926e-06
1.0476227e-06
1.0923818e-06
1.0897266e-06
1.0711733e-06
1.0674627e-06
1.0949367e-06
1.1105476e-06
1.4770844e-06
3.4201033e-06
2.1721155e-06
6.9265297e-07
6.1953882e-07
1.046612e-06
1.0810884e-06
1.1918648e-06
1.2137549e-06
1.1649081e-06
1.0633133e-06
1.0549543e-06
1.0926267e-06
1.1193268e-06
1.1116688e-06
1.075073e-06
1.0812778e-06
1.1376873e-06
1.1469115e-06
1.1417639e-06
1.1308428e-06
1.1431212e-06
1.1735504e-06
2.4417943e-06
3.6525255e-06
1.9418057e-06
9.733686e-07
7.710638e-07
6.9662896e-07
1.1096723e-06
1.2437556e-06
1.2808123e-06
1.2523066e-06
1.1407586e-06
1.1070374e-06
1.1580499e-06
1.1743479e-06
1.1609774e-06
1.1206444e-06
1.1148109e-06
1.1587068e-06
1.2020211e-06
1.2144764e-06
1.2069871e-06
1.2115987e-06
1.2380942e-06
1.7511687e-06
3.7001718e-06
2.2987993e-06
9.3813959e-07
6.4000535e-07
9.0712716e-07
1.1247731e-06
1.2827783e-06
1.3638029e-06
1.3589443e-06
1.2707185e-06
1.1874224e-06
1.2128097e-06
1.2568372e-06
1.2379773e-06
1.2075784e-06
1.1706448e-06
1.1896397e-06
1.2570022e-06
1.2706968e-06
1.2665654e-06
1.2558465e-06
1.2637759e-06
1.7152793e-06
3.6895884e-06
1.93131e-06
6.6421169e-07
4.3623325e-07
4.7605613e-07
6.6110585e-07
1.317563e-06
1.4426253e-06
1.4399813e-06
1.370356e-06
1.2606612e-06
1.2536681e-06
1.3130226e-06
1.3220131e-06
1.316144e-06
1.2750302e-06
1.2664799e-06
1.3176342e-06
1.3472328e-06
1.3520843e-06
1.346951e-06
1.3391181e-06
6.489965e-07
1.473653e-06
2.7226749e-06
2.7035497e-06
8.2503541e-07
5.7697136e-07
6.7724617e-07
1.3890043e-06
1.5140458e-06
1.5036579e-06
1.4359789e-06
1.3156293e-06
1.2993684e-06
1.3800747e-06
1.407326e-06
1.3986603e-06
1.3754812e-06
1.3567341e-06
1.3982013e-06
1.4244315e-06
1.4126223e-06
1.4005087e-06
1.3973933e-06
1.6982193e-06
3.059916e-06
3.6708186e-06
2.6004061e-06
1.8793692e-06
2.2379887e-06
1.7275198e-06
1.5776901e-06
1.6424139e-06
1.6307445e-06
1.5782528e-06
1.4379845e-06
1.3927624e-06
1.451562e-06
1.4831074e-06
1.4669461e-06
1.4516873e-06
1.442194e-06
1.4563475e-06
1.5154968e-06
1.5231978e-06
1.5089742e-06
1.4943093e-06
3.4841492e-06
7.2442041e-06
9.0440872e-06
8.4321832e-06
4.5588542e-06
2.4050571e-06
1.4482366e-06
1.3886371e-06
1.9486076e-06
1.8931002e-06
1.828937e-06
1.6453679e-06
1.5076851e-06
1.5245893e-06
1.5684516e-06
1.5475136e-06
1.5089774e-06
1.5083662e-06
1.5141835e-06
1.59257e-06
1.6011414e-06
1.5817505e-06
1.5854672e-06
3.2124722e-06
8.6311052e-06
1.0628223e-05
9.5103355e-06
7.722498e-06
3.121073e-06
2.0941133e-06
1.8520153e-06
2.1966605e-06
2.0865019e-06
1.9807334e-06
1.8058834e-06
1.634419e-06
1.6148234e-06
1.6661078e-06
1.6472654e-06
1.5872737e-06
1.5612232e-06
1.5643432e-06
1.6211474e-06
1.665411e-06
1.6665672e-06
1.651186e-06
4.8830037e-06
1.475642e-05
7.3258403e-06
4.6556134e-06
3.7221658e-06
3.8536162e-06
3.0938658e-06
2.3034501e-06
2.3117049e-06
2.2287345e-06
2.0467657e-06
1.9271591e-06
1.7838765e-06
1.7485806e-06
1.8485924e-06
1.8403489e-06
1.7329455e-06
1.6737573e-06
1.6425762e-06
1.6721052e-06
1.805845e-06
1.8286669e-06
1.8046263e-06
4.3280143e-06
1.2445728e-05
7.8216381e-06
4.3985606e-06
2.6177703e-06
1.8135996e-06
1.5400953e-06
1.470488e-06
1.9142613e-06
2.3116641e-06
2.0903106e-06
2.0079433e-06
1.9193999e-06
1.9097991e-06
2.0240658e-06
2.0139442e-06
1.90323e-06
1.8328387e-06
1.7978322e-06
1.79106e-06
1.8947933e-06
1.9087738e-06
1.9078464e-06
3.6320605e-06
9.1891966e-06
7.9217807e-06
7.9949647e-06
3.0187101e-06
1.4552208e-06
1.1303749e-06
1.0644814e-06
1.4105188e-06
2.325415e-06
2.1237489e-06
2.0585628e-06
2.0189402e-06
2.0435997e-06
2.1381169e-06
2.1374184e-06
2.069094e-06
2.0203128e-06
2.0457571e-06
2.0563693e-06
2.0893983e-06
2.0550368e-06
1.9925017e-06
3.1400549e-06
9.578076e-06
8.5013559e-06
7.4008276e-06
3.6071043e-06
1.928483e-06
1.4904589e-06
1.3329676e-06
1.6002355e-06
2.3975144e-06
2.1749655e-06
2.1173142e-06
2.0940178e-06
2.1422249e-06
2.2296075e-06
2.2263394e-06
2.1873695e-06
2.1653533e-06
2.2239324e-06
2.2163433e-06
2.2562018e-06
2.2711793e-06
2.2294838e-06
3.056789e-06
1.2679065e-05
1.0270057e-05
5.2439258e-06
3.4412082e-06
3.5601741e-06
3.8134824e-06
3.3180903e-06
2.734066e-06
2.539306e-06
2.2920515e-06
2.2273817e-06
2.2000573e-06
2.2329836e-06
2.3133133e-06
2.2974344e-06
2.2515654e-06
2.2301585e-06
2.3417222e-06
2.406693e-06
2.5206763e-06
2.4992816e-06
2.3681923e-06
3.988754e-06
2.0137168e-05
1.5316836e-05
9.4544657e-06
6.7944701e-06
8.0986575e-06
7.9923885e-06
5.9835811e-06
4.2741129e-06
3.16662e-06
2.6177148e-06
2.4652212e-06
2.4042989e-06
2.4069665e-06
2.4651037e-06
2.4034567e-06
2.3182503e-06
2.2713404e-06
2.3992102e-06
2.4979331e-06
2.6641421e-06
2.6618848e-06
2.5398709e-06
4.219352e-06
1.6766225e-05
2.0929654e-05
2.0934993e-05
2.0924504e-05
2.091598e-05
1.7071036e-05
1.2393344e-05
8.1394759e-06
5.2956169e-06
3.6250562e-06
3.1100262e-06
2.9664354e-06
2.8962888e-06
2.8463633e-06
2.6116468e-06
2.445695e-06
2.3615901e-06
2.5262531e-06
2.6788867e-06
2.8320377e-06
2.7982969e-06
2.6566036e-06
4.5839402e-06
1.510903e-05
2.2121743e-05
2.8275845e-05
3.1432046e-05
3.0764548e-05
2.6419338e-05
2.1388692e-05
1.509061e-05
9.7427452e-06
6.0463361e-06
4.4768831e-06
3.7959185e-06
3.4788851e-06
3.3409233e-06
3.1178106e-06
2.7953136e-06
2.6712559e-06
2.8579221e-06
2.9412579e-06
3.0399281e-06
3.0340223e-06
2.8411084e-06
4.9109074e-06
1.3093808e-05
2.0944665e-05
2.7276668e-05
3.1460662e-05
3.2902091e-05
2.9108017e-05
2.4108657e-05
1.8093748e-05
1.202255e-05
7.4241366e-06
5.2296843e-06
4.2733186e-06
3.8666447e-06
3.7186594e-06
3.4633103e-06
2.9987122e-06
2.8360974e-06
3.0751509e-06
3.262541e-06
3.3532733e-06
3.249381e-06
2.9249719e-06
4.4507153e-06
1.1584464e-05
1.8676902e-05
2.6201857e-05
3.0616806e-05
3.236997e-05
2.863505e-05
2.3735142e-05
1.7961844e-05
1.2040926e-05
7.4684602e-06
5.3169635e-06
4.4164331e-06
4.0169479e-06
3.8513829e-06
3.5632245e-06
3.1240731e-06
3.085072e-06
3.4913148e-06
3.6715839e-06
3.6680457e-06
3.391016e-06
3.054529e-06
4.2995243e-06
1.1659209e-05
1.8816433e-05
2.4194988e-05
2.7221573e-05
2.7349888e-05
2.3115433e-05
1.911543e-05
1.4378988e-05
9.6087935e-06
6.1309148e-06
4.9547956e-06
4.4791934e-06
4.1097314e-06
3.9654802e-06
3.6247943e-06
3.1955226e-06
3.2228667e-06
3.6522732e-06
3.8971431e-06
3.9129255e-06
3.4876347e-06
3.1891401e-06
4.5198976e-06
1.1661338e-05
1.963484e-05
2.4250188e-05
2.4066009e-05
2.1004886e-05
1.7397822e-05
1.4108438e-05
1.0131754e-05
6.8331099e-06
5.1805998e-06
4.8397111e-06
4.5327017e-06
4.2747505e-06
4.1994103e-06
3.6672552e-06
3.2818124e-06
3.5886745e-06
4.1353736e-06
4.2716396e-06
4.1369076e-06
3.5544788e-06
3.3901751e-06
4.7991732e-06
1.1812403e-05
2.0023975e-05
2.4493754e-05
2.3414025e-05
1.8253087e-05
1.5208694e-05
1.2365044e-05
8.5048122e-06
5.9533013e-06
5.1165372e-06
4.8786795e-06
4.7324148e-06
4.7190668e-06
4.445286e-06
3.7305083e-06
3.4885692e-06
3.8994797e-06
4.4467781e-06
4.5290666e-06
4.1835273e-06
3.6543201e-06
3.6741748e-06
4.711479e-06
1.1559466e-05
2.0034422e-05
2.2375778e-05
1.7794476e-05
1.5834344e-05
1.5431652e-05
1.2608123e-05
8.6632536e-06
6.128467e-06
5.371959e-06
5.4803629e-06
5.5687253e-06
5.409011e-06
4.6570943e-06
3.8874883e-06
3.7868049e-06
4.6249534e-06
4.922339e-06
4.8247641e-06
4.2124829e-06
3.8608657e-06
4.3007259e-06
4.0551058e-06
1.1598348e-05
1.8381661e-05
1.5489995e-05
1.7218535e-05
2.0591945e-05
1.9391007e-05
1.4209648e-05
9.6908565e-06
6.9998259e-06
6.3188793e-06
6.3724919e-06
6.3329361e-06
6.1436736e-06
4.9719538e-06
4.2952478e-06
4.6781271e-06
5.1552856e-06
5.2529603e-06
5.1322985e-06
4.3095675e-06
4.152533e-06
4.7480783e-06
3.2203513e-06
9.3937243e-06
1.7650479e-05
1.5154044e-05
1.858526e-05
2.4741799e-05
1.975038e-05
1.4631181e-05
1.016426e-05
7.5616913e-06
6.8107456e-06
6.7110053e-06
6.9477127e-06
6.7396713e-06
5.3666493e-06
4.8086302e-06
4.9814836e-06
5.6221698e-06
5.7810983e-06
5.2031544e-06
4.5619894e-06
4.9296857e-06
5.4498469e-06
3.3042559e-06
7.1719503e-06
1.3775837e-05
1.9009043e-05
2.169534e-05
2.2326932e-05
1.7828513e-05
1.3306864e-05
9.675031e-06
7.51858e-06
7.0070665e-06
7.215847e-06
7.4408575e-06
6.9802112e-06
5.6412861e-06
5.3085008e-06
5.7960211e-06
6.197229e-06
6.123671e-06
5.3406776e-06
5.0678972e-06
5.5276112e-06
5.8100257e-06
2.2566517e-06
5.0300533e-06
1.0298644e-05
1.3830174e-05
1.5744422e-05
1.4571419e-05
1.232041e-05
1.0161883e-05
8.192074e-06
7.1196004e-06
6.9746334e-06
7.3056083e-06
7.6542975e-06
7.3025752e-06
6.1628587e-06
6.005365e-06
6.1785807e-06
6.6117205e-06
6.4564388e-06
5.6828875e-06
5.6459712e-06
6.2234824e-06
6.3936956e-06
1.1435117e-06
3.1998065e-06
6.7508598e-06
9.3748652e-06
1.0658125e-05
9.7160337e-06
8.482646e-06
7.9790348e-06
7.2582037e-06
6.8120189e-06
6.8325619e-06
7.5508339e-06
7.9940787e-06
7.496003e-06
6.4680755e-06
6.325912e-06
7.0412312e-06
7.3380143e-06
6.6312878e-06
6.0637661e-06
6.2561943e-06
6.726809e-06
6.5030697e-06
1.332728e-06
2.1523429e-06
4.3404741e-06
6.2687808e-06
7.1295139e-06
6.5954888e-06
6.3998893e-06
6.7013525e-06
6.9154851e-06
6.6873344e-06
6.9289588e-06
7.7534951e-06
8.0737075e-06
7.6130943e-06
6.9787953e-06
6.9403297e-06
7.5073895e-06
7.5849102e-06
6.8711012e-06
6.6005991e-06
6.7474542e-06
7.050191e-06
6.6411611e-06
1.5276711e-06
1.6932226e-06
3.1310828e-06
4.6826582e-06
5.3698413e-06
5.2651138e-06
5.6538753e-06
6.348745e-06
7.0218504e-06
6.8667586e-06
7.0043679e-06
7.850347e-06
8.3012139e-06
7.7795991e-06
7.1120082e-06
7.0972698e-06
7.9423623e-06
8.0556877e-06
7.1473953e-06
6.7412947e-06
7.1937937e-06
7.4472628e-06
6.9433475e-06
9.1749131e-07
1.5655618e-06
2.5994413e-06
3.7953589e-06
4.3453747e-06
4.6187614e-06
5.4257922e-06
6.5257628e-06
7.1440903e-06
7.0267367e-06
7.1174769e-06
8.0767712e-06
8.5101667e-06
7.7677055e-06
7.0363756e-06
7.3769369e-06
8.3292141e-06
8.1212195e-06
7.2616206e-06
7.1303412e-06
7.7214884e-06
7.7052964e-06
7.2202745e-06
6.4138337e-07
1.5553223e-06
2.5380022e-06
3.6284485e-06
4.0478536e-06
4.6595475e-06
5.7927559e-06
6.9402011e-06
7.3163331e-06
7.0410171e-06
7.1990505e-06
8.2135688e-06
8.4786244e-06
7.5697743e-06
6.9593602e-06
7.7689713e-06
8.5716086e-06
8.2180298e-06
7.4255546e-06
7.7287952e-06
8.1569855e-06
7.7933711e-06
7.4826254e-06
7.5750133e-07
1.5795889e-06
2.3086133e-06
3.2768482e-06
3.8112818e-06
4.353728e-06
5.529973e-06
7.0077765e-06
7.262905e-06
7.0314131e-06
7.0437327e-06
7.8083564e-06
8.4692361e-06
8.0323303e-06
7.1092539e-06
7.431391e-06
8.4339987e-06
8.3902861e-06
7.6619336e-06
7.6977037e-06
8.1869591e-06
8.1576195e-06
7.7166998e-06
1.1286295e-06
1.6657204e-06
2.1646753e-06
2.9574377e-06
3.6208003e-06
4.1364187e-06
4.8625565e-06
6.334331e-06
6.9898223e-06
6.9064502e-06
6.8691993e-06
7.247296e-06
8.1813518e-06
8.0936423e-06
7.3963673e-06
7.3529632e-06
8.0006375e-06
8.2889424e-06
8.0247415e-06
7.56866e-06
7.7477016e-06
8.1406199e-06
7.9603771e-06
1.4518479e-06
2.0606181e-06
2.0444657e-06
2.7132034e-06
3.4648348e-06
3.957866e-06
4.4276274e-06
5.5283846e-06
6.4859891e-06
6.58854e-06
6.6137705e-06
6.8134628e-06
7.7052201e-06
7.9143104e-06
7.5138498e-06
7.2090151e-06
7.434551e-06
8.0721161e-06
7.9586698e-06
7.5500556e-06
7.5203598e-06
7.8554719e-06
8.0450475e-06
1.2854301e-06
2.7434429e-06
2.1134417e-06
2.6493962e-06
3.3973717e-06
3.9010862e-06
4.3135571e-06
4.9874767e-06
5.9829709e-06
6.1505686e-06
6.2444901e-06
6.35599e-06
6.8594609e-06
7.5468158e-06
7.4173447e-06
6.9980707e-06
7.0309155e-06
7.4511149e-06
7.8217693e-06
7.644318e-06
7.4154797e-06
7.4917029e-06
7.8033453e-06
1.3013813e-06
3.1597443e-06
2.2891866e-06
2.7565245e-06
3.4744929e-06
3.9939899e-06
4.3761878e-06
4.704969e-06
5.4270569e-06
5.603182e-06
5.7089875e-06
5.7746066e-06
6.0316081e-06
6.7165719e-06
7.0557003e-06
6.8281288e-06
6.7096008e-06
6.870515e-06
7.4036786e-06
7.5822475e-06
7.4334334e-06
7.4221087e-06
7.5997571e-06
1.5878866e-06
3.4245473e-06
2.6460926e-06
3.1971899e-06
3.8755066e-06
4.2244505e-06
4.3554316e-06
4.4799444e-06
4.9745789e-06
5.0870011e-06
5.1365771e-06
5.1931443e-06
5.3136084e-06
5.6640748e-06
6.3153581e-06
6.4253603e-06
6.3893137e-06
6.4352441e-06
6.6620176e-06
7.2066195e-06
7.2747446e-06
7.294056e-06
7.3804948e-06
1.8492384e-06
3.7129974e-06
3.3380587e-06
4.0355839e-06
4.5066278e-06
4.3948784e-06
4.3024535e-06
4.3853535e-06
4.7966773e-06
4.8604236e-06
4.8578079e-06
4.8070045e-06
4.8465052e-06
4.9950147e-06
5.4325463e-06
5.7412374e-06
5.7888064e-06
5.8442136e-06
5.9700748e-06
6.2514963e-06
6.7153874e-06
6.8959171e-06
7.2268901e-06
1.7536783e-06
4.0684748e-06
4.5617276e-06
5.2138237e-06
5.0976394e-06
4.5851317e-06
4.4344898e-06
4.4960123e-06
4.7956039e-06
4.8429492e-06
4.8183862e-06
4.6797793e-06
4.6730336e-06
4.7129017e-06
4.8667983e-06
5.1181359e-06
5.2461574e-06
5.3287782e-06
5.4138549e-06
5.5395236e-06
5.8600683e-06
6.1055907e-06
6.7128169e-06
1.4482781e-06
4.2322208e-06
5.1386097e-06
6.1605985e-06
6.0568723e-06
5.0868506e-06
4.6220154e-06
4.614679e-06
4.7957468e-06
4.8046346e-06
4.7700263e-06
4.6227862e-06
4.5930857e-06
4.6110348e-06
4.6757201e-06
4.8434432e-06
4.9278029e-06
5.0291494e-06
5.0646565e-06
5.0917768e-06
5.1922543e-06
5.3584007e-06
5.9162541e-06
1.4200834e-06
4.3810029e-06
5.1558592e-06
5.9370112e-06
6.0442154e-06
5.3140147e-06
4.5793344e-06
4.3984146e-06
4.4040529e-06
4.5098138e-06
4.5592491e-06
4.4603184e-06
4.4320496e-06
4.4454507e-06
4.4890851e-06
4.5412778e-06
4.5866271e-06
4.6891344e-06
4.8218827e-06
4.8864554e-06
4.9103012e-06
4.9798998e-06
5.332241e-06
1.9741424e-06
5.9808975e-06
4.811078e-06
4.93198e-06
5.1668274e-06
4.8411464e-06
4.2414825e-06
3.6477428e-06
3.5353356e-06
3.5893134e-06
3.7712387e-06
3.8873788e-06
3.9276012e-06
4.010628e-06
4.0677589e-06
4.1475919e-06
4.280786e-06
4.3768384e-06
4.5990341e-06
4.6301072e-06
4.744905e-06
4.7744891e-06
4.9467732e-06
2.5383989e-06
6.6946138e-06
4.6517586e-06
4.4483571e-06
4.5730034e-06
4.2715418e-06
3.4320939e-06
2.9613013e-06
2.8816981e-06
2.9451224e-06
3.0390608e-06
3.2385913e-06
3.3111559e-06
3.407876e-06
3.4453059e-06
3.5327101e-06
3.6369252e-06
3.7000856e-06
3.8318554e-06
4.0314535e-06
4.0612561e-06
4.2152874e-06
4.4555955e-06
2.8352819e-06
6.8169493e-06
4.3725789e-06
3.4919785e-06
3.1964414e-06
2.9821842e-06
2.6530873e-06
2.5356078e-06
2.4924951e-06
2.5077911e-06
2.5556456e-06
2.6836847e-06
2.7518157e-06
2.8145099e-06
2.834542e-06
2.8923239e-06
2.9677716e-06
3.1558799e-06
3.324663e-06
3.7476655e-06
3.9177243e-06
4.4387629e-06
2.9493699e-06
3.2141286e-06
6.8433629e-06
3.7899913e-06
2.5896466e-06
2.3891633e-06
2.4228167e-06
2.3487866e-06
2.2606757e-06
2.2293407e-06
2.2552359e-06
2.3720384e-06
2.5177456e-06
2.6507012e-06
2.7765046e-06
2.875297e-06
3.0377157e-06
3.253527e-06
3.6861865e-06
4.1121498e-06
5.2638449e-06
6.0592098e-06
8.0056657e-06
2.4146841e-06
3.5431719e-06
6.7954064e-06
3.3771023e-06
2.1655592e-06
2.0749964e-06
2.151451e-06
2.0893764e-06
2.0653561e-06
2.1210567e-06
2.2744001e-06
2.4739706e-06
2.7196539e-06
3.1329745e-06
3.908235e-06
5.1674998e-06
7.4429053e-06
1.0677981e-05
1.6262101e-05
2.2212744e-05
3.1312233e-05
3.8356097e-05
5.6373784e-05
3.9159997e-05
3.5547566e-06
6.3558449e-06
2.8330252e-06
1.8673517e-06
1.8946814e-06
1.9581594e-06
2.0136719e-06
2.1053352e-06
2.2995622e-06
2.8029112e-06
4.0097316e-06
6.6791994e-06
1.2149058e-05
2.1053322e-05
3.2957982e-05
4.8282217e-05
6.6850596e-05
9.1095513e-05
0.00011865515
0.00014737559
0.00017303174
0.0002036195
0.00021871236
3.4509652e-06
5.2603804e-06
2.330661e-06
1.7420984e-06
1.8859492e-06
2.0358437e-06
2.237756e-06
2.968082e-06
5.2076657e-06
1.0683773e-05
2.164618e-05
3.8934391e-05
6.3639326e-05
9.6821948e-05
0.00013370101
0.00017105798
0.00020584845
0.00023616932
0.00025974767
0.00027841127
0.00029212788
0.00030138328
0.00030867406
3.3867457e-06
4.3165827e-06
1.9636097e-06
1.8158671e-06
2.0727035e-06
2.687971e-06
5.2519061e-06
1.2639579e-05
2.7313292e-05
5.1627026e-05
8.9842265e-05
0.00013635007
0.00018152649
0.00022023047
0.00025159531
0.00027719538
0.0002966309
0.00030923907
0.00031433531
0.00031306761
0.00030655695
0.00029701017
0.00029236798
3.3140372e-06
3.3135778e-06
1.8367268e-06
2.0683626e-06
3.4830142e-06
9.4872132e-06
2.4663575e-05
5.2109539e-05
9.8183017e-05
0.00015072691
0.00019935504
0.00023926639
0.00027169892
0.00029622481
0.00031264514
0.00032077356
0.00032086339
0.00031440442
0.00030246811
0.00028308513
0.00025503392
0.00021653186
0.00017856752
3.1740763e-06
2.6754002e-06
2.1057641e-06
4.13712e-06
1.4360563e-05
3.8243348e-05
8.397163e-05
0.00014363901
0.00019653985
0.00024025818
0.00027553422
0.00030188373
0.00031921224
0.00032679387
0.00032588941
0.00031769538
0.00030287052
0.00027783257
0.0002394416
0.00018675972
0.00012548089
8.0329543e-05
6.1223961e-05
2.9932359e-06
2.5835072e-06
3.7754438e-06
1.708304e-05
4.8404262e-05
0.00011078483
0.00017322375
0.00022439378
0.00026540843
0.00029684872
0.00031874501
0.00032957435
0.00033117149
0.00032424801
0.00031029433
0.00028497337
0.00024473228
0.00019159195
0.00012749394
6.7617288e-05
3.7285145e-05
2.6596729e-05
2.406421e-05
2.7993718e-06
2.9964159e-06
1.3908614e-05
5.2962639e-05
0.00012363404
0.00018722468
0.0002385449
0.00027886889
0.00030869612
0.00032736581
0.0003344763
0.00033233296
0.00032160039
0.00030037184
0.00026388983
0.00021417249
0.00015402108
8.6299634e-05
4.1396371e-05
2.1775694e-05
1.6099103e-05
1.5065802e-05
1.6563161e-05
2.5800013e-06
5.7751568e-06
4.5358649e-05
0.0001239307
0.00018959797
0.00024276906
0.00028407876
0.0003140947
0.0003316417
0.00033763697
0.00033267022
0.00031865234
0.00029051127
0.0002473592
0.00019301213
0.00012899756
6.321185e-05
2.9157593e-05
1.5556981e-05
1.1809336e-05
1.1105033e-05
1.1389777e-05
1.3320359e-05
2.3803476e-06
1.8336054e-05
0.00010393325
0.00018055818
0.00023794581
0.00028227766
0.00031464745
0.00033337544
0.00033964867
0.00033455276
0.00031907668
0.00028699289
0.00024008227
0.00018214514
0.00011525787
5.3403546e-05
2.3982877e-05
1.3159371e-05
1.0116053e-05
9.4964404e-06
9.3996808e-06
9.7083877e-06
1.0489854e-05
2.284544e-06
4.3309767e-05
0.00015144253
0.00022288195
0.00027309585
0.00030998377
0.0003323373
0.0003405668
0.0003376694
0.00032320812
0.00029129193
0.00024431956
0.00018540221
0.00011706136
5.2738237e-05
2.3715549e-05
1.3505277e-05
1.0297183e-05
9.2057639e-06
8.7144216e-06
8.3516587e-06
8.1963073e-06
8.2102177e-06
2.440586e-06