/*--------------------------------*- C++ -*----------------------------------*\
| =========                 |                                                 |
| \\      /  F ield         | OpenFOAM: The Open Source CFD Toolbox           |
|  \\    /   O peration     | Version:  2406                                  |
|   \\  /    A nd           | Website:  www.openfoam.com                      |
|    \\/     M anipulation  |                                                 |
\*---------------------------------------------------------------------------*/
FoamFile
{
    version     2.0;
    format      ascii;
    arch        "LSB;label=32;scalar=64";
    class       surfaceScalarField;
    location    "60";
    object      phi_0;
}
// * * * * * * * * * * * * * * * * * * * * * * * * * * * * * * * * * * * * * //

dimensions      [1 0 -1 0 0 0 0];

oriented        oriented;

internalField   nonuniform List<scalar> 
40800
(
0.00077133814
0.0008793094
-0.0010642901
0.00083533875
0.0010232339
-0.0011801895
0.000892154
0.00098939128
-0.0008689912
0.00094564817
0.00088364213
-0.0009174639
0.00099346009
0.0008963475
-0.0010512146
0.0010448527
0.00079690715
-0.00088567712
0.0010944083
0.00079450467
-0.00082423899
0.0011426046
0.00074954931
-0.00080283467
0.0011903637
0.00073494336
-0.00079719373
0.0012387028
0.0007252782
-0.00075100536
0.0012760693
0.00072136885
-0.00079106794
0.0013297343
0.00072991823
-0.00073955434
0.0013640699
0.0007540454
-0.00082024184
0.001407814
0.00069375922
-0.00071562504
0.0014685912
0.00078202377
-0.00081248404
0.0015023219
0.00083767895
-0.00089804895
0.0015279344
0.00071648127
-0.00077671831
0.001651709
0.00090952775
-0.00091663885
0.0016470201
0.00099817725
-0.00108361
0.0016760178
0.00080774321
-0.00084878207
0.001809031
0.00099868384
-0.00099075065
0.0018720865
0.0011844766
-0.0012265198
0.001881622
0.0011031836
-0.001161795
0.00196945
0.0011471281
-0.0011787897
0.0022027746
0.0013689694
-0.0014256288
0.0022187608
0.0015604357
-0.0016652959
0.0022503436
0.0015950653
-0.00171938
0.0024463395
0.0014744216
-0.0016236697
0.0024870739
0.0014916902
-0.0016860518
0.0025318201
0.0017627503
-0.0018563623
0.0019384553
0.0029069848
-0.0019253651
0.00076674904
0.00070611167
0.00083888102
0.00084081066
0.00089742828
0.0011136533
0.00094926702
0.00086605745
0.00099251963
0.00072883744
0.0010450558
0.0007279437
0.0010928014
0.00076634036
0.0011395727
0.0007090921
0.0011869634
0.00068825436
0.0012333256
0.00071230749
0.0012701802
0.00064242348
0.0013237624
0.00070658516
0.0013530266
0.00068523911
0.0014042896
0.00067331315
0.0014614531
0.00072903975
0.0014804759
0.0007551215
0.0015327409
0.00068366346
0.0016458946
0.000893417
0.0016121467
0.00089069096
0.0016878364
0.00078675157
0.0018227151
0.0010109007
0.0018471581
0.0011392184
0.001874267
0.0010419788
0.0019739576
0.0011401769
0.0022022841
0.0012792502
0.0022077376
0.0013502199
0.0021783579
0.0014064222
0.002395187
0.0013840867
0.0025554337
0.0013683895
0.0025399979
0.0015971521
0.0018984838
0.0026952835
0.00075890256
0.00058687857
0.00083926142
0.00066829051
0.00089910306
0.0011477913
0.00094951616
0.00086839583
0.00099308864
0.00060683595
0.0010474714
0.00069007126
0.001093246
0.00072391732
0.0011383507
0.00068064133
0.0011856808
0.00065553236
0.0012269001
0.00068503074
0.0012663567
0.00059324518
0.001315366
0.0006772051
0.0013442654
0.00062136337
0.001397876
0.00066336927
0.0014506819
0.00068874762
0.001461208
0.00067923884
0.0015373531
0.00067218821
0.0016281245
0.000851446
0.001585727
0.00077671494
0.0017022854
0.00078827555
0.001825518
0.0010077716
0.0018161108
0.0010396397
0.001878951
0.00097203839
0.0019632681
0.0011239534
0.0021571009
0.0012048319
0.0021744166
0.0011372196
0.0021200881
0.0011910007
0.0023298469
0.0013060801
0.0026095649
0.0013294081
0.0026393284
0.0014194135
0.0016998918
0.0025993592
0.00075020644
0.00053144393
0.00083561981
0.00054898787
0.00089414559
0.0010433159
0.00094390567
0.00087120276
0.00099216721
0.00056818604
0.001047095
0.00068013438
0.0010922255
0.00066662645
0.0011373292
0.00064986956
0.0011845061
0.00063047416
0.0012207502
0.00062845389
0.0012654124
0.00057572299
0.0013061915
0.00063018117
0.0013394853
0.00056834556
0.0013906156
0.00063790459
0.0014382742
0.00064370508
0.0014478836
0.00059947888
0.001538646
0.0006812914
0.001602003
0.00080727198
0.0015703426
0.00066150082
0.0017121622
0.00078552882
0.0018084814
0.00097901528
0.0017808844
0.00090500648
0.0018873229
0.00088530668
0.0019512748
0.0010856877
0.0020868705
0.0011466055
0.0021442065
0.00098447696
0.0021027874
0.001028682
0.0022619456
0.0012499557
0.0025798066
0.0013258107
0.0027066065
0.0012809455
0.00142467
0.0026181223
0.00074358455
0.00052172996
0.00082990462
0.00050605821
0.00088491412
0.00082814437
0.00093588724
0.00082020464
0.00099049262
0.00060077013
0.0010435762
0.00067511875
0.0010894347
0.00060559475
0.0011358151
0.0006078299
0.0011818887
0.00059777977
0.0012159298
0.00054815262
0.0012644384
0.00057286315
0.0012974342
0.00056635476
0.0013355989
0.00052617229
0.0013818434
0.00058927534
0.0014239564
0.00060667626
0.0014421144
0.00052725548
0.0015352239
0.00067499595
0.0015693314
0.00074543591
0.0015649649
0.00055911532
0.0017132237
0.00076842812
0.0017736977
0.00091203756
0.0017469672
0.00078985295
0.0018958156
0.00078165885
0.0019424189
0.0010034441
0.0020099691
0.0010989337
0.0021219292
0.00091348166
0.002137389
0.0009334096
0.0022191557
0.0012206726
0.0024761519
0.0013545104
0.0026754793
0.0011822084
0.0011437781
0.0026662432
0.00074029427
0.00053673139
0.0008228652
0.00053204298
0.0008730316
0.00059514031
0.00092442093
0.00070348649
0.00098457827
0.00065356559
0.0010350635
0.00064800547
0.0010825982
0.00054732898
0.0011306644
0.00054574642
0.001175192
0.00055397579
0.0012117282
0.00047395042
0.0012594085
0.00056033375
0.0012893235
0.00050025531
0.0013319559
0.00049352763
0.0013756583
0.00054624538
0.0014099126
0.00056889511
0.0014433848
0.00048979976
0.0015288067
0.00065602252
0.0015358127
0.00067129088
0.001570067
0.00049851572
0.0017075449
0.00074571358
0.0017351699
0.00081944129
0.0017139245
0.00068288748
0.001903617
0.00071390137
0.0019431187
0.00088161203
0.0019419727
0.0010210636
0.0020955404
0.00091673102
0.0022034854
0.00088631375
0.0022326738
0.0011518695
0.0023506176
0.0013607466
0.0025461723
0.0011823608
0.00095622819
0.0026636664
0.00074247349
0.00055510251
0.00081592613
0.00060155265
0.00086028105
0.00045167303
0.00091053728
0.00056419266
0.0009726506
0.00067621569
0.001020954
0.000583812
0.0010696521
0.00049803503
0.0011188777
0.0004769994
0.0011628701
0.00049363158
0.0012064224
0.00043415775
0.0012489922
0.00053166572
0.0012805152
0.00044796919
0.001326771
0.00046319621
0.0013697905
0.0005089304
0.0013975979
0.00051970142
0.0014479192
0.00049007267
0.001519498
0.00061189615
0.0015068625
0.00058691645
0.0015829694
0.00048588118
0.0016953325
0.00071150519
0.0016982843
0.00071041281
0.0016902682
0.00060519921
0.0018967091
0.00070589504
0.0019450893
0.00077052629
0.0018932252
0.00087913296
0.0020572745
0.00092366245
0.0022582946
0.00088839155
0.0022900377
0.0010131908
0.0022706288
0.0012313363
0.0023883019
0.0012077425
0.00094713732
0.0025863044
0.00074854774
0.00054225299
0.00080617645
0.00066586367
0.00084782978
0.00045767407
0.00089661436
0.00044092515
0.00095512506
0.00063922812
0.0010011518
0.00048893603
0.0010512862
0.00046341307
0.0011004842
0.00043364472
0.0011441777
0.00042256721
0.0011955848
0.00042520366
0.0012328414
0.00046718144
0.0012698576
0.00042501062
0.0013179172
0.00044047375
0.0013589957
0.00046738594
0.0013849611
0.00045007609
0.0014456479
0.00048381269
0.0015042381
0.00055348152
0.001484976
0.00050290647
0.0015945063
0.00049820969
0.0016749679
0.0006755851
0.0016678807
0.00059784875
0.00168421
0.00055921636
0.0018708207
0.00073528062
0.0019373692
0.00069787185
0.0018723396
0.0007131831
0.0020032127
0.00087932841
0.0022487821
0.00090852019
0.0023228143
0.00086065571
0.0022548246
0.00096362908
0.0022786851
0.0011104048
0.0010480343
0.0024819312
0.00075799593
0.00047324839
0.00080210758
0.00065810325
0.00084196243
0.00058650092
0.00088633685
0.00036413917
0.00093525476
0.00053630602
0.00097923045
0.00038703687
0.0010281496
0.00043301733
0.0010764763
0.00041406442
0.0011214252
0.00037045325
0.0011748222
0.00042352006
0.0012101242
0.00037663456
0.0012533957
0.00039329089
0.0013024878
0.00041753002
0.0013400525
0.0004139939
0.0013707973
0.0003910991
0.0014333112
0.0004705627
0.0014810813
0.00048761022
0.0014690873
0.00041406358
0.001598164
0.00052792189
0.0016444895
0.00063919123
0.0016457294
0.00049218558
0.0016938465
0.00052293077
0.0018306789
0.00077221189
0.0019139698
0.00066135145
0.0018825343
0.00056681323
0.0019612252
0.00079196848
0.0021741621
0.00090840554
0.0022926295
0.00074349426
0.0022550716
0.000680862
0.002224914
0.0008667883
0.0010757752
0.0023773347
0.00078366406
0.00036087888
0.00080915064
0.00054660155
0.00084659283
0.00072678705
0.00088858472
0.00037371369
0.00092558039
0.00039734617
0.00096895547
0.00032127884
0.0010127016
0.0004036114
0.0010549751
0.00039916242
0.0010992081
0.00034441468
0.0011465697
0.00039850846
0.0011821848
0.00030489049
0.0012278984
0.00034721734
0.0012763054
0.00040424314
0.0013132096
0.00035805993
0.0013526057
0.00035979831
0.0014094037
0.00043629233
0.0014494863
0.00043694424
0.0014571401
0.00034018766
0.0015876615
0.00053341493
0.0016019579
0.00057779043
0.0016255417
0.00041804273
0.0017169311
0.00047047055
0.0017862525
0.00076674545
0.0018636518
0.00065848941
0.0019023943
0.00045932644
0.0019488793
0.0006729227
0.0020711779
0.0008764501
0.0022042436
0.00070562183
0.0022481588
0.00049376861
0.0022444703
0.00059350356
0.0009492719
0.0023165925
0.00086807372
0.00026368291
0.00084375676
0.00039417443
0.00086879352
0.00076893713
0.00090590353
0.0004614252
0.00093184134
0.00027719559
0.00097557759
0.00031108435
0.0010143787
0.00037514473
0.0010516346
0.00036729022
0.001094404
0.00032393323
0.0011320311
0.00034576372
0.0011675523
0.00027170801
0.0012097364
0.00031596487
0.0012491156
0.00036485707
0.0012856687
0.00032389809
0.0013279534
0.00032324572
0.0013781278
0.00037704635
0.0014094328
0.00038521548
0.0014423153
0.00027990947
0.0015597738
0.00050487146
0.0015518924
0.00050643196
0.0015986508
0.00037282971
0.0017348142
0.00042347658
0.0017461813
0.00067908108
0.0017935989
0.00063616362
0.0019135906
0.00042027992
0.0019668462
0.0005502693
0.0019910772
0.00078741658
0.0020823237
0.00073204523
0.0022030358
0.00046419729
0.0022948837
0.00044131738
0.00072037399
0.0023289332
0.00095826371
0.00017616561
0.00092163618
0.00026148737
0.00093101096
0.00066536465
0.00095792281
0.0005499131
0.0009712745
0.00022005751
0.0010052848
0.00034633516
0.0010339278
0.00033721613
0.0010646046
0.00030452248
0.0011030711
0.00030564664
0.0011327641
0.00028566841
0.0011700923
0.00026862019
0.0012077969
0.00028813961
0.001239257
0.00030525994
0.0012745484
0.00029556415
0.0013160974
0.00029743104
0.00136086
0.00033528965
0.0013784632
0.00032511536
0.001437395
0.00026023066
0.0015301514
0.00046999809
0.0015054443
0.00040839802
0.0015670673
0.00034458963
0.0017327936
0.00040433933
0.0017033272
0.00052711585
0.0017156814
0.0005517218
0.001899347
0.00044705141
0.0019867741
0.00045829415
0.0019561255
0.00062939557
0.001981525
0.00071703094
0.002144913
0.00057556774
0.0023269568
0.00045603917
0.00054599368
0.0023925005
0.00096408659
8.6397686e-05
0.00098752745
0.00014895142
0.0010045534
0.00045809539
0.001033969
0.0005644301
0.0010506671
0.00023072669
0.0010749213
0.00039904799
0.0010916712
0.00029807472
0.0011137059
0.00024130315
0.0011426887
0.00028316964
0.0011637752
0.00024858546
0.0011943605
0.00027901449
0.0012231625
0.00025017171
0.0012479855
0.00025834293
0.0012802671
0.00026994447
0.0013194068
0.00028214375
0.0013580681
0.00030408878
0.0013674244
0.00028200312
0.0014471559
0.00027240151
0.0015052999
0.00041486434
0.0014804663
0.00028541037
0.0015486995
0.0003370372
0.0017155748
0.00040986806
0.0016716612
0.00036427351
0.0016551834
0.00041531335
0.0018531261
0.00049615988
0.0019788172
0.00043157589
0.0019440946
0.00044685006
0.0019144925
0.0005891241
0.002074082
0.00068148947
0.0022964584
0.00059114361
0.0004934103
0.0024129597
0.00090329223
6.746728e-05
0.00097755355
0.0001095637
0.0010101328
0.00027009367
0.0010468601
0.00048111032
0.0010863858
0.00027796322
0.0011170753
0.00040256233
0.0011417403
0.00025279459
0.0011711766
0.00020121649
0.0011991034
0.00024553506
0.0012212896
0.00023106449
0.0012452693
0.0002730192
0.0012694658
0.00022060204
0.001289671
0.00022397265
0.001317232
0.00024430492
0.0013504062
0.00025876918
0.0013800095
0.00025660015
0.0013854358
0.00023927769
0.0014742011
0.00028095847
0.0014963187
0.00035598425
0.0014937344
0.00019695166
0.0015535022
0.00033343842
0.0016931207
0.00042910199
0.0016647449
0.00024423521
0.0016462071
0.00026318857
0.0018046634
0.00050867063
0.001945056
0.00046665428
0.0019426269
0.00031401796
0.0019111516
0.00038179147
0.0020135736
0.00065384706
0.002211844
0.00070875714
0.00054100988
0.0023614633
0.00084719264
0.00010814011
0.00092742993
0.00018590422
0.00097636604
0.00022152123
0.0010165571
0.00030654197
0.0010707126
0.00032128635
0.0011038248
0.00032299118
0.0011349332
0.00020590766
0.0011715028
0.00019881147
0.0012048566
0.00020199568
0.0012365033
0.00020228435
0.0012633725
0.00022718885
0.0012962779
0.00021298489
0.0013218463
0.00019181281
0.0013528045
0.00020578319
0.0013856974
0.0002322375
0.0014145043
0.00019659421
0.0014256738
0.00019568376
0.0015168681
0.00030055655
0.0015103808
0.00030288012
0.0015416623
0.00013061281
0.0015915124
0.00030123269
0.0016807458
0.00045628777
0.0016813296
0.00019145342
0.0016965288
0.00015421002
0.0017886954
0.00045638845
0.001894491
0.00051541528
0.0019323858
0.0002528399
0.0019623352
0.00020712887
0.0020099894
0.00047657709
0.0021243403
0.00069958787
0.00059838442
0.0022480791
0.00091224301
0.00017845596
0.00092354808
0.00039080964
0.0009501876
0.00035444204
0.00098036
0.00011476286
0.0010311284
0.00032428495
0.0010606215
0.00020146677
0.0010990063
0.00017149736
0.0011398029
0.00021529355
0.0011771748
0.0001746051
0.0012137284
0.00015881786
0.0012439754
0.00015973664
0.0012808561
0.00020826934
0.0013092569
0.00015444181
0.0013441782
0.00017392132
0.0013743898
0.00021524503
0.0014072486
0.0001498606
0.0014302295
0.00016359823
0.0015166638
0.0003008632
0.0014897547
0.00023801936
0.0015610358
9.9930673e-05
0.0016202128
0.00025277657
0.0016487294
0.00043597638
0.0016761072
0.00018656324
0.0017554368
0.00010940337
0.0018091957
0.00036474158
0.0018374338
0.00050121698
0.0018987639
0.00025794079
0.0020039759
0.00012982181
0.002059488
0.00026835422
0.0020814872
0.00052976016
0.00056226376
0.0021344982
0.0009960215
0.00022372926
0.00097560629
0.00054321979
0.00098206381
0.00053310633
0.0010051943
9.7926154e-06
0.0010369767
0.00027954276
0.0010564129
0.00010237662
0.0010890519
0.00016750969
0.0011195967
0.00022370785
0.0011495684
0.00016923085
0.0011803337
0.00012766533
0.0012113401
0.00010697384
0.0012440272
0.00018855004
0.0012750625
0.00011995769
0.0013131557
0.00014149507
0.0013387593
0.00017883883
0.0013787574
0.00013677994
0.0014122349
0.00013436618
0.0014825076
0.00025360785
0.0014476744
0.00017435872
0.0015514371
0.00013008597
0.0016214492
0.00020897524
0.0015929553
0.00033101999
0.0016422033
0.00020341911
0.0017800205
0.00012306163
0.0018223942
0.00027096066
0.0017775535
0.00038734016
0.0018475106
0.00028296233
0.0020054465
0.00013992441
0.002103158
0.00016443054
0.0020748656
0.00028714891
0.00040678116
0.0020548118
0.00097311836
0.00013945693
0.001012146
0.00047157769
0.001020658
0.00058987654
0.0010525109
2.138573e-05
0.0010698688
0.00020086385
0.0010867725
5.4239436e-05
0.0011135464
0.00016253057
0.0011333758
0.00019182886
0.0011561646
0.00015563023
0.0011808285
0.00011280481
0.0012103879
9.062743e-05
0.0012306359
0.00015098984
0.0012587909
0.00010951237
0.0012917459
0.00011842553
0.0013073016
0.0001367737
0.0013457458
0.00013742438
0.0013821444
0.00010583445
0.0014322481
0.00018934268
0.0014022517
0.00010489273
0.0015125283
0.00017568029
0.0015860558
0.00017361377
0.0015273687
0.00017038163
0.0015835112
0.00020548206
0.0017557885
0.00018591505
0.0017938415
0.00019194789
0.0017135488
0.00020334725
0.0017694968
0.00026101981
0.0019529268
0.00022959637
0.002078541
0.0001647146
0.0020556787
0.00012508746
0.00018566173
0.0019924948
0.00091237069
-2.8550128e-05
0.00097636375
0.00023119432
0.0010016346
0.0004609751
0.001050859
0.00011832798
0.0010712559
9.9619083e-05
0.0011064703
0.00010150871
0.0011370704
0.00013731261
0.0011605158
0.00012471666
0.0011841454
0.00011911797
0.0012066275
0.00010603864
0.0012345238
0.00010690328
0.0012447935
0.00010218017
0.0012713491
0.00011416383
0.0012989059
0.00011197658
0.001311115
9.5014407e-05
0.0013427079
0.00012912517
0.001381
8.1003052e-05
0.0014121268
0.00012709325
0.0013996072
2.8251922e-05
0.0014924935
0.00019900685
0.0015591164
0.00015368142
0.0015079676
2.7304795e-05
0.0015505426
0.00015510763
0.0017179006
0.00025619453
0.0017528722
0.00014001433
0.0016860754
3.1456688e-05
0.001720635
0.00015207088
0.0018870891
0.00031299735
0.0020115065
0.00024272841
0.0020167536
7.0614577e-05
2.6827756e-05
0.0019661564
0.00092790862
-0.00019688181
0.00097918468
-3.4201793e-05
0.00099396351
0.00025589876
0.0010458147
0.00025676286
0.0010676004
1.9725623e-05
0.0011079045
0.00017857172
0.0011390044
0.00010145324
0.0011652902
5.7602987e-05
0.001193826
6.8889356e-05
0.0012217848
9.0237178e-05
0.0012505877
0.00011502277
0.0012630898
4.5230618e-05
0.0012908511
0.00010799235
0.0013185208
0.00010560946
0.0013306689
5.5396221e-05
0.0013538933
0.00011009553
0.0013980136
5.7270803e-05
0.0014117392
8.0607964e-05
0.001429393
-2.083884e-05
0.0014932681
0.00020642484
0.0015416713
0.00016330134
0.00152634
-5.9131581e-05
0.0015597609
6.1380898e-05
0.0016836545
0.00028303288
0.0017131489
0.00012767011
0.001689656
-7.8886488e-05
0.0017336607
1.375282e-05
0.0018435457
0.00030068034
0.0019314024
0.00032539869
0.00196123
9.6288471e-05
-3.2455837e-05
0.0019693833
0.0010095441
-0.00029271603
0.0010249553
-0.00018552332
0.0010303123
9.9633965e-05
0.0010763545
0.00031062195
0.0010978581
-7.7755862e-06
0.0011300495
0.00022151217
0.0011553928
6.6991345e-05
0.0011818625
1.8762315e-05
0.0012108512
2.1774592e-05
0.0012406404
7.3657792e-05
0.0012659838
9.4939939e-05
0.0012855576
-5.360597e-06
0.0013153178
8.2493499e-05
0.0013374503
9.5886661e-05
0.0013609237
2.6240476e-05
0.0013791436
6.9751834e-05
0.0014284802
3.4822143e-05
0.0014278937
5.0262564e-05
0.0014815714
-3.7041668e-05
0.0015150869
0.00016243047
0.0015287453
0.00016079368
0.0015603336
-8.0145284e-05
0.0016093185
-1.2448477e-05
0.0016697699
0.00022523169
0.0016748339
0.00013552876
0.0017037469
-0.00010183858
0.0018004302
-7.3634983e-05
0.0018563881
0.00018627559
0.0018780758
0.00030844429
0.0019117706
0.00014182782
-2.7508126e-05
0.0019856808
0.0010255838
-0.00027778794
0.0010227835
-0.00011853881
0.0010406496
0.00012255971
0.0010850728
0.00019710585
0.0011247928
-1.4057882e-05
0.0011535354
0.00018562291
0.0011866505
3.0894288e-05
0.0012110899
1.6484804e-05
0.0012487877
-8.2027744e-06
0.0012800158
4.8075077e-05
0.0013008339
5.0800833e-05
0.0013334048
-2.1798782e-05
0.0013597547
5.137547e-05
0.0013865876
5.7438552e-05
0.0014084493
2.1218279e-05
0.001424054
2.3715049e-05
0.0014814536
-5.9588723e-07
0.0014726964
2.8872433e-05
0.0015560764
-2.6691844e-05
0.0015724104
8.0685642e-05
0.00155445
0.00011383208
0.001620212
-4.6259199e-05
0.001695838
-2.9791676e-05
0.0017056658
0.00010774909
0.0016816123
0.0001024943
0.0017482829
-5.716518e-05
0.0018908803
-6.4819527e-05
0.0019288063
5.752427e-05
0.0018766163
0.00017614546
0.0019029032
0.0001047948
-1.394326e-05
0.0020217241
0.00079414057
0.0008824424
0.001188528
0.0011963369
0.0012455692
0.001307987
0.0013314559
0.0013820806
0.0014163367
0.0014467032
0.001468201
0.0015042221
0.0015374845
0.0015425899
0.0016143048
0.0016268273
0.0016311885
0.0016127534
0.001723451
0.0017335288
0.0017037071
0.0017982644
0.0019044756
0.0018900817
0.0018406826
0.0019254184
0.0020984995
0.0021401166
0.0020553227
0.0020335109
0.0021364272
0.00016516479
0.002239985
0.00029345404
0.0020453786
0.00032022318
0.0019516353
0.00027015627
0.0019021592
0.00022430479
0.0018980382
0.00027685041
0.0019419967
0.00043765374
0.0020153706
0.00065453999
0.0020838759
0.00077867274
0.0021445904
0.00074363326
0.0021645804
0.00057182858
0.0021679034
0.00039613849
0.0021914164
0.00041236345
0.0022624176
0.00067878769
0.0024051916
0.0010673645
0.0025486818
0.0013442919
0.0026121889
0.0013654369
0.0025717406
0.0011775284
0.0024845363
0.0009925997
0.0024139429
0.0009663056
0.0024218964
0.0011502252
0.0025329204
0.0014886612
0.0027202515
0.0029018313
0.0016881035
0.00018612261
0.0018327834
3.4469798e-05
0.0020160168
-5.4292785e-05
0.0019761683
-1.5956226e-05
0.001977079
0.00014677056
0.0020408283
0.00041218706
0.0021184564
0.00067046714
0.0021546764
0.00078695683
0.0021217131
0.00073396521
0.0020493057
0.00056798452
0.0019789367
0.00043112353
0.0019692973
0.00045471552
0.002034629
0.00064721825
0.0021743921
0.00092320602
0.0023520688
0.001105784
0.0024759611
0.0010942992
0.0025022698
0.00092770402
0.0024547382
0.00078067232
0.0024150794
0.00084509598
0.0024423571
0.0011111798
0.0025357316
0.0014249246
0.0026401864
0.0017265526
0.0027274626
0.0027555406
0.0017479054
-0.00036663197
0.0019075702
-0.00030636455
0.001763874
-0.00012681945
0.001746077
6.1891941e-05
0.0018493288
0.0002312945
0.0019707946
0.00032110015
0.0020487415
0.00030792047
0.0020848224
0.00022411138
0.0020740404
0.00020578627
0.002046977
0.00031840085
0.0020445786
0.00054948809
0.0020813065
0.0008482323
0.0021330447
0.0010885135
0.002183925
0.0011499426
0.0022245365
0.0010091488
0.0022320475
0.00076309094
0.0022087755
0.00058233275
0.0022078082
0.00063097359
0.0022991122
0.00091813244
0.0024707906
0.0012759991
0.0026545175
0.0015067707
0.0027561644
0.0016138296
0.002757283
0.0026741577
0.0015344693
9.7980718e-05
0.0020394157
0.00042175506
0.0017050529
0.00060818614
0.0017058886
0.00062929968
0.0017148771
0.00047073
0.0017452467
0.00021001861
0.0017771165
-1.1901369e-06
0.0018333536
-8.8178844e-05
0.0018949549
2.2371826e-05
0.0019832695
0.0003209206
0.0021011835
0.00066449214
0.0022056851
0.00091077955
0.0022614444
0.00096717315
0.0022557847
0.00085911581
0.0022113368
0.00069671801
0.0021553559
0.00062488837
0.002116837
0.00074055998
0.0021244766
0.0010167554
0.0022074753
0.0013073825
0.0023584831
0.0014195954
0.0025070055
0.00132532
0.0025835795
0.0011657625
0.0025937114
0.0025703523
0.0010591187
0.00072358006
0.0018204838
0.00082597234
0.0019450564
0.0007447742
0.0018882592
0.00054676636
0.0018135604
0.00036862969
0.0017490616
0.00023423879
0.0017290771
0.0001912393
0.0017489362
0.00034288729
0.0017976477
0.00056319065
0.0018694976
0.00073394596
0.0019648656
0.00074527271
0.0020426722
0.00059994306
0.002092066
0.00036436467
0.0021174092
0.00018489872
0.002151678
0.00024202979
0.0021998626
0.00054997694
0.0022595173
0.00099484117
0.0023017808
0.0013976268
0.0023157821
0.0015923222
0.0023242124
0.0014933055
0.002336558
0.0011879275
0.002329734
0.00089588524
0.0023157559
0.0023476118
0.00082624421
-0.00023372598
0.0018753794
-0.00032505557
0.0017853221
-0.00037480766
0.0017837881
-0.00033975179
0.0017897003
-0.00019647473
0.0018210892
8.4196434e-05
0.0018602121
0.00045905144
0.0018848233
0.00081348393
0.0018787098
0.0010556787
0.0018622151
0.0010331305
0.0018426304
0.00078934046
0.0018253292
0.00042916508
0.0018181215
0.00016440542
0.0018550011
0.00010467208
0.0019523167
0.00027580763
0.0021023581
0.00061599367
0.0022592394
0.00096167577
0.0023644177
0.0011898913
0.0024042373
0.0012389241
0.0023838249
0.0011395027
0.0023380836
0.0009802485
0.0022898381
0.00092401026
0.0022526972
0.0022533159
0.0010760338
-0.00033098418
0.0016877767
-0.00049893513
0.0015933503
-0.00053794722
0.0016321266
-0.00040433765
0.001720848
-0.00017978534
0.0018163105
8.2193013e-05
0.0019063863
0.00035104078
0.0019545535
0.00051205029
0.0019633782
0.00054496219
0.001933515
0.00050043836
0.0018814002
0.00044286137
0.0018403882
0.00045687202
0.0018087358
0.00054755386
0.0017988747
0.00073349506
0.0018346494
0.00092350149
0.0019295439
0.0010196305
0.0020629335
0.00098010337
0.0021724441
0.00080124364
0.0022278709
0.00056398254
0.0022564533
0.00043811879
0.0023000572
0.00053531511
0.0023530736
0.00085529973
0.0023950941
0.0023955117
0.0012909188
-3.8953375e-05
0.001857657
0.00013319322
0.0015384122
0.00031629906
0.0015013949
0.00042005659
0.0015582601
0.00044235138
0.0016524774
0.00033308631
0.0017352186
0.00010432264
0.0017858377
-0.0001649062
0.0018244944
-0.00033268185
0.0018584163
-0.00031290545
0.001893365
-0.0001003121
0.0019364339
0.00026326083
0.0019591309
0.00074341939
0.0019585784
0.0011855203
0.0019468491
0.0014478269
0.0019407991
0.0014400416
0.0019501605
0.0011456326
0.0019663884
0.00071877245
0.001976362
0.00038166715
0.00201525
0.00027365971
0.0021128215
0.00039244001
0.0022509926
0.00070534741
0.0023885623
0.0024737141
0.0011139353
0.00055917459
0.0018441863
0.00095865824
0.0016160268
0.0011983924
0.0015557685
0.0012235267
0.0015351597
0.00099339134
0.0015302419
0.00059374976
0.0015409653
0.00014833778
0.0015651663
-0.00021280243
0.0016125461
-0.00039668291
0.0016818778
-0.00037861318
0.001777459
-0.00016169706
0.0018880256
0.00018219816
0.0019831901
0.00054776649
0.0020418621
0.00082913107
0.0020613148
0.00098182322
0.0020450236
0.0010081632
0.0020111716
0.00092581545
0.0019715887
0.00081503183
0.0019286864
0.00075236554
0.0019003163
0.00075580143
0.0019319093
0.00084326128
0.0020506832
0.00097204074
0.002213543
0.0023477593
0.001062406
0.0008138117
0.0013753061
0.00099200208
0.0016652369
0.00090797486
0.001742081
0.00073070271
0.0017116305
0.00056042383
0.0016526265
0.00047046528
0.0015986578
0.00045515132
0.0015773428
0.00046244878
0.0015844864
0.00050323673
0.0016136749
0.00054732102
0.0016742869
0.000567414
0.0017697136
0.0005657584
0.0018668857
0.00041833798
0.0019395782
0.00022744399
0.001988866
5.7915616e-05
0.0020213974
-1.2949423e-05
0.0020409023
0.00011524511
0.0020452243
0.00044366452
0.0020295677
0.00086032958
0.0019891219
0.0012531044
0.0019605673
0.0015169919
0.0019785746
0.0015514575
0.0020517884
0.0021507022
0.0013284618
-3.8956106e-05
0.0010553066
-0.0003026123
0.0015434017
-0.00053488108
0.0017159166
-0.00062917151
0.0017470151
-0.00052159742
0.001743221
-0.00017943366
0.0017218639
0.00031418472
0.0017093596
0.00083297932
0.0017052675
0.0012485909
0.0016875968
0.0014686597
0.0016757131
0.0014026915
0.0016905636
0.0010698363
0.0017310947
0.00054048273
0.0017693359
1.3551808e-05
0.0018154459
-0.00040255567
0.0018695837
-0.0005949875
0.0019393167
-0.00045906386
0.0020137734
-5.6441523e-05
0.0020692742
0.00047473673
0.0020808581
0.0010626474
0.00206706
0.0015394842
0.0020518035
0.0017493616
0.0020517847
0.0020686599
0.0016103205
-0.0008486508
0.0011391025
-0.0012367878
0.0013772188
-0.001410039
0.0015683959
-0.0013103094
0.0016561748
-0.00097880037
0.0017200352
-0.00052041265
0.0017553509
-2.0687231e-05
0.0017709608
0.00049903046
0.0017796673
0.00096668391
0.0017671241
0.0012900134
0.0017360051
0.001338155
0.0017020919
0.0011242702
0.0016834124
0.0006732225
0.0016689935
0.00018819888
0.0016772968
-0.00015187367
0.0017258831
-0.00033437922
0.0018063469
-0.00031454409
0.0019000453
-0.00012421622
0.0019963626
0.00018781574
0.00205642
0.00056013601
0.0020825806
0.00085041902
0.0020900521
0.0010667019
0.0020963621
0.0020909954
0.0011953725
-0.00051877648
0.0013180176
-0.00068088254
0.0013008891
-0.00066627068
0.0014454691
-0.00057094961
0.001555119
-0.00042512083
0.0016379966
-0.00028661732
0.0016943971
-0.0001276269
0.0017379225
1.5862059e-05
0.0017637458
0.00013238131
0.0017720421
0.00020425189
0.0017596425
0.0002532371
0.001734851
0.00031623004
0.0017137299
0.00038458091
0.0016797185
0.00044563355
0.0016567376
0.00045523758
0.0016645128
0.00042647736
0.0017186456
0.00038700338
0.0018012299
0.00037130054
0.0018928661
0.00033948186
0.0019680035
0.00022914083
0.0020089433
0.00016058494
0.0020433535
0.00015692403
0.0020757748
0.002094143
0.00024346971
0.00022763784
0.001439576
0.0005081603
0.001353299
0.0006481304
0.001431242
0.00064512601
0.0015141562
0.00050110492
0.0015770584
0.00028196196
0.0016220029
4.8240385e-06
0.0016639157
-0.00030756847
0.0016951727
-0.00062538774
0.0017192786
-0.00083844407
0.0017290398
-0.00087595437
0.0017253878
-0.00068628253
0.0017249456
-0.00027738145
0.0017173088
0.00027318446
0.0017003745
0.00083107264
0.0016972708
0.0011684922
0.0017162156
0.0012254454
0.0017584543
0.0010361215
0.0018185729
0.00067683737
0.0018803278
0.00023926916
0.0019223081
-0.00017320002
0.0019579764
-0.00045716848
0.0020071001
0.0020564247
-0.00047751019
0.00060421281
0.0015714935
0.0010871105
0.0014464849
0.0014080545
0.0014729081
0.0014579236
0.0015151412
0.0012158305
0.0015504236
0.00072631321
0.0015681248
0.00012495575
0.0015941678
-0.00050410174
0.0016246132
-0.0010669163
0.0016575686
-0.0014369615
0.001681701
-0.001500941
0.0016976064
-0.0012649805
0.0017110278
-0.00079083231
0.0017106148
-8.0102226e-05
0.001709331
0.00065184531
0.0017173944
0.0012592337
0.0017400107
0.0015601025
0.0017645966
0.0014803308
0.0017947892
0.001033769
0.0018259714
0.00037998314
0.0018455099
-0.00023682864
0.0018776692
-0.00069513631
0.0019343291
0.0019935546
-0.00092385294
0.00051831252
0.0017208533
0.0010070231
0.0015532109
0.001352284
0.0015298798
0.0014568131
0.0015355357
0.0012860215
0.0015446944
0.0008223557
0.0015420408
0.00014706616
0.0015546275
-0.0005718858
0.0015785415
-0.0011733943
0.0016147369
-0.0015358014
0.0016438342
-0.0015764982
0.0016670445
-0.0013654948
0.001690213
-0.00093988241
0.0016939654
-0.00034553778
0.0016907484
0.00030102465
0.0017063563
0.0008674527
0.001737813
0.0012863484
0.0017625486
0.0013829501
0.0017863837
0.0010978548
0.0018048303
0.00055591715
0.0018120808
-0.00010526909
0.0018275525
-0.00066069558
0.0018806373
0.001944283
-0.0009072185
0.00024556492
0.0018658961
0.00049818037