/*--------------------------------*- C++ -*----------------------------------*\
| =========                 |                                                 |
| \\      /  F ield         | OpenFOAM: The Open Source CFD Toolbox           |
|  \\    /   O peration     | Version:  2406                                  |
|   \\  /    A nd           | Website:  www.openfoam.com                      |
|    \\/     M anipulation  |                                                 |
\*---------------------------------------------------------------------------*/
FoamFile
{
    version     2.0;
    format      ascii;
    arch        "LSB;label=32;scalar=64";
    class       volScalarField;
    location    "55";
    object      rho;
}
// * * * * * * * * * * * * * * * * * * * * * * * * * * * * * * * * * * * * * //

dimensions      [1 -3 0 0 0 0 0];

internalField   nonuniform List<scalar> 
20580
(
1.0032622
1.0018431
1.0040082
1.0044083
1.0010081
1.0038025
1.0030391
1.0043017
1.0038658
1.0040016
1.0043094
1.004103
1.0049092
1.0049341
1.0047234
1.0053763
1.0066084
1.0046346
1.0064825
1.0079247
1.0038008
1.0054106
1.0075978
1.0063313
1.0017796
1.0059433
1.008619
1.0065699
1.0080394
1.0079858
1.0003535
1.0030522
1.0017806
1.0038757
1.0048928
1.000919
1.0040423
1.0029855
1.0043413
1.00377
1.0042552
1.0044154
1.003804
1.004994
1.004971
1.004297
1.0058939
1.0063002
1.0040674
1.0075654
1.0064974
1.0026575
1.0064239
1.0072949
1.0045018
1.0009149
1.0075321
1.0119834
1.0069878
1.0054494
1.0068735
1.0031251
1.0023791
1.0023005
1.0032227
1.0045172
1.0018947
1.004072
1.0034319
1.0039235
1.0036776
1.0043906
1.0044709
1.0038689
1.0049894
1.0050731
1.004158
1.006228
1.005916
1.0038611
1.0084314
1.005357
1.0023023
1.0077506
1.0071917
1.0043186
1.0012925
1.007631
1.0133309
1.0062048
1.0017368
1.0063548
1.0085203
1.0014819
1.0032195
1.0023679
1.0033756
1.003565
1.0039299
1.0041396
1.0035446
1.0037824
1.0044764
1.0044465
1.0042343
1.0049879
1.0049761
1.0044442
1.0062037
1.0054248
1.0040704
1.0087491
1.0047374
1.0030418
1.008854
1.0068279
1.0052661
1.0034481
1.0067609
1.0119714
1.0057397
0.99803363
1.0032991
1.0123341
1.0007526
1.004209
1.0016274
1.0019533
1.0050025
1.0036593
1.0046745
1.0035643
1.0040527
1.0044481
1.0043433
1.0046303
1.0049023
1.0047765
1.0048655
1.0058731
1.004917
1.0046168
1.0083842
1.0042898
1.0045987
1.0095046
1.0059019
1.0061792
1.006735
1.0058731
1.0083301
1.0059261
0.99795784
0.99943484
1.0099171
1.0004804
1.0049332
1.0013077
1.0010479
1.0055672
1.0033677
1.0047559
1.0037954
1.0042295
1.0042998
1.0042369
1.0048485
1.0048226
1.004576
1.0053304
1.0055294
1.0045536
1.0055508
1.0074154
1.0038857
1.0061055
1.009802
1.0042114
1.0060324
1.0098649
1.0057344
1.0041156
1.0058285
1.0022397
0.99932552
1.0046453
1.0007409
1.0049416
1.0015463
1.0011592
1.0050834
1.0032129
1.0042411
1.0041509
1.0043077
1.004097
1.0041296
1.0049686
1.0048045
1.0045284
1.0057342
1.0053493
1.0043482
1.0066849
1.0061171
1.0036073
1.0073811
1.0094484
1.0026027
1.0046623
1.0112531
1.0064734
1.0009901
1.004732
1.0078119
1.0039066
1.0013572
1.0013427
1.0041806
1.0022736
1.0020108
1.003752
1.003318
1.0034195
1.0043811
1.0043539
1.0040109
1.0042068
1.0049327
1.004751
1.0045513
1.0058741
1.0051848
1.004241
1.0074748
1.0049925
1.0035793
1.007999
1.0082272
1.0019476
1.0034834
1.0102286
1.0072986
1.0001016
1.0035333
1.0110905
1.0098722
1.0019919
1.0020181
1.0030071
1.0030631
1.0032515
1.002341
1.0036305
1.0029016
1.0042508
1.0044486
1.0041492
1.0045047
1.0048598
1.0046046
1.0046521
1.0057251
1.0050996
1.0044145
1.0078729
1.0041775
1.0041213
1.0080611
1.0067599
1.0024499
1.0033049
1.0081911
1.0070731
1.0011582
1.0029687
1.0109815
1.0134148
1.00536
1.0027685
1.0019318
1.0036527
1.0045092
1.0016792
1.0039878
1.0030241
1.0040025
1.0044599
1.0044552
1.0047088
1.0048295
1.0044518
1.0047177
1.005432
1.0049087
1.0047448
1.007716
1.0036377
1.0051779
1.0078057
1.0049937
1.0042638
1.0045621
1.0062998
1.0061442
1.003415
1.0029205
1.0081475
1.0124669
1.0085158
1.0033183
1.0016333
1.00389
1.0051172
1.002049
1.0042853
1.0038892
1.0039164
1.0042614
1.0047128
1.004729
1.0046745
1.0043132
1.0047918
1.0050531
1.0047061
1.0051456
1.0070759
1.0035863
1.0063883
1.0076524
1.0030476
1.0063733
1.0072182
1.004902
1.0049355
1.0062858
1.0043232
1.0043166
1.0068985
1.0088023
1.0030408
1.0021082
1.0035603
1.0046182
1.0030836
1.0044398
1.0050558
1.0041062
1.0040786
1.0048007
1.0046849
1.0044866
1.004365
1.0051287
1.0047099
1.0048567
1.0058339
1.0061637
1.0038418
1.0075031
1.0075472
1.0015409
1.0076301
1.0100515
1.0041699
1.0038259
1.0084463
1.0074456
1.0022521
1.0004302
1.0050465
1.0020083
1.0032577
1.0026969
1.0035525
1.0043166
1.0042564
1.0056183
1.0045182
1.0039968
1.0046324
1.0047081
1.0043611
1.0045428
1.0055251
1.0044783
1.005112
1.0064886
1.005137
1.0041958
1.0079985
1.0073989
1.0011
1.0077116
1.0116484
1.0039163
1.0027322
1.0089373
1.0107563
1.0033091
0.99747634
1.0001541
1.0009551
1.0044254
1.0017083
1.0024097
1.0050303
1.0038381
1.0049954
1.0047859
1.0040769
1.0043968
1.0048686
1.0044316
1.0048317
1.0056334
1.0046026
1.0052652
1.0068032
1.0042797
1.0047474
1.0076434
1.0071686
1.0018661
1.0068805
1.0112575
1.004199
1.0017773
1.0076147
1.0117387
1.0064613
0.99910844
0.99841267
1.0004907
1.0052722
1.0011977
1.0015054
1.0048531
1.0034273
1.0037438
1.004632
1.0044704
1.004297
1.0049221
1.0045237
1.0050347
1.0054187
1.0049053
1.0051574
1.0068552
1.0038537
1.0057976
1.0068178
1.0063479
1.0036382
1.0061429
1.0086348
1.0047598
1.0022242
1.0054319
1.0090675
1.0084326
1.0036968
1.0009851
1.0006031
1.0053643
1.0014287
1.0014184
1.0041227
1.0033352
1.0028168
1.0042364
1.004949
1.0043865
1.0047748
1.0046473
1.0050293
1.0049636
1.0051036
1.0050398
1.0065844
1.0039196
1.0067889
1.0057988
1.0048862
1.005955
1.006301
1.0048462
1.0048644
1.0048431
1.0043818
1.0044552
1.0068888
1.0077007
1.0057967
1.0015296
1.004394
1.0023076
1.0023585
1.0032949
1.0035894
1.0027009
1.0038965
1.0050741
1.0045893
1.0045764
1.0048847
1.0050905
1.004412
1.0054648
1.0050509
1.0059359
1.0040592
1.0075899
1.0050741
1.0033465
1.0076939
1.0073472
1.0020023
1.0040624
1.0082887
1.005647
1.0014159
1.0031347
1.009101
1.0098977
1.0026088
1.002795
1.0033633
1.003753
1.002746
1.0040343
1.0038134
1.0039168
1.0047239
1.0047285
1.0043527
1.0049601
1.0050291
1.0039577
1.0056261
1.0050577
1.0052657
1.0042387
1.0081318
1.004995
1.0025163
1.0083461
1.0086724
1.001077
1.0030358
1.0103706
1.0084698
1.0010546
1.0002826
1.0076147
1.011584
1.0033063
1.0014999
1.0040243
1.0048225
1.0027117
1.0044899
1.0053467
1.0043947
1.0041605
1.00488
1.0043089
1.0048282
1.0048979
1.0040387
1.005405
1.0051751
1.0048547
1.0047092
1.0079527
1.0052977
1.0025637
1.0080729
1.0091304
1.0020877
1.002789
1.0102412
1.0104297
1.0027472
1.0002882
1.0047961
1.0101714
1.0033127
1.0014418
1.0039552
1.005135
1.0031236
1.0047737
1.0061084
1.0049346
1.0038767
1.0049664
1.0045938
1.0046872
1.0048816
1.0046058
1.0051128
1.0053457
1.0046509
1.0053988
1.0068385
1.0056475
1.0036937
1.0072005
1.0080893
1.0039275
1.0040409
1.0085414
1.0096917
1.0053982
1.0026224
1.0035392
1.0066425
1.002601
1.0024583
1.0031369
1.0042633
1.0036162
1.0044032
1.0054113
1.005032
1.004101
1.0047452
1.0049119
1.0047307
1.0049216
1.0051632
1.0048088
1.0054619
1.0046948
1.0061348
1.0054525
1.0057372
1.0055875
1.0063243
1.0059963
1.0057063
1.0061115
1.0066127
1.0058071
1.0067268
1.0063942
1.0047923
1.0036706
1.0014297
1.0044043
1.0018527
1.0028178
1.0041657
1.0039316
1.003947
1.0046606
1.0047862
1.0047466
1.0052974
1.0049949
1.0050014
1.0058449
1.0047655
1.0055682
1.0049777
1.0070327
1.0044188
1.0055953
1.0082353
1.0060063
1.003783
1.0065992
1.0088305
1.0056947
1.0020589
1.0055565
1.0097125
1.0077867
1.0029626
1.0005705
1.0064528
1.0016994
1.0023044
1.0048355
1.0040216
1.0032082
1.0044099
1.0055273
1.0051768
1.0061042
1.0058405
1.0051842
1.005953
1.0049788
1.0057063
1.0050592
1.0080279
1.0043372
1.0054964
1.010768
1.0070976
1.0033808
1.0062001
1.0108914
1.0063816
0.99993213
1.002775
1.010108
1.0101157
1.0042216
1.00001
1.0018535
1.0049007
1.0077862
1.0087837
1.0074883
1.0053747
1.0039138
1.0039346
1.0059589
1.0088897
1.0090557
1.0049922
0.99928092
0.99629007
0.99811077
1.0041146
1.0113963
1.0160225
1.0129395
1.0037248
0.99815488
0.99647679
1.0076061
1.0078804
1.0057651
1.0022692
0.99876669
0.99715555
0.99870151
1.0029269
1.0082352
1.0125137
1.013106
1.0090525
1.0026519
0.9984976
0.99921729
1.0030812
1.0066875
1.0080439
1.0067213
1.0017667
0.99819483
1.0007499
1.0064188
1.0114662
1.0082783
1.0049735
1.001362
1.000168
1.001546
1.0042421
1.0060663
1.0063088
1.0047294
1.0017355
0.999109
0.99943565
1.0040179
1.0103293
1.0139284
1.0117142
1.005042
0.99773542
0.99300262
0.99313188
1.0007024
1.0105408
1.0030647
1.0013076
1.0020263
1.0053257
1.0097623
1.0126065
1.0121209
1.008398
1.0024354
0.9966083
0.99340799
0.99450573
0.99977306
1.006946
1.0124636
1.0126858
1.0081264
1.0022081
0.99857261
0.99884381
1.001404
1.0056827
1.0080825
0.99387238
0.99703339
1.0017541
1.0062635
1.0094482
1.0098457
1.0074678
1.0035042
1.0000901
0.99927785
1.0015696
1.005509
1.008653
1.0086414
1.0053556
0.99978534
0.99504332
0.9945267
0.99945255
1.0077431
1.014119
1.0150673
1.0099208
1.0080085
1.0070271
1.0065086
1.0044987
1.0017083
0.99831621
0.99574691
0.99576269
0.99920167
1.0056262
1.0124884
1.0159978
1.0142778
1.0080478
0.99978087
0.99293741
0.99001072
0.99225872
0.99930763
1.0081874
1.0139086
1.0134281
1.008469
1.0150431
1.0107292
1.0057646
1.0002064
0.99557831
0.99309687
0.99349916
0.99622944
1.0006617
1.0056439
1.0093323
1.0096471
1.0067559
1.0020157
0.99796503
0.99745126
1.000146
1.0038328
1.0064014
1.0063524
1.0039228
0.99967361
0.99583292
1.0049209
0.99812342
0.99845113
0.99716563
0.99935599
1.0031125
1.0062042
1.0075988
1.0067051
1.0036237
0.99980002
0.99624357
0.99323986
0.9926424
0.99595655
1.003283
1.0117904
1.0165703
1.0152197
1.0088014
0.99987849
0.99129507
0.98612369
0.99882841
0.99768111
0.99974674
1.0041312
1.0104934
1.0163161
1.0188949
1.0170954
1.0111322
1.003395
0.99552024
0.99009745
0.98763116
0.98924641
0.99496743
1.0032151
1.0109654
1.0147787
1.0137903
1.0087582
1.0013318
0.99508838
0.9920622
0.98965622
0.99355418
0.99709205
1.0019173
1.006729
1.0104064
1.0111441
1.0087979
1.0046689
1.0000125
0.99670878
0.99587982
0.99649067
0.99833523
1.0003328
1.0017781
1.0028641
1.0019419
1.0001161
0.99853718
0.99830801
1.0002702
1.0037452
1.0017053
1.0026133
1.0019355
1.0006012
0.99859755
0.99606508
0.99391846
0.99212319
0.99216323
0.99496439
1.0005805
1.0073964
1.0127804
1.0138308
1.0115124
1.0057291
0.99864283
0.99209553
0.9872627
0.98539219
0.98842497
0.99624393
1.0066051
1.0225618
1.0131128
1.0079654
0.99955894
0.992443
0.98652572
0.98309725
0.98241866
0.98567121
0.99246322
1.0019753
1.0119971
1.0192453
1.0214305
1.0178602
1.0099983
1.0000093
0.99055819
0.98363573
0.98147443
0.98440951
0.99150933
1.0009654
1.0224877
1.0177089
1.0104875
1.0021185
0.99439683
0.98911579
0.98662734
0.98661979
0.98926774
0.99411345
1.000065
1.0063005
1.0111883
1.012707
1.010898
1.0063419
1.0000545
0.99486373
0.99149826
0.990336
0.99123985
0.99411144
0.99818227
1.0062077
1.004599
1.0024579
0.99984562
0.99819877
0.9975982
0.99799371
0.9983296
0.99854302
0.99823392
0.99815878
0.99862818
0.99901624
0.99836182
0.99707216
0.99608085
0.9969509
0.99983244
1.0028313
1.0043922
1.0042906
1.0021143
0.99984525
0.99116588
0.99138929
0.99337542
0.99639849
1.0013729
1.0069483
1.0114741
1.0128619
1.0109571
1.0060981
0.99999814
0.99430732
0.9900432
0.98708643
0.9860937
0.98779728
0.99264963
1.0002717
1.0084319
1.0136611
1.0141973
1.0105699
1.0038857
0.9819808
0.98330219
0.98788971
0.99478817
1.0037302
1.0128253
1.0194643
1.0211429
1.0173149
1.0095359
1.000372
0.99205367
0.98542368
0.98107086
0.97927492
0.9810684
0.98705745
0.99685728
1.007794
1.0160455
1.0189413
1.0154032
1.0070464
0.97910237
0.98063494
0.98553027
0.99364365
1.0037985
1.0140086
1.021409
1.0236156
1.0196617
1.011123
1.0009325
0.99157388
0.98437502
0.97981198
0.97803164
0.97949576
0.985148
0.99497619
1.0065004
1.0157761
1.0196817
1.0168973
1.00878
0.97828138
0.98010507
0.98472201
0.99257926
1.0029675
1.0132237
1.0205587
1.0225632
1.0187378
1.0106624
1.001083
0.99251705
0.98589491
0.98131295
0.97912505
0.97998127
0.98517798
0.99413369
1.00503
1.0142153
1.0182959
1.0161127
1.0085896
0.97952533
0.98150867
0.98557956
0.99277505
1.0022348
1.011798
1.018542
1.0201064
1.0162936
1.0083583
0.9997341
0.99207153
0.98617447
0.98212895
0.98013713
0.98071014
0.9857362
0.99441974
1.0047497
1.0132984
1.0166091
1.0140128
1.0071186
0.98151337
0.98363531
0.98684531
0.99257216
1.0012327
1.0105614
1.0171812
1.0187639
1.0147533
1.0067939
0.99868854
0.99175627
0.98625522
0.98256687
0.98079847
0.98139528
0.98657109
0.99552655
1.0058921
1.0132701
1.015388
1.0114835
1.0045775
0.98041508
0.98260397
0.98627618
0.99227428
1.0010144
1.0104454
1.0174838
1.0189765
1.0147137
1.0064111
0.99802289
0.9915936
0.98678374
0.98329674
0.9816516
0.98224383
0.98749183
0.99688147
1.0068602
1.0132185
1.0137645
1.0082876
1.001354
0.97940899
0.98167237
0.98572719
0.99203772
1.001268
1.0114855
1.0187437
1.0202382
1.0150762
1.0056691
0.99655549
0.99009246
0.9857057
0.98267049
0.98147365
0.9826943
0.98863982
0.99870922
1.0091484
1.0148196
1.0134724
1.0063762
0.99853947
0.97912293
0.98198796
0.98687306
0.99380495
1.0029143
1.0125001
1.0191999
1.0199597
1.0140981
1.00411
0.99411626
0.98644728
0.98168288
0.9793239
0.9793978
0.98326978
0.99166597
1.0026307
1.0126205
1.0166732
1.0133865
1.0050417
0.99644011
0.97953581
0.98258782
0.98808242
0.99539773
1.0039614
1.0123651
1.017594
1.0177961
1.0117532
1.0022122
0.99257873
0.98454401
0.97925512
0.97802998
0.97988185
0.98619738
0.99669864
1.0075024
1.014604
1.0165836
1.011795
1.0025378
0.99292058
0.98752184
0.98793965
0.99018279
0.99488378
1.0019664
1.0091498
1.0132067
1.0122385
1.0064312
0.99905505
0.99269361
0.98764789
0.98367346
0.98191929
0.98344303
0.9903268
1.0010237
1.0096896
1.0136999
1.0124138
1.0059751
0.99762947
0.98850463
1.0015661
0.99904786
0.99679417
0.99576911
0.99677274
0.99889782
1.0000565
0.99988706
0.99783513
0.99557685
0.99413076
0.99296992
0.9914368
0.99043461
0.99100775
0.994438
1.0003629
1.0058466
1.0079441
1.0053286
0.99962267
0.99371882
0.98775887
1.0151635
1.0095582
1.001992
0.99470915
0.98949979
0.98681372
0.98606978
0.98655397
0.98895807
0.99379517
0.99961338
1.0030129
1.0034376
1.0008699
0.99714849
0.99538957
0.99541093
0.99659639
0.99762187
0.99690893
0.99622456
0.99576902
0.99420255
1.0149458
1.0100462
1.0018348
0.99321798
0.98635809
0.98157086
0.97923322
0.98023352
0.985895
0.99622584
1.0078837
1.0149202
1.014358
1.0075912
0.99919817
0.99191034
0.98625979
0.98423628
0.98682406
0.99278697
0.99929583
1.0033955
1.0041895
1.0009695
1.0011041
0.99886802
0.99536133
0.99128134
0.98788993
0.98558189
0.98504032
0.98925897
0.99847092
1.0093752
1.0159246
1.0150472
1.0072186
0.99737552
0.98769102
0.97996239
0.97741727
0.98191368
0.9933112
1.0056849
1.0124053
1.0123192
0.98661202
0.98926171
0.99373923
0.99943024
1.0034237
1.0034192
1.0004447
0.99604826
0.99395166
0.99482029
0.99789627
1.0023255
1.005022
1.0032152
0.99783575
0.99065943
0.9845215
0.98181101
0.98476669
0.99571024
1.0082221
1.0134583
1.0096967
0.98445269
0.98591437
0.99134986
1.0002777
1.0096754
1.01449
1.0122793
1.0040768
0.9951393
0.98909387
0.98628898
0.98709864
0.99158378
0.99876631
1.0042656
1.0039212
0.99914528
0.99386537
0.99195768
0.9938811
0.99884922
1.0021232
0.99982699
0.99719307
0.9945509
0.99497131
0.99810127
1.0030242
1.0080481
1.0096343
1.0059787
0.99858649
0.98992465
0.98361049
0.98209307
0.98586735
0.99554885
1.0071678
1.013158
1.0102306
1.0015473
0.99331948
0.98712491
0.98452215
0.98806303
0.99380802
1.0102424
1.0048375
0.99889112
0.99462909
0.99241841
0.99217983
0.99467525
0.99836341
1.001161
0.99973168
0.99513743
0.99091797
0.99031612
0.99494489
1.0020405
1.007843
1.0077581
1.0009552
0.99150395
0.98356412
0.97977304
0.98461864
0.99877049
1.0047276
1.00417
1.0005935
0.9952731
0.9899446
0.98606475
0.98531799
0.99009328
0.99982184
1.0086229
1.01076
1.0054073
0.99731131
0.99229338
0.99138438
0.99382578
0.99801667
1.0010176
0.99943975
0.99364915
0.98832713
0.98786586
0.99471711
0.9917459
0.99381431
0.99703649
1.0003011
1.0007368
0.99797582
0.99444786
0.9936959
0.99892134
1.0061341
1.0107291
1.0080432
0.99911028
0.98844285
0.98232695
0.98380968
0.99270674
1.0057722
1.0134691
1.0093739
0.99783702
0.98711331
0.98052112
0.99192121
0.99200492
0.99506962
1.0012239
1.0079447
1.009971
1.0058193
0.99885067
0.99423302
0.99349126
0.9961814
1.000389
1.0020071
0.99893076
0.99211483
0.98679393
0.98763317
0.99554603
1.0058954
1.0113949
1.0076848
0.99958719
0.99110705
1.0035077
0.99914946
0.99663248
0.99813468
1.0034401
1.0084674
1.0086041
1.0032406
0.99543146
0.98881585
0.98547721
0.98776477
0.9953242
1.0041867
1.0087901
1.0065965
0.99980386
0.99375959
0.99126273
0.99076811
0.99214336
0.99432144
0.99694633
1.0111514
1.0061655
0.99931883
0.99421966
0.99361074
0.9958513
0.99888865
1.0003907
0.99930349
0.99640524
0.99282639
0.99065608
0.99253719
0.999245
1.00737
1.011775
1.0099991
1.0025313
0.99336172
0.98600214
0.982173
0.9837194
0.99022941
1.004752
1.003492
0.99876594
0.99355681
0.99058849
0.99019593
0.99217371
0.99622379
1.0010911
1.0051204
1.006764
1.0057003
1.0019698
0.99839504
0.99702985
0.99588439
0.99593609
0.99678373
0.99742407
0.99710399
0.99633826
0.99529239
0.9965767
0.99526821
0.99695069
0.99839432
0.99890228
0.99925417
0.99940256
0.99945017
0.9995887
1.0011748
1.0037329
1.0053115
1.0057748
1.0048811
1.0012007
0.99568028
0.98988785
0.98637125
0.98668229
0.99206731
1.0011735
1.0080274
1.009142
1.005577
0.9959587
0.99641616
0.99949166
1.0036752
1.0073991
1.0080015
1.005992
1.0029711
0.99962026
0.99654833
0.99426969
0.99317849
0.9939891
0.99648637
0.99925197
1.0004848
0.99940487
0.99716054
0.9974197
1.0011675
1.0052286
1.0064103
1.0006147
1.0041468
1.0013927
1.0001309
1.0011852
1.0027079
1.0026534
1.000847
0.99814916
0.9961067
0.99532051
0.99480974
0.99375958
0.99341039
0.99575571
1.0005226
1.0057212
1.0089977
1.0085995
1.0043985
0.99998958
0.99777308
0.99590132
0.99308875
1.0059223
1.0035959
1.0002256
0.99728548
0.99628508
0.9955065
0.99452794
0.99434094
0.99647016
1.0008144
1.0052809
1.0071161
1.0056108
1.002111
0.99927793
0.99909521
1.000787
1.0007569
0.99840733
0.99443583
0.99168014
0.99176542
0.99491067
0.99842879
0.99869911
0.99894109
0.99951749
1.0003345
1.0005647
1.0000304
0.99914146
0.99945665
1.0017045
1.0050903
1.0074086
1.0063737
1.0016078
0.99606603
0.99249817
0.99207352
0.9944975
0.99691718
0.99751379
0.99657635
0.99733882
1.0005845
0.99865203
0.99779382
0.99874244
1.0014266
1.004191
1.0058275
1.0057271
1.0038178
1.0009153
0.99792483
0.99635061
0.9959417
0.99651209
0.99648775
0.99595706
0.99592956
0.99725521
1.0008843
1.0045075
1.0064938
1.0066216
1.003893
1.0014374
1.0054222
1.0030482
1.0009722
0.99994364
0.99951965
0.999211
0.99928898
0.99942944
0.99896166
0.99796611
0.99708482
0.99665619
0.99743634
0.99979853
1.0020938
1.0041326
1.0051847
1.0047443
1.003686
1.0019549
1.0008342
0.99887055
0.99727506
1.0014414
1.0010164
1.0003643
0.99952077
0.99849017
0.9973233
0.99702905
0.99786521
0.99948422
1.0015518
1.002959
1.0035708
1.0037938
1.0035365
1.00356
1.0032046
1.0021817
0.99971102
0.99689665
0.99412394
0.99244899
0.99325397
0.99667432
0.99833515
0.99819361
0.99951644
1.0015649
1.0028064
1.0029817
1.0031473
1.0028847
1.0025238
1.0024686
1.0020123
1.0012338
1.0003071
0.99894831
0.99745478
0.99621508
0.99586491
0.99629209
0.99763397
0.99932065
1.0007557
1.0017055
1.0029235
1.0030994
1.0016912
1.0015334
1.0020612
1.0022745
1.0021455
1.0017369
1.0007196
0.9995793
0.99837722
0.99763608
0.99772598
0.99814538
0.99883887
0.99941223
0.99971842
1.0001962
1.0013484
1.003018
1.0047839
1.005879
1.00494
1.0026464
1.0032773
1.0020405
1.0012851
1.0006443
0.99963829
0.99912338
0.99909476
0.99897283
0.99876618
0.99901586
0.99975737
1.0010844
1.0026544
1.0041809
1.0047511
1.0043011
1.0032482
1.001978
1.0010677
1.0005827
1.0000588
0.99906228
0.99755323
1.0009568
1.0004427
1.0007036
1.0006013
1.0003197
1.0010139
1.0022549
1.0033272
1.0043286
1.0046134
1.0041062
1.0031072
1.0021095
1.001443
1.0007394
1.000324
0.99963705
0.99899655
0.9986359
0.9986247
0.99888799
0.99890036
0.99898988
1.0023075
1.0023938
1.0031622
1.0031615
1.0027846
1.0023497
1.0021568
1.0018865
1.0019685
1.0020562
1.0017741
1.0007293
0.99973253
0.99905543
0.99880632
0.99953551
1.0004391
1.0012983
1.0018189
1.0019663
1.0019134
1.0015448
1.0013907
1.0013549
1.0016196
1.0027881
1.0031767
1.0034749
1.0029484
1.0018776
1.0005866
1.0000366
1.0002185
1.0010582
1.0018115
1.0025029
1.0028559
1.0028213
1.0032426
1.0035332
1.0034753
1.0026856
1.0009694
0.99929812
0.99791665
0.9976285
1.0033639
1.002672
1.0027348
1.0022515
1.0026668
1.0030351
1.0028141
1.0026913
1.0028393
1.002975
1.0036309
1.0040653
1.0042779
1.0038602
1.0025978
1.0013944
1.0002744
0.99957052
0.99906006
0.99832085
0.99805916
0.99824353
0.99899827
1.0044106
1.0037083
1.0032737
1.0023289
1.0021306
1.0025674
1.0028087
1.0034308
1.0041815
1.004012
1.0037526
1.0030496
1.0024822
1.0015521
1.0006029
1.0000154
0.99948652
0.99979603
1.0005933
1.0007815
1.0010912
1.0014764
1.0011796
1.0030572
1.0030249
1.0032528
1.0031384
1.0032836
1.0037379
1.0039369
1.0042682
1.0046203
1.0039474
1.0031558
1.0021012
1.0013932
1.0007446
1.000643
1.0014939
1.0020137
1.0025427
1.0025218
1.0015893
1.0005571
0.9992747
0.99798202
1.0033362
1.0035015
1.0039237
1.0040034
1.0041401
1.0042086
1.0040219
1.0038229
1.0037074
1.0030588
1.0027385
1.0022509
1.0020548
1.0021083
1.0019871
1.0024786
1.0023433
1.0017518
1.0010589
0.99987415
0.99942465
0.99890893
0.99854218
1.0038122
1.0037021
1.0039763
1.0040734
1.0040984
1.0039083
1.0038001
1.0035971
1.0033534
1.0028582
1.0027038
1.0028073
1.0027812
1.0027865
1.002775
1.0023903
1.0015355
1.0005251
0.99965978
0.9987216
0.99928512
0.99981829
0.99988398
1.0034025
1.0034186
1.0037254
1.0039373
1.0039189
1.0037965
1.0038111
1.0038455
1.0037059
1.0035038
1.0032114
1.0028815
1.0026848
1.0020842
1.0014725
1.0011914
1.0007296
1.0007076
1.0007004
1.0004588
1.0009997
1.0011991
1.0011189
1.0020936
1.0029432
1.003326
1.0034741
1.0036807
1.0034018
1.003024
1.0031299
1.0029077
1.0025937
1.0027299
1.0026707
1.0025976
1.0020936
1.0015132
1.001041
1.0006435
1.00091
1.0010232
1.0004455
1.0003477
1.0001574
0.99952741
1.0013515
1.001903
1.0024442
1.0024695
1.0029289
1.0030981
1.0027919
1.0029269
1.0025104
1.0017648
1.0016623
1.0016337
1.0016119
1.0013092
1.001044
1.00053
1.0000875
1.0003671
1.0003664
1.0002168
1.0000771
0.99957731
0.99852081
1.0001709
1.0005498
1.001561
1.001197
1.0011697
1.0012424
1.0010421
1.0012635
1.0011642
1.0006964
1.0003319
1.0001622
1.000263
1.0001399
1.0000495
1.000034
0.99958438
0.99933232
0.99897367
0.99919353
0.99903603
0.99870136
0.99839659
0.99759525
0.99868728
0.99951018
0.99976937
0.99958984
0.99922249
0.99889707
0.99907366
0.99946984
0.99948934
0.998986
0.99866047
0.99870806
0.99862344
0.99866453
0.9989294
0.99873619
0.99832154
0.99735802
0.99705092
0.99694199
0.99699739
0.99735353
0.99729112
0.99817016
0.99843955
0.99873255
0.99837859
0.99804122
0.99767883
0.99737938
0.99754498
0.99787038
0.99770443
0.99734937
0.99691381
0.99641362
0.99608157
0.99613194
0.99638856
0.99654942
0.99610273
0.99570808
0.99534533
0.99517986
0.99539569
0.99394688
0.99462594
0.99617537
0.99666206
0.99653932
0.99628832
0.99598713
0.9953029
0.99491011
0.99505896
0.99539319
0.99557761
0.99519623
0.99466496
0.99397161
0.99346358
0.99356803
0.99388381
0.99392636
0.99353135
0.99309394
0.99283506
0.99296305
0.99199591
0.99271847
0.99338106
0.99390513
0.99412662
0.99406452
0.99384711
0.99333921
0.99280305
0.99246159
0.99245831
0.99270959
0.99271129
0.99252632
0.99186949
0.99118296
0.99091
0.99111891
0.99129977
0.9910241
0.99083999
0.99054396
0.99023319
0.99293842
0.99253069
0.99220906
0.9920377
0.99194165
0.99190182
0.99187496
0.99180572
0.99163003
0.99109996
0.99052015
0.99002997
0.98978625
0.98976775
0.98951979
0.989054
0.98849289
0.98827078
0.98819095
0.98799567
0.9880327
0.9879079
0.98760775
0.9911281
0.99126985
0.99146512
0.99123946
0.99085274
0.99050017
0.99021082
0.99011766
0.99005998
0.98974728
0.9890899
0.98814386
0.98738284
0.98691272
0.98677585
0.98659453
0.98630753
0.98607488
0.98584289
0.98535189
0.9848867
0.98440598
0.9843447
0.98908618
0.98979561
0.99042622
0.99064544
0.99050179
0.9900298
0.98944257
0.98885058
0.98829469
0.98779585
0.98722344
0.98644174
0.98582626
0.98530989
0.98495304
0.98459653
0.98422524
0.98389841
0.98352488
0.98287713
0.98222506
0.98162592
0.98163276
0.98923368
0.98958568
0.99002572
0.99009071
0.98998123
0.9896301
0.98923641
0.98851929
0.98762038
0.98693244
0.98591127
0.9853704
0.98468997
0.98437801
0.9838901
0.98331714
0.98268354
0.9820311
0.98131378
0.98063678
0.98013449
0.9797949
0.97965308
0.99001491
0.99027386
0.99074635
0.99046629
0.99020093
0.98974861
0.98924118
0.98865903
0.98770762
0.98728719
0.98619675
0.98545634
0.98456418
0.98391071
0.98315377
0.98234367
0.98155461
0.98086576
0.98000003
0.97940029
0.97898386
0.97871149
0.97813096
0.988989
0.99057979
0.9919484
0.99162605
0.9912413
0.9911821
0.9901694
0.98958558
0.98878685
0.98792444
0.98720303
0.98608837
0.98524182
0.98421308
0.98324591
0.9822634
0.98134577
0.9804815
0.97976941
0.97912609
0.97868436
0.97812598
0.97716174
0.99158365
0.9915084
0.99311161
0.99331393
0.99289524
0.9933244
0.9920966
0.99132035
0.99085176
0.98949681
0.98894873
0.98761597
0.9867255
0.98547028
0.98458728
0.9835624
0.98237836
0.98133482
0.98051673
0.97960429
0.97865132
0.9777892
0.97699076
0.99490044
0.99401733
0.99461544
0.99452655
0.99478141
0.99505077
0.99403366
0.99368896
0.9932426
0.99196885
0.99159462
0.99027147
0.98915962
0.98787529
0.9871515
0.98628961
0.98484809
0.98359205
0.9827052
0.98180273
0.98044593
0.97911425
0.97797937
0.99700839
0.99617245
0.99643995
0.99612958
0.99665983
0.99635613
0.99573594
0.99568343
0.99513088
0.99455442
0.99423222
0.99303331
0.99214981
0.99107324
0.99040135
0.98975687
0.98830946
0.98683598
0.98597963
0.98541906
0.9841692
0.98261472
0.98087362
0.99831488
0.99751052
0.99748311
0.99728095
0.99806125
0.99744712
0.99710303
0.99731051
0.99635107
0.99655996
0.99633985
0.99538764
0.99480547
0.99408296
0.99352965
0.99275226
0.99165202
0.99042287
0.9894683
0.98898012
0.98835704
0.98726824
0.98521494
0.99837977
0.99743806
0.99756864
0.9975215
0.99827376
0.99806436
0.99775361
0.99796343
0.99689557
0.99758095
0.9976436
0.99678922
0.99647089
0.9961743
0.99578458
0.99505845
0.9946708
0.99386099
0.99271277
0.99185355
0.99167149
0.99121575
0.98972118
0.99828306
0.99678121
0.99704226
0.99754214
0.99798614
0.99763485
0.99746751
0.99773953
0.99683822
0.99768489
0.99793709
0.99703872
0.99729165
0.99743343
0.99689084
0.99616937
0.99636884
0.99638856
0.9955858
0.99423639
0.99422786
0.99408836
0.99360948
0.99784748
0.99692749
0.99700829
0.99771233
0.99799326
0.99712936
0.99642657
0.99684753
0.99672768
0.99759822
0.99806154
0.99673328
0.9968987
0.99744079
0.99755329
0.99725597
0.99722288
0.99756141
0.99683819
0.99582647
0.9961593
0.99642696
0.99654325
0.99893126
0.99786478
0.99709693
0.99723988
0.99799204
0.9977233
0.99665021
0.99656102
0.99698317
0.99772487
0.99818201
0.99674354
0.99675315
0.9978162
0.99846979
0.99820194
0.9970518
0.99741897
0.99756019
0.99789175
0.99743756
0.99698061
0.99709356
0.9996135
0.99850176
0.99772412
0.99784478
0.99860011
0.99880599
0.9980534
0.99728492
0.99740481
0.99827539
0.99882533
0.99794206
0.99707789
0.99758304
0.99895023
0.99930693
0.99762714
0.99714984
0.99802717
0.99911467
0.99838428
0.99698862
0.996832
1.0001477
0.99913538
0.9980633
0.99808911
0.99910096
0.99983777
0.99928352
0.99812869
0.99780305
0.99859028
0.9993291
0.99930665
0.99799394
0.99761954
0.99900088
0.99992922
0.99889995
0.99747991
0.99788794
0.99930921
0.9992572
0.99757954
0.99669201
1.000107
0.9993617
0.99856002
0.99844767
0.99904568
0.99980551
0.99980441
0.99919981
0.99870163
0.99879541
0.99920536
0.999799
0.99938765
0.998544
0.99905556
0.99977482
0.99941453
0.9984186
0.99840566
0.99919783
0.9995762
0.99833136
0.99746099
0.99988276
0.99925863
0.99853733
0.99835705
0.99889768
0.99975645
1.0000935
0.9996597
0.99891472
0.99866327
0.99940134
1.0004371
1.0002966
0.99907503
0.99849031
0.99943972
1.0003214
0.99970026
0.99876734
0.99870473
0.99966122
0.99914703
0.99827615
0.99892542
0.99922894
0.99913088
0.99863872
0.99841986
0.99899989
0.99983637
0.99999305
0.9991812
0.99829846
0.99886189
1.0002152
1.0005998
0.99975736
0.99893925
0.99914868
0.99969734
0.99982005
0.99966885
0.99903625
0.99874434
0.9990479
0.99945236
0.99888764
0.99910427
0.99914388
0.99914372
0.99895235
0.99871065
0.99901907
1.0000005
1.000173
0.99905409
0.99856334
0.99978221
1.0010317
1.000329
0.99865811
0.99832089
0.99952172
1.0002355
0.99953928
0.99859924
0.99824404
0.99827529
0.99889816
0.99898214
1.0003063
1.0005728
0.99976338
0.99969966
1.0000229
0.99959807
0.99923359
1.0002471
1.0013639
1.0006203
0.99892979
0.99868062
0.99998716
1.0006004
0.99934482
0.9980465
0.99810831
0.99889158
0.99916021
0.99862607
0.99726381
0.99616216
0.99897127
1.0010299
1.0032228
1.0021778
0.99953361
0.99880612
1.0007655
1.0023981
1.0012724
0.99916306
0.99882183
0.99994294
1.0001968
0.99952523
0.99892344
0.99816394
0.99749474
0.99859734
0.99972257
0.99767349
0.99554981
0.99724039
0.99971311
1.0019928
0.99993836
1.0007968
1.0023376
1.0021711
1.0004992
0.99985677
1.0006403
1.0006903
0.99944352
0.99902655
1.0000376
0.99969716
0.99754397
0.99710801
0.99922018
0.99955684
0.9973469
0.99644146
0.99746641
0.99802156
0.99758829
0.99723328
1.0028834
1.0009362
0.99940115
1.0005041
1.0023271
1.00183
0.99966493
0.99887398
0.99996813
1.0002462
0.99887306
0.99819942
0.99892749
0.99860525
0.99732039
0.99781329
0.99908829
0.99801169
0.99624862
0.99694582
0.99849011
0.99772751
0.99583078
1.0011358
1.0017729
1.0010442
1.0000801
1.0003037
1.0008486
1.0002681
0.99919523
0.99922144
0.99974064
0.9988782
0.99732069
0.99775154
0.99942751
0.99905538
0.99697929
0.99654958
0.99805054
0.99852414
0.99729186
0.99661069
0.99717447
0.99764963
1.0007285
1.0013922
1.0017457
1.0007424
0.99942438
0.99949592
1.0003693
1.0001143