/*--------------------------------*- C++ -*----------------------------------*\
| =========                 |                                                 |
| \\      /  F ield         | OpenFOAM: The Open Source CFD Toolbox           |
|  \\    /   O peration     | Version:  2406                                  |
|   \\  /    A nd           | Website:  www.openfoam.com                      |
|    \\/     M anipulation  |                                                 |
\*---------------------------------------------------------------------------*/
FoamFile
{
    version     2.0;
    format      ascii;
    arch        "LSB;label=32;scalar=64";
    class       volVectorField;
    location    "55";
    object      U;
}
// * * * * * * * * * * * * * * * * * * * * * * * * * * * * * * * * * * * * * //

dimensions      [0 1 -1 0 0 0 0];

internalField   nonuniform List<vector> 
20580
(
(0.084466658 0.0013644851 1.0444322e-21)
(0.083743617 -0.00038080106 8.0954423e-20)
(0.08796331 0.0001561996 -1.4693911e-21)
(0.08777713 -0.00028195815 3.1059775e-20)
(0.086285569 -0.00016384101 8.3354372e-23)
(0.08698937 0.00036393903 1.5468628e-20)
(0.086857102 0.00060628648 5.3903392e-20)
(0.087054502 0.00081630575 -4.9728465e-21)
(0.087061511 0.0014699117 -2.8133184e-21)
(0.087705698 0.00059808578 0)
(0.086956551 0.0013440703 1.8025252e-21)
(0.087384838 0.0010116041 -6.6485246e-20)
(0.087395253 0.00082047728 2.7240326e-21)
(0.08720341 0.0009441815 -3.8049121e-22)
(0.087341722 -0.00017571763 1.5280128e-20)
(0.087328599 -0.0008028662 -1.5204157e-20)
(0.086607111 -0.00013959145 6.3105846e-21)
(0.087552706 -0.0033569191 -5.3221227e-22)
(0.086556118 -0.0027312649 -4.3698505e-20)
(0.085464109 -0.0019604235 -8.2483065e-21)
(0.087590798 -0.0078328395 3.8791202e-22)
(0.087137692 -0.0090108366 -3.3050833e-21)
(0.085255584 -0.0076584682 -2.6948553e-21)
(0.087013785 -0.012094704 8.2866271e-20)
(0.090259875 -0.018957866 -5.3101449e-20)
(0.089657647 -0.022143047 3.7731948e-20)
(0.088692674 -0.020696215 2.107527e-21)
(0.090030679 -0.020167079 3.1611915e-22)
(0.089688425 -0.025187133 -1.3617215e-20)
(0.091314302 -0.032762828 6.7138615e-20)
(0.099906604 -0.039522165 2.7965425e-20)
(0.082926858 0.00010262367 0)
(0.083765171 -0.00036443675 -5.866658e-20)
(0.088743748 -0.0010149491 -7.2742573e-20)
(0.087434234 0.00086622336 1.0400206e-20)
(0.086709884 -0.00025233747 -4.0068065e-20)
(0.086732755 0.0007464638 -4.8424797e-22)
(0.086896999 0.0004259707 -6.5796646e-20)
(0.086931143 0.00082344451 -1.3375241e-20)
(0.087202512 0.00088273911 -5.9340571e-21)
(0.087178338 0.0013668551 1.1870419e-20)
(0.087161703 0.00083374585 -4.2727985e-21)
(0.087350429 0.00089877064 -4.5551711e-21)
(0.087247053 0.00078112723 1.0467279e-21)
(0.087194141 0.00088820207 1.8103206e-22)
(0.087501138 -0.00040903726 -1.8941159e-20)
(0.086989247 -0.00030566408 -5.123934e-22)
(0.086989124 -0.00042671075 -9.3659504e-21)
(0.087848109 -0.0033131839 -1.890913e-20)
(0.086294262 -0.0019454942 0)
(0.086903574 -0.003072014 -4.7773011e-20)
(0.088978553 -0.0080312074 0)
(0.087320421 -0.0078989578 3.5088741e-20)
(0.086358696 -0.007451294 8.6079864e-21)
(0.089050649 -0.0120138 -9.6082331e-22)
(0.091414025 -0.016242896 -4.4960204e-21)
(0.089064748 -0.017732654 3.1202282e-21)
(0.087872795 -0.01744938 2.4710114e-20)
(0.091600539 -0.018665374 1.8332525e-20)
(0.093515539 -0.024943139 6.2595945e-20)
(0.093004516 -0.03164022 -1.274626e-20)
(0.097684758 -0.035526407 -5.3829352e-20)
(0.081329363 -0.0010193656 0)
(0.082946886 -0.00023376988 0)
(0.08843645 -0.0020052299 2.6147886e-19)
(0.087299744 0.0017242341 2.3460249e-19)
(0.086932155 0.00017967357 -1.3658916e-19)
(0.086975311 0.00088386088 -2.2835475e-22)
(0.087099857 0.00024036349 1.2500513e-19)
(0.087022471 0.0008498869 -2.7043847e-20)
(0.087218006 0.00028041481 0)
(0.087139641 0.0017319753 2.5509845e-20)
(0.087201565 0.00062184087 -1.2516018e-21)
(0.087328201 0.0007275666 -1.6600697e-20)
(0.087240303 0.00056810297 0)
(0.087308434 0.00066445363 -4.6494415e-22)
(0.087567809 -0.00048908431 9.0252371e-22)
(0.08689685 -9.9967343e-06 -2.0907011e-21)
(0.087237531 -0.00078150364 -1.958841e-21)
(0.087804049 -0.0031477414 1.7613277e-21)
(0.086140471 -0.0016263693 -2.6172372e-20)
(0.087656858 -0.0043493502 0)
(0.089437443 -0.0076881594 0)
(0.087314259 -0.0066219658 -4.4501899e-20)
(0.087223073 -0.0076433474 -3.5720149e-21)
(0.090152719 -0.012192556 -2.1314607e-22)
(0.09195401 -0.013327893 4.8495722e-21)
(0.089349568 -0.013491038 -1.1208046e-20)
(0.08782382 -0.015678165 1.2054318e-22)
(0.093316624 -0.018544977 1.2951125e-20)
(0.097820881 -0.024370031 -3.8478168e-20)
(0.096111411 -0.03112425 -2.076377e-20)
(0.094545554 -0.033260802 8.2011715e-21)
(0.079910911 -0.0014602697 0)
(0.081482273 4.3312046e-05 -3.9519323e-23)
(0.087442552 -0.0020746826 4.7653706e-21)
(0.086701287 0.0017002241 3.8824029e-21)
(0.086699083 0.00051781763 -3.2090161e-19)
(0.086984483 0.00054030061 -1.6847404e-20)
(0.08717107 0.00018190438 1.3348504e-19)
(0.087183518 0.00089935377 0)
(0.087304902 3.7405585e-05 2.7718299e-22)
(0.087258824 0.0014517371 -2.5794082e-21)
(0.087368118 0.00071128652 -1.2594337e-20)
(0.087425484 0.00054289385 -1.4759409e-20)
(0.087300592 0.00057660853 -1.614517e-22)
(0.087470915 0.00035149261 4.8659567e-21)
(0.087613383 -0.00027524709 -1.9922756e-20)
(0.086907171 0.0003614966 -6.1401684e-22)
(0.087601262 -0.0011180061 -2.5791238e-20)
(0.087805099 -0.0026317158 -7.8858832e-23)
(0.086332512 -0.0013501092 3.4184278e-23)
(0.088297366 -0.0053878987 -5.1991038e-21)
(0.08937603 -0.0067554548 -4.6265637e-21)
(0.087267542 -0.0049515727 -2.5144943e-20)
(0.088092275 -0.007709593 -3.1773345e-21)
(0.090500525 -0.012365969 2.8369535e-20)
(0.091717376 -0.011023563 0)
(0.090197359 -0.010006175 -8.04768e-21)
(0.088644683 -0.014734181 -2.7957148e-20)
(0.093819478 -0.019574918 -1.5893822e-20)
(0.10039769 -0.022800856 -3.3180769e-20)
(0.099862996 -0.028065847 -3.3223978e-20)
(0.094304639 -0.031519571 -4.3088006e-21)
(0.078614564 -0.0009655725 0)
(0.079742149 0.00037921742 -1.5361416e-19)
(0.086028634 -0.0012395253 -2.4136752e-19)
(0.085699494 0.00077143571 -2.6989769e-19)
(0.086183146 0.00054852761 -1.1598186e-21)
(0.086741826 -5.2191533e-05 -5.6909266e-20)
(0.087043047 0.00025417052 0)
(0.087275686 0.00077642004 -8.441284e-21)
(0.087378344 0.00024125687 -1.0211332e-20)
(0.087402556 0.00075965817 1.3277804e-20)
(0.087559649 0.00091628386 -1.0077621e-20)
(0.087579196 0.00041777897 8.3052328e-23)
(0.087402663 0.00085021621 3.4908817e-21)
(0.087644123 -4.044515e-05 -7.5270348e-21)
(0.087617182 5.5483667e-05 -1.3220651e-20)
(0.087118228 0.00047959955 8.7799061e-21)
(0.088012391 -0.0016209356 -2.4188086e-20)
(0.087801549 -0.0019007352 -3.4330561e-20)
(0.086845835 -0.0010604451 -2.672329e-20)
(0.08893332 -0.0058425738 0)
(0.08903592 -0.0054514465 -5.8755036e-21)
(0.087443231 -0.0036249855 -1.1801214e-21)
(0.089341588 -0.0073803907 3.501672e-20)
(0.090719319 -0.01212786 1.0304762e-21)
(0.090804334 -0.010187756 0)
(0.091454364 -0.0081185877 6.8654483e-21)
(0.091053689 -0.014198621 -4.446516e-20)
(0.093815579 -0.020794237 1.9174186e-21)
(0.10015925 -0.021324103 4.4397339e-20)
(0.10193888 -0.021973256 1.8252312e-20)
(0.097347218 -0.026277288 3.6481192e-20)
(0.077503933 0.00028840817 -4.0602642e-20)
(0.078019267 0.00075814229 -1.0900723e-21)
(0.084306223 0.0001286785 2.4568661e-23)
(0.084295339 -0.00044980545 4.9717006e-20)
(0.085095774 0.00034261878 8.1729882e-21)
(0.086022964 -0.00044143912 -2.0776028e-22)
(0.086588574 0.00053313422 1.7542074e-20)
(0.087065239 0.00043997658 5.4633492e-23)
(0.087221809 0.00073654028 -7.1118249e-21)
(0.087334264 0.0002515714 -3.8185492e-20)
(0.08757904 0.00095273586 -8.4259513e-21)
(0.087649623 0.00047844056 5.4350044e-21)
(0.087585158 0.0011027204 1.3761093e-21)
(0.087879921 -0.0003242159 -5.7832395e-21)
(0.087695008 0.00025304665 -1.3584432e-20)
(0.08754466 0.00028420316 -4.3199827e-22)
(0.088408655 -0.0020410078 -1.763589e-20)
(0.087806177 -0.001134364 -4.6828771e-20)
(0.087623254 -0.00087142051 -1.5232908e-21)
(0.0895426 -0.0057716283 0)
(0.088656303 -0.004126269 -6.6288794e-21)
(0.087802135 -0.0029059355 3.0708653e-21)
(0.090821566 -0.0069018527 -5.4426477e-20)
(0.09127115 -0.011221003 0)
(0.089893549 -0.010275506 -5.8260126e-20)
(0.092439978 -0.0085915088 1.0476978e-20)
(0.094318915 -0.014143455 4.3262245e-20)
(0.094562748 -0.020878015 3.0857218e-20)
(0.098114596 -0.020488097 -4.8310637e-20)
(0.10162874 -0.016785468 -3.1479756e-20)
(0.10127196 -0.019518029 5.293681e-20)
(0.076669734 0.0018502397 3.5711748e-21)
(0.076798319 0.00091543507 -5.7925937e-20)
(0.08249586 0.0010823933 2.0146038e-22)
(0.082626135 -0.0014731704 1.445579e-19)
(0.083578098 0.0001232255 -9.06936e-20)
(0.084802092 -0.00032228291 1.2123331e-20)
(0.085636964 0.00083490034 -9.5902616e-20)
(0.086373451 2.3261401e-05 -6.8354044e-24)
(0.086695635 0.0011233698 -4.8798967e-23)
(0.086950071 0.00032939786 9.6749007e-21)
(0.087303223 0.00073443551 -3.2402355e-22)
(0.087445761 0.00072400401 -3.3348244e-22)
(0.087622633 0.0010653196 -7.934759e-22)
(0.087952288 -0.0003651347 -2.5661649e-23)
(0.087688536 0.00026215237 7.8928146e-21)
(0.087941043 4.5660551e-06 -1.2229929e-21)
(0.088623473 -0.0021584212 6.5891915e-24)
(0.087724711 -0.00053842861 9.0088393e-20)
(0.088439041 -0.0010381793 0)
(0.090015628 -0.0051817723 -9.1777597e-21)
(0.088346015 -0.0029553782 6.5879794e-21)
(0.088294256 -0.002960172 -2.3009012e-20)
(0.0921289 -0.0069361333 5.9493996e-21)
(0.092041935 -0.0094256414 -1.3120884e-20)
(0.089370412 -0.0098794563 2.1833058e-21)
(0.092835533 -0.010203793 -6.4551435e-21)
(0.097201275 -0.013870545 1.054102e-20)
(0.096398565 -0.01941557 1.6466212e-21)
(0.095918514 -0.019593973 -1.3282533e-19)
(0.099753469 -0.014606367 1.0591141e-19)
(0.1038001 -0.014507506 -2.8166164e-22)
(0.076272174 0.0032650686 -8.2847221e-19)
(0.076146358 0.00097241836 0)
(0.081324414 0.00087393438 -3.6324438e-19)
(0.081213547 -0.0017515737 -2.170054e-19)
(0.082091371 6.819391e-05 2.7018847e-19)
(0.083238728 0.00023566634 -6.2658862e-23)
(0.084267377 0.00088893135 -4.6631599e-20)
(0.085211468 -0.0001129843 -2.7046726e-22)
(0.085723546 0.0011475438 6.1770459e-21)
(0.086158081 0.00068579261 -5.1901527e-21)
(0.086658687 0.0004185452 -1.4919669e-20)
(0.086875586 0.00097202736 -1.8302859e-22)
(0.087371198 0.00069863487 -3.6534213e-21)
(0.087726564 -0.00013529047 1.9136154e-21)
(0.0874462 0.00023813418 1.0549671e-21)
(0.088056128 -0.00031374368 7.828581e-21)
(0.088497056 -0.0018863898 5.1675712e-21)
(0.087492118 -0.00021212532 2.8190558e-20)
(0.088986903 -0.0016807563 -3.4728197e-22)
(0.090153812 -0.0042504735 -4.1641311e-22)
(0.088203845 -0.0018404832 -4.7523552e-21)
(0.088894445 -0.0038728678 -6.1257614e-22)
(0.092726401 -0.007422187 0)
(0.092676003 -0.0071313177 -6.3240666e-21)
(0.089798492 -0.0084636528 -2.7465885e-20)
(0.092866193 -0.011432361 -1.6982773e-20)
(0.098372682 -0.01330286 1.2240367e-21)
(0.098027304 -0.016088539 -4.4363255e-20)
(0.094883849 -0.017235974 2.9617628e-20)
(0.097309849 -0.015131696 -1.3902954e-19)
(0.10413949 -0.014096932 -2.7015623e-20)
(0.076433736 0.0035867231 3.0050927e-19)
(0.076344646 0.0010370898 -1.5280258e-23)
(0.081286974 -0.00031205566 -9.9836944e-20)
(0.080590636 -0.001206467 -2.7553187e-19)
(0.080979275 0.00010599449 2.1569529e-21)
(0.081887906 0.00086843169 1.1552045e-22)
(0.082937961 0.00056394009 2.2628903e-20)
(0.083739659 0.00017026197 -1.7430867e-23)
(0.084309821 0.00080195138 4.4517736e-21)
(0.084965422 0.00085321044 1.3630422e-20)
(0.085480777 0.00018641121 -3.1964982e-20)
(0.085861 0.0010601747 0)
(0.086622677 0.00011035935 -1.2764676e-22)
(0.086964169 0.00017418903 -9.7679291e-22)
(0.08683164 0.00019738302 1.4068792e-20)
(0.087685247 -0.00072882158 -1.0968366e-20)
(0.087951617 -0.0012229034 4.0570615e-21)
(0.087138023 -2.8794862e-05 -5.7694234e-21)
(0.089116462 -0.0025539653 3.4830506e-20)
(0.089794874 -0.0033524769 -3.099706e-20)
(0.088240194 -0.00099589588 4.1932036e-21)
(0.089620848 -0.0049764672 1.4505802e-21)
(0.092614986 -0.0078440934 4.5580982e-21)
(0.092781678 -0.0049755326 -4.3166969e-21)
(0.090923415 -0.0066899946 -2.8421424e-21)
(0.093017436 -0.011561085 -2.4424237e-20)
(0.098073696 -0.012593079 -3.9311627e-20)
(0.098723569 -0.011884621 -5.4431881e-21)
(0.09510254 -0.013622231 -5.7007264e-20)
(0.095356279 -0.015897722 4.3221299e-20)
(0.1020388 -0.01654667 -5.7583901e-20)
(0.079795616 0.0033250157 6.7497741e-19)
(0.077693152 0.0011210678 -1.3073765e-22)
(0.082120661 -0.001533931 1.0319506e-19)
(0.080880837 -0.00015905286 3.0610397e-19)
(0.080951511 0.00026062239 -3.4458206e-22)
(0.081632091 0.0011687583 0)
(0.08242258 -1.3208176e-05 -3.7035106e-20)
(0.082797448 0.00064921303 -1.9094888e-20)
(0.083204504 0.00031688357 6.1695872e-21)
(0.083820792 0.00070310271 1.625537e-20)
(0.084204641 0.00016533208 2.7832292e-23)
(0.084651936 0.00089208306 -5.5433157e-23)
(0.085457358 -0.00031692614 0)
(0.085713064 0.00048138901 -6.2718791e-21)
(0.085821641 0.00023615828 -1.0663207e-20)
(0.086716344 -0.00097432788 -3.3597311e-22)
(0.086825776 -0.00036999374 -2.0195697e-20)
(0.086537517 0.00011569062 1.9284342e-20)
(0.088705473 -0.0032429202 1.5453256e-20)
(0.088809958 -0.0024605475 -4.6996439e-20)
(0.088200053 -0.00068972728 5.6523163e-21)
(0.090297196 -0.0054651468 6.4807446e-20)
(0.091846151 -0.0081213655 -6.0373575e-20)
(0.092198878 -0.0035435541 -6.4905062e-20)
(0.092229303 -0.0049108132 -6.7270424e-20)
(0.093505115 -0.010528489 3.3001834e-21)
(0.096877404 -0.011371822 2.3586174e-22)
(0.098641488 -0.0081003541 1.9633879e-20)
(0.097057445 -0.009741123 -4.4726205e-20)
(0.095787187 -0.015426743 -6.5154703e-20)
(0.099432335 -0.019483124 7.3967895e-20)
(0.095670165 0.0024992648 8.6096331e-21)
(0.082822091 0.0012281675 -1.2418677e-22)
(0.085418546 -0.0019775871 -4.45759e-20)
(0.083207395 0.00087853198 5.1583255e-22)
(0.082349996 0.0004902131 -1.314557e-21)
(0.082514482 0.0008370105 -7.3335727e-20)
(0.08282145 -0.00063098941 -6.8154348e-20)
(0.082952996 0.00092053432 -2.3746249e-23)
(0.083299776 -3.4821066e-05 1.4928675e-20)
(0.083796799 0.00027776507 -7.1189678e-21)
(0.084045992 0.00035911329 -2.6679144e-21)
(0.084481937 0.00054075958 8.2995597e-21)
(0.085093027 -0.00039252094 0)
(0.085179673 0.00062135768 -3.8210913e-22)
(0.085436904 0.00021374668 -2.3628534e-20)
(0.086072055 -0.00099551127 -2.9880575e-23)
(0.085949943 0.0002542679 2.1594622e-21)
(0.086199273 2.2941974e-05 1.42797e-22)
(0.08809132 -0.0036785908 4.7808167e-22)
(0.087530476 -0.0015863732 5.9670013e-22)
(0.087914596 -0.00073330072 -7.7882343e-21)
(0.090731588 -0.0051334566 6.5017042e-20)
(0.090685608 -0.0076485691 -4.3439232e-21)
(0.090906349 -0.0030723293 -3.4705502e-21)
(0.093266028 -0.0038131418 -1.5007699e-20)
(0.09438006 -0.0093909017 -2.3819995e-21)
(0.095176269 -0.010363904 5.9768004e-20)
(0.097396195 -0.005986683 -6.3324498e-20)
(0.099338281 -0.0062955256 -6.1106538e-21)
(0.099077016 -0.012991535 1.0991605e-19)
(0.09913437 -0.019863181 -2.2956322e-21)
(0.10551478 0.0012708717 6.1847294e-19)
(0.090933257 0.0011048364 0)
(0.091705067 -0.0015566289 1.0192603e-19)
(0.088610959 0.0013758115 2.6308351e-19)
(0.086235115 0.00050599744 3.1252548e-19)
(0.085428178 6.4053369e-05 8.0809801e-21)
(0.084726218 -0.00074704701 -1.6091503e-22)
(0.084455832 0.00091589185 -5.6094054e-23)
(0.084580561 8.8858656e-05 -1.3450173e-20)
(0.084747908 7.8316051e-05 6.9981713e-21)
(0.084832009 0.00092411096 2.1722494e-21)
(0.085211794 0.00032997519 -6.0228182e-23)
(0.085541657 -7.2536724e-05 4.8722116e-21)
(0.085540981 0.00058478141 0)
(0.085928332 0.00014355996 -2.0597866e-20)
(0.086233952 -0.00088324294 8.385875e-21)
(0.085932456 0.00039512899 3.528628e-20)
(0.086708343 -0.00023961391 5.0844564e-20)
(0.08801017 -0.0033961969 1.2460657e-22)
(0.086724591 -0.00085136547 3.6049677e-20)
(0.087807299 -0.0011838207 2.8735967e-21)
(0.091000562 -0.0042942486 -4.4963914e-22)
(0.089483954 -0.0059055867 2.7627305e-20)
(0.089116885 -0.0030610234 6.7976065e-20)
(0.093464462 -0.0036917716 1.3666152e-20)
(0.095216626 -0.0082541996 -1.6772307e-20)
(0.093653454 -0.0094498439 -3.7241357e-20)
(0.095222703 -0.0063724399 -1.441237e-22)
(0.10012655 -0.0053768907 -2.7673912e-21)
(0.1030742 -0.010176899 -4.7781542e-20)
(0.10220072 -0.017073922 4.5448143e-20)
(0.10111375 -0.00016566849 -3.6100463e-19)
(0.09316752 0.00081632142 -1.8245732e-19)
(0.095337472 -0.00056062353 1.2847825e-21)
(0.092961131 0.0012361709 3.6976217e-21)
(0.091242578 0.00029141245 9.3019627e-23)
(0.09031729 -0.00075366071 -1.3354218e-19)
(0.089154738 -0.00023668463 -2.5733812e-20)
(0.088473805 0.00045383388 -4.626258e-23)
(0.088219976 0.00037930412 -4.0252259e-23)
(0.087904251 8.0583398e-05 -1.4150894e-20)
(0.087678438 0.0012068479 -3.4689683e-23)
(0.087863898 0.00015901107 -3.5586128e-21)
(0.087760649 0.0002484562 -1.7615127e-22)
(0.08754277 0.00036902928 6.9469149e-23)
(0.087844858 2.4349149e-05 0)
(0.087702248 -0.00069911315 0)
(0.087057627 0.00028640886 -2.4156429e-20)
(0.088019264 -0.00062920978 1.2578304e-21)
(0.088647563 -0.0024153665 2.0911764e-20)
(0.086917023 -5.3282313e-05 2.9994652e-21)
(0.088265565 -0.0021559936 -8.7230585e-21)
(0.091433173 -0.0035576573 4.8019823e-21)
(0.08920147 -0.003359461 0)
(0.088042616 -0.0034050334 0)
(0.093137462 -0.0046029532 0)
(0.095609281 -0.00684808 6.2383643e-21)
(0.092796318 -0.0079865153 1.3457413e-21)
(0.092724827 -0.0078483558 2.4279867e-20)
(0.098564561 -0.0071042894 1.4514858e-20)
(0.10434114 -0.0084502611 -4.70097e-21)
(0.1049103 -0.012106511 -1.1869676e-20)
(0.088557619 -9.3539512e-05 -1.5272517e-19)
(0.089439183 0.00079353501 -2.776887e-21)
(0.093927662 0.00030488025 -9.2631229e-22)
(0.092384182 0.00056243729 -3.0610208e-19)
(0.092014008 0.00013998569 0)
(0.091940958 -0.00089092163 -2.1078997e-22)
(0.091546589 0.000930788 -6.526057e-20)
(0.091523218 5.4412789e-05 -3.81687e-21)
(0.091569092 0.00073949948 -4.7922818e-23)
(0.091279019 0.00036699369 1.8043488e-20)
(0.091215193 0.0010615407 6.5992415e-21)
(0.091464166 0.00014095972 0)
(0.091213243 0.00055068592 -3.8076444e-20)
(0.090928531 0.00025701531 4.9376252e-21)
(0.091100874 -0.00022950514 -1.2454853e-20)
(0.090690656 -0.00028822342 -1.4696625e-21)
(0.089851225 0.00014561256 -9.6603391e-21)
(0.090683014 -0.0011134801 -1.1477187e-21)
(0.090530791 -0.0013683608 3.6481968e-20)
(0.088760561 0.00072294383 2.5294765e-21)
(0.089828962 -0.0032087225 9.8174387e-22)
(0.092192261 -0.0031174007 -4.7663694e-20)
(0.090190243 -0.00062523479 1.185034e-20)
(0.088709774 -0.0035248882 0)
(0.093045481 -0.0060058831 8.1100912e-21)
(0.09598969 -0.0055584001 3.1147066e-21)
(0.093586409 -0.0055600417 -4.7227247e-20)
(0.0921453 -0.0084277728 1.2551405e-20)
(0.096466761 -0.010063733 3.9647489e-20)
(0.10275767 -0.0088071488 3.3783704e-20)
(0.10551946 -0.007890004 6.9663423e-21)
(0.081301765 0.0010741268 1.1576036e-19)
(0.081868889 0.00084939389 7.2112757e-20)
(0.089099512 0.00045992034 -1.2613132e-22)
(0.088631701 -0.00036025963 1.5851989e-19)
(0.089434031 3.6967229e-05 1.2333443e-19)
(0.090321724 -0.00055305535 9.1673897e-23)
(0.090581774 0.0016137556 1.4237128e-19)
(0.091058452 -0.000206065 -1.8408713e-20)
(0.091352217 0.0006270196 1.5343758e-22)
(0.091303222 0.00049589101 5.2429432e-23)
(0.091492123 0.00040108565 2.0344431e-21)
(0.091874055 8.6222149e-05 -1.7428597e-23)
(0.091789406 0.00064501985 -2.9570121e-22)
(0.091797138 0.00010821124 -1.7027416e-22)
(0.092068939 -0.00048455073 -1.5748469e-20)
(0.091756797 0.00012422415 -1.3299167e-22)
(0.091428374 -5.3145474e-05 -4.5477572e-21)
(0.09249193 -0.0016837783 -9.2327119e-22)
(0.0921775 -0.00071454698 2.393187e-21)
(0.091362398 0.0009098187 0)
(0.092349663 -0.0039304862 5.3074839e-20)
(0.093337912 -0.0033107936 1.0881777e-21)
(0.092405863 0.0011806462 9.6419358e-21)
(0.091584249 -0.0029290514 -9.9088122e-22)
(0.094050928 -0.0072421831 1.568741e-21)
(0.096434899 -0.0046275198 7.0063408e-20)
(0.095795124 -0.002524852 1.8549766e-20)
(0.094581741 -0.0068878303 3.21144e-22)
(0.09612261 -0.011547344 -6.056063e-21)
(0.10047294 -0.010180032 -4.653011e-20)
(0.10388051 -0.0061912975 -3.6543562e-22)
(0.084194927 0.0032456033 -2.6745099e-19)
(0.081797908 0.00057216597 1.8955861e-23)
(0.086156615 -0.00057612148 -1.3796169e-19)
(0.085076245 -0.00078171252 -1.6517991e-21)
(0.085778628 0.00041117232 2.0997598e-21)
(0.086632063 0.00049588126 9.5086386e-21)
(0.087573485 0.0014433163 0)
(0.088427493 8.5793263e-05 -2.7271574e-22)
(0.08902484 0.00043289393 1.4340157e-23)
(0.089393917 0.00080639102 2.6888098e-20)
(0.089842607 8.0341254e-05 -2.7653061e-23)
(0.090298129 0.00028306354 4.1798388e-23)
(0.090500412 0.00083754488 4.0761043e-21)
(0.09081336 0.00015539195 -3.5758521e-20)
(0.091117114 -0.00043576651 1.8963518e-20)
(0.0910419 0.00041816074 9.4673071e-22)
(0.091191672 -0.0001535951 2.584925e-22)
(0.092206052 -0.0017869024 -4.0506776e-23)
(0.09180521 5.7153151e-05 0)
(0.092393725 0.00093603052 3.5805797e-20)
(0.093904421 -0.0036404826 6.483433e-20)
(0.093618955 -0.0033926799 3.4882161e-20)
(0.094039139 0.0014199829 -1.3887456e-20)
(0.095434239 -0.0021064455 -9.1432049e-22)
(0.096299022 -0.0077372286 8.2601455e-21)
(0.096931283 -0.0044711379 -4.5437624e-20)
(0.098252522 -0.00050719886 1.5489198e-21)
(0.099375917 -0.0039819708 -4.3806591e-20)
(0.099016787 -0.0099196822 3.3113293e-20)
(0.099960296 -0.010509774 -2.7397556e-20)
(0.10217515 -0.0059469209 -2.9146241e-21)
(0.10022809 0.0043100445 -3.5346631e-19)
(0.086136423 0.0010353841 -9.7360777e-24)
(0.088181595 -0.0019664472 -4.2454235e-21)
(0.085956976 -0.00081520093 3.4974881e-19)
(0.085770971 0.00046225648 -1.4821898e-21)
(0.085629813 0.0012784925 7.5041522e-20)
(0.085891811 0.00016661275 0)
(0.086207468 0.0002371674 0)
(0.086337463 -4.7380784e-05 -6.1598693e-21)
(0.086628297 0.0007130881 0)
(0.087117965 -0.00020273824 -3.1199778e-20)
(0.087496084 0.00014084733 -1.518445e-20)
(0.087928908 0.00067044536 0)
(0.088532032 0.00019753097 -7.1396035e-20)
(0.088862055 -0.00028393707 1.7962826e-20)
(0.089023195 0.00051794491 2.1417626e-21)
(0.089715361 -0.00020074785 4.4886318e-22)
(0.090659164 -0.0015995312 1.6271051e-21)
(0.090286912 0.00030717366 -3.5510931e-20)
(0.092113349 0.00032716944 1.8363999e-20)
(0.094110544 -0.0029418944 -5.0165697e-20)
(0.092647673 -0.0029006948 4.3717413e-23)
(0.09375543 0.00034875575 1.7901147e-20)
(0.097598799 -0.0017998175 2.8554523e-20)
(0.097829936 -0.0065743275 -9.9907509e-21)
(0.096354646 -0.0043593128 -1.1066328e-19)
(0.099009928 -0.00061147873 1.5892087e-20)
(0.10324201 -0.002048732 3.4637575e-21)
(0.10332384 -0.0066792743 -9.104319e-20)
(0.10122584 -0.0089495444 -2.4266225e-21)
(0.10158013 -0.0062385165 5.7794489e-20)
(0.10165068 0.0040851098 3.1050925e-19)
(0.091521549 -0.00063294515 8.5407679e-23)
(0.092793679 -0.0030647852 2.4433247e-19)
(0.089619683 -0.00044520539 -3.5869075e-19)
(0.088123928 0.0005522379 8.7382305e-20)
(0.087255317 0.0015435525 7.1253101e-22)
(0.086894165 -0.00089090126 3.8580588e-23)
(0.08668688 0.00051297161 3.3995809e-20)
(0.086450823 3.0084549e-05 8.4625792e-20)
(0.086551775 0.00078821589 -9.6486557e-21)
(0.086821652 9.0455486e-05 6.7994255e-21)
(0.086901164 0.00028328065 -2.1396721e-22)
(0.087232249 0.00079707921 4.2942504e-21)
(0.087743574 0.00024842481 -1.2422518e-20)
(0.087817436 -0.00021653274 -2.4679336e-21)
(0.087912524 0.00052716447 6.1187215e-21)
(0.088700037 6.2921283e-05 -2.8770217e-20)
(0.089213472 -0.00075355863 1.4772712e-20)
(0.088599972 0.0006064302 -4.0853782e-22)
(0.090898502 -0.00056208428 -5.730675e-21)
(0.093174165 -0.0017277111 -1.3598079e-20)
(0.09118743 -0.0015350067 -1.3533544e-20)
(0.092300991 -0.0010778748 3.5107168e-20)
(0.097439861 -0.0020578949 -6.8430463e-25)
(0.097869778 -0.0037344736 -1.0993704e-20)
(0.09488608 -0.0030753061 2.9786232e-20)
(0.097418557 -0.0018006305 8.7422152e-22)
(0.10355472 -0.0017904823 -2.9638388e-20)
(0.1055848 -0.0032137944 2.2260885e-20)
(0.10265467 -0.0049609542 -2.4670788e-20)
(0.10127098 -0.0053658778 -6.9567244e-21)
(0.088436076 0.0022978095 3.0408255e-19)
(0.089945761 0.00030144016 2.7826849e-23)
(0.09375124 -0.003074863 -7.5982946e-22)
(0.091499031 -0.00031373659 -1.7649375e-21)
(0.09095324 9.9694006e-05 2.1904804e-20)
(0.090303763 0.00050007663 -8.4114606e-20)
(0.089585178 -0.0014908337 -6.7611186e-20)
(0.088932417 0.0001744803 -2.8538881e-20)
(0.088409639 -0.00011244541 2.9447497e-20)
(0.088230684 0.00010080936 1.7256309e-23)
(0.088285074 0.00021616414 -7.2120903e-21)
(0.088059182 0.00026586447 -3.2998872e-20)
(0.088292578 0.00037635879 -5.0854594e-22)
(0.088713981 0.00033336892 -2.0294716e-20)
(0.088423355 0.00016271928 1.3477809e-22)
(0.088285522 0.00013149086 -7.4142523e-21)
(0.089036948 -0.00028432018 2.0307335e-20)
(0.089275337 -0.00048829113 0)
(0.088657683 0.00041557741 3.5918677e-22)
(0.090697474 -0.0019547164 -8.1449566e-23)
(0.092596602 -0.00073798157 -5.2987337e-20)
(0.090561837 0.00032969149 1.1823971e-20)
(0.091053137 -0.0023121012 -1.4383326e-20)
(0.095802105 -0.0033221158 2.3619114e-20)
(0.096815886 -0.0012605052 9.4582766e-21)
(0.093781812 -0.0012680758 1.3848504e-20)
(0.095158027 -0.0033648442 7.6621076e-21)
(0.10103608 -0.0037323037 3.9764715e-20)
(0.10459482 -0.0018603687 -4.585791e-20)
(0.10296359 -0.0011019708 3.8532946e-20)
(0.10115842 -0.0035839937 8.7192156e-20)
(0.0875817 0.00145608 -6.5319402e-20)
(0.088388713 -0.00015182478 -6.0312491e-20)
(0.092600335 -0.0017624643 -1.0202754e-19)
(0.090440413 0.00056006231 -1.3467111e-19)
(0.090635443 9.417047e-05 6.3379756e-22)
(0.090983003 -0.0005029153 7.3286227e-23)
(0.090807267 -0.00063779501 1.1705893e-23)
(0.090646524 -5.3532823e-06 -3.3790153e-20)
(0.090641396 0.00028286678 -8.8195596e-21)
(0.090619959 -0.00018087604 -7.2283715e-21)
(0.090721297 0.00045538933 -1.3229512e-20)
(0.090523974 0.00059118638 1.5466606e-23)
(0.090500051 0.00014945089 2.0313345e-21)
(0.09079173 -0.00020278236 -9.3725817e-24)
(0.090517162 0.00016254443 4.4935572e-20)
(0.090290739 -6.3470365e-05 5.6309617e-21)
(0.090666309 -5.8422975e-05 -7.7824307e-23)
(0.09049544 0.0006252228 -1.7284833e-22)
(0.089940042 0.0013692049 6.2561964e-20)
(0.091244226 -0.0028400349 -2.2921925e-21)
(0.092492296 0.00013778077 1.6650125e-21)
(0.091631786 0.0020217432 -2.7500668e-20)
(0.091841343 -0.0023971759 -2.1037526e-21)
(0.094736207 -0.0038407358 5.8609577e-20)
(0.095904758 0.00077548942 -7.6118147e-21)
(0.094204187 0.0016380409 2.5783589e-20)
(0.094708703 -0.0034004333 1.3002986e-19)
(0.098404742 -0.0055927489 3.3228223e-20)
(0.1015833 -0.0016347743 3.5117072e-20)
(0.10230327 0.0015381148 5.4002248e-21)
(0.10168413 -0.00050205437 -1.5795568e-20)
(0.10098505 -0.00020324763 7.7509713e-19)
(0.093430768 0.001536506 -3.1420337e-21)
(0.094939472 -0.0011119288 -2.5429986e-21)
(0.092545072 0.0007864516 -2.6502468e-21)
(0.092605598 -7.8385282e-05 -7.4794464e-22)
(0.092653904 -0.0017050334 1.7441036e-22)
(0.092456083 0.00055099878 -2.932814e-22)
(0.092360734 -0.00032513395 1.6986517e-22)
(0.092478568 0.00018433713 -2.8892698e-24)
(0.092559021 -0.00084087874 -1.5135475e-22)
(0.092709951 0.000185697 6.0713888e-23)
(0.092760022 0.00029582111 -7.5386717e-21)
(0.093061724 -0.00076549541 -8.6593947e-21)
(0.093238051 0.00042449231 -2.5345272e-23)
(0.09281396 0.00025976526 1.5601745e-22)
(0.092449828 -0.00096470322 -1.1655291e-22)
(0.092726381 -0.0008176737 -9.8478264e-22)
(0.092559436 0.00022275763 -5.1464881e-22)
(0.092964435 0.0011612136 -6.6306338e-20)
(0.0935956 -0.0028987804 -1.6691971e-20)
(0.093485648 0.0004172322 9.0544741e-20)
(0.093864236 0.0034045873 1.807137e-22)
(0.094263255 -0.0023957269 -9.3756251e-22)
(0.094964714 -0.0042787334 -4.8020902e-22)
(0.095634166 0.0011351942 -4.0380367e-20)
(0.09637737 0.0026880387 -1.9075972e-20)
(0.09750554 -0.0022482885 -3.1330489e-21)
(0.098124955 -0.0068361688 2.6269144e-21)
(0.099191098 -0.0031792638 3.8054904e-20)
(0.10158073 0.0016122274 -6.0179374e-20)
(0.10320518 0.00062919711 -1.552726e-20)
(0.10519971 0.00020775394 1.1992267e-20)
(0.091508002 -0.0010248649 2.0293766e-19)
(0.094828107 -0.0001547102 1.7028429e-19)
(0.093100334 0.0012435186 3.9341727e-19)
(0.093639543 -0.00011078224 8.6095705e-20)
(0.093901069 -0.0018588963 5.6779466e-20)
(0.093988647 0.0016460912 -1.8137811e-19)
(0.094414023 9.7583581e-05 8.200435e-23)
(0.094798707 0.00042104398 3.4924453e-20)
(0.095065848 -0.00060765626 -1.8231438e-20)
(0.095450466 0.00012913902 -5.4804811e-22)
(0.09596945 0.00070092565 -1.3320156e-22)
(0.096098513 -0.00038923011 -2.904659e-20)
(0.096583071 -0.00080854761 -5.4232895e-20)
(0.097004355 0.00022176373 1.7351296e-23)
(0.096676444 -0.00022383748 2.5960836e-21)
(0.096889626 -0.00037267619 1.1493652e-22)
(0.096669823 0.00079288105 -4.1004309e-20)
(0.097901173 0.0015111366 5.2495734e-22)
(0.098242162 -0.0023499458 -3.5313538e-20)
(0.097001025 -0.00023678737 -8.1680641e-20)
(0.099044253 0.0026062866 -3.2936761e-22)
(0.10042904 -0.00099836961 3.7442848e-22)
(0.098872159 -0.0028380008 1.1905037e-20)
(0.098496681 0.00072323606 1.0204135e-21)
(0.1009155 0.0026100567 -3.6982546e-21)
(0.10403557 -0.00048369423 -1.7651442e-19)
(0.10295035 -0.0045419247 0)
(0.10079284 -0.0031275689 -1.9541407e-20)
(0.10358275 0.00050038491 -9.0823596e-20)
(0.10741169 0.0011844051 2.8895517e-22)
(0.095532404 0.00042772432 -1.4939157e-19)
(0.05366446 0.00039174875 0)
(0.10706973 -0.0028345688 8.492723e-23)
(0.1078133 0.00041504091 4.4359188e-20)
(0.098865356 5.6693689e-05 6.1961312e-21)
(0.10770706 -0.00073017478 6.9232229e-22)
(0.10497641 0.00040369808 -9.2319407e-20)
(0.10917598 -6.9458437e-05 -1.9001755e-20)
(0.10677633 -9.9818348e-05 1.2565154e-20)
(0.10959894 -0.00036375663 -6.3577503e-21)
(0.10811345 0.00027154621 -3.9428958e-22)
(0.10935915 -0.00033794733 5.7062887e-21)
(0.11081091 -6.2762076e-05 1.1222328e-20)
(0.10398899 0.0012773467 -1.4467872e-20)
(0.11102566 -0.00096875206 -7.7086557e-21)
(0.11070085 -0.00097126633 -1.2795245e-22)
(0.1121534 -0.00011104267 -1.040219e-20)
(0.10794496 -0.00038913509 -1.5577098e-20)
(0.11427042 0.00048829196 5.2060628e-21)
(0.10630193 0.00018311808 -6.7536022e-22)
(0.11019498 -0.00030361772 -2.2152274e-20)
(0.10981693 0.0016166005 1.3921574e-21)