/*--------------------------------*- C++ -*----------------------------------*\
| =========                 |                                                 |
| \\      /  F ield         | OpenFOAM: The Open Source CFD Toolbox           |
|  \\    /   O peration     | Version:  2406                                  |
|   \\  /    A nd           | Website:  www.openfoam.com                      |
|    \\/     M anipulation  |                                                 |
\*---------------------------------------------------------------------------*/
FoamFile
{
    version     2.0;
    format      ascii;
    arch        "LSB;label=32;scalar=64";
    class       volScalarField;
    location    "115";
    object      alphat;
}
// * * * * * * * * * * * * * * * * * * * * * * * * * * * * * * * * * * * * * //

dimensions      [1 -1 -1 0 0 0 0];

internalField   nonuniform List<scalar> 
20580
(
8.9076958e-07
9.0744427e-07
8.8304036e-07
8.5641843e-07
8.3105747e-07
8.1957621e-07
8.116595e-07
8.0114801e-07
7.9604485e-07
7.8936948e-07
7.8640052e-07
7.8053089e-07
7.7523353e-07
7.706415e-07
7.6777641e-07
7.634207e-07
7.6596894e-07
7.7047001e-07
7.7136841e-07
7.7909026e-07
7.9015009e-07
7.931194e-07
7.9409026e-07
8.184342e-07
8.4134279e-07
8.5440926e-07
8.7826077e-07
9.1725225e-07
9.4620348e-07
9.9272855e-07
1.1166887e-06
8.9177516e-07
9.1444958e-07
8.9463536e-07
8.7198576e-07
8.4376933e-07
8.2817213e-07
8.1629674e-07
8.043021e-07
7.9743106e-07
7.9017931e-07
7.8680402e-07
7.8158296e-07
7.7470354e-07
7.7290877e-07
7.6755155e-07
7.6414851e-07
7.6544119e-07
7.7156294e-07
7.6744e-07
7.8027483e-07
7.9214914e-07
7.9584699e-07
7.9906982e-07
8.2274344e-07
8.4357531e-07
8.5469652e-07
8.7673515e-07
9.2387213e-07
9.6151818e-07
9.8764248e-07
1.0862463e-06
8.9133803e-07
9.1597603e-07
8.9676906e-07
8.7847048e-07
8.5877965e-07
8.4514703e-07
8.3077493e-07
8.1683209e-07
8.0603069e-07
7.9671944e-07
7.9179169e-07
7.8477015e-07
7.7805065e-07
7.7482318e-07
7.691365e-07
7.6525801e-07
7.6807512e-07
7.7152009e-07
7.6642845e-07
7.795382e-07
7.8955313e-07
7.9150013e-07
7.9491839e-07
8.1833923e-07
8.3685551e-07
8.4799058e-07
8.629083e-07
9.0458901e-07
9.633825e-07
9.8344186e-07
1.0558214e-06
8.9072958e-07
9.16258e-07
8.9887894e-07
8.7886615e-07
8.64313e-07
8.5691173e-07
8.4895862e-07
8.3919134e-07
8.2853914e-07
8.1582245e-07
8.0642241e-07
7.9538973e-07
7.8711039e-07
7.8175276e-07
7.7410795e-07
7.6965516e-07
7.7108255e-07
7.734537e-07
7.6754834e-07
7.8154886e-07
7.857418e-07
7.8883641e-07
7.929515e-07
8.1288457e-07
8.3040769e-07
8.4889154e-07
8.6716728e-07
9.0001808e-07
9.4508199e-07
9.6288895e-07
1.0144103e-06
8.9002301e-07
9.165231e-07
9.0069708e-07
8.7817984e-07
8.6927379e-07
8.6346425e-07
8.5708402e-07
8.5569676e-07
8.4864953e-07
8.4031115e-07
8.3406793e-07
8.2320762e-07
8.1202363e-07
8.0494553e-07
7.9248383e-07
7.8356139e-07
7.7976604e-07
7.7834377e-07
7.7319218e-07
7.8368084e-07
7.8543567e-07
7.8738885e-07
7.9707916e-07
8.0949594e-07
8.2429275e-07
8.4991451e-07
8.8646952e-07
9.2550863e-07
9.6357939e-07
9.9096195e-07
1.009931e-06
8.9122898e-07
9.1845647e-07
9.0160887e-07
8.7878424e-07
8.7284256e-07
8.6750471e-07
8.6043612e-07
8.5917563e-07
8.5439391e-07
8.5325635e-07
8.5181946e-07
8.4613895e-07
8.415265e-07
8.3539376e-07
8.2313419e-07
8.1687917e-07
8.067846e-07
7.9327788e-07
7.8679779e-07
7.9015024e-07
7.8750114e-07
7.9068099e-07
8.0115293e-07
8.0873369e-07
8.1638442e-07
8.4655711e-07
8.8615375e-07
9.3963971e-07
9.8058324e-07
1.0712887e-06
1.0701002e-06
8.9766093e-07
9.2732924e-07
9.0527528e-07
8.8140479e-07
8.7343302e-07
8.6506945e-07
8.6043505e-07
8.6172216e-07
8.5736753e-07
8.5681459e-07
8.5646399e-07
8.5441205e-07
8.5189459e-07
8.4852065e-07
8.4431767e-07
8.3802485e-07
8.3164393e-07
8.2315033e-07
8.1747335e-07
8.0811059e-07
7.964111e-07
7.9826601e-07
8.083273e-07
8.0694145e-07
8.0846753e-07
8.3338415e-07
8.7059598e-07
9.2091298e-07
9.5421204e-07
1.0444057e-06
1.1209129e-06
9.1434144e-07
1.016122e-06
9.4115146e-07
8.9860341e-07
8.7797591e-07
8.6647597e-07
8.6002996e-07
8.5480306e-07
8.5248903e-07
8.5411211e-07
8.5782049e-07
8.5703719e-07
8.5620231e-07
8.5145309e-07
8.4752283e-07
8.4616263e-07
8.449188e-07
8.3722678e-07
8.4270915e-07
8.4314801e-07
8.2289426e-07
8.1696177e-07
8.2341008e-07
8.1510563e-07
8.0866486e-07
8.2895195e-07
8.5831068e-07
8.7484293e-07
8.9680798e-07
9.4957655e-07
1.0920608e-06
9.7823504e-07
1.0467886e-06
1.0253533e-06
9.6083358e-07
9.145158e-07
8.907846e-07
8.7407019e-07
8.6075879e-07
8.5378039e-07
8.5166839e-07
8.4845501e-07
8.4434213e-07
8.4777895e-07
8.4499732e-07
8.4771239e-07
8.4941171e-07
8.4683705e-07
8.4154181e-07
8.5595544e-07
8.5487179e-07
8.5280622e-07
8.5546585e-07
8.6235421e-07
8.4709136e-07
8.2862081e-07
8.4082346e-07
8.65326e-07
8.8401656e-07
9.0031359e-07
9.1859099e-07
1.0012793e-06
8.7042331e-07
9.8199973e-07
1.0141178e-06
1.0342549e-06
1.0248093e-06
9.993464e-07
9.4880256e-07
9.1166175e-07
8.856277e-07
8.6999161e-07
8.578374e-07
8.4742838e-07
8.4352923e-07
8.3607661e-07
8.3438666e-07
8.4035991e-07
8.4248439e-07
8.4606846e-07
8.5910837e-07
8.5809597e-07
8.6161263e-07
8.7956898e-07
8.9200502e-07
8.9898364e-07
8.9292016e-07
8.9529545e-07
9.0660186e-07
9.2790974e-07
9.4625504e-07
9.571823e-07
1.0087142e-06
8.7108075e-07
8.8298531e-07
9.3992566e-07
9.9511362e-07
1.0333323e-06
1.0684338e-06
1.0871583e-06
1.0743325e-06
1.0342325e-06
9.7364914e-07
9.3111007e-07
8.9827844e-07
8.7577276e-07
8.58053e-07
8.4789976e-07
8.4349885e-07
8.4583424e-07
8.4860964e-07
8.6006627e-07
8.6041556e-07
8.6950695e-07
8.8809836e-07
8.9408497e-07
9.1100891e-07
9.3279428e-07
9.4776363e-07
9.5896619e-07
1.0055345e-06
1.045555e-06
1.1030265e-06
1.1033523e-06
8.7286216e-07
9.4228681e-07
9.2004724e-07
9.2476987e-07
9.453328e-07
1.0166174e-06
1.0551816e-06
1.0900391e-06
1.1170986e-06
1.1313391e-06
1.1226819e-06
1.101974e-06
1.0621186e-06
1.003134e-06
9.5725042e-07
9.2049845e-07
8.9818458e-07
8.8710462e-07
8.8275968e-07
8.7484127e-07
8.7807151e-07
9.0108945e-07
9.0132271e-07
9.1118033e-07
9.413011e-07
9.5762726e-07
9.5756428e-07
9.8459137e-07
1.0444473e-06
1.1225801e-06
1.1787697e-06
8.8694724e-07
1.0079014e-06
9.6831057e-07
9.340198e-07
9.2310936e-07
9.1664257e-07
9.4465596e-07
9.7548528e-07
1.02056e-06
1.0743255e-06
1.1041484e-06
1.1437284e-06
1.1721913e-06
1.1969704e-06
1.2174646e-06
1.1992896e-06
1.1645468e-06
1.1275382e-06
1.0681625e-06
1.0155775e-06
9.8246369e-07
9.6833902e-07
9.4588016e-07
9.3949251e-07
9.622128e-07
9.7998825e-07
9.7207633e-07
9.7745544e-07
1.0229779e-06
1.1031126e-06
1.1577661e-06
8.8459748e-07
9.5744272e-07
9.6776461e-07
9.611508e-07
9.608805e-07
9.4545773e-07
9.3668351e-07
9.4408067e-07
9.4038198e-07
9.3475059e-07
9.7143927e-07
1.0172087e-06
1.058012e-06
1.1213738e-06
1.1706608e-06
1.2167694e-06
1.2639155e-06
1.305198e-06
1.3331053e-06
1.3472289e-06
1.3578464e-06
1.3287485e-06
1.2824495e-06
1.2148977e-06
1.1651155e-06
1.1308275e-06
1.0822759e-06
1.0651448e-06
1.0819943e-06
1.1499419e-06
1.1777811e-06
8.7927561e-07
9.4051835e-07
9.4289652e-07
9.4806904e-07
9.5904579e-07
9.6108644e-07
9.5933833e-07
9.6243438e-07
9.5451015e-07
9.3588945e-07
9.3973407e-07
9.4019081e-07
9.3516519e-07
9.6272435e-07
9.9583862e-07
1.0425821e-06
1.106445e-06
1.1889275e-06
1.2600245e-06
1.318332e-06
1.3716559e-06
1.4287217e-06
1.4675823e-06
1.4922004e-06
1.5268987e-06
1.5512216e-06
1.5488535e-06
1.5169678e-06
1.48897e-06
1.4906589e-06
1.4549226e-06
8.7356657e-07
8.8270552e-07
8.8342023e-07
8.8016669e-07
8.8732436e-07
9.0678188e-07
9.1710674e-07
9.3078579e-07
9.3530584e-07
9.3278297e-07
9.3206047e-07
9.2808842e-07
9.2353015e-07
9.2786912e-07
9.3031814e-07
9.3937806e-07
9.6603389e-07
9.9740344e-07
1.0263551e-06
1.0953447e-06
1.163952e-06
1.2427901e-06
1.3216906e-06
1.4272259e-06
1.4838665e-06
1.5504022e-06
1.6078175e-06
1.6925085e-06
1.7292565e-06
1.8088431e-06
1.8383727e-06
8.7596318e-07
9.2357636e-07
8.9866007e-07
8.8125336e-07
8.6655416e-07
8.6395493e-07
8.6526779e-07
8.6627963e-07
8.7076559e-07
8.8416931e-07
8.8699782e-07
8.8755346e-07
8.895759e-07
8.844924e-07
8.8834899e-07
8.8871213e-07
9.0263405e-07
9.1407485e-07
9.2917328e-07
9.6320474e-07
9.8747491e-07
1.0190234e-06
1.0548885e-06
1.1400726e-06
1.1995146e-06
1.300128e-06
1.3694839e-06
1.5130692e-06
1.6101376e-06
1.6785049e-06
1.7587972e-06
8.7774159e-07
9.0310285e-07
8.9042295e-07
8.7568517e-07
8.5892417e-07
8.5104963e-07
8.4622529e-07
8.4292066e-07
8.4008236e-07
8.4132481e-07
8.4210574e-07
8.3913949e-07
8.4136437e-07
8.3728915e-07
8.3759728e-07
8.4230573e-07
8.5465772e-07
8.6325029e-07
8.7162493e-07
8.9656219e-07
9.1483922e-07
9.2311095e-07
9.4461266e-07
9.8837969e-07
1.0178661e-06
1.0333639e-06
1.0791879e-06
1.143731e-06
1.2418183e-06
1.2793006e-06
1.4055134e-06
8.7826625e-07
8.9253488e-07
8.8712858e-07
8.7830611e-07
8.6506192e-07
8.5939915e-07
8.5214861e-07
8.479262e-07
8.4322363e-07
8.3812831e-07
8.3431823e-07
8.2862722e-07
8.2705374e-07
8.2285891e-07
8.2020926e-07
8.1967644e-07
8.2589734e-07
8.2942229e-07
8.3563183e-07
8.5061293e-07
8.64781e-07
8.6901595e-07
8.8434906e-07
9.1698011e-07
9.4025322e-07
9.4509966e-07
9.7762075e-07
1.0165144e-06
1.0856878e-06
1.1129912e-06
1.153329e-06
8.79976e-07
9.2457514e-07
9.0876543e-07
9.0403921e-07
9.0127548e-07
8.9863054e-07
8.9780305e-07
8.9722596e-07
8.8843147e-07
8.7933194e-07
8.7725607e-07
8.7667045e-07
8.751833e-07
8.7165019e-07
8.6520405e-07
8.5990903e-07
8.6078112e-07
8.6229814e-07
8.6917669e-07
8.8660437e-07
9.0426166e-07
9.1589338e-07
9.3516635e-07
9.7047733e-07
7.9413454e-07
1.0152844e-06
7.5745877e-07
1.0777921e-06
7.4200958e-07
9.308458e-07
1.1539692e-06
8.7299713e-07
9.7134971e-07
1.0374934e-06
1.1024636e-06
1.1336431e-06
1.160982e-06
1.208672e-06
1.2157632e-06
1.2248884e-06
1.2442498e-06
1.2807786e-06
1.307614e-06
1.3193959e-06
1.3184368e-06
1.3107533e-06
1.3203128e-06
1.3264233e-06
1.3440525e-06
1.368775e-06
1.4180569e-06
1.2373794e-06
1.5072078e-06
1.5407036e-06
1.5953304e-06
9.2757173e-07
1.651228e-06
1.3197061e-06
1.7082193e-06
1.1188277e-06
7.8652008e-07
1.6593929e-06
1.0594219e-06
1.8451898e-06
2.0376546e-06
2.311509e-06
2.3370656e-06
2.2549847e-06
2.4689169e-06
2.3726834e-06
2.3734084e-06
2.2907695e-06
2.5444802e-06
2.5632706e-06
2.6285394e-06
2.6037832e-06
2.619313e-06
2.6153689e-06
2.7081896e-06
2.7852989e-06
2.9204999e-06
2.9994876e-06
2.7122775e-06
3.2192413e-06
3.2709241e-06
3.1905248e-06
2.5686817e-06
3.1191268e-06
3.3739986e-06
3.3655743e-06
2.7117109e-06
2.2701199e-06
2.6625091e-06
1.057089e-06
2.1958591e-06
2.9015515e-06
2.3642111e-06
2.0458396e-06
2.2196152e-06
2.1653954e-06
1.8311617e-06
2.1487882e-06
1.9745593e-06
2.1607621e-06
1.9592493e-06
2.2409274e-06
2.0547961e-06
2.2373202e-06
2.2272203e-06
2.2960464e-06
2.239103e-06
2.1249962e-06
2.2377087e-06
2.3043247e-06
2.1086414e-06
1.9942454e-06
2.1117864e-06
2.4491794e-06
2.2825608e-06
1.9105038e-06
1.8295246e-06
2.2886525e-06
3.0220163e-06
2.5635546e-06
1.834087e-06
3.3111656e-06
1.5407135e-06
8.8368498e-07
1.1959216e-06
1.3855625e-06
1.8276785e-06
1.9687212e-06
1.6400789e-06
1.2960728e-06
1.2150158e-06
1.2350382e-06
1.2018609e-06
1.1319751e-06
1.1222434e-06
1.1790444e-06
1.2035093e-06
1.1461256e-06
1.0655401e-06
1.0746164e-06
1.1397898e-06
1.1933064e-06
1.2203513e-06
1.8055008e-06
3.3102033e-06
1.9687555e-06
1.3253147e-06
1.2934603e-06
1.4572322e-06
1.9324567e-06
2.1475604e-06
1.8327629e-06
1.4151014e-06
1.2645634e-06
1.3245978e-06
1.328315e-06
1.279239e-06
1.2143577e-06
1.2327541e-06
1.2759261e-06
1.251618e-06
1.1992551e-06
1.1922833e-06
1.2360082e-06
1.2839536e-06
1.2484648e-06
2.6779976e-06
2.0822113e-06
9.0918441e-07
7.7897415e-07
1.4353756e-06
1.549025e-06
2.0021511e-06
2.2880925e-06
2.1065066e-06
1.6458757e-06
1.4055885e-06
1.4479778e-06
1.4585213e-06
1.4125441e-06
1.2842169e-06
1.2495981e-06
1.3237723e-06
1.3578741e-06
1.3882498e-06
1.3631268e-06
1.368865e-06
1.3724175e-06
1.3625465e-06
1.932243e-06
2.0494062e-06
1.7093555e-06
1.6233049e-06
1.2034725e-06
1.5090867e-06
2.0212813e-06
2.4616544e-06
2.460991e-06
2.1783858e-06
1.7052964e-06
1.6908179e-06
1.6838783e-06
1.6057083e-06
1.4935041e-06
1.3860749e-06
1.449595e-06
1.5541199e-06
1.6085467e-06
1.583083e-06
1.4989506e-06
1.4855003e-06
1.4821604e-06
1.2335413e-06
2.8277637e-06
1.1563808e-06
8.0396022e-07
1.3292735e-06
1.6765522e-06
2.0402689e-06
2.6717993e-06
2.7337412e-06
2.5957247e-06
2.0665453e-06
1.8599055e-06
1.8661993e-06
1.8103301e-06
1.7595271e-06
1.6776259e-06
1.6934276e-06
1.7799315e-06
1.7781868e-06
1.7235549e-06
1.5912313e-06
1.5699793e-06
1.6051575e-06
1.1942786e-06
2.2370847e-06
1.9881531e-06
1.9090509e-06
1.8552454e-06
1.2354104e-06
1.540642e-06
3.1788456e-06
3.108993e-06
2.8139742e-06
2.2086726e-06
1.9027599e-06
1.9322195e-06
1.9423035e-06
1.9470089e-06
1.9251432e-06
1.9508274e-06
2.0232312e-06
1.9444155e-06
1.8160348e-06
1.6861908e-06
1.6421197e-06
1.6999027e-06
1.278791e-06
1.2788471e-06
1.1021326e-06
1.3526812e-06
1.5556538e-06
2.1085186e-06
2.6547625e-06
3.6558006e-06
3.4121317e-06
3.233997e-06
2.5576699e-06
2.1320066e-06
2.1326304e-06
2.1700858e-06
2.1676953e-06
2.1217577e-06
2.0900147e-06
2.1139192e-06
2.1146941e-06
2.0420319e-06
1.9328973e-06
1.8912461e-06
1.9234849e-06
9.7414305e-07
1.0434915e-06
9.5252383e-07
1.9422365e-06
1.9160922e-06
1.5139502e-06
1.6739544e-06
2.8538519e-06
4.3990133e-06
4.2041769e-06
3.625345e-06
2.8533243e-06
2.7607471e-06
2.823316e-06
2.6972788e-06
2.5522258e-06
2.3215382e-06
2.2505876e-06
2.3608397e-06
2.3924478e-06
2.3887689e-06
2.3290434e-06
2.3654704e-06
1.0294415e-06
9.6179037e-07
2.0633832e-06
2.4117362e-06
2.3823624e-06
2.1500661e-06
2.2269201e-06
3.3966767e-06
4.7719384e-06
4.8962259e-06
4.8277465e-06
4.0988209e-06
3.6117566e-06
3.6119693e-06
3.3934298e-06
3.0151772e-06
2.7428939e-06
2.5902832e-06
2.6557892e-06
2.803276e-06
2.8967656e-06
2.9102809e-06
2.9256434e-06
9.1534971e-07
1.5540775e-06
1.8727771e-06
1.7917693e-06
2.3510465e-06
2.9378888e-06
3.0667614e-06
4.2976118e-06
5.1475674e-06
4.8768419e-06
5.530775e-06
4.8313331e-06
4.2124992e-06
4.1310765e-06
3.9209857e-06
3.5078008e-06
3.2174284e-06
3.0934699e-06
3.1372109e-06
3.2922314e-06
3.3378616e-06
3.227335e-06
3.1017649e-06
9.9677177e-07
8.7560861e-07
2.2733554e-06
3.1124798e-06
2.7552235e-06
2.4090051e-06
2.3617381e-06
3.3312849e-06
4.9412876e-06
6.868739e-06
6.3790597e-06
4.7597524e-06
3.5687076e-06
4.3060395e-06
4.3214592e-06
4.1786878e-06
3.8715363e-06
3.7868949e-06
3.8676715e-06
4.0136787e-06
3.9133052e-06
3.5669061e-06
3.1990941e-06
5.0768812e-07
7.4195253e-07
2.3169146e-06
3.6783797e-06
4.7209598e-06
3.5847583e-06
3.2723625e-06
5.4917894e-06
9.0560467e-06
8.9876851e-06
7.5997123e-06
6.049744e-06
5.0904713e-06
4.9091267e-06
4.9652687e-06
4.985446e-06
4.6973906e-06
4.6594979e-06
4.8024451e-06
5.0051775e-06
4.8205544e-06
4.2499051e-06
3.5491265e-06
3.9798644e-07
1.1875581e-06
2.4038589e-06
3.4006719e-06
4.8105461e-06
6.6475251e-06
7.2216528e-06
1.0622012e-05
1.303056e-05
1.0562431e-05
8.4666253e-06
8.4625762e-06
7.014409e-06
6.6943852e-06
6.9794368e-06
7.0303332e-06
6.5625658e-06
5.8959691e-06
5.7941296e-06
6.2398446e-06
6.4162678e-06
5.648832e-06
4.4528349e-06
5.1302362e-07
1.2342369e-06
2.6634768e-06
4.0521703e-06
7.4587761e-06
8.6339118e-06
9.4945546e-06
1.2622914e-05
1.7204187e-05
1.7449604e-05
1.3280068e-05
1.1385947e-05
9.2650377e-06
8.5984341e-06
8.8821336e-06
8.8969841e-06
8.4688479e-06
7.7253017e-06
7.671756e-06
8.2407085e-06
9.1194078e-06
8.5581391e-06
6.804284e-06
7.4818166e-07
1.2012651e-06
2.9781199e-06
5.6894069e-06
8.6012399e-06
9.0707102e-06
1.1642715e-05
1.5524082e-05
2.0561057e-05
2.3373556e-05
2.0141876e-05
1.7339787e-05
1.0711908e-05
9.4886183e-06
1.0716476e-05
1.1544157e-05
1.049146e-05
9.1942849e-06
9.0751468e-06
9.2288548e-06
1.0050888e-05
1.0040169e-05
9.4551607e-06
8.6780147e-07
1.435059e-06
4.2643681e-06
6.6766907e-06
9.7096964e-06
1.1396203e-05
1.8970327e-05
2.6360856e-05
3.0358622e-05
2.9745914e-05
2.8185105e-05
2.2912329e-05
1.5635239e-05
1.2621214e-05
1.438513e-05
1.6185244e-05
1.3489131e-05
1.0848417e-05
1.029687e-05
1.009321e-05
1.0738907e-05
1.0875699e-05
1.0572312e-05
1.0677382e-06
2.2155456e-06
5.1050431e-06
7.0599716e-06
9.9229759e-06
1.6694103e-05
2.8005774e-05
3.5438532e-05
3.6941319e-05
3.3891757e-05
3.1728809e-05
2.9262578e-05
2.8843849e-05
2.6554093e-05
2.8305692e-05
2.5266603e-05
1.8889212e-05
1.3476292e-05
1.2422067e-05
1.2098628e-05
1.2718097e-05
1.2734686e-05
1.2183748e-05
1.2420648e-06
2.9693212e-06
5.9372352e-06
8.1590082e-06
1.2301278e-05
2.3352554e-05
3.9108272e-05
4.6591813e-05
4.7232683e-05
4.3027858e-05
3.7449454e-05
3.8659284e-05
4.6306586e-05
5.2015992e-05
5.0918906e-05
4.0619548e-05
2.3086656e-05
1.7064602e-05
1.6238903e-05
1.6399269e-05
1.7556055e-05
1.696587e-05
1.4464402e-05
1.3129462e-06
3.3661452e-06
6.4447379e-06
9.1441282e-06
1.4846885e-05
2.8233239e-05
4.8672342e-05
5.8247152e-05
5.8546753e-05
5.3331037e-05
4.614026e-05
4.9342835e-05
6.3652323e-05
7.952559e-05
7.821709e-05
5.4277791e-05
2.9623918e-05
2.4134405e-05
2.5005249e-05
2.8610796e-05
3.1470181e-05
2.896742e-05
2.0098006e-05
1.2858467e-06
3.5481694e-06
6.4408621e-06
9.7562148e-06
1.5444544e-05
3.2192288e-05
5.6942011e-05
6.9714698e-05
7.0007918e-05
5.9569861e-05
5.4509212e-05
5.9379824e-05
8.0668378e-05
0.00010500449
9.9747726e-05
6.5593058e-05
3.7149143e-05
3.1868419e-05
3.9441675e-05
5.1019858e-05
5.4091118e-05
4.5960226e-05
2.8068198e-05
1.4203673e-06
3.38837e-06
6.2956406e-06
1.0153542e-05
1.5498626e-05
3.2742411e-05
6.7483914e-05
8.3180691e-05
8.3715018e-05
6.5257573e-05
7.0699048e-05
8.2029547e-05
0.00012266
0.00015994096
0.00014622959
8.5224571e-05
4.9841405e-05
4.3868412e-05
5.4095724e-05
6.4444441e-05
6.5606521e-05
5.3209904e-05
3.300854e-05
1.5326357e-06
3.2126203e-06
6.0437819e-06
9.4852488e-06
1.8314087e-05
2.6932242e-05
5.2802741e-05
7.1848924e-05
7.7765821e-05
8.0908163e-05
0.00010203857
0.00012235325
0.00013247955
0.00016580518
0.00019206439
0.00011572815
6.8845051e-05
6.0975005e-05
7.1327234e-05
8.0811983e-05
7.6846444e-05
5.5176604e-05
3.7925904e-05
1.2221193e-06
3.9825945e-06
6.4687481e-06
9.1548581e-06
1.4995305e-05
2.4640884e-05
4.1667533e-05
6.4129365e-05
8.9965056e-05
0.00012078541
0.00012513643
0.00011718527
0.0001423613
0.00017436981
0.00020538069
0.00013332926
9.6327306e-05
8.9609731e-05
0.00011288802
0.00012488231
9.8923702e-05
6.2146779e-05
5.1937072e-05
2.7665435e-06
1.5870747e-05
1.2576353e-05
1.2184142e-05
1.5336941e-05
2.5292243e-05
6.4039871e-05
0.00010606693
0.00014020385
0.00014709113
0.00014644475
0.0001473976
0.00017663827
0.00019965913
0.00021060735
0.0001616244
0.00014731132
0.00016793942
0.00019800167
0.00018248568
0.00011018086
7.029051e-05
6.4388514e-05
5.360091e-06
2.8526004e-05
2.4775752e-05
2.8271574e-05
2.3840992e-05
2.8757175e-05
5.0501362e-05
0.00011818867
0.00014271629
0.00013093084
0.00016476873
0.00018333409
0.0002129952
0.00022945231
0.00022111984
0.00020028128
0.00021288578
0.00025708173
0.0002678111
0.00019025619
0.00010611658
8.0465895e-05
7.676249e-05
7.5998562e-06
3.4618742e-05
5.514381e-05
5.5396953e-05
4.4589219e-05
3.3677731e-05
4.5168249e-05
8.3735251e-05
0.00013744595
0.00014985017
0.0001740132
0.00021008371
0.00023701316
0.0002481353
0.00024947571
0.00025447476
0.00028419402
0.00030618688
0.00026361175
0.00015754734
0.00011019764
9.867457e-05
9.2143469e-05
1.1792699e-05
7.095389e-05
8.3824149e-05
8.1583217e-05
7.2398162e-05
4.7845429e-05
4.6682914e-05
6.9600002e-05
0.00012404554
0.00018223454
0.00014901758
0.00017534863
0.00027862249
0.00029482155
0.00029266601
0.00029115866
0.00028825253
0.00027477926
0.00021458006
0.00014642468
0.00011871612
0.00010555966
9.1940565e-05
1.6289468e-05
8.682533e-05
0.00011097223
0.00011379338
0.00010532841
9.2711481e-05
6.7606548e-05
7.7169031e-05
0.00011327039
0.00019854031
0.00026806103
0.0003164375
0.00033091906
0.00032384147
0.00030425868
0.00027425252
0.00024743508
0.0002208332
0.00018372707
0.00014885664
0.00012782986
0.00011472185
0.00010936047
1.0917381e-05
0.0001065863
0.00016434614
0.00015274525
0.00011908746
0.00011745117
9.2559005e-05
9.1398839e-05
0.00012172962
0.00020604513
0.00028394436
0.00033470976
0.00033798532
0.00031784172
0.00028942828
0.00025210177
0.00022164017
0.00019669179
0.00017366009
0.00014859658
0.0001372392
0.00013196115
0.00013301799
1.0245749e-05
0.00012386653
0.0001380526
0.0001617708
0.00019307835
0.00021012634
0.000135879
0.00011350009
0.00013134473
0.00019752473
0.00024180876
0.00031670563
0.00033261405
0.00032559059
0.00029964119
0.00025692921
0.0002165184
0.00018699107
0.00015323035
0.00013895769
0.00013392765
0.00013222272
0.00013117685
1.1488934e-05
0.00013155939
0.00020221968
0.00020308773
0.00021732568
0.00025087824
0.00015409091
0.00012655647
0.00013921887
0.00019943548
0.00026107718
0.00030851025
0.00033676212
0.00034665681
0.00031372135
0.00025376847
0.00020650694
0.00015969561
0.00013450115
0.00012375279
0.00011985939
0.00012217821
0.00012368624
1.4210211e-05
0.00022929966
0.00030907167
0.00030683885
0.00021720901
0.00018408756
0.00016608152
0.00014530443
0.00016294328
0.00022766559
0.0002877248
0.0003211627
0.00033686999
0.00032454134
0.0002762076
0.0002218645
0.00017384076
0.00013925622
0.00012402654
0.00011710351
0.00011558567
0.00011556728
0.0001165393
1.4801635e-05
0.00023279178
0.0003151612
0.0003257901
0.00025261105
0.00017017695
0.00014612616
0.00016545265
0.00019586841
0.00027130949
0.00031003791
0.00031524851
0.00030394097
0.00026265533
0.00021145848
0.00017490634
0.00014615046
0.00013503562
0.00013031183
0.00012480489
0.00012433855
0.00012105208
0.00012006877
1.326916e-05
0.00019326746
0.00025858113
0.00027006151
0.00025049194
0.00020129102
0.00016932568
0.00017654406
0.00021662962
0.00028708168
0.00031167226
0.00030931313
0.00027206428
0.00021409296
0.00017092137
0.0001433419
0.00013181632
0.00013143705
0.00013197671
0.00013379516
0.00013739589
0.00013870929
0.00014777506
1.3883854e-05
0.00017569902
0.00019449373
0.00021649046
0.00024628937
0.00019470894
0.00018454826
0.00019071559
0.0002378661
0.00027561889
0.00028333893
0.00026689391
0.00022343332
0.00017572447
0.00014624906
0.00013028958
0.0001248828
0.00012474356
0.00012895616
0.0001406679
0.00016137626
0.00019622583
0.00025889713
1.5703327e-05
0.00023496535
0.00024641715
0.00020558743
0.00018917031
0.00019903271
0.00019684281
0.0002039981
0.00024401534
0.00025996789
0.00026274655
0.00024518431
0.00020683102
0.00016953617
0.00014862809
0.00013585813
0.00012850033
0.00012451034
0.00012493553
0.00013436188
0.00015562119
0.00019835502
0.00028442409
1.6491955e-05
0.00022666062
0.00025483132
0.00024931895
0.00017656785
0.00016312824
0.00020339542
0.00021573856
0.00025067192
0.00026000327
0.00025528522
0.00022888292
0.00018722886
0.00015301233
0.00013671884
0.00012985818
0.00012672953
0.00012553247
0.00012798511
0.00013886596
0.00016352598
0.000219734
0.00031391324
1.528498e-05
0.00021635174
0.00024686208
0.00024023144
0.0001949071
0.0001759491
0.00019650712
0.00021810241
0.0002471998
0.00025680963
0.00025166881
0.00022197003
0.0001771093
0.00014136563
0.00012517619
0.00011963687
0.000118711
0.00012100279
0.00012864924
0.00014667396
0.00018498294
0.00026110246
0.00035180687
1.3148891e-05
0.00017077475
0.00018678078
0.00019129916
0.0001945011
0.00020934876
0.00021001365
0.00021812315
0.00023599423
0.0002416195
0.00023656006
0.00021177363
0.00017210491
0.00013808067
0.00012257567
0.0001169113
0.00011531793
0.00011744655
0.00012651642
0.0001495561
0.00020184163
0.00029360776
0.00037089037
1.293713e-05
0.00019046891
0.00019473123
0.00018086965
0.00019008417
0.0002167236
0.00021695389
0.0002210957
0.00023015661
0.0002301915
0.00022196674
0.00019976398
0.00016591354
0.00013502957
0.0001213155
0.00011709524
0.00011599114
0.00011848684
0.0001287021
0.00015707762
0.00022056075
0.0003162166
0.00037915807
1.3232609e-05
0.00017801917
0.00022253277
0.00022783402
0.00021313444
0.00021439932
0.00021526763
0.00021996424
0.00022743113
0.00022720777
0.0002177488
0.00019537641
0.00016378969
0.00013314287
0.00011772373
0.00011340261
0.00011240606
0.00011639577
0.00013044118
0.00016702456
0.00024594545
0.00033609395
0.00039669988
1.1949928e-05
0.00016604068
0.00021685296
0.00022478164
0.00022057826
0.00021259637
0.00021090655
0.00021443345
0.00022101465
0.00022228231
0.00021361862
0.00019262798
0.00016352184
0.00013492661
0.00011650874
0.00010933382
0.00010709807
0.00011133524
0.00012852156
0.00017350884
0.00026248683
0.00035345803
0.00041343384
9.7126408e-06
0.00015591246
0.0002110756
0.00020821809
0.00021484244
0.00021671545
0.00021198119
0.00021234821
0.00021508007
0.00021383782
0.00020423544
0.00018425102
0.00015767296
0.00013317619
0.000116457
0.00010817931
0.0001047419
0.00010860549
0.00012743015
0.00017864739
0.00027412332
0.00036044739
0.00041740695
9.1555388e-06
0.00013802768
0.00019974589
0.0002067124
0.00021556567
0.00022012999
0.00021346123
0.00021154547
0.0002123786
0.00020971366
0.00019915738
0.00017853276
0.00015218083
0.00012804529
0.00011291316
0.00010696528
0.00010393561
0.00010615861
0.00012406341
0.00017829352
0.00027701314
0.00036054809
0.00041341938
8.8561901e-06
0.00012332139
0.00018724585
0.00021214903
0.00022026281
0.00021796031
0.00021027317
0.000207574
0.00020841869
0.00020766744
0.00020027742
0.00018202466
0.00015539188
0.00013015389
0.00011193152
0.00010433357
0.00010262338
0.00010260858
0.00011475985
0.00016187598
0.00026091487
0.00035079231
0.00040743218
7.4369125e-06
0.00011543596
0.00018186006
0.00020879669
0.00021807121
0.00021782903
0.00021006004
0.00020463899
0.00020493619
0.00020481389
0.00020069714
0.00018771274
0.00016319356
0.00013702923
0.00011622676
0.000103652
9.9945881e-05
9.977379e-05
0.00010557838
0.00013672023
0.00022166631
0.0003270468
0.00039538162
6.7938098e-06
9.5156232e-05
0.00017037454
0.00020458983
0.00021051963
0.00022104928
0.00021604561
0.0002069159
0.00020348285
0.00020288489
0.00019976534
0.0001905672
0.00017061317
0.00014385513
0.00012115405
0.00010639905
9.812823e-05
9.6650386e-05
9.9154712e-05
0.00011562492
0.00017191302
0.00028330702
0.00037213043
6.9266981e-06
6.972738e-05
0.00013807981
0.00019607461
0.00021879973
0.00022253659
0.00021832541
0.00021065566
0.00020265558
0.0001996871
0.00019834855
0.00019294081
0.00017939104
0.00015478291
0.00013030088
0.00011256245
0.00010212249
9.5467446e-05
9.5384047e-05
0.00010169571
0.00013100742
0.00020520923
0.00031254277
6.5884011e-06
5.2612594e-05
0.00010229305
0.0001634456
0.00020448618
0.00022247181
0.00022154054
0.0002161
0.00020826831
0.00020077711
0.00019673535
0.00019442438
0.00018644451
0.00017108963
0.00014537322
0.00012264838
0.00010884003
9.9996891e-05
9.3783795e-05
9.4561743e-05
0.00010450252
0.00014113126
0.00022412442
6.3319653e-06
4.8032142e-05
8.8985382e-05
0.00013730763
0.00018086583
0.00021114934
0.0002245997
0.00022104153
0.00021442192
0.00020748105
0.00020034067
0.00019456908
0.00019101003
0.00018019259
0.00016252076
0.00013783181
0.00011750192
0.00010605308
9.8028889e-05
9.2354594e-05
9.4010011e-05
0.00010637414
0.00015105642
6.3217975e-06
5.4867838e-05
9.703579e-05
0.00013747438
0.00017218265
0.0001965875
0.00021762185
0.00022437197
0.00022089916
0.00021298341
0.00020697303
0.00020086436
0.0001944425
0.0001890716
0.00017709722
0.00015856425
0.00013487824
0.00011594004
0.00010537702
9.749843e-05
9.2697746e-05
9.4571741e-05
0.00011006101
6.1519327e-06
6.1407283e-05
0.00010986205
0.00015280387
0.00018601073
0.00020298301
0.00021073934
0.00021259459
0.00021846815
0.00022456979
0.00021501499
0.00020806113
0.00020233933
0.00019532519
0.00018763825
0.00017506811
0.00015770021
0.00013561934
0.00011685838
0.00010566744
9.7813946e-05
9.3563058e-05
9.5248554e-05
5.9087554e-06
5.6910729e-05
0.00010924236
0.00015779053
0.00019679432
0.00020387417
0.00020394963
0.0002154398
0.00023634353
0.00023678573
0.00023066618
0.00021891383
0.00020984843
0.00020377873
0.00019710296
0.00018789418
0.0001761091
0.00015994559
0.00014010502
0.0001200314
0.00010750626
9.9859585e-05
9.6197709e-05
5.5613037e-06
4.6334551e-05
8.8004746e-05
0.00014266023
0.00019083984
0.00022071418
0.00023662611
0.00025558643
0.00026193564
0.00025902428
0.00024778951
0.00023912386
0.0002256083
0.00021430265
0.00020770646
0.00020040994
0.0001913532
0.0001798177
0.00016528485
0.00014713726
0.00012683677
0.00011185411
0.00010089413
5.3476931e-06
3.7423629e-05
7.0521122e-05
0.00012312013
0.00017599341
0.00021988848
0.00024805444
0.00026631965
0.00027830713
0.00028346154
0.00027512389
0.00026412987
0.0002534869
0.00023857229
0.00022350531
0.00021423124
0.00020556072
0.00019522328
0.00018443916
0.00017166769
0.00015526959
0.00013816316
0.00011763448
5.37704e-06
3.3086188e-05
6.5960114e-05
0.00011841023
0.00017149241
0.00021559687
0.00024827262
0.00027156427
0.00028821619
0.00028747215
0.00028833058
0.00029275326
0.00028394704
0.0002714623
0.00025681356
0.00023856623
0.00022427132
0.00021289073
0.00020198008
0.00019123532
0.00017828256
0.00016718008
0.00014542414
5.2866281e-06
3.3163515e-05
7.007744e-05
0.00013000191
0.00018322197
0.00022377727
0.00025473242
0.00027782822
0.00029597782
0.00031072439
0.0003240986
0.00033129077
0.0003224706
0.00030709576
0.00029266046
0.00027754777
0.00026076493
0.0002434336
0.00022826107
0.00021555887
0.00020130814
0.00019168539
0.00017166999
5.2007178e-06
3.6538894e-05
8.3843371e-05
0.00014789328
0.00020249705
0.00024288075
0.000271395
0.00029253886
0.00030923748
0.00032289552
0.00033507025
0.00034664905
0.00035518586
0.00035084395
0.00033620244
0.00031980627
0.00030456672
0.00028815991
0.00027027496
0.00025377222
0.00023595761
0.00022391637
0.00020110313
5.0894016e-06
3.9700091e-05
9.2340313e-05
0.00016048096
0.00021654784
0.00025884609
0.00028933595
0.00031171453
0.00032941851
0.00034384171
0.0003555696
0.00036558185
0.00037482114
0.00038210441
0.00038249736
0.0003713017
0.00035518019
0.00033869504
0.00032192128
0.00030407574
0.00028381118
0.00026960117
0.0002423653
4.9638483e-06
3.8782663e-05
9.0758344e-05
0.00015796166
0.00021306377
0.00025513224
0.00028881605
0.00031658053
0.00034021486
0.00036053297
0.0003776475
0.00039157582
0.00040270599
0.0004112546
0.00041694497
0.00041917351
0.00041320297
0.00039942029
0.00038451512
0.00036684619
0.00034809292
0.00033081843
0.00030094066
4.8129093e-06