/*--------------------------------*- C++ -*----------------------------------*\
| =========                 |                                                 |
| \\      /  F ield         | OpenFOAM: The Open Source CFD Toolbox           |
|  \\    /   O peration     | Version:  2406                                  |
|   \\  /    A nd           | Website:  www.openfoam.com                      |
|    \\/     M anipulation  |                                                 |
\*---------------------------------------------------------------------------*/
FoamFile
{
    version     2.0;
    format      ascii;
    arch        "LSB;label=32;scalar=64";
    class       volScalarField;
    location    "115";
    object      rho;
}
// * * * * * * * * * * * * * * * * * * * * * * * * * * * * * * * * * * * * * //

dimensions      [1 -3 0 0 0 0 0];

internalField   nonuniform List<scalar> 
20580
(
1.0015928
1.0036969
1.0013433
1.0037076
1.0003946
1.0022969
1.0035342
1.0021248
1.0020175
1.0020469
1.0029297
1.002626
1.0019989
1.0023425
1.0029749
1.0020433
1.0020032
1.005399
1.0012352
1.0014247
1.0065221
1.0037615
1.0009983
1.0048602
1.0101747
1.0023297
0.99821984
1.0043457
1.0000208
0.9967348
1.0181828
1.0018234
1.0037834
1.0013095
1.0039506
1.0000667
1.0023069
1.0035698
1.0023152
1.0019714
1.0018041
1.0032089
1.0024481
1.0016725
1.0027246
1.0029281
1.0011802
1.0031564
1.0054564
0.99962096
1.0031979
1.0074942
1.0020607
1.0019398
1.0074504
1.0106966
0.9991921
0.99285375
1.0048449
1.0085131
0.99775287
1.0025856
1.0019488
1.0034979
1.001529
1.0032768
1.0006432
1.0023749
1.0028448
1.0024793
1.0021872
1.0019809
1.0030238
1.0024869
1.0016456
1.0029632
1.0028101
1.0007637
1.0039568
1.0050833
0.99866838
1.0047063
1.0075427
1.0001193
1.0023448
1.0074816
1.0096813
0.99867314
0.99067728
1.0041725
1.0158627
1.0023377
0.98853831
1.0018597
1.0029377
1.0019156
1.0019328
1.0018298
1.0023735
1.0017979
1.0026518
1.0023724
1.002368
1.0026463
1.002599
1.0018039
1.0031708
1.0026655
1.0009674
1.0042995
1.0041033
0.99879404
1.0056894
1.0063604
0.99873264
1.0028383
1.0054081
1.0062859
1.0006459
0.992813
1.0028693
1.0192416
1.010473
0.98537281
1.0016108
1.0022023
1.0022289
1.0004457
1.0030639
1.002317
1.0010965
1.0027723
1.0024465
1.002587
1.0024011
1.0026492
1.0021938
1.0031688
1.0026371
1.0016676
1.0042092
1.0027276
1.0001029
1.0061701
1.0042698
0.99840472
1.0041501
1.0030282
1.0012872
1.003029
0.99895996
1.0019983
1.0153741
1.0171241
0.994375
1.0014353
1.0017034
1.0022867
0.99974722
1.0039001
1.0021995
1.0012399
1.0026488
1.0024532
1.0026211
1.0024346
1.0024037
1.0026722
1.0029014
1.0023959
1.0025857
1.0038463
1.0011933
1.0019187
1.0063338
1.0020734
0.99867701
1.0067205
1.0023617
0.99645162
1.0041304
1.007104
1.0022378
1.0053616
1.0148106
1.0088092
1.0014398
1.0018212
1.002049
1.0002241
1.0038583
1.0018726
1.0021643
1.002363
1.0023723
1.002541
1.0025228
1.0020638
1.003125
1.0024831
1.0018414
1.0034388
1.0034571
0.99997623
1.0037374
1.0060972
1.0002414
0.99946264
1.0093395
1.0039748
0.99365699
1.0035251
1.0140513
1.0049282
0.99514045
1.0020415
1.0148542
1.0015069
1.0024706
1.0016911
1.001452
1.0029018
1.0015886
1.0031601
1.0021351
1.0023228
1.0026279
1.0024522
1.0018399
1.0034547
1.0021237
1.0014894
1.0038603
1.003048
0.99944756
1.0053211
1.0054529
0.99921128
1.0008647
1.01039
1.0062852
0.99433806
1.0017995
1.0164575
1.0093407
0.99098806
0.98778922
1.0076768
1.0016197
1.0032763
1.0014183
1.0028816
1.0016256
1.0016633
1.0035596
1.0019806
1.0023605
1.0029693
1.0023676
1.0018761
1.0034675
1.0019224
1.001461
1.0037038
1.0025914
0.99971765
1.0061653
1.004191
0.99937806
1.0025466
1.0090674
1.0071485
0.99808722
1.000636
1.0129326
1.0125072
0.99402977
0.98328917
0.99525814
1.0019195
1.004042
1.0013943
1.0040302
1.0006843
1.0020827
1.0031795
1.0019834
1.0024291
1.003016
1.0022689
1.0023012
1.0029157
1.0019071
1.0016462
1.003114
1.0021183
1.0007818
1.0061339
1.002426
1.0004054
1.004612
1.0056068
1.0052323
1.002838
1.0013694
1.0058094
1.0101157
1.0017841
0.99011648
0.99025183
1.0021772
1.0044346
1.0017094
1.00418
1.0003953
1.0027168
1.0022854
1.0023182
1.0025797
1.0026613
1.0021912
1.0029632
1.0021614
1.0020318
1.0022205
1.0024107
1.0016865
1.002284
1.0056109
1.0006599
1.0014977
1.0071377
1.0019929
1.000602
1.0064344
1.0045085
0.99930955
1.0012279
1.0075639
1.0040523
0.99683593
1.0020212
1.0040065
1.002173
1.0030921
1.0008635
1.0032117
1.0016102
1.0028452
1.0028454
1.0021857
1.0023995
1.0034968
1.0017027
1.0022323
1.0030781
1.0019378
1.0013112
1.0036869
1.0048035
0.99929476
1.0023363
1.0096093
0.99992509
0.9955675
1.0076172
1.0093057
0.99693488
0.99197981
1.006082
1.0165217
1.0102733
1.0015994
1.0029349
1.0024549
1.0016127
1.002081
1.0031503
1.0015923
1.0033475
1.0030574
1.0018724
1.0028113
1.0034983
1.0017032
1.0023698
1.0037192
1.0018386
1.0010972
1.0047443
1.0038541
0.99876281
1.0029632
1.0108081
0.99975622
0.99321602
1.0067082
1.0130336
0.99886993
0.98902194
0.99910733
1.0194479
1.0216417
1.0015495
1.0019645
1.0022675
1.0004803
1.003326
1.0024827
1.0021385
1.0035592
1.0029416
1.0019413
1.0031184
1.0031828
1.0019989
1.002522
1.0037445
1.0020071
1.0012562
1.0052535
1.0028573
0.99952646
1.0033661
1.010002
1.0010335
0.99451203
1.0049397
1.0131497
1.0034737
0.99253846
0.99512334
1.0113148
1.0220016
1.0016502
1.0015548
1.0018834
1.0000955
1.0039696
1.0016315
1.0029079
1.0032936
1.0025202
1.0023714
1.0030544
1.0027598
1.0023192
1.0027398
1.0032995
1.0023585
1.001759
1.004971
1.0017365
1.0014075
1.0037736
1.0070705
1.0024695
0.9988251
1.0043281
1.0087937
1.0067728
0.9997296
0.99815113
1.0016886
1.0107669
1.0017112
1.0017473
1.0015299
1.0007675
1.0039294
1.0012346
1.0034286
1.0025911
1.002221
1.0029922
1.002742
1.0023443
1.002711
1.002752
1.0026229
1.0026434
1.002413
1.0041432
1.0005255
1.0036598
1.0047251
1.0027165
1.0023996
1.0048476
1.0056848
1.0021138
1.0042613
1.0078538
1.0051803
0.99835199
0.99599139
1.0016371
1.0025637
1.0014161
1.0021132
1.0029627
1.0015028
1.0034005
1.0018823
1.0022601
1.0033353
1.0025369
1.0020634
1.0030568
1.0027323
1.001784
1.00258
1.0030664
1.003307
0.99956919
1.0055023
1.006036
0.9992955
1.0004532
1.0098959
1.0083355
0.99758578
0.99743112
1.0110998
1.0135912
1.0024562
0.98955038
1.0016539
1.0036658
1.0015954
1.0033107
1.001345
1.0022175
1.0028072
1.0016559
1.0024916
1.0030922
1.0024912
1.0020029
1.0031463
1.0028353
1.0011205
1.0022682
1.0035054
1.0026594
0.99921044
1.0061352
1.007243
0.99784221
0.99843345
1.0114986
1.0110034
0.99649663
0.99223107
1.0075775
1.018298
1.0083245
0.99188681
1.0017489
1.0044205
1.0020186
1.0039368
1.000266
1.0030721
1.00199
1.0021679
1.0027099
1.0027759
1.0026688
1.0020855
1.0030858
1.0029601
1.0010108
1.0019873
1.0036115
1.002185
0.99965063
1.0054483
1.007392
0.99851106
0.99786877
1.0096908
1.011551
0.99766441
0.99258563
1.0018407
1.014974
1.0120501
0.99847391
1.0017521
1.00429
1.0022353
1.0036855
1.0004244
1.0034855
1.0016937
1.0029614
1.0028347
1.0026209
1.0027896
1.0022613
1.0028621
1.0029189
1.0014909
1.0019119
1.0033191
1.001983
1.0011648
1.0041973
1.0057634
1.0005942
0.99974038
1.0064565
1.0079644
1.0005517
0.9970012
1.0005555
1.0062875
1.0090829
1.0041928
1.0016729
1.0034863
1.0021011
1.002612
1.0012856
1.003013
1.0018557
1.0032569
1.0027518
1.0025364
1.0028055
1.0025324
1.0026806
1.0026684
1.0023129
1.0021185
1.002807
1.0017575
1.0033743
1.0030351
1.0025621
1.0034664
1.0031215
1.0042914
1.0020874
1.002588
1.0036798
1.0039103
0.99959684
1.0006957
1.0052403
1.0016749
1.0024587
1.0015929
1.0015103
1.0030574
1.0021383
1.0027069
1.0030796
1.0027571
1.0026283
1.0027529
1.0032334
1.0026806
1.0023466
1.0033147
1.0027303
1.0024875
1.0014652
1.0056062
1.0025936
0.99971238
1.0048647
1.0076325
1.0041467
0.99756281
1.0016777
1.0112347
1.0102239
0.99864589
0.99370104
1.0027278
1.0019749
1.0024125
1.0020943
1.001469
1.0048638
1.0019144
1.0039977
1.0028316
1.0031177
1.0029806
1.0028349
1.0042552
1.0030276
1.0023067
1.0042274
1.0036221
1.0028066
1.0012526
1.0073479
1.0034462
0.99831791
1.0043499
1.0112835
1.0061176
0.99626301
0.99892914
1.0141728
1.0169246
1.0026087
0.99169978
0.99927057
1.0157335
1.0132055
1.0067001
0.9977726
0.98964307
0.98796247
0.9934662
1.002427
1.0104302
1.0116569
1.0044691
0.99590013
0.99637138
1.0083451
1.0215627
1.0242652
1.0116418
0.98993187
0.97688056
0.98181903
1.0009031
1.0220518
1.031894
1.011616
1.0056773
1.0022701
1.0040275
1.0099297
1.0150982
1.0158417
1.0102113
0.99787661
0.98520325
0.98015598
0.9853412
1.0005666
1.0190754
1.0273506
1.0199477
1.0029394
0.99134414
0.99364326
1.006985
1.0196135
1.0181043
1.0042642
0.98345671
0.98665422
0.99744636
1.0120042
1.0245569
1.0295043
1.0218578
1.0077035
0.99478751
0.99106487
0.99695809
1.0064231
1.0121282
1.0094799
0.99816914
0.98457191
0.98131884
0.99426262
1.0195058
1.0408657
1.0404607
1.0171287
0.9859872
0.99117674
0.99795665
1.0032532
1.0055382
1.0039957
0.99771849
0.98997894
0.9882312
0.99882109
1.0185658
1.0358121
1.0404556
1.0283569
1.0019292
0.97818331
0.96932106
0.97772182
0.99808381
1.0199903
1.0339505
1.02615
1.0052682
0.98982951
1.0330556
1.0270494
1.0131936
0.99609335
0.98196431
0.97282377
0.97318832
0.98427319
1.0020332
1.0205446
1.0340331
1.0302592
1.0120415
0.99667475
0.99412959
1.0053012
1.0190066
1.0250032
1.0179382
0.99889971
0.97795139
0.9691494
0.98050388
1.0300634
1.0195685
1.0088775
1.0005008
0.99820074
1.0048011
1.0130227
1.0171368
1.0131148
1.0012611
0.98836764
0.97616773
0.97254265
0.98194332
1.0077066
1.0434305
1.0684196
1.0635806
1.0291233
0.98761586
0.96157689
0.95787556
0.97306872
0.98113113
0.97956831
0.98724157
1.005666
1.0325187
1.0546984
1.0619043
1.047933
1.0219585
0.99456072
0.97246854
0.96353992
0.96554822
0.98124114
1.0057379
1.0320507
1.0528034
1.0456976
1.0230502
1.0012065
0.99435793
1.0033774
1.0155284
0.96932366
0.97709556
0.99214436
1.0080779
1.0254266
1.0383068
1.0396555
1.028997
1.0150674
1.0036538
1.003461
1.0146869
1.0255448
1.0269626
1.0165212
1.0010322
0.98792477
0.97821253
0.97704323
0.98822026
1.0171262
1.0585268
1.0890244
1.0273993
1.0286734
1.0207409
1.0067608
0.99179054
0.97984115
0.97364065
0.97186002
0.98016901
1.0015049
1.0386574
1.0790492
1.1002564
1.0840603
1.0407266
0.99556815
0.96349985
0.94976382
0.94776279
0.96559895
1.002017
1.0534004
1.1025045
1.0987035
1.0714543
1.0323346
0.99826152
0.97625545
0.96536941
0.96036272
0.9598782
0.97053848
0.99392599
1.0314599
1.0747569
1.1033078
1.0893185
1.0542274
1.016465
0.98929826
0.98435655
0.98819523
0.99635431
1.005776
1.0210158
1.0372377
1.0668419
1.0504849
1.0348147
1.0178937
1.0039232
1.0003614
1.0074278
1.0154198
1.0214964
1.0197953
1.0149666
1.015172
1.0210782
1.0238708
1.0223469
1.0215219
1.0303625
1.0525355
1.0775874
1.0789275
1.0553554
1.0174912
0.98847517
0.9926891
0.99182851
0.99869808
1.0168719
1.0446457
1.0794274
1.1078464
1.1115645
1.08528
1.042619
1.0016446
0.97747508
0.96974894
0.96641375
0.96928992
0.98524918
1.0250703
1.0902249
1.1569341
1.1708979
1.120179
1.0447351
0.98336929
0.95914612
0.9599137
0.9704631
0.99943475
1.0542016
1.1258229
1.1840708
1.186055
1.1310671
1.0574614
1.0008326
0.9733865
0.96615789
0.96865514
0.96600082
0.97458371
1.0037973
1.0677071
1.1485717
1.1979999
1.1677923
1.0874598
1.0147079
0.97105204
0.97742889
0.98909594
1.015592
1.05845
1.1136393
1.1616076
1.1705357
1.1337394
1.0762456
1.0286963
1.0014785
0.99915608
1.0089618
1.0081421
1.0064592
1.0137698
1.0467756
1.0966896
1.1461294
1.145816
1.1065323
1.0567199
1.0286858
1.0321668
1.0338965
1.0414837
1.0572835
1.0789167
1.1002209
1.107984
1.0941262
1.0717866
1.0548843
1.049573
1.0596144
1.0734754
1.0743884
1.0635532
1.0454693
1.039904
1.053198
1.0805187
1.0912881
1.0812086
1.0665668
1.1076394
1.0979
1.0759332
1.0558103
1.0453733
1.0471624
1.0538244
1.0596495
1.0552649
1.0509087
1.0595209
1.083958
1.1221854
1.1541004
1.154037
1.1184673
1.0692045
1.0375491
1.0314256
1.0375911
1.0487962
1.0498173
1.0530854
1.181252
1.1516783
1.1009975
1.0589253
1.0353085
1.0316142
1.0351912
1.040341
1.0377073
1.0386342
1.0577191
1.1043712
1.1704718
1.2245379
1.221757
1.1595835
1.085967
1.0362244
1.0198421
1.0215621
1.0303437
1.0295188
1.0388545
1.2378251
1.1894504
1.1185856
1.0628531
1.0332863
1.0304345
1.037443
1.0414079
1.0357989
1.0366834
1.0622228
1.1230528
1.2066177
1.2721245
1.2648365
1.1851685
1.0981716
1.0403521
1.0214042
1.0226399
1.0289925
1.0230937
1.0332913
1.2711809
1.2134603
1.1323107
1.0704639
1.0420502
1.0412588
1.0483539
1.0526031
1.0461582
1.0453708
1.0724771
1.1408966
1.2354432
1.308738
1.2956224
1.2011956
1.1037941
1.045607
1.0283149
1.0301528
1.0369738
1.0287803
1.0404502
1.2943383
1.2342348
1.1497797
1.0855699
1.0528019
1.053626
1.0658957
1.0727893
1.0688222
1.0687365
1.0960272
1.1649776
1.2602741
1.330265
1.3074127
1.2073801
1.110679
1.0547203
1.041547
1.0429268
1.0466009
1.0400344
1.0558857
1.2923544
1.2428301
1.1656533
1.1050755
1.0724539
1.0766361
1.0932375
1.1050847
1.1028171
1.10439
1.1311828
1.1930086
1.2763872
1.3286843
1.2960239
1.2015285
1.1157809
1.0669424
1.0589459
1.0608973
1.0622078
1.0614047
1.0890178
1.2532372
1.2294333
1.1805287
1.1299831
1.1020321
1.1068369
1.1295092
1.1527201
1.1559184
1.1563746
1.171241
1.2099209
1.2628847
1.2913129
1.2621844
1.1891674
1.1214032
1.0889766
1.0901972
1.0977584
1.0940821
1.097738
1.1355294
1.1932779
1.1943403
1.176707
1.1515873
1.1417203
1.1599505
1.2065478
1.2412586
1.2328952
1.208259
1.1866997
1.1889579
1.2106551
1.2265645
1.213225
1.1730437
1.1352557
1.1273113
1.1417697
1.1593939
1.1505974
1.1478757
1.1774411
1.2623882
1.2594291
1.2351591
1.2085558
1.2079029
1.2552953
1.3267155
1.3617849
1.3003784
1.2163974
1.1566733
1.1376854
1.1466987
1.1600743
1.1603954
1.1529347
1.1640176
1.2038142
1.2429497
1.2437174
1.1990761
1.1688515
1.1749908
1.4214961
1.4239889
1.4307459
1.4052761
1.3523213
1.3297894
1.3574999
1.3594101
1.2773257
1.1789386
1.1088344
1.086702
1.0948798
1.1073291
1.1270083
1.1659205
1.2431773
1.3336442
1.3564352
1.2844995
1.1947538
1.1421495
1.1242679
1.4292826
1.4125158
1.4278675
1.4277177
1.3831134
1.2931692
1.2654692
1.2679156
1.2320125
1.1676
1.114619
1.1006316
1.1114456
1.1300495
1.1661069
1.2354377
1.3335218
1.3989965
1.3500652
1.23201
1.1441437
1.1087972
1.0824306
1.4811113
1.425868
1.3801671
1.3342562
1.3002509
1.2429552
1.1899628
1.1918133
1.2099
1.2156651
1.2100394
1.2109246
1.2141018
1.215736
1.2227232
1.2484346
1.2900649
1.2999191
1.2460342
1.1755919
1.1316152
1.1103302
1.1018161
1.4504398
1.4157369
1.3521421
1.2982658
1.2722128
1.2457651
1.2008069
1.1894974
1.2301509
1.295082
1.3431165
1.3358964
1.2795956
1.2221812
1.1841479
1.1704972
1.1748328
1.1731036
1.1703634
1.1817896
1.1976226
1.1962826
1.1796113
1.2883819
1.328157
1.3518142
1.3515154
1.3434221
1.3260518
1.2814271
1.2423449
1.251431
1.2999124
1.3386503
1.317274
1.2488993
1.1794694
1.1373096
1.1193214
1.1188825
1.1340624
1.1771938
1.2439397
1.2903525
1.2852194
1.2399442
1.2313473
1.2770724
1.3448495
1.4156112
1.4530114
1.4270494
1.3459621
1.2588519
1.2106852
1.2104204
1.22533
1.2256786
1.2086889
1.1861579
1.1708343
1.1660137
1.164831
1.1763871
1.2135994
1.2495032
1.2543902
1.2345593
1.2152851
1.2862677
1.3094068
1.3483308
1.3970199
1.4303969
1.4199102
1.3416416
1.236093
1.1752314
1.1586223
1.1632842
1.1767899
1.2033631
1.2403886
1.2628185
1.2559696
1.2260736
1.1941644
1.1738565
1.1572759
1.1458906
1.1432809
1.1684184
1.340572
1.350855
1.3453883
1.3372067
1.3421419
1.3471332
1.3191995
1.257211
1.2143911
1.19405
1.1862323
1.1894129
1.2106853
1.2427471
1.2662623
1.25676
1.2216305
1.1832143
1.1439646
1.1122747
1.1044155
1.1181741
1.1551663
1.3038974
1.3374952
1.3359033
1.324229
1.3161693
1.3079444
1.2943211
1.2731286
1.2624156
1.2478441
1.2211729
1.1961632
1.1845626
1.1833219
1.1860044
1.1871249
1.1903326
1.1931741
1.1912193
1.1810025
1.1665669
1.1579066
1.1639245
1.2560997
1.3043475
1.3429715
1.3531575
1.3351801
1.2965817
1.2581097
1.2359779
1.2343869
1.2347799
1.2250631
1.2036718
1.1777739
1.1550559
1.1413613
1.1422527
1.1608459
1.1922043
1.2237886
1.242178
1.2400197
1.2279175
1.2089582
1.2492203
1.2858613
1.3287923
1.3559874
1.340465
1.2841125
1.2256639
1.1921771
1.1826154
1.1888911
1.2016238
1.2118626
1.2116251
1.1951389
1.1703743
1.1512848
1.147783
1.1580771
1.1788245
1.208226
1.241754
1.2719765
1.2866726
1.2734148
1.2866035
1.2983508
1.3104
1.3044757
1.2729377
1.2337948
1.2006155
1.1791226
1.1712937
1.1747768
1.1892306
1.2070559
1.2181376
1.2182438
1.2039282
1.1795408
1.1568719
1.1439275
1.1472663
1.1694472
1.2081462
1.2556195
1.2805329
1.2856553
1.2765092
1.2671012
1.253546
1.2374008
1.2264033
1.2204202
1.2140822
1.2027897
1.1897935
1.1804603
1.1758461
1.1770272
1.1816547
1.1883087
1.1902314
1.1834316
1.1739118
1.1711912
1.181533
1.2022218
1.2172805
1.2585951
1.2722349
1.2723143
1.2586002
1.2348244
1.2147669
1.2066908
1.2091354
1.216838
1.2210653
1.2153123
1.198588
1.176452
1.1575596
1.147144
1.1482111
1.1574759
1.1692001
1.1826709
1.1998416
1.2211634
1.2335797
1.2254873
1.2378125
1.2519182
1.2659505
1.2682986
1.2523644
1.2280804
1.2070411
1.1953074
1.1917819
1.1935568
1.1954315
1.1938842
1.1863485
1.1741742
1.1633065
1.1567782
1.1551306
1.1583486
1.1668197
1.1848638
1.2080532
1.2191152
1.2114848
1.2413659
1.240828
1.246927
1.2522336
1.2478389
1.2350598
1.217713
1.1994394
1.1842939
1.1738161
1.1689826
1.1694963
1.1721502
1.1763135
1.1800395
1.1823982
1.1813265
1.1753996
1.1709717
1.1759419
1.1868082
1.1914832
1.1854106
1.2599061
1.2482118
1.2372555
1.227554
1.2181175
1.2102867
1.2044315
1.1993383
1.1929021
1.1858059
1.1790229
1.1728582
1.169062
1.1676556
1.1692008
1.1725143
1.1740099
1.1721361
1.1716044
1.1776092
1.1860938
1.1890415
1.1857122
1.2538429
1.2469572
1.2363755
1.2227707
1.2081279
1.1958305
1.1888605
1.1875526
1.1896068
1.192583
1.1934045
1.1905122
1.1837371
1.1736087
1.1638046
1.1568733
1.1522809
1.1508577
1.1560617
1.1709564
1.1862213
1.1933835
1.192302
1.2373087
1.2307906
1.229503
1.227394
1.2204818
1.2101678
1.1994422
1.1905601
1.1850181
1.1824464
1.1819834
1.181188
1.1782079
1.1725354
1.1649965
1.1574977
1.1518326
1.1504641
1.1572841
1.1748217
1.1902448
1.194231
1.1868195
1.2465203
1.2318361
1.2248356
1.2213482
1.2185048
1.2135026
1.2061611
1.1975587
1.1883402
1.1798282
1.1729417
1.1675819
1.1632958
1.1600082
1.1579697
1.157586
1.1578531
1.1593703
1.166322
1.1812548
1.1933888
1.1923696
1.179281
1.2614012
1.2431811
1.2289445
1.2167017
1.2065034
1.1983633
1.1919286
1.1869669
1.1835456
1.1809053
1.1782037
1.1749405
1.1706339
1.1658057
1.1618039
1.1597365
1.1588696
1.1580916
1.1599526
1.1693031
1.1783979
1.1789497
1.1710972
1.2701986
1.2433224
1.2297301
1.2197672
1.2102287
1.2007767
1.1916798
1.1840974
1.1799332
1.1789565
1.1800816
1.180788
1.1787601
1.1733879
1.1664453
1.1609466
1.1574894
1.1539327
1.1525181
1.1562564
1.1644532
1.1691966
1.1706148
1.318461
1.259161
1.2347702
1.2229909
1.2165346
1.2108761
1.2035871
1.1946603
1.1861082
1.1800216
1.1769551
1.1755816
1.1730349
1.167262
1.1593616
1.152441
1.1493935
1.1490626
1.1501261
1.1542372
1.1637435
1.1726783
1.1791172
1.3741925
1.3050621
1.2579826
1.2300357
1.2144428
1.2057018
1.1993946
1.19254
1.1847589
1.1779597
1.1737942
1.1722462
1.1717981
1.1691109
1.1630581
1.1560344
1.1512931
1.1505899
1.1522022
1.1559274
1.1626261
1.171587
1.1779443
1.3752862
1.3431548
1.2955969
1.2547479
1.2273315
1.2109619
1.2010806
1.1940725
1.1875236
1.1808783
1.1758525
1.173648
1.1736238
1.173762
1.1711137
1.1653791
1.1588305
1.1540167
1.15142
1.150422
1.1519547
1.15747
1.1631634
1.369455
1.3608853
1.3374107
1.2989728
1.2606952
1.2312253
1.2120834
1.2002536
1.1923632
1.1858788
1.1798476
1.1748918
1.1715549
1.1695233
1.1675142
1.1638611
1.1585848
1.1535047
1.149581
1.1468185
1.1458492
1.1480192
1.1536493
1.3640925
1.3616038
1.3533943
1.3353166
1.3010704
1.2618272
1.2289821
1.2069134
1.1940046
1.1871428
1.1830398
1.1794168
1.1759725
1.1724961
1.1691315
1.1659621
1.1619986
1.1578652
1.1543597
1.1511263
1.1489574
1.1479753
1.1502903
1.3407249
1.3415723
1.3423467
1.3377113
1.3270997
1.3029335
1.2693447
1.2376432
1.2141547
1.1988627
1.1896806
1.1839551
1.1790657
1.1746671
1.1708406
1.1674438
1.1646479
1.1616189
1.1582429
1.1547832
1.150551
1.1470532
1.1453051
1.2977735
1.2981083
1.3099944
1.3208494
1.3239815
1.3202233
1.3062972
1.2803625
1.2505469
1.2244421
1.2048046
1.1912092
1.1822349
1.1759981
1.1718375
1.1690411
1.167074
1.1651011
1.1624577
1.1592307
1.1551128
1.1508254
1.1470801
1.2490939
1.2453644
1.263482
1.2875621
1.3064691
1.3161578
1.3163289
1.3078742
1.2868654
1.2590568
1.2318702
1.2098045
1.1943254
1.1844637
1.1789001
1.1758345
1.173715
1.1710212
1.1673814
1.1625028
1.1576921
1.1532444
1.1491541
1.2183566
1.2122424
1.2295801
1.2541798
1.278286
1.2977393
1.309071
1.3110093
1.3059009
1.2907499
1.2685507
1.2444112
1.2226471
1.2053835
1.1928458
1.1843145
1.1785589
1.1741311
1.1698474
1.1654478
1.1613114
1.1582386
1.1548775
1.2022682
1.1999916
1.2159044
1.2353744
1.2555794
1.2754965
1.2929274
1.3046767
1.3088956
1.3072768
1.2976743
1.2806181
1.2592764
1.2372404
1.2171439
1.2008203
1.1887064
1.1807469
1.1754874
1.1719079
1.1689087
1.1666964
1.1630377
1.1869249
1.1954356
1.2105544
1.2263419
1.2425818
1.2598753
1.2775846
1.2938197
1.3056436
1.3112383
1.3114855
1.3043786
1.2902822
1.2711808
1.2499339
1.2295414
1.2122314
1.19917
1.1901973
1.1840996
1.1793034
1.1751995
1.1689117
1.182154
1.1915028
1.2043506
1.217769
1.2319196
1.247287
1.2636805
1.2803482
1.2955681
1.306905
1.3129769
1.3150465
1.311164
1.3012019
1.2858287
1.2671714
1.2477901
1.2296967
1.2144103
1.2023751
1.192937
1.1857467
1.1763491
1.1785726
1.1842233
1.1921118
1.2024055
1.214604
1.2286226
1.2442461
1.260996
1.2780404
1.2938612
1.3063201
1.3140546
1.317842
1.3179166
1.3131821
1.3025882
1.2872158
1.2689007
1.2498226
1.2321939
1.2171649
1.2058677
1.1919547
1.1709786
1.1724254
1.1739869
1.179272
1.1876366
1.1989053
1.2128235
1.2290629
1.246978
1.2656386
1.283444
1.2984888
1.3093996
1.3157389
1.318415
1.3183167
1.3146915
1.3058945
1.2923553
1.2756354
1.2579532
1.2419198
1.2208725
1.1612947
1.1585259
1.1545611
1.1543856
1.1572677
1.1631257
1.1721292
1.1841681
1.1990844
1.2165104
1.23584
1.2557978
1.2746868
1.2910266
1.3035426
1.3115402
1.3151715
1.3163777
1.3148107
1.3100872
1.3008381
1.2877962
1.2672616
1.1558061
1.1469099
1.1389086
1.1342354
1.131979
1.1316145
1.1334014
1.1380264
1.1457806
1.1567015
1.171083
1.1888157
1.2091931
1.2309015
1.2523004
1.2716057
1.2875591
1.298999
1.3062098
1.3096449
1.311001
1.3100834
1.3052797
1.1507442
1.1379958
1.1271437
1.1196185
1.1140885
1.109599
1.1063916
1.1049466
1.1052631
1.1077359
1.1130024
1.121808
1.1343086
1.1504019
1.1696761
1.1913945
1.2143228
1.2367176
1.2570139
1.2743857
1.2879272
1.297981
1.3063671
1.1456315
1.1294352
1.1168348
1.1077056
1.1005398
1.0944303
1.0892614
1.0852494
1.08162
1.0789512
1.0777621
1.0781677
1.0807401
1.0857844
1.0937325
1.1053157
1.1210153
1.1404734
1.1627327
1.1866412
1.2107721
1.2343293
1.2603056
1.1397555
1.1200763
1.1077999
1.0979466
1.0897258
1.0826761
1.0771079
1.0717718
1.0667469
1.062784
1.0591886
1.0559401
1.0534908
1.051644
1.0510567
1.0526377
1.0563828
1.0626762
1.0723141
1.0858351
1.1035404
1.1250974
1.1529305
1.1353881
1.117401
1.1046729
1.0925633
1.0820968
1.0739272
1.0673833
1.0611618
1.0558497
1.0512306
1.0464603
1.0423853
1.0386471
1.034609
1.0314404
1.0288591
1.0264498
1.0250384
1.0249141
1.0265181
1.0304405
1.0378743
1.0531031
1.1333485
1.1189604
1.1046804
1.0896324
1.076841
1.0672648
1.0592466
1.0519648
1.0460672
1.0410373
1.036289
1.0319024
1.027097
1.0224676
1.0188003
1.0150728
1.0112408
1.0081467
1.0061946
1.004832
1.004175
1.0049784
1.0088916
1.12848
1.1174713
1.1008167
1.0828041
1.0684744
1.0582372
1.0498195
1.0426707
1.0370361
1.0316453
1.026327
1.021679
1.0167465
1.0120144
1.0080335
1.0043296
1.0018266
1.0002446
0.99961634
0.99923627
0.99855243
0.99850248
0.99916986
1.1184937
1.1052151
1.0854109
1.0680579
1.0559173
1.0470888
1.0394984
1.0328668
1.0274919
1.0224567
1.0170517
1.0119961
1.0073796
1.0032292
1.0002749
0.99862327
0.99838651
0.99865682
0.99814879
0.99760688
0.9974296
0.99789952
0.99854085
1.1045967
1.0866605
1.067299
1.0528964
1.0436551
1.0368088
1.0300914
1.0237077
1.0185907
1.0140843
1.0089272
1.0035598
0.999954
0.99865585
0.99840335
0.9979991
0.99739501
0.99743215
0.99780301
0.99786278
0.99768826
0.99734975
0.99721821
1.0909383
1.0718829
1.0545655
1.041795
1.0337243
1.0284518
1.0230607
1.016606
1.0106414
1.0060758
1.0023418
0.99934466
0.99766767
0.99747803
0.99787944
0.99785356
0.99743978
0.99736137
0.99764696
0.99767418
0.99745568
0.99717594
0.99711932
1.0799216
1.0607594
1.0451211
1.0341721
1.0267046
1.021523
1.0167193
1.010735
1.0044599
1.0004167
0.99931477
0.99865178
0.99727135
0.99671323
0.9976198
0.99834142
0.99776753
0.99700642
0.9971866
0.99782967
0.99771041
0.99673052
0.99646366
1.070472
1.0523105
1.0383293
1.0284353
1.0212127
1.0160473
1.0115126
1.0060475
1.0004017
0.99756656
0.99794675
0.99869694
0.99802775
0.99692571
0.99698882
0.99782162
0.99798736
0.99746443
0.99720849
0.99729293
0.99737199
0.9971929
0.99683006
1.0633381
1.0453009
1.0326534
1.0239955
1.0172688
1.0119011
1.0069944
1.0019756
0.99838941
0.99713973
0.9975379
0.99823369
0.99800474
0.99737624
0.99735777
0.99773486
0.99761388
0.99698723
0.99708714
0.99763753
0.99760414
0.99692865
0.99630264
1.0580323
1.039935
1.0277667
1.0198994
1.0137036
1.0083927
1.003524
0.99948615
0.99768465
0.99726386
0.99757801
0.99813272
0.99789752
0.99721186
0.99709624
0.99768948
0.99795469
0.99718397
0.99650798
0.9970326
0.99784446
0.99735517
0.9964575
1.0530049
1.0355682
1.0244207
1.0169549
1.0107146
1.0052143
1.0007766
0.99857345
0.99804515
0.99769318
0.99741953
0.9974499
0.99747719
0.99733041
0.99739
0.99755282
0.99755981
0.99720376
0.9968194
0.99714266
0.99753226
0.99723065
0.99641783
1.0494106
1.0317234
1.0208796
1.0141113
1.0086453
1.0034768
0.99933308
0.99782192
0.99776444
0.99771521
0.9974613
0.99731354
0.99748589
0.99758613
0.99744689
0.99732595
0.99728811
0.99731504
0.99714515
0.99693271
0.99688209
0.99687226
0.99683769
1.0454775
1.0288434
1.018812
1.0119869
1.0063239
1.0014701
0.99845426
0.99780057
0.99788878
0.99794782
0.99765772
0.99737734
0.99723336
0.99730639
0.99751476
0.99747033
0.99728873
0.99717052
0.99705101
0.996865
0.99695534
0.99692972
0.99695694
1.0425451
1.0262499
1.0164993
1.0098794
1.0044499
1.0002687
0.9982575
0.99805018
0.99805506
0.9978427
0.99752589
0.99745769
0.99732567
0.9973467
0.99761669
0.9974732
0.99738378
0.99720066
0.99701063
0.99711442
0.99687557
0.99679408
0.9967372
1.0395102
1.0235006
1.0144598
1.0085206
1.003427
0.99956519
0.99785808
0.99765817
0.99790932
0.9980752
0.99797046
0.9977603
0.99742476
0.99718619
0.99724077
0.9974039
0.99767237
0.99771355
0.99713268
0.99674171
0.99673008
0.99703921
0.99729963
1.0364211
1.0215576
1.0131357
1.0071672
1.0019609
0.99854982
0.99766604
0.99797118
0.99848267
0.99836635
0.99787711
0.99740231
0.9971924
0.99764155
0.99804393
0.99781469
0.99727677
0.99695687
0.99723477
0.99755637
0.99741866
0.99664148
0.99623009
1.034693
1.0192582
1.0106831
1.0053625
1.0015267
0.99929189
0.99840371
0.99779986
0.99754615
0.99783422
0.99845667
0.99871366
0.99794563
0.99708669
0.99694482
0.99761302
0.99835677
0.99810508
0.9972799
0.99653102
0.99690723
0.99738771
0.99778477
1.03128
1.0181622
1.0106438
1.0053769
1.0009757
0.99800589
0.99770007
0.99849167
0.99899413
0.99882938
0.99828184
0.99759296
0.99745634
0.99790732
0.9983724
0.99808939
0.99774718
0.99750922
0.99749328
0.99745057
0.99783946
0.99724732
0.99681946
1.0307641
1.0163556
1.0085583
1.0040866
1.0011727
0.99965404
0.9992114
0.99840236
0.99785416
0.99838213
0.99896457
0.99910159
0.99842185
0.9975033
0.99767157
0.99809411
0.99868827
0.99854681
0.99760553
0.99730887
0.99763104
0.9975591
0.9975764
1.027375
1.0162168
1.0101345
1.0051778
1.0007386
0.99806903
0.99812659
0.99958664
1.0004076
0.99981786
0.99857101
0.997849
0.99847358
0.99896043
0.99847182
0.99804111
0.99848298
0.99888059
0.99824373
0.99754337
0.99779529
0.99826109
0.99854413
1.028383
1.0148799
1.0075555
1.0037209
1.0020074
1.001057
0.99980206
0.99876548
0.99901405
1.0001021
1.000412
0.99931209
0.99812555
0.99816334
0.99894357
0.99919747
0.998884
0.99854672
0.99842116
0.99844362
0.9980677
0.9980567
0.9983766
1.0248721
1.0152721
1.0100308
1.0048975
1.0007461
0.99946544
1.0001796
1.0009764
1.0006445
0.99996305
0.99980481
0.99980754
0.99892922
0.9981092
0.99867652
0.99961779
1.0000025
0.99929529
0.99833012
0.99836362
0.99856757
0.99803587
0.99785562
1.0249287
1.0136015
1.0086025
1.0051811
1.0023742
1.0004439
1.0000519
1.0009999
1.0016885
1.0009239
0.99958533
0.99903049
0.99973862
1.0001129
0.99895474
0.9985197
0.9997732
1.0008597
0.99961397
0.99744278
0.99695193
0.99879542
1.0005393
1.0245223
1.0135263
1.0073363
1.003893
1.0025987
1.0023208
1.0015384
1.000619
1.0009931
1.0018451
1.001613
1.0000226
0.99854624
0.99903233
1.0003012
1.0005108
1.0000343
0.99993234
1.0002477
0.99958049
0.99832048
0.9982298
0.99922587
1.0211814
1.0135413
1.0093866
1.0049973
1.0018874
1.0015589
1.0023957
1.002635
1.0018938
1.001077
1.001004
1.0010249
1.000281
0.99988485
1.0009005
1.0021505
1.0020936
1.0009484
1.0004892
1.001064
1.0006749
0.99966636
0.99970644
1.0208787
1.0121278
1.008623
1.0055613
1.0026189
1.0013268
1.0022659
1.0039352
1.0039948
1.0020009
1.000785
1.0020739
1.0038787
1.0040502
1.0029674
1.0030699
1.0052763
1.0070804
1.0066344
1.004656
1.0040249
1.0058997
1.0076893
1.02058
1.0110917
1.006628
1.0051838
1.0049875
1.004433
1.003371
1.0028643
1.0040642
1.0056892
1.00599
1.0062145
1.007396
1.0095349
1.0117329
1.0124735
1.0128013
1.0145881
1.0161467
1.0160787
1.0150215
1.0150634
1.0163875
1.0182639
1.0115806
1.0076275
1.0055648
1.0058492
1.0063503
1.0057548
1.0050379
1.0065624
1.0103483
1.0137649
1.0154008
1.0169062
1.0199307
1.0229035
1.024183
1.0245361
1.0258314
1.0275906
1.0283635
1.0282849
1.029066
1.0310558
1.0175056
1.0118606
1.0093467
1.0067389
1.0053546
1.0062678
1.0087671
1.0115446
1.0143144
1.0178982
1.0221905
1.0260465
1.0288848
1.0311129
1.0327349
1.0338344
1.035113
1.0367708
1.0378801
1.0385365
1.0390396
1.0399714
1.0404778
1.0181247
1.0112362
1.008435
1.0068985
1.0068123
1.0096496
1.0142837
1.0184907
1.0219398
1.0261317
1.0312578
1.0355381
1.0375118
1.0382615
1.039749
1.0420096
1.0432008