/*--------------------------------*- C++ -*----------------------------------*\
| =========                 |                                                 |
| \\      /  F ield         | OpenFOAM: The Open Source CFD Toolbox           |
|  \\    /   O peration     | Version:  2406                                  |
|   \\  /    A nd           | Website:  www.openfoam.com                      |
|    \\/     M anipulation  |                                                 |
\*---------------------------------------------------------------------------*/
FoamFile
{
    version     2.0;
    format      ascii;
    arch        "LSB;label=32;scalar=64";
    class       volScalarField;
    location    "45";
    object      rho_0;
}
// * * * * * * * * * * * * * * * * * * * * * * * * * * * * * * * * * * * * * //

dimensions      [1 -3 0 0 0 0 0];

internalField   nonuniform List<scalar> 
20580
(
1.0009393
1.0035783
1.0009453
1.0014614
1.0027754
1.0019465
1.0032717
1.0031505
1.0037661
1.0043512
1.0040105
1.004249
1.0044625
1.00505
1.0058281
1.0051744
1.0056035
1.0061855
1.0038621
1.0065756
1.0062322
1.0034533
1.0049373
1.0071317
1.0043201
1.0026173
1.00525
1.0053965
1.0051836
1.0077158
1.0039439
1.0007477
1.0037542
1.000355
1.0012174
1.002969
1.0019925
1.0032965
1.0032269
1.0041088
1.004012
1.0042397
1.0044647
1.0045958
1.0053048
1.005579
1.0051411
1.0060576
1.005218
1.0038536
1.0074074
1.0048773
1.0027004
1.0054401
1.0063749
1.0026113
1.0018074
1.0067232
1.0071265
1.0039152
1.0052639
1.0069684
1.0009786
1.0036666
1.0007681
1.0014865
1.0032394
1.0026963
1.0032021
1.0035774
1.0043675
1.0035363
1.0045236
1.0048299
1.0049193
1.0054931
1.0051408
1.0046371
1.0062729
1.0046356
1.0041313
1.007851
1.0043064
1.0032122
1.0063652
1.0058394
1.0023537
1.0020489
1.0072272
1.0088327
1.0039386
1.0017967
1.0066309
1.0015177
1.00336
1.002028
1.002264
1.0033426
1.0036096
1.0030974
1.003882
1.0042628
1.0033754
1.0046254
1.004975
1.0049752
1.00563
1.0049435
1.0043886
1.00632
1.0044501
1.0049488
1.0074088
1.0037318
1.0043357
1.0073742
1.005996
1.0039042
1.003694
1.0066953
1.0082022
1.004862
1.0014624
1.0052959
1.0022135
1.0028093
1.0034471
1.0032647
1.0031087
1.0041233
1.0030909
1.0038795
1.0038056
1.0037752
1.0045241
1.004671
1.0046851
1.0054276
1.0048972
1.0047085
1.0062202
1.0044885
1.0059681
1.0066856
1.0032086
1.0052363
1.0070977
1.0052672
1.005463
1.0060996
1.0059723
1.0059191
1.0039389
1.0017021
1.004156
1.002806
1.0024014
1.0043284
1.0040927
1.002689
1.0038876
1.0032143
1.003641
1.0031723
1.0044316
1.0043469
1.0041068
1.0043628
1.0050138
1.0047258
1.0053295
1.0059927
1.0046437
1.0069013
1.0059832
1.0034954
1.006573
1.0064089
1.0037764
1.0060247
1.0077765
1.0051937
1.0047853
1.0035183
1.0023528
1.0019506
1.00288
1.0025191
1.0041559
1.0042788
1.0022758
1.0030451
1.0034333
1.003361
1.0028516
1.0048486
1.0042826
1.0039101
1.0045005
1.0046428
1.0045774
1.0059194
1.0053444
1.0044019
1.0070525
1.0047257
1.0039968
1.0077664
1.0062334
1.0031803
1.0061698
1.0081866
1.0038495
1.0037122
1.0053169
1.0062693
1.0028503
1.002302
1.0029329
1.0030386
1.0036261
1.0020951
1.0021985
1.0035992
1.0031305
1.0032251
1.004623
1.0043458
1.0041199
1.0050056
1.0047117
1.0047127
1.0060491
1.0046845
1.0043198
1.0068147
1.003848
1.0049072
1.0081057
1.0054598
1.002828
1.005443
1.0078734
1.0030442
1.0016364
1.0058438
1.0101135
1.0081629
1.001395
1.0032396
1.0014716
1.0023741
1.002376
1.0019685
1.0035658
1.0031184
1.0039983
1.0039459
1.0043952
1.0044665
1.0054199
1.0048515
1.0051027
1.0058583
1.0044353
1.0050118
1.0070795
1.003479
1.005333
1.0070936
1.0045536
1.0029695
1.0049148
1.0067474
1.0048784
1.0014722
1.0041996
1.0086449
1.0099123
1.0008534
1.0035414
1.0003874
1.0011544
1.0029666
1.0024771
1.0032729
1.0033593
1.0046937
1.0034312
1.0043486
1.00479
1.0053261
1.0048806
1.0053556
1.0054985
1.0045368
1.0058525
1.0069819
1.004025
1.0059588
1.0058057
1.0046339
1.0043563
1.0050741
1.0040983
1.0061029
1.0044276
1.0041101
1.005487
1.0069088
1.0007719
1.0038532
1.0005365
1.0006379
1.0035599
1.0033924
1.0029181
1.0036607
1.0048027
1.0034538
1.0042024
1.0047744
1.0047168
1.004632
1.005257
1.0051131
1.0049299
1.0064452
1.0057988
1.0047794
1.0072096
1.0047425
1.0045505
1.0066017
1.0064734
1.0036805
1.0050723
1.0067378
1.0053729
1.004202
1.0046059
1.0010226
1.0035614
1.001571
1.0010896
1.0038049
1.0041169
1.0027846
1.0038977
1.0041904
1.0039847
1.004003
1.0046019
1.0041656
1.0044795
1.0050346
1.0049606
1.0051383
1.0065875
1.0043425
1.0047467
1.0076455
1.0041228
1.0042163
1.0082791
1.0072575
1.0051278
1.0048872
1.0073164
1.0059826
1.0031908
1.0021977
1.0016094
1.0029448
1.0028438
1.0023776
1.0035408
1.0041368
1.0029295
1.0039433
1.0033455
1.0046043
1.0040685
1.0045866
1.0040617
1.0046786
1.0050318
1.0051394
1.0051355
1.0061376
1.003454
1.0047915
1.0074566
1.0042716
1.0039362
1.0079751
1.0062123
1.004734
1.0056905
1.007844
1.007307
1.0033411
1.0004172
1.0023909
1.0025627
1.003804
1.0039338
1.0028287
1.0032964
1.0032108
1.0037297
1.0028386
1.0047106
1.0044322
1.0047165
1.0043875
1.0050829
1.0051544
1.0054057
1.0051674
1.0056325
1.0037254
1.0056379
1.0071468
1.0047931
1.004446
1.0071834
1.0058414
1.0037138
1.0053804
1.0074279
1.0085496
1.0054528
1.0019972
1.0030205
1.0025328
1.0039418
1.0049726
1.0021233
1.0023386
1.0035418
1.0033642
1.0030529
1.004294
1.0046416
1.004665
1.0046967
1.0052629
1.0051558
1.0053871
1.0053516
1.0055914
1.0046553
1.0065723
1.0065637
1.0049965
1.0054771
1.006461
1.0056532
1.0042365
1.0045157
1.0051992
1.0069338
1.0066078
1.0053759
1.0028864
1.0027658
1.003222
1.0048334
1.001869
1.001909
1.0037439
1.0030751
1.0038183
1.003764
1.0046866
1.0044993
1.0048905
1.0050977
1.0049976
1.0050407
1.0055939
1.0055612
1.005177
1.0068125
1.005528
1.0051329
1.0062233
1.0054039
1.004624
1.0057772
1.0049471
1.0037495
1.0042877
1.0056279
1.0076906
1.0021043
1.0030288
1.002137
1.0035555
1.0021651
1.0021148
1.0035972
1.0029872
1.0044722
1.0034985
1.0046164
1.004364
1.004765
1.0047265
1.0047148
1.0048407
1.0055608
1.0054368
1.005394
1.0063144
1.0042687
1.0055767
1.0072435
1.0047553
1.0040381
1.0070258
1.0065942
1.0044259
1.0031913
1.0042418
1.0080415
1.0011258
1.0034015
1.0012047
1.0014936
1.0028184
1.0029211
1.0031106
1.003184
1.0043976
1.0037105
1.0043165
1.0042207
1.0045396
1.0044393
1.0046576
1.0049076
1.0052526
1.0050337
1.0056033
1.0057683
1.0033599
1.0056202
1.0079397
1.0043773
1.0040511
1.0072434
1.0078446
1.0057993
1.0032902
1.0035185
1.0067052
1.0005339
1.0036705
1.0009082
1.0001151
1.003514
1.0038994
1.0028104
1.0035742
1.0038198
1.0043326
1.0040016
1.0042854
1.0044589
1.0043102
1.0048439
1.0053608
1.005076
1.0043449
1.0057523
1.0058654
1.003769
1.0053394
1.0073525
1.0046383
1.0043105
1.0066083
1.0083764
1.0068383
1.0041663
1.0040733
1.0056063
1.0005765
1.0035199
1.0012665
1.0002235
1.0038151
1.0042077
1.0027882
1.0039355
1.0033025
1.0048092
1.0039959
1.0044915
1.0048961
1.0045855
1.0051206
1.0057631
1.0052101
1.0042105
1.0058346
1.0061494
1.0050791
1.0056537
1.0062058
1.0057306
1.00474
1.005809
1.0075433
1.0065487
1.0049541
1.0053037
1.0054527
1.0013308
1.0031084
1.0019166
1.0015144
1.0034114
1.0036232
1.0029791
1.0038732
1.003223
1.0047149
1.0040412
1.0046431
1.0047691
1.0047153
1.0053325
1.005563
1.0054263
1.0049725
1.0057658
1.005876
1.0060667
1.0061675
1.0054089
1.0062995
1.0056286
1.0058551
1.0057665
1.0052028
1.0054417
1.0061561
1.0054698
1.0024246
1.0028833
1.0025598
1.0038464
1.002738
1.0026745
1.0034464
1.0038906
1.004033
1.0043435
1.0042751
1.0043206
1.0047076
1.0044637
1.0049913
1.0048133
1.005441
1.0060125
1.0060253
1.0052086
1.0066593
1.0062469
1.0048709
1.0060499
1.00647
1.0061196
1.0040877
1.0043642
1.0061229
1.0071282
1.0054057
1.0030249
1.003536
1.0038474
1.0063256
1.0021389
1.0019834
1.0045678
1.0062593
1.0061902
1.0035852
1.002993
1.0038409
1.0032672
1.0046047
1.0055273
1.004912
1.0065007
1.0089558
1.0088183
1.0058097
1.0070892
1.0055946
1.0040512
1.0036633
1.0062488
1.0058366
1.0022858
1.0026031
1.0053941
1.0077425
1.0061307
1.0037004
1.0045544
1.0060019
1.006566
1.0071797
1.0085239
1.0085953
1.0065415
1.00408
1.0021521
1.0026355
1.0054329
1.0057957
1.0048733
1.0061717
1.003216
1.0001295
1.0052808
1.0092645
1.0083152
1.0069082
1.0036893
0.99967335
1.0043247
1.0053072
1.0053809
1.0051139
1.0046926
1.0047039
1.0044183
1.0038614
1.0040888
1.0064465
1.0098506
1.0099592
1.0064165
1.0033717
1.0017429
1.0004119
1.002071
1.0059564
1.0065348
1.0054843
1.0061251
1.0044389
1.0029773
1.0102769
1.0086039
1.0062035
1.0027285
1.0007986
1.0010676
1.0026814
1.0043068
1.0064565
1.0084608
1.0081531
1.0057249
1.0038494
1.0033187
1.0029699
1.0044365
1.0078767
1.0079285
1.0037311
1.0000739
1.0011224
1.0029354
1.0046489
1.0093494
1.0071722
1.0051505
1.0037761
1.0043145
1.0058861
1.0068454
1.0070054
1.006774
1.0049986
1.0012915
0.9986484
1.0002253
1.0044098
1.0074371
1.0092793
1.0098297
1.007783
1.0034906
1.0005094
1.0011022
1.0026764
1.0033991
1.0032648
1.0025056
1.0036292
1.0065477
1.0096022
1.0107041
1.0098685
1.0080644
1.0060993
1.0032437
1.0001284
0.99989077
1.0028353
1.0060436
1.0073045
1.0066677
1.005321
1.003777
1.0022603
1.0028593
1.0059723
1.0074092
1.0049514
1.0016651
1.0031621
1.0048323
1.0065901
1.0068496
1.0061203
1.0050959
1.0044264
1.0041847
1.0043507
1.0057087
1.0080937
1.0092435
1.0074142
1.0038244
1.0008347
0.99957591
0.99967133
1.0009838
1.0042242
1.0080934
1.0093051
1.0073789
1.0095634
1.0086058
1.0067404
1.0042635
1.0014531
0.99942647
0.99891143
1.0000194
1.0023252
1.0054639
1.0086439
1.0106118
1.0101477
1.0074611
1.0039617
1.0012269
1.0001029
1.00072
1.0026721
1.0045557
1.0052571
1.0049829
1.0040888
1.0125631
1.0101408
1.0069985
1.0039398
1.0017194
1.001051
1.0015239
1.0027396
1.0040936
1.004976
1.0052189
1.0050015
1.0043798
1.003714
1.0037354
1.004549
1.0058979
1.0070565
1.0069689
1.0051557
1.0026642
1.0005505
0.99888803
1.0056587
1.0040656
1.0035043
1.0042442
1.0061669
1.0083717
1.0096809
1.0092028
1.0071736
1.0041671
1.0012629
0.99929142
0.9984991
0.99910734
1.0011996
1.004561
1.008123
1.0100286
1.0092769
1.006588
1.0033304
1.0007209
0.99910426
0.99981819
1.0001051
1.0016032
1.0042982
1.0077968
1.0107217
1.0118655
1.0107416
1.0076407
1.0041
1.0014585
0.99993318
0.99936848
0.99970029
1.0009908
1.0031804
1.0052392
1.0061655
1.0059294
1.0050772
1.0037761
1.0028008
1.0028061
1.0030831
1.0033262
1.0032161
1.0037142
1.0047125
1.0056111
1.0059022
1.0052964
1.0045307
1.0041921
1.0045904
1.0052663
1.0057366
1.0054389
1.0045093
1.0031143
1.0015
1.0002752
0.99996856
1.0004266
1.0015194
1.0032154
1.005595
1.009709
1.0085181
1.0056921
1.0028033
1.0006514
0.99939538
0.99915891
0.99962627
1.0008748
1.0029552
1.0057213
1.0086713
1.0105315
1.0103985
1.0081502
1.0046512
1.0010561
0.99825826
0.99690549
0.99741074
0.9993616
1.0021188
1.0049067
1.0122693
1.0106255
1.0071374
1.0032723
1.0001081
0.99805042
0.99751953
0.99806006
0.99955867
1.0017493
1.0043222
1.0067858
1.0087379
1.0095092
1.0088774
1.006739
1.0036689
1.0006794
0.99878676
0.99853501
0.9998371
1.0015945
1.0027673
1.0098244
1.0084961
1.0061624
1.0038644
1.0020976
1.0012529
1.0011374
1.001356
1.0014741
1.0015337
1.0019966
1.003006
1.0041421
1.0051118
1.0056822
1.0056774
1.0050449
1.0041984
1.0036292
1.0032737
1.0029825
1.0025013
1.0016486
1.0035215
1.0037113
1.0038048
1.004245
1.0050454
1.0058591
1.0062923
1.0059423
1.0047578
1.0030406
1.0014588
1.0004594
1.0000646
1.0005185
1.0013563
1.0026122
1.0041142
1.0057497
1.0070767
1.0075937
1.0070557
1.0053891
1.0025679
0.99815044
0.99948606
1.0015105
1.0041404
1.0069147
1.0092387
1.0104085
1.0099268
1.0079636
1.005189
1.0024127
1.000156
0.99867555
0.99817303
0.99865065
1.0001011
1.0023886
1.0053503
1.0079137
1.009339
1.0090982
1.0071873
1.0039055
0.99665592
0.99822373
1.0006683
1.0037665
1.0070118
1.0096676
1.0111002
1.0109318
1.0092049
1.0065122
1.003585
1.0010674
0.99910532
0.99795869
0.99796321
0.99909601
1.0014764
1.0046545
1.0075261
1.0090458
1.008865
1.0072156
1.0044601
0.99883411
0.99994868
1.0016006
1.0036806
1.0059869
1.0081496
1.0095416
1.0098279
1.0087846
1.0067288
1.004234
1.0018524
0.99998942
0.99888418
0.99878612
0.99980322
1.0019876
1.0047805
1.0071696
1.0083498
1.0082447
1.0069879
1.0049333
1.0017876
1.0025679
1.0034905
1.0044788
1.0054391
1.0063684
1.0071071
1.0074955
1.0072457
1.0062385
1.0045848
1.0026034
1.0007572
0.99966706
0.99971118
1.0009719
1.0031863
1.0055302
1.007154
1.0076953
1.0074295
1.0066276
1.0054959
1.003254
1.003517
1.0038976
1.0042038
1.0045539
1.0051077
1.005752
1.006372
1.0067144
1.0065326
1.0056263
1.0041246
1.0025235
1.0014551
1.0013423
1.002111
1.0034106
1.0046459
1.0055249
1.0060472
1.0063485
1.0063653
1.0059343
1.0027028
1.0030305
1.0032596
1.0037092
1.004515
1.0055643
1.0065863
1.0074976
1.0078836
1.0076336
1.0067793
1.0054222
1.0039075
1.0028211
1.0024774
1.0028964
1.0036024
1.0040949
1.0043148
1.0045382
1.0050436
1.0055187
1.0054686
1.0016592
1.0022993
1.0032348
1.0045948
1.0064542
1.0081301
1.0091084
1.0091436
1.0082902
1.0069432
1.005386
1.0038961
1.0026406
1.0019316
1.002087
1.0031411
1.0045494
1.0054184
1.005498
1.0052578
1.0053896
1.0058286
1.006013
1.0008971
1.0017632
1.0032234
1.0055426
1.0083396
1.0107387
1.0115764
1.0102336
1.0077229
1.0052399
1.0032695
1.0019174
1.0009742
1.0006696
1.0015059
1.003381
1.0055718
1.00694
1.0071801
1.0068526
1.0068132
1.0071442
1.0071727
0.99820709
1.0001049
1.0028887
1.0062159
1.0096633
1.0122682
1.0129338
1.0114749
1.0087075
1.0057665
1.0033801
1.0015572
1.0003725
1.0000313
1.00105
1.0034879
1.0065994
1.0091902
1.0101638
1.0094005
1.0078466
1.0063234
1.0045112
0.99623448
0.99940738
1.0038437
1.0086286
1.0122664
1.0136023
1.013133
1.0114972
1.009289
1.0066574
1.0036589
1.0009449
0.9994758
0.99965099
1.0018124
1.0055863
1.0098575
1.0126199
1.0125532
1.0098433
1.005643
1.0013748
0.99866845
1.0005572
1.0024636
1.005769
1.0097027
1.0124469
1.0132232
1.0122101
1.0101688
1.0075846
1.0044399
1.0013436
0.99918866
0.99870779
1.0003801
1.0039858
1.0085051
1.0129528
1.0152434
1.0133073
1.007665
1.0011085
0.99717421
0.99752796
1.0082717
1.0070733
1.0064425
1.0071886
1.0087577
1.0098464
1.0097532
1.0080596
1.0053353
1.0027573
1.0008644
0.99976997
1.0005239
1.0034891
1.0075817
1.0112946
1.0135438
1.0136126
1.0103499
1.0043768
0.99947145
0.99881989
1.0021183
1.0132282
1.0106942
1.0072877
1.0044985
1.0035863
1.0040135
1.0049087
1.0056088
1.0053503
1.0044123
1.0040599
1.0052063
1.0075338
1.0099863
1.0114249
1.0104677
1.0072053
1.0038577
1.0028729
1.0041853
1.0056892
1.0059102
1.0055366
1.0118276
1.0118694
1.0101675
1.0069075
1.0022846
0.99864813
0.998194
1.0008164
1.0054171
1.0099293
1.0130704
1.0145058
1.0141836
1.0112052
1.0060884
1.0013549
0.99937218
1.000294
1.0035914
1.0074268
1.0093027
1.0089574
1.0076203
1.0090865
1.008776
1.008224
1.0067489
1.0041494
1.001053
0.99985161
1.0018011
1.006596
1.0123254
1.0156139
1.0148916
1.0106499
1.0054254
1.0019214
1.0005728
1.0008952
1.0027403
1.0058464
1.0099116
1.0127148
1.0124428
1.0088686
1.001419
1.0035626
1.0051051
1.0065648
1.0080252
1.0099096
1.010347
1.0093476
1.0076262
1.006285
1.0057861
1.0058156
1.0057926
1.0057167
1.0058655
1.006449
1.0064319
1.005137
1.0049826
1.0086128
1.0134722
1.0154846
1.0119034
0.99655954
0.99976698
1.0058617
1.0120344
1.0154121
1.0154661
1.0134206
1.0097485
1.0045266
1.0001733
0.99989921
1.0033677
1.0080511
1.0110735
1.0110788
1.0088519
1.0065673
1.0057554
1.0058407
1.006797
1.0083818
1.0101295
1.0107899
1.0069875
1.0055285
1.0065431
1.0091598
1.0109923
1.0106208
1.0083798
1.0057197
1.0045112
1.0044903
1.0042715
1.0042316
1.0051651
1.0069354
1.0093838
1.0118914
1.0118286
1.0088991
1.0050568
1.0020867
1.0016253
1.005863
1.0125514
1.0158797
1.0119626
1.0063338
1.0007658
0.9983525
1.00056
1.0053258
1.0089519
1.0093572
1.0074236
1.0049644
1.0036746
1.0040316
1.0061944
1.0096694
1.0122098
1.0113198
1.0084469
1.0066262
1.0066056
1.006784
1.0078791
1.0090951
1.0057383
1.0077594
1.0079468
1.0046321
0.99992344
0.99805228
1.0005095
1.0049976
1.0092733
1.0114899
1.0115673
1.0090456
1.0047852
1.0012281
1.0029183
1.0084914
1.0122326
1.0123416
1.0107294
1.0084707
1.0070605
1.006521
1.0086186
0.99880073
1.0014747
1.0061383
1.0090137
1.0074052
1.0028319
0.99991631
1.0013082
1.0062097
1.0108333
1.012395
1.0112134
1.0080224
1.0034355
1.00044
1.0014731
1.0053594
1.009536
1.0139842
1.0163956
1.0159159
1.0145739
1.0137408
1.0009972
0.99908117
1.0003124
1.0050602
1.0102091
1.0115794
1.0086402
1.0043448
1.0018726
1.00207
1.0037832
1.0061842
1.0086018
1.0095994
1.0086522
1.0062421
1.0030378
1.001912
1.0036089
1.007895
1.0119997
1.0139828
1.0147951
1.00522
1.003036
1.0012397
1.0013469
1.0044799
1.0089129
1.0115598
1.0099681
1.0048659
0.9991595
0.99623095
0.99762735
1.002066
1.0067455
1.0098023
1.0107595
1.0102789
1.0088612
1.0076637
1.0078015
1.0079368
1.0073894
1.0068996
1.0041458
1.0047207
1.0053889
1.0046774
1.0021472
0.99962283
0.99937657
1.0021364
1.005384
1.0063269
1.0042096
1.0011593
0.99951869
0.99964076
1.0007357
1.0034094
1.0067786
1.0105499
1.0123356
1.0112171
1.009444
1.0075273
1.0053291
1.0047105
1.0030139
1.0013274
1.00085
1.0010721
1.000371
0.99834746
0.99712549
0.99894181
1.0031164
1.0069117
1.0078758
1.0060272
1.0033503
1.0012358
1.0002162
1.0007945
1.0035148
1.005238
1.004843
1.0047545
1.0063877
1.0072166
0.99939973
1.000542
1.0005625
0.99993961
1.000273
1.001532
1.0020083
1.0005947
0.99840335
0.99751721
0.9989694
1.0019327
1.0046487
1.0058913
1.0058526
1.0044534
1.0031312
1.0020685
1.0012002
1.0001651
1.0000074
1.0017523
1.004677
0.99968713
0.99943664
0.99958141
0.9992448
0.99892649
0.99993732
1.0018317
1.0028477
1.0024283
1.0008464
0.99914563
0.99854557
0.99971469
1.0005442
1.000316
1.0004333
1.0007369
1.0008187
1.0016
1.002916
1.0035068
1.0033753
1.0031702
0.99928958
0.99927235
0.9991636
0.99883328
0.99823549
0.99820021
0.9994475
1.0013823
1.0031966
1.0034691
1.0018008
1.0000623
0.99864038
0.99706214
0.99528645
0.99459589
0.9957578
0.99776468
1.000291
1.0031346
1.0049152
1.0036747
1.0005357
0.99712795
0.99780946
0.99911183
1.0006893
1.0013785
1.0009594
1.0002181
0.99938898
0.9991725
0.99849582
0.99693975
0.99538265
0.99463968
0.99470896
0.99561472
0.99665116
0.99846223
1.0002754
1.0006372
1.0001067
0.99917699
0.99700627
0.99459195
0.99979102
0.99909164
0.99897511
0.99934409
0.99877332
0.99807851
0.99707704
0.99539439
0.99466278
0.99477405
0.99499111
0.99522417
0.99567303
0.99688356
0.99882485
1.0002584
1.001429
1.0010287
0.99915427
0.99611417
0.99319835
0.99183907
0.99202567
0.99769781
0.99734869
0.99790811
0.99779819
0.99673462
0.99692775
0.99660308
0.99538418
0.99561126
0.99618714
0.99750797
0.99899722
0.99913687
0.99892437
0.99794849
0.99651675
0.99549391
0.99422422
0.99284688
0.99171416
0.99124461
0.99214334
0.99411558
0.99622831
0.99595488
0.99698996
0.99745483
0.99757899
0.9989688
0.99924771
0.99883419
0.99919429
0.9981224
0.99801283
0.9981618
0.99692254
0.99538673
0.99243718
0.98990937
0.98873236
0.98916404
0.99085978
0.99290018
0.99496221
0.99615778
0.99628948
0.99946306
0.99890027
0.9982498
0.99731628
0.99745235
0.99744651
0.99678984
0.9967473
0.99640417
0.99510738
0.99456695
0.99391569
0.99376443
0.9942938
0.99353775
0.99314865
0.99298206
0.99342213
0.99504373
0.9964184
0.99700976
0.9958827
0.99267411
0.99722988
0.99806173
0.99689463
0.99654273
0.99756206
0.9968701
0.99692365
0.99756193
0.99675416
0.99665324
0.99637275
0.99508291
0.99501578
0.99494763
0.99520353
0.99543077
0.99507496
0.99389039
0.99306772
0.99197019
0.99147282
0.9902824
0.98774326
0.99732035
0.99812965
0.99758199
0.99799912
0.99838859
0.99702325
0.99749082
0.99777355
0.99668215
0.99758769
0.99707382
0.9960551
0.99591953
0.99386279
0.99384244
0.99349504
0.99284668
0.9918139
0.99006028
0.98862204
0.98803726
0.98858497
0.9891168
0.99760242
0.99785205
0.99826892
0.99929844
0.99860822
0.99733708
0.9975349
0.99669491
0.99572906
0.99639328
0.99558004
0.99560912
0.99577111
0.99375538
0.99386355
0.99320707
0.99299696
0.99316836
0.99257546
0.99207427
0.99083747
0.99053283
0.9909271
0.99772927
0.99716701
0.99798494
0.99880714
0.99791581
0.99838274
0.99932695
0.99812414
0.99779362
0.99755525
0.99677137
0.99797778
0.99725111
0.99581158
0.99557168
0.99425063
0.99400667
0.99343514
0.99277694
0.99258792
0.99163684
0.99028339
0.98948462
0.99964851
0.99887473
0.99940691
0.99926955
0.99841571
0.99963215
0.99963916
0.99790771
0.99777889
0.99672645
0.99615033
0.99725212
0.99608614
0.99628549
0.99571487
0.9946332
0.99496708
0.99372839
0.99293175
0.9922932
0.99167145
0.9906714
0.98943784
0.99898512
0.998807
0.9992823
0.99851864
0.99862245
0.99999327
0.99902324
0.99791177
0.99875919
0.99811929
0.99796464
0.99766924
0.99622945
0.99760732
0.99676036
0.99581326
0.99564457
0.99421251
0.99433345
0.99330716
0.99256791
0.99217144
0.99121963
0.99908695
0.99991179
1.0004457
0.99922617
0.99918639
0.9999299
0.99906417
0.99932885
0.99992625
0.99896783
0.99953091
0.99873226
0.99727821
0.99833493
0.99728923
0.99716526
0.99606785
0.99469277
0.99530152
0.99474741
0.99480828
0.99348349
0.99294038
0.99985174
1.0008591
1.0009397
1.0001454
1.000445
1.0003695
0.99980415
1.0002978
1.0000237
0.99906153
0.99972868
0.99901913
0.9980279
0.99814467
0.99672112
0.9974805
0.99710245
0.99618415
0.99687965
0.99579237
0.99631787
0.99445299
0.99342735
1.0005413
1.0007085
1.0001392
1.0005199
1.0015429
1.0010475
1.0007733
1.0005215
0.99981036
0.9999265
0.99984945
0.99933423
0.99907888
0.99822282
0.99784919
0.99886826
0.99829504
0.99756509
0.99768835
0.99664748
0.9965856
0.99480872
0.99379094
1.0020294
1.0016953
1.0003004
1.0007195
1.0019889
1.0015666
1.0013061
1.0009303
0.99975237
1.000576
1.0008627
1.000344
1.0003579
0.99975704
1.0001264
1.0000694
0.99912415
0.9984841
0.99800839
0.99735139
0.99658752
0.99606799
0.9966557
1.0037677
1.0026195
1.0009903
1.0012306
1.002224
1.0017703
1.0018558
1.0019224
1.0010379
1.001383
1.0013959
1.0012372
1.0011104
0.99974367
1.0004398
0.99984485
0.99907275
0.9986166
0.99837764
0.9991569
0.99797456
0.99783291
0.99797023
1.0031976
1.0021575
1.0014452
1.0019011
1.0027123
1.0021516
1.0024136
1.002915
1.0018186
1.0018657
1.0019344
1.0017713
1.0018604
0.9995697
1.0003741
1.0017277
1.0003729
0.9998112
0.99947185
1.0006088
0.9999353
0.99952391
0.9989006
1.0032762
1.002303
1.0021313
1.0025361
1.0031483
1.0028698
1.002198
1.002627
1.0021477
1.0020752
1.0028884
1.0018789
1.0017227
1.0016004
1.0014502
1.0026272
1.00057
1.0013002
1.0003864
1.0003687
1.0007039
0.99966485
0.99940302
1.0036902
1.0029672
1.0023098
1.002709
1.0025364
1.0027114
1.0030274
1.0024574
1.0024243
1.0023123
1.0032221
1.0036781
1.0016205
1.0022236
1.0024785
1.0021437
1.0014512
1.0022659
1.0019196
1.0016396
1.0011884
1.0003148
1.0001469
1.0040827
1.0036736
1.0030487
1.0029233
1.0032058
1.0030741
1.003371
1.00295
1.00282
1.003288
1.0029774
1.0042056
1.0030046
1.0019114
1.0032972
1.0025582
1.0027848
1.0025615
1.0016747
1.0019277
1.0011646
1.0017427
1.0010774
1.003901
1.0044833
1.0042709
1.003542
1.0031468
1.0033831
1.0038083
1.0037024
1.0032477
1.0040724
1.0039507
1.0034665
1.0038593
1.0028833
1.0042295
1.0034963
1.0026861
1.0029454
1.0027195
1.0029169
1.0014973
1.0023779
1.0027025
1.0038584
1.0047233
1.0049711
1.0039322
1.0030828
1.0039259
1.0053723
1.0052433
1.0037077
1.0035445
1.0051104
1.0050963
1.0043284
1.0031895
1.0037757
1.0047926
1.0036765
1.0030482
1.0029001
1.0034841
1.0034702
1.0031907
1.0030295
1.0052015
1.0046055
1.0043439
1.0042665
1.0046637
1.0051947
1.0051253
1.0049029
1.0041572
1.0035678
1.0048638
1.0056354
1.0047282
1.0035249
1.003635
1.0050948
1.0045031
1.0032214
1.0033166
1.0040088
1.0042221
1.0029086
1.0027549
1.0049737
1.0047795
1.0048973
1.0051783
1.0046669
1.0044296
1.0051344
1.0056828
1.0058958
1.0048132
1.004172
1.0051419
1.0055919
1.0046439
1.003598
1.0045526
1.0056342
1.0044712
1.0034281
1.0038576
1.0042632
1.0037187
1.0032056
1.0062068
1.0054406
1.0048199
1.00473
1.0055054
1.0060247
1.0060251
1.005123
1.0050446
1.0060321
1.00543
1.0045975
1.0055866
1.0058727
1.0046456
1.0043022
1.0054682
1.0048422
1.003783
1.0042138
1.0051736
1.004574
1.0031135
1.0055115
1.0058459
1.0065569
1.0062379
1.0051915
1.0052483
1.0060053
1.0060022
1.0053525
1.0057563
1.0055373
1.0046376
1.0053839
1.0060443
1.0055383
1.0043613
1.0044596
1.0054455
1.0047967
1.0042357
1.0044936
1.0048629
1.0038445
1.0066693
1.0057696
1.005757
1.0061742
1.0061146
1.0056896
1.0055637
1.0058726
1.0052468
1.0050909
1.0065476
1.0062414
1.0045858
1.0047428
1.0058656
1.0054184
1.0039549
1.0046157
1.0059376
1.0054333
1.0035489
1.0039414
1.0056316
1.0060591
1.0064541
1.006647
1.0061621
1.0052065
1.0056447
1.0067309
1.0066473
1.0054429
1.0046651
1.0055137
1.0064635
1.0058137
1.0048585
1.0048864
1.0056004
1.0059893
1.0054164
1.0040918
1.0040631
1.0050224
1.0050236
1.0041941
1.0062628
1.0055776
1.005819
1.0066329
1.0061581
1.0049254
1.0051529
1.0064172
1.0066317
1.0056562
1.0056305
1.0062823
1.0056602
1.0050071
1.0056196
1.0057767
1.0046788
1.005008
1.0059917
1.0048891
1.0033263
1.0043386
1.0065353
1.0058963
1.0050346
1.0049993
1.0059457
1.0068088
1.0060914
1.0052247
1.0059076
1.006962
1.0062055
1.0051091
1.0058736
1.0065467
1.0053736
1.0046234
1.0056425
1.0056754
1.0043376
1.0038978
1.0049192
1.0055112
1.0044985
1.0034423
1.0068052
1.0059949
1.0055764
1.0055288
1.0065278
1.0070571
1.006299
1.0054657
1.0061491
1.0071642
1.006308
1.0047806
1.0046435
1.0053573
1.0055918
1.0050399
1.0042648
1.0040129
1.0047015
1.0048709
1.0041469
1.0038492
1.0038755
1.007853
1.005793
1.005407
1.0067733
1.007906
1.006779
1.00516
1.0057104
1.0073591
1.0069874
1.0045625
1.0035537
1.0052549
1.0063446
1.0049421
1.0033435
1.0036763
1.0047424
1.0053
1.004462
1.002523
1.0029286
1.0056124
1.0070974
1.0067539
1.0052802
1.005817
1.0079676
1.0084287
1.0060992
1.0040963
1.0050651
1.0066446
1.0058691
1.0041776
1.0044927
1.0054827
1.0044354
1.0033361
1.0045525
1.0052715
1.0036463
1.0030879
1.0040954
1.0038982
1.0034339
1.0059493
1.007483
1.0075559
1.0060339
1.0053739
1.0064541
1.0069785
1.0056444
1.0043598
1.0048966
1.005822
1.0049767
1.0036501
1.004172
1.0052951
1.0044325
1.0030131
1.003442
1.0043327
1.0042189
1.0040103
1.0036296
1.0026719
1.006331
1.0067686
1.0073198
1.006583
1.0052791
1.0053812
1.0065698
1.0066152
1.0049258
1.003642
1.0044011
1.0053879
1.0045202
1.0032845
1.0038288
1.0048016
1.0041085
1.0031386
1.0036688
1.0043981
1.0038476
1.0027357
1.0024825
1.0065882
1.0063776
1.006709
1.0068947
1.0063111
1.0055012
1.0052823
1.0055293
1.0051442
1.0041475
1.003905
1.0047124
1.0049203
1.0038194
1.0031406
1.004068
1.0050256
1.0041095
1.0027246
1.0028515
1.0038499
1.0037541
1.0028124
1.0072075
1.0066307
1.0063083
1.006464
1.0064444
1.0057874
1.0049609
1.0047576
1.0050801
1.0049066
1.0041396
1.0037422
1.0042351
1.004701
1.0041814
1.0034234
1.0034999
1.0039292
1.0036666
1.0029465
1.0029039
1.0033794
1.0034783
1.0072709
1.0070588
1.006727
1.0062514
1.0058332
1.0056875
1.0056026
1.0052515
1.0047805
1.0044229
1.0042779
1.0041744
1.0039698
1.0040557
1.0042326
1.0038863
1.0033115
1.003203
1.0034627
1.0035166
1.0032268
1.002999
1.0029798
1.0074213
1.0072787
1.0071934
1.0065322
1.005808
1.0056607
1.0055524
1.0052222
1.0049979
1.0047211
1.0043672
1.0043681
1.0041307
1.0036812
1.0036588
1.003918
1.0040145
1.003892
1.00337
1.0029638
1.0028286
1.0029577
1.0031928
1.007738
1.007593
1.0071171
1.0063025
1.0058729
1.0059571
1.0058854
1.0056351
1.0053531
1.00466
1.004372
1.0043238
1.004035
1.0040786
1.0042288
1.0040344
1.0036952
1.0034448
1.0033172
1.0034778
1.003467
1.0027615
1.0023181
1.0075966
1.0076776
1.0075482
1.007032
1.0065189
1.006234
1.0057857
1.0052576
1.0052326
1.0052459
1.0050279
1.0046806
1.0041585
1.0040059
1.0036976
1.0039079
1.004577
1.0042625
1.0033064
1.0026465
1.0025661
1.0032929
1.0036862
1.0081921
1.0082409
1.0075536
1.0066411
1.0063354
1.0065424
1.0063095
1.005904
1.0057328
1.0050543
1.0046522
1.0048235
1.0045263
1.0043386
1.0039979
1.0040771
1.0042476
1.0037883
1.0034953
1.003477
1.0035224
1.0032402
1.0025307
1.0081272
1.0078988
1.008051
1.0078443
1.0070304
1.0062113
1.0057697
1.0058954
1.0064322
1.0060305
1.0051105
1.0046602
1.0042124
1.0041152
1.0043478
1.0043453
1.004443
1.0044821
1.0038693
1.0030626
1.0027876
1.0035939
1.0041519
1.0095419
1.0083116
1.0069497
1.0065801
1.0070925
1.007544
1.0073038
1.0063612
1.0054353
1.0053604
1.0054345
1.0057174
1.0051913
1.0039975
1.0040315
1.0045591
1.0042625
1.004078
1.0041382
1.0044489
1.003948
1.0032097
1.0024732
1.0080722
1.008574
1.0086677
1.008102
1.0071794
1.0063507
1.0061461
1.0066349
1.0068297
1.0066227
1.0058745
1.0048925
1.0046144
1.0043265
1.0042511
1.0050882
1.0052518
1.0048437
1.0040126
1.0032563
1.0036292
1.0041391
1.0040454
1.0093035
1.0083293
1.0080729
1.0074944
1.0070044
1.00706
1.0072864
1.0072764
1.0067836
1.0058698
1.0055105
1.0056723
1.0055082
1.0049684
1.0046889
1.0047364
1.0047208
1.0045841
1.004409
1.003996
1.0039271
1.0042691
1.0042978
1.0101389
1.0084268
1.007322
1.0070949
1.0071172
1.0070721
1.0073769
1.0076233
1.007194
1.0063464
1.0058676
1.0059688
1.0056336
1.0045537
1.0042241
1.0052383
1.0053441
1.0046042
1.0046192
1.0047921
1.004283
1.0032265
1.002933
1.0099567
1.0084934
1.0070843
1.0069197
1.0074366
1.0074375
1.0068649
1.006933
1.0077069
1.0078354
1.0065591
1.0050562
1.0045975
1.00487
1.0050391
1.0052183
1.0055468
1.00504
1.0041665
1.0039016
1.0042451
1.0044663
1.0042301
1.0087781
1.0088746
1.0076375
1.0065678
1.006596
1.0074142
1.0079635
1.007875
1.007437
1.0067692
1.0060813
1.0055201
1.0050769
1.0047713
1.0047862
1.00487
1.0054312
1.0061469
1.005217
1.0033217
1.0028213
1.0038308
1.0053243
1.0066783
1.0082881
1.0091994
1.0083379
1.0067801
1.0061312
1.0065844
1.0073294
1.0074878
1.0068239
1.0057952
1.0054068
1.0056758
1.0059307
1.0054906
1.0049274
1.0040631
1.0041101
1.0047199
1.0041852
1.0036601
1.004262
1.0049529
1.0061296
1.0069517
1.0084304
1.0088477
1.0079966
1.0070793
1.0069023
1.0065848
1.0057369
1.0053736
1.005495
1.0060619
1.0066963
1.0064348
1.0053192
1.004482
1.0039034
1.0029584
1.0035502
1.004731
1.0052338
1.0048379
1.0037468
1.0074571
1.0069538
1.0074235
1.0074599
1.0068106
1.0063403
1.0067947
1.0071275
1.0063028
1.0054913
1.0054725
1.0058461
1.0059346
1.0053253
1.0048914
1.0047747
1.0049307
1.0037174
1.0029127
1.0039085
1.0047196
1.0039326
1.0026282
1.0064408
1.0069367
1.0076118