/*--------------------------------*- C++ -*----------------------------------*\
| =========                 |                                                 |
| \\      /  F ield         | OpenFOAM: The Open Source CFD Toolbox           |
|  \\    /   O peration     | Version:  2406                                  |
|   \\  /    A nd           | Website:  www.openfoam.com                      |
|    \\/     M anipulation  |                                                 |
\*---------------------------------------------------------------------------*/
FoamFile
{
    version     2.0;
    format      ascii;
    arch        "LSB;label=32;scalar=64";
    class       volScalarField;
    location    "33";
    object      k_0;
}
// * * * * * * * * * * * * * * * * * * * * * * * * * * * * * * * * * * * * * //

dimensions      [0 2 -2 0 0 0 0];

internalField   nonuniform List<scalar> 
62344
(
4.578156e-06
3.7322476e-06
3.0424989e-06
2.4820536e-06
2.0335699e-06
1.7144897e-06
1.5064773e-06
1.3656559e-06
1.282544e-06
1.2196836e-06
1.1589016e-06
1.0963238e-06
1.0271161e-06
9.6433556e-07
9.1356563e-07
8.726933e-07
8.385423e-07
8.1261881e-07
7.9242335e-07
7.7441883e-07
7.5247958e-07
7.2683515e-07
7.0315945e-07
6.8398657e-07
6.7086707e-07
6.6722636e-07
6.6818749e-07
6.6810001e-07
6.7165128e-07
6.7971952e-07
6.875456e-07
6.9713809e-07
7.0299789e-07
7.1167186e-07
7.2591104e-07
7.4065332e-07
7.7541123e-07
8.2461195e-07
8.7778241e-07
9.5945591e-07
1.1347079e-06
1.312427e-06
1.4514272e-06
1.6147956e-06
1.9792805e-06
2.3698991e-06
2.7589659e-06
3.0582821e-06
3.5993257e-06
4.0749047e-06
4.9471452e-06
5.5621199e-06
6.5233684e-06
7.1484057e-06
8.2644662e-06
4.5750623e-06
3.7308512e-06
3.0473446e-06
2.4912468e-06
2.0423524e-06
1.719175e-06
1.5098339e-06
1.3687226e-06
1.2863428e-06
1.2240253e-06
1.1636476e-06
1.1017163e-06
1.0318233e-06
9.6775539e-07
9.1674945e-07
8.7579607e-07
8.4146955e-07
8.1541539e-07
7.9557358e-07
7.7730685e-07
7.5629302e-07
7.3093154e-07
7.0555553e-07
6.849124e-07
6.7035875e-07
6.6358093e-07
6.630886e-07
6.6271734e-07
6.6533042e-07
6.7011149e-07
6.7717575e-07
6.865844e-07
6.9142463e-07
6.9753142e-07
7.0702536e-07
7.1697812e-07
7.442044e-07
7.8075697e-07
8.47585e-07
9.1075458e-07
1.0545526e-06
1.2352313e-06
1.4100273e-06
1.5572818e-06
1.8601797e-06
2.3000682e-06
2.7713041e-06
3.220217e-06
3.5911324e-06
4.1322039e-06
4.72548e-06
5.6790223e-06
6.4677581e-06
7.6827945e-06
8.387191e-06
4.5798119e-06
3.7467919e-06
3.0630939e-06
2.5028366e-06
2.0529664e-06
1.727369e-06
1.5172153e-06
1.374586e-06
1.2908831e-06
1.2285731e-06
1.1687326e-06
1.1088823e-06
1.0412102e-06
9.7705884e-07
9.2528316e-07
8.8312182e-07
8.4817811e-07
8.2165801e-07
8.0173297e-07
7.8290965e-07
7.6124082e-07
7.3712407e-07
7.12144e-07
6.9084578e-07
6.7505341e-07
6.6679778e-07
6.655602e-07
6.6492601e-07
6.6768935e-07
6.71363e-07
6.7864815e-07
6.8802623e-07
6.9278263e-07
6.9826609e-07
7.0531675e-07
7.1185667e-07
7.2839399e-07
7.4985109e-07
7.9164082e-07
8.3854672e-07
9.2032596e-07
1.049241e-06
1.2128136e-06
1.405169e-06
1.5938687e-06
1.9654884e-06
2.4512339e-06
3.0440077e-06
3.3773666e-06
4.0075531e-06
4.4580418e-06
5.3407419e-06
6.2274089e-06
7.5508247e-06
8.6272887e-06
4.5831629e-06
3.7605458e-06
3.0765143e-06
2.5152403e-06
2.0634883e-06
1.7377656e-06
1.523896e-06
1.3769204e-06
1.2941329e-06
1.2343895e-06
1.1749806e-06
1.1145695e-06
1.0482107e-06
9.8371818e-07
9.2886999e-07
8.8750303e-07
8.5403666e-07
8.2589154e-07
8.051084e-07
7.8679206e-07
7.6582688e-07
7.4249813e-07
7.1701922e-07
6.953134e-07
6.7902453e-07
6.6993401e-07
6.6716952e-07
6.6587107e-07
6.6845862e-07
6.7087231e-07
6.7813946e-07
6.8955913e-07
6.9626148e-07
7.0369019e-07
7.0986147e-07
7.1458419e-07
7.2705414e-07
7.4261826e-07
7.6402785e-07
8.113643e-07
8.5719938e-07
9.5260335e-07
1.0343793e-06
1.2192081e-06
1.3597303e-06
1.6420796e-06
1.8672024e-06
2.3714232e-06
2.7433862e-06
3.4318796e-06
3.9186269e-06
4.3839634e-06
5.4318212e-06
6.699094e-06
8.0204289e-06
4.5850852e-06
3.7697585e-06
3.0892767e-06
2.5292104e-06
2.0754087e-06
1.7455386e-06
1.5280369e-06
1.3800688e-06
1.299066e-06
1.2396942e-06
1.1804374e-06
1.1183628e-06
1.0525931e-06
9.8814185e-07
9.3310375e-07
8.90291e-07
8.5601517e-07
8.292548e-07
8.0989009e-07
7.9311963e-07
7.7326067e-07
7.5036457e-07
7.2498135e-07
7.024511e-07
6.8455894e-07
6.7399193e-07
6.6985181e-07
6.6805207e-07
6.7020184e-07
6.7170849e-07
6.7811782e-07
6.893585e-07
6.9759228e-07
7.0766613e-07
7.146905e-07
7.1882336e-07
7.2836197e-07
7.3981215e-07
7.5583389e-07
7.8130116e-07
8.2920437e-07
8.7879423e-07
9.7475289e-07
1.0594928e-06
1.2354482e-06
1.3762793e-06
1.6348765e-06
1.8412238e-06
2.2533047e-06
2.5710066e-06
3.0614887e-06
3.3991535e-06
4.1096992e-06
4.726213e-06
6.1820753e-06
4.5862721e-06
3.7774082e-06
3.1010966e-06
2.5402876e-06
2.0844001e-06
1.7539116e-06
1.5342024e-06
1.3873115e-06
1.3032638e-06
1.2440989e-06
1.1825456e-06
1.1236425e-06
1.0609358e-06
9.9553013e-07
9.3841249e-07
8.9472817e-07
8.5985574e-07
8.3377727e-07
8.1394497e-07
7.9576945e-07
7.7580735e-07
7.5277311e-07
7.2815451e-07
7.0571629e-07
6.8735822e-07
6.7652925e-07
6.716063e-07
6.7003039e-07
6.7201579e-07
6.729025e-07
6.785516e-07
6.872925e-07
6.957345e-07
7.0717218e-07
7.1492887e-07
7.2030097e-07
7.3059722e-07
7.4087121e-07
7.5650813e-07
7.7737003e-07
8.1914273e-07
8.5987029e-07
9.465428e-07
1.014546e-06
1.1636691e-06
1.269188e-06
1.4990375e-06
1.6639474e-06
2.0036101e-06
2.2169027e-06
2.6650104e-06
2.9467248e-06
3.5407103e-06
3.9539459e-06
4.7653274e-06
4.5910156e-06
3.7940026e-06
3.1147505e-06
2.5505275e-06
2.0936123e-06
1.7633973e-06
1.5407175e-06
1.3927352e-06
1.3049059e-06
1.2461851e-06
1.1887208e-06
1.131874e-06
1.0698509e-06
1.002816e-06
9.4302416e-07
9.0052167e-07
8.668821e-07
8.384127e-07
8.1672459e-07
7.991898e-07
7.8087623e-07
7.5888436e-07
7.3443545e-07
7.10946e-07
6.9136734e-07
6.7983791e-07
6.7358439e-07
6.7199663e-07
6.7385003e-07
6.7447583e-07
6.7998072e-07
6.875693e-07
6.9643441e-07
7.0717128e-07
7.1602995e-07
7.2279482e-07
7.3445189e-07
7.4379798e-07
7.5915396e-07
7.7774503e-07
8.1205979e-07
8.4391129e-07
9.1619525e-07
9.7832276e-07
1.1019416e-06
1.1886288e-06
1.3797618e-06
1.5214744e-06
1.8234766e-06
2.0160532e-06
2.4393437e-06
2.7152371e-06
3.286183e-06
3.659746e-06
4.257869e-06
4.5926497e-06
3.8024383e-06
3.1253056e-06
2.561981e-06
2.1045407e-06
1.7730338e-06
1.5452027e-06
1.39496e-06
1.3072271e-06
1.2498337e-06
1.1951019e-06
1.1356367e-06
1.0723678e-06
1.0074917e-06
9.4860005e-07
9.048078e-07
8.7046133e-07
8.4192655e-07
8.1966499e-07
8.0315184e-07
7.8706006e-07
7.6696444e-07
7.4291028e-07
7.1799391e-07
6.9623007e-07
6.8245576e-07
6.7407496e-07
6.721434e-07
6.7365439e-07
6.7428146e-07
6.7997845e-07
6.8857743e-07
6.9899027e-07
7.0964679e-07
7.192242e-07
7.2739222e-07
7.4163043e-07
7.4997764e-07
7.6620062e-07
7.8270018e-07
8.0926298e-07
8.328621e-07
8.8738157e-07
9.4219108e-07
1.0460811e-06
1.1160517e-06
1.2635898e-06
1.3706786e-06
1.6131972e-06
1.7859964e-06
2.1551377e-06
2.4086522e-06
2.9214179e-06
3.2912318e-06
3.8015493e-06
4.5927912e-06
3.8068846e-06
3.1349076e-06
2.5731976e-06
2.1139827e-06
1.7803949e-06
1.5496063e-06
1.3985737e-06
1.3100368e-06
1.2525546e-06
1.1981676e-06
1.136945e-06
1.0745031e-06
1.0107999e-06
9.5215705e-07
9.064245e-07
8.7083471e-07
8.4321196e-07
8.2163384e-07
8.0445675e-07
7.8816154e-07
7.6903706e-07
7.4620253e-07
7.2140928e-07
6.9890453e-07
6.840345e-07
6.7459126e-07
6.7219622e-07
6.73144e-07
6.7393594e-07
6.7892933e-07
6.8740954e-07
6.994759e-07
7.1209361e-07
7.2157459e-07
7.3189776e-07
7.4759152e-07
7.578548e-07
7.7150994e-07
7.8551882e-07
8.0800194e-07
8.2839069e-07
8.7270149e-07
9.1443003e-07
9.9708843e-07
1.0537649e-06
1.1746275e-06
1.2586321e-06
1.446721e-06
1.5823387e-06
1.8646762e-06
2.0697169e-06
2.482879e-06
2.7369247e-06
3.3146996e-06
4.5942189e-06
3.8134682e-06
3.1451945e-06
2.5831267e-06
2.1212168e-06
1.786704e-06
1.5557429e-06
1.4054068e-06
1.3138338e-06
1.2556215e-06
1.1994125e-06
1.1390308e-06
1.079575e-06
1.0167704e-06
9.5608919e-07
9.0770982e-07
8.7121697e-07
8.4415532e-07
8.2326865e-07
8.0538994e-07
7.8737492e-07
7.6868411e-07
7.4727298e-07
7.2388029e-07
7.0212667e-07
6.8732747e-07
6.7783449e-07
6.7520522e-07
6.7546217e-07
6.762489e-07
6.8012035e-07
6.8638085e-07
6.9889594e-07
7.1220313e-07
7.2039512e-07
7.3387415e-07
7.496193e-07
7.5962536e-07
7.7219157e-07
7.865181e-07
8.117049e-07
8.3286087e-07
8.6880353e-07
9.0085552e-07
9.682322e-07
1.0230522e-06
1.1370785e-06
1.2161557e-06
1.3813774e-06
1.4808174e-06
1.6975022e-06
1.855611e-06
2.1596016e-06
2.3556352e-06
2.8029613e-06
4.5966883e-06
3.8236008e-06
3.1558012e-06
2.5920152e-06
2.1291941e-06
1.7955656e-06
1.5625289e-06
1.4118799e-06
1.3163353e-06
1.2578978e-06
1.2038965e-06
1.1474931e-06
1.0887922e-06
1.0257244e-06
9.6299269e-07
9.1313064e-07
8.7634555e-07
8.4956016e-07
8.2774972e-07
8.081705e-07
7.8925465e-07
7.7158847e-07
7.5223281e-07
7.3042684e-07
7.0951543e-07
6.9434885e-07
6.8422253e-07
6.813268e-07
6.8092627e-07
6.8189927e-07
6.8493323e-07
6.8801005e-07
6.9860046e-07
7.1103231e-07
7.1909432e-07
7.3279004e-07
7.5053766e-07
7.6118506e-07
7.7437417e-07
7.9045854e-07
8.1797125e-07
8.401523e-07
8.7195596e-07
9.0043915e-07
9.5620288e-07
1.006858e-06
1.1187889e-06
1.1936603e-06
1.3440604e-06
1.4350349e-06
1.5979794e-06
1.7718632e-06
1.928734e-06
2.0708284e-06
2.4106309e-06
4.5976951e-06
3.8299609e-06
3.1638273e-06
2.6015896e-06
2.1383115e-06
1.8081728e-06
1.5684625e-06
1.4158501e-06
1.3187513e-06
1.2599963e-06
1.212785e-06
1.1576408e-06
1.095932e-06
1.0331211e-06
9.7219407e-07
9.2036037e-07
8.846739e-07
8.5797836e-07
8.3541195e-07
8.1496492e-07
7.9758178e-07
7.8164637e-07
7.6358031e-07
7.4078165e-07
7.175813e-07
6.9944791e-07
6.8714017e-07
6.8342377e-07
6.8239811e-07
6.8366603e-07
6.8652818e-07
6.8865045e-07
6.9817728e-07
7.0857887e-07
7.1964314e-07
7.3265093e-07
7.5293135e-07
7.651799e-07
7.8477043e-07
8.0163641e-07
8.2924253e-07
8.5279717e-07
8.8781682e-07
9.186035e-07
9.6088328e-07
1.024974e-06
1.1088867e-06
1.1800836e-06
1.3298589e-06
1.4537013e-06
1.558815e-06
1.7408451e-06
1.8682993e-06
2.0092585e-06
2.2913778e-06
4.5966267e-06
3.8312502e-06
3.1703694e-06
2.6122419e-06
2.1479171e-06
1.8177443e-06
1.574092e-06
1.419097e-06
1.3209598e-06
1.2614384e-06
1.2162691e-06
1.1607157e-06
1.0985335e-06
1.036261e-06
9.7632698e-07
9.230128e-07
8.8669582e-07
8.5995612e-07
8.3746691e-07
8.1745763e-07
8.0102559e-07
7.8523473e-07
7.6751827e-07
7.4434231e-07
7.2034249e-07
7.0064399e-07
6.8701118e-07
6.8209872e-07
6.8045397e-07
6.8180076e-07
6.8451555e-07
6.8672989e-07
6.9620984e-07
7.0632013e-07
7.1962615e-07
7.333102e-07
7.5429536e-07
7.6869842e-07
7.9501099e-07
8.1407558e-07
8.4140468e-07
8.7200724e-07
9.0486416e-07
9.4601787e-07
9.9633755e-07
1.0553581e-06
1.1082129e-06
1.1821029e-06
1.3349977e-06
1.4624511e-06
1.5507939e-06
1.7209333e-06
1.8322967e-06
1.9984267e-06
2.2952128e-06
4.5951951e-06
3.8298557e-06
3.1752353e-06
2.6216209e-06
2.1558745e-06
1.8232402e-06
1.5802654e-06
1.4229674e-06
1.3240392e-06
1.2622551e-06
1.2167844e-06
1.1607931e-06
1.098955e-06
1.0374695e-06
9.7843159e-07
9.2495931e-07
8.8495033e-07
8.5716624e-07
8.3502678e-07
8.1507915e-07
7.9875568e-07
7.831924e-07
7.6661604e-07
7.445903e-07
7.2076227e-07
6.9996823e-07
6.8490152e-07
6.7764127e-07
6.749841e-07
6.759071e-07
6.7798999e-07
6.8012607e-07
6.8911275e-07
6.9962257e-07
7.1582205e-07
7.3114995e-07
7.5173882e-07
7.6975294e-07
7.9508929e-07
8.182435e-07
8.4993899e-07
8.7579507e-07
9.0623349e-07
9.553737e-07
1.0124774e-06
1.0585393e-06
1.097566e-06
1.1689349e-06
1.3215866e-06
1.4221725e-06
1.5322822e-06
1.6545357e-06
1.7446886e-06
1.9415404e-06
2.2418523e-06
4.5939485e-06
3.8290602e-06
3.1802819e-06
2.6297683e-06
2.1631341e-06
1.827232e-06
1.5865855e-06
1.4275448e-06
1.3276797e-06
1.2642119e-06
1.2162367e-06
1.1610608e-06
1.1007158e-06
1.0398009e-06
9.799386e-07
9.2660115e-07
8.8462446e-07
8.5454308e-07
8.3202409e-07
8.1170274e-07
7.9457587e-07
7.7827188e-07
7.6207384e-07
7.4194908e-07
7.1993414e-07
6.9957766e-07
6.8453313e-07
6.7614487e-07
6.7306413e-07
6.735206e-07
6.749737e-07
6.7710995e-07
6.8347502e-07
6.9465217e-07
7.0957647e-07
7.2620823e-07
7.4602366e-07
7.6513209e-07
7.8643209e-07
8.1251525e-07
8.4684375e-07
8.6769971e-07
8.981122e-07
9.429953e-07
1.0042791e-06
1.0431265e-06
1.0842107e-06
1.1454637e-06
1.2706077e-06
1.3506701e-06
1.4722659e-06
1.5667779e-06
1.636058e-06
1.7786138e-06
2.0126937e-06
4.5937256e-06
3.8303037e-06
3.1855111e-06
2.636325e-06
2.1702802e-06
1.8336313e-06
1.5936405e-06
1.4326038e-06
1.3318426e-06
1.2677708e-06
1.2174618e-06
1.1650322e-06
1.1074652e-06
1.0461553e-06
9.8538214e-07
9.3109705e-07
8.8830816e-07
8.5661595e-07
8.3343473e-07
8.1332652e-07
7.9550858e-07
7.7822878e-07
7.6165319e-07
7.431442e-07
7.2329437e-07
7.0363968e-07
6.8823612e-07
6.7850676e-07
6.7461416e-07
6.7413456e-07
6.7486464e-07
6.7704462e-07
6.8179958e-07
6.909647e-07
7.0656705e-07
7.2186159e-07
7.38942e-07
7.5605859e-07
7.7474998e-07
7.9585008e-07
8.2662344e-07
8.4196487e-07
8.713854e-07
9.0362163e-07
9.6150277e-07
9.9746141e-07
1.0538884e-06
1.0927624e-06
1.1765189e-06
1.2515897e-06
1.3689468e-06
1.4792089e-06
1.5527988e-06
1.6294683e-06
1.7851543e-06
4.5931276e-06
3.8318159e-06
3.1907509e-06
2.6429589e-06
2.1780427e-06
1.8439989e-06
1.601558e-06
1.4379748e-06
1.3364005e-06
1.2727727e-06
1.2225016e-06
1.1746454e-06
1.119816e-06
1.0574705e-06
9.9684806e-07
9.4130416e-07
8.9746907e-07
8.6543483e-07
8.4168912e-07
8.2249504e-07
8.0392334e-07
7.8614997e-07
7.6943475e-07
7.522487e-07
7.3426686e-07
7.1488695e-07
6.9868666e-07
6.8725714e-07
6.8125793e-07
6.7921326e-07
6.7918994e-07
6.8114671e-07
6.847206e-07
6.9089239e-07
7.0622602e-07
7.2143404e-07
7.3405159e-07
7.4881554e-07
7.6983795e-07
7.8496366e-07
8.0588587e-07
8.1961973e-07
8.4628632e-07
8.6837524e-07
9.0810583e-07
9.3594374e-07
9.8074832e-07
1.0134258e-06
1.0802294e-06
1.1333485e-06
1.2229952e-06
1.3366436e-06
1.4172201e-06
1.4985361e-06
1.6276812e-06
4.5926421e-06
3.8328073e-06
3.194744e-06
2.6494313e-06
2.1853594e-06
1.8548215e-06
1.6096668e-06
1.4427714e-06
1.3397335e-06
1.2765056e-06
1.230823e-06
1.1846867e-06
1.1288959e-06
1.0669213e-06
1.0065557e-06
9.4971774e-07
9.0519649e-07
8.7421895e-07
8.5045169e-07
8.3089701e-07
8.1253478e-07
7.9686363e-07
7.820161e-07
7.6563878e-07
7.4785502e-07
7.2775499e-07
7.1015754e-07
6.9732922e-07
6.901337e-07
6.8726898e-07
6.8662106e-07
6.8871575e-07
6.9147409e-07
6.954262e-07
7.0774391e-07
7.2315493e-07
7.3522553e-07
7.4920336e-07
7.7023566e-07
7.8635968e-07
7.9977017e-07
8.1133067e-07
8.3514635e-07
8.5554188e-07
8.8071903e-07
9.0187003e-07
9.3090679e-07
9.7032586e-07
1.0207186e-06
1.0564855e-06
1.1153819e-06
1.1981994e-06
1.2713851e-06
1.3746626e-06
1.4747388e-06
4.5911812e-06
3.8318063e-06
3.1984333e-06
2.6568827e-06
2.1931183e-06
1.8630533e-06
1.6167801e-06
1.447046e-06
1.3416875e-06
1.2772339e-06
1.2340064e-06
1.1879777e-06
1.1316753e-06
1.0699185e-06
1.0088722e-06
9.5159128e-07
9.0774578e-07
8.7664871e-07
8.5361965e-07
8.3429712e-07
8.1652275e-07
8.0315726e-07
7.904221e-07
7.7491565e-07
7.579961e-07
7.4008867e-07
7.2523317e-07
7.1467928e-07
7.0978269e-07
7.0852851e-07
7.0838361e-07
7.1145603e-07
7.1469899e-07
7.1812131e-07
7.2818393e-07
7.4586753e-07
7.6019599e-07
7.7759554e-07
8.0436973e-07
8.2544048e-07
8.386468e-07
8.4982088e-07
8.7362e-07
8.9713876e-07
9.1882844e-07
9.381821e-07
9.6144045e-07
1.0018268e-06
1.0461899e-06
1.0754343e-06
1.118851e-06
1.1915273e-06
1.2440507e-06
1.3539449e-06
1.4472353e-06
4.5896531e-06
3.8294827e-06
3.1994886e-06
2.6622267e-06
2.1983498e-06
1.8666555e-06
1.6202128e-06
1.4494705e-06
1.3415871e-06
1.2737464e-06
1.2293785e-06
1.1835794e-06
1.128842e-06
1.0696005e-06
1.0089693e-06
9.5408341e-07
9.142474e-07
8.8485886e-07
8.6512599e-07
8.4929524e-07
8.3608271e-07
8.2830377e-07
8.2334456e-07
8.1452563e-07
8.0311905e-07
7.9398404e-07
7.9165183e-07
7.9202413e-07
7.9567041e-07
8.0444061e-07
8.1127316e-07
8.2429078e-07
8.3360789e-07
8.4200894e-07
8.5741111e-07
8.8330811e-07
9.0540047e-07
9.3794523e-07
9.85854e-07
1.0268742e-06
1.0499425e-06
1.0686533e-06
1.10087e-06
1.1415792e-06
1.1742326e-06
1.1998528e-06
1.2223017e-06
1.2605537e-06
1.2956945e-06
1.3294774e-06
1.3571778e-06
1.4087659e-06
1.4533533e-06
1.5596005e-06
1.5977285e-06
4.5876939e-06
3.8262578e-06
3.1980296e-06
2.6633552e-06
2.1991383e-06
1.8638263e-06
1.6181507e-06
1.4481697e-06
1.3376837e-06
1.2662935e-06
1.2200408e-06
1.1778937e-06
1.1313815e-06
1.0838189e-06
1.0355466e-06
9.9356685e-07
9.6947768e-07
9.562687e-07
9.559297e-07
9.5827178e-07
9.6306116e-07
9.7505855e-07
1.0047073e-06
1.0227194e-06
1.0445355e-06
1.0593298e-06
1.0911597e-06
1.1202738e-06
1.1686806e-06
1.2347461e-06
1.2683566e-06
1.3203608e-06
1.3605273e-06
1.4105895e-06
1.4500592e-06
1.5049765e-06
1.5441581e-06
1.6179295e-06
1.7162971e-06
1.8202212e-06
1.878155e-06
1.931258e-06
1.9865374e-06
2.0736606e-06
2.1554199e-06
2.2251432e-06
2.2748537e-06
2.319865e-06
2.3442531e-06
2.3807532e-06
2.4101486e-06
2.453958e-06
2.4978017e-06
2.5946521e-06
2.5118541e-06
4.583542e-06
3.8152282e-06
3.1788629e-06
2.6447303e-06
2.1885003e-06
1.8543022e-06
1.6182026e-06
1.4549861e-06
1.3520653e-06
1.289263e-06
1.253441e-06
1.2308918e-06
1.2200365e-06
1.2229302e-06
1.235787e-06
1.2539144e-06
1.2959465e-06
1.3421731e-06
1.4268141e-06
1.4786925e-06
1.5686857e-06
1.6533545e-06
1.806975e-06
1.9139416e-06
2.0177623e-06
2.1081916e-06
2.2607269e-06
2.3869678e-06
2.5466334e-06
2.7727966e-06
2.9243972e-06
3.0864409e-06
3.2552265e-06
3.4435104e-06
3.6027523e-06
3.7484892e-06
3.8439753e-06
3.9889427e-06
4.2055881e-06
4.4508809e-06
4.6091831e-06
4.7419596e-06
4.8552372e-06
5.0104777e-06
5.2060812e-06
5.3926333e-06
5.5329088e-06
5.6312971e-06
5.6575228e-06
5.6865587e-06
5.7323305e-06
5.807106e-06
5.8870863e-06
5.9999974e-06
5.7119211e-06
4.5761094e-06
3.7895743e-06
3.133059e-06
2.6393797e-06
2.2344815e-06
1.9388315e-06
1.7528137e-06
1.6276603e-06
1.5874529e-06
1.5938948e-06
1.6226429e-06
1.6856368e-06
1.8262067e-06
2.0060521e-06
2.2615538e-06
2.4222697e-06
2.7354842e-06
2.9643057e-06
3.2982707e-06
3.4946671e-06
3.8029938e-06
4.0819439e-06
4.5202692e-06
4.8678229e-06
5.1519656e-06
5.4669833e-06
5.8683518e-06
6.2566818e-06
6.6401198e-06
7.1499294e-06
7.6503043e-06
8.0663811e-06
8.5410247e-06
9.0132275e-06
9.5266031e-06
9.9073451e-06
1.0224067e-05
1.0473026e-05
1.0914049e-05
1.1369537e-05
1.1718534e-05
1.1977907e-05
1.2243831e-05
1.2458872e-05
1.2850495e-05
1.3206795e-05
1.3548551e-05
1.3806584e-05
1.3966023e-05
1.3999948e-05
1.4079333e-05
1.4216467e-05
1.4389225e-05
1.4613236e-05
1.4085339e-05
4.5616542e-06
3.7557965e-06
3.2833005e-06
3.1248569e-06
3.0060884e-06
2.9513022e-06
2.9634513e-06
3.0303565e-06
3.2448575e-06
3.473227e-06
3.8103691e-06
4.2118782e-06
4.8011488e-06
5.4148761e-06
6.2134261e-06
6.764938e-06
7.554389e-06
8.1288437e-06
8.8966258e-06
9.4073896e-06
1.0001474e-05
1.0603277e-05
1.1374737e-05
1.2149175e-05
1.2730979e-05
1.3424888e-05
1.4149933e-05
1.4959112e-05
1.5710728e-05
1.6502297e-05
1.7499825e-05
1.8402901e-05
1.9282185e-05
2.0160529e-05
2.1163414e-05
2.1994816e-05
2.2903932e-05
2.3439474e-05
2.4172654e-05
2.4775654e-05
2.5368384e-05
2.5794811e-05
2.6410521e-05
2.6780511e-05
2.7274647e-05
2.7598643e-05
2.8030478e-05
2.8387778e-05
2.8859873e-05
2.9010762e-05
2.9135831e-05
2.9104887e-05
2.9175518e-05
2.931263e-05
2.8953523e-05
4.6993006e-06
4.724404e-06
5.3037766e-06
6.8028669e-06
8.0539529e-06
8.8096007e-06
9.2476851e-06
9.8722457e-06
1.0730604e-05
1.1431023e-05
1.2163308e-05
1.3019529e-05
1.4054478e-05
1.5074535e-05
1.635032e-05
1.7392789e-05
1.8502277e-05
1.9324243e-05
2.0249014e-05
2.1036062e-05
2.1740482e-05
2.2416832e-05
2.3119254e-05
2.3972741e-05
2.4616831e-05
2.5360381e-05
2.5986423e-05
2.6783001e-05
2.7557617e-05
2.8191629e-05
2.9071616e-05
2.9883535e-05
3.0753798e-05
3.1654705e-05
3.2464903e-05
3.3270795e-05
3.4304524e-05
3.5116361e-05
3.5822004e-05
3.6149244e-05
3.6458e-05
3.6886382e-05
3.7521738e-05
3.8048693e-05
3.8216629e-05
3.8155028e-05
3.8119362e-05
3.8351206e-05
3.8693065e-05
3.8916233e-05
3.8909816e-05
3.8671108e-05
3.8446844e-05
3.8334115e-05
3.8422085e-05
7.7528985e-06
1.2240994e-05
1.6697962e-05
2.1133344e-05
2.4494082e-05
2.5905986e-05
2.6006118e-05
2.5824169e-05
2.5734631e-05
2.5737554e-05
2.5752495e-05
2.5664773e-05
2.5649231e-05
2.5781962e-05
2.6095556e-05
2.6358621e-05
2.6480423e-05
2.6522802e-05
2.6490357e-05
2.6351139e-05
2.6317617e-05
2.6282963e-05
2.6241575e-05
2.6256791e-05
2.6292181e-05
2.640008e-05
2.6500476e-05
2.6654198e-05
2.6810133e-05
2.6936779e-05
2.7115959e-05
2.7212232e-05
2.7365563e-05
2.7672955e-05
2.7863877e-05
2.8058155e-05
2.8501134e-05
2.8998336e-05
2.9254295e-05
2.9164818e-05
2.8935322e-05
2.8907873e-05
2.9209353e-05
2.9510433e-05
2.9539958e-05
2.9317749e-05
2.9090622e-05
2.9057512e-05
2.9279334e-05
2.9497724e-05
2.9528936e-05
2.940121e-05
2.9219956e-05
2.8943161e-05
2.9328911e-05
4.6047769e-05
6.9530804e-05
5.9005119e-05
4.6610002e-05
3.9093021e-05
3.4051102e-05
3.0431964e-05
2.7114541e-05
2.392235e-05
2.1369812e-05
1.9501045e-05
1.7851576e-05
1.6081673e-05
1.4328132e-05
1.2826899e-05
1.1676656e-05
1.0905507e-05
1.0445178e-05
1.028442e-05
1.0331548e-05
1.0358467e-05
1.022724e-05
9.8759309e-06
9.3703136e-06
8.821166e-06
8.3415315e-06
7.8993574e-06
7.4944079e-06
7.1802243e-06
6.9343655e-06
6.8034175e-06
6.6841835e-06
6.5550879e-06
6.5344701e-06
6.5283943e-06
6.4928416e-06
6.5761948e-06
6.8405388e-06
7.2193316e-06
7.5563362e-06
7.6007738e-06
7.3760004e-06
7.1941599e-06
7.2344818e-06
7.3681614e-06
7.4151333e-06
7.1941736e-06
6.8077243e-06
6.4588151e-06
6.2713598e-06
6.2484293e-06
6.2847425e-06
6.1702573e-06
5.8834559e-06
5.7253117e-06
5.2677884e-06
2.8758421e-05
3.8753331e-05
3.0214422e-05
1.5396848e-05
6.4597623e-06
2.8275741e-06
1.7261935e-06
1.5323993e-06
1.5631941e-06
1.7167623e-06
1.9435531e-06
2.2343241e-06
2.433471e-06
2.5118697e-06
2.5592169e-06
2.6600137e-06
3.0013392e-06
3.6619777e-06
4.4570947e-06
4.9219176e-06
5.3861926e-06
6.828938e-06
9.8498789e-06
1.0340272e-05
9.8980169e-06
9.5367247e-06
4.9071018e-06
2.7494694e-05
3.9029627e-05
3.1709959e-05
1.7049758e-05
7.4884049e-06
3.3598237e-06
2.0151962e-06
1.7289171e-06
1.7630679e-06
1.9475237e-06
2.2489541e-06
2.6203422e-06
2.8723965e-06
2.9312424e-06
2.989456e-06
3.0409089e-06
3.3075746e-06
3.9426692e-06
5.1620556e-06
5.5618348e-06
5.979808e-06
7.5635947e-06
1.117115e-05
1.2698061e-05
1.2432637e-05
1.1142808e-05
4.7390099e-06
2.5608399e-05
3.8928636e-05
3.2932936e-05
1.8805889e-05
8.8208931e-06
4.0729138e-06
2.3206525e-06
1.9126133e-06
1.9592473e-06
2.2108405e-06
2.5330965e-06
3.0140676e-06
3.490147e-06
3.8777431e-06
3.8919502e-06
3.8287202e-06
3.9604039e-06
4.5763321e-06
5.6461735e-06
6.2005005e-06
6.7615631e-06
8.6441422e-06
1.2749269e-05
1.4163037e-05
1.3944018e-05
1.3320699e-05
4.502948e-06
2.337577e-05
3.8331606e-05
3.3871757e-05
2.0721896e-05
1.0148233e-05
4.788955e-06
2.7661815e-06
2.2818924e-06
2.3306424e-06
2.579128e-06
2.8361719e-06
3.3633306e-06
3.88285e-06
4.5129502e-06
4.8968409e-06
4.9055727e-06
4.971832e-06
5.5994207e-06
6.5143823e-06
7.107035e-06
7.7909578e-06
9.9411972e-06
1.4896074e-05
1.5750739e-05
1.614739e-05
1.6539189e-05
4.2562153e-06
2.1151859e-05
3.7655489e-05
3.4676376e-05
2.2733186e-05
1.1598981e-05
5.7279908e-06
3.3625185e-06
2.7243427e-06
2.7254548e-06
2.8899474e-06
3.1321573e-06
3.7430399e-06
4.589316e-06
5.1798861e-06
5.5991952e-06
5.7313103e-06
5.8228409e-06
6.5379859e-06
7.9979425e-06
8.694805e-06
9.2972e-06
1.1278163e-05
1.7098606e-05
1.9390347e-05
2.00612e-05
2.0228427e-05
4.2397891e-06
1.9376551e-05
3.7208318e-05
3.5361573e-05
2.4622195e-05
1.314494e-05
6.6066813e-06
3.7497987e-06
2.9799441e-06
2.9509872e-06
3.1023994e-06
3.4464316e-06
4.2758258e-06
5.5721408e-06
6.1470424e-06
6.195229e-06
6.1820997e-06
6.2605554e-06
7.0623234e-06
9.5658406e-06
1.0568468e-05
1.1005994e-05
1.2562624e-05
1.8959625e-05
2.3266084e-05
2.359002e-05
2.3683736e-05
4.1738261e-06
1.7856646e-05
3.6742354e-05
3.5846048e-05
2.635512e-05
1.4381608e-05
7.3914721e-06
4.291403e-06
3.3799134e-06
3.3675975e-06
3.522978e-06
3.9090003e-06
4.9260693e-06
6.4038015e-06
7.3110911e-06
7.2432304e-06
6.8021905e-06
6.6794356e-06
7.4379026e-06
1.0536324e-05
1.232506e-05
1.2624692e-05
1.3875789e-05
2.01227e-05
2.726886e-05
2.9034435e-05
2.9134224e-05
4.2496904e-06
1.602029e-05
3.5752522e-05
3.5872804e-05
2.7964202e-05
1.606099e-05
8.7940121e-06
5.4618311e-06
4.3714641e-06
4.2441962e-06
4.2386467e-06
4.5209859e-06
5.5571244e-06
7.1882756e-06
8.5796179e-06
8.9737055e-06
8.4249772e-06
7.8041067e-06
8.4768359e-06
1.1085564e-05
1.467873e-05
1.4876375e-05
1.587079e-05
2.1361038e-05
3.1589207e-05
3.3890279e-05
3.4580895e-05
4.2640352e-06
1.3858081e-05
3.4165068e-05
3.5569319e-05
2.9640651e-05
1.8128057e-05
1.0437121e-05
6.5203602e-06
5.1665299e-06
4.8850949e-06
4.7690231e-06
4.992226e-06
6.0582008e-06
8.168669e-06
9.6351361e-06
1.0442688e-05
1.0222151e-05
9.365149e-06
9.8821698e-06
1.1882338e-05
1.6940907e-05
1.8351429e-05
1.9629623e-05
2.5128915e-05
3.5541515e-05
4.0169298e-05
4.4283513e-05
4.2474799e-06
1.2146918e-05
3.2535704e-05
3.5385006e-05
3.111859e-05
2.0120258e-05
1.2015013e-05
7.7630142e-06
6.162766e-06
5.4915045e-06
5.1983327e-06
5.3636993e-06
6.4160987e-06
9.0423636e-06
1.1080483e-05
1.1971371e-05
1.1907623e-05
1.0927897e-05
1.1398037e-05
1.3290741e-05
1.8910474e-05
2.1383455e-05
2.3676739e-05
3.1056876e-05
4.3675295e-05
4.6337559e-05
5.2085833e-05
4.8262151e-06
1.0987469e-05
3.1021845e-05
3.5453853e-05
3.2242911e-05
2.1985023e-05
1.3443962e-05
8.9034799e-06
7.0628541e-06
6.3090513e-06
5.9433373e-06
6.0558378e-06
7.1365337e-06
1.0341844e-05
1.359123e-05
1.4831278e-05
1.4497152e-05
1.3294361e-05
1.4046072e-05
1.6292742e-05
2.2396644e-05
2.5473883e-05
2.7801455e-05
3.6037212e-05
5.4536647e-05
5.909845e-05
6.5450507e-05
5.3127046e-06
1.0261367e-05
3.0043791e-05
3.5412337e-05
3.2956501e-05
2.3735641e-05
1.502217e-05
1.0501989e-05
8.439405e-06
7.3721442e-06
6.8093211e-06
6.9214194e-06
8.130829e-06
1.1695423e-05
1.6676815e-05
1.9673138e-05
1.9599871e-05
1.796547e-05
1.872802e-05
2.116089e-05
2.8441531e-05
3.1602655e-05
3.234876e-05
4.0434233e-05
6.395883e-05
7.3096229e-05
7.5923132e-05
5.6550995e-06
9.4175312e-06
2.8493751e-05
3.495416e-05
3.3410541e-05
2.5754963e-05
1.7156545e-05
1.2551486e-05
1.0277156e-05
8.8848301e-06
7.9953684e-06
8.0124803e-06
9.241323e-06
1.2949004e-05
1.9549703e-05
2.4510308e-05
2.5104071e-05
2.3030373e-05
2.377309e-05
2.7150174e-05
3.7060905e-05
4.0437997e-05
3.7837845e-05
4.5396324e-05
7.0392849e-05
8.90406e-05
8.9133928e-05
6.0702026e-06
8.4174532e-06
2.6055796e-05
3.3837272e-05
3.3485125e-05
2.813209e-05
1.9837989e-05
1.4686586e-05
1.1983116e-05
1.0286125e-05
8.9913216e-06
8.7540746e-06
9.9569016e-06
1.3864182e-05
2.1689908e-05
2.7835701e-05
2.8979885e-05
2.6488591e-05
2.7853304e-05
3.2355449e-05
4.5423738e-05
5.2051756e-05
4.7505698e-05
5.3373151e-05
7.4328411e-05
0.00010366491
0.00010731663
6.1558505e-06
7.5505305e-06
2.3371783e-05
3.2537578e-05
3.3534791e-05
3.0530724e-05
2.2554424e-05
1.7131981e-05
1.3743684e-05
1.1505212e-05
9.9417136e-06
9.6385308e-06
1.0911519e-05
1.4955102e-05
2.4020289e-05
3.1743461e-05
3.3948937e-05
3.1256165e-05
3.187834e-05
3.6849211e-05
5.2259336e-05
6.5930715e-05
6.0695089e-05
6.7077139e-05
8.3918435e-05
0.00012090404
0.00013221046
7.344461e-06
7.0505445e-06
2.152802e-05
3.1902822e-05
3.4135581e-05
3.2285862e-05
2.5238337e-05
1.9279676e-05
1.6002829e-05
1.3439615e-05
1.1364983e-05
1.0588242e-05
1.1749115e-05
1.5868582e-05
2.6599895e-05
3.9118171e-05
4.3609525e-05
4.0191981e-05
3.8336979e-05
4.4387106e-05
6.0721529e-05
8.2924638e-05
7.8875577e-05
8.4937803e-05
0.00010221559
0.00014703023
0.00015982708
8.8393093e-06
6.9197546e-06
2.0687685e-05
3.1799651e-05
3.472865e-05
3.3286372e-05
2.7159512e-05
2.1130741e-05
1.7814899e-05
1.5401857e-05
1.3100717e-05
1.2030071e-05
1.31929e-05
1.7741901e-05
3.0486189e-05
4.677783e-05
5.3138017e-05
4.8540217e-05
4.4251095e-05
5.1206904e-05
6.6746786e-05
9.6189161e-05
9.8458493e-05
0.00010312149
0.00012338923
0.00018772993
0.00020065442
9.5012384e-06
6.8974957e-06
1.9569346e-05
3.1455682e-05
3.4884212e-05
3.431495e-05
3.0367213e-05
2.4613281e-05
2.0942376e-05
1.7848455e-05
1.497994e-05
1.3731125e-05
1.5260745e-05
2.1113121e-05
3.771231e-05
5.7688274e-05
6.3785597e-05
5.8141968e-05
5.1999492e-05
6.0102955e-05
7.5200722e-05
0.00010935828
0.0001193867
0.00012235816
0.00014876689
0.00023395206
0.00025695178
1.0626532e-05
6.5685291e-06
1.7236894e-05
3.0143698e-05
3.495999e-05
3.5746605e-05
3.3673717e-05
2.8015874e-05
2.4238539e-05
2.0612533e-05
1.7529317e-05
1.6327012e-05
1.8339318e-05
2.5353546e-05
4.3687973e-05
6.6802235e-05
7.4459863e-05
6.9551032e-05
6.067483e-05
6.9569041e-05
8.7121229e-05
0.0001256477
0.00014012653
0.00014274329
0.00017853195
0.0002779101
0.00032755821
1.0690898e-05
6.2000148e-06
1.4249525e-05
2.7934527e-05
3.4336312e-05
3.6551912e-05
3.6156462e-05
3.2698191e-05
2.8770955e-05
2.567174e-05
2.1660933e-05
1.9699057e-05
2.1760452e-05
3.0048403e-05
5.2107021e-05
8.406939e-05
9.407752e-05
8.7967441e-05
7.4755958e-05
8.3201883e-05
0.0001061942
0.00015320239
0.00017075615
0.00017029416
0.00020782933
0.00031062561
0.00039720722
1.2115969e-05
5.9159515e-06
1.1655868e-05
2.5897537e-05
3.4243052e-05
3.8289022e-05
3.9405511e-05
3.8600244e-05
3.506856e-05
3.111319e-05
2.5737904e-05
2.2373559e-05
2.4618103e-05
3.4062541e-05
5.9117881e-05
0.00010018477
0.00011409703
0.00010797818
9.2901078e-05
0.00010172538
0.00013121251
0.00020011552
0.00023047838
0.00022092414
0.00025680842
0.00034279491
0.00048452073
1.4946272e-05
5.8645876e-06
1.0811031e-05
2.5215282e-05
3.5882831e-05
4.1778942e-05
4.3903684e-05
4.3811383e-05
4.1286052e-05
3.6055927e-05
2.9512944e-05
2.6415655e-05
2.9001294e-05
3.9565268e-05
6.7252929e-05
0.00011932946
0.00014115075
0.00013911539
0.00012359036
0.00013381981
0.00017244269
0.00026791197
0.00031962435
0.00030908171
0.00034523976
0.00040930771
0.00059007893
1.6333829e-05
6.2936986e-06
1.155793e-05
2.6092646e-05
3.8645747e-05
4.5007087e-05
4.6970729e-05
4.7037191e-05
4.5280372e-05
4.0743433e-05
3.3145368e-05
2.983937e-05
3.2586415e-05
4.3986147e-05
7.2976167e-05
0.0001315104
0.00016446278