/*--------------------------------*- C++ -*----------------------------------*\
| =========                 |                                                 |
| \\      /  F ield         | OpenFOAM: The Open Source CFD Toolbox           |
|  \\    /   O peration     | Version:  2406                                  |
|   \\  /    A nd           | Website:  www.openfoam.com                      |
|    \\/     M anipulation  |                                                 |
\*---------------------------------------------------------------------------*/
FoamFile
{
    version     2.0;
    format      ascii;
    arch        "LSB;label=32;scalar=64";
    class       surfaceScalarField;
    location    "33";
    object      phi_0;
}
// * * * * * * * * * * * * * * * * * * * * * * * * * * * * * * * * * * * * * //

dimensions      [1 0 -1 0 0 0 0];

oriented        oriented;

internalField   nonuniform List<scalar> 
123996
(
0.0017712888
1.1608782e-05
-2.0110411e-05
0.0017573099
0.00012818337
-0.00015106064
0.0017292075
0.00013203954
-0.00014227767
0.0017435698
0.00010898828
-0.00011771482
0.0018074438
0.00010039319
-9.3413534e-05
0.0018348141
0.00011687076
-0.00010812833
0.0018130336
0.00012103879
-0.00011070188
0.0017692141
0.00010740616
-8.6463015e-05
0.001704117
6.3801169e-05
-4.7715731e-05
0.0016660077
6.8758693e-06
8.0104463e-06
0.0016829816
-3.1163567e-05
5.0573618e-05
0.001721744
-2.7255844e-05
3.762923e-05
0.0017242884
8.4873716e-06
4.3537223e-06
0.001697285
1.6274629e-05
1.1690184e-05
0.0016472521
-1.8926885e-06
1.5065955e-05
0.0015786739
-2.5493794e-05
4.4858939e-05
0.0015215884
-6.3830343e-05
8.4617033e-05
0.0015026303
-9.1673399e-05
0.00013129622
0.0014867131
-0.0001387346
0.00015347137
0.0014665758
-0.00016191575
0.00015560972
0.0015028241
-0.00013767248
0.00017436999
0.0015327802
-9.69628e-05
9.2878755e-05
0.0015160419
-1.8461104e-05
1.846104e-05
0.0015374585
2.8261186e-05
3.3816571e-06
0.0015629203
6.6998524e-05
-6.4096418e-05
0.0015125044
9.257948e-05
-0.00012617675
0.0014906411
0.00011848629
-0.00012414026
0.0015189881
0.00016796546
-0.00014614282
0.0014372095
0.00017442659
-0.00018567838
0.0014821302
0.00018175573
-0.00019009374
0.0014678407
0.00023246141
-0.00025200622
0.0014834204
0.00021545461
-0.00022360685
0.0015823109
0.00023738125
-0.00025556375
0.0015316724
0.00026859253
-0.00028978697
0.0015797116
0.00026974794
-0.00026325303
0.0017107677
0.00031225113
-0.00032860472
0.0015899525
0.00028848724
-0.00037320256
0.0014778895
0.00023026309
-0.00029972654
0.0016090414
0.00028960841
-0.00028687748
0.0016817362
0.00035551173
-0.00037032045
0.0015573333
0.00027014185
-0.00036743511
0.0015104446
0.00021931037
-0.00029201234
0.0017214404
0.00037009588
-0.00031562982
0.0020654959
0.0005400875
-0.00046506945
0.0021949905
0.00053569481
-0.00061706999
0.0019943621
0.00042319062
-0.00062019599
0.0016463046
0.00034625534
-0.00052592944
0.0015136339
0.00035561425
-0.00040651958
0.00183613
0.00041166161
-0.00037351744
0.0022979162
0.00046665077
-0.00043919162
0.0024436031
0.00053403601
-0.00057189239
0.0023684579
0.00063262637
-0.00068535452
0.00226746
0.00074036716
-0.00074364183
0.0023989213
0.00076976952
-0.00073405113
0.00076518495
0.0027470741
-0.00070537697
0.0017074166
8.1520019e-06
0.0016836624
0.00011519927
0.0016528529
0.00012580479
0.001663631
0.00010554935
0.0017222693
0.00011169287
0.0017480009
0.00012560331
0.0017281798
0.00012230367
0.0016873204
0.00011839074
0.0016260925
7.8054282e-05
0.0015860804
2.0443263e-05
0.0016021144
-1.4090562e-05
0.0016399073
-7.4953379e-07
0.001643865
2.1466767e-05
0.0016206329
4.0379883e-05
0.0015766605
1.9152236e-05
0.0015133472
-9.1866703e-06
0.0014616022
-4.0291664e-05
0.0014375153
-7.0873662e-05
0.0014223119
-0.00010036259
0.0014088505
-0.00015474179
0.0014429016
-0.00010528582
0.0014784523
-6.295072e-05
0.0014606771
-2.80543e-05
0.001472678
2.6960162e-05
0.0014919895
7.4251126e-05
0.0014536503
9.1749579e-05
0.0014411687
0.00010350444
0.0014612514
0.00016873425
0.0013844891
0.00017301564
0.0014348562
0.00019014086
0.0013901754
0.00021443358
0.0014082168
0.0002003474
0.0015072594
0.00024104374
0.0014496769
0.0002458381
0.0014952672
0.0002453389
0.0015775737
0.0002952555
0.0014663497
0.00024709556
0.0014392808
0.00019337737
0.0015630443
0.0002731491
0.0015060825
0.00030344602
0.0014049006
0.00022659991
0.0015651587
0.00021317719
0.0018038377
0.00036403761
0.0018824371
0.00051713984
0.0018259779
0.00048155529
0.0017483853
0.00031805522
0.0016548007
0.0002253041
0.0016048436
0.000285978
0.0017136328
0.0004289969
0.002100842
0.00053758534
0.0024455912
0.00055026647
0.0025504195
0.00054176619
0.0024326907
0.00057681881
0.0022356516
0.00060608435
0.0006503165
0.0021712296
0.0016251418
4.4874687e-06
0.001600965
0.00010545407
0.0015708122
0.0001220441
0.0015823657
0.00010917903
0.0016395567
0.00011739917
0.0016658629
0.00012950802
0.0016490852
0.0001209566
0.0016090668
0.00011605439
0.0015492104
9.099473e-05
0.0015108982
3.4210225e-05
0.0015276412
2.5088246e-06
0.0015644623
2.0955528e-05
0.0015705637
3.86825e-05
0.0015467334
5.6120236e-05
0.0015040073
4.1446702e-05
0.0014440232
8.2444654e-06
0.0013918088
-1.9450396e-05
0.0013668139
-4.8313131e-05
0.0013471734
-8.5655897e-05
0.001347885
-0.00012360502
0.0013794616
-8.9870976e-05
0.0014130634
-3.7876049e-05
0.0014036358
-2.5884574e-05
0.0014131473
2.0922868e-05
0.0014305784
7.6144754e-05
0.0013966843
0.00010094045
0.0013964578
9.710524e-05
0.0014046611
0.00015550138
0.0013369935
0.00015300052
0.0013812376
0.00019462656
0.0013241702
0.00020075719
0.0013496978
0.00018078472
0.0014356965
0.00025007879
0.0013850415
0.000230153
0.0014406166
0.00020897831
0.001481096
0.00025642376
0.0013815578
0.00023647976
0.0014214511
0.00019670269
0.0015079765
0.00023689021
0.0013919072
0.00023484573
0.00131111
0.00018427665
0.0015772851
0.00023458602
0.0018348777
0.00035125406
0.0017602776
0.0004252718
0.0015430527
0.00039170742
0.0014993968
0.00029983232
0.0016293057
0.00021858105
0.0017559827
0.00024669784
0.0018055829
0.00036590683
0.0018980238
0.00052002748
0.002150217
0.00060177092
0.0023772509
0.00056309661
0.0024001275
0.00047880608
0.0022152462
0.00040395412
0.00038838194
0.0019615537
0.0015505752
2.0801565e-06
0.0015247939
0.00010040134
0.0014952998
0.00012091046
0.0015063412
0.00011168769
0.0015600927
0.00011465786
0.001585578
0.00012681799
0.0015712447
0.00012076955
0.001533176
0.00011440166
0.0014743772
9.3385133e-05
0.001437076
4.9167019e-05
0.0014545094
1.9659008e-05
0.001489307
2.8234958e-05
0.0014972337
5.2944363e-05
0.0014742791
6.0635807e-05
0.0014359965
5.0936063e-05
0.0013809589
2.9209701e-05
0.0013288802
-1.8378404e-06
0.0013020496
-2.4919676e-05
0.0012800806
-7.4845918e-05
0.0012886226
-8.5773739e-05
0.0013216065
-8.3811438e-05
0.0013469771
-3.411191e-05
0.0013459622
-4.233003e-06
0.001354329
2.7228988e-05
0.001369037
7.8498308e-05
0.0013294523
0.00010262736
0.0013412574
9.8758647e-05
0.0013355496
0.00015089978
0.0012862751
0.00012812381
0.0013149071
0.00018334193
0.0012495635
0.00018713801
0.0012974528
0.00016787818
0.0013500145
0.00023798817
0.0012989293
0.00022615862
0.0013737382
0.00018914752
0.0013966791
0.00021948032
0.001296372
0.0002118514
0.0013564333
0.00020720809
0.0014193877
0.00020833609
0.0012957745
0.00015331659
0.0012540868
0.00014392544
0.0015100057
0.00026265849
0.0017632125
0.00036473767
0.0016724695
0.00034048057
0.0014171978
0.0002754066
0.001312475
0.00025582533
0.0014990609
0.00026433178
0.0017605905
0.00027790639
0.0019294063
0.00033546627
0.0019453118
0.00042722396
0.0019425281
0.00054103721
0.0020179938
0.00056181878
0.0020621576
0.00047251613
0.0020040872
0.00032634161
0.00023124839
0.0018687684
0.0014820975
1.1861456e-06
0.0014547783
9.5126132e-05
0.0014253681
0.00011839763
0.0014352196
0.00010585176
0.0014860141
0.00010039696
0.0015105034
0.00011827474
0.0014973944
0.00011822674
0.0014612815
0.00011301996
0.001404964
9.1920613e-05
0.0013696649
5.7485571e-05
0.0013863543
3.3788426e-05
0.0014203108
3.1551726e-05
0.001428103
6.6310402e-05
0.0014071428
6.1766449e-05
0.0013721889
5.9672542e-05
0.0013199437
5.1457684e-05
0.0012705429
1.4689617e-05
0.0012393785
-8.9320189e-06
0.0012229182
-5.7582178e-05
0.0012284637
-6.0240044e-05
0.0012627075
-6.875229e-05
0.0012864027
-3.8496637e-05
0.0012898159
1.4932478e-05
0.0013016606
3.897613e-05
0.0013143782
8.6741884e-05
0.00127116
9.0440781e-05
0.0012948999
0.00010093104
0.0012742834
0.0001513442
0.0012500524
0.00012031427
0.0012651329
0.00016848597
0.0011924935
0.0001739134
0.0012616133
0.00016407333
0.0012881118
0.00021825532
0.0012241745
0.00020324568
0.0013144146
0.00018954128
0.0013369726
0.00020329492
0.0012504313
0.00017152764
0.0012815744
0.00019469295
0.001309709
0.00019290599
0.0012381562
0.00010476795
0.0012584469
0.00011153283
0.0014445603
0.00027145511
0.0016062448
0.00038118146
0.0015581283
0.00029542962
0.001391248
0.0001866659
0.0012718524
0.0001772779
0.0013669959
0.00026263286
0.0016402685
0.0003296427
0.0018862724
0.00035956928
0.0020089905
0.00038286642
0.0019287238
0.00041237289
0.0017919674
0.00042695333
0.0016979349
0.00040472992
0.0016586815
0.00030769886
0.00023087719
0.0016994052
0.0014173112
1.641017e-06
0.0013885628
8.7195611e-05
0.0013593248
0.00010969147
0.0013675171
9.2397723e-05
0.0014154988
8.4293901e-05
0.0014387277
0.00011132634
0.0014267772
0.00011875438
0.0013921712
0.00010868118
0.0013381817
9.4406593e-05
0.0013033324
6.2119692e-05
0.0013186058
3.8095357e-05
0.0013540764
3.888249e-05
0.0013604266
7.1115928e-05
0.0013414791
6.6944568e-05
0.0013089943
7.4152725e-05
0.0012577105
6.2637431e-05
0.001211416
3.6445588e-05
0.0011766447
1.8193357e-06
0.0011649277
-3.1698543e-05
0.0011656541
-5.0037868e-05
0.0011998564
-4.8312013e-05
0.0012301235
-2.9669713e-05
0.0012298855
2.6211196e-05
0.0012450491
4.541246e-05
0.0012517412
9.356124e-05
0.0012116224
7.5734713e-05
0.001244561
0.00010000692
0.0012076288
0.00014517897
0.0012029113
0.00012132294
0.0012080965
0.00016224765
0.0011289622
0.00016046364
0.0012053498
0.00016941591
0.0012156615
0.000202339
0.0011523426
0.0001665259
0.0012396329
0.00019212988
0.0012559021
0.0002010271
0.0012055972
0.0001335088
0.0012108962
0.00015078334
0.0011865256
0.00017764126
0.0011618108
0.00010873345
0.0012745401
0.00010591973
0.0014194088
0.00024276449
0.0014349951
0.00034927116
0.0013897997
0.00028256638
0.001329883
0.00014603739
0.0013024079
0.00011738086
0.001324343
0.00020083445
0.0014862983
0.00033529026
0.0017162447
0.00040414001
0.0018796019
0.00038862323
0.001856866
0.00033732885
0.0016871633
0.00028448012
0.0014814124
0.00025145197
0.0013941661
0.00023740908
0.00025145277
0.0014828253
0.0013481284
1.4387738e-06
0.0013202922
7.7079701e-05
0.0012922175
9.4403044e-05
0.0012998471
7.5671848e-05
0.0013465616
7.2076863e-05
0.0013694043
0.0001030924
0.0013587903
0.00011050664
0.0013268118
0.00010163035
0.0012752329
9.0708393e-05
0.0012410392
6.3000069e-05
0.0012547632
3.9064096e-05
0.0012906069
4.830274e-05
0.0012964983
6.938744e-05
0.0012820499
7.6457864e-05
0.0012518382
8.1707967e-05
0.0012034151
6.2075951e-05
0.0011581808
5.0355637e-05
0.0011230737
1.4061294e-05
0.0011114895
-6.8088241e-06
0.0011120705
-4.7467357e-05
0.001144316
-3.0368906e-05
0.0011805195
-6.754439e-06
0.0011745179
2.5324262e-05
0.0011940415
4.6875128e-05
0.001192914
9.4676062e-05
0.001161592
6.8321335e-05
0.0011991351
9.9883325e-05
0.0011516701
0.00013223061
0.0011618717
0.00012595837
0.0011608668
0.00015517522
0.0010848795
0.00013830127
0.0011543793
0.00018035517
0.0011503343
0.00019378817
0.0011082481
0.00013183068
0.001179432
0.00018389276
0.001171708
0.00020321924
0.0011585836
0.00011503617
0.0011743013
0.00010552769
0.0011051674
0.00014280212
0.0010953163
0.00012126705
0.0012686307
0.00012662404
0.0014064716
0.00021484809
0.0013310541
0.000270024
0.0012194052
0.00024897497
0.0012233565
0.00015766896
0.0012899453
9.8990136e-05
0.0013676983
0.00014853363
0.0014387753
0.00027759845
0.0015478357
0.00040143111
0.001662734
0.000413424
0.0016795185
0.00032462656
0.0015758378
0.00020612499
0.0014264914
0.00014506575
0.0013299391
0.0001485175
0.00023239884
0.001382256
0.001288226
9.0918123e-07
0.0012597817
6.3738542e-05
0.0012319597
7.7083847e-05
0.0012386498
5.9363703e-05
0.0012832841
6.2990249e-05
0.0013049414
9.2969592e-05
0.0012953886
0.00010307111
0.0012657462
9.8445939e-05
0.0012159527
8.4342671e-05
0.0011815061
6.1184703e-05
0.0011940373
3.7413676e-05
0.0012288315
5.4237897e-05
0.0012349121
6.8566809e-05
0.0012228607
8.5686676e-05
0.0011937409
8.0550759e-05
0.0011492435
6.2207586e-05
0.0011045214
5.4028932e-05
0.0010712191
2.7713751e-05
0.0010546833
8.8444634e-06
0.0010586398
-4.2566581e-05
0.0010896082
-2.0095238e-05
0.0011265204
1.7934908e-05
0.0011185655
2.4024492e-05
0.0011412682
4.7837483e-05
0.0011315767
9.362376e-05
0.001109969
6.8899178e-05
0.0011471387
0.00010673759
0.001097029
0.00011568442
0.0011118977
0.00012356225
0.0011055457
0.00014819776
0.0010453721
0.00011872204
0.0010946426
0.00018428234
0.0010736641
0.00019396543
0.0010639402
0.00011575248
0.0011231928
0.00016389145
0.0010773667
0.00019195141
0.0010857929
0.00011819779
0.0011315918
8.0659178e-05
0.0010520838
9.7541363e-05
0.0010290113
0.00010622728
0.0012133707
0.00015124759
0.0013485999
0.00020040143
0.0012705238
0.00020248343
0.0011148909
0.00017859181
0.001103097
0.00016261495
0.0012170433
0.00012164161
0.0013760627
0.00014552267
0.0014712268
0.00022600678
0.0014812928
0.00033260039
0.0014696801
0.00039194531
0.0014378798
0.00032636553
0.001399302
0.00020380296
0.0013589592
0.00010750559
0.0013718515
0.00010769552
0.00018489432
0.0014244635
0.0012323826
7.898604e-08
0.0012035729
5.1161674e-05
0.0011759656
6.2194862e-05
0.001181868
4.7823302e-05
0.0012239865
5.6011105e-05
0.0012443087
8.0627859e-05
0.0012355149
9.0283238e-05
0.0012076787
9.1108707e-05
0.0011601463
8.0356584e-05
0.0011262074
5.77503e-05
0.0011387092
3.3602182e-05
0.0011716529
5.6599754e-05
0.001178939
7.1696194e-05
0.0011672439
9.070363e-05
0.0011393682
7.6876929e-05
0.0010985462
6.6868455e-05
0.0010553293
5.4712714e-05
0.001024614
4.1183331e-05
0.0010026382
1.3283029e-05
0.0010100411
-3.1479451e-05
0.0010418595
-1.5094611e-05
0.0010749471
2.9635349e-05
0.0010694446
2.5858564e-05
0.0010942629
5.2749158e-05
0.0010767406
9.0723126e-05
0.0010643815
7.1318625e-05
0.001095851
0.00011303597
0.0010513346
0.00010122458
0.0010667714
0.00012037244
0.0010545644
0.00014056107
0.0010179937
9.9714646e-05
0.0010488478
0.00017559537
0.0010043921
0.0001919136
0.0010243539
0.00011598906
0.0010794383
0.0001467392
0.0010045968
0.00016425305
0.0010129974
0.00011767119
0.0010853536
8.0945306e-05
0.0010187873
6.7126922e-05
0.00098525026
6.6273533e-05
0.001133524
0.00014967198
0.0012608471
0.00019938093
0.001217115
0.00016599947
0.0010882432
0.00011904599
0.0010170022
0.00012585499
0.0011285763
0.00015245821
0.0013158178
0.00017603525
0.0014653316
0.00021838335
0.0014786326
0.00026437884
0.0013674034
0.00029548982
0.0012577587
0.00028225863
0.0012105861
0.00020813073
0.0012521368
0.00013566568
0.0013653968
0.00011143267
0.0001573646
0.0014913922
0.001176278
-1.09991e-06
0.0011479066
4.0927007e-05
0.001121194
5.2725803e-05
0.0011266866
4.1029993e-05
0.0011665866
5.0698889e-05
0.0011861624
6.9453834e-05
0.0011784264
7.9256117e-05
0.001152423
8.4071754e-05
0.0011070238
7.408481e-05
0.0010733437
5.2825581e-05
0.001085626
3.1763808e-05
0.0011168726
5.5282307e-05
0.0011254792
7.1731204e-05
0.0011133337
8.547993e-05
0.0010876141
7.7943044e-05
0.0010486712
7.112164e-05
0.0010068808
5.708565e-05
0.00097600474
5.2100384e-05
0.00095226095
1.3476569e-05
0.00096202716
-1.6368601e-05
0.00099425546
-8.1427261e-06
0.0010223275
3.0882371e-05
0.0010216696
3.0055387e-05
0.0010472784
6.1644208e-05
0.0010248392
8.4528683e-05
0.0010197578
6.8532985e-05
0.0010428527
0.00011262168
0.0010077979
9.1710233e-05
0.0010201465
0.00011592918
0.00099783726
0.00012975907
0.00098612783
9.0851774e-05
0.0010040765
0.00015964007
0.00093690985
0.00017779717
0.00097626177
0.00012563845
0.0010302024
0.00013973027
0.00094499047
0.00012570531
0.00094147452
0.00010365306
0.0010210489
0.0001003644
0.00097416841
5.0677695e-05
0.00095813446
2.2132374e-05
0.001060422
0.00011747447
0.0011590391
0.00020066592
0.0011430246
0.00015970614
0.0010663873
8.922366e-05
0.00099174667
7.5229055e-05
0.0010497486
0.00014865241
0.0012218904
0.00020996726
0.0013835333
0.00023887215
0.0014259509
0.00023399126
0.0013122179
0.00020489353
0.0011561016
0.00018475062
0.0010778993
0.00016888153
0.0011293039
0.00014995465
0.0012851695
0.00014937433
0.00016801756
0.0014628421
0.0011212913
-2.5726023e-06
0.0010936602
3.2896294e-05
0.0010679899
4.7174855e-05
0.0010731671
3.8544103e-05
0.0011109053
4.2762357e-05
0.0011300396
5.7415064e-05
0.001123406
6.8559646e-05
0.0010990116
7.7868052e-05
0.0010558201
7.0249522e-05
0.0010226392
5.0949885e-05
0.0010344737
3.2128697e-05
0.0010639103
4.8797538e-05
0.0010734776
7.0187582e-05
0.0010623857
7.5252541e-05
0.001039431
7.9760341e-05
0.0010027983
7.309265e-05
0.00096363006
5.8405684e-05
0.00093047936
5.7714793e-05
0.00090693501
1.4754898e-05
0.00091664285
-9.887306e-07
0.00094900309
5.5611628e-07
0.00097364352
2.3539144e-05
0.00097765393
3.8391847e-05
0.0010020292
6.8473328e-05
0.00097716052
7.6584448e-05
0.00097819057
6.5714827e-05
0.00099248697
0.00010765987
0.00096759971
8.4595196e-05
0.00097647813
0.00010771682
0.00094533311
0.00011626276
0.00095413265
9.3134934e-05
0.00096445828
0.00014311441
0.00088363885
0.00015115194
0.00092850988
0.00013223455
0.00097857614
0.00014374602
0.00090170154
9.4962048e-05
0.00089015685
7.9850681e-05
0.00095054835
0.00011880911
0.00091529405
4.7369388e-05
0.00093170151
-3.260196e-06
0.0010189955
6.7023917e-05
0.0010719412
0.00018579203
0.0010594647
0.00017446018
0.0010169018
8.5721064e-05
0.00098971021
5.0076242e-05
0.0010117492
0.0001053687
0.0011308606
0.00021214171
0.0012660027
0.00026130723
0.0013210172
0.00022987371
0.001253425
0.00015807901
0.0011205065
0.00010331905
0.0010161754
9.0682606e-05
0.0010448396
0.00012778719
0.0011748773
0.00016919193
0.00020909775
0.0013502581
0.0010712923
-3.4350839e-06
0.00104401
2.8441248e-05
0.0010190398
4.401301e-05
0.0010234246
3.6301826e-05
0.0010588629
3.3563196e-05
0.0010773761
4.7509805e-05
0.0010714642
5.8717473e-05
0.0010483509
6.8970781e-05
0.0010072816
6.5164734e-05
0.00097484438
4.6344234e-05
0.00098592813
3.3545836e-05
0.0010138739
4.422232e-05
0.0010232214
6.82595e-05
0.0010139913
6.6484846e-05
0.00099292094
8.0300345e-05
0.0009585237
7.3204591e-05
0.00092199452
6.18009e-05
0.00088707559
5.7098142e-05
0.00086478458
1.8975485e-05
0.00087267037
1.0712335e-05
0.00090246437
6.3382637e-06
0.00092692086
1.8677904e-05
0.00093379022
4.3637747e-05
0.00095606405
7.3243272e-05
0.00093172273
6.7184657e-05
0.00093719205
6.316194e-05
0.0009437974
9.7293795e-05
0.00092737599
7.9541734e-05
0.00093356485
0.00010134255
0.00089823505
0.0001046756
0.00091678155
0.00010160828
0.00092249332
0.00013025482
0.00083958386
0.00012028674
0.00087885433
0.00013483626
0.00091845168
0.00014964304
0.00086028729
7.292228e-05
0.00085612464
5.7056845e-05
0.00087998034
0.00012428594
0.00084567745
5.60559e-05
0.00088873311
-1.3070548e-05
0.00099659785
2.8943232e-05
0.001013761
0.00014697619
0.00097507825
0.00018474597
0.00094959034
0.00010801331
0.00095863457
4.519072e-05
0.0010030851
6.5857959e-05
0.0010745019
0.00017251456
0.0011501067
0.00025833172
0.0011896555
0.00023910032
0.0011569267
0.0001479264
0.0010735133
5.9788215e-05
0.001005039
3.1464991e-05
0.0010101428
7.9980473e-05
0.0010992948
0.00016076262
0.00022750418
0.0012283503
0.0010262083
-2.951526e-06
0.00099874466
2.7258721e-05
0.00097407759
4.2840669e-05
0.00097738586
3.2191257e-05
0.0010104479
2.600616e-05
0.0010280879
4.0428691e-05
0.001022624
5.3198562e-05
0.0010005549
6.3163345e-05
0.00096141305
6.1942733e-05
0.00093000891
4.1924331e-05
0.00094009577
3.5984389e-05
0.00096690192
3.9421549e-05
0.00097561099
6.3186873e-05
0.00096829838
6.5558536e-05
0.00094810062
7.4070951e-05
0.00091606797
6.9931956e-05
0.00088232787
6.6553839e-05
0.00084682102
5.1392805e-05
0.00082610292
2.6668547e-05
0.00083090478
1.8768425e-05
0.00085808915
1.1633561e-05
0.0008830465
1.8755305e-05
0.00089110558
4.4315659e-05
0.00091020675
7.3600449e-05
0.00088808801
5.9207769e-05
0.00089560352
6.3879022e-05
0.00089663608
8.7502439e-05
0.00088704161
7.8201125e-05
0.00089123905
9.2771144e-05
0.00085741282
8.6630822e-05
0.00087789093
0.00010874233
0.00088194228
0.00012393201
0.00080802675
9.2018533e-05
0.0008352839
0.00013207577
0.00085733048
0.00015236669
0.00081862117
6.0911887e-05
0.00083566116
4.1798065e-05
0.00082400619
0.00010983916
0.00078014636
6.5181241e-05
0.00083601934
-1.32183e-05
0.00097064231
1.5661847e-05
0.00098471033
0.00010399524
0.00091259854
0.00016557529
0.00088151129
0.00013171048
0.00090403189
5.7162641e-05
0.00098552241
5.4046232e-05
0.0010545332
0.00011944094
0.001074143
0.00021932077
0.0010695484
0.00023413247
0.0010398852
0.00015882899
0.00099817802
5.096972e-05
0.00098727836
1.0647971e-05
0.0010182467
4.0038615e-05
0.0010713884
0.00012686042
0.00021212136
0.0011445669
0.00098234269
-1.3126617e-06
0.0009552694
2.7220198e-05
0.00093107607
4.1538758e-05
0.00093355514
2.8279591e-05
0.00096463633
2.1101069e-05
0.00098155303
3.630836e-05
0.00097659841
4.6594347e-05
0.00095568604
5.7624333e-05
0.00091823687
5.6837643e-05
0.00088799143
4.0902461e-05
0.00089679232
3.7371034e-05
0.0009227526
3.6577672e-05
0.00093099816
5.8493678e-05
0.00092492083
6.7202133e-05
0.00090548367
6.9689919e-05
0.00087549975
6.5033329e-05
0.0008430361
6.7131238e-05
0.0008087924
4.5103512e-05
0.0007887605
3.3823786e-05
0.00079108125
2.1777862e-05
0.00081602318
1.6470818e-05
0.00084174916
2.3131281e-05
0.00085079728
4.2467949e-05
0.00086593295
7.1518954e-05
0.00084713142
5.2285042e-05
0.00085469226
6.3869318e-05
0.0008528171
7.8104174e-05
0.00084678625
7.7012955e-05
0.000848362
8.4375191e-05
0.00082097051
6.8629054e-05
0.00083752847
0.00011074591
0.00083913024
0.00011937987
0.00078209872
7.1543655e-05
0.00079572956
0.00012575787
0.00079568591
0.00015050855
0.00077226511
6.2671144e-05
0.00081054823
3.7333356e-05
0.00077674923
8.3073562e-05
0.00071699252
5.8984669e-05
0.00077955195
-5.4991771e-06
0.00092892699
2.0703664e-05
0.00095975021
7.9464916e-05
0.00087256539
0.00012539541
0.00081486354
0.00012778573
0.00084433899
7.9907672e-05
0.00093873929
5.6541826e-05
0.0010374337
9.3436711e-05
0.0010306912
0.00015846304
0.0009843619
0.00020136892
0.00092719865
0.00015553803
0.00091088636
7.1390319e-05
0.00094159053
1.3720582e-05
0.0010166658
2.8939544e-05
0.00107415
8.7290754e-05
0.00016842603
0.0011094894
0.00094015368
1.0802576e-06
0.00091332741
2.7769316e-05
0.00088958851
3.9852089e-05
0.00089137273
2.3738851e-05
0.00092066242
1.6537617e-05
0.00093678392
3.1491827e-05
0.0009324916
4.1378319e-05
0.00091290128
5.3715952e-05
0.00087734269
5.2743521e-05
0.00084821217
3.9323754e-05
0.00085561778
3.6964081e-05
0.00088062071
3.5820075e-05
0.00088855566
5.3047016e-05
0.00088321218
6.6536259e-05
0.00086497919
6.4860467e-05
0.0008372014
6.1648382e-05
0.00080501997
6.5260084e-05
0.0007725976
4.0464196e-05
0.00075205054
3.9889549e-05
0.00075252543
1.9419559e-05
0.00077640559
1.7126757e-05
0.00080272817
2.9893708e-05
0.00081262846
3.7605877e-05
0.00082374128
6.8086684e-05
0.00080919533
4.7297164e-05
0.00081515704
6.5795844e-05
0.00081197099
7.0814425e-05
0.00080721179
7.4609092e-05
0.00080587398
7.6946063e-05
0.0007881633
5.4303854e-05
0.00079821146
0.0001067536
0.00079524454
0.00010929581
0.00075978176
5.8852163e-05
0.00076377908
0.00011852713
0.00074319425
0.0001410146
0.00072873223
6.9335497e-05
0.00078075713
4.331384e-05
0.00074107892
5.6072795e-05
0.00066624434
3.4892241e-05
0.00072725505
1.2893201e-06
0.00087884168
4.0495374e-05
0.00092983814
7.5120239e-05
0.00085212518
8.2471526e-05
0.00076927853
9.688791e-05
0.00078319562
8.9990188e-05
0.00087867488
7.0473956e-05
0.00099544218
8.9013599e-05
0.0010058845
0.0001149114
0.00092925185
0.00014354987
0.00084984791
0.00013109115
0.00082827909
8.4677377e-05
0.00088246258
3.966421e-05
0.00098065482
3.7507206e-05
0.0010651537
7.0449802e-05
0.000121755
0.0010934373
0.00089809899
3.7636904e-06
0.00087219512
2.8756035e-05
0.00084924633
3.67015e-05
0.00085067624
2.0053373e-05
0.00087840046
1.4193152e-05
0.00089380971
2.8379094e-05
0.00089030438
3.6880487e-05
0.00087213628
4.8120257e-05
0.00083852844
4.7790831e-05
0.00081043139
3.8350754e-05
0.00081647528
3.52408e-05
0.00084042326
3.563592e-05
0.0008482047
4.8336192e-05
0.00084328796
6.1655687e-05
0.00082647294
5.8263909e-05
0.00080066113
5.9779647e-05
0.0007686593
6.3218171e-05
0.00073852042
4.0603413e-05
0.00071631366
4.6035373e-05
0.0007159654
1.5587081e-05
0.00073912823
1.577721e-05
0.00076425302
3.5549374e-05
0.00077547002
3.4570772e-05
0.00078342994
6.2873129e-05
0.0007739138
4.3646355e-05
0.00077752996
6.5947246e-05
0.00077436669
6.4804001e-05
0.00076928025
7.197849e-05
0.00076465093
6.9214054e-05
0.00075696085
4.440416e-05
0.00075944956
9.5678125e-05
0.00075053698
9.7067727e-05
0.00073485636
5.2205719e-05
0.00073322237
0.00010864194
0.00069843311
0.0001255222
0.00068757055
7.6492429e-05
0.00074416102
6.0107047e-05
0.00070780153
3.4827618e-05
0.00062745168
-2.4629533e-06
0.00068265534
1.5057205e-06
0.00082300678
6.3851637e-05
0.00088581146
8.7258765e-05
0.00083173939
5.7853695e-05
0.00074218437
4.9257478e-05
0.00072717632
7.4874113e-05
0.00081447972
8.3556559e-05
0.00093137659
9.444896e-05
0.00096960641
9.9428806e-05
0.00089389319
9.2613541e-05
0.0008017943
8.8654787e-05
0.00076287161
7.7578628e-05
0.00081536407
6.1143141e-05
0.0009168316
5.863214e-05
0.001020562
7.3157244e-05
9.7136771e-05
0.0010644988
0.00085915359
7.0743638e-06
0.00083353337
3.0838953e-05
0.00081113911
3.2509732e-05
0.00081211927
1.9854229e-05
0.0008382087
1.3317142e-05
0.00085288352
2.7444439e-05
0.00085006196
3.5645831e-05
0.00083316692
4.3079783e-05
0.00080147984
4.3324156e-05
0.00077435059
3.8732139e-05
0.00077914348
3.3445563e-05
0.00080189055
3.5194332e-05
0.00080974687
4.4662144e-05
0.00080521986
5.6188924e-05
0.00079004716
5.3716181e-05
0.00076603111
5.6854817e-05
0.00073449205
5.8476387e-05
0.00070670732
4.2873235e-05
0.00068266639
4.8283678e-05
0.00068195641
1.2395156e-05
0.00070420904
1.3858077e-05
0.00072707077
3.8349039e-05
0.00074020924
3.3091542e-05
0.00074585101
5.5892194e-05
0.00074067455
4.3093987e-05
0.00074184139
6.3287019e-05
0.00073958056
5.9431286e-05
0.00073381066
6.9277741e-05
0.00072599019
6.3811177e-05
0.00072663123
3.9550113e-05
0.00072354236
7.8893206e-05
0.00070981212
8.2482803e-05
0.00071004575
5.3242962e-05
0.00070466447
9.7186117e-05
0.00066296231
0.00010712572
0.00065335622
8.0409543e-05
0.00070312369
7.814107e-05
0.00067456798
2.2289201e-05
0.00060083495
-3.9496562e-05
0.00064651383
-7.8150052e-06
0.00076800852
8.4207914e-05
0.00083173479
0.0001056606
0.00080138423
4.8388048e-05
0.00072932323
9.5486272e-06
0.00068892978
3.3364733e-05
0.00075572957
8.1518989e-05
0.00086362011
0.00010744278
0.00091709227
0.00010086268
0.00086651773
6.6263245e-05
0.00077975158
4.4504741e-05
0.00072356883
5.1779961e-05
0.00075576654
6.3295886e-05
0.00084725791
7.8890224e-05
0.00095452021
8.871008e-05
9.1681733e-05
0.0010175956
0.00082100301
1.0383214e-05
0.00079621677
3.2208946e-05
0.00077469631
2.7697697e-05
0.00077539001
2.0096972e-05
0.00080006702
1.4034944e-05
0.0008140851
2.8734031e-05
0.00081182276
3.5134649e-05
0.00079615728
3.8538513e-05
0.00076634595
3.9008527e-05
0.00073997033
3.8544914e-05
0.00074357415
3.180415e-05
0.00076497063
3.4550472e-05
0.00077282569
3.998962e-05
0.00076873623
4.907434e-05
0.00075504389
5.1618862e-05
0.00073245975
5.3025684e-05
0.00070192859
5.1619823e-05
0.00067621725
4.4165144e-05
0.00065057715
4.7701611e-05
0.0006499634
1.1768494e-05
0.00067075961
1.329719e-05
0.00069105792
3.5835214e-05
0.00070541972
3.2556211e-05
0.00070949941
4.781487e-05
0.00070747639
4.1794432e-05
0.00070662276
5.8972976e-05
0.00070613733
5.3940502e-05
0.00069961819
6.4796573e-05
0.00068920845
5.6757889e-05
0.00069524317
3.9697695e-05
0.00068843946
6.253901e-05
0.00067144833
6.4596813e-05
0.00068190869
5.6015686e-05
0.00067465926
8.3756844e-05
0.00063097882
8.7301613e-05
0.00062151549
8.2060792e-05
0.00065771935
9.0597433e-05
0.00063582969
1.9147536e-05
0.00057870987
-6.9227487e-05
0.0006192243
-2.0243821e-05
0.00071630889
9.502493e-05
0.00077081546
0.00012561668
0.00075685427
5.2385609e-05
0.00071024737
-1.0727088e-05
0.00066585097
-1.5530329e-05
0.00070476041
5.9347603e-05
0.00079379636
0.00011564121
0.00084979332
0.00011254632
0.00082565112
5.8369973e-05
0.00076259496
1.7991269e-05
0.00070194074
1.4888977e-05
0.00071148002
4.6174699e-05
0.00078412734
8.3288558e-05
0.00087814375
0.00010795577
0.00010315723
0.00094830156
0.00078646373
1.4096806e-05
0.00076168677
3.4652683e-05
0.00074071497
2.5378993e-05
0.00074085521
2.0272097e-05
0.00076404959
1.6470933e-05
0.00077733947
2.8539755e-05
0.00077547389
3.4767879e-05
0.00076085206
3.4502633e-05
0.000732758
3.3861995e-05
0.00070721527
3.8227757e-05
0.00071013264
3.0407924e-05
0.00073033893
3.3278842e-05
0.00073808271
3.5681356e-05
0.00073427524
4.271004e-05
0.00072159719
4.9153368e-05
0.00070033408
5.0496526e-05
0.00067146905
4.5152499e-05
0.00064762164
4.6397929e-05
0.00062096245
4.4988853e-05
0.00062018954
1.1529722e-05
0.00063968253
1.4525006e-05
0.00065783916
3.0839421e-05
0.00067278885
3.2083825e-05
0.00067625097
3.9384202e-05
0.00067666201
4.0257007e-05
0.00067421713
5.3522483e-05
0.00067518834
4.7716271e-05
0.00066793954
5.9899387e-05
0.00065664397
4.9718275e-05
0.00066565987
4.3911262e-05
0.00065719038
4.9612186e-05
0.00063954043
4.5840954e-05
0.00065412183
6.0251788e-05
0.00064657425
7.0385918e-05
0.00060543077
6.8247433e-05
0.00059490238
8.2967821e-05
0.00061546837
9.6124608e-05
0.00059611824
2.1117498e-05
0.00056186353
-8.6436883e-05
0.00060461394
-3.8789142e-05
0.00067734527
9.2107817e-05
0.00071440987
0.00014347049
0.00070759433
6.4615038e-05
0.00067968994
-1.7339978e-05
0.00065599917
-5.4685853e-05
0.00067393957
1.6972669e-05
0.00073830361