/*--------------------------------*- C++ -*----------------------------------*\
| =========                 |                                                 |
| \\      /  F ield         | OpenFOAM: The Open Source CFD Toolbox           |
|  \\    /   O peration     | Version:  2406                                  |
|   \\  /    A nd           | Website:  www.openfoam.com                      |
|    \\/     M anipulation  |                                                 |
\*---------------------------------------------------------------------------*/
FoamFile
{
    version     2.0;
    format      ascii;
    arch        "LSB;label=32;scalar=64";
    class       volScalarField;
    location    "33";
    object      rho;
}
// * * * * * * * * * * * * * * * * * * * * * * * * * * * * * * * * * * * * * //

dimensions      [1 -3 0 0 0 0 0];

internalField   nonuniform List<scalar> 
62344
(
1.0021274
1.0030087
1.0022512
1.0024498
0.99936545
0.99529621
0.99344643
0.99337222
0.9950103
0.9972225
0.9975226
0.99591413
0.99512314
0.9960897
0.99832214
1.0013354
1.0041598
1.0054877
1.0056318
1.0071835
1.006533
1.0052502
1.0060518
1.0078284
1.0064038
1.0090662
1.0130058
1.0116069
1.0151441
1.0174257
1.0157015
1.019153
1.01458
1.0154209
1.0177532
1.0116071
1.0152237
1.0242707
1.0222993
1.0180147
1.0238008
1.0312621
1.0267071
1.0132497
1.0063148
1.0157875
1.034735
1.0475308
1.0397553
1.0208454
1.0135136
1.0200083
1.0286735
1.0277733
1.0141552
1.002161
1.0031037
1.002313
1.0024331
0.99935342
0.99525184
0.99336126
0.99334385
0.99482738
0.99703252
0.9971335
0.99542734
0.99461303
0.99571251
0.99766435
1.000593
1.0035698
1.0054116
1.0056997
1.0070614
1.0064268
1.0048067
1.0052693
1.0070149
1.0066005
1.007838
1.0118067
1.0107665
1.0146694
1.0159055
1.0154569
1.0195577
1.0144709
1.0151336
1.0176087
1.013036
1.0163973
1.0222665
1.0188071
1.0198608
1.0278633
1.026094
1.0170096
1.0131817
1.0161143
1.021569
1.0292921
1.037074
1.0375516
1.0236463
1.0062815
1.0026781
1.0128383
1.0296677
1.0395259
1.0021865
1.0031492
1.0023429
1.0023901
0.99928521
0.99517074
0.99322229
0.99323556
0.99464766
0.99701362
0.99696992
0.99528537
0.99425853
0.99538335
0.99735575
1.0003517
1.0035273
1.0055212
1.0063597
1.0074265
1.0062488
1.0053043
1.0050542
1.0065165
1.0064548
1.0074539
1.0109237
1.0100316
1.014812
1.0151691
1.0157377
1.0194322
1.0147466
1.0154408
1.0169694
1.0141015
1.0181091
1.0201238
1.0162864
1.0211001
1.0299246
1.0233267
1.0092768
1.0113506
1.0243433
1.0309766
1.0264327
1.0230388
1.02445
1.0252774
1.0150359
1.0025437
1.0024952
1.0169436
1.0391377
1.0022129
1.0032052
1.0023739
1.0024095
0.99923343
0.99515499
0.99309156
0.99302196
0.9945696
0.99691732
0.99697369
0.99526278
0.99429645
0.99522734
0.9971433
1.0001203
1.003395
1.0054348
1.0067346
1.0073812
1.0059001
1.0053209
1.0048284
1.006001
1.0056769
1.0075732
1.010521
1.0095457
1.0146449
1.01456
1.0166269
1.0187339
1.0148187
1.016826
1.0165913
1.0135503
1.0189382
1.019905
1.0157805
1.0216413
1.0294052
1.0219505
1.007038
1.008475
1.0244096
1.0364184
1.0309273
1.0175095
1.0099362
1.0126857
1.0181171
1.0159628
1.0134452
1.0169933
1.0283456
1.0022235
1.0032486
1.0024413
1.00248
0.9992505
0.99526526
0.99310997
0.99283605
0.99459918
0.99691445
0.9970921
0.99529583
0.9942368
0.99513519
0.99703596
0.9998804
1.0033029
1.0053196
1.0067513
1.006986
1.005635
1.0046996
1.0043432
1.0053747
1.004702
1.0075746
1.0099157
1.0092899
1.0138651
1.0134478
1.0173
1.0181799
1.0143045
1.0184186
1.0169584
1.0128279
1.0181593
1.0201033
1.0179355
1.0217361
1.025382
1.0194006
1.009702
1.0095677
1.0207082
1.0323393
1.0339073
1.0207501
1.0062609
1.0003936
1.0078416
1.0216898
1.0305035
1.0328801
1.0303349
1.0022295
1.0033132
1.0025547
1.0026094
0.99935243
0.99532711
0.99316685
0.99279668
0.99463511
0.99700947
0.99730665
0.99527424
0.99410709
0.99501811
0.99681154
0.9996513
1.0028932
1.0051526
1.0064513
1.0065193
1.0054762
1.0034607
1.0034293
1.004597
1.0039464
1.007346
1.0086041
1.0091021
1.0129984
1.0120216
1.0173265
1.0177269
1.0137888
1.0189205
1.0174957
1.0134674
1.0172216
1.0193916
1.0205736
1.0231736
1.0203503
1.0140533
1.0130474
1.015397
1.0197153
1.0244614
1.028842
1.0240527
1.0106305
1.0003179
1.0012093
1.0153146
1.0340599
1.0437001
1.0399444
1.0022295
1.0033742
1.0026801
1.002739
0.99950098
0.99538608
0.9932803
0.99290702
0.9947172
0.99711814
0.99741982
0.99519629
0.99393356
0.99475284
0.99653889
0.99947039
1.002436
1.0049888
1.0061275
1.0063057
1.0053907
1.002608
1.0028602
1.0038373
1.0034814
1.0071434
1.0071568
1.0087009
1.012172
1.0109031
1.0167442
1.017176
1.0141728
1.0186289
1.0171272
1.0153448
1.0174183
1.0176068
1.0213501
1.0252027
1.0179793
1.0091003
1.0127852
1.0219211
1.0229338
1.020528
1.0189825
1.0191011
1.0151034
1.0078724
1.0047914
1.0124992
1.0258968
1.0372895
1.0391663
1.0022565
1.0034953
1.0028374
1.002884
0.99960152
0.99547683
0.99339774
0.99300277
0.99479093
0.99721014
0.99741779
0.99516946
0.99372455
0.99439235
0.99626729
0.99918698
1.0021145
1.0048197
1.0060439
1.0064024
1.0052717
1.0025198
1.0026638
1.0031729
1.003218
1.0069799
1.0060356
1.0082898
1.0113611
1.0103547
1.0157147
1.0162005
1.015421
1.0184037
1.0159103
1.0172668
1.0189652
1.0160427
1.0200161
1.0260402
1.0186882
1.0077077
1.0103156
1.0233191
1.0276286
1.0220292
1.0130821
1.0087233
1.0118501
1.0145232
1.0157847
1.0177899
1.0214207
1.023909
1.0257672
1.0022972
1.0036563
1.0030082
1.0030131
0.99968166
0.99556188
0.99352832
0.99310989
0.99474278
0.99724955
0.99740275
0.99514334
0.99358404
0.99412086
0.9960574
0.99882508
1.0019115
1.0047495
1.0062848
1.0068387
1.0051725
1.0029235
1.0028696
1.0027323
1.003113
1.0067996
1.0054688
1.0080998
1.0105431
1.0103324
1.0148587
1.0148383
1.0169111
1.0185981
1.0146999
1.0181836
1.0213221
1.0157898
1.0180901
1.0248254
1.0201833
1.0094368
1.009517
1.0195167
1.0290552
1.025346
1.0128722
1.0026556
1.0029621
1.0141283
1.0242955
1.0281122
1.0248757
1.0177138
1.0120329
1.002342
1.0038041
1.0031662
1.003139
0.999791
0.99569892
0.9936844
0.99325984
0.99474342
0.99735308
0.99748299
0.99518932
0.99365713
0.99414288
0.99590626
0.99857812
1.001799
1.0047154
1.0067291
1.0073281
1.0052547
1.0035003
1.0032545
1.0025854
1.0031986
1.0066127
1.0053188
1.0080129
1.0098543
1.0106387
1.0142661
1.0133701
1.0180633
1.0192405
1.0140698
1.0182727
1.0231938
1.0169817
1.0173186
1.0225148
1.0201495
1.0122358
1.0108766
1.0160578
1.0253958
1.0264699
1.0156969
1.0030384
0.99865647
1.0085775
1.0245793
1.0343103
1.0323253
1.0208449
1.0082213
1.0023866
1.003929
1.0033085
1.0032669
0.99993824
0.99584644
0.99379863
0.99334397
0.9947627
0.99743891
0.99763241
0.99534714
0.99391416
0.99442059
0.99589333
0.99850656
1.0018056
1.0046576
1.007103
1.0076242
1.005556
1.003809
1.0034943
1.002612
1.0034116
1.0061698
1.0052223
1.0079112
1.0091935
1.0110351
1.0138079
1.0120775
1.0184595
1.019826
1.0141507
1.01811
1.0233529
1.0186424
1.0183041
1.0206918
1.0176498
1.0139048
1.0132477
1.0154465
1.0201177
1.0232304
1.0176672
1.0070172
1.0007133
1.0055524
1.0189387
1.0323671
1.0348381
1.0262543
1.0121573
1.0024356
1.0040285
1.0034469
1.0034208
1.000093
0.9960477
0.99394614
0.99346203
0.99486445
0.99756949
0.99785838
0.99553959
0.99420581
0.99468939
0.99598164
0.99855154
1.0018318
1.004678
1.0073508
1.0076642
1.0060699
1.0037278
1.0035811
1.0025639
1.0034934
1.0055667
1.0051248
1.0076406
1.008386
1.0110641
1.0133138
1.0111754
1.0180736
1.0198844
1.0148245
1.018024
1.0218601
1.0198729
1.0205596
1.0205974
1.0140974
1.0129008
1.0154205
1.0170571
1.0176625
1.0174813
1.015935
1.0109112
1.0063994
1.0072782
1.0153711
1.0246661
1.0296124
1.026045
1.0166804
1.0024826
1.0041243
1.0035757
1.0035979
1.0002735
0.99625477
0.99406817
0.99351755
0.99494525
0.99771969
0.99807112
0.99571181
0.99442276
0.99475861
0.99606487
0.9985681
1.001776
1.0046871
1.0074281
1.0075407
1.0064709
1.0035012
1.0032823
1.002345
1.0034677
1.0048136
1.0049398
1.0071856
1.0076723
1.0108388
1.0125989
1.0105688
1.0171117
1.019259
1.0158891
1.018461
1.0195751
1.0200044
1.0231773
1.0220097
1.011857
1.009453
1.0158263
1.0197963
1.0183612
1.0137355
1.0109144
1.0115169
1.0122113
1.013062
1.0161747
1.018542
1.0199237
1.0199354
1.0166354
1.0025223
1.0041935
1.0037021
1.003787
1.0004816
0.99647102
0.99420665
0.99357835
0.99508071
0.99782586
0.99827925
0.99589307
0.99451396
0.9946922
0.9960722
0.99851637
1.0016444
1.0045838
1.0073635
1.0074141
1.006548
1.0032116
1.0026254
1.0018096
1.0031876
1.00407
1.004706
1.0066373
1.007104
1.0102948
1.0117494
1.0104029
1.0158944
1.0180389
1.0169911
1.0192358
1.0175271
1.0189202
1.0254569
1.0238933
1.0117869
1.0057012
1.0137812
1.0218656
1.0208369
1.0137753
1.0064451
1.0082264
1.0148686
1.0199655
1.0206004
1.0174794
1.0128626
1.011305
1.0121076
1.0025531
1.0042631
1.0038197
1.0039915
1.0006969
0.99669557
0.99432315
0.99366257
0.99522021
0.9979384
0.99847348
0.9960482
0.99448654
0.99458162
0.99598847
0.99837494
1.0014931
1.0044475
1.0071985
1.0073787
1.0063814
1.0030082
1.0020571
1.0012067
1.0027784
1.0033495
1.0043637
1.0060702
1.0067357
1.0095507
1.0108461
1.0106749
1.0146016
1.0164845
1.0179011
1.0202372
1.0164692
1.0173112
1.0266294
1.0257755
1.0130003
1.0038592
1.0102639
1.0216305
1.0238153
1.0162275
1.0056392
1.0039621
1.013753
1.0236011
1.0259989
1.0204731
1.0116834
1.0052897
1.0057371
1.0025751
1.0043241
1.0039545
1.0041839
1.0009073
0.99688222
0.99447918
0.99379976
0.99539542
0.99803003
0.9986153
0.99620213
0.99449824
0.99452288
0.99597185
0.99828191
1.0013559
1.004342
1.0069272
1.0074753
1.0061058
1.0030175
1.0017251
1.0006995
1.0023538
1.002824
1.0040487
1.0055632
1.0066533
1.008822
1.0098531
1.0110741
1.01349
1.0148757
1.0183529
1.0211713
1.0163145
1.016178
1.026462
1.0270421
1.0146508
1.0041942
1.0071027
1.0191152
1.0252725
1.0196818
1.0075985
1.0022611
1.0100617
1.022959
1.0289358
1.0250976
1.0144899
1.0043405
1.000921
1.0025919
1.0043971
1.0040963
1.0043301
1.00108
0.99703726
0.99463097
0.99393827
0.99555101
0.9981222
0.99878769
0.99637127
0.99452858
0.99450315
0.99590503
0.99820837
1.0012302
1.0042445
1.0067324
1.0077353
1.0058855
1.0031989
1.0016746
1.0004772
1.0019617
1.0025114
1.0038471
1.0050799
1.0067002
1.0082148
1.0089416
1.0113981
1.0126056
1.013491
1.018219
1.0218119
1.0170583
1.0160679
1.0252469
1.0272185
1.0161399
1.0061195
1.0060517
1.0151877
1.0245172
1.0223507
1.0108133
1.0032605
1.0070575
1.0188955
1.0284693
1.0280826
1.0189386
1.0067992
0.99985221
1.0026108
1.0044749
1.0042144
1.0044417
1.0012162
0.99716958
0.99479112
0.994077
0.99569283
0.99823844
0.99892878
0.99652861
0.99464934
0.99454775
0.99587208
0.99815672
1.0011261
1.0041712
1.00662
1.008057
1.0057757
1.0035038
1.0018392
1.0004977
1.0016785
1.002298
1.0036639
1.0046629
1.006788
1.0077143
1.0081647
1.0114973
1.0119898
1.0124294
1.0176817
1.0218573
1.0182172
1.0170014
1.0241924
1.0257654
1.0172342
1.008413
1.0070652
1.0120208
1.0212767
1.0228606
1.0139087
1.005798
1.006275
1.0142463
1.0247385
1.027862
1.0220494
1.0108049
1.0019391
1.0026285
1.0045527
1.0043043
1.0045248
1.0013363
0.99730375
0.99494289
0.99419972
0.99579562
0.99832621
0.99902473
0.99667265
0.99477933
0.99457736
0.99587125
0.99806686
1.0009983
1.004079
1.0065547
1.0083619
1.0057951
1.0037837
1.0020674
1.0007048
1.0014813
1.0022189
1.0035401
1.0043038
1.0068139
1.0073717
1.0076562
1.011321
1.0115411
1.0116658
1.0168489
1.0213057
1.0193152
1.0186834
1.0233216
1.0235117
1.0171566
1.01081
1.0090983
1.0111143
1.0171695
1.0204036
1.0157525
1.0088913
1.0071845
1.0114932
1.0195767
1.0245041
1.0220621
1.0143092
1.0060041
1.0026506
1.004627
1.0043739
1.0045991
1.0014467
0.99742565
0.99509513
0.99430671
0.9958254
0.99837009
0.99911166
0.99681756
0.99488628
0.99460118
0.99583585
0.99796549
1.0008764
1.0039572
1.006534
1.0085428
1.00592
1.004031
1.0022733
1.0009815
1.0013961
1.0022116
1.0034057
1.0040851
1.0067453
1.0072384
1.0074581
1.0108656
1.0112154
1.0112068
1.0159061
1.0203334
1.0200519
1.0207699
1.0230245
1.0210593
1.0158128
1.0132038
1.0112753
1.0123313
1.0142398
1.015773
1.0155971
1.0115943
1.0093353
1.0112958
1.0155379
1.0189063
1.0192366
1.0152761
1.0101381
1.0026698
1.004697
1.0044303
1.0046699
1.0015383
0.99752993
0.99523596
0.99440093
0.99580983
0.99838107
0.99920514
0.99695181
0.99498374
0.99462074
0.99580453
0.99788068
1.0007806
1.0038276
1.0065785
1.008647
1.0061706
1.0043139
1.0024258
1.0012974
1.0014345
1.0022819
1.003297
1.0040371
1.0066284
1.0071759
1.0075595
1.0102618
1.0109466
1.0111774
1.0150043
1.019229
1.0205156
1.0227654
1.0234882
1.0189597
1.0140803
1.0143878
1.0139571
1.0147761
1.0131692
1.0112466
1.0124902
1.0133588
1.0121548
1.0129811
1.013813
1.0142076
1.0143204
1.0143081
1.0124841
1.0026918
1.0047384
1.0044767
1.0047294
1.0016065
0.99761836
0.99534908
0.99448003
0.99576511
0.99835419
0.9992999
0.99710089
0.99509469
0.99468171
0.99580576
0.99784866
1.0007213
1.0037008
1.0066828
1.0087627
1.0065573
1.0046618
1.0025843
1.0017001
1.0016067
1.0024671
1.0032511
1.0041665
1.0064768
1.007154
1.0079675
1.0097269
1.010762
1.0114934
1.0141519
1.0181557
1.0210176
1.0244951
1.0246079
1.0175408
1.0122917
1.0140928
1.0167639
1.017715
1.0143359
1.0082843
1.0082927
1.0131486
1.014854
1.0157764
1.0143452
1.0113623
1.0099918
1.0116487
1.01303
1.0027039
1.0047678
1.0045281
1.0047913
1.0016765
0.99770557
0.99545286
0.99456774
0.99572653
0.99834202
0.99942374
0.99728593
0.99523021
0.9948397
0.99586862
0.99790232
1.0007722
1.003667
1.006896
1.0088649
1.0070557
1.0050936
1.0027736
1.0021259
1.00191
1.0027981
1.0033075
1.0043978
1.0064206
1.0071617
1.0085806
1.0093222
1.0106454
1.0122032
1.0135764
1.0170333
1.0214926
1.0258915
1.0261442
1.0172692
1.010677
1.0129312
1.0189269
1.020987
1.0169221
1.0073539
1.0044892
1.010674
1.0166867
1.0189996
1.0168894
1.0109394
1.0072642
1.0085124
1.0118932
1.0027283
1.0048104
1.0046068
1.0048929
1.0017964
0.99783934
0.99560102
0.99471157
0.99574755
0.99841356
0.99964292
0.99756873
0.9954711
0.9951264
0.9960713
0.99809782
1.0009551
1.0037605
1.0072247
1.0090847
1.0076648
1.0056221
1.0030187
1.0025127
1.0022567
1.0032024
1.0034642
1.0047132
1.006467
1.0071967
1.0092806
1.0090485
1.0103748
1.0129166
1.0133385
1.0159334
1.0217571
1.0271288
1.0275314
1.0181222
1.0097021
1.0111171
1.0201072
1.0244218
1.0199474
1.0084865
1.0018882
1.0070732
1.0166137
1.0219218
1.0202645
1.0127237
1.0061602
1.005802
1.0098657
1.0027812
1.0049
1.0047737
1.0051124
1.0020465
0.9981136
0.99589503
0.99501567
0.9959339
0.99864021
1.0000009
0.99798347
0.99585612
0.9955657
0.99644096
0.99843035
1.0012644
1.0039474
1.0075709
1.0093082
1.0082239
1.0061368
1.003294
1.002867
1.0025772
1.0035789
1.0036954
1.0050519
1.0066292
1.0072465
1.0100063
1.0090251
1.0101363
1.0135704
1.0132299
1.0150104
1.0214229
1.0280739
1.0286965
1.0195096
1.008908
1.009523
1.0196719
1.0272224
1.0231965
1.0108279
1.0007751
1.0036225
1.0144199
1.0236783
1.0241524
1.0159108
1.0070246
1.0037216
1.0075129
1.0030156
1.0051263
1.0051395
1.005548
1.0024683
0.99847378
0.99623662
0.99537192
0.99621858
0.99895939
1.0004331
0.99845485
0.99625908
0.99597505
0.99681047
0.99876328
1.0016223
1.0041782
1.0080412
1.009577
1.0087332
1.0065767
1.0035645
1.0030266
1.0026801
1.0037481
1.0037683
1.0051833
1.0067761
1.0070991
1.0104754
1.0091368
1.0098165
1.0139732
1.0136423
1.0143456
1.0208042
1.0287702
1.0299105
1.0217404
1.0092051
1.0074013
1.0178252
1.0284428
1.026579
1.0140084
1.0013429
0.99971685
1.0107962
1.0227828
1.0267103
1.0200928
1.0093813
1.0029184
1.0046934
1.0035431
1.0055624
1.0057696
1.0061874
1.0030057
0.9988341
0.99646766
0.99556536
0.99634206
0.99907556
1.0006524
0.99875775
0.99650015
0.99616255
0.99692402
0.99878886
1.0015952
1.0040671
1.0079482
1.0096288
1.009005
1.0069887
1.003804
1.0030922
1.0025839
1.0036064
1.0035528
1.0048583
1.006498
1.0066208
1.0102314
1.0091329
1.0093771
1.0136375
1.0134667
1.0137066
1.0193936
1.0277007
1.0302131
1.0237178
1.0116552
1.0067892
1.0156436
1.0261947
1.0277023
1.0173982
1.0047735
0.99981044
1.0072021
1.0189043
1.0250917
1.0219269
1.0130625
1.0050968
1.0041033
1.0104633
1.0134035
1.0165761
1.017476
1.0169099
1.0148977
1.0114713
1.0069594
1.0027154
1.0013596
1.0029039
1.0065592
1.0107164
1.0129197
1.0111082
1.0052408
0.99959315
1.0001162
1.0087537
1.0209369
1.027787
1.0254556
1.0256096
1.0418782
1.0583653
1.0431457
1.006056
1.0228318
1.0254253
1.0251324
1.0228579
1.0198613
1.0161729
1.0127469
1.0115805
1.0129395
1.015828
1.0197358
1.0223378
1.0219629
1.0176281
1.0105117
1.004167
1.0023569
1.0059927
1.0110591
1.0117262
1.0067285
1.0043117
1.0154163
1.0404235
1.0554111
1.0393883
1.0219211
1.0249766
1.0238721
1.0213109
1.0181435
1.015395
1.0144033
1.0162272
1.020056
1.0251752
1.0306731
1.0335897
1.0331993
1.028819
1.0218555
1.0168616
1.0172753
1.0216136
1.0243269
1.0204093
1.0095557
0.99863982
0.99945115
1.0125094
1.0249818
1.0262049
1.021867
1.043079
1.0114917
1.0092843
1.0075268
1.0074268
1.0093876
1.0132225
1.0180883
1.0234605
1.0284859
1.0307871
1.0299167
1.0259121
1.021435
1.020068
1.0242191
1.0325372
1.0403881
1.0405647
1.0305789
1.0163846
1.0104085
1.0158826
1.0207552
1.0133836
0.99794697
1.0087681
1.0495113
1.0004048
0.99966527
1.0021092
1.0057409
1.0095892
1.0129785
1.0158771
1.0171654
1.0169844
1.0148016
1.0112029
1.0084861
1.0090607
1.0148441
1.0242546
1.033868
1.039712
1.0380423
1.0299688
1.0262985
1.0327369
1.0421539
1.0371348
1.0146373
0.9965411
1.0155333
1.0437519
1.0060755
1.0088786
1.0129798
1.0152908
1.0162358
1.0156985
1.0131893
1.0097058
1.0054417
1.0013739
1.0000719
1.0017075
1.0066209
1.0122584
1.0169961
1.0200017
1.019379
1.0163056
1.0174076
1.0279728
1.0451655
1.0555622
1.0480865
1.0278624
1.0226548
1.0383994
1.0413886
1.0231741
1.0264211
1.0269824
1.0256823
1.0230336
1.0187338
1.0138923
1.0098778
1.0077791
1.0086416
1.0116787
1.0153765
1.0180038
1.0166624
1.0117293
1.0045951
0.99924555
1.0004755
1.0093446
1.0228726
1.0345132
1.0394245
1.0358762
1.0407179
1.0599914
1.0682288
1.0431439
1.0300813
1.0295316
1.0273977
1.0247636
1.0214359
1.0183907
1.0168527
1.0182562
1.0230468
1.0290841
1.0340171
1.0357816
1.033344
1.0255545
1.014761
1.0049939
1.0031516
1.0087581
1.0161449
1.0188472
1.0143809
1.0076895
1.0132216
1.0403532
1.0746725
1.0792268
1.0493318
1.0160416
1.0140333
1.0121831
1.0110699
1.0115645
1.0147414
1.0201502
1.0270941
1.0343939
1.0406778
1.043741
1.0420255
1.0355854
1.0270148
1.0203694
1.0212998
1.0289891
1.0359615
1.0367935
1.0248732
1.0045066
0.99413303
1.0075376
1.0331147
1.0569086
1.0553702
1.0473511
0.99905729
0.99757161
0.99979818
1.0037853
1.0090049
1.0142763
1.0191558
1.0233402
1.0270007
1.0285495
1.0277232
1.0245069
1.0207797
1.0200194
1.0258648
1.0376233
1.0503206
1.057938
1.0520857
1.0349511
1.0164109
1.0150017
1.0268876
1.036798
1.0298377
1.0174143
1.0257063
1.0016478
1.004841
1.0102247
1.0138457
1.0162708
1.0171645
1.0161787
1.013906
1.0100926
1.0059727
1.0023833
1.0018462
1.0050271
1.0138531
1.0260346
1.0371557
1.045808
1.0474419
1.0416891
1.0358286
1.0397733
1.0544769
1.0648017
1.0526215
1.0236361
1.0016876
0.99810002
1.0255112
1.0286753
1.0298544
1.0287448
1.0256716
1.0205068
1.0143985
1.0084255
1.0037096
1.0005186
1.0012648
1.0057288
1.012444
1.0182678
1.0201152
1.0198258
1.0167202
1.0136772
1.016302
1.0287193
1.053035
1.0781325
1.0883564
1.0702957
1.0379806
1.014212
0.9913948
1.0374496
1.0382056
1.0363359
1.0333353
1.0285026
1.0227626
1.017679
1.0144483
1.0142847
1.0184805
1.0260694
1.0340888
1.0367797
1.0319557
1.0208806
1.0064808
0.99489735
0.99342256
1.0049533
1.026262
1.0479012
1.0659215
1.069773
1.0615374
1.0528042
1.0387631
1.01331
1.0236596
1.0215566
1.0192588
1.0175921
1.01689
1.0181459
1.0219178
1.0290038
1.0385311
1.0479983
1.0552224
1.0575684
1.0522705
1.040884
1.0256853
1.0122381
1.0061434
1.0138644
1.0277471
1.0380753
1.0389931
1.0316241
1.0271388
1.0279036
1.0373983
1.0451161
1.0559409
1.0000285
0.99804971
0.99935334
1.0027581
1.00802
1.0155043
1.0247934
1.0350563
1.0443716
1.0519442
1.0548916
1.0525636
1.0460591
1.0370194
1.0290935
1.0298511
1.0416726
1.0593476
1.0703073
1.0616183
1.037168
1.0131847
1.0017816
1.0008316
1.0016429
1.0216052
1.0827105
0.99448755
0.99750075
1.0044777
1.0117488
1.018687
1.0241285
1.0271363
1.0270957
1.0248337
1.0214787
1.0189863
1.017758
1.0182771
1.0229407
1.0344857
1.0543556
1.0758552
1.0933582
1.0930933
1.0759516
1.050297
1.0257341
1.0082456
0.99337905
0.98382411
1.0097416
1.0757532
1.0275124
1.0321466
1.0359712
1.0367179
1.0344918
1.0288065
1.0206666
1.0116697
1.0040322
0.99773786
0.9937045
0.99501183
1.0027714
1.0178678
1.0382123
1.0585367
1.0769809
1.0851738
1.0820243
1.0714742
1.0593448
1.0467388
1.0320228
1.0132156
1.0054947
1.0289409
1.0663295
1.062294
1.0644313
1.0610512
1.0540027
1.0438153
1.0320231
1.0201086
1.0097668
1.0017031
0.99905514
1.0045577
1.0162531
1.0303265
1.0420389
1.0475099
1.0457888
1.0411255
1.0402033
1.0432094
1.0478466
1.0490674
1.0496813
1.0499284
1.0515426
1.0592059
1.0741607
1.0597355
1.0515971
1.0485009
1.0460675
1.043074
1.0386204
1.0334042
1.0282026
1.0259283
1.0288831
1.0381643
1.0514294
1.0674912
1.076211
1.0729057
1.0582848
1.0381282
1.0206631
1.0121915
1.0116392
1.013586
1.0175667
1.0246331
1.0444161
1.0828619
1.1163289
1.1204467
1.0599001
1.0105891
1.0083061
1.008243
1.0087206
1.0113407
1.0175877
1.0287947
1.0460168
1.0668445
1.0881382
1.10519
1.1121484
1.1058163
1.0882289
1.0659361
1.0457417
1.03152
1.0219393
1.0141366
1.001474
0.99198357
0.99517131
1.0282962
1.0869187
1.1322506
1.1245073
1.0633801
0.98425739
0.98408478
0.98853787
0.99596
1.0068073
1.0201681
1.0357599
1.052443
1.0703151
1.0852941
1.0958002
1.0999038
1.0983891
1.0917491
1.0808504
1.0672548
1.0559427
1.0460507
1.036543
1.0207218
1.0015148
0.99828411
1.0252653
1.0675011
1.094684
1.0787829
1.0521844
0.99795129
1.0057047
1.0166134
1.0283796
1.0384271
1.0459492
1.0491074
1.0480454
1.0440906
1.0406207
1.0412772
1.0467284
1.0549415
1.06289
1.0705168
1.0744446
1.0746147
1.0711175
1.064246
1.0529394
1.0436752
1.0424723
1.0514415
1.0523691
1.0345118
1.012991
1.0218854
1.0746622
1.0791085
1.0808388
1.0773194
1.068892
1.0563303
1.0424198
1.0295854
1.0206738
1.0167249
1.0159111
1.017696
1.0206156
1.0235958
1.0294601
1.0379772
1.0513263
1.067391
1.0837159
1.095242
1.1024154
1.1027896
1.0866141
1.0506671
1.0039142
0.96930347
0.98805864
1.1373024
1.1361272
1.1272713
1.1117444
1.0921829
1.0716197
1.0524636
1.0372229
1.0271871
1.021998
1.0217621
1.022607
1.0215923
1.0138561
1.0040288
1.0005638
1.0075368
1.0304169
1.0709156
1.1177426
1.1485741
1.1473973
1.1138519
1.0576734
1.004172
0.9707969
0.97596946
1.1182488
1.1147394
1.1144246
1.1116844
1.1062366
1.0985311
1.0889921
1.0783396
1.0688478
1.0616615
1.0552713
1.0477461
1.0381856
1.0256569
1.0118929
0.99889046
0.99688409
1.0138005
1.0506727
1.100251
1.1404751
1.1443045
1.1175916
1.0719744
1.0291685
1.0040531
0.99513246
1.0712319
1.0715741
1.073532
1.0763735
1.0818109
1.0888714
1.097029
1.1039063
1.1078458
1.108766
1.1040966
1.0935788
1.0768387
1.0562794
1.0387286
1.0280522
1.0278087
1.0394793
1.0593366
1.0765039
1.0841527
1.0865903
1.0826482
1.0782673
1.0659363
1.0534081
1.044493
1.0505561
1.0500969
1.051678
1.0544876
1.0567843
1.0597998
1.064754
1.0740283
1.0879914
1.1055049
1.121882
1.1307828
1.1283668
1.1149357
1.0965318
1.0818004
1.0785232
1.0831235
1.0816559
1.066381
1.038642
1.0192443
1.024718
1.0520406
1.0871333
1.1093432
1.1194841
1.0586861
1.0590631
1.0574658
1.0542112
1.0492629
1.0440726
1.0402027
1.0397634
1.0459251
1.0609689
1.0867418
1.1189432
1.1479296
1.1638342
1.1673827
1.159852
1.1441452
1.123472
1.0980205
1.0607815
1.0214724
0.98656933
0.98095106
1.009838
1.0746157
1.1485118
1.2006774
1.0748126
1.0730641
1.0690348
1.0628274
1.0535681
1.0432362
1.034737
1.0306842
1.033427
1.0436139
1.0634324
1.0939176
1.1315456
1.169687
1.1976382
1.2078091
1.1951908
1.1599558
1.1126058
1.0645969
1.0211874
0.98812159
0.97332415
0.99100837
1.0518347
1.1560235
1.2508816
1.0802036
1.0773826
1.0721032
1.0654647
1.0573978
1.049827
1.0433771
1.0404475
1.0448614
1.0579783
1.0792937
1.1046953
1.1294934
1.1556844
1.1807319
1.1949073
1.1951664
1.1761552
1.1361405
1.0883125
1.0429828
1.0105813
0.99243075
1.0016957
1.0513433
1.1439491
1.2464058
1.0703403
1.0685273
1.0661303
1.063653
1.0602378
1.0571538
1.056438
1.0604243
1.07044
1.0875252
1.1102899
1.1322778
1.1472398
1.1515837
1.1504097
1.1516647
1.1549639
1.1599148
1.1547856
1.12888
1.0889025
1.0521271
1.0326689
1.0340803
1.066551
1.1285259
1.1936507
1.0638735
1.0635616
1.0622604
1.0623673
1.0628572
1.0650724
1.0707847
1.0816033
1.0990259
1.1215493
1.1456773
1.1616665
1.1619255
1.1475527
1.1238101
1.1097499
1.1090465
1.1276242
1.1557667
1.1683979
1.1472473
1.1132378
1.0865021
1.0807382
1.0912339
1.1096128
1.1264843
1.0729094
1.0744589
1.0734069
1.0735268
1.0749747
1.0792851
1.0883349
1.1044228
1.1264303
1.1521279
1.1736274
1.1807097
1.1698368
1.1420447
1.1067215
1.0763317
1.0728328
1.0920148
1.133603
1.1809305
1.2026035
1.184017
1.1512376
1.1321503
1.1201042
1.098498
1.0765609
1.1041217
1.107186
1.1051967
1.1026995
1.1010523
1.1023965
1.1095841
1.1244055
1.1457124
1.1702539
1.1880984
1.1880904
1.1691144
1.1348899
1.0954624
1.0643658
1.0522881
1.064761
1.0991326
1.161344
1.2242852
1.2470669
1.2276309
1.1897037
1.1514166
1.0993622
1.0502758
1.1542443
1.1565776
1.1514886
1.1432245
1.1350759
1.1305033
1.1328643
1.1422213
1.1581325
1.1769295
1.1900439
1.1873684
1.1672245
1.1329916
1.0953593
1.0655772
1.0450677
1.0480709
1.0720797
1.1253618
1.207404
1.2831827
1.3023324
1.2595498
1.1872519
1.1100699
1.0465622
1.2080857
1.2077299
1.1977317
1.1826479
1.1675591
1.1562826
1.1523026
1.1551323
1.1656557
1.1795123
1.1890078
1.1848316
1.1677263
1.1391139
1.103691
1.0745371
1.0550663
1.0487362
1.0607401
1.1005831
1.1769903
1.2847495
1.3542301
1.3296039
1.2309898
1.1291747
1.0535642
1.253753
1.2491227
1.233179
1.2117435
1.1903204
1.1735482
1.1646419
1.1623115
1.1689954
1.1798178
1.1886712
1.1872145
1.1750044
1.1511346
1.1219269
1.0943061
1.0782832
1.0663626
1.0682861
1.0938949
1.1614586
1.2696649
1.3754636
1.3796371
1.2736779
1.1510769
1.0652246
1.2844156
1.275367
1.2544846
1.2281281
1.2019535
1.1804308
1.1668815
1.1602218
1.1648241
1.1771117
1.1916961
1.1963904
1.1905315
1.1724767
1.1472549
1.1218628
1.1049472
1.0943042
1.0910544
1.1114425
1.1639567
1.2664237
1.3743287
1.3995026
1.2983107
1.1717915
1.0811462
1.3020482
1.289137
1.2637623
1.23296
1.2025374
1.1772498
1.1607036
1.1521504
1.1564783
1.1709366
1.1905325
1.2041072
1.204956
1.1954611
1.1740553
1.1506898
1.1335159
1.12521
1.1246492
1.1410849
1.1915755
1.2701732
1.3675935
1.3907345
1.3024536
1.1836603
1.091915
1.3091586
1.2945724
1.267196
1.2335919
1.1999115
1.1711448
1.1517167
1.1416704
1.1455736
1.1605119
1.1832333
1.2033565
1.2112776
1.2058292
1.1903272
1.1742223
1.1599517
1.1579536
1.1638378
1.1827246
1.2163704
1.285522
1.3521707
1.3674887
1.2888134
1.1834287
1.0988269
1.3042982
1.2893083
1.2617935
1.2278624
1.1938093
1.1650709
1.1460912
1.1373757
1.1424102
1.1586378
1.181521
1.2001192
1.2072202
1.2059632
1.1964591
1.1876901
1.1834355
1.1906567
1.1984769
1.2141057
1.2415037
1.2826281
1.3334469
1.3374109
1.27359
1.1789152
1.1047806
1.2909848
1.2769923
1.2510828
1.2194918
1.1887214
1.1640816
1.148658
1.1434678
1.1504037
1.1674603
1.1878937
1.2023618
1.2082736
1.2090179
1.2043558
1.2006902
1.2025834
1.2109204
1.2169628
1.2255455
1.2458818
1.277554
1.3147664
1.3145162
1.2577213
1.1775222
1.1134434
1.2823762
1.2684499
1.2425357
1.2124669
1.1857274
1.1673668
1.1582681
1.1599786
1.1715165
1.1889276
1.2051758
1.2147508
1.2177175
1.2161379
1.2119561
1.2114107
1.2146232
1.2184371
1.2198236
1.2237388
1.2406629
1.2756287
1.3060618
1.303522
1.2522493
1.1794335
1.1260108
1.2788495
1.2648848
1.2381543
1.2095891
1.188527
1.1784718
1.1781378
1.1876885
1.203183
1.2195618
1.2313586
1.236166
1.2332027
1.2270409
1.2207242
1.2183221
1.2192631
1.2180049
1.2169418
1.2221283
1.2422351
1.2759541
1.3064721
1.3017899
1.2535688
1.190469
1.1452123
1.275434
1.2613085
1.2333963
1.2074692
1.194198
1.19333
1.2031704
1.2209636
1.2401278
1.2546368
1.2606352
1.2588811
1.2524006
1.2413186
1.2323096
1.2270756
1.2239622
1.2208631
1.2197036
1.2292696
1.2508864
1.282189
1.3089606
1.3008189
1.2607184
1.2083287
1.1669328
1.2680566
1.2538744
1.2255754
1.203479
1.1977518
1.2051081
1.2238804
1.2484565
1.2716557
1.2870287
1.291943
1.2878047
1.2779949
1.2652834
1.2535678
1.2430439
1.2345257
1.2294222
1.2314296
1.2432463
1.2647159
1.2892893
1.3025816
1.2915389
1.2644269
1.2267167
1.1883936
1.2652313
1.2501924
1.2203807
1.1994431
1.1969392
1.2083747
1.23121
1.260127
1.2881656
1.3093894
1.3195343
1.3190673
1.31045
1.2975899
1.2831387
1.2681735
1.2557039
1.2527251
1.2555484
1.2650561
1.2766629
1.2814564
1.2769773
1.2692236
1.2620878
1.2449872
1.2192738
1.2725503
1.2561922
1.2241313
1.200656
1.1953693
1.2051163
1.2260865
1.2556833
1.2875786
1.3163698
1.3367543
1.3459843
1.3440696
1.3324493
1.3166716
1.3024149
1.2936411
1.2927177
1.2933349
1.2912237
1.2792351
1.2583609
1.2378837
1.2323967
1.2437348
1.2573908
1.2652445
1.2919029
1.2728012
1.2377332
1.2102982
1.1998402
1.2049657
1.2216257
1.2478791
1.2790733
1.3097275
1.3357002
1.3529849
1.3601647
1.3592426
1.3561146
1.3542233
1.3528224
1.3483019
1.3324913
1.3039907
1.2667838
1.2310338
1.205092
1.1980266
1.2150062
1.2539232
1.308804
1.3187733
1.2969088
1.2584219
1.2268082
1.2108154
1.2094147
1.2196421
1.2393863
1.2647218
1.2919567
1.3184293
1.3424918
1.3659037
1.3879
1.4061905
1.4179334
1.4175669
1.3986231
1.3592722
1.3050064
1.2516204
1.2098356
1.1843586
1.1771067
1.1947885
1.2510118
1.3329611
1.3271495
1.3064292
1.2678638
1.2323504
1.2116847
1.2058087
1.2139755
1.2326524
1.2600462
1.295157
1.3323703
1.3691628
1.4026956
1.4265575
1.4401569
1.442717
1.4323421
1.4088945
1.3695609
1.3148911
1.2546734
1.2049701
1.1772682
1.1744382
1.2052225
1.2622612
1.3349487
1.3055097
1.2834508
1.2454654
1.2136378
1.1974872
1.2001377
1.2201836
1.2585213
1.3089005
1.3663345
1.418091
1.4486589
1.4544929
1.437237
1.412379
1.3903302
1.3780461
1.3728498
1.3583839
1.3231131
1.2746675
1.2284006
1.2038923
1.2095568
1.2405836
1.2820856
1.3165964
1.2926975
1.2687594
1.2359613
1.2125637
1.2091613
1.2283412
1.268348
1.3237108
1.3875371
1.445384
1.4798174
1.4797282
1.4507086
1.4002512
1.3512393
1.3167568
1.3015238
1.3003067
1.303681
1.3042833