/*--------------------------------*- C++ -*----------------------------------*\
| =========                 |                                                 |
| \\      /  F ield         | OpenFOAM: The Open Source CFD Toolbox           |
|  \\    /   O peration     | Version:  2406                                  |
|   \\  /    A nd           | Website:  www.openfoam.com                      |
|    \\/     M anipulation  |                                                 |
\*---------------------------------------------------------------------------*/
FoamFile
{
    version     2.0;
    format      ascii;
    arch        "LSB;label=32;scalar=64";
    class       volScalarField;
    location    "33";
    object      rho_0;
}
// * * * * * * * * * * * * * * * * * * * * * * * * * * * * * * * * * * * * * //

dimensions      [1 -3 0 0 0 0 0];

internalField   nonuniform List<scalar> 
62344
(
1.0021239
1.0029419
1.0021825
1.0024653
0.99950738
0.99536868
0.99341954
0.9933176
0.99489372
0.99716698
0.99761849
0.99604414
0.99516418
0.9960872
0.99820945
1.0011865
1.0040466
1.0055644
1.0056089
1.0071055
1.0068095
1.0053373
1.0059802
1.0080745
1.0064846
1.0086789
1.0129273
1.0118172
1.0146661
1.0176594
1.0154616
1.0192814
1.0150064
1.0149637
1.0182251
1.0121895
1.0136903
1.0231914
1.0233807
1.0182103
1.0219238
1.0306772
1.0293694
1.0167831
1.0060641
1.0115303
1.0295675
1.0464931
1.0442996
1.0260776
1.0142669
1.0183285
1.0277197
1.030578
1.0195785
1.002153
1.0030345
1.0022418
1.0024501
0.99950073
0.99532348
0.99331575
0.99326992
0.9947102
0.99696804
0.99722533
0.99560277
0.99465939
0.99571571
0.99759076
1.0004403
1.0034741
1.0054095
1.0057753
1.0070424
1.0067024
1.0050745
1.0051508
1.0070758
1.0067241
1.0076254
1.0117041
1.010845
1.0142624
1.0162428
1.0150355
1.0196772
1.0150582
1.014581
1.017849
1.0133863
1.0152301
1.0219585
1.0195649
1.018779
1.026873
1.0276959
1.0190476
1.0134171
1.0148326
1.019583
1.0271031
1.0361031
1.0396149
1.029379
1.0101618
1.0022224
1.0085356
1.0247038
1.0373462
1.0021753
1.0030813
1.0022742
1.0024236
0.9994252
0.99523743
0.9931766
0.99313014
0.99452284
0.9969522
0.99706571
0.99545559
0.99432313
0.99535652
0.997285
1.0002038
1.0034169
1.0055145
1.0063396
1.0075659
1.0064403
1.0055586
1.0050122
1.0065407
1.0065578
1.0073058
1.0109098
1.0099574
1.0143496
1.0154537
1.0152572
1.0195662
1.0153232
1.0149538
1.0171658
1.0140367
1.0173003
1.0205615
1.0165138
1.0193831
1.0291857
1.0262643
1.011218
1.0093211
1.0212414
1.0307083
1.0278993
1.023987
1.0242557
1.0267204
1.0192338
1.0052688
1.0005053
1.0105177
1.031196
1.0022001
1.0031404
1.0023075
1.0024411
0.99935233
0.99520739
0.99305111
0.99291671
0.99441208
0.9968557
0.99707662
0.99539045
0.9943659
0.99516221
0.99703914
0.99999691
1.0032687
1.0054197
1.0066926
1.0075885
1.0060602
1.005463
1.0049218
1.0060821
1.0057522
1.0073619
1.0106255
1.0094343
1.0142479
1.0146511
1.0161084
1.0190325
1.0150386
1.0164404
1.0170478
1.0133237
1.018001
1.0205806
1.0158503
1.0197263
1.029023
1.0249826
1.0093139
1.0061849
1.0203461
1.0353156
1.034058
1.021022
1.0113558
1.0114436
1.0175634
1.0169659
1.0135747
1.0142607
1.0234229
1.0022101
1.0031755
1.0023679
1.0024907
0.99934039
0.99530742
0.99306732
0.99272783
0.99443215
0.99683414
0.99718771
0.99541479
0.99430408
0.99506254
0.99693965
0.99976242
1.0031795
1.0052544
1.006762
1.0071278
1.0058558
1.0048024
1.0044547
1.0055081
1.0047861
1.0072651
1.0101024
1.0091228
1.0137035
1.013408
1.0167411
1.0186952
1.0142532
1.0178308
1.0177268
1.01273
1.0171098
1.020333
1.0179271
1.0205948
1.0255291
1.0215526
1.0113538
1.0081588
1.017697
1.0302397
1.0356315
1.0251477
1.0096739
1.0009229
1.0042634
1.0176179
1.0281486
1.0322971
1.0312053
1.0022151
1.0032269
1.0024631
1.0025985
0.99943545
0.99536998
0.99313194
0.99267571
0.99447577
0.99691398
0.99737455
0.99541829
0.99414191
0.99496713
0.99673885
0.9994851
1.0027915
1.0050499
1.0065225
1.0065696
1.0057544
1.0036518
1.0034783
1.0047302
1.0039932
1.0070333
1.0088124
1.0088014
1.013016
1.0119483
1.0167082
1.0183857
1.0136139
1.0182005
1.0183091
1.0134533
1.0164267
1.0190492
1.0201678
1.023085
1.0215984
1.0151915
1.0127377
1.014623
1.0184801
1.0233338
1.0286485
1.026772
1.014514
1.0023678
0.99899696
1.0098022
1.0283696
1.0418646
1.0427694
1.0022125
1.0032789
1.00257
1.002717
0.99959768
0.9954244
0.99322164
0.99278257
0.99453593
0.99700693
0.99747534
0.9953555
0.99394602
0.99473254
0.99644042
0.99926227
1.0022916
1.0048854
1.0061903
1.0063207
1.0056705
1.0029057
1.0028168
1.0039707
1.003457
1.0069301
1.0073884
1.0082765
1.012321
1.0107712
1.0160609
1.0178546
1.013957
1.0180511
1.0177064
1.0152231
1.017137
1.01726
1.0202746
1.0254848
1.0201966
1.010028
1.0107318
1.0203449
1.0232415
1.0212078
1.019287
1.0195011
1.0168796
1.0099303
1.0042287
1.0090467
1.0213848
1.0345133
1.0406788
1.0022357
1.0033854
1.002717
1.0028598
0.99970472
0.99550884
0.99334084
0.99289099
0.99459972
0.99708377
0.99746042
0.99532445
0.99374148
0.99437636
0.99613201
0.99899085
1.0019191
1.0047282
1.0060363
1.0064507
1.0055124
1.0028483
1.0026064
1.0033226
1.0031295
1.0068814
1.0063082
1.0078019
1.011494
1.0101866
1.0151251
1.0166618
1.0151804
1.0182499
1.0162253
1.0166979
1.0191507
1.0161529
1.0186081
1.0258968
1.0212413
1.0088368
1.0081656
1.0205967
1.0278312
1.024127
1.015338
1.0090765
1.0109316
1.0139595
1.0151633
1.0169114
1.0201148
1.0234874
1.0261845
1.0022731
1.0035434
1.0028895
1.0029986
0.99978707
0.99558193
0.9934531
0.99298408
0.99455507
0.99711145
0.99743909
0.99528612
0.99362171
0.99408421
0.99591539
0.99865318
1.0017022
1.0046663
1.0061891
1.006953
1.0053851
1.0031794
1.0028512
1.0029186
1.0029536
1.0067664
1.0057028
1.007656
1.0106587
1.010121
1.0144389
1.0150056
1.0164822
1.0188722
1.014964
1.0171229
1.0215511
1.016461
1.0168747
1.0241786
1.0221606
1.0108056
1.0082103
1.0168449
1.0279269
1.0278235
1.0162627
1.0046072
1.0014778
1.0104216
1.0216767
1.0276858
1.0265496
1.0201697
1.0139098
1.0023146
1.0036935
1.00306
1.0031366
0.9999005
0.99572417
0.99361889
0.99314036
0.99454732
0.99720672
0.99752919
0.99531574
0.99369086
0.99405775
0.99578802
0.99840093
1.0015934
1.0046109
1.0065997
1.0074894
1.0054797
1.0036851
1.0032856
1.0028078
1.0029736
1.006592
1.0054572
1.0076647
1.0099238
1.0103184
1.0141331
1.013309
1.0173176
1.0198245
1.0144155
1.0169015
1.0232085
1.0180251
1.0164339
1.0218878
1.0212301
1.0134639
1.0104208
1.0143455
1.0237099
1.0277533
1.0192178
1.0058768
0.99823269
1.0043775
1.0198722
1.0325541
1.0343539
1.0252291
1.0121935
1.0023575
1.0038218
1.0032114
1.0032766
1.0000396
0.99586684
0.99373168
0.9932221
0.99457005
0.99729659
0.99768712
0.99544833
0.9939474
0.99431768
0.99578267
0.99831952
1.0016004
1.004497
1.0069792
1.0077898
1.0058053
1.0039279
1.0035823
1.0028234
1.0031546
1.0061805
1.0052638
1.0076602
1.0091942
1.0106224
1.0139668
1.0119017
1.0174257
1.0204688
1.0145935
1.016853
1.0231313
1.0195362
1.0177284
1.020663
1.0182153
1.0144152
1.0132216
1.0146573
1.0192668
1.0231806
1.0200019
1.0097383
1.0011634
1.0028873
1.0144098
1.0290866
1.0356838
1.0301624
1.0172551
1.0024067
1.0039267
1.0033549
1.0034293
1.0001865
0.99607836
0.9938853
0.99333413
0.99467006
0.99741098
0.99791942
0.99564707
0.99423837
0.9946013
0.99586541
0.99835836
1.0016442
1.0044607
1.0072476
1.0078012
1.0063056
1.0038526
1.0036798
1.002755
1.0032202
1.0056083
1.0050682
1.0074751
1.0083598
1.0106186
1.0136402
1.010981
1.0169173
1.0204424
1.015208
1.0170433
1.0216374
1.020205
1.0201885
1.0212112
1.0149994
1.0125409
1.0149935
1.0170039
1.0177551
1.0175651
1.0166978
1.0122887
1.0071402
1.0059873
1.0125794
1.0219917
1.0291746
1.0284112
1.0204978
1.002455
1.0040288
1.0034861
1.0035968
1.0003699
0.99629496
0.99402163
0.99339742
0.99475342
0.99756144
0.99813398
0.99581478
0.99444029
0.994714
0.99591301
0.99836041
1.0016026
1.0044285
1.0073533
1.0076225
1.006715
1.0036688
1.0033592
1.0024914
1.0032222
1.0048863
1.004841
1.0071034
1.0075963
1.0103369
1.0129323
1.0104278
1.0160173
1.0196172
1.0160817
1.0178489
1.0196165
1.0195938
1.0227319
1.0230637
1.0135595
1.008826
1.014368
1.019805
1.0190569
1.0149789
1.0110842
1.011137
1.0119808
1.0125101
1.0150782
1.0178969
1.0197714
1.0206619
1.0182447
1.0024972
1.0040967
1.0036098
1.0037829
1.0005856
0.99652276
0.99415723
0.99345676
0.99488035
0.99767717
0.99833352
0.99601163
0.99453452
0.99466377
0.99593023
0.99830285
1.0014385
1.0043101
1.0072852
1.0074439
1.0067919
1.0034293
1.0026811
1.0019083
1.0029732
1.0041374
1.0045941
1.0065823
1.0070006
1.0098406
1.0119821
1.010273
1.0150278
1.0181643
1.0168954
1.0190177
1.0179402
1.0179375
1.0246134
1.025221
1.0142022
1.0054576
1.01156
1.0209919
1.0219628
1.0157395
1.0075843
1.0065651
1.0131621
1.0187645
1.0208936
1.0185249
1.0143793
1.0116255
1.0118565
1.0025292
1.0041648
1.0037209
1.0039841
1.000802
0.99674651
0.99427678
0.99354723
0.99502238
0.99778488
0.99851676
0.99617921
0.99449631
0.99454097
0.9958402
0.99816962
1.0012634
1.0041856
1.0071088
1.0073582
1.0065955
1.0032649
1.0020965
1.0012633
1.002612
1.003416
1.0042563
1.0060028
1.006605
1.0092107
1.0109294
1.0104651
1.0140368
1.0164362
1.0174643
1.0202356
1.0172374
1.0161025
1.0252792
1.0271482
1.0159024
1.0043085
1.0078935
1.0196923
1.0245686
1.0185847
1.0077873
1.0027151
1.0106064
1.0214073
1.0262351
1.0226937
1.0145847
1.0067862
1.0048962
1.0025513
1.0042251
1.0038485
1.0041795
1.0010207
0.99693849
0.99443938
0.99367861
0.99519637
0.99787632
0.99864073
0.99633796
0.99451443
0.99445837
0.99582228
0.99809222
1.001114
1.0041214
1.0068069
1.007441
1.0062993
1.0032745
1.0017955
1.000706
1.0022445
1.0028514
1.0039499
1.0054833
1.0064953
1.008631
1.0097315
1.0107953
1.0132215
1.0146694
1.0176397
1.021245
1.0173474
1.0150238
1.0246988
1.0282793
1.0175985
1.0052698
1.0053014
1.0165042
1.0249578
1.0221046
1.0101804
1.0022968
1.0066889
1.0198481
1.028158
1.0275649
1.0180305
1.007217
1.0009397
1.0025685
1.004299
1.0039853
1.0043381
1.0011984
0.99710208
0.99460744
0.99381954
0.99535351
0.99797084
0.99880994
0.99650654
0.99454604
0.99443187
0.99576744
0.99801228
1.0009569
1.004047
1.0065555
1.0077122
1.0060662
1.0034249
1.0017815
1.0004443
1.0019127
1.0024896
1.0037709
1.0049772
1.0065396
1.0081774
1.0086486
1.011039
1.0126333
1.0131772
1.017325
1.0218694
1.0180776
1.015154
1.0234571
1.0281936
1.0188037
1.0075265
1.0049778
1.0127354
1.0230579
1.0241796
1.0135886
1.0042368
1.0047307
1.0154163
1.0266305
1.0295655
1.0225834
1.0104027
1.0011156
1.0025873
1.0043722
1.0040991
1.0044508
1.0013403
0.9972435
0.99477378
0.99396208
0.9954981
0.99808346
0.99894825
0.99666209
0.99466641
0.99446865
0.99575238
0.99795771
1.0008327
1.0039755
1.0063963
1.0080645
1.0059559
1.0036772
1.0019782
1.0004346
1.0016484
1.0022269
1.0035999
1.0045187
1.0065835
1.007805
1.0077961
1.0110519
1.0121921
1.0120362
1.0166882
1.0218639
1.0189943
1.016374
1.0227127
1.0265594
1.0194334
1.0097631
1.0066998
1.0103069
1.0193261
1.0236935
1.0163443
1.0072723
1.0051322
1.0115121
1.0221704
1.0281131
1.024898
1.0144734
1.0041864
1.0026043
1.0044502
1.0041964
1.0045289
1.0014675
0.9973712
0.99492691
0.99408897
0.99559879
0.99816945
0.99903843
0.99679931
0.99480272
0.99450049
0.99575621
0.99787599
1.0007046
1.0038987
1.0062893
1.0083821
1.0059863
1.00392
1.0022241
1.0006398
1.0014671
1.0021187
1.0034895
1.0041237
1.0065953
1.0075477
1.0072905
1.0108416
1.0118398
1.0112474
1.0158562
1.0212456
1.019739
1.0182369
1.0224233
1.0241858
1.0186594
1.0118353
1.0091657
1.0101126
1.0156658
1.0200731
1.0175931
1.0101974
1.0070098
1.0097933
1.01731
1.0236302
1.0239088
1.0171044
1.0085717
1.0026255
1.0045207
1.0042763
1.0046036
1.0015853
0.99748865
0.99508159
0.99420063
0.99562912
0.99820291
0.99913008
0.99693934
0.99492326
0.9945369
0.99571209
0.99777556
1.0005897
1.0037763
1.0062143
1.0085856
1.0061192
1.0041449
1.0024316
1.00094
1.001393
1.0020821
1.003371
1.0038637
1.0065115
1.0074392
1.0071063
1.0103937
1.0114795
1.0108306
1.0149711
1.0201485
1.0201759
1.0203005
1.0227779
1.0218264
1.0168084
1.0136448
1.011496
1.0118621
1.0135933
1.0154026
1.0160598
1.0125763
1.0095141
1.0104436
1.0142635
1.018002
1.0198836
1.0170569
1.0117609
1.0026441
1.0045854
1.0043368
1.0046808
1.0016786
0.99758933
0.99521651
0.99429744
0.99562192
0.99821269
0.99922283
0.99707228
0.99502557
0.99457019
0.99569755
0.9976948
1.0005039
1.0036334
1.0062533
1.0086855
1.0063567
1.0044283
1.0025759
1.0012973
1.0014287
1.0021403
1.0032853
1.003802
1.0064086
1.0073404
1.0072506
1.0098733
1.0111062
1.010892
1.014187
1.0188616
1.0203494
1.0222274
1.0238159
1.02007
1.014547
1.0141501
1.01412
1.014649
1.0135387
1.0113211
1.011945
1.0134485
1.0122519
1.0127536
1.013562
1.014038
1.0144061
1.0146515
1.0129529
1.0026652
1.0046299
1.0043887
1.0047466
1.0017479
0.99767771
0.99532336
0.99438181
0.99558328
0.99818495
0.99931409
0.99721786
0.99513519
0.99464317
0.99569951
0.9976604
1.0004676
1.0034849
1.0063596
1.00878
1.0067319
1.0047951
1.0027205
1.0017254
1.001605
1.0023325
1.0032636
1.0039135
1.0062592
1.0072341
1.0077146
1.0094768
1.0107153
1.0112605
1.01356
1.0176405
1.0205441
1.023889
1.0252617
1.0191027
1.0125214
1.0133373
1.0165457
1.0176417
1.0155186
1.0091949
1.0075187
1.0120346
1.0145725
1.0158706
1.014967
1.0121161
1.0101439
1.0110407
1.0123445
1.0026766
1.0046622
1.0044428
1.0048108
1.0018153
0.99776717
0.99542835
0.99447676
0.99554831
0.9981609
0.9994334
0.99740449
0.99527349
0.99479827
0.99574918
0.99770092
1.0005359
1.0034217
1.0065904
1.0088692
1.0072174
1.005251
1.0029028
1.0021535
1.0018772
1.0026501
1.0033478
1.0041408
1.0062522
1.0071398
1.0084055
1.0092626
1.0104138
1.0119647
1.0132256
1.0164272
1.0206782
1.0252253
1.0269799
1.0192068
1.0110284
1.011829
1.0178948
1.0210531
1.0184768
1.0093753
1.0039991
1.0087348
1.0155234
1.018947
1.0178991
1.0126356
1.0079105
1.0076443
1.0103482
1.0027004
1.0047092
1.0045188
1.0049121
1.0019253
0.99790589
0.99557904
0.99462711
0.9955806
0.99822128
0.99964519
0.99769311
0.99552221
0.99508955
0.99593473
0.9978889
1.0007383
1.0034773
1.0069311
1.0090801
1.0078007
1.0058051
1.0031134
1.0025795
1.0022126
1.0030453
1.0035179
1.0044533
1.0063777
1.0070389
1.0091148
1.0091517
1.0099994
1.0126711
1.0132319
1.0152925
1.0206068
1.0263342
1.0284386
1.0203858
1.0103366
1.0098413
1.0182302
1.0242155
1.0218693
1.0113062
1.0021005
1.00499
1.0142995
1.0212213
1.0214687
1.0150267
1.0075877
1.0051302
1.0077882
1.002753
1.0048051
1.0046838
1.0051325
1.002166
0.99818343
0.99586859
0.99493084
0.99577908
0.99843857
0.99998935
0.9981085
0.99591494
0.99552782
0.99629572
0.99820767
1.0010674
1.0036351
1.0073067
1.0092446
1.0083367
1.0063404
1.0033852
1.0029525
1.0025081
1.0034294
1.0037421
1.0047609
1.006596
1.0069876
1.0098203
1.0092861
1.0096406
1.0132261
1.0133568
1.0143689
1.0200107
1.0271814
1.0294898
1.0218667
1.0102303
1.0081468
1.0170395
1.026526
1.025259
1.0141733
1.002056
1.0015906
1.0112685
1.0220424
1.0250515
1.0188492
1.009215
1.0036123
1.0054039
1.0029871
1.0050352
1.0050511
1.0055713
1.0025834
0.99854845
0.99620578
0.99528391
0.99606605
0.99875517
1.0004114
0.9985775
0.99632049
0.99593334
0.99666304
0.99852309
1.0014303
1.0038529
1.007767
1.0095223
1.0088241
1.0068054
1.0036699
1.0031165
1.0025883
1.0036093
1.0038083
1.0048765
1.0067871
1.0067605
1.0102493
1.0095357
1.0093268
1.0135352
1.013956
1.013845
1.0191577
1.0275894
1.0309066
1.0240727
1.0110787
1.0060425
1.0149458
1.0268944
1.028597
1.0175243
1.0036825
0.9985119
1.0072863
1.0198619
1.0268886
1.0231722
1.0124803
1.003843
1.0029511
1.0035152
1.005472
1.0056834
1.0062122
1.0031173
0.99890964
0.99643482
0.99547513
0.99618899
0.9988711
1.000623
0.99887514
0.9965636
0.99612262
0.99678216
0.99853952
1.0013959
1.0037414
1.0076918
1.0095494
1.009097
1.0072267
1.0039132
1.0031944
1.0024937
1.00348
1.003603
1.0045588
1.0065289
1.0062605
1.0099685
1.0095769
1.0089387
1.0130983
1.0137907
1.0133507
1.0178043
1.0263601
1.0306841
1.0258183
1.0139684
1.0062886
1.0126122
1.0242129
1.0288431
1.02071
1.0077426
0.99960849
1.004207
1.0155657
1.0243692
1.0240055
1.0163199
1.0068278
1.0034887
1.0075997
1.0100052
1.013655
1.0151594
1.0154329
1.0144045
1.0115897
1.0074161
1.0024457
0.99988735
1.0004126
1.0036436
1.0085172
1.0123298
1.0126192
1.0083354
1.0023864
1.001098
1.0089006
1.0231013
1.0331935
1.0318343
1.027783
1.0378541
1.0536338
1.0434705
1.0058978
1.0201587
1.0235701
1.0241693
1.0228833
1.0203635
1.0167188
1.0128204
1.0101206
1.0098077
1.0116626
1.0150932
1.0183789
1.0192903
1.0166727
1.0103737
1.0032681
0.99983118
1.0026543
1.009123
1.01327
1.0114991
1.0086509
1.0169707
1.041646
1.0596117
1.0433584
1.0156095
1.0263374
1.0261232
1.0238188
1.0206065
1.0171724
1.0149773
1.0154052
1.0183005
1.0229037
1.0282857
1.0316432
1.0320835
1.0286528
1.0215647
1.0150452
1.0132327
1.0160027
1.0191537
1.0173818
1.0090789
0.99847114
0.99770746
1.011384
1.0292457
1.0359287
1.0268248
1.0366144
1.0153068
1.0132705
1.0107909
1.0094992
1.0103548
1.0133469
1.0179267
1.0237653
1.0294219
1.0325172
1.0326443
1.0294486
1.0243322
1.0209203
1.0226187
1.0294833
1.0372519
1.0380421
1.0289459
1.0138642
1.0051204
1.0092025
1.0173844
1.0160288
1.0036655
1.0091213
1.0477978
1.0012017
0.99956508
1.0012898
1.0045421
1.0086319
1.0127254
1.0165648
1.0190621
1.0202759
1.0193368
1.0161003
1.0123847
1.0113046
1.015453
1.0245301
1.0352831
1.042626
1.0418272
1.0322307
1.0241083
1.0263317
1.0353907
1.0332926
1.0139634
0.99351162
1.0102424
1.044539
1.0024364
1.0046867
1.0091827
1.0121405
1.0141335
1.0147603
1.0133569
1.0108573
1.0071889
1.0029808
1.0005936
1.001111
1.0054313
1.0119978
1.0188249
1.0243136
1.0259931
1.0228988
1.0209667
1.0281589
1.043912
1.0553106
1.0484023
1.0242438
1.012483
1.0299663
1.042718
1.0192244
1.02293
1.0243122
1.0241532
1.0221552
1.0182489
1.0136638
1.0093169
1.0059352
1.0049108
1.0068574
1.0105023
1.013958
1.0147013
1.0122831
1.0076047
1.0025556
1.0021243
1.0095993
1.0241294
1.0391944
1.0471996
1.0420937
1.0379482
1.0499078
1.0618433
1.0444689
1.0306253
1.0313282
1.0295541
1.0269077
1.0230583
1.0192702
1.016417
1.0158879
1.0189893
1.0240584
1.0288947
1.0316124
1.0305476
1.0239334
1.0137319
1.0027405
0.9989971
1.0035451
1.0124554
1.0189798
1.020008
1.0160903
1.0179266
1.0401384
1.0740636
1.0820636
1.0498816
1.0208938
1.0188844
1.0166455
1.0147172
1.0141607
1.0157534
1.0197565
1.0262145
1.0336086
1.0403189
1.0441285
1.0432443
1.0373214
1.0282058
1.0190555
1.0164003
1.0212816
1.0279679
1.0311509
1.023009
1.0054672
0.99375944
1.0050327
1.0334825
1.0640297
1.0667899
1.0506459
1.0018264
0.99957247
1.0006743
1.0036129
1.0081148
1.013662
1.019837
1.0255969
1.0308245
1.0339391
1.0342941
1.0310141
1.0258521
1.0221729
1.0247067
1.0345346
1.0470778
1.0557151
1.051354
1.0335992
1.0110523
1.0049063
1.0174749
1.0338038
1.036904
1.0280098
1.0335418
0.99791068
1.0000433
1.0053248
1.0097804
1.0137447
1.0163229
1.0171019
1.0163529
1.0138149
1.010564
1.0071402
1.0055916
1.0070438
1.0144901
1.0265229
1.0395509
1.0504374
1.0544617
1.0477257
1.0369682
1.0327742
1.0424954
1.0535961
1.048634
1.0239306
1.0035555
1.0053917
1.0190207
1.0226085
1.0249397
1.0254499
1.0236775
1.0196674
1.0144228
1.008507
1.0035229
0.9992056
0.99774911
1.0008446
1.0074435
1.0154089
1.0212489
1.0253141
1.0260465
1.0233865
1.0229373
1.0298804
1.0503798
1.0751181
1.0869301
1.0690896
1.0343648
1.0095157
0.99131275
1.0370362
1.0390802
1.0376788
1.0344257
1.0290579
1.0227926
1.0167409
1.0115837
1.0091772
1.0110828
1.0177297
1.0256611
1.0304575
1.0289287
1.0205584
1.008452
0.99746622
0.9946501
1.0039383
1.0250402
1.0500786
1.0733762
1.0809654
1.0696555
1.0522695
1.03298
1.004543
1.0299851
1.0277106
1.02544
1.0232395
1.0213079
1.0203917
1.0211147
1.0249772
1.0325689
1.0415921
1.0492928
1.0542379
1.0509684
1.0406807
1.0254053
1.0098232
0.99936831
1.0034897
1.0172327
1.0326978
1.0419046
1.0426162
1.0405414
1.0390633
1.0462378
1.0479421
1.0429378
1.0056903
1.0033948
1.0034572
1.0048404
1.0081935
1.0145993
1.0240086
1.03536
1.0462432
1.0553669
1.060278
1.0586312
1.0514309
1.0403459
1.0286145
1.0232767
1.030016
1.0456941
1.0588635
1.0560661
1.0376322
1.0158789
1.0060716
1.0075107
1.0120551
1.027918
1.0767449
0.99208891
0.99369481
0.9991252
1.0064269
1.0144359
1.021816
1.0271176
1.0301099
1.0311998
1.0307588
1.0299552
1.0286797
1.026901
1.0272219
1.0329038
1.0479648
1.0686663
1.0872343
1.0916083
1.0751437
1.0473459
1.0211053
1.0045196
0.99321404
0.98455353
1.0070253
1.0764226
1.0152299
1.0206198
1.0267044
1.0302938
1.0310131
1.0281789
1.0226443
1.0152519
1.0078402
1.001002
0.99664056
0.99626362
1.0022931
1.0156756
1.0365741
1.0601935
1.0817184
1.0940678
1.0907055
1.0768937
1.0600821
1.0423376
1.0250267
1.0054284
0.99344282
1.0163702
1.0672316
1.0587266
1.0613896
1.058804
1.0523715
1.0426138
1.030917
1.0184943
1.0073486
0.99884634
0.99428787
0.99636695
1.0049431
1.0175176
1.0321842
1.0440697
1.0504658
1.053367
1.0550265
1.057059
1.0583612
1.0565629
1.0539692
1.0478569
1.0395271
1.039158
1.057234
1.0641518
1.0610756
1.0590085
1.0564482
1.0515603
1.0442074
1.0357283
1.0267678
1.0201728
1.0179377
1.0226756
1.0337212
1.0502562
1.0633114
1.0660569
1.0568755
1.0395463
1.0232563
1.0163799
1.0187288
1.0241174
1.0298332
1.0358894
1.048739
1.0749169
1.1012273
1.1112437
1.0636836
1.0228851
1.0209006
1.0194139
1.018429
1.0189932
1.022124
1.0290548
1.0413402
1.0581177
1.0773958
1.0951883
1.1058308
1.1025729
1.0865922
1.0642583
1.0421263
1.0263271
1.0167463
1.0107974
1.0022469
0.998265
1.0025249
1.0315383
1.0873024
1.135363
1.1348513
1.0689558
0.98907294
0.98710554
0.98922274
0.99411906
1.0023037
1.0141463
1.0306314
1.0509683
1.0743821
1.0947839
1.1096447
1.113372
1.1087376
1.0962909
1.0785662
1.0612198
1.0486833
1.03839
1.0296168
1.0143945
0.99449156
0.99104009
1.0203292
1.0730639
1.11506
1.1051859
1.0631425
0.98626271
0.99158115
1.0015426
1.0132097
1.0258546
1.0378178
1.0472381
1.0522592
1.0539511
1.0552255
1.0580805
1.0645604
1.0714161
1.0767849
1.0810798
1.0791969
1.074007
1.0669224
1.0567308
1.0423074
1.0267582
1.0228186
1.0392603
1.0568321
1.0576342
1.0399891
1.0363323
1.0456771
1.0526048
1.0598448
1.0632597
1.0620514
1.0554958
1.045327
1.0343789
1.0255797
1.0208061
1.0199411
1.021959
1.0273643
1.0346609
1.0436132
1.0544294
1.0668814
1.0768312
1.0834927
1.0836079
1.0822461
1.0816512
1.0756667
1.0538742
1.0138312
0.98278336
0.99966463
1.1306771
1.1294251
1.1208478
1.1052111
1.0853849
1.0642262
1.0449437
1.0295906
1.0198955
1.0156915
1.0167311
1.0191832
1.0190518
1.0133898
1.0088661
1.0114158
1.0213265
1.0454275
1.0809213
1.1174364
1.1398126
1.1384704
1.1093463
1.057217
1.0042292
0.96709775
0.97762027
1.136797
1.1349363
1.1308173
1.1215268
1.1086746
1.0931499
1.077039
1.0622255
1.0510954
1.0443269
1.0399704
1.0362951
1.0313417
1.0212164
1.0077575
0.99527916
0.99585174
1.0149132
1.0555772
1.1122108
1.1552079
1.1591785
1.1261588
1.0693341
1.0191158
0.98857523
0.98365813
1.0915516
1.0901614
1.0904755
1.0925186
1.0966822
1.1008493
1.1037736
1.1035845
1.1002825
1.095203
1.087516
1.0761574
1.0602351
1.0416003
1.0263249
1.0160716
1.0132828
1.0266225
1.0537735
1.0867365
1.1109672
1.1194324
1.1068692
1.0831583
1.0528227
1.0311067
1.0182495
1.0566723
1.0564615
1.0588131
1.0623079
1.0658854
1.0712933
1.0793881
1.0912098
1.1049103
1.1180146
1.1260076
1.124668
1.1127093
1.0919905
1.0700213
1.056305
1.0572325
1.0669351
1.0750001
1.0726591
1.0569323
1.0484604
1.0532303
1.0709738
1.0852606
1.0859029
1.0806665
1.0571739
1.056376
1.0550655
1.0536541
1.0511446
1.0486864
1.0480437
1.0517523
1.0625126
1.0812054
1.1076307
1.1344095
1.1513953
1.152602
1.1433318
1.1295221
1.1170727
1.108364
1.0938733
1.0658961
1.029591
0.99867818
0.99869146
1.029522
1.086023
1.1360208
1.1637577
1.0711781
1.0704079
1.0674057
1.061692
1.0528274
1.0433788
1.0360161
1.0334446
1.0368522
1.0488711
1.0720672
1.1063469
1.1454375
1.1787002
1.1984342
1.1995071
1.1812201
1.1464582
1.1062527
1.0624061
1.0201342
0.98658689
0.9756691
0.99803621
1.0620815
1.1583825
1.2365611
1.0816584
1.0786713
1.0730151
1.0660344
1.0570606
1.0478602
1.0397788
1.0359442
1.0400438
1.0522158
1.0732641
1.1015692
1.1343264
1.1697471
1.2011989
1.2168704
1.2091015
1.1767049
1.1259247
1.0744564
1.0297655
0.99997248
0.98242825
0.99589588
1.0496212
1.152604
1.2624179
1.0768875
1.0743738
1.070262
1.0654684
1.0593872
1.0535301
1.0498861
1.0509887
1.0588766
1.0753136
1.0990297
1.1241718
1.1447968
1.1629401
1.1759914
1.1853709
1.189306
1.1808926
1.1523592
1.1082356
1.063464
1.0290505
1.0122059
1.0154506
1.0558447
1.1366761
1.2334639
1.0691613
1.0679427
1.0652819
1.0633204
1.0610799
1.0603493
1.0632057
1.0717699
1.086751
1.1081947
1.1336984
1.1548665
1.162389
1.1567265
1.144742
1.1421746
1.1454524
1.1608027
1.1715692
1.1575587
1.1172834
1.0780872
1.0547058
1.0513187
1.0734435
1.1201108
1.1712474
1.0725319
1.0736699
1.0718302
1.0707335
1.070399
1.0725846
1.0797086
1.094499
1.1160867
1.1426209
1.167287
1.179572
1.175404
1.152576
1.1214475
1.0994175
1.1010504
1.1245284
1.1643165
1.1918756
1.1816248
1.1438375
1.1085676
1.0963858
1.0982284
1.1060868
1.1117072
1.0969178
1.0996488
1.0969941
1.0940055
1.092331
1.0942262
1.1019777
1.1178327
1.139965
1.1668454
1.189174
1.1937119
1.1787327
1.147204
1.1070075
1.0745258
1.069318
1.0871475
1.1314403
1.1913324
1.2272279
1.2136232
1.1746375
1.1460457
1.1293277
1.1040401
1.0753739
1.1400814
1.1428298
1.1380537
1.1307463
1.1243296
1.1222964
1.1276121
1.1406486
1.1601538
1.1826617
1.1994417
1.1986832
1.1781168
1.1423575
1.1006393
1.068414
1.0491436
1.0585069
1.0928478
1.1578624
1.2337756
1.2716353
1.2548712
1.2101435
1.16456
1.1106151
1.0628253
1.1882939
1.1894125
1.1815052
1.1696628
1.1585456
1.1514869
1.1520978
1.1594302
1.1739408
1.1914878
1.2038326
1.1999227
1.1777214
1.1440217
1.1052844
1.073348
1.0490775
1.0473175
1.0672859
1.1194095
1.207958
1.2979331
1.3278582
1.2852784
1.2065447
1.126527
1.0627615
1.2308358
1.2290204
1.2171535
1.2011715
1.1853976
1.1736446
1.1698546
1.1722951
1.1830487
1.1963611
1.2053089
1.2012008
1.1842406
1.1557173
1.121666
1.0890967
1.0665997
1.0542135
1.0615573
1.0991207
1.1775833
1.2943529
1.3756972
1.3537133
1.2524313
1.1452707
1.0672652
1.2619279
1.256086
1.2396926
1.219288
1.199539
1.184053
1.176297
1.1744214
1.1829261
1.1972571
1.2114286
1.2124758
1.2015366
1.1762686
1.1446225
1.1110147
1.0899651
1.0748371
1.0752163
1.1009435
1.1697885
1.2852683
1.3949139
1.3968798
1.2881498
1.1633886
1.0777801
1.2769625
1.2677525
1.2477255
1.2241067
1.2014517
1.1831371
1.1727744
1.1692514
1.1773554
1.1939047
1.2140632
1.2233852
1.2179553
1.1998699
1.170414
1.1385464
1.1154978
1.1005505
1.1000487
1.1213512
1.1844569
1.2916831
1.3977943
1.4089537
1.3008437
1.175116
1.0841532
1.285773
1.2744038
1.2513976
1.2239143
1.1971974
1.1751729
1.1618635
1.1573263
1.1658159
1.1840834
1.2079603
1.2255644
1.2262166
1.21251
1.1877974
1.1603518
1.1397494
1.130162
1.1329249
1.1560852
1.2087437
1.306997
1.3922242
1.3956437
1.2941339
1.1749495
1.0884668
1.2806144
1.2688047
1.2456029
1.2177434
1.1905131
1.1683347
1.1554471
1.1518143
1.1610921
1.1803199
1.2046612
1.2210037
1.2218287
1.2132533
1.1944608
1.1750707
1.1629424
1.1611694
1.1665924
1.1881483
1.2393667
1.311063
1.3775256
1.3670416
1.2779463
1.1701403
1.0910528
1.2673696
1.2564684
1.2348503
1.2091853
1.1848267
1.1661198
1.1563852
1.1558004
1.1663392
1.1861826
1.2083444
1.2218648
1.2224469
1.2162587
1.2017036
1.1877621
1.1823714
1.1842927
1.1913933
1.2091985
1.2531499
1.3103144
1.3551947
1.3367423
1.2573681
1.1662459
1.0966245
1.2582265
1.2473911
1.2254918
1.2007
1.1794681
1.1664181
1.1630194
1.1697663
1.1859678
1.2070667
1.2252283
1.2336893
1.232661
1.2240454
1.2106965
1.2004851
1.1973652
1.1977503
1.203273
1.2185128
1.2560642
1.3041713
1.3359619
1.3138734
1.2455975
1.1668807
1.1086217
1.2519974
1.2411697
1.2184771
1.1950795
1.1793761
1.1752985
1.1808905
1.1967246
1.2183117
1.2390836
1.252084
1.2552374
1.249156
1.2348732
1.2214438
1.2108197
1.2061911
1.2049016
1.2092542
1.2269294
1.2590525
1.2973118
1.3209399
1.2985734
1.2412746
1.1778497
1.1288031
1.2475862
1.2363123
1.2121095
1.1906419
1.1819829
1.1871993
1.2034339
1.2283588
1.2545263
1.2744097
1.2826357
1.279365
1.2682507
1.2520871
1.2362604
1.224241
1.2166149
1.2146697
1.2204526
1.2387352
1.2657566
1.2956479
1.3065492
1.2835526
1.2430537
1.196274
1.1565591
1.2431316
1.2311554
1.2056627
1.1868117
1.1845243
1.1968554
1.2209684
1.2519594
1.2817648
1.3031491
1.3116558
1.3075749
1.2946478
1.2777256
1.2609454
1.2459602
1.2351039
1.2320712
1.2381347
1.2551832
1.2773275
1.2901957
1.2846251
1.2646809
1.2424754
1.2164818
1.188971
1.248736
1.2348207
1.2062125
1.1863199
1.1849252
1.1985457
1.2239643
1.2570858
1.2905622
1.3174498
1.3326232
1.3355171
1.3270765
1.3112378
1.2937245
1.2766431
1.2645894
1.2647908
1.2706288
1.27882
1.2812229
1.2702341
1.251094
1.2374664
1.2362214
1.2344037
1.2318048
1.2637013
1.2477745
1.216113
1.1928275
1.1874369
1.1975291
1.2191981
1.2500516
1.284309
1.3165267
1.340892
1.3536398
1.3541573
1.3442547
1.3300083
1.318154
1.3124997
1.3119943
1.3109661
1.2994542
1.275337
1.2427055
1.2147537
1.2043983
1.215969
1.2426129
1.2791026
1.2886441
1.2697098
1.2349134
1.2075869
1.196821
1.2013374
1.2169517
1.2424971
1.2736421
1.3045369
1.3317064
1.3516287
1.3636704
1.3701334
1.3733254
1.3757987
1.3749256
1.3664315
1.3428869
1.3043318
1.2592792
1.2187827
1.1903417
1.1793894
1.1930414
1.238573
1.3113208
1.3154272
1.2943424
1.2569194
1.2255718
1.2087703
1.2062709
1.2157525
1.2350655
1.2607943
1.2894425
1.319892
1.348214
1.3769743
1.4019297
1.4193077
1.4276581
1.4228729
1.4007795
1.3600356
1.3058308
1.2500086
1.2048861
1.1776872
1.1692979
1.1882421
1.2427528
1.3226926
1.3181702
1.2988033
1.260401
1.2253173
1.206142
1.2028472
1.213865
1.2379873
1.2714302
1.3141739
1.3562786
1.3943164
1.4208391
1.4321645
1.4311886
1.4225399
1.4089815
1.3918685
1.3631447
1.3183204
1.2629877
1.2124034
1.1830988
1.1821439
1.2124828
1.2607942
1.3167314
1.3003453
1.2755932
1.2390981
1.2105916
1.198758
1.2067319
1.2351182
1.2807826
1.3390634
1.3999962
1.4472206
1.4655005
1.4553341
1.4215185
1.38382
1.3566631
1.34453
1.3441263
1.3389654
1.3193757
1.2880365
1.2537046
1.2326001
1.23592
1.2533678
1.278631
1.2945727
1.3120733
1.2891735
1.2545525
1.232593
1.231013
1.2520974
1.2907861
1.3422245
1.3979572
1.444145
1.4665214
1.4592243
1.4276401
1.3778378
1.3295159
1.2939712
1.2744869
1.2712133
1.2792183