/*--------------------------------*- C++ -*----------------------------------*\
| =========                 |                                                 |
| \\      /  F ield         | OpenFOAM: The Open Source CFD Toolbox           |
|  \\    /   O peration     | Version:  2406                                  |
|   \\  /    A nd           | Website:  www.openfoam.com                      |
|    \\/     M anipulation  |                                                 |
\*---------------------------------------------------------------------------*/
FoamFile
{
    version     2.0;
    format      ascii;
    arch        "LSB;label=32;scalar=64";
    class       volVectorField;
    location    "33";
    object      U_0;
}
// * * * * * * * * * * * * * * * * * * * * * * * * * * * * * * * * * * * * * //

dimensions      [0 1 -1 0 0 0 0];

internalField   nonuniform List<vector> 
62344
(
(0.0969737 -0.00034393953 -9.627493e-22)
(0.092757936 -0.0019020595 -5.0060252e-22)
(0.097211585 -0.0019847393 -1.0412771e-21)
(0.095279887 -0.0017479626 5.4149543e-22)
(0.097063637 -0.0017104087 0)
(0.10022009 -0.0020931489 2.3397729e-21)
(0.10070912 -0.002219188 -2.4360645e-21)
(0.099045327 -0.0018808809 1.2654171e-21)
(0.096098432 -0.0011240176 0)
(0.093256986 -0.00013637123 0)
(0.092692527 0.00054047301 5.7053268e-21)
(0.094255832 0.00027844734 -1.2250971e-20)
(0.095463131 -0.00040406057 3.8580639e-22)
(0.094813262 -0.00031612179 1.32619e-20)
(0.092727622 0.00012117691 -6.6940238e-21)
(0.089478972 0.00091312294 6.5598439e-21)
(0.086162729 0.0020923969 -7.2571243e-21)
(0.084269921 0.0029653297 0)
(0.083565811 0.0039280052 0)
(0.082833388 0.0044361511 -5.1118894e-22)
(0.083217153 0.0043085811 -2.6570714e-22)
(0.084536612 0.0027019994 2.7699994e-22)
(0.084393543 0.00073114468 5.7615958e-22)
(0.083932987 -0.00030133534 -1.9171593e-20)
(0.084445123 -0.0020182158 1.997601e-20)
(0.083317795 -0.0030190221 0)
(0.08096563 -0.0031366894 0)
(0.080337601 -0.0045623951 -1.7558504e-22)
(0.07850186 -0.0052641241 -2.3463963e-20)
(0.076746605 -0.0055020545 2.4454432e-20)
(0.076799955 -0.0079879358 2.5456876e-20)
(0.07634074 -0.0076929443 -2.6168291e-20)
(0.078381117 -0.0096518563 -2.1357904e-22)
(0.079262268 -0.011545182 2.8472665e-20)
(0.078719204 -0.011398341 -2.9182812e-20)
(0.081843848 -0.015071599 -2.3974615e-22)
(0.081933746 -0.01610243 -3.2339084e-20)
(0.076820218 -0.011981508 6.6426691e-20)
(0.076060316 -0.013180721 -6.9116758e-20)
(0.079321745 -0.018725043 6.3146322e-23)
(0.07832161 -0.017100567 -4.2073065e-22)
(0.07474359 -0.012536948 7.7074219e-20)
(0.076391886 -0.017519128 -4.043629e-20)
(0.084912919 -0.030704898 0)
(0.093509295 -0.040064673 -4.3828338e-20)
(0.092338219 -0.037158318 9.049263e-20)
(0.081683252 -0.028151612 1.0744743e-21)
(0.070767933 -0.021558691 -9.8742026e-20)
(0.073097629 -0.024540589 5.12204e-20)
(0.087479519 -0.034447256 0)
(0.098955973 -0.045397624 0)
(0.097793065 -0.052824737 5.7569542e-20)
(0.090026705 -0.058432944 -5.9526895e-20)
(0.086975698 -0.062984356 -1.1949724e-22)
(0.098711439 -0.071255006 -6.2031482e-20)
(0.098564775 -0.00031995584 -5.0817441e-22)
(0.09351566 -0.001490818 5.2839406e-22)
(0.097647305 -0.0016082916 1.6486143e-21)
(0.095591757 -0.0014337919 -1.7151228e-21)
(0.097193246 -0.0014544952 0)
(0.10029555 -0.0016555563 2.4695932e-21)
(0.10083093 -0.0016733709 -3.2133348e-21)
(0.099222949 -0.0016011542 -3.3421634e-21)
(0.096291815 -0.0010679436 3.4789428e-21)
(0.093302377 -0.00038315866 0)
(0.09262343 0.0002491222 0)
(0.094239168 0.00013995425 3.9194093e-22)
(0.09553026 -0.00025721845 -4.0740554e-22)
(0.094968069 -0.00057701897 5.9461922e-21)
(0.092978712 -0.00034004803 -7.0675232e-21)
(0.089727894 8.0888668e-05 0)
(0.086373044 0.00063142655 0)
(0.084234992 0.0012035708 0)
(0.083332959 0.0021124331 8.3196042e-21)
(0.08273453 0.0031163954 2.7449857e-22)
(0.083276172 0.0023946146 -1.2789837e-23)
(0.084922955 0.0013887495 -2.8365136e-20)
(0.085103031 0.00027093876 1.9157039e-20)
(0.084480566 -0.0011223954 0)
(0.084738885 -0.0023870398 2.1081033e-20)
(0.083757803 -0.0029181951 7.4241215e-23)
(0.081806857 -0.0035210477 -4.55958e-20)
(0.081111515 -0.0055695901 2.3942836e-20)
(0.079075972 -0.0059156983 -1.9319347e-22)
(0.0775214 -0.0066130963 -2.5915909e-20)
(0.077100714 -0.0081701896 2.6710911e-20)
(0.076047962 -0.0078048644 2.1645594e-22)
(0.07841796 -0.0094306665 -2.8615057e-20)
(0.079473913 -0.010391348 6.0084595e-20)
(0.078879688 -0.010569233 -3.1076734e-20)
(0.08137608 -0.013052373 2.5300254e-22)
(0.081015833 -0.011798336 0)
(0.07760579 -0.0093524132 0)
(0.078405489 -0.013183533 1.4252639e-22)
(0.079091796 -0.016272278 3.815102e-20)
(0.075778507 -0.012524081 -7.9000845e-20)
(0.076705749 -0.011379808 4.141298e-20)
(0.083474688 -0.020557688 4.224209e-20)
(0.088396877 -0.031191119 -8.8962878e-20)
(0.088842097 -0.031464552 4.5949954e-20)
(0.087633102 -0.023599243 0)
(0.084555451 -0.017819467 0)
(0.079325371 -0.01989257 0)
(0.076968269 -0.027905385 1.0499629e-22)
(0.08506148 -0.037309932 -1.093509e-22)
(0.10062254 -0.045002449 0)
(0.11049163 -0.05107656 9.0607459e-25)
(0.10727529 -0.056745669 -1.2221653e-22)
(0.096536122 -0.058811502 1.926099e-22)
(0.089710514 -0.062217023 -6.6293739e-23)
(0.098588377 -0.00024461409 5.3633798e-22)
(0.093391157 -0.0014961144 -5.5776109e-22)
(0.097451999 -0.0017214284 -5.7995069e-22)
(0.095396986 -0.0015803502 6.0349491e-22)
(0.097074645 -0.0017372111 -6.2763048e-22)
(0.10025713 -0.0020114482 6.5268683e-22)
(0.10091444 -0.0020637401 1.3550605e-21)
(0.099298629 -0.0021129454 0)
(0.096270986 -0.0016709773 2.2103308e-21)
(0.093247041 -0.00073214331 -3.4402025e-21)
(0.092583228 -0.00017968381 0)
(0.09422397 -0.00048639508 -4.1349376e-22)
(0.095599515 -0.00083770732 1.5031002e-25)
(0.095065213 -0.0012014024 2.2101251e-25)
(0.093026418 -0.00086655478 7.4835464e-21)
(0.089802988 -0.00015704514 -7.2770466e-21)
(0.08640136 0.00050184653 0)
(0.084146622 0.0012747926 0)
(0.083018255 0.0021034552 0)
(0.082695259 0.0032918825 0)
(0.08356572 0.0024390373 0)
(0.085205825 0.001188843 1.0174483e-20)
(0.085695147 0.0006413603 -1.0269712e-20)
(0.085270373 -0.00076418373 -3.3381612e-22)
(0.085427255 -0.0022985677 3.4718449e-22)
(0.084457228 -0.0031116315 0)
(0.082943472 -0.0034038669 0)
(0.082329576 -0.0055450764 1.9566477e-22)
(0.080069541 -0.0057405577 2.0396817e-22)
(0.07852225 -0.007043265 0)
(0.077684618 -0.0078966211 0)
(0.076398323 -0.0074565915 -2.940427e-20)
(0.078678598 -0.0099359445 6.0722399e-20)
(0.07970622 -0.010105078 -3.1688766e-20)
(0.07968572 -0.0099475939 -1.2838242e-22)
(0.081601958 -0.012364984 3.4192507e-20)
(0.080278118 -0.011278106 -3.5582783e-20)
(0.078600781 -0.0096734848 0)
(0.080729417 -0.013063153 -3.5102205e-25)
(0.079471894 -0.013982573 0)
(0.074554544 -0.01085705 4.159783e-20)
(0.077759035 -0.012703235 -4.3519414e-20)
(0.088653809 -0.021529265 -4.48756e-20)
(0.092143734 -0.028668705 4.6511315e-20)
(0.084934679 -0.026538586 -3.4517381e-25)
(0.079549069 -0.019573617 0)
(0.082646043 -0.01541012 0)
(0.08814376 -0.018777988 -1.0658612e-22)
(0.089381812 -0.02775543 -5.736201e-20)
(0.088888454 -0.037832102 5.9230425e-20)
(0.095140257 -0.044635159 0)
(0.10717879 -0.04756168 6.3461462e-20)
(0.11434128 -0.048405752 -6.5380841e-20)
(0.10906174 -0.04645203 6.9096766e-20)
(0.098019154 -0.045673631 -7.1221626e-20)
(0.098892799 -0.00021429328 -2.8292303e-22)
(0.093440961 -0.0013392667 -8.8272995e-22)
(0.097422798 -0.0015903454 1.836134e-21)
(0.095360086 -0.0015507172 -1.2735252e-21)
(0.09701396 -0.0016818321 -1.9791229e-21)
(0.10018035 -0.0018861669 2.0743536e-21)
(0.10095652 -0.0018128707 -3.5746319e-21)
(0.099416963 -0.0017692329 5.9545066e-21)
(0.096330446 -0.0014553346 -3.4870216e-21)
(0.093166161 -0.00068223447 8.0786524e-22)
(0.09249111 -0.00021120617 4.1966472e-22)
(0.094168063 -0.0004782291 6.9752267e-21)
(0.09560795 -0.00088728153 -6.3566883e-21)
(0.095160607 -0.0011264665 8.0358172e-21)
(0.093167432 -0.00092617427 2.6574585e-23)
(0.090058048 -0.00044521207 -1.6927387e-20)
(0.086552584 0.00014177535 8.2614736e-21)
(0.084081106 0.00069597973 -2.7797415e-22)
(0.08272371 0.0016809693 9.2623034e-21)
(0.082484737 0.0023486064 -9.3081626e-21)
(0.083740965 0.0020340323 0)
(0.085329668 0.00075405284 0)
(0.085912489 0.00026655575 -1.0501648e-20)
(0.085827632 -0.00073077425 1.1616046e-20)
(0.085996754 -0.0022085964 1.1372239e-20)
(0.084761279 -0.0030114699 -1.21931e-20)
(0.083474828 -0.002977887 -1.2678321e-20)
(0.083018387 -0.0048536353 1.2982545e-20)
(0.080856392 -0.0045421053 0)
(0.079416571 -0.0063421464 0)
(0.077906662 -0.006769656 0)
(0.07689451 -0.0063104742 0)
(0.078941941 -0.0092607135 0)
(0.07915991 -0.0090348201 0)
(0.079826327 -0.0082704441 1.3541909e-22)
(0.082144225 -0.010212487 -3.6113179e-20)
(0.080127682 -0.0098078969 3.7529103e-20)
(0.078665151 -0.0093611743 1.5288164e-22)
(0.081376926 -0.011093176 -3.1657967e-22)
(0.079911019 -0.0097237069 4.2510497e-20)
(0.075191496 -0.0080086698 -4.3805786e-20)
(0.078639334 -0.01336753 4.516716e-20)
(0.090168507 -0.021267169 -4.8191752e-20)
(0.094923162 -0.023813035 4.962113e-20)
(0.086126677 -0.020322606 -1.0270363e-19)
(0.076083238 -0.01666374 -4.86191e-22)
(0.07745297 -0.015975141 6.587138e-22)
(0.088641173 -0.019246635 1.0571637e-21)
(0.098605977 -0.026532402 4.6772731e-22)
(0.10063853 -0.035361335 -1.0381549e-22)
(0.097758982 -0.043112597 6.4772301e-20)
(0.09877413 -0.044933565 0)
(0.10386204 -0.041436193 6.9212461e-20)
(0.10597622 -0.033909164 3.5978012e-22)
(0.10250225 -0.028246273 -7.5426718e-20)
(0.099359056 -0.00015875026 5.9706128e-22)
(0.093677671 -0.0013051284 6.2098225e-22)
(0.097526876 -0.0016071654 6.4572198e-22)
(0.095422828 -0.0015444794 0)
(0.097029474 -0.0016021075 0)
(0.10020141 -0.0018799887 0)
(0.10098387 -0.0019218647 -3.7717011e-22)
(0.099453105 -0.0019130975 3.1427331e-21)
(0.096335546 -0.001673956 -2.8600388e-21)
(0.093130967 -0.0011197635 -4.26116e-22)
(0.092459854 -0.00074826386 -3.536649e-21)
(0.094154312 -0.00079513537 3.685973e-21)
(0.09562638 -0.0013573046 -8.1386037e-21)
(0.095217897 -0.0014199471 7.9628257e-21)
(0.093281151 -0.0013647866 0)
(0.090202063 -0.0011033639 0)
(0.086682634 -0.00038184373 5.634461e-22)
(0.084047572 0.00011498521 2.9332247e-22)
(0.082628738 0.0012641911 -9.7704852e-21)
(0.082441841 0.001481798 9.8243728e-21)
(0.083754009 0.0015463589 0)
(0.085508142 0.00067524235 0)
(0.086178191 -0.00041363351 -3.5719065e-22)
(0.086298465 -0.0012137592 0)
(0.086587587 -0.0026739687 -1.2194782e-20)
(0.085207903 -0.0032113254 1.2854217e-20)
(0.084033619 -0.003451582 0)
(0.083539861 -0.0052912059 0)
(0.081730946 -0.0045774471 0)
(0.080603477 -0.0065481131 0)
(0.078407137 -0.0069246688 0)
(0.077623143 -0.0066714499 0)
(0.079749145 -0.0093710858 -1.3198245e-22)
(0.078820658 -0.0090998277 -1.3748023e-22)
(0.079522485 -0.0084540767 0)
(0.082651394 -0.0098246614 -1.4834285e-22)
(0.081024523 -0.0090620832 1.9900924e-20)
(0.078983839 -0.0097563973 -2.0764675e-20)
(0.080368351 -0.01043249 1.667709e-22)
(0.079775748 -0.0071263059 1.7492255e-22)
(0.077890503 -0.0066719306 0)
(0.081224929 -0.014565826 1.8913433e-22)
(0.089140651 -0.022138537 -2.1894561e-25)
(0.093280595 -0.020300627 5.2348137e-20)
(0.088401848 -0.014958596 7.6133031e-22)
(0.079551557 -0.013409643 -5.644028e-20)
(0.076537372 -0.017072565 -1.1467721e-22)
(0.084993699 -0.022163826 0)
(0.098797142 -0.027533985 -1.2411606e-22)
(0.10827397 -0.033239853 -1.2833939e-22)
(0.10764373 -0.038746523 6.8290385e-20)
(0.099820719 -0.039921607 -6.9932583e-20)
(0.093262788 -0.036414098 7.2083337e-23)
(0.092037539 -0.02836241 1.3977684e-24)
(0.093881154 -0.022334666 -7.7382969e-23)
(0.099878703 -0.00017286224 0)
(0.093954985 -0.0012098519 0)
(0.097684087 -0.0015126314 -6.8102054e-22)
(0.095520028 -0.0014092419 0)
(0.097059466 -0.0013826523 1.4699478e-21)
(0.10022918 -0.001719291 -1.1542924e-21)
(0.10102152 -0.0018080174 3.9779829e-22)
(0.09951694 -0.0017565082 0)
(0.09636771 -0.0015402775 4.3148454e-22)
(0.093116213 -0.0010490733 0)
(0.092355119 -0.0006569394 -4.6685561e-22)
(0.094153512 -0.0006828175 -3.3937728e-21)
(0.095741127 -0.0012846075 8.0798105e-21)
(0.095323958 -0.0012396975 -4.198942e-21)
(0.093423847 -0.0013294624 0)
(0.090284276 -0.001158773 0)
(0.086767189 -0.0005190062 -1.7048085e-25)
(0.083947395 6.1332491e-05 -3.093964e-22)
(0.082474987 0.0010218858 0)
(0.082289765 0.0013419318 0)
(0.083588256 0.001481323 3.4781408e-22)
(0.085703343 0.00098133589 1.1225461e-20)
(0.086498097 -0.00052921967 -2.4312337e-20)
(0.086644428 -0.0011237616 1.2731907e-20)
(0.086926344 -0.0025633065 1.2836358e-20)
(0.08553467 -0.0024406301 -1.3521431e-20)
(0.084750746 -0.0030504742 -1.4136663e-20)
(0.084084257 -0.0046807683 1.4665234e-20)
(0.082354695 -0.0039334156 -1.5228378e-20)
(0.081607234 -0.0056458998 3.1849722e-20)
(0.078855038 -0.0058632493 -1.6807433e-20)
(0.077887827 -0.0061633306 1.344317e-22)
(0.080057448 -0.008202017 2.7846236e-22)
(0.078677326 -0.0073504435 2.9089329e-22)
(0.079108026 -0.0079087355 0)
(0.082204921 -0.0089678833 -1.9905343e-20)
(0.081664793 -0.0069778723 4.1719015e-20)
(0.079898727 -0.0079745342 -2.1747855e-20)
(0.079014407 -0.0089013236 -1.7717691e-22)
(0.078165714 -0.0054018261 -1.8402098e-22)
(0.080531002 -0.0055975406 0)
(0.085734236 -0.013845119 -2.5373332e-20)
(0.088858412 -0.020645655 1.2006433e-22)
(0.088805463 -0.017341923 2.7308221e-20)
(0.087398009 -0.010665677 0)
(0.084659711 -0.0092056964 0)
(0.082081819 -0.014395114 -3.0919261e-20)
(0.084564419 -0.022287549 3.2479931e-20)
(0.094377949 -0.028608246 -6.8308716e-25)
(0.10635026 -0.031473151 6.9183509e-20)
(0.11136582 -0.031887028 -1.4305162e-19)
(0.10554934 -0.029673671 1.4920785e-19)
(0.09371889 -0.026393294 -7.7740926e-20)
(0.084740383 -0.021808354 -7.9659422e-23)
(0.085076005 -0.021106805 8.2345036e-23)
(0.099780798 -0.00014786287 3.3214923e-22)
(0.093814326 -0.0011162348 -3.4524014e-22)
(0.097516094 -0.0013845559 -1.4365505e-21)
(0.095336005 -0.0012279591 1.4947309e-21)
(0.096903974 -0.0012045542 1.9387356e-21)
(0.10013513 -0.0016521776 -4.0441804e-21)
(0.10097933 -0.0018258007 1.2611256e-21)
(0.09952936 -0.0017486068 -4.3637727e-22)
(0.09641459 -0.0016035549 -4.5500495e-22)
(0.093109654 -0.0011839609 -3.7921907e-21)
(0.092243659 -0.00086562822 3.9378514e-21)
(0.094064917 -0.00099636207 0)
(0.095725857 -0.0015327114 0)
(0.095431117 -0.0016043479 -2.7677858e-22)
(0.093673725 -0.0017864087 -2.8861306e-22)
(0.090561411 -0.001541396 4.8231646e-21)
(0.086981691 -0.0011791944 -1.5362135e-20)
(0.084018009 -0.00042345569 1.1076484e-20)
(0.082419928 0.00019234955 -1.0871931e-20)
(0.08222379 0.00089181433 2.2569111e-20)
(0.083482289 0.00069424426 -3.9421874e-22)
(0.085820155 0.00017528288 -2.4278239e-20)
(0.08676742 -0.00098407025 1.3113696e-20)
(0.086907865 -0.0015695928 1.3222989e-20)
(0.08715915 -0.0030151055 -1.3728182e-20)
(0.08583517 -0.0024504027 0)
(0.08547738 -0.0034299674 -1.4912903e-20)
(0.084580586 -0.0048253425 1.5496311e-20)
(0.082887671 -0.0044882099 2.5144026e-22)
(0.082530354 -0.0059308325 2.6139194e-22)
(0.079553584 -0.0057206293 4.0998676e-22)
(0.078402388 -0.0069320471 -1.4189502e-22)
(0.080110525 -0.0082413222 -2.9356792e-22)
(0.078931136 -0.0064171927 -1.5302463e-22)
(0.079405176 -0.0082241467 0)
(0.081357256 -0.0093116581 0)
(0.081506574 -0.0061675474 -2.2088197e-20)
(0.081465902 -0.0063514167 4.6163769e-20)
(0.079326446 -0.0079107544 -2.3497596e-20)
(0.076811757 -0.0060957193 -9.7291264e-23)
(0.08135454 -0.0068071386 0)
(0.08950679 -0.013425803 0)
(0.090692932 -0.018074434 -2.8116522e-20)
(0.085281813 -0.015810429 2.8842202e-20)
(0.083254124 -0.009938001 -3.032341e-20)
(0.086088377 -0.007754801 3.1406719e-20)
(0.08907869 -0.011809239 1.2693245e-22)
(0.090316277 -0.020716572 -3.4284209e-20)
(0.093216949 -0.028828151 3.5503288e-20)
(0.099880837 -0.03129749 0)
(0.10582517 -0.028142074 8.7924691e-25)
(0.10558286 -0.021857369 -3.9903143e-20)
(0.098321419 -0.016802078 8.2843084e-20)
(0.089438523 -0.015235676 -8.6237176e-20)
(0.08624297 -0.020222233 4.4441464e-20)
(0.10019891 -0.00015323759 0)
(0.0940437 -0.00095476729 7.2822631e-22)
(0.097644772 -0.0011553033 -1.4674444e-25)
(0.095428582 -0.00098906172 -7.8798506e-22)
(0.096966275 -0.0010278969 4.1696796e-26)
(0.10019467 -0.0014856885 4.2616066e-22)
(0.1010678 -0.001652597 -8.8402854e-22)
(0.0996773 -0.0016116533 2.3012464e-21)
(0.096573568 -0.0014667121 0)
(0.09317121 -0.0011073972 0)
(0.092194137 -0.00073987168 -3.6285409e-21)
(0.094034789 -0.00097960437 4.3244901e-21)
(0.095746517 -0.0013273066 0)
(0.095554546 -0.0016016118 2.9176903e-22)
(0.093869437 -0.0016466508 3.0422454e-22)
(0.090822664 -0.0013054158 0)
(0.087226066 -0.0011233152 -5.2970609e-21)
(0.08413172 -0.00045255101 -3.6026531e-22)
(0.082302836 -2.0412952e-05 6.0841462e-21)
(0.082063445 0.0010639622 0)
(0.083441872 0.00067631723 1.2354054e-20)
(0.085857834 -0.00017452987 -2.5796445e-20)
(0.08693209 -0.00064382836 1.3197933e-20)
(0.087224467 -0.0012600148 -1.4158383e-20)
(0.087365189 -0.0026837139 1.4692748e-20)
(0.086009822 -0.0020090815 0)
(0.086040053 -0.0032209111 0)
(0.08512515 -0.0040154636 0)
(0.083429539 -0.0041989232 -2.6626716e-22)
(0.083114023 -0.0053537104 -2.7601754e-22)
(0.080423846 -0.0046214732 -1.8566624e-20)
(0.0790709 -0.0068249361 1.9185501e-20)
(0.079636288 -0.0076648108 1.5516888e-22)
(0.07892137 -0.0050764544 0)
(0.080088774 -0.0073393437 0)
(0.080460304 -0.008637528 1.7493649e-22)
(0.080045432 -0.0054185421 0)
(0.082145529 -0.0044861102 -1.8919794e-22)
(0.080739 -0.0057282497 -2.5477741e-20)
(0.076809141 -0.0055863405 2.6191723e-20)
(0.080818099 -0.0077472069 2.6916567e-20)
(0.090454616 -0.012374247 -2.8564957e-20)
(0.09268357 -0.014215483 2.9669902e-20)
(0.085268776 -0.012518435 -3.036256e-20)
(0.079764868 -0.0097455672 -3.1810708e-20)
(0.083477032 -0.0076697974 1.5931722e-22)
(0.09184171 -0.010521808 6.8876889e-20)
(0.098049525 -0.017934119 -3.5834229e-20)
(0.098580298 -0.026272124 0)
(0.096924993 -0.029968472 -3.8445613e-20)
(0.096914134 -0.025873783 7.9918452e-20)
(0.097791261 -0.017717929 -4.200537e-20)
(0.097642265 -0.011335931 0)
(0.096482827 -0.010862301 -8.7716194e-23)
(0.096032502 -0.017729343 4.657837e-20)
(0.10071945 -0.00011814221 0)
(0.094396173 -0.0008046782 0)
(0.097886485 -0.00096681446 0)
(0.095637059 -0.0008172439 1.2420765e-21)
(0.097130605 -0.00093695047 -2.1641718e-21)
(0.10032448 -0.0013565243 1.7942622e-21)
(0.10119754 -0.0015363827 -2.3347864e-21)
(0.099838846 -0.0015626546 -4.8520306e-22)
(0.096753957 -0.0014190369 -5.0588437e-22)
(0.093290747 -0.0011093694 -4.7434449e-21)
(0.09228895 -0.00076007344 3.8311049e-21)
(0.094124129 -0.0011514804 0)
(0.095868981 -0.0014502744 4.7435593e-21)
(0.095736669 -0.0018602337 7.8240573e-24)
(0.094054333 -0.001743394 -1.0581335e-20)
(0.091038376 -0.0015109749 5.3408319e-21)
(0.087409348 -0.0013612963 -3.4828485e-22)
(0.084305797 -0.00099128782 -3.6271163e-22)
(0.082237548 -0.00050437951 5.7013815e-26)
(0.08184763 0.00067140716 1.9610493e-22)
(0.083431401 0.00025210269 2.0375967e-22)
(0.085875147 -0.00093578029 2.1222044e-22)
(0.087001889 -0.00094154435 0)
(0.087563665 -0.0016666998 0)
(0.087538053 -0.0029143225 -1.5520166e-20)
(0.086145544 -0.0023278132 1.6043583e-20)
(0.086367777 -0.0036965058 0)
(0.085567346 -0.0037500719 0)
(0.084048871 -0.0043389045 0)
(0.083630327 -0.0053290286 1.4538686e-22)
(0.081476662 -0.004206907 0)
(0.080234078 -0.0070073204 2.0202644e-20)
(0.079326735 -0.0078179184 -2.0945197e-20)
(0.078686074 -0.0050193581 1.7023161e-22)
(0.080963245 -0.0069111355 -2.2890488e-20)
(0.080253547 -0.0080500185 2.3398679e-20)
(0.078458871 -0.005636249 0)
(0.081605672 -0.0042228764 2.5417346e-20)
(0.082126193 -0.0042491623 -2.6549191e-20)
(0.078226577 -0.0043519982 1.0747504e-22)
(0.080587998 -0.0083506334 2.8729042e-20)
(0.089250493 -0.01201461 -3.0107529e-20)
(0.093143158 -0.011613818 0)
(0.087578694 -0.0091772348 3.2466255e-20)
(0.08001342 -0.0087177624 -3.3552655e-20)
(0.080478837 -0.0091367276 2.7252407e-22)
(0.090138157 -0.011905734 0)
(0.10114916 -0.017022472 3.7474644e-20)
(0.10545204 -0.022800195 -3.9197051e-20)
(0.10030179 -0.026080566 4.1117272e-20)
(0.092447205 -0.023523999 -4.2319498e-20)
(0.088726593 -0.016930892 -4.4362977e-20)
(0.09109034 -0.011223165 9.1988174e-20)
(0.097360985 -0.010711477 -3.2352306e-22)
(0.10390004 -0.016460135 -3.6990832e-22)
(0.10098927 -0.00011487813 -3.8899181e-22)
(0.094555457 -0.00066001072 -4.0462863e-22)
(0.097998658 -0.00080122093 -8.4163024e-22)
(0.095737101 -0.00068604305 2.018096e-24)
(0.097209403 -0.00083738276 9.1290706e-22)
(0.10041123 -0.0011657533 1.891353e-21)
(0.10132933 -0.001337872 -1.9694788e-21)
(0.10001812 -0.0014279126 5.1131455e-22)
(0.096965246 -0.0013094302 2.6702469e-21)
(0.09342938 -0.00099381784 -6.106901e-21)
(0.092381401 -0.00065607552 2.9434513e-22)
(0.094211906 -0.0010854883 4.8062742e-21)
(0.096038802 -0.0014184079 3.1243988e-22)
(0.095945643 -0.0017854436 0)
(0.094265046 -0.0016245633 3.3786407e-22)
(0.091291517 -0.0014953869 -3.5241385e-22)
(0.087595476 -0.0012526955 4.7307888e-26)
(0.084359764 -0.0010775192 7.6455492e-22)
(0.082132313 -0.00034517744 -3.9784385e-22)
(0.081700888 0.00052757549 6.3950251e-21)
(0.083442347 0.00027374402 -1.3956887e-20)
(0.085877576 -0.00086778666 7.1643653e-21)
(0.08708429 -0.00081184749 0)
(0.087976759 -0.0016606065 -7.7402217e-21)
(0.087827375 -0.0026227726 7.7792543e-21)
(0.08648172 -0.0021604266 -2.6079634e-22)
(0.086728405 -0.0036360226 -2.7096627e-22)
(0.086002324 -0.0032266449 0)
(0.084664493 -0.0040971803 0)
(0.083849112 -0.0048522521 -1.5321813e-22)
(0.082188771 -0.0035627755 0)
(0.081405153 -0.0064417057 0)
(0.079040461 -0.0073092601 -2.2152283e-20)
(0.077990323 -0.0050116467 -1.3499086e-22)
(0.081239381 -0.0062719596 4.8087177e-20)
(0.080381335 -0.0064590863 -2.5040256e-20)
(0.077347567 -0.0050263244 0)
(0.08019443 -0.0044689437 1.0504938e-22)
(0.082227227 -0.0030653289 -1.0936676e-22)
(0.080045289 -0.0021410983 -1.1352005e-22)
(0.081613524 -0.0070294362 -3.0106772e-20)
(0.087829746 -0.011473289 3.1698642e-20)
(0.091679086 -0.010051362 0)
(0.089231282 -0.0065156094 0)
(0.083207886 -0.0059382423 -1.3867338e-22)
(0.080790498 -0.0094175403 -1.4386149e-22)
(0.087641741 -0.013550572 -3.7790958e-20)
(0.099475291 -0.017517507 4.0145557e-20)
(0.10753619 -0.019959632 4.1233675e-20)
(0.10458787 -0.01988576 -4.2453652e-20)
(0.094254438 -0.01797953 -8.6586732e-23)
(0.085368324 -0.014722664 4.6924144e-20)
(0.084738234 -0.012244289 -4.8132473e-20)
(0.092791977 -0.012710722 0)
(0.10448211 -0.016784062 -5.183461e-20)
(0.10112293 -6.8253827e-05 6.1497462e-22)
(0.094600158 -0.00053919359 -2.1310485e-22)
(0.098015632 -0.00070364083 4.43417e-22)
(0.095747516 -0.00062335248 4.6135944e-22)
(0.097198552 -0.00075436486 1.913927e-21)
(0.10041803 -0.0010130867 -3.4965252e-21)
(0.101407 -0.00118329 2.0757043e-21)
(0.10013947 -0.0013376438 0)
(0.097111409 -0.0012341461 2.5332412e-21)
(0.093519195 -0.0009547486 -2.0442538e-21)
(0.092407189 -0.00066718426 -6.0821323e-22)
(0.094215091 -0.0010551184 0)
(0.096095644 -0.0014353917 -6.5838985e-22)
(0.096096413 -0.0016676679 3.4197996e-22)
(0.094501132 -0.0016962014 -3.5593241e-22)
(0.091612534 -0.0016231051 6.9532416e-26)
(0.0879455 -0.0013662364 -5.814297e-21)
(0.084522064 -0.0013476297 1.2484696e-20)
(0.082034182 -0.00046166449 -6.6980883e-21)
(0.081563119 0.00010314014 0)
(0.083411991 -3.9364591e-05 -2.2626264e-22)
(0.085896583 -0.00080221055 0)
(0.087194346 -0.0010551699 -2.4497483e-22)
(0.088273873 -0.0020058578 0)
(0.088085331 -0.002517187 2.1066364e-26)
(0.086864839 -0.0021758213 2.7454642e-22)
(0.087097256 -0.0036284965 2.8560829e-22)
(0.086425862 -0.0030149148 9.5489364e-21)
(0.085327919 -0.0039319789 1.9363566e-23)
(0.084035719 -0.0044767518 -1.0352404e-20)
(0.082711706 -0.0035229098 2.14818e-20)
(0.082630662 -0.0059750219 -4.4833693e-20)
(0.079333649 -0.0066236413 2.3478783e-20)
(0.077556312 -0.0054426664 -1.8956777e-22)
(0.081032053 -0.0063793834 -1.9671997e-22)
(0.080627381 -0.0051302813 2.0479487e-22)
(0.077319523 -0.0042730329 0)
(0.078959533 -0.0054717899 1.1048769e-22)
(0.080937989 -0.0028314079 1.1509208e-22)
(0.081016383 -0.00042567995 0)
(0.083774523 -0.0047472762 -2.490388e-22)
(0.087616746 -0.010823351 0)
(0.089499941 -0.010132927 1.3452963e-22)
(0.088666222 -0.0058518358 -3.5863746e-20)
(0.086052765 -0.0039985824 3.7304875e-20)
(0.084110132 -0.007953687 0)
(0.08729772 -0.014305787 -7.8793722e-23)
(0.096172001 -0.018549432 0)
(0.10469354 -0.018699467 4.3454553e-20)
(0.10568425 -0.015193201 -4.4755638e-20)
(0.0983423 -0.011828828 9.1735299e-23)
(0.088420785 -0.010044731 0)
(0.083712987 -0.011367371 -4.9522848e-23)
(0.088757768 -0.014441709 0)
(0.099810169 -0.018722858 5.3621788e-23)
(0.10149913 -6.6178137e-05 -2.1608045e-22)
(0.094848538 -0.00046186262 6.7388305e-22)
(0.098201793 -0.00064401123 -4.6729433e-22)
(0.095900778 -0.00059101677 9.7005089e-22)
(0.097290677 -0.00062521134 -1.5196277e-21)
(0.10051372 -0.00084188813 1.8141446e-25)
(0.10154161 -0.001011819 -2.1828887e-21)
(0.10029545 -0.0012021767 2.2725159e-21)
(0.097277265 -0.0011589767 2.0771431e-21)
(0.093646452 -0.00088958378 -5.2387767e-21)
(0.092475441 -0.00066644376 3.2382224e-22)
(0.094275515 -0.00092470084 2.6683606e-21)
(0.096150014 -0.0013835262 -5.2034969e-21)
(0.096240467 -0.0014691449 5.4022493e-21)
(0.094739944 -0.0017031349 3.7499588e-22)
(0.091920924 -0.0016154613 -5.882856e-21)
(0.088306 -0.0013915878 6.5059112e-21)
(0.084747177 -0.0013640725 0)
(0.08207856 -0.00045582784 7.2909462e-21)
(0.08150326 -0.00015558165 -1.4666779e-20)
(0.083290523 -0.00019008173 2.2988936e-23)
(0.085810311 -0.00057342706 7.7067009e-21)
(0.087266378 -0.0011640449 8.7701082e-21)
(0.088463262 -0.002099141 -1.6917346e-20)
(0.088309492 -0.0022067052 9.1911558e-21)
(0.087286682 -0.0020731586 -1.4483684e-22)
(0.087457581 -0.0033734741 1.5039855e-22)
(0.086789138 -0.0028173454 9.8960961e-21)
(0.085897154 -0.0037048163 -1.0641242e-20)
(0.08429108 -0.0040377877 1.7054066e-22)
(0.083094741 -0.0036984492 0)
(0.083463327 -0.0054052013 1.1782197e-20)
(0.079887084 -0.0054472456 8.0542581e-23)
(0.0773897 -0.0055376977 -1.2643654e-20)
(0.080307485 -0.0064890348 3.09877e-22)
(0.080421112 -0.0038764235 -1.3843836e-20)
(0.078052328 -0.003099518 1.4332497e-20)
(0.078372056 -0.0058513146 -1.1630557e-22)
(0.078905768 -0.0027434383 1.2173172e-22)
(0.08046809 0.00056971739 0)
(0.085868162 -0.0022409729 -3.3489441e-20)
(0.089368849 -0.0089559641 3.5087482e-20)
(0.088135226 -0.010369268 -7.0657718e-23)
(0.08660357 -0.006137358 -3.7679433e-20)
(0.086731438 -0.0032273865 3.9148315e-20)
(0.087928633 -0.0054463899 7.9541761e-23)
(0.090173655 -0.012706118 8.3439047e-23)
(0.094476218 -0.01845654 4.403559e-20)
(0.099858361 -0.017961211 -4.612323e-20)
(0.10245084 -0.012694977 -1.8677235e-22)
(0.099626854 -0.0068662207 0)
(0.09334792 -0.0045602525 0)
(0.088527833 -0.0078897139 5.1823284e-25)
(0.089423376 -0.014164051 0)
(0.096532458 -0.020642451 -5.6624289e-23)
(0.10216762 -3.3628643e-05 -4.5499297e-22)
(0.095326911 -0.00041024707 -4.7329748e-22)
(0.098572151 -0.00060304861 1.9690377e-21)
(0.096212863 -0.00053653572 -1.0243442e-21)
(0.097513703 -0.00050101996 1.0623479e-21)
(0.10070314 -0.00071687556 -1.6656147e-21)
(0.10175228 -0.00089987773 -2.2996647e-21)
(0.10051337 -0.0010814421 2.3942719e-21)
(0.097485216 -0.0010795545 2.5002315e-21)
(0.093832114 -0.00080333415 -4.8692267e-21)
(0.092600066 -0.00069045853 2.3617933e-21)
(0.09438674 -0.00085032613 0)
(0.096262852 -0.0013206623 3.6535866e-22)
(0.096438058 -0.001357641 0)
(0.094999717 -0.0016358835 0)
(0.092193403 -0.0015764751 6.4028235e-21)
(0.088670198 -0.0014778433 -6.8532709e-21)
(0.085067115 -0.0013053275 -2.2348194e-22)
(0.082267226 -0.00062004981 2.3041451e-26)
(0.08151832 -0.00043549228 0)
(0.083151541 -0.00035097528 8.2701359e-21)
(0.085713031 -0.00058534923 -7.8614078e-21)
(0.087316341 -0.0012796296 -9.1837284e-26)
(0.088513773 -0.0021712355 8.629309e-21)
(0.08840806 -0.0019301931 -1.8794104e-20)
(0.0875895 -0.0020077875 9.4353728e-21)
(0.087652012 -0.0030233186 -1.0316326e-20)
(0.087013925 -0.0026909428 1.4620409e-22)
(0.086375181 -0.0034360206 1.1213824e-20)
(0.084676955 -0.0034859991 1.1162688e-20)
(0.083538228 -0.004001798 -1.1727754e-20)
(0.084111307 -0.005092797 0)
(0.080815721 -0.0043517684 -2.0207703e-22)
(0.077881742 -0.0056291259 1.4710479e-25)
(0.079604453 -0.0067108377 -1.0880724e-22)
(0.079840455 -0.0032196911 1.4685331e-20)
(0.079095741 -0.002321367 2.0101152e-23)
(0.078668181 -0.0056453095 -1.5687074e-20)
(0.076926604 -0.0031875056 1.6150453e-20)
(0.07870871 0.00055099011 -3.416308e-20)
(0.086581096 -0.0010732565 3.1506107e-22)
(0.092054361 -0.0068073213 3.69879e-20)
(0.088792543 -0.010026101 -1.9159603e-20)
(0.084710842 -0.0074977287 -7.7816897e-23)
(0.085250699 -0.003751996 -2.0574979e-20)
(0.089583449 -0.0042221133 2.1478029e-20)
(0.094078284 -0.010012195 0)
(0.095760459 -0.016829071 -2.3381291e-20)
(0.09609055 -0.017622921 2.4015386e-20)
(0.096720333 -0.012345419 1.9543102e-22)
(0.096563159 -0.0050924903 0)
(0.095603964 -0.0014666932 -5.4187602e-20)
(0.094836791 -0.004564582 6.7368099e-24)
(0.095158781 -0.012018375 5.9071972e-20)
(0.097822078 -0.02005993 5.9825335e-23)
(0.1027324 -6.39969e-05 -1.6386037e-26)
(0.095774371 -0.0004180588 -9.9718824e-22)
(0.098936574 -0.0005992459 0)
(0.096524806 -0.00049109438 5.3962351e-22)
(0.097755028 -0.00042009788 8.4187313e-22)
(0.10093171 -0.00063392378 8.7351932e-22)
(0.10201766 -0.00081512441 -3.6361494e-21)
(0.10079808 -0.00099964552 -3.1635735e-22)
(0.097763785 -0.0010208672 -3.3633032e-22)
(0.094079779 -0.00076578478 5.1289876e-21)
(0.092777268 -0.00073040088 -2.4876402e-21)
(0.09456017 -0.00077520342 -2.9528467e-21)
(0.096460158 -0.0012248302 2.312193e-21)
(0.096688797 -0.0013727398 0)
(0.095294394 -0.0015417096 0)
(0.092500254 -0.0014820858 -6.9605558e-21)
(0.088979482 -0.0015348211 -2.9258864e-23)
(0.085354891 -0.0011678497 7.7546278e-21)
(0.082485648 -0.00078305344 -2.451541e-22)
(0.081564966 -0.00056819504 8.1407823e-21)
(0.083045807 -0.0004397996 -8.4731102e-21)
(0.085665745 -0.00064006493 -2.754839e-22)
(0.087482182 -0.0012611665 -1.433237e-22)