/*--------------------------------*- C++ -*----------------------------------*\
| =========                 |                                                 |
| \\      /  F ield         | OpenFOAM: The Open Source CFD Toolbox           |
|  \\    /   O peration     | Version:  2406                                  |
|   \\  /    A nd           | Website:  www.openfoam.com                      |
|    \\/     M anipulation  |                                                 |
\*---------------------------------------------------------------------------*/
FoamFile
{
    version     2.0;
    format      ascii;
    arch        "LSB;label=32;scalar=64";
    class       volScalarField;
    location    "65";
    object      omega_0;
}
// * * * * * * * * * * * * * * * * * * * * * * * * * * * * * * * * * * * * * //

dimensions      [0 0 -1 0 0 0 0];

internalField   nonuniform List<scalar> 
20580
(
3.5539191
2.682735
2.179686
1.8330326
1.586782
1.4003805
1.2604867
1.148747
1.0583115
0.98313182
0.92116664
0.86779132
0.82241698
0.78306155
0.74943021
0.71986546
0.69461176
0.67382163
0.65469602
0.63825975
0.62639124
0.61136632
0.60093509
0.59163038
0.59119983
0.59010886
0.58953376
0.59045523
0.59357784
0.60237917
0.61986125
3.5766524
2.6920645
2.1860307
1.8417602
1.5977147
1.4088676
1.2691505
1.1550418
1.0635493
0.98760757
0.92567208
0.87227549
0.82662832
0.78734533
0.75327177
0.72324816
0.69779139
0.67662249
0.65864752
0.64176244
0.63319392
0.61842715
0.60768678
0.59664134
0.59417739
0.59432261
0.59612354
0.60141997
0.60312766
0.60692099
0.62035697
3.5750718
2.6955969
2.1851572
1.8446253
1.6022064
1.4154851
1.274359
1.1605572
1.0690168
0.99288964
0.93031768
0.87653405
0.83056163
0.79075899
0.75680117
0.72609091
0.70106106
0.67864403
0.66118832
0.64326078
0.63476008
0.62266853
0.6112697
0.60147971
0.59605894
0.59530171
0.59569763
0.60083732
0.60655849
0.61076619
0.62317251
3.5685143
2.6915584
2.1834536
1.8455066
1.6019868
1.4181207
1.2773957
1.164981
1.0737528
0.99836501
0.93483635
0.88085452
0.83440883
0.79435372
0.76012694
0.72906478
0.70404876
0.68142336
0.66337939
0.6462192
0.63477951
0.62497746
0.61441445
0.60485112
0.59866146
0.5971866
0.596612
0.59958928
0.60490662
0.60881744
0.61971446
3.5673202
2.6810515
2.1820556
1.8483047
1.6032707
1.4206468
1.2824907
1.1689208
1.0775009
1.0026739
0.93920757
0.88570415
0.83929274
0.79903524
0.76461375
0.73325825
0.70739763
0.6842717
0.66556931
0.64921677
0.63526658
0.62577392
0.61759722
0.60859369
0.60104841
0.60084235
0.60107458
0.60234336
0.60695763
0.6117519
0.6163494
3.5693928
2.6779483
2.1781846
1.849817
1.607265
1.4257612
1.2875249
1.1729945
1.0809056
1.0064517
0.94298347
0.88950954
0.84285576
0.80274759
0.76823329
0.73770979
0.71116427
0.68814516
0.66866229
0.65361828
0.63725841
0.62669919
0.61948798
0.61108302
0.60252422
0.60251698
0.6040135
0.60690363
0.61240729
0.62214978
0.62311195
3.5765445
2.676965
2.1646461
1.8429845
1.6045008
1.4256715
1.2875854
1.1772426
1.0857836
1.0101769
0.94637711
0.89241296
0.84566159
0.80533976
0.77026699
0.74045754
0.71386959
0.69112544
0.67186762
0.6575095
0.64157691
0.628567
0.62102676
0.61245702
0.60282791
0.60058325
0.60269604
0.60469432
0.61021877
0.62165828
0.63314915
3.579207
2.6750035
2.1550976
1.8215368
1.5902583
1.4197499
1.2869841
1.1801927
1.0932908
1.018741
0.95427829
0.89893832
0.85103585
0.80970222
0.77375519
0.7435382
0.71628962
0.69303919
0.67415733
0.65864086
0.64432014
0.63148163
0.62236598
0.61496192
0.60496166
0.59898381
0.5986997
0.59893831
0.6020119
0.61037604
0.628515
3.6644313
2.7083282
2.1679017
1.8179264
1.576704
1.4070583
1.2834504
1.179524
1.0956877
1.0242093
0.96302454
0.90940985
0.86269205
0.82059962
0.78320945
0.75177157
0.72239139
0.69766739
0.67782828
0.66038954
0.64644118
0.63352887
0.62467875
0.6175733
0.61084589
0.60208645
0.59911848
0.59976492
0.600038
0.60330716
0.614707
3.8945202
2.9793503
2.2503442
1.8458995
1.5860979
1.4020729
1.2693804
1.1647072
1.0819955
1.0140023
0.95809139
0.9087784
0.86476187
0.82566796
0.79027766
0.75907305
0.73120755
0.70502328
0.68571873
0.66553728
0.65144732
0.63864394
0.62819523
0.62241157
0.61612039
0.61137615
0.60549697
0.6066717
0.60713941
0.6098014
0.61558992
3.8126286
3.0831051
2.4287972
1.9508723
1.6419509
1.4273884
1.2768037
1.163475
1.0735774
1.0012208
0.94167741
0.89350479
0.85167753
0.81580726
0.78370793
0.75516334
0.72987284
0.70654286
0.68678391
0.66911933
0.65396225
0.64374537
0.63153769
0.62626031
0.62019566
0.61607458
0.61195977
0.6147668
0.6191151
0.62538503
0.62854178
3.5706124
2.9850871
2.5052962
2.1414973
1.8321161
1.578368
1.3798232
1.2338582
1.1242402
1.0372483
0.96540672
0.90689347
0.85736378
0.81697206
0.78134135
0.75153509
0.72473645
0.70347032
0.68377882
0.66754022
0.65325199
0.64384544
0.63125192
0.62513899
0.62084359
0.6159292
0.61060157
0.61157607
0.61740949
0.62419199
0.6323941
3.8063824
2.9252881
2.4532118
2.1197651
1.8849807
1.7243808
1.5901212
1.4615461
1.3440321
1.2353497
1.1337938
1.0433296
0.96149609
0.89332161
0.83264182
0.7853962
0.74602035
0.71677342
0.69107822
0.67166774
0.65543598
0.64484498
0.63171361
0.62439012
0.62080914
0.61616266
0.60847174
0.60614665
0.60991396
0.61570238
0.62250481
3.8309239
3.0127949
2.4494013
2.0831617
1.8313236
1.6710706
1.5568764
1.4570569
1.3652298
1.2837098
1.2108262
1.1435743
1.0813001
1.0213682
0.96330317
0.90805911
0.85349652
0.80617497
0.76228836
0.72496222
0.69361834
0.67132372
0.6506835
0.63731189
0.62923676
0.62332543
0.61473105
0.60995529
0.61123938
0.61584063
0.62084104
3.6240699
2.8645461
2.3805362
2.0510097
1.7982217
1.6179183
1.482005
1.3765276
1.2887161
1.2120858
1.1475364
1.0906445
1.0403933
0.99335259
0.95072591
0.91022333
0.8715308
0.84077792
0.8103258
0.78514659
0.75994197
0.7414554
0.72006015
0.70266737
0.68544387
0.67382575
0.65939273
0.64768776
0.63774085
0.63591167
0.6346463
3.7250039
2.9145011
2.3783549
2.0252671
1.7632158
1.5775685
1.4407375
1.3299194
1.2399468
1.165012
1.1010492
1.0469032
0.99551582
0.9515233
0.90780344
0.87483981
0.84141486
0.81682301
0.79230925
0.77489822
0.75570639
0.74104529
0.73023559
0.72152424
0.71372496
0.7097078
0.70714962
0.70327869
0.69847439
0.69494858
0.69095878
3.6525851
2.8659913
2.3765873
2.0257074
1.7672033
1.5792314
1.4355408
1.3166194
1.2193715
1.1379967
1.0672795
1.0091325
0.95610656
0.91256106
0.87247822
0.83950532
0.8087948
0.78318801
0.76137583
0.7459744
0.73196861
0.72020057
0.71329282
0.70823546
0.70311293
0.69946826
0.69957711
0.70046819
0.69894566
0.69646685
0.69551328
3.7693556
2.9116584
2.3883907
2.0331648
1.7736934
1.5835721
1.4381487
1.3217462
1.2247826
1.1427546
1.0722889
1.0104936
0.95615974
0.90808505
0.86581484
0.8287544
0.79722182
0.76832391
0.74396372
0.72502022
0.70917169
0.69433974
0.68531311
0.67876469
0.67250542
0.66761907
0.66698364
0.67001097
0.67142634
0.6705955
0.67181874
3.6236075
2.8157948
2.3402044
2.018345
1.7705379
1.5799484
1.4346735
1.3156374
1.2182556
1.1368167
1.0691987
1.0105388
0.96061865
0.9161445
0.87618833
0.83987519
0.80824446
0.77883469
0.75261171
0.73130039
0.71292149
0.69634123
0.68487074
0.67789417
0.67008947
0.66264449
0.66008106
0.66133347
0.66282359
0.661267
0.66009788
3.6663351
2.8693741
2.3538291
2.0177117
1.7707957
1.5867783
1.4459447
1.3262823
1.2305133
1.1498564
1.0845578
1.0262123
0.97873504
0.93937295
0.9027126
0.87033047
0.84145035
0.81719066
0.79373088
0.77012815
0.75099037
0.73337853
0.72153522
0.71445853
0.70888645
0.70291358
0.70121481
0.70186945
0.70335432
0.70233942
0.69388709
3.8466435
3.1353457
2.5136083
2.1562756
1.9532501
1.7607166
1.6084315
1.4803385
1.3905466
1.3157045
1.2565683
1.2038295
1.1617899
1.1210067
1.0827726
1.052622
1.0252887
1.0054999
0.98114528
0.95974258
0.93755468
0.92584695
0.91642935
0.91372964
0.91251478
0.90916974
0.90754656
0.90825682
0.9071438
0.90049752
0.86863504
4.3842446
5.216353
4.1329398
3.5968056
3.4872278
3.1992768
3.0202607
2.8130965
2.74237
2.6097069
2.5718503
2.4504898
2.4328064
2.3358007
2.2986563
2.2298376
2.2009086
2.1367406
2.0964209
2.0350367
2.0174297
2.0058086
1.9944343
2.0008001
1.9924853
1.9810774
1.9621576
1.95246
1.9299724
1.8928245
1.7753367
13.053615
14.262809
12.471214
11.531831
10.835299
10.515552
9.8098343
9.5093173
8.9677197
8.721164
8.3133594
8.116
7.7842226
7.6370655
7.341204
7.2298589
6.979383
6.8872323
6.6421821
6.5594779
6.3617907
6.2329995
6.0716911
5.9886311
5.8749407
5.743917
5.6320304
5.5474723
5.5030807
5.4195645
5.306372
5.516083
1.8851324
0.89525768
0.70251427
0.66143992
0.66775271
0.69617106
0.69946542
0.65402398
0.62736089
0.62666407
0.63841481
0.64144132
0.63311137
0.62887992
0.63858782
0.6454394
0.63948125
0.62928718
0.63084117
0.63741503
0.63887784
0.63313047
6.0814856
1.9796477
0.92842677
0.71940219
0.66920659
0.67078931
0.69903761
0.71106249
0.67190288
0.6372282
0.63175317
0.64671798
0.65835231
0.65355767
0.64205863
0.6452666
0.66152979
0.66017836
0.6502438
0.65132523
0.65879977
0.6622786
0.65558253
6.7875763
2.0812356
0.98266715
0.74793764
0.68280794
0.67634167
0.70034822
0.72306495
0.7011167
0.65745405
0.64628878
0.65749741
0.67436065
0.67053441
0.65476533
0.65417412
0.67010551
0.67768325
0.67505596
0.67098734
0.67238742
0.68128854
0.67906227
7.5228215
2.7295824
1.2257934
0.83409547
0.71749335
0.68833949
0.70480335
0.74728852
0.74124951
0.69343208
0.66609093
0.6700153
0.6959043
0.69427394
0.67918331
0.67172348
0.68014484
0.69716649
0.69890992
0.69298965
0.69104341
0.70119869
0.70043174
8.4306958
4.939843
2.243445
1.2316701
0.85648422
0.7347925
0.73194946
0.7706912
0.77411064
0.73823816
0.69010962
0.68345823
0.70929567
0.71564055
0.70891639
0.6972939
0.69949043
0.72138574
0.72327567
0.71626199
0.70893494
0.71022802
0.71865893
9.8677015
5.733871
2.3682042
1.3427884
0.9313363
0.78151449
0.75814779
0.79175902
0.79709363
0.76625604
0.71034281
0.69721329
0.7198702
0.73803011
0.73689917
0.72619062
0.72419789
0.7432042
0.74855668
0.74199359
0.73430596
0.73149128
0.74225032
10.852041
4.554047
2.1021943
1.2844126
0.93396401
0.80392511
0.77558101
0.81273962
0.81937252
0.79123632
0.73792772
0.71904228
0.73686607
0.76054257
0.76114324
0.758054
0.75311092
0.75564689
0.77077305
0.77194279
0.76998987
0.76904169
0.77015402
11.912343
3.5999263
1.7093901
1.1634562
0.93056642
0.82247261
0.79189271
0.83130628
0.83730035
0.81129091
0.77279494
0.75243728
0.76258754
0.79270117
0.78870712
0.77901036
0.77108911
0.76781853
0.79348935
0.7996299
0.7982859
0.79571236
0.7911557
13.004076
3.6634581
1.6381392
1.1380126
0.94418246
0.8524951
0.81828289
0.84909767
0.85358493
0.82694329
0.79875987
0.77846156
0.78214161
0.81929368
0.81608327
0.80234298
0.79385638
0.79022873
0.80765661
0.82095804
0.81740813
0.81935766
0.81902112
14.554488
4.196043
1.7286274
1.1855706
1.0055249
0.90565607
0.85620488
0.87972984
0.8832498
0.84974658
0.81615195
0.79674017
0.79806589
0.84343125
0.8535209
0.84364797
0.8403735
0.837831
0.83978192
0.86142069
0.86013657
0.85314568
0.85452449
16.588706
6.2285428
2.2669443
1.3736363
1.1346097
1.0162847
0.9305328
0.93609882
0.93005753
0.89712961
0.84465478
0.82478713
0.82178012
0.86223721
0.88664959
0.88252052
0.8763291
0.87481606
0.87422323
0.89561553
0.89627273
0.87950883
0.87947464
18.574661
9.3212914
3.9787695
2.0896338
1.4661552
1.2244453
1.0606175
1.0432449
1.0265078
0.99176122
0.91977925
0.8820084
0.86334843
0.88194917
0.92376033
0.92504231
0.91488302
0.92160769
0.92143163
0.93277776
0.94270636
0.93029626
0.91931967
20.029973
10.569371
5.495296
3.2206777
2.1553395
1.6732821
1.3414254
1.2020567
1.1500415
1.0849852
1.0125217
0.96742666
0.92653629
0.92559833
0.96439395
0.96698854
0.94891185
0.95262834
0.95283295
0.956314
0.98152615
0.97958279
0.95813184
20.591868
10.656339
5.9104755
3.7061692
2.5623557
2.0364836
1.6502323
1.3565367
1.2548061
1.1701339
1.0960653
1.066608
1.0064194
0.98665963
1.0208076
1.0215318
0.99756988
0.98776417
0.98221173
0.97840158
1.0025286
1.0107162
1.0003001
20.596075
10.407513
5.807764
3.7019374
2.6649072
2.2106134
1.8547156
1.4866142
1.3633405
1.2589082
1.1735982
1.1533466
1.1012548
1.0654659
1.0926004
1.0946623
1.0663661
1.0361783
1.0314393
1.0234411
1.0490692
1.0649934
1.0595122
20.625758
10.029171
5.4948511
3.5359419
2.6364294
2.2810852
1.992388
1.6113814
1.4768075
1.3409882
1.2427765
1.2266037
1.1911907
1.1451238
1.166447
1.1801545
1.1550321
1.1173605
1.1162552
1.0982308
1.098402
1.1069035
1.1072994
20.880706
9.804225
4.9898601
3.1788961
2.5265748
2.3216526
2.0743642
1.7239789
1.5679333
1.3875464
1.2853299
1.2717543
1.2478788
1.2029742
1.2162666
1.2374129
1.2073889
1.1611569
1.1616853
1.1430574
1.1425005
1.1568877
1.1515581
21.054481
9.7246679
4.6350252
2.89507
2.4141283
2.351246
2.1536894
1.8121598
1.6398665
1.4299447
1.3126524
1.2897738
1.2712241
1.2347727
1.2436807
1.268143
1.2484164
1.2149297
1.2237789
1.2132928
1.2115131
1.2265126
1.2049037
20.961979
9.7215192
4.4160419
2.7257004
2.3632271
2.3801559
2.2329913
1.9213904
1.759247
1.5086757
1.3359086
1.3097536
1.2962964
1.2704154
1.2912255
1.3199945
1.3002474
1.259334
1.2777936
1.2793191
1.2839875
1.2928695
1.2587772
20.604094
9.7381368
4.3120142
2.6765578
2.3752333
2.441922
2.3819808
2.1633212
1.9609034
1.5581561
1.3765144
1.3635607
1.3653942
1.3709252
1.4178894
1.4204259
1.3479395
1.3050932
1.3380287
1.3453772
1.3563726
1.3589554
1.3068918
19.938579
9.7626729
4.305247
2.7013736
2.4302941
2.5844396
2.6144457
2.4068725
2.0911992
1.5924781
1.4196055
1.4430137
1.4961194
1.5187148
1.5361963
1.4949298
1.3634718
1.3329221
1.3886253
1.429167
1.4443623
1.4221989
1.3281844
18.938805
9.6751171
4.3044568
2.7515582
2.5235779
2.7325371
2.7995152
2.5534206
2.1605586
1.6202747
1.4531559
1.5059731
1.5765878
1.5974757
1.596552
1.5262701
1.3903367
1.397565
1.4888631
1.5170092
1.5106126
1.4607044
1.3563247
17.656188
9.4869813
4.2985415
2.8579016
2.6763314
2.9768707
3.0783399
2.7503335
2.2039169
1.6526407
1.4985084
1.5602261
1.6499744
1.6790542
1.6763251
1.5473375
1.4314936
1.4594214
1.5768511
1.6033358
1.5892847
1.4740301
1.3966856
16.174215
9.2920354
4.3448458
3.0416017
2.8793382
3.2547954
3.4425157
3.033091
2.2460032
1.703771
1.5794325
1.7069109
1.8348391
1.8519779
1.7831798
1.5750546
1.5117921
1.6078741
1.6953184
1.7019359
1.6553678
1.5045082
1.4793649
14.662674
9.2334735
4.5237262
3.2914671
3.134278
3.5036071
3.7311886
3.2720697
2.3069896
1.8023578
1.7364002
1.9157073
2.0337561
2.0389877
1.8630746
1.6235399
1.5937325
1.7493536
1.8030357
1.8097601
1.6739442
1.542209
1.5685305
13.336197
9.3681022
4.9174253
3.60635
3.3977619
3.6528891
3.8461953
3.4102624
2.3841454
1.9204461
1.8960737
2.1243244
2.2118379
2.1454338
1.9106959
1.7314147
1.7894723
1.9475787
1.9700936
1.9057233
1.697128
1.6252355
1.7586564
12.111314
9.3928392
5.3381634
3.8838044
3.5939404
3.7505204
3.9172128
3.4565211
2.4613574
2.1169779
2.1289495
2.2802307
2.3126756
2.2706368
1.9752845
1.8719793
1.9901142
2.0784782
2.0697243
1.949559
1.7606279
1.7973328
1.8861476
10.958519
8.974806
5.5488631
4.0734895
3.7482701
3.8439394
3.9367203
3.4382478
2.5248601
2.2774256
2.3323885
2.4651278
2.4786404
2.3401861
2.0481802
2.0005506
2.2039869
2.2569333
2.2273057
1.9863879
1.8971438
2.0044035
2.035881
9.9422382
8.0617354
5.4127694
4.1072318
3.7805432
3.8416143
3.8955908
3.3277743
2.6159568
2.4580242
2.5746282
2.6146435
2.5548962
2.3855696
2.1711791
2.2655526
2.3793133
2.3660317
2.2720659
2.083756
2.112931
2.1371906
2.1047785
8.8690637
7.1725955
4.9954441
3.9743894
3.7247036
3.7578477
3.7738195
3.2590535
2.6922428
2.5656986
2.6302282
2.6968848
2.697978
2.4782317
2.3660369
2.4720863
2.5352442
2.5318851
2.3201003
2.2135729
2.2127636
2.2190698
2.1938358
7.9458212
6.4193148
4.5557022
3.7949346
3.6273311
3.6261073
3.6024136
3.164032
2.7592951
2.692875
2.7401387
2.7818524
2.756327
2.5865728
2.5543408
2.657958
2.6913186
2.5645406
2.3734687
2.3323447
2.3375083
2.336241
2.250195
7.3043418
5.7682383
4.2659515
3.6569641
3.5026019
3.4772725
3.4266801
3.0801239
2.8725195
2.8125088
2.7746162
2.7860477
2.8027115
2.7486366
2.7094554
2.6864781
2.686994
2.5941336
2.5004597
2.4534296
2.4099701
2.3734652
2.359004
6.8169394
5.0568099
3.9393623
3.5052687
3.3835126
3.3714798
3.309737
3.0200078
2.8731961
2.8009816
2.7602567
2.8138421
2.8608364
2.7899094
2.6694023
2.6485523
2.7245618
2.7351886
2.5711849
2.4848546
2.4693611
2.5070563
2.5180795
6.2960361
4.3953104
3.5326485
3.3037015
3.2437322
3.1855338
3.0745348
2.9153936
2.8378216
2.724866
2.69871
2.8059677
2.8369215
2.7327897
2.6441874
2.6983315
2.7758707
2.729529
2.5849071
2.5688095
2.6004328
2.5775142
2.5358536
5.6837528
3.6918631
3.0934506
2.9736188
2.9328178
2.888551
2.8582442
2.8098384
2.7333118
2.6314351
2.6333793
2.7750742
2.8397856
2.7308179
2.6634733
2.7524672
2.8078147
2.6909999
2.5941328
2.5945933
2.6215841
2.6135534
2.609802
5.3756543
3.3515681
2.8387544
2.7241315
2.6342775
2.6010311
2.6474523
2.6965185
2.6584006
2.5439684
2.5535018
2.6989274
2.8017296
2.7205221
2.6371064
2.7265666
2.8026351
2.7220912
2.5479469
2.5443113
2.6098196
2.6397508
2.6031147
5.4269536
3.1939691
2.7095658
2.5832312
2.4401996
2.3965737
2.4742662
2.5886211
2.5909193
2.4910806
2.4737925
2.5662693
2.7172292
2.6828012
2.565475
2.5985964
2.7358136
2.7022124
2.5563466
2.4825091
2.52335
2.5917167
2.5801543
5.5401268
3.1484975
2.6806194
2.5545245
2.3635073
2.2980502
2.3816712
2.4936561
2.5081358
2.4326057
2.398818
2.4577424
2.6089598
2.6042867
2.4778809
2.4668962
2.592377
2.6570332
2.5881779
2.4466798
2.4470863
2.5155855
2.5337753
5.6119289
3.1405353
2.6881937
2.5802997
2.367051
2.269855
2.3318647
2.4308449
2.4359259
2.3533362
2.3038216
2.3486735
2.5045973
2.5074024
2.4139501
2.3539566
2.4059982
2.5519626
2.5570092
2.464845
2.4034495
2.4257245
2.4751819
5.5491504
3.1537571
2.740984
2.6597393
2.407675
2.2622224
2.258057
2.323178
2.3322314
2.245081
2.1554493
2.1880298
2.3516895
2.4184012
2.3791963
2.2718263
2.2836146
2.3770383
2.4763914
2.4453693
2.3571346
2.3571471
2.3842197
5.4943082
3.195574
2.7709709
2.7106324
2.5075919
2.270369
2.1986377
2.1848716
2.1953733
2.1310559
2.0063325
2.0237387
2.1165308
2.2898671
2.2982862
2.2377748
2.1885638
2.2179037
2.3217559
2.3756226
2.3224287
2.285032
2.3025165
5.5010666
3.3708645
2.8153518
2.7160772
2.5794747
2.3648791
2.1964473
2.124924
2.0880636
2.0461786
1.9347893
1.8951732
1.9434142
2.0648514
2.1779201
2.1587066
2.1097234
2.111893
2.1485198
2.2401689
2.2537128
2.2381749
2.2485032
5.6527687
3.8243673
2.9842772
2.7417735
2.6212237
2.4783882
2.2887685
2.1442204
2.0646962
1.9966404
1.9068404
1.8211848
1.8025102
1.8441899
1.9267013
1.9957659
1.9901235
1.9938905
2.0127032
2.064585
2.1303434
2.1575451
2.1972193
5.7274709
3.8441583
3.0373488
2.7500132
2.6343497
2.5231208
2.3984858
2.2433415
2.1001201
1.9867533
1.8796546
1.7695238
1.6804964
1.6708295
1.6943305
1.7432115
1.7773638
1.8052407
1.8434957
1.8780197
1.9392401
1.9837482
2.0804225
5.841876
3.4932567
2.9561294
2.705851
2.5965302
2.5052825
2.405935
2.2919515
2.1560866
1.9886652
1.8428837
1.7096685
1.60034
1.5511027
1.5457883
1.5572666
1.5783157
1.6050734
1.6568398
1.6868389
1.7369702
1.7744859
1.8803198
6.1134836
3.2017949
2.5638869
2.4593886
2.40783
2.3847809
2.3407174
2.2635343
2.148784
1.9652703
1.7619026
1.604768
1.5050276
1.4508977
1.4335012
1.4306731
1.4356811
1.4493425
1.4839798
1.5095369
1.5515461
1.5807603
1.6698111
6.7937627
3.1973909
2.2672761
2.1021641
2.1008346
2.1090036
2.1191577
2.0982431
2.0113851
1.792685
1.5636402
1.4343711
1.3714262
1.3363043
1.324625
1.3157991
1.3157243
1.3222546
1.3433839
1.3601397
1.3924255
1.4157551
1.4875888
7.0314834
3.1082002
2.0669687
1.7969092
1.7681797
1.7614974
1.7405709
1.6984512
1.6090118
1.4618681
1.3376035
1.2623233
1.2312258
1.2189934
1.2145439
1.2094573
1.2098721
1.2147007
1.2283581
1.2406827
1.2649063
1.2835251
1.3392617
7.0158641
2.6062073
1.6538189
1.4596132
1.4283299
1.4210384
1.3963491
1.3633211
1.3025454
1.2269321
1.1625966
1.1299648
1.118838
1.1168437
1.1180709
1.1175105
1.1182058
1.1218938
1.1317095
1.1392275
1.1542652
1.1687895
1.2122788
6.7437821
2.52694
1.4856272
1.276114
1.2238397
1.2247705
1.2106886
1.1806533
1.1316853
1.0840746
1.0468739
1.0252919
1.0183144
1.0172171
1.0182993
1.0209168
1.0245603
1.0270632
1.0286461
1.0308378
1.0395635
1.0532008
1.10209
6.8732462
3.0009169
1.6065216
1.2814942
1.1947619
1.1874844
1.1682516
1.123171
1.0619207
1.0088929
0.95897164
0.91110769
0.87906604
0.86573981
0.86341217
0.86359353
0.86350115
0.86309764
0.86606218
0.86924186
0.87816245
0.88672083
0.93389215
7.2146179
3.7396961
2.0776504
1.4738278
1.2794473
1.2364139
1.1884077
1.1202759
1.0359737
0.94331059
0.83573266
0.74653204
0.69511026
0.6758924
0.67194756
0.67291139
0.68297941
0.69982643
0.71835629
0.72991244
0.74398122
0.74964449
0.77809252
7.9962667
3.7660598
2.2612306
1.694162
1.4181327
1.2878768
1.1909005
1.1020779
0.97256871
0.79557971
0.66126444
0.5931868
0.57104189
0.56971521
0.57884858
0.60052541
0.62979079
0.65453416
0.67865444
0.696845
0.71056551
0.72743367
0.73678259
8.1854825
3.6152874
2.2488682
1.6943669
1.3935669
1.2171241
1.0689994
0.91220524
0.73556641
0.61652656
0.56790117
0.55655353
0.55985414
0.57392841
0.59831268
0.62574328
0.65475944
0.67875567
0.70140888
0.71996917
0.73604328
0.75481687
0.7649159
8.5014293
3.7254844
2.1962131
1.5088146
1.1027069
0.85688198
0.71190445
0.63478066
0.59580739
0.58328317
0.58371059
0.60176669
0.63098325
0.66060989
0.68726855
0.70918455
0.72741451
0.74309057
0.75856615
0.77225325
0.78549378
0.7979699
0.80638746
8.7437843
3.8954376
2.0389706
1.0900485
0.7193036
0.61186662
0.59069348
0.59386704
0.6065701
0.62845011
0.6556797
0.68018444
0.70181611
0.72135073
0.73782649
0.75155827
0.76368617
0.7748209
0.78582412
0.79566742
0.80542744
0.81484581
0.8212697
8.9646305
3.9344738
1.6985542
0.77661821
0.59665021
0.58301615
0.5961409
0.62321832
0.65286144
0.6783391
0.70026744
0.71915576
0.73460384
0.74703914
0.75712174
0.76523135
0.7731184
0.78101833
0.78909544
0.7984585
0.81131704
0.82278542
0.8255969
9.1015748
3.9628685
1.3010236
0.67558528
0.59952941
0.61059672
0.6424919
0.67066968
0.69318837
0.71203993
0.72738455
0.7393903
0.74821955
0.75405085
0.75886314
0.76384938
0.76938397
0.77660848
0.78519122
0.79629578
0.80968083
0.8122478
0.82434726
9.2876602
3.7216247
1.1185852
0.68492819
0.64426101
0.6615788
0.68574073
0.70599949
0.72177823
0.7338949
0.74258954
0.74795925
0.75046267
0.75222314
0.75386722
0.75624245
0.75908494
0.76251192
0.76519803
0.77227771
0.78767256
0.79588968
0.86934813
9.2870066
3.3579723
1.1202688
0.75189888
0.69942575
0.70383215
0.71858709
0.73200832
0.74162361
0.74768008
0.75046379
0.74959245
0.74748792
0.74486855
0.74205708
0.73550957
0.72661099
0.72342665
0.7361697
0.7525048
0.77683159
0.79448501
0.90416045
9.4960438
2.8975379
1.1341034
0.80928687
0.74405908
0.73726095
0.74398642
0.75114242
0.75500796
0.75548204
0.75222957
0.74644307
0.7389445
0.72927041
0.70922421
0.6924208
0.69065981
0.7003388
0.71998342
0.73787977
0.76840516
0.79529277
0.89191656
9.6643429
2.4255802
1.1232372
0.84545585
0.77835201
0.76477743
0.76485804
0.76627951
0.76493812
0.75972497
0.75054289
0.73815675
0.7223678
0.68914259
0.66975312
0.66613463
0.67208293
0.68307133
0.69989565
0.71964457
0.7514381
0.78466938
0.85179864
9.7477486
2.1754506
1.1257394
0.87443046
0.80485128
0.78621
0.78118495
0.77802365
0.77188462
0.76147637
0.74725646
0.72731732
0.68362876
0.65614113
0.65068879
0.65173685
0.65692627
0.66527526
0.67789555
0.6973329
0.72675756
0.76132132
0.81108043
9.7797314
2.1116037
1.1463744
0.90058517
0.826049
0.80227005
0.79329377
0.78652741
0.77624518
0.76089033
0.74017527
0.70289019
0.65592772
0.64121314
0.63912301
0.63959154
0.64171278
0.6464823
0.65551804
0.67219114
0.69770128
0.72926746
0.76738052
9.7761928
2.0912969
1.1699533
0.92506379
0.8456641
0.8168458
0.80373199
0.79285451
0.77834262
0.75880196
0.73148802
0.67964562
0.64649533
0.63516851
0.62987483
0.62779379
0.62774954
0.62927591
0.634431
0.64636564
0.66617476
0.69311209
0.72343848
9.7468233
2.1007309
1.1965651
0.94781904
0.86260135
0.8286117
0.81167178
0.79716031
0.77893185
0.75626173
0.7205014
0.66763846
0.6447398
0.63472768
0.62563516
0.61847824
0.61569501
0.61515719
0.61654407
0.6226319
0.63580093
0.65625552
0.67972984
9.698576
2.1264223
1.2199334
0.96584985
0.87570711
0.83792203
0.81769227
0.80000724
0.77849751
0.75209743
0.71143236
0.66610268
0.64534593
0.63499691
0.62334598
0.61386996
0.60715502
0.60348516
0.60294922
0.60458182
0.61034221
0.62187523
0.63810254
9.6079681
2.1452226
1.2405301
0.98247868
0.88780514
0.84616126
0.82238401
0.80123964
0.77664862
0.74669821
0.70596951
0.6689276
0.64930381
0.63574042
0.62191201
0.61065637
0.60099553
0.59417926
0.59058316
0.58950624
0.59021963
0.59454652
0.60376921
9.4787992
2.1597426
1.2601021
0.99952296
0.90115185
0.85644823
0.82913049
0.80356364
0.77539753
0.74319413
0.70725819
0.67837795
0.65831397
0.6385741
0.62206341
0.60904074
0.59625248
0.58669692
0.58186425
0.57790243
0.57482156
0.57420056
0.57591905
9.3522295
2.1702242
1.2764032
1.0156155
0.91461747
0.86631337
0.83475015
0.80591873
0.77513136
0.74101073
0.70917285
0.68684546
0.66754648
0.64572268
0.62517703
0.60889072
0.59445413
0.58256709
0.57464027
0.56928688
0.5646239
0.55944025
0.55748806
9.214302
2.1721379
1.2892217
1.0285396
0.92538158
0.87540203
0.84212171
0.80984383
0.77551649
0.74105558
0.7133593
0.69447702
0.67500758
0.65369164
0.63254335
0.61252743
0.59518336
0.5812702
0.57030312
0.56234562
0.55707609
0.55108786
0.54530273
9.0842137
2.170547
1.3011828
1.0433717
0.93925945
0.88689191
0.85015361
0.81458352
0.77820423
0.74572134
0.7222476
0.70491179
0.68444456
0.66341201
0.64232814
0.62084638
0.60037811
0.58381945
0.5709038
0.56032033
0.55208582
0.54569466
0.53939798
8.9767641
2.1749045
1.3152914
1.0604258
0.95767832
0.90439195
0.86474599
0.8254447
0.787661
0.75938245
0.74002073
0.7197794
0.6978268
0.67686995
0.65569231
0.63393158
0.61205145
0.59175566
0.5757182
0.5626775
0.5519503
0.54249398
0.53446679
8.8870176
2.1753403
1.3352742
1.092732
0.9955854
0.94134644
0.89491416
0.85147515
0.816992
0.79116971
0.76604473
0.74193545
0.71914452
0.69700398
0.67521943
0.65363459
0.6314016
0.60890452
0.58799538
0.57088146
0.55605646
0.54276933
0.53130408
8.792066
2.186894
1.3780764
1.1461379
1.0536569
1.0007767
0.95371462
0.90845788
0.86990786
0.83642548
0.80460957
0.77639857
0.75062388
0.72765046
0.70515533
0.68320099
0.66130542
0.63946162
0.6167267
0.59370278
0.57312458
0.55658592
0.54355451
8.8031117
2.2175028
1.4266182
1.2014036
1.1088124
1.0504881
0.99937989
0.95429466
0.91400628
0.87610746
0.84314163
0.81457918
0.78989038
0.76679807
0.74611135
0.72600486
0.70624791
0.68489236
0.66314148
0.64014829
0.61600111
0.59155602
0.56700727
8.845902
2.259599
1.4581501
1.2325902
1.1423913
1.078767
1.0254999
0.97974968
0.94010929
0.90549172
0.87573791
0.85100946
0.82937327
0.8105922
0.79198249
0.77535891
0.75912201
0.74239192
0.7229466
0.70143575
0.67954092
0.65876459
0.63703989
8.6994841
2.3037386
1.4975305
1.2715731
1.1784981
1.1144515
1.0622315
1.0180096
0.97900077
0.94668718
0.919762
0.89803576
0.87814329
0.86039441
0.8443027
0.8298959
0.81621984
0.8022305
0.78717802
0.7706842
0.75282277
0.73449382
0.71609203
8.618294
2.4404323
1.6014487
1.3656823
1.2655646
1.2004883
1.1456911
1.0988107
1.0546431
1.0169901
0.98564825
0.96027939
0.93892848
0.91969287
0.90257331
0.88677533
0.87291638
0.85928522
0.847044
0.83464519
0.82275978
0.80974804
0.79636858
8.8803291
2.6098675
1.664012
1.4184645
1.3341792
1.2636965
1.2127266
1.1609578
1.1158394
1.0758861
1.0403869
1.0120951
0.9886443
0.96860287
0.94891128
0.93160536
0.91632185
0.90329493
0.89100995
0.87955856
0.86980976
0.86183484
0.85362054
9.4430645
2.580543
1.653464
1.4190252
1.3402844
1.2711661
1.223649
1.1731278
1.1288713
1.0924693
1.0606662
1.0354289
1.0117288
0.99153918
0.97260377
0.95579246
0.94041646
0.92659074
0.91475512
0.90362045
0.89427698
0.88594536
0.87872644
9.7613401
2.5889232
1.6704156
1.4326481
1.3474621
1.2821906
1.2280257
1.1801021
1.1393543
1.1052248
1.0748418
1.049696
1.0257445
1.004666
0.98485211
0.9667118
0.95078111
0.93627666
0.92423513
0.91283518
0.903867
0.89654176
0.88957346
9.7577531
3.1602232
1.7755397
1.4704546
1.3632994
1.2951863
1.2367659
1.1873015
1.1480196
1.1147665
1.0846274
1.0582141
1.034078
1.0121808
0.99102468
0.97109338
0.95360503
0.93855056
0.92586262
0.91364377
0.90353002
0.89611917
0.89044251
10.368598
3.2698191
1.7630627
1.4567624
1.3533092
1.2863069
1.2306239
1.1821505
1.1432576
1.1107855
1.0816144
1.0552665
1.0309743
1.0089245
0.9879736
0.96811998
0.95007802
0.9341208
0.9200043
0.90668745
0.89495919
0.88500692
0.87467926
11.474089
2.8651983
1.6919147
1.4067713
1.3150896
1.2561507
1.2061829
1.162409
1.1250715
1.0933454
1.0654778
1.0405907
1.0168493
0.99363123
0.97182694
0.95154305
0.93259911
0.91402935
0.89611588
0.87965872
0.86499643
0.8516858
0.84102813
11.976239
2.8499267
1.6958595
1.3725588
1.2492617
1.1913643
1.1499762
1.1155449
1.0854361
1.0587642
1.03376
1.0103952
0.98749643
0.964321
0.9420248
0.92065797
0.90017201
0.87932388
0.85899916
0.84069743
0.82454733
0.80904472
0.79394791
12.218215
3.0933436
1.7541067
1.3829863
1.2348635
1.1524279
1.0982775
1.05831
1.0265669
0.99998029
0.97615744
0.95394672
0.93249816
0.91128123
0.89049372
0.87017272
0.85013259
0.82998698
0.81015082
0.79172782
0.774864
0.75859829
0.74176871
12.054403
3.6333012
1.9033026
1.4287008
1.2471033
1.1542671
1.0928317
1.0447842
1.0049732
0.97064466
0.94001628
0.91203459
0.88629445
0.86226131
0.83957134
0.81797177
0.79726099
0.77730766
0.75838009
0.74104908
0.72576689
0.71260423
0.69941452
11.684382
4.8442825
2.2474545
1.5590184
1.3009446
1.1803698
1.1079441
1.0551994
1.0121136
0.97490801
0.94163058
0.91120214
0.88278233
0.85607461
0.83078226
0.80677027
0.78405767
0.76258879
0.74244583
0.72392525
0.70738317
0.69277551
0.67885326
11.119036
5.9661095
3.1437684
1.9231656
1.4726973
1.2743235
1.1678839
1.0988306
1.0463846
1.0026466
0.96414095
0.92928656
0.89754035
0.8684233
0.84130962
0.81580336
0.79169192
0.76905859
0.7479551
0.72852122
0.71106898
0.69489014
0.67378085
9.6830265
5.986119
3.9458636
2.8371839
2.0569777
1.5928796
1.3616074
1.232115
1.1475715
1.0847649
1.0334312
0.98894516
0.9492338
0.91355549
0.88109677
0.85128103
0.82349425
0.79754378
0.77346666
0.75116497
0.73179268
0.71184878
0.69226868
8.3106166
5.3000288