/*--------------------------------*- C++ -*----------------------------------*\
| =========                 |                                                 |
| \\      /  F ield         | OpenFOAM: The Open Source CFD Toolbox           |
|  \\    /   O peration     | Version:  2406                                  |
|   \\  /    A nd           | Website:  www.openfoam.com                      |
|    \\/     M anipulation  |                                                 |
\*---------------------------------------------------------------------------*/
FoamFile
{
    version     2.0;
    format      ascii;
    arch        "LSB;label=32;scalar=64";
    class       volScalarField;
    location    "65";
    object      p;
}
// * * * * * * * * * * * * * * * * * * * * * * * * * * * * * * * * * * * * * //

dimensions      [1 -1 -2 0 0 0 0];

internalField   nonuniform List<scalar> 
20580
(
1.0071805
1.0031359
1.0077268
1.0026014
1.0061754
1.0019625
1.003366
1.0030482
1.0046328
1.0019623
1.0045827
1.0048747
1.0039999
1.0035281
1.003959
1.0029865
1.0019413
1.0061792
1.0005024
0.99897996
1.0044487
1.0035041
0.99957163
1.0004811
1.0063556
0.99741518
0.9953011
1.0022032
0.99780925
0.99207868
1.0029767
1.0073308
1.0027206
1.0072282
1.0022396
1.0064337
1.0016173
1.0034309
1.0030095
1.0047419
1.0019512
1.0044568
1.0051125
1.0036481
1.0040149
1.0046026
1.0023455
1.0032302
1.0065988
0.99780814
1.0004231
1.0060384
1.0015478
1.0002556
1.0012516
1.0053363
0.99540103
0.99061932
1.0029421
1.0040549
0.99291453
0.9922141
1.0063101
1.0036644
1.0058416
1.0031299
1.0057659
1.002224
1.0032745
1.0031348
1.0038674
1.0028556
1.0042121
1.0049284
1.003379
1.0044495
1.0047929
1.0020946
1.004208
1.0063245
0.99663491
1.0017756
1.0061398
0.999673
1.0003948
1.0008146
1.0036791
0.99579674
0.9896
1.0026634
1.0088155
0.99520853
0.98395415
1.0044773
1.0056576
1.0042414
1.0049533
1.0044689
1.0034549
1.003033
1.0032547
1.0024786
1.0040345
1.0039832
1.0045273
1.0034635
1.0048893
1.0045868
1.0023217
1.0047838
1.0050334
0.99696228
1.0030233
1.0047564
0.99798713
1.0008218
0.99943041
1.0011919
0.99869904
0.99206883
1.0014846
1.0108973
0.99922338
0.98069844
1.0026294
1.007927
1.0033005
1.0066977
1.0031475
1.004718
1.0028991
1.0031524
1.0016514
1.0045236
1.0038496
1.0042145
1.0039612
1.0049647
1.0043988
1.0029278
1.0052776
1.0033068
0.99826934
1.0045923
1.002931
0.99624037
1.0022519
0.99806319
0.99731629
1.0025212
0.99761879
0.99839757
1.0076515
1.0050528
0.98654573
1.0015429
1.0095428
1.0034517
1.0076645
1.0024604
1.0053608
1.0030459
1.0029306
1.0018733
1.0040548
1.0039102
1.0039032
1.0046193
1.0048823
1.0041119
1.0035979
1.0050572
1.0015458
1.0004681
1.0053236
1.0012253
0.99603741
1.0042649
0.99779248
0.99333636
1.0043084
1.0046065
0.99488552
0.99767735
1.0053223
1.000068
1.0016318
1.0096802
1.0045205
1.007657
1.002823
1.0050696
1.0033693
1.0027558
1.0028541
1.0033036
1.0038937
1.0036006
1.0054774
1.0046557
1.003949
1.0044072
1.0047526
1.0000287
1.0026224
1.0053969
0.99978868
0.99700058
1.0055668
0.99924016
0.99115235
1.0027153
1.0097293
0.99457781
0.98654654
0.99657493
1.0086549
1.0029205
1.0081997
1.0058442
1.0064912
1.0040034
1.0041358
1.0035602
1.0026405
1.0039231
1.0029629
1.0037382
1.0035637
1.0058242
1.0045646
1.0037822
1.0049376
1.0042456
0.99921115
1.0044406
1.0048267
0.99920107
0.99773223
1.0058134
1.0013543
0.99157032
0.99926355
1.0098492
0.99797018
0.98156126
0.98584372
1.0061384
1.0049147
1.0057889
1.0066643
1.0045575
1.0054087
1.0030911
1.0034329
1.0026604
1.0042346
1.003143
1.0036483
1.0040147
1.0053441
1.0044705
1.0038363
1.0051309
1.0042254
0.99939432
1.0055771
1.0031585
0.99940984
0.99938725
1.0035394
1.0024093
0.9952131
0.99665219
1.004593
1.0016351
0.98563043
0.98203138
0.99725776
1.0067031
1.0035212
1.006717
1.0029428
1.0064305
1.0025397
1.0029948
1.0028486
1.0037392
1.0036419
1.0036809
1.0046787
1.0044421
1.0044593
1.0040571
1.0050152
1.0041099
1.0004306
1.0057492
1.0010059
1.0002111
1.0015384
0.99920819
1.0015735
1.0007015
0.99641292
0.99759079
1.0017666
0.99577794
0.98772128
0.99065414
1.0074166
1.0023773
1.0060879
1.0023956
1.0065232
1.0026893
1.002677
1.0030962
1.0029411
1.0038455
1.0037023
1.0048568
1.0038941
1.0046181
1.004328
1.0045405
1.0039237
1.0023486
1.0052686
0.99906736
1.0011717
1.0037748
0.99529614
0.99859304
1.0054791
0.9985236
0.99197318
0.99784677
1.0055214
1.0003313
0.99154267
1.0067233
1.0029437
1.0051821
1.0030829
1.0056113
1.0032361
1.0028267
1.0032809
1.0022984
1.003364
1.0038026
1.0045013
1.0038137
1.0046893
1.0049147
1.0041112
1.0034533
1.0042061
1.0046054
0.99771302
1.0020311
1.0056992
0.99302847
0.99493338
1.0080638
1.0024113
0.98883706
0.9916646
1.0084176
1.0127811
0.99969582
1.0049173
1.0052535
1.0046312
1.0049037
1.0042915
1.0039083
1.0033253
1.0034094
1.0022911
1.0027724
1.0042027
1.0042062
1.0043364
1.0047313
1.0051868
1.0039979
1.002758
1.0055213
1.0037443
0.99787945
1.0020043
1.00686
0.99336359
0.99266573
1.0074588
1.0060955
0.98960893
0.98703987
1.0029058
1.0169174
1.0085242
1.0027197
1.0081505
1.0044828
1.0071111
1.0033125
1.0044079
1.0037318
1.0033641
1.0028418
1.0027004
1.0044018
1.0042014
1.0049198
1.0045624
1.0054046
1.0042896
1.0024204
1.0060062
1.0028407
0.99980599
1.0013156
1.0059638
0.99657511
0.99337676
1.0040273
1.006394
0.99451161
0.98732862
0.99496625
1.0093338
1.0104041
1.0012934
1.0099657
1.0047572
1.0085118
1.0030429
1.0045379
1.0037355
1.0030266
1.0034529
1.0031421
1.0039724
1.0044195
1.0050497
1.0044913
1.0055684
1.0048326
1.0025714
1.0058151
1.001974
1.0023239
1.0009089
1.002633
1.0002945
0.99749229
0.99985448
1.0021986
0.99995628
0.99300268
0.99173601
0.99639514
1.0026416
1.0013952
1.009793
1.0052559
1.008253
1.0036336
1.004447
1.003395
1.0025166
1.0037017
1.0037863
1.0032218
1.0045472
1.0046261
1.0048082
1.0050112
1.0052224
1.0032596
1.0050656
1.0006845
1.0052093
1.0011061
0.99826215
1.0025045
1.0036507
0.9970779
0.99511984
1.0015358
1.0024085
0.99497025
0.98791408
0.99023853
1.00305
1.007877
1.0056728
1.0065779
1.0047633
1.0043641
1.002999
1.0022072
1.0033892
1.0041331
1.0027792
1.0045199
1.0041099
1.0050741
1.0043922
1.0054796
1.0044173
1.0041533
0.99970299
1.0074527
1.0016813
0.99447759
1.0026625
1.0089608
0.99676081
0.98826327
0.99846579
1.0099318
1.0028331
0.98769193
0.98178981
1.005492
1.0047797
1.0058908
1.003993
1.0057893
1.0039279
1.0028681
1.0024503
1.0029327
1.0036619
1.0031388
1.0042518
1.0042558
1.0051028
1.0039063
1.0057259
1.0053448
1.0036739
0.99950603
1.0077002
1.0028973
0.99254543
1.0010098
1.011058
0.99849111
0.98516246
0.99339806
1.0106839
1.0101931
0.99361089
0.9813769
1.0073965
1.0022717
1.0058242
1.0021491
1.0062705
1.003452
1.0031541
1.0031803
1.0026245
1.0029044
1.0041084
1.0035176
1.0049263
1.0049364
1.0037284
1.0054736
1.0055862
1.0035715
0.99999722
1.006419
1.0038708
0.99357525
0.99893327
1.0093729
1.0004358
0.98708971
0.99085133
1.0052038
1.0115085
1.0004697
0.98783571
1.007409
1.0021337
1.0056278
1.0019493
1.0061548
1.0033795
1.0035141
1.0038762
1.0026079
1.0024768
1.0048262
1.0027907
1.0052983
1.0047289
1.0041859
1.0048725
1.0055381
1.003384
1.0017312
1.0042355
1.0034015
0.99741808
0.99877851
1.0039359
1.0005978
0.99290491
0.993262
0.99908138
1.0047518
1.0028962
0.99647711
1.0056511
1.0041044
1.0052783
1.003848
1.0053258
1.0033944
1.0036538
1.0039399
1.0028767
1.0025782
1.0045802
1.0030248
1.0050818
1.004483
1.0051287
1.0045253
1.0050622
1.0034899
1.0045649
1.0017335
1.0016971
1.0023091
1.0006806
0.99831646
0.99796385
0.99953739
0.99962834
0.99641472
0.99429326
0.99861676
1.001896
1.0030789
1.0075388
1.0050301
1.0068828
1.0043446
1.0040451
1.0034971
1.0031333
1.003095
1.0032433
1.0033989
1.0044017
1.004124
1.0043776
1.0061146
1.00431
1.0043938
1.0033161
1.0070999
1.0002217
0.99924979
1.0062885
1.003497
0.99477099
0.99367984
1.0037909
1.0073575
0.99791052
0.98663845
0.99038116
1.0018303
1.0011106
1.0100577
1.0049339
1.0093087
1.0037003
1.0048612
1.0030364
1.0019413
1.0033603
1.0038324
1.0023604
1.0057626
1.0032728
1.0043404
1.0065151
1.004138
1.0041557
1.0025454
1.0088947
1.000172
0.99707373
1.0077165
1.0065505
0.99448927
0.99023671
1.0032964
1.013119
1.002278
0.98531779
0.98397483
0.99789259
1.0097045
1.0070173
1.000549
0.99260685
0.98760828
0.98802404
0.9929029
0.99797587
0.99915731
0.99432309
0.98647713
0.98330842
0.98999567
1.0038492
1.0152456
1.0165314
1.0063281
0.98915334
0.97772276
0.98096879
0.99191904
1.0014344
1.0063231
0.99444086
0.99224351
0.99412431
1.0006661
1.0083369
1.0135495
1.0127341
1.005356
0.99320399
0.98185503
0.97740952
0.98225104
0.99340163
1.0030421
1.0049404
0.99961852
0.99225872
0.98838321
0.99333254
1.0046548
1.0109056
1.0052216
0.99428317
0.97720386
0.98362963
0.99272328
1.0019518
1.0074274
1.0075343
1.0026969
0.99714075
0.99402842
0.99606754
1.0019594
1.0069314
1.0050982
0.99556329
0.98264496
0.97402863
0.97432735
0.98422789
1.0006108
1.0153187
1.0172199
1.0060983
0.99344328
0.99953121
1.0007507
0.99907484
0.99298294
0.98393279
0.97618974
0.97460487
0.98089496
0.99459862
1.009808
1.0194394
1.0192071
1.0095257
0.99500768
0.9832496
0.98005793
0.9842747
0.99087015
0.99520143
0.99572577
0.99091033
0.98615007
0.98861241
1.0228054
1.0163241
1.0039956
0.98979204
0.97931923
0.97606605
0.98013834
0.98844548
0.99536406
0.99937933
0.99822783
0.99224863
0.98672827
0.98762543
0.99629296
1.0085114
1.0162796
1.0130007
0.99962081
0.98200076
0.96818923
0.96396644
0.97286285
0.99433302
0.99178163
0.99080408
0.99365091
1.0012675
1.009598
1.0140529
1.0132025
1.0033751
0.98849597
0.97220897
0.96236264
0.96342667
0.97491561
0.99395688
1.0129836
1.023062
1.0205136
1.0076068
0.99126307
0.9801652
0.97671425
0.97973467
0.9669525
0.97081403
0.98162045
0.99606712
1.0109371
1.0208048
1.0222812
1.0159447
1.0051969
0.99228443
0.98178042
0.97781098
0.97868902
0.98295659
0.9878541
0.99070673
0.98941916
0.98703082
0.98824434
0.99450976
1.0036996
1.0107929
1.0104909
0.98453288
0.98975048
0.99325233
0.99433459
0.99130054
0.98679622
0.98367307
0.98313994
0.98709477
0.99595228
1.0075045
1.0168649
1.0192461
1.0137233
0.99939269
0.97999514
0.96290719
0.95508385
0.95847889
0.97377541
0.9958284
1.0161946
1.0255859
1.0273141
1.0199712
1.0066418
0.9898321
0.97350123
0.96051576
0.95404743
0.95568697
0.96791433
0.98794705
1.0087838
1.0251995
1.0327191
1.027933
1.0132788
0.99330548
0.97584748
0.96529345
0.96340841
0.96879256
0.97708019
0.98550487
0.99151295
1.0241411
1.0167207
1.00766
0.99504715
0.98250236
0.97261988
0.96957303
0.97327342
0.97846611
0.9830731
0.98751234
0.99109301
0.99449267
0.99670258
0.99985143
1.0028575
1.0056668
1.0061903
1.0031892
0.99408788
0.98223374
0.96910876
0.95867857
0.97986464
0.98064777
0.98549809
0.99398064
1.0043398
1.0141912
1.0184608
1.0162044
1.0070613
0.99273549
0.97655807
0.96185857
0.95219068
0.95258738
0.96268646
0.98253545
1.008391
1.0296138
1.0381739
1.0294535
1.0085291
0.98044442
0.95576773
0.94719999
0.95341789
0.96732482
0.98717723
1.0103368
1.0316892
1.0445528
1.0432321
1.0300001
1.007761
0.98319533
0.96180439
0.94748334
0.94216046
0.948369
0.96403998
0.98505431
1.0059194
1.0219571
1.0296042
1.0238213
1.0056534
0.9834025
0.95065037
0.95939694
0.97198209
0.98630241
1.0006571
1.0122969
1.0193387
1.0216277
1.0201423
1.0137621
1.0013972
0.98612364
0.97446863
0.96844887
0.96739263
0.9671686
0.96946107
0.97422921
0.98152803
0.98699158
0.99603928
1.0059533
1.0099759
0.98950115
0.99169988
0.99208471
0.98941978
0.98419305
0.97861305
0.97510439
0.97728183
0.98319449
0.99277602
1.0045537
1.0131611
1.0152097
1.0114556
1.0020838
0.98832874
0.97216189
0.95868968
0.94877208
0.9491192
0.95715782
0.97460566
1.0004472
1.0313074
1.0230123
1.0071157
0.98917753
0.9714266
0.95633813
0.94682651
0.94535953
0.95336399
0.96905887
0.99178118
1.0165776
1.0366365
1.0439613
1.034207
1.0118318
0.98546741
0.96026402
0.94028028
0.92916708
0.93319284
0.95043226
0.97836936
1.0485208
1.0361854
1.0155244
0.9913423
0.96801024
0.95005744
0.93931292
0.93615382
0.94230369
0.95743938
0.98002763
1.0063454
1.0313731
1.0468554
1.0458552
1.0284795
1.000634
0.97231768
0.9473444
0.93408576
0.9301296
0.93995452
0.96272402
1.0408893
1.0308833
1.0146168
0.9942683
0.974226
0.95760046
0.94671755
0.94316338
0.94629605
0.9573945
0.97426609
0.99458676
1.0146646
1.0301019
1.0361564
1.0293687
1.0108642
0.98660289
0.96459635
0.94848566
0.94307495
0.94558348
0.9566201
1.0220064
1.0167556
1.0092949
0.99764093
0.98340742
0.96993027
0.96093805
0.95704788
0.95747961
0.96300227
0.9727572
0.98386788
0.99639238
1.009077
1.0176977
1.0200185
1.0127674
0.99843422
0.9818053
0.9688229
0.96110227
0.9571898
0.95954389
1.0051691
1.0037583
1.0025438
0.99812285
0.99044053
0.98151248
0.97440205
0.97025478
0.9689899
0.9706239
0.97266613
0.97722892
0.98230481
0.9913642
1.0010886
1.0088536
1.0112331
1.0052823
0.99461947
0.98434221
0.97521351
0.96730488
0.96291755
0.99598462
0.99611716
0.99693107
0.99772934
0.99511577
0.9898605
0.98398858
0.97911178
0.97623954
0.97457626
0.97326086
0.97216323
0.97390885
0.98092775
0.99150772
1.0038701
1.0109539
1.0102884
1.0026919
0.99309832
0.98363562
0.97441583
0.96397349
0.99353948
0.99471959
0.99615294
0.99801854
0.99662959
0.99178758
0.98593418
0.98125217
0.97862505
0.9761392
0.97258854
0.97009568
0.97027299
0.97889316
0.99134515
1.0045647
1.0125149
1.0112167
1.0043061
0.99531544
0.98547844
0.97498345
0.96331623
1.002637
1.0003467
0.99906138
0.99632447
0.99161997
0.98568316
0.98073724
0.97754493
0.97606952
0.97464993
0.97355703
0.97326853
0.97626379
0.98555206
0.99810721
1.0082371
1.0113168
1.0065494
0.9979142
0.98980183
0.98033839
0.97090878
0.96121087
1.0216925
1.0144431
1.0061458
0.9954968
0.98376321
0.97314297
0.96595167
0.96341452
0.96535433
0.97081586
0.97633322
0.98346112
0.99195018
1.0019309
1.0106994
1.0120265
1.0052752
0.99466976
0.98430005
0.97702081
0.97116465
0.96576367
0.96110476
1.0487004
1.0334408
1.0134891
0.99017773
0.96924471
0.95369746
0.94561411
0.94516937
0.9511081
0.96456749
0.98393513
1.0029915
1.019429
1.0284073
1.0260689
1.0130562
0.99461019
0.97565151
0.9638093
0.95729179
0.95688887
0.96200061
0.97049331
1.0669055
1.0473846
1.0174662
0.98421048
0.95535572
0.93539657
0.92587314
0.92702464
0.93997951
0.96518854
0.99828922
1.0319592
1.053752
1.0520492
1.0314607
1.0028767
0.97362523
0.95092422
0.93697342
0.93621846
0.94904936
0.97117795
0.99726218
1.0528176
1.0393452
1.0133806
0.98182415
0.95221152
0.93029738
0.92104481
0.92648196
0.94646501
0.97937203
1.0200865
1.053998
1.0680983
1.0539388
1.0209256
0.98327084
0.94947957
0.9239537
0.91635308
0.92796809
0.96120247
1.0053381
1.0405402
1.0045516
1.0049818
0.99691237
0.98311585
0.96511467
0.94827142
0.94308761
0.95272229
0.97524985
1.0039345
1.0315971
1.0493284
1.0501885
1.030696
0.99617007
0.95858923
0.92869743
0.91477815
0.92042802
0.95091826
0.99825147
1.0438942
1.0664274
0.95048642
0.96170926
0.9744838
0.98614409
0.99403351
0.9982455
1.000677
1.0037799
1.0083612
1.0118936
1.012957
1.0109349
1.0056379
0.99139463
0.96951433
0.94653999
0.93299681
0.93666265
0.95866302
0.99543639
1.0295212
1.0529021
1.0556199
0.93054091
0.94320271
0.9651777
0.99516346
1.0255936
1.0477565
1.0536653
1.0412059
1.0161579
0.98926422
0.96892896
0.95704489
0.9513144
0.95434317
0.9618774
0.97043426
0.98183526
0.99692057
1.0072004
1.0160748
1.0198989
1.0148697
1.0008118
0.96646661
0.96768199
0.98154127
1.0003459
1.0247301
1.0440845
1.0501386
1.0345295
1.0006541
0.96235351
0.93255205
0.91903846
0.92571811
0.95115299
0.99228822
1.031568
1.0488783
1.0423462
1.0171823
0.98588594
0.96356256
0.95227212
0.95418466
1.0302781
1.0138714
0.99861658
0.98661548
0.98281347
0.98572583
0.9922615
0.99400996
0.98419809
0.96292466
0.94394204
0.93924582
0.95487889
0.99133926
1.0326851
1.0634582
1.0614747
1.0277948
0.9788013
0.93250215
0.91125929
0.92241875
0.95743125
1.0424524
1.0286758
1.0019373
0.97126977
0.94730556
0.93558821
0.94195339
0.95967647
0.98398128
1.0049888
1.0107544
1.0105369
1.0070723
1.0094013
1.0129229
1.0176741
1.0103081
0.98286797
0.94938145
0.92383863
0.92258753
0.95159698
0.99995091
0.9847082
0.99583885
0.99641813
0.98377657
0.96214183
0.94943715
0.94914393
0.96876637
1.0017983
1.0379493
1.0575694
1.0441846
1.0106286
0.97651241
0.95311399
0.94601737
0.95708118
0.97251147
0.98282736
0.98658815
0.99228837
0.99861665
1.005656
0.94858133
0.96083413
0.98192219
1.0050285
1.0183259
1.0139091
1.002349
0.99619042
0.99781709
1.0074926
1.0195805
1.0164602
0.99092579
0.95180251
0.92651049
0.92971669
0.95763341
1.0061332
1.0450222
1.0492667
1.024384
0.9890773
0.95875426
0.97616941
0.97446967
0.98588505
1.0045491
1.0264227
1.0370575
1.026238
0.99684361
0.96969814
0.9548542
0.95546096
0.97336359
0.98805384
0.9896311
0.98150615
0.98204126
0.99467494
1.0175789
1.0357713
1.0270693
0.99145825
0.95376842
0.93028249
1.0200995
1.0068127
0.9928906
0.98416554
0.98584963
0.99705394
1.0069169
0.99963032
0.97773368
0.9522786
0.94305219
0.95771305
0.99209275
1.0271589
1.0400015
1.0243151
0.99566546
0.97657734
0.97042996
0.97515687
0.98156363
0.98150232
0.98345464
1.018488
1.0163013
1.000271
0.97889914
0.96092308
0.95465827
0.9666683
0.98587977
0.99836029
0.9986816
0.98596384
0.97904479
0.98875667
1.0106914
1.0308319
1.0317289
1.0096689
0.97785661
0.95399984
0.94527744
0.95021472
0.9688058
0.99309192
0.97564147
0.98957548
0.99716311
0.99227904
0.97677517
0.96338246
0.96020801
0.97538323
1.00085
1.023309
1.0319292
1.021687
1.0009844
0.98588229
0.98112181
0.98207757
0.98337584
0.98206524
0.97856389
0.97662517
0.97839103
0.98357934
0.99316963
0.95658655
0.96619694
0.98494534
1.0045208
1.0151652
1.0093923
0.99660788
0.98813158
0.99178513
1.0054209
1.0172809
1.0180219
1.0051954
0.98386935
0.96454582
0.95398363
0.95546
0.96792889
0.98870677
1.0106712
1.0237739
1.022924
1.0116266
0.98374096
0.98131252
0.98867718
1.003122
1.0171747
1.0241814
1.0182714
1.0038385
0.9878996
0.97682201
0.97461872
0.97791269
0.9830576
0.98610031
0.98557795
0.98319617
0.98109709
0.98331324
0.99274254
1.0065135
1.018138
1.0185849
1.0031581
1.0171959
1.0075803
0.9981646
0.99192998
0.98949609
0.99154985
0.99392945
0.99251141
0.98605942
0.97785986
0.97141646
0.96880233
0.97260299
0.98290241
0.9978012
1.0125828
1.0205867
1.0176902
1.0062726
0.99507411
0.98858649
0.98405536
0.97801937
1.0096298
1.0062857
0.99708933
0.98455748
0.97345816
0.96823651
0.9687432
0.97491733
0.98494563
0.9954972
1.002223
1.0037195
0.99975463
0.9943145
0.99429508
0.99994459
1.0072448
1.0090516
1.0011573
0.98637075
0.97384121
0.97064768
0.97506742
0.98255906
0.98600605
0.98725072
0.98715471
0.98534872
0.98372026
0.98314761
0.9853736
0.9914901
0.99999092
1.009915
1.016411
1.0147657
1.0050344
0.99079259
0.98012676
0.97696271
0.97963035
0.98245689
0.98176541
0.97919786
0.98197395
0.9912027
0.98331335
0.98345897
0.98599223
0.99124481
0.9991142
1.006747
1.0111147
1.0101047
1.0038921
0.9954545
0.98941342
0.98812114
0.99035559
0.99182809
0.98872937
0.98231138
0.97862551
0.98102766
0.98814853
0.99586067
1.0001881
1.0009665
1.0020296
1.0048399
0.99984193
0.99464308
0.99159248
0.99202401
0.99654637
1.0028768
1.0065109
1.0031612
0.9931611
0.98061466
0.97227324
0.97250005
0.97980814
0.99017839
0.99747407
0.99958544
0.99973035
1.0016706
1.0041755
1.005424
1.0027669
0.99510061
1.0015134
1.0024918
0.99937637
0.99274489
0.98535501
0.9809803
0.9812361
0.98549414
0.99083392
0.99363519
0.99236113
0.98877095
0.98721363
0.99125426
0.99865308
1.0052178
1.0070958
1.0024961
0.99472471
0.98905669
0.98675839
0.98640617
0.98604968
0.98237865
0.98746264
0.99358771
0.99793028
0.99758461
0.99403583
0.98946183
0.98658667
0.9883832
0.99365974
0.9987525
1.0024166
1.0024051
0.99940238
0.99733161
0.99587058
0.99402031
0.991331
0.98677358
0.98293824
0.98213055
0.98487265
0.99255088
0.98761417
0.98772667
0.99187697
0.99809116
1.0039066
1.0065119
1.0042825
0.99900412
0.99363412
0.99044356
0.99107236
0.99423738
0.99626324
0.99531724
0.99157754
0.98676984
0.98483636
0.98671645
0.99182822
0.99670537
0.99901397
0.99953077
0.99821944
1.0043555
1.001035
0.9965679
0.99308231
0.99250711
0.99366451
0.99514222
0.99560921
0.99353912
0.98965744
0.98780473
0.98886271
0.99232625
0.99653308
0.99848598
0.99603422
0.9932709
0.99194761
0.9937376
0.99861212
1.0011952
0.99992818
0.99438124
0.99847822
0.99893731
0.99663802
0.99232335
0.98705814
0.9853265
0.98726747
0.99173457
0.9967121
0.99965129
0.99941862
0.99677806
0.99549694
0.99602226
0.99722707
0.99808337
0.99652517
0.99230564
0.98967677
0.98848112
0.98874363
0.99024799
0.98895695
0.98647407
0.99076484
0.99495504
0.99765618
0.99752585
0.99563855
0.99394852
0.99508899
0.99846257
1.0013306
1.001976
0.99873897
0.99288298
0.98784455
0.98621335
0.98817673
0.99121512
0.99393341
0.99455594
0.9938796
0.99449415
0.99444383
0.99553644
0.99110395
0.99269249
0.9970726
1.0013901
1.0037075
1.0022915
0.99805106
0.99377357
0.99095743
0.99083829
0.99264993
0.99372673
0.99328055
0.99182473
0.99127179
0.99311353
0.99620842
0.99970342
1.0010357
0.99949583
0.99770348
0.99526073
0.99513097
0.99847602
0.99662441
0.99614273
0.99616606
0.99757403
0.99807937
0.99599603
0.99335338
0.99079566
0.99030096
0.99220497
0.99529589
0.99877525
0.99984917
0.99982072
0.99899233
0.9977831
0.99675987
0.99457769
0.99160942
0.9884931
0.98757721
0.98863
1.0014521
0.99948862
0.99628676
0.99343072
0.99245651
0.99277965
0.99398712
0.99628364
0.99694658
0.99746127
0.99839976
0.99777037
0.99821616
0.99699895
0.99469582
0.99278845
0.99088203
0.99013876
0.99035272
0.99114966
0.99221013
0.99325107
0.9952374
0.9966825
0.99695887
0.99613127
0.99446164
0.99358676
0.99380489
0.99430566
0.99678469
0.99855096
0.99838668
0.99847629
0.99602713
0.99385073
0.99278336
0.99114147
0.99151555
0.99268877
0.99393953
0.99632857
0.99737042
0.99854273
0.99811736
0.99668377
0.99404666
0.99468301
0.99614775
0.99717886
0.99743127
0.99854062
0.9983906
0.99765811
0.99794041
0.99627321
0.99492494
0.99415421
0.99277307
0.99336114
0.99475551
0.99676346
0.99871708
0.99864215
0.99828041
0.99513455
0.99363696
0.99147909
0.99060726
0.99720204
0.99673657
0.99675102
0.99734089
0.99677009
0.99662768
0.99676587
0.99556168
0.99514974
0.99490245
0.99437257
0.99543323
0.99556259
0.99621946
0.9976219
0.99720213
0.99717317
0.99553112
0.99327514
0.99094678
0.98997404
0.99068518
0.99303084
0.99646214
0.99647423
0.99605031
0.9960703
0.9959357
0.99575795
0.99623797
0.99591496
0.9956655
0.99632218
0.99600642
0.99662072
0.99714079
0.99613477
0.99591545
0.99453694
0.99352159
0.99334231
0.99266047
0.99382423
0.99456795
0.99609794
0.99724697
0.99627172
0.99629063
0.99585917
0.99576836
0.99618073
0.99624782
0.99636964
0.99634118
0.99581187
0.99577088
0.99551557
0.99539902
0.99594897
0.99544755
0.99515763
0.99503517
0.99459149
0.99522847
0.99551654
0.99654687
0.99664774
0.9963958
0.99458021
0.99561159
0.99575525
0.99587953
0.99581735
0.9957915
0.99566139
0.99544875
0.99561907
0.99584318
0.9958526
0.99602309
0.9958658
0.99574854
0.99574546
0.99558574
0.99603402
0.99597438
0.99551262
0.99487592
0.99415833
0.99380113
0.99355491
0.99262828
0.99462327
0.99530743
0.99602763
0.99649978
0.99638821
0.99583284
0.99540029
0.99535366
0.99555882
0.99588022
0.99615093
0.99607987
0.99555545
0.99480794
0.9945151
0.99472995
0.9952313
0.99518212
0.99477677
0.99390135
0.99339047
0.99365478
0.99433081
0.99515773
0.99514573
0.99547302
0.9961836
0.99645429
0.9959987
0.99547188
0.99490281
0.99415094
0.99430029
0.99510253
0.99576567
0.99636372
0.99593304
0.99486337
0.99439907
0.99456998
0.9953583
0.99588196
0.99515557
0.99417706
0.99369365
0.99453217
0.99543212
0.99480298
0.99471137
0.99519638
0.99576523
0.99606536
0.99556388
0.99435568
0.99399391
0.99487437
0.99557855
0.99589812
0.99588775
0.99508128
0.99507006
0.9949923
0.99436322
0.99482859
0.9950395
0.99464554
0.99416707
0.99367059
0.99382352
0.99552505
0.99530168
0.99509759
0.99496287
0.99489272
0.99475747
0.99463351
0.99477153
0.99549555
0.99609236
0.99564577
0.99484883
0.99436851
0.99496646
0.99581317
0.99481332
0.99366849
0.99396743
0.99509391
0.99584605
0.9945959
0.993829
0.99387165
0.99633825
0.995441
0.99426506
0.99429119
0.99501958
0.99536728
0.99543315
0.9950644
0.99490874
0.99554264
0.99572726
0.99463539
0.99383568
0.99471027
0.99568064
0.9957343
0.99495553
0.99425232
0.99499977
0.99482325
0.99405393
0.9936508
0.99389566
0.99611314
0.9955761
0.99491179
0.99513387
0.99528699
0.99502755
0.99495759
0.99453494
0.99511299
0.99678609
0.99596126
0.99437875
0.99444109
0.9946938
0.99560616
0.99585296
0.99458
0.9942654
0.99498229
0.9954892
0.99490387
0.99361909
0.99331531
0.99688562
0.99608763
0.99446085
0.99456214
0.99555319
0.99575847
0.99585406
0.99566278
0.99531245
0.99631337
0.99593434
0.994596
0.99478427
0.99487276
0.99572259
0.99642268
0.99499684
0.99420843
0.99408853
0.99522105
0.9958807
0.9948119
0.99429469
0.99620072
0.99590884
0.99605694
0.99644518
0.99641677
0.99585386
0.99554876
0.99602612
0.99664988
0.99661784
0.99572839
0.99471546
0.9947371
0.99482851
0.99559358
0.99684868
0.99670858
0.99591095
0.99456158
0.99503855
0.99565146
0.99502762
0.99410745
0.99668613
0.99733453
0.99697659
0.99629854
0.99660378
0.9967941
0.99623238
0.99577569
0.99573516
0.9965201
0.99763166
0.99709487
0.99575142
0.99551977
0.99615616
0.99707511
0.99617374
0.99448994
0.99462407
0.99610554
0.99660934
0.99556542
0.99462281
0.99608038
0.99615703
0.99733364
0.99886957
0.99941591
0.99810884
0.99676817
0.99656777
0.9960145
0.99527801
0.9961594
0.99730692
0.99710637
0.99701502
0.99723692
0.99651516
0.99639827
0.99621882
0.9959876
0.99616306
0.99656451
0.99631697
0.99545768
0.99769391
0.99851636
0.9988756
0.99809711
0.997616
0.99780835
0.99847721
0.99828294
0.99639215
0.99600772
0.99793027
0.99829703
0.99717676
0.9971784
0.99836702
0.99816881
0.99618392
0.99512693
0.99638047
0.99781012
0.99748908
0.99623318
0.99551178
1.0006044
0.99903541
0.99876344
0.9986338
0.99790858
0.99784113
0.99804741
0.99789267
0.99837362
0.99954599
0.99968584
0.99891653
0.99794166
0.99694635
0.99709867
0.99784459
0.99764136
0.99740408
0.99759864
0.99812009
0.99792127
0.99732679
0.99653961
0.99808073
1.0010426
1.0009721
0.99873372
0.998067
0.9998193
1.0006037
0.99903734
0.99811812
0.99962445
1.0010343
0.99977743
0.99775627
0.9974021
0.99833597
0.99823111
0.99775867
0.99906825
0.99946573
0.99867266
0.99766004
0.99712656
0.99688159
0.99918785
0.99958328
1.0007927
1.0015292
1.0016105
1.0010593
0.99987706
0.99942277
0.9999778
0.99922429
0.99846084
0.99942268
1.0000784
0.99923239
0.99911921
1.0003566
0.99995176
0.99885612
0.99864225
0.99845801
0.9985436
0.99776739
0.99839317
1.0005085
1.0020494
1.0014514
0.99994191
1.0001511
1.0011372
1.0002555
0.99887898
0.99990119
1.0015626
1.0009371
0.99962546
1.0004428
1.0015945
1.0000614
0.99848152
0.99912944
1.0001594
0.99991597
0.99929633
0.99950691
0.99971864
0.99967424
1.0012992
1.0007248
1.0011712
1.0016361
1.0011847
1.0000942
0.99997526
1.0016715
1.0022194
1.0002572
0.99944942
1.000755
1.0017772
1.0009883
0.99968174
1.0001955
1.0006029
0.99951271
0.99931664
1.00015
1.0001817
0.9993333
0.99877314
1.0024898
1.0019906
1.0003396
1.0000308
1.0011271
1.0007527
0.99961829
1.0011325
1.0035764
1.0024777
0.99961341
0.99923023
1.0009758
1.0017402
0.99991666
0.99918624
1.0005939
1.0013067
1.0004881
0.99970327
0.99943564
0.99996166
1.0001499
1.0004322
1.0020758
1.0022398
1.0005277
0.99930245
0.99985628
1.0012299
1.002451
1.0022094
1.000673
0.99995759
1.0006239
1.0007736
0.99979819
0.99948001
1.0009222
1.0024843
1.0013033
0.99876559
0.99876369
1.0003567
1.0006897
0.99965929
1.0007526
0.999752
1.000442
1.0012113
1.0004715
0.99908905
0.99987364
1.0023279
1.0026277
1.0001415
0.99879677
1.0000094
1.0011442
1.0000034
0.99961334
1.0013031
1.002131
1.0005322
0.99801505
0.99829539
0.99976575
0.99993039
0.99979277
0.99972938
0.99915788
0.99894135
0.99989755
1.0005915
0.99926353
0.99820592
0.99977733
1.0020318
1.0014336
0.99847192
0.99744539
1.0000647
1.0014791
0.99997631
0.99872208
0.99894324
1.0000373
0.99970135
0.9982784
0.99815028
0.99971769
1.0007021
0.99654598
0.99860154
1.0003704
0.99888156
0.99674076
0.99712512
0.99939493
1.0004216
0.99883995
0.99719939
0.99749412
0.9985323
0.99892494
0.99846817
0.99844418
0.99902145
0.99886824
0.99800584
0.99779553
0.99787353
0.99783142
0.99805972
0.99861467
0.99651901
0.99553104
0.99711124
0.99793143
0.99643332
0.99514638
0.99623981
0.99782507
0.99729228
0.99595586
0.99638176
0.99777498
0.9977361
0.99660711
0.99599009
0.99634519
0.99682615
0.99663748
0.99663299
0.99668105
0.99664216
0.99660251
0.99680001
0.99458863
0.99283698
0.99333694
0.9958774
0.99730805
0.99578946
0.99365533
0.99365378
0.99497104
0.99526713
0.99455635
0.99477541
0.99571489
0.99607611
0.99506683
0.99377437
0.99326857
0.99422214
0.99555765
0.99529634
0.99427024
0.99440224
0.99549853
0.99222629
0.99195532
0.99163825
0.99195134
0.99326277
0.99361058
0.99251712
0.99151254
0.9921222
0.9932138
0.99315299
0.99248266
0.9925747
0.99320475
0.99313902
0.9920054
0.99097752
0.99157989
0.99288238
0.99276772
0.99212181
0.99188871
0.99185176
0.98948693
0.99138232
0.9920382
0.99031141
0.98846284
0.98895344
0.99089743
0.99174482
0.99096274
0.98996621
0.9899362
0.99044334
0.99055724
0.98987874
0.98918983
0.98941212
0.99007165
0.99003129
0.98915465
0.98878966
0.98977184
0.98945298
0.9876796
0.9889582
0.99027117
0.99067452
0.98943348
0.98768725
0.98755054
0.98931882
0.9907041
0.98995488
0.98826722
0.98769546
0.98829496
0.98858156
0.9875116
0.98637199
0.98705575
0.98860836
0.98841674
0.98638337
0.9855226
0.98662603
0.98637324
0.98451189
0.9891402
0.98907432
0.9892663
0.98917036
0.98884736
0.98839701
0.98840696
0.98875166
0.98849246
0.98752425
0.98686265
0.98688749
0.98684585
0.98619173
0.98541807
0.98569953
0.98643158
0.98599983
0.98446206
0.98373875
0.98417535
0.98373359
0.98255658
0.98974431
0.9890792
0.98893589
0.98933792
0.98971035
0.98933521
0.98847625
0.98773196
0.98753411
0.98745025
0.98718214
0.98673084
0.98633977
0.98585242
0.98533928
0.98502675
0.98488543
0.98419564
0.9831704
0.98272871
0.98284148
0.98248972
0.9816926
0.99124373
0.99086987
0.99070838
0.99073342
0.99082384
0.99048173
0.98952908
0.98848326
0.9881353
0.98842719
0.98839253
0.98757412
0.98680621
0.98660564
0.98620124
0.98532469
0.9844467
0.98378813
0.983224
0.98288182
0.98269549
0.98220702
0.98127209
0.99363746
0.99381689
0.99372262
0.99293628