/*--------------------------------*- C++ -*----------------------------------*\
| =========                 |                                                 |
| \\      /  F ield         | OpenFOAM: The Open Source CFD Toolbox           |
|  \\    /   O peration     | Version:  2406                                  |
|   \\  /    A nd           | Website:  www.openfoam.com                      |
|    \\/     M anipulation  |                                                 |
\*---------------------------------------------------------------------------*/
FoamFile
{
    version     2.0;
    format      ascii;
    arch        "LSB;label=32;scalar=64";
    class       volScalarField;
    location    "17";
    object      alphat;
}
// * * * * * * * * * * * * * * * * * * * * * * * * * * * * * * * * * * * * * //

dimensions      [1 -1 -1 0 0 0 0];

internalField   nonuniform List<scalar> 
62344
(
1.0423405e-06
1.0132107e-06
1.0097085e-06
1.0285814e-06
1.042989e-06
1.0382325e-06
1.0149191e-06
9.8125172e-07
9.4620051e-07
9.3657975e-07
9.458484e-07
9.5265594e-07
9.7223476e-07
9.8418144e-07
9.8820978e-07
9.8170876e-07
9.7445781e-07
9.7131509e-07
9.4519706e-07
9.4667359e-07
9.5197993e-07
9.8345902e-07
9.9492043e-07
1.0283603e-06
1.0686001e-06
1.0883248e-06
1.1192658e-06
1.1816859e-06
1.2333944e-06
1.2872366e-06
1.370136e-06
1.4640206e-06
1.6572273e-06
1.8681764e-06
2.1371486e-06
2.3548583e-06
2.6403027e-06
2.9083653e-06
3.5362721e-06
4.4300589e-06
5.4515274e-06
6.8399307e-06
7.8813703e-06
9.2690816e-06
9.9231005e-06
1.1071081e-05
1.2166189e-05
1.3980869e-05
1.6355039e-05
2.2016883e-05
2.7540653e-05
3.5533904e-05
4.4282582e-05
5.2968947e-05
7.1940097e-05
1.0421067e-06
1.0138886e-06
1.0089599e-06
1.0286449e-06
1.0441048e-06
1.0417109e-06
1.0158153e-06
9.7935945e-07
9.4933926e-07
9.3626739e-07
9.3584588e-07
9.5295614e-07
9.727439e-07
9.7795222e-07
9.8410429e-07
9.7788336e-07
9.799567e-07
9.7896206e-07
9.4788119e-07
9.4019168e-07
9.4310783e-07
9.6565217e-07
9.7467014e-07
1.00622e-06
1.0402445e-06
1.0596279e-06
1.0962892e-06
1.160104e-06
1.2058614e-06
1.2368624e-06
1.2948419e-06
1.3962468e-06
1.5552982e-06
1.6915524e-06
1.9195449e-06
2.1197288e-06
2.3918435e-06
2.6136693e-06
3.1297661e-06
3.7733222e-06
5.0021392e-06
6.0072622e-06
7.6097199e-06
9.4381323e-06
1.104768e-05
1.2810871e-05
1.4256062e-05
1.5189252e-05
1.5720766e-05
1.7962017e-05
2.1948761e-05
2.5188811e-05
2.9449388e-05
3.359226e-05
4.5433617e-05
1.0435819e-06
1.0140113e-06
1.0060429e-06
1.0272606e-06
1.0468461e-06
1.0503021e-06
1.0166675e-06
9.7732507e-07
9.5492469e-07
9.3764736e-07
9.3570356e-07
9.5792083e-07
9.7776053e-07
9.7995768e-07
9.8510532e-07
9.8045693e-07
9.8146854e-07
9.7368495e-07
9.5177247e-07
9.401128e-07
9.4170053e-07
9.5599973e-07
9.6771054e-07
1.0026049e-06
1.0351386e-06
1.053472e-06
1.0971866e-06
1.1633405e-06
1.2039827e-06
1.2317772e-06
1.2824011e-06
1.378711e-06
1.5382645e-06
1.6583158e-06
1.8434551e-06
2.0215841e-06
2.2774361e-06
2.4840888e-06
2.8944812e-06
3.3558213e-06
4.5002303e-06
5.6204865e-06
7.5393881e-06
9.1186093e-06
1.1777371e-05
1.3179544e-05
1.6030902e-05
1.7156685e-05
1.7670209e-05
1.8451666e-05
2.1177011e-05
2.3317632e-05
2.7095171e-05
2.9491668e-05
3.6279799e-05
1.0449564e-06
1.0134888e-06
1.0050202e-06
1.0260054e-06
1.0463541e-06
1.0532371e-06
1.0204576e-06
9.8092114e-07
9.5293544e-07
9.372556e-07
9.3672441e-07
9.5070586e-07
9.7055489e-07
9.7816391e-07
9.8169518e-07
9.8162536e-07
9.8592594e-07
9.7950912e-07
9.5374856e-07
9.4363462e-07
9.4748346e-07
9.6026055e-07
9.6999963e-07
1.0042999e-06
1.0303874e-06
1.0465638e-06
1.0986471e-06
1.1682349e-06
1.2082541e-06
1.22566e-06
1.2672975e-06
1.3609501e-06
1.5203158e-06
1.6419008e-06
1.8097008e-06
1.9416484e-06
2.1854956e-06
2.4224773e-06
2.8252331e-06
3.1837941e-06
4.1397673e-06
5.046625e-06
6.9906419e-06
8.8962466e-06
1.1493834e-05
1.2894852e-05
1.5865664e-05
1.7608024e-05
2.0758738e-05
2.1902344e-05
2.4490218e-05
2.606549e-05
2.9265866e-05
3.2517083e-05
3.6978298e-05
1.045362e-06
1.0143896e-06
1.0060226e-06
1.0252038e-06
1.0478923e-06
1.0546181e-06
1.0271024e-06
9.8650491e-07
9.5067155e-07
9.3601538e-07
9.415802e-07
9.5166181e-07
9.7009819e-07
9.869524e-07
9.821534e-07
9.8508805e-07
9.8882108e-07
9.8354281e-07
9.6074286e-07
9.4240952e-07
9.5058891e-07
9.6499757e-07
9.6966946e-07
9.9588108e-07
1.0144579e-06
1.0335888e-06
1.0949027e-06
1.165986e-06
1.210571e-06
1.2272776e-06
1.2628554e-06
1.3414971e-06
1.4750971e-06
1.6081361e-06
1.7595838e-06
1.860094e-06
2.0629031e-06
2.4208498e-06
2.784409e-06
3.1697825e-06
4.0140066e-06
4.7693886e-06
6.5026643e-06
8.512717e-06
1.0863739e-05
1.21862e-05
1.5418772e-05
1.8049638e-05
2.326349e-05
2.5921003e-05
2.9678029e-05
3.2489046e-05
3.6456683e-05
4.1044013e-05
4.3839861e-05
1.0448235e-06
1.016216e-06
1.0085827e-06
1.0243635e-06
1.0500359e-06
1.0515856e-06
1.0277978e-06
9.8858739e-07
9.5166106e-07
9.3870969e-07
9.4194117e-07
9.4993907e-07
9.6523151e-07
9.8691775e-07
9.8701117e-07
9.9092904e-07
9.9026281e-07
9.8894087e-07
9.6676698e-07
9.5050793e-07
9.5207905e-07
9.5895881e-07
9.6374716e-07
9.872182e-07
1.0034273e-06
1.0248802e-06
1.0870118e-06
1.1619078e-06
1.2108352e-06
1.2381217e-06
1.270992e-06
1.3321642e-06
1.4443652e-06
1.5783346e-06
1.737619e-06
1.8295075e-06
2.0105658e-06
2.4474462e-06
2.7783221e-06
3.1717682e-06
3.8402318e-06
4.5039882e-06
5.899102e-06
8.1015229e-06
1.0010892e-05
1.1032233e-05
1.3596834e-05
1.7177891e-05
2.2700947e-05
2.6727968e-05
3.2834874e-05
3.8839702e-05
4.4697675e-05
5.0280352e-05
5.199962e-05
1.0440606e-06
1.0174707e-06
1.0090232e-06
1.0246799e-06
1.0495941e-06
1.0492876e-06
1.0274849e-06
9.8900542e-07
9.5478828e-07
9.4234701e-07
9.4049506e-07
9.5215453e-07
9.6517571e-07
9.8467987e-07
9.962505e-07
9.8873107e-07
9.9624845e-07
1.0029358e-06
9.8022724e-07
9.587989e-07
9.5799328e-07
9.6166737e-07
9.6452127e-07
9.9000672e-07
1.0076052e-06
1.0228875e-06
1.0751136e-06
1.1587406e-06
1.2076013e-06
1.2296322e-06
1.2632673e-06
1.3194719e-06
1.4211036e-06
1.5349981e-06
1.6881289e-06
1.7672784e-06
1.9579091e-06
2.410956e-06
2.7634197e-06
3.1449264e-06
3.8007517e-06
4.4025193e-06
5.5964842e-06
7.7733853e-06
9.8448828e-06
1.1041892e-05
1.3341516e-05
1.7109329e-05
1.962388e-05
2.4542394e-05
3.1863322e-05
3.7955102e-05
4.4507677e-05
5.1360141e-05
5.5166428e-05
1.0435072e-06
1.0183802e-06
1.0065602e-06
1.022681e-06
1.0461761e-06
1.0520099e-06
1.0273401e-06
9.8887596e-07
9.5851509e-07
9.4096767e-07
9.4236667e-07
9.5882577e-07
9.7067408e-07
9.8603367e-07
1.0016829e-06
9.891764e-07
9.9399733e-07
1.0048918e-06
9.8911155e-07
9.6251557e-07
9.6254384e-07
9.619964e-07
9.6419392e-07
9.8691496e-07
1.000862e-06
1.014384e-06
1.0607983e-06
1.1392244e-06
1.1906962e-06
1.2207799e-06
1.2577563e-06
1.3140106e-06
1.4129035e-06
1.5115165e-06
1.6462531e-06
1.7038737e-06
1.9320987e-06
2.2697406e-06
2.6617539e-06
2.9771196e-06
3.5901563e-06
4.1056119e-06
5.1039067e-06
6.6709828e-06
8.645176e-06
1.0397293e-05
1.281853e-05
1.504638e-05
1.762309e-05
2.2503545e-05
2.7792469e-05
3.3224863e-05
4.1267033e-05
4.7937403e-05
5.2879515e-05
1.043743e-06
1.0181725e-06
1.0041831e-06
1.0211075e-06
1.0438506e-06
1.0557724e-06
1.0273312e-06
9.8876713e-07
9.6041186e-07
9.3975054e-07
9.4021045e-07
9.5345293e-07
9.6817532e-07
9.8202333e-07
1.0035052e-06
9.9674765e-07
9.8326137e-07
9.9529372e-07
9.9457471e-07
9.7556476e-07
9.6670103e-07
9.6062353e-07
9.5912356e-07
9.8234345e-07
9.9543055e-07
1.0102339e-06
1.0539028e-06
1.1180942e-06
1.169469e-06
1.21638e-06
1.2613744e-06
1.3152238e-06
1.4118001e-06
1.4995569e-06
1.5939142e-06
1.6514086e-06
1.8948492e-06
2.1157903e-06
2.5182762e-06
2.8957961e-06
3.4568656e-06
3.9215038e-06
4.9098725e-06
5.9153657e-06
7.4857497e-06
9.649474e-06
1.1837009e-05
1.343467e-05
1.6826445e-05
2.0780172e-05
2.506749e-05
3.0890895e-05
3.7493538e-05
4.3885817e-05
4.9098324e-05
1.0442763e-06
1.0175662e-06
1.0029443e-06
1.0216852e-06
1.043608e-06
1.0572167e-06
1.0299003e-06
9.923061e-07
9.6200086e-07
9.4369417e-07
9.4301286e-07
9.4900728e-07
9.66835e-07
9.8375778e-07
1.0042664e-06
9.9885289e-07
9.8419911e-07
9.9450457e-07
9.9708416e-07
9.8315456e-07
9.7065254e-07
9.6338625e-07
9.6390897e-07
9.9107722e-07
1.006822e-06
1.0209381e-06
1.0543182e-06
1.099374e-06
1.1555769e-06
1.2179651e-06
1.2667732e-06
1.3316436e-06
1.4250703e-06
1.505583e-06
1.5645388e-06
1.6163576e-06
1.8006329e-06
2.0205798e-06
2.3608429e-06
2.8619505e-06
3.3865616e-06
3.8664206e-06
4.6632913e-06
5.3891481e-06
6.4296106e-06
8.6487557e-06
1.0607841e-05
1.2228908e-05
1.497573e-05
1.8647057e-05
2.2094886e-05
2.5731433e-05
3.0696358e-05
3.8209994e-05
4.3297302e-05
1.0448758e-06
1.0178877e-06
1.0023974e-06
1.0221668e-06
1.045805e-06
1.0577793e-06
1.0336069e-06
9.9643605e-07
9.6284307e-07
9.446899e-07
9.4665694e-07
9.5162376e-07
9.6853375e-07
9.9040209e-07
1.0020914e-06
9.9721824e-07
9.954644e-07
9.9889752e-07
9.9676381e-07
9.8113232e-07
9.6924357e-07
9.6234313e-07
9.6634018e-07
9.9341368e-07
1.0088695e-06
1.024607e-06
1.0518163e-06
1.0887213e-06
1.1484946e-06
1.2172844e-06
1.2690612e-06
1.3579071e-06
1.4682649e-06
1.5321336e-06
1.5661889e-06
1.592944e-06
1.7031334e-06
1.9471577e-06
2.2313225e-06
2.8154436e-06
3.3499882e-06
3.9418768e-06
4.438641e-06
5.0362898e-06
5.6990578e-06
7.5134096e-06
9.2832124e-06
1.1298135e-05
1.3447109e-05
1.6269396e-05
1.8738789e-05
2.099072e-05
2.4125243e-05
2.9623843e-05
3.4501804e-05
1.0453647e-06
1.0191356e-06
1.0030457e-06
1.0219552e-06
1.0481392e-06
1.0599838e-06
1.0372739e-06
9.9865604e-07
9.6130493e-07
9.4220818e-07
9.4230312e-07
9.5021652e-07
9.6568023e-07
9.8783474e-07
1.0001224e-06
9.9698596e-07
9.9863031e-07
1.0000366e-06
9.984542e-07
9.8209707e-07
9.7004689e-07
9.5834944e-07
9.565942e-07
9.7992146e-07
9.892013e-07
1.0074798e-06
1.0403185e-06
1.0848883e-06
1.1446629e-06
1.2188745e-06
1.2803437e-06
1.3749945e-06
1.4774967e-06
1.5412506e-06
1.5732349e-06
1.5956537e-06
1.6827853e-06
1.9070974e-06
2.1531938e-06
2.7266219e-06
3.3003121e-06
4.0171706e-06
4.4082189e-06
4.9550761e-06
5.4621445e-06
6.8782831e-06
8.5562148e-06
1.0781681e-05
1.3042337e-05
1.5417377e-05
1.7498631e-05
1.9586145e-05
2.1953154e-05
2.5813131e-05
2.9487651e-05
1.0455059e-06
1.020207e-06
1.0051771e-06
1.0223234e-06
1.0504891e-06
1.0631958e-06
1.0407783e-06
1.0013049e-06
9.6212741e-07
9.4292295e-07
9.3829478e-07
9.4618225e-07
9.5859757e-07
9.8448102e-07
1.0005783e-06
9.9832839e-07
9.8832458e-07
9.9216946e-07
1.0017581e-06
9.9380545e-07
9.7892703e-07
9.6049317e-07
9.5286151e-07
9.7249137e-07
9.7704639e-07
9.9447359e-07
1.0302658e-06
1.0762995e-06
1.1354266e-06
1.2116716e-06
1.2864465e-06
1.3804568e-06
1.4699003e-06
1.5284177e-06
1.5685824e-06
1.6026335e-06
1.6953164e-06
1.9063103e-06
2.108574e-06
2.6143587e-06
3.2096851e-06
3.9800741e-06
4.4111183e-06
4.9471913e-06
5.4323584e-06
6.5616576e-06
8.1617424e-06
1.043288e-05
1.2860186e-05
1.5116264e-05
1.7059993e-05
1.9292483e-05
2.1709326e-05
2.4673792e-05
2.8028692e-05
1.0451509e-06
1.0211037e-06
1.0074794e-06
1.0231072e-06
1.0518163e-06
1.0650513e-06
1.0433637e-06
1.0050947e-06
9.6558767e-07
9.4813415e-07
9.4354325e-07
9.4881393e-07
9.5937445e-07
9.8482845e-07
1.0049425e-06
1.0000518e-06
9.8503215e-07
9.9080673e-07
1.0041532e-06
1.0019797e-06
9.8638166e-07
9.6466615e-07
9.5874902e-07
9.7776953e-07
9.8206374e-07
9.9830566e-07
1.0304582e-06
1.0653763e-06
1.1226332e-06
1.1977563e-06
1.280906e-06
1.3691571e-06
1.4404532e-06
1.4948602e-06
1.5488531e-06
1.6038346e-06
1.7219943e-06
1.9225254e-06
2.0846477e-06
2.4873037e-06
3.0634715e-06
3.8256698e-06
4.3574199e-06
4.896551e-06
5.3848932e-06
6.3694761e-06
7.7351307e-06
9.8084893e-06
1.2207934e-05
1.4474262e-05
1.6603589e-05
1.919173e-05
2.2069724e-05
2.4938774e-05
2.8846843e-05
1.0444969e-06
1.0218023e-06
1.0080747e-06
1.0229198e-06
1.0518559e-06
1.0643404e-06
1.0439883e-06
1.0059172e-06
9.6665218e-07
9.4982113e-07
9.458334e-07
9.537783e-07
9.6513516e-07
9.8663102e-07
1.0046399e-06
1.0033e-06
9.9535338e-07
9.9920142e-07
1.0070499e-06
1.0001824e-06
9.830791e-07
9.6067665e-07
9.6046822e-07
9.8004744e-07
9.8448255e-07
9.9801e-07
1.02622e-06
1.0565606e-06
1.109418e-06
1.1830033e-06
1.2623782e-06
1.3434445e-06
1.4106361e-06
1.4686078e-06
1.5253464e-06
1.5894613e-06
1.7162841e-06
1.9195877e-06
2.0541789e-06
2.3729312e-06
2.826778e-06
3.5043851e-06
4.1155188e-06
4.5999158e-06
5.1535778e-06
6.0688005e-06
7.3611468e-06
9.0003444e-06
1.1072238e-05
1.3256924e-05
1.600236e-05
1.884822e-05
2.1712479e-05
2.4445396e-05
2.8504473e-05
1.0437677e-06
1.0223379e-06
1.007243e-06
1.0215293e-06
1.0502576e-06
1.0624859e-06
1.0436939e-06
1.0040776e-06
9.6452999e-07
9.4590193e-07
9.3870196e-07
9.5059527e-07
9.6580364e-07
9.8675956e-07
9.949429e-07
9.9837558e-07
1.002127e-06
1.0038304e-06
9.9827111e-07
9.8657555e-07
9.68178e-07
9.47135e-07
9.5001673e-07
9.6919623e-07
9.7237097e-07
9.8166154e-07
1.011097e-06
1.0450135e-06
1.0885122e-06
1.1519422e-06
1.2225188e-06
1.2952959e-06
1.3724168e-06
1.4270447e-06
1.4914911e-06
1.5561489e-06
1.6744093e-06
1.874916e-06
1.981886e-06
2.2251577e-06
2.542742e-06
2.9972738e-06
3.6288127e-06
4.024821e-06
4.6035203e-06
5.2943506e-06
6.2797125e-06
7.4035544e-06
8.6960603e-06
9.9379696e-06
1.2424491e-05
1.534183e-05
1.8367217e-05
2.1163865e-05
2.4715823e-05
1.0431621e-06
1.0225908e-06
1.0062032e-06
1.020209e-06
1.0481017e-06
1.0620864e-06
1.0436434e-06
1.0023441e-06
9.6396815e-07
9.4241384e-07
9.3163238e-07
9.4363415e-07
9.6020292e-07
9.735128e-07
9.90225e-07
9.9070175e-07
9.9733595e-07
9.9857327e-07
9.8862211e-07
9.8003009e-07
9.6298044e-07
9.4241464e-07
9.410195e-07
9.547852e-07
9.5522643e-07
9.6339665e-07
9.94579e-07
1.0264716e-06
1.059021e-06
1.1106861e-06
1.1710323e-06
1.2317295e-06
1.3127243e-06
1.3551264e-06
1.4217158e-06
1.4804664e-06
1.5755279e-06
1.7448001e-06
1.8385061e-06
2.0044163e-06
2.2280057e-06
2.4459172e-06
2.9744001e-06
3.2519942e-06
3.8060684e-06
4.2144628e-06
4.9934191e-06
5.7597108e-06
6.6796249e-06
7.2734946e-06
8.5729263e-06
1.0238286e-05
1.2302098e-05
1.4171518e-05
1.6777474e-05
1.0427342e-06
1.022613e-06
1.0057321e-06
1.0198574e-06
1.046654e-06
1.0638637e-06
1.0452167e-06
1.0030184e-06
9.6848044e-07
9.4233632e-07
9.3407452e-07
9.4185266e-07
9.5334868e-07
9.6803498e-07
9.8778812e-07
9.8945214e-07
9.8655142e-07
9.9039507e-07
9.8195927e-07
9.8027625e-07
9.6740123e-07
9.4292067e-07
9.3488561e-07
9.4279996e-07
9.4094159e-07
9.4918965e-07
9.7943778e-07
1.0020325e-06
1.019141e-06
1.054067e-06
1.0418593e-06
9.5092973e-07
1.201906e-06
1.2025044e-06
1.2812416e-06
1.3283389e-06
1.3962196e-06
1.4842042e-06
1.6157203e-06
1.6391075e-06
1.8010793e-06
1.9162148e-06
2.2448965e-06
2.4625469e-06
2.9312155e-06
3.1386411e-06
3.7262398e-06
4.1844483e-06
5.1803997e-06
5.8700218e-06
6.8296578e-06
7.8438888e-06
9.1438923e-06
1.0397924e-05
1.1552807e-05
1.0425095e-06
1.0226719e-06
1.0054089e-06
1.0202452e-06
1.046043e-06
1.066069e-06
1.0472608e-06
1.0057565e-06
9.7372283e-07
9.4345632e-07
9.427333e-07
9.4519211e-07
9.4890978e-07
9.6415457e-07
9.8731902e-07
9.8607273e-07
9.7301458e-07
9.7711671e-07
9.717144e-07
9.6829068e-07
9.6009811e-07
9.3200735e-07
9.2147766e-07
9.2465267e-07
9.2058672e-07
9.2890054e-07
9.5113239e-07
9.6501777e-07
9.6919197e-07
7.846006e-07
6.6316093e-07
6.3146292e-07
8.2849504e-07
7.1272955e-07
8.7676138e-07
1.1012563e-06
1.164726e-06
1.2154449e-06
1.3060867e-06
1.3269397e-06
1.4571501e-06
1.5291963e-06
1.7422509e-06
1.8819472e-06
2.2778668e-06
2.4741098e-06
2.928976e-06
3.1993117e-06
3.8451572e-06
4.6499537e-06
5.6056012e-06
6.4827922e-06
7.5497993e-06
8.696402e-06
9.3859909e-06
1.0424087e-06
1.0224365e-06
1.0044542e-06
1.0196442e-06
1.0446143e-06
1.0640583e-06
1.0447444e-06
1.0025692e-06
9.6926905e-07
9.3572695e-07
9.3777036e-07
9.3621659e-07
9.3554729e-07
9.4524752e-07
9.6944196e-07
9.6491237e-07
9.508515e-07
9.4674469e-07
9.4145027e-07
9.3520077e-07
9.2272215e-07
8.9244729e-07
8.836127e-07
8.8409719e-07
8.7908237e-07
8.8404106e-07
9.0289597e-07
9.133917e-07
9.1146332e-07
5.3667005e-07
4.4738987e-07
4.9936193e-07
6.2400617e-07
4.6492696e-07
6.2041042e-07
9.6745373e-07
1.0141025e-06
1.0440273e-06
1.1167732e-06
1.1529513e-06
1.2765942e-06
1.3305043e-06
1.417304e-06
1.6188195e-06
1.9741821e-06
2.1530794e-06
2.544272e-06
2.7808987e-06
3.186971e-06
3.7074971e-06
4.371861e-06
5.1655917e-06
6.0561815e-06
7.2046169e-06
8.0877905e-06
1.042182e-06
1.0220501e-06
1.0021043e-06
1.0155372e-06
1.0382512e-06
1.0523319e-06
1.0305757e-06
9.8593423e-07
9.4822136e-07
9.1164939e-07
9.1016926e-07
9.053619e-07
9.0364611e-07
9.1217557e-07
9.2938622e-07
9.2687103e-07
9.171194e-07
9.099015e-07
9.0674543e-07
9.017403e-07
8.9250943e-07
8.6410899e-07
8.5683436e-07
8.5982837e-07
8.5523914e-07
8.6258041e-07
8.8778045e-07
9.0261686e-07
9.0243834e-07
4.8209799e-07
3.7263532e-07
4.9979448e-07
7.2537634e-07
3.9992352e-07
5.2381589e-07
9.36721e-07
8.0632829e-07
1.0212284e-06
1.0562842e-06
1.0797264e-06
1.1715852e-06
1.2171011e-06
9.9387523e-07
1.0993692e-06
1.7704836e-06
1.9833541e-06
2.3412906e-06
2.5934953e-06
2.9062919e-06
3.3379335e-06
3.7804688e-06
4.4050732e-06
5.0700937e-06
5.8138789e-06
6.7643996e-06
1.040494e-06
1.0178748e-06
9.9359686e-07
9.99856e-07
1.0153141e-06
1.0225102e-06
9.9965634e-07
9.5693959e-07
9.1903733e-07
8.8388167e-07
8.7942113e-07
8.7564659e-07
8.7549788e-07
8.8744727e-07
9.0422741e-07
9.0856474e-07
9.0821225e-07
9.1142907e-07
9.1926837e-07
9.2738936e-07
9.2926794e-07
9.2413793e-07
9.2778808e-07
9.3679415e-07
9.3784085e-07
9.5996555e-07
1.004257e-06
1.033455e-06
9.9438321e-07
6.1980258e-07
4.6049388e-07
6.6907482e-07
1.1889485e-06
5.4062356e-07
6.1794628e-07
1.151545e-06
9.6607149e-07
1.3114052e-06
1.3164387e-06
1.3444553e-06
1.4093443e-06
1.4423054e-06
9.3535035e-07
8.299432e-07
1.2028092e-06
1.9408013e-06
2.2498041e-06
2.550366e-06
2.8070338e-06
3.1322543e-06
3.436343e-06
3.9087632e-06
4.4619681e-06
5.0439525e-06
5.8776749e-06
1.0315214e-06
1.0007941e-06
9.6745312e-07
9.6352064e-07
9.7445332e-07
9.8686774e-07
9.7689812e-07
9.4922426e-07
9.2518299e-07
9.0235208e-07
9.0188574e-07
9.0562861e-07
9.2009919e-07
9.366191e-07
9.6544497e-07
9.8324507e-07
1.0033836e-06
1.0305706e-06
1.062688e-06
1.087264e-06
1.1056954e-06
1.1269125e-06
1.147969e-06
1.1830662e-06
1.109411e-06
1.1867876e-06
1.3071468e-06
1.3623484e-06
1.2787208e-06
1.019403e-06
8.830322e-07
1.1603641e-06
1.6430693e-06
1.0992993e-06
1.0668767e-06
1.647706e-06
1.6197119e-06
1.9353732e-06
1.9518154e-06
2.0037901e-06
2.0973078e-06
2.1299368e-06
1.5309679e-06
1.2215427e-06
1.237657e-06
1.8217505e-06
2.6139682e-06
2.8799805e-06
3.0361581e-06
3.2318189e-06
3.4391906e-06
3.7364212e-06
3.8397425e-06
4.5871629e-06
5.1394402e-06
1.0100704e-06
9.6772951e-07
9.3368878e-07
9.2325325e-07
9.2853241e-07
9.6779877e-07
1.0018295e-06
1.0206395e-06
1.0347449e-06
1.0390632e-06
1.0484033e-06
1.0630789e-06
1.0798715e-06
1.1250791e-06
1.1733426e-06
1.202082e-06
1.2453017e-06
1.1274119e-06
1.3257302e-06
1.3667874e-06
1.3706732e-06
1.3482946e-06
1.4075498e-06
1.4254721e-06
1.3661373e-06
1.4275364e-06
1.6900033e-06
1.8422056e-06
1.7518902e-06
1.612364e-06
1.6255602e-06
2.0375198e-06
2.3333904e-06
2.2688567e-06
2.0895023e-06
2.469235e-06
2.6418757e-06
2.7979466e-06
2.8464717e-06
2.912101e-06
3.033343e-06
3.1418811e-06
2.7543917e-06
2.3811053e-06
2.1562196e-06
2.4288115e-06
3.6572069e-06
3.784796e-06
3.8387378e-06
3.8684607e-06
3.8773252e-06
3.8507336e-06
3.5992338e-06
3.8281667e-06
4.3498059e-06
9.7730416e-07
8.9458892e-07
8.6480689e-07
8.6383732e-07
8.8262908e-07
9.4651541e-07
1.0437209e-06
1.1185043e-06
1.1477546e-06
1.1836815e-06
1.159954e-06
1.2199149e-06
1.2319928e-06
1.2384153e-06
1.2533215e-06
1.3151068e-06
1.3128622e-06
1.2584251e-06
1.3798527e-06
1.4892858e-06
1.406649e-06
1.4187877e-06
1.4805749e-06
1.5425122e-06
1.5542e-06
1.5988122e-06
1.8054336e-06
2.0590959e-06
2.0210986e-06
1.980438e-06
2.0219965e-06
2.386211e-06
2.7820436e-06
2.7714287e-06
2.6038902e-06
2.8014301e-06
3.0902723e-06
3.2908111e-06
3.3925782e-06
3.499336e-06
3.6056957e-06
3.6952479e-06
3.7405763e-06
3.7820305e-06
3.4469735e-06
3.3861577e-06
4.3558762e-06
4.5384347e-06
4.5048595e-06
4.3904743e-06
3.9284503e-06
3.7873437e-06
3.7455569e-06
3.6276743e-06
4.0757494e-06
7.4922307e-07
8.0264683e-07
8.2954402e-07
8.0794092e-07
8.1750134e-07
8.6572831e-07
9.0526173e-07
9.2563847e-07
9.1108524e-07
9.2016217e-07
9.1851495e-07
9.2686585e-07
9.4602944e-07
9.7306575e-07
9.9588236e-07
1.0382147e-06
1.0585361e-06
1.0688421e-06
1.0883719e-06
1.1127041e-06
1.1232445e-06
1.1426118e-06
1.1828919e-06
1.232637e-06
1.2668251e-06
1.2975312e-06
1.3717485e-06
1.460169e-06
1.5299576e-06
1.5683974e-06
1.5859769e-06
1.6614677e-06
1.8373354e-06
1.9007272e-06
1.9272964e-06
1.9745168e-06
2.0480778e-06
2.1297287e-06
2.1607674e-06
2.1994042e-06
2.2612452e-06
2.3009941e-06
2.2684141e-06
2.2459165e-06
2.3159222e-06
2.3054961e-06
2.4713893e-06
2.9055923e-06
2.9798507e-06
2.974874e-06
2.9081856e-06
2.8292308e-06
2.7775606e-06
2.7747447e-06
2.7954108e-06
1.1032861e-06
1.5585593e-06
1.3347287e-06
1.0924031e-06
9.5323259e-07
8.4181766e-07
7.4264425e-07
6.6022631e-07
5.9736015e-07
5.483008e-07
5.0410909e-07
4.801913e-07
4.6042914e-07
4.4937326e-07
4.5371664e-07
4.6259306e-07
4.6756959e-07
4.5448544e-07
4.5980849e-07
4.708811e-07
4.7094425e-07
4.6731954e-07
4.6920081e-07
4.7837045e-07
4.730568e-07
4.6037489e-07
4.7644254e-07
5.1116555e-07
5.2473632e-07
5.0871191e-07
5.1222588e-07
5.6856033e-07
6.6278937e-07
7.2108294e-07
7.2999951e-07
7.2014845e-07
7.2663032e-07
7.6195885e-07
7.8701702e-07
7.9220572e-07
7.9671846e-07
7.848857e-07
7.5501761e-07
7.2033189e-07
7.1167435e-07
7.4260149e-07
8.3261029e-07
8.7361932e-07
8.2673156e-07
9.1714376e-07
1.0834681e-06
1.0478858e-06
1.0248027e-06
1.0225101e-06
1.052414e-06
1.1004905e-06
2.900023e-06
4.5701358e-06
5.0589841e-06
5.6327084e-06
6.3998713e-06
7.2365758e-06
8.5056864e-06
1.0238967e-05
1.3461626e-05
2.0577381e-05
2.9396129e-05
3.4223849e-05
3.4911097e-05
3.4514958e-05
3.5876936e-05
4.0286496e-05
4.779503e-05
5.3490144e-05
5.9151111e-05
6.2510909e-05
6.0773642e-05
5.219556e-05
4.5436046e-05
4.257923e-05
5.088485e-05
8.6794623e-05
1.1432431e-06
2.8426259e-06
4.6381826e-06
5.3737888e-06
6.0945688e-06
6.9768717e-06
8.0279644e-06
9.4569348e-06
1.2219858e-05
1.7158338e-05
2.6114161e-05
3.5890126e-05
4.2053527e-05
4.2942507e-05
4.2058512e-05
4.2433435e-05
4.5287818e-05
5.2004814e-05
5.6517723e-05
6.2704302e-05
6.8751515e-05
6.8222121e-05
6.1757983e-05
5.6825398e-05
5.6535279e-05
7.1872475e-05
0.00011520701
1.147959e-06
2.6990811e-06
4.5447016e-06
5.5864417e-06
6.5590421e-06
7.6191657e-06
8.9368904e-06
1.1029017e-05
1.536413e-05
2.2681489e-05
3.2831443e-05
4.3291432e-05
5.0253995e-05
5.1433276e-05
5.0623846e-05
5.0552087e-05
5.2837565e-05
5.8970291e-05
6.2426211e-05
6.783739e-05
7.4175156e-05
7.2904689e-05
6.5688838e-05
6.2690465e-05
6.8669083e-05
9.186219e-05
0.00014272442
1.0941816e-06
2.5244583e-06
4.5323295e-06
5.9922962e-06
7.2723408e-06
8.5843346e-06
1.0277895e-05
1.3276175e-05
1.902381e-05
2.7532935e-05
3.8346608e-05
4.9281251e-05
5.629322e-05
5.7953802e-05
5.7574385e-05
5.7783123e-05
6.0866567e-05
6.7555514e-05
7.2883259e-05
7.8902994e-05
8.2806508e-05
7.8779143e-05
6.9962803e-05
6.8651018e-05
7.8787181e-05
0.00010812568
0.00016801123
1.0423343e-06
2.3757442e-06
4.6450485e-06
6.1149776e-06
7.0600709e-06
9.1129969e-06
1.1609712e-05
1.5266889e-05
2.1107781e-05
3.0588468e-05
4.222169e-05
5.3404746e-05
6.0518767e-05
6.2897361e-05
6.3510553e-05
6.4554506e-05
6.8774916e-05
7.6490477e-05
8.5942237e-05
9.4793572e-05
9.6550206e-05
8.7938099e-05
7.5330726e-05
7.5105734e-05
8.7765843e-05
0.00012172968
0.00018785374
1.0406929e-06
2.3037118e-06
4.7792301e-06
6.488263e-06
8.198808e-06
1.0462057e-05
1.2553639e-05
1.6005969e-05
2.2479828e-05
3.4091186e-05
4.7204323e-05
5.7104706e-05
6.530076e-05
6.7953667e-05
6.9421802e-05
7.169978e-05
7.6821394e-05
8.5263882e-05
9.7542238e-05
0.00011276369
0.00011584344
0.00010355865
8.5193761e-05
8.4549053e-05
9.8701046e-05
0.00013328943
0.0002003987
1.0806882e-06
2.2049685e-06
4.6605235e-06
7.1536402e-06
9.1648878e-06
1.0913083e-05
1.2941911e-05
1.6424936e-05
2.4950452e-05
3.9512924e-05
4.8570977e-05
5.3673156e-05
6.4598567e-05
7.4752067e-05
7.7171006e-05
8.1237577e-05
8.7231762e-05
9.6058391e-05
0.00011027316
0.00013005502
0.00013742365
0.00012619938
0.00010358153
0.00010129364
0.00011405254
0.00014849758
0.00016744895
9.8696666e-07
2.05145e-06
4.432778e-06
7.2559838e-06
9.2958614e-06
1.0926954e-05
1.2941576e-05
1.7615123e-05
2.9625478e-05
4.7337895e-05
6.34534e-05
6.3838718e-05
6.7557187e-05
7.4949478e-05
8.9233046e-05
9.5573295e-05
0.00010252874
0.0001115144
0.0001266696
0.00014701271
0.00015638549
0.00015021269
0.00012965862
0.00012607563
0.00013446892
0.00015889054
0.00015954725
1.0699761e-06
1.8752284e-06
4.0900351e-06
6.927839e-06
8.8134537e-06
1.0447726e-05
1.3285199e-05
2.0434708e-05
3.7362563e-05
5.7481698e-05
7.4172867e-05
8.5435673e-05
8.9095035e-05
8.8022006e-05
0.00010163029
0.00011476618
0.00012256038
0.00013181491
0.00014722461
0.00016554928
0.00017428154
0.00017187999
0.00015720578
0.000154115
0.00015826716
0.00016960719
0.00020175911
1.2897723e-06
1.7433448e-06
3.7067799e-06
6.3155302e-06
8.0838462e-06
1.0204246e-05
1.4674403e-05
2.6358218e-05
4.7893727e-05
6.9539543e-05
8.6863585e-05
9.8764158e-05
0.00010780132
0.00011713534
0.00012771159
0.00013848842
0.00013681879
0.00015624412
0.00017123184
0.0001867683
0.00019425258
0.00019089141
0.00017944413
0.0001797277
0.00018392082
0.00018446396
0.00020330355
1.2319139e-06
1.6240255e-06
3.2613251e-06
5.5436634e-06
7.2268066e-06
9.1584699e-06
1.3374871e-05
2.592538e-05
4.4817601e-05
6.7573049e-05
9.9416841e-05
0.00011468745
0.00012697838
0.00013992537
0.00015320786
0.0001658165
0.00016431064
0.00018531688
0.00019945487
0.00021297287
0.00021869216
0.00021088998
0.00019810565
0.00020216144
0.00021127987
0.00020702389
0.00021586505
1.1447549e-06
1.5446697e-06
2.9866385e-06
5.1338312e-06
7.4126334e-06
9.8224806e-06
1.8611819e-05
3.5351966e-05
5.6648017e-05
8.3732535e-05
0.00011560465
0.00013187343
0.00014562082
0.00014672309
0.00016251052
0.00019319038
0.00020498114
0.00021758433
0.0002325606
0.00024484328
0.00024837489
0.00023555468
0.00021978029
0.00022522092
0.00023581962
0.00023304019
0.0001708418
1.1124068e-06
1.5590059e-06
3.0406102e-06
5.6196847e-06
8.2843346e-06
1.5246082e-05
3.4716853e-05
6.4232739e-05
9.6097248e-05
0.0001151615
0.00013207677
0.00013078843
0.0001238968
0.00013431556
0.00017046333
0.00021783816
0.0002337616
0.00025084893
0.00026890607
0.0002800771
0.00028004226
0.00026525718
0.00024932382
0.00025187225
0.00026245814
0.0002665452
0.00017523198
1.1624171e-06
1.767733e-06
3.7460147e-06
6.9866511e-06
1.3370899e-05
3.36419e-05
6.6524437e-05
9.0186316e-05
0.00011068865
0.00012906925
0.00013845956
0.00013929963
0.00015584519
0.00019395396
0.00021669159
0.00023777354
0.00025910062
0.0002812039
0.00030289539
0.00031484606
0.00031361092
0.00030143256
0.00028787703
0.00028812518
0.00029895327
0.00027104536
0.00028459038
1.362031e-06
2.2050914e-06
5.1665147e-06
1.1765702e-05
2.847613e-05
5.4604521e-05
7.980741e-05
0.00010233681
0.00010092829
0.00010156728
0.0001154722
0.00014858931
0.00019222298
0.00021170808
0.00023376199
0.00025716927
0.00028155966
0.0003066831
0.00033018704
0.00034372483
0.0003461998
0.00034240566
0.00033651446
0.00033987724
0.00035035133
0.00036190014
0.00034363987
1.4332882e-06
2.7605898e-06
6.8729716e-06
1.7396025e-05
3.8610251e-05
6.5030229e-05
7.3785391e-05
7.6126376e-05
8.2518371e-05
9.2753034e-05
0.00010926058
0.0001376336
0.00019307017
0.00023000437
0.00025464308
0.00028003678
0.00030467607
0.00032832051
0.00034986499
0.00033251772
0.00037309565
0.00038118712
0.00039099895
0.00040525845
0.00041653433
0.00041236907
0.00036417279
1.4512985e-06
3.1429469e-06
8.2228915e-06
2.1226259e-05
4.4754794e-05
6.0098107e-05
6.8378595e-05
7.6705662e-05
8.5605587e-05
9.3762175e-05
0.00010336928
0.00012003774
0.00015026036
0.00020039281
0.00027076017
0.0003080517
0.00033088922
0.00034949395
0.00036560943
0.00033797556
0.00039276781
0.00041268086
0.00043906495
0.00046816601
0.00048172877
0.00045761226
0.00031535511
1.6150496e-06
3.2991785e-06
8.7308554e-06
2.1859988e-05
4.2213938e-05
6.941455e-05
9.1677801e-05
0.00011358255
0.00010843809
0.00010132532
0.00010136737
0.000110932
0.00013034222
0.00016960557
0.00024538333
0.00033921274
0.00035823535
0.00037136087
0.00038157944
0.00039190482
0.00040874671
0.00039743448
0.0004233167
0.00050961008
0.00052051381
0.00048197702
0.00031104443
1.8913136e-06
3.1701685e-06
6.3438272e-06
1.58656e-05
3.588352e-05
6.3814044e-05
8.5972931e-05
0.00010987896
0.00013693524
0.00014959427
0.00012185476
0.00011983008
0.00013436811
0.00017077387
0.00024348441
0.00034739661
0.00038630051
0.0003932753
0.00039912649
0.00040842608
0.00042544893
0.00038551561
0.00043067046
0.00052230286
0.00052311358
0.00040796828
0.00039921348
1.7920962e-06
2.8561292e-06
5.8395971e-06
1.2604942e-05
2.431268e-05
4.0559002e-05
6.1720784e-05
0.00010064612
0.00013198556
0.00016803374
0.00020588326
0.00017644083
0.00018286266
0.00020896054
0.00024876505
0.00028972634
0.00034444594
0.00041807594
0.00042214442
0.00043168345
0.00044807896
0.0004730479
0.00050060054
0.00045108917
0.00038563859
0.00036047949
0.00040424585
1.5548966e-06
2.4996831e-06
6.5945072e-06
1.3294863e-05
2.1723086e-05
3.0134155e-05
4.0148542e-05
5.6792416e-05
8.9042259e-05
0.00015971672
0.00020527955
0.00025818075
0.00031306417
0.00033966241
0.00029031386
0.00027520525
0.00029107058
0.00031822
0.00034189627
0.00038324535
0.00047563373
0.00049082021
0.00050280623
0.00035673151
0.00032593214
0.00038767568
0.00040514948
1.2902457e-06
2.1752116e-06
5.8793175e-06
1.361588e-05
2.1961757e-05
2.725481e-05
3.4074478e-05
4.5637214e-05
6.5209801e-05
9.6478562e-05
0.0001560871
0.00024028076
0.00029972215
0.00035935645
0.00041093163
0.00031832769
0.00027363457
0.0002445156
0.00024578365
0.00029897846
0.000503594
0.00050700001
0.00047422545
0.00032385874
0.00034263363
0.00044144419
0.00041400697
1.0037045e-06
1.8750669e-06
5.2796712e-06
1.0475907e-05
1.7468089e-05
2.3649222e-05
3.1371108e-05
4.2596036e-05
5.8416103e-05
7.8318365e-05
0.00010114443
0.00012914857
0.00017138058
0.00025547289
0.00038651672
0.00044342377
0.00031602959