/*--------------------------------*- C++ -*----------------------------------*\
| =========                 |                                                 |
| \\      /  F ield         | OpenFOAM: The Open Source CFD Toolbox           |
|  \\    /   O peration     | Version:  2406                                  |
|   \\  /    A nd           | Website:  www.openfoam.com                      |
|    \\/     M anipulation  |                                                 |
\*---------------------------------------------------------------------------*/
FoamFile
{
    version     2.0;
    format      ascii;
    arch        "LSB;label=32;scalar=64";
    class       volScalarField;
    location    "17";
    object      alphat;
}
// * * * * * * * * * * * * * * * * * * * * * * * * * * * * * * * * * * * * * //

dimensions      [1 -1 -1 0 0 0 0];

internalField   nonuniform List<scalar> 
96472
(
8.7881975e-07
8.9663e-07
8.4781944e-07
8.6836791e-07
8.9338823e-07
8.874312e-07
8.530524e-07
8.1405165e-07
7.918213e-07
7.9214247e-07
8.0798716e-07
8.2698854e-07
8.380379e-07
8.3592903e-07
8.2061147e-07
7.969111e-07
7.7139831e-07
7.4988018e-07
7.3706497e-07
7.3378175e-07
7.3903443e-07
7.4964599e-07
7.6363661e-07
7.7787954e-07
7.9259187e-07
8.058343e-07
8.1613204e-07
8.2088844e-07
8.2056203e-07
8.1791071e-07
8.1272742e-07
8.0759639e-07
8.0146743e-07
7.9883504e-07
7.9468011e-07
7.9474928e-07
7.9579801e-07
8.0012114e-07
8.0443609e-07
8.1464444e-07
8.3525312e-07
8.4667308e-07
8.6466915e-07
8.7317343e-07
8.8479806e-07
8.9243721e-07
8.9630182e-07
8.9978898e-07
9.0037102e-07
9.0799576e-07
9.2078669e-07
9.3814553e-07
9.6034297e-07
9.8963094e-07
1.0349067e-06
8.7853208e-07
8.9481872e-07
8.4633447e-07
8.6622819e-07
8.9153559e-07
8.8684187e-07
8.5350756e-07
8.1461344e-07
7.9158447e-07
7.9102199e-07
8.0633682e-07
8.2555758e-07
8.3757128e-07
8.3673438e-07
8.2266198e-07
7.9958446e-07
7.7433338e-07
7.5204763e-07
7.3780419e-07
7.3266641e-07
7.3675701e-07
7.4651368e-07
7.601724e-07
7.7407361e-07
7.891145e-07
8.0238146e-07
8.1192062e-07
8.1518646e-07
8.1472952e-07
8.1362879e-07
8.0959167e-07
8.0647479e-07
8.0142367e-07
7.9745807e-07
7.9454423e-07
7.9166272e-07
7.9006265e-07
7.8754825e-07
7.8773894e-07
7.886825e-07
7.9141157e-07
7.972662e-07
8.0837148e-07
8.2676918e-07
8.4366963e-07
8.6714985e-07
8.8181625e-07
8.9847865e-07
9.0415094e-07
9.1616192e-07
9.2239269e-07
9.3567602e-07
9.48875e-07
9.6217151e-07
9.958748e-07
8.7821115e-07
8.9444624e-07
8.4533634e-07
8.644502e-07
8.9027336e-07
8.8689226e-07
8.5451745e-07
8.1558271e-07
7.9172969e-07
7.9019102e-07
8.0498133e-07
8.2434555e-07
8.3724653e-07
8.3743141e-07
8.2449206e-07
8.0191599e-07
7.765628e-07
7.538643e-07
7.3872901e-07
7.3258325e-07
7.3565438e-07
7.4463685e-07
7.5780818e-07
7.7148236e-07
7.8645329e-07
7.9989591e-07
8.1121681e-07
8.1585643e-07
8.1531539e-07
8.1480955e-07
8.0986515e-07
8.0710383e-07
8.0108477e-07
7.9860185e-07
7.9435565e-07
7.9323535e-07
7.909098e-07
7.9091816e-07
7.911902e-07
7.9185372e-07
7.9273236e-07
7.951534e-07
7.9743358e-07
8.0353043e-07
8.0881441e-07
8.2093306e-07
8.3256882e-07
8.578398e-07
8.7659827e-07
9.0055361e-07
9.1472071e-07
9.2746935e-07
9.4161029e-07
9.515244e-07
9.7460077e-07
8.7790908e-07
8.945791e-07
8.4481791e-07
8.6336675e-07
8.8971152e-07
8.874746e-07
8.5586331e-07
8.1674917e-07
7.9199892e-07
7.8943598e-07
8.0363989e-07
8.2314238e-07
8.368452e-07
8.3819142e-07
8.2622137e-07
8.0438031e-07
7.789557e-07
7.5571935e-07
7.3970447e-07
7.3249456e-07
7.3454775e-07
7.4282575e-07
7.5539735e-07
7.6886688e-07
7.8358286e-07
7.9719721e-07
8.0890513e-07
8.1417041e-07
8.1470061e-07
8.1462819e-07
8.1030793e-07
8.0773102e-07
8.0149286e-07
7.9865649e-07
7.9324034e-07
7.9221602e-07
7.89017e-07
7.8821381e-07
7.8845404e-07
7.8952756e-07
7.9056786e-07
7.9351036e-07
7.9527678e-07
7.9975286e-07
8.0270484e-07
8.0955841e-07
8.1445472e-07
8.227447e-07
8.3751267e-07
8.512932e-07
8.784583e-07
8.9362199e-07
9.1969813e-07
9.3105172e-07
9.5692964e-07
8.7758607e-07
8.9446384e-07
8.4433517e-07
8.6243657e-07
8.8926565e-07
8.8810413e-07
8.5724854e-07
8.1795805e-07
7.9232715e-07
7.8869573e-07
8.0234322e-07
8.219445e-07
8.3643878e-07
8.3889355e-07
8.279332e-07
8.067431e-07
7.8142717e-07
7.5764817e-07
7.4073639e-07
7.3248118e-07
7.3347533e-07
7.411019e-07
7.5314421e-07
7.6647454e-07
7.8092392e-07
7.9473122e-07
8.0758191e-07
8.1415891e-07
8.1495373e-07
8.150275e-07
8.113279e-07
8.0825421e-07
8.0268548e-07
7.9948057e-07
7.9416508e-07
7.9219886e-07
7.8943183e-07
7.8809857e-07
7.8665449e-07
7.8721214e-07
7.8776486e-07
7.8958446e-07
7.9181367e-07
7.946004e-07
7.989008e-07
8.0252398e-07
8.0915376e-07
8.1366296e-07
8.230095e-07
8.3002876e-07
8.4556194e-07
8.5563342e-07
8.7686398e-07
8.8847674e-07
9.1915525e-07
8.7723322e-07
8.9464039e-07
8.4403255e-07
8.6168308e-07
8.8894933e-07
8.8879161e-07
8.5866417e-07
8.192249e-07
7.927171e-07
7.8806238e-07
8.0109085e-07
8.207225e-07
8.3599672e-07
8.3945197e-07
8.2964974e-07
8.0906649e-07
7.8388227e-07
7.5982909e-07
7.4187185e-07
7.3269836e-07
7.3248062e-07
7.3939928e-07
7.5092224e-07
7.6411024e-07
7.7822942e-07
7.9217326e-07
8.0513995e-07
8.1298913e-07
8.1468997e-07
8.146901e-07
8.1186348e-07
8.08129e-07
8.0329999e-07
7.990594e-07
7.9444831e-07
7.9107207e-07
7.8836547e-07
7.8684669e-07
7.8497921e-07
7.8473857e-07
7.8509654e-07
7.8589169e-07
7.8771361e-07
7.8962055e-07
7.934021e-07
7.9645679e-07
8.0232891e-07
8.0606531e-07
8.1444748e-07
8.1959245e-07
8.3026812e-07
8.3710195e-07
8.5117292e-07
8.6046371e-07
8.8355988e-07
8.7682108e-07
8.9436712e-07
8.4361808e-07
8.6089362e-07
8.8855984e-07
8.8939232e-07
8.600113e-07
8.2048298e-07
7.9319151e-07
7.8756987e-07
7.9996563e-07
8.1959216e-07
8.3554259e-07
8.4000903e-07
8.312765e-07
8.1148762e-07
7.8634419e-07
7.6203873e-07
7.4327959e-07
7.3304119e-07
7.3181909e-07
7.3787734e-07
7.4865949e-07
7.6167055e-07
7.7541941e-07
7.8953382e-07
8.0283132e-07
8.1222053e-07
8.1467996e-07
8.1456843e-07
8.1254731e-07
8.086432e-07
8.0404881e-07
7.9944816e-07
7.9523453e-07
7.9128811e-07
7.883746e-07
7.8638255e-07
7.8478144e-07
7.8313883e-07
7.8331467e-07
7.8367802e-07
7.8479008e-07
7.8604626e-07
7.8914427e-07
7.911841e-07
7.9602244e-07
7.9936742e-07
8.0604586e-07
8.1003925e-07
8.1925857e-07
8.2454067e-07
8.3620025e-07
8.4220383e-07
8.5873482e-07
8.762943e-07
8.9415673e-07
8.43243e-07
8.6019088e-07
8.8827371e-07
8.9005644e-07
8.6137758e-07
8.2177888e-07
7.9373971e-07
7.871621e-07
7.9892689e-07
8.185562e-07
8.3505737e-07
8.4062043e-07
8.3281058e-07
8.1392334e-07
7.8894898e-07
7.6428142e-07
7.4477005e-07
7.3350261e-07
7.3121524e-07
7.3649469e-07
7.4667946e-07
7.5935177e-07
7.7282403e-07
7.8683069e-07
8.0033175e-07
8.1105135e-07
8.1462029e-07
8.1459739e-07
8.1297942e-07
8.0914769e-07
8.0467753e-07
7.9978905e-07
7.9539978e-07
7.9107684e-07
7.8774999e-07
7.8503855e-07
7.8374342e-07
7.820039e-07
7.8111667e-07
7.8149376e-07
7.8191499e-07
7.8299235e-07
7.8507179e-07
7.8700216e-07
7.9086381e-07
7.9337062e-07
7.9871418e-07
8.026451e-07
8.0979351e-07
8.1442661e-07
8.233109e-07
8.2881765e-07
8.4196803e-07
8.7590073e-07
8.9386906e-07
8.4293022e-07
8.5956323e-07
8.8799641e-07
8.9068165e-07
8.6272026e-07
8.2309729e-07
7.9434115e-07
7.8681985e-07
7.9791003e-07
8.1751301e-07
8.3457845e-07
8.4113264e-07
8.3441924e-07
8.1623325e-07
7.9161839e-07
7.6664849e-07
7.4631418e-07
7.340695e-07
7.3071427e-07
7.3508776e-07
7.447245e-07
7.5705705e-07
7.702823e-07
7.84186e-07
7.9777224e-07
8.0937615e-07
8.1411828e-07
8.1428868e-07
8.1305357e-07
8.0956433e-07
8.0530307e-07
8.0028505e-07
7.9590465e-07
7.917235e-07
7.8815366e-07
7.8496536e-07
7.8299741e-07
7.8150101e-07
7.8000412e-07
7.7957543e-07
7.7991613e-07
7.8032613e-07
7.8197747e-07
7.8325914e-07
7.862553e-07
7.8825937e-07
7.9313185e-07
7.9552423e-07
8.0203196e-07
8.0544635e-07
8.1331453e-07
8.1834463e-07
8.2797746e-07
8.7546433e-07
8.9397735e-07
8.4278863e-07
8.5909231e-07
8.8786482e-07
8.9142687e-07
8.641693e-07
8.2451347e-07
7.9504674e-07
7.8662249e-07
7.9700464e-07
8.1648734e-07
8.3410412e-07
8.4153251e-07
8.3593563e-07
8.1854232e-07
7.9420916e-07
7.6912803e-07
7.4813064e-07
7.3487309e-07
7.3052674e-07
7.3393306e-07
7.428104e-07
7.5486158e-07
7.6782411e-07
7.8164269e-07
7.9520138e-07
8.0749455e-07
8.1379341e-07
8.1411894e-07
8.1328191e-07
8.101532e-07
8.0600233e-07
8.0097586e-07
7.9628457e-07
7.9184609e-07
7.8803142e-07
7.8457468e-07
7.8204785e-07
7.8033194e-07
7.7916037e-07
7.7777847e-07
7.7784312e-07
7.7824351e-07
7.7894823e-07
7.8007255e-07
7.822999e-07
7.8420501e-07
7.8752869e-07
7.9030173e-07
7.9504571e-07
7.9837847e-07
8.0510799e-07
8.0824067e-07
8.1687922e-07
8.7529595e-07
8.9434078e-07
8.4278583e-07
8.5870324e-07
8.877517e-07
8.9212493e-07
8.6553841e-07
8.2587502e-07
7.9576631e-07
7.8648044e-07
7.962029e-07
8.1557061e-07
8.3357648e-07
8.4196782e-07
8.37289e-07
8.2084867e-07
7.9685468e-07
7.7160257e-07
7.5005665e-07
7.3585683e-07
7.3046182e-07
7.3299776e-07
7.4113238e-07
7.5270026e-07
7.6540871e-07
7.7904718e-07
7.9254597e-07
8.0529752e-07
8.1310209e-07
8.1383036e-07
8.1347943e-07
8.1084949e-07
8.0698704e-07
8.0202658e-07
7.971798e-07
7.9253598e-07
7.8865305e-07
7.849445e-07
7.8210979e-07
7.7959886e-07
7.7839437e-07
7.7698722e-07
7.7613238e-07
7.7624106e-07
7.7669995e-07
7.7730119e-07
7.7908301e-07
7.8029489e-07
7.8339502e-07
7.8534804e-07
7.89533e-07
7.9219891e-07
7.9737654e-07
8.0056838e-07
8.0850026e-07
8.7494141e-07
8.9486649e-07
8.4286171e-07
8.584095e-07
8.8778002e-07
8.9298865e-07
8.6707143e-07
8.2739726e-07
7.9664029e-07
7.8644574e-07
7.9545842e-07
8.1469413e-07
8.330276e-07
8.4232324e-07
8.3861044e-07
8.2302593e-07
7.9960772e-07
7.7423764e-07
7.5208379e-07
7.3701792e-07
7.3049853e-07
7.3208565e-07
7.3959853e-07
7.5071443e-07
7.6318442e-07
7.7662351e-07
7.9001145e-07
8.0299289e-07
8.121136e-07
8.1372333e-07
8.1347547e-07
8.1123304e-07
8.0765302e-07
8.0280126e-07
7.9794835e-07
7.9308252e-07
7.8894764e-07
7.8507461e-07
7.8194061e-07
7.7904081e-07
7.7729903e-07
7.7612495e-07
7.7488435e-07
7.7445546e-07
7.7456441e-07
7.7507666e-07
7.7605575e-07
7.7715423e-07
7.7961469e-07
7.8098328e-07
7.847806e-07
7.8658505e-07
7.9142613e-07
7.9450581e-07
7.9954251e-07
8.7498097e-07
8.9591476e-07
8.4318401e-07
8.5825862e-07
8.8782008e-07
8.9376093e-07
8.684754e-07
8.2880966e-07
7.9745325e-07
7.8639345e-07
7.9472203e-07
8.137486e-07
8.3249866e-07
8.4257276e-07
8.3995128e-07
8.2516716e-07
8.0225262e-07
7.7690123e-07
7.5420048e-07
7.3823628e-07
7.3071425e-07
7.3130133e-07
7.3800052e-07
7.4872517e-07
7.6089505e-07
7.7417687e-07
7.8747113e-07
8.0055553e-07
8.106727e-07
8.1366301e-07
8.1348696e-07
8.1174998e-07
8.0853644e-07
8.0380677e-07
7.9894576e-07
7.9392676e-07
7.8954291e-07
7.855913e-07
7.8223184e-07
7.7907982e-07
7.7678166e-07
7.7516663e-07
7.7426288e-07
7.7294939e-07
7.7296157e-07
7.7298896e-07
7.7370719e-07
7.7447695e-07
7.7609886e-07
7.7784771e-07
7.8015842e-07
7.8239765e-07
7.8655406e-07
7.8797811e-07
7.9328587e-07
8.7469716e-07
8.967883e-07
8.4346695e-07
8.5814006e-07
8.8799644e-07
8.9473123e-07
8.7011778e-07
8.3045162e-07
7.9847625e-07
7.8651521e-07
7.9411759e-07
8.1288423e-07
8.3193547e-07
8.427911e-07
8.4116281e-07
8.2734563e-07
8.0494512e-07
7.7963761e-07
7.5651357e-07
7.3967303e-07
7.3116041e-07
7.3079816e-07
7.3668033e-07
7.4684786e-07
7.5877658e-07
7.7173097e-07
7.848966e-07
7.9801741e-07
8.0896564e-07
8.1353903e-07
8.1360879e-07
8.1224874e-07
8.0951317e-07
8.0507081e-07
8.0020964e-07
7.9509739e-07
7.9036842e-07
7.8612451e-07
7.8261462e-07
7.7917328e-07
7.7656149e-07
7.7439044e-07
7.7329736e-07
7.7223449e-07
7.7119436e-07
7.714199e-07
7.7150354e-07
7.7204672e-07
7.7352209e-07
7.7414738e-07
7.7691769e-07
7.7850061e-07
7.810885e-07
7.8361648e-07
7.8801438e-07
8.7505666e-07
8.9863252e-07
8.4418658e-07
8.5826443e-07
8.8823578e-07
8.9561585e-07
8.7158061e-07
8.319123e-07
7.9935653e-07
7.8658193e-07
7.9350213e-07
8.1207084e-07
8.3138088e-07
8.4303821e-07
8.423168e-07
8.293843e-07
8.0758209e-07
7.8230372e-07
7.587557e-07
7.4116929e-07
7.3161515e-07
7.3027477e-07
7.3541679e-07
7.4505984e-07
7.5670004e-07
7.6929536e-07
7.8235289e-07
7.9535112e-07
8.0698901e-07
8.1335892e-07
8.1379818e-07
8.1263885e-07
8.1034901e-07
8.0621599e-07
8.0148956e-07
7.9630894e-07
7.9141296e-07
7.8686045e-07
7.8318785e-07
7.7957621e-07
7.7670349e-07
7.7409322e-07
7.7252742e-07
7.7133171e-07
7.7047516e-07
7.6966907e-07
7.6989694e-07
7.7025108e-07
7.7080238e-07
7.7189347e-07
7.7369239e-07
7.7469898e-07
7.7765317e-07
7.8013338e-07
7.8208849e-07
8.748921e-07
8.9975155e-07
8.4465227e-07
8.5830059e-07
8.8851867e-07
8.9665028e-07
8.7325534e-07
8.3362096e-07
8.0050488e-07
7.8686768e-07
7.9304363e-07
8.1131699e-07
8.3083453e-07
8.4317801e-07
8.4345956e-07
8.3144295e-07
8.1034112e-07
7.8520483e-07
7.6121645e-07
7.4286269e-07
7.3228956e-07
7.2992773e-07
7.3419169e-07
7.4339221e-07
7.5464892e-07
7.6697623e-07
7.7998871e-07
7.9288767e-07
8.0493204e-07
8.1307805e-07
8.1412567e-07
8.1329811e-07
8.1127042e-07
8.0740543e-07
8.0283834e-07
7.9761593e-07
7.926445e-07
7.8782524e-07
7.8379602e-07
7.8012745e-07
7.7694144e-07
7.7416456e-07
7.7201763e-07
7.7058946e-07
7.6973043e-07
7.6859253e-07
7.6843924e-07
7.6843668e-07
7.6884932e-07
7.6965696e-07
7.7062249e-07
7.717745e-07
7.748439e-07
7.7513018e-07
7.7853635e-07
8.7531249e-07
9.014443e-07
8.4542491e-07
8.5860718e-07
8.8890456e-07
8.9759453e-07
8.7469788e-07
8.350736e-07
8.014277e-07
7.8701275e-07
7.9254834e-07
8.1056345e-07
8.3035538e-07
8.4332757e-07
8.4453225e-07
8.3338265e-07
8.1285346e-07
7.8788489e-07
7.6364144e-07
7.4454884e-07
7.3306993e-07
7.2973793e-07
7.3311842e-07
7.4165539e-07
7.5258673e-07
7.6457121e-07
7.7750907e-07
7.9037468e-07
8.026678e-07
8.1223911e-07
8.144954e-07
8.1379781e-07
8.1198352e-07
8.0854406e-07
8.0420458e-07
7.9905929e-07
7.9397092e-07
7.8896796e-07
7.8464135e-07
7.8069202e-07
7.7739883e-07
7.7424422e-07
7.719828e-07
7.698892e-07
7.6879556e-07
7.6813473e-07
7.6710047e-07
7.670571e-07
7.6749812e-07
7.6738326e-07
7.6864614e-07
7.697012e-07
7.7112056e-07
7.7254052e-07
7.7526924e-07
8.7502613e-07
9.0237366e-07
8.4598535e-07
8.5883792e-07
8.893223e-07
8.9864746e-07
8.763306e-07
8.3680116e-07
8.026462e-07
7.8748008e-07
7.9232191e-07
8.0996668e-07
8.298945e-07
8.4346658e-07
8.4561302e-07
8.354797e-07
8.1563946e-07
7.9081917e-07
7.6628434e-07
7.4648822e-07
7.3402626e-07
7.29638e-07
7.3224643e-07
7.4012566e-07
7.5071288e-07
7.6236135e-07
7.7512608e-07
7.8786749e-07
8.0024733e-07
8.1093106e-07
8.1506389e-07
8.1434376e-07
8.1279502e-07
8.095709e-07
8.0548412e-07
8.0045402e-07
7.9516903e-07
7.8996048e-07
7.8539039e-07
7.8114525e-07
7.7769676e-07
7.7440433e-07
7.7188084e-07
7.6949325e-07
7.6805313e-07
7.6703564e-07
7.6639615e-07
7.6574859e-07
7.6551496e-07
7.6609305e-07
7.6645799e-07
7.6712058e-07
7.6841732e-07
7.7017228e-07
7.7128986e-07
8.7519972e-07
9.031797e-07
8.4644645e-07
8.5916965e-07
8.8979215e-07
8.9959194e-07
8.7767698e-07
8.3819544e-07
8.0355361e-07
7.8769988e-07
7.9197346e-07
8.0939817e-07
8.2950607e-07
8.4367371e-07
8.4659694e-07
8.3727643e-07
8.1806785e-07
7.9344511e-07
7.6868601e-07
7.4835058e-07
7.3496306e-07
7.2957077e-07
7.3128729e-07
7.3850879e-07
7.4872467e-07
7.6011175e-07
7.7265327e-07
7.8532187e-07
7.9760195e-07
8.0881932e-07
8.1480548e-07
8.1419019e-07
8.128543e-07
8.0973164e-07
8.0570306e-07
8.0084528e-07
7.9560467e-07
7.9029501e-07
7.8558128e-07
7.8115003e-07
7.7732406e-07
7.7397121e-07
7.7113678e-07
7.6886257e-07
7.6685809e-07
7.6564967e-07
7.6521842e-07
7.6424779e-07
7.6406895e-07
7.6429684e-07
7.6455599e-07
7.6491731e-07
7.6669435e-07
7.6700923e-07
7.6905481e-07
8.7480631e-07
9.0413436e-07
8.4721628e-07
8.5979852e-07
8.9057158e-07
9.0081787e-07
8.7934136e-07
8.3993327e-07
8.0486307e-07
7.8831297e-07
7.9191206e-07
8.0891734e-07
8.2906472e-07
8.4373181e-07
8.4755084e-07
8.3920189e-07
8.207213e-07
7.9633332e-07
7.713421e-07
7.5033594e-07
7.3599896e-07
7.2956274e-07
7.303481e-07
7.3681255e-07
7.4657924e-07
7.5765473e-07
7.6981301e-07
7.8235091e-07
7.9451519e-07
8.0592278e-07
8.1321217e-07
8.1316683e-07
8.1172558e-07
8.0896773e-07
8.0498476e-07
8.0036934e-07
7.9512161e-07
7.896353e-07
7.8464601e-07
7.8011277e-07
7.7603863e-07
7.7237809e-07
7.6958046e-07
7.6686975e-07
7.6500202e-07
7.6342632e-07
7.624445e-07
7.6205424e-07
7.6175564e-07
7.6135892e-07
7.617716e-07
7.6245945e-07
7.6281025e-07
7.6377715e-07
7.6474771e-07
8.7482279e-07
9.0444636e-07
8.4762363e-07
8.6044379e-07
8.9145538e-07
9.019267e-07
8.8063959e-07
8.4113151e-07
8.0563945e-07
7.8847697e-07
7.9149508e-07
8.082261e-07
8.284983e-07
8.4355332e-07
8.4795517e-07
8.403285e-07
8.2245787e-07
7.9832221e-07
7.732475e-07
7.5174391e-07
7.3654474e-07
7.2906133e-07
7.2879673e-07
7.3436897e-07
7.4359009e-07
7.5419162e-07
7.6587426e-07
7.7796316e-07
7.8960799e-07
8.0070979e-07
8.0829387e-07
8.0876121e-07
8.073553e-07
8.0492904e-07
8.0125984e-07
7.9699583e-07
7.9214162e-07
7.8689465e-07
7.8176592e-07
7.7712896e-07
7.7289803e-07
7.6904941e-07
7.6595384e-07
7.632735e-07
7.6112157e-07
7.5932276e-07
7.5801021e-07
7.5746742e-07
7.5707944e-07
7.5698433e-07
7.5719861e-07
7.5774893e-07
7.5836687e-07
7.5940904e-07
7.6050359e-07
8.7437672e-07
9.0545509e-07
8.4874358e-07
8.6185481e-07
8.9303572e-07
9.0352308e-07
8.8239126e-07
8.425732e-07
8.0643153e-07
7.8823825e-07
7.9032392e-07
8.0657782e-07
8.2687405e-07
8.423479e-07
8.4740622e-07
8.4054261e-07
8.2322007e-07
7.9907854e-07
7.7380955e-07
7.5163564e-07
7.3546142e-07
7.2687078e-07
7.2542085e-07
7.3029882e-07
7.388196e-07
7.4864617e-07
7.6001242e-07
7.716388e-07
7.8255263e-07
7.9291679e-07
8.0037199e-07
8.0219937e-07
8.0084513e-07
7.9938407e-07
7.9732808e-07
7.9429331e-07
7.9073931e-07
7.8682362e-07
7.8277187e-07
7.7891711e-07
7.749279e-07
7.7092311e-07
7.6743493e-07
7.644451e-07
7.6176667e-07
7.5941545e-07
7.5727891e-07
7.554411e-07
7.5436977e-07
7.5331541e-07
7.5288436e-07
7.521639e-07
7.5265007e-07
7.5242177e-07
7.5298688e-07
8.7447576e-07
9.0549024e-07
8.4904075e-07
8.6199704e-07
8.9349288e-07
9.0382368e-07
8.8265323e-07
8.4189151e-07
8.042542e-07
7.8396285e-07
7.8492827e-07
8.0142551e-07
8.2353719e-07
8.4168401e-07
8.4882294e-07
8.4203206e-07
8.2322287e-07
7.9735929e-07
7.7157206e-07
7.4914024e-07
7.3303015e-07
7.2497233e-07
7.2506215e-07
7.3137483e-07
7.3889344e-07
7.5022824e-07
7.6673884e-07
7.8092358e-07
7.9341585e-07
8.0412484e-07
8.1168819e-07
8.1767045e-07
8.2036712e-07
8.1955867e-07
8.2132222e-07
8.2276301e-07
8.2406891e-07
8.2579078e-07
8.2729612e-07
8.2835059e-07
8.2816348e-07
8.2653189e-07
8.243647e-07
8.220642e-07
8.1937276e-07
8.1674339e-07
8.1258229e-07
8.0917799e-07
8.046371e-07
8.0125021e-07
7.9681263e-07
7.9487929e-07
7.8954061e-07
7.8749984e-07
7.792906e-07
8.752e-07
9.0756943e-07
8.5047498e-07
8.5983357e-07
8.9415032e-07
9.1035837e-07
8.9061604e-07
8.4489691e-07
8.0272276e-07
7.8050953e-07
7.8997642e-07
8.1510182e-07
8.4680327e-07
8.7788034e-07
9.0847527e-07
9.1881208e-07
8.8343354e-07
8.4486621e-07
8.1296289e-07
7.9380071e-07
7.9123979e-07
7.960231e-07
8.0032594e-07
8.1367734e-07
8.4798383e-07
8.8579926e-07
9.1941388e-07
9.4943291e-07
9.7153627e-07
9.8851499e-07
1.0038446e-06
1.0149598e-06
1.0221638e-06
1.0269706e-06
1.0315531e-06
1.037881e-06
1.0489285e-06
1.0675774e-06
1.087151e-06
1.1035235e-06
1.1184255e-06
1.1316627e-06
1.140346e-06
1.1451206e-06
1.1465448e-06
1.1476314e-06
1.149242e-06
1.1489779e-06
1.1444371e-06
1.138204e-06
1.1305957e-06
1.12573e-06
1.1128234e-06
1.1049381e-06
1.0724386e-06
8.6877346e-07
9.0537401e-07
8.5018343e-07
8.5723947e-07
9.1347233e-07
1.0014582e-06
1.0616063e-06
1.0045211e-06
9.8207505e-07
1.0002339e-06
1.0253221e-06
1.1213668e-06
1.2289987e-06
1.2760805e-06
1.292178e-06
1.3265821e-06
1.3003614e-06
1.2409987e-06
1.2095776e-06
1.2014333e-06
1.2034189e-06
1.2154781e-06
1.2519629e-06
1.3271545e-06
1.4029471e-06
1.4684501e-06
1.521309e-06
1.5662989e-06
1.5998468e-06
1.6225508e-06
1.6408236e-06
1.6536879e-06
1.66066e-06
1.664922e-06
1.6712508e-06
1.6885981e-06
1.7075782e-06
1.7430029e-06
1.7799792e-06
1.8276768e-06
1.865549e-06
1.9029628e-06
1.9359435e-06
1.9662927e-06
1.9967367e-06
2.0280312e-06
2.0482066e-06
2.0630478e-06
2.0662901e-06
2.0694286e-06
2.0716999e-06
2.0715945e-06
2.0706597e-06
2.0658885e-06
2.0313304e-06
6.202401e-07
8.9081962e-07
9.1716049e-07
9.647518e-07
1.1939935e-06
1.5155213e-06
1.6121512e-06
1.6857318e-06
1.7231688e-06
1.7718886e-06
1.8615275e-06
2.0040819e-06
2.1110038e-06
2.1688248e-06
2.1805655e-06
2.1853182e-06
2.1475037e-06
2.1123862e-06
2.1089326e-06
2.1143214e-06
2.1329496e-06
2.1834882e-06
2.2719864e-06
2.3615357e-06
2.4431197e-06
2.5152199e-06
2.5709104e-06
2.6212256e-06
2.6687535e-06
2.700223e-06
2.7311017e-06
2.764021e-06
2.795518e-06
2.8129743e-06
2.8293884e-06
2.8724136e-06
2.8950723e-06
2.9439222e-06
2.9688184e-06
3.0379827e-06
3.0735015e-06
3.1438414e-06
3.1942403e-06
3.2201642e-06
3.264075e-06
3.338946e-06
3.3701588e-06
3.3525512e-06
3.4643856e-06
3.4794269e-06
3.4268908e-06
3.525666e-06
3.5266365e-06
3.4375683e-06
3.5305237e-06
4.0607331e-07
9.1461177e-07
1.0546725e-06
1.0683393e-06
1.1368137e-06
1.2194678e-06
1.3058213e-06
1.3214271e-06
1.378127e-06
1.3841305e-06
1.4013587e-06
1.4216379e-06
1.4526355e-06
1.4980334e-06
1.5350889e-06
1.5952548e-06
1.6177705e-06
1.6589711e-06
1.6791269e-06
1.6950887e-06
1.7114486e-06
1.746203e-06
1.7848581e-06
1.8287291e-06
1.8637113e-06
1.8975601e-06
1.920815e-06
1.9417149e-06
1.9614341e-06
1.9800718e-06
1.997531e-06
2.0149572e-06
2.0323248e-06
2.0495715e-06
2.0662746e-06
2.0879729e-06
2.0930101e-06
2.132921e-06
2.1198405e-06
2.1804071e-06
2.1545759e-06
2.2030378e-06
2.2566577e-06
2.1928342e-06
2.3040086e-06
2.2527335e-06
2.3085612e-06
2.4011929e-06
2.3181397e-06
2.3718738e-06
2.4791782e-06
2.4107679e-06
2.4080965e-06
2.5726233e-06
2.4686038e-06
2.4470898e-06
3.5458309e-06
2.1026332e-06
1.1179019e-06
7.9160146e-07
7.5475797e-07
7.612532e-07
7.6612207e-07
7.7052901e-07
7.7339813e-07
7.7699459e-07
7.8066768e-07
7.8550629e-07
7.8996732e-07
7.96394e-07
8.0295295e-07
8.1080144e-07
8.2074605e-07
8.3200816e-07
8.4598455e-07
8.6384677e-07
8.8655587e-07
9.1970092e-07
9.6036729e-07
9.8178665e-07
1.0049218e-06
1.0365579e-06
2.5779915e-06
3.5948926e-06
2.2419094e-06
1.2154161e-06
8.1528075e-07
7.5809697e-07
7.6293144e-07
7.6775855e-07
7.7227267e-07
7.7540297e-07
7.7944675e-07
7.8327319e-07
7.8812804e-07
7.9347195e-07
7.9955971e-07
8.0669643e-07
8.1490687e-07
8.2439834e-07
8.361394e-07
8.4909736e-07
8.6602477e-07
8.87726e-07
9.1967726e-07
9.6155126e-07
9.8504908e-07
1.0093982e-06
1.0374842e-06
2.3127634e-06
3.5520403e-06
2.2542153e-06
1.2574566e-06
8.2898583e-07
7.6057608e-07
7.6403832e-07
7.6924106e-07
7.7422877e-07
7.7777988e-07
7.81903e-07
7.8592198e-07
7.9106967e-07
7.9631336e-07
8.0293834e-07
8.1002643e-07
8.1865033e-07
8.2813035e-07
8.3971781e-07
8.5377549e-07
8.7053375e-07
8.9141135e-07
9.2197755e-07
9.6497839e-07
9.9163894e-07
1.0175793e-06
1.043865e-06
2.2407394e-06
3.5416413e-06
2.2792006e-06
1.3014269e-06
8.5023407e-07
7.6495336e-07
7.6600386e-07
7.7199765e-07
7.7775495e-07
7.8193486e-07
7.8623205e-07
7.9010589e-07
7.9541995e-07
8.0067384e-07
8.0697088e-07
8.1432355e-07
8.226448e-07
8.3279392e-07
8.4394839e-07
8.5737485e-07
8.7315665e-07
8.9316344e-07
9.227556e-07
9.6707415e-07
9.9618336e-07
1.0248843e-06
1.0526872e-06
2.5212843e-06
3.5414465e-06
2.399065e-06
1.4134649e-06
9.0519128e-07
7.7818177e-07
7.7155098e-07
7.7748606e-07
7.8203836e-07
7.8677722e-07
7.9133052e-07
7.9545566e-07
8.0051014e-07
8.0642804e-07
8.1266049e-07
8.1967985e-07
8.2821663e-07
8.3770747e-07
8.5002375e-07
8.6317747e-07
8.8016642e-07
8.9819382e-07
9.2498464e-07
9.7024713e-07
1.00082e-06
1.0303059e-06
1.0613417e-06
2.4176508e-06
3.4881346e-06
2.6292023e-06
1.6518611e-06
8.9462595e-07
7.3508842e-07
7.7724295e-07
7.8134991e-07
7.8494971e-07
7.8987624e-07
7.9467283e-07
7.9915067e-07
8.0454603e-07
8.1048493e-07
8.1799766e-07
8.2531662e-07
8.3413471e-07
8.4379267e-07
8.5534178e-07
8.6879328e-07
8.8438078e-07
9.0241967e-07
9.2676646e-07
9.7319294e-07
1.0075594e-06
1.0369325e-06
1.072349e-06
2.2801515e-06
3.2727041e-06
2.7218778e-06
1.5562645e-06
8.6994942e-07
6.7000246e-07
7.7895916e-07
7.8248925e-07
7.8641944e-07
7.9145761e-07
7.9696282e-07
8.0156251e-07
8.0723582e-07
8.1361522e-07
8.2119049e-07
8.302346e-07
8.3925093e-07
8.5020027e-07
8.6172702e-07
8.759031e-07
8.910543e-07
9.0741994e-07
9.2912707e-07
9.7375481e-07
1.0112353e-06
1.0424949e-06
1.081688e-06
2.155441e-06
3.2184287e-06
2.711142e-06
1.3364904e-06
9.2339819e-07
6.6168247e-07
7.7946194e-07
7.8386578e-07
7.8805145e-07
7.9476645e-07
8.0052069e-07
8.0571492e-07
8.119496e-07
8.1859588e-07
8.2602943e-07
8.3488024e-07
8.4442676e-07
8.5525278e-07
8.6732901e-07
8.8122149e-07
8.9848315e-07
9.1506602e-07
9.3463382e-07
9.7575224e-07
1.0174706e-06
1.0479904e-06
1.0904965e-06
1.8841914e-06
3.1416993e-06
2.6042762e-06
1.6620757e-06
9.9872448e-07
7.3311168e-07
7.1598924e-07
7.8750568e-07
7.9269383e-07
8.0287441e-07
8.0962868e-07
8.1526512e-07
8.2162172e-07
8.282177e-07
8.3475032e-07
8.4305556e-07
8.5256114e-07
8.6358457e-07
8.7562262e-07
8.8875223e-07
9.0523037e-07
9.2216714e-07
9.3939303e-07
9.7677144e-07
1.0192762e-06
1.0500155e-06
1.0980104e-06
1.7769049e-06
3.1323203e-06
2.562715e-06
1.6758717e-06
8.988644e-07
6.8758265e-07
5.985099e-07
7.4968639e-07
8.0557611e-07
8.1514113e-07
8.2226098e-07
8.2721678e-07
8.3264859e-07
8.3923229e-07
8.4581511e-07
8.5327644e-07
8.6179862e-07
8.7169266e-07
8.8414165e-07
8.9755826e-07
9.1439558e-07
9.3205871e-07
9.4801026e-07
9.8155046e-07
1.0246114e-06
1.0550093e-06
1.1048087e-06
1.4179449e-06
2.9231937e-06
2.5557082e-06
1.8235925e-06
8.5276619e-07
6.3587492e-07
5.4560224e-07
6.7721204e-07
8.1628575e-07
8.2196839e-07
8.2888443e-07
8.348002e-07
8.3983958e-07
8.4712974e-07
8.5434773e-07
8.6258695e-07
8.720276e-07
8.8159154e-07
8.9399247e-07
9.0668611e-07
9.2257826e-07
9.4003389e-07
9.5485642e-07
9.8415735e-07
1.0281432e-06
1.0575891e-06
1.1108173e-06
1.2650011e-06
2.4119541e-06
2.6048643e-06
1.8305888e-06
9.6696216e-07
5.7617384e-07
5.2071518e-07
6.3391424e-07
8.1937254e-07
8.2387003e-07
8.3106474e-07
8.3748719e-07
8.4331617e-07
8.5092311e-07
8.5876672e-07
8.675363e-07
8.7738561e-07
8.8788639e-07
9.0054242e-07
9.1424671e-07
9.3048551e-07
9.494306e-07
9.6243274e-07
9.8837413e-07
1.0314324e-06
1.0583059e-06
1.1132928e-06
1.4149941e-06
2.3762707e-06
2.6248141e-06
1.7242747e-06
1.0826897e-06
5.7058959e-07
5.5546101e-07
6.115058e-07
8.1999498e-07
8.2552303e-07
8.3366356e-07
8.404629e-07
8.4690961e-07
8.5459705e-07
8.6265729e-07
8.7216128e-07
8.8323683e-07
8.9416192e-07
9.0710717e-07
9.2096261e-07
9.3803961e-07
9.5862513e-07
9.7287556e-07
9.9462709e-07
1.0397037e-06
1.061827e-06
1.1153001e-06
1.0440768e-06
2.4726042e-06
2.6183707e-06
1.9789953e-06
1.010606e-06
6.0496173e-07
5.3317042e-07
5.5277671e-07
7.4437929e-07
8.3013969e-07
8.401738e-07
8.4762737e-07
8.5438547e-07
8.6270148e-07
8.7097279e-07
8.8139443e-07
8.9196994e-07
9.0392764e-07
9.1691872e-07
9.3040159e-07
9.4630951e-07
9.6618794e-07
9.8176342e-07
9.9854839e-07
1.0455411e-06
1.0648308e-06
1.1164861e-06
9.8702285e-07
2.3593794e-06
2.5397895e-06
1.9655554e-06
9.2209888e-07
5.6539168e-07
4.4638363e-07
5.0715479e-07
6.2490775e-07
8.4604987e-07
8.5769079e-07
8.6614185e-07
8.7201778e-07
8.7834807e-07
8.8593422e-07
8.9322348e-07
9.034301e-07
9.1384425e-07
9.2587177e-07
9.3966847e-07
9.5447721e-07
9.7445366e-07
9.9013957e-07
1.0047411e-06
1.0497479e-06
1.0697884e-06
1.1163669e-06
8.4548592e-07
1.3483863e-06
1.9315612e-06
1.7083418e-06
6.5582656e-07
5.0067778e-07
4.2335457e-07
4.9913193e-07
6.0768101e-07
8.6195288e-07
8.7443926e-07
8.820892e-07
8.8793838e-07
8.9427033e-07
9.0131904e-07
9.086532e-07
9.1809911e-07
9.2782527e-07
9.3930648e-07
9.5232615e-07
9.6570548e-07
9.8511372e-07
1.0009427e-06
1.0134884e-06
1.0547055e-06
1.075133e-06
1.1208564e-06
6.0733236e-07
1.669596e-06
1.5599849e-06
1.0466217e-06
9.5011086e-07
5.4340449e-07
6.0941254e-07
5.9369736e-07
6.9387476e-07
8.6677283e-07
8.7825103e-07
8.8614744e-07
8.9406792e-07
9.0098927e-07
9.093166e-07
9.1808848e-07
9.2785044e-07
9.3832034e-07
9.4969233e-07
9.6312527e-07
9.7549473e-07
9.9528717e-07
1.0115537e-06
1.0231116e-06
1.0592377e-06
1.0812154e-06
1.1223055e-06
8.5679978e-07
1.8047326e-06
2.1047884e-06
1.4808452e-06
1.4323473e-06
8.3908886e-07
6.7289056e-07
5.3949618e-07
5.9003468e-07
7.4332547e-07
8.8112801e-07
8.8993063e-07
8.9792003e-07
9.051522e-07
9.1359441e-07
9.2288841e-07
9.3276101e-07
9.4293397e-07
9.5504419e-07
9.6788505e-07
9.8091932e-07
1.0006435e-06
1.0192485e-06
1.0304155e-06
1.0639373e-06
1.0859845e-06
1.1265696e-06
7.1902958e-07
1.3299425e-06
1.9558916e-06
1.5783203e-06
5.3410017e-07
3.6538817e-07
2.9509147e-07
3.3570582e-07
4.2272753e-07
5.8498962e-07
8.016204e-07
9.0037066e-07
9.0868538e-07
9.1596118e-07
9.2424235e-07
9.339714e-07
9.4345241e-07
9.5379735e-07
9.6579712e-07
9.7812895e-07
9.9133498e-07
1.0099173e-06
1.0297322e-06
1.0401674e-06
1.0703155e-06
1.0927556e-06
1.1325918e-06
1.2883863e-06
1.4671172e-06
1.860557e-06
9.2861399e-07
5.1474503e-07
3.4879589e-07
2.7786271e-07
3.1152141e-07
3.9996131e-07
5.7073078e-07
7.93085e-07
9.0587081e-07
9.1493599e-07
9.2300561e-07
9.325016e-07
9.4261919e-07
9.5396949e-07
9.6557099e-07
9.7892668e-07
9.9201769e-07
1.0044133e-06
1.0217481e-06
1.0420244e-06
1.0523367e-06
1.0780795e-06
1.099634e-06
1.1383717e-06
6.5483195e-07
1.3059869e-06
1.1695869e-06
8.1935314e-07
5.2614937e-07
6.4885965e-07
7.5993386e-07
8.2628309e-07
7.8655461e-07
8.3556002e-07
8.9914414e-07
9.1256028e-07
9.2352284e-07
9.3232317e-07
9.4101989e-07
9.5098121e-07
9.6081319e-07
9.7256425e-07
9.8511913e-07
9.9951368e-07
1.0128642e-06
1.0309231e-06
1.0528008e-06
1.0633102e-06
1.0883238e-06
1.1064705e-06
1.1453854e-06
1.0192784e-06
1.6129266e-06
1.7940208e-06
7.8302019e-07
9.2350088e-07
3.4617863e-07
3.9560964e-07
3.9001257e-07
4.7252326e-07
6.3580351e-07
7.3251377e-07
9.353576e-07
9.4704641e-07
9.5497453e-07
9.6234451e-07
9.6926403e-07
9.7769452e-07
9.8649206e-07
9.9674655e-07
1.0088352e-06
1.0208377e-06
1.0377647e-06
1.0607515e-06
1.0720909e-06
1.0962803e-06
1.1128387e-06
1.1514718e-06
5.7510255e-07
1.5700368e-06
1.5964876e-06
1.6806888e-06
5.181205e-07
3.509017e-07
2.1139316e-07
2.6334718e-07
2.7816462e-07
4.2674009e-07
5.6328974e-07
8.3787675e-07
9.6347699e-07
9.7066917e-07
9.7725565e-07