/*--------------------------------*- C++ -*----------------------------------*\
| =========                 |                                                 |
| \\      /  F ield         | OpenFOAM: The Open Source CFD Toolbox           |
|  \\    /   O peration     | Version:  2406                                  |
|   \\  /    A nd           | Website:  www.openfoam.com                      |
|    \\/     M anipulation  |                                                 |
\*---------------------------------------------------------------------------*/
FoamFile
{
    version     2.0;
    format      ascii;
    arch        "LSB;label=32;scalar=64";
    class       volScalarField;
    location    "17";
    object      k;
}
// * * * * * * * * * * * * * * * * * * * * * * * * * * * * * * * * * * * * * //

dimensions      [0 2 -2 0 0 0 0];

internalField   nonuniform List<scalar> 
62344
(
4.487366e-06
3.4238279e-06
2.8479512e-06
2.4836126e-06
2.1927156e-06
1.9283859e-06
1.6851585e-06
1.4954818e-06
1.348178e-06
1.2548544e-06
1.2015541e-06
1.155211e-06
1.1263275e-06
1.0868456e-06
1.0396191e-06
9.9693652e-07
9.7020356e-07
9.4016126e-07
8.8313818e-07
8.6371676e-07
8.6470776e-07
8.8824657e-07
8.9667167e-07
9.0942941e-07
9.2920111e-07
9.4702106e-07
9.7428735e-07
1.0145365e-06
1.0548994e-06
1.1201622e-06
1.2392316e-06
1.4033032e-06
1.7018882e-06
1.9982173e-06
2.392476e-06
2.7871681e-06
3.48547e-06
4.2247647e-06
5.8019906e-06
7.7435446e-06
1.0959802e-05
1.5333049e-05
1.9844917e-05
2.5557009e-05
2.7884549e-05
3.2031643e-05
3.672122e-05
4.5888747e-05
5.8822933e-05
8.9976406e-05
0.00012517072
0.00018587525
0.00026042348
0.00033714531
0.00052565159
4.4922162e-06
3.4317769e-06
2.8530983e-06
2.4913082e-06
2.2011109e-06
1.9412973e-06
1.6968784e-06
1.4974788e-06
1.3513539e-06
1.2566566e-06
1.1939326e-06
1.1536564e-06
1.1241298e-06
1.0840064e-06
1.037009e-06
9.9390566e-07
9.7698623e-07
9.5124691e-07
8.8901496e-07
8.5730256e-07
8.546484e-07
8.7123009e-07
8.7649749e-07
8.8366657e-07
8.9681297e-07
9.1792525e-07
9.4912814e-07
9.8789678e-07
1.0218318e-06
1.057772e-06
1.1284809e-06
1.2676655e-06
1.5063945e-06
1.7156089e-06
2.0661853e-06
2.4308341e-06
3.0028595e-06
3.5424892e-06
4.740521e-06
6.2210559e-06
9.5718739e-06
1.2550313e-05
1.8577807e-05
2.61601e-05
3.323276e-05
4.0652643e-05
4.7031512e-05
5.240624e-05
5.8646381e-05
7.2407645e-05
9.6698252e-05
0.00011782657
0.00015276197
0.00018526493
0.00028072928
4.5013167e-06
3.4390619e-06
2.8535564e-06
2.4932193e-06
2.2125811e-06
1.9568893e-06
1.70187e-06
1.5012888e-06
1.3627485e-06
1.262095e-06
1.2005824e-06
1.1640562e-06
1.1321904e-06
1.0903973e-06
1.0426786e-06
1.0017281e-06
9.8021181e-07
9.4779843e-07
8.9516039e-07
8.6143965e-07
8.5384921e-07
8.5952584e-07
8.6397092e-07
8.7755403e-07
8.9150132e-07
9.1173571e-07
9.4662321e-07
9.9153066e-07
1.0262965e-06
1.0611973e-06
1.1186688e-06
1.2301921e-06
1.4483524e-06
1.647383e-06
1.9629523e-06
2.2963356e-06
2.7926563e-06
3.2483529e-06
4.1359175e-06
5.3607921e-06
8.0651159e-06
1.1143836e-05
1.7890561e-05
2.3610726e-05
3.5104806e-05
4.2892749e-05
5.7525076e-05
6.5087748e-05
7.2744768e-05
8.0303774e-05
9.795969e-05
0.0001112044
0.00013598861
0.00015759736
0.0002109207
4.5094766e-06
3.4437527e-06
2.8594812e-06
2.4999081e-06
2.2186751e-06
1.9640316e-06
1.7123147e-06
1.5114012e-06
1.3655288e-06
1.2681726e-06
1.2025922e-06
1.1573646e-06
1.1244216e-06
1.0870937e-06
1.0458468e-06
1.0046879e-06
9.9228135e-07
9.6588689e-07
9.0282409e-07
8.6896893e-07
8.620457e-07
8.6682932e-07
8.7154249e-07
8.8371507e-07
8.930698e-07
9.0781639e-07
9.4751258e-07
1.0019091e-06
1.038924e-06
1.0680668e-06
1.1185621e-06
1.2147657e-06
1.4031646e-06
1.6012391e-06
1.9080599e-06
2.1687396e-06
2.6204817e-06
3.0767789e-06
3.9510507e-06
4.9611619e-06
7.056512e-06
9.641134e-06
1.5519797e-05
2.2270994e-05
3.3874756e-05
4.2566605e-05
6.0237161e-05
7.1207705e-05
9.074723e-05
9.9545093e-05
0.00011698727
0.00012621409
0.00014521184
0.00016682187
0.0001978525
4.5140627e-06
3.4525988e-06
2.8652319e-06
2.5040836e-06
2.2267661e-06
1.9778661e-06
1.7285192e-06
1.5216618e-06
1.3686598e-06
1.2692801e-06
1.2109033e-06
1.1686091e-06
1.1351988e-06
1.1039963e-06
1.051386e-06
1.0091693e-06
9.9631226e-07
9.7722625e-07
9.1697448e-07
8.7043989e-07
8.6638668e-07
8.7336661e-07
8.7354283e-07
8.766828e-07
8.8142735e-07
8.970082e-07
9.4300677e-07
9.9899804e-07
1.0440369e-06
1.0799865e-06
1.1298338e-06
1.2076985e-06
1.3423098e-06
1.5348163e-06
1.8151573e-06
2.0390916e-06
2.4115308e-06
3.0138881e-06
3.7975761e-06
4.8974378e-06
6.8139913e-06
8.9799178e-06
1.3767031e-05
2.0563853e-05
3.0499756e-05
4.0582555e-05
6.1239349e-05
7.7367e-05
0.00010584223
0.00012002969
0.00014425666
0.00016171073
0.00018701156
0.00021567155
0.00023389338
4.5193265e-06
3.4614524e-06
2.8743508e-06
2.5073449e-06
2.2378282e-06
1.9830945e-06
1.7327673e-06
1.5282647e-06
1.3757079e-06
1.2777146e-06
1.215566e-06
1.1684979e-06
1.1329606e-06
1.1067003e-06
1.0570178e-06
1.0204413e-06
9.9786523e-07
9.7813792e-07
9.2597025e-07
8.8919249e-07
8.7182141e-07
8.6854864e-07
8.6467204e-07
8.710061e-07
8.7592584e-07
8.9064524e-07
9.3624652e-07
9.9606837e-07
1.0488651e-06
1.0972972e-06
1.1474586e-06
1.2071527e-06
1.3111584e-06
1.48181e-06
1.7733785e-06
2.0048589e-06
2.3446036e-06
3.0310207e-06
3.7244877e-06
4.7823789e-06
6.406427e-06
8.3174119e-06
1.2146173e-05
1.894037e-05
2.6838376e-05
3.5034975e-05
5.0346467e-05
7.1253026e-05
0.00010121712
0.00012391382
0.00015948816
0.00019567291
0.00023424268
0.00027076141
0.00028565508
4.522493e-06
3.4683314e-06
2.8816194e-06
2.5162526e-06
2.2437385e-06
1.983268e-06
1.7404121e-06
1.5351874e-06
1.3830037e-06
1.2883205e-06
1.2178914e-06
1.1726905e-06
1.1349031e-06
1.1068077e-06
1.0696029e-06
1.0195929e-06
1.0095154e-06
9.9370632e-07
9.4259269e-07
9.0261669e-07
8.8225039e-07
8.7425268e-07
8.7254954e-07
8.8268111e-07
8.8503178e-07
8.909249e-07
9.2762648e-07
9.9627365e-07
1.0496031e-06
1.0852525e-06
1.1316749e-06
1.190545e-06
1.2846053e-06
1.4220993e-06
1.6912069e-06
1.924178e-06
2.2790891e-06
2.9758966e-06
3.6348804e-06
4.6118599e-06
6.2241963e-06
8.0670379e-06
1.1506549e-05
1.8147571e-05
2.6271948e-05
3.4137673e-05
4.7040743e-05
6.692793e-05
8.1949411e-05
0.00010816577
0.00014723667
0.00018166803
0.00022277277
0.00026942948
0.00030571661
4.525295e-06
3.4771581e-06
2.8813874e-06
2.517637e-06
2.2454869e-06
1.9960801e-06
1.7495861e-06
1.5420322e-06
1.3913829e-06
1.2887326e-06
1.2277645e-06
1.1874741e-06
1.1468599e-06
1.1163153e-06
1.0792337e-06
1.0239299e-06
1.0089634e-06
9.9962288e-07
9.5256168e-07
9.0575953e-07
8.8935073e-07
8.7842938e-07
8.7363876e-07
8.7780729e-07
8.7513604e-07
8.8074394e-07
9.1394501e-07
9.8000768e-07
1.0351609e-06
1.0719332e-06
1.1160646e-06
1.173831e-06
1.268219e-06
1.3857142e-06
1.6153555e-06
1.8316892e-06
2.2446208e-06
2.7869721e-06
3.40089e-06
4.1384138e-06
5.5509204e-06
7.1414557e-06
1.0064892e-05
1.4861632e-05
2.1840915e-05
2.994079e-05
4.1777058e-05
5.4877973e-05
7.0030467e-05
9.422697e-05
0.00012112745
0.00015013292
0.00019422915
0.00023511783
0.00027656225
4.5303037e-06
3.4820046e-06
2.8834384e-06
2.519488e-06
2.2497331e-06
2.0102755e-06
1.7541812e-06
1.5456765e-06
1.396006e-06
1.2894977e-06
1.2258022e-06
1.1807694e-06
1.1425389e-06
1.1148466e-06
1.0836936e-06
1.0405195e-06
9.9637149e-07
9.8910935e-07
9.6002672e-07
9.2563236e-07
8.9917839e-07
8.7819943e-07
8.6436242e-07
8.6684961e-07
8.6692221e-07
8.7505093e-07
9.0654015e-07
9.608245e-07
1.0156558e-06
1.0704775e-06
1.1214442e-06
1.1698727e-06
1.257105e-06
1.3615367e-06
1.5260444e-06
1.7355505e-06
2.1687046e-06
2.5622825e-06
3.1644907e-06
3.9026392e-06
5.1142905e-06
6.5503205e-06
9.4012997e-06
1.2768819e-05
1.8059651e-05
2.5953637e-05
3.5270032e-05
4.4745682e-05
6.22959e-05
8.3158117e-05
0.00010608464
0.00013686484
0.00017186117
0.00020948223
0.00024261674
4.5349512e-06
3.4851065e-06
2.8887816e-06
2.5285538e-06
2.2568283e-06
2.0159742e-06
1.7626539e-06
1.5558454e-06
1.4018939e-06
1.3022127e-06
1.232927e-06
1.1795186e-06
1.1429047e-06
1.1218037e-06
1.0881465e-06
1.0452203e-06
1.0033018e-06
9.9171944e-07
9.6965245e-07
9.3910628e-07
9.0830553e-07
8.8273812e-07
8.7227737e-07
8.8235277e-07
8.8791599e-07
8.9017019e-07
9.0711634e-07
9.4495283e-07
1.0036027e-06
1.0761032e-06
1.1334301e-06
1.1943889e-06
1.2767912e-06
1.3671878e-06
1.4820609e-06
1.6510375e-06
2.0118716e-06
2.3903967e-06
2.932859e-06
3.8299244e-06
4.9305362e-06
6.3038631e-06
8.5984572e-06
1.1199163e-05
1.4862808e-05
2.1917565e-05
2.8993259e-05
3.69714e-05
4.9997578e-05
6.8327835e-05
8.6731971e-05
0.00010747765
0.00013462521
0.00017742454
0.00020493956
4.5384487e-06
3.4912375e-06
2.8914944e-06
2.5342764e-06
2.2649679e-06
2.0189795e-06
1.7722899e-06
1.56466e-06
1.4076387e-06
1.3064965e-06
1.2429296e-06
1.1921925e-06
1.1540894e-06
1.1325177e-06
1.0916098e-06
1.0436864e-06
1.0217652e-06
1.0051598e-06
9.7396824e-07
9.3653815e-07
9.0752088e-07
8.8324473e-07
8.7822761e-07
8.8925679e-07
8.9476212e-07
8.9418267e-07
9.0475548e-07
9.3649009e-07
9.9989229e-07
1.0809556e-06
1.1419153e-06
1.2376428e-06
1.3455711e-06
1.4142769e-06
1.49008e-06
1.599047e-06
1.837515e-06
2.26173e-06
2.7544807e-06
3.7732279e-06
4.8803616e-06
6.3780575e-06
8.0168581e-06
1.0277788e-05
1.2864513e-05
1.8426614e-05
2.4275422e-05
3.2068091e-05
4.1808921e-05
5.5683324e-05
6.9205156e-05
8.2365738e-05
9.8829955e-05
0.00012890879
0.00015266529
4.5422264e-06
3.4992082e-06
2.8943186e-06
2.5360416e-06
2.2713708e-06
2.0274335e-06
1.7815038e-06
1.5681128e-06
1.4079321e-06
1.3008974e-06
1.2377552e-06
1.1929089e-06
1.154076e-06
1.1256413e-06
1.0947138e-06
1.0475543e-06
1.0232784e-06
1.0083018e-06
9.7752002e-07
9.3857786e-07
9.1046269e-07
8.8063519e-07
8.6625725e-07
8.7083871e-07
8.722828e-07
8.764464e-07
8.9500364e-07
9.3378132e-07
9.9759478e-07
1.0857941e-06
1.1615425e-06
1.2703675e-06
1.3738936e-06
1.4430019e-06
1.5123427e-06
1.5990782e-06
1.7882979e-06
2.1968466e-06
2.6467952e-06
3.6742657e-06
4.8324371e-06
6.5281083e-06
7.8878274e-06
1.0039284e-05
1.2363832e-05
1.6885525e-05
2.2193255e-05
3.0032189e-05
3.91978e-05
5.0742501e-05
6.2470322e-05
7.5035568e-05
8.8050492e-05
0.00010882027
0.00012507746
4.545615e-06
3.5051315e-06
2.9023591e-06
2.5411042e-06
2.2783897e-06
2.0400713e-06
1.7909332e-06
1.5742513e-06
1.4136134e-06
1.3026657e-06
1.2351522e-06
1.1860225e-06
1.1434345e-06
1.1214552e-06
1.1000212e-06
1.0536082e-06
1.0031011e-06
9.9219137e-07
9.8155641e-07
9.5936153e-07
9.284891e-07
8.8840712e-07
8.6171899e-07
8.6182019e-07
8.6159011e-07
8.6698687e-07
8.8772932e-07
9.2663954e-07
9.8853492e-07
1.0758603e-06
1.1698189e-06
1.2808039e-06
1.3754198e-06
1.4423622e-06
1.519815e-06
1.6115598e-06
1.7934832e-06
2.1893188e-06
2.5908102e-06
3.5335928e-06
4.7399622e-06
6.5323583e-06
7.9302925e-06
1.0122481e-05
1.2586167e-05
1.6612817e-05
2.197977e-05
3.0055039e-05
3.9518767e-05
5.0397825e-05
6.1416432e-05
7.4565456e-05
8.8057618e-05
0.00010365945
0.00011886597
4.5479971e-06
3.5103283e-06
2.9122011e-06
2.5487242e-06
2.2851332e-06
2.0498742e-06
1.7989942e-06
1.5858044e-06
1.4250385e-06
1.315499e-06
1.2546124e-06
1.1928933e-06
1.1452746e-06
1.1338646e-06
1.1092907e-06
1.0607919e-06
9.98167e-07
9.866322e-07
9.8712065e-07
9.7356672e-07
9.4367756e-07
8.9944802e-07
8.7205414e-07
8.7450546e-07
8.7697553e-07
8.8161257e-07
8.9421031e-07
9.2063106e-07
9.7831912e-07
1.0582857e-06
1.1597677e-06
1.2672241e-06
1.3482143e-06
1.4141858e-06
1.5067475e-06
1.6269913e-06
1.8381139e-06
2.2228636e-06
2.5801274e-06
3.3709772e-06
4.5404291e-06
6.2994611e-06
7.8739208e-06
1.006894e-05
1.2677679e-05
1.681399e-05
2.2267871e-05
3.034024e-05
4.0192787e-05
5.1156103e-05
6.3357683e-05
7.8992075e-05
9.5314692e-05
0.00011000204
0.00013060624
4.5491116e-06
3.5160025e-06
2.9165828e-06
2.5534087e-06
2.290955e-06
2.0518372e-06
1.8042318e-06
1.5917776e-06
1.4287305e-06
1.3204584e-06
1.2646964e-06
1.206321e-06
1.1590535e-06
1.1461158e-06
1.1112026e-06
1.06945e-06
1.0196055e-06
1.000293e-06
9.9318417e-07
9.7244819e-07
9.4007575e-07
8.9579659e-07
8.7660139e-07
8.8195244e-07
8.851144e-07
8.8900743e-07
8.9954534e-07
9.1887359e-07
9.7019916e-07
1.043713e-06
1.1323155e-06
1.2312947e-06
1.3176947e-06
1.3977467e-06
1.4989229e-06
1.6334354e-06
1.8492195e-06
2.2430416e-06
2.5761083e-06
3.2441514e-06
4.1949462e-06
5.7458702e-06
7.4359758e-06
9.4079057e-06
1.2105169e-05
1.623455e-05
2.1933535e-05
2.9002974e-05
3.8005507e-05
4.8411419e-05
6.2648101e-05
7.9310187e-05
9.646106e-05
0.00011203937
0.00013458167
4.5500035e-06
3.5217883e-06
2.9166442e-06
2.5536845e-06
2.2934041e-06
2.0502682e-06
1.8073339e-06
1.5905908e-06
1.4234747e-06
1.3138473e-06
1.2506701e-06
1.2032866e-06
1.1639297e-06
1.1438028e-06
1.102745e-06
1.0656276e-06
1.035339e-06
1.0094865e-06
9.8475106e-07
9.553827e-07
9.1762361e-07
8.789193e-07
8.6552969e-07
8.6944716e-07
8.6851714e-07
8.7264714e-07
8.8984749e-07
9.1268621e-07
9.5389345e-07
1.0144966e-06
1.0881237e-06
1.1729815e-06
1.2754107e-06
1.3745584e-06
1.4927143e-06
1.6258667e-06
1.8247844e-06
2.2163426e-06
2.5219205e-06
3.0825789e-06
3.7957404e-06
4.9001056e-06
6.5341264e-06
8.1775369e-06
1.0652232e-05
1.3956259e-05
1.8741305e-05
2.4255046e-05
3.0415391e-05
3.6957804e-05
4.9285409e-05
6.502574e-05
8.2445594e-05
9.8441025e-05
0.000118296
4.5514477e-06
3.526781e-06
2.9179051e-06
2.5545383e-06
2.2946801e-06
2.0539688e-06
1.8111357e-06
1.5896996e-06
1.421693e-06
1.3087094e-06
1.2347286e-06
1.19126e-06
1.1572067e-06
1.1224062e-06
1.0995986e-06
1.0582328e-06
1.031588e-06
1.0043601e-06
9.7763445e-07
9.5084371e-07
9.1146849e-07
8.7479966e-07
8.5695156e-07
8.5359513e-07
8.4915844e-07
8.547264e-07
8.7803268e-07
9.0368633e-07
9.341622e-07
9.804703e-07
1.0387478e-06
1.108793e-06
1.2181581e-06
1.3236204e-06
1.460225e-06
1.5905241e-06
1.7672484e-06
2.109453e-06
2.4022582e-06
2.8567171e-06
3.4142401e-06
4.0488193e-06
5.3908393e-06
6.6046656e-06
8.7019986e-06
1.0868937e-05
1.4426969e-05
1.8605675e-05
2.3247263e-05
2.6936145e-05
3.3788321e-05
4.2886935e-05
5.4692183e-05
6.5914707e-05
7.9860173e-05
4.5530388e-06
3.5302392e-06
2.9223194e-06
2.5588986e-06
2.2975988e-06
2.0646469e-06
1.819331e-06
1.5951884e-06
1.4340013e-06
1.313235e-06
1.2408467e-06
1.1923402e-06
1.1492304e-06
1.1192743e-06
1.1043196e-06
1.0629396e-06
1.0203392e-06
9.9764274e-07
9.8074916e-07
9.6556691e-07
9.3029578e-07
8.8953766e-07
8.6174491e-07
8.5255801e-07
8.4908384e-07
8.5681732e-07
8.7959944e-07
8.9827835e-07
9.159868e-07
9.4672414e-07
9.9845256e-07
1.0549966e-06
1.1319579e-06
1.2231123e-06
1.3676332e-06
1.4981833e-06
1.6512987e-06
1.8691461e-06
2.1807868e-06
2.4098569e-06
2.8665263e-06
3.2768043e-06
4.1697785e-06
5.0914164e-06
6.7273264e-06
7.9631091e-06
1.0453872e-05
1.3087045e-05
1.7603408e-05
2.1481581e-05
2.6608862e-05
3.2667018e-05
4.0552605e-05
4.8685222e-05
5.5183887e-05
4.5550874e-06
3.5340761e-06
2.9279432e-06
2.5661654e-06
2.302711e-06
2.0772606e-06
1.8301996e-06
1.6072132e-06
1.4530229e-06
1.3243452e-06
1.2658116e-06
1.2111911e-06
1.1508852e-06
1.1335469e-06
1.118871e-06
1.0744958e-06
1.0181987e-06
9.9776028e-07
9.8980075e-07
9.7986699e-07
9.5578725e-07
9.0930705e-07
8.7469941e-07
8.6492412e-07
8.6521121e-07
8.7615435e-07
8.920083e-07
9.0154715e-07
9.0836404e-07
9.2749955e-07
9.6553943e-07
1.0120082e-06
1.0576657e-06
1.1095066e-06
1.206989e-06
1.3237308e-06
1.4898326e-06
1.6481223e-06
1.8826328e-06
2.0719934e-06
2.4420281e-06
2.7383759e-06
3.3782262e-06
4.0448343e-06
5.3868265e-06
6.3574987e-06
8.1300419e-06
9.7885512e-06
1.2792361e-05
1.6784227e-05
2.1635492e-05
2.6849551e-05
3.3241847e-05
4.0871865e-05
4.5167911e-05
4.5563524e-06
3.536548e-06
2.9304275e-06
2.5704506e-06
2.3064983e-06
2.0816858e-06
1.8354175e-06
1.6129636e-06
1.4594966e-06
1.3276523e-06
1.2778388e-06
1.2228073e-06
1.1541386e-06
1.1397144e-06
1.1232093e-06
1.0769068e-06
1.0224203e-06
9.9713019e-07
9.9078001e-07
9.8000812e-07
9.5758695e-07
9.1019511e-07
8.7645768e-07
8.6985028e-07
8.7263362e-07
8.8627861e-07
9.0062999e-07
9.0802067e-07
9.1177754e-07
9.2569123e-07
9.5769911e-07
1.000369e-06
1.0369563e-06
1.0765838e-06
1.1560279e-06
1.250292e-06
1.3941232e-06
1.5268978e-06
1.7379184e-06
1.9470313e-06
2.3129096e-06
2.5582641e-06
3.0661917e-06
3.6076636e-06
4.777763e-06
5.6965791e-06
7.1716406e-06
8.503958e-06
1.0515397e-05
1.3277805e-05
1.6809354e-05
2.1336766e-05
2.648462e-05
3.3709238e-05
3.8903545e-05
4.5582085e-06
3.5406068e-06
2.9304153e-06
2.5693991e-06
2.3054957e-06
2.0748282e-06
1.8307589e-06
1.6080817e-06
1.4507454e-06
1.3189844e-06
1.2671284e-06
1.2134903e-06
1.1510465e-06
1.1363899e-06
1.1123362e-06
1.072726e-06
1.0316312e-06
1.0075464e-06
1.0022396e-06
9.9401732e-07
9.7899868e-07
9.3864034e-07
9.1417307e-07
9.1553949e-07
9.2151497e-07
9.4618913e-07
9.7458369e-07
9.930844e-07
1.0057143e-06
1.029521e-06
1.0736754e-06
1.1195879e-06
1.1553674e-06
1.2014721e-06
1.295198e-06
1.4105642e-06
1.5529661e-06
1.6693908e-06
1.8274373e-06
2.0112897e-06
2.3437718e-06
2.580134e-06
3.0195638e-06
3.5049236e-06
4.5799533e-06
5.5132739e-06
6.9007605e-06
8.192886e-06
9.7977113e-06
1.2124127e-05
1.4709947e-05
1.8485887e-05
2.2410738e-05
2.7507401e-05
3.2904977e-05
4.5566998e-06
3.5389089e-06
2.9242152e-06
2.5568731e-06
2.2900254e-06
2.0579661e-06
1.8228897e-06
1.6074411e-06
1.4518587e-06
1.3279247e-06
1.2726335e-06
1.2261745e-06
1.179514e-06
1.1714568e-06
1.1578991e-06
1.1357185e-06
1.1208764e-06
1.1264261e-06
1.1366543e-06
1.1513093e-06
1.1636316e-06
1.1609688e-06
1.1661714e-06
1.1866979e-06
1.2137637e-06
1.2805108e-06
1.3543172e-06
1.4140099e-06
1.448053e-06
1.5251599e-06
1.625533e-06
1.6911703e-06
1.7428569e-06
1.8234374e-06
1.9708317e-06
2.193007e-06
2.4272876e-06
2.5753426e-06
2.7122508e-06
2.9736058e-06
3.3362751e-06
3.6182484e-06
3.9809931e-06
4.3450995e-06
5.1315299e-06
6.0408688e-06
7.3177799e-06
8.7825302e-06
1.0208395e-05
1.2168194e-05
1.415542e-05
1.7279919e-05
2.0598949e-05
2.4852881e-05
2.9637499e-05
4.5552185e-06
3.529757e-06
2.9087384e-06
2.5343753e-06
2.2714749e-06
2.0739969e-06
1.8882911e-06
1.7197101e-06
1.6111201e-06
1.5231173e-06
1.4896818e-06
1.4734241e-06
1.4769083e-06
1.502156e-06
1.5408271e-06
1.5690862e-06
1.6200567e-06
1.706384e-06
1.790046e-06
1.8657183e-06
1.9650154e-06
2.0584857e-06
2.133345e-06
2.2778451e-06
2.3778264e-06
2.5463713e-06
2.7482219e-06
2.9422603e-06
3.0568492e-06
3.2908708e-06
3.5999803e-06
3.7525803e-06
3.8760419e-06
4.0271051e-06
4.2546128e-06
4.7059047e-06
5.2301541e-06
5.6033509e-06
5.8387089e-06
6.3343247e-06
6.9989579e-06
7.5954572e-06
8.0842223e-06
8.459997e-06
8.8921141e-06
9.6000392e-06
1.039704e-05
1.1902607e-05
1.3095475e-05
1.4758516e-05
1.6542933e-05
1.9037833e-05
2.1988434e-05
2.5367355e-05
2.8762479e-05
4.5360698e-06
3.4885519e-06
2.9257126e-06
2.6039996e-06
2.3957297e-06
2.3649365e-06
2.3872434e-06
2.4369686e-06
2.5126565e-06
2.5652009e-06
2.6325663e-06
2.7089126e-06
2.81493e-06
3.0167945e-06
3.2000053e-06
3.3361569e-06
3.5610742e-06
3.836072e-06
4.0457064e-06
4.2517135e-06
4.5306168e-06
4.8418839e-06
5.1294445e-06
5.5620305e-06
5.8756332e-06
6.275767e-06
6.8115848e-06
7.3804978e-06
7.7827304e-06
8.403101e-06
9.2462682e-06
9.7662984e-06
1.0169845e-05
1.0584013e-05
1.1011152e-05
1.1813821e-05
1.2903324e-05
1.3960503e-05
1.4487815e-05
1.5272703e-05
1.6565654e-05
1.7923699e-05
1.896246e-05
1.9767414e-05
2.0275431e-05
2.0875869e-05
2.1257926e-05
2.1913738e-05
2.2641848e-05
2.3761989e-05
2.5543791e-05
2.7138361e-05
2.9035193e-05
3.1869044e-05
3.3375461e-05
4.5431508e-06
3.6460565e-06
3.4879123e-06
3.4812286e-06
3.5729961e-06
3.9668708e-06
4.6302627e-06
5.2583491e-06
5.7356063e-06
6.1292692e-06
6.428747e-06
6.6834505e-06
7.010664e-06
7.4953557e-06
7.9138945e-06
8.2748058e-06
8.7892165e-06
9.3132646e-06
9.703942e-06
1.0086054e-05
1.0561231e-05
1.1078195e-05
1.1738689e-05
1.2618519e-05
1.3336384e-05
1.4122325e-05
1.5330477e-05
1.6648772e-05
1.7685365e-05
1.8795369e-05
2.032963e-05
2.1716257e-05
2.28156e-05
2.3931706e-05
2.4881391e-05
2.581259e-05
2.7741057e-05
2.9708059e-05
3.0915724e-05
3.2448238e-05
3.420266e-05
3.6291521e-05
3.8154412e-05
3.9414415e-05
4.1287345e-05
4.2743826e-05
4.3427833e-05
4.3292315e-05
4.288926e-05
4.2625745e-05
4.2854811e-05
4.323582e-05
4.3738844e-05
4.4518921e-05
4.5175485e-05
6.3274107e-06
8.4689565e-06
9.4696615e-06
9.3612996e-06
9.5576815e-06
1.0524108e-05
1.129784e-05
1.1879986e-05
1.2180148e-05
1.2515843e-05
1.2826539e-05
1.3079976e-05
1.3456991e-05
1.4025656e-05
1.4451515e-05
1.509934e-05
1.5733669e-05
1.6457831e-05
1.700398e-05
1.7307996e-05
1.7842451e-05
1.8373017e-05
1.9116649e-05
2.0159136e-05
2.1110263e-05
2.210136e-05
2.345994e-05
2.4988791e-05
2.6544616e-05
2.7830671e-05
2.9190015e-05
3.0993529e-05
3.2574738e-05
3.4002296e-05
3.5360347e-05
3.6840259e-05
3.8345694e-05
3.9638389e-05
4.0700144e-05
4.1925194e-05
4.3337252e-05
4.4893897e-05
4.5833641e-05
4.6750442e-05
4.8521813e-05
5.1050284e-05
5.3427884e-05
5.5232813e-05
5.6099274e-05
5.6405287e-05
5.6114057e-05
5.5841545e-05
5.5528503e-05
5.5516511e-05
5.6337889e-05
6.1084251e-05
8.6384419e-05
7.3408552e-05
5.9698276e-05
5.1782945e-05
4.5565853e-05
4.0179878e-05
3.5729347e-05
3.2346833e-05
2.9810714e-05
2.7595368e-05
2.6056935e-05
2.5158125e-05
2.4504728e-05
2.4531192e-05
2.496614e-05
2.5358715e-05
2.5049921e-05
2.5059862e-05
2.5442749e-05
2.5613521e-05
2.5601087e-05
2.5681882e-05
2.6118985e-05
2.6225391e-05
2.5771429e-05
2.6124474e-05
2.74516e-05
2.8554912e-05
2.850952e-05
2.8533996e-05
3.032296e-05
3.4103543e-05
3.7838797e-05
3.9925696e-05
4.040921e-05
4.0434731e-05
4.1280875e-05
4.214484e-05
4.2721917e-05
4.3328198e-05
4.3223935e-05
4.2487904e-05
4.1485574e-05
4.1107283e-05
4.147448e-05
4.3538443e-05
4.6874349e-05
5.0473241e-05
5.3484192e-05
5.5522799e-05
5.5732665e-05
5.5620578e-05
5.5516918e-05
5.6321705e-05
5.8606357e-05
5.7822362e-05
4.7863816e-05
3.6635177e-05
3.2546191e-05
3.3429314e-05
3.6794987e-05
4.3179221e-05
5.20168e-05
6.7838586e-05
0.00010287216
0.00014681196
0.00016852667
0.00016569329
0.0001535074
0.00015897813
0.00018465864
0.00023350707
0.00027198743
0.00032390802
0.00037062301
0.00035645664
0.00028693183
0.00025056823
0.00025695487
0.00033783845
0.00067551882
6.2344761e-05
5.8807148e-05
5.0410026e-05
4.0888228e-05
3.7878674e-05
3.9804622e-05
4.4242405e-05
5.1505377e-05
6.610337e-05
9.0619927e-05
0.00013453726
0.0001828238
0.00021171253
0.00020998371
0.00019342039
0.00019551817
0.00021615548
0.00026439466
0.00030119092
0.00035721302
0.00042663577
0.00042682742
0.00036566168
0.00033563709
0.00036169543
0.00052467794
0.00099124996
6.6135552e-05
5.8407615e-05
5.1695285e-05
4.529745e-05
4.4326672e-05
4.6928015e-05
5.2767417e-05
6.4391155e-05
8.8738654e-05
0.00012611371
0.00017509311
0.00022536815
0.00025747262
0.00025823926
0.00024478135
0.00024690035
0.00026869605
0.00031476802
0.00034351267
0.00039645017
0.00047490905
0.00047591461
0.00041345345
0.0003975594
0.00045589813
0.00067303085
0.0012672628
6.7858294e-05
5.7421862e-05
5.4651252e-05
5.2135745e-05
5.2849202e-05
5.6445335e-05
6.4645548e-05
8.2965821e-05
0.0001166437
0.00015927309
0.00021070191
0.00026398928
0.00029651356
0.0002993724
0.00029233251
0.00029955334
0.00032869353
0.00037528193
0.00040960377
0.00046970994
0.00053952165
0.00052631572
0.00046176941
0.00046546776
0.00053976546
0.00076268119
0.0014529019
6.8951758e-05
5.6596983e-05
5.8551677e-05
5.9106076e-05
6.1243738e-05
6.6360703e-05
7.7159728e-05
0.00010102659
0.00013577868
0.00018204209
0.00023804528
0.00029454747
0.00033040148
0.00033818806
0.00033880429
0.00035150156
0.00038469021
0.00043107034
0.00048830231
0.00057339711
0.00063911531
0.00059743825
0.0005101999
0.0005293832
0.00061855343
0.00083475918
0.0015691489
7.1825393e-05
5.6775442e-05
6.2518992e-05
6.5624302e-05
6.9713501e-05
7.5721161e-05
8.753236e-05
0.00011094953
0.00014959924
0.00020744538
0.00027169385
0.00032839811
0.0003650288
0.0003766176
0.00038339086
0.00040246166
0.00043767122
0.0004829786
0.00055671345
0.00069580947
0.00078317042
0.00071537919
0.0005822376
0.00060052202
0.00071065369
0.00091761863
0.0016559269
7.7851569e-05
5.6707937e-05
6.3896018e-05
7.1486316e-05
7.6277606e-05
8.2454456e-05
9.5658068e-05
0.00012021756
0.00017016441
0.00024504415
0.00031855164
0.00037287797
0.00040410459
0.00041870003
0.00043546784
0.00046503895
0.00050419587
0.0005502563
0.00063985676
0.00082476535
0.00095387616
0.00088893391
0.00070662931
0.00071372952
0.00083942106
0.0010711277
0.0017607949
8.8150195e-05
5.5835616e-05
6.3957734e-05
7.5840422e-05
8.1752246e-05
8.8711838e-05
0.0001036891
0.00013354527
0.00020307224
0.00029714953
0.00037599402
0.00042584109
0.00045291698
0.00047482662
0.00050897867
0.0005570859
0.00060176132
0.00065064563
0.00076069574
0.00096511468
0.0011073843
0.001069671
0.00088338012
0.00088420265
0.0010114196
0.0012224859
0.0018375965
0.00010199851
5.5322744e-05
6.3663103e-05
7.8433132e-05
8.5328574e-05
9.3590213e-05
0.00011184088
0.00015540554
0.00025500851
0.00036201558
0.00044163659
0.00048635021
0.00051458278
0.00055332943
0.00061236406
0.00067834558
0.00073139579
0.00079191475
0.00092319448
0.001127634
0.0012504062
0.0012229111
0.0010695238
0.0010893958
0.001218
0.0013758827
0.0018703478
0.00011752974
5.6284063e-05
6.4053193e-05
7.9668175e-05
8.6882312e-05
9.8027091e-05
0.00012534417
0.00019819649
0.00032163333
0.00043396166
0.00051299627
0.00056030573
0.00060173126
0.00066329884
0.00074871197
0.00083168994
0.00089426976
0.00096648536
0.0011133794
0.0013102827
0.0014086043
0.0013613424
0.0012291082
0.0013003112
0.0014643763
0.0015532326
0.0019009074
0.00012689716
5.8865379e-05
6.3933799e-05
7.9376767e-05
8.9316654e-05
0.00010780508
0.00015515016
0.00027371315
0.00040914871
0.00051901793
0.00059662766
0.00065521612
0.00072324006
0.00081856458
0.00093029684
0.0010275125
0.0010937954
0.0011737974
0.0013299503
0.0015213879
0.0016048242
0.0015187446
0.0013874042
0.0015200793
0.0017475169
0.0017739445
0.001983658
0.00012900932
6.2553956e-05
6.5894078e-05
8.0340184e-05
9.6615331e-05
0.00013328244
0.00023377344
0.00038991369
0.00052307133
0.00062173077
0.00069929304
0.00077905812
0.00088200197
0.0010121346
0.0011486909
0.0012566651
0.0013309176
0.0014173723
0.0015819067
0.0017687615
0.0018398623
0.0017232976
0.0015893402
0.0017726011
0.0020206183
0.0020070227
0.002161417
0.00013138199
6.7485124e-05
7.2080037e-05
8.8542132e-05
0.00011909912
0.00020052859
0.0003690406
0.00052318277
0.00064265004
0.00073674293
0.00082700154
0.00093333591
0.0010621766
0.0012139677
0.0013698403
0.0014971557
0.0015905708
0.0016958303
0.0018697324
0.0020399181
0.00209088
0.0019827023
0.0018718738
0.0020579288
0.0023015441
0.0023038242
0.0024117802
0.00013667863
7.9445185e-05
8.8028584e-05
0.00011105419
0.00017328041
0.00032725831
0.0005001441
0.00064223396
0.00075595336
0.00085831986
0.00096656894
0.001093603
0.0012409391
0.0014037587
0.001571044
0.0017190854
0.0018479747
0.0019838815
0.002164089
0.0023173273
0.0023613231
0.0023051764
0.0022402828
0.0023989872
0.0026309956
0.0026929596
0.0026879126
0.00015387061
9.7329424e-05
0.00010897375
0.00014270228
0.0002493782
0.00043002174
0.00059461103
0.00073252642
0.00085332775
0.00097268047
0.0011025611
0.0012517744
0.0014161787
0.0015872516
0.0017602064
0.0019257309
0.002084982
0.002255265
0.0024449564
0.0025854241
0.0026549326
0.0026835747
0.0026954934
0.0028421881
0.0030461069
0.0031127652
0.0029310122
0.00017898067
0.00011501654
0.00012366709
0.00017696755
0.00032041682
0.00050152489
0.00065512844
0.00079005335
0.00092093966
0.0010613013
0.0012201772
0.0013977726
0.0015830613
0.0017702438
0.0019587249
0.0021458805
0.0023290941
0.0025203711
0.0027084344
0.002844952
0.0029555082
0.0030723197
0.0031973218
0.0033991673
0.0035703782
0.0035289146
0.0031415214
0.00020556279
0.00012606497
0.00013235831
0.00020338022
0.00036550651
0.00054050971
0.00068727161
0.00082295961
0.00096813983
0.0011355484
0.0013278239
0.0015384972
0.001754305
0.0019700565
0.0021927677
0.0024133873
0.0026188822
0.0028134507
0.0029840071
0.0031140531
0.0032548552
0.0034366668
0.0036635874
0.0039450786
0.0041069457
0.0039343946
0.0033764431
0.00023143313
0.0001298634
0.00013367832
0.00021072127
0.00037671908
0.00054482623
0.0006930031
0.00083804133
0.0010038796
0.0012016896
0.0014309407
0.0016803368
0.0019354098
0.002197778
0.0024713406
0.0027278552
0.0029462573
0.0031328801
0.0032835954
0.00341004
0.0035604592
0.0037761906
0.0040513706
0.0043510755
0.0044834485
0.0042394779
0.0036070347
0.00024713427
0.00012728898
0.00012799422
0.00020007819
0.00035945415
0.00052260377
0.00067586776
0.00083344517
0.001018162
0.001247955
0.001523198
0.0018256594
0.0021387166
0.002462226
0.0027847401
0.0030647498
0.0032740107
0.0034399358
0.0035794103
0.0037159886
0.0038790686
0.0041012099
0.0043600831
0.0045930335
0.0046509983
0.0043841034
0.0037760075
0.00024774175
0.00012038223
0.00011674561
0.00017796799
0.00032363483
0.00047853588
0.00063212764
0.00079740312
0.00099644386
0.0012501615
0.001565961
0.0019308808
0.0023195049
0.0027100984
0.0030747812
0.0033675824
0.0035622026
0.0037124669
0.0038651658
0.0040280964
0.0042032461
0.0043901352
0.0045916575
0.0047407822
0.0047204382
0.0044217332
0.0038782556
0.00023125729
0.00011063659
0.00010795104
0.0001603629
0.00028920855
0.00043085059
0.00058018262
0.00074448807
0.00094119282
0.001196217
0.0015302735
0.0019450788
0.0024053678
0.0028600402
0.0032589653
0.0035685398
0.0037730469
0.0039431972
0.0041416864
0.0043325601
0.0044877007
0.0046229938
0.0047522822
0.0048278561
0.0047642786
0.0044548759
0.003993359
0.00020036312
0.0001003451
0.00010122155
0.00014943772
0.00026507082
0.00039386017
0.00053465759
0.00069183163
0.00087716798
0.001110055
0.0014149299
0.0018196002
0.0023087457
0.0028151909
0.0032722337
0.0036422049
0.0039072289
0.0041278106
0.0043756277
0.0045794765
0.0046932244
0.0047696154
0.0048462891
0.0048671799
0.004800706
0.0045411679
0.0041827317
0.00015864255
8.8842567e-05
9.561906e-05
0.00014411073
0.00024884957
0.00036618892
0.00050059903
0.00065641628
0.00084111286
0.0010668213
0.0013450756
0.0016830417
0.0020796905
0.0025285351
0.0030099464
0.0034897821
0.0038962054
0.0042449416
0.0045657448
0.0047691778
0.0048349293
0.0048460755
0.0048797946
0.0048752876
0.0048202093
0.0046629232
0.0044606983
0.00012053654
7.7731391e-05
8.9337653e-05
0.00014024699
0.00023931644
0.00035474167
0.00049487825