/*--------------------------------*- C++ -*----------------------------------*\
| =========                 |                                                 |
| \\      /  F ield         | OpenFOAM: The Open Source CFD Toolbox           |
|  \\    /   O peration     | Version:  2406                                  |
|   \\  /    A nd           | Website:  www.openfoam.com                      |
|    \\/     M anipulation  |                                                 |
\*---------------------------------------------------------------------------*/
FoamFile
{
    version     2.0;
    format      ascii;
    arch        "LSB;label=32;scalar=64";
    class       volScalarField;
    location    "17";
    object      k;
}
// * * * * * * * * * * * * * * * * * * * * * * * * * * * * * * * * * * * * * //

dimensions      [0 2 -2 0 0 0 0];

internalField   nonuniform List<scalar> 
96472
(
3.294052e-06
2.6114519e-06
2.0794855e-06
1.8443466e-06
1.6657196e-06
1.4720051e-06
1.2794e-06
1.1225691e-06
1.0180525e-06
9.5865908e-07
9.2556232e-07
8.9959503e-07
8.6772036e-07
8.2612679e-07
7.7682951e-07
7.2582225e-07
6.7907185e-07
6.4106263e-07
6.1407497e-07
5.9790174e-07
5.899229e-07
5.8732225e-07
5.873077e-07
5.8755211e-07
5.8736353e-07
5.8591212e-07
5.817252e-07
5.7386922e-07
5.6258792e-07
5.5108239e-07
5.3869809e-07
5.2844288e-07
5.1786514e-07
5.1225868e-07
5.0541687e-07
5.0389074e-07
5.0352947e-07
5.0785942e-07
5.1204506e-07
5.2283118e-07
5.4533993e-07
5.5870819e-07
5.7888974e-07
5.8843279e-07
6.0205308e-07
6.102818e-07
6.1425986e-07
6.1814559e-07
6.1872215e-07
6.2779265e-07
6.429017e-07
6.6416513e-07
6.9123338e-07
7.2775883e-07
7.8480226e-07
3.2913662e-06
2.6082871e-06
2.0789373e-06
1.8436121e-06
1.6664277e-06
1.4749634e-06
1.2833537e-06
1.1260195e-06
1.0200543e-06
9.5951729e-07
9.2599659e-07
9.0056346e-07
8.6995814e-07
8.2971951e-07
7.8138164e-07
7.3065046e-07
6.8363451e-07
6.447098e-07
6.162957e-07
5.9856322e-07
5.8954139e-07
5.8628614e-07
5.8576954e-07
5.8594524e-07
5.8591162e-07
5.849353e-07
5.8009837e-07
5.7182549e-07
5.6022996e-07
5.5007128e-07
5.3801495e-07
5.2893197e-07
5.1908281e-07
5.1140478e-07
5.0582263e-07
5.0094237e-07
4.9804201e-07
4.943533e-07
4.9350611e-07
4.9422788e-07
4.9684021e-07
5.0292813e-07
5.14886e-07
5.3529552e-07
5.5397631e-07
5.8087111e-07
5.9773967e-07
6.1668373e-07
6.232403e-07
6.3727582e-07
6.4472011e-07
6.6085906e-07
6.7685706e-07
6.934771e-07
7.3546963e-07
3.2904084e-06
2.6098443e-06
2.079933e-06
1.8441892e-06
1.6687211e-06
1.4791536e-06
1.2881054e-06
1.1298873e-06
1.0224411e-06
9.606605e-07
9.2675121e-07
9.0171341e-07
8.7213415e-07
8.3281538e-07
7.8522295e-07
7.3457829e-07
6.8712715e-07
6.4747559e-07
6.1815234e-07
5.9945504e-07
5.8968831e-07
5.8595261e-07
5.8532296e-07
5.8549267e-07
5.8558621e-07
5.8489477e-07
5.8122565e-07
5.7387768e-07
5.6195914e-07
5.522732e-07
5.3914146e-07
5.3050016e-07
5.1933732e-07
5.1354453e-07
5.0607462e-07
5.0326425e-07
4.9935507e-07
4.9838698e-07
4.9761428e-07
4.9800009e-07
4.9863227e-07
5.0095428e-07
5.0329702e-07
5.0970835e-07
5.1549071e-07
5.286779e-07
5.4137738e-07
5.6976439e-07
5.9115351e-07
6.1872103e-07
6.3533324e-07
6.505539e-07
6.6800448e-07
6.8001391e-07
7.087105e-07
3.2907821e-06
2.6130999e-06
2.0818855e-06
1.8457442e-06
1.6717802e-06
1.4838341e-06
1.2931565e-06
1.13397e-06
1.0249806e-06
9.6192989e-07
9.2751533e-07
9.0284952e-07
8.7423559e-07
8.3598582e-07
7.8908509e-07
7.3871273e-07
6.9085851e-07
6.5042118e-07
6.2011829e-07
6.0043646e-07
5.8984231e-07
5.8556454e-07
5.8464652e-07
5.8479939e-07
5.8497938e-07
5.8459869e-07
5.8170291e-07
5.7493999e-07
5.6409899e-07
5.5453721e-07
5.4167317e-07
5.3274254e-07
5.2103045e-07
5.1461107e-07
5.0566232e-07
5.0258984e-07
4.9759504e-07
4.9584455e-07
4.9492256e-07
4.9571054e-07
4.9656901e-07
4.9938968e-07
5.0112669e-07
5.0591874e-07
5.0897291e-07
5.1644865e-07
5.2183233e-07
5.3136243e-07
5.4719075e-07
5.6234231e-07
5.928485e-07
6.1062446e-07
6.409559e-07
6.5453883e-07
6.864198e-07
3.2905253e-06
2.6154282e-06
2.0837843e-06
1.8474817e-06
1.6749563e-06
1.4885675e-06
1.2982821e-06
1.1381447e-06
1.0276275e-06
9.6321999e-07
9.2830583e-07
9.03939e-07
8.7627435e-07
8.3905048e-07
7.929121e-07
7.4276526e-07
6.9461509e-07
6.53408e-07
6.2215232e-07
6.014689e-07
5.9006627e-07
5.8528781e-07
5.8415015e-07
5.8428073e-07
5.8452351e-07
5.8435544e-07
5.8239972e-07
5.7648932e-07
5.6586452e-07
5.5618675e-07
5.4389932e-07
5.3419381e-07
5.2295299e-07
5.1600503e-07
5.0732743e-07
5.0314229e-07
4.9839525e-07
4.9613716e-07
4.9341199e-07
4.9343467e-07
4.9374953e-07
4.9535103e-07
4.9740484e-07
5.0044447e-07
5.0492895e-07
5.0900524e-07
5.161411e-07
5.2115045e-07
5.3170576e-07
5.3928871e-07
5.5636393e-07
5.6758475e-07
5.9166757e-07
6.0522924e-07
6.4084597e-07
3.2909637e-06
2.6189234e-06
2.0861472e-06
1.8495e-06
1.6782637e-06
1.493329e-06
1.3034147e-06
1.1423744e-06
1.0303307e-06
9.6459689e-07
9.2909274e-07
9.0496968e-07
8.782333e-07
8.4199562e-07
7.9670567e-07
7.4680867e-07
6.9841924e-07
6.5657066e-07
6.243451e-07
6.0267918e-07
5.9039553e-07
5.8502391e-07
5.8365181e-07
5.8373735e-07
5.8404932e-07
5.8403511e-07
5.8272594e-07
5.7764479e-07
5.6811982e-07
5.5803833e-07
5.4654023e-07
5.3571607e-07
5.2511238e-07
5.1655234e-07
5.0848397e-07
5.0248474e-07
4.976831e-07
4.9489688e-07
4.9214915e-07
4.9095318e-07
4.9099566e-07
4.9158455e-07
4.9321998e-07
4.9513009e-07
4.9921043e-07
5.0232289e-07
5.0882976e-07
5.1302224e-07
5.2212284e-07
5.2777205e-07
5.3985424e-07
5.4738435e-07
5.6343864e-07
5.7343233e-07
5.9974288e-07
3.2903451e-06
2.6209861e-06
2.0881677e-06
1.8513579e-06
1.6813888e-06
1.4979502e-06
1.3084895e-06
1.1466186e-06
1.0331173e-06
9.6607192e-07
9.2994109e-07
9.060068e-07
8.8010919e-07
8.4488383e-07
8.0043932e-07
7.5091355e-07
7.0227994e-07
6.5983172e-07
6.2670392e-07
6.0401269e-07
5.90878e-07
5.8483991e-07
5.8308626e-07
5.8311547e-07
5.8341316e-07
5.8358547e-07
5.8279198e-07
5.7880954e-07
5.6997334e-07
5.5963261e-07
5.4881284e-07
5.3757102e-07
5.2707466e-07
5.1778291e-07
5.1011678e-07
5.034614e-07
4.9842646e-07
4.9476419e-07
4.92208e-07
4.8976419e-07
4.8917671e-07
4.8934951e-07
4.9021729e-07
4.9147856e-07
4.945561e-07
4.968583e-07
5.0204043e-07
5.0553508e-07
5.1296296e-07
5.1756188e-07
5.276429e-07
5.3356081e-07
5.4633929e-07
5.5360512e-07
5.7221445e-07
3.289968e-06
2.6235935e-06
2.0902845e-06
1.8532948e-06
1.6846105e-06
1.5026396e-06
1.3136087e-06
1.150934e-06
1.0359991e-06
9.6763548e-07
9.3083261e-07
9.0706053e-07
8.8191757e-07
8.4774661e-07
8.0411408e-07
7.550546e-07
7.062582e-07
6.6318936e-07
6.2916236e-07
6.0546645e-07
5.9142196e-07
5.8475787e-07
5.826527e-07
5.8258256e-07
5.8291841e-07
5.8322717e-07
5.8281635e-07
5.7994473e-07
5.7195291e-07
5.6161887e-07
5.5098296e-07
5.3951023e-07
5.289153e-07
5.1910186e-07
5.1101467e-07
5.0382435e-07
4.9827708e-07
4.9376903e-07
4.9126671e-07
4.8882537e-07
4.871929e-07
4.8705129e-07
4.8738299e-07
4.8827047e-07
4.9042587e-07
4.9233033e-07
4.9644092e-07
4.9923339e-07
5.0522771e-07
5.0919322e-07
5.1732223e-07
5.2228226e-07
5.3255513e-07
5.3858221e-07
5.530897e-07
3.2893583e-06
2.6255099e-06
2.0923839e-06
1.8552939e-06
1.6878029e-06
1.5072656e-06
1.3187041e-06
1.1552799e-06
1.0389346e-06
9.6924253e-07
9.3171144e-07
9.0807373e-07
8.8366923e-07
8.5053334e-07
8.0781533e-07
7.591558e-07
7.1028592e-07
6.6662483e-07
6.3167688e-07
6.0700536e-07
5.9205244e-07
5.8470172e-07
5.8223198e-07
5.8202553e-07
5.8237888e-07
5.8277832e-07
5.8259824e-07
5.8049754e-07
5.7348877e-07
5.6326848e-07
5.5288171e-07
5.4157218e-07
5.3099012e-07
5.2083732e-07
5.1243166e-07
5.0518537e-07
4.9932152e-07
4.9431586e-07
4.9091481e-07
4.8845721e-07
4.8642249e-07
4.8523737e-07
4.8532244e-07
4.8568358e-07
4.8706783e-07
4.8843785e-07
4.9160856e-07
4.9382448e-07
4.9881921e-07
5.0181236e-07
5.0867103e-07
5.1266812e-07
5.213446e-07
5.2648963e-07
5.3790041e-07
3.2896076e-06
2.6289492e-06
2.0950183e-06
1.8576693e-06
1.6913182e-06
1.5121539e-06
1.3240142e-06
1.1598012e-06
1.0420187e-06
9.7099728e-07
9.3267884e-07
9.0908248e-07
8.8538351e-07
8.5320847e-07
8.1142568e-07
7.6324649e-07
7.1432239e-07
6.7020651e-07
6.3442368e-07
6.0875327e-07
5.9289654e-07
5.8480064e-07
5.8187308e-07
5.8153776e-07
5.8187815e-07
5.8236927e-07
5.823582e-07
5.808884e-07
5.7512373e-07
5.6498972e-07
5.5488473e-07
5.4371095e-07
5.3301074e-07
5.2266476e-07
5.1379057e-07
5.0605606e-07
4.9979053e-07
4.9437536e-07
4.9037936e-07
4.874812e-07
4.8564666e-07
4.8371282e-07
4.8325633e-07
4.8343252e-07
4.8408215e-07
4.8512201e-07
4.8747138e-07
4.8934509e-07
4.9319437e-07
4.9589302e-07
5.0131825e-07
5.0475838e-07
5.1203179e-07
5.1599154e-07
5.2554372e-07
3.2904865e-06
2.6324595e-06
2.0977505e-06
1.8600802e-06
1.6947667e-06
1.5168968e-06
1.3291694e-06
1.1642216e-06
1.0450833e-06
9.7276609e-07
9.3369014e-07
9.1010828e-07
8.8700816e-07
8.5584004e-07
8.1490319e-07
7.6731536e-07
7.1840225e-07
6.7382208e-07
6.3727616e-07
6.1063858e-07
5.9384112e-07
5.8500983e-07
5.8157879e-07
5.8101774e-07
5.813148e-07
5.8185614e-07
5.8197263e-07
5.8098928e-07
5.7643763e-07
5.6666564e-07
5.5685708e-07
5.4596536e-07
5.3533133e-07
5.2483826e-07
5.1564651e-07
5.0752512e-07
5.010283e-07
4.9529677e-07
4.90911e-07
4.8712442e-07
4.8501053e-07
4.831095e-07
4.8170976e-07
4.8145709e-07
4.8174684e-07
4.82335e-07
4.8400244e-07
4.8537734e-07
4.8856006e-07
4.906899e-07
4.9522937e-07
4.9807666e-07
5.0401425e-07
5.0745331e-07
5.1563844e-07
3.2915534e-06
2.6370315e-06
2.1008581e-06
1.8628038e-06
1.6985997e-06
1.5220574e-06
1.3347065e-06
1.1689523e-06
1.0483976e-06
9.7469659e-07
9.3478125e-07
9.1115444e-07
8.8858183e-07
8.5837883e-07
8.1833539e-07
7.71352e-07
7.2260798e-07
6.7762026e-07
6.4029208e-07
6.1270797e-07
5.9490596e-07
5.8529482e-07
5.8137757e-07
5.805936e-07
5.8083065e-07
5.8141635e-07
5.8164487e-07
5.8100857e-07
5.7751889e-07
5.6851915e-07
5.5875367e-07
5.4810585e-07
5.3754537e-07
5.2694087e-07
5.1753008e-07
5.0897605e-07
5.019971e-07
4.9596276e-07
4.9117941e-07
4.869923e-07
4.8418331e-07
4.8227583e-07
4.8070499e-07
4.7967341e-07
4.7967313e-07
4.799979e-07
4.8094922e-07
4.8202728e-07
4.8451876e-07
4.8618063e-07
4.9001741e-07
4.9224688e-07
4.9730886e-07
5.0032554e-07
5.0657973e-07
3.293918e-06
2.6422366e-06
2.1042349e-06
1.8656121e-06
1.7022771e-06
1.5269283e-06
1.339956e-06
1.1734634e-06
1.051572e-06
9.765319e-07
9.358015e-07
9.1208884e-07
8.9010363e-07
8.6082176e-07
8.2174584e-07
7.7532893e-07
7.2672942e-07
6.8140559e-07
6.4332981e-07
6.1479839e-07
5.9604966e-07
5.8562795e-07
5.8112346e-07
5.8012046e-07
5.8027885e-07
5.8088475e-07
5.8123161e-07
5.808659e-07
5.7825334e-07
5.7033847e-07
5.6065984e-07
5.5032797e-07
5.3994269e-07
5.2926883e-07
5.1966399e-07
5.1080949e-07
5.0338337e-07
4.970608e-07
4.9196973e-07
4.874336e-07
4.840589e-07
4.8154064e-07
4.8009247e-07
4.7847045e-07
4.7796724e-07
4.7798294e-07
4.7849173e-07
4.792411e-07
4.8099338e-07
4.8254117e-07
4.8541475e-07
4.8748442e-07
4.9178367e-07
4.9399218e-07
4.9944133e-07
3.2957657e-06
2.6478378e-06
2.1078374e-06
1.8687005e-06
1.7064369e-06
1.5323668e-06
1.3457658e-06
1.1784439e-06
1.0551091e-06
9.7862761e-07
9.3698456e-07
9.1309703e-07
8.9159091e-07
8.6320901e-07
8.2507603e-07
7.7938436e-07
7.3098694e-07
6.8536286e-07
6.4659755e-07
6.1711907e-07
5.9740084e-07
5.8616255e-07
5.8104852e-07
5.7973691e-07
5.798381e-07
5.8037966e-07
5.8081947e-07
5.8067194e-07
5.7882027e-07
5.7213472e-07
5.6271037e-07
5.5258653e-07
5.4244654e-07
5.3180643e-07
5.2201939e-07
5.1288004e-07
5.0499855e-07
4.9821459e-07
4.9283231e-07
4.879233e-07
4.842319e-07
4.8106534e-07
4.7926893e-07
4.777673e-07
4.7650683e-07
4.7622239e-07
4.7635613e-07
4.7680502e-07
4.7808478e-07
4.7905935e-07
4.8158756e-07
4.8324595e-07
4.8656715e-07
4.8882486e-07
4.9330219e-07
3.3001435e-06
2.6550033e-06
2.1120513e-06
1.8720097e-06
1.710447e-06
1.5374372e-06
1.3511401e-06
1.1830536e-06
1.0583682e-06
9.8055425e-07
9.3805922e-07
9.1404843e-07
8.9300794e-07
8.6554303e-07
8.2829751e-07
7.8326054e-07
7.3510167e-07
6.892087e-07
6.4979846e-07
6.1946029e-07
5.987648e-07
5.8669217e-07
5.8098201e-07
5.7934748e-07
5.7935871e-07
5.7981731e-07
5.8035811e-07
5.8036251e-07
5.7916861e-07
5.7388852e-07
5.6478787e-07
5.5483743e-07
5.4493696e-07
5.3438932e-07
5.2453455e-07
5.151484e-07
5.0693462e-07
4.9969828e-07
4.9394918e-07
4.8879949e-07
4.8471803e-07
4.8116142e-07
4.787337e-07
4.7701247e-07
4.757931e-07
4.7470392e-07
4.7468838e-07
4.7490363e-07
4.755419e-07
4.7644508e-07
4.7828825e-07
4.7956785e-07
4.8257223e-07
4.846523e-07
4.877861e-07
3.3027882e-06
2.6612398e-06
2.116051e-06
1.8754292e-06
1.7148622e-06
1.5431022e-06
1.3571451e-06
1.1882342e-06
1.0621328e-06
9.8285914e-07
9.3937565e-07
9.15107e-07
8.9443696e-07
8.6780007e-07
8.3153853e-07
7.8727146e-07
7.3948031e-07
6.9337507e-07
6.5328339e-07
6.2204097e-07
6.0034894e-07
5.8738628e-07
5.8100717e-07
5.7907199e-07
5.7894417e-07
5.7936176e-07
5.8004156e-07
5.8019016e-07
5.7947726e-07
5.7563685e-07
5.6699759e-07
5.5733195e-07
5.4754747e-07
5.371067e-07
5.2721998e-07
5.1762166e-07
5.0912697e-07
5.0147254e-07
4.9522439e-07
4.8980357e-07
4.8539667e-07
4.8156211e-07
4.7866562e-07
4.7641224e-07
4.7515075e-07
4.73815e-07
4.7322741e-07
4.7318612e-07
4.7350101e-07
4.7411642e-07
4.7530053e-07
4.7640064e-07
4.7908757e-07
4.8026798e-07
4.8333844e-07
3.3073433e-06
2.6679095e-06
2.1202195e-06
1.8788341e-06
1.7189223e-06
1.5481737e-06
1.3624918e-06
1.192866e-06
1.0654474e-06
9.8486105e-07
9.4052886e-07
9.1606521e-07
8.9582711e-07
8.6997389e-07
8.346074e-07
7.9102037e-07
7.4350126e-07
6.9724668e-07
6.5665089e-07
6.2459083e-07
6.0199176e-07
5.8815997e-07
5.8109976e-07
5.7875101e-07
5.7848356e-07
5.7882296e-07
5.7962053e-07
5.799247e-07
5.7956667e-07
5.7692168e-07
5.6922885e-07
5.596893e-07
5.5004708e-07
5.3978237e-07
5.2992145e-07
5.2023705e-07
5.1145917e-07
5.0349718e-07
4.9686508e-07
4.9102053e-07
4.863428e-07
4.821036e-07
4.7899414e-07
4.7615834e-07
4.7447658e-07
4.7333237e-07
4.7226278e-07
4.7183567e-07
4.7203243e-07
4.7218743e-07
4.731198e-07
4.7403523e-07
4.7586521e-07
4.7720078e-07
4.7972668e-07
3.309623e-06
2.6739429e-06
2.1245329e-06
1.8826899e-06
1.7236536e-06
1.5540206e-06
1.3686295e-06
1.1982429e-06
1.0694112e-06
9.8740382e-07
9.4205759e-07
9.1719193e-07
8.9723371e-07
8.7215445e-07
8.3778765e-07
7.9509245e-07
7.4800105e-07
7.0157955e-07
6.6038948e-07
6.2744818e-07
6.0385758e-07
5.8910015e-07
5.8139082e-07
5.7861267e-07
5.781924e-07
5.784669e-07
5.7932067e-07
5.7976784e-07
5.7965452e-07
5.7796373e-07
5.717086e-07
5.62249e-07
5.5281021e-07
5.4263977e-07
5.3283789e-07
5.2313537e-07
5.1406219e-07
5.05719e-07
4.9869239e-07
4.9245852e-07
4.8742132e-07
4.8293691e-07
4.7948755e-07
4.7638039e-07
4.7417951e-07
4.7267465e-07
4.7175412e-07
4.7078588e-07
4.7051706e-07
4.7073128e-07
4.7111885e-07
4.717569e-07
4.7314184e-07
4.7439717e-07
4.7604661e-07
3.3124667e-06
2.6781993e-06
2.1277929e-06
1.8857674e-06
1.7274608e-06
1.5588195e-06
1.3737115e-06
1.2027709e-06
1.0726954e-06
9.8948057e-07
9.4334975e-07
9.1827657e-07
8.986399e-07
8.7426434e-07
8.4068811e-07
7.9866138e-07
7.5193304e-07
7.0545255e-07
6.6386259e-07
6.3025227e-07
6.057543e-07
5.9010476e-07
5.8169836e-07
5.7845955e-07
5.7785174e-07
5.7807921e-07
5.7892101e-07
5.7950849e-07
5.7954257e-07
5.7847753e-07
5.7365619e-07
5.6438755e-07
5.5516275e-07
5.4514624e-07
5.353096e-07
5.2567207e-07
5.1653682e-07
5.0797609e-07
5.0062195e-07
4.9406626e-07
4.8854818e-07
4.8378321e-07
4.7997905e-07
4.7676008e-07
4.7417359e-07
4.7223206e-07
4.7122689e-07
4.7012909e-07
4.6956936e-07
4.6954485e-07
4.6976902e-07
4.7016751e-07
4.7142052e-07
4.7211022e-07
4.7371739e-07
3.315021e-06
2.684952e-06
2.132829e-06
1.8905625e-06
1.7329353e-06
1.5651176e-06
1.3801281e-06
1.2084163e-06
1.0769537e-06
9.9228898e-07
9.4505791e-07
9.1945801e-07
8.9999451e-07
8.7634604e-07
8.4378957e-07
8.0270061e-07
7.5649447e-07
7.0995259e-07
6.6783041e-07
6.3337068e-07
6.0788356e-07
5.9131926e-07
5.8219414e-07
5.7845396e-07
5.7763716e-07
5.7781012e-07
5.7856682e-07
5.7932064e-07
5.7947006e-07
5.7879938e-07
5.7522886e-07
5.666432e-07
5.5750533e-07
5.4797023e-07
5.3828187e-07
5.2881139e-07
5.1960849e-07
5.108396e-07
5.0311334e-07
4.9632876e-07
4.9044527e-07
4.8523543e-07
4.8112715e-07
4.7748682e-07
4.7475941e-07
4.7241992e-07
4.7076539e-07
4.6970229e-07
4.6895894e-07
4.6842243e-07
4.6851279e-07
4.6884515e-07
4.6931183e-07
4.7004528e-07
4.709248e-07
3.3167314e-06
2.6878088e-06
2.1357866e-06
1.8938673e-06
1.7369667e-06
1.5697464e-06
1.3848832e-06
1.2126391e-06
1.0801124e-06
9.9438891e-07
9.4646794e-07
9.206792e-07
9.0149832e-07
8.7839479e-07
8.4647976e-07
8.0597839e-07
7.6016076e-07
7.137091e-07
6.7134988e-07
6.3631672e-07
6.1003155e-07
5.926215e-07
5.8282058e-07
5.7857037e-07
5.7754443e-07
5.7765658e-07
5.7831833e-07
5.7915141e-07
5.7936478e-07
5.7890514e-07
5.7602738e-07
5.6840473e-07
5.5977346e-07
5.5087358e-07
5.4182136e-07
5.3289283e-07
5.241763e-07
5.1567011e-07
5.0778385e-07
5.0078118e-07
4.9454713e-07
4.8891409e-07
4.8427986e-07
4.8035528e-07
4.7716186e-07
4.743905e-07
4.7215168e-07
4.7058843e-07
4.6957499e-07
4.6882113e-07
4.6854333e-07
4.6852876e-07
4.6875219e-07
4.6933202e-07
4.6988137e-07
3.3195894e-06
2.6951608e-06
2.1418293e-06
1.9004764e-06
1.7443518e-06
1.577458e-06
1.3922458e-06
1.218816e-06
1.0843171e-06
9.9676866e-07
9.4788538e-07
9.2204673e-07
9.0361659e-07
8.8155834e-07
8.506474e-07
8.1084709e-07
7.6525884e-07
7.185443e-07
6.7558095e-07
6.3972044e-07
6.1259629e-07
5.9456607e-07
5.8443654e-07
5.8028843e-07
5.7945684e-07
5.7973523e-07
5.8093679e-07
5.8246887e-07
5.8300882e-07
5.8288429e-07
5.8129098e-07
5.7573498e-07
5.6806639e-07
5.6094815e-07
5.5418882e-07
5.4679441e-07
5.3934379e-07
5.3206444e-07
5.2515385e-07
5.1872458e-07
5.1239481e-07
5.0619891e-07
5.0081069e-07
4.9626651e-07
4.9226643e-07
4.8858378e-07
4.8502695e-07
4.8204911e-07
4.7967796e-07
4.7783237e-07
4.7657681e-07
4.7553058e-07
4.7450214e-07
4.7399271e-07
4.7309447e-07
3.3203483e-06
2.6980943e-06
2.1461956e-06
1.9039051e-06
1.7506392e-06
1.5848942e-06
1.3995208e-06
1.2247327e-06
1.0867251e-06
9.971524e-07
9.4971214e-07
9.2759858e-07
9.1448712e-07
8.971006e-07
8.683446e-07
8.2746022e-07
7.7893947e-07
7.2967637e-07
6.8529414e-07
6.488731e-07
6.2197135e-07
6.0530516e-07
5.98504e-07
5.9762329e-07
5.9863073e-07
6.0276204e-07
6.1039936e-07
6.1661968e-07
6.2060397e-07
6.2255723e-07
6.2315331e-07
6.2270623e-07
6.1932257e-07
6.139423e-07
6.1182047e-07
6.0915897e-07
6.0617227e-07
6.0385693e-07
6.0173804e-07
5.9959209e-07
5.9607969e-07
5.9125651e-07
5.8601873e-07
5.8165915e-07
5.7666642e-07
5.7226777e-07
5.6547402e-07
5.6014909e-07
5.5315032e-07
5.4866645e-07
5.429436e-07
5.4002935e-07
5.3341794e-07
5.303687e-07
5.2092688e-07
3.3265995e-06
2.7261655e-06
2.1737246e-06
1.9258217e-06
1.7946852e-06
1.6450851e-06
1.4556092e-06
1.2661291e-06
1.1134802e-06
1.0235918e-06
9.9757193e-07
1.0000267e-06
1.012444e-06
1.0174928e-06
1.011829e-06
9.7830482e-07
9.0079405e-07
8.2928079e-07
7.7271378e-07
7.3608654e-07
7.2083805e-07
7.1897857e-07
7.2208012e-07
7.3509171e-07
7.6986282e-07
8.0978473e-07
8.4479605e-07
8.7501805e-07
8.9616093e-07
9.1118385e-07
9.2298272e-07
9.2922265e-07
9.3194498e-07
9.3324016e-07
9.3518442e-07
9.3962167e-07
9.4879312e-07
9.655248e-07
9.8380307e-07
1.0013172e-06
1.0165984e-06
1.0286521e-06
1.036225e-06
1.0398816e-06
1.0397939e-06
1.0386509e-06
1.0348242e-06
1.0294986e-06
1.0164755e-06
1.0048467e-06
9.9071919e-07
9.8219738e-07
9.6116826e-07
9.4786752e-07
9.007718e-07
3.3615876e-06
2.883489e-06
2.3354001e-06
2.1100245e-06
2.1023475e-06
2.1117753e-06
2.0155634e-06
1.7237956e-06
1.5566057e-06
1.5439739e-06
1.5849835e-06
1.7582303e-06
1.9537221e-06
2.0304986e-06
2.033005e-06
1.9982823e-06
1.8552595e-06
1.7008092e-06
1.6201861e-06
1.5968167e-06
1.5994799e-06
1.6261536e-06
1.7140822e-06
1.8877954e-06
2.0682588e-06
2.2327884e-06
2.3722993e-06
2.4932967e-06
2.5830477e-06
2.6440422e-06
2.6920372e-06
2.723074e-06
2.7387351e-06
2.7472316e-06
2.7581569e-06
2.7889337e-06
2.8239644e-06
2.8959008e-06
2.97706e-06
3.0878587e-06
3.1766294e-06
3.2607862e-06
3.3379773e-06
3.4086296e-06
3.4738199e-06
3.5363287e-06
3.5707872e-06
3.5970152e-06
3.6003083e-06
3.5892488e-06
3.5809326e-06
3.5751327e-06
3.5496263e-06
3.5248062e-06
3.3930171e-06
3.6741158e-06
3.7152751e-06
3.1916804e-06
3.2804527e-06
4.1641879e-06
5.3834207e-06
5.6504687e-06
5.6327972e-06
5.686736e-06
5.9038652e-06
6.3792226e-06
7.1027501e-06
7.619814e-06
7.8860212e-06
7.9101001e-06
7.8711393e-06
7.6404931e-06
7.4321229e-06
7.3693222e-06
7.375245e-06
7.4552361e-06
7.7117301e-06
8.1798811e-06
8.6630487e-06
9.1131493e-06
9.5333035e-06
9.880657e-06
1.0204471e-05
1.0494879e-05
1.0707881e-05
1.091793e-05
1.1110482e-05
1.1295776e-05
1.1404667e-05
1.1494553e-05
1.1720214e-05
1.1814638e-05
1.2050819e-05
1.2158625e-05
1.2488954e-05
1.2642972e-05
1.2952192e-05
1.3180146e-05
1.3338949e-05
1.3717325e-05
1.3850466e-05
1.3977245e-05
1.4350535e-05
1.4448651e-05
1.447198e-05
1.465596e-05
1.4701865e-05
1.459766e-05
1.4647552e-05
1.4470692e-05
7.7308346e-06
2.868336e-05
2.4527786e-05
2.581237e-05
2.7598888e-05
3.1051244e-05
3.3257618e-05
3.4790693e-05
3.3892784e-05
3.3550209e-05
3.3566392e-05
3.4064931e-05
3.499734e-05
3.6137809e-05
3.7282569e-05
3.8126355e-05
3.8788052e-05
3.9129917e-05
3.8894474e-05
3.8043262e-05
3.7219967e-05
3.6588971e-05
3.6300256e-05
3.6241568e-05
3.6334552e-05
3.6565436e-05
3.6944402e-05
3.7448011e-05
3.8046496e-05
3.8713679e-05
3.9423147e-05
4.0151297e-05
4.0877599e-05
4.1580795e-05
4.2250243e-05
4.2853795e-05
4.3449105e-05
4.3892536e-05
4.4404871e-05
4.4703302e-05
4.5174223e-05
4.5377635e-05
4.5542345e-05
4.5899015e-05
4.5798235e-05
4.6045669e-05
4.6000898e-05
4.5976197e-05
4.6256085e-05
4.6043653e-05
4.5907097e-05
4.6176322e-05
4.6007404e-05
4.5698598e-05
4.5898504e-05
4.5690448e-05
1.4985773e-05
3.6159837e-06
9.5824782e-07
5.3327581e-07
4.7573864e-07
4.7129103e-07
4.7237962e-07
4.7547188e-07
4.7806745e-07
4.8190938e-07
4.857378e-07
4.9084035e-07
4.9597969e-07
5.0270181e-07
5.1000771e-07
5.1888853e-07
5.2957768e-07
5.4237385e-07
5.5800601e-07
5.7803292e-07
6.0390823e-07
6.4178396e-07
6.9038465e-07
7.1766476e-07
7.4694388e-07
7.8632795e-07
4.5058633e-05
1.750416e-05
4.1990927e-06
1.0981557e-06
5.5855714e-07
4.807767e-07
4.738773e-07
4.7448644e-07
4.775374e-07
4.8031966e-07
4.8450043e-07
4.8857476e-07
4.9387011e-07
4.9960422e-07
5.0644635e-07
5.1419426e-07
5.2331325e-07
5.3399793e-07
5.4696833e-07
5.6190771e-07
5.80965e-07
6.055934e-07
6.4238559e-07
6.9197468e-07
7.2172174e-07
7.5286302e-07
7.8765109e-07
4.5755729e-05
1.8003627e-05
4.4234641e-06
1.164313e-06
5.7311918e-07
4.8450826e-07
4.7583672e-07
4.76396e-07
4.7977725e-07
4.8289307e-07
4.872827e-07
4.9153326e-07
4.9716552e-07
5.0298443e-07
5.1016336e-07
5.1814989e-07
5.2758088e-07
5.3828679e-07
5.5139111e-07
5.6710992e-07
5.8638182e-07
6.1028669e-07
6.4564792e-07
6.9656776e-07
7.299215e-07
7.6410868e-07
7.9568967e-07
4.5766052e-05
1.736162e-05
4.5656781e-06
1.2361818e-06
5.9601356e-07
4.9116439e-07
4.7942494e-07
4.8021627e-07
4.8406099e-07
4.8748516e-07
4.9201058e-07
4.9630235e-07
5.0200789e-07
5.0788625e-07
5.1492914e-07
5.2295422e-07
5.3248984e-07
5.4362457e-07
5.5648792e-07
5.7172578e-07
5.899184e-07
6.1287976e-07
6.4695594e-07
6.9947246e-07
7.3535888e-07
7.7369908e-07
8.0660217e-07
4.3225652e-05
1.7881138e-05
5.0141589e-06
1.4327514e-06
6.5764914e-07
5.0872484e-07
4.8787012e-07
4.8704484e-07
4.89542e-07
4.9306481e-07
4.9758133e-07
5.0212642e-07
5.0785456e-07
5.141772e-07
5.2132175e-07
5.2926339e-07
5.3880244e-07
5.498221e-07
5.6340732e-07
5.7879799e-07
5.9787341e-07
6.1912452e-07
6.5031717e-07
7.0390987e-07
7.4168096e-07
7.8155489e-07
8.1755236e-07
4.1323435e-05
2.0863901e-05
6.5541235e-06
1.9252314e-06
7.6478659e-07
5.3274329e-07
4.9599938e-07
4.9198489e-07
4.9335323e-07
4.9676616e-07
5.0132768e-07
5.0622326e-07
5.1224372e-07
5.1893172e-07
5.2709819e-07
5.3569792e-07
5.4551769e-07
5.5676187e-07
5.6996781e-07
5.8546579e-07
6.0375423e-07
6.246387e-07
6.5332022e-07
7.0789505e-07
7.5000703e-07
7.9085126e-07
8.3159477e-07
4.1381226e-05
2.3207928e-05
7.5278983e-06
2.1594749e-06
8.0604949e-07
5.4266365e-07
4.9901813e-07
4.9392307e-07
4.9525437e-07
4.9886121e-07
5.0383887e-07
5.0904095e-07
5.153447e-07
5.224653e-07
5.3104495e-07
5.4092435e-07
5.5158083e-07
5.6383755e-07
5.7750461e-07
5.9364711e-07
6.1179159e-07
6.3133636e-07
6.5668038e-07
7.0985877e-07
7.5502042e-07
7.9831889e-07
8.4351586e-07
4.3516952e-05
2.2820374e-05
7.4374249e-06
2.1332619e-06
8.042275e-07
5.4504743e-07
5.0035635e-07
4.9608754e-07
4.9779486e-07
5.0250506e-07
5.080197e-07
5.1388226e-07
5.2078882e-07
5.283632e-07
5.3673163e-07
5.4662415e-07
5.5758464e-07
5.7004889e-07
5.8406093e-07
6.0044917e-07
6.2032313e-07
6.4045598e-07
6.6340758e-07
7.1340448e-07
7.6243022e-07
8.0644081e-07
8.5624937e-07
4.5412187e-05
1.9093429e-05
6.6370949e-06
1.9817062e-06
8.0513719e-07
5.4922128e-07
5.0392375e-07
5.0145283e-07
5.0416909e-07
5.1157777e-07
5.1836561e-07
5.2494534e-07
5.3192875e-07
5.3929976e-07
5.4706217e-07
5.5640042e-07
5.6726983e-07
5.7992004e-07
5.9390578e-07
6.0965624e-07
6.2900484e-07
6.4945588e-07
6.6989632e-07
7.1548987e-07
7.6526595e-07
8.100124e-07
8.6678424e-07
3.8605715e-05
1.8558594e-05
6.5364524e-06
2.027354e-06
8.4393347e-07
5.6656676e-07
5.1715684e-07
5.1681811e-07
5.2014264e-07
5.267679e-07
5.3268378e-07
5.3845601e-07
5.4466302e-07
5.5191601e-07
5.5980143e-07
5.6855363e-07
5.7835735e-07
5.9016732e-07
6.0433825e-07
6.2040698e-07
6.4025913e-07
6.6180284e-07
6.810179e-07
7.2241087e-07
7.728954e-07
8.1696113e-07
8.7742611e-07
3.2541164e-05
2.040174e-05
7.3462043e-06
2.4851607e-06
1.0355905e-06
6.2780722e-07
5.4465892e-07
5.3123042e-07
5.3295671e-07
5.3584371e-07
5.410033e-07
5.4686834e-07
5.5316894e-07
5.6107614e-07
5.6960299e-07
5.7934755e-07
5.9017402e-07
6.0208607e-07
6.1614929e-07
6.317255e-07
6.5062779e-07
6.7240878e-07
6.9025936e-07
7.272361e-07
7.7801318e-07
8.2092105e-07
8.857804e-07
3.087855e-05
2.2192732e-05
9.1733027e-06
3.2427075e-06
1.2142005e-06
6.7517851e-07
5.5692231e-07
5.3676298e-07
5.3734628e-07
5.388658e-07
5.4406191e-07
5.503056e-07
5.5730363e-07
5.6577574e-07
5.7483591e-07
5.8521799e-07
5.9667853e-07
6.0955363e-07
6.2443459e-07
6.4100949e-07
6.6069868e-07
6.8394609e-07
7.0052118e-07
7.3382875e-07
7.8351294e-07
8.2310074e-07
8.9004026e-07
3.712292e-05
2.1128671e-05
9.246372e-06
3.2812722e-06
1.2278876e-06
6.8344955e-07
5.5922028e-07
5.3873582e-07
5.393139e-07
5.416392e-07
5.4755384e-07
5.5428329e-07
5.6181499e-07
5.7052397e-07
5.7993564e-07
5.9114503e-07
6.0392927e-07
6.1745391e-07
6.3269239e-07
6.4980624e-07
6.7009171e-07
6.954633e-07
7.1314923e-07
7.4260873e-07
7.9390652e-07
8.2855855e-07
8.9412929e-07
2.8871782e-05
2.0212648e-05
8.8681925e-06
3.1750763e-06
1.234423e-06
6.8919819e-07
5.624254e-07
5.4222984e-07
5.4398583e-07
5.4843592e-07
5.556265e-07
5.6321109e-07
5.7131696e-07
5.8064446e-07
5.9077376e-07
6.0258584e-07
6.1527123e-07
6.2951565e-07
6.4508376e-07
6.6201127e-07
6.8081936e-07
7.0611355e-07
7.2438378e-07
7.4929272e-07
8.0181571e-07
8.3333435e-07
8.9639936e-07
3.254538e-05
1.7882774e-05
8.507679e-06
3.1745986e-06
1.2665849e-06
7.0439538e-07
5.710164e-07
5.5208604e-07
5.5845044e-07
5.6913013e-07
5.7754633e-07
5.8544059e-07
5.9251888e-07
6.0003448e-07
6.0865532e-07
6.1802521e-07
6.2956886e-07
6.4230828e-07
6.5681323e-07
6.7376017e-07
6.9184421e-07
7.1719371e-07
7.359802e-07
7.5796256e-07
8.093317e-07
8.4046227e-07
8.9815815e-07
2.646421e-05
2.0517706e-05
1.0033353e-05
3.8176773e-06
1.5182822e-06
7.8281821e-07
6.0349184e-07
5.7444457e-07
5.807084e-07
5.906926e-07
5.988538e-07
6.0496308e-07
6.1153934e-07
6.1889321e-07
6.273103e-07
6.3659185e-07
6.476359e-07
6.5975257e-07
6.7382164e-07
6.8980868e-07
7.063691e-07
7.3107039e-07
7.5000481e-07
7.694091e-07
8.1780132e-07
8.4871045e-07
9.0471207e-07
4.2704991e-05
2.0879973e-05
1.016199e-05
3.9347946e-06
1.5614449e-06
8.1904108e-07
6.1806872e-07
5.8292354e-07
5.879791e-07
5.9674156e-07
6.04295e-07
6.106559e-07
6.1868494e-07
6.2708895e-07
6.3693245e-07
6.4773874e-07
6.5966925e-07
6.7269502e-07
6.8700088e-07
7.034286e-07
7.1943053e-07
7.4427322e-07
7.638998e-07
7.8161278e-07
8.2580144e-07
8.5734463e-07
9.0908147e-07
4.0018917e-05
1.6778393e-05
8.4423896e-06
3.6030184e-06
1.5340584e-06
8.2919659e-07
6.272683e-07
5.8798583e-07
5.9205488e-07
6.0075767e-07
6.0943078e-07
6.1599711e-07
6.2395077e-07
6.3258875e-07
6.4265257e-07
6.5387571e-07
6.6600794e-07
6.7911285e-07
6.938522e-07
7.1027566e-07
7.2684858e-07
7.5223898e-07
7.7445418e-07
7.9144165e-07
8.3332189e-07
8.6522997e-07
9.1610075e-07
4.5997241e-05
2.5941846e-05
1.1902338e-05
4.9213307e-06
1.951791e-06
9.4326089e-07
6.6679131e-07
6.0424851e-07
6.0257377e-07
6.1043892e-07
6.2305305e-07
6.3031914e-07
6.3792286e-07
6.4649017e-07
6.5648778e-07
6.6785853e-07
6.7994865e-07
6.9316477e-07
7.0807749e-07
7.2437119e-07
7.4087343e-07
7.6523557e-07
7.8885308e-07
8.0471728e-07
8.4304643e-07
8.753819e-07
9.2517197e-07
5.287575e-05
3.382568e-05
1.5468421e-05
5.8986122e-06
2.1660608e-06
9.977534e-07
6.8663666e-07
6.1419586e-07
6.0866418e-07
6.1666965e-07
6.2987383e-07
6.3871033e-07
6.4662896e-07
6.5636419e-07
6.674843e-07
6.799643e-07
6.9366663e-07
7.0843988e-07
7.2496767e-07
7.4218366e-07
7.5804209e-07
7.8123108e-07
8.0575979e-07
8.2095674e-07
8.5530009e-07
8.8614276e-07
9.3495602e-07
6.2557902e-05
2.5525113e-05
1.1186713e-05
4.4181859e-06
1.8107691e-06
9.3172596e-07
6.7375766e-07
6.1115254e-07
6.0993587e-07
6.2214495e-07
6.3830267e-07
6.4802159e-07
6.5787656e-07
6.6852151e-07
6.7927878e-07
6.9118586e-07
7.0372643e-07
7.1806496e-07
7.338679e-07
7.5238266e-07
7.6927668e-07
7.9352965e-07
8.2023721e-07
8.3557138e-07
8.6880757e-07
8.9675025e-07
9.4555901e-07
6.7311695e-05
2.0746909e-05
8.7484795e-06
4.0687103e-06
1.820184e-06
9.6162235e-07
6.9090364e-07
6.2217146e-07
6.2295995e-07
6.4142306e-07
6.6461117e-07
6.7832044e-07
6.8879799e-07
6.9777896e-07
7.0660062e-07
7.1554401e-07
7.257055e-07
7.3701019e-07
7.4996982e-07
7.6585917e-07
7.8099333e-07
8.0366536e-07
8.3197858e-07
8.4772568e-07
8.8006233e-07
9.062599e-07
9.5519613e-07
8.298341e-05
4.7219315e-05
2.0323339e-05
8.6383358e-06
3.3250477e-06
1.3622978e-06
8.0973999e-07
6.6805732e-07
6.5595017e-07
6.6399128e-07
6.8714464e-07
7.038833e-07
7.1291922e-07
7.1866367e-07
7.2567043e-07
7.3323898e-07
7.4289599e-07