/*--------------------------------*- C++ -*----------------------------------*\
| =========                 |                                                 |
| \\      /  F ield         | OpenFOAM: The Open Source CFD Toolbox           |
|  \\    /   O peration     | Version:  2406                                  |
|   \\  /    A nd           | Website:  www.openfoam.com                      |
|    \\/     M anipulation  |                                                 |
\*---------------------------------------------------------------------------*/
FoamFile
{
    version     2.0;
    format      ascii;
    arch        "LSB;label=32;scalar=64";
    class       volScalarField;
    location    "17";
    object      k_0;
}
// * * * * * * * * * * * * * * * * * * * * * * * * * * * * * * * * * * * * * //

dimensions      [0 2 -2 0 0 0 0];

internalField   nonuniform List<scalar> 
96472
(
3.2938717e-06
2.6112354e-06
2.0795713e-06
1.8444961e-06
1.6658175e-06
1.4720265e-06
1.2793803e-06
1.1225552e-06
1.0180715e-06
9.5870821e-07
9.2562331e-07
8.9964671e-07
8.6774959e-07
8.2613407e-07
7.7681723e-07
7.2580335e-07
6.7905952e-07
6.4105606e-07
6.1408414e-07
5.9792848e-07
5.899594e-07
5.8736853e-07
5.8735095e-07
5.8759133e-07
5.8739669e-07
5.8594346e-07
5.8173875e-07
5.7387053e-07
5.6258618e-07
5.5107888e-07
5.3869416e-07
5.2843947e-07
5.1786698e-07
5.1225975e-07
5.0541736e-07
5.0388605e-07
5.0352829e-07
5.0785779e-07
5.1205121e-07
5.2284231e-07
5.4534248e-07
5.5871374e-07
5.7888522e-07
5.8845296e-07
6.0207129e-07
6.1028043e-07
6.1428601e-07
6.1817508e-07
6.1873044e-07
6.2780567e-07
6.4289394e-07
6.6417771e-07
6.9124857e-07
7.2774539e-07
7.8480566e-07
3.2911947e-06
2.6080636e-06
2.0790209e-06
1.8437604e-06
1.6665258e-06
1.4749848e-06
1.2833333e-06
1.1260041e-06
1.0200712e-06
9.5956485e-07
9.2605481e-07
9.0061278e-07
8.6998801e-07
8.297218e-07
7.8137276e-07
7.3062798e-07
6.8361766e-07
6.4470379e-07
6.1630061e-07
5.9858329e-07
5.895719e-07
5.8632214e-07
5.858123e-07
5.8598708e-07
5.8594819e-07
5.8496168e-07
5.8011009e-07
5.7182379e-07
5.6022018e-07
5.5005744e-07
5.3800082e-07
5.2891737e-07
5.1907119e-07
5.1140045e-07
5.0582448e-07
5.0094742e-07
4.9804641e-07
4.9435881e-07
4.9351413e-07
4.9423825e-07
4.9684846e-07
5.0292938e-07
5.148844e-07
5.3528563e-07
5.5397505e-07
5.8086322e-07
5.9774286e-07
6.1669452e-07
6.2325185e-07
6.3727547e-07
6.447348e-07
6.6086401e-07
6.7684873e-07
6.9346674e-07
7.3544631e-07
3.2902413e-06
2.6096152e-06
2.0800121e-06
1.8443363e-06
1.6688204e-06
1.4791764e-06
1.2880836e-06
1.1298704e-06
1.0224583e-06
9.6070959e-07
9.2681229e-07
9.0176597e-07
8.7216468e-07
8.3282179e-07
7.8521113e-07
7.3456039e-07
6.8710495e-07
6.4746731e-07
6.1816073e-07
5.9947717e-07
5.8972334e-07
5.8599206e-07
5.8536212e-07
5.8552955e-07
5.8562498e-07
5.8492685e-07
5.8123679e-07
5.7388169e-07
5.6195585e-07
5.5226317e-07
5.39129e-07
5.3048676e-07
5.1932551e-07
5.1353307e-07
5.0606859e-07
5.0326304e-07
4.993584e-07
4.9839349e-07
4.9762417e-07
4.9800966e-07
4.9864276e-07
5.0096784e-07
5.0330121e-07
5.0972074e-07
5.1548762e-07
5.2868509e-07
5.4137537e-07
5.6975356e-07
5.9115692e-07
6.1873822e-07
6.3533133e-07
6.5055177e-07
6.6798934e-07
6.8001288e-07
7.0870598e-07
3.2906117e-06
2.6128656e-06
2.0819611e-06
1.8458889e-06
1.6718796e-06
1.4838575e-06
1.2931344e-06
1.1339508e-06
1.0249953e-06
9.6197636e-07
9.2757677e-07
9.0290538e-07
8.7426788e-07
8.3599764e-07
7.8907097e-07
7.3869373e-07
6.9083889e-07
6.5040813e-07
6.2012281e-07
6.0045645e-07
5.8987582e-07
5.8560893e-07
5.8468925e-07
5.8484208e-07
5.8501429e-07
5.846322e-07
5.817247e-07
5.7494593e-07
5.641018e-07
5.5453422e-07
5.4166977e-07
5.327388e-07
5.2102926e-07
5.1460872e-07
5.0566088e-07
5.0258897e-07
4.9759744e-07
4.9584807e-07
4.9492951e-07
4.9572109e-07
4.9657846e-07
4.9939705e-07
5.0114091e-07
5.0592093e-07
5.0899259e-07
5.1644872e-07
5.2183432e-07
5.3137717e-07
5.4719895e-07
5.6233268e-07
5.9286432e-07
6.1061789e-07
6.4097089e-07
6.5451149e-07
6.8639313e-07
3.2903542e-06
2.6151905e-06
2.083856e-06
1.8476256e-06
1.675055e-06
1.4885915e-06
1.2982619e-06
1.1381266e-06
1.0276401e-06
9.6326396e-07
9.2836453e-07
9.0399262e-07
8.7630883e-07
8.3905874e-07
7.929031e-07
7.4274099e-07
6.9459651e-07
6.5339665e-07
6.2215165e-07
6.0148492e-07
5.9009323e-07
5.8532405e-07
5.8419437e-07
5.8432424e-07
5.8456636e-07
5.8438896e-07
5.8242225e-07
5.7649281e-07
5.6586054e-07
5.561778e-07
5.4388796e-07
5.3418041e-07
5.2294268e-07
5.159986e-07
5.0732552e-07
5.0314309e-07
4.9839799e-07
4.9614047e-07
4.9341945e-07
4.9344091e-07
4.9375931e-07
4.9536329e-07
4.9740946e-07
5.0046285e-07
5.0492725e-07
5.0902009e-07
5.1615584e-07
5.2114864e-07
5.3170919e-07
5.3931492e-07
5.5636178e-07
5.6760428e-07
5.9164116e-07
6.052453e-07
6.4085194e-07
3.2907901e-06
2.6186813e-06
2.0862145e-06
1.8496424e-06
1.6783627e-06
1.4933543e-06
1.3033945e-06
1.1423565e-06
1.030343e-06
9.6464236e-07
9.291527e-07
9.0502352e-07
8.7826998e-07
8.420033e-07
7.9669836e-07
7.4678733e-07
6.9839473e-07
6.5655868e-07
6.2434635e-07
6.0269508e-07
5.9042621e-07
5.8505997e-07
5.8369176e-07
5.8377726e-07
5.8408767e-07
5.8407473e-07
5.8275413e-07
5.7765369e-07
5.6812028e-07
5.5803248e-07
5.4652833e-07
5.3570259e-07
5.25099e-07
5.1654027e-07
5.0847469e-07
5.0248079e-07
4.97685e-07
4.9489965e-07
4.9215355e-07
4.9096259e-07
4.9100225e-07
4.9159247e-07
4.9323505e-07
4.951293e-07
4.9923208e-07
5.0232979e-07
5.0883153e-07
5.1303568e-07
5.2214656e-07
5.2776386e-07
5.3986809e-07
5.4738237e-07
5.634637e-07
5.7343924e-07
5.9974074e-07
3.2901708e-06
2.6207411e-06
2.0882325e-06
1.851499e-06
1.681489e-06
1.4979764e-06
1.3084697e-06
1.1465988e-06
1.03313e-06
9.6611717e-07
9.3000351e-07
9.0606629e-07
8.8014704e-07
8.4489927e-07
8.0042814e-07
7.5089571e-07
7.0225539e-07
6.5981394e-07
6.2670391e-07
6.040274e-07
5.9090842e-07
5.8488216e-07
5.8312863e-07
5.8315807e-07
5.834527e-07
5.836213e-07
5.8282201e-07
5.7882307e-07
5.6997881e-07
5.5963276e-07
5.4880913e-07
5.3756679e-07
5.270713e-07
5.1778066e-07
5.1011382e-07
5.0345833e-07
4.9842654e-07
4.9476774e-07
4.9221287e-07
4.8976952e-07
4.8918731e-07
4.8935961e-07
4.9022184e-07
4.9149811e-07
4.9455784e-07
4.9686825e-07
5.0205498e-07
5.0554961e-07
5.1295289e-07
5.1758486e-07
5.2764848e-07
5.3357845e-07
5.4634592e-07
5.5359095e-07
5.7223274e-07
3.2897927e-06
2.6233478e-06
2.0903462e-06
1.8534356e-06
1.6847121e-06
1.5026679e-06
1.3135912e-06
1.1509152e-06
1.0360102e-06
9.676785e-07
9.308937e-07
9.0712102e-07
8.819575e-07
8.4776412e-07
8.0410631e-07
7.5503272e-07
7.0623756e-07
6.6317212e-07
6.2915737e-07
6.0547898e-07
5.9144543e-07
5.8479447e-07
5.8269835e-07
5.8262653e-07
5.8296275e-07
5.8326566e-07
5.8285008e-07
5.7996126e-07
5.7195047e-07
5.6161382e-07
5.5097448e-07
5.3949844e-07
5.2890372e-07
5.190939e-07
5.1101057e-07
5.0382223e-07
4.9827716e-07
4.9377245e-07
4.9127125e-07
4.8883266e-07
4.87199e-07
4.8705971e-07
4.8739745e-07
4.8827256e-07
4.9044247e-07
4.923413e-07
4.9645144e-07
4.9923259e-07
5.0525344e-07
5.0919642e-07
5.1733417e-07
5.2228856e-07
5.3253839e-07
5.3862515e-07
5.5309266e-07
3.2891816e-06
2.6252658e-06
2.0924452e-06
1.8554347e-06
1.6879059e-06
1.507296e-06
1.3186888e-06
1.1552635e-06
1.0389456e-06
9.6928595e-07
9.317726e-07
9.0813238e-07
8.8371357e-07
8.5054772e-07
8.0781334e-07
7.5913353e-07
7.1026181e-07
6.6661016e-07
6.316725e-07
6.070161e-07
5.9207866e-07
5.8473519e-07
5.82272e-07
5.82069e-07
5.8242122e-07
5.8281939e-07
5.8263529e-07
5.8052244e-07
5.7349296e-07
5.6326637e-07
5.5287274e-07
5.4155898e-07
5.309755e-07
5.20824e-07
5.1242147e-07
5.0517969e-07
4.9931884e-07
4.9431773e-07
4.9091957e-07
4.8846236e-07
4.8642966e-07
4.8524754e-07
4.8532832e-07
4.8569883e-07
4.8707369e-07
4.8845165e-07
4.916142e-07
4.9384309e-07
4.9882566e-07
5.0181758e-07
5.0868353e-07
5.1266988e-07
5.2138504e-07
5.2648409e-07
5.3788577e-07
3.2894296e-06
2.6287059e-06
2.0950795e-06
1.8578129e-06
1.691425e-06
1.5121884e-06
1.3240017e-06
1.159786e-06
1.0420308e-06
9.7104246e-07
9.3274259e-07
9.0914527e-07
8.8542942e-07
8.5322849e-07
8.1142235e-07
7.6323072e-07
7.1429612e-07
6.7018726e-07
6.3441984e-07
6.0876314e-07
5.9292382e-07
5.8483986e-07
5.8191486e-07
5.8158008e-07
5.8191937e-07
5.8240876e-07
5.8239473e-07
5.8091354e-07
5.7512879e-07
5.6499122e-07
5.5488267e-07
5.4370662e-07
5.3300598e-07
5.2266036e-07
5.137861e-07
5.060519e-07
4.9978859e-07
4.9437574e-07
4.903837e-07
4.8748794e-07
4.8565428e-07
4.8371916e-07
4.8326915e-07
4.8343956e-07
4.8409739e-07
4.8512829e-07
4.8748797e-07
4.8935504e-07
4.9319382e-07
4.959191e-07
5.0131704e-07
5.04781e-07
5.1203249e-07
5.1596638e-07
5.2559802e-07
3.2903049e-06
2.632218e-06
2.0978142e-06
1.8602263e-06
1.6948785e-06
1.5169363e-06
1.3291604e-06
1.1642075e-06
1.0450958e-06
9.7280999e-07
9.3375469e-07
9.1017548e-07
8.870558e-07
8.558676e-07
8.1490081e-07
7.6729906e-07
7.1838097e-07
6.7380125e-07
6.3726779e-07
6.1064746e-07
5.9386254e-07
5.8504542e-07
5.8162502e-07
5.810624e-07
5.8136047e-07
5.8189548e-07
5.8200874e-07
5.8101797e-07
5.7644605e-07
5.6666346e-07
5.5685171e-07
5.4595596e-07
5.3532011e-07
5.248284e-07
5.1564004e-07
5.0752164e-07
5.0102623e-07
4.9529724e-07
4.9091322e-07
4.8713094e-07
4.8501713e-07
4.8311942e-07
4.817163e-07
4.8147084e-07
4.8175337e-07
4.8235058e-07
4.8401253e-07
4.853801e-07
4.8859325e-07
4.9067482e-07
4.9526397e-07
4.980725e-07
5.0400947e-07
5.0750588e-07
5.156267e-07
3.2913687e-06
2.6367921e-06
2.1009244e-06
1.8629558e-06
1.6987174e-06
1.5221029e-06
1.3347021e-06
1.1689406e-06
1.0484106e-06
9.7474126e-07
9.3484533e-07
9.112206e-07
8.8863427e-07
8.58405e-07
8.1834007e-07
7.7133476e-07
7.2258645e-07
6.7760319e-07
6.4028355e-07
6.1271526e-07
5.9492715e-07
5.8532645e-07
5.8141774e-07
5.8063932e-07
5.8087538e-07
5.8145986e-07
5.8168604e-07
5.8104206e-07
5.7753439e-07
5.6851938e-07
5.5875018e-07
5.480963e-07
5.3753234e-07
5.2692715e-07
5.1751794e-07
5.0896713e-07
5.0199286e-07
4.9596088e-07
4.9118177e-07
4.8699576e-07
4.8419192e-07
4.8228292e-07
4.80715e-07
4.7968159e-07
4.7968856e-07
4.8000602e-07
4.8095981e-07
4.820491e-07
4.84513e-07
4.8621433e-07
4.9000787e-07
4.9226074e-07
4.9734533e-07
5.0032163e-07
5.0656195e-07
3.2937278e-06
2.6420008e-06
2.1043058e-06
1.8657691e-06
1.7024018e-06
1.5269792e-06
1.3399553e-06
1.1734552e-06
1.0515857e-06
9.7657688e-07
9.3586782e-07
9.1215624e-07
8.9015919e-07
8.6084983e-07
8.2175218e-07
7.7531665e-07
7.267057e-07
6.8138705e-07
6.4332311e-07
6.1480427e-07
5.9607315e-07
5.8566424e-07
5.8116384e-07
5.8016397e-07
5.8032127e-07
5.8092738e-07
5.8127041e-07
5.8090093e-07
5.7827272e-07
5.7033861e-07
5.6065853e-07
5.5032451e-07
5.3993687e-07
5.2926227e-07
5.1965744e-07
5.1080403e-07
5.0337995e-07
4.9706025e-07
4.9197119e-07
4.8743854e-07
4.8406375e-07
4.815506e-07
4.8010013e-07
4.7848279e-07
4.779756e-07
4.7799705e-07
4.7850451e-07
4.7924846e-07
4.8101509e-07
4.8254502e-07
4.854285e-07
4.8751387e-07
4.9177099e-07
4.9397943e-07
4.9950504e-07
3.2955685e-06
2.6476096e-06
2.1079127e-06
1.868865e-06
1.7065685e-06
1.5324245e-06
1.3457692e-06
1.1784372e-06
1.0551234e-06
9.7867321e-07
9.3705186e-07
9.1316937e-07
8.9164812e-07
8.6324505e-07
8.2508355e-07
7.7937559e-07
7.3096722e-07
6.8534207e-07
6.4658816e-07
6.1712415e-07
5.9742096e-07
5.8619624e-07
5.8109384e-07
5.7978149e-07
5.7988408e-07
5.8042106e-07
5.8085726e-07
5.807051e-07
5.7884356e-07
5.7213769e-07
5.6270822e-07
5.5257969e-07
5.424371e-07
5.3179782e-07
5.2201216e-07
5.1287386e-07
5.0499499e-07
4.9821287e-07
4.9283274e-07
4.8792682e-07
4.8423732e-07
4.8107276e-07
4.7928058e-07
4.7777514e-07
4.7651863e-07
4.7623741e-07
4.7636319e-07
4.7682249e-07
4.7809587e-07
4.7906319e-07
4.8161917e-07
4.8324213e-07
4.8656108e-07
4.8889193e-07
4.9327122e-07
3.2999293e-06
2.6547859e-06
2.1121323e-06
1.8721806e-06
1.7105858e-06
1.5374998e-06
1.3511473e-06
1.1830486e-06
1.0583835e-06
9.805995e-07
9.3812649e-07
9.1412246e-07
8.9306845e-07
8.6558188e-07
8.2831035e-07
7.8325179e-07
7.350843e-07
6.8919064e-07
6.4978728e-07
6.19465e-07
5.9878246e-07
5.8672165e-07
5.8102193e-07
5.7939465e-07
5.7940351e-07
5.7986248e-07
5.8040025e-07
5.8040025e-07
5.7919548e-07
5.7389401e-07
5.6478891e-07
5.5483376e-07
5.4492864e-07
5.34377e-07
5.2452205e-07
5.1513656e-07
5.0692698e-07
4.9969436e-07
4.9394907e-07
4.8880244e-07
4.8472315e-07
4.8116779e-07
4.7874208e-07
4.7702262e-07
4.7580851e-07
4.7470637e-07
4.7471026e-07
4.7491575e-07
4.75542e-07
4.7648457e-07
4.7827971e-07
4.7956689e-07
4.8263826e-07
4.8462165e-07
4.877975e-07
3.3025644e-06
2.6610312e-06
2.1161375e-06
1.8756066e-06
1.715009e-06
1.5431718e-06
1.3571569e-06
1.1882307e-06
1.0621477e-06
9.8290414e-07
9.3944366e-07
9.1518054e-07
8.9450108e-07
8.6784e-07
8.3155595e-07
7.8726604e-07
7.3946221e-07
6.9335765e-07
6.5327403e-07
6.2204372e-07
6.0036748e-07
5.8741859e-07
5.8104626e-07
5.7911609e-07
5.7898813e-07
5.7940633e-07
5.8008269e-07
5.8023037e-07
5.7950988e-07
5.7564854e-07
5.6699709e-07
5.5732972e-07
5.4754164e-07
5.3709813e-07
5.272117e-07
5.1761423e-07
5.0912163e-07
5.0147035e-07
4.9522429e-07
4.8980661e-07
4.8540103e-07
4.8156873e-07
4.7867221e-07
4.7642789e-07
4.7515273e-07
4.7383674e-07
4.7323533e-07
4.7319274e-07
4.7353426e-07
4.7410953e-07
4.7531472e-07
4.7643797e-07
4.7908286e-07
4.8025112e-07
4.8340145e-07
3.3071025e-06
2.6677111e-06
2.1203099e-06
1.8790161e-06
1.7190738e-06
1.5482468e-06
1.3625061e-06
1.1928644e-06
1.0654633e-06
9.8490609e-07
9.4059838e-07
9.1614127e-07
8.9589427e-07
8.7001853e-07
8.3462681e-07
7.9101956e-07
7.4348612e-07
6.9722858e-07
6.5664144e-07
6.2459268e-07
6.0200926e-07
5.8819151e-07
5.8114283e-07
5.7879591e-07
5.7852903e-07
5.7886623e-07
5.7966114e-07
5.799612e-07
5.79599e-07
5.7694104e-07
5.6922883e-07
5.5968553e-07
5.5004047e-07
5.3977635e-07
5.2991584e-07
5.2023066e-07
5.1145373e-07
5.0349308e-07
4.9686418e-07
4.9102167e-07
4.8634719e-07
4.8210836e-07
4.7900427e-07
4.7616187e-07
4.7449565e-07
4.7334133e-07
4.7227266e-07
4.7185795e-07
4.7203593e-07
4.7220251e-07
4.7313745e-07
4.7405658e-07
4.7583659e-07
4.7727434e-07
4.7969943e-07
3.3093757e-06
2.6737516e-06
2.1246251e-06
1.8828753e-06
1.7238102e-06
1.5540981e-06
1.3686458e-06
1.198241e-06
1.0694251e-06
9.874483e-07
9.4212624e-07
9.172704e-07
8.9730284e-07
8.7220442e-07
8.378108e-07
7.9509431e-07
7.4798864e-07
7.0156277e-07
6.6037793e-07
6.274503e-07
6.0387267e-07
5.8912785e-07
5.8143034e-07
5.7865915e-07
5.7823917e-07
5.7851245e-07
5.7936479e-07
5.7980631e-07
5.7968811e-07
5.7798587e-07
5.7171035e-07
5.6224787e-07
5.5280594e-07
5.426316e-07
5.3282733e-07
5.2312374e-07
5.1405167e-07
5.0571156e-07
4.9868919e-07
4.924591e-07
4.8742454e-07
4.8294432e-07
4.7949192e-07
4.7639245e-07
4.7418973e-07
4.7268461e-07
4.7177168e-07
4.7079572e-07
4.7052418e-07
4.7075796e-07
4.7113289e-07
4.717472e-07
4.7319224e-07
4.7439049e-07
4.7606251e-07
3.3122092e-06
2.6780107e-06
2.1278879e-06
1.8859573e-06
1.7276186e-06
1.5588985e-06
1.3737275e-06
1.2027697e-06
1.0727091e-06
9.8952461e-07
9.434185e-07
9.1835628e-07
8.9871148e-07
8.7431655e-07
8.4071624e-07
7.9866585e-07
7.5192238e-07
7.0543748e-07
6.6385151e-07
6.3025286e-07
6.0576903e-07
5.9013315e-07
5.8173539e-07
5.7850369e-07
5.7789664e-07
5.7812437e-07
5.7896534e-07
5.7955051e-07
5.7958166e-07
5.7850615e-07
5.7366177e-07
5.6438866e-07
5.5515917e-07
5.4513843e-07
5.3530039e-07
5.2566354e-07
5.1652901e-07
5.0797143e-07
5.006201e-07
4.940672e-07
4.8855132e-07
4.8378742e-07
4.7998767e-07
4.7676872e-07
4.7417934e-07
4.7225018e-07
4.7123837e-07
4.7013448e-07
4.6960235e-07
4.6954152e-07
4.6978345e-07
4.7019281e-07
4.7143449e-07
4.7211229e-07
4.7373968e-07
3.3147584e-06
2.6847674e-06
2.1329247e-06
1.8907544e-06
1.7330952e-06
1.5651972e-06
1.3801447e-06
1.2084132e-06
1.076966e-06
9.9233094e-07
9.4512614e-07
9.1953729e-07
9.0006921e-07
8.7640144e-07
8.438215e-07
8.0270913e-07
7.5648588e-07
7.0993827e-07
6.678207e-07
6.3336966e-07
6.0789717e-07
5.9134663e-07
5.8223404e-07
5.7849854e-07
5.7768275e-07
5.7785389e-07
5.7860988e-07
5.7936057e-07
5.7950731e-07
5.7883145e-07
5.7524271e-07
5.6664262e-07
5.5750198e-07
5.4796611e-07
5.3827788e-07
5.2880674e-07
5.1960271e-07
5.1083451e-07
5.031104e-07
4.9632832e-07
4.9044624e-07
4.8523922e-07
4.81134e-07
4.7749182e-07
4.7477432e-07
4.7242733e-07
4.7077589e-07
4.697287e-07
4.6895824e-07
4.6844159e-07
4.6853251e-07
4.6886594e-07
4.6930651e-07
4.7007581e-07
4.7093155e-07
3.3164628e-06
2.6876258e-06
2.1358815e-06
1.8940588e-06
1.7371268e-06
1.5698248e-06
1.3848986e-06
1.2126347e-06
1.080123e-06
9.9442994e-07
9.4653658e-07
9.2076027e-07
9.0157502e-07
8.7845336e-07
8.4651419e-07
8.0599028e-07
7.601551e-07
7.1369551e-07
6.7133977e-07
6.3631666e-07
6.1004367e-07
5.9264711e-07
5.8285861e-07
5.786156e-07
5.7759203e-07
5.777027e-07
5.7836363e-07
5.7919176e-07
5.7940045e-07
5.7893547e-07
5.7604287e-07
5.6840458e-07
5.5977244e-07
5.5087107e-07
5.4181652e-07
5.3288571e-07
5.2416767e-07
5.1566169e-07
5.0777755e-07
5.0077822e-07
4.9454689e-07
4.8891708e-07
4.8428363e-07
4.803659e-07
4.7716758e-07
4.7440114e-07
4.7216623e-07
4.7059902e-07
4.6958252e-07
4.6884527e-07
4.685609e-07
4.6851735e-07
4.6879692e-07
4.6932293e-07
4.6991883e-07
3.3193147e-06
2.6949792e-06
2.1419226e-06
1.9006673e-06
1.7445104e-06
1.5775353e-06
1.3922587e-06
1.2188093e-06
1.0843251e-06
9.9680807e-07
9.479529e-07
9.2212934e-07
9.0369482e-07
8.8161923e-07
8.506838e-07
8.1085973e-07
7.6525368e-07
7.1853127e-07
6.7556878e-07
6.3971871e-07
6.1260742e-07
5.9459107e-07
5.8447226e-07
5.8033195e-07
5.7950206e-07
5.7978016e-07
5.8098238e-07
5.825111e-07
5.8304631e-07
5.8291711e-07
5.8131165e-07
5.7573848e-07
5.6806916e-07
5.6094954e-07
5.5418707e-07
5.4678942e-07
5.393386e-07
5.3206018e-07
5.2515147e-07
5.1872297e-07
5.1239402e-07
5.0619865e-07
5.0081465e-07
4.9626993e-07
4.9227262e-07
4.8859049e-07
4.8503305e-07
4.8204805e-07
4.7969968e-07
4.7784375e-07
4.7657018e-07
4.7555861e-07
4.7450588e-07
4.740103e-07
4.7309109e-07
3.3200714e-06
2.6979119e-06
2.1462868e-06
1.9040943e-06
1.7507966e-06
1.5849673e-06
1.3995289e-06
1.2247198e-06
1.0867273e-06
9.9718909e-07
9.4978022e-07
9.2768225e-07
9.1456602e-07
8.9715615e-07
8.6836845e-07
8.2745504e-07
7.7891843e-07
7.2965172e-07
6.8527473e-07
6.4886421e-07
6.2197776e-07
6.0532825e-07
5.9854226e-07
5.9766473e-07
5.9867186e-07
6.0281048e-07
6.1044411e-07
6.1665716e-07
6.206332e-07
6.2257988e-07
6.2317057e-07
6.2271817e-07
6.1931558e-07
6.1394051e-07
6.1182459e-07
6.0916229e-07
6.0617725e-07
6.0386397e-07
6.0174664e-07
5.9959805e-07
5.9608112e-07
5.9125483e-07
5.8601804e-07
5.8165815e-07
5.7667048e-07
5.7226331e-07
5.6546415e-07
5.6014676e-07
5.5314318e-07
5.4865124e-07
5.4294572e-07
5.4004603e-07
5.3337894e-07
5.3037014e-07
5.2090099e-07
3.3263136e-06
2.7259834e-06
2.1738092e-06
1.9260127e-06
1.7948536e-06
1.6451446e-06
1.4555781e-06
1.2660767e-06
1.1134525e-06
1.0236148e-06
9.9763809e-07
1.0000926e-06
1.0124928e-06
1.0175071e-06
1.011809e-06
9.7818535e-07
9.0063497e-07
8.2915505e-07
7.7262185e-07
7.3603502e-07
7.2082406e-07
7.1897937e-07
7.2209243e-07
7.351338e-07
7.6994684e-07
8.0984857e-07
8.4483975e-07
8.7503394e-07
8.9614785e-07
9.1115396e-07
9.2293757e-07
9.291615e-07
9.3187376e-07
9.3317144e-07
9.3512839e-07
9.3958529e-07
9.4878961e-07
9.6554467e-07
9.8383314e-07
1.0013476e-06
1.0166278e-06
1.0286736e-06
1.0362303e-06
1.0398779e-06
1.0397813e-06
1.0386422e-06
1.0348038e-06
1.0294696e-06
1.0163985e-06
1.0047872e-06
9.907087e-07
9.8210016e-07
9.6109932e-07
9.4771712e-07
9.0069155e-07
3.3612745e-06
2.8833491e-06
2.3354889e-06
2.1102543e-06
2.1026119e-06
2.1119372e-06
2.0154148e-06
1.723476e-06
1.556514e-06
1.5439146e-06
1.5849787e-06
1.7583744e-06
1.9536464e-06
2.0302132e-06
2.0326487e-06
1.9977826e-06
1.8545408e-06
1.7002438e-06
1.6197845e-06
1.5965308e-06
1.5992448e-06
1.6260178e-06
1.7141712e-06
1.8879542e-06
2.0683972e-06
2.2328561e-06
2.3722951e-06
2.4932073e-06
2.5828525e-06
2.6437643e-06
2.6916979e-06
2.7226746e-06
2.7382954e-06
2.7467857e-06
2.7577543e-06
2.7886076e-06
2.8237286e-06
2.8957876e-06
2.9770775e-06
3.0879212e-06
3.1766695e-06
3.2608223e-06
3.3380058e-06
3.4086609e-06
3.4738996e-06
3.5363481e-06
3.5707604e-06
3.5968725e-06
3.6000617e-06
3.5890575e-06
3.5807564e-06
3.5748439e-06
3.5493693e-06
3.5244825e-06
3.3926515e-06
3.6732895e-06
3.7132446e-06
3.1909656e-06
3.2802646e-06
4.1650997e-06
5.383453e-06
5.6497445e-06
5.632326e-06
5.686387e-06
5.9034493e-06
6.3789408e-06
7.1023736e-06
7.6189055e-06
7.884526e-06
7.9084084e-06
7.8690553e-06
7.6379126e-06
7.43006e-06
7.367742e-06
7.3739656e-06
7.4543507e-06
7.7114976e-06
8.1798078e-06
8.6629512e-06
9.1129344e-06
9.5329111e-06
9.8801411e-06
1.0203948e-05
1.0494254e-05
1.0707147e-05
1.0917157e-05
1.1109698e-05
1.1294859e-05
1.140353e-05
1.1493553e-05
1.1719381e-05
1.1813831e-05
1.2050117e-05
1.2158135e-05
1.2489013e-05
1.2643042e-05
1.2952375e-05
1.3179851e-05
1.3339222e-05
1.371805e-05
1.3850485e-05
1.3978002e-05
1.4351377e-05
1.4448115e-05
1.4472207e-05
1.46563e-05
1.4701124e-05
1.4596923e-05
1.4647795e-05
1.4469727e-05
7.7269418e-06
2.8657551e-05
2.4508738e-05
2.5794227e-05
2.7583531e-05
3.1038636e-05
3.324558e-05
3.4777204e-05
3.3880875e-05
3.3539895e-05
3.3557469e-05
3.4057657e-05
3.499171e-05
3.6133547e-05
3.7278963e-05
3.812353e-05
3.878515e-05
3.9126916e-05
3.8890131e-05
3.8038949e-05
3.7216703e-05
3.6587489e-05
3.6300521e-05
3.6243042e-05
3.6336907e-05
3.6568622e-05
3.6948247e-05
3.7452427e-05
3.8051312e-05
3.8718811e-05
3.9428495e-05
4.0156822e-05
4.0883151e-05
4.1586378e-05
4.2255844e-05
4.2859348e-05
4.3454549e-05
4.3897941e-05
4.4410202e-05
4.4708698e-05
4.5179827e-05
4.5383044e-05
4.5548336e-05
4.5904516e-05
4.5804332e-05
4.6052058e-05
4.6007336e-05
4.598367e-05
4.6263414e-05
4.6050224e-05
4.5915802e-05
4.6185557e-05
4.601465e-05
4.5706981e-05
4.5909541e-05
4.5696382e-05
1.4987524e-05
3.6159563e-06
9.5820746e-07
5.332933e-07
4.7575805e-07
4.7129742e-07
4.7239539e-07
4.7548987e-07
4.7808386e-07
4.819323e-07
4.8573665e-07
4.908623e-07
4.96001e-07
5.0269516e-07
5.1004049e-07
5.1889255e-07
5.2957306e-07
5.4239417e-07
5.5800419e-07
5.7804535e-07
6.0390998e-07
6.4178714e-07
6.9038425e-07
7.1764107e-07
7.4693452e-07
7.863079e-07
4.5069909e-05
1.7507098e-05
4.1980783e-06
1.0978747e-06
5.5850377e-07
4.8077739e-07
4.7389198e-07
4.7450262e-07
4.7754727e-07
4.8033391e-07
4.8451128e-07
4.8859017e-07
4.93877e-07
4.9961565e-07
5.0646307e-07
5.1418763e-07
5.2333556e-07
5.3400148e-07
5.469728e-07
5.6192026e-07
5.8095992e-07
6.0560582e-07
6.4238531e-07
6.9197059e-07
7.2171119e-07
7.5284513e-07
7.8763704e-07
4.5773323e-05
1.7996136e-05
4.4211904e-06
1.1638335e-06
5.7305274e-07
4.8451415e-07
4.7585142e-07
4.7640832e-07
4.7979989e-07
4.8290777e-07
4.8730105e-07
4.9154444e-07
4.9718264e-07
5.0299147e-07
5.1017325e-07
5.1816369e-07
5.275733e-07
5.3830499e-07
5.5138227e-07
5.6711636e-07
5.8637906e-07
6.1028085e-07
6.4565711e-07
6.9656738e-07
7.2990779e-07
7.6409929e-07
7.9568639e-07
4.5767473e-05
1.7357993e-05
4.5643507e-06
1.2360074e-06
5.9602882e-07
4.9118693e-07
4.7944914e-07
4.8024596e-07
4.840842e-07
4.8750525e-07
4.9203255e-07
4.963239e-07
5.0202025e-07
5.0791042e-07
5.1493574e-07
5.2296968e-07
5.3250279e-07
5.4362104e-07
5.5650963e-07
5.7171398e-07
5.8992844e-07
6.1286803e-07
6.4696122e-07
6.9946899e-07
7.3535561e-07
7.7367035e-07
8.0658482e-07
4.3226769e-05
1.7885894e-05
5.0162967e-06
1.4337845e-06
6.5797104e-07
5.0880414e-07
4.8790742e-07
4.8706644e-07
4.8955405e-07
4.930844e-07
4.9758625e-07
5.0214304e-07
5.0786342e-07
5.1418763e-07
5.213418e-07
5.2926542e-07
5.3882375e-07
5.4982497e-07
5.6341418e-07
5.7881326e-07
5.9786773e-07
6.1913466e-07
6.5030901e-07
7.0391926e-07
7.4167417e-07
7.815428e-07
8.175341e-07
4.1338339e-05
2.0882136e-05
6.5605995e-06
1.9262963e-06
7.6479407e-07
5.3275258e-07
4.9599156e-07
4.9198524e-07
4.9335226e-07
4.9675948e-07
5.0133159e-07
5.0621571e-07
5.122484e-07
5.1892127e-07
5.2710657e-07
5.3570606e-07
5.4550905e-07
5.567895e-07
5.6995166e-07
5.8548468e-07
6.0374215e-07
6.2463746e-07
6.5331133e-07
7.0789927e-07
7.4999211e-07
7.9084001e-07
8.3158006e-07
4.1405262e-05
2.3210948e-05
7.5252355e-06
2.1582039e-06
8.0564395e-07
5.4257519e-07
4.9900158e-07
4.9390339e-07
4.9524788e-07
4.9886485e-07
5.0382662e-07
5.0904916e-07
5.1533633e-07
5.2247114e-07
5.3103334e-07
5.4093206e-07
5.5158029e-07
5.6382437e-07
5.7752468e-07
5.9362489e-07
6.1181354e-07
6.31312e-07
6.5669342e-07
7.0983683e-07
7.5503667e-07
7.9828687e-07
8.4350073e-07
4.3555554e-05
2.2810783e-05
7.4311071e-06
2.1310087e-06
8.0378736e-07
5.4495639e-07
5.0032383e-07
4.9609812e-07
4.9779242e-07
5.0251293e-07
5.0804586e-07
5.1388932e-07
5.2081444e-07
5.2839153e-07
5.3673935e-07
5.4663447e-07
5.5759756e-07
5.7004892e-07
5.8406909e-07
6.0044831e-07
6.2032095e-07
6.4046138e-07
6.6339896e-07
7.1339727e-07
7.6241121e-07
8.0642583e-07
8.5622244e-07
4.5413859e-05
1.9074507e-05
6.630042e-06
1.9799278e-06
8.0479914e-07
5.4917409e-07
5.0392054e-07
5.0148112e-07
5.0421932e-07
5.1162825e-07
5.184231e-07
5.2500752e-07
5.3195459e-07
5.3934712e-07
5.4709776e-07
5.5641808e-07
5.6730299e-07
5.7992383e-07
5.9392207e-07
6.0966607e-07
6.2901688e-07
6.4944776e-07
6.6991082e-07
7.1547839e-07
7.6525374e-07
8.099798e-07
8.6677911e-07
3.8583352e-05
1.8560929e-05
6.5349114e-06
2.0269443e-06
8.4399392e-07
5.6667391e-07
5.1728135e-07
5.1687863e-07
5.2022976e-07
5.2680426e-07
5.3269814e-07
5.3850196e-07
5.4467054e-07
5.5193532e-07
5.5984158e-07
5.6855708e-07
5.783917e-07
5.9018335e-07
6.0434498e-07
6.2043179e-07
6.402634e-07
6.6181677e-07
6.8101153e-07
7.224164e-07
7.7289448e-07
8.1694022e-07
8.7740496e-07
3.2542739e-05
2.0419216e-05
7.3544087e-06
2.4891751e-06
1.0366574e-06
6.2808979e-07
5.4476114e-07
5.3123695e-07
5.3295052e-07
5.3585166e-07
5.4095494e-07
5.4687024e-07
5.5316115e-07
5.610373e-07
5.6963159e-07
5.7931284e-07
5.9018713e-07
6.0208921e-07
6.1613822e-07
6.3174541e-07
6.5060483e-07
6.7242666e-07
6.9023989e-07
7.2723267e-07
7.7796829e-07
8.20904e-07
8.8574259e-07
3.0910337e-05
2.2199433e-05
9.175874e-06
3.242883e-06
1.2139182e-06
6.7510019e-07
5.5690969e-07
5.3672822e-07
5.3730864e-07
5.3884068e-07
5.4400997e-07
5.5028574e-07
5.5728e-07
5.6573541e-07
5.7482835e-07
5.8518198e-07
5.9665266e-07
6.0955696e-07
6.2439647e-07
6.4101568e-07
6.6068248e-07
6.8393623e-07
7.0053375e-07
7.3381853e-07
7.8350572e-07
8.2305992e-07
8.9000935e-07
3.7164271e-05
2.1123934e-05
9.2438878e-06
3.2793582e-06
1.2272106e-06
6.8328471e-07
5.5916936e-07
5.3870971e-07
5.3929173e-07
5.4161041e-07
5.4753772e-07
5.5427637e-07
5.618031e-07
5.704993e-07
5.7994349e-07
5.9113403e-07
6.0392257e-07
6.1747267e-07
6.3266089e-07
6.4983218e-07
6.7007254e-07
6.9547113e-07
7.1311805e-07
7.4261396e-07
7.9390105e-07
8.2852674e-07
8.9409224e-07
2.8885865e-05
2.0204317e-05
8.860922e-06
3.1727314e-06
1.233783e-06
6.8900743e-07
5.6240375e-07
5.4221323e-07
5.4399471e-07
5.4847434e-07
5.5563274e-07
5.6328367e-07
5.7133963e-07
5.8068881e-07
5.908326e-07
6.0258675e-07
6.1532397e-07
6.2950985e-07
6.4511395e-07
6.6199585e-07
6.808191e-07
7.0612228e-07
7.2434028e-07
7.4928881e-07
8.0177938e-07
8.3331514e-07
8.9634199e-07
3.2539571e-05
1.7886284e-05
8.5070592e-06
3.1735684e-06
1.2663543e-06
7.0433479e-07
5.7101911e-07
5.5219357e-07
5.5855084e-07
5.6925476e-07
5.7768305e-07
5.8551673e-07
5.9264792e-07
6.0007198e-07
6.0872462e-07
6.1808724e-07
6.2957807e-07
6.4238558e-07
6.5682227e-07
6.7379445e-07
6.918397e-07
7.1721346e-07
7.3595456e-07
7.5797611e-07
8.0929801e-07
8.4045846e-07
8.9811929e-07
2.6434532e-05
2.0516838e-05
1.0035611e-05
3.8190745e-06
1.5187701e-06
7.8305615e-07
6.0363616e-07
5.7452482e-07
5.8077355e-07
5.9073876e-07
5.9885725e-07
6.0497534e-07
6.1156294e-07
6.1888725e-07
6.2734955e-07
6.3661576e-07
6.4763639e-07
6.5979397e-07
6.7384625e-07
6.8985152e-07
7.0638954e-07
7.310725e-07
7.4999428e-07
7.6943146e-07
8.1776565e-07
8.4871987e-07
9.0469064e-07
4.2709984e-05
2.0858702e-05
1.0156308e-05
3.9328169e-06
1.5610202e-06
8.1897712e-07
6.180752e-07
5.8294432e-07
5.8800706e-07
5.9670592e-07
6.042906e-07
6.1062384e-07
6.1864673e-07
6.2706775e-07
6.3689383e-07
6.477261e-07
6.596249e-07
6.726885e-07
6.8695214e-07
7.0341787e-07
7.1944181e-07
7.4422656e-07
7.6389705e-07
7.8158192e-07
8.2579193e-07
8.5731115e-07
9.0907946e-07
4.0041507e-05
1.6783751e-05
8.4391226e-06
3.6033777e-06
1.5342891e-06
8.2922085e-07
6.2732183e-07
5.8801107e-07
5.9205774e-07
6.0075344e-07
6.0942342e-07
6.159677e-07
6.2394078e-07
6.3258019e-07
6.4263136e-07
6.5383688e-07
6.6599514e-07
6.7910167e-07
6.9379599e-07
7.1027714e-07
7.2682946e-07
7.5221339e-07
7.74452e-07
7.9141742e-07
8.3329859e-07
8.6522712e-07
9.161032e-07
4.5986089e-05
2.601259e-05
1.1934242e-05
4.9299323e-06
1.9534168e-06
9.4358319e-07
6.6691063e-07
6.042751e-07
6.0258643e-07
6.1045505e-07
6.2303353e-07
6.3031852e-07
6.3790551e-07
6.4653025e-07
6.5650132e-07
6.6785964e-07
6.7999459e-07
6.9315266e-07
7.0810625e-07
7.2439621e-07
7.4091632e-07
7.6522781e-07
7.8888589e-07
8.0471849e-07
8.4301969e-07
8.7540128e-07
9.2517213e-07
5.3047712e-05
3.3818965e-05
1.5440413e-05
5.8867455e-06
2.1627011e-06
9.9691813e-07
6.8640839e-07
6.1413571e-07
6.0861896e-07
6.1666484e-07
6.298604e-07
6.3864857e-07
6.4664229e-07
6.5635268e-07
6.6749116e-07
6.7998769e-07
6.9365379e-07
7.0846909e-07
7.2493115e-07
7.4223412e-07
7.5805597e-07
7.8124277e-07
8.057941e-07
8.2096857e-07
8.5529816e-07
8.861403e-07
9.3496515e-07
6.2480112e-05
2.5438131e-05
1.1143713e-05
4.4055913e-06
1.8080572e-06
9.3120035e-07
6.7362566e-07
6.1113587e-07
6.0996539e-07
6.2220875e-07
6.3836783e-07
6.4810855e-07
6.5793282e-07
6.6863481e-07
6.7933713e-07
6.9126851e-07
7.0378243e-07
7.1805409e-07
7.3388625e-07
7.5235163e-07
7.6931618e-07
7.9348969e-07
8.2028333e-07
8.3556117e-07
8.6881345e-07
8.9673934e-07
9.4556855e-07
6.7493699e-05
2.0801537e-05
8.7617447e-06
4.0731793e-06
1.8215684e-06
9.6208917e-07
6.9111708e-07
6.2231567e-07
6.2316319e-07
6.4164064e-07
6.64842e-07
6.7854489e-07
6.8899431e-07
6.978848e-07
7.067237e-07
7.1564821e-07
7.2576291e-07
7.3705386e-07
7.4997752e-07
7.6586861e-07
7.8096903e-07
8.0364301e-07
8.3196019e-07
8.4770748e-07
8.8001802e-07
9.0625367e-07
9.5517499e-07
8.2778377e-05
4.721131e-05
2.0350375e-05
8.6548774e-06
3.3283461e-06
1.3628127e-06
8.09911e-07
6.6819803e-07
6.5600154e-07
6.6404209e-07
6.871574e-07
7.0387253e-07
7.1292788e-07
7.185399e-07
7.2565067e-07