/*--------------------------------*- C++ -*----------------------------------*\
| =========                 |                                                 |
| \\      /  F ield         | OpenFOAM: The Open Source CFD Toolbox           |
|  \\    /   O peration     | Version:  2406                                  |
|   \\  /    A nd           | Website:  www.openfoam.com                      |
|    \\/     M anipulation  |                                                 |
\*---------------------------------------------------------------------------*/
FoamFile
{
    version     2.0;
    format      ascii;
    arch        "LSB;label=32;scalar=64";
    class       volScalarField;
    location    "17";
    object      nut;
}
// * * * * * * * * * * * * * * * * * * * * * * * * * * * * * * * * * * * * * //

dimensions      [0 2 -1 0 0 0 0];

internalField   nonuniform List<scalar> 
96472
(
8.7698297e-07
8.9292668e-07
8.437323e-07
8.6298935e-07
8.8728137e-07
8.8131145e-07
8.4712765e-07
8.0817306e-07
7.8585843e-07
7.860998e-07
8.0179747e-07
8.2061655e-07
8.314412e-07
8.2899435e-07
8.1342145e-07
7.8937647e-07
7.6362753e-07
7.4177483e-07
7.2853212e-07
7.2481912e-07
7.2955353e-07
7.3963863e-07
7.531559e-07
7.6688356e-07
7.8105917e-07
7.938778e-07
8.0376454e-07
8.0809335e-07
8.075221e-07
8.0463427e-07
7.9922679e-07
7.9386216e-07
7.8754197e-07
7.8469166e-07
7.8030336e-07
7.8005734e-07
7.8080193e-07
7.8479932e-07
7.8886058e-07
7.9876239e-07
8.1881091e-07
8.2994961e-07
8.4750599e-07
8.5562317e-07
8.6724585e-07
8.7459198e-07
8.7824967e-07
8.8194505e-07
8.8248076e-07
8.8995102e-07
9.0255778e-07
9.1973975e-07
9.416506e-07
9.7025467e-07
1.0149713e-06
8.7666308e-07
8.9097235e-07
8.420677e-07
8.6065331e-07
8.8522655e-07
8.8051186e-07
8.4737364e-07
8.085608e-07
7.8548491e-07
7.8485348e-07
8.0001684e-07
8.1904268e-07
8.3081253e-07
8.2966449e-07
8.1530735e-07
7.9197194e-07
7.6642138e-07
7.4388679e-07
7.2931295e-07
7.2375751e-07
7.2738213e-07
7.3659493e-07
7.4974134e-07
7.6314678e-07
7.7774704e-07
7.9052339e-07
7.9967447e-07
8.0268563e-07
8.0191792e-07
8.0053155e-07
7.9624322e-07
7.9285913e-07
7.8757554e-07
7.8339128e-07
7.8025607e-07
7.7717467e-07
7.7534207e-07
7.726787e-07
7.7268227e-07
7.7348696e-07
7.7605931e-07
7.8168387e-07
7.9245369e-07
8.1054082e-07
8.2688659e-07
8.5001143e-07
8.6445936e-07
8.8070117e-07
8.8632269e-07
8.9817606e-07
9.0437928e-07
9.1743721e-07
9.3035795e-07
9.4362841e-07
9.7677151e-07
8.7629788e-07
8.9044241e-07
8.4087431e-07
8.5866983e-07
8.8373953e-07
8.8032783e-07
8.4817011e-07
8.0934937e-07
7.8547142e-07
7.8386373e-07
7.9851396e-07
8.1768677e-07
8.3032852e-07
8.3024635e-07
8.1696241e-07
7.9418914e-07
7.6857355e-07
7.4559904e-07
7.3020308e-07
7.2369252e-07
7.2633798e-07
7.3486278e-07
7.4748652e-07
7.6067706e-07
7.7516453e-07
7.8821964e-07
7.9912735e-07
8.0346852e-07
8.0271963e-07
8.0195288e-07
7.9680969e-07
7.9379554e-07
7.8756778e-07
7.8479909e-07
7.8029535e-07
7.7890381e-07
7.7638894e-07
7.7616618e-07
7.7627237e-07
7.7679802e-07
7.7752592e-07
7.7982007e-07
7.8199405e-07
7.8781687e-07
7.9308418e-07
8.0489268e-07
8.1623258e-07
8.4113437e-07
8.5955971e-07
8.8301735e-07
8.9694518e-07
9.0947361e-07
9.2361916e-07
9.3325961e-07
9.5599923e-07
8.7595309e-07
8.9041163e-07
8.401571e-07
8.5737476e-07
8.8295091e-07
8.8067211e-07
8.4930495e-07
8.1033717e-07
7.8557571e-07
7.829388e-07
7.9699318e-07
8.1629159e-07
8.2975823e-07
8.3081211e-07
8.1857387e-07
7.9647125e-07
7.7088379e-07
7.4738728e-07
7.3108503e-07
7.2355813e-07
7.2519356e-07
7.3304914e-07
7.4518681e-07
7.5820511e-07
7.7244869e-07
7.8559702e-07
7.9696017e-07
8.0189499e-07
8.0216435e-07
8.0184467e-07
7.9733485e-07
7.9449991e-07
7.880911e-07
7.8504117e-07
7.7943293e-07
7.781178e-07
7.7471246e-07
7.7371194e-07
7.7376419e-07
7.7469348e-07
7.7562444e-07
7.7839299e-07
7.8001777e-07
7.844195e-07
7.871998e-07
7.9387941e-07
7.9882973e-07
8.0687843e-07
8.2131875e-07
8.3492267e-07
8.6163326e-07
8.765818e-07
9.0207259e-07
9.1324795e-07
9.3881597e-07
8.755852e-07
8.9013654e-07
8.3948315e-07
8.562385e-07
8.8228305e-07
8.8106852e-07
8.5046848e-07
8.1136786e-07
7.857508e-07
7.8205862e-07
7.9553373e-07
8.149042e-07
8.2917097e-07
8.3131223e-07
8.2013967e-07
7.9869991e-07
7.7318892e-07
7.4924354e-07
7.3208251e-07
7.2352973e-07
7.241587e-07
7.3133018e-07
7.4295631e-07
7.5583518e-07
7.6988967e-07
7.8328947e-07
7.9570653e-07
8.0197108e-07
8.025059e-07
8.0233589e-07
7.9841099e-07
7.9509264e-07
7.8932888e-07
7.8591678e-07
7.8044911e-07
7.7827044e-07
7.7531097e-07
7.737952e-07
7.7220561e-07
7.7261009e-07
7.730372e-07
7.7474288e-07
7.7685558e-07
7.794803e-07
7.836703e-07
7.8729706e-07
7.9365583e-07
7.9808337e-07
8.0743109e-07
8.1426045e-07
8.2944627e-07
8.3934837e-07
8.6022061e-07
8.7189103e-07
9.0196105e-07
8.7519073e-07
8.9015772e-07
8.3899534e-07
8.5528689e-07
8.8175606e-07
8.8153652e-07
8.5166356e-07
8.1244528e-07
7.8598893e-07
7.812752e-07
7.9412786e-07
8.1352852e-07
8.2854735e-07
8.3173957e-07
8.2164994e-07
8.0091314e-07
7.755031e-07
7.512786e-07
7.3316623e-07
7.2372539e-07
7.2320175e-07
7.2973485e-07
7.4078859e-07
7.5355541e-07
7.6723413e-07
7.807962e-07
7.9339677e-07
8.0095466e-07
8.0244076e-07
8.0220172e-07
7.9917119e-07
7.9524572e-07
7.9022106e-07
7.8576082e-07
7.8093456e-07
7.7733594e-07
7.7444311e-07
7.7274639e-07
7.7073525e-07
7.7037372e-07
7.7063036e-07
7.712882e-07
7.7301125e-07
7.7478403e-07
7.7853964e-07
7.8136217e-07
7.8722235e-07
7.9097639e-07
7.9905229e-07
8.0407696e-07
8.1473327e-07
8.2138895e-07
8.3542888e-07
8.4415581e-07
8.6702525e-07
8.7473355e-07
8.8973897e-07
8.384148e-07
8.5431617e-07
8.8117276e-07
8.8192278e-07
8.5279983e-07
8.1352378e-07
7.8630301e-07
7.8061003e-07
7.9283048e-07
8.1222047e-07
8.2790798e-07
8.321307e-07
8.2310852e-07
8.0314492e-07
7.778694e-07
7.5336836e-07
7.344466e-07
7.240034e-07
7.2246116e-07
7.2820209e-07
7.3860947e-07
7.5119633e-07
7.6455203e-07
7.7822761e-07
7.9116446e-07
8.0021845e-07
8.0244831e-07
8.0214303e-07
7.9994082e-07
7.9584854e-07
7.9107733e-07
7.863125e-07
7.8192042e-07
7.7776807e-07
7.7464838e-07
7.7247713e-07
7.7073978e-07
7.6898416e-07
7.6905005e-07
7.6931818e-07
7.7030345e-07
7.7152074e-07
7.7440601e-07
7.7651568e-07
7.8122121e-07
7.8436609e-07
7.9099943e-07
7.9509992e-07
8.0400048e-07
8.0922947e-07
8.2040215e-07
8.2677008e-07
8.4298782e-07
8.7417272e-07
8.8939314e-07
8.3789397e-07
8.5345451e-07
8.8070373e-07
8.8237797e-07
8.5396964e-07
8.1465192e-07
7.8669968e-07
7.8005124e-07
7.9161398e-07
8.1097452e-07
8.2724634e-07
8.3250959e-07
8.2450736e-07
8.0538681e-07
7.8030789e-07
7.5551891e-07
7.3584002e-07
7.2438944e-07
7.2183399e-07
7.2675871e-07
7.3660467e-07
7.4889812e-07
7.6199227e-07
7.756285e-07
7.8876389e-07
7.9915715e-07
8.0245747e-07
8.0222887e-07
8.0040591e-07
7.9638214e-07
7.9173092e-07
7.8669083e-07
7.8215821e-07
7.7769122e-07
7.7419767e-07
7.7132681e-07
7.698874e-07
7.6804866e-07
7.6705975e-07
7.6732582e-07
7.6770218e-07
7.686024e-07
7.7072463e-07
7.724916e-07
7.7624977e-07
7.7876666e-07
7.8414576e-07
7.8769609e-07
7.9492852e-07
7.9932772e-07
8.0836209e-07
8.1366338e-07
8.2633576e-07
8.737401e-07
8.8899574e-07
8.3745687e-07
8.5269008e-07
8.8027003e-07
8.8281631e-07
8.5512151e-07
8.1579925e-07
7.8715376e-07
7.7957264e-07
7.9044936e-07
8.0976074e-07
8.2658167e-07
8.3284644e-07
8.2592176e-07
8.0757571e-07
7.8278621e-07
7.5772015e-07
7.3729692e-07
7.2487995e-07
7.2132735e-07
7.2538382e-07
7.346372e-07
7.466055e-07
7.5945725e-07
7.7300931e-07
7.86245e-07
7.975335e-07
8.0206726e-07
8.0206816e-07
8.0064927e-07
7.9701494e-07
7.9259411e-07
7.8741765e-07
7.8285496e-07
7.7849582e-07
7.7476291e-07
7.7143156e-07
7.6934432e-07
7.6771802e-07
7.6616026e-07
7.6562919e-07
7.6584762e-07
7.6628236e-07
7.6772778e-07
7.6901454e-07
7.7194198e-07
7.7395957e-07
7.7847457e-07
7.8117574e-07
7.8731152e-07
7.9087456e-07
7.9854857e-07
8.0308673e-07
8.1310607e-07
8.7327259e-07
8.8900782e-07
8.372186e-07
8.5210227e-07
8.7999965e-07
8.8338633e-07
8.5637967e-07
8.1704873e-07
7.8771702e-07
7.7922215e-07
7.8938985e-07
8.0859219e-07
8.2591225e-07
8.3311098e-07
8.2723863e-07
8.0971678e-07
7.8525181e-07
7.6002423e-07
7.389558e-07
7.2557984e-07
7.2101842e-07
7.2418742e-07
7.3276501e-07
7.4442412e-07
7.5703924e-07
7.7047875e-07
7.8370031e-07
7.9568497e-07
8.0174402e-07
8.0192046e-07
8.009416e-07
7.976773e-07
7.9337789e-07
7.8822669e-07
7.8340459e-07
7.7880005e-07
7.7481882e-07
7.7121308e-07
7.685667e-07
7.6675966e-07
7.6547529e-07
7.6401775e-07
7.6403586e-07
7.6427625e-07
7.6501754e-07
7.660167e-07
7.6823624e-07
7.6995702e-07
7.734726e-07
7.7590989e-07
7.8079309e-07
7.8387749e-07
7.9035363e-07
7.9387776e-07
8.0231845e-07
8.7307584e-07
8.8929861e-07
8.3714066e-07
8.5162129e-07
8.7976755e-07
8.839212e-07
8.5756855e-07
8.1825146e-07
7.882976e-07
7.7893373e-07
7.8842071e-07
8.0748981e-07
8.2521901e-07
8.3334512e-07
8.2844834e-07
8.1180667e-07
7.877368e-07
7.6237141e-07
7.407239e-07
7.2643692e-07
7.2084995e-07
7.2312877e-07
7.3100495e-07
7.4225821e-07
7.5463836e-07
7.6792703e-07
7.8110964e-07
7.9356085e-07
8.0111766e-07
8.0168588e-07
8.0116403e-07
7.9837611e-07
7.9436007e-07
7.8928554e-07
7.8433443e-07
7.7957735e-07
7.755603e-07
7.7172176e-07
7.6878114e-07
7.6617844e-07
7.6488715e-07
7.6341855e-07
7.6244735e-07
7.6255525e-07
7.6288195e-07
7.6349459e-07
7.6513466e-07
7.6642382e-07
7.6936548e-07
7.712939e-07
7.7538541e-07
7.7794572e-07
7.8326755e-07
7.863515e-07
7.9362528e-07
8.7270102e-07
8.8976035e-07
8.3716326e-07
8.5125449e-07
8.7968799e-07
8.8463013e-07
8.5893186e-07
8.1961864e-07
7.8903652e-07
7.78776e-07
7.8754418e-07
8.0643549e-07
8.2451021e-07
8.3350701e-07
8.2960487e-07
8.1383763e-07
7.9028004e-07
7.6483944e-07
7.4262352e-07
7.274574e-07
7.2082424e-07
7.2217397e-07
7.2938314e-07
7.4021087e-07
7.5235027e-07
7.6549714e-07
7.7858435e-07
7.9127879e-07
8.0014354e-07
8.016229e-07
8.0125459e-07
7.9889875e-07
7.9519478e-07
7.9023495e-07
7.8525875e-07
7.8026233e-07
7.7599855e-07
7.7199985e-07
7.6876009e-07
7.6578334e-07
7.639638e-07
7.6268805e-07
7.6142206e-07
7.6087151e-07
7.6100579e-07
7.6137494e-07
7.623867e-07
7.6341135e-07
7.6573422e-07
7.6725496e-07
7.7074264e-07
7.7276312e-07
7.773297e-07
7.8004035e-07
7.8562412e-07
8.7272319e-07
8.9076711e-07
8.3744693e-07
8.5104374e-07
8.7963814e-07
8.8526084e-07
8.6017495e-07
8.2088322e-07
7.8972786e-07
7.7861056e-07
7.8668831e-07
8.0537441e-07
8.2381482e-07
8.3363355e-07
8.3075251e-07
8.1582607e-07
7.9276127e-07
7.6729597e-07
7.4456125e-07
7.2852834e-07
7.2089934e-07
7.2130174e-07
7.2777312e-07
7.3816547e-07
7.5005325e-07
7.6299852e-07
7.7599893e-07
7.8881789e-07
7.987149e-07
8.0156486e-07
8.0128169e-07
7.9944418e-07
7.9612939e-07
7.9132717e-07
7.8637951e-07
7.8124602e-07
7.7673171e-07
7.7265459e-07
7.6917723e-07
7.6596995e-07
7.6358299e-07
7.6192303e-07
7.6090838e-07
7.5959379e-07
7.5946625e-07
7.5956628e-07
7.6012758e-07
7.6087577e-07
7.6257468e-07
7.640016e-07
7.6664586e-07
7.685267e-07
7.7241102e-07
7.7441786e-07
7.79284e-07
8.7242714e-07
8.9160577e-07
8.3770837e-07
8.5087707e-07
8.7973088e-07
8.8609852e-07
8.616577e-07
8.2238246e-07
7.9062857e-07
7.7861836e-07
7.8596115e-07
8.0438685e-07
8.2311059e-07
8.3371093e-07
8.3182077e-07
8.1781473e-07
7.9530184e-07
7.6986411e-07
7.466697e-07
7.2980178e-07
7.2117303e-07
7.2063149e-07
7.263357e-07
7.362498e-07
7.4789242e-07
7.605513e-07
7.7345242e-07
7.8630171e-07
7.9701859e-07
8.0145573e-07
8.0143624e-07
7.9996077e-07
7.9710711e-07
7.9257122e-07
7.8764179e-07
7.8243652e-07
7.7763027e-07
7.7328286e-07
7.6968438e-07
7.6617256e-07
7.6352592e-07
7.6125491e-07
7.6012697e-07
7.5894981e-07
7.5797367e-07
7.5799653e-07
7.5817759e-07
7.5865425e-07
7.599264e-07
7.6085525e-07
7.6321992e-07
7.647372e-07
7.6776464e-07
7.6981192e-07
7.7385892e-07
8.7277605e-07
8.9343496e-07
8.3841741e-07
8.5096791e-07
8.7990019e-07
8.8685775e-07
8.6296817e-07
8.2370945e-07
7.914102e-07
7.7858899e-07
7.8524545e-07
8.0344461e-07
8.2243877e-07
8.3379754e-07
8.3284448e-07
8.1969322e-07
7.9774816e-07
7.7236599e-07
7.4874967e-07
7.3111841e-07
7.2149822e-07
7.200084e-07
7.2493172e-07
7.3435996e-07
7.4573042e-07
7.5807807e-07
7.7088488e-07
7.8366479e-07
7.9506114e-07
8.0126141e-07
8.0163548e-07
8.0040681e-07
7.9802246e-07
7.9379509e-07
7.890082e-07
7.8375433e-07
7.7877708e-07
7.7414169e-07
7.7037293e-07
7.6670202e-07
7.6376614e-07
7.6111579e-07
7.5944675e-07
7.5827659e-07
7.5725133e-07
7.5650777e-07
7.5666212e-07
7.5691113e-07
7.5760425e-07
7.5847266e-07
7.6022709e-07
7.614146e-07
7.6417875e-07
7.6606829e-07
7.6891524e-07
8.7261001e-07
8.9454172e-07
8.388843e-07
8.5097941e-07
8.8011724e-07
8.8777186e-07
8.6450199e-07
8.2529089e-07
7.9245767e-07
7.7878962e-07
7.847071e-07
8.0259713e-07
8.2178842e-07
8.3382467e-07
8.3383936e-07
8.2162035e-07
8.003339e-07
7.7506613e-07
7.510352e-07
7.3262985e-07
7.2202077e-07
7.1954671e-07
7.2364222e-07
7.3259122e-07
7.4362115e-07
7.5568107e-07
7.6845082e-07
7.8113754e-07
7.9298137e-07
8.0097553e-07
8.0194176e-07
8.0104043e-07
7.9895133e-07
7.9505994e-07
7.9045571e-07
7.8516835e-07
7.8010803e-07
7.7519684e-07
7.7108317e-07
7.6734036e-07
7.6412037e-07
7.612828e-07
7.5912025e-07
7.5757366e-07
7.5670627e-07
7.5556033e-07
7.5525686e-07
7.553408e-07
7.5569217e-07
7.5631357e-07
7.5749854e-07
7.5854036e-07
7.610348e-07
7.6213039e-07
7.6493235e-07
8.7303323e-07
8.962485e-07
8.3967639e-07
8.5126053e-07
8.804502e-07
8.8860806e-07
8.6581571e-07
8.2663453e-07
7.9330314e-07
7.788773e-07
7.8415465e-07
8.0178745e-07
8.2121523e-07
8.33891e-07
8.3479093e-07
8.234189e-07
8.0270404e-07
7.7757009e-07
7.5325003e-07
7.3414195e-07
7.2261215e-07
7.1917065e-07
7.2243756e-07
7.3078877e-07
7.4149722e-07
7.5323618e-07
7.6595203e-07
7.7859466e-07
7.9068107e-07
8.000977e-07
8.0230657e-07
8.01556e-07
7.9967943e-07
7.9618345e-07
7.9179205e-07
7.8659317e-07
7.8143924e-07
7.7637314e-07
7.7199676e-07
7.679961e-07
7.6466084e-07
7.6148581e-07
7.5915539e-07
7.5701865e-07
7.5593132e-07
7.5508335e-07
7.5417131e-07
7.5404442e-07
7.5428562e-07
7.544956e-07
7.5545562e-07
7.5632899e-07
7.5807256e-07
7.5932323e-07
7.6164973e-07
8.7276233e-07
8.9719257e-07
8.4025474e-07
8.5148061e-07
8.8081454e-07
8.8956504e-07
8.6733336e-07
8.2826353e-07
7.9445673e-07
7.7928693e-07
7.8387283e-07
8.0113365e-07
8.2068561e-07
8.3394314e-07
8.3577554e-07
8.2537436e-07
8.053349e-07
7.8034794e-07
7.5571224e-07
7.3589026e-07
7.23398e-07
7.1892824e-07
7.2140413e-07
7.2913989e-07
7.3952522e-07
7.5097308e-07
7.6353228e-07
7.7610389e-07
7.8829068e-07
7.9878214e-07
8.0284273e-07
8.0211367e-07
8.0049882e-07
7.9720653e-07
7.9308028e-07
7.8803159e-07
7.8270212e-07
7.7745769e-07
7.7283421e-07
7.6855066e-07
7.650526e-07
7.6172869e-07
7.5915748e-07
7.5677502e-07
7.5517545e-07
7.5424097e-07
7.535037e-07
7.5273265e-07
7.5272893e-07
7.5299106e-07
7.5343148e-07
7.5407675e-07
7.55476e-07
7.5666613e-07
7.5826171e-07
8.7295008e-07
8.9804059e-07
8.4076263e-07
8.5180472e-07
8.8125064e-07
8.9042947e-07
8.6857916e-07
8.2957003e-07
7.9530159e-07
7.7947183e-07
7.8349666e-07
8.0051713e-07
8.2025492e-07
8.340716e-07
8.3667456e-07
8.2706552e-07
8.0761619e-07
7.8281117e-07
7.5795719e-07
7.375703e-07
7.2417934e-07
7.1873339e-07
7.2035368e-07
7.2741701e-07
7.3745079e-07
7.4863912e-07
7.6098611e-07
7.7350489e-07
7.8562387e-07
7.9668315e-07
8.0257249e-07
8.0193589e-07
8.0054653e-07
7.9742031e-07
7.9339358e-07
7.8852217e-07
7.8323727e-07
7.7787704e-07
7.7310673e-07
7.6862889e-07
7.6476061e-07
7.6137219e-07
7.5853726e-07
7.5616984e-07
7.5419843e-07
7.5290077e-07
7.5239648e-07
7.5150087e-07
7.5120174e-07
7.5137013e-07
7.5165144e-07
7.5210881e-07
7.5343128e-07
7.5411786e-07
7.5584644e-07
8.7258151e-07
8.9903103e-07
8.4157522e-07
8.5245436e-07
8.8200638e-07
8.9159101e-07
8.7016036e-07
8.312404e-07
7.9656824e-07
7.8006058e-07
7.8341775e-07
8.0001525e-07
8.1978104e-07
8.3408248e-07
8.3754872e-07
8.2889806e-07
8.1014904e-07
7.8554646e-07
7.6043821e-07
7.3939279e-07
7.2504766e-07
7.1856932e-07
7.1929881e-07
7.2564046e-07
7.3525478e-07
7.4614392e-07
7.5811846e-07
7.7049053e-07
7.8248937e-07
7.937516e-07
8.0095389e-07
8.008945e-07
7.9943831e-07
7.9668408e-07
7.9269136e-07
7.8804676e-07
7.8276501e-07
7.7724129e-07
7.7221931e-07
7.6766018e-07
7.6356989e-07
7.5990147e-07
7.5704976e-07
7.5435172e-07
7.5242705e-07
7.5078915e-07
7.4980282e-07
7.4938603e-07
7.4888769e-07
7.4870691e-07
7.4902265e-07
7.4944218e-07
7.5005271e-07
7.5077923e-07
7.5185964e-07
8.7261261e-07
8.9940562e-07
8.4205804e-07
8.5312825e-07
8.8288326e-07
8.9265131e-07
8.713954e-07
8.3238485e-07
7.9732028e-07
7.802145e-07
7.8299512e-07
7.993245e-07
8.1919136e-07
8.3387925e-07
8.3790688e-07
8.2994824e-07
8.1178573e-07
7.8741336e-07
7.6219557e-07
7.4065293e-07
7.2544744e-07
7.1793949e-07
7.1761103e-07
7.2310812e-07
7.3219608e-07
7.42651e-07
7.5417546e-07
7.6613169e-07
7.7763544e-07
7.8858761e-07
7.9606878e-07
7.9655195e-07
7.9514515e-07
7.9268918e-07
7.8900229e-07
7.847233e-07
7.7985875e-07
7.745993e-07
7.6945808e-07
7.6479823e-07
7.6055777e-07
7.5669136e-07
7.5357699e-07
7.5087389e-07
7.4865625e-07
7.4687414e-07
7.45506e-07
7.4480858e-07
7.4460657e-07
7.4434207e-07
7.4444374e-07
7.4506777e-07
7.457131e-07
7.465573e-07
7.4759394e-07
8.7219829e-07
9.0046689e-07
8.4323898e-07
8.5456565e-07
8.8446135e-07
8.9421609e-07
8.7309791e-07
8.3379139e-07
7.9810099e-07
7.7998313e-07
7.8184098e-07
7.9769001e-07
8.1757466e-07
8.3266012e-07
8.3733605e-07
8.3011322e-07
8.1247844e-07
7.8808558e-07
7.6265969e-07
7.4043067e-07
7.2426515e-07
7.1566576e-07
7.1418637e-07
7.1899177e-07
7.2739158e-07
7.370854e-07
7.4830703e-07
7.5982789e-07
7.7064137e-07
7.8089549e-07
7.8825819e-07
7.900832e-07
7.8872325e-07
7.8723414e-07
7.8517667e-07
7.8213565e-07
7.7856037e-07
7.7460792e-07
7.705213e-07
7.6662151e-07
7.6260582e-07
7.5858773e-07
7.5509279e-07
7.5205782e-07
7.4940801e-07
7.469891e-07
7.4481115e-07
7.4302713e-07
7.4190492e-07
7.4072681e-07
7.4034147e-07
7.3979382e-07
7.3984945e-07
7.3992379e-07
7.4014534e-07
8.7231263e-07
9.0058147e-07
8.4361983e-07
8.5474723e-07
8.8493765e-07
8.9451037e-07
8.7334355e-07
8.3309918e-07
7.9594868e-07
7.7576184e-07
7.7651329e-07
7.9259521e-07
8.1426901e-07
8.3199346e-07
8.3871529e-07
8.3155098e-07
8.1243333e-07
7.8632855e-07
7.6038028e-07
7.3788237e-07
7.2177159e-07
7.1369368e-07
7.1373987e-07
7.1996565e-07
7.2739595e-07
7.3858e-07
7.5486507e-07
7.6888748e-07
7.812505e-07
7.9185146e-07
7.9934904e-07
8.0526296e-07
8.0790902e-07
8.0709685e-07
8.0881409e-07
8.1018083e-07
8.1137976e-07
8.129733e-07
8.1435231e-07
8.1529033e-07
8.1501991e-07
8.1334994e-07
8.111429e-07
8.0884377e-07
8.0608991e-07
8.0345037e-07
7.9929898e-07
7.9593835e-07
7.9128734e-07
7.879849e-07
7.8374158e-07
7.8149021e-07
7.7644827e-07
7.741928e-07
7.6639641e-07
8.7307299e-07
9.0269024e-07
8.4510996e-07
8.5264062e-07
8.8560401e-07
9.0096988e-07
8.8121114e-07
8.360717e-07
7.9444615e-07
7.7235772e-07
7.8151591e-07
8.0612523e-07
8.3725324e-07
8.6774466e-07
8.9762763e-07
9.073383e-07
8.718195e-07
8.33129e-07
8.0110881e-07
7.8179807e-07
7.7899569e-07
7.8354545e-07
7.8771152e-07
8.0087365e-07
8.3468736e-07
8.7196027e-07
9.0509746e-07
9.3473158e-07
9.5657792e-07
9.7335103e-07
9.8849926e-07
9.9948504e-07
1.0066014e-06
1.011322e-06
1.015793e-06
1.0219621e-06
1.032746e-06
1.0510067e-06
1.0701682e-06
1.0861699e-06
1.1007245e-06
1.1136521e-06
1.122126e-06
1.1267282e-06
1.1280193e-06
1.1290047e-06
1.1305092e-06
1.1300994e-06
1.1255931e-06
1.1195324e-06
1.111776e-06
1.1068927e-06
1.0944742e-06
1.0864583e-06
1.0544918e-06
8.6664798e-07
9.005407e-07
8.4486795e-07
8.5003199e-07
9.0470572e-07
9.9107521e-07
1.0503443e-06
9.940002e-07
9.7194343e-07
9.8978575e-07
1.0143189e-06
1.1089501e-06
1.2150335e-06
1.2611861e-06
1.2765946e-06
1.3098762e-06
1.2831476e-06
1.2236602e-06
1.1918516e-06
1.1831637e-06
1.1846818e-06
1.1962903e-06
1.232072e-06
1.3060813e-06
1.3807141e-06
1.4452379e-06
1.4973227e-06
1.541761e-06
1.5749546e-06
1.5974387e-06
1.615534e-06
1.6282903e-06
1.6352021e-06
1.6394023e-06
1.6455896e-06
1.6626146e-06
1.6811963e-06
1.7159526e-06
1.7522086e-06
1.7989706e-06
1.8360381e-06
1.8726803e-06
1.904997e-06
1.9346749e-06
1.9645123e-06
1.995054e-06
2.0147495e-06
2.0291497e-06
2.0322814e-06
2.0352052e-06
2.0369985e-06
2.037483e-06
2.035803e-06
2.0316221e-06
1.9966926e-06
6.1870823e-07
8.8601355e-07
9.1139208e-07
9.5652774e-07
1.1823139e-06
1.4994802e-06
1.5947291e-06
1.6678252e-06
1.7052331e-06
1.7532654e-06
1.8413607e-06
1.981532e-06
2.0865417e-06
2.1428431e-06
2.153427e-06
2.1571086e-06
2.1186399e-06
2.082669e-06
2.0779057e-06
2.0820518e-06
2.0995824e-06
2.1487863e-06
2.2356167e-06
2.3236446e-06
2.4039149e-06
2.4748886e-06
2.5297197e-06
2.5794077e-06
2.6264148e-06
2.6576298e-06
2.6882557e-06
2.7208102e-06
2.7518678e-06
2.769094e-06
2.785263e-06
2.8276365e-06
2.8498761e-06
2.897863e-06
2.922233e-06
2.9900846e-06
3.0247996e-06
3.09376e-06
3.1431149e-06
3.168395e-06
3.2112534e-06
3.2846055e-06
3.314994e-06
3.2972948e-06
3.406999e-06
3.4213532e-06
3.3698189e-06
3.4665128e-06
3.4672695e-06
3.3792541e-06
3.4709641e-06
4.0501868e-07
9.0938336e-07
1.0479031e-06
1.0589082e-06
1.125382e-06
1.2061712e-06
1.2912206e-06
1.3069222e-06
1.3631647e-06
1.3695624e-06
1.3858429e-06
1.4048791e-06
1.4357454e-06
1.4796851e-06
1.5143743e-06
1.5735883e-06
1.5961464e-06
1.636163e-06
1.6548466e-06
1.669298e-06
1.6845424e-06
1.7182933e-06
1.7561585e-06
1.7992461e-06
1.8335293e-06
1.8668176e-06
1.8897068e-06
1.910322e-06
1.9298182e-06
1.9482786e-06
1.9656702e-06
1.9829042e-06
2.0000295e-06
2.0169007e-06
2.0332774e-06
2.0546158e-06
2.0596169e-06
2.098963e-06
2.0861496e-06
2.1457611e-06
2.1202829e-06
2.1679979e-06
2.2206133e-06
2.1577184e-06
2.2669388e-06
2.2161794e-06
2.2707705e-06
2.3616481e-06
2.2796714e-06
2.3322971e-06
2.4377051e-06
2.3698347e-06
2.3674104e-06
2.5288649e-06
2.4267901e-06
2.4049586e-06
3.4856846e-06
2.067252e-06
1.0990087e-06
7.7817105e-07
7.4204654e-07
7.4834878e-07
7.5299396e-07
7.5735618e-07
7.6008895e-07
7.6365179e-07
7.6712268e-07
7.7172236e-07
7.7628557e-07
7.8228732e-07
7.8870823e-07
7.9651502e-07
8.0587326e-07
8.1702587e-07
8.3060464e-07
8.479778e-07
8.7026591e-07
9.0247162e-07
9.4241774e-07
9.631928e-07
9.8583158e-07
1.0167552e-06
2.5336218e-06
3.5330665e-06
2.203804e-06
1.194825e-06
8.0146363e-07
7.4522109e-07
7.4992655e-07
7.5469361e-07
7.5904325e-07
7.6209344e-07
7.6603056e-07
7.6976049e-07
7.7450401e-07
7.7960337e-07
7.8565037e-07
7.9248355e-07
8.0046723e-07
8.0983075e-07
8.2110011e-07
8.3391203e-07
8.5030424e-07
8.7155848e-07
9.028631e-07
9.4372272e-07
9.6679174e-07
9.905136e-07
1.018099e-06
2.2723721e-06
3.4907714e-06
2.215687e-06
1.236108e-06
8.1493706e-07
7.4763781e-07
7.5105496e-07
7.5610747e-07
7.6103383e-07
7.6447987e-07
7.6850939e-07
7.7241324e-07
7.7746215e-07
7.8260079e-07
7.8894089e-07
7.9601133e-07
8.0426278e-07
8.1357728e-07
8.2493867e-07
8.3853461e-07
8.5509609e-07
8.7534101e-07
9.0537251e-07
9.474431e-07
9.7352698e-07
9.9893453e-07
1.0246497e-06
2.2016806e-06
3.4806413e-06
2.2403365e-06
1.2793486e-06
8.3580234e-07
7.5198602e-07
7.5301932e-07
7.5889078e-07
7.6454882e-07
7.6863536e-07
7.7284322e-07
7.7668637e-07
7.8178778e-07
7.8698994e-07
7.9315676e-07
8.001853e-07
8.0855081e-07
8.1822856e-07
8.293083e-07
8.4237019e-07
8.5775525e-07
8.7745073e-07
9.0630543e-07
9.4985245e-07
9.783418e-07
1.0064884e-06
1.0337224e-06
2.4773537e-06
3.4807972e-06
2.3581332e-06
1.3894951e-06
8.8990503e-07
7.6504631e-07
7.5848279e-07
7.6439314e-07
7.688143e-07
7.7350474e-07
7.7797384e-07
7.8196786e-07
7.8705871e-07
7.9267074e-07
7.9891137e-07
8.057328e-07
8.1401162e-07
8.2349688e-07
8.3530709e-07
8.4843065e-07
8.6487154e-07
8.8264034e-07
9.0882762e-07
9.5331364e-07
9.8318543e-07
1.0122648e-06
1.0426584e-06
2.3757063e-06
3.4277925e-06
2.5843925e-06
1.6240062e-06
8.7949536e-07
7.2274648e-07
7.6421627e-07
7.6820197e-07
7.7183021e-07
7.7658266e-07
7.8140887e-07
7.8571131e-07
7.9103822e-07
7.9694392e-07
8.0412647e-07
8.1157431e-07
8.1996692e-07
8.2960754e-07
8.4086688e-07
8.5402475e-07
8.6942522e-07
8.8694996e-07
9.1101161e-07
9.564554e-07
9.9034693e-07
1.0190028e-06
1.053903e-06
2.24048e-06
3.2164279e-06
2.6754665e-06
1.5300284e-06
8.5544088e-07
6.5874218e-07
7.6598255e-07
7.6950935e-07
7.7325557e-07
7.7835435e-07
7.8365872e-07
7.8823924e-07
7.9380645e-07
8.0004122e-07
8.0759135e-07
8.1629127e-07
8.2542464e-07
8.3587054e-07
8.4750027e-07
8.6117939e-07
8.7616301e-07
8.9223734e-07
9.1354319e-07
9.574222e-07
9.942762e-07
1.0249546e-06
1.0635056e-06
2.1178514e-06
3.1629365e-06
2.6655891e-06
1.3140742e-06
9.0801954e-07
6.5076693e-07
7.6649999e-07
7.7090604e-07
7.7510295e-07
7.8159466e-07
7.8733819e-07
7.9246163e-07
7.9852849e-07
8.0516483e-07
8.1243863e-07
8.2111845e-07
8.3058661e-07
8.4119878e-07
8.5301766e-07
8.667894e-07
8.8364311e-07
9.0005991e-07
9.1920341e-07
9.5980839e-07
1.0006294e-06
1.0308551e-06
1.0725802e-06
1.8518364e-06
3.0883785e-06
2.5609076e-06
1.6346072e-06
9.8218649e-07
7.2110231e-07
7.0427053e-07
7.7457881e-07
7.7976703e-07
7.8981179e-07
7.9639028e-07
8.0206728e-07
8.0829115e-07
8.1472483e-07
8.2137943e-07
8.2934845e-07
8.3883063e-07
8.4967167e-07
8.6146736e-07
8.7444908e-07
8.9062879e-07
9.073368e-07
9.242392e-07
9.6110758e-07
1.0028853e-06
1.0331538e-06
1.0804735e-06
1.7465049e-06
3.0804685e-06
2.5202181e-06
1.6486167e-06
8.8418749e-07
6.763643e-07
5.8890189e-07
7.3753568e-07
7.9256718e-07
8.0218138e-07
8.0898372e-07
8.140437e-07
8.1949114e-07
8.2576506e-07
8.325027e-07
8.3980645e-07
8.4809663e-07
8.5808232e-07
8.7011487e-07
8.8348898e-07
9.0000708e-07
9.1742657e-07
9.3322419e-07
9.6609709e-07
1.0086993e-06
1.038434e-06
1.0876286e-06
1.3940463e-06
2.8748558e-06
2.5137108e-06
1.7941621e-06
8.3915961e-07
6.2564204e-07
5.3695158e-07
6.6657658e-07
8.0324179e-07
8.0918559e-07
8.1593493e-07
8.2160407e-07
8.2701015e-07
8.3383407e-07
8.4114935e-07
8.4937005e-07
8.5836204e-07
8.6826472e-07
8.8007361e-07
8.9294721e-07
9.0833883e-07
9.2576832e-07
9.4027705e-07
9.6923451e-07
1.0124687e-06
1.0416637e-06
1.0939311e-06
1.2440756e-06
2.3723336e-06
2.5626446e-06
1.8015676e-06
9.5183257e-07
5.6711567e-07
5.1266222e-07
6.2416696e-07
8.0666824e-07
8.1136957e-07
8.1837546e-07
8.2468538e-07
8.3066868e-07
8.3800294e-07
8.4578293e-07
8.5460729e-07
8.6406696e-07
8.7468816e-07
8.8704269e-07
9.0054993e-07
9.1684222e-07
9.3517915e-07
9.4832961e-07
9.7369371e-07
1.0163683e-06
1.0427359e-06
1.0970269e-06
1.3923852e-06
2.3382146e-06
2.5834167e-06
1.6976597e-06
1.0660979e-06
5.6188618e-07
5.471191e-07
6.0227504e-07
8.0776002e-07
8.1329623e-07
8.2128624e-07
8.2806646e-07
8.345005e-07
8.4201436e-07
8.500343e-07
8.595628e-07
8.7018846e-07
8.8135709e-07
8.9386124e-07
9.0767396e-07
9.2457445e-07
9.4478745e-07
9.5906159e-07
9.8029321e-07
1.025083e-06
1.0466697e-06
1.0996597e-06
1.0269402e-06
2.4342079e-06
2.5781055e-06
1.9490403e-06
9.9568352e-07
5.9595882e-07
5.2533972e-07
5.4477257e-07
7.3347613e-07
8.1830223e-07
8.2802854e-07
8.3549956e-07
8.4234086e-07
8.5027265e-07
8.5885564e-07
8.6883921e-07
8.7947907e-07
8.9128491e-07
9.0400723e-07
9.1759672e-07
9.3293167e-07
9.5298831e-07
9.6813426e-07
9.848206e-07
1.0312356e-06
1.0502689e-06
1.1013848e-06
9.7284432e-07
2.3251107e-06
2.502494e-06
1.9369146e-06
9.0872462e-07
5.5732786e-07
4.3996985e-07
4.9998347e-07
6.1618004e-07
8.3408803e-07
8.4598211e-07
8.5405214e-07
8.600145e-07
8.6645224e-07
8.7362253e-07
8.8137222e-07
8.9108562e-07
9.015872e-07
9.134791e-07
9.2708374e-07
9.4171563e-07
9.6150199e-07
9.7705589e-07
9.9146681e-07
1.0360676e-06
1.0557581e-06
1.1019222e-06
8.313516e-07
1.3281452e-06
1.9024867e-06
1.6837851e-06
6.4655971e-07
4.9369089e-07
4.1749786e-07
4.9233108e-07
5.993402e-07
8.5034682e-07
8.6274079e-07
8.7018465e-07
8.7627089e-07
8.824217e-07
8.8938226e-07
8.9694327e-07
9.0605837e-07
9.1588611e-07
9.2730148e-07
9.4004817e-07
9.5341155e-07
9.7257067e-07
9.8823323e-07
1.0007141e-06
1.0415528e-06
1.0617063e-06
1.107089e-06
5.9858146e-07
1.6424708e-06
1.5383474e-06
1.0319281e-06
9.3725026e-07
5.3613114e-07
6.0136769e-07
5.8581527e-07
6.8490505e-07
8.5546215e-07
8.6682451e-07
8.7484127e-07
8.8250831e-07
8.8953268e-07
8.9774235e-07
9.0655132e-07
9.1619747e-07
9.2662108e-07
9.3814039e-07
9.5105369e-07
9.638141e-07
9.83013e-07
9.9940433e-07
1.0107493e-06
1.046688e-06
1.0682684e-06
1.1092479e-06
8.4764574e-07
1.7869343e-06
2.0794015e-06
1.4629396e-06
1.414396e-06
8.2846873e-07
6.6436032e-07
5.3275908e-07
5.8264522e-07
7.3403792e-07
8.7032747e-07
8.7895482e-07
8.8684926e-07
8.9409121e-07
9.0250281e-07
9.1166882e-07
9.2141628e-07
9.3184648e-07
9.4366871e-07
9.5646882e-07
9.6955382e-07
9.8897175e-07
1.0074944e-06
1.0187126e-06
1.0519153e-06
1.0737315e-06
1.1140766e-06
7.0856336e-07
1.3126943e-06
1.9289984e-06
1.557883e-06
5.2725067e-07
3.6079148e-07
2.9147443e-07
3.3165562e-07
4.1760046e-07
5.7808789e-07
7.9216711e-07
8.8982779e-07
8.9808751e-07
9.0536346e-07
9.1373625e-07
9.230627e-07
9.3267798e-07
9.4297441e-07
9.5485948e-07
9.6724268e-07
9.8038121e-07
9.9874654e-07
1.0183209e-06
1.0291164e-06
1.0587246e-06
1.081247e-06
1.1207229e-06
1.2663065e-06
1.4444674e-06
1.8337964e-06
9.1637829e-07
5.0833389e-07
3.4462697e-07
2.7460808e-07
3.0792139e-07
3.9542032e-07
5.6423601e-07
7.8433509e-07
8.9577237e-07
9.0484047e-07
9.1308766e-07
9.2230018e-07
9.3262697e-07
9.4363947e-07
9.5534524e-07
9.6853879e-07
9.8156928e-07
9.9416272e-07
1.0110156e-06
1.0312318e-06
1.041672e-06
1.0672256e-06
1.0886406e-06
1.12715e-06
6.4966459e-07
1.2918191e-06
1.1573422e-06
8.1073586e-07
5.2064461e-07
6.4200514e-07
7.5190733e-07
8.1750578e-07
7.781931e-07
8.2685222e-07
8.8956657e-07
9.0313196e-07
9.1397293e-07
9.2274931e-07
9.3153717e-07
9.4120911e-07
9.5134372e-07
9.6272637e-07
9.7544526e-07
9.8973182e-07
1.0031864e-06
1.0210339e-06
1.0425736e-06
1.0533907e-06
1.0779791e-06
1.0962951e-06
1.1348403e-06
1.0138547e-06
1.6033784e-06
1.7781672e-06
7.7631266e-07
9.1466296e-07
3.4288045e-07
3.9170131e-07
3.8617499e-07
4.678698e-07
6.2952986e-07
7.253482e-07
9.2616182e-07
9.379182e-07
9.4583429e-07
9.5306805e-07
9.6024604e-07
9.6845496e-07
9.7734352e-07
9.875209e-07
9.9963114e-07
1.0117475e-06
1.0284302e-06
1.0513969e-06
1.0628e-06
1.0867497e-06
1.1033638e-06
1.1417601e-06
5.6409869e-07
1.5492955e-06
1.5739969e-06
1.6597607e-06
5.1210023e-07
3.4719138e-07
2.0922979e-07
2.6080586e-07
2.7553958e-07
4.2275384e-07
5.5826319e-07
8.3014801e-07
9.5499125e-07
9.619609e-07
9.6842639e-07
9.7446519e-07