/*--------------------------------*- C++ -*----------------------------------*\
| =========                 |                                                 |
| \\      /  F ield         | OpenFOAM: The Open Source CFD Toolbox           |
|  \\    /   O peration     | Version:  2406                                  |
|   \\  /    A nd           | Website:  www.openfoam.com                      |
|    \\/     M anipulation  |                                                 |
\*---------------------------------------------------------------------------*/
FoamFile
{
    version     2.0;
    format      ascii;
    arch        "LSB;label=32;scalar=64";
    class       volScalarField;
    location    "17";
    object      nut;
}
// * * * * * * * * * * * * * * * * * * * * * * * * * * * * * * * * * * * * * //

dimensions      [0 2 -1 0 0 0 0];

internalField   nonuniform List<scalar> 
62344
(
1.0385121e-06
1.001125e-06
9.9479575e-07
1.0130694e-06
1.0302735e-06
1.0265035e-06
9.9794477e-07
9.6439661e-07
9.3544743e-07
9.2558633e-07
9.3316508e-07
9.4482387e-07
9.6321604e-07
9.7349713e-07
9.7271229e-07
9.6793038e-07
9.6722754e-07
9.5768062e-07
9.3086742e-07
9.3279723e-07
9.406321e-07
9.6589021e-07
9.8254857e-07
1.0132597e-06
1.0434375e-06
1.0707827e-06
1.1070088e-06
1.1520882e-06
1.1936813e-06
1.2566139e-06
1.3511898e-06
1.4556202e-06
1.6489305e-06
1.8223991e-06
2.0379526e-06
2.2403646e-06
2.5662138e-06
2.8935516e-06
3.4821459e-06
4.1808428e-06
5.0091684e-06
6.2979781e-06
7.3486254e-06
8.5986246e-06
8.9982443e-06
9.8474403e-06
1.0769635e-05
1.2412844e-05
1.450807e-05
1.9487482e-05
2.4391516e-05
3.200985e-05
4.105601e-05
5.021801e-05
6.8358185e-05
1.0385501e-06
1.001655e-06
9.9428646e-07
1.0125142e-06
1.0300867e-06
1.0285416e-06
1.0006821e-06
9.6405978e-07
9.3513311e-07
9.2375307e-07
9.2698132e-07
9.4017843e-07
9.5862086e-07
9.6826115e-07
9.6844268e-07
9.638706e-07
9.6913595e-07
9.6311097e-07
9.3249407e-07
9.2662355e-07
9.3224752e-07
9.5092358e-07
9.6438634e-07
9.8928438e-07
1.0162518e-06
1.0449148e-06
1.0824856e-06
1.1293283e-06
1.1677257e-06
1.2077347e-06
1.2716796e-06
1.372842e-06
1.5327918e-06
1.6601337e-06
1.865973e-06
2.0603531e-06
2.3476458e-06
2.5967699e-06
3.0879939e-06
3.6375339e-06
4.7004094e-06
5.5920402e-06
7.0805289e-06
8.7179759e-06
1.0011593e-05
1.1379687e-05
1.2580022e-05
1.352802e-05
1.4220666e-05
1.6402114e-05
2.010278e-05
2.3163368e-05
2.7438514e-05
3.1961441e-05
4.4113656e-05
1.0393151e-06
1.0023568e-06
9.9326237e-07
1.0117004e-06
1.0322578e-06
1.0327724e-06
1.0021945e-06
9.6515141e-07
9.3894921e-07
9.2497716e-07
9.2805989e-07
9.431479e-07
9.6063017e-07
9.693121e-07
9.7036176e-07
9.6726218e-07
9.7038777e-07
9.6085841e-07
9.3625251e-07
9.2684534e-07
9.3133575e-07
9.4180775e-07
9.5725097e-07
9.8345362e-07
1.0113911e-06
1.039148e-06
1.0787216e-06
1.1285921e-06
1.1675525e-06
1.2072532e-06
1.2616018e-06
1.3488478e-06
1.4979088e-06
1.6198582e-06
1.8095099e-06
1.9925454e-06
2.2494992e-06
2.4629994e-06
2.8695445e-06
3.2929246e-06
4.3158993e-06
5.2624121e-06
6.9322093e-06
8.2919561e-06
1.0661049e-05
1.1923253e-05
1.4508839e-05
1.566263e-05
1.6463408e-05
1.7529868e-05
2.0214363e-05
2.2054499e-05
2.5299209e-05
2.7354436e-05
3.3679284e-05
1.0397947e-06
1.0026357e-06
9.9324685e-07
1.0115911e-06
1.03218e-06
1.0336767e-06
1.0049533e-06
9.6823185e-07
9.3913517e-07
9.2605172e-07
9.2707382e-07
9.3839967e-07
9.5512105e-07
9.6617661e-07
9.7009172e-07
9.6784313e-07
9.7479843e-07
9.7134407e-07
9.4167227e-07
9.3035769e-07
9.3504273e-07
9.4455241e-07
9.5831291e-07
9.8513193e-07
1.0098609e-06
1.0336354e-06
1.0761652e-06
1.1297153e-06
1.1731639e-06
1.2080105e-06
1.256377e-06
1.3353223e-06
1.4710408e-06
1.5910311e-06
1.7772588e-06
1.9256472e-06
2.1627669e-06
2.3833029e-06
2.7882743e-06
3.149965e-06
4.0322289e-06
4.7522113e-06
6.3744478e-06
8.0105693e-06
1.0534113e-05
1.2094806e-05
1.5064094e-05
1.6643054e-05
1.9541884e-05
2.0665304e-05
2.3054286e-05
2.4188292e-05
2.6524482e-05
2.8694534e-05
3.1928124e-05
1.0399707e-06
1.00358e-06
9.9335006e-07
1.0112946e-06
1.033187e-06
1.0371411e-06
1.0099114e-06
9.7151718e-07
9.3964757e-07
9.2558314e-07
9.2927768e-07
9.4156489e-07
9.5815136e-07
9.7269348e-07
9.715149e-07
9.6976827e-07
9.7720649e-07
9.7564482e-07
9.5122474e-07
9.3081603e-07
9.3635513e-07
9.4803647e-07
9.580938e-07
9.791282e-07
9.9902061e-07
1.0232875e-06
1.0705678e-06
1.1249283e-06
1.1749112e-06
1.2139281e-06
1.2614166e-06
1.3254776e-06
1.4270906e-06
1.5501476e-06
1.7252849e-06
1.8521307e-06
2.0441122e-06
2.3579587e-06
2.7129584e-06
3.1267513e-06
3.9495201e-06
4.5491128e-06
5.9511817e-06
7.6651548e-06
1.0036973e-05
1.1706232e-05
1.5260451e-05
1.7692508e-05
2.2102412e-05
2.3965616e-05
2.69804e-05
2.896575e-05
3.1721943e-05
3.4662379e-05
3.6063302e-05
1.0400691e-06
1.0047026e-06
9.9414792e-07
1.0106266e-06
1.0346878e-06
1.03767e-06
1.0108032e-06
9.7340995e-07
9.4155274e-07
9.2783596e-07
9.295548e-07
9.3949641e-07
9.5539765e-07
9.7175269e-07
9.7342509e-07
9.7500257e-07
9.7706994e-07
9.7648773e-07
9.5584822e-07
9.4010061e-07
9.3772579e-07
9.4286362e-07
9.5385439e-07
9.7303714e-07
9.9170386e-07
1.0168317e-06
1.0630403e-06
1.1203699e-06
1.1739121e-06
1.223149e-06
1.270888e-06
1.321354e-06
1.4007105e-06
1.5197497e-06
1.7038067e-06
1.831338e-06
2.0025619e-06
2.3741423e-06
2.6654886e-06
3.085582e-06
3.7763725e-06
4.3490328e-06
5.4781667e-06
7.333739e-06
9.2293854e-06
1.06231e-05
1.3586932e-05
1.7228272e-05
2.1994756e-05
2.4723256e-05
2.9210086e-05
3.3518597e-05
3.7606283e-05
4.1656562e-05
4.2831567e-05
1.0400036e-06
1.0054152e-06
9.9452887e-07
1.0113742e-06
1.0350475e-06
1.0369144e-06
1.0127992e-06
9.7551353e-07
9.4379131e-07
9.3109199e-07
9.2940476e-07
9.3947308e-07
9.5467131e-07
9.7073684e-07
9.7820366e-07
9.73524e-07
9.8226411e-07
9.8546584e-07
9.649247e-07
9.4754737e-07
9.4366395e-07
9.4713035e-07
9.5590392e-07
9.7625167e-07
9.9672855e-07
1.0154197e-06
1.0530717e-06
1.1198706e-06
1.1711998e-06
1.2106696e-06
1.257981e-06
1.3068199e-06
1.3785437e-06
1.4780049e-06
1.6566617e-06
1.7805621e-06
1.9699849e-06
2.3494159e-06
2.6315843e-06
3.0088345e-06
3.6954063e-06
4.2695035e-06
5.2960827e-06
7.1439855e-06
9.054783e-06
1.0485619e-05
1.3177184e-05
1.7193373e-05
1.9351655e-05
2.3013555e-05
2.8319931e-05
3.2450456e-05
3.7213746e-05
4.2918578e-05
4.6612999e-05
1.0399354e-06
1.0063461e-06
9.9345621e-07
1.0102938e-06
1.0341033e-06
1.0395839e-06
1.0150999e-06
9.7748255e-07
9.4624744e-07
9.3030449e-07
9.3217093e-07
9.4460177e-07
9.5821951e-07
9.740886e-07
9.8098195e-07
9.7488109e-07
9.8228866e-07
9.8644544e-07
9.7092542e-07
9.4888627e-07
9.4715078e-07
9.4849724e-07
9.556577e-07
9.7127231e-07
9.8795694e-07
1.0052402e-06
1.0404379e-06
1.1059161e-06
1.158389e-06
1.199586e-06
1.2468624e-06
1.2947793e-06
1.3658868e-06
1.4529651e-06
1.6136923e-06
1.7224311e-06
1.9634586e-06
2.2392323e-06
2.5419459e-06
2.8139499e-06
3.4316562e-06
3.9614045e-06
4.901714e-06
6.2901018e-06
8.020113e-06
9.7230419e-06
1.2326522e-05
1.482237e-05
1.7326317e-05
2.1344652e-05
2.5055204e-05
2.8715202e-05
3.4815065e-05
4.0355402e-05
4.5232367e-05
1.0400645e-06
1.0067749e-06
9.9296627e-07
1.0094044e-06
1.0339312e-06
1.042822e-06
1.0160494e-06
9.783995e-07
9.473655e-07
9.2988202e-07
9.3002769e-07
9.4016583e-07
9.5455575e-07
9.7126729e-07
9.8228625e-07
9.8287135e-07
9.7475502e-07
9.8012167e-07
9.7621204e-07
9.6003488e-07
9.5013264e-07
9.4737001e-07
9.4982368e-07
9.6408391e-07
9.7947542e-07
9.9799738e-07
1.0336995e-06
1.0899185e-06
1.1432099e-06
1.1966625e-06
1.2469457e-06
1.2890849e-06
1.3578317e-06
1.4363265e-06
1.5577441e-06
1.6679245e-06
1.9370424e-06
2.1154111e-06
2.4288368e-06
2.7320321e-06
3.2530216e-06
3.7419606e-06
4.7506109e-06
5.7177178e-06
7.077539e-06
8.9832666e-06
1.1050773e-05
1.2742251e-05
1.6105953e-05
1.9653922e-05
2.3013752e-05
2.7431441e-05
3.2516603e-05
3.7704774e-05
4.2375564e-05
1.0401329e-06
1.0069404e-06
9.9307968e-07
1.0101869e-06
1.0344041e-06
1.0435317e-06
1.0182179e-06
9.8149792e-07
9.4908866e-07
9.3402619e-07
9.3193673e-07
9.3776281e-07
9.5340595e-07
9.7217292e-07
9.8393148e-07
9.8458955e-07
9.7700715e-07
9.8324744e-07
9.8064783e-07
9.6767173e-07
9.5410918e-07
9.503529e-07
9.5375725e-07
9.7066879e-07
9.8826038e-07
1.0057694e-06
1.0328152e-06
1.0742239e-06
1.1341364e-06
1.2005791e-06
1.2512898e-06
1.3012542e-06
1.3662084e-06
1.4383914e-06
1.524726e-06
1.6272621e-06
1.8434738e-06
2.0431814e-06
2.3078087e-06
2.7148177e-06
3.163358e-06
3.6394008e-06
4.5139052e-06
5.3076974e-06
6.228842e-06
8.1137101e-06
9.7365716e-06
1.1210148e-05
1.3809956e-05
1.7305582e-05
2.0461078e-05
2.3501499e-05
2.752792e-05
3.376511e-05
3.7986973e-05
1.0401932e-06
1.0074697e-06
9.9261074e-07
1.0101955e-06
1.035194e-06
1.0433829e-06
1.0207967e-06
9.8414044e-07
9.5065992e-07
9.3477465e-07
9.3495947e-07
9.4185094e-07
9.5606985e-07
9.7678025e-07
9.8331022e-07
9.8237711e-07
9.8711423e-07
9.8939783e-07
9.818195e-07
9.6654986e-07
9.5390382e-07
9.5011008e-07
9.5614788e-07
9.7289054e-07
9.904372e-07
1.0086653e-06
1.0293223e-06
1.0646519e-06
1.1291723e-06
1.2009545e-06
1.2533196e-06
1.3260346e-06
1.4075192e-06
1.4642007e-06
1.5246972e-06
1.5970381e-06
1.7389579e-06
1.9812104e-06
2.2135849e-06
2.6949997e-06
3.1293197e-06
3.674435e-06
4.2653645e-06
5.0000758e-06
5.6539724e-06
7.1861331e-06
8.5330879e-06
1.0127201e-05
1.2017175e-05
1.4734916e-05
1.7242677e-05
1.9446586e-05
2.221377e-05
2.688372e-05
3.0859197e-05
1.0402513e-06
1.0083567e-06
9.9225536e-07
1.0093246e-06
1.0354849e-06
1.0447748e-06
1.0231253e-06
9.8495536e-07
9.5015307e-07
9.3173395e-07
9.3126126e-07
9.410116e-07
9.5417027e-07
9.7248814e-07
9.830495e-07
9.8221064e-07
9.8820587e-07
9.9003202e-07
9.8309753e-07
9.6766431e-07
9.5608745e-07
9.4738603e-07
9.4711511e-07
9.6116593e-07
9.7389738e-07
9.9369791e-07
1.0185575e-06
1.0612364e-06
1.1254882e-06
1.2016164e-06
1.2634842e-06
1.3427789e-06
1.4193926e-06
1.477102e-06
1.5327125e-06
1.5928583e-06
1.7085833e-06
1.9416291e-06
2.1618171e-06
2.6443751e-06
3.099262e-06
3.7301545e-06
4.1955313e-06
4.9062147e-06
5.5047376e-06
6.7508302e-06
7.9941147e-06
9.6502447e-06
1.1428174e-05
1.3667654e-05
1.5878407e-05
1.81635e-05
2.0535336e-05
2.3960381e-05
2.6901857e-05
1.0402156e-06
1.0089504e-06
9.9297567e-07
1.0092173e-06
1.0360045e-06
1.0474391e-06
1.025557e-06
9.867829e-07
9.5180857e-07
9.3161344e-07
9.2894526e-07
9.3683755e-07
9.4753394e-07
9.6846862e-07
9.8503717e-07
9.8438e-07
9.7633409e-07
9.808162e-07
9.8517805e-07
9.7886793e-07
9.6592022e-07
9.5058811e-07
9.4382564e-07
9.5555282e-07
9.6519691e-07
9.8414659e-07
1.0109098e-06
1.0538958e-06
1.1164269e-06
1.1924207e-06
1.2668161e-06
1.3476735e-06
1.416409e-06
1.4706058e-06
1.5315188e-06
1.5938934e-06
1.7079371e-06
1.9336556e-06
2.1308529e-06
2.5700774e-06
3.0427845e-06
3.7029489e-06
4.1609546e-06
4.8582773e-06
5.5021607e-06
6.5890588e-06
7.8189926e-06
9.4917778e-06
1.126677e-05
1.3253314e-05
1.5372605e-05
1.7840421e-05
2.0432226e-05
2.3243612e-05
2.6030613e-05
1.0400483e-06
1.0094564e-06
9.940643e-07
1.0097638e-06
1.0364866e-06
1.0492794e-06
1.0275889e-06
9.9048113e-07
9.5551563e-07
9.3590121e-07
9.3595997e-07
9.3868605e-07
9.4774603e-07
9.6918815e-07
9.9044997e-07
9.874416e-07
9.7219816e-07
9.7803444e-07
9.8709755e-07
9.8683431e-07
9.7376424e-07
9.5543239e-07
9.4931578e-07
9.6152987e-07
9.7247983e-07
9.9090185e-07
1.0138994e-06
1.0452061e-06
1.1046989e-06
1.1763615e-06
1.2568453e-06
1.3349205e-06
1.3921581e-06
1.4442944e-06
1.5164639e-06
1.5908094e-06
1.7213965e-06
1.9368462e-06
2.1085686e-06
2.4702942e-06
2.9396246e-06
3.5827901e-06
4.0893435e-06
4.7611791e-06
5.432984e-06
6.4755176e-06
7.6008375e-06
9.1447621e-06
1.0879921e-05
1.2742676e-05
1.492607e-05
1.778224e-05
2.084868e-05
2.3700359e-05
2.7154691e-05
1.0398114e-06
1.0099338e-06
9.9397405e-07
1.0095644e-06
1.036607e-06
1.0486931e-06
1.028522e-06
9.9204655e-07
9.5641988e-07
9.3713625e-07
9.3931467e-07
9.4307106e-07
9.5251445e-07
9.7207893e-07
9.9091246e-07
9.9192511e-07
9.8203126e-07
9.8508729e-07
9.9110213e-07
9.858233e-07
9.7040639e-07
9.5158191e-07
9.4989681e-07
9.6349842e-07
9.7549259e-07
9.9194228e-07
1.0117254e-06
1.0387088e-06
1.0931513e-06
1.1605939e-06
1.2336157e-06
1.306258e-06
1.3660351e-06
1.4248987e-06
1.4982275e-06
1.5727741e-06
1.7029801e-06
1.9190312e-06
2.0706301e-06
2.3706436e-06
2.7468884e-06
3.3126917e-06
3.8603444e-06
4.4301002e-06
5.1522047e-06
6.1776307e-06
7.3608171e-06
8.6128472e-06
1.0122097e-05
1.1843788e-05
1.4433375e-05
1.7494667e-05
2.0610174e-05
2.3383983e-05
2.7119484e-05
1.0395862e-06
1.010425e-06
9.9308877e-07
1.0083866e-06
1.0358124e-06
1.0470942e-06
1.0287014e-06
9.9111024e-07
9.5383792e-07
9.3327385e-07
9.321183e-07
9.3981559e-07
9.5247301e-07
9.7356066e-07
9.8183514e-07
9.8798752e-07
9.889396e-07
9.8873681e-07
9.8450708e-07
9.7376022e-07
9.553373e-07
9.3765369e-07
9.3798928e-07
9.5185423e-07
9.6261301e-07
9.7536354e-07
9.9735965e-07
1.0288227e-06
1.074269e-06
1.1301162e-06
1.190708e-06
1.2551721e-06
1.3293834e-06
1.3899465e-06
1.4697508e-06
1.5376929e-06
1.6516766e-06
1.8597352e-06
1.9856116e-06
2.2269927e-06
2.4966632e-06
2.8650747e-06
3.422189e-06
3.8509865e-06
4.5458767e-06
5.3448542e-06
6.3280432e-06
7.2334504e-06
8.1532127e-06
9.0589954e-06
1.1309677e-05
1.4252725e-05
1.7474433e-05
2.0363785e-05
2.3724081e-05
1.0393981e-06
1.0108013e-06
9.9244296e-07
1.0072782e-06
1.0347194e-06
1.0469431e-06
1.0291374e-06
9.9015185e-07
9.5261187e-07
9.3021745e-07
9.2400777e-07
9.3300954e-07
9.4678723e-07
9.6161508e-07
9.7744387e-07
9.8083626e-07
9.8500193e-07
9.8310223e-07
9.7698879e-07
9.6868265e-07
9.4976705e-07
9.3216419e-07
9.2748551e-07
9.3647098e-07
9.4411459e-07
9.5540863e-07
9.7993306e-07
1.0107418e-06
1.0466783e-06
1.0907308e-06
1.1378301e-06
1.1895182e-06
1.2701258e-06
1.3235226e-06
1.4051052e-06
1.4631343e-06
1.5476531e-06
1.7185547e-06
1.8286363e-06
2.0034796e-06
2.203387e-06
2.3649666e-06
2.8320785e-06
3.1042727e-06
3.7169526e-06
4.2041272e-06
5.0118278e-06
5.6907297e-06
6.3933333e-06
6.7684174e-06
7.8992457e-06
9.5364286e-06
1.1695676e-05
1.3663962e-05
1.6197887e-05
1.039218e-06
1.0109835e-06
9.9253993e-07
1.0070223e-06
1.0341204e-06
1.0487788e-06
1.0309024e-06
9.9120902e-07
9.5641761e-07
9.307456e-07
9.2479572e-07
9.3123479e-07
9.4041149e-07
9.5684546e-07
9.7502512e-07
9.7953648e-07
9.7536515e-07
9.7512576e-07
9.7167881e-07
9.6987905e-07
9.5364731e-07
9.3173907e-07
9.2014161e-07
9.237138e-07
9.2842143e-07
9.39094e-07
9.6276784e-07
9.8540575e-07
1.008119e-06
1.0370474e-06
1.0110328e-06
9.1538294e-07
1.16028e-06
1.1761329e-06
1.2693391e-06
1.3148064e-06
1.3681507e-06
1.4537e-06
1.5953697e-06
1.63282e-06
1.7889042e-06
1.8727466e-06
2.1600245e-06
2.3583415e-06
2.8396476e-06
3.0900324e-06
3.6990313e-06
4.1369902e-06
5.0248976e-06
5.5638723e-06
6.3776735e-06
7.3393912e-06
8.6741367e-06
1.0003447e-05
1.1164842e-05
1.0390546e-06
1.0111962e-06
9.927207e-07
1.007323e-06
1.0338706e-06
1.0509105e-06
1.0328881e-06
9.9392764e-07
9.6108679e-07
9.324982e-07
9.3159898e-07
9.3451842e-07
9.3681584e-07
9.5326338e-07
9.7435576e-07
9.7578237e-07
9.6290931e-07
9.6279934e-07
9.6204233e-07
9.5851455e-07
9.4612479e-07
9.2026398e-07
9.0624462e-07
9.0555302e-07
9.0735225e-07
9.1733007e-07
9.3267659e-07
9.4700548e-07
9.5882805e-07
7.7377591e-07
6.4361043e-07
6.0612472e-07
7.9742654e-07
6.9719706e-07
8.7022122e-07
1.0922164e-06
1.1403698e-06
1.1856987e-06
1.2816358e-06
1.3161758e-06
1.4498173e-06
1.5069463e-06
1.6946806e-06
1.8153433e-06
2.1967731e-06
2.4075733e-06
2.8691713e-06
3.1349641e-06
3.7424792e-06
4.4670095e-06
5.3078625e-06
6.1029667e-06
7.1440542e-06
8.3126098e-06
9.0324965e-06
1.0388414e-06
1.0110631e-06
9.9209598e-07
1.0065335e-06
1.0323778e-06
1.0487601e-06
1.0301757e-06
9.9048409e-07
9.5641186e-07
9.2542617e-07
9.2552415e-07
9.256252e-07
9.246811e-07
9.3468927e-07
9.5638527e-07
9.5421868e-07
9.416368e-07
9.3425927e-07
9.3200819e-07
9.2573115e-07
9.093231e-07
8.810681e-07
8.6903449e-07
8.6621093e-07
8.6657355e-07
8.7254449e-07
8.839074e-07
8.9430532e-07
9.0142544e-07
5.3065759e-07
4.3489912e-07
4.7828914e-07
5.9871574e-07
4.5418613e-07
6.1644768e-07
9.6115873e-07
9.9349043e-07
1.015885e-06
1.0907547e-06
1.1388114e-06
1.2694748e-06
1.3181359e-06
1.3931654e-06
1.5751955e-06
1.9031684e-06
2.0743951e-06
2.4573597e-06
2.6913934e-06
3.0878569e-06
3.5840973e-06
4.1904126e-06
4.9037628e-06
5.7252645e-06
6.8258781e-06
7.7085742e-06
1.0383991e-06
1.0106663e-06
9.8985691e-07
1.002263e-06
1.0257138e-06
1.0369401e-06
1.0158863e-06
9.7357504e-07
9.3556869e-07
9.0205672e-07
8.9807507e-07
8.9510761e-07
8.9421448e-07
9.0223263e-07
9.1660724e-07
9.1597127e-07
9.084363e-07
8.9969118e-07
8.9742893e-07
8.9219011e-07
8.7989517e-07
8.5339484e-07
8.4325452e-07
8.4341691e-07
8.4422907e-07
8.5218706e-07
8.6872738e-07
8.8202148e-07
8.919911e-07
4.780436e-07
3.6330734e-07
4.7822544e-07
6.9391039e-07
3.8979042e-07
5.2054363e-07
9.3173021e-07
7.9101915e-07
9.9226632e-07
1.028628e-06
1.0627075e-06
1.1624853e-06
1.2090607e-06
9.8546696e-07
1.0800387e-06
1.7130861e-06
1.8977381e-06
2.230917e-06
2.4735924e-06
2.7874465e-06
3.2225533e-06
3.6528022e-06
4.2189191e-06
4.8043425e-06
5.4734412e-06
6.3711598e-06
1.0364227e-06
1.0064815e-06
9.8129919e-07
9.8661478e-07
1.0025059e-06
1.0071554e-06
9.8511714e-07
9.4445612e-07
9.0677667e-07
8.7475454e-07
8.6827805e-07
8.6571357e-07
8.6727769e-07
8.7813746e-07
8.9166204e-07
8.9724467e-07
8.9936901e-07
9.0307108e-07
9.0955241e-07
9.1668001e-07
9.1660422e-07
9.1328126e-07
9.1399981e-07
9.2039314e-07
9.2765966e-07
9.5042109e-07
9.8328488e-07
1.0084406e-06
9.8222638e-07
6.1626066e-07
4.5071974e-07
6.403708e-07
1.1344538e-06
5.254718e-07
6.1366734e-07
1.1460219e-06
9.4938427e-07
1.2732902e-06
1.2797783e-06
1.3194402e-06
1.3942042e-06
1.4339525e-06
9.332097e-07
8.2335557e-07
1.1716048e-06
1.8519324e-06
2.1200958e-06
2.3972958e-06
2.6561932e-06
3.0030587e-06
3.3250951e-06
3.768147e-06
4.250038e-06
4.7458967e-06
5.4902274e-06
1.0271848e-06
9.8951047e-07
9.5531176e-07
9.5068042e-07
9.6154671e-07
9.7168687e-07
9.6239622e-07
9.3637427e-07
9.1274809e-07
8.9297639e-07
8.915654e-07
8.9520703e-07
9.1214927e-07
9.2717899e-07
9.5195993e-07
9.7021409e-07
9.9283727e-07
1.0228545e-06
1.0511122e-06
1.0733448e-06
1.091044e-06
1.1144107e-06
1.1321268e-06
1.1641538e-06
1.0996235e-06
1.1780673e-06
1.2815326e-06
1.3282412e-06
1.2619416e-06
1.0159444e-06
8.6783699e-07
1.1122091e-06
1.5641553e-06
1.0651313e-06
1.0579839e-06
1.6403478e-06
1.5944786e-06
1.8788277e-06
1.8952866e-06
1.9620794e-06
2.0690589e-06
2.1162375e-06
1.5332251e-06
1.2218444e-06
1.2161534e-06
1.7413796e-06
2.4458396e-06
2.6739225e-06
2.8353329e-06
3.0689905e-06
3.3157797e-06
3.6109705e-06
3.6770451e-06
4.3296529e-06
4.7900283e-06
1.0054941e-06
9.5673294e-07
9.2179572e-07
9.1089368e-07
9.1561828e-07
9.5261904e-07
9.8676101e-07
1.0063626e-06
1.020615e-06
1.0279329e-06
1.0378713e-06
1.0505161e-06
1.070864e-06
1.1140074e-06
1.1567165e-06
1.1849987e-06
1.230788e-06
1.1203072e-06
1.310662e-06
1.3472228e-06
1.3525994e-06
1.3338938e-06
1.3893449e-06
1.4042287e-06
1.3563356e-06
1.420802e-06
1.6597777e-06
1.7953715e-06
1.7268055e-06
1.6096461e-06
1.6040308e-06
1.9571454e-06
2.2173656e-06
2.1912623e-06
2.067785e-06
2.4589664e-06
2.6040813e-06
2.7166263e-06
2.7610264e-06
2.8463155e-06
2.9847643e-06
3.1183663e-06
2.7635982e-06
2.3979091e-06
2.1392403e-06
2.3359596e-06
3.4168623e-06
3.4841271e-06
3.5474012e-06
3.6402026e-06
3.7150633e-06
3.7202899e-06
3.4623123e-06
3.6304704e-06
4.0645522e-06
9.7266535e-07
8.8434075e-07
8.5364537e-07
8.5228336e-07
8.6977019e-07
9.3137625e-07
1.0277387e-06
1.102325e-06
1.1316915e-06
1.1704104e-06
1.1496477e-06
1.2049687e-06
1.2216625e-06
1.2262218e-06
1.2349097e-06
1.2949704e-06
1.2958625e-06
1.2512719e-06
1.3634017e-06
1.4655854e-06
1.3876314e-06
1.4037448e-06
1.4622309e-06
1.5204308e-06
1.5447966e-06
1.5949928e-06
1.7763842e-06
2.0065903e-06
1.9896338e-06
1.9794262e-06
2.0022069e-06
2.2984577e-06
2.6402337e-06
2.6689375e-06
2.5707575e-06
2.7909964e-06
3.0495292e-06
3.1953843e-06
3.2871025e-06
3.4122556e-06
3.538773e-06
3.6615211e-06
3.7557127e-06
3.8290053e-06
3.4515e-06
3.2894826e-06
4.0806561e-06
4.1579569e-06
4.1331619e-06
4.1050758e-06
3.7500419e-06
3.6650212e-06
3.6259921e-06
3.4707459e-06
3.8331603e-06
7.454414e-07
7.9331318e-07
8.186215e-07
7.9696676e-07
8.0500057e-07
8.5145588e-07
8.9098534e-07
9.1176458e-07
8.979948e-07
9.0949374e-07
9.1112145e-07
9.1516954e-07
9.3787821e-07
9.6334502e-07
9.8070055e-07
1.0211829e-06
1.0435024e-06
1.0628684e-06
1.0749349e-06
1.0933226e-06
1.1072095e-06
1.1301866e-06
1.1684944e-06
1.2152336e-06
1.2598313e-06
1.2967332e-06
1.3523836e-06
1.42302e-06
1.5041908e-06
1.568445e-06
1.5763114e-06
1.6055734e-06
1.7406017e-06
1.8249061e-06
1.8975166e-06
1.9695115e-06
2.0280064e-06
2.0734431e-06
2.0932185e-06
2.1415968e-06
2.2143362e-06
2.2747997e-06
2.2759721e-06
2.282602e-06
2.3452829e-06
2.2718408e-06
2.3366096e-06
2.6628166e-06
2.7174625e-06
2.7569521e-06
2.7646322e-06
2.7444743e-06
2.7116413e-06
2.6923056e-06
2.6720511e-06
1.0972304e-06
1.5399343e-06
1.3165272e-06
1.0770585e-06
9.3795319e-07
8.2745783e-07
7.3050093e-07
6.4999656e-07
5.886153e-07
5.417375e-07
5.0027239e-07
4.7408264e-07
4.5638328e-07
4.4488722e-07
4.4671944e-07
4.5468781e-07
4.6048024e-07
4.5180698e-07
4.5412664e-07
4.6239724e-07
4.63867e-07
4.6204797e-07
4.6347877e-07
4.7155731e-07
4.7031336e-07
4.6045358e-07
4.7074269e-07
4.9861396e-07
5.1533804e-07
5.0833046e-07
5.1028589e-07
5.5204511e-07
6.2891146e-07
6.9062521e-07
7.1575603e-07
7.1733507e-07
7.211417e-07
7.4491438e-07
7.6399398e-07
7.7190592e-07
7.7974976e-07
7.7386513e-07
7.5435484e-07
7.3039849e-07
7.2388919e-07
7.4120189e-07
7.9981584e-07
8.1089862e-07
7.5834939e-07
8.4770249e-07
1.0228908e-06
1.0111047e-06
1.0010169e-06
9.9954101e-07
1.0203695e-06
1.0461284e-06
2.7078279e-06
4.2188058e-06
4.6620147e-06
5.2064052e-06
5.9686635e-06
6.8415197e-06
8.1377663e-06
9.8512894e-06
1.294585e-05
1.9636226e-05
2.7732233e-05
3.1869274e-05
3.2038697e-05
3.1260223e-05
3.2076642e-05
3.5699662e-05
4.2031029e-05
4.6821177e-05
5.1669107e-05
5.3839746e-05
5.0345022e-05
4.1836106e-05
3.7952137e-05
3.8961196e-05
4.9501184e-05
8.1669276e-05
1.0648135e-06
2.6116413e-06
4.2474685e-06
4.9386538e-06
5.6467466e-06
6.5369397e-06
7.6036208e-06
9.0134714e-06
1.1647029e-05
1.6228627e-05
2.4314028e-05
3.2777652e-05
3.7736313e-05
3.8024058e-05
3.6988942e-05
3.7401557e-05
4.0093256e-05
4.6297945e-05
5.062799e-05
5.6266385e-05
6.0914732e-05
5.7936001e-05
4.9991291e-05
4.63827e-05
4.956911e-05
6.7364065e-05
0.00010594254
1.0669113e-06
2.4901104e-06
4.1937829e-06
5.1740535e-06
6.1178403e-06
7.1590747e-06
8.4377771e-06
1.0409563e-05
1.4408015e-05
2.098202e-05
2.9769205e-05
3.8397118e-05
4.3803561e-05
4.4535138e-05
4.3982332e-05
4.4357549e-05
4.6940221e-05
5.2839037e-05
5.6327383e-05
6.1358176e-05
6.6857866e-05
6.392617e-05
5.5571604e-05
5.2114339e-05
5.7823836e-05
8.042935e-05
0.00012474636
1.0263057e-06
2.3592999e-06
4.2315539e-06
5.5908757e-06
6.7988277e-06
8.0330436e-06
9.6035325e-06
1.2344914e-05
1.7521393e-05
2.499004e-05
3.4173224e-05
4.3144439e-05
4.8740351e-05
5.0218055e-05
5.0317886e-05
5.1062616e-05
5.4243608e-05
6.0167335e-05
6.471971e-05
7.0208156e-05
7.4141562e-05
7.0347345e-05
6.1715107e-05
5.9305863e-05
6.5332315e-05
8.773771e-05
0.00013754988
9.8108035e-07
2.2280014e-06
4.3305015e-06
5.6699436e-06
6.5275987e-06
8.4020418e-06
1.0669148e-05
1.3964829e-05
1.9156184e-05
2.74272e-05
3.7326564e-05
4.6652203e-05
5.2677092e-05
5.511982e-05
5.6229113e-05
5.7639512e-05
6.1324545e-05
6.7356659e-05
7.4709595e-05
8.2268038e-05
8.4696663e-05
7.8328174e-05
6.7678606e-05
6.6578318e-05
7.2971516e-05
9.3886237e-05
0.00014626897
9.6846895e-07
2.1287257e-06
4.3697079e-06
5.8875243e-06
7.4133465e-06
9.4405019e-06
1.1318584e-05
1.4414061e-05
2.0163955e-05
3.0296479e-05
4.1402606e-05
4.9568697e-05
5.6685199e-05
5.955689e-05
6.1573661e-05
6.4076716e-05
6.8149509e-05
7.4212165e-05
8.3373319e-05
9.5940591e-05
9.9405631e-05
9.0422694e-05
7.5771176e-05
7.4572014e-05
8.2171525e-05
0.0001018169
0.00015444467
9.8250848e-07
1.9864938e-06
4.1593926e-06
6.3511033e-06
8.1244203e-06
9.6837548e-06
1.1515278e-05
1.4643711e-05
2.2168975e-05
3.4696046e-05
4.1940406e-05
4.5747225e-05
5.5026857e-05
6.432625e-05
6.7251395e-05
7.12983e-05
7.6342306e-05
8.2936154e-05
9.3978128e-05
0.00011040262
0.00011687119
0.00010755864
8.8841017e-05
8.657384e-05
9.4455469e-05
0.0001162023
0.0001333568
8.827457e-07
1.8217887e-06
3.9146459e-06
6.3951321e-06
8.2064707e-06
9.6802723e-06
1.1510153e-05
1.5656812e-05
2.605252e-05
4.0771073e-05
5.3357711e-05
5.2789056e-05
5.570309e-05
6.2210365e-05
7.4975972e-05
8.1337732e-05
8.7794712e-05
9.5484193e-05
0.00010854137
0.00012601437
0.00013323135
0.00012565673
0.00010647492
0.00010314204
0.00010984663
0.00012972165
0.00013431006
9.6525462e-07
1.6864529e-06
3.6643743e-06
6.2015659e-06
7.8966223e-06
9.374338e-06
1.1903247e-05
1.8108559e-05
3.2332539e-05
4.819046e-05
6.0337876e-05
6.8123522e-05
7.0516886e-05
6.9916899e-05
8.1940776e-05
9.4349216e-05
0.00010244356
0.00011190524
0.00012665814
0.00014320124
0.00014898228
0.00014220822
0.00012525705
0.00012177901
0.0001279533
0.000143428
0.00017809466
1.2048605e-06
1.6233436e-06
3.433073e-06
5.8202136e-06
7.4249919e-06
9.3202887e-06
1.3228277e-05
2.3162903e-05
4.0592431e-05
5.6661338e-05
6.8419555e-05
7.612646e-05
8.235664e-05
9.0029558e-05
9.9737058e-05
0.00011062527
0.00011199539
0.00013095843
0.00014610163
0.00016085074
0.00016545571
0.00015720769
0.00014226114
0.00014140514
0.00014926313
0.00015847762
0.00018269981
1.1940101e-06
1.5676509e-06
3.1176362e-06
5.2508305e-06
6.7673413e-06
8.4429472e-06
1.2014676e-05
2.2432483e-05
3.7113575e-05
5.3655833e-05
7.6493389e-05
8.6754053e-05
9.5815553e-05
0.00010667455
0.00011877623
0.00013105881
0.00013250364
0.00015245346
0.00016674007
0.00017960795
0.00018360836
0.00017336997
0.00015920452
0.00016239002
0.00017422513
0.00017762642
0.00018981937
1.1328897e-06
1.5151284e-06
2.8891163e-06
4.8970404e-06
6.9419877e-06
8.9482973e-06
1.6336145e-05
2.9713659e-05
4.5624954e-05
6.5208963e-05
8.8282359e-05
0.0001002186
0.00011161567
0.00011400675
0.00012800351
0.00015373694
0.00016437293
0.000175822
0.00018931346
0.00020017953
0.00020296792
0.00019232327
0.00017998755
0.0001860148
0.00019779608
0.00019654921
0.00014254195
1.0972803e-06
1.5178293e-06
2.8996834e-06
5.2321633e-06
7.4900569e-06
1.330075e-05
2.9150631e-05
5.1953261e-05
7.5395437e-05
8.8767369e-05
0.00010154986
0.00010163296
9.8053404e-05
0.0001079493
0.00013812483
0.00017610268
0.00018766546
0.00019974816
0.00021298537
0.00022165868
0.00022273844
0.00021388619
0.00020522324
0.00021117556
0.00022086836
0.00021835146
0.00013737788
1.1082215e-06
1.6564898e-06
3.4111012e-06
6.1564625e-06
1.1376001e-05
2.7689501e-05
5.3154598e-05
7.0377159e-05
8.5225676e-05
9.9416312e-05
0.00010808723
0.00011121768
0.00012724146
0.00016069448
0.00017990332
0.00019533447
0.00020859509
0.00022179659
0.00023514795
0.0002432215
0.00024411083
0.00023934597
0.00023437013
0.0002391567
0.00024590617
0.00021237603
0.00021107445
1.2242684e-06
1.9357423e-06
4.3863592e-06
9.6625568e-06
2.2768616e-05
4.2737522e-05
6.1394336e-05
7.7930105e-05
7.6922313e-05
7.84218e-05
9.1110833e-05
0.00012044417
0.00015968931
0.00017802209
0.00019602444
0.00021222612
0.0002265983
0.00024061294
0.00025447991
0.00026360991
0.0002670837
0.00026780999
0.0002672265
0.00027120404
0.00027387697
0.00026860172
0.0002474016
1.2148049e-06
2.2695966e-06
5.4424837e-06
1.3424182e-05
2.9390386e-05
4.9098959e-05
5.5403264e-05
5.71204e-05
6.2374464e-05
7.1240538e-05
8.5757968e-05
0.00011089822
0.00015908805
0.00019154488
0.00021132098
0.00022881051
0.0002435665
0.00025727485
0.00027130277
0.00025773505
0.00028969596
0.00029572261
0.00030061208
0.00030601671
0.00030496321
0.00029181329
0.00025937583
1.1847121e-06
2.4782141e-06
6.256216e-06
1.5880266e-05
3.3285211e-05
4.4531117e-05
5.0509323e-05
5.6665617e-05
6.3611313e-05
7.0518793e-05
7.9173825e-05
9.4024996e-05
0.00012006287
0.00016174489
0.00021833474
0.00024589798
0.00026108556
0.00027414184
0.00028767779
0.00026749762
0.00030978677
0.00031997848
0.00032940647
0.00033682299
0.00033412839
0.00031376417
0.00022375858
1.3084839e-06
2.5779386e-06
6.6101004e-06
1.6374047e-05
3.1469626e-05
5.1352856e-05
6.7110583e-05
8.2361755e-05
7.8310188e-05
7.3504919e-05
7.4460309e-05
8.2991962e-05
9.9268292e-05
0.00013064019
0.00018984098
0.00026265971
0.00027842019
0.00029165888
0.00030441992
0.00031566704
0.00032701326
0.00030950079
0.00031431198
0.00035867857
0.00035450079
0.00033019573
0.0002209876
1.5650492e-06
2.5235193e-06
4.9087288e-06
1.2182344e-05
2.7344142e-05
4.7836657e-05
6.2888898e-05
7.8323777e-05
9.57104e-05
0.00010365855
8.4667474e-05
8.4258875e-05
9.596252e-05
0.00012380993
0.00017898738
0.00025934847
0.00029437498
0.00030740477
0.00031942749
0.00033065371
0.00034194832
0.00030038996
0.0003203645
0.0003714192
0.00036466972
0.00028790447
0.00028813837
1.5341043e-06
2.3496417e-06
4.678026e-06
9.9977044e-06
1.9030523e-05
3.0930839e-05
4.5314907e-05
7.0843384e-05
8.9581756e-05
0.00011127021
0.00013479373
0.00011561268
0.00012113529
0.00014102361
0.00017220083
0.00020695212
0.00025488462
0.00032044493
0.00033270111
0.00034469411
0.00035578168
0.00036706132
0.00037692936
0.00033141188
0.00028249236
0.00026727474
0.00030087823
1.3644439e-06
2.1148867e-06
5.4457705e-06
1.0858206e-05
1.7433043e-05
2.3396902e-05
2.9719201e-05
3.9793108e-05
5.9224562e-05
0.00010182739
0.00012726053
0.00015794379
0.00019255129
0.00021312259
0.0001882008
0.0001859919
0.00020570596
0.00023440553
0.00025984604
0.00029605917
0.00036821002
0.00037691792
0.0003839665
0.00027282245
0.00025180398
0.0003028879
0.00031169363
1.1444951e-06
1.8658021e-06
4.9259307e-06
1.1271707e-05
1.7849885e-05
2.1411824e-05
2.5452851e-05
3.2095983e-05
4.3097436e-05
6.0248318e-05
9.3181082e-05
0.0001394613
0.00017301251
0.00021062989
0.00024873908
0.0002011911
0.00018132213
0.00016941977
0.00017655008
0.00022012937
0.00037656023
0.00038382738
0.00036570702
0.00025560718
0.00027539397
0.0003581817
0.00032676673
8.8921952e-07
1.6077748e-06
4.4180253e-06
8.6499458e-06
1.4164277e-05
1.8582464e-05
2.3536277e-05
3.0181157e-05
3.8908366e-05
4.9065311e-05
5.9936875e-05
7.3287727e-05
9.5021831e-05
0.00014217627
0.0002196462