/*--------------------------------*- C++ -*----------------------------------*\
| =========                 |                                                 |
| \\      /  F ield         | OpenFOAM: The Open Source CFD Toolbox           |
|  \\    /   O peration     | Version:  2406                                  |
|   \\  /    A nd           | Website:  www.openfoam.com                      |
|    \\/     M anipulation  |                                                 |
\*---------------------------------------------------------------------------*/
FoamFile
{
    version     2.0;
    format      ascii;
    arch        "LSB;label=32;scalar=64";
    class       volScalarField;
    location    "17";
    object      rho;
}
// * * * * * * * * * * * * * * * * * * * * * * * * * * * * * * * * * * * * * //

dimensions      [1 -3 0 0 0 0 0];

internalField   nonuniform List<scalar> 
62344
(
1.0036865
1.012072
1.0149907
1.0153119
1.0123418
1.0114262
1.0170093
1.0174774
1.0114951
1.0118772
1.0135917
1.0082894
1.0093631
1.0109752
1.0159322
1.0142349
1.0074753
1.014237
1.0153939
1.0148761
1.0120641
1.0181892
1.0125916
1.014903
1.0241151
1.0163825
1.0110721
1.0256905
1.0332694
1.0243692
1.0140219
1.005771
1.0050316
1.0251192
1.0486743
1.0511049
1.0288709
1.0051196
1.0155439
1.0596091
1.0883099
1.0860518
1.0724959
1.0779726
1.1027819
1.1242598
1.1296751
1.1263228
1.1273063
1.1297962
1.1291079
1.1100928
1.0785895
1.0547799
1.0523992
1.0034246
1.0122133
1.0147577
1.0159313
1.0136087
1.0128039
1.0151229
1.01587
1.0151916
1.0135473
1.0095628
1.0135907
1.0147327
1.0100087
1.016172
1.014538
1.0111654
1.0164582
1.016501
1.0146426
1.0116496
1.0154887
1.0106636
1.0171191
1.023609
1.0140807
1.0127518
1.0272514
1.0326581
1.0241177
1.0182139
1.0170484
1.0146833
1.0189255
1.0287099
1.0288182
1.0188264
1.0065079
1.0135273
1.0373298
1.0641922
1.0742523
1.0747389
1.0826059
1.1034887
1.1257666
1.1332303
1.1227994
1.1054873
1.0951038
1.0918271
1.0874416
1.0732865
1.0510246
1.0299218
1.0041054
1.011627
1.0128672
1.0153803
1.0141325
1.0169734
1.0144413
1.0126132
1.0170142
1.0136979
1.0082362
1.0156634
1.0178324
1.0109826
1.0151939
1.0136413
1.0114189
1.013349
1.0165767
1.0143146
1.0111289
1.0150689
1.0109267
1.0194735
1.02348
1.0137843
1.0171174
1.0307891
1.0312022
1.0203139
1.0164865
1.0221398
1.0269414
1.0237413
1.0187593
1.0145737
1.0124192
1.0085625
1.0086901
1.0191006
1.0427097
1.0680438
1.0875881
1.0996934
1.1047103
1.1053648
1.1049059
1.0953898
1.073302
1.0525844
1.047622
1.0572733
1.0709889
1.0781311
1.0772141
1.0049641
1.0108246
1.0118534
1.0142492
1.0137322
1.0189232
1.0154278
1.0131056
1.0146946
1.0120985
1.0104097
1.013114
1.016159
1.0124069
1.0119612
1.0142401
1.0114152
1.0084059
1.0128243
1.0142708
1.013305
1.0166302
1.0121951
1.0194573
1.0203261
1.0125077
1.0208908
1.0340968
1.0299107
1.0146104
1.0086921
1.0191922
1.0334967
1.0319728
1.018254
1.0083095
1.0105091
1.016437
1.0132551
1.0107395
1.0266697
1.061953
1.0966663
1.1105636
1.0911061
1.0661479
1.0532106
1.0579803
1.062269
1.0598607
1.0622848
1.0776078
1.1033529
1.1332152
1.1581732
1.005184
1.010771
1.0127574
1.0137539
1.0142329
1.0168512
1.0170223
1.0154271
1.011732
1.011271
1.0132388
1.0107235
1.0124686
1.0146592
1.0109504
1.0157974
1.0118855
1.0080951
1.0100062
1.0124552
1.0152013
1.0178908
1.012082
1.01711
1.0154524
1.0100669
1.0227308
1.036498
1.0303511
1.010997
1.0011406
1.0120859
1.0336394
1.0374083
1.0198801
1.0042996
1.0091927
1.0266718
1.0263368
1.0137623
1.0163277
1.0484217
1.0926678
1.1105734
1.082372
1.0410011
1.0103746
1.0201854
1.0525317
1.0815914
1.0999848
1.1216366
1.1492575
1.1841084
1.2156364
1.0045713
1.0114595
1.0145198
1.0135925
1.0148335
1.0134104
1.0168129
1.015592
1.0107358
1.0117195
1.0133251
1.0111152
1.010293
1.0156059
1.013957
1.0163348
1.0135025
1.012753
1.0114231
1.0110704
1.0153065
1.0170705
1.0103714
1.014574
1.0118215
1.0079152
1.0225499
1.0370751
1.0314531
1.0122411
1.0000819
1.0081811
1.0311661
1.038549
1.0198452
0.99900046
1.0039969
1.0308759
1.0423313
1.0279319
1.0169102
1.0356298
1.0768387
1.104692
1.084676
1.0385135
1.0007288
0.99707569
1.0321072
1.0810861
1.1240937
1.1587508
1.1885693
1.2070212
1.214049
1.003901
1.0119906
1.0145741
1.013156
1.014054
1.0119327
1.0145001
1.0138305
1.0116519
1.012088
1.0119327
1.0134985
1.0110032
1.0143633
1.018449
1.0156206
1.0142368
1.0177276
1.0158588
1.0118744
1.0151848
1.0153485
1.0090149
1.0140897
1.0109123
1.0073544
1.020931
1.0347094
1.0310806
1.0156629
1.0042022
1.0096815
1.0308731
1.0385609
1.0189944
0.99253961
0.99387011
1.0261938
1.0500974
1.0452308
1.0285071
1.0311549
1.0567214
1.088102
1.0872577
1.0530511
1.0124709
0.99511179
1.0140673
1.0664321
1.12512
1.1696323
1.196001
1.1966878
1.1834988
1.0034346
1.0119582
1.0131903
1.012261
1.0116747
1.0119529
1.0120581
1.0116559
1.0129645
1.011462
1.0109376
1.0150582
1.0129976
1.0122628
1.0211023
1.0146636
1.0119198
1.0186998
1.0187307
1.0143635
1.016252
1.0142322
1.0089323
1.0161053
1.0130624
1.0090961
1.0195691
1.0301183
1.0278897
1.0176677
1.0087371
1.014853
1.0344222
1.0402979
1.0201778
0.98922605
0.98402821
1.0136244
1.0471324
1.057986
1.0461876
1.0364031
1.0412494
1.0605524
1.0779369
1.0693457
1.0399146
1.015113
1.0171284
1.0542943
1.1092494
1.1570479
1.1853212
1.1878807
1.1690636
1.0035368
1.0113209
1.0112963
1.0115941
1.0095939
1.0124186
1.0111036
1.0105965
1.0137712
1.0106127
1.0109489
1.0141327
1.014268
1.0110742
1.0216016
1.0141181
1.0087267
1.0154798
1.0188101
1.0161764
1.017438
1.0139898
1.0097912
1.0189398
1.0162895
1.0122611
1.0195446
1.0258512
1.0229697
1.0164771
1.0115712
1.0202771
1.039746
1.0440223
1.0232195
0.99009798
0.97821773
1.0001793
1.036824
1.0599422
1.062663
1.0479811
1.0335244
1.0345676
1.0576769
1.0741609
1.0711476
1.0543404
1.0447345
1.0573041
1.0892396
1.1261127
1.1530583
1.1639326
1.1586471
1.0039836
1.0105525
1.0099334
1.0113824
1.0088979
1.0131141
1.0114734
1.0110119
1.0136048
1.0103509
1.0118851
1.0119907
1.0140854
1.0119165
1.0206671
1.0144866
1.0073612
1.0114489
1.0167607
1.0160001
1.0173391
1.0137142
1.0106439
1.0210251
1.0187821
1.0150817
1.0208198
1.0234124
1.0189047
1.0144813
1.012374
1.023354
1.0430842
1.046713
1.0261115
0.99329884
0.97676079
0.98893808
1.0229804
1.0541962
1.0705591
1.0623784
1.0330946
1.0153458
1.0322321
1.0659434
1.0894842
1.0908784
1.0844154
1.0775169
1.0798496
1.0948847
1.1150991
1.1316413
1.1397934
1.0045017
1.0103408
1.0098595
1.0118504
1.0102503
1.0137978
1.0125492
1.0124938
1.0128155
1.0106071
1.0125112
1.0103762
1.0130366
1.0139457
1.0190999
1.0151074
1.0084592
1.0096015
1.015221
1.0150871
1.016081
1.0128754
1.0106598
1.021095
1.0186102
1.0158047
1.0218532
1.0226077
1.0171119
1.0135975
1.0125599
1.024036
1.043158
1.0463959
1.0272131
0.99743645
0.97939883
0.98281213
1.0080131
1.0446916
1.0705165
1.0727845
1.0406241
1.0072427
1.0079741
1.0455428
1.0879077
1.1156227
1.1189909
1.1041391
1.086768
1.0794039
1.086049
1.101925
1.1180396
1.0049155
1.0106896
1.0108746
1.0125139
1.0122207
1.0145572
1.0138288
1.01391
1.0117369
1.0112417
1.0118569
1.0097819
1.0120628
1.0157808
1.0173673
1.0150429
1.0105489
1.0101053
1.0156207
1.014915
1.0146006
1.0115723
1.0100084
1.0195133
1.0157141
1.0138693
1.0213645
1.0222872
1.0170368
1.0143624
1.0133436
1.0239917
1.0409359
1.0434287
1.0264383
1.001755
0.98490093
0.98221509
0.99601106
1.0311025
1.0648703
1.0769448
1.0506938
1.0099591
0.99226246
1.0188796
1.0703142
1.1172444
1.1412441
1.1280192
1.1020395
1.0783244
1.0690428
1.0773256
1.0961196
1.0050858
1.0111568
1.0122877
1.0129864
1.0139813
1.0150431
1.0148419
1.0147165
1.0108413
1.0121397
1.0100647
1.0099747
1.0116762
1.0165337
1.0157772
1.0141697
1.0122811
1.0115753
1.0168295
1.01526
1.0134657
1.0104199
1.0095737
1.0177264
1.0122767
1.0104934
1.0191471
1.0212581
1.0170184
1.0161444
1.0154959
1.0243258
1.0377655
1.0393116
1.0242005
1.0054834
0.9926106
0.9858582
0.98954461
1.0172295
1.0548512
1.0748391
1.0601217
1.0183016
0.98731365
0.9958414
1.0438355
1.0991492
1.1414261
1.1405649
1.1097659
1.0813917
1.0625042
1.06153
1.0767588
1.0049061
1.0115382
1.0134952
1.0132143
1.0147901
1.0150313
1.0153512
1.014754
1.0105409
1.0130708
1.0081021
1.0107894
1.0122696
1.0161375
1.0146323
1.0127705
1.013201
1.0130591
1.0172786
1.0153475
1.0129574
1.0096645
1.0099369
1.0168894
1.0098551
1.0074718
1.0163317
1.0192978
1.0162346
1.0181873
1.0191437
1.0256469
1.0346908
1.0350107
1.0213584
1.0081878
1.0003473
0.99260611
0.98865538
1.0068856
1.0421302
1.0677906
1.0655549
1.0284324
0.99114836
0.98362423
1.0176682
1.07258
1.122061
1.1358888
1.1123885
1.0792639
1.0585669
1.052253
1.0623153
1.0045062
1.0117517
1.0141862
1.0132288
1.0147104
1.0149208
1.0150374
1.0139818
1.0106985
1.0135358
1.0069399
1.0113536
1.0132499
1.0149701
1.0138534
1.0114675
1.0135659
1.0143278
1.0160909
1.0145656
1.0130592
1.0095575
1.011129
1.017176
1.0092158
1.006117
1.0143266
1.0171865
1.0148806
1.0193085
1.0233156
1.028468
1.03265
1.0306752
1.0181007
1.01061
1.0078122
1.00029
0.99205497
1.000965
1.0290837
1.0578664
1.0661015
1.0383322
1.0002665
0.98238318
1.0000448
1.0449906
1.093868
1.1193145
1.1087054
1.0773695
1.0534836
1.0453906
1.0510699
1.0040222
1.01179
1.0142528
1.0130334
1.0139458
1.0146995
1.0145742
1.0130836
1.0112095
1.013531
1.0070631
1.01147
1.0139958
1.0135573
1.0133503
1.0105144
1.0133349
1.0152655
1.0139806
1.0131607
1.013441
1.0101117
1.0128226
1.0182192
1.0101369
1.0064571
1.0137737
1.0157372
1.0132585
1.019313
1.0267159
1.0319668
1.032371
1.0266904
1.0147919
1.0120024
1.0137634
1.0081629
0.99812372
0.99917604
1.0184561
1.0461416
1.0603776
1.0451403
1.0126804
0.99055098
0.99236245
1.0235163
1.0665808
1.0970278
1.0985717
1.0764138
1.0510909
1.0392893
1.0418032
1.0036214
1.0116635
1.013865
1.0128374
1.0129332
1.0144643
1.0140952
1.0123135
1.0119212
1.0131113
1.0082517
1.0113875
1.0141697
1.0123726
1.0130761
1.0100582
1.0125218
1.015737
1.0119073
1.0117143
1.0139122
1.0109964
1.0145921
1.0195566
1.0117696
1.0083608
1.0149459
1.0155626
1.0117923
1.0182954
1.0291802
1.0354861
1.0335388
1.0238786
1.0118216
1.0118459
1.018011
1.0152718
1.0053974
1.0004675
1.0111731
1.034229
1.0502534
1.0475865
1.0239755
1.0024584
0.99632696
1.0121217
1.0447797
1.0746227
1.0852842
1.0735975
1.0518501
1.0371455
1.0357817
1.0033836
1.0115032
1.0132913
1.0127456
1.01212
1.0143832
1.0138852
1.0119141
1.0126125
1.0124532
1.0100334
1.0114019
1.013757
1.0116942
1.0130899
1.0101228
1.0114688
1.0156588
1.0105801
1.0107201
1.0144224
1.0120008
1.0160236
1.0206624
1.0134854
1.0107504
1.0173146
1.016873
1.0109333
1.0164116
1.0304901
1.0388327
1.0358759
1.0224223
1.009377
1.0102923
1.0205159
1.0209839
1.0127561
1.0038507
1.0068059
1.0232109
1.0392921
1.0441859
1.0322462
1.0157308
1.0073556
1.0114716
1.0309463
1.0550245
1.0708698
1.0687383
1.0541559
1.039434
1.0347488
1.0033251
1.0113486
1.0127812
1.0128283
1.0117736
1.0144242
1.013915
1.0119011
1.0131477
1.0117514
1.0119518
1.0114216
1.0129096
1.0114252
1.0133044
1.0105457
1.0104945
1.0148706
1.0100537
1.0101992
1.014769
1.0127609
1.016809
1.0210917
1.0145858
1.0126132
1.019788
1.0190203
1.0108089
1.0139894
1.0303763
1.0418036
1.0389609
1.0222785
1.0075155
1.0082767
1.0213582
1.0250875
1.0190779
1.0081782
1.0050578
1.014765
1.0280704
1.0366894
1.0369149
1.0276363
1.0208439
1.0205258
1.0274358
1.0409545
1.0560939
1.0622362
1.0567948
1.0461699
1.0391358
1.0034339
1.011249
1.0124567
1.0130257
1.0118527
1.0145869
1.014142
1.0122012
1.0134432
1.0111308
1.0132316
1.0114424
1.0117513
1.011296
1.0136521
1.0112068
1.0097858
1.013364
1.0101309
1.0102293
1.0147352
1.0129152
1.0167752
1.0206489
1.0144348
1.0131759
1.0214825
1.0213421
1.0111356
1.0113302
1.028721
1.0440587
1.0422411
1.0236485
1.0064283
1.0065494
1.0207471
1.0277022
1.0238537
1.0124164
1.0056081
1.0093832
1.0173264
1.0276943
1.0373134
1.0379312
1.0353681
1.0332561
1.032098
1.0344298
1.0433009
1.0533935
1.0577994
1.0554857
1.0491941
1.003643
1.0112637
1.0123729
1.0132442
1.0122231
1.0148435
1.0144597
1.0126946
1.013524
1.0106342
1.0134668
1.0114559
1.0105474
1.0110204
1.0139416
1.0118997
1.0095583
1.0113487
1.0103813
1.0107042
1.0143361
1.0125547
1.0161041
1.0194583
1.0130416
1.0121961
1.0219322
1.0233502
1.0117123
1.0084812
1.0256752
1.0451022
1.0453458
1.0259963
1.0062862
1.0053565
1.0193537
1.0291878
1.0268864
1.0160147
1.0078279
1.0066501
1.0085323
1.017898
1.0335054
1.0451148
1.0494746
1.0484732
1.0426359
1.0358039
1.0349503
1.0441237
1.0553148
1.0621981
1.0617219
1.0039282
1.01132
1.012532
1.0134209
1.0127761
1.0152456
1.0147589
1.0132176
1.0135211
1.0104339
1.0128335
1.0114738
1.0094781
1.0106018
1.0140921
1.0126165
1.0098327
1.0092551
1.0106821
1.0116828
1.0138159
1.0118875
1.0150856
1.0178196
1.0109751
1.0100423
1.0213286
1.024805
1.0123768
1.0057474
1.0216856
1.0448241
1.0480361
1.0288346
1.0069727
1.0048193
1.0175769
1.0299342
1.0286459
1.0189589
1.0108594
1.0058251
1.0022939
1.008001
1.0266339
1.0479871
1.0611804
1.0638512
1.0567883
1.0430214
1.0334571
1.0373171
1.0498655
1.0628029
1.0705704
1.0042218
1.0114033
1.0127093
1.0135063
1.0134228
1.0156232
1.0150685
1.0137231
1.0136236
1.0104994
1.0115755
1.0116415
1.0087156
1.0101815
1.0141656
1.013431
1.0106224
1.0075437
1.011013
1.012968
1.0134288
1.0112183
1.0139933
1.0162456
1.0089008
1.0074022
1.0199872
1.0256785
1.0132963
1.0034044
1.0175093
1.0432967
1.0504515
1.0320787
1.0084054
1.0044857
1.0158254
1.0300961
1.029826
1.0212584
1.013653
1.0064734
0.99852782
0.999753
1.0176817
1.0461536
1.0687406
1.0770621
1.0708295
1.053056
1.0372193
1.0347415
1.0442468
1.0594759
1.0729457
1.0045513
1.0114939
1.0129021
1.0135686
1.0141043
1.0159347
1.0152706
1.0141866
1.0138445
1.0108278
1.0101477
1.0119587
1.0084114
1.0099387
1.0143735
1.0144163
1.0117922
1.0063417
1.0114966
1.0145222
1.0133622
1.010796
1.0131033
1.0151282
1.0072266
1.0047399
1.0182107
1.026086
1.0145267
1.0016885
1.013422
1.0410671
1.0523255
1.0354108
1.0105027
1.004176
1.0145135
1.0299343
1.0309469
1.0231125
1.0162756
1.0075407
0.99666867
0.99299231
1.0079371
1.0397489
1.0703407
1.0862968
1.0821268
1.0627048
1.0436768
1.0350628
1.0395463
1.0544547
1.0701809
1.0047692
1.0115885
1.0130751
1.0135565
1.0147842
1.0162546
1.0155508
1.0146774
1.0141939
1.0113388
1.0089648
1.0124038
1.0084559
1.009944
1.0149094
1.0155497
1.0131185
1.0057167
1.0120662
1.0161713
1.0137051
1.0107162
1.0125452
1.0145231
1.0060871
1.0023946
1.0163531
1.0261666
1.0158144
1.0005111
1.0098839
1.0381792
1.0537111
1.0384015
1.0128883
1.0037383
1.0133605
1.029864
1.0320878
1.0255199
1.0189113
1.0092111
0.99596975
0.98773184
0.99868853
1.0293892
1.0674451
1.091506
1.0899306
1.0695233
1.047575
1.0333757
1.0329744
1.0452146
1.063287
1.0050731
1.0117654
1.0133426
1.0137699
1.0155289
1.0167624
1.0160231
1.0152165
1.0145774
1.0117301
1.0081147
1.0127805
1.0086911
1.0100906
1.0154806
1.0166786
1.014407
1.0056204
1.0125003
1.0177272
1.0144823
1.0109939
1.0123214
1.0143211
1.0055514
1.0006154
1.0143191
1.0261057
1.01713
0.9999697
1.0061317
1.0348127
1.0555749
1.0415479
1.0156941
1.0025414
1.0098971
1.0271459
1.0322704
1.0269927
1.0211842
1.011515
0.99667923
0.98392821
0.98748093
1.0148141
1.0576817
1.0911725
1.0965563
1.0790445
1.0519249
1.0308826
1.0243098
1.0306203
1.0461667
1.0055191
1.0120946
1.0138254
1.0142468
1.0162902
1.0173542
1.0166233
1.0157382
1.0148566
1.0121153
1.0076692
1.0128852
1.008865
1.0100836
1.0156635
1.0173861
1.0153956
1.0059283
1.0125116
1.0183476
1.0152571
1.0114091
1.0123459
1.0144482
1.0058332
0.9998291
1.0121082
1.025173
1.0182371
1.0007504
1.0038018
1.0299164
1.0538675
1.0441017
1.0198999
1.003922
1.007611
1.0228811
1.0301351
1.0262983
1.0217617
1.0142409
1.0008786
0.98621767
0.98312609
1.0018883
1.0410025
1.0773472
1.0901724
1.081917
1.0592217
1.0363771
1.0237617
1.0229796
1.0314048
1.0519651
1.0709776
1.0832771
1.0851498
1.0818805
1.0722453
1.0577439
1.0452114
1.039353
1.0398411
1.0479295
1.0599986
1.0738823
1.0896541
1.1041175
1.1184754
1.128484
1.1371368
1.1424348
1.1448062
1.161055
1.207143
1.2476199
1.1971934
1.0928625
1.0279522
1.0627573
1.0736558
1.0884443
1.0919875
1.088108
1.0793062
1.0672994
1.0558081
1.0492001
1.0491824
1.0572883
1.0740368
1.0949572
1.1144048
1.129351
1.1370564
1.1345366
1.129562
1.123264
1.1163336
1.1144185
1.1286517
1.1775428
1.2353748
1.2251421
1.1405345
1.066926
1.087448
1.0759648
1.0839203
1.0836759
1.0797031
1.0721172
1.0642668
1.0591522
1.0595082
1.0663599
1.0809965
1.102866
1.1274657
1.1472582
1.154892
1.1510041
1.1396501
1.1256352
1.1160364
1.1082747
1.1055966
1.1094455
1.1404514
1.1820576
1.2029408
1.1875567
1.1421476
1.1441169
1.0661361
1.0700031
1.0710793
1.0717992
1.0696463
1.0686279
1.0702203
1.0754368
1.0857476
1.1017563
1.1221244
1.1422388
1.1549613
1.1540431
1.1442131
1.1316131
1.1220966
1.1227939
1.126137
1.1238437
1.1168703
1.1198595
1.1336414
1.1575756
1.205945
1.232374
1.2214568
1.0624352
1.0663118
1.0726353
1.07849
1.0815724
1.0846169
1.0881573
1.0932385
1.1018782
1.1152603
1.1311432
1.1447422
1.1488631
1.1411024
1.1294959
1.1199697
1.1214908
1.1356038
1.1503507
1.1522527
1.1399529
1.122688
1.1130656
1.128081
1.2027411
1.2965657
1.2843034
1.0745754
1.0822023
1.0937185
1.1020359
1.1059524
1.1082098
1.1091175
1.1104413
1.1148521
1.1252524
1.1401293
1.1520316
1.1519896
1.1409875
1.1274594
1.1189678
1.1272479
1.1489206
1.1699455
1.1753492
1.165361
1.1452727
1.1243558
1.1337907
1.2011588
1.3091091
1.2975437
1.0999276
1.1099801
1.1204817
1.1263618
1.1280667
1.1269474
1.1238905
1.1216376
1.1254671
1.1388308
1.1580951
1.1732549
1.1739462
1.1620772
1.1475004
1.1394041
1.1426399
1.158221
1.1733917
1.1780066
1.1758557
1.1733078
1.1659201
1.1700259
1.2074742
1.2779229
1.2556461
1.1180645
1.1260636
1.1323574
1.1346105
1.1327478
1.1287858
1.1243618
1.1250773
1.1371444
1.1610657
1.1892077
1.2093173
1.2128086
1.2047748
1.1901552
1.1750179
1.1678237
1.1678834
1.1670168
1.1666345
1.173789
1.195421
1.2177386
1.2223495
1.2241515
1.2248575
1.1879024
1.1084911
1.1119364
1.1161619
1.1171112
1.1161043
1.1145028
1.1160987
1.1284558
1.1555716
1.1928024
1.229292
1.2541288
1.2634567
1.2589518
1.2402896
1.2163978
1.1963698
1.1779154
1.1623778
1.1560603
1.1698139
1.2086501
1.2550653
1.2655301
1.2369135
1.1825249
1.1328757
1.0704744
1.0739222
1.0797265
1.0851028
1.0887347
1.0948422
1.1093208
1.1379497
1.1798684
1.2272838
1.2695725
1.2973696
1.3089572
1.3010765
1.2804828
1.2518697
1.2216467
1.1930818
1.172005
1.161128
1.1740458
1.2142625
1.2613713
1.2710125
1.2321919
1.1639748
1.1127737
1.031745
1.0359612
1.0460891
1.0557689
1.0678945
1.084748
1.1132111
1.1557071
1.2075797
1.2593794
1.2996789
1.3219837
1.3252377
1.3117034
1.2898866
1.2652068
1.2400463
1.2155636
1.1962024
1.1857653
1.1910795
1.2164159
1.2443469
1.2449129
1.2126831
1.1655017
1.1372129
1.0104734
1.0194975
1.033755
1.0483539
1.067797
1.0976927
1.139303
1.1897547
1.2416016
1.2840648
1.3094875
1.3158578
1.3046629
1.2869684
1.2695786
1.2566296
1.2470493
1.2375262
1.2284419
1.2231184
1.223715
1.2247852
1.2210861
1.2107688
1.192236
1.1856582
1.198537
1.0137854
1.0271286
1.0486008
1.0740653
1.1060443
1.1462573
1.1909469
1.2363563
1.2745764
1.2973405
1.3006101
1.2868703
1.2635645
1.2442468
1.2341252
1.2369952
1.2456293
1.255826
1.2625565
1.2635512
1.2572695
1.2401791
1.2148908
1.192715
1.1883012
1.2207164
1.2755473
1.0489032
1.067156
1.0981834
1.1348483
1.1753602
1.2149695
1.2515274
1.2814714
1.2987711
1.2982703
1.2809983
1.2524954
1.2247989
1.2069734
1.2044891
1.2172636
1.2421223
1.2678459
1.2881056
1.2944829
1.2847071
1.259401
1.2283008
1.2047548
1.2157209
1.2762521
1.3482938
1.1125265
1.1391451
1.1778595
1.2176593
1.2506746
1.2776717
1.2999149
1.3131871
1.3120808
1.2951409
1.2673817
1.233678
1.203731
1.1892236
1.1925145
1.2117701
1.2425497
1.2745911
1.2974975
1.3039147
1.2962221
1.2785395
1.2592855
1.253216
1.2792289
1.3473485
1.3889962
1.1798505
1.216335
1.2628373
1.2958723
1.3137034
1.3244727
1.3317878
1.3327353
1.3229512
1.3019699
1.2740575
1.2410804
1.2136057
1.2007858
1.2050061
1.2238807
1.2508948
1.2761469
1.289574
1.2901533
1.2878869
1.2890023
1.3006761
1.3243017
1.3658511
1.4131264
1.4040352
1.2250222
1.2682306
1.3143554
1.3366438
1.344585
1.3495755
1.3537817
1.3536544
1.3457604
1.3296055
1.3055991
1.2766577
1.251514
1.2389437
1.2401149
1.2527622
1.2673593
1.2748654
1.270899
1.2634713
1.267865
1.2897144
1.3328972
1.3899467
1.4417475
1.4584593
1.4093543
1.2342908
1.2797739
1.3208355
1.3350388
1.3414185
1.3517174
1.3660707
1.3790691
1.3847252
1.3784836
1.3613612
1.3366596
1.3130298
1.2982649
1.292573
1.2914533
1.2866716
1.2732713
1.2534641
1.2415133
1.2499393
1.2841146
1.3468042
1.4207988
1.4683008
1.4596707
1.4075198
1.2084691
1.256249
1.2923564
1.3023438
1.3122928
1.3339988
1.3670605
1.4028813
1.4307248
1.4431445
1.4392158
1.4221657
1.4002145
1.3793229
1.360344
1.3394974
1.3122736
1.2793402
1.2495058
1.2352079
1.2441907
1.2833838
1.3443139
1.4062355
1.4344859
1.4170266
1.3854922
1.1681711
1.2155595
1.2483037
1.2607837
1.2775624
1.3112804
1.3620415
1.4206848
1.4733531
1.5101413
1.5273949
1.5261373
1.5095739
1.4817415
1.4446216
1.399968
1.3513799
1.3046733
1.2688398
1.2523668
1.2594211
1.2887435
1.3281017
1.3611134
1.3651293
1.3487227
1.343553
1.1395827
1.1819466
1.2109411
1.2244069
1.2460869
1.2879549
1.3509294
1.4271922
1.5034684
1.5685045
1.6130653
1.6346369
1.6258742
1.5937419
1.542575
1.4796626
1.4149837
1.3575618
1.3157648
1.2944891
1.2917457
1.3021939
1.3095055
1.3075592
1.2943884
1.2799312
1.2998324
1.1273493
1.1658319
1.1935445
1.2079697
1.2303584
1.2728859
1.3387293
1.421898
1.5130784
1.6013486
1.6750943
1.7229207
1.7323727
1.7061037
1.652059
1.5822156
1.5091074
1.4432531
1.3921469
1.3581943
1.3373531
1.3209063
1.296736
1.2670174
1.2441581
1.2324588
1.2669802
1.1287477
1.1662497
1.1950296
1.211095
1.2332496
1.2726634
1.3328832
1.4113454
1.5013764
1.5962064
1.6875158
1.7622128
1.8035916
1.7968743
1.7597242
1.7020373
1.6320986
1.5632896
1.4983989
1.4416898
1.3925016
1.3465693
1.2976381
1.2522778
1.2215319
1.2131697
1.2522681
1.1428035
1.1830249
1.217065
1.2372213
1.2592581
1.292196
1.340218
1.4035583
1.4808997
1.5691289
1.6602359
1.7405031
1.7979135
1.827545
1.8255163
1.8011825
1.7574154
1.6986661
1.6268021
1.5465423
1.4641771
1.3861521
1.3172639
1.2628527
1.2288029
1.2227173
1.2621681
1.1726586
1.2179025
1.2597142
1.2859258
1.3099105
1.3399094
1.3791842
1.4272452
1.4835846
1.5476316
1.615183
1.6804388
1.7374558
1.7805445
1.8100453
1.8267039
1.8265584
1.800463
1.7424699
1.6559737
1.5522498
1.4501286
1.3639588
1.3010172
1.2646003
1.2623478
1.2990682
1.2218825
1.2735487
1.322654
1.354098
1.3808773
1.4093367
1.4401437
1.4713932
1.5036303
1.5393983
1.5787117
1.6211681
1.6628656
1.7006719
1.7379411
1.7726148
1.8017449
1.8165516
1.800467
1.7395968
1.6459145
1.5358672
1.4379518
1.3666969
1.3273478
1.3255461
1.3597794
1.295114
1.3533661
1.4068885
1.4399323
1.4645653
1.4869287
1.5073043
1.5243885
1.5368911
1.5470122
1.5591997
1.5757727
1.5947182
1.6144163
1.6430203
1.6782833
1.7161416
1.7535636
1.7775013
1.7688859
1.7163997
1.6305665
1.5361639
1.4572588
1.4098986
1.4003609
1.428941
1.3942446
1.4577768
1.5134839
1.5439152
1.5614585
1.5726226
1.5770503
1.5759633
1.5687466
1.5594484
1.5484439
1.5405575
1.5376034
1.5420371
1.5539632
1.5769145
1.6123804
1.6591539
1.7075176
1.7441934
1.7470071
1.7090253
1.6395537
1.5604511
1.4991908
1.4713427
1.4868071
1.5269369
1.595453
1.6499372
1.6709553
1.6752539
1.6643193
1.643784
1.6166374
1.5879522
1.5603056
1.5319979
1.5087777
1.4908743
1.4810854
1.4857054
1.4982721
1.5292448
1.574998
1.6329552
1.6941353
1.7384108
1.7471618
1.7135442
1.6467152
1.5750102
1.5303067
1.5337145
1.6993098
1.7715008
1.8166214
1.8195255
1.7965025
1.753389
1.7007795
1.6454169
1.5934985
1.5457628
1.5077002
1.4753077
1.4552243
1.4444524
1.4442747
1.456069
1.4786491
1.5164018
1.5714264
1.6351241
1.6944002
1.7297536
1.7262295
1.6840706
1.6247584
1.5818196
1.5857316
1.9077656
1.9739197
1.9892095
1.9582063
1.8955933
1.816394
1.7308943
1.6492017
1.5804348
1.5248357
1.4870479
1.4612532
1.4442771
1.4367147
1.4354991
1.4424472
1.4538911
1.4755488
1.5101627
1.5654093
1.6179183
1.6610372
1.6801602
1.6700977
1.6459445
1.6319524
1.6501509
2.1178712
2.1524701
2.1319044
2.0657838
1.96804
1.8578535
1.7482086
1.6525545
1.5748176
1.517023
1.4811332
1.4634903
1.455497
1.4507553
1.444856
1.4431086
1.4378717
1.4387804
1.4508418
1.4817267
1.5235669
1.5668092
1.6057731
1.6330772
1.6540095
1.6800056
1.7178758
2.2801179
2.2820513
2.2307641
2.1369364
2.0225512
1.8981354
1.7780064
1.6743894
1.5920941
1.5304606
1.496375
1.4782243
1.4713018
1.4648507
1.4524218
1.436376
1.4160227
1.3998537
1.3937142
1.4129942
1.4434056
1.4897269
1.5440637
1.600305
1.6578894
1.7176192
1.7737389
2.3919036
2.3801213
2.3237505
2.2274976
2.1060114
1.9672926
1.8333059
1.7172691
1.623672
1.5554764
1.512001
1.4885324
1.4772676
1.4673197
1.4502954
1.4250733
1.3964371
1.3704441
1.35382
1.3617332
1.3889146
1.4393303
1.5025853
1.5818012
1.6635354
1.7452152
1.8077628
2.4783372
2.4832176
2.4323009
2.3286621
2.1917959
2.0334193
1.8836405
1.7573841
1.6522357
1.5752559
1.5242269
1.4939346
1.4762353
1.4620084
1.4439672
1.4171978
1.3876041
1.3623593
1.3419293
1.3426226
1.3655341
1.4110506
1.4806767
1.5704459
1.6696587
1.7670007
1.8286898
2.5470789
2.5764299
2.5287747
2.4105915
2.2550523
2.081176
1.9208794
1.7851126
1.6725206
1.5880131
1.5311445
1.4981374
1.4797024
1.4664105
1.4505908
1.4260531
1.3973725
1.3706004
1.3485023
1.343003
1.3571605
1.3989697
1.4718666
1.5717142
1.6844425
1.7906175
1.8487478
2.559041
2.6163045
2.5647414
2.4393276
2.2737418
2.1003195
1.9412757
1.8065151
1.6946298
1.6092169
1.5509935
1.5157623
1.4951626
1.4809065
1.4656618
1.4418561
1.4123972
1.3826052
1.3580306
1.3486228
1.3608892
1.4013828
1.4764552
1.5842282
1.7074181
1.820749
1.8740751
2.5101608
2.5729631
2.5225729
2.4075694
2.2532616
2.0979395
1.9542411
1.8292758
1.7238119
1.6423269
1.5844572
1.5456795
1.5206239
1.502567
1.4838721
1.4594185
1.4303144
1.3989496
1.3730663
1.3621436
1.3739898
1.4150983
1.4934168
1.606115
1.7363473
1.8552981
1.9054638
2.4398234
2.4959277
2.4470287
2.3383452
2.2070281
2.0743816
1.9513184
1.8429013
1.7509028
1.6784608
1.6239179
1.5835649
1.5533695
1.5286756
1.5048711
1.4791351
1.4489474
1.4174919
1.3914147
1.3811556
1.3949904
1.4391946
1.5206901
1.634329
1.7672109
1.8843235
1.9335756
2.4117925
2.4330535
2.3751278
2.2750766
2.1639032
2.0530993
1.9499882
1.8578162
1.7798633
1.7151931
1.6643644
1.6239761
1.5907671
1.5614892
1.5337978
1.5038584
1.4724825
1.4413679
1.4187152
1.4115696
1.430559
1.4793527
1.5635665
1.6747905
1.8009583
1.9089109
1.9550291
2.4287549
2.4143768
2.34374
2.2519819
2.1535126
2.0569569
1.9670358
1.8860859
1.8176041
1.7613123
1.7160501
1.6790757
1.6469968
1.6171982
1.5848935
1.5516176
1.5179931
1.4874257
1.4671504
1.4643865
1.4887359
1.5444495
1.6302304
1.7375011
1.8506431
1.93426
1.9683062
2.475189
2.4500077
2.3778766
2.287797
2.1923232
2.1003859
2.0165612
1.943742
1.8854802
1.8399827
1.8049536
1.7769087
1.7500887
1.7222336
1.6867937
1.6481738
1.6093604
1.5763289
1.5567174
1.5592591
1.5959646
1.6601187
1.7504745
1.8565527
1.9594393
2.0302734
2.0823989
2.5783834
2.5899536
2.5285597
2.4224319
2.3061846
2.1992919
2.1101592
2.040287
1.9918016
1.962299
1.9467296
1.9390809
1.9316469
1.9165378
1.8911905
1.8496271
1.8017376
1.7585298
1.7329857
1.7385456
1.7776066
1.8525206
1.9500707
2.0629623
2.1705697
2.2538233
2.352471
2.8865317
2.9240812
2.8401201
2.6857065
2.5185984
2.3760787
2.2724538
2.1997669
2.1643471
2.1544084
2.1659565
2.1908629
2.2217341
2.2451543
2.2453271
2.2268761
2.1744552
2.1162369
2.0765113
2.0732736
2.1121705
2.1853672
2.2764992
2.3809948
2.4827479
2.5787549
2.6936707
3.3687427
3.3157202
3.1744236
2.9986529
2.8252476
2.6775184
2.5675086
2.5010141
2.496918
2.545566
2.6344273
2.7419385
2.840661
2.9139483
2.9570605
2.9659494
2.9165604
2.8453857
2.7703651
2.7442087
2.7691019
2.8193702
2.8546891
2.8683499
2.8769318
2.902807
2.9311477
4.2305483
4.1516928
4.0096177
3.8466862
3.7000828
3.5881209
3.5224812
3.5183205
3.5874505
3.7257618
3.9420892
4.2137615
4.4979877
4.6747638
4.6818984
4.5597575
4.4304524
4.3736468
4.3089582
4.3005971
4.2262466
4.0258159
3.7603838
3.4873376
3.2723757
3.113927
2.96119
8.2364332
8.2599588
7.8401805
7.1614491
6.4153497
5.7406015
5.2124206
4.8378551
4.6601963
4.6731668
4.7706348
4.8204119
4.6939891
4.5017627
4.2722984
4.1216531
4.1438248
4.3746602
4.9057887
5.6351865
6.2666598
6.1870104
5.3507915
4.4009312
3.6865837
3.2101086
2.9139169
9.0075144
8.9380702
8.2188825
7.1904079
6.2390924
5.4485089
4.8257712
4.3599099
4.0413236
3.847147
3.7260084
3.6497095
3.571667
3.4833077
3.3888248
3.3412463
3.4018693
3.6512345
4.2038412
5.2146128
6.5722638
7.4906525
6.6855669
5.0497804
3.897583
3.2304015
2.8603544
6.7789362
6.493855
6.0583169
5.6286642
5.1988075
4.7588743
4.3197818
3.922338
3.5829084
3.3245435
3.1431162
3.0318308
2.9780229
2.9688963
2.990565
3.0422809
3.1563831
3.3858353
3.801519
4.4783338
5.309045
5.8166065
5.4427559
4.5189088
3.7130095
3.1593637
2.8104448
5.6442765
5.1507625
4.6550947
4.3334851
4.1244575
3.9707626
3.8303561
3.6816865
3.5261935
3.3704142
3.2276462
3.1163988
3.0478843
3.0229111
3.0373807
3.0861115
3.1754755
3.3179112
3.5214013
3.7480566
3.8991542
3.9024799
3.7477896
3.4864106
3.2071404
2.9534441
2.7546309
4.276874
3.9166209
3.6164408
3.4451923
3.3549018
3.3169243
3.311635
3.321648
3.329398
3.3238064
3.3010897
3.2613954
3.2110481
3.1612737
3.1220004
3.0968975
3.0841135
3.0823037
3.0812009
3.053135
2.990436
2.916937
2.8437125
2.7556925
2.6831084
2.6373971
2.6183674
3.3601931
3.2211469
3.1059129
3.0361697
2.9988479
2.9907554
3.0159148
3.0680342
3.1319967
3.1944289
3.2403513
3.2529497
3.2184383
3.1358333
3.024412
2.9042295
2.7979328
2.7164801
2.6442068
2.5637971
2.4838116
2.4171243
2.3442395
2.279232
2.2464118
2.2732402
2.3623128
3.1237228
3.0218785
2.9375069
2.8846881
2.8538448
2.8493061
2.8768402
2.9292226
2.9926084
3.0546254
3.1004979
3.1074042
3.0506531
2.9267638
2.7715057
2.6126941
2.4831831
2.3855555
2.3063235
2.2250706
2.1455879
2.0633761
1.9820575
1.919387
1.904345
1.946666
2.0365363
3.0893112
2.9891079
2.9101013
2.8573289
2.829528
2.8308356
2.8535227
2.8848811
2.9139474
2.9316325
2.9275489
2.8821291
2.7820334
2.6394455
2.4827673
2.3419422
2.2295354
2.1434824
2.0712286