/*--------------------------------*- C++ -*----------------------------------*\
| =========                 |                                                 |
| \\      /  F ield         | OpenFOAM: The Open Source CFD Toolbox           |
|  \\    /   O peration     | Version:  2406                                  |
|   \\  /    A nd           | Website:  www.openfoam.com                      |
|    \\/     M anipulation  |                                                 |
\*---------------------------------------------------------------------------*/
FoamFile
{
    version     2.0;
    format      ascii;
    arch        "LSB;label=32;scalar=64";
    class       volScalarField;
    location    "17";
    object      rho_0;
}
// * * * * * * * * * * * * * * * * * * * * * * * * * * * * * * * * * * * * * //

dimensions      [1 -3 0 0 0 0 0];

internalField   nonuniform List<scalar> 
96472
(
1.0020957
1.0041463
1.0048444
1.0062377
1.006897
1.0069614
1.0070082
1.0072826
1.0075949
1.0076949
1.0077289
1.0077733
1.0079415
1.0083767
1.0088493
1.009559
1.0102005
1.0109404
1.0117262
1.0123839
1.0130091
1.0135519
1.0139249
1.0143413
1.0147597
1.0150642
1.0153779
1.015822
1.0161547
1.0165108
1.0169076
1.0173182
1.0177015
1.0180353
1.0184226
1.0188228
1.0191992
1.0195143
1.0197481
1.0198819
1.0200794
1.0201648
1.0202281
1.0205308
1.0202556
1.0203749
1.0205586
1.0202539
1.0202708
1.0202911
1.0201647
1.0200077
1.0198762
1.0199463
1.0196605
1.0021324
1.0043152
1.0050658
1.0064813
1.0071397
1.0072054
1.0072532
1.0074954
1.0077734
1.0078677
1.0079051
1.0079574
1.0081408
1.0085215
1.0090366
1.0096201
1.0103411
1.0109913
1.0116538
1.0123183
1.0128916
1.013463
1.0139217
1.0143251
1.0146148
1.0149908
1.015311
1.0155573
1.0159524
1.0163375
1.01674
1.0171482
1.0175645
1.0179478
1.0183103
1.0186394
1.0189796
1.0192387
1.0194824
1.0196491
1.0197816
1.0199263
1.0201007
1.0200137
1.0203036
1.0201671
1.0200883
1.0201905
1.0201142
1.0199982
1.0199422
1.0198898
1.0198857
1.0196362
1.0195342
1.0021828
1.0044924
1.005303
1.0067342
1.0074054
1.0074729
1.0074963
1.0077111
1.0079785
1.0080843
1.008109
1.0081499
1.0083354
1.0086587
1.0092247
1.0097463
1.0104022
1.0111037
1.0116999
1.0123039
1.0128444
1.013308
1.0138074
1.0141974
1.0145652
1.0148119
1.0151123
1.0154125
1.015682
1.016017
1.0163651
1.0167451
1.0171397
1.0175612
1.0179965
1.0183862
1.018695
1.019001
1.0192155
1.0193774
1.0195558
1.0196716
1.0197303
1.0199626
1.0198158
1.0199516
1.0200099
1.0198419
1.0198263
1.0198956
1.019793
1.0197692
1.0194551
1.0195991
1.019477
1.0022316
1.0046739
1.0055424
1.0069887
1.007667
1.0077392
1.0077344
1.0079209
1.0081863
1.0083084
1.00835
1.0084024
1.0085446
1.0088932
1.0093441
1.0099446
1.0104858
1.0111588
1.0118086
1.0123684
1.0129164
1.0133596
1.0137107
1.0140695
1.0144058
1.0147642
1.0149921
1.0153056
1.0156316
1.0159462
1.0162782
1.0166635
1.0170165
1.0173478
1.0177089
1.018106
1.0184567
1.0187341
1.0189787
1.019152
1.0192645
1.0194124
1.0195735
1.0195276
1.0197305
1.0197264
1.0195562
1.0197009
1.0197147
1.0195621
1.0195466
1.0194291
1.0195984
1.0194386
1.0192594
1.0022828
1.004853
1.0057724
1.0072372
1.0079218
1.0079991
1.0079864
1.0081335
1.0083787
1.0084945
1.0085654
1.0086436
1.0087694
1.0091212
1.0095118
1.0100736
1.0106736
1.0112354
1.0118312
1.012384
1.0128693
1.0133646
1.0137258
1.0140856
1.0143438
1.0146017
1.0149183
1.015186
1.0154938
1.0158012
1.0161622
1.0165338
1.0169047
1.017249
1.0175701
1.0178901
1.0182058
1.0184782
1.0187082
1.0188917
1.0190519
1.0191612
1.0192388
1.0194262
1.0193966
1.0193633
1.0195497
1.0194837
1.0192796
1.0194224
1.0194037
1.0194235
1.0192581
1.019059
1.0190891
1.0023306
1.0050253
1.0059939
1.0074749
1.0081638
1.0082433
1.0082338
1.0083576
1.0085714
1.0086993
1.0087759
1.0088456
1.0089958
1.00927
1.0097463
1.0101886
1.0108118
1.0114008
1.0118934
1.0124148
1.0128477
1.0132485
1.0136817
1.0140064
1.0143295
1.0145786
1.0148004
1.0150218
1.0152561
1.015556
1.0158631
1.0161795
1.0165273
1.0168992
1.0172817
1.017654
1.017967
1.0182365
1.0184737
1.018648
1.0187633
1.0189274
1.0190327
1.019115
1.0191303
1.0193087
1.0191623
1.0190982
1.0193141
1.0192368
1.0190736
1.0190963
1.0189042
1.0193175
1.0190358
1.0023823
1.0051885
1.0061947
1.0076938
1.0083882
1.008482
1.0084701
1.0085663
1.0087748
1.0089294
1.0090117
1.0090864
1.0092255
1.0094756
1.0099236
1.0104024
1.010903
1.0115179
1.0120474
1.0125014
1.0129738
1.0133104
1.0136161
1.0139505
1.0142143
1.014524
1.0147431
1.0149973
1.0152496
1.0154935
1.0157633
1.0160852
1.0164061
1.0167099
1.0170237
1.0173717
1.0177077
1.017992
1.0182132
1.0183989
1.0185511
1.0186654
1.0187879
1.0188579
1.0190027
1.0188897
1.0189694
1.0191384
1.0189597
1.0188317
1.0189697
1.0189515
1.0192351
1.0185955
1.018709
1.0024218
1.005342
1.0063706
1.0078868
1.0085996
1.0087146
1.0086907
1.008763
1.0089631
1.0091278
1.0092482
1.0093593
1.0094467
1.009751
1.0100746
1.010605
1.0110915
1.0116112
1.0121487
1.012598
1.0130035
1.0134083
1.0136966
1.01397
1.0142269
1.0144444
1.0146662
1.0148759
1.0151425
1.0154043
1.0156977
1.0160147
1.0163366
1.0166384
1.0169229
1.0172044
1.0174964
1.0177679
1.0179882
1.0181699
1.0183156
1.0184581
1.0185269
1.0186932
1.0186345
1.0187891
1.0188259
1.0187191
1.0186336
1.0189585
1.0187068
1.0188606
1.01842
1.0187404
1.0189094
1.0024678
1.0054677
1.0065222
1.0080535
1.008781
1.0089222
1.0089041
1.0089647
1.0091475
1.009311
1.0094493
1.0095795
1.0096837
1.0099487
1.0103007
1.0107242
1.011294
1.0118052
1.0122489
1.0126951
1.0130319
1.0133844
1.0137367
1.0140087
1.0142591
1.0144665
1.0146662
1.014853
1.0150248
1.015228
1.0154767
1.0157243
1.0160106
1.0163168
1.0166461
1.0169739
1.0172693
1.0175349
1.0177385
1.0179436
1.0180662
1.0182159
1.0183543
1.0183431
1.0185453
1.0185318
1.0185276
1.0185094
1.0188145
1.0183525
1.0186955
1.0184038
1.0185944
1.0189375
1.0182096
1.0025045
1.0055761
1.0066399
1.0081977
1.0089429
1.0091169
1.0091166
1.009158
1.0093254
1.0095165
1.009662
1.0097757
1.0099277
1.0101147
1.0105201
1.0109149
1.0114139
1.0119924
1.0124401
1.0128286
1.0132134
1.0134826
1.0137209
1.0140279
1.014248
1.0144923
1.0146754
1.0148373
1.0150257
1.0152113
1.0154086
1.0156448
1.0159183
1.0161785
1.0164379
1.0167414
1.0170424
1.017315
1.0175341
1.0176952
1.0178755
1.0180012
1.0180782
1.018262
1.0182234
1.0183351
1.018328
1.0184959
1.0181416
1.0185922
1.0182227
1.0185406
1.0186225
1.0179925
1.0182864
1.0025378
1.0056573
1.0067325
1.0083117
1.0090832
1.0092993
1.0093177
1.0093414
1.0094978
1.009708
1.0098882
1.0100252
1.0101371
1.0103633
1.0106771
1.0111509
1.0115927
1.0121213
1.0126168
1.0129903
1.0133496
1.0136671
1.0138801
1.0140817
1.0142858
1.0144817
1.0146386
1.0147869
1.0149545
1.0151381
1.015361
1.015611
1.0158821
1.0161312
1.01637
1.0166156
1.0168719
1.0171254
1.0173288
1.0175125
1.0176505
1.0177766
1.0179373
1.0179552
1.018098
1.0181006
1.0182219
1.0180765
1.018301
1.0181423
1.0183174
1.0182609
1.0179678
1.0182254
1.0186787
1.0025623
1.0057279
1.0067984
1.008405
1.0092099
1.0094709
1.0095053
1.0095195
1.0096633
1.0098713
1.0100669
1.0102561
1.0103455
1.0105878
1.0108712
1.0112992
1.0118205
1.0123113
1.0127598
1.0131663
1.0134409
1.0137376
1.0140175
1.0142071
1.0144117
1.0145457
1.0146871
1.0148082
1.0149593
1.0150918
1.0152435
1.0154229
1.0156465
1.0158797
1.0161378
1.0164108
1.0166732
1.0169224
1.0171393
1.0173033
1.0174543
1.0176085
1.0176814
1.0178436
1.0178318
1.0179833
1.0179276
1.0180331
1.0180719
1.0179612
1.0181413
1.0178971
1.0182231
1.0184786
1.0176216
1.0025829
1.0057714
1.0068463
1.008481
1.0093173
1.0096279
1.0096823
1.0096906
1.0098121
1.0100214
1.0102343
1.0104142
1.0105592
1.0107338
1.0110889
1.011467
1.0119854
1.0125407
1.0129753
1.0133507
1.0136457
1.0138924
1.0140681
1.0143171
1.0144606
1.0146576
1.0147865
1.0148828
1.0149686
1.0150872
1.0152275
1.0153917
1.0155841
1.0157705
1.0159769
1.0162257
1.0164856
1.0167356
1.0169652
1.0171136
1.0172762
1.0173809
1.0175431
1.017589
1.0177584
1.0176812
1.0178668
1.0178599
1.0177662
1.0180882
1.0176376
1.0181028
1.0182237
1.0174421
1.0181297
1.002599
1.0058084
1.0068738
1.0085446
1.0094157
1.0097734
1.0098551
1.0098497
1.0099589
1.010171
1.0104026
1.0105878
1.0107401
1.0109128
1.0112459
1.011676
1.0121463
1.0127142
1.0132101
1.0135542
1.0138761
1.0141347
1.0142732
1.01441
1.014569
1.0147022
1.0147951
1.0148934
1.0149863
1.0150727
1.015179
1.0153477
1.015552
1.0157651
1.0159525
1.0161755
1.0163751
1.0165974
1.016791
1.0169639
1.0170692
1.01725
1.0173288
1.017495
1.0174462
1.0177173
1.0175603
1.0176715
1.0178813
1.0174485
1.0180058
1.0179308
1.0173022
1.0181104
1.0181602
1.0026113
1.0058169
1.006886
1.008588
1.0094983
1.0099099
1.0100207
1.0099997
1.0100777
1.0102965
1.0105407
1.0107628
1.0108948
1.0111061
1.0113954
1.0118427
1.0123527
1.0128935
1.0133892
1.0137794
1.0140479
1.0142786
1.0144831
1.0145936
1.0147236
1.0148091
1.0148862
1.0149155
1.0149992
1.0150928
1.0151687
1.0152752
1.0154349
1.0156294
1.0158001
1.0159981
1.0162109
1.0164172
1.016627
1.0167877
1.0169366
1.017046
1.0172175
1.0172142
1.0174772
1.0173661
1.0175241
1.0176176
1.017383
1.0177792
1.0176361
1.0174093
1.017802
1.018213
1.0171179
1.0026142
1.0058269
1.0068855
1.0086215
1.009576
1.0100402
1.0101706
1.0101379
1.0101935
1.0104052
1.0106522
1.0108896
1.0110343
1.0112396
1.0115643
1.011979
1.0125272
1.0131111
1.0135899
1.0139994
1.0142559
1.0144593
1.0145987
1.01476
1.0148416
1.0149569
1.01502
1.0150507
1.015074
1.0151064
1.0151861
1.0152968
1.0154127
1.0155196
1.01566
1.0158491
1.0160667
1.0162882
1.0164825
1.0166621
1.0167756
1.016919
1.0169834
1.0171943
1.0171806
1.0172829
1.0174372
1.0173198
1.0174754
1.0175726
1.0173314
1.017531
1.0180718
1.0169707
1.0179401
1.0026099
1.0058036
1.0068597
1.008652
1.0096353
1.0101544
1.0103064
1.010257
1.0102838
1.01048
1.0107362
1.0109744
1.0111598
1.011344
1.011697
1.0121312
1.012673
1.0132951
1.0138318
1.0142101
1.0145084
1.0147287
1.014819
1.0148899
1.0149717
1.0150549
1.0150904
1.0151268
1.0151558
1.0151743
1.0151869
1.0152609
1.0153764
1.0155238
1.0156796
1.0158484
1.016035
1.0162169
1.0163752
1.0165259
1.0166575
1.0167493
1.0169034
1.0169807
1.0170408
1.0172731
1.0171371
1.0172884
1.0174814
1.0170906
1.0174755
1.0176878
1.0170848
1.0175998
1.017749
1.0025936
1.0057836
1.0068353
1.0086643
1.0096945
1.0102538
1.0104226
1.0103564
1.01035
1.0105501
1.0108109
1.0110586
1.0112524
1.0114539
1.0118016
1.0122764
1.012829
1.0134526
1.0140244
1.0144417
1.0147276
1.0149266
1.015058
1.015093
1.0151481
1.0151779
1.0151938
1.0151581
1.0151624
1.0152017
1.0152164
1.0152411
1.0153556
1.0155005
1.0156266
1.0157486
1.0159137
1.0160695
1.0162398
1.016384
1.0165254
1.0166451
1.0167494
1.0168164
1.0170484
1.0169537
1.0171283
1.0172802
1.0169677
1.0174404
1.0172872
1.0172224
1.0172445
1.0177754
1.0171838
1.0025777
1.005732
1.0067781
1.008673
1.0097277
1.0103336
1.0105225
1.0104476
1.0104194
1.0105937
1.0108527
1.0111289
1.0113125
1.0115479
1.0118969
1.0123818
1.0129776
1.0136227
1.0141932
1.0146563
1.0149305
1.0151147
1.0152036
1.0152704
1.0153029
1.0153371
1.0153403
1.0152865
1.0152529
1.015233
1.0152382
1.0152787
1.0153681
1.015429
1.0155049
1.0156222
1.0157859
1.0159638
1.0161363
1.0162922
1.0164295
1.0165447
1.0166153
1.0167848
1.0167716
1.0169515
1.0170339
1.0169399
1.0171905
1.017147
1.0171666
1.0170689
1.017593
1.0170561
1.0174913
1.0025513
1.0056865
1.0067213
1.0086427
1.0097461
1.0103912
1.0105987
1.0105063
1.0104566
1.010616
1.010877
1.0111618
1.0113626
1.011607
1.011983
1.0124712
1.0130887
1.0137725
1.0143836
1.0148413
1.0151466
1.0153378
1.0153985
1.0154218
1.0154198
1.0154364
1.0154302
1.0153954
1.0153688
1.0153348
1.0153048
1.0153184
1.0153606
1.0154162
1.0155126
1.0156423
1.0157892
1.0159476
1.0160922
1.0162215
1.0163278
1.0164183
1.0165536
1.0165845
1.0167292
1.0168193
1.0168536
1.0169458
1.0171358
1.0169144
1.0170402
1.0173818
1.0169472
1.017362
1.0171122
1.002535
1.0056149
1.0066272
1.0086011
1.0097432
1.0104308
1.0106544
1.0105553
1.0104763
1.010627
1.0108914
1.0111734
1.0114014
1.0116434
1.0120355
1.0125521
1.0131901
1.0138964
1.0145453
1.0150215
1.0153403
1.0155303
1.0156238
1.0156028
1.0155856
1.0155565
1.0155227
1.0154458
1.0153917
1.0153648
1.015351
1.0153193
1.0153486
1.015438
1.0155318
1.0156321
1.0157411
1.0158646
1.0159885
1.0161194
1.0162253
1.0163345
1.0164211
1.0165253
1.0166413
1.0166717
1.0167852
1.0169866
1.0167324
1.0170199
1.017141
1.0169421
1.0170603
1.0171365
1.0173367
1.0025
1.0055489
1.0065436
1.0085535
1.009725
1.0104453
1.0106869
1.0105782
1.0104796
1.0106202
1.0108847
1.0111809
1.0114161
1.0116803
1.0120735
1.0126112
1.0132674
1.0139956
1.0146647
1.0151815
1.0155051
1.015699
1.0157641
1.0157541
1.0157315
1.0156997
1.0156538
1.015554
1.0154621
1.0153948
1.0153636
1.015333
1.0153671
1.0154282
1.0154679
1.0155354
1.0156375
1.0157681
1.0159005
1.0160411
1.0161631
1.0162636
1.0163518
1.0164681
1.016494
1.0166407
1.0167394
1.0166817
1.0168432
1.0169948
1.0168863
1.0167799
1.0172831
1.0169164
1.0172944
1.0024823
1.0054595
1.0064398
1.0085024
1.0096954
1.0104462
1.0107002
1.010597
1.0104745
1.010607
1.0108718
1.0111796
1.0114261
1.0116941
1.0121012
1.0126553
1.01333
1.0140776
1.0147681
1.015305
1.0156467
1.0158465
1.0159028
1.0158773
1.0158274
1.0157834
1.0157368
1.0156596
1.0155754
1.0155032
1.0154384
1.0154095
1.0154179
1.0154372
1.0154655
1.0155329
1.0156436
1.0157708
1.0158997
1.0160222
1.01613
1.0162104
1.0163016
1.0163434
1.0164871
1.0165428
1.0166119
1.0166559
1.0168706
1.0168044
1.0166967
1.0171831
1.0167908
1.0172178
1.0167904
1.0024394
1.005413
1.0063598
1.0084542
1.0096743
1.0104506
1.0107101
1.0105958
1.0104561
1.0105893
1.0108611
1.0111747
1.0114516
1.0117306
1.0121366
1.0126984
1.0133735
1.0141394
1.0148489
1.0154027
1.0157663
1.0159687
1.0160548
1.0160209
1.015957
1.0158897
1.0158304
1.0157337
1.0156372
1.0155758
1.0155208
1.0154781
1.0154528
1.015468
1.0155141
1.0155761
1.015667
1.0157637
1.015867
1.0159749
1.0160823
1.0161766
1.0162384
1.016333
1.0164195
1.0165046
1.0165759
1.016712
1.0167249
1.0166819
1.0169791
1.0169476
1.0168155
1.016952
1.0170924
1.0024561
1.0053738
1.0063018
1.0084949
1.009712
1.0105041
1.0107565
1.0106232
1.0104601
1.0105895
1.0108823
1.0112382
1.0115392
1.0118611
1.0122614
1.0128085
1.0134691
1.0142219
1.0149254
1.0154937
1.0158657
1.0160855
1.016185
1.0161683
1.0161287
1.0160807
1.0160339
1.0159259
1.0158116
1.0157209
1.0156509
1.0155945
1.0155653
1.0155629
1.0155905
1.0156247
1.0156879
1.0157611
1.0158484
1.0159588
1.0160772
1.0161752
1.0162532
1.016345
1.0164092
1.0165312
1.0166099
1.0167029
1.016734
1.0168424
1.0170125
1.0167344
1.0171401
1.0168866
1.0173246
1.0024792
1.0054307
1.0063389
1.0086124
1.0098984
1.0107229
1.0109569
1.0107731
1.0105527
1.0106547
1.0109854
1.0114203
1.0117704
1.0121763
1.0126579
1.0131339
1.0136778
1.0143224
1.0149849
1.0155522
1.0159437
1.0161969
1.0163112
1.0163424
1.0163357
1.0163142
1.0162944
1.0162211
1.0161266
1.0160308
1.0159393
1.0158836
1.0158624
1.0158462
1.0158413
1.015836
1.0158597
1.0158957
1.0159445
1.0160222
1.0161042
1.016193
1.0162715
1.0163429
1.0164547
1.0165439
1.0166451
1.0167608
1.0168505
1.0169718
1.0169217
1.0170992
1.0170933
1.0172874
1.0171216
1.0026067
1.0057552
1.006469
1.0089212
1.0101771
1.0110477
1.0113388
1.0111342
1.0110101
1.0106693
1.0112304
1.0119681
1.011811
1.0124529
1.0137338
1.0138244
1.0136026
1.0139941
1.0147259
1.0155037
1.016025
1.0162912
1.0163862
1.0164233
1.0164906
1.0164888
1.0164766
1.0164437
1.0163877
1.0163198
1.0162073
1.016163
1.0161431
1.0161947
1.016226
1.0162332
1.0162118
1.0161776
1.0161503
1.0161465
1.0161755
1.0161664
1.0162363
1.0162809
1.0163554
1.016501
1.0166465
1.0167469
1.0168782
1.0169683
1.0170268
1.0172619
1.0172113
1.0172705
1.0172542
1.0175123
1.0172701
1.0171077
1.0171613
1.0172726
1.0171436
1.0172143
1.0174288
1.0173969
1.0175102
1.0174902
1.0176098
1.0178867
1.0176403
1.0179746
1.0181222
1.0179156
1.0184204
1.0183746
1.0184849
1.0187326
1.0187042
1.0190832
1.019057
1.0192786
1.0193772
1.0194538
1.0175061
1.0174918
1.0172968
1.0172282
1.0172356
1.0172691
1.0173437
1.0173183
1.0174157
1.0174679
1.01751
1.017562
1.0175805
1.0177924
1.0177225
1.0178939
1.0180703
1.0179723
1.0183115
1.0182248
1.0184574
1.0185714
1.0186056
1.0188899
1.0188861
1.0190574
1.0190407
1.0177742
1.0175429
1.0173821
1.0172785
1.0172294
1.0173083
1.0172895
1.0173585
1.0173528
1.017389
1.0174376
1.017481
1.0175151
1.0175118
1.0177432
1.017626
1.0178518
1.017927
1.0178829
1.0181892
1.0180512
1.0183469
1.0183449
1.0185023
1.0186004
1.0186671
1.0187561
1.0177383
1.0175255
1.0173495
1.0172484
1.0172721
1.0172427
1.0172433
1.0172797
1.0172734
1.0173005
1.0173304
1.0172882
1.0174239
1.0174122
1.0173965
1.0176803
1.0174443
1.0177691
1.0176965
1.0177696
1.0179843
1.0178798
1.0181622
1.0181137
1.0182555
1.0182604
1.0183409
1.0177322
1.0174283
1.017357
1.0172504
1.0171859
1.0171649
1.0172361
1.0171333
1.0171934
1.0171811
1.0171518
1.0172637
1.0170871
1.017351
1.017231
1.0172815
1.0174787
1.0172418
1.017614
1.0174037
1.0176523
1.0176498
1.0177477
1.0177792
1.0179157
1.0178323
1.0179216
1.0176605
1.0175936
1.0173563
1.0171514
1.0171907
1.0171007
1.0170308
1.0171225
1.0170039
1.0171054
1.0169917
1.0170857
1.0170955
1.0169639
1.0172663
1.0169412
1.0172379
1.0171518
1.0171545
1.0173304
1.0171684
1.0174582
1.0172769
1.0175179
1.017352
1.0176049
1.0174968
1.0177082
1.0175062
1.0173215
1.0171769
1.0169531
1.0170728
1.0169737
1.0168438
1.0170263
1.0168506
1.0169457
1.0169288
1.0168904
1.0169856
1.016811
1.0170986
1.0167498
1.0171031
1.0168346
1.0170316
1.0170448
1.0169573
1.0170975
1.0170137
1.0170949
1.0170728
1.0171026
1.017744
1.0175612
1.0170783
1.0170501
1.0169544
1.0167718
1.0168851
1.0168444
1.0166907
1.0168387
1.0167734
1.0166947
1.0168161
1.0166971
1.0167105
1.0167604
1.0166722
1.0166916
1.0167854
1.0166385
1.0167862
1.0166791
1.0167719
1.0166089
1.0168131
1.0166299
1.016692
1.0174715
1.0172568
1.0169532
1.016784
1.0168395
1.0166809
1.0166192
1.0166935
1.0166014
1.0165231
1.0166281
1.0164839
1.0164617
1.0165889
1.0162861
1.0165106
1.016399
1.0163504
1.0164418
1.0163521
1.0164096
1.0163154
1.0164203
1.016276
1.0163493
1.0162945
1.0162498
1.0174041
1.0168327
1.0168767
1.0165437
1.0165651
1.0166215
1.0163355
1.0164339
1.0164626
1.0161618
1.0163875
1.0162376
1.0160337
1.0163079
1.0160341
1.0160006
1.01619
1.0158611
1.0161066
1.0159528
1.0159702
1.015969
1.0158223
1.0160017
1.0157831
1.0159501
1.0157892
1.0171523
1.0168098
1.0167121
1.0164465
1.0162005
1.0163364
1.0161813
1.0159292
1.0162306
1.0158688
1.0158101
1.0161143
1.0155405
1.0158866
1.0157864
1.0154944
1.0159607
1.015354
1.0157953
1.0154306
1.0156283
1.0154564
1.0154772
1.0154247
1.0154384
1.0153174
1.0154295
1.0168542
1.0166739
1.0164765
1.0161635
1.0158862
1.0159609
1.015763
1.0155953
1.0157693
1.0154474
1.0154743
1.0155609
1.0152445
1.0153992
1.0154003
1.015115
1.0154068
1.0151423
1.0151721
1.0152525
1.014862
1.0152322
1.0148985
1.0150589
1.0148301
1.0149155
1.0148433
1.0162641
1.0162615
1.0160438
1.0157041
1.0155444
1.0155193
1.0152533
1.0153251
1.0151849
1.0150305
1.0150831
1.0149957
1.0148789
1.0149274
1.0148983
1.0146495
1.0149995
1.0145772
1.014761
1.0147117
1.0145225
1.0146933
1.0143539
1.0146511
1.014261
1.0144745
1.0142327
1.0167022
1.0157783
1.0156054
1.0154081
1.0150078
1.0150698
1.0149599
1.0146671
1.0148804
1.0145149
1.0146156
1.0145984
1.0142578
1.0146351
1.0141552
1.0143984
1.0142908
1.0141305
1.0143496
1.0139205
1.0143505
1.0138965
1.0140306
1.0139858
1.0138398
1.0138846
1.0137081
1.014594
1.0147498
1.0149068
1.0147928
1.0147496
1.0144808
1.0145418
1.0144074
1.0141197
1.0143524
1.0138902
1.0140878
1.0140584
1.0136673
1.0141152
1.0134891
1.0137869
1.0136917
1.0135277
1.0136155
1.0135263
1.0135136
1.0133535
1.0134443
1.0131619
1.0133219
1.0131073
1.0170318
1.0152495
1.0152881
1.0146071
1.0143554
1.0141402
1.0140623
1.0138065
1.0139065
1.0136907
1.0135291
1.0136926
1.0133411
1.0133846
1.0134661
1.0130556
1.0132482
1.0130719
1.0129326
1.0130932
1.0129034
1.0128918
1.0128455
1.0128139
1.012583
1.012687
1.0124348
1.0146089
1.0165111
1.0140652
1.0142425
1.0137349
1.0135985
1.0133549
1.0134635
1.0131315
1.0131852
1.0132357
1.0129262
1.0130873
1.0129071
1.012872
1.0127533
1.0126755
1.0126703
1.0122635
1.0127096
1.012169
1.012433
1.0122021
1.0122068
1.0120145
1.0120955
1.0118142
1.0107995
1.0099647
1.0122286
1.0122487
1.0127065
1.0128205
1.0128569
1.0126578
1.0126643
1.0126768
1.0124481
1.0124815
1.0125171
1.0123966
1.0123037
1.0122777
1.0123334
1.0119265
1.0119908
1.0119863
1.0117078
1.0117921
1.0116913
1.011483
1.0114186
1.0114238
1.0112308
1.0148098
1.0132006
1.0139791
1.0131645
1.0130005
1.0127437
1.0124666
1.012183
1.0122886
1.0119751
1.0119186
1.0118815
1.0117783
1.0117764
1.0115092
1.0118086
1.011627
1.0114268
1.0114859
1.0112506
1.0112074
1.0111474
1.0112418
1.0107344
1.0109136
1.0106769
1.0105872
1.0174505
1.01571
1.0146144
1.0133608
1.0126335
1.0121239
1.0118488
1.0117291
1.0114838
1.0115278
1.0111869
1.011212
1.0112186
1.0108425
1.0110727
1.0107615
1.0109239
1.0107721
1.0106663
1.0107219
1.0103096
1.0106155
1.0104957
1.0102385
1.0101623
1.0101014
1.0099623
1.007979
1.0109626
1.0105954
1.0106352
1.0105801
1.0106998
1.0106826
1.0107268
1.0108023
1.0105391
1.010745
1.0104893
1.0104002
1.010434
1.0101441
1.0104209
1.0099872
1.0101642
1.0099689
1.0098364
1.0097379
1.0096203
1.0098929
1.0093963
1.0096094
1.0092762
1.0093036
1.0053638
1.0059104
1.0089224
1.0086342
1.0096675
1.0096253
1.0099853
1.0099541
1.0099672
1.0099745
1.0099189
1.0099313
1.0097692
1.0096251
1.0097571
1.0094398
1.009523
1.0093921
1.0093235
1.0092322
1.0089714
1.0090832
1.0089145
1.0087571
1.008755
1.0086143
1.0085032
1.0194689
1.0134458
1.0142947
1.0126318
1.0117923
1.010684
1.0103456
1.0097963
1.0094831
1.0094758
1.0090101
1.0093141
1.0090083
1.0089521
1.0092089
1.00858
1.0089639
1.0084758
1.0086375
1.0085126
1.0082303
1.0085736
1.0080814
1.0083086
1.0077539
1.0079973
1.0076998
1.0136634
1.0142115
1.0130797
1.0115333
1.0103458
1.0093951
1.0091802
1.0088341
1.0087562
1.0085593
1.0082968
1.0084207
1.0080723
1.0082091
1.0081752
1.007996
1.0081012
1.0076988
1.0079462
1.0075985
1.0075728
1.0076253
1.0074134
1.0075033
1.0071591
1.0071776
1.0069988
0.99955161
1.0045599
1.0053256
1.0062678
1.0063335
1.0068887
1.0071789
1.007372
1.007527
1.0076105
1.0074799
1.0076687
1.007253
1.007244
1.0074138
1.0071818
1.0073852
1.0069624
1.0071927
1.0068791
1.0068951
1.0067364
1.0065763
1.0066988
1.0064052
1.0064155
1.0062102
1.0087249
1.000983
1.0069472
1.0051849
1.0066393
1.0062767
1.0067646
1.0067339
1.0069316
1.0068042
1.0070306
1.0066293
1.006811
1.0064265
1.0066261
1.0067424
1.0063648
1.0066406
1.0060211
1.0064456
1.0059688
1.0060667
1.0058506
1.0057989
1.0057548
1.0054961
1.0054352
1.0135712
1.0113372
1.0107684
1.0094018
1.0089256
1.0078521
1.0073448
1.0070101
1.0065459
1.006391
1.0062996
1.0059705
1.006194
1.005692
1.0060348
1.0059218
1.0057527
1.0058274
1.0052396
1.0056712
1.0051492
1.0053864
1.0050082
1.0049845
1.0049138
1.0047953
1.0047122
1.0090767
1.0082477
1.008101
1.0075458
1.0073371
1.0065849
1.0062425
1.0061465
1.0056356
1.0054878
1.0055526
1.005254
1.0055578
1.0050334
1.0053168
1.0050326
1.0049469
1.0049986
1.0043768
1.0048306
1.0041833
1.0046364
1.0042293
1.004196
1.0040115
1.0039372
1.0039552
1.0036615
1.0042672
1.0055732
1.0055314
1.0055193
1.0050454
1.0050167
1.0048323
1.0047033
1.0045748
1.0044475
1.0046902
1.0044225
1.0044502
1.0042329
1.0040078
1.0042119
1.0038433
1.0038886
1.0036449
1.0035887
1.0035536
1.0035898
1.0033838
1.0033195
1.0030644
1.0031092
1.0040119
1.0046053
1.0049295
1.0047262
1.0047052
1.0042478
1.0041555
1.0039869
1.0039697
1.0037334
1.0036291
1.0037339
1.0034317
1.0036551
1.0032003
1.0032542
1.0032321
1.0030464
1.0032299
1.0027728
1.0030344
1.0025606
1.0029291
1.0025226
1.00266
1.0023483
1.0023366
1.004455
1.0041498
1.004183
1.0038154
1.0036393
1.0032985
1.0032404
1.0031549
1.0031588
1.0029919
1.00288
1.0027871
1.002645
1.0028405
1.0024791
1.002575
1.0022895
1.0023003
1.0023405
1.002149
1.002313
1.001815
1.002049
1.0016962
1.001888
1.0016884
1.0016266
1.0027448
1.0025416
1.0028808
1.0024894
1.0024373
1.0021563
1.0021727
1.0020746
1.0021505
1.0021322
1.0020992
1.0018879
1.0018886
1.0017932
1.0018343
1.0017769
1.0015813
1.001576
1.001349
1.0015155
1.0013238
1.0012848
1.0011168
1.0010422
1.0009824
1.0009696
1.0008534
1.0017625
1.0013353
1.0019866
1.001686
1.0016725
1.0014287
1.0014137
1.0011834
1.0012352
1.001195
1.0012637
1.0010714
1.0011268
1.0008573
1.0010414
1.0009289
1.0009024
1.0008941
1.0005163
1.0007611
1.0003344
1.0006485
1.0002992
1.0003349
1.0001285
1.0000311
0.9999929
1.0011374
1.0014522
1.0017416
1.001553
1.0012465
1.000943
1.0007825
1.0005456
1.0004488
1.0004156
1.0004368
1.0003427
1.0003929
1.0000559
1.0002034
1.0000108
1.0001257
1.0000921
0.99979708
0.99993659
0.99948392
0.99983488
0.99949736
0.9995902
0.99939005
0.99929682
0.99923698
1.0008784
1.0006913
1.0009565
1.0007374
1.0004762
1.0001134
0.99997083
0.99979084
0.99961631
0.99967578
0.99951124
0.99956027
0.99952318
0.99931776
0.99941685
0.99918193
0.99930891
0.99921858
0.99907897
0.99914745
0.99886366
0.9990107
0.99877824
0.99879142
0.99871624
0.99868661
0.99860243
0.99970196
0.99969422
0.99989637
0.99964025
0.99944857
0.99912851
0.99905674
0.99888221
0.99881426
0.9988847
0.99869663
0.99875782
0.9986483
0.99862172
0.99863198
0.99852052
0.99854598
0.99841315
0.99839578
0.99833948
0.99834533
0.99824225
0.99818752
0.99804562
0.99807017
0.99802911
0.99796841
0.99887904
0.99889821
0.99890452
0.99870854
0.99856298
0.99829274
0.99826268
0.99807553
0.99808052
0.99813426
0.99799538
0.99805281
0.99789888
0.99793069
0.99790834
0.99787374
0.99788282
0.99771805
0.99776588
0.99762851
0.99773695
0.99756434
0.99757291
0.99739559
0.99742102
0.99735747
0.99731449
0.99810372
0.99811358
0.99801883
0.99785106
0.9977293
0.99753426
0.99753056
0.99740786
0.99735194
0.99743208
0.99731421
0.99740412
0.99727056
0.99727984
0.99724315
0.99720614
0.99722989
0.99710748
0.99713053
0.99701587
0.99706936
0.99697073
0.99692325
0.99682315
0.99676595
0.99671586
0.99666525
0.99706876
0.99723841
0.99718354
0.99701617
0.99686468
0.99674512
0.99672644
0.99674078
0.99670216
0.9967185
0.99664818
0.99665667
0.99662549
0.99662897
0.99661648
0.9965713
0.99655112
0.99650697
0.99646448
0.99645729
0.99638956
0.99635474
0.99625737
0.99622291
0.99616255
0.9961162
0.9960652
0.99610063
0.996348
0.9963203
0.99619865
0.99607819
0.99600312
0.99599713
0.99601375
0.99602634
0.99598404
0.99596325
0.9959384
0.99594074
0.99596305
0.99591217
0.99593038
0.99583066
0.99589411
0.99576836
0.99583778
0.99567501
0.9957345
0.99558117
0.99563657
0.99550034
0.99550952
0.99540436
0.99515371
0.99550346
0.99549765
0.99541439
0.99534559
0.9952592
0.99530856
0.99525219
0.99533849
0.99527067
0.995282
0.99527146
0.99522652
0.99529478
0.99519725
0.99528442
0.9951445
0.99524026
0.99507536
0.99517848
0.99498019
0.99511693
0.99491161
0.99502665
0.99482418
0.9948641
0.99474531
0.99427981
0.99470812
0.99472406
0.99461734
0.99463583
0.99453379
0.9946182
0.99451026
0.9946026
0.99453429
0.99459219
0.99457375
0.99455747
0.99458326
0.99448459
0.99461418
0.9944147
0.99464785
0.99433507
0.9946004
0.9942817
0.99450457
0.99430849
0.99436426
0.99426695
0.99418794
0.99416987
0.99357049
0.99396452
0.99405183
0.99388461
0.99396667
0.99386684
0.99393389
0.99387176
0.99384019
0.99391934
0.99381991
0.99401096
0.99376588
0.99400655
0.99368655
0.994002
0.9937257
0.99398052
0.99377499
0.99381653
0.99381835
0.99368044
0.99389412
0.9936132
0.99380516
0.99353512
0.99363538
0.99292379
0.99332305
0.99346053
0.99328464
0.99334554
0.99330493
0.99327518
0.99335797
0.99313588
0.99342985
0.99311349
0.993504
0.99312164
0.99338406
0.99318019
0.99321306
0.99341259
0.99306051
0.99357122
0.99289602
0.99353175
0.99295278
0.99341574
0.99311557
0.99318866
0.99310556
0.99306048
0.99231564
0.9928413
0.99283746
0.99284657
0.99274874
0.9927672
0.99279362
0.99267494
0.99278736
0.99261202
0.99288299
0.99263658
0.99291743
0.99259957
0.99279042
0.99268841
0.99270052
0.99291865
0.99256653
0.99299787
0.9924324
0.99297653
0.99251722
0.99288205
0.99259595
0.99267201
0.9925763
0.99171253
0.99224567
0.992318
0.99220179
0.99232283
0.99205506
0.99232356
0.9921026
0.99214953
0.99227486
0.99201608
0.9924575
0.99201151
0.9923708
0.99210448
0.99215305
0.99233701
0.99206931
0.99245056
0.99203971
0.9923507
0.99208882
0.99228283
0.99219268
0.99222344
0.99216559
0.99212905
0.99112022
0.99160235
0.99171523
0.99154873
0.9917436
0.99146804
0.99165705
0.99161221
0.99141342
0.99182054
0.99136183
0.9919029
0.99153136
0.99167807
0.99178034
0.99139281
0.99202254
0.99134274
0.99205326
0.99145588
0.99181425
0.99165975
0.99162495
0.99183218
0.99158141
0.99177688
0.99159345
0.9905836
0.99098154
0.99115837
0.99093111
0.99116748
0.99093541
0.9910256
0.99104863
0.99077351
0.99123524
0.9908363
0.99131299
0.99099797
0.99107695
0.99120048
0.99091182
0.99145181
0.99088551
0.99148619
0.99087779
0.99137793
0.99103688
0.99127858
0.99119351
0.99113501
0.99118984
0.99109882
0.99007559
0.99043227
0.99047002
0.99060169
0.99032533
0.99070149
0.99034786
0.99044663
0.99052294
0.99022969
0.990923
0.99025544
0.99092373
0.99031287
0.99059846
0.99077298
0.99042152
0.99117431
0.99019581
0.99107304
0.9902373
0.99096781
0.99060763
0.99077036
0.99066487
0.9905405
0.99063195
0.98953417
0.98983432
0.98990539
0.98988138
0.98990495
0.99005669
0.98991801
0.98993244
0.98977885
0.98989922
0.9900752
0.99004148
0.99013085
0.98993745
0.99004313
0.99010484
0.99016192
0.99029289
0.98999874
0.99017927
0.99000673
0.99023035
0.99023497
0.99015086
0.99013321
0.99000506
0.99011096
0.98887482
0.98917389
0.98950349
0.98932313
0.98929784
0.98960721
0.98920599
0.98958774
0.9892196
0.98933586
0.98968443
0.98930876
0.98992688
0.98916989
0.98975074
0.98944809
0.98974558
0.98982793
0.98946104
0.98986498
0.98929135
0.99006238
0.98942798
0.98997421
0.98937516
0.98971686
0.98956368
0.98813495
0.98884234
0.98879
0.98894703
0.98887838
0.98857944
0.98917641
0.98867452
0.98910587
0.98897177
0.98874108
0.9893952
0.98859719
0.98948049
0.9887266
0.98929065
0.98924111
0.98900377
0.9895512
0.98865739
0.98966027
0.98881085
0.98963759
0.98896032
0.9892765
0.98906685
0.98920252
0.98769425
0.98812974