/*--------------------------------*- C++ -*----------------------------------*\
| =========                 |                                                 |
| \\      /  F ield         | OpenFOAM: The Open Source CFD Toolbox           |
|  \\    /   O peration     | Version:  2406                                  |
|   \\  /    A nd           | Website:  www.openfoam.com                      |
|    \\/     M anipulation  |                                                 |
\*---------------------------------------------------------------------------*/
FoamFile
{
    version     2.0;
    format      ascii;
    arch        "LSB;label=32;scalar=64";
    class       volScalarField;
    location    "17";
    object      T;
}
// * * * * * * * * * * * * * * * * * * * * * * * * * * * * * * * * * * * * * //

dimensions      [0 0 0 1 0 0 0];

internalField   nonuniform List<scalar> 
62344
(
1.0039016
1.004692
1.0063506
1.007042
1.0065181
1.0062062
1.0077885
1.007936
1.0053362
1.0043436
1.0054298
1.0037288
1.0040454
1.0046308
1.0066228
1.0071724
1.0030369
1.0049662
1.0054612
1.0057104
1.0040898
1.0051743
1.0036557
1.003842
1.007223
1.0055484
1.0021813
1.0060348
1.0100313
1.0087665
1.0043943
0.9984739
0.99433764
0.99852133
1.0069965
1.0094967
1.0012912
0.98532677
0.97661652
0.97933048
0.9801542
0.97392008
0.96351216
0.9583273
0.95972759
0.96002361
0.95472864
0.9470405
0.94426823
0.94606623
0.9497472
0.94890038
0.93795356
0.92057196
0.90555979
1.0037724
1.0046012
1.0062719
1.0072305
1.0069896
1.0070157
1.0073875
1.0072491
1.006258
1.0054459
1.0036938
1.0048174
1.0060951
1.0044945
1.005823
1.0062047
1.0046702
1.0066917
1.0060859
1.005053
1.0039264
1.0050548
1.0030336
1.004233
1.0068515
1.0043434
1.0026384
1.0068306
1.0099007
1.0083836
1.0053263
1.002883
1.0002638
0.99988892
1.003538
1.0043553
1.000479
0.99367028
0.98906745
0.98689662
0.98934015
0.98624979
0.97873045
0.97300324
0.97174789
0.97116894
0.96691194
0.95675703
0.94459858
0.93589383
0.9311297
0.92657352
0.91882853
0.90427497
0.88907202
1.0038709
1.0044349
1.0055007
1.0068311
1.006896
1.0082046
1.0073638
1.0056556
1.0064851
1.0058287
1.0030743
1.0050868
1.0071111
1.004927
1.0058292
1.0050137
1.0046958
1.0062101
1.0069148
1.0053567
1.0036998
1.005301
1.0034248
1.0049519
1.0067659
1.0039557
1.0041991
1.0086446
1.00983
1.0066198
1.0039115
1.0041799
1.0053569
1.0040207
1.0016592
0.99962075
0.99762817
0.9941761
0.98722523
0.98253314
0.98482432
0.98917802
0.99135981
0.9887742
0.98311926
0.97391895
0.96258548
0.94967676
0.93379908
0.9189786
0.91056687
0.90816478
0.90860178
0.90494249
0.89822462
1.0041816
1.0042643
1.0051096
1.0063554
1.0065263
1.0087608
1.0076111
1.0059718
1.0059249
1.0051
1.0038756
1.0045407
1.0063994
1.0052435
1.0053438
1.0059879
1.0052331
1.0040271
1.0052735
1.0054499
1.004257
1.0053894
1.0037682
1.0053064
1.0062017
1.0037964
1.0057551
1.0103195
1.0102715
1.0052791
1.0014682
1.0033069
1.0080618
1.0082812
1.0027315
0.99671076
0.99430187
0.9947567
0.98892306
0.98240242
0.98252164
0.99064929
1.0003971
1.0035009
0.99120584
0.97070517
0.94856011
0.93337362
0.92113396
0.9096516
0.90222805
0.90093414
0.90488652
0.90982078
0.91430197
1.0043789
1.0043157
1.005497
1.0063749
1.0067982
1.0080682
1.0079137
1.0072525
1.0054778
1.0044461
1.0047866
1.0041424
1.0047271
1.005645
1.0049529
1.0069716
1.0056288
1.0038207
1.0037127
1.0047591
1.0048983
1.0057555
1.0037898
1.0051705
1.0054309
1.003419
1.0066389
1.0115497
1.0112176
1.0049386
0.99935456
1.0008832
1.0079874
1.0103112
1.0037071
0.99476462
0.9917532
0.99577625
0.99416983
0.98726488
0.9831139
0.98977706
1.0024979
1.0076752
0.99548269
0.97232549
0.94696294
0.93059682
0.92587075
0.92056184
0.91413486
0.91058325
0.91064721
0.91446676
0.91941715
1.0042635
1.004595
1.0062432
1.0065316
1.0070025
1.0070228
1.0081406
1.0076786
1.0053593
1.004644
1.0050535
1.004632
1.004167
1.0061173
1.0060197
1.0069072
1.0058273
1.0053522
1.0042133
1.0042438
1.005238
1.0057473
1.0031983
1.0043314
1.0040356
1.0023113
1.0060405
1.011407
1.0113822
1.0054778
0.99898151
0.99908262
1.0065736
1.0105482
1.0041246
0.99302968
0.98939052
0.99554633
0.99905466
0.99449967
0.98676407
0.98846044
0.99849238
1.0052033
0.99646159
0.97499544
0.952373
0.9371119
0.93485459
0.93696823
0.93607407
0.93426354
0.93251504
0.93207504
0.92954436
1.0040211
1.0047938
1.0063935
1.0062569
1.006729
1.0065405
1.0076812
1.0070235
1.0055465
1.004949
1.0046227
1.0054494
1.0045588
1.0058896
1.0077496
1.0067248
1.0053547
1.0067826
1.006168
1.0049787
1.0055682
1.0054585
1.0023455
1.0034806
1.0029826
1.001216
1.0045916
1.0097583
1.0105121
1.0060387
0.99994267
0.99888675
1.0055339
1.0099151
1.0043547
0.99184606
0.9870934
0.99396949
1.001034
1.0003779
0.99331965
0.98927946
0.99272716
0.99718827
0.9937237
0.97963288
0.96011646
0.94472503
0.93849806
0.94153628
0.94791452
0.95101846
0.95162919
0.94771869
0.93949784
1.003836
1.004766
1.0059363
1.0058289
1.0059946
1.0064975
1.006827
1.0059081
1.0058495
1.0049805
1.004153
1.0057989
1.0053108
1.0052028
1.0088985
1.0068801
1.004658
1.007179
1.0075499
1.0061283
1.0061607
1.0053101
1.0022086
1.0036535
1.0032663
1.0014547
1.0038114
1.007791
1.0088961
1.0060697
1.0008935
0.99988797
1.0055898
1.0097708
1.0046726
0.99144116
0.98489532
0.99031053
0.99896416
1.0026092
0.99977799
0.99353982
0.98942106
0.9877098
0.9863637
0.9818345
0.97000551
0.9570514
0.94822445
0.94743097
0.95243984
0.95706206
0.95741855
0.95204349
0.94338378
1.0037986
1.0045212
1.0051462
1.005537
1.0054638
1.0065762
1.0062247
1.0053065
1.0060271
1.00477
1.0042338
1.0055309
1.0058609
1.0045899
1.0091131
1.0070419
1.0043117
1.0063031
1.0074535
1.0065748
1.0065639
1.0053811
1.0027878
1.00494
1.0049188
1.0031312
1.0044357
1.0067203
1.0073389
1.0055039
1.0017094
1.0017202
1.0071327
1.0107555
1.0058265
0.99248569
0.98379363
0.98651413
0.994692
1.000921
1.0038992
0.99931615
0.98931303
0.97986971
0.97664573
0.97741127
0.9756267
0.96858887
0.961348
0.95791865
0.95855886
0.96057654
0.95920418
0.95361019
0.94559493
1.0039298
1.0042805
1.0045533
1.0054437
1.0052403
1.0066705
1.0060134
1.0053589
1.0058897
1.0043478
1.004554
1.0049766
1.0055608
1.0045515
1.0085789
1.0069999
1.00419
1.0052312
1.0065669
1.0063074
1.0063434
1.0051465
1.0031801
1.0060647
1.0063025
1.004805
1.0057125
1.0067314
1.0064854
1.0050356
1.0022448
1.003233
1.0088549
1.0122369
1.0074124
0.99456788
0.98447937
0.98362697
0.98942386
0.99753752
1.0045329
1.0050748
0.9919563
0.97518394
0.96753707
0.97014379
0.97460797
0.97541633
0.97200747
0.96724885
0.96236978
0.96000614
0.95789574
0.95369658
0.94750679
1.004121
1.0041796
1.0044302
1.0055498
1.0055668
1.0069889
1.0062734
1.0059344
1.0056566
1.0042616
1.0047357
1.0042281
1.0049448
1.0051892
1.0078851
1.0066331
1.004316
1.0045115
1.0059939
1.0060101
1.0055976
1.0044499
1.0029997
1.0063888
1.0065643
1.0053696
1.0065781
1.0071141
1.0062555
1.0048466
1.0026451
1.004399
1.0100894
1.0132825
1.0085322
0.99704868
0.98687827
0.98323406
0.98509181
0.99382094
1.0037219
1.0088748
0.99783654
0.97667212
0.96124088
0.9612338
0.96919553
0.97641263
0.97908177
0.97408902
0.96536245
0.95745489
0.95265929
0.94950392
0.94676783
1.0042672
1.0042793
1.0047795
1.0058139
1.0061771
1.007444
1.0068843
1.006571
1.0053777
1.0044339
1.0045478
1.0038297
1.0044933
1.0060882
1.0073735
1.0061633
1.0046919
1.0044506
1.0059935
1.0058267
1.0047731
1.0036417
1.0026947
1.0061009
1.0056608
1.004535
1.006372
1.0070004
1.0060818
1.0049747
1.0030299
1.0051098
1.0106035
1.0133853
1.0087131
0.99933693
0.99055377
0.98524379
0.98302191
0.98981723
1.0021653
1.0105387
1.0049913
0.9839053
0.96159554
0.95540534
0.96375467
0.97452839
0.98306298
0.98106832
0.97111087
0.95948606
0.95001644
0.94422815
0.94207404
1.004325
1.0044248
1.0054112
1.0060728
1.0066887
1.0076938
1.0074998
1.0070046
1.005133
1.0048026
1.0039385
1.0036849
1.0044527
1.0066965
1.0069443
1.0056244
1.0051078
1.004758
1.0062842
1.0059935
1.004467
1.003173
1.0025665
1.0055821
1.0041651
1.0028797
1.0052182
1.0062995
1.0055956
1.005164
1.0035809
1.005384
1.0102388
1.0124944
1.008035
1.001004
0.99453185
0.98867945
0.98326549
0.9868097
0.99949289
1.0103754
1.0109142
0.99326762
0.96817874
0.95529381
0.96074162
0.97373893
0.98641749
0.98946061
0.97954062
0.9661203
0.95321522
0.94327552
0.93818293
1.0042941
1.0045463
1.0059398
1.0061975
1.00688
1.0076907
1.0078372
1.0072043
1.0049307
1.005096
1.0031788
1.0036063
1.0046952
1.0067532
1.0064547
1.0051871
1.0054473
1.0051633
1.0064004
1.0062744
1.0048448
1.0033548
1.0029282
1.0053816
1.0030791
1.0014135
1.0039305
1.0053634
1.0048385
1.0051895
1.0044454
1.0060481
1.0096491
1.0112643
1.0067234
1.001566
0.99782955
0.9925753
0.98538969
0.98555281
0.99611485
1.0086175
1.0141522
1.0016771
0.97855252
0.96161388
0.96173413
0.97447684
0.98941864
0.99638256
0.990255
0.97681042
0.9619435
0.94915126
0.93946519
1.0041841
1.0045993
1.0061721
1.0061976
1.0068275
1.0075973
1.0078372
1.0070987
1.0049564
1.0053082
1.0027104
1.0035498
1.0049722
1.0063674
1.0061
1.00484
1.0055125
1.0056776
1.0063713
1.0063981
1.0055117
1.0039759
1.0037726
1.0056611
1.002869
1.0008584
1.0031961
1.0046549
1.0040508
1.0050518
1.0054996
1.0071681
1.0095211
1.0098893
1.005233
1.001836
1.0005214
0.99623859
0.98882056
0.98605641
0.9933213
1.0057003
1.0141675
1.007705
0.98869085
0.97130087
0.96702897
0.9757315
0.99028423
1.0000917
0.99858899
0.98826158
0.97279592
0.95838971
0.94630952
1.0040298
1.0045894
1.0061375
1.0061059
1.0066339
1.0074846
1.0076244
1.0067843
1.0051227
1.0054446
1.0027491
1.0035999
1.0052736
1.0058565
1.0058898
1.004646
1.005429
1.0062539
1.0060795
1.0061712
1.005986
1.0045018
1.0046571
1.0062265
1.0033464
1.001258
1.0032733
1.0044252
1.0035461
1.0048025
1.0064436
1.0085005
1.0100219
1.0087776
1.0038495
1.0015332
1.0023755
0.99957243
0.99272357
0.98791135
0.99143735
1.002351
1.0112657
1.010233
0.99678068
0.98238279
0.97509965
0.97850783
0.98984914
1.0006553
1.0033622
0.99722692
0.98410005
0.96943703
0.95668395
1.0038656
1.0045342
1.0058988
1.0060013
1.006285
1.0073415
1.0073446
1.0063942
1.0052897
1.0054287
1.0032724
1.0036963
1.0053642
1.0054173
1.0056674
1.0045864
1.0052003
1.0066856
1.0056441
1.0056072
1.0059371
1.0045761
1.0051457
1.0067097
1.0040318
1.0020305
1.0038996
1.0046792
1.0033065
1.004398
1.0071524
1.0099414
1.0111172
1.0082339
1.0027296
1.0007743
1.003176
1.0020273
0.99666185
0.99068248
0.99071732
0.99869495
1.0069904
1.0091683
1.001057
0.99080727
0.98440021
0.98298887
0.98929046
0.99840433
1.0036032
1.002018
0.99322812
0.98066641
0.96880746
1.003748
1.0044492
1.0056026
1.0059088
1.0059397
1.0071178
1.0070605
1.0060311
1.0054171
1.0051932
1.0039441
1.0038208
1.0051901
1.0050698
1.0054179
1.0046043
1.0047958
1.0068316
1.0051868
1.0048519
1.0054762
1.0042485
1.00517
1.0068699
1.0044937
1.0027909
1.0047467
1.0052857
1.0032196
1.0037394
1.0074483
1.0112224
1.012497
1.0082385
1.0018189
0.99954065
1.0029604
1.0035914
0.99997534
0.99386409
0.99089861
0.99515817
1.002166
1.0051469
1.0024803
0.99597618
0.99142319
0.98929146
0.99026261
0.99500798
0.99999656
1.0010904
0.99764597
0.98966384
0.98002156
1.0037146
1.0043599
1.0053588
1.0058623
1.0057191
1.0069109
1.0068595
1.0058225
1.0055005
1.0047979
1.0044062
1.0039765
1.0047805
1.0046976
1.0052629
1.0047171
1.0043641
1.0065971
1.0048987
1.0042914
1.0049299
1.0037747
1.0049086
1.0066933
1.0046104
1.0032093
1.0053962
1.0061213
1.0033238
1.0029097
1.0072079
1.0123091
1.0138648
1.0088028
1.0010775
0.99821498
1.0018933
1.0040909
1.0024456
0.99671768
0.99151884
0.99226137
0.9967389
0.9997055
1.0009141
0.99809889
0.99574907
0.99457336
0.99319942
0.9930007
0.99473658
0.99592226
0.99518954
0.99254677
0.98726858
1.0037483
1.0043213
1.0052197
1.0058849
1.0056624
1.0068423
1.0068734
1.0057863
1.0055987
1.0043975
1.0046924
1.0041463
1.0042877
1.0043405
1.0052255
1.0049321
1.0041248
1.0060207
1.0048316
1.0041507
1.004662
1.0035072
1.004662
1.0063709
1.0044213
1.003243
1.0057839
1.0069172
1.0036623
1.0019789
1.0064553
1.0130435
1.0151774
1.0096625
1.0005815
0.99681138
1.0003376
1.0036578
1.0037922
0.99894823
0.99245679
0.99038864
0.99162287
0.99367489
0.99689221
0.99780283
0.99728071
0.99737075
0.99616527
0.99304309
0.99023552
0.98952857
0.98916993
0.98896172
0.98820895
1.0038255
1.0043426
1.0051979
1.0059561
1.0057525
1.0069532
1.0070227
1.0058947
1.0057373
1.0041631
1.0047178
1.0042747
1.0038227
1.0040878
1.0053081
1.0052268
1.0042136
1.0052566
1.0048924
1.0044609
1.0047484
1.0035225
1.0045735
1.0061308
1.0040636
1.0029386
1.0058422
1.0075724
1.0041026
1.0011112
1.005338
1.0131797
1.0162178
1.0107516
1.0004558
0.99578889
0.99837493
1.0026272
1.0039865
1.0001979
0.9935506
0.98953903
0.987383
0.98755137
0.99166995
0.99554212
0.9972462
0.99809292
0.99736479
0.99359402
0.98765945
0.9841423
0.98335859
0.98324174
0.98427314
1.0039294
1.0043864
1.0052605
1.0060179
1.0059703
1.0071648
1.0071964
1.006112
1.0058884
1.004081
1.0043976
1.0043893
1.0034688
1.003878
1.0054529
1.0055623
1.0045551
1.0044795
1.0048952
1.0049641
1.0050391
1.0037892
1.0046199
1.0059854
1.0036657
1.002304
1.0055102
1.007944
1.0045122
1.0003263
1.0039569
1.0125729
1.0169988
1.0118569
1.0006883
0.9950843
0.99643389
1.0012443
1.0033464
1.0005273
0.99460864
0.98950165
0.98445387
0.98221049
0.98601626
0.99210221
0.99638551
0.99803292
0.99742473
0.99313919
0.98596288
0.98037859
0.9788985
0.97869532
0.97962527
1.0040473
1.0044434
1.0053447
1.0060265
1.006249
1.0073834
1.0073548
1.0063172
1.0059251
1.004084
1.0038532
1.0043722
1.0031839
1.0036408
1.0055241
1.0057828
1.0049583
1.0036462
1.0046786
1.005416
1.0053391
1.0040784
1.004689
1.005805
1.0031768
1.0014372
1.0048375
1.0079472
1.0047291
0.9996166
1.002345
1.011483
1.0172721
1.0128378
1.0012852
0.99486805
0.99457906
0.99950051
1.0019904
1.0002543
0.99574656
0.9899828
0.98293242
0.97824861
0.98071526
0.98807328
0.99510717
0.99830745
0.99770635
0.99259778
0.98424886
0.97781892
0.97529919
0.97543163
0.97668003
1.004152
1.0045075
1.005455
1.0059952
1.0065007
1.0074675
1.0073376
1.0064325
1.0058471
1.0040787
1.0031677
1.0041796
1.0028192
1.0032427
1.0053589
1.0057609
1.0051886
1.0027687
1.004149
1.0056072
1.005431
1.0041838
1.0046334
1.005555
1.0026605
1.0004525
1.0039535
1.0075934
1.0047366
0.99882254
1.000854
1.0099057
1.0169913
1.0134302
1.0022047
0.99513367
0.99333505
0.99769437
1.0002782
0.99936488
0.99660693
0.99130854
0.98301737
0.97615729
0.97643981
0.98423203
0.99380296
0.99962261
0.99996381
0.99365232
0.98442732
0.97679577
0.97291744
0.97283738
0.97465156
1.0042188
1.004529
1.0055146
1.0058373
1.0066015
1.0073627
1.0070989
1.0063611
1.0056345
1.0039764
1.0024412
1.0038748
1.0023521
1.0026416
1.0048556
1.0054713
1.005126
1.0018794
1.00339
1.0054889
1.005214
1.0040254
1.0044262
1.0053173
1.0022708
0.99955614
1.0030739
1.007111
1.0046477
0.99817502
0.99941335
1.0081788
1.0163434
1.0135486
1.0030861
0.99562306
0.99338205
0.99678166
0.9987325
0.9978951
0.99675549
0.99274957
0.98489233
0.97674718
0.97460232
0.98103662
0.99163872
1.0008885
1.0035281
0.99814958
0.98914687
0.98061141
0.97467949
0.97281643
0.97374833
1.0041706
1.0044621
1.0054104
1.005506
1.0064056
1.0070058
1.0066733
1.00609
1.0053811
1.0038766
1.0018845
1.003559
1.0019206
1.0019714
1.0041898
1.0049541
1.0048727
1.0011197
1.0026125
1.0051026
1.0047694
1.0036612
1.0040934
1.0050916
1.0020282
0.99896863
1.0025607
1.0068897
1.0047724
0.99794248
0.99816572
1.0069036
1.0159115
1.0136917
1.003984
0.99608275
0.99417412
0.99711862
0.99881721
0.9975476
0.99659236
0.99379789
0.9872591
0.97932092
0.97593386
0.98067145
0.99125368
1.0022143
1.006625
1.0041903
0.99644483
0.98784669
0.98224034
0.97991386
0.98001829
1.0037815
1.0041265
1.0049788
1.0049154
1.0058873
1.0064456
1.0061023
1.0057315
1.0052011
1.0038968
1.0017072
1.0034752
1.0017345
1.001622
1.0036942
1.0044805
1.0045915
1.0007822
1.002109
1.0046002
1.0043776
1.0032388
1.003728
1.0048442
1.0018993
0.99874343
1.002415
1.0069241
1.0052164
0.99829481
0.99779451
1.0056771
1.01528
1.0138382
1.0054202
0.99734307
0.99544276
0.99822197
1.0002163
0.99902445
0.99784479
0.99489798
0.98914348
0.98190882
0.97781213
0.98195535
0.99274561
1.0042507
1.0095434
1.0073412
1.0010769
0.99339045
0.98843119
0.98691841
0.98837063
0.99087354
0.98096313
0.9753491
0.97566662
0.97673853
0.97922983
0.9827919
0.98361629
0.97909099
0.9698277
0.95783977
0.94594249
0.93702023
0.93205818
0.93314661
0.93756373
0.93946721
0.93622074
0.93262663
0.9310052
0.93058064
0.92807712
0.92411641
0.91434366
0.88927089
0.86920454
0.8937438
0.99300799
0.9817763
0.97559064
0.97350844
0.97345825
0.97558266
0.97764706
0.97639965
0.97143007
0.96287598
0.95186748
0.94084867
0.93394707
0.93188746
0.93274148
0.93345973
0.93135366
0.9244755
0.91700147
0.91450202
0.91686246
0.91937117
0.92056412
0.91429084
0.88617458
0.860221
0.88257304
0.9884235
0.97835885
0.97260528
0.969224
0.96882093
0.97037102
0.97115083
0.97011038
0.96675411
0.9594311
0.94856577
0.93732649
0.92993099
0.9288602
0.92959912
0.92871062
0.92496623
0.91652249
0.90743629
0.90378245
0.90407584
0.90373319
0.90505765
0.90416332
0.88478711
0.86415481
0.87962606
0.98022533
0.9726883
0.96754
0.9641354
0.96420949
0.96542987
0.96685851
0.96750735
0.96448155
0.95622029
0.94361492
0.93022507
0.92087221
0.91906105
0.92054523
0.92186855
0.91987216
0.91409848
0.90645268
0.90104242
0.89481814
0.88655298
0.88235445
0.88417127
0.88023218
0.87338534
0.88314688
0.97447311
0.97009856
0.96543991
0.9621157
0.96248606
0.96404061
0.96585636
0.9657706
0.96057417
0.94905065
0.93211318
0.91477396
0.90404714
0.90293926
0.90655482
0.91224473
0.91532844
0.91325639
0.90682201
0.89994768
0.88879694
0.87198409
0.86305306
0.86529642
0.8721357
0.87814463
0.88637428
0.97621333
0.97367525
0.96810116
0.96489036
0.96489989
0.96544053
0.9649677
0.96144464
0.952093
0.93502672
0.91258191
0.89248699
0.88303307
0.88489899
0.89287933
0.90297425
0.91129134
0.91242326
0.90696117
0.89837387
0.88375716
0.86336446
0.85212325
0.85656042
0.86550273
0.87343011
0.88213728
0.98281844
0.98001827
0.9732533
0.96934642
0.96751091
0.96484317
0.96087148
0.95362305
0.93918682
0.91669025
0.89121128
0.87156706
0.86521257
0.87041501
0.88270763
0.89753163
0.90678068
0.90712687
0.90156001
0.89330606
0.87860287
0.85988189
0.85058803
0.85687907
0.86116982
0.86228049
0.86769623
0.98999937
0.98538612
0.97632943
0.97022552
0.96421075
0.95815093
0.95162597
0.94077561
0.92172938
0.8962132
0.87161391
0.85609106
0.85403898
0.86264804
0.87920704
0.89468482
0.90118626
0.89817266
0.89076584
0.88350532
0.87190886
0.85841698
0.85361686
0.86064719
0.85950614
0.84680338
0.84367696
0.99059961
0.98295057
0.97135462
0.9613476
0.95249265
0.94496339
0.93619803
0.92149886
0.89901747
0.87358895
0.85331959
0.84441891
0.84840066
0.86146306
0.87873041
0.89116602
0.8936144
0.88645411
0.8773135
0.871163
0.8645273
0.8571723
0.85606397
0.86332048
0.85828755
0.83103735
0.81858585
0.97910012
0.96742781
0.95350657
0.94232085
0.93345748
0.92532373
0.91357294
0.89470012
0.87078142
0.84869179
0.83561834
0.8354912
0.84545846
0.86197282
0.87775246
0.88475307
0.88220798
0.87356061
0.86488178
0.85965726
0.85650825
0.85422032
0.85509459
0.85983626
0.85164544
0.81967676
0.80172079
0.95871757
0.94463098
0.93051008
0.92045397
0.91121596
0.90019997
0.88373438
0.86190438
0.83976151
0.82391863
0.81963725
0.82683841
0.8417345
0.85905522
0.87070479
0.87339427
0.86872646
0.86163621
0.85634697
0.85324265
0.85066329
0.8492002
0.84921636
0.84894567
0.83838565
0.81179109
0.79599956
0.93929814
0.92524483
0.91211411
0.90098813
0.88899905
0.87296572
0.85217613
0.83018601
0.81212
0.80268352
0.80458875
0.81520393
0.83203811
0.84767389
0.85637418
0.85771067
0.85453077
0.85140474
0.85053838
0.85039786
0.84819848
0.84387068
0.83889877
0.83453998
0.82433983
0.80761965
0.79916868
0.92510346
0.9140741
0.90132755
0.88697954
0.86903804
0.84843324
0.82684279
0.80702324
0.79208532
0.78566775
0.78902296
0.79992575
0.814872
0.82814121
0.83603274
0.83943379
0.8395752
0.84093703
0.84419588
0.84726836
0.84508723
0.8376799
0.8281252
0.82138391
0.81451012
0.80666385
0.80485038
0.92099641
0.91150114
0.89558628
0.87516066
0.85323682
0.83201335
0.81139857
0.7921198
0.77767706
0.77072843
0.77168767
0.78028795
0.79312746
0.80517517
0.813791
0.81900798
0.82272201
0.82756705
0.8345778
0.83990227
0.8382121
0.82950535
0.81912066
0.8129674
0.81077261
0.81013414
0.81140855
0.92884592
0.91636945
0.89112343
0.8650828
0.84295668
0.82233663
0.80094152
0.78020008
0.76400109
0.75488598
0.7533015
0.76037421
0.7717452
0.78320983
0.79230716
0.79888722
0.80440432
0.81151488
0.82058798
0.82685762
0.82580593
0.81886312
0.81188415
0.81095297
0.81459651
0.81634032
0.81319881
0.93954835
0.91937691
0.88597107
0.85854902
0.83656547
0.81445839
0.79071537
0.76786129
0.74985806
0.73921542
0.73645754
0.74252047
0.75332209
0.76472907
0.77445533
0.78124742
0.7872331
0.79460165
0.80305386
0.80871883
0.80879931
0.80616855
0.80633506
0.81254091
0.82099805
0.82153218
0.80929673
0.94473751
0.91597223
0.87777249
0.85195115
0.83074275
0.80713764
0.78118115
0.75651519
0.73747504
0.72666175
0.72388608
0.72967819
0.74031713
0.75153594
0.7610436
0.7679705
0.77337281
0.7789546
0.78430625
0.7877359
0.78943028
0.79218491
0.79997717
0.81293643
0.82515074
0.8221807
0.80144021
0.93777419
0.90083595
0.86310572
0.84185525
0.82303787
0.79987579
0.77337606
0.74814434
0.7290383
0.71851061
0.71603929
0.72132965
0.73128283
0.74208571
0.75118284
0.75765751
0.76189764
0.76485113
0.76634166
0.76741381
0.77044456
0.7769946
0.7902075
0.80797104
0.821562
0.81501854
0.79132401
0.91600482
0.87437987
0.84190567
0.82653409
0.811517
0.79044208
0.76484583
0.74003213
0.72144014
0.71154259
0.70989517
0.71552522
0.72539445
0.73568914
0.74383127
0.74885114
0.75089312
0.75088445
0.74997203
0.75008101
0.75334015
0.76231113
0.77724144
0.79471943
0.80620007
0.79901702
0.77822275
0.88307756
0.84276683
0.81731825
0.80731473
0.79608412
0.7770291
0.75195811
0.72724966
0.70930918
0.70095011
0.70160273
0.70864648
0.71965508
0.72981397
0.73677864
0.73978124
0.73974696
0.73820681
0.73660678
0.73667704
0.74022471
0.74858785
0.76133915
0.77443661
0.78074129
0.77489264
0.76067444
0.84782261
0.81135851
0.79103963
0.78491133
0.77676915
0.75969688
0.73536544
0.71085741
0.69307526
0.68528669
0.68747546
0.6958838
0.70876751
0.72007222
0.72719768
0.73006617
0.72964029
0.7279603
0.72678882
0.72755655
0.73067428
0.73703956
0.74457109
0.75015406
0.75174617
0.74777059
0.74140876
0.81519397
0.78363606
0.76658691
0.76140004
0.75453509
0.73991879
0.7183849
0.69581941
0.67809246
0.66872039
0.66873668
0.67632629
0.68952071
0.70334941
0.71306028
0.71841182
0.71988779
0.7196694
0.71981808
0.72137846
0.72388289
0.72664266
0.72748075
0.72647461
0.72579325
0.72383245
0.72444582
0.78544448
0.75806062
0.74204374
0.73666137
0.73066822
0.71931712
0.70251961
0.68414506
0.6680583
0.65700661
0.652605
0.6561691
0.66568005
0.67962955
0.69293954
0.70294859
0.70873209
0.71160679
0.71380518
0.71575
0.71657418
0.71541402
0.7114572
0.70655055
0.70496553
0.706105
0.71160254
0.75862726
0.73365338
0.71679036
0.71027422
0.70506327
0.69689656
0.68519897
0.67203585
0.6598397
0.65008659
0.64409004
0.64265695
0.64728235
0.65690889
0.66974113
0.68254354
0.69303846
0.70043024
0.70567606
0.70882097
0.70830339
0.70340036
0.69649914
0.69020485
0.68874542
0.69255819
0.70195795
0.73571018
0.7106242
0.69145647
0.68358625
0.67906274
0.67354748
0.666005
0.65753021
0.64940206
0.6420746
0.63602595
0.63260215
0.63417333
0.64104802
0.65220939
0.6651085
0.67721134
0.68674689
0.69429729
0.69862153
0.69822059
0.69260598
0.68426796
0.67741826
0.67595739
0.68173649
0.69370094
0.71716062
0.69050744
0.66955522
0.66081446
0.65697663
0.65384669
0.64972986
0.6446411
0.63888134
0.63283892
0.62709939
0.62281509
0.62181135
0.62661948
0.63631154
0.64950186
0.6631856
0.67465638
0.68312972
0.68856246
0.68925571
0.68415459
0.6758452
0.66876634
0.66669179
0.67242117
0.68554127
0.70224704
0.67472972
0.65363141
0.64499122
0.64236055
0.64137032
0.63988648
0.63688649
0.63239464
0.62678756
0.62024493
0.61427712
0.61093246
0.61146507
0.61860828
0.63083407
0.64566993
0.65998374
0.67188781
0.68001406
0.68326539
0.68049418
0.67326418
0.6655427
0.66188224
0.66542061
0.6775037
0.68912915
0.66220309
0.64209361
0.63464044
0.63317828
0.6335738
0.63439755
0.63392745
0.63180662
0.62619661
0.61887299
0.61059808
0.60321954
0.59884666
0.60050434
0.60927974
0.62362264
0.64048624
0.65704314
0.67028071
0.67896121
0.68068654
0.67618605
0.66797147
0.66102178
0.66067453
0.66981393
0.67810447
0.65172552
0.63295229
0.62705212
0.62613006
0.62862457
0.63177302
0.63417353
0.63397361
0.62981391
0.62260603
0.61216262
0.60111317
0.59248595
0.5881995
0.59217456
0.60390202
0.62165485
0.64075922
0.65903569
0.67265699
0.68009122
0.67994844
0.67229348
0.66209224
0.65677796
0.66261606
0.6682759
0.64214065
0.62549389
0.62122015
0.62275259
0.62777215
0.6330563
0.63696573
0.63784176
0.63531163
0.62697371
0.61592165
0.60353641
0.59326743
0.58751123
0.5875517
0.59586983
0.61043281
0.62926693
0.64768654
0.66356766
0.67509241
0.67863918
0.67405327
0.66281647
0.65355061
0.65700191
0.65848112
0.63496488
0.62390429
0.62254188
0.62665515
0.63243759
0.6379142
0.64130994
0.64172415
0.63949177
0.63170645
0.62121121
0.60994471
0.60005814
0.59420987
0.59281496
0.59786992
0.60787631
0.62202252
0.63750898
0.65133888
0.66363032
0.67156462
0.67092453
0.66249414
0.65270912
0.65383417
0.65354892
0.63853909
0.63223219
0.63232258
0.63674615
0.64139992
0.6448111
0.64579996
0.64454667
0.64020384
0.63266847
0.62307823
0.61348048
0.60568466
0.60067948
0.59817916
0.60048217
0.60540293
0.61385877
0.62431544
0.6353426
0.64784052
0.65964531
0.66510234
0.66262521
0.6551668
0.65336705
0.65687256
0.64889782
0.6455812
0.64621181
0.64733532
0.64808684
0.64744582
0.64566304
0.64194918
0.63721208
0.62953384
0.62136456
0.61321741
0.60540813
0.59991904
0.59587436
0.59472844
0.59540637
0.59816092
0.60593315
0.61612388
0.63121089
0.64791308
0.66027054
0.66279139
0.65853158
0.65485213
0.66442712
0.65875369
0.65357009
0.65033525
0.64762403
0.64645751
0.6443682
0.64143495
0.63705206
0.63103279
0.62335529
0.61501109
0.6067203
0.59791663
0.59038207
0.58385822
0.57945116
0.57685517
0.57843434
0.58565168
0.59832959
0.61714222
0.6390647
0.65504787
0.66158632
0.66002414
0.65563754
0.67197582
0.66054859
0.65103626
0.64550234
0.64195347
0.64034828
0.63781497
0.63332829
0.62894954
0.62243475
0.61411011
0.60469304
0.59518469
0.58559175
0.57601823
0.56804463
0.56216468
0.55991512
0.56215381
0.57117986
0.58679692
0.60791497
0.63091802
0.64949694
0.65968068
0.65944066
0.65491776
0.67091554
0.65208498
0.63918269
0.63366077
0.63067236
0.62940656
0.62687841
0.62274853
0.61803144
0.61156517
0.60379994
0.59431514
0.58457187
0.57456287
0.5646567
0.55674434
0.55118895
0.54979789
0.55349936
0.56300177
0.58029977
0.60259977
0.62665813
0.64645233
0.65765433
0.6583273
0.65388585
0.65961926
0.63403098
0.6222604
0.61871645
0.61855623
0.61794346
0.61618097
0.61279938
0.60845783
0.60242497
0.59504728
0.58614063
0.57687391
0.56739074
0.55822983
0.55142022
0.54698355
0.54707405
0.55221838
0.56289048
0.58030697
0.60377454
0.62781844
0.64681513
0.65708722
0.65742516
0.65325479
0.6391246
0.61355448
0.60446219
0.60264102
0.60507354
0.6060812
0.60560567
0.60342881
0.59978676
0.59409267
0.5871368
0.57938372
0.57114456
0.5632879
0.55640975
0.5517699
0.54969907
0.55203763
0.558144
0.56942755
0.58687455
0.60865648
0.63126051
0.64819943
0.65680342
0.65671378
0.65444938
0.61162411
0.58989308
0.58488209
0.58774185
0.59202487
0.59492749
0.59572334
0.59427403
0.59090587
0.58570648
0.57969386
0.5733681
0.56699465
0.56154368
0.55786688
0.55616242
0.55777582
0.5623307
0.56957263
0.58135332
0.59742402
0.61640447
0.63558639
0.64995273
0.65641268
0.65756174
0.6592847
0.58008364
0.56888861
0.56966316
0.57544379
0.58044431
0.5834525
0.58412142
0.58269577
0.5793494
0.57505058
0.57027894
0.56571033
0.56192669
0.55967412
0.55904332
0.56133332
0.56591881
0.57228927
0.58032433
0.59144184
0.60529398
0.62138211
0.63632398
0.64763051
0.65389459
0.65711518
0.66416451
0.55110135
0.54932317
0.55489856
0.5611207
0.56577746
0.56802805
0.56801048
0.56605286
0.56271851
0.55893491
0.5551685
0.55216335
0.55065667
0.55064364
0.55318868
0.55751111
0.56333411
0.57026874
0.57834588
0.58850956
0.60074468
0.61433056
0.62668097
0.63609057
0.64180029
0.64608891
0.65351672
0.52939546
0.53012465
0.53609334
0.54213545
0.54648282
0.54822781
0.54755476
0.54470722
0.54029561
0.53533586
0.53065153
0.52701121
0.52531012
0.52538779
0.52873266
0.53414641
0.54106389
0.54876623
0.55712251
0.5668379
0.57765336
0.58806048
0.59637479
0.60093185
0.60152197
0.60133316
0.59981382
0.50608238
0.49958012
0.50249501
0.51058923
0.51843842
0.52296451
0.52331818
0.51976441
0.51302166
0.50403241
0.49425163
0.48508835
0.47790971
0.47383334
0.47310015
0.47787481
0.4866861
0.49769387
0.50988471
0.52169908
0.53244102
0.5399983
0.54262138
0.53830921
0.52823088
0.51991023
0.51119418
0.45301064
0.44379185
0.44951092
0.46395999
0.47985918
0.49115474
0.49483897
0.49232694
0.48230602
0.4674083
0.44928597
0.42968136
0.41073344
0.39596258
0.38866175
0.38802
0.39777206
0.41399943
0.43293658
0.45112342
0.4651655
0.47208798
0.47097853
0.4604466
0.44505621
0.4343634
0.42915095
0.3966299
0.39812539
0.40731103
0.41914831
0.43030236
0.43801696
0.44037663
0.43592461
0.42239598
0.40141652
0.37598966
0.35000907
0.32740965
0.31026405
0.29960147
0.29583544
0.30261734
0.31890376
0.34043427
0.36151896
0.37730831
0.3821981
0.37879816
0.36756138
0.35590163
0.35210103
0.35663187
0.33494721
0.33071086
0.32666777
0.32060001
0.31216917
0.3017762
0.2897318
0.27591225
0.26009677
0.24368078
0.22780558
0.21285381
0.20012042
0.19248436
0.19090401
0.19559361
0.2051094
0.21939291
0.23731833
0.25808796
0.27702019
0.28881858
0.29222533
0.29094725
0.2890573
0.29228832
0.30232994
0.24732647
0.23322278
0.22118383
0.20980038
0.19920456
0.19065772
0.18434043
0.18014896
0.17545315
0.16844743
0.15757941
0.14565601
0.13612597
0.13114776
0.13257943
0.14004142
0.15398343
0.17437319
0.1979862
0.21780751
0.23152505
0.24214958
0.25234518
0.26107434
0.26695204
0.27231887
0.27926061
0.21276285
0.20460728
0.20142128
0.20103481
0.20058534
0.19978377
0.19900416
0.19819301
0.19685498
0.19422063
0.18989965
0.1836157
0.17676964