/*--------------------------------*- C++ -*----------------------------------*\
| =========                 |                                                 |
| \\      /  F ield         | OpenFOAM: The Open Source CFD Toolbox           |
|  \\    /   O peration     | Version:  2406                                  |
|   \\  /    A nd           | Website:  www.openfoam.com                      |
|    \\/     M anipulation  |                                                 |
\*---------------------------------------------------------------------------*/
FoamFile
{
    version     2.0;
    format      ascii;
    arch        "LSB;label=32;scalar=64";
    class       volVectorField;
    location    "17";
    object      U;
}
// * * * * * * * * * * * * * * * * * * * * * * * * * * * * * * * * * * * * * //

dimensions      [0 1 -1 0 0 0 0];

internalField   nonuniform List<vector> 
96472
(
(0.080453159 -0.0010047717 -9.3450512e-22)
(0.080556601 0.00041852043 5.997997e-21)
(0.082857615 0.0013174987 3.2422031e-21)
(0.081735085 0.0021750687 8.5409735e-21)
(0.082290782 0.0030912932 -1.092936e-20)
(0.083510033 0.0038945003 -8.1922992e-21)
(0.084476062 0.0045748001 3.155778e-21)
(0.085037959 0.0049564172 8.4266498e-21)
(0.085374863 0.0050792028 5.6509541e-21)
(0.085705386 0.0050747822 -4.5594261e-21)
(0.086055618 0.005053779 -5.0380055e-21)
(0.086385485 0.0050717109 -2.5204229e-21)
(0.086671504 0.0051271788 -2.279939e-21)
(0.086929568 0.0051903963 -2.5247114e-21)
(0.08727705 0.0053708351 -3.3037305e-24)
(0.087627059 0.0055073236 6.482512e-24)
(0.087938675 0.0057318196 -1.3754325e-21)
(0.088242109 0.0058580237 -1.9504784e-21)
(0.0883668 0.0059120494 2.5065774e-21)
(0.088361188 0.0060014874 -1.6690192e-21)
(0.08815513 0.0060270555 1.6979714e-21)
(0.087741353 0.0061484631 -1.7714364e-21)
(0.087135525 0.0062601142 -4.9952233e-22)
(0.086344297 0.0064692949 9.894146e-22)
(0.085291164 0.0066213939 -7.457019e-22)
(0.084128175 0.0069707088 -1.8014812e-21)
(0.082851463 0.007095139 2.0119073e-21)
(0.08145624 0.0073243313 4.8108602e-22)
(0.079985171 0.0072127133 -1.184366e-21)
(0.078499065 0.0070843083 -8.9916097e-22)
(0.077213723 0.0064499307 3.1853097e-22)
(0.075852789 0.0058299635 -1.7070203e-22)
(0.074822635 0.0047902982 8.4837438e-22)
(0.073765904 0.0037492873 1.6189781e-21)
(0.073017647 0.0023652508 0)
(0.072277091 0.0009553871 2.3514743e-21)
(0.071781329 -0.00068345325 -2.3998875e-21)
(0.071204252 -0.0022947078 1.8943844e-21)
(0.070962629 -0.0040765362 -1.2996222e-21)
(0.070533646 -0.0058275559 -3.2273591e-22)
(0.070589597 -0.0078424062 -2.9723835e-22)
(0.070163803 -0.0097075325 1.8098154e-21)
(0.070454315 -0.011887027 -1.1139848e-21)
(0.070128825 -0.013800217 1.7279178e-21)
(0.070640281 -0.015950105 2.653863e-22)
(0.070657275 -0.018255732 -4.7517384e-22)
(0.071380302 -0.020247276 -2.5488105e-22)
(0.071721772 -0.022542071 -4.6691215e-21)
(0.072887364 -0.024736028 -1.0635941e-21)
(0.073456066 -0.02718306 7.4497597e-22)
(0.074915045 -0.029338897 1.196462e-21)
(0.075634515 -0.031686379 1.2549825e-22)
(0.077097669 -0.033870008 -7.5614075e-22)
(0.078373657 -0.036096187 7.3737231e-23)
(0.07959435 -0.039205406 -2.2256044e-21)
(0.080940641 -0.0010384647 1.6524643e-22)
(0.080616099 0.00061130617 3.6584245e-21)
(0.082940522 0.0013124445 0)
(0.081777948 0.0021606928 8.9348775e-21)
(0.082262741 0.003086468 8.8638717e-21)
(0.083494464 0.003891232 -1.2719333e-23)
(0.084503885 0.0045536308 -1.8634313e-24)
(0.085101411 0.0049246216 -7.0411065e-21)
(0.085450262 0.0050509376 5.9783024e-21)
(0.085782766 0.005045165 0)
(0.086130556 0.0050285045 -3.6675113e-23)
(0.086456387 0.0050575234 -4.6609797e-21)
(0.086752168 0.0051000803 -2.2443801e-21)
(0.087032103 0.005184335 5.5719012e-23)
(0.087351308 0.0053237682 -4.6385721e-24)
(0.087714348 0.0054758206 -2.3036957e-21)
(0.088019489 0.0055941867 5.9393995e-23)
(0.088296444 0.0057560254 5.6069814e-23)
(0.088464452 0.0058308362 -8.7270151e-23)
(0.088486749 0.0058506556 0)
(0.088330849 0.0058744567 2.619021e-21)
(0.087976328 0.0058932366 -1.9150215e-21)
(0.087429506 0.0059759345 -1.8735458e-22)
(0.086722191 0.0061105171 1.4496312e-23)
(0.085824588 0.0063016261 -1.3117031e-21)
(0.084775063 0.0065216806 -2.517023e-22)
(0.083583105 0.0066924794 -2.7627174e-22)
(0.082280634 0.0068861303 2.9728723e-21)
(0.080895506 0.0068176581 -4.1182059e-21)
(0.079477893 0.006667194 -1.3591126e-21)
(0.078150598 0.0061773698 1.3633407e-21)
(0.076795552 0.0056426204 1.1920126e-21)
(0.075672145 0.0047332826 -4.1367188e-21)
(0.074467764 0.0038512504 1.8808537e-22)
(0.073635044 0.0026270117 4.4627502e-22)
(0.072615471 0.0014901687 -1.7077177e-21)
(0.072079016 1.5264691e-05 -3.4852899e-22)
(0.071390672 -0.0014626176 2.5063561e-23)
(0.071252924 -0.0031700766 2.6240546e-22)
(0.070899033 -0.0048802424 3.4351118e-21)
(0.071072477 -0.006701699 -2.503957e-22)
(0.070880898 -0.0085695623 2.5656713e-23)
(0.071313097 -0.010466924 -5.2623401e-24)
(0.07131376 -0.012456525 -2.1108907e-22)
(0.071970722 -0.014442891 3.5435718e-21)
(0.072161307 -0.016450327 3.6787098e-22)
(0.072910461 -0.018488313 -2.1630871e-21)
(0.073251788 -0.020642268 5.6876171e-24)
(0.07412157 -0.022613207 2.3561406e-23)
(0.074743533 -0.024721643 1.5777488e-22)
(0.075659668 -0.026807174 -2.7667118e-22)
(0.07684156 -0.028892505 -8.3309908e-22)
(0.077658001 -0.031193694 -8.9519807e-23)
(0.079287655 -0.032699598 1.2254789e-21)
(0.080056015 -0.035840855 5.9401342e-22)
(0.081230038 -0.00077022672 2.3314835e-24)
(0.08079636 0.00059037716 0)
(0.083073882 0.0012616688 9.1304423e-21)
(0.081924486 0.0021190577 0)
(0.082371968 0.0030584325 1.3836248e-20)
(0.083564176 0.0038560523 1.9272867e-23)
(0.084531866 0.0045095251 4.3345285e-24)
(0.085125356 0.0048778242 -1.4550317e-23)
(0.085490515 0.0050057022 -6.4296736e-21)
(0.085839154 0.0050023128 -3.1265346e-21)
(0.086200955 0.0050159937 -2.1900621e-23)
(0.086538172 0.0050688682 5.3790609e-21)
(0.086828954 0.0051044238 2.4112284e-21)
(0.087091824 0.0052075322 6.2423879e-21)
(0.087364055 0.0052585101 -1.2206867e-22)
(0.087688227 0.0054201148 1.8420332e-21)
(0.087966304 0.0055224521 1.1027731e-21)
(0.088214837 0.0056100403 -1.0407509e-21)
(0.08839343 0.0056883521 0)
(0.088447709 0.0057108903 -1.3413752e-22)
(0.088327032 0.005716145 1.0908359e-23)
(0.088038297 0.0057729983 -1.3823963e-23)
(0.087538067 0.0057747747 -1.7452368e-22)
(0.086870581 0.0059082897 1.9593466e-22)
(0.086016372 0.0060308859 1.731688e-22)
(0.085043954 0.0062736881 1.7656067e-21)
(0.083899529 0.0064255195 -2.4896645e-21)
(0.082656476 0.0066130876 -6.3858839e-22)
(0.081350575 0.0065809497 1.1174307e-21)
(0.080004187 0.0064322552 8.061608e-22)
(0.078723248 0.0059901797 2.6983569e-24)
(0.077455775 0.0054208112 1.732994e-21)
(0.076367703 0.0045537373 1.2143235e-22)
(0.07526825 0.003587038 -3.6040911e-22)
(0.074410806 0.0023881751 3.9489208e-22)
(0.073507742 0.0011592055 -2.1954406e-21)
(0.072966882 -0.00025021823 -6.8575852e-22)
(0.072279553 -0.0016507722 -1.8844495e-21)
(0.072045064 -0.0032103919 -2.0512216e-23)
(0.071683686 -0.0047940059 2.4343282e-23)
(0.071798724 -0.0064718985 -1.4923949e-21)
(0.071736091 -0.0082400871 -3.3343218e-21)
(0.072119311 -0.010010864 0)
(0.072322128 -0.011893024 -1.5483129e-21)
(0.072888893 -0.013700879 -7.9321365e-22)
(0.073368501 -0.015654692 1.587901e-21)
(0.074078632 -0.017576555 -1.4226398e-21)
(0.07482967 -0.019434987 -2.6948226e-24)
(0.075445564 -0.021415144 0)
(0.076538138 -0.023324262 -2.0624561e-24)
(0.07715231 -0.025381671 -4.4083829e-22)
(0.078438836 -0.027062554 4.9307684e-22)
(0.078954564 -0.029138717 3.7289309e-22)
(0.080570576 -0.030628366 -1.2993208e-22)
(0.0812362 -0.03338841 7.2617158e-22)
(0.081515021 -0.00070783279 1.7491955e-22)
(0.08090263 0.00074662697 1.4525778e-22)
(0.083161153 0.0012850633 1.1070083e-23)
(0.082004984 0.0021364834 -9.5643695e-23)
(0.082409433 0.0030656993 -4.6339299e-23)
(0.083564854 0.0038425378 -1.8841494e-23)
(0.084513855 0.0044968939 -6.4090597e-24)
(0.085129676 0.0048525059 6.8876208e-21)
(0.0855308 0.0049500624 -1.4439899e-23)
(0.085905857 0.0049410104 -2.9421734e-21)
(0.086282464 0.0049678028 -9.075633e-25)
(0.086628105 0.005032473 8.4751623e-24)
(0.086908482 0.0051067373 7.7593315e-21)
(0.087154365 0.0051750925 -2.6477431e-21)
(0.087391298 0.0052658 -1.08491e-22)
(0.087669735 0.0053213673 1.2165495e-23)
(0.087926733 0.0054685354 -1.5719238e-21)
(0.088163925 0.005517967 3.1776729e-24)
(0.088347256 0.0055191254 1.7020979e-21)
(0.088438161 0.00553271 0)
(0.088361272 0.0055023032 4.2538615e-22)
(0.088131069 0.0055245245 0)
(0.087705502 0.005580739 -1.7022745e-21)
(0.087105169 0.0056728248 -2.1096542e-21)
(0.086317542 0.0057681029 1.9509849e-22)
(0.085382514 0.0059260436 1.6052759e-21)
(0.084319049 0.0060915266 1.4972115e-21)
(0.083140736 0.006204321 -1.6517303e-21)
(0.081882391 0.0062004756 1.6353753e-21)
(0.080597975 0.0060803709 1.2586192e-22)
(0.079342378 0.0057417856 -1.2120346e-23)
(0.078139601 0.0052238945 -6.4140933e-22)
(0.077043554 0.004517891 1.3030059e-21)
(0.076039888 0.003676853 2.2847985e-21)
(0.075155313 0.00266253 -9.5332965e-22)
(0.07433391 0.0015400287 -3.1120515e-23)
(0.073701424 0.00030068095 -3.3614265e-22)
(0.073198995 -0.0010680792 -3.9935816e-21)
(0.072910964 -0.0025351419 1.8455462e-21)
(0.072700135 -0.0040885913 -3.193566e-21)
(0.072671875 -0.0056877083 2.1371069e-22)
(0.072698434 -0.0073356641 -2.8920463e-22)
(0.072865529 -0.0090328055 -1.0485618e-22)
(0.073204924 -0.01073761 1.5483461e-21)
(0.073567991 -0.012567113 -2.4257139e-21)
(0.074293637 -0.01434488 -1.8867521e-21)
(0.074692798 -0.016176342 -1.1841573e-21)
(0.075723022 -0.017976937 -1.9673064e-22)
(0.076319804 -0.019981449 6.3290522e-22)
(0.077472756 -0.021584901 -2.8191042e-23)
(0.078050429 -0.023609535 2.5296235e-22)
(0.079451805 -0.025143197 -1.0748882e-23)
(0.080136825 -0.027343997 1.5717157e-22)
(0.081774114 -0.028675195 2.8417639e-23)
(0.082270675 -0.031093975 1.122624e-21)
(0.08177569 -0.00049533982 1.0883833e-21)
(0.080992026 0.00081276287 0)
(0.083221829 0.0012840438 -1.7384741e-20)
(0.082053415 0.0021360817 -8.8517484e-21)
(0.082414289 0.0030656168 0)
(0.083542049 0.0038202979 8.6347779e-21)
(0.084484322 0.0044640043 0)
(0.085128712 0.0048196826 0)
(0.085570078 0.0049139378 5.9900307e-21)
(0.085971185 0.0049173789 -2.7678723e-21)
(0.086360112 0.0049500547 -1.4392773e-23)
(0.086703976 0.0050200653 8.3092238e-21)
(0.086982704 0.0051170843 -2.6450007e-21)
(0.087206954 0.0051521058 -6.651746e-21)
(0.087414832 0.0052642149 -4.5082358e-21)
(0.087654352 0.0052923078 -1.4781124e-21)
(0.087878308 0.0053591799 3.8739757e-21)
(0.088117464 0.0054337986 4.1348556e-21)
(0.088309167 0.0054215908 -5.6078236e-22)
(0.088425852 0.0054005971 -1.0604038e-22)
(0.088391829 0.0053637276 4.5379578e-22)
(0.088198579 0.0053213067 1.4639505e-22)
(0.087826216 0.0053468352 1.4050931e-22)
(0.087287108 0.0054074709 -1.6405676e-22)
(0.086568605 0.0055147239 -3.2320305e-22)
(0.085697684 0.0056614211 -1.8577122e-22)
(0.084685226 0.005771132 1.6220103e-21)
(0.083568811 0.005880592 9.767429e-23)
(0.082361471 0.0058759722 -1.2379002e-21)
(0.081128024 0.0057279623 0)
(0.079905421 0.0054129665 1.4936532e-22)
(0.078768719 0.0048818334 -1.4279779e-23)
(0.077664912 0.0042315904 -1.5045187e-21)
(0.076744549 0.0033762057 -1.4230055e-21)
(0.075830058 0.0024619426 -1.0351777e-21)
(0.075147904 0.0013568583 -3.3234726e-22)
(0.074462063 0.0001883814 9.7689921e-22)
(0.074051712 -0.001100011 1.5332232e-21)
(0.073630864 -0.0024365441 4.9497417e-23)
(0.073562297 -0.0038707016 2.8717674e-21)
(0.073444347 -0.0053545694 1.4627702e-21)
(0.073686298 -0.0068810341 1.5873355e-21)
(0.073728573 -0.0084612042 -2.5715668e-22)
(0.074253205 -0.010071004 1.1955193e-21)
(0.074473316 -0.011737246 -9.2621602e-22)
(0.075205683 -0.01328943 -4.0517557e-22)
(0.075660369 -0.01513767 1.4087502e-21)
(0.076653454 -0.016695343 -8.7125947e-22)
(0.077078535 -0.018424436 -8.5271531e-24)
(0.078343582 -0.020046139 -6.8576431e-22)
(0.078970775 -0.021963401 1.0409624e-24)
(0.080354644 -0.023415811 -9.1268167e-22)
(0.080953813 -0.025313915 -7.2217002e-22)
(0.082440329 -0.026456527 -2.4788336e-22)
(0.083221488 -0.028910317 -2.6389378e-22)
(0.082106868 -0.00038789824 0)
(0.081060817 0.00093681879 -1.1335221e-22)
(0.083267049 0.0013339586 7.9695577e-21)
(0.082081422 0.0021798638 8.9098013e-23)
(0.082398219 0.0031039905 4.4588072e-23)
(0.083498767 0.0038213996 8.2301305e-21)
(0.08444123 0.0044376787 0)
(0.085118973 0.0047732635 6.9993115e-21)
(0.085601759 0.0048727135 -6.0783699e-21)
(0.086027623 0.0048809335 -5.8951461e-24)
(0.086427577 0.0049362028 4.9879428e-23)
(0.086769347 0.0050317113 5.3653745e-21)
(0.087043122 0.005105883 -5.493753e-21)
(0.087252289 0.0051865929 3.8507477e-21)
(0.08743061 0.0052122181 -5.6930685e-24)
(0.087649544 0.0052828008 5.6308003e-21)
(0.087843422 0.0052803815 1.5332813e-21)
(0.088058358 0.0053069255 -1.7239519e-21)
(0.088267372 0.0053297543 -8.8276874e-23)
(0.088412913 0.0052867745 -5.3889042e-23)
(0.088424559 0.0052504212 6.767622e-24)
(0.088287377 0.0052162916 1.342372e-22)
(0.08796313 0.0051512835 6.995034e-22)
(0.087468374 0.0051732232 1.8018044e-23)
(0.086793663 0.0052216819 1.625364e-22)
(0.085979036 0.0053438373 -1.7509098e-22)
(0.085034639 0.005456033 -2.6471066e-21)
(0.083971003 0.0055588887 8.6234868e-22)
(0.082826653 0.0056178827 -9.3828955e-22)
(0.081653703 0.005482531 -9.1500625e-22)
(0.08046442 0.0052578268 -1.112113e-21)
(0.079371672 0.0048011381 1.3282507e-23)
(0.078285187 0.0042630162 -1.4597264e-23)
(0.07740986 0.0034577668 -3.3190032e-21)
(0.076497264 0.0026247984 3.9715747e-21)
(0.075851427 0.0015971713 2.5984176e-21)
(0.075150743 0.00055160175 3.4240572e-22)
(0.074809962 -0.00065063596 2.0091623e-21)
(0.074396905 -0.0019061447 -1.9584851e-21)
(0.074390801 -0.0032727699 1.7582372e-21)
(0.074230054 -0.0046785946 3.4279708e-22)
(0.07446845 -0.0061094648 0)
(0.074533611 -0.007631222 -1.6009122e-21)
(0.075022692 -0.0090909828 6.0177902e-24)
(0.075261997 -0.010695114 1.2098185e-21)
(0.076096179 -0.012255269 -4.4112995e-23)
(0.076433208 -0.013888405 1.3314282e-21)
(0.077385528 -0.015291561 5.4878274e-22)
(0.078014835 -0.017168887 3.2495657e-22)
(0.079153454 -0.018566275 0)
(0.079718666 -0.020250217 5.9603011e-22)
(0.080994615 -0.021583729 1.4812826e-21)
(0.081691421 -0.023346716 3.9189461e-23)
(0.083256705 -0.02468108 -3.4626415e-23)
(0.083932763 -0.026756011 1.1889763e-21)
(0.082476591 -0.00023723342 0)
(0.081127367 0.0010671618 -3.0487247e-21)
(0.083299798 0.001385843 2.1978407e-23)
(0.082090449 0.0022174056 -8.4147751e-23)
(0.082370675 0.0031308039 4.98645e-23)
(0.083448695 0.0038138053 1.6694163e-23)
(0.084397141 0.0044087026 -9.0106945e-25)
(0.085105212 0.0047271938 2.25554e-23)
(0.085626246 0.004817158 -1.2574271e-23)
(0.08607211 0.0048216973 1.5423391e-23)
(0.086474335 0.0048984821 1.1809623e-23)
(0.086820152 0.0050201539 -9.437022e-21)
(0.087086755 0.0051052762 2.6503279e-21)
(0.087293494 0.0051984354 8.0432176e-21)
(0.087448669 0.0052015476 7.8829167e-24)
(0.087636707 0.0052173871 2.3348754e-21)
(0.087821238 0.0052524083 -3.14269e-21)
(0.088013655 0.0052194046 -2.3708119e-21)
(0.088223487 0.0051896449 4.1359879e-23)
(0.088396324 0.0051494297 -1.9936888e-21)
(0.088441824 0.0050588925 3.3297045e-24)
(0.088353784 0.0050293611 -1.3104307e-21)
(0.088091229 0.0049966699 1.3642915e-22)
(0.087647312 0.0049862604 -4.5994372e-22)
(0.087034642 0.0050177588 -3.4782849e-22)
(0.086266374 0.0050609005 1.2795168e-21)
(0.085371937 0.0051727106 6.0787049e-23)
(0.084356721 0.0052279034 3.3348474e-22)
(0.083264689 0.0052680614 9.8223106e-23)
(0.082137797 0.0051455032 -4.4640319e-22)
(0.080979822 0.0049768444 4.5516064e-22)
(0.079925325 0.0045324915 -5.4164513e-22)
(0.078879021 0.0040400196 1.1338913e-23)
(0.078042658 0.0033039901 -1.2034784e-23)
(0.07716633 0.0025403 1.3797115e-21)
(0.076546882 0.001564406 2.743173e-21)
(0.075875061 0.00056178846 -7.3346629e-22)
(0.075535707 -0.00057213102 1.4318677e-22)
(0.075117517 -0.001744431 -1.7487385e-21)
(0.075094568 -0.0029947609 -5.2784932e-24)
(0.074959712 -0.0043006273 1.4917912e-21)
(0.075242956 -0.0056318937 2.4658171e-22)
(0.075283673 -0.0070232853 -1.8983498e-22)
(0.075820405 -0.0083948804 -1.7401034e-21)
(0.076086876 -0.0099200938 5.5017402e-23)
(0.076798862 -0.011230133 -9.4783842e-23)
(0.077243302 -0.012792739 2.9097017e-22)
(0.078262541 -0.014264125 -6.3330215e-23)
(0.078743858 -0.015783317 -3.2353271e-22)
(0.079829851 -0.017040912 7.1860347e-22)
(0.080514173 -0.018725021 -2.9589446e-22)
(0.081761882 -0.019976989 1.0899496e-21)
(0.082504787 -0.021774794 -7.6060243e-22)
(0.08382368 -0.022586711 -8.7726314e-22)
(0.084493113 -0.024613264 8.8132724e-23)
(0.083055022 -8.5584568e-05 -1.9673988e-22)
(0.081151288 0.0011501533 -2.881649e-21)
(0.083308923 0.001450351 -6.2903038e-21)
(0.082072432 0.0022790337 -6.3739535e-21)
(0.082324569 0.0031782621 -6.7790484e-21)
(0.083384116 0.0038205592 -7.4527361e-21)
(0.084344625 0.0043778511 7.1496733e-21)
(0.085088931 0.0046799624 -6.3538732e-21)
(0.085647926 0.0047433468 1.2536291e-23)
(0.086108206 0.0047562979 2.7000181e-21)
(0.086509098 0.0048414749 -2.9022074e-21)
(0.086851776 0.0049614806 -6.1357594e-21)
(0.087116291 0.0050983595 5.4159528e-21)
(0.087318038 0.005143952 -9.1880262e-23)
(0.087468985 0.0052125018 -9.9176831e-23)
(0.087628326 0.0051574791 9.8543774e-23)
(0.087792781 0.0051743207 0)
(0.087983415 0.0051662856 1.4917194e-21)
(0.088191859 0.0050882676 -2.3183651e-21)
(0.088387734 0.005018747 -4.2429737e-23)
(0.088474504 0.0049256612 -1.4742068e-24)
(0.088408336 0.004821236 1.0789848e-22)
(0.088200311 0.0047745086 1.0607245e-22)
(0.087812547 0.0047502532 -6.0198889e-22)
(0.087253667 0.0047590748 -1.5410317e-22)
(0.086535041 0.0048061364 -8.0363098e-22)
(0.085691476 0.0048810781 8.2046296e-22)
(0.084730393 0.0049133049 2.0203672e-22)
(0.083679407 0.0049384944 8.1018687e-22)
(0.082586448 0.0048241521 1.3727611e-21)
(0.081476793 0.0046681685 1.1781832e-23)
(0.080451618 0.0042700357 1.2683942e-22)
(0.079424466 0.0038539173 -9.9613627e-22)
(0.078598008 0.003208765 1.1692859e-23)
(0.077762057 0.0025428846 -7.5629661e-22)
(0.077166153 0.0016928525 1.1491863e-23)
(0.076518687 0.00080282493 -1.0122533e-21)
(0.076185552 -0.00022582848 3.3884959e-22)
(0.075809571 -0.0013139803 -1.8439868e-22)
(0.075798128 -0.0024927977 -4.598259e-22)
(0.075673526 -0.0037241853 3.7222726e-22)
(0.075901574 -0.0049474112 1.6791412e-22)
(0.076011109 -0.0062778046 2.6702063e-21)
(0.076486483 -0.0075622414 -1.468383e-21)
(0.076746689 -0.0089344606 -7.0399948e-22)
(0.077511547 -0.010246435 -2.5598925e-22)
(0.07796902 -0.011769266 -4.0343245e-23)
(0.078835162 -0.012959299 -3.7148507e-22)
(0.079424383 -0.014435999 -8.6014102e-22)
(0.080544068 -0.015780631 1.3138594e-23)
(0.081184672 -0.017235045 -1.0523706e-21)
(0.082413934 -0.01842106 -1.2556441e-21)
(0.082950745 -0.019746553 1.4441628e-21)
(0.084358533 -0.020811546 5.2235677e-22)
(0.085238417 -0.022850184 9.3889794e-22)
(0.083359048 -2.3074776e-05 -2.0111453e-22)
(0.081187766 0.0012764458 2.2872589e-21)
(0.083310512 0.0015395087 5.0044895e-21)
(0.082047481 0.0023493349 1.0952086e-20)
(0.082278155 0.0032165133 4.2187991e-23)
(0.083320675 0.003818309 1.4841272e-23)
(0.084291938 0.0043332574 1.6075669e-23)
(0.085068417 0.0046088129 2.2032376e-23)
(0.085661558 0.004665898 -5.5273558e-21)
(0.08613335 0.0046901177 2.7385405e-21)
(0.086534175 0.0047908895 -8.1898408e-21)
(0.086867587 0.0049283922 7.4820728e-23)
(0.087136167 0.005071423 7.7279213e-23)
(0.087333378 0.0051351679 -6.233993e-21)
(0.087476893 0.0051709513 -4.9279108e-21)
(0.087628763 0.005148589 0)
(0.087766225 0.0050752657 0)
(0.087946598 0.0050466493 0)
(0.088165756 0.0049931041 1.4878118e-21)
(0.088372747 0.0048941645 2.3239992e-21)
(0.088501812 0.0048188486 1.8529198e-21)
(0.088479277 0.0047028669 5.788614e-22)
(0.088308446 0.004582627 -3.3556345e-22)
(0.087968792 0.004519321 9.8540934e-24)
(0.087457857 0.0044929781 1.0327355e-22)
(0.086784575 0.0045233051 1.1081923e-22)
(0.085992194 0.0045782275 -3.523782e-22)
(0.085076277 0.0046091839 -7.8858944e-23)
(0.084078461 0.0046621512 7.7025642e-22)
(0.083030454 0.0045722709 1.3199979e-21)
(0.081956946 0.0044549374 -5.9680411e-22)
(0.08095622 0.0041299878 1.9111129e-21)
(0.079964354 0.003764615 -2.0250478e-21)
(0.07915885 0.0031587066 2.0648794e-21)
(0.078343974 0.0025137888 -2.1881396e-21)
(0.077759525 0.0016986764 -9.0195744e-22)
(0.077149044 0.00086024914 1.009369e-21)
(0.076825722 -0.00011292992 -1.6698496e-21)
(0.076464277 -0.0011132267 3.2685176e-21)
(0.076425077 -0.0022067537 -2.4359526e-21)
(0.07631754 -0.0033213819 -1.4843315e-21)
(0.076564381 -0.0044850619 1.1489657e-21)
(0.076654452 -0.0057022959 1.1912684e-23)
(0.077139018 -0.0068561926 1.0345584e-22)
(0.07743246 -0.0081768833 5.7982884e-22)
(0.078139059 -0.0093803346 -2.0765304e-23)
(0.078583336 -0.010693913 -1.29832e-21)
(0.079485825 -0.011860864 1.9867545e-23)
(0.080100532 -0.013378233 -1.3032413e-22)
(0.081096015 -0.014355002 -9.4014373e-22)
(0.081756205 -0.015811058 -9.6453007e-22)
(0.082840024 -0.016743968 6.2230075e-22)
(0.083651924 -0.018256023 3.5581217e-22)
(0.085061586 -0.019417873 -1.1165666e-21)
(0.085604908 -0.020700081 -1.8257063e-22)
(0.083763157 0.000137517 1.5215529e-21)
(0.081176668 0.0012850011 1.8438316e-21)
(0.083303353 0.0015831763 -3.7877451e-21)
(0.082017912 0.002400251 4.5357136e-21)
(0.082231322 0.0032534948 5.0873809e-21)
(0.083257727 0.003807048 6.2545571e-21)
(0.084239388 0.0042643855 -1.4568571e-23)
(0.085044832 0.004501471 -5.9655118e-21)
(0.085669293 0.0045569265 5.3199974e-21)
(0.08615012 0.004585466 -1.3955295e-23)
(0.086545107 0.0047124271 2.8713606e-21)
(0.08687364 0.0048831111 -2.6002727e-21)
(0.087137608 0.0050130021 -7.8800145e-21)
(0.08734138 0.005130034 -2.458629e-21)
(0.08748119 0.0051043382 -6.29004e-21)
(0.087628751 0.0050950009 -2.1192197e-21)
(0.087763411 0.0050291296 -1.636947e-21)
(0.087918097 0.0049305275 -1.74536e-21)
(0.0881363 0.0048620491 -1.880207e-21)
(0.088361502 0.0047703588 2.8638717e-21)
(0.088514926 0.0046383061 0)
(0.088541914 0.0045433773 -7.32635e-23)
(0.088423654 0.0044447868 -9.52957e-22)
(0.088124918 0.0043269583 4.1344474e-22)
(0.087653168 0.0042880478 1.1800588e-23)
(0.087019643 0.0042449523 3.1309454e-22)
(0.086268476 0.0042779535 -9.2483462e-23)
(0.085390804 0.0042936471 -4.9850992e-23)
(0.084430916 0.004338646 -3.4589321e-22)
(0.083421814 0.0042701968 -4.0067663e-22)
(0.082389602 0.0041928234 -1.5440633e-23)
(0.081417279 0.0039161915 8.2383694e-22)
(0.080460862 0.0036101933 -1.5716717e-22)
(0.07967967 0.0030903453 1.2442922e-21)
(0.078905104 0.0025392656 -7.9292118e-22)
(0.078327803 0.0018086504 -2.5835423e-21)
(0.077731587 0.0010474407 -1.4951769e-21)
(0.077399947 0.00016328914 -1.6418518e-22)
(0.077064643 -0.00075884887 1.474166e-21)
(0.077031864 -0.0017578595 2.4492261e-22)
(0.076942488 -0.0028307537 -2.6673036e-22)
(0.077153109 -0.0038855623 1.7432991e-23)
(0.077267647 -0.0050254349 -1.0098695e-21)
(0.077717052 -0.0061215031 -7.8094237e-23)
(0.078027622 -0.007332707 -6.7544646e-22)
(0.078695999 -0.0084339305 1.2324366e-21)
(0.079163108 -0.0097010633 1.1247137e-22)
(0.080063804 -0.010860798 -4.7743514e-22)
(0.080575032 -0.012005972 6.8484395e-22)
(0.081596494 -0.013161258 2.6092008e-22)
(0.082280253 -0.014368329 -9.3743309e-22)
(0.083382406 -0.015413297 -8.4229791e-22)
(0.08418735 -0.016870554 -1.4846811e-21)
(0.085211436 -0.017282729 -1.2699099e-21)
(0.086011721 -0.018999787 -2.119237e-21)
(0.083686383 0.00012135248 -4.1436697e-22)
(0.08119453 0.0014000805 -3.1547728e-21)
(0.08329119 0.0016732384 -2.8902274e-21)
(0.081985261 0.0024670885 -3.4535956e-21)
(0.082187888 0.0032708974 6.1849764e-23)
(0.083199562 0.0037726706 2.6076201e-23)
(0.084189364 0.0041773091 3.9273245e-23)
(0.085018107 0.0043819995 -5.7089334e-21)
(0.085669691 0.0044236274 1.0283118e-20)
(0.086155372 0.0044541267 2.5147494e-21)
(0.086540492 0.0045984665 5.3137963e-21)
(0.08686647 0.0047828832 -2.9839509e-21)
(0.08712688 0.00495929 -2.3043954e-21)
(0.087338594 0.0050553344 -9.2766978e-23)
(0.087484839 0.0050744673 7.5598888e-21)
(0.087615894 0.0049909413 9.0194424e-23)
(0.087748461 0.004939869 -4.6604328e-24)
(0.087902074 0.004839165 -1.6860505e-21)
(0.088111536 0.0047150469 -1.5650788e-21)
(0.088353521 0.004611314 2.9785263e-23)
(0.088534634 0.004461439 2.104866e-21)
(0.088586334 0.004321715 -7.1000703e-23)
(0.088512709 0.0042174356 2.2492559e-21)
(0.088265035 0.0041244798 9.6825411e-23)
(0.087840155 0.004059625 9.476746e-22)
(0.087249067 0.0040130759 0)
(0.086529735 0.0040341635 1.0148651e-22)
(0.085696918 0.0040326449 -1.8427702e-22)
(0.084786144 0.0040479046 1.6456959e-22)
(0.0838154 0.0039801529 -1.626588e-24)
(0.082821344 0.003899592 -2.2136833e-22)
(0.081877118 0.0036403353 -1.0020337e-21)
(0.080944192 0.0033666646 1.0213819e-21)
(0.080167917 0.0029066829 -2.71888e-21)
(0.079416408 0.0024229409 1.6515044e-21)
(0.078859775 0.0017788037 -2.65447e-24)
(0.078293873 0.0010962519 -2.8826494e-22)
(0.077966697 0.00028230224 -5.350971e-22)
(0.077638192 -0.00056180469 7.1502838e-22)
(0.077594429 -0.0014900672 2.2830568e-22)
(0.077507811 -0.0024599341 1.38953e-21)
(0.077713576 -0.0034413263 -2.4807841e-21)
(0.077828058 -0.0044944672 0)
(0.0782645 -0.0054898923 -1.2240364e-21)
(0.078572009 -0.0065981365 -7.1089681e-22)
(0.079224099 -0.0076184344 -1.4126276e-21)
(0.079720722 -0.0088224868 -1.3161523e-23)
(0.080471044 -0.009720013 -2.5640541e-23)
(0.08114388 -0.011000228 -8.8222897e-23)
(0.082057184 -0.011912782 3.4980097e-23)
(0.082720289 -0.013140771 1.5756034e-22)
(0.083854315 -0.01405384 1.2179624e-21)
(0.084361854 -0.01502432 0)
(0.085691057 -0.015889224 -2.002943e-21)
(0.086544737 -0.017578429 1.5993006e-21)
(0.083919428 0.00033038205 -2.0478184e-21)
(0.081143645 0.0013408867 -1.3285762e-22)
(0.083266631 0.0016507499 4.2263169e-21)
(0.08195026 0.0024581911 2.9475259e-21)
(0.082145408 0.0032385478 -3.8718665e-21)
(0.083143728 0.0036888626 -1.0721048e-20)
(0.084140392 0.0040402837 -5.9117976e-21)
(0.084991823 0.0042196497 5.4522369e-21)
(0.085667692 0.0042522184 8.3823483e-24)
(0.086155288 0.0043054871 4.3910919e-21)
(0.086529431 0.0044694688 -2.3103736e-21)
(0.086841421 0.0046575527 7.3254571e-24)
(0.087105241 0.0048685999 2.4177207e-21)
(0.087320846 0.0049410472 2.1431946e-21)
(0.08748596 0.0049954106 1.1105633e-20)
(0.087622099 0.0049205746 1.707686e-21)
(0.087739419 0.0048153076 2.091613e-21)
(0.087890697 0.004731604 2.1239043e-21)
(0.088100783 0.0046160204 3.3831139e-23)
(0.088345909 0.0044682836 -3.3890922e-21)
(0.088554728 0.0043458266 1.5205945e-24)
(0.088647492 0.004182681 -1.9068292e-21)
(0.088594411 0.0040110217 3.2040027e-24)
(0.088387728 0.0038966372 -1.6472639e-21)
(0.088005348 0.0038013651 0)
(0.087450603 0.0037631407 -5.9994568e-23)
(0.086777309 0.0037565637 4.5330446e-24)
(0.085989651 0.0037459283 -8.0316945e-23)
(0.085117695 0.003760719 -1.027678e-22)
(0.084186521 0.0037195867 1.5884456e-22)
(0.083233245 0.0036679326 1.5750478e-22)
(0.082312431 0.0034760407 -5.6852396e-22)
(0.081403973 0.0032707536 2.1325386e-22)
(0.080636878 0.0028775421 -2.4269709e-21)
(0.079903884 0.0024376227 1.3861466e-21)
(0.079345699 0.0018527894 -1.3175557e-22)
(0.078801408 0.0012343358 1.452416e-21)
(0.078472213 0.00049991772 1.1089541e-21)
(0.078164225 -0.00027726304 -1.2358483e-21)
(0.078114816 -0.0011210757 9.0740834e-23)
(0.078046927 -0.0020258846 2.8805404e-22)
(0.078229482 -0.0029340132 1.7894676e-22)
(0.078349139 -0.0038932475 2.0581821e-23)
(0.078745104 -0.0048204644 1.0411327e-21)
(0.079075271 -0.0058519044 4.9659667e-22)
(0.07970208 -0.0068050179 -5.6862108e-22)
(0.08013577 -0.0078487593 -2.0604468e-23)
(0.080972857 -0.0087859493 0)
(0.081514601 -0.0099141684 5.9315198e-22)
(0.08246439 -0.010723262 -2.0344598e-25)
(0.083148411 -0.011919413 3.4239838e-21)
(0.084024343 -0.012512621 2.4829731e-22)
(0.084885717 -0.01383214 4.461526e-22)
(0.086118281 -0.014698489 1.4023388e-21)
(0.086658552 -0.015497792 -1.1702315e-21)
(0.083472697 0.00023713898 2.135501e-22)
(0.081143929 0.0014494021 -5.1646536e-22)
(0.083241549 0.0017067476 1.2169387e-22)
(0.081912567 0.0024832091 -2.4498895e-22)
(0.082108471 0.0031956241 3.2197836e-21)
(0.083094146 0.0035889316 -4.875028e-21)
(0.084093611 0.0038815307 -1.0048299e-23)
(0.084961577 0.004028351 5.1836001e-21)
(0.085654251 0.004055528 -4.5017988e-21)
(0.086137723 0.0041214573 -2.116603e-21)
(0.086502823 0.0043120613 2.0886224e-21)
(0.086805647 0.0045382154 2.0059285e-21)
(0.087071582 0.0047420008 -2.133152e-21)
(0.087293422 0.0048736089 9.8870887e-23)
(0.087467512 0.0048721566 6.6455159e-25)
(0.08760831 0.0048259313 -9.9782061e-23)
(0.087724703 0.0046867491 0)
(0.087866868 0.0045400102 2.0871413e-21)
(0.088084874 0.0044256158 6.6752167e-21)
(0.088338285 0.0042823929 3.6915159e-21)
(0.088564265 0.0041442343 -3.864322e-21)
(0.088701388 0.0039934235 -5.1400098e-23)
(0.088687003 0.0038485335 -3.9647751e-24)
(0.08851314 0.0036761649 9.4386802e-23)
(0.088163559 0.0035813453 1.0404245e-22)
(0.087647409 0.0034854736 0)
(0.08700975 0.0034564058 1.5203152e-22)
(0.086260269 0.0034362542 -5.1197681e-23)
(0.085429244 0.003461046 1.3977492e-22)
(0.084532159 0.003438271 -1.547106e-22)
(0.083608142 0.0034074808 3.2009849e-22)
(0.082711517 0.0032511242 7.1744384e-24)
(0.081833922 0.003086053 3.013673e-22)
(0.08108501 0.0027581355 1.0765842e-24)
(0.08037935 0.0023787868 2.1989431e-22)
(0.0798288 0.0018500966 4.2790432e-22)
(0.079299571 0.0012866965 -1.0951805e-21)
(0.078971626 0.00061291863 2.5301464e-23)
(0.078664868 -0.00010913666 -3.7106008e-22)
(0.07860383 -0.00087069887 0)
(0.078538307 -0.00170112 -1.2498114e-21)
(0.07870053 -0.002521423 1.1349004e-21)
(0.078821955 -0.0034072707 -2.1684118e-22)
(0.079206352 -0.0042617785 9.0291256e-22)
(0.079521047 -0.0052092088 4.1061588e-23)
(0.080109561 -0.0060350406 8.2641496e-22)
(0.080596397 -0.0070501285 5.8854359e-22)
(0.081317299 -0.0078780387 6.4627655e-22)
(0.081928739 -0.0088492389 5.5102302e-23)
(0.082796604 -0.0097444986 1.6126966e-21)
(0.083413613 -0.010548665 2.5497734e-22)
(0.084486297 -0.011506693 1.5154985e-21)
(0.085221113 -0.012586461 -2.3621995e-21)