/*--------------------------------*- C++ -*----------------------------------*\
| =========                 |                                                 |
| \\      /  F ield         | OpenFOAM: The Open Source CFD Toolbox           |
|  \\    /   O peration     | Version:  2406                                  |
|   \\  /    A nd           | Website:  www.openfoam.com                      |
|    \\/     M anipulation  |                                                 |
\*---------------------------------------------------------------------------*/
FoamFile
{
    version     2.0;
    format      ascii;
    arch        "LSB;label=32;scalar=64";
    class       volScalarField;
    location    "120";
    object      k_0;
}
// * * * * * * * * * * * * * * * * * * * * * * * * * * * * * * * * * * * * * //

dimensions      [0 2 -2 0 0 0 0];

internalField   nonuniform List<scalar> 
20580
(
3.1808065e-06
2.4805461e-06
1.9345842e-06
1.5735758e-06
1.3322184e-06
1.1607583e-06
1.0332246e-06
9.3192814e-07
8.5087248e-07
7.8393634e-07
7.3126283e-07
6.8514549e-07
6.4944388e-07
6.167635e-07
5.8975903e-07
5.691648e-07
5.5112879e-07
5.406202e-07
5.317816e-07
5.2499152e-07
5.2174054e-07
5.2051048e-07
5.2056127e-07
5.3831451e-07
5.6882106e-07
5.9820427e-07
6.1898765e-07
6.40069e-07
6.6675174e-07
7.1080928e-07
7.63466e-07
3.18387e-06
2.4822159e-06
1.9482796e-06
1.5999719e-06
1.3551594e-06
1.1773542e-06
1.0435679e-06
9.3954979e-07
8.568112e-07
7.8885086e-07
7.3594137e-07
6.8911826e-07
6.5215745e-07
6.2040197e-07
5.9113769e-07
5.6961744e-07
5.5108124e-07
5.4151064e-07
5.3185676e-07
5.2497653e-07
5.249728e-07
5.200699e-07
5.209024e-07
5.3445389e-07
5.7113087e-07
6.2514739e-07
6.567901e-07
7.0485638e-07
7.4369682e-07
8.2337567e-07
8.1299389e-07
3.183268e-06
2.4727653e-06
1.9423947e-06
1.6063242e-06
1.374844e-06
1.2009659e-06
1.0647047e-06
9.5490505e-07
8.6631539e-07
7.9586748e-07
7.4094873e-07
6.9388204e-07
6.548025e-07
6.2401068e-07
5.9367621e-07
5.7081969e-07
5.5158738e-07
5.4015036e-07
5.296604e-07
5.1971455e-07
5.207582e-07
5.1507948e-07
5.1330078e-07
5.2106012e-07
5.4785378e-07
6.0375107e-07
6.4272424e-07
6.7627501e-07
7.3016807e-07
8.1076264e-07
9.2448604e-07
3.1864673e-06
2.4623227e-06
1.9278728e-06
1.5994276e-06
1.3782331e-06
1.2146946e-06
1.083095e-06
9.7487753e-07
8.8478671e-07
8.1094752e-07
7.5157509e-07
7.0340481e-07
6.6125795e-07
6.3005978e-07
5.9899157e-07
5.7402509e-07
5.542418e-07
5.4100626e-07
5.2978735e-07
5.1855258e-07
5.1782389e-07
5.1260477e-07
5.0852919e-07
5.1348325e-07
5.3169962e-07
5.7264202e-07
6.3366254e-07
6.689324e-07
6.9709187e-07
7.5215233e-07
8.788066e-07
3.1911921e-06
2.4677064e-06
1.9285302e-06
1.5924826e-06
1.3775205e-06
1.2173483e-06
1.0908267e-06
9.9118094e-07
9.0478115e-07
8.3520161e-07
7.74563e-07
7.262498e-07
6.7992319e-07
6.4556878e-07
6.1287657e-07
5.8400628e-07
5.6245914e-07
5.4600451e-07
5.3251388e-07
5.2092104e-07
5.1889081e-07
5.1386861e-07
5.1036544e-07
5.153539e-07
5.2988309e-07
5.6352892e-07
6.3028924e-07
6.8423296e-07
7.4493298e-07
7.9627858e-07
8.7770116e-07
3.199966e-06
2.4897877e-06
1.9332048e-06
1.5954188e-06
1.3758728e-06
1.2154491e-06
1.0903069e-06
9.9302911e-07
9.1331099e-07
8.5115634e-07
7.966626e-07
7.5053607e-07
7.1118292e-07
6.7619108e-07
6.4311878e-07
6.114169e-07
5.8750497e-07
5.6544379e-07
5.4538372e-07
5.3214947e-07
5.2514967e-07
5.1861316e-07
5.1199217e-07
5.1602637e-07
5.2506927e-07
5.5096753e-07
6.0780225e-07
6.9532856e-07
7.5113311e-07
8.7971885e-07
9.2294136e-07
3.2296635e-06
2.5035323e-06
1.9364256e-06
1.5969503e-06
1.3694129e-06
1.2051663e-06
1.0818878e-06
9.8751067e-07
9.1142542e-07
8.5271253e-07
8.0370882e-07
7.6208529e-07
7.2746247e-07
6.9695574e-07
6.6721639e-07
6.4169942e-07
6.1694912e-07
5.9877216e-07
5.7703755e-07
5.6440841e-07
5.4826303e-07
5.3605189e-07
5.2206861e-07
5.1810428e-07
5.194931e-07
5.2726191e-07
5.5675808e-07
6.497357e-07
7.2759949e-07
8.5614929e-07
9.511864e-07
3.4815935e-06
2.7193082e-06
2.0173343e-06
1.6228918e-06
1.3776509e-06
1.2054388e-06
1.0760402e-06
9.7455827e-07
8.9869784e-07
8.4141324e-07
7.9604271e-07
7.5790625e-07
7.2556753e-07
6.9862367e-07
6.7163069e-07
6.4988299e-07
6.3102507e-07
6.148738e-07
5.9931918e-07
5.9078569e-07
5.7858193e-07
5.6495704e-07
5.5495629e-07
5.4297081e-07
5.3162755e-07
5.2993967e-07
5.4165702e-07
5.7966449e-07
6.4171007e-07
7.1747101e-07
9.0147384e-07
4.6843115e-06
3.7724959e-06
2.5123232e-06
1.8250683e-06
1.4785479e-06
1.2583521e-06
1.1033e-06
9.8713357e-07
9.0221701e-07
8.3694412e-07
7.824671e-07
7.395916e-07
7.0402502e-07
6.7808206e-07
6.541241e-07
6.370187e-07
6.2279939e-07
6.0996167e-07
5.9924866e-07
5.9503537e-07
5.8590476e-07
5.7905764e-07
5.8112747e-07
5.8496257e-07
5.8090498e-07
5.7374912e-07
5.8048811e-07
6.0818437e-07
6.6540943e-07
7.1737115e-07
8.1132025e-07
3.6003307e-06
3.4640074e-06
2.8894248e-06
2.3619449e-06
1.9142883e-06
1.5605409e-06
1.28174e-06
1.09503e-06
9.6814716e-07
8.7667399e-07
8.068846e-07
7.5162884e-07
7.083467e-07
6.7237792e-07
6.4301147e-07
6.182712e-07
5.9849678e-07
5.8291342e-07
5.7553755e-07
5.7592147e-07
5.7487102e-07
5.7742501e-07
5.8847058e-07
6.022282e-07
6.1982304e-07
6.3940598e-07
6.8187451e-07
7.2869858e-07
7.7409357e-07
8.4187211e-07
8.7479498e-07
3.1744641e-06
2.6800363e-06
2.5721437e-06
2.3452206e-06
2.1337809e-06
1.9137004e-06
1.7091094e-06
1.4823804e-06
1.2801445e-06
1.1188216e-06
9.8236883e-07
8.818811e-07
8.0420443e-07
7.405372e-07
6.903369e-07
6.491762e-07
6.1588853e-07
5.8864232e-07
5.7503697e-07
5.6351482e-07
5.5701062e-07
5.6163147e-07
5.7576185e-07
5.9260934e-07
6.1129383e-07
6.399701e-07
6.81343e-07
7.6766129e-07
8.1965747e-07
9.6391919e-07
1.0034709e-06
3.3673433e-06
2.801847e-06
2.2646399e-06
2.0266251e-06
1.8592194e-06
1.7679897e-06
1.6693879e-06
1.5664897e-06
1.4847386e-06
1.422287e-06
1.3610748e-06
1.2933322e-06
1.2042864e-06
1.0994663e-06
9.9892521e-07
8.873684e-07
7.8480691e-07
7.0607423e-07
6.521487e-07
6.1653042e-07
5.8634981e-07
5.7384298e-07
5.8051921e-07
5.8575255e-07
5.9270014e-07
6.1006716e-07
6.3805782e-07
6.9203782e-07
7.6094642e-07
8.9115623e-07
1.0835875e-06
3.5803271e-06
3.1663101e-06
2.4167085e-06
2.0028954e-06
1.7233969e-06
1.5229557e-06
1.3933377e-06
1.3233657e-06
1.2850655e-06
1.2747004e-06
1.2761787e-06
1.2712194e-06
1.250125e-06
1.2355569e-06
1.2129219e-06
1.1846625e-06
1.1418417e-06
1.0874083e-06
1.0084899e-06
9.373644e-07
8.5479939e-07
7.6216716e-07
7.0354956e-07
6.6839676e-07
6.4485688e-07
6.3182471e-07
6.4355791e-07
6.6077239e-07
7.017554e-07
7.5121649e-07
8.9640426e-07
3.2507749e-06
2.8568688e-06
2.3910283e-06
2.0548649e-06
1.8031943e-06
1.5847242e-06
1.4056103e-06
1.270348e-06
1.1646752e-06
1.0899504e-06
1.0344462e-06
1.0076894e-06
1.0001302e-06
1.0008856e-06
1.009093e-06
1.0279083e-06
1.0526205e-06
1.0610547e-06
1.0683738e-06
1.0785446e-06
1.079843e-06
1.0807062e-06
1.0809115e-06
1.0646796e-06
1.0150156e-06
9.690905e-07
8.9433798e-07
8.6763433e-07
8.6612436e-07
8.9168477e-07
9.5451392e-07
3.3480201e-06
2.8205672e-06
2.2518728e-06
1.9548023e-06
1.7522034e-06
1.5710618e-06
1.4282842e-06
1.3026653e-06
1.1950349e-06
1.105774e-06
1.0418942e-06
9.8599899e-07
9.2702747e-07
8.9178112e-07
8.5952854e-07
8.1991121e-07
8.1078755e-07
8.1888049e-07
8.4338939e-07
8.7321214e-07
9.181324e-07
9.9341183e-07
1.0381314e-06
1.1096577e-06
1.1704654e-06
1.2352023e-06
1.3053239e-06
1.3933447e-06
1.4284842e-06
1.5007025e-06
1.4814433e-06
3.1778481e-06
2.5604516e-06
2.0534772e-06
1.736805e-06
1.52947e-06
1.3783909e-06
1.2775231e-06
1.198651e-06
1.1284578e-06
1.065229e-06
1.0217355e-06
9.7616783e-07
9.2532979e-07
8.8990839e-07
8.5133883e-07
8.0878861e-07
7.7753131e-07
7.5508331e-07
7.3044574e-07
7.2671606e-07
7.3442435e-07
7.5834972e-07
7.9812787e-07
8.7980319e-07
1.0071068e-06
1.1174927e-06
1.2331586e-06
1.3444198e-06
1.4988799e-06
1.6377501e-06
1.819322e-06
3.2916532e-06
2.7312896e-06
2.105225e-06
1.7253599e-06
1.473728e-06
1.294124e-06
1.1652401e-06
1.0712039e-06
9.9503772e-07
9.3782319e-07
9.0009502e-07
8.6767823e-07
8.397952e-07
8.2066269e-07
7.9741952e-07
7.7145327e-07
7.4438818e-07
7.2295642e-07
7.0433654e-07
6.8561096e-07
6.823868e-07
6.8665132e-07
6.9090116e-07
7.0879718e-07
7.6083789e-07
8.1318571e-07
8.9804413e-07
9.6792157e-07
1.1469836e-06
1.2901736e-06
1.5733782e-06
3.17507e-06
2.5238674e-06
2.0303525e-06
1.6838756e-06
1.4402851e-06
1.2666026e-06
1.1359021e-06
1.0309354e-06
9.4876981e-07
8.8037837e-07
8.2743482e-07
7.8204413e-07
7.4677433e-07
7.2059941e-07
6.9485615e-07
6.7713133e-07
6.5903881e-07
6.4292792e-07
6.316402e-07
6.1808498e-07
6.1744421e-07
6.2019729e-07
6.2053781e-07
6.2615363e-07
6.4926458e-07
6.7542596e-07
7.0586448e-07
7.2695191e-07
7.8257477e-07
8.4291411e-07
9.6500602e-07
3.1750383e-06
2.5278185e-06
2.0274558e-06
1.6954551e-06
1.455789e-06
1.2876339e-06
1.1576976e-06
1.0508805e-06
9.6541705e-07
8.9455221e-07
8.376304e-07
7.8757605e-07
7.4852573e-07
7.1308439e-07
6.820156e-07
6.5418673e-07
6.3328728e-07
6.105879e-07
5.9726696e-07
5.8433857e-07
5.8186657e-07
5.8557027e-07
5.8768364e-07
5.9495087e-07
6.1745378e-07
6.4595815e-07
6.8793308e-07
7.155804e-07
7.7630596e-07
8.2388658e-07
9.021257e-07
3.2358962e-06
2.716958e-06
2.1516769e-06
1.8037061e-06
1.5854163e-06
1.438999e-06
1.3055555e-06
1.1958265e-06
1.1081368e-06
1.0398995e-06
9.8051581e-07
9.2581838e-07
8.7667131e-07
8.2988193e-07
7.8870256e-07
7.54519e-07
7.2789723e-07
7.0207032e-07
6.8844634e-07
6.8025159e-07
6.8502822e-07
6.9838669e-07
7.097681e-07
7.2738864e-07
7.5674589e-07
8.0697986e-07
8.4575336e-07
9.0050127e-07
9.3801814e-07
1.028895e-06
1.0447273e-06
3.3570898e-06
3.189127e-06
2.6777344e-06
2.3744687e-06
2.2424568e-06
2.1400428e-06
2.0093478e-06
1.9216708e-06
1.8623e-06
1.817006e-06
1.7705167e-06
1.7251265e-06
1.6845853e-06
1.6509712e-06
1.6241308e-06
1.6130413e-06
1.6080218e-06
1.6069274e-06
1.6170565e-06
1.6458835e-06
1.6901698e-06
1.7679098e-06
1.8072678e-06
1.8482429e-06
1.9143838e-06
2.0335527e-06
2.1071806e-06
2.1794498e-06
2.2097547e-06
2.2904932e-06
2.2125096e-06
4.8031184e-06
1.2938029e-05
9.0917842e-06
8.2348017e-06
8.2864634e-06
7.9607248e-06
7.457069e-06
7.2120259e-06
7.168165e-06
7.0989634e-06
7.0438386e-06
7.0202757e-06
6.9887308e-06
6.9332112e-06
7.0213355e-06
7.3345774e-06
7.5936459e-06
7.6483941e-06
7.8186699e-06
8.0204086e-06
8.2775798e-06
8.5791223e-06
8.7652545e-06
8.8326448e-06
8.9094665e-06
9.0954029e-06
9.2060635e-06
9.2338317e-06
9.1447921e-06
9.0482564e-06
8.6945378e-06
2.2602468e-05
9.6330849e-05
5.5973398e-05
4.7359858e-05
4.0256079e-05
4.245557e-05
3.8929997e-05
3.8963238e-05
3.7778072e-05
3.8325818e-05
3.7971636e-05
3.8045104e-05
3.8102673e-05
3.7531415e-05
3.6961047e-05
3.6592769e-05
3.6612775e-05
3.6447979e-05
3.657126e-05
3.6166663e-05
3.6223587e-05
3.521594e-05
3.5137433e-05
3.429352e-05
3.4382539e-05
3.2904591e-05
3.2603739e-05
3.1122812e-05
3.1294872e-05
2.9802617e-05
2.931676e-05
2.7454263e-05
9.7319773e-06
2.6618619e-06
1.2113654e-06
9.9180137e-07
1.0276938e-06
1.6078012e-06
2.0016753e-06
1.7556091e-06
1.1680009e-06
1.0263413e-06
1.2173501e-06
1.1689951e-06
9.9460198e-07
9.0255845e-07
9.7368487e-07
1.0966472e-06
1.1047668e-06
1.0338004e-06
9.7995377e-07
1.0057323e-06
9.6232202e-07
8.8327613e-07
2.860206e-05
1.0668251e-05
3.2798755e-06
1.5063251e-06
1.1356059e-06
1.0942371e-06
1.6236637e-06
2.3219538e-06
2.1965542e-06
1.5563424e-06
1.1964853e-06
1.4051814e-06
1.3807012e-06
1.2621141e-06
1.065024e-06
1.0970935e-06
1.2330357e-06
1.253367e-06
1.2135744e-06
1.1011174e-06
1.1348998e-06
1.1430821e-06
1.0909847e-06
2.6212555e-05
1.1527656e-05
3.9006542e-06
1.8758291e-06
1.3943071e-06
1.266837e-06
1.7771711e-06
2.7809498e-06
2.8349833e-06
2.3719844e-06
1.4682197e-06
1.5872574e-06
1.669282e-06
1.6497125e-06
1.4576337e-06
1.3208998e-06
1.4580345e-06
1.5003239e-06
1.4679805e-06
1.3115115e-06
1.3153752e-06
1.3501642e-06
1.3542235e-06
2.651098e-05
1.249611e-05
5.016061e-06
2.6642396e-06
1.9426265e-06
1.600968e-06
2.1377538e-06
3.327733e-06
3.3862927e-06
3.1217655e-06
1.9949653e-06
1.8937472e-06
2.0189766e-06
2.0339191e-06
1.9514653e-06
1.6911812e-06
1.7175086e-06
1.817392e-06
1.8513043e-06
1.8046637e-06
1.6622746e-06
1.7002985e-06
1.6663113e-06
2.236685e-05
1.3675273e-05
6.3042247e-06
3.5675954e-06
2.5436755e-06
1.9977399e-06
2.5236907e-06
3.9556461e-06
4.0136248e-06
3.8448286e-06
2.7887538e-06
2.3124124e-06
2.4511203e-06
2.4100459e-06
2.2715337e-06
1.9669958e-06
1.9034062e-06
2.0489568e-06
2.1005498e-06
2.1914485e-06
2.1373634e-06
2.1293278e-06
2.0810641e-06
2.1573825e-05
1.4625496e-05
8.038578e-06
4.957178e-06
3.5466829e-06
2.6733318e-06
3.086364e-06
4.9690308e-06
5.3053495e-06
5.3635071e-06
4.6646821e-06
3.2047535e-06
3.2505918e-06
3.1478802e-06
2.8449526e-06
2.413027e-06
2.208198e-06
2.3482781e-06
2.474667e-06
2.5621335e-06
2.5195362e-06
2.4425245e-06
2.4105371e-06
2.0816901e-05
1.5452716e-05
9.4114425e-06
6.4263792e-06
4.6512078e-06
3.5665195e-06
3.8643845e-06
6.3240823e-06
7.2976007e-06
7.4338872e-06
7.1718164e-06
5.1190694e-06
4.8111187e-06
4.7231382e-06
4.1935108e-06
3.6855416e-06
3.0932074e-06
3.1094944e-06
3.2725139e-06
3.2496945e-06
3.0753529e-06
2.8191676e-06
2.7595825e-06
2.0154239e-05
1.650313e-05
1.2037703e-05
9.3001954e-06
6.8751512e-06
5.3085468e-06
5.3681457e-06
8.5283936e-06
9.9913744e-06
9.5933215e-06
9.2132404e-06
7.2001314e-06
6.0033998e-06
6.1061889e-06
5.9849348e-06
5.330131e-06
4.7052857e-06
4.6434868e-06
5.013403e-06
4.9376628e-06
4.3761564e-06
3.7017671e-06
3.4922327e-06
1.8941041e-05
1.7501633e-05
1.6574986e-05
1.4853091e-05
1.117002e-05
8.7716309e-06
8.5162531e-06
1.3159965e-05
1.4927183e-05
1.3478289e-05
1.2480774e-05
9.8682658e-06
7.8380303e-06
7.8783992e-06
7.8650997e-06
7.1785504e-06
6.3358981e-06
6.0285707e-06
6.2945063e-06
6.6840511e-06
6.229068e-06
5.3637829e-06
4.8192608e-06
1.9467485e-05
1.9164265e-05
2.0494536e-05
2.1407222e-05
2.0480607e-05
1.6112761e-05
1.4866689e-05
2.2976758e-05
2.6149838e-05
2.2856958e-05
1.9012864e-05
1.5058515e-05
1.1776376e-05
1.2007551e-05
1.2071551e-05
1.1188428e-05
8.9054574e-06
7.677324e-06
7.7071702e-06
8.2151e-06
8.1188673e-06
7.1984946e-06
6.251439e-06
2.1800774e-05
2.379677e-05
3.0180347e-05
3.3539831e-05
3.3709947e-05
3.0496003e-05
2.856779e-05
4.3995507e-05
5.3600996e-05
4.9199271e-05
3.5544253e-05
2.7570989e-05
2.1358751e-05
2.2285189e-05
2.3436554e-05
2.1365438e-05
1.4494741e-05
1.0770816e-05
9.5956174e-06
1.030444e-05
1.0961596e-05
1.0672977e-05
9.0281397e-06
2.4389479e-05
3.0923087e-05
4.1319231e-05
4.5757179e-05
5.2222926e-05
6.0484204e-05
6.4879951e-05
0.00010207743
0.00012593466
0.00011492175
7.8290235e-05
6.1467421e-05
4.6174499e-05
4.6564364e-05
4.9290686e-05
4.3786485e-05
2.6944176e-05
1.7428494e-05
1.4349761e-05
1.5529907e-05
1.8299651e-05
1.8388704e-05
1.5335522e-05
3.4196074e-05
4.4563304e-05
6.1583906e-05
7.314381e-05
9.7370953e-05
0.00012769252
0.00016114737
0.00023576248
0.00024759965
0.0002326153
0.00017116721
0.00014105473
0.00010823547
0.00010259073
0.00010671087
9.1709213e-05
5.3512266e-05
3.1532829e-05
2.4912277e-05
2.6876571e-05
3.6612744e-05
3.7672452e-05
3.1889812e-05
3.8649898e-05
5.4991531e-05
7.8643898e-05
9.1845588e-05
0.00012942573
0.00020575463
0.00034044177
0.00047283914
0.00047684573
0.00043654853
0.00030846981
0.00025450698
0.00023402926
0.00023927301
0.00025506312
0.00022188033
0.00011991529
6.4023635e-05
4.7819819e-05
4.5020574e-05
5.858165e-05
5.9823021e-05
5.2437878e-05
4.7974451e-05
6.6898559e-05
9.7170291e-05
0.00011992846
0.00018611604
0.00034249488
0.00062931405
0.00078987428
0.00077654874
0.00064354906
0.00043222323
0.00038024895
0.00044816849
0.00061035791
0.00065100612
0.00047944815
0.00021545961
0.00012379584
9.1409144e-05
8.2929865e-05
0.00010531276
0.00010445784
8.6471511e-05
5.121906e-05
7.3609766e-05
0.00011991019
0.00015829725
0.00026525808
0.00052853548
0.00093652194
0.0011094429
0.0010606873
0.00080357996
0.00062927852
0.00064252545
0.00093455768
0.0014350286
0.0014907851
0.001022457
0.00040300291
0.00022542011
0.0001859128
0.00017869101
0.00023707832
0.00021997499
0.00013811067
5.822409e-05
8.1684319e-05
0.00013676716
0.0002023927
0.00037057143
0.00076021163
0.001203021
0.001378203
0.0012866902
0.00098472631
0.00087981628
0.001041656
0.0017291865
0.0023217989
0.0022977586
0.0015762816
0.00065957299
0.00040199837
0.00039123822
0.00047299673
0.00061754762
0.00048558943
0.00020831003
6.5815735e-05
9.5188805e-05
0.00016828082
0.00024788449
0.00044055708
0.0008831586
0.0013973672
0.0016091547
0.0015157978
0.0012477012
0.001182224
0.0014470404
0.0023723715
0.0030685659
0.0030344991
0.0022105362
0.0010821789
0.00078848806
0.00093033678
0.0014019203
0.0015881407
0.0011022057
0.00038924225
6.7169172e-05
0.00010031638
0.00017996443
0.0002823342
0.00051055396
0.00098626458
0.0015177938
0.0017450859
0.0016988532
0.001538228
0.0015330874
0.0018696008
0.0029506826
0.0037148769
0.0036481709
0.0027566855
0.0016405789
0.0013987702
0.0017384049
0.0022310301
0.0022668734
0.0015932518
0.00062032244
6.5571923e-05
0.00010281898
0.00018617247
0.00031029933
0.00057816057
0.0010730982
0.0015934179
0.0018303587
0.0018541558
0.001820626
0.0018957798
0.0023235258
0.0034853553
0.0042484628
0.0040589724
0.0030315635
0.0020849483
0.0019210849
0.0023397138
0.0027609618
0.0026437067
0.0018452298
0.00092637127
6.6636664e-05
9.7232736e-05
0.00017135783
0.00030649653
0.00057557415
0.0010528524
0.0015903197
0.0018915874
0.0019827291
0.0020586848
0.0022417555
0.0028274849
0.0040741451
0.0047747498
0.0044381589
0.0034263032
0.0029633432
0.0030845706
0.0037079142
0.0039379236
0.0034388728
0.0021488937
0.0013370158
7.4297559e-05
9.12659e-05
0.00013968427
0.00025043141
0.00049881631
0.00096285702
0.0015287563
0.0019400195
0.0021661629
0.0023310024
0.0026425248
0.0034457947
0.0047393756
0.0053630861
0.0049306442
0.0042502276
0.004074076
0.0044607653
0.004765615
0.0047623807
0.0039925002
0.0025809673
0.002023486
0.0001322853
0.00011983359
0.00014236167
0.00018679606
0.0003069959
0.00064400233
0.0012925596
0.0018403186
0.0022533239
0.0025807276
0.003083501
0.0040444162
0.005186419
0.0057091048
0.0053841208
0.0049920787
0.0049305311
0.0053517949
0.0054860309
0.0051822944
0.0041488859
0.0031089606
0.0029540036
0.00034564287
0.00031619457
0.0002790064
0.00025933203
0.00027981701
0.00036816989
0.00066758441
0.0014070636
0.002120829
0.0026282936
0.0033178094
0.0041744864
0.0050658936
0.0055974013
0.0056509578
0.0055648308
0.0057624439
0.0058857797
0.0058399224
0.0053203372
0.0042298788
0.0037031715
0.0037038318
0.00081012523
0.00077795715
0.00076970676
0.00070491934
0.00056495409
0.00049900738
0.00057949912
0.00087728235
0.0015777587
0.0023384321
0.0031263967
0.0038630519
0.0046029106
0.0052227069
0.0056380198
0.0059915243
0.0062048301
0.0061850366
0.0058515558
0.0050951245
0.0042949256
0.0038408406
0.0035289743
0.0011179047
0.0010575217
0.0010916662
0.0011008274
0.0010178417
0.00085906253
0.0007176701
0.00084652136
0.0013556109
0.0021811256
0.0029515001
0.0036658644
0.0044048678
0.0050805799
0.0056784885
0.0061946007
0.0063436564
0.0060779868
0.0054847614
0.0047016868
0.0039618605
0.0033510328
0.0028241199
0.00094812878
0.0011035668
0.001236033
0.0012694052
0.0012087986
0.00095636302
0.00079184971
0.00090975185
0.0014298779
0.0023092871
0.0031116983
0.003867468
0.0046441858
0.0052546781
0.0057367173
0.0060220614
0.0058840232
0.0054563928
0.0048183216
0.0040836892
0.0033650419
0.002720879
0.0023364983
0.0010341664
0.0013171367
0.0014246821
0.0013699424
0.0010987867
0.00091965514
0.00088570237
0.0011865738
0.0019197728
0.0028048277
0.0035557922
0.0043076928
0.0049502325
0.0053069866
0.0053900311
0.0051579961
0.0048446769
0.0045573481
0.0041250978
0.0034811756
0.0027672056
0.0023073385
0.0021436079
0.00089841963
0.0013412401
0.001405293
0.0012816936
0.0010773099
0.0010172912
0.0012457928
0.0017865843
0.0024732181
0.0031827183
0.0038367561
0.004475763
0.0048317947
0.0048536199
0.0046304035
0.0042585074
0.0039817635
0.0037719514
0.0034109942
0.002855008
0.0023257795
0.0020577333
0.0019255055
0.0007614254
0.0012319838
0.0013582176
0.0012908278
0.0012037461
0.0012934504
0.0016819654
0.0021957706
0.002736933
0.0032302359
0.0037369787
0.004193543
0.0043680634
0.0042977965
0.0040038388
0.0036259038
0.0033372858
0.0030471903
0.0026289802
0.0021298736
0.0018124907
0.0016675315
0.0015754499
0.00065029251
0.0011187841
0.0012700991
0.0012929375
0.0013084633
0.0015072596
0.0019220324
0.0023550642
0.0027411926
0.0030870769
0.0034249802
0.0037348931
0.0038761456
0.0038141722
0.0034822311
0.0030829011
0.0027658078
0.0024103229
0.0019460535
0.001581628
0.0014330481
0.0014040282
0.0014349382
0.00063756208
0.0010780822
0.0012284847
0.0012568956
0.0012979215
0.0015238543
0.0019319686
0.0023358508
0.0026747013
0.0029459713
0.0031773656
0.0033022175
0.0033216859
0.00315474
0.0028321366
0.0024938083
0.0021936279
0.0018419119
0.0015108555
0.0013619266
0.0013240906
0.0013786316
0.001470598
0.0006023179
0.00107345
0.0012096743
0.0012338419
0.0012628221
0.0014602334
0.0018370257
0.0022381658
0.0025585095
0.0027722513
0.0028770388
0.0028968925
0.0028180616
0.002560812
0.002209353
0.0019215168
0.0017094116
0.0014999697
0.0013899775
0.0013527099
0.001397491
0.0015707314
0.0017865014
0.00058795958
0.0010811505
0.0012104004
0.0012301674
0.0012461477
0.0014209634
0.0017427072
0.0020607521
0.0023193327
0.002503121
0.0025938421
0.002601087
0.0024540198
0.002134845
0.001784508
0.0015392381
0.0013952458
0.0013370736
0.0013506716
0.0014381311
0.0016804502
0.0019056246
0.0019548008
0.00057030065
0.0010886588
0.001196906
0.0012135403
0.0012389978
0.0014172546
0.001709617
0.0019597757
0.0021127373
0.0021802291
0.0021999955
0.0021485016
0.0019867085
0.0017240219
0.0014716377
0.001337817
0.0012917885
0.001301532
0.0013759155
0.0015519134
0.0017793363
0.0018908188
0.0018710901
0.00054659764
0.0010774458
0.001173712
0.0011719508
0.0011692201
0.001301133
0.0015445084
0.0017653535
0.0018959625
0.0019387804
0.00193206
0.0018740111
0.0017463457
0.0015423982
0.0013480247
0.0012554886
0.0012394983
0.0012704817
0.0013469606
0.0014924845
0.0016550194
0.0016917424
0.0016191286
0.00053660231
0.001067084
0.0011643136
0.0011533105
0.0011154324
0.0011850916
0.0013743702
0.0015729981
0.0017087693
0.0017626243
0.0017538725
0.0016884941
0.0015611742
0.0013831287
0.0012125829
0.0011238447
0.0011121026
0.001153741
0.0012449137
0.0013881985
0.0015156252
0.0015403361
0.001488284
0.00050917528
0.0010400342
0.0011500387
0.0011487276
0.0010906443
0.0011077742
0.0012413636
0.0014009146
0.0015191825
0.0015758683
0.00157841
0.0015250371
0.0014132988
0.0012536782
0.0010969412
0.0010105316
0.00099754562
0.0010503356
0.0011635427
0.001315574
0.0014364739
0.0014631492
0.0013998272
0.00048538329
0.0010033636
0.0011161779
0.0011313263
0.0010684094
0.0010555674
0.0011472622
0.0012709557
0.001361798
0.0014002905
0.0013953597
0.0013477788
0.0012563444
0.0011276874
0.00099836332
0.00092575519
0.00091656637
0.00097481664
0.0010945153
0.0012471464
0.0013656865
0.0014064737
0.0013643091
0.00046806304
0.00096756522
0.0010805857
0.001100176
0.0010316305
0.0010004841
0.0010595838
0.0011582588
0.0012328198
0.001260267
0.0012469163
0.001194877
0.0011092532
0.0010005512
0.00089760887
0.00084612247
0.00085034737
0.00092301325
0.001055801
0.0012149057
0.0013331262
0.0013881591
0.0013721899
0.00044398425
0.00092669355
0.0010465751
0.0010710504
0.0010000815
0.0009514356
0.00097693708
0.0010510141
0.0011147561
0.001140285
0.0011279212
0.0010769048
0.00099401485
0.00089382663
0.00080660903
0.00077075476
0.00078835707
0.00088005349
0.0010433414
0.0012102085
0.0013313967
0.0013950009
0.0014121203
0.00041293375
0.00087977194
0.001004689
0.0010399063
0.00097707085
0.00091899434
0.00091779496
0.0009655515
0.0010109165
0.0010284991
0.0010146838
0.00096700879
0.00089136025
0.00080171024
0.00073008672
0.00070865497
0.00074596655
0.00087192763
0.001049143
0.0012224617
0.0013491479
0.0014276619
0.0014708818
0.00038637024
0.00083404671
0.00095602616
0.00099772726
0.00094643372
0.00088626518
0.00087170467
0.00089955761
0.00092757672
0.00093325706
0.00091175344
0.00086208019
0.00079082589
0.00071150979
0.00066466236
0.0006629135
0.00073652825
0.00088896493
0.0010870645
0.0012675584
0.0013938328
0.0014765843
0.0015332746
0.00036640196
0.00079684754
0.00091242067
0.00095214175
0.00090641977
0.00084357833
0.00082091289
0.00083463691
0.00085213652
0.00085270302
0.00082649888
0.0007743879
0.00070513469
0.00063714934
0.00060989584
0.0006334725
0.00074926063
0.00093783314
0.0011527995
0.0013242382
0.0014440395
0.0015235257
0.0015842122
0.00034083063
0.00075748552
0.00087279965
0.00091392293
0.00087248766
0.00080461446
0.00077299211
0.0007727587
0.00078132465
0.0007782463
0.00075077236
0.00069913593
0.00063246743
0.00058018519
0.00057152451
0.00063418036
0.00078659173
0.0010089705
0.0012122751
0.0013656721
0.0014755243
0.0015535724
0.0016204163
0.0003122645
0.00070531704
0.00082547844
0.00087497813
0.00084274906
0.00077418697
0.00073283947
0.00072107664
0.00071977101
0.00071011398
0.00067998407
0.00062886108
0.00056612889
0.00053182475
0.00054286654
0.00064548019
0.000843638
0.0010670613
0.0012514071
0.0013888233
0.0014924633
0.00157432
0.0016463143
0.00028979538
0.00065720151
0.00077484164
0.0008290453
0.00080853539
0.00074476454
0.00069585913
0.00067419252
0.00066419351
0.00064843761
0.00061634032
0.00056662026
0.00051291851
0.0004936365
0.00053228582
0.00067417245
0.00089438068
0.0011052098
0.0012707293
0.0013980161
0.0015005423
0.0015862085
0.0016602205
0.00026502905
0.00061285112
0.00072902264
0.00078502576
0.00077373963
0.00071608162
0.00066150833
0.00063091386
0.00061415218
0.00059437087
0.00056133257
0.00051389727
0.00047131823
0.00046502868
0.00053069439
0.00070184794
0.00092218081
0.0011173329
0.0012725888
0.0013960519
0.0014976418
0.0015841254
0.0016597137
0.00022736667
0.00053943402
0.00066879458
0.00074147253
0.00074433633
0.00069460405
0.00063711033
0.00059770312
0.00057329046
0.00054933154
0.00051504293
0.00046864848
0.00043366231
0.00043694882
0.00052356432
0.0007047068
0.00092125515
0.0011087309
0.001256224
0.0013758161
0.001479219
0.0015707175
0.0016521439
0.0002137432
0.00049809249
0.00061166918
0.00069478654
0.00071216517
0.00067372475
0.00061720403
0.00057259543
0.00054187565
0.0005133026
0.00047727752
0.0004322762
0.00040071335
0.00040996693
0.00050689675
0.00069488748
0.00090497269
0.0010820813
0.0012218087
0.0013400387
0.0014479955
0.0015479107
0.0016370946
0.00017938192
0.00042228602
0.00055500108
0.00064909914
0.00068017701
0.00065477086
0.000598555
0.00054835126
0.00051411571
0.00048539776
0.00045085488
0.00040836813
0.00037488169
0.0003837209
0.00048223824
0.00066948747
0.00086950694
0.0010361401
0.0011718702
0.0012891751
0.0013985262
0.0015038016
0.00160087
0.00017141681
0.0003675618
0.00049499575
0.00059458412
0.00064329579
0.00063540917
0.00059029783
0.00053471878
0.00049140146
0.0004596047
0.00042764442
0.00038790374
0.00034982257
0.00034993503
0.00043539455
0.00061552595
0.00080302026
0.00096398941
0.001097737
0.0012148242
0.0013250855
0.0014335672
0.0015399053
0.00015202905
0.00030686742
0.00044220667
0.00054466383
0.00060554521
0.00061372628
0.00058667261
0.00053459252
0.00048546819
0.00044505011
0.00040984305
0.00037239426
0.0003328512
0.00031594383
0.00036927569
0.00052768094
0.00072010824
0.000876355
0.0010065331
0.0011231071
0.0012345157
0.0013455837
0.00145686
0.00014640219
0.00024372207
0.00037142157
0.00048668954
0.00056505079
0.00059276846
0.00058088872
0.00053920383
0.00048852958
0.00044528235
0.00040780168
0.00037102106
0.00033173092
0.00029931317
0.00031484554
0.00041165312
0.00060553514
0.00078389811
0.00091494862
0.0010247535
0.001130731
0.0012393589
0.0013497588
0.00013622225
0.0001782699
0.00028355799
0.00040814735
0.00051039195
0.00056703313
0.00057222778
0.00054999514
0.00049965748
0.00045167782
0.00041134544
0.00037397988
0.00033506824
0.00029936673
0.00028439381
0.00032114337
0.00044489362
0.00064565295
0.00081447809
0.0009320858
0.0010276264
0.001124068
0.0012262528
0.00012790821
0.00012866394
0.00020245368
0.0003152567
0.0004281161
0.00051598515
0.0005541848
0.0005490166
0.0005244631
0.00047214038
0.0004235837
0.0003830411
0.00034493472
0.00030596351
0.00028052879
0.00027896768
0.00032255992
0.00044862454
0.00064452488
0.00081621838
0.00093509762
0.0010257667
0.001109475
0.00012315582
9.7985993e-05
0.00014886342
0.00023356936
0.00033260537
0.00043062847
0.00051058154
0.00053780448
0.00052987301
0.0005057586
0.00045677313
0.00040504674
0.00036281373
0.00032341596
0.00028754897
0.00027111102
0.00027471139
0.00031409223
0.00042307342
0.00060354501
0.00078548038
0.00092546685
0.0010236537
0.0001185978
8.1182129e-05
0.00011647656
0.00017668691
0.00025314908
0.00033777758
0.00042373939
0.00049794926
0.00051991345
0.00051286669
0.00049311872
0.00045243929
0.00040188743
0.00035576897
0.00031050617
0.00027904889
0.00026704648
0.00026991493
0.00029865539
0.0003798534
0.00052935401
0.00072101267
0.00089279672
0.00011428527
7.3384411e-05
9.4518843e-05
0.00013610584
0.0001931213
0.00026043274
0.00033447825
0.00041186617
0.00048003617
0.00050193404
0.0004974735
0.00048382252
0.00045278777
0.00040798589
0.00036049294
0.00030955184
0.00027779317
0.00026652211
0.00026640341
0.0002830771
0.00033492218
0.00044322232
0.00063425879
0.00011090117
7.1682111e-05
8.026802e-05
0.00010549614
0.00014614101
0.0001965271
0.00025487894
0.00032080146
0.00039079404
0.00045653229
0.00048313189
0.00048353918
0.00047524009
0.00045386559
0.00041757408
0.00037341716
0.0003209833
0.00028303254
0.00026814403
0.0002650484
0.00027238863
0.00030198843
0.00039602525
0.00010997101
7.2384051e-05
7.5738599e-05
8.9813274e-05
0.00011707256
0.00015242299
0.00019454995
0.00024385605
0.00030065472
0.00036241702
0.00042537501
0.00046141836
0.00046948919
0.0004637108
0.00044986623
0.00042463506
0.0003880152
0.00034108089
0.00029533818
0.00027350398
0.00026710094
0.00026809176
0.00029037041
0.0001135698
7.4218427e-05
7.620184e-05
8.6974562e-05
0.00010600878
0.00013041696
0.00015968587
0.00019411982
0.0002348387
0.00028199439
0.00033441099
0.00038973324
0.00043419537
0.0004508497
0.00044883103
0.00044141537
0.00042535831
0.00039770108
0.00036180377
0.00031687235
0.00028392596