/*--------------------------------*- C++ -*----------------------------------*\
| =========                 |                                                 |
| \\      /  F ield         | OpenFOAM: The Open Source CFD Toolbox           |
|  \\    /   O peration     | Version:  2406                                  |
|   \\  /    A nd           | Website:  www.openfoam.com                      |
|    \\/     M anipulation  |                                                 |
\*---------------------------------------------------------------------------*/
FoamFile
{
    version     2.0;
    format      ascii;
    arch        "LSB;label=32;scalar=64";
    class       volScalarField;
    location    "120";
    object      nut;
}
// * * * * * * * * * * * * * * * * * * * * * * * * * * * * * * * * * * * * * //

dimensions      [0 2 -1 0 0 0 0];

internalField   nonuniform List<scalar> 
20580
(
8.9098868e-07
9.3246998e-07
9.048552e-07
8.7273628e-07
8.5138776e-07
8.3684334e-07
8.2593678e-07
8.1553774e-07
8.0592176e-07
7.9625952e-07
7.9105075e-07
7.833756e-07
7.8142113e-07
7.7610333e-07
7.7322432e-07
7.7391711e-07
7.7362421e-07
7.7962406e-07
7.8482774e-07
7.9178606e-07
8.0115593e-07
8.1276038e-07
8.220576e-07
8.5067533e-07
8.9079927e-07
9.2904748e-07
9.6133011e-07
1.0018467e-06
1.0435714e-06
1.0908435e-06
1.1446253e-06
8.9224986e-07
9.3617444e-07
9.1260524e-07
8.872284e-07
8.6443474e-07
8.4577282e-07
8.3072348e-07
8.1816439e-07
8.0751068e-07
7.9725965e-07
7.9155663e-07
7.8358824e-07
7.8012567e-07
7.7626777e-07
7.7142762e-07
7.713634e-07
7.7115672e-07
7.7657012e-07
7.8163371e-07
7.8591593e-07
7.987139e-07
8.0207469e-07
8.1889778e-07
8.3779702e-07
8.8167936e-07
9.4028184e-07
9.7545541e-07
1.0351426e-06
1.0807504e-06
1.1700877e-06
1.1727814e-06
8.9201832e-07
9.3739784e-07
9.1404978e-07
8.9239104e-07
8.7729879e-07
8.6149369e-07
8.4491646e-07
8.285296e-07
8.1318263e-07
8.0085419e-07
7.9352048e-07
7.8505343e-07
7.8016602e-07
7.7727034e-07
7.714619e-07
7.701038e-07
7.6953668e-07
7.7271527e-07
7.7802498e-07
7.7880524e-07
7.9360866e-07
7.937642e-07
8.1019377e-07
8.2243387e-07
8.5486677e-07
9.1777324e-07
9.6115351e-07
1.002472e-06
1.0623905e-06
1.1446941e-06
1.2524914e-06
8.9182915e-07
9.374181e-07
9.1445397e-07
8.9447e-07
8.8150513e-07
8.715347e-07
8.5891157e-07
8.4353487e-07
8.2768459e-07
8.1215113e-07
8.0123356e-07
7.9218604e-07
7.8424567e-07
7.8194566e-07
7.7456647e-07
7.7206217e-07
7.7101384e-07
7.7174316e-07
7.7663614e-07
7.7614725e-07
7.8912502e-07
7.8958875e-07
8.0090351e-07
8.137737e-07
8.362753e-07
8.8339955e-07
9.4538442e-07
9.886825e-07
1.0245414e-06
1.0808323e-06
1.2002758e-06
8.9108258e-07
9.3934249e-07
9.162005e-07
8.9618612e-07
8.8633425e-07
8.7608018e-07
8.6639768e-07
8.5744823e-07
8.4427533e-07
8.3309954e-07
8.2087634e-07
8.135873e-07
8.0005367e-07
7.9671643e-07
7.8698637e-07
7.8087262e-07
7.7833195e-07
7.767246e-07
7.7830962e-07
7.7790151e-07
7.88674e-07
7.909131e-07
7.989615e-07
8.1384112e-07
8.3227963e-07
8.7133941e-07
9.4081949e-07
9.9045637e-07
1.0634921e-06
1.1055762e-06
1.1928986e-06
8.9136784e-07
9.4511956e-07
9.1840599e-07
8.9895665e-07
8.891667e-07
8.8050986e-07
8.7008341e-07
8.610772e-07
8.5241671e-07
8.4888382e-07
8.4132116e-07
8.3746003e-07
8.3126209e-07
8.2778911e-07
8.1913187e-07
8.1100623e-07
8.0450129e-07
7.9983694e-07
7.9111484e-07
7.9148739e-07
7.9277471e-07
7.9690891e-07
7.9800503e-07
8.1487772e-07
8.2672023e-07
8.5774755e-07
9.1757773e-07
1.0014122e-06
1.0557967e-06
1.1668972e-06
1.2137427e-06
8.981184e-07
9.4441193e-07
9.185672e-07
9.0047049e-07
8.8856209e-07
8.8001634e-07
8.7201751e-07
8.6422805e-07
8.5505094e-07
8.5280614e-07
8.4980174e-07
8.4968873e-07
8.4920331e-07
8.4941937e-07
8.4561693e-07
8.4598634e-07
8.3649379e-07
8.4060152e-07
8.2903285e-07
8.3196309e-07
8.2105445e-07
8.197678e-07
8.1152256e-07
8.1836184e-07
8.2610732e-07
8.3743703e-07
8.6987622e-07
9.6025757e-07
1.0312251e-06
1.1429183e-06
1.2302421e-06
9.3280666e-07
9.9325007e-07
9.4123206e-07
9.1005516e-07
8.9269983e-07
8.8133404e-07
8.7088866e-07
8.6056558e-07
8.5428423e-07
8.5216117e-07
8.5152257e-07
8.51552e-07
8.5173392e-07
8.5433019e-07
8.5287367e-07
8.5671986e-07
8.5512598e-07
8.6025387e-07
8.5856816e-07
8.6490611e-07
8.6162262e-07
8.6022725e-07
8.5669321e-07
8.5022058e-07
8.4422976e-07
8.4794984e-07
8.6432122e-07
9.0501152e-07
9.6089942e-07
1.0296531e-06
1.1875325e-06
1.1733699e-06
1.1613691e-06
1.0613609e-06
9.7601354e-07
9.3353067e-07
9.0642198e-07
8.8576507e-07
8.6863704e-07
8.5811063e-07
8.526623e-07
8.4782682e-07
8.4582066e-07
8.4429664e-07
8.4784806e-07
8.4718901e-07
8.5329945e-07
8.5493593e-07
8.6045148e-07
8.6329806e-07
8.721641e-07
8.7411298e-07
8.7937639e-07
8.914283e-07
8.9967689e-07
9.0243579e-07
9.0015132e-07
9.0886342e-07
9.3585135e-07
9.8672754e-07
1.0319378e-06
1.1171499e-06
9.5529642e-07
1.0934157e-06
1.1377078e-06
1.1305019e-06
1.0906168e-06
1.0415097e-06
9.7667006e-07
9.3043926e-07
9.0040657e-07
8.8049352e-07
8.6715952e-07
8.5658432e-07
8.5064878e-07
8.4636066e-07
8.4509854e-07
8.4326201e-07
8.4441596e-07
8.4577034e-07
8.5263566e-07
8.6401447e-07
8.7396048e-07
8.8420794e-07
9.0220038e-07
9.2199935e-07
9.4605232e-07
9.6848086e-07
1.0171033e-06
1.0575818e-06
1.0964913e-06
1.143902e-06
1.1735836e-06
8.7418127e-07
9.1414981e-07
1.0329285e-06
1.0926207e-06
1.1313414e-06
1.1385635e-06
1.1388954e-06
1.1114915e-06
1.0697271e-06
1.032392e-06
9.8852175e-07
9.5441006e-07
9.2845209e-07
9.0458203e-07
8.8799669e-07
8.7359489e-07
8.63548e-07
8.5328624e-07
8.5783467e-07
8.5719641e-07
8.6499287e-07
8.8134923e-07
8.9858428e-07
9.2084362e-07
9.4485702e-07
9.7562374e-07
1.0175516e-06
1.0990456e-06
1.148033e-06
1.2737995e-06
1.2942001e-06
8.7910142e-07
9.5312071e-07
9.452906e-07
9.8189954e-07
1.0177557e-06
1.0644894e-06
1.0995467e-06
1.1153345e-06
1.1367455e-06
1.1602058e-06
1.180366e-06
1.1915267e-06
1.1863811e-06
1.1585065e-06
1.1258537e-06
1.0759952e-06
1.0172975e-06
9.6809745e-07
9.3560249e-07
9.1470306e-07
8.9771816e-07
8.9740616e-07
9.1321831e-07
9.2508456e-07
9.401232e-07
9.6363679e-07
9.9177229e-07
1.0464031e-06
1.1030092e-06
1.2186004e-06
1.3733244e-06
9.3371719e-07
1.0398491e-06
9.9314121e-07
9.7540673e-07
9.6589183e-07
9.5801846e-07
9.644885e-07
9.8708927e-07
1.0234501e-06
1.0651878e-06
1.1139256e-06
1.1569343e-06
1.1822036e-06
1.2116748e-06
1.2339551e-06
1.2508391e-06
1.2537698e-06
1.2538514e-06
1.2261168e-06
1.1976021e-06
1.1560379e-06
1.0934921e-06
1.0467003e-06
1.0197992e-06
1.0024751e-06
9.9778152e-07
1.0133528e-06
1.0322868e-06
1.0769332e-06
1.1237997e-06
1.2539898e-06
8.8725378e-07
9.888432e-07
9.9565506e-07
9.9770303e-07
9.9804277e-07
9.8679002e-07
9.7136688e-07
9.6084696e-07
9.5352729e-07
9.5658918e-07
9.6012384e-07
9.804508e-07
1.009507e-06
1.0454418e-06
1.0850187e-06
1.1247993e-06
1.1759688e-06
1.2116869e-06
1.2412026e-06
1.2731552e-06
1.3005639e-06
1.3240382e-06
1.3498049e-06
1.3687402e-06
1.3511499e-06
1.3383588e-06
1.2875963e-06
1.2537004e-06
1.2497893e-06
1.2702882e-06
1.3289337e-06
8.8431629e-07
9.9829895e-07
9.8337116e-07
9.8750941e-07
9.9465052e-07
9.9061434e-07
9.8994761e-07
9.8376536e-07
9.7330331e-07
9.6448053e-07
9.6646892e-07
9.6528957e-07
9.5543813e-07
9.6281251e-07
9.6707604e-07
9.6148031e-07
9.8197572e-07
1.0079979e-06
1.0530585e-06
1.0974537e-06
1.1528742e-06
1.2428744e-06
1.2940156e-06
1.3698522e-06
1.4385516e-06
1.5051123e-06
1.5842383e-06
1.6802939e-06
1.7163952e-06
1.8013921e-06
1.7939428e-06
8.695045e-07
9.0678345e-07
9.0401867e-07
9.0299908e-07
9.1203123e-07
9.1781168e-07
9.2956255e-07
9.4103546e-07
9.4571504e-07
9.4685185e-07
9.5799513e-07
9.6235005e-07
9.5692235e-07
9.6153868e-07
9.6105262e-07
9.5049011e-07
9.4795844e-07
9.5500373e-07
9.4632278e-07
9.6426092e-07
9.9371615e-07
1.0237718e-06
1.0715395e-06
1.1597144e-06
1.2900023e-06
1.3897718e-06
1.508431e-06
1.612725e-06
1.7459442e-06
1.8524549e-06
2.0031064e-06
8.7138252e-07
9.6282273e-07
9.2399988e-07
9.0101354e-07
8.8676989e-07
8.7663061e-07
8.7274375e-07
8.7252086e-07
8.7247114e-07
8.7475829e-07
8.8548489e-07
8.9564475e-07
9.0287827e-07
9.1700381e-07
9.2320639e-07
9.2397437e-07
9.2157823e-07
9.2531813e-07
9.2525209e-07
9.2529691e-07
9.3652615e-07
9.5562323e-07
9.7244132e-07
9.9800276e-07
1.0597032e-06
1.111618e-06
1.2030177e-06
1.2764914e-06
1.4523334e-06
1.5739947e-06
1.807337e-06
8.7594693e-07
9.1024835e-07
9.0156167e-07
8.8553266e-07
8.716511e-07
8.623008e-07
8.5612812e-07
8.4835402e-07
8.4360203e-07
8.3731632e-07
8.3560282e-07
8.3406933e-07
8.3421347e-07
8.4053841e-07
8.4156696e-07
8.4897091e-07
8.521572e-07
8.5496854e-07
8.6203533e-07
8.6311886e-07
8.7530435e-07
8.8816824e-07
9.0060374e-07
9.173085e-07
9.4791657e-07
9.7730288e-07
1.0186526e-06
1.0464374e-06
1.1165751e-06
1.1786741e-06
1.3011866e-06
8.7657265e-07
8.9838975e-07
8.9293082e-07
8.8282795e-07
8.7198191e-07
8.6626526e-07
8.6194222e-07
8.5467817e-07
8.4889215e-07
8.4220407e-07
8.3826995e-07
8.33946e-07
8.3260898e-07
8.3050496e-07
8.2786092e-07
8.2546527e-07
8.2626497e-07
8.2272871e-07
8.2645586e-07
8.2791841e-07
8.3774144e-07
8.5032899e-07
8.6201257e-07
8.7788604e-07
9.0613872e-07
9.363007e-07
9.8473437e-07
1.0135135e-06
1.0833289e-06
1.1272489e-06
1.2101716e-06
8.7869169e-07
9.3413349e-07
9.1694027e-07
9.0697371e-07
9.0847354e-07
9.1687877e-07
9.1799171e-07
9.1657762e-07
9.1578582e-07
9.1722952e-07
9.1751708e-07
9.1552811e-07
9.1255807e-07
9.0753761e-07
9.030714e-07
9.0033296e-07
9.0047826e-07
8.9801746e-07
9.0443551e-07
9.1488723e-07
9.3453279e-07
9.585077e-07
9.7742408e-07
8.8757006e-07
1.0351958e-06
6.3695253e-07
9.8199209e-07
9.6927303e-07
8.4793993e-07
1.2475015e-06
8.8215179e-07
8.7552952e-07
1.0050236e-06
1.0573885e-06
1.0983885e-06
1.155011e-06
1.2000825e-06
1.2323293e-06
1.2670861e-06
1.3035571e-06
1.3381355e-06
1.3627808e-06
1.3817285e-06
1.3994553e-06
1.4226362e-06
1.4490303e-06
1.4780682e-06
1.5047303e-06
1.5330341e-06
1.5658743e-06
1.6177089e-06
1.6730939e-06
1.2165726e-06
1.7882009e-06
1.8402669e-06
1.899497e-06
1.015598e-06
1.2631397e-06
2.0512015e-06
1.4006066e-06
2.1036267e-06
1.2323337e-06
1.1038559e-06
2.0020053e-06
2.1753396e-06
2.2517295e-06
2.3814981e-06
2.4068688e-06
2.4046909e-06
2.4324152e-06
2.4947097e-06
2.5437853e-06
2.5958172e-06
2.6509618e-06
2.7004241e-06
2.7289414e-06
2.8100391e-06
2.9672896e-06
3.1076203e-06
3.1519919e-06
3.2453646e-06
3.3596409e-06
3.4764277e-06
3.2226138e-06
3.6975558e-06
3.7770475e-06
3.8479167e-06
3.0707505e-06
3.1311797e-06
4.0104759e-06
4.0274395e-06
4.0202376e-06
3.2509777e-06
1.1314058e-06
2.3181103e-06
2.9832455e-06
2.350972e-06
2.2400502e-06
2.0099312e-06
2.096336e-06
2.1128938e-06
2.1035545e-06
2.1184398e-06
2.1229594e-06
2.115379e-06
2.1833106e-06
2.1920482e-06
2.169078e-06
2.2034477e-06
2.2438016e-06
2.3290302e-06
2.243674e-06
2.1545035e-06
2.3270461e-06
2.4926326e-06
2.3182179e-06
2.0603217e-06
2.1473718e-06
2.6433284e-06
2.9455785e-06
2.2639462e-06
1.8881442e-06
2.0409619e-06
2.7225842e-06
3.3789125e-06
3.1474862e-06
1.6850115e-06
1.3750297e-06
1.2734907e-06
1.3594436e-06
1.8529229e-06
2.1323209e-06
1.9984082e-06
1.4818903e-06
1.3568799e-06
1.4796138e-06
1.4300841e-06
1.2586482e-06
1.1948251e-06
1.253499e-06
1.3479184e-06
1.3552421e-06
1.3087885e-06
1.2830807e-06
1.3186346e-06
1.3004216e-06
1.2559984e-06
1.85979e-06
4.2161169e-06
2.3735394e-06
1.2395908e-06
1.3936859e-06
1.417891e-06
1.8726312e-06
2.354897e-06
2.2822815e-06
1.7907138e-06
1.4922209e-06
1.6198492e-06
1.5903478e-06
1.4820395e-06
1.3286402e-06
1.3523155e-06
1.4474661e-06
1.457791e-06
1.429406e-06
1.36546e-06
1.4035055e-06
1.4226832e-06
1.4089687e-06
1.5348848e-06
4.0398208e-06
2.0061547e-06
1.359626e-06
1.308235e-06
1.5146663e-06
1.9907789e-06
2.6641039e-06
2.6965068e-06
2.3739184e-06
1.7119724e-06
1.7711871e-06
1.8046498e-06
1.7825457e-06
1.6155091e-06
1.5169849e-06
1.6087868e-06
1.638473e-06
1.6197737e-06
1.5258187e-06
1.5439209e-06
1.5749907e-06
1.5876279e-06
2.260945e-06
2.5190636e-06
2.4605067e-06
2.1467104e-06
1.539682e-06
1.7814428e-06
2.221704e-06
2.97628e-06
3.0112504e-06
2.8370423e-06
2.0878428e-06
1.993106e-06
2.0436807e-06
2.0315104e-06
1.9398703e-06
1.7540107e-06
1.771452e-06
1.8456654e-06
1.8780955e-06
1.8575329e-06
1.7841215e-06
1.81482e-06
1.8086538e-06
2.5431056e-06
2.0936513e-06
1.5034552e-06
1.6332683e-06
1.8063718e-06
1.9467416e-06
2.1377593e-06
3.29942e-06
3.3378167e-06
3.2330501e-06
2.6149431e-06
2.2747772e-06
2.3134015e-06
2.2664728e-06
2.1351132e-06
1.9213794e-06
1.8907942e-06
1.9874454e-06
2.0304021e-06
2.0916038e-06
2.0716015e-06
2.0650913e-06
2.0512374e-06
1.4960983e-06
2.0246479e-06
3.2121336e-06
2.771227e-06
2.10667e-06
1.5319759e-06
2.1410058e-06
3.8015156e-06
3.9676266e-06
3.9793186e-06
3.5868616e-06
2.7830386e-06
2.7392112e-06
2.6555286e-06
2.4609527e-06
2.1789802e-06
2.0846603e-06
2.1665158e-06
2.2303626e-06
2.2729827e-06
2.2555191e-06
2.2228622e-06
2.2189082e-06
9.300338e-07
3.1214959e-06
2.1634469e-06
1.7640544e-06
2.301865e-06
2.5390419e-06
2.8671769e-06
4.3004368e-06
4.6609078e-06
4.9257861e-06
4.7279807e-06
3.6684945e-06
3.4678995e-06
3.4254698e-06
3.187308e-06
2.8731334e-06
2.5522379e-06
2.5642625e-06
2.6443432e-06
2.6233315e-06
2.5055816e-06
2.3884853e-06
2.361806e-06
1.5836905e-06
1.8665294e-06
3.3971545e-06
3.4679654e-06
3.0044455e-06
1.9363256e-06
1.8472972e-06
3.2258661e-06
5.7032789e-06
5.6507671e-06
5.4996076e-06
4.6123298e-06
4.0041718e-06
4.0127484e-06
3.9654894e-06
3.6571479e-06
3.3298361e-06
3.2955735e-06
3.4565309e-06
3.4108859e-06
3.1583434e-06
2.8316094e-06
2.7521688e-06
1.1339073e-06
1.5154953e-06
2.9068495e-06
4.2051997e-06
3.5512427e-06
2.7939902e-06
3.6852813e-06
5.9592626e-06
5.7104154e-06
4.9508113e-06
6.5662136e-06
5.7497594e-06
4.8198544e-06
4.7930893e-06
4.763391e-06
4.4656138e-06
4.0225439e-06
3.8379974e-06
3.9312019e-06
4.1019245e-06
3.9602258e-06
3.6151472e-06
3.406029e-06
6.6417121e-07
1.9218754e-06
2.6545771e-06
3.4878949e-06
4.1713954e-06
3.9199024e-06
4.945163e-06
7.1315833e-06
8.1918347e-06
7.8593903e-06
7.962312e-06
7.3942749e-06
6.264386e-06
6.2606201e-06
6.2492799e-06
5.9048937e-06
5.0016753e-06
4.4767876e-06
4.4500207e-06
4.6293528e-06
4.6403849e-06
4.3862595e-06
4.0158874e-06
9.6100257e-07
1.6279523e-06
3.3751651e-06
6.2321287e-06
7.2453548e-06
5.1873946e-06
5.0281236e-06
7.2766363e-06
1.1162042e-05
1.363776e-05
1.2258672e-05
9.7353747e-06
6.8336811e-06
8.3655286e-06
9.0020456e-06
8.4038106e-06
6.555027e-06
5.5174119e-06
5.1226962e-06
5.3230001e-06
5.5553298e-06
5.523181e-06
5.0730667e-06
9.0644627e-07
2.318047e-06
5.6795289e-06
7.4854136e-06
8.5463431e-06
1.0174292e-05
1.0982481e-05
1.6387355e-05
2.0747052e-05
2.1484993e-05
1.8926877e-05
1.6827543e-05
1.38557e-05
1.3749938e-05
1.4141273e-05
1.2956392e-05
9.2892557e-06
7.0764762e-06
6.2389035e-06
6.5190795e-06
7.3664935e-06
7.4493612e-06
6.8855769e-06
1.887293e-06
3.619623e-06
7.5732256e-06
8.9816166e-06
1.3628829e-05
1.6325611e-05
1.8536426e-05
2.6498748e-05
2.9112534e-05
3.1628713e-05
2.9152074e-05
2.6931626e-05
2.2784865e-05
2.191569e-05
2.3321224e-05
2.1841683e-05
1.5687528e-05
1.0923377e-05
9.1990127e-06
9.5988615e-06
1.135982e-05
1.1488054e-05
1.0318751e-05
2.4536631e-06
3.9583927e-06
8.4556432e-06
1.1124257e-05
1.556848e-05
2.1868255e-05
3.1635257e-05
4.3002806e-05
4.5746072e-05
5.0185686e-05
4.3904285e-05
3.9259314e-05
3.6714287e-05
3.6969393e-05
4.0603434e-05
3.8732863e-05
2.7565271e-05
1.747119e-05
1.3665465e-05
1.2883801e-05
1.5263644e-05
1.5414566e-05
1.3960259e-05
1.2370534e-06
2.5772449e-06
9.0700913e-06
1.2882382e-05
1.6051291e-05
2.3250425e-05
4.2004453e-05
5.774035e-05
6.1794992e-05
5.7438261e-05
5.5287139e-05
5.0623101e-05
5.4247997e-05
6.28831e-05
6.6274976e-05
5.6890395e-05
3.7602247e-05
2.665349e-05
2.1450483e-05
1.9974419e-05
2.3345093e-05
2.3135503e-05
2.0259678e-05
1.1482864e-06
2.4270711e-06
6.9590229e-06
1.5631329e-05
2.0956072e-05
2.5089301e-05
3.9870254e-05
5.1881859e-05
5.7101938e-05
5.7512684e-05
7.4729829e-05
7.5672841e-05
7.9440558e-05
0.00010153388
0.0001159584
9.9222931e-05
6.0435164e-05
4.1027307e-05
3.5190787e-05
3.3966472e-05
4.0230695e-05
3.8033928e-05
2.7452035e-05
1.3359622e-06
2.6792582e-06
6.7928163e-06
1.8804527e-05
2.9070262e-05
3.053362e-05
4.1634788e-05
5.2501951e-05
5.9808175e-05
7.0215707e-05
9.8388928e-05
0.00011122109
0.00011482508
0.00013095396
0.00014281684
0.00014152825
8.7137045e-05
5.9826647e-05
5.427594e-05
5.4471115e-05
6.3646105e-05
5.5855328e-05
3.5477738e-05
1.7098578e-06
2.9533024e-06
7.9651965e-06
2.2213464e-05
3.3253604e-05
3.429553e-05
4.5561073e-05
5.6634332e-05
6.4748704e-05
8.2287783e-05
0.00012416587
0.00014357284
0.00013360627
0.00014946543
0.00016133508
0.00017682836
0.00012391586
9.6097724e-05
9.7745362e-05
0.00012257161
0.000134304
0.00010332683
5.5609365e-05
1.7669727e-06
2.8355071e-06
9.5106532e-06
2.4413271e-05
3.0399663e-05
3.7933217e-05
5.1805808e-05
6.3698164e-05
7.1805351e-05
8.9926356e-05
0.00015307366
0.00017607801
0.00013741181
0.00015018525
0.00016565235
0.00020099759
0.00017124585
0.0001502397
0.00016027487
0.00018260843
0.00018324408
0.00014204661
7.7691082e-05
1.776066e-06
2.9629845e-06
1.1192223e-05
2.4518212e-05
2.9387221e-05
4.4369914e-05
6.4222908e-05
7.7770312e-05
8.5065696e-05
0.00010625338
0.00018270332
0.00021067149
0.00014640768
0.00015661372
0.00018542356
0.00025692935
0.0002044712
0.00018923789
0.00020192683
0.00022073603
0.00021340361
0.00016586307
0.00010531034
2.529233e-06
3.7515933e-06
1.0350782e-05
1.8260307e-05
3.1072398e-05
5.9484743e-05
9.6891407e-05
0.00011700568
0.00011897773
0.00013059034
0.00021057359
0.00020633745
0.00017535596
0.0001992506
0.00025442248
0.00029907483
0.00027855404
0.00028175137
0.00030459409
0.00031214183
0.00027943528
0.00019816395
0.00014305108
5.4869224e-06
6.5279362e-06
1.0312101e-05
1.6183092e-05
3.6166956e-05
7.9387153e-05
0.00011577252
0.00014663392
0.00017402068
0.00020334142
0.0002015847
0.00022994363
0.00032524561
0.00037029341
0.00037942796
0.00037545956
0.00037357663
0.00038632593
0.00038737259
0.00038019919
0.00033186368
0.00024386436
0.00020332758
2.8105989e-06
8.2517009e-06
1.0895368e-05
1.6870647e-05
2.8709419e-05
5.6669159e-05
0.00010188527
0.00014321262
0.00018327733
0.00017425155
0.00022585334
0.00033632111
0.00038260768
0.00041862018
0.000440851
0.00044397121
0.00044445794
0.00045249891
0.00044730161
0.00042243787
0.00036202975
0.00029498471
0.00027452214
4.3547456e-06
1.6397866e-05
1.8515775e-05
1.9575328e-05
2.3703434e-05
3.1057831e-05
5.1418015e-05
9.2568828e-05
0.00015935628
0.00023550425
0.0002970249
0.00019609214
0.00020451941
0.00030125463
0.00049704081
0.00050422008
0.00051406519
0.00049869605
0.00048573125
0.00045729867
0.00039142456
0.00034872941
0.000331156
6.2674649e-06
3.4309527e-05
3.7327986e-05
3.6090779e-05
3.6527623e-05
3.8031141e-05
4.6147685e-05
7.2939015e-05
0.00014155488
0.00020397069
0.00016324963
0.00016991886
0.00020611525
0.00031045155
0.0005299046
0.00055681701
0.00040922232
0.00037376575
0.00042916817
0.00047633999
0.00041242836
0.00036991295
0.00033293012
5.6240303e-06
4.2830086e-05
4.0502518e-05
4.3698683e-05
5.7752332e-05
6.6240423e-05
5.889168e-05
7.8012917e-05
0.00011092961
0.00014498318
0.00023388484
0.00036071785
0.00041419939
0.00045567152
0.00055190426
0.00051679057
0.00046699723
0.00052546924
0.00053345622
0.00047213486
0.00040587731
0.00034832683
0.00029465306
6.0704404e-06
5.9402748e-05
8.6833031e-05
7.3545086e-05
6.1116435e-05
6.3531043e-05
7.5289801e-05
9.5898499e-05
0.00015456506
0.00023729612
0.00032684041
0.0004062211
0.00049029273
0.00055232056
0.00059512494
0.00061665446
0.00060342678
0.00056997356
0.00051481154
0.00044455758
0.00037305077
0.00030554483
0.00026269995
8.0901254e-06
8.7791256e-05
0.0001083319
0.00011086931
8.1487533e-05
7.7103011e-05
9.677229e-05
0.00013864123
0.00022124707
0.00025888673
0.00025949486
0.00033995644
0.00055753229
0.00059835589
0.00061827667
0.00046733734
0.00045696534
0.00053375348
0.00047767086
0.00040446219
0.00032687359
0.00027517917
0.0002482239
9.1821993e-06
0.00010260335
0.00012235152
0.00012009621
0.00011960033
0.00012608706
0.00015428638
0.00018938591
0.00027513008
0.00039955859
0.00047812384
0.0005542254
0.00055218564
0.00055025415
0.0005993443
0.0005599294
0.00052218309
0.0004833022
0.000429742
0.00035903662
0.00029313879
0.0002562625
0.00022943857
8.3802917e-06
8.6786301e-05
0.00011042263
0.00011549279
0.00011402885
0.00013883363
0.00023911413
0.00031143367
0.00038722127
0.00045165571
0.00050785955
0.00058344697
0.00060308909
0.00059694146
0.00056426156
0.00051473017
0.00046985381
0.00042265232
0.00036270725
0.00029525718
0.00025034421
0.00022185305
0.00019884041
7.9121047e-06
8.6188797e-05
9.1012817e-05
0.00010657468
0.00018214359
0.00023211267
0.00029915909
0.0003673994
0.00043142719
0.00048956168
0.00054022935
0.00057666609
0.00058641897
0.00057295717
0.00052610244
0.00046736714
0.00041382094
0.00035800656
0.00029112504
0.00023926527
0.00021456613
0.00019846916
0.00019268158
9.2288645e-06
0.00011339652
0.00014625183
0.00014562539
0.00018894821
0.00026152935
0.00033292982
0.00040213314
0.00046235551
0.00050922156
0.0005431407
0.00055620445
0.0005538918
0.0005246108
0.00046992576
0.00041017243
0.00035366717
0.00029448074
0.00024161085
0.0002167593
0.00020342951
0.00020183436
0.0002105945
1.0944591e-05
0.00012517594
0.00016819527
0.00019171848
0.00022817151
0.00027864764
0.00035093172
0.00042149096
0.00047763965
0.00051493196
0.0005287282
0.00052587136
0.00050873022
0.00046400428
0.00040251166
0.00034696201
0.00029857221
0.00025451278
0.00023134882
0.00021991621
0.0002176887
0.00024007986
0.00027508915
1.0854856e-05
0.00013389523
0.00017929804
0.00020275053
0.00024044823
0.00029191854
0.00036119054
0.00042504124
0.00047565541
0.00050794637
0.00051642199
0.00050916226
0.00047814473
0.00041819714
0.00035055295
0.00029655661
0.00025950792
0.0002418539
0.0002365278
0.00024142133
0.00027535553
0.00031380448
0.00034142092
1.1362286e-05
0.00013997881
0.0001657294
0.0001996424
0.00025920098
0.0003126859
0.00038066283
0.00043555031
0.00046802708
0.00047899653
0.00047506439
0.00045456986
0.00041309443
0.00035417939
0.00029859119
0.00026537636
0.0002494741
0.00024584472
0.00025553978
0.00028580837
0.00033241753
0.00036815531
0.00039387882
1.2367618e-05
0.00015733064
0.00020349793
0.00022313763
0.00025798557
0.00030722093
0.00036842068
0.00041931365
0.00044870043
0.00045673388
0.00045001786
0.00042960761
0.00039366
0.00034267843
0.00029455943
0.00026641323
0.0002541986
0.00025500899
0.00026967889
0.00030271428
0.00034698311
0.00037889918
0.00040095947
1.2972202e-05
0.00016131551
0.00021092599
0.00022795369
0.00025622804
0.0002968907
0.00035100803
0.00039973323
0.00043042555
0.00044015036
0.00043341374
0.00041200829
0.00037665512
0.00033098414
0.000287294
0.00026045065
0.00024999751
0.00025343798
0.0002714576
0.00030619696
0.00034797989
0.00038158265
0.0004093718
1.2087959e-05
0.00016560523
0.00021839446
0.00023494068
0.00025749936
0.00028976661
0.00033564326
0.00037946307
0.00040889472
0.00042037004
0.0004159044
0.00039609924
0.00036241421
0.00031916543
0.00027768343
0.00025205281
0.00024286398
0.00024982221
0.00027379795
0.0003127887
0.00035624285
0.00039353981
0.00042470906
1.1371073e-05
0.00016758422
0.00021305429
0.00022921549
0.00025967697
0.00028612998
0.0003247868
0.00036306615
0.00038873923
0.00039818539
0.00039363615
0.00037548569
0.00034511037
0.00030628873
0.00026872215
0.00024557351
0.00023788034
0.00024759237
0.00027562413
0.0003184143
0.00036560812
0.00041052822
0.00045142558
1.1949529e-05
0.00016784506
0.00022692822
0.00024711599
0.00026106536
0.00028302934
0.00031507395
0.00034857353
0.00037132433
0.00037873301
0.00037290381
0.00035438867
0.00032553471
0.00029053077
0.00025769502
0.00023878257
0.00023438945
0.00024858356
0.00028189425
0.00033077736
0.00038443399
0.00043934825
0.00049223827
1.2246277e-05
0.00016614125
0.00022873087
0.00025110437
0.00026300069
0.00028097574
0.00030569217
0.00033413262
0.0003546251
0.00036135144
0.0003553555
0.00033674223
0.0003083027
0.00027504788
0.0002458325
0.00023099294
0.00023070333
0.00025119081
0.00029570523
0.00035293072
0.00041582594
0.00048144278
0.00054926839
1.1305413e-05
0.00016478055
0.00022900107
0.00025358813
0.00026549388
0.00028114414
0.00029954881
0.00032228003
0.0003389201
0.00034409168
0.00033763007
0.00031936599
0.00029191132
0.00026041099
0.0002347871
0.00022389519
0.00022963333
0.00026225074
0.0003152141
0.0003835511
0.00045990419
0.00054054582
0.00062262322
1.086439e-05
0.00016323003
0.00022807572
0.00024690084
0.00026704782
0.00028081279
0.00029559852
0.000313368
0.00032570048
0.0003281183
0.00031976008
0.00030078872
0.00027398254
0.00024435109
0.00022530503
0.00021961691
0.00023613699
0.00028014558
0.00034760424
0.00043142864
0.00052181644
0.00061456332
0.00062437226
1.13931e-05
0.00016121623
0.00022650903
0.00025354506
0.00026658367
0.00027816509
0.0002904037
0.0003039794
0.00031299821
0.00031365195
0.00030352223
0.00028346834
0.00025677777
0.00023004872
0.00021659922
0.00021819956
0.00025002745
0.0003113256
0.00039821188
0.00049533785
0.00059636707
0.00067827877
0.00055493701
1.1169086e-05
0.00015906629
0.00022531396
0.000252991
0.00026599555
0.00027490078
0.00028452125
0.00029388893
0.00030007257
0.00029922033
0.00028808501
0.00026741232
0.00024078618
0.00021889446
0.00021125804
0.00022580757
0.00027435508
0.00035764298
0.00045782804
0.0005638779
0.00063014875
0.00065439089
0.000642081
1.0219623e-05
0.00015301587
0.00022138521
0.00025143556
0.00026516022
0.00027212031
0.00027858184
0.00028459407
0.00028789093
0.00028491311
0.00027262608
0.00025146166
0.00022535387
0.00020939268
0.00020799685
0.00023894911
0.0003103645
0.00040840533
0.00051723826
0.00062806672
0.00070550153
0.00077149928
0.00075401179
1.0166499e-05
0.00014702389
0.00021562238
0.0002477535
0.00026307748
0.00026948094
0.00027294874
0.00027556847
0.00027606069
0.00027090569
0.00025763403
0.0002363707
0.00021292469
0.00020210253
0.00021099723
0.00026079595
0.00034903833
0.00045662669
0.0005702052
0.00068474131
0.00073789025
0.00077046705
0.00073741096
1.0075091e-05
0.00014299223
0.00021092091
0.00024332826
0.00025966825
0.00026610351
0.00026735272
0.00026692096
0.00026485484
0.00025800204
0.00024390454
0.00022286755
0.00020329551
0.00019725243
0.0002176763
0.00028390124
0.00038267737
0.00049638852
0.0006153378
0.00063683844
0.00065745103
0.00069353284
0.00073240204
8.6923726e-06
0.00013018706
0.00020072059
0.00023713386
0.00025529697
0.00026232231
0.00026238049
0.00025960568
0.00025521678
0.00024673564
0.00023190992
0.000210836
0.00019409007
0.00019202965
0.00022330149
0.00029902224
0.00040661015
0.00052707162
0.00058993763
0.00063900277
0.00070473946
0.00079405842
0.0008369497
7.9981444e-06
0.00012367706
0.00018902689
0.00022829191
0.00024908016
0.00025806015
0.00025874734
0.00025446586
0.0002481415
0.00023808076
0.00022227365
0.00020149132
0.00018608787
0.00018703041
0.00022542596
0.0003090934
0.00042147192
0.00054370074
0.00066652985
0.00076913094
0.00084848673
0.00092272543
0.00086648294
7.4259064e-06
0.00011352562
0.00018094297
0.00021986406
0.00024178552
0.00025279443
0.00025300494
0.00024885166
0.00024169243
0.00023184476
0.00021674122
0.00019662059
0.00018025844
0.00018181202
0.00022291046
0.00031049254
0.00042278277
0.00054372905
0.00066770589
0.00077139899
0.0008254018
0.00084894223
0.00080483482
6.0580411e-06
9.6306766e-05
0.00016498302
0.00020732506
0.00023154692
0.00024516884
0.0002489187
0.00024356458
0.00023592561
0.00022523479
0.00021125926
0.00019242733
0.00017376389
0.00017237594
0.00020913638
0.000295266
0.00040331892
0.00052181949
0.00064573425
0.00074374881
0.00083338832
0.00088018837
0.00086636056
5.6672145e-06
8.289305e-05
0.00015165323
0.00019714224
0.00022286361
0.00023674978
0.00024556091
0.00024254157
0.00023400079
0.00022302397
0.00020783977
0.00018952733
0.00017020771
0.00016162121
0.00018559123
0.00026076806
0.00036746459
0.00047901438
0.00059670601
0.00072104095
0.00084489667
0.00095711576
0.00092998307
4.5187262e-06
6.4750947e-05
0.00013048344
0.00018155566
0.00021367541
0.00022965904
0.00023883804
0.00024160016
0.00023435828
0.00022400407
0.00021141608
0.00019373897
0.00017355621
0.00015745006
0.00016509144
0.00021206215
0.00031357406
0.00042775661
0.00053980955
0.0006560244
0.00077699851
0.00089694212
0.00087530986
4.3765939e-06
5.2943884e-05
0.00010687121
0.00015957072
0.00019900522
0.00022278493
0.00023328798
0.0002399522
0.00023597462
0.00022596747
0.00021380319
0.00019931802
0.00017973268
0.00016083343
0.00015354189
0.00017279135
0.00023768975
0.0003530976
0.00047296758
0.00058883973
0.00070159869
0.00081560437
0.00086497875
4.0778622e-06
4.9400657e-05
9.0825717e-05
0.00013791047
0.00017712664
0.00020880959
0.00022723506
0.00023434941
0.00023920856
0.00023175841
0.00021871467
0.00020428737
0.00018803563
0.00016819552
0.00015450089
0.00015431178
0.00017856942
0.00024890666
0.00036881061
0.00049807818
0.00062169792
0.00073406776
0.0008281103
3.97043e-06
4.5900885e-05
8.3963626e-05
0.00012434724
0.00015861193
0.0001870301
0.00021515009
0.00022715182
0.00023584841
0.00023848613
0.00023013229
0.00021413867
0.00019756313
0.00017960665
0.00016161642
0.00015280247
0.00015555035
0.00017880698
0.00024341946
0.00035723248
0.00049291318
0.00062736357
0.000745693
3.8941141e-06
4.2520551e-05
8.1250655e-05
0.00011731509
0.00014929655
0.00017137906
0.00019008859
0.00021081125
0.00022071528
0.0002328698
0.00023920355
0.00023220651
0.00021626481
0.000196963
0.00017513761
0.00015966416
0.00015378708
0.00015618213
0.00017398304
0.00022463947
0.00032141805
0.00045510709
0.00059310608
3.8411401e-06
3.913003e-05
7.3846889e-05
0.00010921155
0.00014131791
0.00016263674
0.0001729026
0.0001893977
0.00020889852
0.00022064993
0.00023254388
0.0002413678
0.00023599894
0.00022210625
0.00020220114
0.00017684689
0.00016123607
0.00015621675
0.00015704266
0.00016796716
0.00020212494
0.00027338187
0.00039957876
3.8392319e-06
3.582445e-05
6.3104708e-05
9.6450938e-05
0.00012971384
0.00015839513
0.0001664105
0.00017445045
0.00018870258
0.00020850888
0.00021979637
0.00023176134
0.00024429843
0.00024101516
0.00022970448
0.00021165127
0.00018567147
0.00016642432
0.00015954315
0.0001588399
0.00016438257
0.00018516344
0.00024631257
3.8758429e-06
3.0838842e-05