/*--------------------------------*- C++ -*----------------------------------*\
| =========                 |                                                 |
| \\      /  F ield         | OpenFOAM: The Open Source CFD Toolbox           |
|  \\    /   O peration     | Version:  2406                                  |
|   \\  /    A nd           | Website:  www.openfoam.com                      |
|    \\/     M anipulation  |                                                 |
\*---------------------------------------------------------------------------*/
FoamFile
{
    version     2.0;
    format      ascii;
    arch        "LSB;label=32;scalar=64";
    class       volScalarField;
    location    "120";
    object      nutMean;
}
// * * * * * * * * * * * * * * * * * * * * * * * * * * * * * * * * * * * * * //

dimensions      [0 2 -1 0 0 0 0];

internalField   nonuniform List<scalar> 
20580
(
8.8884702e-07
8.9534003e-07
8.7455324e-07
8.5326774e-07
8.3654593e-07
8.233196e-07
8.1403281e-07
8.0569197e-07
7.998249e-07
7.9388875e-07
7.9066196e-07
7.8657407e-07
7.8618483e-07
7.8439619e-07
7.8585454e-07
7.865735e-07
7.9007739e-07
7.955802e-07
8.0133299e-07
8.085511e-07
8.1503372e-07
8.1881155e-07
8.199503e-07
8.3723483e-07
8.5360937e-07
8.73767e-07
8.9505715e-07
9.1735599e-07
9.4772235e-07
9.9497431e-07
1.0793527e-06
8.896053e-07
9.0040058e-07
8.8500662e-07
8.6987554e-07
8.5268224e-07
8.3436306e-07
8.2096494e-07
8.0990993e-07
8.0240334e-07
7.957741e-07
7.9124637e-07
7.8723136e-07
7.8484021e-07
7.8402207e-07
7.8326613e-07
7.8470564e-07
7.8718697e-07
7.9312801e-07
8.003753e-07
8.0901271e-07
8.1973018e-07
8.2795719e-07
8.2851266e-07
8.4420074e-07
8.6047419e-07
8.8402381e-07
9.1304457e-07
9.4365277e-07
9.7062901e-07
1.005689e-06
1.0658157e-06
8.8906628e-07
9.0195153e-07
8.8667421e-07
8.7625762e-07
8.6648002e-07
8.5155895e-07
8.3585249e-07
8.2124967e-07
8.098324e-07
8.0095238e-07
7.9446991e-07
7.8935681e-07
7.8580287e-07
7.8337371e-07
7.8232002e-07
7.8168936e-07
7.8448493e-07
7.889997e-07
7.9638907e-07
8.0510438e-07
8.1565974e-07
8.2692569e-07
8.3225042e-07
8.4509415e-07
8.6188273e-07
8.8384404e-07
9.0901342e-07
9.3584756e-07
9.7340463e-07
1.0109902e-06
1.0761212e-06
8.8860375e-07
9.0195711e-07
8.8764574e-07
8.7884544e-07
8.7003027e-07
8.6152606e-07
8.5188224e-07
8.3895536e-07
8.2653523e-07
8.1443381e-07
8.0438136e-07
7.9623237e-07
7.9040985e-07
7.8620076e-07
7.832658e-07
7.8147251e-07
7.8146623e-07
7.8595697e-07
7.9081337e-07
8.0094726e-07
8.0992782e-07
8.2327901e-07
8.3027348e-07
8.4437776e-07
8.6337311e-07
8.8536661e-07
9.143208e-07
9.3645668e-07
9.6199021e-07
9.9193307e-07
1.0543758e-06
8.8816908e-07
9.0291281e-07
8.8903585e-07
8.7951071e-07
8.7409876e-07
8.6674945e-07
8.6183397e-07
8.5574679e-07
8.4734785e-07
8.3678233e-07
8.2530135e-07
8.1493228e-07
8.0485971e-07
7.9723481e-07
7.903201e-07
7.8651288e-07
7.8265101e-07
7.8489393e-07
7.8727008e-07
7.9555075e-07
8.0431973e-07
8.1734167e-07
8.2866403e-07
8.4257284e-07
8.62166e-07
8.8753055e-07
9.2991602e-07
9.6150771e-07
9.8695448e-07
1.0110908e-06
1.0501816e-06
8.8884318e-07
9.0592074e-07
8.9066378e-07
8.8133441e-07
8.7556385e-07
8.7070561e-07
8.6691148e-07
8.639406e-07
8.6137028e-07
8.5732273e-07
8.5064597e-07
8.4070701e-07
8.295264e-07
8.1944086e-07
8.0932645e-07
8.0213956e-07
7.9424402e-07
7.9206206e-07
7.904102e-07
7.9402434e-07
8.0038256e-07
8.1192464e-07
8.2268709e-07
8.3793224e-07
8.5532612e-07
8.7978236e-07
9.1580994e-07
9.7587159e-07
1.0117084e-06
1.0823411e-06
1.092865e-06
8.9233533e-07
9.1413725e-07
8.9351301e-07
8.8275342e-07
8.7585411e-07
8.6989722e-07
8.6739343e-07
8.6694582e-07
8.6833159e-07
8.6805514e-07
8.6795034e-07
8.6552554e-07
8.6003511e-07
8.5169312e-07
8.3870531e-07
8.2807899e-07
8.1645791e-07
8.1015454e-07
8.0491986e-07
8.0435399e-07
8.0412576e-07
8.1135412e-07
8.1692107e-07
8.2713167e-07
8.4317442e-07
8.6303633e-07
8.9158846e-07
9.5500495e-07
9.9886672e-07
1.0727839e-06
1.1270881e-06
8.970609e-07
9.7480476e-07
9.1954708e-07
8.9317056e-07
8.7944664e-07
8.7095834e-07
8.6816632e-07
8.6608617e-07
8.6767355e-07
8.7053734e-07
8.7350586e-07
8.7811215e-07
8.7802689e-07
8.8037265e-07
8.7433161e-07
8.6817551e-07
8.54511e-07
8.429084e-07
8.3184511e-07
8.2571432e-07
8.2039483e-07
8.2110055e-07
8.2431759e-07
8.2687474e-07
8.3565329e-07
8.4845385e-07
8.639341e-07
8.9697094e-07
9.4627915e-07
1.0100139e-06
1.1100872e-06
9.4890326e-07
1.0387429e-06
9.9827413e-07
9.4161094e-07
9.0740389e-07
8.8606847e-07
8.7477423e-07
8.6822407e-07
8.6639872e-07
8.6879625e-07
8.704106e-07
8.7611344e-07
8.7954619e-07
8.8560997e-07
8.8937955e-07
8.9170407e-07
8.9168392e-07
8.86897e-07
8.790703e-07
8.6712234e-07
8.5639227e-07
8.4724567e-07
8.4696574e-07
8.4702145e-07
8.4939924e-07
8.5847593e-07
8.6969991e-07
8.8964255e-07
9.2831442e-07
9.6322e-07
1.0377798e-06
8.7086534e-07
9.9144184e-07
1.0321721e-06
1.0339936e-06
1.003525e-06
9.60467e-07
9.2123813e-07
8.9749594e-07
8.8184582e-07
8.7511344e-07
8.7021648e-07
8.7169768e-07
8.7428201e-07
8.7972719e-07
8.8532243e-07
8.9007042e-07
8.9491921e-07
8.9944552e-07
9.040979e-07
9.0633215e-07
9.0579395e-07
9.0077968e-07
8.9587673e-07
8.9385951e-07
8.9058159e-07
8.9573979e-07
9.0783539e-07
9.2455572e-07
9.6041876e-07
9.9033976e-07
1.0461842e-06
8.5083219e-07
8.8706475e-07
9.7204488e-07
1.0281356e-06
1.0650058e-06
1.0743229e-06
1.0530548e-06
1.0168597e-06
9.7858456e-07
9.4667228e-07
9.201806e-07
9.0413554e-07
8.9399977e-07
8.8837275e-07
8.8647103e-07
8.874154e-07
8.906155e-07
8.9552284e-07
9.0302112e-07
9.0943251e-07
9.181282e-07
9.2759694e-07
9.359389e-07
9.4646809e-07
9.5073261e-07
9.5486948e-07
9.6467436e-07
9.9103514e-07
1.0189451e-06
1.0716814e-06
1.0898603e-06
8.7627899e-07
9.0866675e-07
9.1557751e-07
9.5625739e-07
1.0032546e-06
1.0666629e-06
1.1137867e-06
1.1473676e-06
1.1537424e-06
1.143104e-06
1.1092354e-06
1.0700185e-06
1.0319194e-06
9.9875681e-07
9.7011106e-07
9.4712853e-07
9.3124703e-07
9.2242909e-07
9.1842559e-07
9.2215335e-07
9.2605233e-07
9.3569335e-07
9.4666458e-07
9.6025508e-07
9.7347544e-07
9.8383688e-07
9.9584981e-07
1.019603e-06
1.0492864e-06
1.1070908e-06
1.1555049e-06
8.9535788e-07
9.9209954e-07
9.5369607e-07
9.3962149e-07
9.4346567e-07
9.7202948e-07
1.0245339e-06
1.0816095e-06
1.1379881e-06
1.1891106e-06
1.2340413e-06
1.2636175e-06
1.2771571e-06
1.2711315e-06
1.2507359e-06
1.2141216e-06
1.165343e-06
1.118878e-06
1.0740708e-06
1.0395225e-06
1.0116174e-06
9.9341611e-07
9.8880579e-07
9.9280407e-07
9.9960203e-07
1.0062649e-06
1.0142652e-06
1.0286122e-06
1.0525805e-06
1.0946347e-06
1.1350424e-06
8.832248e-07
9.5559411e-07
9.6528688e-07
9.7066382e-07
9.6414114e-07
9.615527e-07
9.6086291e-07
9.8189786e-07
1.018367e-06
1.0624243e-06
1.1207625e-06
1.1787689e-06
1.2328265e-06
1.2840545e-06
1.3279277e-06
1.3676974e-06
1.3924019e-06
1.4014409e-06
1.3966745e-06
1.374763e-06
1.3434431e-06
1.2969274e-06
1.2469806e-06
1.2059577e-06
1.1662774e-06
1.134127e-06
1.1077466e-06
1.1045521e-06
1.1146197e-06
1.1467688e-06
1.1629188e-06
8.7783439e-07
9.3398521e-07
9.4504048e-07
9.6404066e-07
9.6554314e-07
9.6737166e-07
9.6687296e-07
9.6780812e-07
9.7377504e-07
9.8337291e-07
9.9979621e-07
1.0293891e-06
1.0691868e-06
1.1183798e-06
1.1711978e-06
1.2295042e-06
1.2849183e-06
1.3331714e-06
1.376785e-06
1.414105e-06
1.4480522e-06
1.4766626e-06
1.5012471e-06
1.5187595e-06
1.5266354e-06
1.5230639e-06
1.4997789e-06
1.4800266e-06
1.4439425e-06
1.4407648e-06
1.3952003e-06
8.686986e-07
8.7843199e-07
8.8333325e-07
8.9537011e-07
9.0713366e-07
9.2169619e-07
9.3392821e-07
9.4251612e-07
9.4910075e-07
9.5535375e-07
9.6191459e-07
9.7027549e-07
9.8229685e-07
9.9872528e-07
1.0185809e-06
1.0449485e-06
1.0788366e-06
1.1216384e-06
1.1695762e-06
1.228264e-06
1.2844658e-06
1.3503593e-06
1.4082348e-06
1.4762519e-06
1.531924e-06
1.5966658e-06
1.642061e-06
1.7003261e-06
1.7430706e-06
1.801546e-06
1.8219859e-06
8.7397913e-07
9.1542556e-07
8.9378134e-07
8.8528786e-07
8.7944537e-07
8.8145613e-07
8.8539506e-07
8.9124639e-07
8.9764018e-07
9.0570137e-07
9.1383973e-07
9.2235507e-07
9.3189095e-07
9.4161513e-07
9.5244816e-07
9.6298895e-07
9.7580057e-07
9.9113803e-07
1.0108981e-06
1.0359825e-06
1.0653705e-06
1.1076001e-06
1.153894e-06
1.2251522e-06
1.2953685e-06
1.3874697e-06
1.4684646e-06
1.5515346e-06
1.6361301e-06
1.7107182e-06
1.7975199e-06
8.7667907e-07
8.9233901e-07
8.8425871e-07
8.7895808e-07
8.7260463e-07
8.6971327e-07
8.6796135e-07
8.6880819e-07
8.7050299e-07
8.7305148e-07
8.7763622e-07
8.8275367e-07
8.9068723e-07
8.9875156e-07
9.0871726e-07
9.1794324e-07
9.2749612e-07
9.3692757e-07
9.4831252e-07
9.6155169e-07
9.7810724e-07
9.9734658e-07
1.0195099e-06
1.046154e-06
1.0830879e-06
1.1184166e-06
1.1755282e-06
1.2197673e-06
1.3032925e-06
1.3570817e-06
1.4956811e-06
8.7640407e-07
8.9192859e-07
8.8138859e-07
8.7772744e-07
8.7317188e-07
8.690231e-07
8.6595131e-07
8.6338204e-07
8.6209687e-07
8.6074226e-07
8.615906e-07
8.626506e-07
8.6677897e-07
8.7088493e-07
8.7762336e-07
8.8363823e-07
8.9153743e-07
8.9824077e-07
9.0751158e-07
9.1730177e-07
9.3020479e-07
9.4586734e-07
9.6337301e-07
9.8195586e-07
1.005497e-06
1.0286889e-06
1.0668508e-06
1.0945413e-06
1.1455154e-06
1.1751806e-06
1.2372671e-06
8.7392619e-07
8.9740896e-07
8.9000309e-07
8.9281664e-07
8.9698977e-07
8.9734122e-07
8.9835525e-07
8.9697626e-07
8.9722752e-07
8.960798e-07
8.958761e-07
8.9622654e-07
8.9789227e-07
9.0037072e-07
9.0410189e-07
9.0765825e-07
9.1223276e-07
9.1708647e-07
9.2588959e-07
9.388013e-07
9.550001e-07
9.7513388e-07
9.9481929e-07
1.0067208e-06
9.8955668e-07
9.640373e-07
9.3680755e-07
9.7119229e-07
1.0003325e-06
1.0611864e-06
1.0783565e-06
8.699602e-07
9.4923233e-07
1.0044057e-06
1.0668778e-06
1.1140454e-06
1.1488268e-06
1.1793149e-06
1.2001403e-06
1.2250123e-06
1.2398136e-06
1.256847e-06
1.271716e-06
1.2866276e-06
1.3008236e-06
1.3128156e-06
1.3256302e-06
1.3389859e-06
1.3573952e-06
1.3817827e-06
1.3951693e-06
1.3839004e-06
1.3906407e-06
1.392175e-06
1.399335e-06
1.3885557e-06
1.346322e-06
1.3026728e-06
1.3015707e-06
1.2950482e-06
1.2880223e-06
1.2533422e-06
1.0530804e-06
1.8514667e-06
1.997665e-06
2.2308706e-06
2.2509007e-06
2.2621559e-06
2.2905211e-06
2.2917886e-06
2.3565707e-06
2.3529981e-06
2.4287875e-06
2.431209e-06
2.4960605e-06
2.534932e-06
2.5622455e-06
2.6405452e-06
2.6535765e-06
2.7112443e-06
2.747523e-06
2.8060036e-06
2.8005059e-06
2.8322565e-06
2.830457e-06
2.8345788e-06
2.8149013e-06
2.7711721e-06
2.723763e-06
2.6801649e-06
2.6662538e-06
2.6577802e-06
2.5941993e-06
1.0565437e-06
2.1689515e-06
2.7574875e-06
2.2520456e-06
1.9489519e-06
2.1201428e-06
1.8980358e-06
2.0050115e-06
1.9271777e-06
1.9380263e-06
2.0013428e-06
1.9114262e-06
2.0495915e-06
1.931619e-06
2.0747283e-06
2.0383808e-06
2.0836161e-06
2.0747554e-06
2.0805802e-06
2.0720555e-06
2.0994901e-06
2.1050036e-06
2.1395473e-06
2.1632086e-06
2.1979847e-06
2.2286141e-06
2.2495629e-06
2.2794194e-06
2.2933839e-06
2.3377938e-06
2.3414352e-06
2.2522843e-06
2.7221877e-06
1.5243609e-06
1.1695329e-06
1.285018e-06
1.4912572e-06
1.8468873e-06
1.9094214e-06
1.5521042e-06
1.2597604e-06
1.201575e-06
1.2234186e-06
1.1744427e-06
1.1061024e-06
1.0973542e-06
1.1595526e-06
1.1990133e-06
1.1798289e-06
1.1202735e-06
1.1180967e-06
1.1373626e-06
1.1464488e-06
1.1452868e-06
1.9688467e-06
2.6408122e-06
1.4165952e-06
1.1226026e-06
1.3430504e-06
1.4948994e-06
1.8936243e-06
2.0607561e-06
1.7805911e-06
1.4133058e-06
1.2804548e-06
1.3246684e-06
1.3013628e-06
1.2399346e-06
1.1792271e-06
1.2128421e-06
1.2894928e-06
1.2920801e-06
1.2526394e-06
1.2055228e-06
1.2160311e-06
1.2299832e-06
1.2161898e-06
1.7844809e-06
2.3177938e-06
1.4036998e-06
1.071823e-06
1.2902275e-06
1.543659e-06
1.9390696e-06
2.212534e-06
2.0657776e-06
1.6417126e-06
1.3910731e-06
1.4197829e-06
1.4077606e-06
1.3713371e-06
1.2950212e-06
1.2893061e-06
1.381278e-06
1.3932323e-06
1.3769302e-06
1.3141652e-06
1.3193303e-06
1.3342998e-06
1.3381134e-06
1.4885618e-06
2.0798186e-06
1.3781697e-06
1.1686312e-06
1.310075e-06
1.5924812e-06
2.0175786e-06
2.3768759e-06
2.2981218e-06
1.9337975e-06
1.5539571e-06
1.541509e-06
1.5474941e-06
1.5227113e-06
1.4505766e-06
1.4024369e-06
1.4643404e-06
1.5246316e-06
1.5249309e-06
1.4639164e-06
1.418124e-06
1.43041e-06
1.4288487e-06
1.3019471e-06
1.8235449e-06
1.298711e-06
1.2191366e-06
1.4123653e-06
1.633766e-06
2.0752302e-06
2.620723e-06
2.5849603e-06
2.2898641e-06
1.8178954e-06
1.6913804e-06
1.7137623e-06
1.6837499e-06
1.6355627e-06
1.5615931e-06
1.5735146e-06
1.6492847e-06
1.6606533e-06
1.6457487e-06
1.566266e-06
1.5673204e-06
1.5642161e-06
1.0666336e-06
1.6857442e-06
1.3240364e-06
1.3277322e-06
1.5179886e-06
1.6619191e-06
2.0364789e-06
2.8771965e-06
2.8902726e-06
2.6565285e-06
2.1733528e-06
1.8818574e-06
1.9234723e-06
1.9022603e-06
1.8340504e-06
1.7600175e-06
1.7191961e-06
1.8178089e-06
1.829014e-06
1.8168381e-06
1.7492183e-06
1.7020252e-06
1.7063673e-06
9.4820303e-07
1.4338666e-06
1.2970817e-06
1.4019447e-06
1.617992e-06
1.7193538e-06
2.0037431e-06
3.0715015e-06
3.2680239e-06
3.0900371e-06
2.6061206e-06
2.165199e-06
2.1660775e-06
2.1583666e-06
2.07555e-06
2.0044256e-06
1.9287673e-06
1.9728506e-06
2.0493187e-06
2.0289761e-06
1.9723347e-06
1.887668e-06
1.8874178e-06
8.2428579e-07
1.2679843e-06
1.3280308e-06
1.5465869e-06
1.7326276e-06
1.8064132e-06
1.9973168e-06
3.063821e-06
3.6673735e-06
3.5571023e-06
3.1260504e-06
2.5705048e-06
2.446699e-06
2.4583988e-06
2.3835955e-06
2.288259e-06
2.1870569e-06
2.1766215e-06
2.2778204e-06
2.2811033e-06
2.2273912e-06
2.1208864e-06
2.0711201e-06
7.5123609e-07
1.1125414e-06
1.4032757e-06
1.7532429e-06
1.9960605e-06
1.9509168e-06
2.1072106e-06
3.1518488e-06
4.0767505e-06
4.0755282e-06
3.7711271e-06
3.1236272e-06
2.803537e-06
2.8372829e-06
2.7881445e-06
2.6278482e-06
2.5010436e-06
2.4414814e-06
2.5297098e-06
2.5852068e-06
2.5275014e-06
2.408446e-06
2.3054085e-06
7.2261579e-07
1.0324849e-06
1.5307925e-06
2.0392614e-06
2.3492198e-06
2.1983917e-06
2.3338111e-06
3.4448321e-06
4.4759709e-06
4.7091152e-06
4.523983e-06
3.8077034e-06
3.2757935e-06
3.3503875e-06
3.308835e-06
3.1080577e-06
2.9096587e-06
2.7923468e-06
2.8250617e-06
2.9380945e-06
2.9190004e-06
2.7779049e-06
2.6053708e-06
7.1834259e-07
1.0223398e-06
1.7238075e-06
2.4171501e-06
2.8585615e-06
2.651736e-06
2.7232383e-06
3.9740641e-06
5.2204171e-06
5.7275783e-06
5.4414255e-06
4.6594208e-06
3.8678931e-06
3.9749356e-06
3.9838482e-06
3.809939e-06
3.4523145e-06
3.260309e-06
3.2337008e-06
3.3912919e-06
3.4073091e-06
3.2654173e-06
3.007111e-06
7.2826708e-07
1.0471094e-06
1.9983473e-06
2.9307946e-06
3.577656e-06
3.4593587e-06
3.4352426e-06
4.9265695e-06
6.6262486e-06
7.431288e-06
6.8091317e-06
5.8639147e-06
4.6602496e-06
4.6981419e-06
4.9044167e-06
4.7529867e-06
4.2120451e-06
3.8714131e-06
3.7359851e-06
3.9040239e-06
4.0194151e-06
3.9238983e-06
3.5750143e-06
7.9231986e-07
1.1852007e-06
2.3700471e-06
3.5385894e-06
4.4990588e-06
4.7266407e-06
4.8917741e-06
6.8151345e-06
8.8784948e-06
9.9555006e-06
9.0394826e-06
7.7016579e-06
5.9826668e-06
5.7308358e-06
6.2261819e-06
6.1054678e-06
5.3763568e-06
4.7347337e-06
4.4483836e-06
4.5516259e-06
4.8301999e-06
4.751751e-06
4.2866291e-06
8.5079389e-07
1.3143741e-06
2.7285516e-06
4.1820214e-06
5.7109283e-06
6.5027366e-06
7.274676e-06
9.853533e-06
1.2331353e-05
1.3744983e-05
1.2168985e-05
1.0352396e-05
8.2087567e-06
7.6466304e-06
8.3764798e-06
8.2502261e-06
7.151978e-06
5.9958804e-06
5.5047698e-06
5.4701129e-06
5.9332604e-06
5.8719495e-06
5.3586514e-06
9.68408e-07
1.5458776e-06
3.2164269e-06
4.9088077e-06
6.9169132e-06
8.4713133e-06
1.0700217e-05
1.3874969e-05
1.681149e-05
1.8680226e-05
1.6458056e-05
1.4128685e-05
1.1828872e-05
1.1208331e-05
1.204407e-05
1.1740217e-05
9.8325788e-06
7.8758523e-06
7.0793907e-06
6.8409308e-06
7.5281108e-06
7.4898673e-06
6.8775618e-06
1.064144e-06
1.7339472e-06
3.6601442e-06
5.6422575e-06
7.9970661e-06
1.0748023e-05
1.473149e-05
1.8673058e-05
2.1867671e-05
2.3660555e-05
2.1286409e-05
1.8989219e-05
1.7234799e-05
1.7307164e-05
1.8094199e-05
1.6953528e-05
1.319796e-05
1.0310226e-05
9.3392351e-06
9.0187634e-06
1.002173e-05
9.9209397e-06
8.876699e-06
1.1746838e-06
1.9774653e-06
4.0878668e-06
6.3257411e-06
9.0601016e-06
1.3145615e-05
1.9104375e-05
2.3955612e-05
2.7083526e-05
2.8507606e-05
2.6344931e-05
2.4914011e-05
2.4626598e-05
2.6094239e-05
2.7267879e-05
2.4497537e-05
1.7631402e-05
1.3608948e-05
1.2705643e-05
1.2605144e-05
1.4139664e-05
1.3635938e-05
1.1293661e-05
1.3499844e-06
2.2518381e-06
4.531236e-06
7.1106989e-06
1.0278521e-05
1.560188e-05
2.4316932e-05
3.0422733e-05
3.3408433e-05
3.3853134e-05
3.1778882e-05
3.1354242e-05
3.3433691e-05
3.6652704e-05
3.8511213e-05
3.4452349e-05
2.3917954e-05
1.8613103e-05
1.812402e-05
1.9237051e-05
2.1537156e-05
1.9591767e-05
1.4433988e-05
1.4939727e-06
2.4113701e-06
4.7944254e-06
7.6257809e-06
1.1414359e-05
1.8130289e-05
2.9843451e-05
3.7599062e-05
4.0641788e-05
3.9948557e-05
3.8268956e-05
3.9124575e-05
4.356105e-05
4.8385192e-05
5.0644638e-05
4.5693918e-05
3.1418385e-05
2.4981191e-05
2.5216407e-05
2.8893088e-05
3.119195e-05
2.6668346e-05
1.8117539e-05
1.5648098e-06
2.5611892e-06
5.0418869e-06
8.0071375e-06
1.2702116e-05
2.0953139e-05
3.5340613e-05
4.5305186e-05
4.903691e-05
4.776353e-05
4.6760483e-05
4.8976546e-05
5.5507958e-05
6.2248414e-05
6.4419646e-05
5.7352015e-05
4.0581723e-05
3.4622198e-05
3.737079e-05
4.3415099e-05
4.3965803e-05
3.5059291e-05
2.2586224e-05
1.4943467e-06
2.6598422e-06
5.1599079e-06
8.1544816e-06
1.3665278e-05
2.3379294e-05
4.069131e-05
5.3000799e-05
5.8149674e-05
5.741853e-05
5.7257233e-05
6.0708769e-05
6.9827263e-05
7.9173521e-05
8.0745298e-05
6.9873155e-05
5.2910132e-05
4.8931031e-05
5.4584e-05
6.117649e-05
5.8111821e-05
4.2051875e-05
2.7591785e-05
1.4701309e-06
2.8965633e-06
5.2642815e-06
8.0910884e-06
1.3913358e-05
2.4768684e-05
4.4570443e-05
6.042714e-05
6.8281382e-05
6.9396674e-05
7.016461e-05
7.4608569e-05
8.7202835e-05
9.952394e-05
0.00010020481
8.4599108e-05
6.905199e-05
6.7959551e-05
7.4745007e-05
8.0377139e-05
7.0518505e-05
4.8260143e-05
3.5138871e-05
1.5028601e-06
3.6925419e-06
5.8508994e-06
8.3279981e-06
1.3216283e-05
2.4122283e-05
4.6043947e-05
6.6523753e-05
7.9146439e-05
8.3087918e-05
8.6053093e-05
9.1291682e-05
0.00010731304
0.0001227667
0.00012315287
0.00010308964
8.912225e-05
8.9343648e-05
9.5833228e-05
9.9083309e-05
7.9741956e-05
5.4921476e-05
4.5611821e-05
2.2740759e-06
7.5889379e-06
9.0001339e-06
1.0467387e-05
1.367871e-05
2.2522589e-05
4.2402306e-05
7.0781646e-05
9.1650463e-05
9.7795741e-05
0.00010270334
0.00010762244
0.00012881492
0.00014901055
0.00015135702
0.0001250927
0.00011439678
0.00011299421
0.00012003001
0.00011598959
8.6768449e-05
6.5183144e-05
5.8777915e-05
3.7341958e-06
1.5303831e-05
1.7352988e-05
1.7012195e-05
1.7969419e-05
2.2576338e-05
3.9762951e-05
7.0844051e-05
9.5603078e-05
0.00010990746
0.00011855291
0.00012668097
0.00015230403
0.00017935025
0.00017618598
0.000150237
0.00013782137
0.00013800471
0.00014338313
0.00012491275
9.2438811e-05
7.5944318e-05
7.0286229e-05
5.050998e-06
2.5887851e-05
2.786436e-05
2.7932147e-05
2.5710261e-05
2.7803361e-05
3.8544867e-05
7.0532409e-05
9.8723589e-05
0.00012017289
0.00013507267
0.00014850774
0.00018143712
0.00020965703
0.00019704765
0.00017581895
0.00016352026
0.00016518424
0.00015904293
0.00012617034
9.7563023e-05
8.4908271e-05
7.8515117e-05
6.7086836e-06
3.8310689e-05
4.3287285e-05
4.3432168e-05
4.1267696e-05
3.6760206e-05
4.3630125e-05
6.682246e-05
0.00010278771
0.00013608929
0.0001540213
0.00017447425
0.00021537794
0.00022916925
0.0002192169
0.00020156518
0.00019035465
0.00018542091
0.00016095297
0.0001256831
0.00010304437
9.1662006e-05
8.4170337e-05
8.6265757e-06
5.1723717e-05
6.2395211e-05
6.5415266e-05
6.5583105e-05
6.4544646e-05
5.9669544e-05
7.6442387e-05
0.00010726631
0.00014998484
0.00017124623
0.00020292022
0.00024448183
0.00024922777
0.00024432767
0.00022239113
0.00020598657
0.00018793256
0.00015678588
0.00012455318
0.00010550561
9.6069537e-05
8.610584e-05
7.3345239e-06
6.2042455e-05
8.1769947e-05
8.8602509e-05
9.1287366e-05
9.1611852e-05
8.8960994e-05
9.7380001e-05
0.00012558396
0.00016273972
0.00019184497
0.00023513444
0.0002645051
0.00026908725
0.00026202673
0.00023144681
0.00020814717
0.00018322058
0.000150805
0.00012163758
0.00010566005
9.6543612e-05
8.652153e-05
7.3762236e-06
8.1234436e-05
0.00010658615
0.00010783537
0.00010657623
0.0001126353
0.00011540123
0.00012183151
0.00014809671
0.00017828091
0.00021528684
0.00026408358
0.00028202185
0.00028405188
0.00026403774
0.00022917409
0.00020245381
0.00017642078
0.00014272291
0.00011767493
0.00010442205
9.5339752e-05
8.6957278e-05
8.0161109e-06
8.5700726e-05
0.00011499268
0.00011916386
0.00012178878
0.00012963103
0.00013512389
0.00014379029
0.00017172483
0.00020004768
0.00024371725
0.00028323649
0.00029355968
0.00028745014
0.00025576765
0.00022069726
0.0001954877
0.00016798417
0.00013590049
0.00011396483
0.00010288405
9.4685585e-05
8.6897829e-05
7.9147682e-06
9.768353e-05
0.00012628129
0.00012694162
0.00013351757
0.00014370411
0.00015234938
0.00016676964
0.00019316982
0.00022441425
0.00027206866
0.00029592267
0.00030014085
0.00028139759
0.00024322986
0.00021219375
0.00018864293
0.00015907938
0.00012960856
0.00011194815
0.00010219089
9.4369052e-05
8.9795905e-05
8.6721803e-06
0.00010237156
0.00012800101
0.00013347937
0.00014485607
0.00015337361
0.00016535283
0.00018876867
0.00021679745
0.00025675064
0.00029043232
0.0003009778
0.00029754378
0.00026591935
0.00023068669
0.00020522988
0.00018018066
0.00015080067
0.00012458519
0.00011022781
0.00010261637
9.8079625e-05
9.988963e-05
8.9139442e-06
0.00010953696
0.0001319047
0.00013822779
0.00015001912
0.00015987093
0.0001807949
0.00020936697
0.00024169069
0.00028081385
0.00030286487
0.00030931461
0.00029316766
0.00025619057
0.0002246735
0.00020074867
0.00017578293
0.00014639858
0.00012404657
0.00011228771
0.00010782561
0.0001106901
0.00011871868
9.5677434e-06
0.00011470547
0.00013525266
0.00014452355
0.00015654353
0.00017308144
0.00020179366
0.00023341703
0.00026953612
0.00029486484
0.00030602221
0.00029831946
0.00026946363
0.00023596086
0.00021190137
0.00019053569
0.00016422713
0.00013767364
0.0001217397
0.0001168772
0.00012043688
0.00013212902
0.00014922688
9.52658e-06
0.00011510091
0.00013874644
0.00015098971
0.00016235293
0.00018016307
0.00020997264
0.00024091971
0.00027535907
0.00029713474
0.00030715183
0.00029972261
0.00027322377
0.00024294292
0.00022114406
0.0002009
0.00017651716
0.00014952517
0.00013211812
0.00012568414
0.00012839457
0.00013915551
0.0001572021
9.2730707e-06
0.00011309111
0.00013877968
0.00015330269
0.00016566416
0.00018434071
0.00021272705
0.00024310141
0.00027482084
0.00029513818
0.00030581607
0.0003009234
0.00027912363
0.00025236436
0.00023191097
0.00021305129
0.00019123171
0.00016556229
0.00014555809
0.00013604382
0.00013559713
0.00014539469
0.0001658699
9.0177063e-06
0.00011179048
0.00013957896
0.00015604499
0.00017053779
0.0001890711
0.00021502577
0.00024386953
0.00027268649
0.0002919172
0.0003031774
0.00030057245
0.00028295372
0.00025954046
0.00024099819
0.0002241654
0.00020518899
0.00018232732
0.00016191986
0.00015057051
0.00014801418
0.00015606638
0.0001759021
8.5351799e-06
0.00010750699
0.00013977968
0.00015830238
0.00017510766
0.0001936627
0.00021667652
0.00024307091
0.00026909605
0.0002876412
0.0002992798
0.00029891783
0.00028540274
0.00026558838
0.00024910034
0.00023438624
0.00021813315
0.0001989408
0.00018007804
0.00016889968
0.00016561178
0.00017194006
0.0001879222
8.2258477e-06
0.00010391772
0.0001406875
0.00016130044
0.00017955243
0.00019705833
0.00021697484
0.00024077467
0.00026441871
0.0002824722
0.00029433179
0.00029612687
0.00028655939
0.00027059128
0.00025640263
0.00024389631
0.00023027573
0.00021533631
0.0002004719
0.00019094044
0.00018852711
0.00019348501
0.00020405212
7.8155233e-06
9.9089685e-05
0.00014118856
0.00016404618
0.0001832918
0.00019908174
0.00021656868
0.00023768418
0.00025904385
0.00027660046
0.00028863458
0.00029219316
0.00028626672
0.00027440505
0.00026294318
0.00025270572
0.00024177524
0.00023109988
0.00022206196
0.00021599584
0.00021555951
0.00021978426
0.00022556021
7.4738123e-06
9.3690687e-05
0.0001395926
0.00016584138
0.00018627395
0.00020100249
0.00021621932
0.00023457907
0.00025360765
0.0002703064
0.00028249039
0.00028741969
0.00028469231
0.00027690221
0.00026864991
0.00026083734
0.00025293289
0.00024676715
0.00024343633
0.00024278189
0.00024446909
0.00024970767
0.00025173877
7.1527956e-06
8.6745157e-05
0.00013474092
0.00016518062
0.000187706
0.00020262365
0.00021635632
0.00023206401
0.00024879758
0.00026416536
0.00027620397
0.00028230568
0.00028212187
0.00027805209
0.00027342329
0.00026825657
0.00026381385
0.00026223265
0.00026439578
0.00026926894
0.0002741638
0.00028122659
0.00027865814
6.9168223e-06
7.9340738e-05
0.0001268733
0.00016082224
0.0001859025
0.00020265683
0.0002161315
0.00023002016
0.00024473358
0.00025872718
0.00027020644
0.00027723813
0.00027898875
0.00027804314
0.00027692177
0.0002749049
0.00027438349
0.00027756716
0.00028459671
0.00029356126
0.00030239318
0.00031107992
0.00030463448
6.629671e-06
7.2929862e-05
0.00011890999
0.00015445344
0.00018133096
0.00020058362
0.00021473511
0.00022804594
0.00024142271
0.0002541812
0.00026497331
0.0002725178
0.00027588474
0.00027743018
0.00027911213
0.0002806507
0.00028427756
0.00029191169
0.00030280628
0.0003151393
0.00032652419
0.00033615098
0.00032839758
6.387906e-06
6.4562115e-05
0.00010941684
0.00014649122
0.00017435979
0.00019578898
0.00021148121
0.00022533086
0.00023817586
0.00025023028
0.00026055001
0.00026830668
0.00027296917
0.00027642304
0.00028024122
0.00028518657
0.00029302382
0.00030419399
0.00031813351
0.00033305511
0.00034549907
0.00035596567
0.00034999523
6.1565135e-06
5.5922671e-05
9.9735696e-05
0.00013788421
0.00016645483
0.00018892072
0.00020649025
0.00022116963
0.000234265
0.0002462142
0.00025646559
0.00026445789
0.00027019535
0.00027517307
0.0002807087
0.00028848688
0.00029963217
0.00031372219
0.00032992196
0.00034599145
0.00035926813
0.00037066451
0.00036814639
5.9279054e-06
4.8781937e-05
9.098019e-05
0.00012987748
0.00015959516
0.0001821659
0.00020083965
0.00021604785
0.00022946991
0.00024155305
0.00025215847
0.00026066423
0.00026738064
0.00027361365
0.00028054282
0.00029033758
0.00030379856
0.000320102
0.00033763561
0.00035447366
0.00036899503
0.00038182695
0.00038315627
5.7208696e-06
4.3618435e-05
8.4716146e-05
0.00012449557
0.00015436707
0.00017639869
0.00019521041
0.00021136957
0.00022477865
0.00023682289
0.00024758908
0.00025673806
0.00026431154
0.00027154492
0.00027969968
0.00029074328
0.00030559136
0.00032315055
0.00034167998
0.00035959347
0.00037546416
0.00038994062
0.00039464612
5.5378318e-06
3.9973346e-05
8.0889408e-05
0.00012182399
0.00015165516
0.00017289688
0.00019102045
0.00020714593
0.00022118952
0.00023314735
0.00024378089
0.00025315123
0.00026135193
0.00026914996
0.00027808411
0.00028986206
0.0003051035
0.00032296705
0.00034223429
0.00036140113
0.00037877889
0.00039493904
0.00040301636
5.3794066e-06
3.6826721e-05
7.8506432e-05
0.00012078592
0.00015131405
0.00017207938
0.00018939943
0.00020512865
0.00021883849
0.0002309511
0.0002415051
0.00025074068
0.00025905605
0.00026705715
0.00027605115
0.00028776555
0.0003026513
0.00032011578
0.00033937919
0.00035949659
0.00037861865
0.000396695
0.00040837022
5.1855978e-06
3.4246655e-05
7.6534682e-05
0.00012030972
0.0001519413
0.00017332728
0.00019041429
0.00020553219
0.00021853833
0.0002302239
0.00024084357
0.00024995755
0.00025800982
0.00026575385
0.00027427601
0.00028504624
0.00029888112
0.00031533203
0.00033381207
0.00035379611
0.00037405383
0.00039445631
0.00040989192
5.082892e-06
3.223915e-05
7.4645234e-05
0.00011953807
0.00015218814
0.00017498822
0.00019235342
0.00020740496
0.00022027932
0.00023154144
0.00024198064
0.00025114447
0.00025898924
0.00026626522
0.0002739265
0.00028319145
0.00029529292
0.000310127
0.00032717544
0.00034609638
0.00036592527
0.00038728775
0.0004066432
4.959575e-06
3.0572733e-05
7.2551508e-05
0.00011833301
0.00015192217
0.00017642462
0.00019447754
0.00020991339
0.00022341189
0.00023502974
0.00024537879
0.0002547283
0.00026263051
0.00026962723
0.0002765069
0.00028418602
0.00029395082
0.00030651152
0.0003215219
0.00033864445
0.00035698297
0.00037769574
0.00039855337
4.8847147e-06
2.9164397e-05
7.0378462e-05
0.00011682241
0.00015140926
0.00017730383
0.00019655092
0.00021251933
0.00022689671
0.00023958399
0.00025038125
0.00025981385
0.00026796594
0.0002748301
0.00028104907
0.00028734424
0.00029455163
0.00030349942
0.00031514622
0.00032947388
0.00034574027
0.00036519907
0.00038467995
4.8123248e-06
2.8015185e-05
6.8493629e-05
0.00011530583
0.00015090378
0.00017763475
0.00019794918
0.00021455661
0.00022942605
0.0002430667
0.00025464488
0.0002640418
0.00027166485
0.00027801179
0.00028314149
0.00028734494
0.00029090917
0.00029509962
0.00030222754
0.00031281288
0.00032633542
0.00034341152
0.00035768525
4.7503288e-06
2.7060585e-05
6.6773833e-05
0.00011367147
0.00015032584
0.00017792809
0.00019890281
0.00021587138
0.00023050268
0.0002437762
0.00025549496
0.00026431685
0.00027066537
0.00027511062
0.00027681884
0.00027660765
0.00027584464
0.00027564714
0.00027759591
0.00028222639
0.00029003104
0.00030154884
0.00031385333
4.6948676e-06
2.6462741e-05
6.5438984e-05
0.0001128944
0.00015101793
0.00017940484
0.00020030385
0.00021659516
0.00023001795
0.00024138324
0.00025126144
0.00025879666
0.00026292472
0.00026391537
0.00026097651
0.00025619704
0.00025070669
0.00024573299
0.00024337095
0.0002439782
0.0002480418
0.00025571267
0.00026672766
4.6405956e-06
2.6664077e-05
6.5613669e-05
0.00011346603
0.00015255592
0.00018144209
0.0002019204
0.00021667653
0.00022794038
0.00023656696
0.00024286224
0.0002472825
0.00024826616
0.00024520719
0.00023784657
0.0002284613
0.00021962474
0.00021358579
0.00021123216
0.00021144886
0.00021427154
0.00021878308
0.00022607619
4.580308e-06
2.8433616e-05
6.7982993e-05
0.00011542413
0.00015443136
0.00018296273
0.00020282548
0.0002158572
0.00022433756
0.00022934825
0.000231296
0.00023059394
0.0002274676
0.00021988415
0.00020879275
0.00019896204
0.00019206514
0.00018762668
0.00018594907
0.00018610143
0.00018821066
0.00019083562
0.00019476305
4.5213331e-06
3.2028102e-05
7.1995182e-05