/*--------------------------------*- C++ -*----------------------------------*\
| =========                 |                                                 |
| \\      /  F ield         | OpenFOAM: The Open Source CFD Toolbox           |
|  \\    /   O peration     | Version:  2406                                  |
|   \\  /    A nd           | Website:  www.openfoam.com                      |
|    \\/     M anipulation  |                                                 |
\*---------------------------------------------------------------------------*/
FoamFile
{
    version     2.0;
    format      ascii;
    arch        "LSB;label=32;scalar=64";
    class       volScalarField;
    location    "120";
    object      omega;
}
// * * * * * * * * * * * * * * * * * * * * * * * * * * * * * * * * * * * * * //

dimensions      [0 0 -1 0 0 0 0];

internalField   nonuniform List<scalar> 
20580
(
3.5713755
2.658056
2.1372694
1.8029481
1.5655717
1.3873997
1.2510752
1.1426822
1.0557478
0.98448386
0.92442577
0.8745943
0.8309546
0.79475347
0.76269457
0.73527077
0.71240062
0.69373206
0.67721743
0.66310055
0.65160191
0.64037316
0.63342763
0.63336635
0.63913511
0.64397319
0.64257693
0.6397251
0.63940466
0.64957778
0.66698744
3.5696884
2.6490779
2.134159
1.8030253
1.5686933
1.3923807
1.2562663
1.1483032
1.0610264
0.9895088
0.92977337
0.87934565
0.83585884
0.79936632
0.76620964
0.73823574
0.7147462
0.69759506
0.68003587
0.66792942
0.65788644
0.64821152
0.63612791
0.63830817
0.64932788
0.66418322
0.67176748
0.68115436
0.6898179
0.70226335
0.69214443
3.5693881
2.6364167
2.1249739
1.7996633
1.5677093
1.3941588
1.2601118
1.1524578
1.0653175
0.99385812
0.93386376
0.88370756
0.83924074
0.80299381
0.76947617
0.74093667
0.71709954
0.699195
0.68022489
0.66752172
0.65679318
0.6484983
0.63341211
0.63406679
0.64177248
0.65770316
0.66741637
0.67373626
0.68913037
0.7094244
0.73672989
3.5729762
2.6266906
2.1088509
1.7879225
1.5633867
1.3935513
1.2609518
1.1556446
1.0689486
0.9985869
0.93816899
0.88775451
0.84317461
0.80585609
0.77329759
0.74321407
0.71924134
0.70102344
0.68157626
0.66852286
0.65661693
0.64870258
0.63466455
0.63137892
0.63581976
0.64908041
0.66929357
0.67479039
0.68195286
0.69992529
0.73117594
3.5804609
2.6284882
2.1059592
1.7770028
1.5535966
1.3891726
1.2589322
1.1559665
1.0716328
1.0025626
0.94361974
0.89253094
0.84989656
0.81030633
0.77873961
0.74770697
0.72297266
0.70280466
0.6837333
0.67020507
0.65801268
0.64928204
0.63867548
0.63330933
0.63592056
0.64750816
0.66962858
0.68933862
0.70168254
0.72392447
0.73855318
3.5886766
2.6367103
2.1058015
1.7751486
1.5466926
1.3801014
1.2530326
1.1532747
1.0714408
1.0027308
0.94679235
0.89619205
0.8556429
0.81681435
0.78508816
0.75387406
0.73044352
0.70664858
0.68912442
0.67299517
0.66222543
0.65028919
0.64194491
0.63329742
0.63392126
0.64270708
0.66301467
0.69441894
0.71207854
0.75434513
0.76381616
3.594809
2.6531325
2.1081983
1.7741912
1.5407221
1.3694763
1.2407038
1.1427038
1.0659653
0.99993572
0.94556162
0.8969561
0.85676027
0.82037251
0.78898658
0.75868739
0.73756974
0.71186842
0.69604332
0.679075
0.66739391
0.65330381
0.64406779
0.6334893
0.6275793
0.62894781
0.64134259
0.67828232
0.70540996
0.7464878
0.77426035
3.7312384
2.7392852
2.1427106
1.7840442
1.5433096
1.3680535
1.235662
1.1325414
1.0520632
0.98732417
0.93470092
0.89009684
0.85195506
0.81755228
0.78743291
0.7588272
0.73784067
0.71422753
0.69847442
0.68357078
0.67095924
0.65624762
0.64881892
0.63934553
0.62867746
0.62400617
0.62816213
0.64307772
0.66676333
0.69407498
0.7561539
3.9923525
3.2495301
2.3663061
1.8705313
1.5842904
1.3886991
1.2456933
1.1364469
1.051505
0.98144525
0.9228524
0.87447444
0.83391937
0.79962899
0.77201334
0.74677485
0.72830119
0.70840717
0.69488369
0.68243277
0.66967303
0.65821202
0.65298121
0.65089691
0.64323907
0.63643799
0.64007027
0.65176074
0.67456796
0.69266463
0.72321983
3.7721539
3.1666153
2.5394502
2.0892189
1.7559583
1.4987801
1.3124739
1.1768726
1.0753678
0.99561077
0.93049092
0.87751041
0.83271659
0.79438856
0.76077003
0.73335365
0.70862106
0.6889709
0.67571272
0.66635215
0.65731104
0.65316993
0.65299229
0.65319095
0.65554037
0.65972327
0.67148624
0.68900651
0.70767731
0.73470949
0.74177116
3.6330044
2.9299824
2.4912103
2.1456018
1.8867424
1.6811003
1.5009
1.3338172
1.1969637
1.0837644
0.9937027
0.92403135
0.86617314
0.81867531
0.77734045
0.74319863
0.7131452
0.68984937
0.67082763
0.65703774
0.64362201
0.63786558
0.6408638
0.6426779
0.64758328
0.65642067
0.66991285
0.69676296
0.71463303
0.75830675
0.7733168
3.831823
2.9380909
2.3972915
2.0633898
1.8267338
1.6607665
1.5184299
1.4047108
1.3062288
1.2259735
1.1530357
1.085454
1.0150819
0.94919838
0.88728734
0.82491335
0.77155433
0.72946933
0.69750719
0.67378397
0.65290578
0.64046648
0.63538729
0.63208441
0.63046166
0.63466019
0.64307786
0.65961672
0.68780574
0.73341652
0.79136821
3.8349468
3.0446219
2.4350677
2.0532428
1.7838925
1.5893548
1.4447652
1.3408723
1.2554312
1.1967014
1.1457546
1.0987924
1.0572826
1.0199145
0.98305109
0.94703133
0.91072134
0.86754784
0.82297597
0.78257069
0.73916177
0.69841914
0.6721401
0.65431271
0.64294423
0.63500702
0.63529773
0.63851326
0.64975575
0.66819676
0.71946844
3.662794
2.8910924
2.4020604
2.0599603
1.8063109
1.6057818
1.4472409
1.3223292
1.2212521
1.1394006
1.0776204
1.0277556
0.99059137
0.95751545
0.93017582
0.91369262
0.89494528
0.87602514
0.86080751
0.84674501
0.8298507
0.81720663
0.80147539
0.77648561
0.75050241
0.72545985
0.69690412
0.69062462
0.69035684
0.70170581
0.72029171
3.7848245
2.8277546
2.2892279
1.9806049
1.7614046
1.5862753
1.4430787
1.324248
1.2277424
1.1465302
1.0782036
1.0214098
0.97025431
0.92626001
0.88898189
0.85271889
0.82558481
0.8126001
0.80054253
0.7955744
0.79617619
0.79910723
0.80316577
0.80952251
0.81263404
0.82044728
0.82569542
0.83083616
0.82925112
0.83322093
0.82716702
3.6534838
2.8253046
2.2702406
1.9244154
1.6772177
1.5025426
1.3744625
1.2735884
1.1933834
1.1250612
1.0665706
1.014298
0.9671065
0.92550441
0.8859385
0.85092107
0.82032201
0.79093306
0.77151793
0.75371503
0.73947086
0.74013173
0.74447521
0.7595856
0.78096054
0.80308301
0.81622537
0.83626362
0.85933619
0.88334515
0.90742023
3.7767571
2.8376211
2.2773755
1.9154051
1.6623635
1.4768532
1.3351966
1.2275428
1.1407177
1.0721442
1.0163553
0.96871518
0.93038085
0.89484639
0.86365808
0.83498113
0.80797854
0.78140462
0.76076095
0.74125764
0.72948689
0.71793584
0.70957588
0.7110767
0.71964619
0.73059897
0.74390976
0.75827952
0.79331736
0.82136881
0.86871527
3.6254372
2.7717863
2.2521923
1.901296
1.6527437
1.4689752
1.3267689
1.2152173
1.1248882
1.051538
0.9900484
0.93758126
0.89542103
0.85716495
0.82547154
0.79762355
0.77358377
0.75191907
0.73223184
0.71653042
0.70628249
0.69756085
0.68795021
0.68320716
0.68691424
0.69026676
0.6912675
0.69337207
0.7026122
0.71836426
0.74110185
3.6234193
2.8120998
2.271987
1.919762
1.6696358
1.486154
1.3429865
1.2297076
1.1373722
1.0622483
0.99909208
0.9443576
0.89923265
0.85850371
0.82365612
0.79253883
0.76662356
0.74208579
0.72224839
0.70616098
0.6953406
0.68802999
0.68066828
0.67817398
0.68296496
0.68988122
0.69669348
0.70498175
0.71717642
0.73290686
0.74689205
3.6840329
2.9064022
2.3485909
1.987827
1.745046
1.5688533
1.4219725
1.3048753
1.210101
1.1338295
1.0685532
1.0111491
0.96104828
0.91444856
0.87321171
0.83808542
0.80858796
0.78183602
0.76066041
0.7438075
0.73406903
0.72849464
0.72446761
0.72506115
0.73272999
0.74790622
0.7638117
0.7829087
0.7985921
0.82615117
0.83192509
3.8359217
3.1698779
2.5346221
2.160334
1.9411828
1.7820716
1.6302454
1.5169529
1.4287971
1.3580994
1.2990324
1.2483504
1.2046001
1.1605175
1.1204263
1.0913121
1.0692689
1.0483876
1.031401
1.0176511
1.0133746
1.0130679
1.0073023
1.0037702
1.0116401
1.0276869
1.0415994
1.0573805
1.0672844
1.0914575
1.0799363
4.363664
5.2608834
4.1857926
3.6520364
3.477742
3.3036792
3.1003154
2.9666851
2.8737179
2.7913731
2.7131389
2.6475316
2.5901453
2.5407458
2.4971929
2.4709896
2.4447017
2.4267204
2.4068523
2.3863658
2.3877655
2.389218
2.3656467
2.3351382
2.3214237
2.327652
2.3156106
2.296025
2.2656757
2.25157
2.19418
13.057008
14.320077
12.523777
11.637558
10.885806
10.466838
9.9348873
9.5532318
9.1724878
8.8836378
8.5918771
8.332487
8.1048502
7.88387
7.6654303
7.4801391
7.3128976
7.1692456
7.0251574
6.86673
6.7675913
6.647215
6.5248378
6.3707471
6.2922368
6.2118392
6.1380303
5.9716595
5.8623845
5.7758925
5.7538389
5.9774121
2.3817357
1.1633317
0.87899963
0.77633988
0.75313865
0.86324634
0.9353384
0.8812694
0.79357156
0.76034213
0.8252957
0.81712073
0.78874433
0.75466045
0.779103
0.81678028
0.81599012
0.78655317
0.75966257
0.76026581
0.74235499
0.70806859
6.52687
2.5266062
1.2528345
0.94144671
0.81302453
0.76951769
0.86677934
0.98747489
0.96326137
0.86770534
0.79831485
0.86466278
0.86749836
0.85400137
0.80762101
0.81749352
0.85560296
0.85851793
0.84345318
0.8014087
0.80623682
0.80537174
0.77889954
7.0640797
2.8552384
1.4301965
1.071432
0.89308045
0.81454704
0.90116399
1.0460611
1.0465415
0.99160315
0.85070801
0.89052399
0.92323138
0.92859306
0.90679581
0.87329476
0.90745009
0.91389188
0.9049045
0.86089064
0.85550193
0.86117945
0.85403527
7.9551344
3.247649
1.6844271
1.2512103
1.042052
0.9052804
0.96710724
1.1211912
1.1251448
1.0999383
0.95610115
0.95342989
0.99236552
1.0035962
1.0040075
0.95810977
0.96198374
0.97999379
0.98896947
0.98032172
0.94296748
0.94488201
0.92154722
8.7797526
3.9135103
2.0490246
1.4727937
1.1850651
1.0088086
1.0420859
1.1919786
1.2023193
1.1968299
1.0814692
1.0294564
1.0695962
1.0654701
1.0575955
1.0131203
0.99815847
1.0259131
1.0365451
1.055066
1.040211
1.0333392
1.0133195
9.4275704
4.4374409
2.4795225
1.7637433
1.4029794
1.1906052
1.1698212
1.2937873
1.3336932
1.3534131
1.3115472
1.1607438
1.1905621
1.1852526
1.1547747
1.1069972
1.0619111
1.0888895
1.1153093
1.129237
1.112167
1.0885545
1.0762273
9.9553084
4.9422804
2.8468967
2.0977358
1.6321568
1.398513
1.3456209
1.4760464
1.5096785
1.5114499
1.5091313
1.3825196
1.3748924
1.3708819
1.3195677
1.2942955
1.2276305
1.2301655
1.2516564
1.2392735
1.2143035
1.1600375
1.1501489
11.101144
5.9068985
3.5510309
2.7024783
2.0843367
1.750575
1.6393579
1.7720307
1.7667067
1.6904494
1.6585642
1.5344559
1.4783148
1.5048624
1.5058259
1.4706837
1.4333669
1.4322668
1.4685031
1.4507917
1.377151
1.293393
1.256171
12.597107
7.2594087
4.494025
3.5417492
2.7295053
2.3094345
2.1437923
2.2414216
2.14632
1.9528921
1.8718448
1.7102135
1.6173728
1.6409931
1.6512372
1.6094704
1.5754808
1.568498
1.5933835
1.6273796
1.5826574
1.4955291
1.4285926
13.886864
8.576925
5.5024779
4.4244221
3.7015589
3.1430325
2.8740857
3.0166351
2.9117394
2.5532739
2.2913113
2.0633957
1.9040283
1.942578
1.9517499
1.8918713
1.7532407
1.6839737
1.6970825
1.7462868
1.742778
1.6692383
1.5907714
14.55813
9.9432793
6.7270947
5.3896708
4.5988303
4.2220643
3.9630438
4.0945148
4.0069856
3.6202524
2.9736659
2.6517758
2.4823972
2.5586924
2.6421277
2.5276692
2.1537585
1.9104509
1.8365996
1.8954784
1.9419846
1.9266147
1.8121608
14.417302
11.15553
7.3292379
6.0846272
5.8083452
5.8524632
5.8038143
6.1034007
5.9645358
5.3270384
4.1786625
3.7271361
3.4302931
3.4814358
3.5491892
3.3786967
2.847489
2.4268334
2.2651268
2.3548846
2.4539086
2.4461453
2.2313752
14.678849
12.375477
8.1387952
7.1969045
7.1108042
7.7097626
8.5255149
8.7453809
8.3838077
7.2746161
5.8573917
5.256008
4.7841023
4.6750185
4.5875937
4.2546378
3.4498744
2.9037963
2.6926227
2.8016116
3.2363697
3.2791745
3.0742569
15.435711
13.540552
9.1574297
8.2450738
8.258889
9.3364805
10.692391
10.977741
10.433354
8.6743832
6.9739112
6.4147124
6.3543957
6.3415671
6.2377548
5.8308002
4.5842379
3.8078863
3.5564114
3.5418228
3.9088393
3.9337225
3.7195885
16.646682
14.829932
10.395304
9.1246298
9.2399826
10.702032
12.304996
12.595302
11.807217
9.3364505
7.7287411
7.4868345
8.3525355
9.6457072
9.7541089
8.6772882
6.1051039
4.9143054
4.4031591
4.2539277
4.6284589
4.6022746
4.2299581
17.338888
15.586069
11.404088
9.7673125
9.942047
11.732585
13.479324
13.733503
12.640896
9.6899662
8.4470362
8.561823
10.456114
12.209419
12.148271
10.687821
7.1936137
5.8026167
5.4743256
5.427752
6.0780194
5.8772123
4.8992952
17.723244
15.997152
11.991656
10.230158
10.471034
12.536471
14.306115
14.494283
13.0504
9.9959893
9.0221465
9.6035665
12.141177
13.566599
13.294053
11.523727
8.1000671
6.9690905
7.4615562
8.9923766
10.121405
8.7317867
5.6070504
17.721759
16.029024
12.311621
10.608169
10.823879
12.822034
14.737114
14.986712
13.504981
10.514422
9.6226996
10.344954
12.956405
14.24613
13.905387
12.123377
9.157269
8.3736772
9.6267276
11.84324
12.327379
10.574781
6.5641595
17.046095
15.763139
12.524857
10.980253
11.167925
12.941867
14.629157
14.890988
13.633507
10.970477
10.152216
10.879946
13.381061
14.527668
14.067124
12.21521
9.8672906
9.4898719
11.002341
12.705976
12.846231
11.104188
7.5642124
15.807393
15.09855
12.412904
11.165724
11.325977
12.860351
14.233475
14.43084
13.391189
11.204056
10.541337
11.237329
13.474693
14.537072
13.947266
11.979444
10.391209
10.325725
11.743156
12.870455
12.737884
11.050708
8.5910513
14.4184
14.202191
11.877274
11.054279
11.168559
12.525561
13.673449
13.792139
12.873463
11.223211
10.821359
11.541407
13.547198
14.403758
13.527285
11.537999
10.733924
11.053287
12.268617
12.782344
12.426492
10.736354
9.3067926
13.484013
13.955541
11.58099
10.857051
10.894319
12.132191
13.16954
13.21218
12.465476
11.190955
11.036384
11.847924
13.724085
14.23036
12.91893
11.366963
10.984987
11.567714
12.333728
12.531977
11.982518
10.512197
9.9508127
14.61702
14.681358
13.156908
11.17994
10.813043
11.380776
12.580129
12.686317
12.144786
11.105191
11.141279
12.008328
13.621059
13.706264
12.243478
11.264204
11.09677
11.760436
12.165715
12.153644
11.391895
10.526074
10.736266
20.09404
17.465292
15.064103
13.183832
11.759675
11.478419
11.681896
11.669831
11.407427
10.935057
11.103424
11.903111
12.785375
12.452297
11.419113
10.987429
11.097308
11.631954
11.839337
11.505313
10.766203
10.628349
11.294954
28.837903
22.780917
18.166738
15.718185
14.084437
12.90248
12.24908
11.58703
10.855262
10.607532
10.746849
11.146959
11.355436
11.050153
10.715034
10.672957
10.993539
11.255157
11.101261
10.624087
10.436601
10.579343
10.978909
32.181286
21.419838
16.485792
14.91388
13.861838
12.980556
12.09447
10.829274
10.15597
10.004616
10.081861
10.241311
10.153277
10.034803
10.13525
10.394744
10.625748
10.553689
10.241273
10.054558
9.94356
9.8301756
9.7597722
28.299973
15.755673
13.171604
12.913058
12.897587
12.052675
10.654525
9.6115281
9.3785976
9.4050578
9.4420893
9.412201
9.3694971
9.4444695
9.6227294
9.7950091
9.796199
9.6211023
9.429565
9.2567041
9.0402057
8.8817885
8.8670626
27.970698
14.846275
13.101163
12.398517
11.311365
9.7892831
8.8968071
8.6804056
8.7183691
8.756848
8.730973
8.7243679
8.7817781
8.8294443
8.7841574
8.6750956
8.6196195
8.6252538
8.6157792
8.5002022
8.3179871
8.2628988
8.5372142
24.780272
13.085
11.430061
10.597322
8.9702142
8.0525717
7.7789149
7.8025282
7.9029031
7.9660159
7.9945955
8.0489552
8.063921
7.9643205
7.7805911
7.660769
7.6760626
7.8411954
7.9384113
7.9089625
7.8560383
7.9442532
8.3432122
21.729858
11.566565
10.167419
9.2329865
7.7254455
7.1040379
6.9771631
7.0162004
7.0764781
7.1185683
7.1678401
7.245019
7.2528887
7.1714824
7.0452135
6.9922706
7.0624897
7.1949167
7.2704244
7.2710274
7.3104561
7.5809872
7.9538212
19.079841
9.9739551
8.7478854
8.0085443
6.873113
6.468744
6.3975777
6.4014144
6.3688956
6.341853
6.3840019
6.5158756
6.618868
6.6290321
6.5643986
6.5398004
6.6438454
6.7236768
6.7103815
6.6610559
6.7480095
7.1511045
7.5125993
17.825281
9.4500316
7.9135989
7.1150084
6.1593421
5.8639032
5.823404
5.8091691
5.7706265
5.7629401
5.8300142
5.9273858
6.0035299
6.0357858
6.0522352
6.0995724
6.2127007
6.2528601
6.2419654
6.2646172
6.4883066
6.8233571
7.0015391
16.367992
8.5457845
7.1721171
6.4327771
5.5499057
5.2678171
5.261159
5.3222445
5.3479946
5.3596181
5.4118787
5.4881973
5.5362749
5.5381736
5.5305205
5.5876328
5.7612219
5.895345
5.97207
6.0979806
6.3583644
6.4898944
6.4682301
15.281395
8.091227
6.7402978
6.0464085
5.1634555
4.8550335
4.8189393
4.8523347
4.8892281
4.9437545
5.0327598
5.1105016
5.1267115
5.0965519
5.0830739
5.1904003
5.3936227
5.5593128
5.7362077
5.9636028
6.0983462
6.0618302
5.7196088
14.226425
7.2612526
6.1502512
5.5378707
4.7772848
4.5237964
4.481586
4.4956674
4.5208487
4.5698654
4.6544579
4.7437126
4.8072627
4.843546
4.8930652
5.0103377
5.1632144
5.3009847
5.4137358
5.4699396
5.3863327
5.1352093
4.7291884
13.550118
6.8265436
5.7643371
5.2612209
4.5467958
4.2487134
4.1986427
4.2080046
4.218568
4.2392802
4.2916697
4.3691617
4.4504447
4.5160913
4.583284
4.7069101
4.8651754
4.9720774
4.9896626
4.9302551
4.7742988
4.4721927
4.0427089
13.453479
6.6009436
5.5062147
5.0524858
4.3554673
4.0016492
3.9277993
3.9444592
3.9710572
3.996365
4.0337558
4.0863651
4.1403008
4.1850203
4.2360439
4.3344406
4.4654742
4.5616108
4.584979
4.5239384
4.3425696
4.0274889
3.6355813
13.153546
6.2882272
5.2619428
4.8778929
4.225464
3.8177556
3.6972503
3.6951289
3.7217239
3.7558114
3.7983568
3.8484888
3.8950237
3.925467
3.9521711
4.0152641
4.1165157
4.2130998
4.2545322
4.2050118
4.0275655
3.7122572
3.2979557
12.890292
5.9881278
4.9988163
4.6819707
4.1134602
3.684989
3.5268032
3.4965681
3.5025212
3.5213158
3.5537507
3.5998427
3.6485954
3.6855511
3.7145586
3.7661008
3.8474722
3.9312495
3.9664042
3.9151496
3.7370984
3.4306322
3.0263694
12.693974
5.7512185
4.7575467
4.4548242
3.9589755
3.5421443
3.3674667
3.3235422
3.3183874
3.3260193
3.3440179
3.3743059
3.4121156
3.4491873
3.4875601
3.5457662
3.6275179
3.7106586
3.7423948
3.6721754
3.4718156
3.1669068
2.7893767
12.406538
5.5726674
4.5683729
4.2602744
3.8022529
3.3894773
3.2010572
3.1500751
3.14587
3.1557155
3.172384
3.1950834
3.2213248
3.2485326
3.2824887
3.339985
3.4228032
3.5100649
3.5340068
3.4340238
3.2052684
2.9009381
2.5698976
12.026913
5.3451691
4.3872312
4.0963987
3.6748355
3.2648156
3.0617042
2.9953954
2.9839641
2.9917858
3.0088691
3.0314617
3.055812
3.0793824
3.1100231
3.1670376
3.2522128
3.3300235
3.3332079
3.1889423
2.9323738
2.6383221
2.3607763
11.692667
5.1084152
4.1923909
3.9239917
3.5452309
3.156448
2.9483182
2.8694359
2.8469212
2.8447286
2.8542425
2.8709167
2.8920831
2.9167465
2.9534701
3.0205606
3.1206945
3.1738971
3.1266952
2.9361023
2.6683457
2.4000271
2.1700532
11.433294
4.9369835
4.0241302
3.7543655
3.4024575
3.0369442
2.8314797
2.7492966
2.7238998
2.7182353
2.7220007
2.7318228
2.7475785
2.7718054
2.8177232
2.9045355
2.9972179
3.0124428
2.8949984
2.6737697
2.422149
2.1922811
2.0052795
11.089281
4.7650991
3.8725773
3.6090353
3.277284
2.9266674
2.7185206
2.6319997
2.6059466
2.6017503
2.6057774
2.6139339
2.627015
2.6519675
2.7072741
2.8105347
2.8690267
2.8230963
2.6501313
2.4243753
2.2043923
2.0159639
1.8673833
10.691757
4.6136421
3.7310945
3.4799397
3.1764378
2.8427886
2.6291849
2.533401
2.500745
2.493646
2.4958153
2.5028935
2.5151447
2.5436469
2.6145337
2.7061716
2.7220618
2.6154535
2.4212445
2.2126203
2.0257377
1.8724575
1.7568659
10.364832
4.4669312
3.5935122
3.3480365
3.0753216
2.7652376
2.5505982
2.4476537
2.4073091
2.3951708
2.3940524
2.3991741
2.4112909
2.4453494
2.5261077
2.5880312
2.5641016
2.4209771
2.2288301
2.0421055
1.8820989
1.7580851
1.6699113
9.9850413
4.2864483
3.4564104
3.226772
2.9807311
2.6921343
2.4755394
2.3648918
2.3198962
2.3048577
2.3025955
2.3069756
2.3198841
2.3593482
2.4402862
2.4742935
2.4113581
2.2522102
2.0695552
1.9021639
1.7659445
1.6667699
1.6003752
9.3665527
4.1478333
3.3338489
3.1271137
2.91525
2.6474629
2.4276648
2.3019285
2.2461157
2.2266668
2.2217614
2.2243646
2.2367669
2.2787238
2.3490157
2.3609024
2.2691222
2.1067196
1.9370252
1.7888479
1.6742448
1.5959153
1.5469683
9.1489603
4.0296686
3.2371161
3.0442022
2.8597516
2.6114081
2.3861978
2.2510926
2.1847195
2.1571357
2.1486374
2.1471755
2.1560476
2.1959112
2.2536851
2.2525175
2.1503007
1.9925245
1.8349714
1.7024712
1.6045003
1.5416979
1.5049619
8.5204878
3.7230576
3.0691091
2.9534188
2.8139105
2.5908242
2.3666034
2.2046301
2.1282827
2.0945291
2.080733
2.0773677
2.081086
2.1134373
2.1675318
2.1596077
2.0591664
1.9078217
1.7571466
1.6337398
1.5462194
1.4935629
1.4651137
8.3869277
3.8209797
3.0025099
2.8691155
2.7788564
2.5919303
2.3713465
2.1955614
2.0833412
2.0411543
2.0248545
2.0164526
2.0145788
2.033507
2.0878134
2.0900809
1.995467
1.8512025
1.7031825
1.5801072
1.4943515
1.4465
1.4246815
7.9921135
3.7067206
2.9185064
2.7643722
2.718189
2.5928775
2.3892263
2.2043392
2.0748643
1.9959357
1.9725057
1.9653418
1.956375
1.9579417
1.9961151
2.031106
1.9645367
1.8329008
1.6894118
1.559634
1.4627984
1.4073389
1.3841118
7.7992023
3.7714472
2.8506881
2.6829149
2.6457434
2.5815917
2.4322384
2.2316688
2.0843956
1.9879145
1.928916
1.9149252
1.9114286
1.9019141
1.9113475
1.9490944
1.9375629
1.8358928
1.6971252
1.5640255
1.4573205
1.3839448
1.3464992
7.4890765
3.3755015
2.65951
2.5615166
2.5668745
2.5459991
2.4530282
2.2920725
2.1169778
1.9987248
1.9238479
1.8761542
1.8641722
1.8616413
1.8543549
1.8639531
1.8803567
1.8348314
1.7254519
1.5852762
1.4670093
1.3806258
1.3221687
7.2950195
2.6108182
2.2347835
2.2908135
2.4207727
2.4733076
2.4395005
2.3429449
2.1919969
2.0365063
1.9363555
1.8746868
1.8339729
1.8186042
1.8161316
1.8103997
1.8122035
1.8111518
1.7544483
1.6426907
1.506582
1.3993789
1.3137355
7.2066344
2.1383492
1.7766202
1.8824974
2.1012074
2.3061135
2.3754493
2.3360146
2.2467478
2.1202623
1.9837029
1.8905093
1.8356985
1.7995135
1.7790244
1.7747552
1.7685903
1.7622987
1.7467193
1.6971468
1.5982931
1.4778041
1.3743964
7.1380983
1.9109655
1.4357864
1.5089461
1.6989208
1.9516697
2.1846559
2.2649792
2.2344708
2.1614946
2.0612192
1.9472296
1.8569647
1.8047348
1.7712791
1.7472557
1.7369714
1.7300917
1.7212282
1.6985747
1.6552025
1.5903066
1.5088452
7.0978338
1.8758156
1.2814733
1.2483859
1.3691232
1.5790092
1.824446
2.0536134
2.1481501
2.1357533
2.0825785
2.0043971
1.9178946
1.8355536
1.7809802
1.7481171
1.7221545
1.7063562
1.6977504
1.6884651
1.6629848
1.6294161
1.594266
7.1104962
2.0005403
1.272801
1.0952611
1.1284642
1.242906
1.4367949
1.6667306
1.8943261
2.0197689
2.0385535
2.0033841
1.9456181
1.8828647
1.8169597
1.7627186
1.7262558
1.6997448
1.6809496
1.6694658
1.6589308
1.6350941
1.6145253
7.1816036
2.3465119
1.302992
0.99369979
0.93527997
0.98084848
1.0933904
1.2662175
1.4759401
1.6946815
1.8650736
1.9263319
1.9171876
1.8838656
1.834132
1.7860297
1.7416697
1.7049738
1.6782632
1.6573573
1.6449857
1.6315012
1.6204155
7.3482048
2.3722603
1.2833681
0.88938621
0.78234386
0.78960978
0.84618174
0.95726044
1.1073191
1.2880641
1.4770714
1.6603145
1.7797925
1.8198347
1.8086623
1.7813327
1.7436736
1.7080005
1.6782391
1.6546835
1.6349914
1.6181509
1.6119348
7.4454947
2.2614334
1.1688257
0.78350324
0.67108846
0.65877348
0.69106301
0.76007686
0.85785498
0.98338875
1.1314692
1.289468
1.4444217
1.5878893
1.6822287
1.7174008
1.7131572
1.6966499
1.671493
1.6475681
1.6278344
1.6064022
1.6021503
7.4911059
2.0863893
1.0489801
0.70564386
0.59753423
0.57529822
0.59357669
0.63886834
0.70480527
0.78944869
0.8925963
1.0108802
1.1365597
1.2635257
1.3851749
1.499906
1.5826254
1.6213935
1.6277838
1.6203693
1.6077902
1.5894903
1.5898607
7.5018328
1.9830005
0.98864146
0.6638468
0.55446355
0.5244426
0.52911734
0.55750106
0.60298629
0.66255563
0.73514167
0.82003619
0.91444628
1.0136003
1.1143024
1.215361
1.3114948
1.4033866
1.4763952
1.5225899
1.5426587
1.5445078
1.5624368
7.4742979
1.9274062
0.97298753
0.6536304
0.53985199
0.50109433
0.49422457
0.50607726
0.53266872
0.57178102
0.62216466
0.68291216
0.75289206
0.82941429
0.90889912
0.98932705
1.0700583
1.1509306
1.2292429
1.3014902
1.3666953
1.4083771
1.4690135
7.4202572
1.9143816
0.97997634
0.65969534
0.54260904
0.49984176
0.48708479
0.48803015
0.49839541
0.5175817
0.5462783
0.58498273
0.63304345
0.68889483
0.75029963
0.81467954
0.88003232
0.94549711
1.0107696
1.0755928
1.1383118
1.1964136
1.3042587
7.3544747
1.9232773
1.0148055
0.69169091
0.56724842
0.51617914
0.4967389
0.49213398
0.49587424
0.50348281
0.51453448
0.53152162
0.55712537
0.59085028
0.63201216
0.67924331
0.73069883
0.78437549
0.83876824
0.89323696
0.94756801
1.0074763
1.1105905
7.2941651
1.9674937
1.1056961
0.78455398
0.65094383
0.58653642
0.55102805
0.52991669
0.5178801
0.51363185
0.51518269
0.51918212
0.52543425
0.5383571
0.55803727
0.58463183
0.61821102
0.65809818
0.70239619
0.74913546
0.79744338
0.85031258
0.92395789
7.2943139
2.0931029
1.3181713
1.0107526
0.86342685
0.76799814
0.69573681
0.63939704
0.59584529
0.56330858
0.54070773
0.52747497
0.52215562
0.52068721
0.52410133
0.53233078
0.54639024
0.56646061
0.59261097
0.62449411
0.66180375
0.70340932
0.75696267
7.1860591
2.3601602
1.6463517
1.3329678
1.1336107
0.97334773
0.84335975
0.74304219
0.66782372
0.61220004
0.57210549
0.54417364
0.52548993
0.51566211
0.51013854
0.50701383
0.50676123
0.5098425
0.51661739
0.52851282
0.54691091
0.56904602
0.60753382
6.7994359
3.410434
2.2286773
1.7488836
1.4340391
1.175215
0.96850319
0.81408948
0.70445691
0.62902037
0.57850923
0.54491266
0.52264955
0.50602692
0.49254687
0.48128951
0.47252837
0.4664461
0.46481711
0.466543
0.4713776
0.47954962
0.50091189
6.9184444
3.6209423
2.6013672
2.0438067
1.6218674
1.2792097
1.0157761
0.82886323
0.703519
0.62059432
0.56560716
0.52857259
0.50200086
0.47945181
0.46079668
0.44636023
0.43645784
0.43042649
0.4287839
0.4289642
0.43058565
0.43488404
0.44872878
7.036367
4.1503778
2.8702781
2.1792339
1.6661693
1.2759163
0.9877495
0.78832424
0.65662054
0.57409764
0.52323693
0.48901553
0.46272457
0.44105386
0.42548301
0.41524986
0.4103486
0.4087223
0.40873663
0.4097441
0.41448629
0.41940431
0.43069682
7.4717136
4.1657398
2.9283649
2.16099
1.5804571
1.1451167
0.85348408
0.67722779
0.57692398
0.51891505
0.47893759
0.4484887
0.42539507
0.41041315
0.40293364
0.39938935
0.39880084
0.39911467
0.40075524
0.4043374
0.41182466
0.41642316
0.42706156
8.0356228
4.4529338
2.9134647
1.9866583
1.3394884
0.93973816
0.71256549
0.58871853
0.51898746
0.47296905
0.43788133
0.41459764
0.40165204
0.39602771
0.39453888
0.39443176
0.3954515
0.39689676
0.3998422
0.40481537
0.41126892
0.41618008
0.42862664
8.8160049
4.4661303
2.7728949
1.7311124
1.121048
0.79246625
0.62210765
0.53158323
0.47549114
0.43475685
0.40863487
0.39713691
0.39288992
0.39237648
0.39295335
0.39375635
0.39545443
0.39685994
0.40022265
0.40537604
0.4100649
0.4179819
0.4296436
9.287406
4.5295959
2.5861199
1.5120338
0.96577273
0.69855588
0.56589118
0.49025292
0.43942651
0.40766852
0.39383239
0.39049284
0.39028043
0.39142337
0.39304026
0.39381766
0.39554303
0.39688404
0.40024918
0.40425763
0.40925339
0.41925751
0.42525867
9.8488353
4.5491662
2.4197115
1.3516917
0.86171741
0.63754516
0.52550518
0.45614748
0.41348699
0.39336725
0.38738632
0.38730185
0.38872359
0.39076494
0.39265363
0.39333391
0.39490946
0.39625831
0.39917646
0.40198353
0.40803637
0.41641858
0.41972982
10.261574
4.5847198
2.2696419
1.2200129
0.78089609
0.5892031
0.48965981
0.42881874
0.39812389
0.38619671
0.38382984
0.3844193
0.38650105
0.38888247
0.39090823
0.39182534
0.39343188
0.3946452
0.39668023
0.39903256
0.40531664
0.41026654
0.41444094
10.655526
4.6216679
2.1269203
1.1071226
0.71518893
0.5480333
0.45920345
0.41080066
0.39053655
0.38324585
0.38099066
0.38135585
0.38242966
0.38474391
0.38746857
0.38911497
0.39082186
0.39217172
0.39340336
0.39585903
0.40269418
0.40558864
0.4119185
10.993651
4.5880178
1.9478517
0.99591779
0.65613103
0.51239613
0.43767277
0.40218768
0.38819599
0.38269384
0.38025423
0.37898239
0.37926259
0.38025598
0.38247866
0.38453464
0.38659926
0.38806326
0.38973524
0.39238526
0.39836081
0.40056496
0.41389104
11.253659
4.4783179
1.7600774
0.89866718
0.60829014
0.48664815
0.42724753
0.40102578
0.38928871
0.3840719
0.38051147
0.37813867
0.3767747
0.37677225
0.37764232
0.37937852
0.38095892
0.38245335
0.3847259
0.38727665
0.39152369
0.39383944
0.41547472
11.427813
4.3266957
1.5854456
0.81965698
0.57308442
0.47259721
0.4261629
0.40480718
0.3934825
0.38706103
0.38197225
0.37850438
0.37580585
0.3737312
0.37370212
0.3745818
0.37601846
0.37700243
0.37918735
0.38120335
0.38472037
0.38785532
0.41520019
11.515188
4.1834584
1.4465612
0.76066209
0.55004104
0.46836521
0.43081856
0.41170152
0.39959126
0.39162374
0.3846105
0.37977551
0.37551873
0.37195407
0.36991607
0.36933001
0.36990769
0.37055389
0.37226021
0.37380997
0.37720256
0.38153639
0.40688381
11.546684
4.0417965
1.3352543
0.7155219
0.534876
0.46964704
0.43726661
0.41852699
0.40581899
0.3967074
0.38864672
0.3818897
0.37599008
0.37162385
0.36868958
0.36632156
0.36587073
0.36602433
0.36711226
0.36860712
0.37163513
0.37574517
0.39316059
11.52903
3.9200092
1.2476945
0.67582484
0.52340523
0.47377232
0.44424743
0.42523843
0.41218884
0.40223694
0.39335866
0.38580897
0.37808877
0.37240605
0.36944354
0.36622379
0.36456494
0.36309975
0.36289957
0.36363034
0.36590654
0.36948778
0.38032597
11.474429
3.8043203
1.1691348
0.64760582
0.51977114
0.47782125
0.4513727
0.43271376
0.41859614
0.40865838
0.39982891
0.39160103
0.38300654
0.37545222
0.37181888
0.36791112
0.36596986
0.36428863
0.36384806
0.36408091
0.36467105
0.36605778
0.37165854
11.400363
3.6891377
1.1250683
0.64097482
0.52343384
0.48354716
0.45922088
0.44046938
0.42534489
0.41643532
0.40853738
0.40055754
0.3924626
0.38333132
0.37774847
0.37290683
0.37030318
0.36885518
0.36840134
0.36807147
0.3672268
0.3672567
0.36974452
11.306419
3.5654657
1.1066778
0.64334267
0.5307024
0.49113635
0.46696817
0.44714547
0.43275384
0.42539568
0.41887209
0.41172375
0.40498866
0.3962893
0.39004278
0.38398855
0.38013171
0.37787636
0.37529051
0.37330658
0.3713978
0.37121427
0.37237263
11.182942
3.4417486
1.0902948
0.64739417
0.53915988
0.5001232
0.4726292
0.45417352
0.44275645
0.43746204
0.43324409
0.4283321
0.42385887
0.41679917
0.41010702
0.40231605
0.39608019
0.39168315
0.38691525
0.3828851
0.37847921
0.37675601
0.3762284
11.024891
3.2814097
1.0661384
0.65201876
0.54828299
0.50816629
0.48153612
0.46796044
0.46246902
0.46180876
0.4634878
0.46504381
0.4648568
0.46024977
0.45143641
0.43968541
0.42696172
0.4159438
0.40652357
0.39969416
0.39298113
0.38855504
0.38525102
10.815457
3.0842951
1.0356509
0.65402573
0.55776233
0.52182577
0.50547393