/*--------------------------------*- C++ -*----------------------------------*\
| =========                 |                                                 |
| \\      /  F ield         | OpenFOAM: The Open Source CFD Toolbox           |
|  \\    /   O peration     | Version:  2406                                  |
|   \\  /    A nd           | Website:  www.openfoam.com                      |
|    \\/     M anipulation  |                                                 |
\*---------------------------------------------------------------------------*/
FoamFile
{
    version     2.0;
    format      ascii;
    arch        "LSB;label=32;scalar=64";
    class       surfaceScalarField;
    location    "120";
    object      phi;
}
// * * * * * * * * * * * * * * * * * * * * * * * * * * * * * * * * * * * * * //

dimensions      [1 0 -1 0 0 0 0];

oriented        oriented;

internalField   nonuniform List<scalar> 
40800
(
0.0007355749
0.00091380801
-0.0011412917
0.00083641799
0.00089988852
-0.00073486182
0.0009034274
0.00099270266
-0.00091820762
0.00096555845
0.00083134272
-0.00085018833
0.0010134054
0.00087167735
-0.0010842415
0.0010620296
0.00077176621
-0.00090597093
0.0011056175
0.00068681521
-0.00074348756
0.0011453708
0.00062713763
-0.00065483195
0.0011845136
0.00060401852
-0.00063115931
0.001219934
0.00061967857
-0.00064865944
0.0012434543
0.00054391826
-0.00056953929
0.0012712565
0.00043403239
-0.00045885288
0.0013146637
0.00050311748
-0.00049822754
0.001327144
0.00051508795
-0.00055716376
0.0013401504
0.0003983836
-0.00041483453
0.001398785
0.00041842833
-0.00041115804
0.0014439558
0.00065275489
-0.00069935596
0.0013808535
0.00041823645
-0.00048682171
0.0014885752
0.00039004625
-0.0003634293
0.001559421
0.00075723977
-0.0007842391
0.0014647482
0.00062522519
-0.00072164815
0.0014954338
0.00044340087
-0.000489162
0.0016671944
0.00076749337
-0.00080745315
0.0017488015
0.00099258573
-0.0011773386
0.0015640882
0.00085585551
-0.0010270089
0.0015492365
0.00057492702
-0.00062078514
0.0017768435
0.0005637934
-0.00053619868
0.0017669031
0.000921541
-0.0008767567
0.001763202
0.0013896761
-0.0013365658
0.0022112521
0.0013768308
-0.0013967591
0.0010038549
0.0024626809
-0.0013056335
0.0007293894
0.00068771245
0.00083049777
0.0010785549
0.00089758733
0.00105891
0.00096046847
0.0008562625
0.001005361
0.00064266918
0.0010563435
0.00063604686
0.0011019576
0.00064126534
0.0011430649
0.00060459724
0.001182756
0.00057356531
0.0012155461
0.00056066032
0.0012378771
0.00051453119
0.0012730813
0.00043145103
0.0013129594
0.00049015638
0.0013191139
0.00044795541
0.0013405091
0.00040414672
0.0014124444
0.00042985572
0.001416152
0.00056139599
0.0013783184
0.00035444682
0.0015314786
0.00044055125
0.0015410595
0.00070499384
0.0014420236
0.00050978845
0.001543955
0.00041825702
0.0016800431
0.00071761429
0.0016898564
0.00076200539
0.0014909043
0.00062316534
0.0015301218
0.00063064891
0.0019176386
0.0007508654
0.002008823
0.00096749182
0.0017822033
0.0013277224
0.0018835727
0.0014089331
0.00082626179
0.0023662794
0.00073118016
0.00051651164
0.00082669266
0.0011547107
0.00088879611
0.0010454927
0.0009495948
0.00088938231
0.00099521577
0.00049693827
0.0010488459
0.00055248357
0.0010960471
0.00060782308
0.00113795
0.00058985828
0.0011772857
0.00054276694
0.0012089599
0.00049808089
0.0012314898
0.00045649469
0.0012727105
0.00044603849
0.0013047831
0.00046812252
0.0013122809
0.00037413407
0.0013380383
0.0004058901
0.0014137502
0.00044639249
0.0013866795
0.00044718763
0.0013805909
0.00029991497
0.0015527251
0.00051755784
0.0015065122
0.00061905689
0.0014249513
0.00038920951
0.0015841185
0.00045202381
0.0016630099
0.00068868113
0.0016403391
0.00058139319
0.0015010356
0.00041710209
0.0015471159
0.00067915692
0.0019631687
0.00098609672
0.0021630601
0.001017626
0.0018976101
0.0010967421
0.001645485
0.0012951686
0.0010282832
0.0019881754
0.00073468853
0.00043509292
0.00082081131
0.0010651095
0.000879367
0.00091988057
0.00093517372
0.00088573487
0.00098577364
0.0004807255
0.0010400871
0.00055031133
0.0010870861
0.00057782777
0.0011293604
0.00057090426
0.001168166
0.00052056277
0.001198767
0.00044706876
0.0012244118
0.0003849202
0.0012681904
0.00045983482
0.0012910801
0.00043156955
0.0013060367
0.00031955818
0.0013337395
0.00038602139
0.0014032292
0.00046123824
0.0013617152
0.0003357201
0.0013921445
0.0002694423
0.0015509809
0.00059306759
0.0014655636
0.00051724336
0.0014221928
0.00028739606
0.0016112359
0.00051631906
0.0016238406
0.00071882031
0.0015826668
0.00047787278
0.0015664759
0.00030936939
0.0015987524
0.00070005809
0.0019024654
0.0011450411
0.0021681433
0.0010450978
0.0019824844
0.00078454093
0.0015968016
0.00092826764
0.0011472817
0.0016677552
0.00074010073
0.00045388152
0.00081564584
0.00082443357
0.00087319098
0.00071998761
0.0009231942
0.00082140912
0.00097792931
0.00056085416
0.0010294275
0.00060327056
0.0010745872
0.000553929
0.0011164249
0.00052974204
0.0011546683
0.00049527265
0.0011840731
0.00040749716
0.0012159275
0.00033396487
0.0012565359
0.00044654703
0.0012729853
0.00038450318
0.0012978186
0.0002808004
0.0013274194
0.00035580327
0.001379296
0.0004556095
0.0013422422
0.00025406314
0.0014094943
0.00027103045
0.0015259206
0.00061367594
0.0014254883
0.00042518815
0.0014380341
0.00023592517
0.0016368974
0.00054903415
0.001579166
0.00075078594
0.0015287497
0.00050230037
0.001650944
0.00030706955
0.0017180583
0.00067377874
0.0018134005
0.0011718255
0.0020153499
0.0010283786
0.0019954993
0.00050095999
0.001739318
0.00046336969
0.00098154339
0.0015783805
0.0007443826
0.00053781809
0.00081077289
0.00050010207
0.00086958379
0.00053398186
0.00091527459
0.0006914144
0.00097234991
0.00066183135
0.0010184632
0.00064240276
0.0010602644
0.0005272826
0.0011004395
0.00048184757
0.0011368474
0.00045525411
0.0011655092
0.00036510778
0.0012036727
0.00032594565
0.0012366385
0.00039654267
0.0012503762
0.00032994512
0.0012845473
0.00025742933
0.0013168178
0.00031986922
0.001346318
0.00041460234
0.001326678
0.00021730655
0.0014220761
0.00029642466
0.0014833139
0.00057730406
0.0013879253
0.00033101069
0.0014575042
0.00023053485
0.001653867
0.00057022014
0.0015395612
0.00069254759
0.0014925035
0.0005533215
0.0017276214
0.00041396494
0.001851087
0.00063280534
0.0017627934
0.0010138744
0.0017778428
0.0009767626
0.001892326
0.00039275299
0.0019182622
0.00017853493
0.00063668953
0.0017263592
0.00075035677
0.00061711743
0.00081010761
0.00020049046
0.00086784995
0.00045217337
0.00091010482
0.00051614678
0.00096570414
0.00069914529
0.0010059169
0.00061190803
0.0010450136
0.0004840235
0.0010831422
0.00043622897
0.001115983
0.00041095686
0.0011454583
0.00032097439
0.0011857335
0.00033955583
0.00121059
0.0003369538
0.0012240942
0.00027718808
0.0012645251
0.00025803811
0.0012982416
0.00027557139
0.0013081821
0.00034431591
0.0013118307
0.00021294905
0.0014245027
0.00033109759
0.0014304625
0.00050709443
0.0013538081
0.00023778426
0.0014700072
0.0002517268
0.0016426359
0.0005759938
0.0015104888
0.00054744404
0.0014507031
0.00051152645
0.0017436063
0.00057698674
0.0019125533
0.00061690517
0.0017486415
0.00071483887
0.001599613
0.0007937274
0.001744019
0.00051498811
0.0020304267
0.00022187828
0.00037141769
0.0020840943
0.00077101527
0.00063262229
0.00082291112
4.2935936e-05
0.0008731628
0.00050330444
0.00091231449
0.0003567001
0.00096145166
0.00062713303
0.00099584059
0.00050272415
0.0010323758
0.00042715501
0.0010672751
0.00038113506
0.0010955737
0.00036065655
0.0011269313
0.00030652849
0.0011631621
0.00034002692
0.0011820732
0.00028605242
0.0011976803
0.00023402568
0.001237583
0.00027894637
0.0012710968
0.00023993628
0.0012678259
0.00026372511
0.0012949215
0.0002193753
0.0014096478
0.00037166328
0.0013677453
0.00039963541
0.0013273279
0.00015558569
0.0014748514
0.00031294741
0.0015931341
0.00054753878
0.0014829507
0.00035248578
0.0014319633
0.00036671644
0.0016983626
0.00068390842
0.001885372
0.00064143698
0.0017227128
0.00043548501
0.0014811121
0.00048274264
0.0016101496
0.00065052381
0.0019943045
0.00053565226
0.0004864747
0.0023357826
0.00084116659
0.00058266584
0.00085127812
0.00010961228
0.00088763543
0.0006351796
0.00092342306
0.00029538759
0.00096171574
0.00047863762
0.00099417781
0.00035722987
0.0010296906
0.00036532192
0.0010615483
0.0003349226
0.0010854258
0.00030500947
0.0011159631
0.00031602697
0.0011434871
0.0003257197
0.0011570474
0.00024663298
0.001175709
0.00019595092
0.0012076981
0.00029183829
0.0012402076
0.00022950158
0.0012306863
0.0001882273
0.0012749755
0.0002250121
0.0013737562
0.0004052198
0.0013004831
0.00027036615
0.0013109878
9.2411337e-05
0.0014644472
0.00037947192
0.0015113034
0.00052066103
0.0014434013
0.00016649166
0.0014454992
0.00018633216
0.0016201219
0.00067277719
0.0017793662
0.00068120219
0.0016954895
0.0002511514
0.0015150157
0.00016836798
0.0015488538
0.00063723231
0.0019158429
0.00094886723
0.00079267291
0.0023285857
0.00095332216
0.00046236906
0.00091860051
0.00035637999
0.00093018631
0.000742262
0.00095702849
0.00036077682
0.00097792615
0.00033119581
0.0010065226
0.00025077131
0.0010374355
0.00031994199
0.001065529
0.00031448983
0.001088146
0.0002587051
0.0011163562
0.00030591701
0.0011369913
0.00029691546
0.0011473278
0.00022044039
0.0011705388
0.00017623767
0.0011900186
0.0002846212
0.0012169004
0.00023471057
0.001208045
0.00013128492
0.0012612967
0.00022793737
0.0013253706
0.00040065722
0.001242256
0.00016887206
0.0013072701
7.1237328e-05
0.0014454034
0.00038922445
0.0014094155
0.000494881
0.0013822347
6.8723657e-05
0.0014797523
5.0568874e-05
0.0015591772
0.00054271406
0.001607041
0.00069817536
0.0016068192
0.00019784505
0.0016248889
1.4797168e-05
0.0016325883
0.00044161785
0.0018252767
0.0011071828
0.0011245332
0.0021112442
0.00098584376
0.00026754864
0.00098527034
0.00059429455
0.0009907613
0.00071816768
0.0010171159
0.00048967251
0.0010253984
0.00024865222
0.0010467048
0.00023812717
0.0010681329
0.00031322187
0.0010873931
0.0003048513
0.0011065187
0.00022594106
0.0011285189
0.00027518453
0.0011425987
0.00027716004
0.0011498733
0.00020339875
0.001178105
0.00017627338
0.0011880005
0.00025929743
0.0012068471
0.00023246532
0.0012083537
0.00010916863
0.0012626954
0.00022654128
0.0012853377
0.00035074332
0.0012097477
0.00010577086
0.0013155479
9.7447485e-05
0.001427202
0.00036762567
0.0013090402
0.00042043303
0.0013275947
9.1130773e-05
0.0015227669
4.4541917e-05
0.0015500864
0.00038288386
0.0014518644
0.00061088223
0.0014846177
0.00029806549
0.0016776048
6.3808518e-05
0.0018307215
0.00025428801
0.0018165033
0.00086014049
0.0011482636
0.0018477479
0.00097284476
8.6699453e-05
0.0010162885
0.00071653043
0.00103419
0.00054582769
0.0010719122
0.00059106115
0.0010904847
0.00024909909
0.0011153128
0.00030969059
0.0011312866
0.00033001726
0.0011407096
0.00029218808
0.0011541143
0.00021592335
0.0011679217
0.0002431339
0.0011742299
0.00026164461
0.001177808
0.00019051361
0.0012060944
0.00019063502
0.0012055747
0.00022284037
0.0012126111
0.00021941199
0.0012242431
0.00012828596
0.0012735773
0.00021860382
0.0012613975
0.00027745891
0.0012053257
6.3978859e-05
0.0013326603
0.00015116389
0.0014146897
0.00034510631
0.0012442913
0.00028711674
0.0012950573
0.00015003733
0.0015521223
0.00016215618
0.0015583779
0.0003098715
0.0013560833
0.00039719749
0.001396146
0.00039204854
0.0016615802
0.00024301921
0.0019431462
0.00029752367
0.0018855834
0.00045221196
0.00078324212
0.0017182914
0.00091610743
-1.0341867e-05
0.00099641814
0.00065761537
0.0010317712
0.00032911929
0.0010758472
0.00060453416
0.0011124213
0.00030026607
0.0011503471
0.00038994525
0.0011760116
0.00032479613
0.001193901
0.0002630589
0.0012156962
0.00023003317
0.0012322
0.00022141499
0.0012366302
0.00022778312
0.001242529
0.00018582257
0.0012674318
0.0002180134
0.0012598648
0.00017391664
0.0012566334
0.00019934113
0.0012710593
0.00016743405
0.0013067632
0.00021357939
0.001265807
0.00019967807
0.001236145
5.0633703e-05
0.0013610812
0.00022769934
0.001408387
0.0003132274
0.0012321266
0.000120262
0.0012894928
0.0001808791
0.0015569542
0.00036488746
0.0015537247
0.00030288351
0.0013489427
0.00016017231
0.0013389499
0.00034720316
0.0016308306
0.00049452994
0.0019055822
0.00044306272
0.0018892759
0.00024487325
0.00025400794
0.0016260275
0.00086270643
2.7834152e-06
0.00094186929
0.00043184409
0.0010017807
0.00019085261
0.0010511283
0.000491341
0.0011010443
0.00033835742
0.0011409583
0.00040991374
0.001169729
0.00028372191
0.0011950346
0.00021698156
0.0012262665
0.00025717125
0.001251435
0.00020524747
0.0012638942
0.00017049341
0.0012839773
0.0001770062
0.001310903
0.00023652003
0.0013130765
0.000115417
0.0013162007
0.00015919838
0.0013401063
0.00019250924
0.0013665397
0.00021678732
0.0013109988
0.00012144363
0.0013132426
6.2800891e-05
0.0014105606
0.00032325904
0.0014172913
0.00027165554
0.0012842374
-2.1235604e-05
0.0013395214
0.00014559432
0.0015541959
0.00054576579
0.0015351438
0.000332887
0.0014067873
6.1788528e-06
0.0013680474
0.00014045919
0.0015879992
0.00063590562
0.0017858408
0.00062076602
0.0018176231
0.0002243496
-3.7447498e-05
0.0016255407
0.00086629095
9.7323548e-05
0.00091729866
0.00014966496
0.00096895236
0.00021713894
0.0010077972
0.00028663177
0.0010630897
0.00033471903
0.0011032469
0.00033691926
0.001137843
0.00021584967
0.0011729844
0.00017773776
0.0012068204
0.00025801193
0.0012342599
0.00018458227
0.0012511674
0.00011066518
0.0012794694
0.00016421049
0.0013002152
0.00023275645
0.0013137214
8.2217394e-05
0.0013252138
0.00010984323
0.0013600975
0.0001911852
0.0013861885
0.0002088998
0.001342299
5.5265521e-05
0.0013910427
7.0760138e-05
0.0014538331
0.00036401064
0.0014278772
0.00023943468
0.0013674437
-0.00010490573
0.0014516225
7.8601641e-05
0.0015584385
0.00058560423
0.0015094425
0.00038831455
0.0014533286
-4.3749296e-05
0.0015222756
-5.0199979e-05
0.0015954122
0.00050833237
0.0016600074
0.0007453757
0.0016683305
0.00034148398
-7.1971024e-05
0.0016507244
0.00096570417
0.00024426073
0.00094498008
-4.6539256e-06
0.00097895108
0.00038774838
0.0010025967
9.9889529e-05
0.0010445275
0.00028031408
0.0010720376
0.00019554265
0.001103624
0.00016136262
0.0011397748
0.00017819576
0.0011689152
0.00021902247
0.0011953233
0.00016255998
0.0012177526
6.8905761e-05
0.0012511137
0.0001391728
0.00126415
0.00019760318
0.0012884906
7.4644246e-05
0.0013065631
7.0471113e-05
0.0013413146
0.0001715832
0.0013567336
0.00018156605
0.0013298704
2.7649016e-05
0.0014155628
8.3059749e-05
0.0014425755
0.00031789158
0.0013861523
0.00021406876
0.0014006125
-0.00010528559
0.0015511696
4.3252739e-05
0.0015572707
0.00044097572
0.0014555748
0.00039474908
0.0014691405
-2.7446338e-05
0.0016648385
-9.7001178e-05
0.0016942526
0.00025223541
0.0015926748
0.00060535803
0.0015448136
0.00047382126
4.5340824e-05
0.0016176878
0.00093127076
0.00026968424
0.00095630877
-0.0001001924
0.00098352432
0.00054722777
0.0010093586
1.2649273e-05
0.001043384
0.00017870609
0.0010670818
5.0524476e-05
0.0010962101
0.00011994156
0.0011276261
0.00019118268
0.0011480328
0.00015321106
0.0011681313
0.00013530327
0.0011919367
6.4462835e-05
0.0012217223
0.00011448973
0.0012245155
0.00013788715
0.0012536114
7.7034988e-05
0.0012774653
5.6219312e-05
0.0013072799
0.00013417991
0.0013137859
0.00013323994
0.0013058385
2.7581662e-05
0.001410761
0.00010705825
0.0014071402
0.0002209144
0.0013257996
0.00015643525
0.001403567
-3.5467783e-05
0.0015878874
6.5584877e-05
0.0015364708
0.00025320178
0.0013754295
0.00025597774
0.0014561171
3.6419756e-05
0.001721256
1.9204736e-05
0.0017802045
0.00010823724
0.0015915515
0.00028281356
0.0014680092
0.0003626273
0.00022673162
0.0015819321
0.00089965882
0.00013209789
0.00095982913
-8.1951329e-05
0.00098040868
0.00055517528
0.0010123582
3.5588197e-05
0.0010384781
9.4154435e-05
0.0010653132
-4.9854472e-06
0.0010945729
9.6355834e-05
0.0011202352
0.0001679152
0.0011377857
8.5788502e-05
0.0011547298
9.1818683e-05
0.0011796479
8.8384011e-05
0.0012032182
9.5372291e-05
0.0011995524
7.0231085e-05
0.0012288288
8.8257013e-05
0.0012545028
6.6789564e-05
0.0012754041
9.0541026e-05
0.0012745248
8.206145e-05
0.0012805406
3.6906875e-05
0.0013820594
0.00014474485
0.0013618457
0.00010531089
0.0012710889
4.9080276e-05
0.0013797646
7.6637715e-05
0.0015714774
0.0001579021
0.0014961243
9.0154936e-05
0.0013087915
2.6191138e-05
0.0014178799
0.00011034386
0.0017018514
0.00019970946
0.0018005042
0.00015045372
0.0016136845
1.9338252e-05
0.0014272006
6.3110538e-05
0.00024585929
0.0015376959
0.00094657847
-7.2240281e-05
0.00098456989
7.6841557e-05
0.00098708058
0.00039223306
0.0010241946
0.00014072389
0.0010437397
5.6202849e-05
0.0010740941
2.235292e-05
0.0011008491
0.00010271351
0.0011203186
0.00011070217
0.001138903
4.0848971e-05
0.0011562874
5.4496167e-05
0.0011805437
0.00011072919
0.0011985367
7.963386e-05
0.0011956425
1.1075748e-05
0.0012229927
0.00010272174
0.0012472628
8.8223491e-05
0.0012622745
5.4159733e-05
0.0012584959
3.4787761e-05
0.0012768654
4.2287114e-05
0.0013541911
0.00017778211
0.0013308697
1.2115583e-05
0.0012598052
-8.0255271e-05
0.0013701613
0.00016622747
0.0015274006
0.00027029532
0.0014559163
2.0772741e-05
0.001308626
-0.00019261179
0.001397935
6.7078372e-05
0.0016481054
0.0004103275
0.0017215635
0.00025428525
0.0016107606
-5.3988778e-05
0.0014635942
-0.00018585455
9.0498267e-05
0.001525933
0.0009556788
-0.00029457442
0.0010126181
0.00023846339
0.0010085782
0.00016970221
0.0010455003
0.0002683616
0.0010631146
5.2742314e-05
0.0010963518
0.00012624809
0.0011192177
0.00012290016
0.0011338759
5.1926062e-05
0.001152726
1.9338602e-05
0.0011711588
3.463274e-05
0.0011909241
0.00011006539
0.0012035963
7.6519598e-05
0.0012073791
-3.092449e-05
0.0012289316
0.00010120451
0.0012486508
0.00010294243
0.0012596674
3.2567067e-05
0.0012571167
-5.0396374e-06
0.0012874233
4.0649254e-05
0.0013259004
0.0001982809
0.0013060589
-3.4044572e-05
0.0012863885
-0.00016113194
0.0013679181
0.00016096071
0.0014656997
0.00036862013
0.0013991381
3.1467419e-06
0.0013442973
-0.00029334141
0.0014433908
-4.4170227e-06
0.0015828562
0.00047802519
0.0016116091
0.00040066956
0.0015478669
-2.6770163e-05
0.0015222049
-0.00028339599
-4.0006803e-05
0.0015569275
0.0010497143
-0.00040740952
0.0010560233
0.00033293146
0.0010513525
3.7289876e-05
0.0010883585
0.00031831465
0.0011091662
6.4746183e-05
0.0011380278
0.00021132264
0.0011540581
0.0001233638
0.0011683435
6.7316724e-06
0.0011881091
6.4215781e-06
0.0012070641
1.7764264e-05
0.0012227952
9.03729e-05
0.0012291426
6.9663731e-05
0.0012428158
-3.9984556e-05
0.00125653
7.9155426e-05
0.001270066
9.7343304e-05
0.0012787265
2.2295194e-05
0.0012797585
-2.2444131e-05
0.0013225115
2.9726817e-05
0.0013162534
0.00017517024
0.0013019522
-3.7558324e-05
0.0013397557
-0.00017667792
0.0014074555
0.00010849741
0.0014209321
0.0003447137
0.0013536059
4.2648278e-05
0.0013914262
-0.00025711163
0.0015426269
-9.7770039e-05
0.0015732777
0.00035948996
0.0015021471
0.00045204621
0.0014649688
4.2727671e-05
0.0015709142
-0.0002259821
-0.00014295538
0.0016641358
0.0010670778
-0.00032790621
0.0010362019
0.00028457694
0.0010563545
7.8624453e-05
0.001091584
0.00021172488
0.0011284082
4.7446602e-05
0.0011599456
0.00015126193
0.0011790723
8.2310531e-05
0.0012001587
-1.5092928e-05
0.0012234782
-1.0843749e-06
0.0012484917
4.5017262e-06
0.0012645827
5.0526872e-05
0.0012696393
4.5967325e-05
0.0012964543
-2.4818572e-05
0.0013074951
4.3241619e-05
0.0013191318
6.4104815e-05
0.0013313088
1.249711e-05
0.0013409416
-1.7105472e-05
0.0013939548
1.3092059e-05
0.0013551662
9.9242134e-05
0.0013464227
-1.055269e-05
0.0014262606
-0.00011447649
0.0014875917
3.6409899e-05
0.001432326
0.0001969159
0.0013599001
7.3316582e-05
0.0014618995
-0.00014671977
0.0016645406
-8.9905737e-05
0.0016382735
0.00015172649
0.0014654363
0.0002877252
0.0014443023
0.00010411901
0.0016279272
-0.00010074664
-0.00010211567
0.0017998605
0.00083492126
0.00090100305
0.0011875396
0.0012442864
0.0012782193
0.001299702
0.0013392444
0.0013696033
0.001393276
0.0014158744
0.0014344276
0.0014389675
0.0014765788
0.0014934106
0.0015092875
0.0015251288
0.0015385962
0.0015952173
0.0015407254
0.0015279888
0.0016325809
0.0016934367
0.0016090957
0.0015168734
0.0016530953
0.0018833491
0.0018546995
0.0016227485
0.0015671699
0.0017956531
0.002057146
1.1445668e-05
0.0018508857
-0.0001179901
0.0016531606
-0.00022500167
0.0016257405
-0.00020933945
0.001665978
9.3048707e-06
0.0018041003
0.00047644545
0.0019021709
0.00095901246
0.0018868422
0.0011377523
0.0017220717
0.00092484252
0.0014815301
0.00052796124
0.0012975588
0.00023806977
0.0012446985
0.00028900529
0.0014023886
0.00073840785
0.0017033012
0.0011645608
0.0020659298
0.0011949113
0.0021823675
0.00079726503
0.0021177773
0.00032190218
0.0019686634
0.00030221974
0.0018598997
0.00084242846
0.001978522
0.0016984114
0.002168346
0.0021733351
0.0021901613
0.0019273843
0.0020283563
0.0017652344
0.0012320589
-0.00019764159
0.0013920673
-0.00030736498
0.0013098716
-0.00022940715
0.0013954977
-3.8960019e-05
0.0016028512
0.00016731456
0.0018006656
0.00031667557
0.0018689981
0.00030646048
0.001858865
0.00012572803
0.0017544345
6.6060358e-05
0.0015998757
0.00021864802
0.0015509574
0.00067243703
0.0015821199
0.0012747304
0.001666204
0.0016351299
0.0016879796
0.0014743296
0.0017031588
0.00083493305
0.0016094345
0.00017109871
0.0014951121
-4.6738452e-05
0.0015317945
0.00035284873
0.0018210805
0.0012306889
0.0023244864
0.0018535103
0.0025780695
0.0018531161
0.0024771909
0.0013646899
0.0020963926
0.0016338373
0.00062199239
0.00032486034
0.0014938082
0.00069866624
0.0013589978
0.00094678667
0.0013198005
0.00090380822
0.0013852671
0.00055151804
0.0014037876
-2.9724438e-06
0.0013752084
-0.00053895936
0.0013771705
-0.00069983264
0.001463225
-0.00043624925
0.0016262249
0.00022628836
0.0018761922
0.00097916763
0.0020213666
0.0013892873
0.0020123461
0.0013116068
0.0018665199
0.00091782866
0.001641059
0.00043187076
0.0014486472
0.00030072109
0.0012901397
0.00071014327
0.0013191216
0.0014473415
0.0015918798
0.0018071009
0.0020400554
0.0015277194
0.0022621164
0.00088402473
0.0021769105
0.00013262158
0.0019542041
0.0017942488
-5.8481245e-05
0.00063238706
0.0019518172
0.0011024219
0.0017019288
0.0012152296
0.001516356
0.00092764522
0.001343545
0.00038985063
0.0011904988
-9.2272239e-05
0.0010810022
-0.00016138582
0.0010863589
0.00015235902
0.0011848234
0.00058149789
0.001403516
0.00091863672
0.0016742702
0.00081582221
0.0017672648
0.00041374835
0.0017606801
-0.00015044068
0.0017101038
-0.00039304664
0.0016922488
-0.00010270578
0.0017656913
0.00077414304
0.0018580141
0.0018914323
0.0018420415
0.0025441551
0.0017657324
0.0023789893
0.00173156
0.0014283917
0.0017000911
0.00022849511
0.0014921357
-0.00043141898
0.0013231706
0.0015145579
-6.8690655e-05
4.1399335e-05
0.0018522866
-0.00022066429
0.001662437
-0.00060971909
0.001554491
-0.00069781493
0.0014845154
-0.00048958232
0.0015028718
0.0001756384
0.0014688256
0.0010752867
0.0014293601
0.0017915612
0.0013641746
0.0021213751
0.0013159487
0.0017334352
0.0013226826
0.00077768561
0.001250548
-0.00030334184
0.0011394499
-0.001006349
0.0011348506
-0.00093635853
0.0013913082
-7.8878974e-05
0.0018452543
0.0010301054
0.0022127878
0.0018373612
0.0022665208
0.0020220878
0.0021345365
0.0016704669
0.0018669548
0.00091297987
0.0016633622
0.00021889501
0.0014023322
0.00033347056
0.0011263073
0.0012304445
0.0012997465
-0.0008988788
0.0012978183
-0.0016108742
0.0012510676
-0.0017730567
0.0013254958
-0.0014424053
0.0015044797
-0.00070718016
0.0017171748
0.00028018104
0.0017589049
0.0011371488
0.001729179
0.0016607911
0.0016922952
0.0015996235
0.001539447
0.0011186602
0.0013518586
0.00038348625
0.0011628848
-0.00011738787
0.00094629956
0.00015168334
0.00086865229
0.00076781291
0.0010319704
0.0013971722
0.001449151
0.0016308604
0.0018739125
0.0012375296
0.0020077032
0.00048675263
0.0019292423
-0.00030132577
0.0018147031
-0.00054420245
0.0018168501
4.1533584e-05
0.0019214803
0.0014277881
0.0018421196
0.0016766046
0.002838967
-0.0003723344
0.0011709513
-0.00029647094
0.0010252435
3.2422774e-05
0.0010562392
0.00024985248
0.0012389276
0.00051913607
0.001455294
0.00059486055
0.0015153941
0.00030596655
0.0014915527
-0.00028246511
0.001509464
-0.00097805305
0.0015215331
-0.0011560837
0.0015339286
-0.00069405869
0.0015929457
0.00042965026
0.0015067217
0.001832888
0.0013146674
0.0028843814
0.0011706143
0.0032832911
0.0011916545
0.0027132406
0.001353599
0.0013386916
0.0014426698
-0.00035438282
0.0013339967
-0.0015193623
0.0012536814
-0.0014830982
0.0015093477
-0.0002428214
0.0020255621
0.0014203862
0.0024030232
0.0023839532
0.0026807469
0.0011444142
0.0016714337
0.0021123391
0.001307982
0.0025273969
0.0010840636
0.0025638289
0.0010327448
0.002006396
0.0010672302
0.00085620445
0.0010285795
-0.00052557814
0.00095894554
-0.0017612802
0.001000703
-0.0023288867
0.0011750511
-0.0020765569
0.0014253968
-0.0011418522
0.0017469921
0.00024122916
0.0018786652
0.0016035596
0.0017691694
0.002657301
0.0016279675
0.0030273596
0.0014616632
0.0027244309
0.0013372459
0.0015938693
0.0012312981
0.00014047875
0.00094845196
-0.00054017099
0.00073073514
-8.0632141e-05
0.00097758376
0.00071441549
0.001595466
0.0015550305
0.0021892348
0.0024195161
0.0017007479
0.00076203901
0.0019649427
0.0015086116
0.0016605033
0.0021416837
0.0014333883
0.0023325879
0.00123445
0.0017956973
0.0010482201
0.00067851879
0.00080617836
-0.00044024546
0.0005628017
-0.00081083634
0.00055701368
-0.00049334065
0.00080888146
5.8045341e-05
0.0011477904
0.00037113836
0.001498574
0.00064727165
0.0017124316
0.00064127973
0.0016848415
0.00051897248
0.0016057977
0.00015552338
0.0015930052
-0.00016747024
0.001564866
-8.822514e-05
0.0015441876
0.00059233934
0.0013888292
0.0017751499
0.00099264103
0.0027650231
0.00079378052
0.0030993642
0.0010355285
0.0028190542
0.0015785987
0.0020130723
0.0018038954
1.4844201e-05
0.0019324681
-0.00037012708
0.0017047436
-0.0010756035
0.0014809228
-0.0017978986
0.0013486967
-0.0017862625
0.001281856
-0.0008132321
0.0011395028
0.00079501461
0.00088585522
0.0022843521
0.00068655116
0.0029978073
0.00067452835
0.0029398524
0.00082706466
0.0025907404
0.0010952532
0.0018177103
0.0013475502
0.00054682529
0.0013909786
-0.0010154842
0.0012830421
-0.0024125923
0.0013052452
-0.0030058441
0.0014414398
-0.0023523723
0.0016734598
-0.00043408623
0.0018923718
0.0020158899
0.0017171102
0.0040680274
0.0012895589
0.0051352615
0.0010835587
0.0047562599
0.0011682048
0.0014611262
0.0031113048
-0.0014635214
0.0016765224
-0.0030157092
0.0015413176
-0.0041225448
0.001335097
-0.0043870744
0.001292564
-0.0036129605
0.0013591074
-0.0019050446
0.0013725295
0.00036434528
0.0012220486
0.0025851653
0.0010648999
0.00427611
0.00099112307
0.005099585
0.00092323208
0.0046604393
0.00091549689
0.0032231483
0.0009932587
0.00079624589
0.0010091902
-0.0016807227
0.00087449752
-0.0031853527
0.00092399419
-0.0033250483
0.0011950059
-0.0024067233
0.0015331645
-0.0010058604
0.0018805978
0.0005675177
0.0019468351
0.0022832227
0.0016745208
0.0037515651
0.0014426184
0.0045531264
0.0013533751
0.0013386801
0.0041063955
-0.002671412
0.0013478541
-0.00422694
0.0012801682
-0.0042845801
0.0011414005
-0.0033479015
0.0012052721
-0.0020559228
0.0013138573
-0.00092630541
0.0013429886
-1.9339905e-05
0.0012340863
0.00089257462
0.0011378409
0.0019381586
0.001164969
0.0029360936
0.001176215
0.0036204583
0.0011237794
0.0032098235
0.0010263687
0.0014247507
0.00088574472
-0.00068786888
0.00058331275
-0.0016371679
0.00058568574
-0.0014469454
0.00092783043
-0.00069855626
0.0013224081
-9.7103398e-05
0.0016824279
0.00031692342
0.0018627345
0.00062511303
0.0016992258
0.0010235056
0.0015058609
0.0013774756
0.00149003
0.0015146959
0.0017835932
-0.00090497312
0.0012902758
-0.0010477047
0.0011531971
-0.00072906724
0.00097008144
-0.00033822482
0.0010395978
-3.4082943e-05
0.0011525735
0.00012365066
0.0012026262
0.00010696503
0.0011451455
1.1432979e-05
0.0010758291
-0.00023013467
0.0011309448
-0.00050716965
0.0011870131
-0.00063633608
0.0012219079
-0.00037983037
0.001191622
0.00023838183
0.0010864711
0.0011700039
0.00072379201
0.001590794
0.00052626646
0.0016625803
0.00073565663
0.0015036723
0.0011033998
0.0012246418
0.0014437735
0.00076807287
0.0016979661
9.5308583e-05
0.0016268812
-0.00068943759
0.0014109518
-0.0012525295
0.0014202241
0.0015055338
-0.0014004528
0.0020351535
0.0015135054
0.0033820892
0.001242119
0.0035346811
0.00091870649
0.0028329474
0.00089219453
0.0020167991
0.00096203854
0.0011099162
0.0010283639
0.00021908697
0.0010125701
-0.00076941576
0.0009819837
-0.0019258606
0.0010447117
-0.0031468877
0.0011108157
-0.0040527228
0.0011712348
-0.0038877776
0.0011970667
-0.0019148122
0.0012016397
0.0013705749
0.00097496188
0.0040882488
0.00073007863
0.0048487481
0.00078867023
0.0041034812
0.0010220935
0.0028797163
0.0012774204
0.0015035837
0.0015199067
3.8315512e-05
0.0015168757
-0.0015926615
0.0012998188
-0.0030675964
0.0013185038
0.0014669587
-0.003863194
0.0034189425
0.0016468242
0.0055512128
0.0013893444
0.0061620553
0.00098388825
0.0055927242
0.00085543219
0.0041146865
0.00085822446
0.0022588777
0.00089750418
0.00040289766
0.00089499507
-0.0014914028
0.00089817831
-0.0034396917
0.00096691475
-0.0051993445
0.0010261236
-0.0061321528
0.0010971906
-0.0056254949
0.0011456922
-0.0032263285
0.0011769493
0.00074288603
0.0010540603
0.004478155
0.00090501907
0.0061709754
0.00091940805
0.0058720386
0.0010499275
0.0044120883
0.0012096144
0.0024616809
0.001423074
0.00020664829
0.0014328754
-0.0021412242
0.001236477
-0.004118776
0.0012521501
0.0014007123
-0.0051659738
0.0034821616
0.0016620433
0.0058464731
0.0014887527
0.0070217107
0.0010998237
0.0069477824
0.00091258319
0.0056436551
0.00087188817
0.0033415825
0.00086895748
0.00064469125
0.00084038941
-0.002122305
0.00084275648
-0.0046680621
0.000904776
-0.0064635358
0.00097158455
-0.0070052238
0.0010409613
-0.0059575391
0.0011065813
-0.0034442342
0.0011263609
0.00032494143
0.0010478212
0.0040649749
0.00098572577
0.0063358719
0.0010053836
0.0066941853
0.0010911787
0.0055118953
0.0012034206
0.0032761601
0.0013763114
0.0004054757
0.0013613615
-0.0026080333
0.0011874003
-0.0048540398
0.0012078006
0.0013583498
-0.0059303388
0.0032152004