/*--------------------------------*- C++ -*----------------------------------*\
| =========                 |                                                 |
| \\      /  F ield         | OpenFOAM: The Open Source CFD Toolbox           |
|  \\    /   O peration     | Version:  2406                                  |
|   \\  /    A nd           | Website:  www.openfoam.com                      |
|    \\/     M anipulation  |                                                 |
\*---------------------------------------------------------------------------*/
FoamFile
{
    version     2.0;
    format      ascii;
    arch        "LSB;label=32;scalar=64";
    class       volScalarField;
    location    "120";
    object      rho_0;
}
// * * * * * * * * * * * * * * * * * * * * * * * * * * * * * * * * * * * * * //

dimensions      [1 -3 0 0 0 0 0];

internalField   nonuniform List<scalar> 
20580
(
1.0011367
1.0044136
1.0027387
1.0025444
1.0000817
1.0001771
1.0017575
1.0012705
1.0011899
1.0004696
1.0011334
1.0015892
1.0007948
1.0004915
1.001441
1.0017435
0.99891934
1.0014859
1.0039108
0.99763195
0.99951537
1.0042741
1.0016272
0.99580061
1.0005366
1.0105914
1.006245
0.9995765
1.006397
1.0015772
0.97924969
1.0012577
1.0040337
1.0028161
1.0028868
1.000396
1.0002733
1.0020248
1.00147
1.0010858
1.00021
1.0013677
1.0016814
1.0002885
1.0005574
1.0019205
1.0007654
0.9982609
1.003659
1.0027159
0.99632594
1.0019895
1.004681
0.99936749
0.99565659
1.0041362
1.0166723
1.0084255
0.99201584
0.99764917
1.0090724
0.99604812
1.0014492
1.003183
1.0022989
1.0024476
1.001141
1.0010065
1.0019272
1.0016052
1.0010209
1.000308
1.0013379
1.0016618
1.0000239
1.0006753
1.0021618
1.0002599
0.99818031
1.0049555
1.0016414
0.99570426
1.0042821
1.0053185
0.99807932
0.99709011
1.0045873
1.0162938
1.0094931
0.98865603
0.98925321
1.012497
1.0186677
1.001619
1.0021415
1.0013716
1.001446
1.0018814
1.0019712
1.0015029
1.0015527
1.00106
1.0006668
1.0013041
1.0015136
1.0000592
1.0009844
1.0020331
1.0003554
0.99880243
1.0051346
1.0004899
0.99606779
1.0058621
1.0050247
0.99797272
0.99965574
1.0036917
1.0100282
1.0079568
0.99039714
0.98474442
1.0081278
1.0327275
1.0017764
1.0012417
1.0004322
1.00055
1.0022495
1.0025134
1.001053
1.0012896
1.0010488
1.0010896
1.0012883
1.0011602
1.000399
1.0013661
1.0017039
1.0007353
1.0001035
1.0044469
0.99906916
0.99764369
1.0066423
1.0029454
0.99841504
1.0035454
1.0029232
1.0011172
1.0034089
0.99627858
0.98785426
0.99958827
1.0277347
1.0019115
1.0009665
0.99994012
1.000055
1.0021707
1.0023137
1.0008048
1.0010505
1.0009078
1.0014717
1.0013064
1.00063
1.0009672
1.0016534
1.0011384
1.0009732
1.0017978
1.0030409
0.99780326
0.99983707
1.0065786
1.0001895
0.9977097
1.0076469
1.0042024
0.99361078
0.99690343
1.0041455
0.99857221
0.99443627
1.008203
1.0019003
1.0014563
1.0001608
1.0000094
1.0016514
1.0014658
1.0007449
1.0008793
1.000889
1.0017079
1.0012816
1.0002515
1.0015307
1.0017939
1.0003861
1.0009299
1.0033059
1.0012762
0.99724212
1.0021363
1.0056621
0.99765713
0.99636513
1.0095168
1.0073843
0.99061729
0.99140893
1.0095792
1.0132213
0.9989811
0.98770926
1.0017051
1.0024299
1.0010995
1.0005345
1.001096
1.000427
1.0007681
1.0006336
1.001013
1.0018338
1.0010759
1.0001158
1.0019062
1.0017812
0.99991727
1.0007112
1.0040404
0.99984024
0.99738931
1.0040971
1.0045484
0.99599729
0.99596375
1.0086019
1.0095241
0.99281656
0.98970728
1.0092351
1.023908
1.0100237
0.98415786
1.0014881
1.0034601
1.0023437
1.0016251
1.0008893
0.99991308
1.0008373
1.0005037
1.0011809
1.0017373
1.0009282
1.0002794
1.0019268
1.0014982
1.000023
1.0003651
1.0037619
0.99896333
0.99815005
1.0052554
1.0030628
0.9960572
0.99738971
1.0055407
1.0082216
0.99831382
0.9928743
1.0044669
1.0233177
1.0194622
0.99309242
1.0014828
1.0041458
1.0031468
1.0026848
1.0010398
1.0002575
1.0010462
1.0007548
1.0014324
1.001316
1.0008262
1.000791
1.0016538
1.0009868
1.0005412
1.0001
1.0027656
0.99842793
0.9996855
1.0056611
1.0005715
0.99779652
1.0009249
1.0020072
1.0030147
1.0032583
0.99978474
1.0010814
1.0098404
1.0173451
1.0060109
1.0014911
1.0043101
1.0030604
1.0031245
1.0014428
1.0013111
1.0014757
1.0013076
1.0015809
1.0008367
1.0008646
1.0015308
1.0012438
1.0005304
1.0011617
1.0002667
1.0014877
0.99825705
1.0016224
1.0054164
0.99789898
0.99945612
1.0060946
1.0006062
0.99590452
1.0042674
1.0082963
1.00229
0.9942119
1.0007283
1.010516
1.0014888
1.0038154
1.0021411
1.002915
1.0019005
1.0024377
1.0018489
1.0018795
1.0014677
1.0005975
1.0009929
1.0021726
1.0009149
1.0002666
1.0017961
1.0010022
1.0002724
0.99872825
1.0033169
1.0045215
0.99589959
1.0001419
1.0105122
1.0017182
0.99073097
1.0011637
1.0146144
1.0067074
0.98885217
0.98379114
1.0026998
1.0015253
1.0027433
1.0009783
1.0020944
1.0020536
1.0029415
1.0019182
1.0022038
1.0013411
1.0006748
1.001074
1.0024157
1.0009163
1.0001633
1.0022164
1.0018764
0.99948006
0.99965482
1.0044013
1.0034781
0.99491826
1.0001705
1.012337
1.0034369
0.98970139
0.99730441
1.0151217
1.0119139
0.99184913
0.97897326
0.99148591
1.0018884
1.0017632
1.0002118
1.0008592
1.0018687
1.0025959
1.0016962
1.0019773
1.0013738
1.0009331
1.0011308
1.0021358
1.0010975
1.0002795
1.0020603
1.0023687
0.99933056
1.0005935
1.004505
1.0025927
0.99538237
1.0002509
1.0103699
1.004156
0.99246807
0.99644534
1.0091001
1.013579
0.9993509
0.98656675
0.98786376
1.0023082
1.0015941
1.0003565
1.0000371
1.0016782
1.0016167
1.0013679
1.0014543
1.0013878
1.0011126
1.001153
1.0016152
1.0011752
1.000839
1.001448
1.0023824
0.99965906
1.0015592
1.0036798
1.0012344
0.99760598
1.0014093
1.0051299
1.0023568
0.99756421
0.99958784
1.001966
1.0064818
1.0064297
0.9994169
0.99520422
1.002445
1.0020529
1.001263
1.0002531
1.001507
1.0006017
1.0011597
1.0011249
1.001334
1.0013123
1.0012619
1.0010879
1.0011257
1.0016723
1.0007259
1.001957
1.0000009
1.0025363
1.0024109
0.99931678
1.000929
1.003618
1.000305
0.99755926
1.0030123
1.0051315
0.99925937
0.99457219
1.0047723
1.0117818
1.0080915
1.0019613
1.0025423
1.0021388
1.0010525
1.0013879
1.0002337
1.0010529
1.0009785
1.0012039
1.0014626
1.0014399
1.0006611
1.0010505
1.0023299
1.0002349
1.0011728
1.0002209
1.0031807
1.0011597
0.99747688
1.0037168
1.0064009
0.99754048
0.99286401
1.0054377
1.0120077
1.0013672
0.98735051
0.99590383
1.0151316
1.0200675
1.0012896
1.0032678
1.0024304
1.0020781
1.0014263
1.0006213
1.0009684
1.0007483
1.0009748
1.0014485
1.0015671
1.0003549
1.0009725
1.0026218
1.0000484
1.0002719
1.0004527
1.0032851
1.0002953
0.99665783
1.0045707
1.0090262
0.99753871
0.99040273
1.0043367
1.0164464
1.0052444
0.98775661
0.98854989
1.0093385
1.0228801
1.0010366
1.0038055
1.0021662
1.0029796
1.0016153
1.0016495
1.0011128
1.0007725
1.0008326
1.0014881
1.0016423
1.0003508
1.0009899
1.0025956
1.0003039
0.99978354
1.0006807
1.0028782
0.99991896
0.99714733
1.0038475
1.0093395
0.99876691
0.99203763
1.0018999
1.0144636
1.0073808
0.9925942
0.98968975
1.0011065
1.0157619
1.0009995
1.0038739
1.0016961
1.0032753
1.0017924
1.0025393
1.0014783
1.0011391
1.0009751
1.0016166
1.0014731
1.0007086
1.0011132
1.0021007
1.0008895
0.9999594
1.0008722
1.0019908
1.0003053
0.99892989
1.0027112
1.0060339
1.0006256
0.99607356
1.00131
1.0070427
1.0054431
0.99857298
0.99540198
0.99785272
1.0042904
1.0013269
1.0033403
1.001184
1.0025748
1.0018615
1.0025942
1.0016462
1.0013922
1.0012791
1.0015104
1.0011927
1.0012446
1.0014355
1.0012287
1.0014664
1.0005842
1.0012718
1.0008988
1.0007165
1.0015794
1.0018594
1.0011485
1.0010448
1.0016521
1.0033454
0.99926141
0.99836067
1.0033295
1.0042313
1.0010735
0.99554942
1.0020016
1.0026995
1.0011463
1.0012219
1.0019083
1.0018208
1.0016908
1.0016802
1.0018246
1.0013244
1.0010639
1.0018993
1.0019182
1.0004664
1.0020173
1.0013811
1.0021084
1.0001529
1.0007949
1.0047088
1.0020359
0.99726114
0.99958616
1.0071596
1.0069785
0.99586083
0.99070955
1.0030789
1.0141923
1.0093505
0.99512863
1.0026989
1.0027397
1.001865
1.0011013
1.0020988
1.0012529
1.0019526
1.0024038
1.0026604
1.0014753
1.0012176
1.0025832
1.0027504
1.0003755
1.0024069
1.0021217
1.0032319
1.0000806
1.0005758
1.0069372
1.0034995
0.99583285
0.99745806
1.0092092
1.011428
0.99730317
0.9868325
0.99880739
1.0182436
1.017824
1.0006392
0.98679182
0.99017387
0.99867301
1.0082966
1.014651
1.0142522
1.0055579
0.99764326
1.0002052
1.0119299
1.0209012
1.0206537
1.0072664
0.9852744
0.97129231
0.97569507
0.99803577
1.0241508
1.0342959
1.0204837
0.99449428
0.98052961
0.98752872
1.0075595
1.0094915
1.0063773
0.99809609
0.98807977
0.97939268
0.98015991
0.99085882
1.0097611
1.0286902
1.0361809
1.0242194
1.0025053
0.98779315
0.98855359
1.001537
1.0143783
1.0157278
1.0017851
0.9803824
0.97180344
0.98547789
1.0148205
1.0335338
1.0232437
1.0085088
0.99433873
0.98577192
0.98666951
0.99317036
1.0020164
1.0073451
1.0070056
0.99884844
0.98846166
0.98762961
1.0041547
1.0294282
1.046411
1.0419102
1.0134035
0.97792296
0.96041897
0.96749381
0.99160199
1.0243488
1.0062446
0.99897603
0.99779997
1.0057858
1.0216705
1.0355006
1.0398464
1.026013
1.0020418
0.97805673
0.96352841
0.96454421
0.98094519
1.0075661
1.0362771
1.0497868
1.0339285
1.0054236
0.98772789
0.99091287
1.0076532
1.0241455
1.0300206
0.9681966
0.97209233
0.98855534
1.0139091
1.0399601
1.054201
1.0447902
1.022435
0.99993853
0.98638545
0.98997027
1.0021399
1.0149737
1.0176057
1.0094193
0.99491822
0.97893462
0.97421204
0.99141611
1.0280427
1.0686975
1.0805265
1.0497785
0.99094822
1.0017925
1.0088385
1.0091649
1.0053053
0.99808713
0.9878904
0.98293442
0.98893601
1.0130366
1.0490195
1.0763712
1.074466
1.039075
0.99432502
0.96084224
0.94860736
0.95390784
0.9824452
1.0258774
1.0720967
1.0875908
1.0537653
1.0680291
1.0517555
1.0234082
0.99367788
0.97444345
0.9609654
0.95459135
0.95941373
0.98071957
1.0171885
1.0607206
1.0894766
1.0776483
1.0432087
1.0057748
0.98368146
0.98702093
0.99968775
1.0138374
1.0237141
1.0238806
1.0178557
1.0035952
1.0692981
1.0502098
1.0271848
1.0052507
0.98961595
0.98770497
0.99970248
1.0113485
1.0177058
1.0158262
1.0109424
1.0120401
1.0071601
1.0007027
1.00063
1.0198721
1.0585794
1.0976313
1.0990632
1.0576312
1.0004399
0.96175733
0.94671486
0.99319718
0.98943552
0.99378426
1.009927
1.039192
1.078369
1.1062626
1.1003469
1.0637617
1.0161619
0.97793692
0.9600862
0.95293637
0.95259938
0.97125894
1.012724
1.0799256
1.1517605
1.1649994
1.1091861
1.0287995
0.97025233
0.94915326
0.95259663
0.95224551
0.96627116
0.99940998
1.0568223
1.1241767
1.1667392
1.1467382
1.0901204
1.0285638
0.9869532
0.97011984
0.97535906
0.98073555
0.99274032
1.0111658
1.0428949
1.0893024
1.1235023
1.1090272
1.070218
1.0279104
1.0087536
0.97368508
0.98678552
1.0060351
1.0292267
1.0509508
1.0725009
1.0900487
1.0877634
1.0743555
1.0542184
1.0324163
1.0330802
1.053271
1.0757724
1.0778385
1.0543982
1.0249333
1.0121451
1.0191455
1.032408
1.0412246
1.0534584
1.0790188
1.0814863
1.0804181
1.065185
1.0427117
1.0216922
1.0143867
1.0135457
1.0101814
1.0109641
1.0214683
1.0509664
1.1034464
1.1689567
1.2167199
1.1845113
1.1050367
1.0269346
0.97940609
0.97232948
0.98056668
0.98958476
1.0148904
1.071808
1.2225135
1.170193
1.0922304
1.0278065
0.99544158
0.99091553
0.99876397
1.001196
0.99250109
0.99536285
1.0288763
1.114143
1.233147
1.3322649
1.2876905
1.1609581
1.0472356
0.9850471
0.97214208
0.98610069
0.9871386
1.0020834
1.0407108
1.2813295
1.2052009
1.1094539
1.0398263
1.0090797
1.0112775
1.0265119
1.0355415
1.0238953
1.0194307
1.0418383
1.1104474
1.2279899
1.3453017
1.3325977
1.2145567
1.0910631
1.0185826
1.0005791
1.0166863
1.0250394
1.0315495
1.0474424
1.2527573
1.1917406
1.1241259
1.077224
1.0578458
1.0651558
1.082428
1.0918909
1.0785858
1.0678074
1.0807052
1.1305861
1.2141748
1.3060551
1.3149583
1.237309
1.1359844
1.066501
1.0499836
1.0639742
1.0803195
1.0755257
1.0713545
1.2123551
1.1723565
1.1348496
1.1136658
1.1170433
1.1336364
1.1472758
1.1515351
1.1350884
1.1209397
1.1257299
1.1584227
1.2149272
1.2762487
1.2863577
1.2406741
1.1688898
1.1157437
1.1046099
1.1199943
1.1370827
1.1237682
1.1036055
1.1964451
1.1677157
1.1446759
1.1422185
1.1675506
1.1955599
1.2084828
1.2101679
1.1889676
1.1660722
1.1616416
1.1860561
1.2298029
1.2715473
1.2785699
1.2435046
1.192874
1.1563085
1.1554574
1.1744033
1.1869593
1.1619153
1.1287715
1.2143173
1.1873546
1.1653986
1.1661853
1.1955462
1.2292373
1.2474788
1.2516985
1.230058
1.2051441
1.1990772
1.221035
1.2588706
1.2951197
1.3009053
1.2682304
1.2205908
1.1851773
1.1864962
1.1985466
1.2049912
1.18235
1.1530701
1.2701978
1.2356569
1.2021661
1.1898121
1.2089847
1.2384998
1.2579908
1.2655076
1.249734
1.2311878
1.2343761
1.2638245
1.3085553
1.3502975
1.3504481
1.3089493
1.2512185
1.206712
1.1979628
1.200414
1.2058054
1.1943428
1.1739991
1.3698888
1.3064239
1.2414994
1.2041908
1.2047218
1.2264095
1.2495683
1.2592309
1.2494896
1.2434773
1.2605973
1.3086309
1.3800392
1.4324257
1.4179307
1.3492358
1.2698146
1.213481
1.1934605
1.1907164
1.1934301
1.1919145
1.1965326
1.484823
1.3846668
1.2740533
1.2022888
1.1845596
1.2050275
1.2345033
1.2484552
1.2416329
1.2436014
1.2853757
1.3749986
1.4832692
1.5393713
1.4848862
1.3680371
1.2640585
1.2008681
1.1757259
1.1705677
1.1714313
1.1816322
1.2191806
1.5461977
1.4396853
1.3053905
1.2092425
1.17824
1.1991088
1.2382029
1.2530703
1.2479698
1.2632684
1.327442
1.4538618
1.587751
1.6179901
1.504939
1.3585077
1.2510771
1.1928334
1.1626905
1.1547913
1.1565584
1.189382
1.2711077
1.5252822
1.4732337
1.3621233
1.2554664
1.1916081
1.1890386
1.2300284
1.2805606
1.300481
1.3404004
1.4130092
1.5101646
1.5905357
1.5805898
1.4699047
1.3449802
1.2499945
1.1947545
1.1687627
1.164309
1.183955
1.2503385
1.3739753
1.4879916
1.5113964
1.511512
1.4593893
1.3714911
1.3154286
1.319256
1.3620591
1.3924863
1.4081133
1.4264662
1.4480753
1.4650294
1.4506052
1.4000664
1.3382615
1.2796272
1.2430622
1.2262096
1.2351429
1.2745583
1.3465894
1.4384821
1.3296692
1.3566737
1.4173395
1.5000789
1.568939
1.5752605
1.5302476
1.4810628
1.4272069
1.3749266
1.339704
1.3265666
1.3289576
1.3380039
1.3507529
1.3601411
1.3650586
1.3645616
1.3552428
1.3425179
1.3371777
1.340056
1.3454534
1.3162737
1.3376987
1.3917762
1.472233
1.5648954
1.6195793
1.5795602
1.4756091
1.3778
1.3081378
1.2747044
1.265967
1.2682428
1.2943242
1.3558679
1.4371851
1.499017
1.487948
1.4204362
1.3442502
1.2884939
1.2484342
1.2275949
1.4081727
1.430041
1.4560233
1.4781433
1.4943198
1.5022083
1.4664412
1.41
1.3572601
1.3200184
1.3028635
1.3044959
1.3186848
1.3542566
1.4103705
1.4680682
1.4904678
1.4504951
1.3717827
1.2939203
1.2371691
1.2082953
1.2040936
1.4721657
1.4771691
1.4582935
1.4314379
1.4062334
1.3836454
1.361222
1.3643018
1.3872119
1.4153652
1.4262942
1.418528
1.3971752
1.3808146
1.36647
1.3554815
1.3450175
1.331696
1.320623
1.3082118
1.2920798
1.2769653
1.2729641
1.4358524
1.4594985
1.4448672
1.4093617
1.3741745
1.3429903
1.3368353
1.3619461
1.4114922
1.4584872
1.4755136
1.4480384
1.3926933
1.3337759
1.287256
1.2588608
1.2523748
1.2695943
1.3071867
1.3566804
1.3951801
1.3985612
1.3602956
1.3374889
1.3916986
1.428181
1.4375353
1.417757
1.3906372
1.3756715
1.3733565
1.3806591
1.3886267
1.3917127
1.3816188
1.3591601
1.3274813
1.2953103
1.2737228
1.2681171
1.2822658
1.3150436
1.3481958
1.3641498
1.3642206
1.3552026
1.3201324
1.358359
1.4026289
1.4380622
1.4448486
1.4273087
1.398574
1.3660911
1.336521
1.3145742
1.3063152
1.3132631
1.3328706
1.3547497
1.3670664
1.360557
1.3378212
1.3108978
1.2874525
1.2675597
1.2577823
1.2658942
1.3046534
1.3621228
1.3718081
1.3808878
1.3847954
1.3837276
1.3827246
1.3781442
1.3633643
1.3392717
1.3146092
1.3003678
1.3019293
1.3188665
1.3448395
1.3654133
1.3688261
1.3530186
1.3227506
1.287749
1.2580782
1.2438357
1.2593891
1.3070208
1.3655818
1.3756957
1.3664403
1.3498685
1.3334379
1.3284187
1.3381281
1.3524969
1.3611637
1.3596123
1.3461882
1.3269216
1.3114129
1.3000691
1.2926779
1.2926062
1.2990281
1.3151038
1.333816
1.3469737
1.348888
1.3380619
1.3318897
1.3243484
1.3535732
1.3670498
1.3622622
1.345858
1.3311266
1.3261489
1.330999
1.3406133
1.3489727
1.3508892
1.342636
1.3216655
1.2917465
1.262806
1.2461237
1.251987
1.284974
1.3382664
1.3910201
1.4172455
1.3995115
1.3454798
1.3112282
1.3321976
1.3528663
1.36555
1.3639809
1.3525456
1.3353698
1.3177482
1.304563
1.299275
1.3032451
1.3130032
1.3208301
1.3183819
1.3020134
1.2789705
1.2652532
1.2732634
1.299845
1.3313645
1.3556919
1.3609496
1.3257072
1.324986
1.3345641
1.336509
1.3381019
1.337805
1.3383674
1.3360145
1.3267676
1.3100052
1.2911384
1.2778315
1.2730606
1.2824972
1.2997877
1.316761
1.3270411
1.3245272
1.314385
1.3021525
1.2941186
1.29008
1.2891692
1.2891745
1.3276061
1.3394636
1.3344607
1.3242776
1.3126552
1.3056678
1.3070475
1.3123213
1.3168843
1.3143515
1.3036879
1.2890079
1.2761556
1.2719019
1.2758018
1.2862843
1.3010888
1.3123322
1.3155452
1.3112596
1.2989034
1.2799241
1.2600281
1.3042385
1.3242655
1.332851
1.3303187
1.3186164
1.3050317
1.2950926
1.2927896
1.2968123
1.3037571
1.3094753
1.3078692
1.2973747
1.2813531
1.2667866
1.2595138
1.263317
1.2761817
1.2934465
1.3065889
1.3068226
1.2885702
1.2547098
1.293855
1.307907
1.3187185
1.3269165
1.3278884
1.3213659
1.3096075
1.2964695
1.2864356
1.2808837
1.2801183
1.2825187
1.2846388
1.2830401
1.2771236
1.2714152
1.2700817
1.2737291
1.2796608
1.2844997
1.2840636
1.2710635
1.2430321
1.30548
1.3115714
1.3107217
1.3101877
1.3093503
1.3084817
1.3064192
1.3006741
1.2905429
1.27907
1.269216
1.2631773
1.2610657
1.2620251
1.2653742
1.2715008
1.2802749
1.2874168
1.287229
1.2762879
1.2594659
1.2433165
1.2246268
1.3038039
1.3130147
1.3093062
1.3012245
1.2926966
1.2867179
1.2844144
1.2843994
1.2840707
1.2819466
1.278044
1.2725752
1.2656903
1.2589592
1.2550746
1.2564936
1.2634922
1.2730852
1.2759308
1.2647563
1.2428557
1.2203669
1.2103086
1.2819155
1.2968593
1.3022341
1.3016638
1.2963555
1.2884674
1.2814343
1.2761598
1.2725099
1.2709439
1.2707266
1.2709321
1.2699713
1.26551
1.2579087
1.251428
1.2501481
1.2522891
1.2538251
1.2475006
1.2321625
1.212485
1.2027757
1.275338
1.2863089
1.2922144
1.2956756
1.2955489
1.2928352
1.2879324
1.2805447
1.2714521
1.2621218
1.2553287
1.2522689
1.2519241
1.2524142
1.2516506
1.2492023
1.2469123
1.2456437
1.2426993
1.2370609
1.2272468
1.2138521
1.2021284
1.2816744
1.2893021
1.2888219
1.28566
1.2810046
1.2766945
1.273705
1.2712578
1.2672928
1.2608877
1.2528453
1.2456332
1.2416446
1.2406869
1.2412544
1.2424912
1.2424438
1.239691
1.2341169
1.2264041
1.2175063
1.2065353
1.1937525
1.2703444
1.2814436
1.2839947
1.2808456
1.2733261
1.2649849
1.2590418
1.2564057
1.2560043
1.2554831
1.2531904
1.2491116
1.2442917
1.2406924
1.2389954
1.238186
1.2362369
1.2307109
1.2223144
1.213541
1.2049315
1.1959587
1.1858955
1.2553719
1.2666082
1.2738161
1.2771239
1.2750821
1.2691403
1.261746
1.2554569
1.2514109
1.2488526
1.2463176
1.2427027
1.2380162
1.2334089
1.2302883
1.2281697
1.2250011
1.2191684
1.2120172
1.2048492
1.1984849
1.192072
1.1845175
1.2584313
1.2649082
1.2677996
1.2693148
1.2683514
1.2643916
1.2586768
1.2526817
1.2470172
1.242103
1.2376321
1.2327314
1.227669
1.2232302
1.2203822
1.2186253
1.216444
1.2127965
1.2081193
1.2030217
1.1974395
1.1913833
1.1840512
1.2575051
1.2624833
1.2623321
1.2601871
1.2563815
1.2516511
1.2466628
1.2419939
1.2379722
1.2344141
1.2310378
1.2272818
1.2235992
1.2204605
1.2183026
1.2166688
1.2141802
1.2108031
1.206527
1.2012669
1.1950727
1.1881417
1.1801788
1.2454197
1.2511151
1.2531268
1.2532337
1.2515704
1.2484389
1.2445994
1.2405366
1.2365305
1.2324427
1.2282404
1.2240383
1.2199532
1.2166444
1.2141467
1.2113184
1.2078141
1.203945
1.1999788
1.1958656
1.1913957
1.1863476
1.180182
1.2416731
1.2455671
1.2476919
1.2487614
1.2482588
1.2461532
1.2428549
1.2386042
1.2337271
1.2284056
1.2226455
1.2169262
1.2120591
1.2085795
1.2064917
1.2043508
1.2018361
1.1991156
1.1968867
1.1950031
1.1929688
1.1899186
1.1851677
1.2397259
1.2416122
1.2429194
1.243017
1.2414988
1.2386173
1.234707
1.2302725
1.2257903
1.2210887
1.2162965
1.2115288
1.2074061
1.2048482
1.2039239
1.2031007
1.2017749
1.1999006
1.1982293
1.1966385
1.1947745
1.1917297
1.1866246
1.2352585
1.2350545
1.2358784
1.2368964
1.2364281
1.2345615
1.2311751
1.2270003
1.2230114
1.2190768
1.2150734
1.2110482
1.2069275
1.2037185
1.2019007
1.2004188
1.1985081
1.1963272
1.1944634
1.1932199
1.1922115
1.1904904
1.1870379
1.2419916
1.2358731
1.2330541
1.2318279
1.2314388
1.2305742
1.2279705
1.2241884
1.2200704
1.2157588
1.2115319
1.2073028
1.2026943
1.1987373
1.1961071
1.1947641
1.193403
1.1922973
1.191799
1.1920887
1.1928847
1.1930742
1.1916285
1.2858585
1.247813
1.2352397
1.230129
1.2269035
1.2253655
1.2234343
1.2208175
1.2175148
1.213379
1.209342
1.2050732
1.2002967
1.1960848
1.1932148
1.192495
1.192089
1.1920967
1.192308
1.1927335
1.193275
1.1933006
1.1921761
1.3395871
1.2730998
1.2458319
1.2333933
1.2273375
1.2236875
1.2205761
1.2181964
1.2156577
1.2120807
1.2084517
1.2040951
1.1992437
1.1947286
1.1908412
1.1896144
1.1897243
1.1902192
1.1905758
1.1908711
1.1910508
1.1908965
1.1902819
1.3509885
1.3096571
1.2740358
1.2490521
1.2340629
1.2257731
1.220573
1.2166771
1.2134036
1.2099783
1.2069583
1.2030512
1.1989141
1.1948323
1.1904754
1.187538
1.1866897
1.1870092
1.1875115
1.1878879
1.1883267
1.1889488
1.1893108
1.3474574
1.3297016
1.3074286
1.2802258
1.2553096
1.2370054
1.2251293
1.2181036
1.2134761
1.2094647
1.2063268
1.2027196
1.1991271
1.1952666
1.1909442
1.1875852
1.1845823
1.1837309
1.1839374
1.1846023
1.1854231
1.1863915
1.1874039
1.3347353
1.3272408
1.3152834
1.3026184
1.2847462
1.2627021
1.2423302
1.2273474
1.2175327
1.2111065
1.2069911
1.2032372
1.1997103
1.1960989
1.1918662
1.1881835
1.1844848
1.1821359
1.1807678
1.1812249
1.1822339
1.1834527
1.1846663
1.3111741
1.3066509
1.3038217
1.3004325
1.2946287
1.2855923
1.2693111
1.2499012
1.232577
1.2193867
1.210648
1.2047024
1.2003847
1.1970203
1.1933444
1.1900644
1.1861772
1.1831755
1.1805526
1.1789451
1.178856
1.1796024
1.1807965
1.2766297
1.2682819
1.2719518
1.2805495
1.2862766
1.286465
1.2832655
1.2738247
1.2580948
1.2404093
1.2248745
1.2130155
1.2046651
1.1993315
1.1951249
1.1917759
1.1881512
1.1846846
1.1814449
1.1789477
1.1770569
1.1762663
1.1764911
1.2468666
1.2339837
1.2396164
1.2525131
1.2659212
1.2760697
1.2808587
1.2813434
1.2772427
1.2660387
1.2501752
1.2336698
1.2193147
1.2085452
1.2006545
1.1949663
1.1905005
1.1865787
1.1831439
1.1800466
1.1775938
1.1754473
1.1744534
1.2255962
1.2147113
1.2214447
1.2336036
1.2470476
1.260057
1.2708941
1.2778596
1.2807401
1.2801372
1.2735286
1.2612639
1.2458144
1.2302174
1.2164422
1.2053927
1.1972883
1.1912163
1.1866594
1.1827406
1.1795283
1.1767739
1.1747304
1.20961
1.2032038
1.2095535
1.2199702
1.2319452
1.2446464
1.2572113
1.268333
1.2765526
1.2811305
1.283199
1.2808391
1.2729096
1.2598921
1.2443489
1.2287113
1.2149664
1.2038577
1.1953985
1.1889244
1.1839666
1.1800611
1.1764897
1.1952034
1.191293
1.1955274
1.2036711
1.2140284
1.2259393
1.2388689
1.252038
1.2642657
1.2741683
1.280662
1.2838295
1.2844636
1.2813192
1.2732373
1.2608019
1.2457372
1.2302177
1.2160485
1.2042992
1.1949552
1.1879414
1.1808999
1.1807101
1.1762408
1.1764805
1.1809703
1.1885333
1.1984658
1.2104356
1.2240801
1.2385946
1.2526949
1.2649779
1.2744699
1.2804777
1.2830177
1.2833166
1.2807236
1.2743243
1.2634273
1.2494046
1.2341994
1.2195657
1.2072389
1.1928761
1.1687005
1.1599438
1.1551192
1.1545034
1.157337
1.1631472
1.1716358
1.1826587
1.1960848
1.2113686
1.2273816
1.2428821
1.2565754
1.2675113
1.2746388
1.2780618
1.2784962
1.2771335
1.2731017
1.265594
1.2542247
1.2407891
1.222208
1.158833
1.1455058
1.1364544
1.1310031
1.1284745
1.1285858
1.1313159
1.1366965
1.1448343
1.1559339
1.1698566
1.1859349
1.2031911
1.2205753
1.2367611
1.2505344
1.2609154
1.26732
1.2701031
1.2698812
1.2683108
1.2645174
1.2559745
1.1503703
1.1332591
1.1212648
1.1126847
1.1065886
1.1024293
1.100162
1.0998188
1.1014079
1.1052384
1.1118475
1.1215198
1.1342325
1.1497373
1.1674663
1.1863402
1.2050387
1.2222239
1.2369698
1.2482924
1.2557132
1.2599833
1.2629029
1.1429427
1.1220578
1.1086131
1.0989004
1.0913897
1.0853439
1.080637
1.0769416
1.074125
1.0725369
1.072719
1.07473
1.0789052
1.0857059
1.0953201
1.1080199
1.1238051
1.1420199
1.1617249
1.1819071
1.2010705
1.2184516
1.2366514
1.1366414
1.1139802
1.1013191
1.0911903
1.082688
1.0751388
1.0689449
1.0637584
1.0591192
1.0555245
1.0525999
1.0502585
1.0491595
1.0493487
1.0504964
1.0533496
1.0588123
1.0670043
1.0782592
1.0926282
1.1102403
1.1304006
1.1533307
1.1319575
1.111665
1.1001361
1.0888376
1.0782653
1.0689656
1.0613143
1.05499
1.0497719
1.0450899
1.0407502
1.0374352
1.034996
1.0322682
1.0297455
1.0281151
1.0270888
1.0271437
1.028475
1.0316172
1.0377579
1.0470318
1.06146
1.1304975
1.114431
1.1025497
1.0892719
1.0756393
1.0639725
1.0550605
1.0481159
1.0418013
1.0358311
1.0314112
1.028705
1.025738
1.021818
1.0182305
1.0152951
1.0128195
1.0107585
1.0088133
1.0075622
1.0073775
1.0088994
1.0138136
1.1275207
1.1152697
1.1016117
1.0855057
1.0692176
1.0563072
1.0466114
1.0385633
1.031932
1.0269742
1.0234898
1.0204848
1.0164881
1.012205
1.0091123
1.0068218
1.004746
1.0024611
1.0007575
1.0001181
1.0002191
1.0000731
1.0005265
1.1199509
1.1099401
1.0927125
1.0722602
1.0546961
1.0429697
1.034957
1.028409
1.0230984
1.0186454
1.0148003
1.0116078
1.0080413
1.0047193
1.0025773
1.0005811
0.99935549
0.9989139
0.9985729
0.99847175
0.99825762
0.99818594
0.99842758
1.1074343
1.0922976
1.0712526
1.0523569
1.0390161
1.0306563
1.0246581
1.0191701
1.0142808
1.0106466
1.0078949
1.0049047
1.0013908
0.9987409
0.99830483
0.99876568
0.99837513
0.99753876
0.99734376
0.99788087
0.99809376
0.99794282
0.99789944
1.0909638
1.0713284
1.0518597
1.0369564
1.0272731
1.021079
1.0162658
1.011998
1.0079674
1.0043857
1.0016701
0.99992392
0.99847461
0.99711429
0.99664247
0.99740719
0.99796492
0.99763257
0.99709306
0.99713735
0.99761511
0.99801845
0.99785542
1.0754388
1.0549445
1.0377279
1.0264103
1.0199809
1.0153755
1.0106321
1.0061085
1.002488
0.99999263
0.99856416
0.9976502
0.99693221
0.9965437
0.99669526
0.99733511
0.99780954
0.99703462
0.99614482
0.99688592
0.99789986
0.9979659
0.99683142
1.0624469
1.04395
1.0287542
1.0191767
1.0140552
1.0107105
1.0071024
1.0026538
0.99832962
0.99628018
0.99693975
0.99784203
0.99741595
0.99624258
0.99565821
0.99666524
0.99796658
0.99724045
0.99558278
0.99592037
0.99767509
0.99797044
0.99637346
1.0519398
1.0363375
1.0232442
1.014737
1.0098695
1.0065217
1.0030382
0.99950597
0.99687979
0.9959195
0.99642543
0.99721159
0.99717739
0.9964136
0.99552588
0.99574284
0.99691506
0.99720043
0.99661776
0.99597004
0.99636602
0.99714788
0.99693997
1.0439594
1.0304501
1.0190437
1.0111925
1.0062136
1.0030854
1.000562
0.99809247
0.99607277
0.99521225
0.99584634
0.99706469
0.9970522
0.99597496
0.99525812
0.99563661
0.99684188
0.99738837
0.99642553
0.99533539
0.99558372
0.99670333
0.99747248
1.0380956
1.0255493
1.0155478
1.0084315
1.0033934
1.0001729
0.99826314
0.99713587
0.99617012
0.99545628
0.99551402
0.99619738
0.99669215
0.99622507
0.9954766
0.99552275
0.99631261
0.99680076
0.99622991
0.99521296
0.99542118
0.99638435
0.99702319
1.0334818
1.0209694
1.0121118
1.006172
1.0015021
0.99807802
0.99653667
0.99640933
0.99627682
0.99578294
0.99547606
0.99556614
0.99586463
0.99607895
0.99600916
0.99583883
0.99564827
0.99572891
0.9959365
0.99568768
0.99546901
0.99585281
0.9962853
1.0300529
1.0170525
1.0088956
1.0039897
1.0000368
0.9968302
0.99543814
0.99580746
0.99643152
0.99617893
0.99535008
0.99490903
0.9953373
0.996086
0.99627825
0.99571449
0.99510457
0.99517779
0.99572884
0.99575166
0.99539823
0.99556215
0.99592124
1.0276198
1.0141075
1.0058978
1.0016069
0.99896599
0.99699817
0.99580038
0.99531266
0.99543486
0.99580099
0.99583075
0.99544963
0.99511702
0.99526757
0.99567342
0.99582183
0.99557807
0.99522656
0.99519023
0.99528006
0.99527024
0.99544796
0.99560042
1.0247486
1.0121983
1.004894
1.0005927
0.99774946
0.99629106
0.9959832
0.99588228
0.99563558
0.99541642
0.99537515
0.99546083
0.99554842
0.99547411
0.99534395
0.99543506
0.99543628
0.99530893
0.99527933
0.99537751
0.99530729
0.99495077
0.994795
1.0229413
1.0105629
1.0036542
1.0000172
0.99774269
0.99644737
0.99597105
0.9957935
0.99569062
0.99570193
0.99569634
0.9956818
0.99555938
0.99513648
0.99506206
0.99537216
0.99558087
0.9956377
0.99526342
0.99504401
0.99502359
0.99515903
0.99518517
1.0212164
1.009508
1.0031588
0.9997144
0.9976637
0.99652194
0.99613476
0.99613274
0.9959844
0.99563215
0.99555788
0.99574801
0.9956947
0.9954872
0.99538452
0.99512187
0.99514287
0.99547633
0.99567409
0.99548316
0.99495872
0.99461488
0.99485825
1.0191176
1.0089114
1.0034519
1.0000779
0.99772386
0.99630933
0.99598322
0.99631916
0.996349
0.99590495
0.99587891
0.99583353
0.99557621
0.99539771
0.99533
0.99539762
0.99548895
0.99526554
0.99521121
0.99528213
0.99531728
0.99520201
0.99504369
1.0180414
1.007973
1.003117
1.000205
0.99819804
0.99695286
0.99634835
0.99634787
0.99629126
0.99610874
0.99603743
0.99614005
0.99594354
0.99559479
0.99544487
0.9952023
0.99522139
0.99550301
0.99562902
0.99548009
0.99523568
0.99475291
0.99471805
1.0163147
1.0076588
1.0034773
1.0007944
0.99851569
0.99696905
0.99652864
0.99678998
0.99679038
0.99635693
0.99624122
0.99624098
0.99614273
0.99604516
0.9958163
0.99557625
0.99578008
0.99602759
0.99568525
0.99531212
0.99535261
0.99563983
0.99558666
1.0157307
1.0068401
1.0027665
1.0009855
0.99957577
0.99796764
0.99654358
0.99620414
0.9968145
0.99730379
0.99711645
0.9968935
0.99658519
0.996553
0.99671589
0.99648812
0.99634291
0.99661373
0.99673614
0.99651618
0.99598291
0.99567103
0.99596416
1.0145434
1.0068964
1.0027529
1.0004007
0.99926469
0.99861852
0.99766139
0.99669532
0.99668414
0.99784777
0.99877169
0.99833206
0.99741649
0.99753713
0.99859557
0.99940282
0.99923361
0.99834112
0.99774984
0.99821344
0.99848085
0.99792568
0.99705677
1.0129152
1.0063933
1.0033513
1.0007906
0.99876746
0.99816014
0.99861584
0.99894691
0.99869517
0.99858937
0.99959891
1.0014261
1.0025512
1.0024922
1.00227
1.0026709
1.0035186
1.0039339
1.0033301
1.0026184
1.0023242
1.0021272
1.001467
1.0123323
1.0055018
1.0029235
1.0013536
0.99991219
0.99891816
0.99934989
1.0011177
1.003101
1.0044233
1.0053691
1.0066155
1.0083437
1.0096754
1.0098958
1.0099103
1.0106783
1.0115314
1.0114832
1.0105106
1.0098089
1.0095808
1.0090569
1.012211
1.0052616
1.0021263
1.0012629
1.0016183
1.0028996
1.0045101
1.0064194
1.0091349
1.0121745