/*--------------------------------*- C++ -*----------------------------------*\
| =========                 |                                                 |
| \\      /  F ield         | OpenFOAM: The Open Source CFD Toolbox           |
|  \\    /   O peration     | Version:  2406                                  |
|   \\  /    A nd           | Website:  www.openfoam.com                      |
|    \\/     M anipulation  |                                                 |
\*---------------------------------------------------------------------------*/
FoamFile
{
    version     2.0;
    format      ascii;
    arch        "LSB;label=32;scalar=64";
    class       volScalarField;
    location    "120";
    object      T;
}
// * * * * * * * * * * * * * * * * * * * * * * * * * * * * * * * * * * * * * //

dimensions      [0 0 0 1 0 0 0];

internalField   nonuniform List<scalar> 
20580
(
1.0021186
1.0026347
1.0023017
1.0021097
1.0010906
1.0010877
1.0017218
1.0015037
1.0014542
1.0011497
1.0014079
1.0015586
1.0012019
1.0011156
1.0014478
1.0015478
1.0003826
1.001526
1.0022663
0.99972557
1.0006731
1.0024248
1.0012069
0.99893437
1.0010171
1.0045647
1.0025733
1.000556
1.00333
1.0001709
0.98866237
1.0020994
1.0024408
1.0023099
1.0022085
1.0011842
1.0011098
1.0018137
1.0015714
1.0013929
1.0010348
1.0014924
1.001576
1.0009843
1.0011351
1.0016449
1.0010956
1.0001412
1.0023673
1.0016547
0.999198
1.0016212
1.002418
1.0002585
0.99886352
1.0024461
1.0067869
1.0027141
0.99654047
0.99981634
1.0040359
0.9960995
1.0022057
1.0020769
1.0021069
1.0020414
1.0014813
1.001402
1.0017722
1.001619
1.0013614
1.001065
1.0014814
1.0015561
1.000883
1.0011753
1.0017317
1.0008521
1.0001235
1.0028158
1.0011117
0.9989364
1.0024845
1.0025033
0.99960826
0.9993413
1.0024314
1.0066148
1.0027794
0.99430835
0.99566136
1.0053919
1.0064834
1.0023755
1.0016838
1.0017255
1.0016819
1.0017732
1.0018044
1.0016047
1.0016069
1.0013791
1.0012142
1.0014635
1.0014897
1.0009078
1.0012887
1.0016829
1.0008925
1.0003995
1.0028517
1.0006451
0.99913008
1.003038
1.0022444
0.99959797
1.0003494
1.0018222
1.0040999
1.0024117
0.99477523
0.99308975
1.0028977
1.0122719
1.0024636
1.0014174
1.0013491
1.0013188
1.0019143
1.002017
1.0014129
1.0014948
1.0013731
1.0013773
1.0014419
1.0013537
1.0010594
1.0014333
1.0015575
1.0010757
1.000926
1.0025424
1.0001452
0.99980072
1.0032905
1.0013949
0.99985888
1.0019031
1.0013491
1.0005807
1.0011167
0.99736722
0.99386544
0.99879719
1.0096442
1.0024015
1.0013068
1.0011429
1.0011045
1.0018432
1.0019105
1.0012876
1.0013797
1.0013034
1.0015229
1.0014245
1.0011445
1.001291
1.0015227
1.00133
1.0012241
1.0016098
1.0019298
0.99975573
1.0007629
1.0032005
1.0002857
0.99972223
1.0036039
1.0016382
0.99743012
0.99904086
1.0013085
0.99825238
0.99634095
1.0014335
1.0023477
1.0014541
1.0012418
1.0010892
1.0016396
1.0015638
1.0012627
1.0013017
1.0012871
1.001595
1.0013873
1.0009936
1.0015127
1.0015564
1.0010085
1.0012544
1.0021974
1.0011853
0.99965189
1.0017092
1.002815
0.99934747
0.99923576
1.0043984
1.0027329
0.99586075
0.99674211
1.0038732
1.0044431
0.99830129
0.99338953
1.0023048
1.0017762
1.0015929
1.0013249
1.0014301
1.0011653
1.0012709
1.0011992
1.0013419
1.0016336
1.0013047
1.0009303
1.0016486
1.0015275
1.0007873
1.0011597
1.0024455
1.0005518
0.9997475
1.002421
1.0022807
0.99869949
0.99896215
1.0038907
1.0034949
0.99647508
0.99576869
1.0036423
1.0084981
1.001932
0.99140379
1.0021081
1.0021134
1.001991
1.0017065
1.0013346
1.0009273
1.0012811
1.0011248
1.001399
1.001579
1.0012422
1.0009857
1.0016421
1.0014223
1.0008157
1.0010216
1.0023048
1.0001992
1.0000923
1.0028174
1.0016219
0.99882016
0.9994344
1.0025109
1.0031348
0.99871659
0.99668604
1.0013835
1.0082008
1.0051899
0.9938875
1.0017015
1.0021403
1.0022069
1.0019651
1.0013018
1.0009756
1.0013048
1.001179
1.0014558
1.0013805
1.001183
1.0011751
1.0015039
1.0012323
1.0010095
1.0008858
1.0018834
1.000023
1.000712
1.0029072
1.0006716
0.99965794
1.0008153
1.0011011
1.0013989
1.0011949
0.99949733
0.99986183
1.0030949
1.0050852
0.9988801
1.0015488
1.0019645
1.0020448
1.0019429
1.0013085
1.0012597
1.0013688
1.0013099
1.0014245
1.0011174
1.0011446
1.0014208
1.0012747
1.001018
1.0012383
1.0009086
1.0013433
1.0000031
1.0015008
1.0027475
0.99958068
1.0005189
1.0029116
1.0004335
0.99877244
1.0022026
1.0033063
1.0005548
0.99721175
1.0001163
1.0026677
1.0016756
1.0017921
1.0016043
1.0017959
1.0013714
1.0015904
1.0013874
1.0014206
1.0012563
1.0009155
1.0010948
1.0015819
1.0010267
1.0008237
1.0014253
1.0011025
1.0007902
1.0002187
1.0021177
1.0023153
0.99877889
1.0008747
1.0046279
1.000532
0.99643597
1.0010745
1.0059271
1.0020299
0.99459013
0.99292502
1.0007408
1.0020199
1.001582
1.0011919
1.0015257
1.0014131
1.0017365
1.00135
1.0014784
1.0011122
1.0008673
1.0010442
1.0015687
1.0009125
1.000675
1.0014978
1.0013203
1.0003378
1.0005231
1.0024093
1.0017734
0.99826716
1.0007206
1.005081
1.0007972
0.99542026
0.99898721
1.0057709
1.0036284
0.99509726
0.98978956
0.99553134
1.0022995
1.0014096
1.0010692
1.0011722
1.0014406
1.0017033
1.0013321
1.0014342
1.0011467
1.0009676
1.0010552
1.0014281
1.0009705
1.0006908
1.0014041
1.0014574
1.0002039
1.000862
1.0023208
1.0013409
0.9983995
1.0005544
1.0041787
1.0010251
0.99634584
0.99812894
1.0029888
1.0041037
0.9977291
0.99223235
0.99286979
1.0022875
1.0012969
1.0011667
1.0009218
1.0014287
1.0014084
1.0012894
1.0012961
1.0012479
1.0011126
1.0011164
1.0012634
1.0010618
1.0009228
1.0011699
1.0014682
1.0003451
1.0012327
1.0019329
1.00086
0.99936566
1.0009346
1.0021704
1.0007666
0.9987739
0.99944825
1.0001038
1.0018945
1.0013532
0.99810759
0.99586809
1.0021322
1.0013364
1.0013939
1.0009558
1.0013197
1.0009869
1.0011917
1.001149
1.0012414
1.0012064
1.001183
1.0010691
1.001094
1.0012686
1.0008986
1.001358
1.0005481
1.0016503
1.0013927
1.0001908
1.000869
1.0018065
1.0002507
0.99929431
1.0014444
1.0020027
0.99931813
0.99769723
1.0018441
1.0040258
1.0018733
1.0022073
1.001619
1.0018039
1.0012968
1.0013104
1.0008321
1.0011627
1.0011058
1.0012022
1.001268
1.0012441
1.0008987
1.0010836
1.0015267
1.0006814
1.0010671
1.0006764
1.0019057
1.0008644
0.99951445
1.0020948
1.0028225
0.99897697
0.99739384
1.0025006
1.0044936
0.99974193
0.99431695
0.99827718
1.0053022
1.0066011
1.0020409
1.0019303
1.0020624
1.0017733
1.0014447
1.0010789
1.0012277
1.0011157
1.0011947
1.0013457
1.0013476
1.0008342
1.0011195
1.0016931
1.0006382
1.0007571
1.0008241
1.001943
1.0004948
0.99919468
1.0024226
1.0037416
0.99873785
0.99608767
1.0018217
1.0059046
1.0006707
0.9936792
0.99444369
1.0024918
1.0071677
1.0016397
1.0019935
1.0019208
1.0020084
1.0014346
1.0014401
1.0012381
1.0011011
1.001115
1.0013613
1.0013738
1.0008403
1.0011431
1.0017156
1.0007578
1.0005773
1.0009438
1.0017838
1.000391
0.99936233
1.0021285
1.0038899
0.99914632
0.99660937
1.0006632
1.0050315
1.0013587
0.99519033
0.99410101
0.99866827
1.0039872
1.0016252
1.0019365
1.0016272
1.0019906
1.0013583
1.0016301
1.0012382
1.0011092
1.0010357
1.0012787
1.0012049
1.0008949
1.0010839
1.0014453
1.0009309
1.0005657
1.0009661
1.0013629
1.0005912
1.0000552
1.0015972
1.002681
1.0002026
0.99846508
1.0005523
1.002542
1.0014588
0.99840341
0.99704819
0.99795187
1.0003896
1.001723
1.0017155
1.0014102
1.0017444
1.0014011
1.0016633
1.0013087
1.0012006
1.0011202
1.0011955
1.0010514
1.0010619
1.0011157
1.0010331
1.0011043
1.0007272
1.0010367
1.0008125
1.00078
1.0010766
1.0011354
1.0008046
1.000737
1.0009583
1.0014866
0.99967023
0.99942799
1.0013837
1.0014523
0.99989873
0.99766324
1.0019956
1.0013535
1.0013485
1.0011548
1.0012607
1.0012033
1.0011427
1.0011154
1.0011443
1.0008922
1.000764
1.0010852
1.0010184
1.0004677
1.0010782
1.0007877
1.0010815
1.0001963
1.0005987
1.0020489
1.0007599
0.99888332
0.9999579
1.0028497
1.002355
0.99761808
0.99586652
1.0009874
1.004823
1.0021363
0.99640072
1.002242
1.000331
1.0010262
1.0000313
1.0007201
1.0002843
1.0006646
1.0008198
1.0008822
1.0003688
1.0002307
1.0007272
1.0006665
0.9997535
1.0007523
1.000652
1.0008849
0.99952736
1.0000417
1.0023128
1.0005078
0.99747146
0.99839135
1.0030061
1.0032009
0.9969637
0.99308047
0.99810509
1.0050611
1.0037528
0.99660233
0.99086893
0.99436906
0.99894582
1.001769
1.0024803
1.0018289
0.99921288
0.99741916
0.99861108
1.0018787
1.0048914
1.0060184
1.0009764
0.99014167
0.98367886
0.98712146
0.9973789
1.0064634
1.0090172
1.0038008
0.99545993
0.99147433
0.99354231
1.0001759
1.0024155
1.0019605
0.9975927
0.9914136
0.98666811
0.98809184
0.99444127
1.0022491
1.0071949
1.0081835
1.0048156
0.99868702
0.99283168
0.99136856
0.99622398
1.0025296
1.0032183
0.99472043
0.98406039
0.98238908
0.99107233
1.0031355
1.0080983
1.0063073
1.0020991
0.99604383
0.99076283
0.98958177
0.99351755
0.99903966
1.0010265
0.99713028
0.98996534
0.98739486
0.9915676
0.99948059
1.0059385
1.0102638
1.010232
1.0013097
0.98607314
0.97578702
0.97902099
0.99095954
1.0050657
0.99344525
0.99431545
0.99691348
1.000542
1.0038174
1.0057316
1.0090503
1.0069629
0.99875793
0.98555143
0.97431868
0.97556355
0.98665536
0.99985382
1.0075793
1.0068917
1.0010381
0.9945349
0.99071391
0.98878424
0.99228664
0.99989543
1.0045039
0.97690527
0.98265401
0.99274994
1.0027075
1.0080955
1.0080935
1.0055238
1.0018083
0.99694918
0.98998668
0.98465357
0.98691591
0.99655891
1.0024144
0.99683614
0.98106012
0.97105851
0.97527424
0.98880895
1.0023569
1.0098625
1.0136363
1.0068928
0.98573097
0.99392166
0.99982224
0.99932774
0.99095607
0.98029492
0.97596599
0.98044604
0.99003099
1.0005432
1.0051225
1.0065353
1.010504
1.0059337
0.99158722
0.96931601
0.95412894
0.95976533
0.97867751
0.99947037
1.0085924
1.0060617
0.99734749
1.0104736
1.0094423
1.0031829
0.99163327
0.97704579
0.96242201
0.957233
0.96560454
0.98293746
1.0006033
1.0078811
1.0029029
0.99918277
0.99665082
0.99265413
0.9824722
0.96861931
0.96877142
0.98138014
0.99403129
0.99165227
0.97207545
0.96268545
1.0012267
1.0019352
1.0005442
0.99436534
0.98217621
0.97028637
0.96811453
0.97893174
0.99203353
0.99732086
0.9864498
0.96630729
0.95652821
0.96413704
0.98016666
0.99605772
0.99730628
0.99204373
0.99669497
0.99670583
0.98269165
0.95417503
0.93037383
0.96178655
0.97001621
0.98140304
0.99267635
0.99850321
0.9968596
0.99282786
0.9974648
0.9991712
0.99287263
0.97296457
0.94386843
0.9220184
0.92788144
0.95153156
0.98474476
1.0063096
1.0045607
0.9991121
0.99436056
0.98477716
0.96299345
0.93447843
0.93759515
0.94693777
0.96416806
0.9836977
0.99921373
1.0015758
0.9947712
0.99359017
0.992666
0.98868976
0.97459048
0.94655878
0.92074464
0.92142484
0.94020031
0.97043005
0.98824454
0.98116069
0.964847
0.96612238
0.9763519
0.97920991
0.96337582
0.93649151
0.95241488
0.97368816
0.9880676
0.98627592
0.96536778
0.94473333
0.94655545
0.96257854
0.9816274
0.98526525
0.96891027
0.94133599
0.93096294
0.947103
0.96893189
0.97376316
0.94960429
0.91405088
0.91012251
0.93200204
0.96757591
0.98564594
0.96133966
0.9745998
0.98609671
0.98238664
0.95853983
0.92119662
0.89158373
0.8872282
0.90792525
0.94393501
0.97793818
0.98819143
0.97047861
0.94497831
0.95093362
0.96324692
0.96134026
0.93135026
0.8911175
0.86475245
0.87998009
0.92111696
0.97035358
0.98477796
0.98792187
0.98392725
0.96260052
0.92723674
0.88622295
0.8556812
0.84714923
0.86680455
0.90523115
0.94949228
0.97802064
0.9760801
0.94746116
0.94405042
0.95143465
0.94908413
0.92348535
0.88049321
0.84401099
0.84924254
0.88274888
0.93736485
0.97537178
0.97756481
0.97246222
0.94940344
0.90949978
0.8646161
0.83130194
0.8210474
0.84357956
0.88548151
0.92993898
0.9553324
0.9510189
0.92218632
0.91776836
0.93122077
0.9378244
0.91937848
0.87560662
0.83628682
0.83231879
0.861288
0.91393489
0.93954578
0.94880103
0.95611236
0.94228653
0.90187655
0.85156545
0.81493504
0.80468421
0.83026435
0.87510395
0.91854066
0.93326496
0.91386964
0.88197421
0.87881582
0.90168272
0.9230749
0.91482075
0.8738466
0.8311492
0.81879779
0.84771675
0.89837725
0.89960719
0.91689712
0.93637336
0.93097603
0.89286976
0.83900813
0.80043006
0.79170548
0.81998405
0.86628065
0.90250937
0.90507688
0.87528457
0.84584539
0.84604837
0.87367646
0.90468579
0.90461847
0.8679679
0.82378031
0.8065626
0.83813725
0.8877268
0.87045691
0.89224089
0.91527689
0.91232102
0.87449647
0.82011161
0.78351456
0.77801973
0.8087166
0.85310265
0.87808373
0.8719248
0.8412826
0.81835298
0.8239629
0.85287007
0.88515569
0.8859727
0.85104401
0.80928672
0.79625791
0.83194251
0.87737466
0.85483554
0.87526303
0.89713984
0.89252566
0.85399634
0.79952273
0.76276027
0.75678
0.78595101
0.8281081
0.85125633
0.84535682
0.81924381
0.80146334
0.80974376
0.8366431
0.86319835
0.86102215
0.82727037
0.79367822
0.78760147
0.82087178
0.86271825
0.84493422
0.86316985
0.88231165
0.87390527
0.83186582
0.77642216
0.7381788
0.72978849
0.75580919
0.79579005
0.8225734
0.82304202
0.8052844
0.79294959
0.80104192
0.82366859
0.84124472
0.83362498
0.80171907
0.77638643
0.77608004
0.80736428
0.84569377
0.84273135
0.85627921
0.86746259
0.85334582
0.80743982
0.75241538
0.71475943
0.70455578
0.72636313
0.76338011
0.7935483
0.80277561
0.79639757
0.79070119
0.79892156
0.81421854
0.81960154
0.8035472
0.77371736
0.75508065
0.76083399
0.79184797
0.82984075
0.83565054
0.84644081
0.85121029
0.83277329
0.78668266
0.73370289
0.69621379
0.68448589
0.70225841
0.73522477
0.76921338
0.78959682
0.79450992
0.79467186
0.80017999
0.80247519
0.79340983
0.76990659
0.74579181
0.73522436
0.74676517
0.77818896
0.81484601
0.81497748
0.82595551
0.83253688
0.81807093
0.77637227
0.72145659
0.6797665
0.66627409
0.68199873
0.71457087
0.751001
0.777964
0.78944431
0.79160212
0.79244334
0.78494127
0.76563751
0.74081754
0.72305699
0.71930255
0.73664506
0.77047877
0.80321347
0.73017183
0.7555944
0.79055123
0.80659529
0.79407959
0.75178163
0.6971889
0.66674401
0.67927711
0.71020607
0.74469474
0.76348068
0.76740836
0.77167499
0.77499718
0.76604329
0.74363889
0.72038008
0.70732949
0.7136099
0.73876026
0.77277487
0.79842276
0.61650235
0.63278957
0.664734
0.70719668
0.74658246
0.764107
0.74718671
0.7227985
0.71861772
0.72631571
0.73462643
0.73400157
0.73220308
0.74286284
0.7528638
0.75014573
0.73345192
0.71686866
0.71261884
0.73066317
0.75848838
0.77985347
0.7873344
0.6502378
0.65943986
0.6717805
0.68744008
0.70716949
0.73034036
0.74543071
0.74242326
0.73397562
0.72315845
0.70891469
0.69783619
0.70004312
0.71713662
0.73583011
0.74240857
0.73877469
0.73634489
0.74596104
0.76104235
0.76777727
0.76314956
0.75868181
0.68048335
0.68118248
0.68839995
0.69889337
0.70413805
0.70968503
0.72161444
0.72881176
0.72329256
0.70693144
0.68893894
0.68045573
0.68842478
0.70781112
0.73142053
0.75049132
0.76219267
0.76765221
0.77004615
0.76371802
0.74970063
0.73680661
0.73481638
0.70562889
0.69124098
0.68181857
0.67681465
0.67484929
0.67811568
0.69797514
0.71591303
0.71735237
0.70336033
0.69119021
0.69071002
0.70513031
0.72480156
0.74337694
0.75799556
0.76691026
0.7709742
0.76587361
0.75026484
0.73442445
0.72785537
0.73484688
0.73469921
0.70532199
0.68043601
0.66526979
0.6613566
0.67181064
0.6932983
0.71317818
0.72202447
0.72228464
0.7217783
0.72618347
0.73343438
0.73817768
0.7393437
0.74049483
0.74513638
0.7524687
0.75593931
0.75272631
0.74737588
0.74789842
0.75744553
0.73212067
0.70963104
0.68964036
0.67718966
0.6757768
0.6878497
0.70385408
0.71880703
0.7298867
0.73811059
0.74327525
0.74566106
0.74235754
0.73450206
0.72691768
0.72412627
0.72973473
0.74221179
0.75544192
0.76732778
0.77896421
0.78581048
0.785785
0.72553256
0.71034589
0.70206648
0.69991742
0.70537571
0.71565934
0.72334299
0.72721717
0.72928969
0.73285831
0.73793082
0.74240911
0.74260139
0.73814862
0.73332211
0.73275516
0.73926735
0.75061574
0.762848
0.77352347
0.78188595
0.78677598
0.78381693
0.72997679
0.71647485
0.7119498
0.71690045
0.72763937
0.73587224
0.73689102
0.73241341
0.72723814
0.72502769
0.72751196
0.73484635
0.74373066
0.75175849
0.75795595
0.76211627
0.76462936
0.76453422
0.76225212
0.75966924
0.75797632
0.75610408
0.75097695
0.74440315
0.72945811
0.72035337
0.71980153
0.72772227
0.7366093
0.74064905
0.73925197
0.73507667
0.7321016
0.73302924
0.7389285
0.74799862
0.75859992
0.76827943
0.77473623
0.77679512
0.77248312
0.76309802
0.75210679
0.74126112
0.73034772
0.72167316
0.75380174
0.73914257
0.72779869
0.72281138
0.72569284
0.73213354
0.73905429
0.74468456
0.74872934
0.7511004
0.75221363
0.75310661
0.75476827
0.75690375
0.76008125
0.76458068
0.76995832
0.77278357
0.77102332
0.76382385
0.74931545
0.73087594
0.71807509
0.74855124
0.74143418
0.73680531
0.73464961
0.73652302
0.7397796
0.74325149
0.74747917
0.75275804
0.75841562
0.76303926
0.76555761
0.76447215
0.76106393
0.75813956
0.75746072
0.76046135
0.76390084
0.76616632
0.76408381
0.75638377
0.74458017
0.7354824
0.75102499
0.74211531
0.74147027
0.74469257
0.7500004
0.7533827
0.75357231
0.75256509
0.75279076
0.75550617
0.7608877
0.76762312
0.77316929
0.77514958
0.77252576
0.76663663
0.75995124
0.75382687
0.74963787
0.74847982
0.75140567
0.75913416
0.7691244
0.75918255
0.74809172
0.74401897
0.74518198
0.75075358
0.75703783
0.76081621
0.7614586
0.75970015
0.75838178
0.75938728
0.76314545
0.76995915
0.7772181
0.78290014
0.78413354
0.77800747
0.76583203
0.75305442
0.74583379
0.74729737
0.75957145
0.78078987
0.7642929
0.75465315
0.74905634
0.74720372
0.74968428
0.75439978
0.75970381
0.76437568
0.76809819
0.77023505
0.77082404
0.77099854
0.77195397
0.77456076
0.77787442
0.78027946
0.77973421
0.77425115
0.76664217
0.76114111
0.76160914
0.77061941
0.78725607
0.76284698
0.75638279
0.75431759
0.7539375
0.75571106
0.75840743
0.76118558
0.76468861
0.76901113
0.77407917
0.77888878
0.78199403
0.78277527
0.78150225
0.77954968
0.77746202
0.77491395
0.77178767
0.76963199
0.77076764
0.77623593
0.7863857
0.79919518
0.76468181
0.75734924
0.75645166
0.75884022
0.76343515
0.7676079
0.76975082
0.77040872
0.77133602
0.77364208
0.77731436
0.78168569
0.78559961
0.78803339
0.78793426
0.78569053
0.78163915
0.77687555
0.77393195
0.77592018
0.78360983
0.79561298
0.80846325
0.77198622
0.76313926
0.75981471
0.76035899
0.76441702
0.76994457
0.77447113
0.77693735
0.77763738
0.7780251
0.77917258
0.78143765
0.78455825
0.7878223
0.79051562
0.79179917
0.79083399
0.78771704
0.78480264
0.78510562
0.79056774
0.8016942
0.81467566
0.77654388
0.76894303
0.76498862
0.76356929
0.76536181
0.76940242
0.7739103
0.77797517
0.78141833
0.78427867
0.78684757
0.7890158
0.79062748
0.79179176
0.79275114
0.79318121
0.79264973
0.79177344
0.79191513
0.79439714
0.79959082
0.80821141
0.82079695
0.77644449
0.77065337
0.76905741
0.76933004
0.77152727
0.77461406
0.77771817
0.78052677
0.78342212
0.78677748
0.79057971
0.79447779
0.7976928
0.79932222
0.79901647
0.79718751
0.79495483
0.79399162
0.79636588
0.80219876
0.80963731
0.81743966
0.82763637
0.78004761
0.77353337
0.77235785
0.77375357
0.7772149
0.78146527
0.78496216
0.78706603
0.7883076
0.789531
0.79166199
0.79484985
0.79846306
0.80158661
0.8031559
0.80241377
0.80064034
0.80052638
0.80419817
0.81159338
0.82009303
0.82775662
0.83536347
0.78695791
0.78007329
0.77737574
0.77709102
0.77932756
0.7830694
0.78706417
0.79047872
0.79295859
0.7946637
0.79612126
0.79801633
0.80067743
0.80354903
0.80561585
0.80634498
0.80639001
0.80811422
0.81299649
0.81995802
0.82728809
0.83370019
0.83947856
0.78950618
0.7842098
0.78227315
0.78170164
0.78276515
0.78515342
0.78832474
0.79183148
0.7954441
0.79885109
0.8018852
0.80458319
0.80699035
0.80910465
0.81051538
0.81117539
0.81213226
0.81495999
0.81972712
0.82543856
0.8310898
0.83648961
0.84212485
0.79084385
0.78623979
0.78567447
0.78666171
0.78880359
0.79150258
0.79416041
0.79673736
0.79948931
0.80251296
0.80563438
0.80858119
0.81110354
0.81291303
0.81398226
0.81484787
0.8166408
0.82013683
0.82468523
0.82939064
0.83421145
0.8393393
0.84531284
0.79664836
0.79143092
0.7899777
0.79049081
0.79268458
0.79569204
0.79872859
0.80142342
0.80377596
0.8061321
0.80866738
0.81122043
0.81358184
0.81536146
0.81662501
0.81816106
0.82095379
0.82493769
0.82912936
0.83310998
0.8370684
0.84161292
0.84733933
0.80136092
0.79671251
0.7945474
0.79383985
0.7948019
0.79713746
0.80014634
0.80322203
0.80615189
0.80901205
0.81193753
0.81485583
0.81761333
0.81972807
0.82131148
0.82322444
0.8260423
0.82942694
0.83259714
0.83535782
0.83810392
0.84166047
0.84675109
0.80212466
0.79913293
0.797831
0.79753023
0.79857038
0.80079934
0.80376847
0.80693741
0.810003
0.81290795
0.81582174
0.81882695
0.8216042
0.82369517
0.82519934
0.82674608
0.8288461
0.83116496
0.83328687
0.83525356
0.83753895
0.84082672
0.84577703
0.80481347
0.80255492
0.80167749
0.80166944
0.80275845
0.80489275
0.80772544
0.81070739
0.81351499
0.81612252
0.81865092
0.82129547
0.82388729
0.8258882
0.82734561
0.82875282
0.83047842
0.83220607
0.83384148
0.835515
0.83764074
0.84070962
0.84524105
0.80851888
0.80698337
0.80588869
0.80540313
0.80580879
0.80725136
0.80948515
0.81213436
0.81491124
0.81763727
0.82042922
0.82336533
0.82626453
0.82859859
0.83025348
0.83164618
0.83309827
0.83434211
0.83537277
0.83635274
0.83768582
0.83981917
0.8431422
0.80899538
0.80948815
0.80941296
0.80901967
0.80914403
0.81022991
0.81214304
0.8146062
0.81740543
0.82028821
0.82326532
0.82642068
0.82946241
0.83180953
0.83312949
0.83386882
0.83453325
0.83504312
0.83537623
0.83576739
0.83646046
0.83782272
0.84024733
0.80571462
0.80954549
0.81156078
0.81253846
0.8127587
0.81346754
0.81487349
0.81698439
0.81956698
0.82228074
0.82509011
0.82803199
0.83090486
0.83326974
0.83437909
0.83479214
0.8350148
0.83528723
0.8355364
0.83584466
0.83640516
0.83735891
0.83898017
0.77907352
0.80221195
0.810193
0.81324231
0.81512602
0.816247
0.81728681
0.81893865
0.82120017
0.82372407
0.82649123
0.82934439
0.83215509
0.83480178
0.83635436
0.83668412
0.83672556
0.83686174
0.83695849
0.83694758
0.83694883
0.83709977
0.83766909
0.74684563
0.78604805
0.80327208
0.81125714
0.81519489
0.81781807
0.8196879
0.82127009
0.82311343
0.82522207
0.82773913
0.83035339
0.83312308
0.83598579
0.83822187
0.83886663
0.83866452
0.83841048
0.83814737
0.83777366
0.83726894
0.83680564
0.83660081
0.74088027
0.76453287
0.7860013
0.80165762
0.81133064
0.81678927
0.81993324
0.82239604
0.82450294
0.82639902
0.82861019
0.83088538
0.83340995
0.83609725
0.83864201
0.84060782
0.84080102
0.84022754
0.83951726
0.83881554
0.83807686
0.83738911
0.83691871
0.74289203
0.75291669
0.7658718
0.78213857
0.79761969
0.80936568
0.81691835
0.82150384
0.82449381
0.82684608
0.82910648
0.83118725
0.83340251
0.83585628
0.83838661
0.84076269
0.84233161
0.84251631
0.84169467
0.84064117
0.8396493
0.83871667
0.83794118
0.74973876
0.75395081
0.76081848
0.76828141
0.77904652
0.79265514
0.80550379
0.81532666
0.82188591
0.826019
0.82897632
0.83124764
0.83337812
0.8355147
0.8376938
0.84016484
0.84213344
0.84363462
0.84403311
0.84333553
0.84220348
0.84099256
0.83975513
0.76287014
0.76538154
0.76709796
0.76926704
0.77290706
0.77853333
0.78848465
0.80068422
0.81191585
0.8204232
0.82628902
0.83013018
0.83287315
0.83518253
0.83723462
0.83948288
0.84161038
0.84356749
0.84486921
0.84561805
0.84514733
0.84408692
0.8425543
0.78337473
0.78841072
0.78605061
0.78083806
0.77751108
0.77758139
0.77957613
0.78543058
0.79538071
0.80663806
0.81673476
0.82446434
0.82982641
0.83362074
0.83635113
0.83871072
0.84080402
0.84287719
0.84462806
0.84593618
0.84678544
0.84679574
0.84599143
0.80161546
0.81004653
0.80645262
0.79820798
0.78979598
0.78361893
0.78080758
0.78060342
0.78321081
0.79011385
0.8000412
0.8106657
0.82002743
0.82738024
0.83266186
0.8364251
0.83922436
0.84154089
0.8436297
0.84541804
0.84675781
0.84788846
0.84815304
0.81530846
0.82273693
0.81832928
0.8103449
0.80163535
0.79340488
0.78671552
0.78246541
0.78066711
0.78095822
0.78499259
0.79280303
0.80279142
0.81299475
0.82199592
0.82916614
0.83456585
0.83851435
0.84157066
0.84399435
0.84596772
0.84755613
0.84868857
0.82625514
0.83060907
0.82617838
0.81910041
0.81115417
0.80293162
0.79497886
0.78804547
0.78299242
0.78024334
0.77905226
0.78060447
0.78557646
0.79365777
0.80346686
0.81346674
0.82253555
0.82998202
0.83575703
0.84010122
0.843415
0.84591829
0.84815645
0.83591098
0.8386709
0.83570172
0.83007876
0.82301392
0.81502285
0.80654185
0.7981105
0.79045202
0.78438812
0.78047356
0.77851793
0.77807144
0.77992075
0.78495553
0.79281041
0.80242401
0.81245738
0.82177284
0.82968736
0.836037
0.8407297
0.84542668
0.84593745
0.84914786
0.84902962
0.84590841
0.84058376
0.83355797
0.82523021
0.81606557
0.80661591
0.79758777
0.78981991
0.783946
0.78033834
0.77886927
0.77872483
0.78035094
0.78434933
0.79115053
0.7999735
0.80971757
0.81928927
0.82744326
0.8372677
0.85456474
0.86088826
0.86438574
0.86483805
0.86280347
0.8586227
0.85243942
0.84443715
0.83493766
0.82450085
0.81382096
0.80370912
0.79501657
0.78826946
0.78389993
0.78177532
0.78153882
0.78249175
0.78506938
0.78971467
0.79679733
0.80531755
0.81764925
0.86121496
0.87137909
0.87842911
0.88260756
0.8844652
0.88442837
0.88246977
0.87841136
0.87212188
0.86371244
0.85350802
0.8420117
0.82992049
0.81811547
0.80751708
0.79876005
0.79230882
0.78837215
0.78667546
0.78683271
0.78787239
0.79031691
0.79580755
0.86690567
0.8804625
0.89013066
0.89689579
0.90160689
0.90492471
0.90695472
0.90753255
0.90635266
0.90311941
0.8976757
0.88994532
0.88001162
0.86823567
0.85522287
0.84173921
0.82865839
0.81700236
0.80741223
0.80027298
0.79561424
0.79292784
0.79120145
0.87241101
0.88895906
0.89978046
0.90759256
0.91366083
0.91884602
0.92320559
0.9266185
0.92896451
0.93018936
0.93017792
0.92856344
0.92502828
0.91930863
0.91120028
0.90075312
0.88823168
0.8741181
0.85929308
0.844787
0.83151667
0.8197364
0.80770295
0.87714736
0.89487403
0.90528557
0.91390363
0.92098468
0.92733062
0.9329395
0.9377455
0.94171286
0.9451096
0.94782054
0.94974494
0.95096708
0.95119743
0.9499497
0.94712986
0.94247634
0.93543244
0.92573284
0.91340021
0.89893876
0.88304322
0.86556157
0.88027672
0.89645047
0.90615487
0.91564647
0.92438526
0.93234774
0.93930707
0.94517868
0.95013819
0.95426709
0.9577434
0.96101258
0.96410264
0.96658114
0.96861237
0.97034631
0.97142048
0.97159384
0.97030711
0.96715885
0.96175557
0.95331574
0.94013377
0.88106701
0.89413133
0.904421
0.91510571
0.9257958
0.93588988
0.94470964
0.9518922
0.95738915
0.96163827
0.96556059
0.96955215
0.97307573
0.97602688
0.97898003
0.98201034
0.98489172
0.98738709
0.98912147
0.99010848
0.99006849
0.98908448
0.98495096
0.88311389
0.89343637
0.90476019
0.91748791
0.93089135
0.94302387
0.9527062
0.95981181
0.96515159
0.96963826
0.97380281
0.97769301
0.9809858
0.98406427
0.98742218
0.99065587
0.993271
0.99499097
0.99613356
0.99703935
0.99768524
0.99786495
0.99712278
0.88840657
0.8978548
0.91265018
0.92857442
0.9428586
0.9544531
0.96307701
0.96918481
0.97386334
0.9778044
0.98146882
0.98519474
0.98862189
0.99174287
0.99451952
0.9962932
0.9974183
0.99816816
0.99850815
0.99875214
0.99880131
0.9988582
0.99888626
0.89878504
0.91179212
0.92935875
0.94532723
0.9575469
0.96650525
0.97288195
0.97741567
0.98110945
0.98482087
0.9886862
0.99217403
0.99469996
0.99637464
0.99775013
0.99867517
0.99883326
0.99863912
0.99865952
0.99891522
0.99902991
0.99899643
0.99899588
0.91202263
0.92946182
0.94652664
0.95949216
0.96860927
0.97513782
0.97995192
0.98384088
0.9873337
0.99078052
0.9940795
0.99665604
0.99791854
0.99818026
0.99828034
0.99869428
0.9989625
0.99885345
0.99866686
0.99870272
0.99889805
0.99907566
0.99904302
0.92573367
0.94348912
0.95799861
0.96851065
0.97603812
0.98140965
0.98526881
0.98858168
0.9919398
0.99511017
0.99732204
0.9982674
0.99839296
0.99838393
0.99848041
0.99874713
0.99893509
0.99863993
0.99830844
0.99861721
0.99902254
0.99905896
0.9986547
0.93733976
0.95343342
0.9657644
0.97449258
0.98087053
0.98577332
0.98959693
0.9926328
0.99501793
0.99685155
0.99821432
0.99887602
0.99876966
0.99831138
0.99806867
0.99848153
0.99899624
0.99871502
0.99807116
0.99823845
0.99894965
0.99908476
0.9984615
0.94582351
0.9603135
0.97154076
0.97910845
0.98455698
0.98888701
0.9924242
0.99526801
0.99705138
0.99782303
0.99833677
0.99870833
0.99868447
0.99836413
0.99799928
0.99809746
0.99856976
0.99869877
0.99849101
0.99826736
0.99845113
0.99877196
0.99868726
0.95201079
0.96566716
0.97615095
0.9827897
0.98744357
0.99141531
0.99486546
0.99711435
0.99778293
0.9978308
0.99817173
0.99864935
0.99861931
0.99817116
0.99788333
0.99805375
0.99855804
0.99879922
0.99843416
0.99801909
0.99813589
0.99861545
0.99892323
0.95673335
0.96985816
0.97989188
0.98589769
0.98992629
0.99340809
0.99636
0.99793878
0.9981608
0.99798851
0.99802129
0.99827873
0.99846031
0.99826578
0.99796694
0.99800634
0.99834927
0.99856991
0.99835966
0.99797194
0.99807891
0.99849128
0.99875437
0.96062813
0.97351435
0.98301736
0.98857918
0.99215853
0.99498447
0.9971176
0.99812047
0.99828584
0.99811184
0.99797961
0.99800099
0.99811233
0.99819698
0.99817738
0.99813196
0.99807648
0.99812923
0.99823064
0.99814928
0.99809059
0.99827954
0.99846478
0.96414242
0.97682177
0.98551999
0.99061094
0.99386882
0.996098
0.9973829
0.99803182
0.99835623
0.99825445
0.99790393
0.99772061
0.99789094
0.99819845
0.99828464
0.9980684
0.99784018
0.99788769
0.99813106
0.99816228
0.99804766
0.99815113
0.99831697
0.96739175
0.97973221
0.98729631
0.99183819
0.99504303
0.99710057
0.99781561
0.99787039
0.99794985
0.99809172
0.99809437
0.99793709
0.99780145
0.99786348
0.99802893
0.99808811
0.99799622
0.99787013
0.99787405
0.99794179
0.9979657
0.99807797
0.99816547
0.96989628
0.98210787
0.98903559
0.99291674
0.99553972
0.99727382
0.9979906
0.99810835
0.99802985
0.99794603
0.99793187
0.99796973
0.99800085
0.9979658
0.99790705
0.99793521
0.99793623
0.99789317
0.99789624
0.99796052
0.99795195
0.99784099
0.99779418
0.97227696
0.98380279
0.99000555
0.99358995
0.99602492
0.99750049
0.99801422
0.99808538
0.99807367
0.99809642
0.99811054
0.99811785
0.99808009
0.99791696
0.9978886
0.99800135
0.99807321
0.99808905
0.99793411
0.99784862
0.99783869
0.99790765
0.99791973
0.97428383
0.98513757
0.99081881
0.9939998
0.99618562
0.99753855
0.99807192
0.99824452
0.99824426
0.99814471
0.99815176
0.99825662
0.99826197
0.99820685
0.99818865
0.99809432
0.99809851
0.99820766
0.99826337
0.99816681
0.99792543
0.99776066
0.99782919
0.97582792
0.9863188
0.99165839
0.99446569
0.99627906
0.99739977
0.99798037
0.99834126
0.99845283
0.9983503
0.99840267
0.99844055
0.99838363
0.99835264
0.99836234
0.99842142
0.99847166
0.99839201
0.99835836
0.99835597