/*--------------------------------*- C++ -*----------------------------------*\
| =========                 |                                                 |
| \\      /  F ield         | OpenFOAM: The Open Source CFD Toolbox           |
|  \\    /   O peration     | Version:  2406                                  |
|   \\  /    A nd           | Website:  www.openfoam.com                      |
|    \\/     M anipulation  |                                                 |
\*---------------------------------------------------------------------------*/
FoamFile
{
    version     2.0;
    format      ascii;
    arch        "LSB;label=32;scalar=64";
    class       volVectorField;
    location    "120";
    object      U;
}
// * * * * * * * * * * * * * * * * * * * * * * * * * * * * * * * * * * * * * //

dimensions      [0 1 -1 0 0 0 0];

internalField   nonuniform List<vector> 
20580
(
(0.08480557 2.7337498e-05 6.8495113e-22)
(0.085451449 0.00075023775 8.2848078e-20)
(0.093377576 -5.9845304e-05 -2.708575e-22)
(0.093112369 0.00089639424 1.5471625e-20)
(0.093618614 -0.00049422311 6.4487817e-23)
(0.093196147 0.00036181527 -5.6481332e-21)
(0.092793512 0.0011545745 -1.1405472e-19)
(0.092288901 0.0016269018 -1.7957073e-21)
(0.091869585 0.001550054 -3.7245848e-21)
(0.091412625 0.00096268968 0)
(0.090733866 0.0014976533 6.9052028e-21)
(0.089929866 0.0026483105 8.7656356e-21)
(0.089554168 0.0015830746 -9.0265799e-21)
(0.089282709 0.00058927256 -1.585451e-21)
(0.087990536 0.0021315483 -1.0547136e-20)
(0.087527977 0.0019652323 3.3164179e-20)
(0.088676335 -0.0031075319 4.3912299e-20)
(0.08676448 -0.00012427115 5.6469744e-21)
(0.08514418 0.0016331527 4.841792e-20)
(0.087866403 -0.0065408816 -3.3583914e-21)
(0.086081204 -0.006026627 -6.6423014e-22)
(0.082371122 -0.0020028741 -1.9316016e-21)
(0.08415208 -0.0088421791 -4.9948115e-20)
(0.088338238 -0.017652581 1.5828389e-20)
(0.084951828 -0.016965538 1.7790009e-19)
(0.079188653 -0.0094049889 7.0621343e-20)
(0.081953439 -0.0061401865 1.0092581e-19)
(0.083945458 -0.01506366 -1.966118e-20)
(0.078665017 -0.030777051 -6.1566194e-20)
(0.084577936 -0.035531619 2.748624e-20)
(0.10508993 -0.030437852 1.8093927e-20)
(0.083625063 0.00089919339 0)
(0.084695655 -0.0010220277 1.8359299e-19)
(0.092536739 -0.0010356388 -1.0289057e-20)
(0.092382377 0.00029812062 -1.8471622e-20)
(0.09229555 0.00088101662 -4.5977323e-20)
(0.09230039 0.001093282 -2.6887063e-22)
(0.09239277 0.0012024578 -1.2542078e-20)
(0.092210511 0.0013846299 9.2251029e-21)
(0.091939674 0.0013783131 -5.4889135e-21)
(0.09150217 0.0010007957 -1.0798599e-21)
(0.090710946 0.0014212926 -1.3974135e-20)
(0.090105254 0.0024039365 -3.1772699e-21)
(0.090133795 0.0011672554 -1.1593587e-20)
(0.089307354 0.0010428804 -3.3591235e-22)
(0.088175364 0.0018872823 1.8948331e-20)
(0.088643809 0.0012370232 8.3330326e-22)
(0.088849124 -0.0022298001 -1.0009324e-22)
(0.086182376 0.0011903166 7.4715633e-20)
(0.08718773 0.00025785274 0)
(0.089414876 -0.0062651086 -2.2560091e-20)
(0.085661704 -0.0036360223 0)
(0.084050476 -0.0014008946 -2.502638e-21)
(0.087384642 -0.0088397797 6.1478877e-20)
(0.088445795 -0.012559937 1.2034932e-21)
(0.082514411 -0.010086076 8.0074513e-20)
(0.077303823 -0.0077989287 -6.2641311e-20)
(0.084981764 -0.0098679915 6.5944165e-21)
(0.093794513 -0.018417062 -5.7475492e-20)
(0.087424197 -0.031795136 1.0226194e-19)
(0.081276634 -0.035123712 6.2571962e-20)
(0.09499933 -0.023807456 -2.39668e-19)
(0.082955556 0.0021435209 0)
(0.084098969 -0.0025988486 0)
(0.091185911 -0.0018293607 1.1726316e-19)
(0.091224812 -0.00054914616 2.5310835e-19)
(0.091259032 0.0022052083 -4.1865708e-20)
(0.091598292 0.0016986241 -2.7476934e-22)
(0.091922875 0.0010980279 -7.0927166e-20)
(0.091876947 0.0010908899 2.2783796e-21)
(0.091747691 0.0012285144 0)
(0.091371972 0.0012491166 3.5703799e-20)
(0.090581834 0.0014816459 1.5473038e-21)
(0.090194848 0.0018126587 1.0484666e-20)
(0.090266121 0.00091447547 0)
(0.089277343 0.0015962156 1.0347427e-21)
(0.088303885 0.0013384916 2.717384e-21)
(0.089106569 0.00046410301 4.1768697e-21)
(0.088721667 -0.0010373899 4.7297869e-21)
(0.085985749 0.0017138768 3.8057128e-22)
(0.088282509 -0.0013922253 6.0465758e-20)
(0.089892302 -0.0054349753 0)
(0.085265868 -0.0017852713 0)
(0.085409752 -0.0019592267 2.1730783e-20)
(0.089306192 -0.0085060223 -1.2960092e-20)
(0.088953617 -0.0085174992 6.67941e-20)
(0.083312919 -0.0052502272 2.738572e-20)
(0.078334807 -0.0093572936 2.3275272e-21)
(0.085841889 -0.016061548 2.8635142e-20)
(0.098481499 -0.020674205 1.4029401e-20)
(0.095056928 -0.028141491 -6.2597442e-20)
(0.080341624 -0.033823494 1.4377729e-20)
(0.08059339 -0.025464322 5.741723e-20)
(0.082349521 0.0027658677 0)
(0.083561117 -0.003024692 6.6459482e-23)
(0.089868858 -0.0018274991 3.5206411e-21)
(0.089797043 -0.0013289872 2.5753975e-21)
(0.089967468 0.0024343573 -3.3431024e-20)
(0.090697301 0.0015470748 5.0679459e-20)
(0.091181541 0.00086066131 -1.1071651e-19)
(0.091252482 0.00070479299 0)
(0.091236422 0.00098623253 -2.1504893e-22)
(0.090958705 0.0014359325 -1.9375731e-20)
(0.090282979 0.0018379958 -8.7919711e-21)
(0.09011626 0.001102257 8.4186165e-21)
(0.090057721 0.00082714062 8.4510292e-24)
(0.08912119 0.0020659726 -8.3562558e-21)
(0.088362174 0.00098451218 1.0830155e-20)
(0.089227856 -0.00028095546 1.6485796e-21)
(0.088411681 0.00042770708 5.078388e-20)
(0.0861764 0.002041339 -2.1856971e-22)
(0.089110631 -0.0033169304 -1.3109541e-21)
(0.089638157 -0.004081574 7.3180474e-21)
(0.084972361 0.00014285635 -6.8108037e-21)
(0.08653259 -0.0033615097 3.2962843e-20)
(0.089874699 -0.0089199897 -3.608889e-21)
(0.088439048 -0.0055030366 7.1208046e-20)
(0.085480048 -0.0014319372 0)
(0.082375993 -0.010296342 1.8928382e-22)
(0.086091946 -0.021930563 -1.8194751e-20)
(0.098001981 -0.022805188 2.5711748e-20)
(0.099289907 -0.020762542 -6.759844e-20)
(0.083717339 -0.026338209 -5.0740518e-20)
(0.070601253 -0.029232039 8.3274066e-20)
(0.082038673 0.0025443612 0)
(0.083189088 -0.0020986099 2.1924312e-20)
(0.088971275 -0.00088122467 -2.8378599e-19)
(0.088590356 -0.0015406755 -1.1867776e-19)
(0.088789634 0.0015210677 1.945228e-22)
(0.08968176 0.00071751253 1.9210753e-20)
(0.090137809 0.00058115694 0)
(0.090310144 0.0004920241 1.4480553e-20)
(0.090374675 0.00073741694 3.0708323e-21)
(0.090191314 0.0014843065 -4.125318e-20)
(0.089764617 0.0021393955 -1.4181163e-20)
(0.08975353 0.00057428438 -1.0647595e-22)
(0.089444291 0.00092397785 -1.9885405e-20)
(0.088746644 0.0022792135 7.9772422e-21)
(0.088309042 0.00091143156 1.2945045e-20)
(0.088847291 -0.00085637771 -1.5411183e-20)
(0.087768661 0.0016339399 7.104128e-20)
(0.086642851 0.0018502323 6.4925646e-20)
(0.08952619 -0.0047487146 -3.2099649e-20)
(0.088695498 -0.0026696612 0)
(0.085008823 0.0012056931 -2.5915855e-21)
(0.087941362 -0.0048113883 9.5609032e-21)
(0.089834936 -0.010021365 -1.1725588e-20)
(0.086933789 -0.005125394 4.5464114e-21)
(0.087616883 -0.00064169973 0)
(0.08879219 -0.01025862 2.1386903e-19)
(0.08851853 -0.024153952 -3.8091504e-20)
(0.094448116 -0.022997044 -1.8416509e-19)
(0.099493863 -0.01288909 1.118348e-19)
(0.090882782 -0.013751711 8.554627e-20)
(0.074313428 -0.026496224 1.0208858e-19)
(0.081881257 0.0016711752 -4.0142461e-20)
(0.082635186 -4.6168767e-05 -6.5122111e-22)
(0.088364729 0.00043154669 9.8397783e-24)
(0.087741502 -0.0011833647 8.7227686e-21)
(0.087872422 1.5752812e-05 -5.2279837e-20)
(0.088667557 -0.00035652141 -2.8976406e-22)
(0.089027904 0.0002998029 9.2684739e-21)
(0.089169165 0.00046416023 -1.9205082e-23)
(0.089215763 0.00057072571 3.1890913e-21)
(0.089047228 0.0014654529 4.9200237e-20)
(0.088932316 0.0019967191 -1.4341329e-20)
(0.088969759 0.00048797851 -1.4662582e-20)
(0.088406989 0.0011432431 -2.2572328e-20)
(0.088030772 0.0022490953 3.0838242e-21)
(0.08797836 0.00094310451 2.0825646e-20)
(0.088023862 -0.00096865619 5.4770062e-22)
(0.086815138 0.0021945996 7.2338273e-20)
(0.087051142 0.0011968869 8.5013308e-20)
(0.089390511 -0.0050262473 -1.1343311e-21)
(0.087294727 -0.0012430866 0)
(0.085158578 0.0014011204 3.0252511e-21)
(0.089531832 -0.0058262036 -1.7592806e-19)
(0.089801427 -0.010057209 8.9076892e-22)
(0.084967458 -0.0065147072 0)
(0.088496502 -0.0028909604 -7.4626912e-21)
(0.09474926 -0.010550758 -1.5282182e-19)
(0.092368676 -0.023131715 4.9379357e-20)
(0.089692718 -0.022300048 -3.9020338e-19)
(0.094818028 -0.0071998526 -1.1769804e-19)
(0.098526691 -0.00098637556 -1.7247163e-20)
(0.089332641 -0.015646742 2.3335333e-19)
(0.082157926 0.00046025441 -3.8328421e-22)
(0.082450698 0.0024382751 7.7228102e-20)
(0.08804404 0.0013050707 9.4206778e-23)
(0.087153929 -0.00013480998 1.1273909e-19)
(0.087076028 -0.0011916442 -2.4679374e-20)
(0.087668848 -0.00086400627 1.2490755e-19)
(0.087847375 0.00017821468 7.8445983e-21)
(0.087950929 0.00048032645 4.8907879e-25)
(0.087893023 0.00054816841 2.7073289e-22)
(0.087679242 0.0014818704 -6.1781889e-21)
(0.087783849 0.0014121004 5.2584811e-22)
(0.087739847 0.00070336379 -4.2805514e-22)
(0.086992179 0.0013821846 1.7311669e-20)
(0.086889389 0.0018883381 3.6959004e-23)
(0.087189334 0.0010861695 -2.0560669e-20)
(0.086756139 -0.00055121378 2.8468673e-21)
(0.0855892 0.0020209104 -4.0990633e-22)
(0.087024094 8.1991035e-05 -1.6350581e-19)
(0.088586096 -0.0046019689 0)
(0.08560603 8.8749853e-05 8.1789003e-20)
(0.085124578 0.00077663194 -8.0805395e-21)
(0.090377677 -0.0066434106 -6.0181227e-20)
(0.089615687 -0.0082277006 -1.8121598e-20)
(0.083271193 -0.0070016844 -8.8783236e-21)
(0.08723714 -0.0069426868 -7.4688457e-20)
(0.097231941 -0.010750195 -5.1708171e-21)
(0.095526166 -0.01775183 -1.4016073e-19)
(0.086356888 -0.019345294 6.5197804e-21)
(0.087443021 -0.0082840589 -4.3304783e-19)
(0.099921639 0.0013769384 9.121179e-20)
(0.10734379 -0.0054754284 -1.8343819e-21)
(0.084603428 -7.5772875e-05 -7.6116618e-20)
(0.083619307 0.0042820555 0)
(0.0884812 0.00094928066 -3.1484428e-19)
(0.087246824 0.00108942 -1.485986e-19)
(0.086874383 -0.0015040941 7.4468827e-21)
(0.087023797 -0.00062914571 -5.3227863e-23)
(0.086960956 0.00024204961 6.223799e-21)
(0.086899398 0.00057502763 -9.0382396e-23)
(0.086632557 0.00061848945 1.1177814e-20)
(0.086356007 0.0013430375 1.4111126e-20)
(0.086484781 0.00079257036 1.0342901e-20)
(0.086243451 0.0009792292 -4.7087885e-22)
(0.085424938 0.0015912621 5.9565617e-21)
(0.085416565 0.0011914012 -1.1595506e-20)
(0.085867151 0.0011793669 1.7229789e-20)
(0.085120343 0.00018319868 1.3534269e-20)
(0.084139935 0.0014962465 -8.3178355e-21)
(0.086369534 -0.001163239 -5.5764223e-20)
(0.087015151 -0.0034604959 5.4772094e-22)
(0.083706945 0.0013470643 -1.1277249e-21)
(0.084922529 -0.00067411179 1.0183836e-20)
(0.0900168 -0.0071262339 -2.0580027e-22)
(0.08884439 -0.005050847 0)
(0.082835094 -0.0051928154 -6.7613736e-21)
(0.085796555 -0.010807558 4.9027249e-20)
(0.096237659 -0.01163415 -1.6040969e-19)
(0.096618441 -0.010316184 -4.3016429e-21)
(0.084759714 -0.012292991 -1.0595619e-19)
(0.079987933 -0.012516957 3.7899037e-20)
(0.093241846 -0.0070313296 -2.4799398e-19)
(0.11317218 -0.0068777338 3.9756239e-20)
(0.096746815 0.00042041635 2.6124012e-20)
(0.086297769 0.0048385597 5.978951e-24)
(0.090026186 -0.00021970963 -1.3727832e-19)
(0.08816065 0.0019276025 -1.5944704e-19)
(0.087359077 -0.00074270389 -7.1424554e-22)
(0.087072718 0.00032177775 -5.50761e-23)
(0.086936998 0.00049062545 -1.5036276e-20)
(0.086747599 0.00072415613 -5.5386533e-24)
(0.086195136 0.00083776914 1.1946452e-20)
(0.085696615 0.00090966828 -1.5098712e-20)
(0.085538319 0.00038757292 7.2946216e-21)
(0.084934248 0.0011084502 0)
(0.084077547 0.0017041612 3.7651152e-22)
(0.083910234 0.00041197691 2.0634134e-21)
(0.08428982 0.001032619 -1.5039804e-20)
(0.08344955 0.001018893 -1.7240261e-20)
(0.082669581 0.00087487238 -4.2181157e-21)
(0.085055516 -0.0024308295 2.460683e-20)
(0.084735421 -0.0016839519 -6.4027572e-20)
(0.08194008 0.0024107374 -1.4484835e-20)
(0.084495066 -0.00247209 6.1564094e-20)
(0.088468114 -0.0071642109 -2.6335491e-22)
(0.087350186 -0.0010975685 -1.3833494e-20)
(0.083741266 -0.0014123725 -6.1638855e-21)
(0.08528243 -0.012230121 8.2367174e-21)
(0.092842106 -0.013078614 1.4540315e-19)
(0.095646699 -0.0047560313 -9.7857902e-20)
(0.087416625 -0.0034183767 -1.2507465e-19)
(0.079386111 -0.01390454 -7.7382548e-20)
(0.086018881 -0.019912909 2.4244766e-19)
(0.10637013 -0.018550606 -1.3157344e-19)
(0.11316477 0.0014769179 9.096007e-20)
(0.093539959 0.0028627011 -1.0823444e-22)
(0.094619328 -0.0016669773 2.5215183e-19)
(0.091555605 0.0015711127 1.1097233e-19)
(0.089453606 0.00049341659 3.4840088e-22)
(0.088422553 0.0013914086 0)
(0.087893987 0.00074839177 -1.4723277e-20)
(0.087337034 0.00074773946 4.3536747e-20)
(0.086633653 0.0010780697 -7.7622191e-21)
(0.086017229 0.00052009382 -2.1952055e-20)
(0.085574851 0.00029414376 -1.6276775e-23)
(0.084700571 0.0011700144 1.6169438e-22)
(0.083904456 0.0017202226 0)
(0.083440142 -5.8614724e-05 2.7361875e-20)
(0.083344734 0.00064037602 1.8532636e-20)
(0.082467535 0.0017437803 1.4443494e-21)
(0.081932831 0.00042844099 6.3843929e-20)
(0.083677686 -0.0031497961 2.0746444e-22)
(0.082305155 7.2537531e-05 -7.3429773e-20)
(0.080618842 0.0027306838 1.7204234e-20)
(0.084049303 -0.003783111 8.8873747e-20)
(0.085830007 -0.0070305178 -8.3755215e-20)
(0.084498937 0.0016601211 -1.2311499e-19)
(0.085008575 0.002537545 1.0872739e-19)
(0.086191975 -0.010323099 -2.283986e-19)
(0.088173765 -0.013875945 3.1344186e-21)
(0.091124893 -0.0017399449 2.2601338e-21)
(0.091274512 0.0039397923 -1.43174e-20)
(0.086831068 -0.0094868065 -2.8647093e-19)
(0.085413519 -0.027875465 -1.0014697e-19)
(0.094940457 -0.029944148 4.3409988e-19)
(0.1129797 0.0021087356 -3.3962838e-21)
(0.099539504 0.00044038682 -1.9420844e-22)
(0.10036153 -0.002141186 -1.6702059e-20)
(0.097252261 0.00042356524 3.7544663e-22)
(0.09434106 0.0015816455 -2.7985104e-22)
(0.092239227 0.0018534537 -2.552905e-19)
(0.090942024 0.00080857908 -1.8725067e-20)
(0.089556672 0.00065234138 6.3419496e-24)
(0.088402919 0.00128128 6.9636748e-21)
(0.087455011 0.0004402128 1.964451e-20)
(0.086498862 0.0002529452 1.7060478e-21)
(0.085291877 0.0011165971 -2.7984616e-20)
(0.084605269 0.0015182511 0)
(0.083971723 -0.00016504535 -8.2053344e-24)
(0.083359924 0.00020083392 4.4723099e-20)
(0.082607523 0.0019626007 1.1365173e-22)
(0.082487797 -1.6629532e-05 -2.4119421e-21)
(0.083164883 -0.0030154384 -1.1788978e-22)
(0.080854839 0.0013711953 -5.33154e-21)
(0.080413109 0.0024334745 -5.2575572e-22)
(0.084339806 -0.0038837882 -9.0176807e-20)
(0.083348448 -0.00610955 -7.1293027e-20)
(0.08102738 0.0021389785 4.1779515e-21)
(0.08582505 0.0039716858 -2.9556007e-20)
(0.088811528 -0.0066876239 -8.4269457e-20)
(0.084958956 -0.012916682 -1.6810135e-20)
(0.08433557 -0.0030126352 1.7524397e-19)
(0.091159477 0.0045044105 -5.5920053e-20)
(0.096809379 -0.0038436391 -2.7605863e-21)
(0.093453481 -0.024943576 2.4853624e-19)
(0.088687191 -0.033532547 2.4170038e-21)
(0.10678871 0.0032667475 8.1444336e-20)
(0.10116987 -0.0018803634 0)
(0.10368949 -0.0016511301 1.0647918e-19)
(0.10159011 -0.0010601964 1.20045e-19)
(0.099694602 0.0017570672 -5.8496186e-21)
(0.098085584 0.001263975 -5.1652393e-20)
(0.096562515 0.00050704964 -5.2596484e-23)
(0.094475992 0.00055515047 -4.8427309e-23)
(0.092631431 0.0013480548 -1.8532681e-20)
(0.091111257 0.00063925312 8.1623447e-21)
(0.089469313 0.00027196485 -4.317789e-21)
(0.087772606 0.0010765634 6.7784507e-23)
(0.086949784 0.0011067754 -2.4413801e-20)
(0.086000854 4.1834941e-05 0)
(0.084598061 7.4568307e-05 3.6741489e-20)
(0.083746922 0.0017695804 3.4569659e-20)
(0.083910942 -0.00026754327 -5.730394e-20)
(0.083505393 -0.002259691 -4.996321e-20)
(0.080619377 0.0020019202 3.7578164e-22)
(0.081183153 0.001200311 -6.1594764e-20)
(0.085226567 -0.0038891711 -5.26115e-20)
(0.081958345 -0.0041942739 2.1840867e-21)
(0.078085635 0.00063156862 9.4106586e-20)
(0.085279254 0.0014592168 1.1366762e-20)
(0.091087585 -0.0046159671 1.1184554e-19)
(0.084144419 -0.0092045947 -4.0410151e-20)
(0.078657348 -0.0063130822 -9.921972e-20)
(0.086743237 -0.00091945331 -4.8136186e-21)
(0.10037087 -0.0036963677 9.9515425e-20)
(0.10265306 -0.015205362 -1.2264443e-19)
(0.091928208 -0.026493791 6.6173718e-20)
(0.09597491 0.0035799885 -5.211647e-21)
(0.097874747 -0.0023444076 5.4169127e-20)
(0.10254264 -0.00013513799 1.8917609e-21)
(0.10118345 -0.0019909346 2.1129289e-21)
(0.10046446 0.0010715867 9.5187645e-23)
(0.10037359 1.4329121e-05 5.6157933e-20)
(0.099824895 9.2066205e-05 -7.4335808e-23)
(0.098622442 0.00047330557 -3.2472687e-23)
(0.097463226 0.00098301142 6.8263052e-22)
(0.096301991 0.00065900757 5.3223016e-21)
(0.09461837 0.00029110653 3.8466736e-22)
(0.09282168 0.00094103312 -5.5304165e-21)
(0.091910669 0.00051945392 1.0706827e-22)
(0.090542067 0.00039912113 -8.8540289e-22)
(0.088453629 2.8909963e-05 0)
(0.087141158 0.00088227357 0)
(0.087055973 -0.00047899307 3.0508817e-20)
(0.085517451 -0.0010916334 -3.6283018e-21)
(0.082287956 0.0022918392 1.2724514e-20)
(0.083360824 -0.00058843003 -9.7374279e-21)
(0.086783614 -0.0038494558 -3.6794537e-21)
(0.082417465 -0.0011653622 -5.0629559e-21)
(0.077507733 -0.00077491853 0)
(0.084503579 -0.0035592004 0)
(0.091691241 -0.0047400017 0)
(0.085422433 -0.0035502359 -6.5094684e-21)
(0.076979643 -0.0069946488 5.6762753e-22)
(0.082250983 -0.0087384334 4.7858153e-20)
(0.097478179 -0.0093542716 3.1648102e-20)
(0.10485076 -0.0075194626 1.2490298e-20)
(0.096635184 -0.011747845 -5.1276649e-20)
(0.089123545 0.003636023 9.3696837e-21)
(0.090863697 -0.0019588283 3.6837512e-22)
(0.098344643 0.00098394363 -1.2285486e-21)
(0.098282284 -0.002127422 -2.0174871e-19)
(0.098578392 7.6875961e-05 0)
(0.099235541 -0.00091282683 -1.345757e-22)
(0.099087062 -4.8392221e-05 -9.7545339e-21)
(0.098397772 0.00060953696 4.9270233e-20)
(0.09800006 0.0003885159 -1.8476868e-22)
(0.097667865 0.00063333499 -2.4720187e-20)
(0.096774609 0.00067698493 3.9226759e-21)
(0.095720197 0.00078328444 0)
(0.095415281 -0.00011430344 -3.5731819e-20)
(0.094547098 0.001067775 -1.8759745e-20)
(0.092968254 0.00034576206 2.4579868e-20)
(0.092107966 0.00012854968 2.2395802e-21)
(0.092054435 -0.00072884562 -5.7297716e-21)
(0.089823807 0.0001458634 3.5412776e-21)
(0.086772278 0.0020967095 -3.2009339e-20)
(0.08775406 -0.0027295747 -9.7267356e-21)
(0.089694548 -0.0034970199 -8.6299384e-22)
(0.085545172 0.0021928515 -1.8159076e-20)
(0.081087813 -0.00091498395 6.1547956e-20)
(0.085989116 -0.0088243284 0)
(0.091708597 -0.005934081 2.5955074e-21)
(0.088114922 0.00097607238 5.8727681e-22)
(0.080724702 -0.0032886217 -1.7586689e-19)
(0.081679995 -0.014550982 6.5079344e-21)
(0.092584591 -0.015285138 1.6268648e-19)
(0.1016994 -0.0053307117 1.0077701e-19)
(0.10045454 0.0022212469 -7.7938865e-21)
(0.089194753 0.002384516 -4.2164164e-21)
(0.089421259 0.00025275696 2.1945777e-20)
(0.094811953 0.001189251 -6.2869989e-23)
(0.094152868 -0.0010279322 4.1814579e-20)
(0.094454855 -0.00066529204 -1.1568987e-21)
(0.095704543 -0.001125904 2.9559536e-22)
(0.096131117 3.8405026e-05 3.441688e-20)
(0.096245236 0.0005618047 -3.535833e-20)
(0.096354952 -0.00037989371 1.8211315e-22)
(0.096379019 0.00031713073 9.3948995e-23)
(0.095913947 0.0009782694 -1.899157e-21)
(0.095368908 0.00046090593 1.2751085e-22)
(0.095159007 -0.00067660373 3.6726289e-22)
(0.094666286 0.0013439917 3.0723754e-22)
(0.093769261 0.0006919694 4.7672958e-20)
(0.093463532 -0.00047895941 1.5379841e-22)
(0.093941452 -0.0011153358 2.6355411e-20)
(0.092292004 0.001135823 3.6675053e-21)
(0.090833313 0.0015846429 -1.4693213e-21)
(0.092159604 -0.00446267 0)
(0.092609413 -0.0030041586 -1.2680896e-19)
(0.090020333 0.0047959451 -3.1301819e-21)
(0.088294023 0.00047675111 1.8691625e-19)
(0.09057243 -0.011469974 -5.596926e-21)
(0.092326236 -0.0071114418 -9.2226139e-20)
(0.091025324 0.0038851676 1.5825833e-19)
(0.089238106 0.0025825137 8.2273458e-20)
(0.088089306 -0.013825704 1.9925361e-22)
(0.0897069 -0.019671293 -1.0992486e-20)
(0.09507945 -0.0079491429 -1.4666783e-19)
(0.098830865 0.0067901402 -6.2451717e-21)
(0.10479453 0.001565062 -4.96558e-21)
(0.09287626 0.0020058347 -9.3973875e-23)
(0.09588768 -0.00043092886 -1.7632886e-19)
(0.094009405 0.00063317894 -1.3382225e-21)
(0.093209359 -0.00068253655 -1.132985e-22)
(0.093428531 -0.00032513332 -4.8392799e-20)
(0.093345323 0.00041170976 0)
(0.093488998 0.00046270388 -2.5285114e-23)
(0.093557607 -0.00043130242 1.0828919e-23)
(0.09358032 0.00029609908 3.3612286e-20)
(0.093458058 0.0013905979 -4.4039284e-24)
(0.093388663 0.00039533337 -2.3903154e-23)
(0.093143062 -0.00074210742 9.0198955e-21)
(0.092958089 0.001327127 4.8335776e-20)
(0.092800596 0.0011709807 -4.8801389e-20)
(0.09272304 -0.00055833547 -5.9288749e-22)
(0.092946629 -0.00098596565 -2.654247e-22)
(0.091634929 0.001843589 -3.4194843e-22)
(0.091820704 0.0011801308 0)
(0.093145604 -0.0046175296 6.0948507e-20)
(0.091784406 -0.0026567177 -1.4379129e-19)
(0.09084885 0.005323033 3.5031206e-20)
(0.093556702 0.0014347072 7.8021975e-20)
(0.09470646 -0.010248415 2.7863383e-21)
(0.091651946 -0.0082046087 -6.8378668e-20)
(0.091149603 0.0037435002 -8.2281314e-20)
(0.096484187 0.0053007404 2.531669e-20)
(0.098437976 -0.0071763983 -1.1340691e-19)
(0.092649697 -0.017771669 2.9037451e-20)
(0.089462843 -0.011505654 -1.0600291e-19)
(0.093282971 0.0028995118 -8.5787452e-21)
(0.096773934 -0.00054275931 1.0989012e-20)
(0.09279556 0.0028911333 1.3573496e-23)
(0.096174397 -0.0024852068 -5.048178e-21)
(0.094080601 0.0016355519 1.8851431e-19)
(0.093347863 -0.00046410824 2.5413656e-22)
(0.093214038 0.00074767032 -1.695402e-20)
(0.092855504 0.00045441082 0)
(0.092641462 -0.00020844781 0)
(0.092281015 -0.00035366668 -4.2349233e-21)
(0.091820367 6.2096518e-05 0)
(0.091600025 0.0011743188 5.1273884e-21)
(0.091586102 0.00022898327 3.0523084e-20)
(0.090904985 -0.00050791018 0)
(0.090594837 0.0008495802 6.5587619e-20)
(0.090914781 0.0010764401 -3.1601164e-20)
(0.09102734 -0.00057685906 -4.6880303e-20)
(0.090852702 -0.00085967776 -1.3287552e-21)
(0.089826912 0.0015371915 -1.4605642e-22)
(0.091345588 0.00027293116 5.9420271e-20)
(0.092640144 -0.0034968193 4.1756063e-20)
(0.089526226 -0.002001273 9.7630194e-20)
(0.08941734 0.0038676319 1.026957e-21)
(0.095630501 0.0014028377 -4.5968431e-20)
(0.097166207 -0.0059607208 6.6685664e-20)
(0.090113528 -0.0061940695 -2.6431419e-20)
(0.088387767 0.0019749777 -2.2999833e-19)
(0.098085494 0.0040170195 -2.3065334e-20)
(0.10558775 -0.0013780215 -1.3811287e-21)
(0.098762045 -0.0099080691 -2.2847519e-19)
(0.087994697 -0.011369427 4.3395568e-20)
(0.087723574 -0.0036178626 1.65943e-19)
(0.091455512 0.00011514477 -4.3547448e-20)
(0.091611376 0.0030268262 7.7691482e-23)
(0.095707203 -0.0037160303 2.3720893e-19)
(0.093713876 0.0018617714 -1.905318e-19)
(0.093155295 0.0004938272 -1.2878832e-20)
(0.092969219 0.0018261873 2.3747423e-22)
(0.092769964 0.00058835094 7.8917336e-25)
(0.092360565 -0.0003565133 9.4904795e-21)
(0.09181523 0.00037060363 3.7304277e-20)
(0.091142116 0.00033903056 -3.5299456e-21)
(0.090846795 0.00077401139 -2.9145849e-21)
(0.090774552 0.00027396858 -5.7381522e-23)
(0.089747453 0.00021738561 1.7825201e-21)
(0.089191637 0.00047648018 1.0652948e-20)
(0.089640622 0.00080296066 -9.9098135e-22)
(0.089737272 -9.5242138e-05 -4.0989083e-20)
(0.089083154 -0.00013033116 1.4843377e-20)
(0.088104846 0.0012275696 -1.1015463e-20)
(0.090074033 -0.00075212556 4.6981024e-21)
(0.091241124 -0.0015898762 9.0885722e-21)
(0.087091669 -0.00034731771 1.80227e-20)
(0.086727547 0.0011507934 -6.5089797e-21)
(0.094417007 -0.00073143207 2.1165292e-20)
(0.097204176 -0.0021514432 -1.6199388e-22)
(0.088717524 -0.0013525268 -2.8348334e-20)
(0.084852295 -0.00085060756 3.5750356e-20)
(0.095001252 -0.0015296396 2.842684e-21)
(0.10652061 -0.0017586917 -4.1714264e-20)
(0.10370234 -0.0010131782 9.9338588e-20)
(0.090668222 -0.0039492011 -7.6582598e-20)
(0.085416091 -0.006802512 -1.8228849e-20)
(0.098042527 0.00091812767 -7.6881447e-20)
(0.093615284 0.0018012144 5.894578e-23)
(0.096342117 -0.0031555976 1.0492377e-22)
(0.094046656 0.00036523748 -9.0285055e-22)
(0.09351681 0.00051395026 -6.4511598e-21)
(0.093386847 0.0014729815 -1.5245279e-19)
(0.093280693 0.00021967891 -9.1184922e-21)
(0.092638039 -0.0004147033 -1.5201487e-20)
(0.091987895 0.00052406225 9.0026017e-21)
(0.091374598 0.00034145148 1.5173288e-22)
(0.091037979 -0.00010362119 2.4608758e-21)
(0.090863605 -1.1965632e-05 2.4773949e-20)
(0.089771946 0.0007123525 1.173697e-21)
(0.089034931 -0.00023452837 1.5912104e-20)
(0.089438763 -6.2932687e-05 -1.8347572e-22)
(0.089482652 -8.9198827e-07 1.2639e-20)
(0.088600925 0.00023692805 -1.2908634e-20)
(0.087743165 0.00049233066 0)
(0.089477471 -0.0021940848 -7.6197619e-23)
(0.09033793 -3.816335e-05 -5.7804406e-22)
(0.086504101 0.001863124 9.3544852e-20)
(0.085764803 -0.0020084422 2.012029e-20)
(0.092500836 -0.0046446955 1.5005888e-20)
(0.095845996 -0.00030453222 4.3061244e-20)
(0.08927734 0.0041666957 -3.7536566e-20)
(0.084602583 -0.0015996843 6.3786623e-20)
(0.091708618 -0.0086332551 2.5243702e-20)
(0.10210989 -0.0059626373 8.7987381e-20)
(0.10352335 0.002981047 -5.9618083e-20)
(0.095230897 0.004744982 1.0098089e-19)
(0.088920968 -0.0042231821 2.8886491e-19)
(0.096633091 0.0033220015 -3.88027e-22)
(0.095594796 -0.00086474878 1.3835243e-20)
(0.098189561 -0.0016999924 -1.3851466e-19)
(0.095639375 -0.00067431871 -7.1069997e-20)
(0.094959396 0.00074927036 5.1821425e-23)
(0.094879808 0.00032700486 -1.7114672e-22)
(0.09483288 -0.0001855249 -7.7977709e-23)
(0.094096679 0.00023139319 -3.3841811e-20)
(0.093315857 0.00090242438 1.2041181e-20)
(0.092736122 0.00065064368 -4.722919e-21)
(0.092235107 -0.00033073408 8.7727122e-21)
(0.091823451 2.9193872e-05 -1.6199568e-22)
(0.090869995 0.0014909727 -4.0283209e-22)
(0.090089633 -0.0004226582 3.8097327e-23)
(0.090074709 -0.00046971323 -8.6540975e-20)
(0.09006543 0.00040719981 1.9345767e-20)
(0.08917482 0.0010109042 2.4913731e-22)
(0.088606535 0.00036899027 1.0813281e-22)
(0.08956538 -0.0028770784 -3.7555516e-20)
(0.089875249 0.0015943897 -9.1455064e-20)
(0.087814576 0.0044417467 2.7396301e-21)
(0.087236219 -0.0027782494 -1.5120808e-19)
(0.091191225 -0.0071303789 -5.9018034e-21)
(0.093516851 0.00079623509 1.6689157e-19)
(0.090694036 0.0086975424 -1.7703749e-20)
(0.088869057 0.00097975435 1.1287415e-19)
(0.09191803 -0.012149301 1.050047e-19)
(0.097255233 -0.0097109578 1.0213018e-19)
(0.099675913 0.0030281126 9.5035928e-20)
(0.098263941 0.010345805 -4.072272e-20)
(0.095428321 0.0014164801 -3.5986676e-20)
(0.10833952 0.0039597914 -6.0994215e-20)
(0.10013028 -0.0013198233 2.8182814e-22)
(0.10169434 0.0002236383 -2.6684402e-21)
(0.098946325 -0.0026801146 -1.4099647e-21)
(0.098486178 -4.2018165e-05 7.4790489e-24)
(0.098348674 -0.0012666556 -1.3356016e-22)
(0.097899227 -0.00076183375 5.3112288e-23)
(0.096864266 0.00034871266 7.5952427e-23)
(0.096177901 0.00047973758 -5.3681522e-26)
(0.095652261 0.00035863936 2.0472011e-23)
(0.094999968 -0.00076509368 -8.1672057e-23)
(0.094201391 -0.0004580636 -1.016628e-19)
(0.093433674 0.0013820403 8.0572126e-21)
(0.092692589 -0.00079517085 1.9119853e-24)
(0.092107992 -0.0011089388 -2.6766303e-22)
(0.091905131 0.00012598938 -6.1340216e-22)
(0.09112 0.0010897355 -2.5890866e-22)
(0.091048644 2.1320308e-05 3.9702387e-22)
(0.090898747 -0.0033195955 3.1078919e-20)
(0.090221466 0.0017039506 1.2341854e-19)
(0.0903886 0.0048632116 -5.3472231e-20)
(0.091015112 -0.0025363265 1.1128048e-21)
(0.091492473 -0.008530457 1.0347688e-21)
(0.091070635 -0.00037723676 -2.9199843e-21)
(0.091616486 0.0083984173 -1.7823195e-20)
(0.09485345 0.002638517 -8.5646675e-20)
(0.095725172 -0.011555354 1.6362446e-21)
(0.093545706 -0.013123511 1.9130605e-20)
(0.09358584 -0.00016791412 1.0828278e-19)
(0.098174497 0.0093464819 -1.2202677e-19)
(0.10201116 0.0044019053 -5.7534883e-20)
(0.11204803 0.0045467601 -8.7582119e-22)
(0.096884127 -0.0036586924 -2.4535835e-20)
(0.10082131 0.00054558137 1.1071932e-19)
(0.098981322 -0.0019991514 2.3116591e-19)
(0.099261557 9.3750332e-06 -2.1927958e-20)
(0.099914227 -0.0016998397 4.7191738e-20)
(0.099825335 -0.00071333152 -3.0884774e-21)
(0.09932527 0.00087329313 -1.0718105e-23)
(0.099079006 0.00058418534 2.2855458e-20)
(0.098951473 0.00056863155 -3.8524424e-20)
(0.098541648 -0.00042864565 -2.3044605e-20)
(0.097659697 -0.00039129411 4.0661313e-22)
(0.097356062 0.0011763783 2.19443e-20)
(0.097047756 -0.00037018643 1.1201525e-19)
(0.096282313 -0.00089930876 -5.6157442e-22)
(0.096025415 0.000150802 -6.6735377e-20)
(0.095731802 0.0010275553 1.5951061e-22)
(0.096369942 0.00017681924 4.3663218e-20)
(0.095398627 -0.0024092111 -5.2307336e-23)
(0.093603933 0.00099312823 1.1187486e-19)
(0.095482482 0.0042005005 1.2901495e-20)
(0.097890797 -0.00073464235 -8.2156655e-22)
(0.095929221 -0.0059757899 6.7054573e-21)
(0.092237372 -0.0013709741 -2.1402954e-19)
(0.094241472 0.006043616 1.1655735e-20)
(0.10226554 0.0037768624 2.7745209e-20)
(0.10430696 -0.0060206415 -3.5164464e-19)
(0.096334134 -0.010634582 0)
(0.091350757 -0.0028613625 -9.3474579e-20)
(0.098072945 0.0054766333 -2.4858547e-19)
(0.10811543 0.0052723638 1.5745418e-20)
(0.10144318 0.0014596252 4.7398808e-20)
(0.058380432 -0.00052938342 0)
(0.1128534 -0.0017074691 1.9275392e-23)
(0.11031441 -0.0013100273 2.3239995e-20)
(0.11487556 -8.8653199e-05 -4.898768e-21)
(0.10918473 -0.00037918783 1.1569895e-21)
(0.11336943 -0.00032713446 -8.3788584e-21)
(0.11290016 0.00011282469 3.4755451e-21)
(0.11313076 9.896026e-06 9.0557801e-21)
(0.11220856 9.5644345e-05 -1.1375797e-20)
(0.11185087 -0.00016978842 -8.4343355e-22)
(0.1108065 -0.00016387522 1.0677751e-20)
(0.11104906 0.00017234226 -1.1840505e-20)
(0.11098697 -0.00020987225 3.6325613e-20)
(0.11034618 -0.00034743429 -1.1248374e-21)
(0.11054553 -1.382633e-05 -5.8125417e-22)
(0.11046634 0.00015770345 2.264773e-20)
(0.11138464 5.447672e-05 1.0017953e-20)
(0.10895754 -0.00048592648 2.8593306e-20)
(0.10683895 -6.2992942e-06 3.9012502e-22)
(0.1096938 0.0007521326 -3.257542e-20)
(0.11296411 -0.00014830186 -1.3830892e-20)
(0.10910292 -0.0014080363 -1.1769798e-20)
(0.10388058 -0.00084492039 -6.0986002e-21)
(0.10603548 0.00078086676 5.6717338e-20)
(0.11642364 0.00063391471 -2.5436549e-20)
(0.11934149 -0.0013389539 2.5453279e-20)