/*--------------------------------*- C++ -*----------------------------------*\
| =========                 |                                                 |
| \\      /  F ield         | OpenFOAM: The Open Source CFD Toolbox           |
|  \\    /   O peration     | Version:  2406                                  |
|   \\  /    A nd           | Website:  www.openfoam.com                      |
|    \\/     M anipulation  |                                                 |
\*---------------------------------------------------------------------------*/
FoamFile
{
    version     2.0;
    format      ascii;
    arch        "LSB;label=32;scalar=64";
    class       volScalarField;
    location    "900";
    object      kMean;
}
// * * * * * * * * * * * * * * * * * * * * * * * * * * * * * * * * * * * * * //

dimensions      [0 2 -2 0 0 0 0];

internalField   nonuniform List<scalar> 
132739
(
3.3456002e-06
2.6833939e-06
2.226478e-06
1.9027649e-06
1.6640708e-06
1.4813519e-06
1.3370683e-06
1.2202525e-06
1.1237456e-06
1.0426845e-06
9.7364925e-07
9.1416224e-07
8.6238278e-07
8.1691508e-07
7.7668173e-07
7.4083597e-07
7.0870414e-07
6.7974405e-07
6.5351381e-07
6.2965134e-07
6.0785368e-07
5.8786876e-07
5.6948483e-07
5.5252011e-07
5.368192e-07
5.2224575e-07
5.0868284e-07
4.9603235e-07
4.8421733e-07
4.7318466e-07
4.6288347e-07
4.5325782e-07
4.4427408e-07
4.3590478e-07
4.2811996e-07
4.2088577e-07
4.141659e-07
4.0792506e-07
4.021269e-07
3.9673891e-07
3.9173348e-07
3.8708573e-07
3.8277354e-07
3.7877827e-07
3.7508388e-07
3.7167597e-07
3.6853683e-07
3.6565302e-07
3.6301e-07
3.6059145e-07
3.5838469e-07
3.5635978e-07
3.5451673e-07
3.5282492e-07
3.5127327e-07
3.4983234e-07
3.4849607e-07
3.4727468e-07
3.4614578e-07
3.4514229e-07
3.4428035e-07
3.4358801e-07
3.4304913e-07
3.4268166e-07
3.4247131e-07
3.4243041e-07
3.4259188e-07
3.4294698e-07
3.4346682e-07
3.4413454e-07
3.44933e-07
3.4588041e-07
3.4690866e-07
3.4800067e-07
3.4923439e-07
3.5058977e-07
3.5235416e-07
3.545448e-07
3.5727303e-07
3.6071681e-07
3.6508001e-07
3.7059843e-07
3.7747204e-07
3.858843e-07
3.9609158e-07
4.0823164e-07
4.2188163e-07
4.3669748e-07
4.5257157e-07
4.6993438e-07
4.8955586e-07
5.1205853e-07
5.3776461e-07
5.6678424e-07
5.9921349e-07
6.352036e-07
6.7503713e-07
7.1908756e-07
7.6794034e-07
8.2194468e-07
8.8265992e-07
9.4856933e-07
1.027432e-06
1.1058766e-06
3.3456938e-06
2.6838273e-06
2.2270643e-06
1.9034103e-06
1.6647307e-06
1.4820058e-06
1.337709e-06
1.2208766e-06
1.1243522e-06
1.0432751e-06
9.7422528e-07
9.1472531e-07
8.6293479e-07
8.1745823e-07
7.7721814e-07
7.4136773e-07
7.0923322e-07
6.8027259e-07
6.5404373e-07
6.3018326e-07
6.0838903e-07
5.8840903e-07
5.7003127e-07
5.5307364e-07
5.3738004e-07
5.2281467e-07
5.0926014e-07
4.9661856e-07
4.8481222e-07
4.7378584e-07
4.6349044e-07
4.538715e-07
4.4489374e-07
4.3652868e-07
4.2874624e-07
4.2151369e-07
4.1479437e-07
4.0855257e-07
4.0275391e-07
3.9736564e-07
3.9235845e-07
3.8770885e-07
3.8339469e-07
3.7939617e-07
3.7569761e-07
3.7228113e-07
3.6912896e-07
3.6622603e-07
3.6355824e-07
3.6111038e-07
3.5886747e-07
3.5681474e-07
3.5494017e-07
3.5322526e-07
3.5164651e-07
3.5019155e-07
3.4888481e-07
3.4776831e-07
3.4684235e-07
3.4610113e-07
3.4554372e-07
3.4516172e-07
3.4493214e-07
3.448447e-07
3.4488943e-07
3.450395e-07
3.4528119e-07
3.4561177e-07
3.4603691e-07
3.4655839e-07
3.4721089e-07
3.479615e-07
3.4877551e-07
3.4967426e-07
3.5069253e-07
3.5188572e-07
3.5328845e-07
3.5496124e-07
3.5696204e-07
3.5938254e-07
3.6236053e-07
3.6611009e-07
3.7088557e-07
3.7699519e-07
3.8484538e-07
3.9485059e-07
4.0713506e-07
4.2144536e-07
4.3727056e-07
4.5445105e-07
4.7321609e-07
4.941459e-07
5.1770612e-07
5.4417118e-07
5.7370792e-07
6.0653934e-07
6.4284477e-07
6.8291161e-07
7.2699676e-07
7.7539193e-07
8.2861573e-07
8.868882e-07
9.5075211e-07
1.0303157e-06
3.3457998e-06
2.6842413e-06
2.2276134e-06
1.9040083e-06
1.6653367e-06
1.4826017e-06
1.3382865e-06
1.2214316e-06
1.1248836e-06
1.0437815e-06
9.747068e-07
9.1518306e-07
8.6336887e-07
8.1786844e-07
7.7760443e-07
7.4173017e-07
7.0957133e-07
6.8058614e-07
6.5433217e-07
6.3044587e-07
6.086259e-07
5.886191e-07
5.7021338e-07
5.5322715e-07
5.3750427e-07
5.2290898e-07
5.0932431e-07
4.9665241e-07
4.848149e-07
4.7375614e-07
4.6342742e-07
4.5377504e-07
4.4476329e-07
4.3636431e-07
4.285476e-07
4.212801e-07
4.1452659e-07
4.0825093e-07
4.0241923e-07
3.9699874e-07
3.9196123e-07
3.8728238e-07
3.8293915e-07
3.7891207e-07
3.7518512e-07
3.71743e-07
3.6857177e-07
3.6565961e-07
3.629938e-07
3.6055829e-07
3.5834365e-07
3.563344e-07
3.5452292e-07
3.5288932e-07
3.5142992e-07
3.5013996e-07
3.4902134e-07
3.480609e-07
3.4724749e-07
3.4657823e-07
3.4605394e-07
3.4565767e-07
3.4537405e-07
3.4519425e-07
3.4510943e-07
3.451101e-07
3.4518516e-07
3.4532399e-07
3.4552603e-07
3.4578882e-07
3.4612713e-07
3.4654714e-07
3.470491e-07
3.4765174e-07
3.4840985e-07
3.4939899e-07
3.5062608e-07
3.5208749e-07
3.5385311e-07
3.5598355e-07
3.5853809e-07
3.6159181e-07
3.6526348e-07
3.6974756e-07
3.7537389e-07
3.8263019e-07
3.9208536e-07
4.0404855e-07
4.1840425e-07
4.346692e-07
4.5268109e-07
4.725686e-07
4.9464677e-07
5.1920198e-07
5.4631753e-07
5.7610461e-07
6.0874574e-07
6.4449015e-07
6.83632e-07
7.2648349e-07
7.7324343e-07
8.2475643e-07
8.7809538e-07
9.5054123e-07
3.3459318e-06
2.6846759e-06
2.228177e-06
1.9046132e-06
1.6659436e-06
1.4831949e-06
1.3388589e-06
1.2219814e-06
1.1254111e-06
1.0442889e-06
9.751965e-07
9.1565554e-07
8.6382624e-07
8.1831334e-07
7.7803857e-07
7.4215478e-07
7.0998838e-07
6.8099736e-07
6.547392e-07
6.3085005e-07
6.0902847e-07
5.8902173e-07
5.7061723e-07
5.5363354e-07
5.3791436e-07
5.2332444e-07
5.0974593e-07
4.9708154e-07
4.8525338e-07
4.7420469e-07
4.638863e-07
4.5424533e-07
4.4524688e-07
4.3686176e-07
4.2905973e-07
4.218074e-07
4.1506953e-07
4.0881062e-07
4.0299633e-07
3.9759479e-07
3.9257641e-07
3.8791667e-07
3.8359389e-07
3.7958727e-07
3.758801e-07
3.7245697e-07
3.6930417e-07
3.6640881e-07
3.6375837e-07
3.613422e-07
3.5914714e-07
3.5716638e-07
3.5538801e-07
3.5379955e-07
3.5239204e-07
3.5115635e-07
3.5008324e-07
3.4916167e-07
3.4838197e-07
3.4773567e-07
3.4721022e-07
3.4679429e-07
3.4647797e-07
3.4625302e-07
3.4611245e-07
3.4604827e-07
3.4605371e-07
3.461239e-07
3.4625641e-07
3.464543e-07
3.4671666e-07
3.4706092e-07
3.4749349e-07
3.4802573e-07
3.4867351e-07
3.4947269e-07
3.5050932e-07
3.5179402e-07
3.5333868e-07
3.5520952e-07
3.574792e-07
3.602009e-07
3.6343464e-07
3.6724437e-07
3.7176226e-07
3.7727494e-07
3.8425189e-07
3.9326149e-07
4.0470221e-07
4.1849724e-07
4.3427293e-07
4.520388e-07
4.7199677e-07
4.9442774e-07
5.1942927e-07
5.4698889e-07
5.7709272e-07
6.0978413e-07
6.4520976e-07
6.8360371e-07
7.2511965e-07
7.7069456e-07
8.1728366e-07
8.7905938e-07
3.3460706e-06
2.685092e-06
2.2287123e-06
1.9051899e-06
1.6665252e-06
1.4837648e-06
1.3394103e-06
1.2225114e-06
1.1259195e-06
1.044776e-06
9.7566246e-07
9.1610163e-07
8.6425358e-07
8.1872257e-07
7.7842996e-07
7.4252891e-07
7.1034583e-07
6.8133855e-07
6.5506465e-07
6.3115978e-07
6.0932263e-07
5.8930098e-07
5.7088127e-07
5.5388241e-07
5.3814801e-07
5.2354235e-07
5.0994867e-07
4.9726932e-07
4.8542619e-07
4.7436245e-07
4.6402929e-07
4.5437406e-07
4.4536191e-07
4.3696296e-07
4.2914663e-07
4.2188015e-07
4.1512809e-07
4.0885568e-07
4.0302779e-07
3.9761373e-07
3.9258495e-07
3.8791288e-07
3.8357792e-07
3.7956106e-07
3.7584264e-07
3.7240813e-07
3.692437e-07
3.6633632e-07
3.6367385e-07
3.6124446e-07
3.5903719e-07
3.57041e-07
3.5524493e-07
3.536391e-07
3.5221339e-07
3.5095813e-07
3.4986423e-07
3.489184e-07
3.4810995e-07
3.4742931e-07
3.4686622e-07
3.4641147e-07
3.4605514e-07
3.4578775e-07
3.4560226e-07
3.4549013e-07
3.4544479e-07
3.4546032e-07
3.4553327e-07
3.4566329e-07
3.4585192e-07
3.4610572e-07
3.4642562e-07
3.4682541e-07
3.473313e-07
3.4799978e-07
3.4890538e-07
3.5002773e-07
3.5142375e-07
3.5314098e-07
3.5522938e-07
3.5774322e-07
3.6073908e-07
3.6426169e-07
3.6836191e-07
3.7315274e-07
3.7891551e-07
3.8613143e-07
3.9535366e-07
4.0687702e-07
4.2053215e-07
4.3600499e-07
4.5339974e-07
4.7302082e-07
4.9512519e-07
5.1983624e-07
5.4717699e-07
5.7710806e-07
6.0960909e-07
6.4472211e-07
6.8244542e-07
7.2349721e-07
7.6549404e-07
8.1933973e-07
3.3462292e-06
2.685524e-06
2.2292588e-06
1.9057714e-06
1.6671059e-06
1.4843291e-06
1.3399534e-06
1.2230323e-06
1.1264181e-06
1.0452532e-06
9.7612006e-07
9.1654162e-07
8.6467766e-07
8.1913225e-07
7.7882646e-07
7.4291397e-07
7.1072062e-07
6.8170379e-07
6.5542181e-07
6.3151012e-07
6.0966669e-07
5.8963986e-07
5.7121584e-07
5.5421274e-07
5.3847478e-07
5.2386602e-07
5.1026993e-07
4.9758975e-07
4.8574791e-07
4.746864e-07
4.6435498e-07
4.5470262e-07
4.4569527e-07
4.3730232e-07
4.2949178e-07
4.2223108e-07
4.1548579e-07
4.0922018e-07
4.0340018e-07
3.9799385e-07
3.9297245e-07
3.8831141e-07
3.8398672e-07
3.7997776e-07
3.7626889e-07
3.7284469e-07
3.696892e-07
3.6679021e-07
3.6413536e-07
3.6171303e-07
3.5951144e-07
3.5752059e-07
3.5572979e-07
3.5412784e-07
3.5270545e-07
3.5145188e-07
3.503569e-07
3.4940855e-07
3.4859896e-07
3.4791838e-07
3.4735188e-07
3.4689075e-07
3.465266e-07
3.4624911e-07
3.4604955e-07
3.4592037e-07
3.4585334e-07
3.4584322e-07
3.4588563e-07
3.4597799e-07
3.4612157e-07
3.4631839e-07
3.4657532e-07
3.4690799e-07
3.4733551e-07
3.4790857e-07
3.4866241e-07
3.4962988e-07
3.5084683e-07
3.5235551e-07
3.5420422e-07
3.5644849e-07
3.5914896e-07
3.6236034e-07
3.6612734e-07
3.7049948e-07
3.7559796e-07
3.8171801e-07
3.8934294e-07
3.9895273e-07
4.106871e-07
4.2431781e-07
4.396223e-07
4.5672742e-07
4.7592217e-07
4.974317e-07
5.2141689e-07
5.4797503e-07
5.7713834e-07
6.0891485e-07
6.4322139e-07
6.8053282e-07
7.1883151e-07
7.6722412e-07
3.3463953e-06
2.6859408e-06
2.2297794e-06
1.9063263e-06
1.6676637e-06
1.4848754e-06
1.3404811e-06
1.2235387e-06
1.1269034e-06
1.0457179e-06
9.7656523e-07
9.1696887e-07
8.6508747e-07
8.1952576e-07
7.7920471e-07
7.4327754e-07
7.1107071e-07
6.8204127e-07
6.5574718e-07
6.3182354e-07
6.0996882e-07
5.8993074e-07
5.7149571e-07
5.5448183e-07
5.3873308e-07
5.2411401e-07
5.1050862e-07
4.9782038e-07
4.8597111e-07
4.7490203e-07
4.64563e-07
4.5490514e-07
4.458937e-07
4.3749698e-07
4.2968222e-07
4.2241752e-07
4.1566851e-07
4.0939956e-07
4.0357658e-07
3.9816891e-07
3.9314684e-07
3.8848374e-07
3.8415827e-07
3.8014955e-07
3.7644031e-07
3.7301538e-07
3.6985914e-07
3.669589e-07
3.6430279e-07
3.61878e-07
3.59674e-07
3.5768017e-07
3.5588478e-07
3.5427813e-07
3.5285014e-07
3.5158936e-07
3.5048614e-07
3.4952953e-07
3.4870746e-07
3.4801086e-07
3.4742952e-07
3.469519e-07
3.465679e-07
3.4626757e-07
3.4604226e-07
3.4588368e-07
3.4578379e-07
3.4573638e-07
3.4573681e-07
3.4578186e-07
3.4587173e-07
3.4600659e-07
3.4619267e-07
3.4644529e-07
3.4678546e-07
3.4726401e-07
3.4791335e-07
3.4876322e-07
3.4984718e-07
3.5120278e-07
3.5287184e-07
3.5490394e-07
3.5735691e-07
3.6029027e-07
3.6375683e-07
3.6780463e-07
3.7251225e-07
3.7805276e-07
3.8475716e-07
3.9306506e-07
4.0330704e-07
4.1547586e-07
4.2932611e-07
4.4472548e-07
4.6179265e-07
4.8070993e-07
5.016668e-07
5.248308e-07
5.5035115e-07
5.7835135e-07
6.0883203e-07
6.4222883e-07
6.7678615e-07
7.2042564e-07
3.3465757e-06
2.6863673e-06
2.2303068e-06
1.906882e-06
1.6682156e-06
1.4854112e-06
1.340996e-06
1.2240318e-06
1.1273748e-06
1.0461694e-06
9.7699856e-07
9.1738461e-07
8.6548731e-07
8.1991094e-07
7.7957608e-07
7.4363671e-07
7.1141867e-07
6.8237837e-07
6.5607426e-07
6.3214162e-07
6.1027896e-07
5.9023338e-07
5.7179177e-07
5.5477188e-07
5.3901718e-07
5.243929e-07
5.1078309e-07
4.9809172e-07
4.8624029e-07
4.7516996e-07
4.6483069e-07
4.5517399e-07
4.4616546e-07
4.3777207e-07
4.2996159e-07
4.2270144e-07
4.1595696e-07
4.0969325e-07
4.038765e-07
3.9847546e-07
3.9346029e-07
3.8880485e-07
3.8448719e-07
3.8048628e-07
3.7678481e-07
3.7336757e-07
3.7021848e-07
3.6732453e-07
3.6467503e-07
3.6225713e-07
3.6005849e-07
3.5806929e-07
3.562783e-07
3.5467456e-07
3.5324859e-07
3.5198907e-07
3.5088584e-07
3.4992891e-07
3.4910573e-07
3.4840623e-07
3.4782043e-07
3.4733656e-07
3.4694554e-07
3.4663639e-07
3.4639976e-07
3.4622704e-07
3.4611083e-07
3.4604296e-07
3.4601925e-07
3.4603742e-07
3.4609329e-07
3.4618808e-07
3.463295e-07
3.4653019e-07
3.4680918e-07
3.4721211e-07
3.4776871e-07
3.4850694e-07
3.4945829e-07
3.5065941e-07
3.5215024e-07
3.539772e-07
3.5619413e-07
3.5885924e-07
3.6202685e-07
3.6574828e-07
3.7008915e-07
3.7517364e-07
3.8123081e-07
3.8859463e-07
3.9761385e-07
4.0846999e-07
4.2107428e-07
4.3522686e-07
4.5085181e-07
4.6802771e-07
4.8685131e-07
5.0743796e-07
5.2992248e-07
5.5446269e-07
5.8114835e-07
6.1044009e-07
6.4096698e-07
6.7951329e-07
3.3467588e-06
2.6867771e-06
2.230811e-06
1.9074161e-06
1.6687488e-06
1.4859304e-06
1.3414966e-06
1.2245116e-06
1.1278339e-06
1.0466089e-06
9.774194e-07
9.17788e-07
8.6587447e-07
8.2028239e-07
7.799335e-07
7.4398138e-07
7.1175133e-07
6.8270015e-07
6.5638536e-07
6.3244266e-07
6.1057048e-07
5.9051587e-07
5.7206534e-07
5.5503685e-07
5.3927403e-07
5.2464175e-07
5.1102403e-07
4.983257e-07
4.8646921e-07
4.7539511e-07
4.6505302e-07
4.5539554e-07
4.4638763e-07
4.3799549e-07
4.3018706e-07
4.2292956e-07
4.1618727e-07
4.0992629e-07
4.0411298e-07
3.9871535e-07
3.9370478e-07
3.8905489e-07
3.8474305e-07
3.8074795e-07
3.7705219e-07
3.7363995e-07
3.7049588e-07
3.676077e-07
3.6496338e-07
3.6254868e-07
3.6035313e-07
3.5836722e-07
3.5657845e-07
3.5497611e-07
3.5355117e-07
3.5229153e-07
3.5118716e-07
3.502282e-07
3.4940155e-07
3.4869752e-07
3.4810663e-07
3.47616e-07
3.4721497e-07
3.4689444e-07
3.4664429e-07
3.4645625e-07
3.4632076e-07
3.4623009e-07
3.4617953e-07
3.4616541e-07
3.4618702e-07
3.4624169e-07
3.463368e-07
3.4648359e-07
3.4670324e-07
3.4703929e-07
3.4751931e-07
3.4816925e-07
3.4901819e-07
3.5009985e-07
3.5145086e-07
3.5311391e-07
3.5513827e-07
3.5757766e-07
3.6048753e-07
3.639198e-07
3.679395e-07
3.7266147e-07
3.7827655e-07
3.850391e-07
3.9321436e-07
4.0300215e-07
4.1445409e-07
4.2747775e-07
4.4195015e-07
4.5785832e-07
4.7520013e-07
4.9401182e-07
5.1437681e-07
5.3637957e-07
5.6008698e-07
5.8587547e-07
6.1273415e-07
6.4612597e-07
3.3469503e-06
2.6871902e-06
2.231313e-06
1.9079412e-06
1.6692694e-06
1.4864354e-06
1.341982e-06
1.2249766e-06
1.1282788e-06
1.0470347e-06
9.7782704e-07
9.1817868e-07
8.6625003e-07
8.2064389e-07
7.8028193e-07
7.4431774e-07
7.1207621e-07
6.8301447e-07
6.566897e-07
6.3273794e-07
6.1085715e-07
5.9079463e-07
5.723371e-07
5.5530182e-07
5.3953201e-07
5.2489307e-07
5.1126981e-07
4.9856713e-07
4.8670843e-07
4.7563352e-07
4.6529145e-07
4.5563665e-07
4.4663277e-07
4.3824587e-07
4.3044332e-07
4.2319169e-07
4.1645609e-07
4.1020248e-07
4.0439762e-07
3.99009e-07
3.9400776e-07
3.893673e-07
3.8506463e-07
3.8107929e-07
3.7739353e-07
3.7399068e-07
3.7085611e-07
3.6797655e-07
3.6533927e-07
3.6293248e-07
3.6074512e-07
3.5876578e-07
3.5698385e-07
3.5538802e-07
3.539684e-07
3.5271359e-07
3.5161319e-07
3.5065643e-07
3.4983155e-07
3.4912921e-07
3.4853771e-07
3.4804619e-07
3.4764345e-07
3.473194e-07
3.4706486e-07
3.4686861e-07
3.4672297e-07
3.4662086e-07
3.4655584e-07
3.4652283e-07
3.4652076e-07
3.4654715e-07
3.466101e-07
3.4671811e-07
3.4689322e-07
3.4717538e-07
3.4758854e-07
3.4815894e-07
3.4891119e-07
3.4988236e-07
3.5110657e-07
3.52617e-07
3.5446389e-07
3.5669951e-07
3.5937869e-07
3.6255253e-07
3.6627718e-07
3.7065368e-07
3.7587003e-07
3.8217871e-07
3.8980351e-07
3.9887245e-07
4.0941973e-07
4.2141629e-07
4.3480483e-07
4.4957042e-07
4.657082e-07
4.831884e-07
5.0202667e-07
5.2224884e-07
5.4388826e-07
5.6717734e-07
5.9140152e-07
6.2050705e-07
3.3471407e-06
2.6875892e-06
2.2317952e-06
1.9084477e-06
1.6697746e-06
1.4869259e-06
1.3424536e-06
1.2254284e-06
1.1287107e-06
1.0474478e-06
9.7822225e-07
9.1855725e-07
8.6661307e-07
8.2099289e-07
7.8061781e-07
7.4464109e-07
7.1238817e-07
6.8331602e-07
6.5698163e-07
6.3302059e-07
6.1113151e-07
5.9106128e-07
5.725957e-07
5.5555241e-07
5.3977492e-07
5.251286e-07
5.1149894e-07
4.9879143e-07
4.8692965e-07
4.7585398e-07
4.6551236e-07
4.5586019e-07
4.4686059e-07
4.3847928e-07
4.3068298e-07
4.2343764e-07
4.1670941e-07
4.104645e-07
4.0466836e-07
3.9928874e-07
3.9429734e-07
3.8966728e-07
3.853751e-07
3.8140015e-07
3.777241e-07
3.7433114e-07
3.7120629e-07
3.6833604e-07
3.6570801e-07
3.6331035e-07
3.6113219e-07
3.5916101e-07
3.5738582e-07
3.5579725e-07
3.54384e-07
3.5313451e-07
3.5203965e-07
3.5108688e-07
3.5026655e-07
3.495688e-07
3.489787e-07
3.484872e-07
3.4808402e-07
3.4775778e-07
3.4749969e-07
3.4729714e-07
3.4714686e-07
3.4703727e-07
3.4695848e-07
3.4691022e-07
3.4688587e-07
3.4688537e-07
3.4691814e-07
3.4699055e-07
3.4712453e-07
3.4735881e-07
3.4771703e-07
3.4822137e-07
3.4889708e-07
3.4977482e-07
3.5088933e-07
3.5227845e-07
3.5398067e-07
3.5604384e-07
3.5852286e-07
3.6147239e-07
3.64947e-07
3.6902899e-07
3.7388722e-07
3.7979366e-07
3.870202e-07
3.9569137e-07
4.0575827e-07
4.1710462e-07
4.2965397e-07
4.4340513e-07
4.5841824e-07
4.7469238e-07
4.9224047e-07
5.1106173e-07
5.3116423e-07
5.5265576e-07
5.750763e-07
6.0121024e-07
3.347334e-06
2.6879828e-06
2.2322688e-06
1.9089427e-06
1.6702648e-06
1.487401e-06
1.3429093e-06
1.2258644e-06
1.1291281e-06
1.0478472e-06
9.7860472e-07
9.1892394e-07
8.6696499e-07
8.2133106e-07
7.809431e-07
7.44955e-07
7.1269159e-07
6.8360901e-07
6.5726507e-07
6.3329543e-07
6.1139825e-07
5.9132008e-07
5.7284669e-07
5.5579614e-07
5.4001187e-07
5.2535921e-07
5.1172414e-07
4.990132e-07
4.8715025e-07
4.7607469e-07
4.6573518e-07
4.5608826e-07
4.4709563e-07
4.3872186e-07
4.3093456e-07
4.2369947e-07
4.1698254e-07
4.1074937e-07
4.0496519e-07
3.9959832e-07
3.9462016e-07
3.9000319e-07
3.8572386e-07
3.8176211e-07
3.7809924e-07
3.7471894e-07
3.7160676e-07
3.6874879e-07
3.6613313e-07
3.6374704e-07
3.6157918e-07
3.5961959e-07
3.5785585e-07
3.5627721e-07
3.5487396e-07
3.5363431e-07
3.5254807e-07
3.5160434e-07
3.5079132e-07
3.5009937e-07
3.4951583e-07
3.4903126e-07
3.4863403e-07
3.4831189e-07
3.4805431e-07
3.47853e-07
3.4769986e-07
3.475835e-07
3.4749798e-07
3.4743941e-07
3.4740398e-07
3.4738961e-07
3.4740323e-07
3.4745122e-07
3.4755625e-07
3.4775255e-07
3.4806283e-07
3.4850964e-07
3.4911726e-07
3.499128e-07
3.5092892e-07
3.5220352e-07
3.5377496e-07
3.5568636e-07
3.5798893e-07
3.6073929e-07
3.6399556e-07
3.678262e-07
3.7236252e-07
3.778593e-07
3.8465086e-07
3.9297715e-07
4.0283182e-07
4.1400446e-07
4.2626049e-07
4.3947894e-07
4.5369476e-07
4.6896479e-07
4.8535108e-07
5.0290101e-07
5.2166613e-07
5.4170097e-07
5.6269427e-07
5.8668884e-07
3.3475296e-06
2.6883689e-06
2.2327304e-06
1.9094237e-06
1.6707417e-06
1.4878634e-06
1.3433534e-06
1.2262895e-06
1.1295338e-06
1.0482346e-06
9.7897497e-07
9.1927859e-07
8.6730517e-07
8.2165814e-07
7.8125817e-07
7.4525822e-07
7.1298385e-07
6.8389135e-07
6.5753834e-07
6.3356055e-07
6.116554e-07
5.9156933e-07
5.7308869e-07
5.5603081e-07
5.4023918e-07
5.2557996e-07
5.1193931e-07
4.992246e-07
4.8736006e-07
4.7628605e-07
4.6595054e-07
4.5630903e-07
4.473243e-07
4.3896106e-07
4.3118483e-07
4.239618e-07
4.1725768e-07
4.1103803e-07
4.0526842e-07
3.9991701e-07
3.9495401e-07
3.9035196e-07
3.8608785e-07
3.8214104e-07
3.7849327e-07
3.7512808e-07
3.7203008e-07
3.6918694e-07
3.6658532e-07
3.6421268e-07
3.6205893e-07
3.6011225e-07
3.5836063e-07
3.5679508e-07
3.5540438e-07
3.5417655e-07
3.5310236e-07
3.5217044e-07
3.5136851e-07
3.5068637e-07
3.5011177e-07
3.4963424e-07
3.4924307e-07
3.4892609e-07
3.4867467e-07
3.4847654e-07
3.4832325e-07
3.4820683e-07
3.4812066e-07
3.4805864e-07
3.4801459e-07
3.4798684e-07
3.4798577e-07
3.4801751e-07
3.4809959e-07
3.4826601e-07
3.4853916e-07
3.4893892e-07
3.4948967e-07
3.5021764e-07
3.5115345e-07
3.5233144e-07
3.5378967e-07
3.5556932e-07
3.5771766e-07
3.6029026e-07
3.6335183e-07
3.6697353e-07
3.7125328e-07
3.7638346e-07
3.8268783e-07
3.9051564e-07
4.0004764e-07
4.1116663e-07
4.2355245e-07
4.3688728e-07
4.5100087e-07
4.658775e-07
4.8156205e-07
4.9814264e-07
5.1574827e-07
5.3447623e-07
5.5415815e-07
5.7633254e-07
3.3477282e-06
2.6887485e-06
2.2331815e-06
1.9098931e-06
1.6712053e-06
1.4883129e-06
1.3437843e-06
1.226701e-06
1.129927e-06
1.0486103e-06
9.7933415e-07
9.1962252e-07
8.6763539e-07
8.2197543e-07
7.815634e-07
7.4555246e-07
7.1326792e-07
6.8416579e-07
6.5780385e-07
6.3381753e-07
6.1190425e-07
5.9181065e-07
5.7332274e-07
5.5625787e-07
5.4045923e-07
5.2579323e-07
5.1214784e-07
4.9943068e-07
4.8756656e-07
4.7649456e-07
4.6616386e-07
4.565311e-07
4.4755691e-07
4.3920587e-07
4.3144378e-07
4.2423622e-07
4.1754904e-07
4.1134679e-07
4.0559546e-07
4.002625e-07
3.9531754e-07
3.9073356e-07
3.8648744e-07
3.8255913e-07
3.7892901e-07
3.7558062e-07
3.7249994e-07
3.6967408e-07
3.6708907e-07
3.6473351e-07
3.6259696e-07
3.6066631e-07
3.5893091e-07
3.5738103e-07
3.560062e-07
3.5479418e-07
3.5373443e-07
3.5281686e-07
3.5202865e-07
3.5136052e-07
3.5079952e-07
3.5033431e-07
3.4995592e-07
3.4964923e-07
3.4940627e-07
3.4921727e-07
3.4907019e-07
3.4895877e-07
3.4887342e-07
3.4880936e-07
3.4876286e-07
3.4873221e-07
3.4872283e-07
3.4873953e-07
3.488062e-07
3.4895103e-07
3.49197e-07
3.4956221e-07
3.5006442e-07
3.5073428e-07
3.5159941e-07
3.5269351e-07
3.5405303e-07
3.5571709e-07
3.5773056e-07
3.6014561e-07
3.6302861e-07
3.6645964e-07
3.705281e-07
3.7536816e-07
3.8121986e-07
3.8842703e-07
3.9731514e-07
4.0800571e-07
4.2033819e-07
4.3396186e-07
4.4850703e-07
4.6374035e-07
4.7952882e-07
4.9588019e-07
5.1290092e-07
5.3072292e-07
5.4929429e-07
5.6986136e-07
3.3479282e-06
2.6891225e-06
2.2336234e-06
1.9103511e-06
1.671657e-06
1.4887496e-06
1.3442029e-06
1.2271004e-06
1.1303084e-06
1.0489745e-06
9.7968237e-07
9.1995615e-07
8.679553e-07
8.2228274e-07
7.81859e-07
7.458369e-07
7.1354198e-07
6.8443054e-07
6.5805954e-07
6.3406495e-07
6.1214423e-07
5.920435e-07
5.7354851e-07
5.5647635e-07
5.4067043e-07
5.2599798e-07
5.1234759e-07
4.9962792e-07
4.8776478e-07
4.7669784e-07
4.6637459e-07
4.5675161e-07
4.4779063e-07
4.3945421e-07
4.3170873e-07
4.2452016e-07
4.1785294e-07
4.1167235e-07
4.0594299e-07
4.0063161e-07
3.9570786e-07
3.9114529e-07
3.8692025e-07
3.8301148e-07
3.7940121e-07
3.7607305e-07
3.730126e-07
3.7020649e-07
3.676411e-07
3.6530491e-07
3.6318723e-07
3.6127588e-07
3.5956068e-07
3.5803037e-07
3.5667405e-07
3.5548048e-07
3.5443907e-07
3.5353995e-07
3.5276919e-07
3.5211742e-07
3.5157289e-07
3.5112338e-07
3.5075854e-07
3.5046667e-07
3.5023709e-07
3.5005978e-07
3.4992393e-07
3.4982136e-07
3.4974451e-07
3.4968584e-07
3.4964014e-07
3.496082e-07
3.4959536e-07
3.4960505e-07
3.496609e-07
3.4979029e-07
3.5001365e-07
3.5034894e-07
3.5081639e-07
3.5143876e-07
3.5224723e-07
3.5327096e-07
3.5454563e-07
3.5610994e-07
3.5800629e-07
3.6028459e-07
3.6300868e-07
3.662624e-07
3.7014252e-07
3.747583e-07
3.802663e-07
3.8691254e-07
3.9501291e-07
4.048403e-07
4.164879e-07
4.2982034e-07
4.4452216e-07
4.6024347e-07
4.7664436e-07
4.9350293e-07
5.1076422e-07
5.2848567e-07
5.4659921e-07
5.6617649e-07
3.3481324e-06
2.6894891e-06
2.2340534e-06
1.9107966e-06
1.6720963e-06
1.4891735e-06
1.3446091e-06
1.2274883e-06
1.1306785e-06
1.0493278e-06
9.8002009e-07
9.2027965e-07
8.6826528e-07
8.2258015e-07
7.8214486e-07
7.4611217e-07
7.1380715e-07
6.8468661e-07
6.5830729e-07
6.3430425e-07
6.1237574e-07
5.9226782e-07
5.7376541e-07
5.566859e-07
5.4087287e-07
5.2619441e-07
5.125401e-07
4.9981986e-07
4.8795954e-07
4.7689783e-07
4.6658423e-07
4.5697427e-07
4.4802818e-07
4.3971034e-07
4.3198582e-07
4.2482044e-07
4.1817851e-07
4.1202309e-07
4.06319e-07
4.0103323e-07
3.9613444e-07
3.9159619e-07
3.8739543e-07
3.8351029e-07
3.7992333e-07
3.7661838e-07
3.7358037e-07
3.7079687e-07
3.6825448e-07
3.6594162e-07
3.6384707e-07
3.6195832e-07
3.6026552e-07
3.5875785e-07
3.5742348e-07
3.5625234e-07
3.552326e-07
3.5435342e-07
3.5360486e-07
3.5297453e-07
3.5245007e-07
3.5202074e-07
3.5167544e-07
3.5140277e-07
3.5119123e-07
3.5102975e-07
3.5090839e-07
3.5081907e-07
3.5075355e-07
3.5070432e-07
3.5066679e-07
3.5063998e-07
3.5062928e-07
3.506383e-07
3.5068996e-07
3.5081048e-07
3.5101772e-07
3.5132997e-07
3.5176766e-07
3.5235308e-07
3.5311231e-07
3.5407933e-07
3.552835e-07
3.5676201e-07
3.585571e-07
3.6071685e-07
3.6330137e-07
3.6639155e-07
3.7008988e-07
3.7450759e-07
3.7976301e-07
3.860056e-07
3.9344544e-07
4.0233549e-07
4.1288984e-07
4.2520048e-07
4.3919478e-07
4.5465771e-07
4.7128033e-07
4.886883e-07
5.0659636e-07
5.2488151e-07
5.4328508e-07
5.6290272e-07
3.3483339e-06
2.6898494e-06
2.234474e-06
1.9112301e-06
1.6725225e-06
1.4895847e-06
1.3450028e-06
1.2278643e-06
1.131037e-06
1.0496697e-06
9.8034713e-07
9.2059236e-07
8.6856442e-07
8.2286705e-07
7.8242074e-07
7.4637757e-07
7.1406296e-07
6.8493308e-07
6.5854503e-07
6.3453447e-07
6.1259859e-07
5.9248341e-07
5.7397367e-07
5.5688674e-07
5.4106702e-07
5.2638303e-07
5.1272548e-07
5.0000542e-07
4.8814926e-07
4.770955e-07
4.6679403e-07
4.5719948e-07
4.4827228e-07
4.399768e-07
4.3227758e-07
4.2513992e-07
4.1852726e-07
4.1240227e-07
4.0672885e-07
4.014721e-07
3.9660161e-07
3.920912e-07
3.8791735e-07
3.8405869e-07
3.8049827e-07
3.7722002e-07
3.7420836e-07
3.7145091e-07
3.68935e-07
3.6664851e-07
3.6457997e-07
3.627179e-07
3.6105159e-07
3.5956998e-07
3.5826168e-07
3.5711586e-07
3.5612308e-07
3.5527015e-07
3.5454499e-07
3.5393973e-07
3.5344086e-07
3.5303509e-07
3.5271307e-07
3.5246192e-07
3.5227174e-07
3.5213135e-07
3.5203001e-07
3.5195991e-07
3.5191025e-07
3.5187505e-07
3.5184919e-07
3.5183235e-07
3.5182854e-07
3.518414e-07
3.5189387e-07
3.5201047e-07
3.5220898e-07
3.525049e-07
3.5291861e-07
3.5347305e-07
3.5419345e-07
3.5510898e-07
3.5625479e-07
3.5766278e-07
3.593731e-07
3.6143271e-07
3.6389861e-07
3.6684649e-07
3.7037594e-07
3.7460314e-07
3.7964352e-07
3.8560505e-07
3.9260538e-07
4.0079418e-07
4.103475e-07
4.214266e-07
4.3413108e-07
4.4845969e-07
4.6431613e-07
4.8143112e-07
4.9948667e-07
5.1826612e-07
5.3721105e-07
5.5760972e-07
3.3485377e-06
2.6902015e-06
2.2348824e-06
1.9116515e-06
1.6729375e-06
1.4899848e-06
1.345385e-06
1.228229e-06
1.1313845e-06
1.0500012e-06
9.8066321e-07
9.2089432e-07
8.6885364e-07
8.2314428e-07
7.8268659e-07
7.4663289e-07
7.1430895e-07
6.851705e-07
6.587743e-07
6.3475609e-07
6.128126e-07
5.9269019e-07
5.741735e-07
5.5707945e-07
5.4125338e-07
5.2656422e-07
5.1290461e-07
5.0018627e-07
4.8833585e-07
4.7729266e-07
4.6700546e-07
4.574292e-07
4.4852522e-07
4.4025698e-07
4.3258872e-07
4.2548519e-07
4.1890812e-07
4.1281878e-07
4.0717992e-07
4.0195691e-07
3.9711878e-07
3.926395e-07
3.8849607e-07
3.8466775e-07
3.8113743e-07
3.7788854e-07
3.7490703e-07
3.7218045e-07
3.6969471e-07
3.6743844e-07
3.6540017e-07
3.6356825e-07
3.6193249e-07
3.6048063e-07
3.5920304e-07
3.5808788e-07
3.5712365e-07
3.563014e-07
3.5560691e-07
3.5503025e-07
3.5456096e-07
3.5418404e-07
3.5388961e-07
3.536668e-07
3.5350261e-07
3.5338629e-07
3.5330845e-07
3.5326036e-07
3.5323125e-07
3.5321383e-07
3.5320335e-07
3.5320012e-07
3.5320767e-07
3.5322903e-07
3.5328745e-07
3.5340593e-07
3.536012e-07
3.5388829e-07
3.5428529e-07
3.548152e-07
3.5550306e-07
3.5637684e-07
3.574693e-07
3.5881473e-07
3.6045123e-07
3.6242535e-07
3.6479148e-07
3.6762001e-07
3.7100265e-07
3.7505124e-07
3.7988425e-07
3.8560833e-07
3.9230796e-07
4.0005831e-07
4.0894898e-07
4.1908357e-07
4.3057376e-07
4.4351705e-07
4.5798081e-07
4.7391232e-07
4.9112907e-07
5.0952577e-07
5.2842216e-07
5.4940045e-07
3.3487384e-06
2.6905452e-06
2.2352802e-06
1.9120606e-06
1.6733391e-06
1.4903721e-06
1.3457557e-06
1.2285818e-06
1.1317201e-06
1.0503214e-06
9.8096889e-07
9.2118605e-07
8.6913275e-07
8.2341191e-07
7.8294349e-07
7.4687983e-07
7.1454643e-07
6.8539904e-07
6.5899464e-07
6.3496867e-07
6.1301798e-07
5.9288832e-07
5.7436449e-07
5.5726372e-07
5.4143118e-07
5.2673787e-07
5.1307724e-07
5.0036234e-07
4.8852033e-07
4.7748998e-07
4.6722045e-07
4.5766712e-07
4.4879081e-07
4.405557e-07
4.3292538e-07
4.258625e-07
4.1932749e-07
4.1327905e-07
4.076796e-07
4.0249497e-07
3.9769365e-07
3.9324962e-07
3.8914087e-07
3.8534659e-07
3.8185012e-07
3.7863542e-07
3.7568793e-07
3.7299572e-07
3.7054451e-07
3.683222e-07
3.6631852e-07
3.645218e-07
3.6292057e-07
3.6150364e-07
3.6026066e-07
3.5918039e-07
3.5825161e-07
3.5746298e-07
3.5680308e-07
3.5626088e-07
3.5582345e-07
3.5547997e-07
3.5521902e-07
3.5502707e-07
3.5489226e-07
3.5480517e-07
3.5475486e-07
3.5473111e-07
3.5472599e-07
3.5473074e-07
3.5474044e-07
3.5475466e-07
3.5477811e-07
3.5481328e-07
3.5488184e-07
3.5500601e-07
3.552017e-07
3.5548496e-07
3.5587285e-07
3.5638627e-07
3.570495e-07
3.5789066e-07
3.589384e-07
3.6023127e-07
3.6180263e-07
3.6369966e-07
3.6597675e-07
3.6870088e-07
3.7195706e-07
3.7584823e-07
3.8048731e-07
3.8598335e-07
3.9242215e-07
3.998616e-07
4.0834156e-07
4.1789846e-07
4.2858534e-07
4.4046926e-07
4.5363743e-07
4.6815916e-07
4.8397939e-07
5.0116511e-07
5.1911071e-07
5.396262e-07
3.3489384e-06
2.6908809e-06
2.2356668e-06
1.9124573e-06
1.6737286e-06
1.4907474e-06
1.346114e-06
1.2289232e-06
1.1320452e-06
1.0506305e-06
9.8126357e-07
9.2146806e-07
8.694029e-07
8.2367048e-07
7.8319144e-07
7.4711789e-07
7.1477484e-07
6.8561856e-07
6.5920609e-07
6.3517268e-07
6.1321472e-07
5.9307763e-07
5.7454649e-07
5.5743866e-07
5.4160047e-07
5.2690421e-07
5.1324459e-07
5.005352e-07
4.8870373e-07
4.7768964e-07
4.6744166e-07
4.5791627e-07
4.4907448e-07
4.4088022e-07
4.3329597e-07
4.2628118e-07
4.197945e-07
4.1379366e-07
4.0823953e-07
4.0309749e-07
3.9833729e-07
3.9393242e-07
3.8986215e-07
3.8610748e-07
3.826492e-07
3.7947314e-07
3.7656467e-07
3.7391042e-07
3.7149783e-07
3.6931533e-07
3.6735174e-07
3.6559431e-07
3.6403297e-07
3.6265587e-07
3.6145245e-07
3.6041158e-07
3.5952259e-07
3.587739e-07
3.581522e-07
3.5764807e-07
3.5724858e-07
3.5694102e-07
3.567148e-07
3.5655796e-07
3.56458e-07
3.5640343e-07
3.5638393e-07
3.5638927e-07
3.5641143e-07
3.5644176e-07
3.5647405e-07
3.5651002e-07
3.5655268e-07
3.5660314e-07
3.5668699e-07
3.568235e-07
3.5702627e-07
3.5731062e-07
3.5769424e-07
3.581973e-07
3.5884307e-07
3.5965948e-07
3.6067521e-07
3.6192261e-07
3.63441e-07
3.6527215e-07
3.6747009e-07
3.701007e-07
3.7324451e-07
3.7699537e-07
3.8145834e-07
3.8673667e-07
3.9292003e-07
4.0007362e-07
4.082315e-07
4.1740692e-07
4.276081e-07
4.3884906e-07
4.5116117e-07
4.6461253e-07
4.7917536e-07
4.9498356e-07
5.1157544e-07
5.307032e-07
3.3491362e-06
2.6912097e-06
2.2360434e-06
1.9128423e-06
1.6741055e-06
1.4911102e-06
1.3464606e-06
1.2292531e-06
1.1323594e-06
1.0509296e-06
9.8154858e-07
9.2173983e-07
8.6966259e-07
8.2391907e-07
7.8342928e-07