/*--------------------------------*- C++ -*----------------------------------*\
| =========                 |                                                 |
| \\      /  F ield         | OpenFOAM: The Open Source CFD Toolbox           |
|  \\    /   O peration     | Version:  2406                                  |
|   \\  /    A nd           | Website:  www.openfoam.com                      |
|    \\/     M anipulation  |                                                 |
\*---------------------------------------------------------------------------*/
FoamFile
{
    version     2.0;
    format      ascii;
    arch        "LSB;label=32;scalar=64";
    class       volScalarField;
    location    "900";
    object      nut;
}
// * * * * * * * * * * * * * * * * * * * * * * * * * * * * * * * * * * * * * //

dimensions      [0 2 -1 0 0 0 0];

internalField   nonuniform List<scalar> 
132739
(
8.6495256e-07
8.4995167e-07
8.3710187e-07
8.2636759e-07
8.1733509e-07
8.0960505e-07
8.0287593e-07
7.9693316e-07
7.9162356e-07
7.8683513e-07
7.8248364e-07
7.7850413e-07
7.7484546e-07
7.7146657e-07
7.6833409e-07
7.6542045e-07
7.6270274e-07
7.6016172e-07
7.5778119e-07
7.5554739e-07
7.5344864e-07
7.5147498e-07
7.4961794e-07
7.4787031e-07
7.4622598e-07
7.446798e-07
7.432275e-07
7.4186552e-07
7.40591e-07
7.3940171e-07
7.3829594e-07
7.3727252e-07
7.3633074e-07
7.3547035e-07
7.346915e-07
7.3399475e-07
7.3338101e-07
7.3285152e-07
7.3240785e-07
7.3205184e-07
7.3178562e-07
7.3161153e-07
7.3153214e-07
7.3155021e-07
7.3166867e-07
7.3189057e-07
7.3221904e-07
7.3265727e-07
7.3320841e-07
7.3387554e-07
7.3466156e-07
7.3556944e-07
7.3660045e-07
7.3776281e-07
7.390378e-07
7.4039894e-07
7.4180686e-07
7.4333495e-07
7.4472726e-07
7.4622234e-07
7.475513e-07
7.4908442e-07
7.5049353e-07
7.5214962e-07
7.5387365e-07
7.5543203e-07
7.5784983e-07
7.6063078e-07
7.6365985e-07
7.6701513e-07
7.7071191e-07
7.7475414e-07
7.7883799e-07
7.8289179e-07
7.8682157e-07
7.9094696e-07
7.9506487e-07
7.9915559e-07
8.0345593e-07
8.0815175e-07
8.1324908e-07
8.185233e-07
8.2405875e-07
8.3023161e-07
8.3713455e-07
8.4495741e-07
8.5407211e-07
8.6482589e-07
8.7765476e-07
8.9337372e-07
9.1199851e-07
9.3407198e-07
9.5978942e-07
9.8898125e-07
1.0212471e-06
1.056161e-06
1.0935248e-06
1.1334818e-06
1.1767442e-06
1.2239169e-06
1.2770895e-06
1.3346052e-06
1.403456e-06
1.4725679e-06
8.6492747e-07
8.4993618e-07
8.3709425e-07
8.2636595e-07
8.1733822e-07
8.0961224e-07
8.0288678e-07
7.9694744e-07
7.9164122e-07
7.8685627e-07
7.8250853e-07
7.7853317e-07
7.7487914e-07
7.7150552e-07
7.6837897e-07
7.6547204e-07
7.6276184e-07
7.6022919e-07
7.5785786e-07
7.556341e-07
7.5354618e-07
7.5158406e-07
7.4973917e-07
7.4800418e-07
7.4637283e-07
7.4483981e-07
7.4340064e-07
7.4205157e-07
7.4078951e-07
7.3961199e-07
7.3851709e-07
7.375034e-07
7.3656998e-07
7.3571638e-07
7.3494256e-07
7.3424889e-07
7.3363617e-07
7.3310551e-07
7.3265841e-07
7.3229666e-07
7.3202235e-07
7.3183783e-07
7.317457e-07
7.3174875e-07
7.3184993e-07
7.3205233e-07
7.3235912e-07
7.3277347e-07
7.3329853e-07
7.3393736e-07
7.3469277e-07
7.3556765e-07
7.3656313e-07
7.3768606e-07
7.3886092e-07
7.4005827e-07
7.4128889e-07
7.4268845e-07
7.4425772e-07
7.4599617e-07
7.4787789e-07
7.4991877e-07
7.520576e-07
7.5432249e-07
7.5667896e-07
7.592245e-07
7.6174408e-07
7.6435203e-07
7.6710002e-07
7.7000893e-07
7.7316869e-07
7.767795e-07
7.8026807e-07
7.838108e-07
7.8712718e-07
7.9074946e-07
7.9530637e-07
7.9890923e-07
8.0209049e-07
8.0656503e-07
8.1161273e-07
8.1675065e-07
8.2167545e-07
8.2740086e-07
8.3394996e-07
8.4160599e-07
8.5001473e-07
8.5919368e-07
8.6906441e-07
8.8007831e-07
8.9273402e-07
9.0765643e-07
9.255821e-07
9.4724861e-07
9.7323095e-07
1.0037977e-06
1.0388419e-06
1.0780142e-06
1.1208722e-06
1.1671753e-06
1.2170695e-06
1.2709559e-06
1.327705e-06
1.3984775e-06
8.6490787e-07
8.4992598e-07
8.3709156e-07
8.2636871e-07
8.1734479e-07
8.0962143e-07
8.0289767e-07
7.969593e-07
7.9165338e-07
7.8686805e-07
7.8251918e-07
7.7854187e-07
7.7488498e-07
7.7150746e-07
7.6837589e-07
7.654627e-07
7.6274491e-07
7.6020324e-07
7.5782139e-07
7.5558551e-07
7.5348381e-07
7.515062e-07
7.4964406e-07
7.4789005e-07
7.4623787e-07
7.4468223e-07
7.4321865e-07
7.4184342e-07
7.4055352e-07
7.3934653e-07
7.3822062e-07
7.3717447e-07
7.3620727e-07
7.3531869e-07
7.3450881e-07
7.3377815e-07
7.3312762e-07
7.3255849e-07
7.3207236e-07
7.3167114e-07
7.31357e-07
7.3113235e-07
7.3099984e-07
7.3096224e-07
7.3102251e-07
7.3118364e-07
7.3144869e-07
7.3182071e-07
7.3230264e-07
7.3289731e-07
7.3360728e-07
7.3443488e-07
7.3538205e-07
7.3644807e-07
7.3764011e-07
7.3896472e-07
7.4042643e-07
7.4201152e-07
7.4371153e-07
7.4552436e-07
7.4744617e-07
7.4947537e-07
7.5160014e-07
7.5381847e-07
7.5613334e-07
7.5855077e-07
7.6105776e-07
7.6363727e-07
7.662982e-07
7.6903764e-07
7.7177558e-07
7.747915e-07
7.7787608e-07
7.8089282e-07
7.8392844e-07
7.870359e-07
7.9029326e-07
7.9349575e-07
7.9682927e-07
8.0049001e-07
8.0443727e-07
8.0857137e-07
8.1295965e-07
8.179693e-07
8.2369969e-07
8.3022877e-07
8.3774095e-07
8.4635662e-07
8.5618978e-07
8.6724892e-07
8.7953109e-07
8.9307293e-07
9.0802853e-07
9.2475516e-07
9.4384675e-07
9.6607768e-07
9.9222986e-07
1.0229232e-06
1.0584344e-06
1.0987664e-06
1.1435197e-06
1.1932574e-06
1.2434619e-06
1.313479e-06
8.6489536e-07
8.4992172e-07
8.3709375e-07
8.2637555e-07
8.1735499e-07
8.0963415e-07
8.0291242e-07
7.9697582e-07
7.9167158e-07
7.8688798e-07
7.8254101e-07
7.7856587e-07
7.7491151e-07
7.7153697e-07
7.684089e-07
7.6549981e-07
7.6278679e-07
7.6025061e-07
7.5787503e-07
7.5564628e-07
7.5355258e-07
7.5158391e-07
7.4973167e-07
7.4798853e-07
7.4634823e-07
7.4480548e-07
7.433558e-07
7.4199548e-07
7.4072148e-07
7.3953135e-07
7.3842322e-07
7.3739575e-07
7.3644807e-07
7.3557976e-07
7.3479087e-07
7.3408182e-07
7.3345342e-07
7.3290686e-07
7.3244362e-07
7.320655e-07
7.3177453e-07
7.31573e-07
7.314634e-07
7.3144836e-07
7.3153067e-07
7.3171317e-07
7.3199874e-07
7.3239024e-07
7.3289045e-07
7.33502e-07
7.3422726e-07
7.3506836e-07
7.3602678e-07
7.3710385e-07
7.3829817e-07
7.396093e-07
7.4103726e-07
7.4258209e-07
7.4424663e-07
7.4602542e-07
7.4792122e-07
7.4992044e-07
7.5202604e-07
7.5421911e-07
7.5651075e-07
7.5888767e-07
7.6133154e-07
7.6382408e-07
7.6637204e-07
7.689643e-07
7.7160962e-07
7.7426786e-07
7.7703249e-07
7.8001323e-07
7.8297998e-07
7.8581369e-07
7.8871193e-07
7.9166292e-07
7.9479236e-07
7.9811141e-07
8.0167147e-07
8.0552487e-07
8.0972697e-07
8.1434384e-07
8.194638e-07
8.2516327e-07
8.3149895e-07
8.3859405e-07
8.4662807e-07
8.558094e-07
8.6633645e-07
8.7835807e-07
8.9195138e-07
9.0714591e-07
9.2399756e-07
9.4268835e-07
9.635935e-07
9.8728677e-07
1.0144487e-06
1.0457678e-06
1.081533e-06
1.1229561e-06
1.1657026e-06
1.2270733e-06
8.6488628e-07
8.4992054e-07
8.370987e-07
8.2638489e-07
8.1736743e-07
8.0964881e-07
8.0292869e-07
7.9699326e-07
7.9168985e-07
7.8690675e-07
7.8255995e-07
7.7858466e-07
7.749298e-07
7.7155437e-07
7.6842499e-07
7.6551412e-07
7.6279881e-07
7.602598e-07
7.5788082e-07
7.5564803e-07
7.5354966e-07
7.5157564e-07
7.4971734e-07
7.4796743e-07
7.4631962e-07
7.447686e-07
7.433099e-07
7.4193979e-07
7.4065524e-07
7.394538e-07
7.3833363e-07
7.3729336e-07
7.3633216e-07
7.3544964e-07
7.3464583e-07
7.3392118e-07
7.3327653e-07
7.3271305e-07
7.3223223e-07
7.3183587e-07
7.3152599e-07
7.3130487e-07
7.3117494e-07
7.3113883e-07
7.3119924e-07
7.3135897e-07
7.3162081e-07
7.3198753e-07
7.3246181e-07
7.3304613e-07
7.3374275e-07
7.3455357e-07
7.3548015e-07
7.3652288e-07
7.3768343e-07
7.3896324e-07
7.4036278e-07
7.4187616e-07
7.4350062e-07
7.4523107e-07
7.4706706e-07
7.4900038e-07
7.5102936e-07
7.5314128e-07
7.5533819e-07
7.5761203e-07
7.5995268e-07
7.6234618e-07
7.647911e-07
7.6727955e-07
7.6980681e-07
7.7234608e-07
7.749445e-07
7.7760991e-07
7.8021683e-07
7.8282535e-07
7.8548866e-07
7.8824891e-07
7.9111463e-07
7.9411336e-07
7.972842e-07
8.0067679e-07
8.0435072e-07
8.0837477e-07
8.1282421e-07
8.1780648e-07
8.2346341e-07
8.2990325e-07
8.3721835e-07
8.4550356e-07
8.5487337e-07
8.6547068e-07
8.7745496e-07
8.9097314e-07
9.06132e-07
9.229967e-07
9.4162763e-07
9.6214676e-07
9.8480375e-07
1.0100524e-06
1.0382662e-06
1.0708543e-06
1.1050525e-06
1.1545034e-06
8.6488019e-07
8.4992199e-07
8.3710598e-07
8.263963e-07
8.1738177e-07
8.0966528e-07
8.0294679e-07
7.9701267e-07
7.9171038e-07
7.869283e-07
7.825825e-07
7.7860822e-07
7.7495446e-07
7.7158026e-07
7.6845226e-07
7.6554297e-07
7.6282947e-07
7.6029253e-07
7.579159e-07
7.5568578e-07
7.535904e-07
7.5161971e-07
7.497651e-07
7.4801924e-07
7.4637584e-07
7.4482959e-07
7.4337602e-07
7.4201139e-07
7.4073263e-07
7.3953731e-07
7.3842353e-07
7.3738992e-07
7.364356e-07
7.3556014e-07
7.3476353e-07
7.3404618e-07
7.3340887e-07
7.328527e-07
7.3237911e-07
7.3198981e-07
7.3168675e-07
7.3147212e-07
7.3134826e-07
7.313177e-07
7.3138305e-07
7.31547e-07
7.3181223e-07
7.321814e-07
7.3265704e-07
7.3324154e-07
7.3393699e-07
7.3474517e-07
7.3566738e-07
7.3670429e-07
7.3785633e-07
7.3912305e-07
7.4050358e-07
7.4199467e-07
7.4359552e-07
7.4530253e-07
7.4711427e-07
7.4902261e-07
7.5102401e-07
7.5310692e-07
7.5526901e-07
7.5750204e-07
7.5979338e-07
7.6212776e-07
7.6449907e-07
7.6689953e-07
7.6932055e-07
7.7175485e-07
7.7419799e-07
7.7664898e-07
7.7911329e-07
7.8159811e-07
7.8411419e-07
7.8667724e-07
7.8930983e-07
7.9204205e-07
7.9491191e-07
7.9796563e-07
8.0125818e-07
8.0485311e-07
8.0882413e-07
8.1324169e-07
8.1817683e-07
8.2372573e-07
8.3000239e-07
8.3713194e-07
8.4524221e-07
8.5446119e-07
8.6492102e-07
8.7675985e-07
8.9011655e-07
9.0511496e-07
9.2184603e-07
9.4036402e-07
9.6070138e-07
9.8296112e-07
1.0071797e-06
1.0341918e-06
1.0622395e-06
1.1010099e-06
8.6487684e-07
8.4992583e-07
8.3711535e-07
8.264096e-07
8.1739783e-07
8.0968332e-07
8.0296629e-07
7.970333e-07
7.9173187e-07
7.8695045e-07
7.8260514e-07
7.786312e-07
7.7497761e-07
7.7160341e-07
7.6847525e-07
7.655656e-07
7.6285154e-07
7.6031383e-07
7.579362e-07
7.5570483e-07
7.5360795e-07
7.5163548e-07
7.4977883e-07
7.4803062e-07
7.4638459e-07
7.448354e-07
7.4337859e-07
7.420104e-07
7.4072777e-07
7.3952826e-07
7.3840997e-07
7.3737153e-07
7.3641204e-07
7.3553109e-07
7.3472865e-07
7.3400512e-07
7.3336127e-07
7.3279817e-07
7.3231726e-07
7.3192019e-07
7.316089e-07
7.3138553e-07
7.312524e-07
7.3121196e-07
7.3126678e-07
7.3141948e-07
7.3167267e-07
7.3202894e-07
7.3249073e-07
7.3306031e-07
7.3373966e-07
7.3453043e-07
7.3543382e-07
7.3645028e-07
7.3758019e-07
7.3882346e-07
7.4017962e-07
7.4164538e-07
7.4321788e-07
7.4489249e-07
7.4666606e-07
7.4853126e-07
7.504834e-07
7.5251244e-07
7.5461331e-07
7.5677782e-07
7.5899471e-07
7.6125075e-07
7.635379e-07
7.6584741e-07
7.6817026e-07
7.7049631e-07
7.7281892e-07
7.7513597e-07
7.7744851e-07
7.7976089e-07
7.8208189e-07
7.8442564e-07
7.8681232e-07
7.8926871e-07
7.9182873e-07
7.9453384e-07
7.9743335e-07
8.0058465e-07
8.0405132e-07
8.0791827e-07
8.1228689e-07
8.1724819e-07
8.2288897e-07
8.2929789e-07
8.3656843e-07
8.4480056e-07
8.5410181e-07
8.6458716e-07
8.7638014e-07
8.8961133e-07
9.0441043e-07
9.208936e-07
9.3913944e-07
9.592133e-07
9.8106099e-07
1.0050509e-06
1.0298349e-06
1.0621307e-06
8.6487597e-07
8.499318e-07
8.3712658e-07
8.2642451e-07
8.1741532e-07
8.0970265e-07
8.0298699e-07
7.9705504e-07
7.9175445e-07
7.8697374e-07
7.8262904e-07
7.7865566e-07
7.7500261e-07
7.7162896e-07
7.6850137e-07
7.6559234e-07
7.6287896e-07
7.60342e-07
7.5796521e-07
7.5573478e-07
7.5363894e-07
7.5166764e-07
7.4981226e-07
7.4806545e-07
7.4642092e-07
7.4487335e-07
7.4341824e-07
7.4205185e-07
7.4077109e-07
7.395735e-07
7.3845716e-07
7.3742068e-07
7.3646314e-07
7.3558408e-07
7.3478346e-07
7.3406163e-07
7.334193e-07
7.3285755e-07
7.3237771e-07
7.3198143e-07
7.3167057e-07
7.3144722e-07
7.3131363e-07
7.3127221e-07
7.3132545e-07
7.314759e-07
7.317261e-07
7.3207855e-07
7.325356e-07
7.3309942e-07
7.3377189e-07
7.3455453e-07
7.3544841e-07
7.3645392e-07
7.3757117e-07
7.387996e-07
7.4013804e-07
7.415833e-07
7.431326e-07
7.447819e-07
7.465278e-07
7.4836339e-07
7.5028298e-07
7.5227696e-07
7.5433837e-07
7.564584e-07
7.5862541e-07
7.6082577e-07
7.630492e-07
7.6528575e-07
7.6752546e-07
7.6975852e-07
7.7197811e-07
7.7418098e-07
7.7636672e-07
7.7853807e-07
7.8070197e-07
7.8287046e-07
7.8506137e-07
7.8729891e-07
7.8961414e-07
7.9204541e-07
7.9463859e-07
7.9744721e-07
8.005325e-07
8.0396009e-07
8.0780113e-07
8.1213658e-07
8.1705554e-07
8.2265455e-07
8.2903393e-07
8.362943e-07
8.445353e-07
8.5385476e-07
8.6434983e-07
8.7611955e-07
8.8926703e-07
9.0390121e-07
9.2012627e-07
9.3804709e-07
9.5768127e-07
9.7929574e-07
1.0017835e-06
1.0304645e-06
8.648774e-07
8.4993967e-07
8.3713934e-07
8.2644069e-07
8.1743385e-07
8.0972282e-07
8.0300834e-07
7.9707728e-07
7.9177737e-07
7.8699718e-07
7.8265289e-07
7.7867982e-07
7.75027e-07
7.716535e-07
7.6852598e-07
7.6561694e-07
7.6290346e-07
7.6036632e-07
7.5798924e-07
7.5575842e-07
7.5366209e-07
7.5169017e-07
7.4983406e-07
7.4808637e-07
7.4644084e-07
7.4489212e-07
7.4343572e-07
7.4206787e-07
7.4078549e-07
7.395861e-07
7.3846777e-07
7.3742911e-07
7.3646919e-07
7.3558754e-07
7.3478409e-07
7.340592e-07
7.3341355e-07
7.3284819e-07
7.3236445e-07
7.3196393e-07
7.3164847e-07
7.3142012e-07
7.312811e-07
7.3123376e-07
7.3128055e-07
7.3142396e-07
7.3166648e-07
7.3201051e-07
7.3245834e-07
7.3301205e-07
7.3367341e-07
7.3444381e-07
7.3532421e-07
7.3631488e-07
7.3741573e-07
7.3862606e-07
7.3994464e-07
7.4136851e-07
7.4289444e-07
7.44518e-07
7.4623482e-07
7.4803796e-07
7.49921e-07
7.5187461e-07
7.538907e-07
7.5595991e-07
7.5807068e-07
7.6020979e-07
7.6236606e-07
7.6452886e-07
7.6668761e-07
7.6883196e-07
7.7095367e-07
7.7304762e-07
7.7511173e-07
7.7714723e-07
7.7915942e-07
7.8115849e-07
7.8316008e-07
7.8518586e-07
7.8726401e-07
7.8942948e-07
7.9172429e-07
7.9419769e-07
7.9690467e-07
7.9991507e-07
8.0330856e-07
8.0716219e-07
8.1155286e-07
8.1655981e-07
8.2226566e-07
8.2875625e-07
8.3612059e-07
8.4444945e-07
8.5383354e-07
8.6436215e-07
8.7612235e-07
8.8920098e-07
9.0368412e-07
9.1966682e-07
9.3719731e-07
9.5654027e-07
9.7677624e-07
1.002596e-06
8.648799e-07
8.4994825e-07
8.3715252e-07
8.2645704e-07
8.1745236e-07
8.0974283e-07
8.0302942e-07
7.9709916e-07
7.9179985e-07
7.8702013e-07
7.8267622e-07
7.7870347e-07
7.7505093e-07
7.7167768e-07
7.685504e-07
7.6564159e-07
7.6292835e-07
7.6039145e-07
7.5801463e-07
7.557841e-07
7.5368807e-07
7.5171647e-07
7.498607e-07
7.4811338e-07
7.4646823e-07
7.449199e-07
7.4346388e-07
7.420964e-07
7.4081437e-07
7.396153e-07
7.3849724e-07
7.3745877e-07
7.3649895e-07
7.3561728e-07
7.3481369e-07
7.3408849e-07
7.3344236e-07
7.3287629e-07
7.3239158e-07
7.3198981e-07
7.3167277e-07
7.3144246e-07
7.3130106e-07
7.3125088e-07
7.312943e-07
7.3143375e-07
7.3167166e-07
7.3201037e-07
7.3245207e-07
7.3299875e-07
7.3365209e-07
7.3441338e-07
7.3528342e-07
7.3626243e-07
7.3735013e-07
7.3854563e-07
7.3984743e-07
7.4125248e-07
7.4275735e-07
7.443576e-07
7.4604858e-07
7.478235e-07
7.4967544e-07
7.5159517e-07
7.535737e-07
7.5560111e-07
7.5766555e-07
7.597537e-07
7.6185337e-07
7.63953e-07
7.6604128e-07
7.6810742e-07
7.7014253e-07
7.721406e-07
7.7409852e-07
7.760164e-07
7.7789822e-07
7.797526e-07
7.8159345e-07
7.8344041e-07
7.8531944e-07
7.8726305e-07
7.8931052e-07
7.9150804e-07
7.9390794e-07
7.9657047e-07
7.9956197e-07
8.0295297e-07
8.0681812e-07
8.1123641e-07
8.1629002e-07
8.2206197e-07
8.2863497e-07
8.3609095e-07
8.445106e-07
8.5397265e-07
8.6455331e-07
8.7632544e-07
8.8935858e-07
9.0372409e-07
9.1946128e-07
9.3679892e-07
9.5495594e-07
9.7806672e-07
8.6488262e-07
8.4995673e-07
8.3716533e-07
8.2647285e-07
8.1747019e-07
8.0976205e-07
8.0304963e-07
7.971201e-07
7.9182134e-07
7.8704204e-07
7.8269846e-07
7.7872596e-07
7.7507362e-07
7.7170053e-07
7.6857336e-07
7.6566461e-07
7.6295139e-07
7.6041446e-07
7.5803756e-07
7.5580689e-07
7.5371068e-07
7.5173883e-07
7.4988275e-07
7.4813504e-07
7.4648942e-07
7.4494053e-07
7.4348387e-07
7.4211565e-07
7.4083276e-07
7.3963271e-07
7.3851355e-07
7.3747384e-07
7.3651263e-07
7.3562941e-07
7.3482409e-07
7.3409697e-07
7.3344871e-07
7.3288028e-07
7.3239295e-07
7.3198828e-07
7.3166802e-07
7.3143415e-07
7.312888e-07
7.3123422e-07
7.3127277e-07
7.3140681e-07
7.3163871e-07
7.3197073e-07
7.32405e-07
7.3294342e-07
7.3358757e-07
7.3433861e-07
7.3519726e-07
7.361636e-07
7.3723723e-07
7.384171e-07
7.3970153e-07
7.4108755e-07
7.4257156e-07
7.4414895e-07
7.4581465e-07
7.4756167e-07
7.4938263e-07
7.512682e-07
7.5320877e-07
7.551939e-07
7.5721156e-07
7.5924836e-07
7.6129159e-07
7.633291e-07
7.6534907e-07
7.6734028e-07
7.6929314e-07
7.7120061e-07
7.7305844e-07
7.7486557e-07
7.7662474e-07
7.7834317e-07
7.8003316e-07
7.817126e-07
7.834053e-07
7.8514137e-07
7.8695736e-07
7.8889646e-07
7.9100719e-07
7.9334938e-07
7.9599026e-07
7.9899693e-07
8.0243779e-07
8.0638324e-07
8.1090599e-07
8.1608071e-07
8.2198278e-07
8.2868778e-07
8.362705e-07
8.4480381e-07
8.5435796e-07
8.6499869e-07
8.7678853e-07
8.8978477e-07
9.0402002e-07
9.1967476e-07
9.3607938e-07
9.5678558e-07
8.6488478e-07
8.4996444e-07
8.3717726e-07
8.2648768e-07
8.1748701e-07
8.0978024e-07
8.030688e-07
7.9713998e-07
7.9184176e-07
7.8706288e-07
7.8271962e-07
7.7874739e-07
7.7509527e-07
7.7172236e-07
7.6859533e-07
7.6568671e-07
7.629736e-07
7.6043675e-07
7.5805994e-07
7.5582933e-07
7.5373316e-07
7.5176136e-07
7.4990529e-07
7.4815759e-07
7.4651195e-07
7.4496301e-07
7.4350626e-07
7.421379e-07
7.4085483e-07
7.3965453e-07
7.3853504e-07
7.374949e-07
7.3653316e-07
7.3564928e-07
7.3484317e-07
7.3411509e-07
7.3346568e-07
7.3289589e-07
7.3240696e-07
7.3200041e-07
7.3167796e-07
7.3144154e-07
7.3129324e-07
7.3123529e-07
7.3126995e-07
7.3139957e-07
7.3162642e-07
7.3195272e-07
7.323805e-07
7.3291158e-07
7.3354745e-07
7.3428916e-07
7.3513732e-07
7.3609193e-07
7.3715244e-07
7.3831768e-07
7.3958581e-07
7.4095381e-07
7.424179e-07
7.4397335e-07
7.4561481e-07
7.4733526e-07
7.4912695e-07
7.5098042e-07
7.5288562e-07
7.5483163e-07
7.5680616e-07
7.5879568e-07
7.6078697e-07
7.6276728e-07
7.6472427e-07
7.6664628e-07
7.6852318e-07
7.7034721e-07
7.7211334e-07
7.7381967e-07
7.7546798e-07
7.770644e-07
7.7861996e-07
7.8015104e-07
7.8167984e-07
7.8323461e-07
7.848497e-07
7.8656596e-07
7.8842955e-07
7.9049529e-07
7.9282401e-07
7.9547816e-07
7.9852328e-07
8.0202762e-07
8.0606122e-07
8.1069532e-07
8.1600062e-07
8.2204682e-07
8.2890206e-07
8.3663208e-07
8.4530018e-07
8.5496499e-07
8.6568331e-07
8.7750361e-07
8.9045855e-07
9.0469245e-07
9.1963252e-07
9.3832382e-07
8.6488741e-07
8.4997235e-07
8.3718912e-07
8.2650226e-07
8.1750344e-07
8.0979794e-07
8.0308739e-07
7.9715923e-07
7.918615e-07
7.8708299e-07
7.8274003e-07
7.7876803e-07
7.7511609e-07
7.7174332e-07
7.686164e-07
7.6570785e-07
7.6299477e-07
7.6045793e-07
7.5808107e-07
7.558504e-07
7.5375412e-07
7.5178216e-07
7.4992589e-07
7.4817794e-07
7.4653199e-07
7.4498267e-07
7.4352547e-07
7.4215659e-07
7.408729e-07
7.3967188e-07
7.3855157e-07
7.375105e-07
7.3654769e-07
7.3566259e-07
7.348551e-07
7.3412546e-07
7.334743e-07
7.3290253e-07
7.3241138e-07
7.3200232e-07
7.3167705e-07
7.3143746e-07
7.3128561e-07
7.3122365e-07
7.3125383e-07
7.3137841e-07
7.3159963e-07
7.3191961e-07
7.3234033e-07
7.328635e-07
7.3349052e-07
7.3422233e-07
7.3505945e-07
7.3600176e-07
7.3704861e-07
7.3819871e-07
7.3945007e-07
7.4079963e-07
7.422435e-07
7.4377681e-07
7.4539392e-07
7.4708763e-07
7.4884987e-07
7.50671e-07
7.5254048e-07
7.5444702e-07
7.5637803e-07
7.5831988e-07
7.6025896e-07
7.621821e-07
7.6407655e-07
7.659303e-07
7.6773279e-07
7.6947564e-07
7.7115314e-07
7.7276262e-07
7.7430504e-07
7.7578558e-07
7.772142e-07
7.7860605e-07
7.7998189e-07
7.8136831e-07
7.8279779e-07
7.8430903e-07
7.859455e-07
7.8776041e-07
7.8981325e-07
7.921638e-07
7.9487342e-07
7.9800532e-07
8.0162443e-07
8.0579664e-07
8.1058768e-07
8.1606254e-07
8.222848e-07
8.2931546e-07
8.3721303e-07
8.4603062e-07
8.5582042e-07
8.6662372e-07
8.7847308e-07
8.9148775e-07
9.0517459e-07
9.2217637e-07
8.6489043e-07
8.499804e-07
8.3720098e-07
8.2651672e-07
8.1751965e-07
8.0981534e-07
8.0310564e-07
7.9717808e-07
7.918808e-07
7.8710263e-07
7.8275993e-07
7.7878813e-07
7.7513635e-07
7.717637e-07
7.6863687e-07
7.6572837e-07
7.6301531e-07
7.6047846e-07
7.5810158e-07
7.5587085e-07
7.5377449e-07
7.5180242e-07
7.49946e-07
7.4819787e-07
7.4655169e-07
7.4500211e-07
7.4354458e-07
7.4217531e-07
7.4089117e-07
7.396896e-07
7.3856865e-07
7.3752684e-07
7.3656317e-07
7.3567708e-07
7.3486844e-07
7.3413747e-07
7.3348477e-07
7.3291124e-07
7.3241807e-07
7.320067e-07
7.316788e-07
7.314362e-07
7.3128092e-07
7.3121508e-07
7.3124086e-07
7.3136046e-07
7.3157607e-07
7.3188972e-07
7.3230332e-07
7.3281847e-07
7.3343648e-07
7.341582e-07
7.3498402e-07
7.3591373e-07
7.3694658e-07
7.3808115e-07
7.3931534e-07
7.4064601e-07
7.4206913e-07
7.4357967e-07
7.4517172e-07
7.4683792e-07
7.485699e-07
7.5035778e-07
7.5219078e-07
7.5405709e-07
7.5594393e-07
7.5783747e-07
7.5972378e-07
7.6158931e-07
7.6342095e-07
7.652064e-07
7.6693474e-07
7.6859718e-07
7.7018751e-07
7.7170256e-07
7.7314272e-07
7.7451253e-07
7.7582117e-07
7.7708289e-07
7.7831735e-07
7.7954989e-07
7.8081151e-07
7.8213914e-07
7.8357454e-07
7.8516771e-07
7.8697454e-07
7.8905169e-07
7.9145804e-07
7.9425421e-07
7.9750212e-07
8.012645e-07
8.0560331e-07
8.1057934e-07
8.1625163e-07
8.2267646e-07
8.2990766e-07
8.3799339e-07
8.4698157e-07
8.569076e-07
8.6780333e-07
8.7976857e-07
8.9237318e-07
9.0793696e-07
8.648942e-07
8.4998902e-07
8.3721321e-07
8.2653142e-07
8.17536e-07
8.098328e-07
8.0312386e-07
7.9719684e-07
7.9189995e-07
7.8712206e-07
7.8277955e-07
7.7880791e-07
7.7515622e-07
7.7178362e-07
7.6865681e-07
7.657483e-07
7.6303519e-07
7.6049826e-07
7.5812127e-07
7.5589038e-07
7.5379383e-07
7.5182152e-07
7.4996483e-07
7.4821636e-07
7.465698e-07
7.4501976e-07
7.4356171e-07
7.4219183e-07
7.4090698e-07
7.3970462e-07
7.3858274e-07
7.3753989e-07
7.3657503e-07
7.3568763e-07
7.3487748e-07
7.3414481e-07
7.3349019e-07
7.3291449e-07
7.3241886e-07
7.3200472e-07
7.3167369e-07
7.3142758e-07
7.3126834e-07
7.3119804e-07
7.3121881e-07
7.313328e-07
7.315421e-07
7.3184869e-07
7.3225435e-07
7.3276062e-07
7.3336867e-07
7.3407925e-07
7.3489264e-07
7.3580853e-07
7.3682606e-07
7.3794369e-07
7.3915918e-07
7.4046929e-07
7.4186984e-07
7.4335563e-07
7.4492046e-07
7.4655677e-07
7.4825583e-07
7.5000752e-07
7.5180067e-07
7.5362319e-07
7.5546197e-07
7.5730288e-07
7.591318e-07
7.6093488e-07
7.6269879e-07
7.64411e-07
7.660604e-07
7.6763793e-07
7.6913711e-07
7.7055448e-07
7.718901e-07
7.7314814e-07
7.7433727e-07
7.7547117e-07
7.7656871e-07
7.7765431e-07
7.7875778e-07
7.799146e-07
7.8116491e-07
7.8255697e-07
7.8414491e-07
7.8598284e-07
7.8812673e-07
7.9063404e-07
7.9356319e-07
7.9697314e-07
8.0092213e-07
8.0546723e-07
8.1066379e-07
8.1656436e-07
8.2321913e-07
8.3067232e-07
8.3896829e-07
8.4813787e-07
8.5821148e-07
8.6927443e-07
8.8094587e-07
8.9528029e-07
8.6489939e-07
8.4999869e-07
8.372262e-07
8.2654663e-07
8.1755266e-07
8.0985042e-07
8.0314212e-07
7.9721553e-07
7.9191894e-07
7.8714125e-07
7.8279887e-07
7.7882729e-07
7.7517563e-07
7.7180302e-07
7.6867615e-07
7.6576755e-07
7.6305432e-07
7.6051723e-07
7.5814003e-07
7.5590891e-07
7.5381208e-07
7.5183946e-07
7.499824e-07
7.4823351e-07
7.4658646e-07
7.4503587e-07
7.4357719e-07
7.422066e-07
7.4092094e-07
7.3971765e-07
7.3859473e-07
7.375507e-07
7.3658451e-07
7.356956e-07
7.348838e-07
7.3414925e-07
7.3349249e-07
7.3291437e-07
7.3241601e-07
7.3199878e-07
7.3166426e-07
7.314142e-07
7.3125052e-07
7.3117522e-07
7.3119037e-07
7.3129802e-07
7.3150021e-07
7.317988e-07
7.321955e-07
7.326917e-07
7.3328848e-07
7.3398644e-07
7.3478575e-07
7.3568599e-07
7.3668614e-07
7.3778456e-07
7.3897885e-07
7.4026561e-07
7.4164047e-07
7.4309798e-07
7.4463165e-07
7.462336e-07
7.4789476e-07
7.4960468e-07
7.5135183e-07
7.5312375e-07
7.5490703e-07
7.5668749e-07
7.5845054e-07
7.6018226e-07
7.6186912e-07
7.6349851e-07
7.6505931e-07
7.6654242e-07
7.6794138e-07
7.6925275e-07
7.7047663e-07
7.7161716e-07
7.7268294e-07
7.7368741e-07
7.7464906e-07
7.7559173e-07
7.7654446e-07
7.7754158e-07
7.7862197e-07
7.7983189e-07
7.8122315e-07
7.8284784e-07
7.8475914e-07
7.8701227e-07
7.8966295e-07
7.9276722e-07
7.9638013e-07
8.0055531e-07
8.0534452e-07
8.1079666e-07
8.1695837e-07
8.2387033e-07
8.3157362e-07
8.4009539e-07
8.4946432e-07
8.5975468e-07
8.7062402e-07
8.8391304e-07
8.6490503e-07
8.5000869e-07
8.3723941e-07
8.2656199e-07
8.1756939e-07
8.0986802e-07
8.0316028e-07
7.9723404e-07
7.9193766e-07
7.8716008e-07
7.8281774e-07
7.7884614e-07
7.7519442e-07
7.7182169e-07
7.6869468e-07
7.6578588e-07
7.6307241e-07
7.6053504e-07
7.5815751e-07
7.5592601e-07
7.5382875e-07
7.5185564e-07
7.4999802e-07
7.4824851e-07
7.4660076e-07
7.4504938e-07
7.4358982e-07
7.4221823e-07
7.4093145e-07
7.397269e-07
7.3860258e-07
7.3755697e-07
7.3658903e-07
7.3569817e-07
7.3488417e-07
7.3414724e-07
7.3348777e-07
7.329066e-07
7.3240482e-07
7.3198375e-07
7.316449e-07
7.3139e-07
7.3122087e-07
7.3113946e-07
7.3114775e-07
7.3124772e-07
7.3144129e-07
7.3173021e-07
7.3211607e-07
7.3260013e-07
7.331833e-07
7.3386607e-07
7.3464843e-07
7.3552981e-07
7.3650906e-07
7.3758433e-07
7.3875301e-07
7.4001148e-07
7.4135511e-07
7.4277812e-07
7.4427363e-07
7.4583336e-07
7.4744782e-07
7.4910617e-07
7.5079647e-07
7.5250585e-07
7.5422062e-07
7.5592638e-07
7.5760862e-07
7.5925324e-07
7.6084647e-07
7.6237599e-07
7.6383094e-07
7.6520257e-07
7.6648479e-07
7.6767456e-07
7.687724e-07
7.6978286e-07
7.7071483e-07
7.7158195e-07
7.7240271e-07
7.732007e-07
7.7400449e-07
7.7484764e-07
7.7576797e-07
7.7681027e-07
7.7802468e-07
7.794612e-07
7.8117099e-07
7.8320666e-07
7.8562074e-07
7.8846642e-07
7.9179568e-07
7.956589e-07
8.001046e-07
8.0517837e-07
8.1092365e-07
8.1737797e-07
8.2457945e-07
8.3255224e-07
8.413229e-07
8.5095774e-07
8.6114201e-07
8.7355185e-07
8.649123e-07
8.5001976e-07
8.3725325e-07
8.2657764e-07
8.1758617e-07
8.098855e-07
8.0317817e-07
7.9725218e-07
7.919559e-07
7.8717833e-07
7.8283593e-07
7.7886421e-07
7.7521231e-07
7.7183937e-07
7.6871207e-07
7.6580294e-07
7.6308909e-07
7.6055127e-07
7.5817324e-07
7.5594118e-07
7.5384328e-07
7.5186946e-07
7.5001105e-07
7.4826066e-07
7.4661193e-07
7.4505946e-07
7.4359868e-07
7.4222574e-07
7.4093746e-07
7.3973124e-07
7.3860506e-07
7.3755738e-07
7.3658716e-07
7.3569375e-07
7.3487693e-07
7.3413683e-07
7.3347395e-07
7.3288892e-07
7.3238278e-07
7.3195682e-07
7.316125e-07
7.3135145e-07
7.3117544e-07
7.310863e-07
7.3108593e-07
7.3117619e-07
7.3135887e-07
7.3163559e-07
7.3200776e-07
7.3247648e-07
7.3304246e-07
7.3370601e-07
7.3446692e-07
7.3532441e-07
7.3627708e-07
7.3732284e-07
7.3845876e-07
7.3968089e-07
7.4098419e-07
7.4236244e-07
7.4380825e-07
7.4531285e-07
7.4686621e-07
7.4845702e-07
7.5007291e-07
7.5170064e-07
7.5332628e-07
7.5493534e-07
7.5651336e-07
7.5804633e-07
7.5952115e-07
7.6092545e-07
7.6224927e-07
7.6348455e-07
7.6462599e-07
7.6567146e-07
7.6662239e-07
7.6748417e-07
7.6826646e-07
7.6898348e-07
7.696541e-07
7.7030201e-07
7.7095556e-07
7.7164776e-07
7.7241563e-07
7.7330243e-07
7.7435649e-07
7.7562606e-07
7.7716024e-07
7.7900924e-07
7.8122347e-07
7.8385339e-07
7.8694704e-07
7.9055331e-07
7.9471388e-07
7.9947543e-07
8.0487734e-07
8.1095386e-07
8.1773982e-07
8.2525655e-07
8.3352787e-07
8.4261504e-07
8.5222065e-07
8.6390447e-07
8.6491889e-07
8.5003032e-07
8.3726669e-07
8.2659293e-07
8.1760259e-07
8.0990257e-07
8.0319559e-07
7.9726974e-07
7.9197346e-07
7.871958e-07
7.8285322e-07
7.7888125e-07
7.7522903e-07
7.718557e-07
7.6872796e-07
7.658183e-07
7.6310385e-07
7.6056537e-07
7.5818658e-07
7.5595367e-07
7.5385484e-07
7.5187997e-07
7.5002042e-07
7.4826874e-07
7.466186e-07
7.4506457e-07
7.4360205e-07
7.4222719e-07
7.4093678e-07
7.3972822e-07
7.3859944e-07
7.3754889e-07
7.3657549e-07
7.3567857e-07
7.3485787e-07
7.3411348e-07
7.3344581e-07
7.3285559e-07
7.3234361e-07
7.319111e-07
7.3155944e-07
7.3129017e-07
7.3110494e-07
7.310055e-07
7.309936e-07
7.3107094e-07
7.3123913e-07
7.3149961e-07
7.3185356e-07
7.3230184e-07
7.3284491e-07
7.3348281e-07
7.3421504e-07
7.350405e-07
7.3595746e-07
7.3696341e-07
7.3805497e-07
7.3922769e-07
7.4047598e-07
7.4179301e-07
7.4317074e-07
7.445998e-07
7.4606956e-07
7.4756822e-07
7.4908299e-07
7.506004e-07
7.5210641e-07
7.535867e-07
7.5502715e-07
7.5641429e-07
7.5773573e-07
7.5898044e-07
7.6013942e-07
7.6120535e-07
7.6217455e-07
7.6304636e-07
7.6382362e-07
7.6451299e-07
7.6512527e-07
7.6567555e-07
7.6618335e-07
7.6667266e-07
7.6717178e-07
7.6771337e-07
7.6833377e-07
7.6907473e-07
7.6998315e-07
7.7110558e-07
7.7248892e-07
7.7418109e-07
7.7623048e-07
7.7868302e-07
7.8159355e-07
7.8496285e-07
7.8903418e-07
7.9343204e-07
7.9855671e-07
8.0432214e-07
8.1076776e-07
8.1791473e-07
8.2578234e-07
8.3442748e-07
8.4355695e-07
8.5466536e-07
8.6492676e-07
8.500416e-07
8.372804e-07
8.2660817e-07
8.1761871e-07
8.0991916e-07
8.0321238e-07
7.9728654e-07
7.9199013e-07
7.8721222e-07
7.828693e-07
7.788969e-07
7.7524417e-07
7.7187024e-07
7.687418e-07
7.6583136e-07
7.6311601e-07
7.6057652e-07
7.5819662e-07
7.5596246e-07
7.5386225e-07
7.5188586e-07
7.5002461e-07
7.4827107e-07
7.4661887e-07
7.4506257e-07
7.4359756e-07
7.4221994e-07
7.4092649e-07
7.3971457e-07
7.3858209e-07
7.3752747e-07
7.3654958e-07
7.3564771e-07
7.3482154e-07
7.3407111e-07
7.3339675e-07
7.3279909e-07
7.3227904e-07
7.3183744e-07
7.3147561e-07
7.3119495e-07
7.3099699e-07
7.308833e-07
7.3085543e-07
7.3091488e-07
7.3106298e-07
7.313009e-07
7.3162951e-07
7.3204933e-07
7.3256046e-07
7.3316253e-07
7.3385463e-07
7.3463518e-07
7.3550193e-07
7.3645178e-07
7.3748073e-07
7.3858361e-07
7.3975411e-07
7.4098465e-07
7.4226646e-07
7.4358949e-07
7.4494258e-07
7.4631353e-07
7.4768935e-07
7.4905657e-07
7.5040145e-07
7.5171023e-07
7.5296965e-07
7.5416734e-07
7.5529221e-07
7.5633484e-07
7.5728781e-07
7.5814637e-07
7.5890761e-07
7.5957319e-07
7.6014762e-07
7.6063915e-07
7.6105993e-07
7.6142613e-07
7.6175801e-07
7.6207995e-07
7.6242027e-07
7.6281124e-07
7.6328846e-07
7.6389245e-07
7.6466815e-07
7.6566045e-07
7.6691447e-07
7.6847583e-07
7.7039047e-07
7.7270289e-07
7.7545895e-07
7.7869267e-07
7.8245201e-07
7.86843e-07
7.9166192e-07
7.9719411e-07
8.0337487e-07
8.1022621e-07
8.1776716e-07
8.2605761e-07
8.3479782e-07
8.454722e-07
8.6493466e-07
8.5005278e-07
8.3729388e-07
8.2662304e-07
8.1763434e-07
8.099351e-07
8.0322836e-07
7.9730235e-07
7.9200563e-07
7.8722727e-07
7.8288379e-07
7.7891072e-07
7.752572e-07
7.7188236e-07
7.6875287e-07
7.6584125e-07