/*--------------------------------*- C++ -*----------------------------------*\
| =========                 |                                                 |
| \\      /  F ield         | OpenFOAM: The Open Source CFD Toolbox           |
|  \\    /   O peration     | Version:  2406                                  |
|   \\  /    A nd           | Website:  www.openfoam.com                      |
|    \\/     M anipulation  |                                                 |
\*---------------------------------------------------------------------------*/
FoamFile
{
    version     2.0;
    format      ascii;
    arch        "LSB;label=32;scalar=64";
    class       surfaceScalarField;
    location    "900";
    object      phi;
}
// * * * * * * * * * * * * * * * * * * * * * * * * * * * * * * * * * * * * * //

dimensions      [1 0 -1 0 0 0 0];

oriented        oriented;

internalField   nonuniform List<scalar> 
264541
(
1.8059167e-05
-1.979917e-07
2.0887241e-07
1.804385e-05
-2.7069072e-07
2.8600928e-07
1.8025513e-05
-3.5510319e-07
3.7343792e-07
1.800372e-05
-4.3496165e-07
4.5675595e-07
1.7978597e-05
-5.1321611e-07
5.3833832e-07
1.7950304e-05
-5.9019801e-07
6.184919e-07
1.7918888e-05
-6.6482346e-07
6.9623888e-07
1.7884406e-05
-7.3728443e-07
7.7176686e-07
1.784691e-05
-8.0800928e-07
8.455054e-07
1.7806437e-05
-8.7726214e-07
9.1773506e-07
1.7763015e-05
-9.4530652e-07
9.8872897e-07
1.7716665e-05
-1.0124023e-06
1.058753e-06
1.7667401e-05
-1.0787783e-06
1.1280413e-06
1.7615233e-05
-1.1446361e-06
1.1968044e-06
1.7560162e-05
-1.2101577e-06
1.2652289e-06
1.7502182e-05
-1.2754994e-06
1.3334794e-06
1.7441284e-05
-1.3407917e-06
1.40169e-06
1.7377453e-05
-1.4061434e-06
1.4699746e-06
1.7310671e-05
-1.4716436e-06
1.5384252e-06
1.7240918e-05
-1.5373627e-06
1.6071161e-06
1.716817e-05
-1.6033571e-06
1.6761047e-06
1.7092403e-05
-1.6696672e-06
1.7454345e-06
1.701359e-05
-1.7363198e-06
1.8151327e-06
1.6931706e-05
-1.8033274e-06
1.8852116e-06
1.6846723e-05
-1.8706871e-06
1.9556698e-06
1.6758616e-05
-1.9383819e-06
2.0264891e-06
1.666736e-05
-2.0063804e-06
2.097637e-06
1.657293e-05
-2.0746359e-06
2.1690653e-06
1.6475308e-05
-2.1430889e-06
2.2407117e-06
1.6374473e-05
-2.2116651e-06
2.3124996e-06
1.6270413e-05
-2.280279e-06
2.3843394e-06
1.6163116e-05
-2.3488307e-06
2.4561278e-06
1.6052576e-05
-2.4172085e-06
2.5277483e-06
1.5938792e-05
-2.4852866e-06
2.5990705e-06
1.5821769e-05
-2.5529264e-06
2.66995e-06
1.5701516e-05
-2.6199749e-06
2.7402277e-06
1.557805e-05
-2.6862644e-06
2.8097299e-06
1.5451396e-05
-2.7516136e-06
2.8782679e-06
1.5321585e-05
-2.8158265e-06
2.945637e-06
1.5188658e-05
-2.8786918e-06
3.0116191e-06
1.5052664e-05
-2.9399855e-06
3.0759797e-06
1.4913661e-05
-2.9994684e-06
3.1384716e-06
1.4771718e-05
-3.0568891e-06
3.198832e-06
1.4626914e-05
-3.1119828e-06
3.2567864e-06
1.4479341e-05
-3.1644731e-06
3.3120466e-06
1.4329099e-05
-3.2140715e-06
3.3643135e-06
1.4176303e-05
-3.2604802e-06
3.4132762e-06
1.4021079e-05
-3.3033907e-06
3.4586143e-06
1.3863567e-05
-3.3424869e-06
3.4999988e-06
1.370392e-05
-3.377445e-06
3.5370921e-06
1.3542303e-05
-3.4079312e-06
3.5695487e-06
1.3378898e-05
-3.4336135e-06
3.5970186e-06
1.3213874e-05
-3.4541218e-06
3.6191453e-06
1.3047373e-05
-3.4690696e-06
3.6355704e-06
1.2879751e-05
-3.4785562e-06
3.6461784e-06
1.2711304e-05
-3.4820453e-06
3.650492e-06
1.2542362e-05
-3.4791163e-06
3.6480587e-06
1.2372722e-05
-3.4682015e-06
3.6378411e-06
1.2203013e-05
-3.4519234e-06
3.6216331e-06
1.2033282e-05
-3.4267886e-06
3.5965196e-06
1.1864136e-05
-3.3962741e-06
3.5654196e-06
1.1695314e-05
-3.3553692e-06
3.5241911e-06
1.1528914e-05
-3.3084498e-06
3.4748499e-06
1.1363707e-05
-3.2506544e-06
3.4158619e-06
1.1200382e-05
-3.189645e-06
3.3529699e-06
1.1039219e-05
-3.1156982e-06
3.2768609e-06
1.0881824e-05
-3.0328809e-06
3.1902758e-06
1.0727955e-05
-2.9404402e-06
3.09431e-06
1.057544e-05
-2.84242e-06
2.9949345e-06
1.0427635e-05
-2.7327771e-06
2.8805821e-06
1.0284481e-05
-2.6146074e-06
2.7577619e-06
1.014587e-05
-2.4868568e-06
2.6254672e-06
1.0012818e-05
-2.3521893e-06
2.485242e-06
9.8857179e-06
-2.2091173e-06
2.3362172e-06
9.7650345e-06
-2.0578182e-06
2.1785016e-06
9.6512091e-06
-1.8984823e-06
2.0123077e-06
9.5446938e-06
-1.7314361e-06
1.8379514e-06
9.4459545e-06
-1.557067e-06
1.6558062e-06
9.3554624e-06
-1.3757854e-06
1.4662776e-06
9.2736905e-06
-1.1880378e-06
1.2698097e-06
9.201111e-06
-9.9430933e-07
1.0668889e-06
9.1381938e-06
-7.9512475e-07
8.58042e-07
9.0854157e-06
-5.9104662e-07
6.4382467e-07
9.0432846e-06
-3.8268701e-07
4.2481815e-07
9.0123994e-06
-1.7069778e-07
2.01583e-07
8.9938651e-06
4.394909e-08
-2.5414751e-08
8.9884817e-06
2.6056469e-07
-2.5518132e-07
8.9965539e-06
4.7892599e-07
-4.8699813e-07
9.0179489e-06
6.9856065e-07
-7.199556e-07
9.0522455e-06
9.187712e-07
-9.5306777e-07
9.0989283e-06
1.138761e-06
-1.1854438e-06
9.1575345e-06
1.3576317e-06
-1.4162378e-06
9.2277957e-06
1.5744044e-06
-1.6446656e-06
9.3097116e-06
1.7881057e-06
-1.8700217e-06
9.4035218e-06
1.9978187e-06
-2.0916288e-06
9.509636e-06
2.2027255e-06
-2.3088397e-06
9.628448e-06
2.4021553e-06
-2.5209673e-06
9.7603694e-06
2.5955104e-06
-2.7274318e-06
9.9053423e-06
2.7823533e-06
-2.9273262e-06
1.0063657e-05
2.962378e-06
-3.1206929e-06
1.0233753e-05
3.1345849e-06
-3.3046802e-06
1.0415767e-05
3.3031571e-06
-3.4851715e-06
1.0605624e-05
3.4475011e-06
-3.6373578e-06
3.6642988e-06
1.0791646e-05
-3.8503215e-06
1.7397426e-05
-1.8731475e-07
1.7382508e-05
-2.557717e-07
1.7364806e-05
-3.3740144e-07
1.7343881e-05
-4.140369e-07
1.7319797e-05
-4.8913259e-07
1.7292675e-05
-5.6307569e-07
1.7262552e-05
-6.3470037e-07
1.7229483e-05
-7.042153e-07
1.7193521e-05
-7.7204705e-07
1.7154703e-05
-8.3844491e-07
1.7113061e-05
-9.0366369e-07
1.7068615e-05
-9.6795657e-07
1.7021381e-05
-1.0315448e-06
1.6971369e-05
-1.0946237e-06
1.6918579e-05
-1.1573678e-06
1.6863007e-05
-1.219928e-06
1.6804645e-05
-1.2824294e-06
1.6743478e-05
-1.3449766e-06
1.6679491e-05
-1.4076558e-06
1.6612662e-05
-1.4705344e-06
1.6542971e-05
-1.5336661e-06
1.6470395e-05
-1.5970906e-06
1.6394908e-05
-1.6608331e-06
1.6316486e-05
-1.7249052e-06
1.6235103e-05
-1.7893042e-06
1.6150734e-05
-1.8540134e-06
1.6063357e-05
-1.9190028e-06
1.5972948e-05
-1.9842271e-06
1.5879488e-05
-2.049629e-06
1.5782961e-05
-2.1151375e-06
1.5683352e-05
-2.1806701e-06
1.5580652e-05
-2.2461309e-06
1.5474856e-05
-2.3114126e-06
1.5365964e-05
-2.3763943e-06
1.525398e-05
-2.4409422e-06
1.5138915e-05
-2.5049098e-06
1.5020786e-05
-2.5681359e-06
1.4899618e-05
-2.6304456e-06
1.4775442e-05
-2.6916509e-06
1.4648299e-05
-2.7515488e-06
1.4518238e-05
-2.809924e-06
1.4385316e-05
-2.8665463e-06
1.4249601e-05
-2.9211746e-06
1.4111173e-05
-2.973554e-06
1.3970119e-05
-3.0234196e-06
1.3826541e-05
-3.0704937e-06
1.3680552e-05
-3.114491e-06
1.3532276e-05
-3.1551148e-06
1.3381851e-05
-3.1920623e-06
1.3229429e-05
-3.2250226e-06
1.3075175e-05
-3.2536768e-06
1.2919265e-05
-3.2777039e-06
1.2761898e-05
-3.2967549e-06
1.260323e-05
-3.3104012e-06
1.2443466e-05
-3.3187925e-06
1.2282875e-05
-3.3214542e-06
1.212186e-05
-3.3181013e-06
1.196094e-05
-3.3072816e-06
1.179973e-05
-3.2907132e-06
1.1639137e-05
-3.2661951e-06
1.1478605e-05
-3.2357427e-06
1.131951e-05
-3.1962743e-06
1.1161333e-05
-3.1502729e-06
1.1005402e-05
-3.0947233e-06
1.0849823e-05
-3.0340652e-06
1.0697006e-05
-2.9628817e-06
1.0547161e-05
-2.8830363e-06
1.0400896e-05
-2.7941751e-06
1.0257341e-05
-2.698865e-06
1.0118448e-05
-2.5938834e-06
9.9844309e-06
-2.4805906e-06
9.8555922e-06
-2.3580181e-06
9.7318147e-06
-2.2284118e-06
9.6136435e-06
-2.090946e-06
9.5015658e-06
-1.9457405e-06
9.3960766e-06
-1.792993e-06
9.2976461e-06
-1.6330057e-06
9.2067239e-06
-1.4661447e-06
9.1237508e-06
-1.2928123e-06
9.0491601e-06
-1.113447e-06
8.9833758e-06
-9.2852509e-07
8.9268107e-06
-7.3855964e-07
8.8798617e-06
-5.4409755e-07
8.8428917e-06
-3.4571702e-07
8.8162143e-06
-1.4402039e-07
8.7997255e-06
6.0437941e-08
8.7934506e-06
2.6683955e-07
8.7979805e-06
4.7439611e-07
8.8141766e-06
6.8236455e-07
8.8428975e-06
8.9005028e-07
8.8848285e-06
1.09683e-06
8.9403429e-06
1.3021173e-06
9.0094427e-06
1.5053046e-06
9.0918151e-06
1.7057333e-06
9.1869512e-06
1.9026825e-06
9.2943025e-06
2.0953742e-06
9.4133992e-06
2.2830585e-06
9.5439444e-06
2.4649651e-06
9.6857778e-06
2.64052e-06
9.8389745e-06
2.8091812e-06
1.0003551e-05
2.9700081e-06
1.0180542e-05
3.1261661e-06
1.0366438e-05
3.2616054e-06
3.4399995e-06
1.0590737e-05
1.6760129e-05
-1.7691758e-07
1.6745763e-05
-2.4140552e-07
1.672873e-05
-3.2036875e-07
1.6708594e-05
-3.9390093e-07
1.6685423e-05
-4.6596165e-07
1.6659318e-05
-5.3697105e-07
1.6630314e-05
-6.05696e-07
1.6598465e-05
-6.7236616e-07
1.6563822e-05
-7.3740423e-07
1.6526424e-05
-8.0104634e-07
1.6486298e-05
-8.6353844e-07
1.6443469e-05
-9.2512693e-07
1.639795e-05
-9.8602575e-07
1.6349749e-05
-1.0464231e-06
1.629887e-05
-1.1064882e-06
1.6245307e-05
-1.1663652e-06
1.6189053e-05
-1.2261752e-06
1.6130095e-05
-1.2860186e-06
1.6068417e-05
-1.3459781e-06
1.6004002e-05
-1.4061194e-06
1.593683e-05
-1.4664933e-06
1.5866878e-05
-1.5271386e-06
1.5794123e-05
-1.5880788e-06
1.5718543e-05
-1.6493252e-06
1.5640115e-05
-1.7108754e-06
1.5558814e-05
-1.7727128e-06
1.547462e-05
-1.8348086e-06
1.5387512e-05
-1.8971192e-06
1.5297472e-05
-1.9595895e-06
1.5204486e-05
-2.0221511e-06
1.5108541e-05
-2.0847253e-06
1.500963e-05
-2.1472196e-06
1.4907748e-05
-2.2095308e-06
1.4802897e-05
-2.2715432e-06
1.4695083e-05
-2.3331277e-06
1.4584317e-05
-2.3941441e-06
1.4470618e-05
-2.4544369e-06
1.4354011e-05
-2.5138385e-06
1.4234528e-05
-2.5721683e-06
1.411221e-05
-2.6292311e-06
1.3987107e-05
-2.68482e-06
1.3859275e-05
-2.7387147e-06
1.3728783e-05
-2.790683e-06
1.359571e-05
-2.8404809e-06
1.3460144e-05
-2.8878536e-06
1.3322186e-05
-2.9325353e-06
1.3181947e-05
-2.9742518e-06
1.3039551e-05
-3.0127195e-06
1.2895137e-05
-3.0476476e-06
1.2748852e-05
-3.0787383e-06
1.2600863e-05
-3.1056879e-06
1.2451346e-05
-3.1281859e-06
1.2300514e-05
-3.1459236e-06
1.2148657e-05
-3.1585443e-06
1.1995895e-05
-3.1660299e-06
1.1842372e-05
-3.1679314e-06
1.168825e-05
-3.1639795e-06
1.1534105e-05
-3.1531362e-06
1.1379876e-05
-3.1364849e-06
1.1226237e-05
-3.1125557e-06
1.1073014e-05
-3.0825196e-06
1.0921067e-05
-3.0443278e-06
1.0770293e-05
-2.9994983e-06
1.0621626e-05
-2.9460566e-06
1.0474258e-05
-2.8866972e-06
1.0329701e-05
-2.8183246e-06
1.018817e-05
-2.7415052e-06
1.0050193e-05
-2.656198e-06
9.915345e-06
-2.5640171e-06
9.7846383e-06
-2.4631768e-06
9.6582058e-06
-2.3541582e-06
9.5370165e-06
-2.2368287e-06
9.4209801e-06
-2.1123755e-06
9.3105883e-06
-1.9805542e-06
9.2062655e-06
-1.8414177e-06
9.1084611e-06
-1.6951886e-06
9.0176142e-06
-1.5421588e-06
8.9341464e-06
-1.3826769e-06
8.8584689e-06
-1.2171348e-06
8.7909839e-06
-1.045962e-06
8.7320829e-06
-8.6962406e-07
8.6821439e-06
-6.8862066e-07
8.6415349e-06
-5.0348854e-07
8.6106115e-06
-3.1479359e-07
8.5897428e-06
-1.2315161e-07
8.579445e-06
7.0735673e-08
8.5800381e-06
2.6624653e-07
8.5915834e-06
4.6285081e-07
8.6140536e-06
6.5989433e-07
8.6474361e-06
8.5666779e-07
8.6918439e-06
1.0524221e-06
8.7475379e-06
1.2464234e-06
8.814868e-06
1.4379745e-06
8.8941712e-06
1.6264301e-06
8.9856523e-06
1.8112015e-06
9.0893058e-06
1.9917207e-06
9.2049155e-06
2.1674488e-06
9.3320764e-06
2.3378043e-06
9.4703513e-06
2.5022451e-06
9.6191998e-06
2.6603327e-06
9.7783107e-06
2.8108972e-06
9.9478627e-06
2.9566141e-06
1.0124319e-05
3.0851494e-06
3.2399228e-06
1.0324395e-05
1.6146379e-05
-1.6685847e-07
1.6132584e-05
-2.2760821e-07
1.6116171e-05
-3.0395635e-07
1.6096766e-05
-3.7449571e-07
1.6074459e-05
-4.4365556e-07
1.6049337e-05
-5.1184825e-07
1.602143e-05
-5.7778936e-07
1.5990793e-05
-6.4172888e-07
1.5957473e-05
-7.0408488e-07
1.5921508e-05
-7.6508148e-07
1.5882927e-05
-8.2495731e-07
1.5841751e-05
-8.8395046e-07
1.5797994e-05
-9.422691e-07
1.5751666e-05
-1.0000947e-06
1.5702767e-05
-1.0575896e-06
1.5651295e-05
-1.1148929e-06
1.5597241e-05
-1.1721216e-06
1.5540594e-05
-1.2293715e-06
1.5481339e-05
-1.286723e-06
1.5419458e-05
-1.3442385e-06
1.5354932e-05
-1.4019678e-06
1.5287741e-05
-1.4599472e-06
1.5217862e-05
-1.5182001e-06
1.5145274e-05
-1.5767368e-06
1.5069953e-05
-1.6355544e-06
1.4991878e-05
-1.6946378e-06
1.4911027e-05
-1.7539584e-06
1.4827383e-05
-1.8134747e-06
1.4740927e-05
-1.8731336e-06
1.4651646e-05
-1.93287e-06
1.4559528e-05
-1.9926072e-06
1.4464566e-05
-2.0522578e-06
1.4366757e-05
-2.1117217e-06
1.4266102e-05
-2.1708882e-06
1.4162608e-05
-2.2296338e-06
1.4056287e-05
-2.287823e-06
1.3947157e-05
-2.3453071e-06
1.3835244e-05
-2.4019253e-06
1.3720579e-05
-2.4575038e-06
1.3603204e-05
-2.5118559e-06
1.3483167e-05
-2.5647828e-06
1.3360526e-05
-2.6160733e-06
1.3235347e-05
-2.6655047e-06
1.310771e-05
-2.7128431e-06
1.29777e-05
-2.7578441e-06
1.2845418e-05
-2.8002536e-06
1.2710975e-05
-2.8398086e-06
1.2574493e-05
-2.8762373e-06
1.2436108e-05
-2.909262e-06
1.2295967e-05
-2.9385975e-06
1.2154233e-05
-2.963954e-06
1.2011081e-05
-2.9850343e-06
1.186671e-05
-3.0015526e-06
1.1721326e-05
-3.0131602e-06
1.1575078e-05
-3.0197818e-06
1.1428196e-05
-3.0210494e-06
1.1280953e-05
-3.016737e-06
1.1133818e-05
-3.0060003e-06
1.0986793e-05
-2.9894602e-06
1.0840371e-05
-2.9661341e-06
1.0694533e-05
-2.9366816e-06
1.0549943e-05
-2.8997373e-06
1.0406638e-05
-2.8561938e-06
1.026533e-05
-2.8047481e-06
1.012562e-05
-2.7469877e-06
9.9884149e-06
-2.6811195e-06
9.8541253e-06
-2.6072156e-06
9.7232428e-06
-2.5253154e-06
9.5956749e-06
-2.4364492e-06
9.472167e-06
-2.3396688e-06
9.3531713e-06
-2.2351626e-06
9.239226e-06
-2.1228833e-06
9.1304157e-06
-2.0035651e-06
9.027146e-06
-1.8772846e-06
8.9298347e-06
-1.7441063e-06
8.8388979e-06
-1.6042518e-06
8.7547464e-06
-1.4580073e-06
8.6777772e-06
-1.3057077e-06
8.6083757e-06
-1.1477333e-06
8.5469147e-06
-9.8450107e-07
8.4937546e-06
-8.1646396e-07
8.449242e-06
-6.4410801e-07
8.4137059e-06
-4.679524e-07
8.3874543e-06
-2.8854205e-07
8.3707431e-06
-1.0644038e-07
8.3636956e-06
7.7783236e-08
8.3664636e-06
2.6347848e-07
8.3793276e-06
4.4998684e-07
8.402601e-06
6.3662089e-07
8.4365395e-06
8.2272929e-07
8.4812953e-06
1.0076663e-06
8.5369333e-06
1.1907854e-06
8.6034668e-06
1.3714409e-06
8.6809124e-06
1.5489845e-06
8.7693133e-06
1.7228007e-06
8.8687197e-06
1.8923142e-06
8.9791549e-06
2.0570137e-06
9.1005312e-06
2.2164281e-06
9.2326735e-06
2.3701028e-06
9.3752164e-06
2.5177898e-06
9.5276812e-06
2.6584323e-06
9.6900634e-06
2.7942319e-06
9.8598027e-06
2.9154101e-06
3.0575354e-06
1.004219e-05
1.5555154e-05
-1.5711225e-07
1.5541911e-05
-2.143653e-07
1.5526094e-05
-2.8814022e-07
1.5507391e-05
-3.5579204e-07
1.5485909e-05
-4.2217407e-07
1.5461719e-05
-4.8765835e-07
1.5434851e-05
-5.5092116e-07
1.5405356e-05
-6.1223368e-07
1.537328e-05
-6.7200869e-07
1.5338657e-05
-7.3045903e-07
1.5301516e-05
-7.8781579e-07
1.5261877e-05
-8.4431114e-07
1.5219753e-05
-9.0014586e-07
1.5175154e-05
-9.5549555e-07
1.5128082e-05
-1.010517e-06
1.5078533e-05
-1.0653439e-06
1.50265e-05
-1.1200883e-06
1.4971972e-05
-1.1748435e-06
1.4914934e-05
-1.2296858e-06
1.4855373e-05
-1.2846765e-06
1.4793267e-05
-1.3398626e-06
1.47286e-05
-1.3952794e-06
1.4661349e-05
-1.4509491e-06
1.4591494e-05
-1.5068816e-06
1.4519013e-05
-1.5630742e-06
1.4443888e-05
-1.6195121e-06
1.4366097e-05
-1.6761676e-06
1.4285624e-05
-1.7330012e-06
1.4202452e-05
-1.7899617e-06
1.4116568e-05
-1.8469865e-06
1.4027964e-05
-1.9040029e-06
1.3936632e-05
-1.9609258e-06
1.3842571e-05
-2.0176603e-06
1.3745782e-05
-2.0740993e-06
1.3646273e-05
-2.130125e-06
1.3544057e-05
-2.1856069e-06
1.3439153e-05
-2.2404027e-06
1.3331585e-05
-2.2943581e-06
1.3221388e-05
-2.3473061e-06
1.31086e-05
-2.3990684e-06
1.2993271e-05
-2.4494536e-06
1.2875458e-05
-2.4982599e-06
1.2755226e-05
-2.5452737e-06
1.2632655e-05
-2.5902714e-06
1.2507829e-05
-2.6330184e-06
1.2380847e-05
-2.6732719e-06
1.2251819e-05
-2.7107798e-06
1.2120864e-05
-2.7452828e-06
1.1988117e-05
-2.7765146e-06
1.1853722e-05
-2.8042028e-06
1.171784e-05
-2.8280717e-06
1.1580643e-05
-2.8478373e-06
1.1442321e-05
-2.8632306e-06
1.1303095e-05
-2.8739348e-06
1.1163144e-05
-2.8798305e-06
1.1022678e-05
-2.8805837e-06
1.0881907e-05
-2.8759652e-06
1.0741208e-05
-2.8653021e-06
1.0600694e-05
-2.8489459e-06
1.046078e-05
-2.8262203e-06
1.0321574e-05
-2.7974757e-06
1.0183596e-05
-2.7617591e-06
1.0046985e-05
-2.7195831e-06
9.9123045e-06
-2.6700671e-06
9.7794598e-06
-2.614143e-06
9.649107e-06
-2.5507667e-06
9.5216864e-06
-2.4797949e-06
9.397624e-06
-2.401253e-06
9.2769969e-06
-2.3158221e-06
9.1603359e-06
-2.2230078e-06
9.048026e-06
-2.1228527e-06
8.9405466e-06
-2.0154039e-06
8.8381529e-06
-1.9011714e-06
8.7412039e-06
-1.7803356e-06
8.6500914e-06
-1.6529938e-06
8.5652001e-06
-1.5193605e-06
8.4869099e-06
-1.3797171e-06
8.4155895e-06
-1.2343874e-06
8.3515948e-06
-1.0837385e-06
8.2952682e-06
-9.2817443e-07
8.2469373e-06
-7.681331e-07
8.2069127e-06
-6.0408338e-07
8.1754869e-06
-4.3652661e-07
8.1529339e-06
-2.6598906e-07
8.1395263e-06
-9.3032799e-08
8.1355862e-06
8.1723353e-08
8.1413594e-06
2.5770531e-07
8.1569776e-06
4.3436865e-07
8.1825174e-06
6.1108113e-07
8.2180309e-06
7.8721582e-07
8.263561e-06
9.6213617e-07
8.3191441e-06
1.1352024e-06
8.3847875e-06
1.3057976e-06
8.4604659e-06
1.4733061e-06
8.5461284e-06
1.6371381e-06
8.6417125e-06
1.7967301e-06
8.747165e-06
1.9515611e-06
8.862428e-06
2.101165e-06
8.9874367e-06
2.2450941e-06
9.1220975e-06
2.3831289e-06
9.2661189e-06
2.514411e-06
9.4196405e-06
2.6407102e-06
9.5812487e-06
2.753802e-06
2.8853623e-06
9.7534218e-06
1.4985617e-05
-1.4765583e-07
1.4972905e-05
-2.0165202e-07
1.4957663e-05
-2.728989e-07
1.4939638e-05
-3.3776697e-07
1.4918955e-05
-4.0149078e-07
1.4895668e-05
-4.6437148e-07
1.4869807e-05
-5.2506023e-07
1.4841422e-05
-5.8384899e-07
1.4810557e-05
-6.4114352e-07
1.4777245e-05
-6.9714689e-07
1.4741513e-05
-7.5208342e-07
1.4703381e-05
-8.0617909e-07
1.4662862e-05
-8.5962754e-07
1.4619966e-05
-9.1259949e-07
1.4574694e-05
-9.652451e-07
1.4527044e-05
-1.0176934e-06
1.4477008e-05
-1.0700525e-06
1.4424576e-05
-1.1224118e-06
1.4369736e-05
-1.1748454e-06
1.4312471e-05
-1.2274115e-06
1.4252764e-05
-1.2801559e-06
1.4190597e-05
-1.3331126e-06
1.412595e-05
-1.3863023e-06
1.4058804e-05
-1.4397351e-06
1.3989138e-05
-1.493408e-06
1.3916932e-05
-1.5473065e-06
1.3842169e-05
-1.6014043e-06
1.3764831e-05
-1.6556633e-06
1.3684903e-05
-1.7100346e-06
1.3602375e-05
-1.7644582e-06
1.3517236e-05
-1.8188638e-06
1.3429481e-05
-1.8731708e-06
1.3339108e-05
-1.9272877e-06
1.3246121e-05
-1.9811122e-06
1.3150527e-05
-2.0345306e-06
1.3052339e-05
-2.0874186e-06
1.2951575e-05
-2.1396396e-06
1.2848263e-05
-2.1910454e-06
1.2742433e-05
-2.2414765e-06
1.2634126e-05
-2.2907616e-06
1.2523391e-05
-2.3387181e-06
1.2410283e-05
-2.3851521e-06
1.2294869e-05
-2.4298597e-06
1.2177224e-05
-2.4726262e-06
1.2057434e-05
-2.5132283e-06
1.1935595e-05
-2.5514326e-06
1.1811814e-05
-2.5869988e-06
1.168621e-05
-2.6196789e-06
1.1558914e-05
-2.6492186e-06
1.1430069e-05
-2.6753576e-06
1.1299831e-05
-2.6978337e-06
1.1168369e-05
-2.7163756e-06
1.1035868e-05
-2.7307297e-06
1.0902533e-05
-2.7405994e-06
1.0768539e-05
-2.7458366e-06
1.0634096e-05
-2.7461413e-06
1.0499429e-05
-2.7412982e-06
1.0364889e-05
-2.7307617e-06
1.0230639e-05
-2.7146956e-06
1.0097026e-05
-2.692608e-06
9.9642109e-06
-2.6646604e-06
9.8326209e-06
-2.630169e-06
9.7024504e-06
-2.5894126e-06
9.574164e-06
-2.5417806e-06
9.4478264e-06
-2.4878055e-06
9.3239205e-06
-2.4268608e-06
9.2028676e-06
-2.3587419e-06
9.0850714e-06
-2.2834569e-06
8.9707171e-06
-2.2014677e-06
8.860244e-06
-2.1125347e-06
8.7540589e-06
-2.0166676e-06
8.6525957e-06
-1.9139407e-06
8.5561407e-06
-1.8047164e-06
8.4650172e-06
-1.6892122e-06
8.3795888e-06
-1.5675653e-06
8.3002175e-06
-1.4399893e-06
8.2272597e-06
-1.3067593e-06
8.1610624e-06
-1.1681901e-06
8.1019597e-06
-1.0246358e-06
8.0502718e-06
-8.7648652e-07
8.0063039e-06
-7.241652e-07
7.9703446e-06
-5.6812409e-07
7.9426622e-06
-4.0884419e-07
7.9235063e-06
-2.4683319e-07
7.9130787e-06
-8.2605128e-08
7.9115108e-06
8.3291206e-08
7.9189293e-06
2.5028684e-07
7.9354975e-06
4.1780043e-07
7.9613752e-06
5.8520348e-07
7.9967018e-06
7.5188926e-07
8.0415716e-06
9.1726632e-07
8.096025e-06
1.080749e-06
8.1600548e-06
1.2417678e-06
8.2336023e-06
1.3997586e-06
8.3165624e-06
1.554178e-06
8.4087905e-06
1.7045021e-06
8.5101175e-06
1.8502341e-06
8.6203667e-06
1.9909159e-06
8.7393605e-06
2.1261003e-06
8.8669647e-06
2.2555247e-06
9.0029413e-06
2.3784344e-06
9.1473388e-06
2.4963127e-06
9.2993467e-06
2.6017941e-06
2.7240159e-06
9.4606931e-06
1.4436968e-05
-1.3846743e-07
1.442477e-05
-1.8945447e-07
1.441008e-05
-2.5820916e-07
1.439271e-05
-3.203972e-07
1.4372795e-05
-3.815752e-07
1.4350375e-05
-4.4195244e-07
1.4325481e-05
-5.0016561e-07
1.429816e-05
-5.5652791e-07
1.4268453e-05
-6.1143687e-07
1.4236393e-05
-6.6508628e-07
1.4202004e-05
-7.1769507e-07
1.4165308e-05
-7.6948218e-07
1.4126316e-05
-8.2063574e-07
1.4085036e-05
-8.7132022e-07
1.4041472e-05
-9.2168093e-07
1.3995621e-05
-9.7184215e-07
1.3947476e-05
-1.0219073e-06
1.3897028e-05
-1.0719634e-06
1.3844263e-05
-1.122081e-06
1.3789169e-05
-1.1723169e-06
1.3731727e-05
-1.2227144e-06
1.3671922e-05
-1.273307e-06
1.3609734e-05
-1.3241143e-06
1.3545144e-05
-1.3751454e-06
1.3478134e-05
-1.4263981e-06
1.3408686e-05
-1.477858e-06
1.3336782e-05
-1.5295002e-06
1.3262406e-05
-1.5812879e-06
1.3185546e-05
-1.633174e-06
1.3106189e-05
-1.6851015e-06
1.3024329e-05
-1.7370031e-06
1.2939959e-05
-1.7888013e-06
1.285308e-05
-1.8404084e-06
1.2763694e-05
-1.8917266e-06
1.2671811e-05
-1.9426473e-06
1.2577443e-05
-1.9930508e-06
1.248061e-05
-2.0428067e-06
1.2381338e-05
-2.0917728e-06
1.2279658e-05
-2.1397966e-06
1.217561e-05
-2.1867142e-06
1.2069243e-05
-2.2323505e-06
1.1960611e-05
-2.2765203e-06
1.184978e-05
-2.3190286e-06
1.1736824e-05
-2.3596698e-06
1.1621826e-05
-2.3982307e-06
1.1504881e-05
-2.4344881e-06
1.1386095e-05
-2.4682126e-06
1.1265583e-05
-2.4991671e-06
1.1143474e-05
-2.527109e-06
1.1019906e-05
-2.55179e-06
1.0895033e-05
-2.5729602e-06
1.0769019e-05
-2.5903619e-06
1.0642043e-05
-2.6037538e-06
1.0514304e-05
-2.6128601e-06
1.0385984e-05
-2.6175168e-06
1.0257293e-05
-2.6174507e-06
1.0128446e-05
-2.6124505e-06
9.9997471e-06
-2.6020629e-06
9.8713852e-06
-2.5863337e-06
9.7436697e-06
-2.5648924e-06
9.6167989e-06
-2.5377896e-06
9.4911463e-06
-2.5045164e-06
9.3669383e-06
-2.4652046e-06
9.2445753e-06
-2.4194177e-06
9.1242169e-06
-2.367447e-06
9.0062641e-06
-2.3089081e-06
8.8911188e-06
-2.2435966e-06
8.7791627e-06
-2.1715008e-06
8.6706334e-06
-2.0929384e-06
8.5659092e-06
-2.0078105e-06
8.4653658e-06
-1.9161241e-06
8.3693898e-06
-1.8179646e-06
8.2782883e-06
-1.7136149e-06
8.1923784e-06
-1.6033022e-06
8.1120026e-06
-1.4871896e-06
8.0375023e-06
-1.365489e-06
7.9692104e-06
-1.2384673e-06
7.9074496e-06
-1.1064293e-06
7.8525296e-06
-9.6971581e-07
7.8047452e-06
-8.2870206e-07
7.7643743e-06
-6.8379426e-07
7.7316762e-06
-5.3542603e-07
7.7068907e-06
-3.8405864e-07
7.6902355e-06
-2.3017797e-07
7.6819168e-06
-7.4286418e-08
7.6821469e-06
8.3061027e-08
7.6910956e-06
2.4133823e-07
7.7088717e-06
4.0002428e-07
7.7355389e-06
5.5853626e-07
7.7711313e-06
7.1629693e-07
7.8156597e-06
8.7273786e-07
7.8691169e-06
1.0272918e-06
7.9314782e-06
1.1794065e-06
8.0026929e-06
1.3285439e-06
8.0826784e-06
1.4741925e-06
8.1713147e-06
1.6158658e-06
8.2684426e-06
1.7531062e-06
8.3738675e-06
1.8854909e-06
8.4873609e-06
2.0126069e-06
8.6087033e-06
2.1341823e-06
8.7376123e-06
2.2495254e-06
8.8739911e-06
2.3599339e-06
9.0171694e-06
2.4586158e-06
2.5724927e-06
9.1686926e-06
1.3908437e-05
-1.2952948e-07
1.3896734e-05
-1.7774982e-07
1.3882575e-05
-2.4405034e-07
1.3865837e-05
-3.0365951e-07
1.3846661e-05
-3.6239913e-07
1.3825077e-05
-4.203686e-07
1.3801113e-05
-4.7620133e-07
1.3774816e-05
-5.3023163e-07
1.3746226e-05
-5.8284649e-07
1.3715373e-05
-6.3423296e-07
1.3682281e-05
-6.8460349e-07
1.3646971e-05
-7.3417171e-07
1.3609454e-05
-7.8311916e-07
1.3569739e-05
-8.3160553e-07
1.3527829e-05
-8.7977029e-07
1.348372e-05
-9.2773341e-07
1.3437407e-05
-9.7559482e-07
1.3388882e-05
-1.0234377e-06
1.3338131e-05
-1.0713306e-06
1.3285142e-05
-1.1193278e-06
1.3229899e-05
-1.1674717e-06
1.3172386e-05
-1.2157934e-06
1.3112584e-05
-1.2643125e-06
1.3050476e-05
-1.3130379e-06
1.2986045e-05
-1.3619668e-06
1.2919273e-05
-1.4110858e-06
1.2850143e-05
-1.4603707e-06
1.2778642e-05
-1.5097864e-06
1.2704756e-05
-1.559288e-06
1.2628475e-05
-1.6088206e-06
1.2549792e-05
-1.65832e-06
1.2468702e-05
-1.7077118e-06
1.2385207e-05
-1.7569128e-06
1.2299308e-05
-1.8058285e-06
1.2211016e-05
-1.8543553e-06
1.2120344e-05
-1.9023787e-06
1.2027311e-05
-1.9497737e-06
1.1931943e-05
-1.9964045e-06
1.1834271e-05
-2.0421248e-06
1.1734335e-05
-2.0867782e-06
1.1632182e-05
-2.130197e-06
1.1527866e-05
-2.1722043e-06
1.1421451e-05
-2.2126135e-06
1.1313009e-05
-2.2512285e-06
1.1202623e-05
-2.287845e-06
1.1090386e-05
-2.3222508e-06
1.0976399e-05
-2.3542259e-06
1.0860777e-05
-2.3835445e-06
1.0743643e-05
-2.409975e-06
1.0625134e-05
-2.4332811e-06
1.0505398e-05
-2.4532247e-06
1.0384598e-05
-2.4695611e-06
1.0262904e-05
-2.4820603e-06
1.0140509e-05
-2.4904645e-06
1.0017593e-05
-2.4946014e-06
9.8943612e-06
-2.4942187e-06
9.771023e-06
-2.4891123e-06
9.6478615e-06
-2.4789014e-06
9.5250839e-06
-2.4635561e-06
9.4029746e-06
-2.4427831e-06
9.2817486e-06
-2.4165636e-06
9.1617378e-06
-2.3845056e-06
9.0431832e-06
-2.34665e-06
8.9264399e-06
-2.3026744e-06
8.8117188e-06
-2.2527258e-06
8.6993677e-06
-2.1965569e-06
8.5897584e-06
-2.1339873e-06
8.4832511e-06
-2.0649935e-06
8.3801124e-06
-1.9897997e-06
8.2806875e-06
-1.9083857e-06
8.1853343e-06
-1.8207709e-06
8.0944166e-06
-1.7270469e-06
8.0082466e-06
-1.6274449e-06
7.9271298e-06
-1.5221853e-06
7.851387e-06
-1.4114467e-06
7.7813387e-06
-1.2954407e-06
7.7172979e-06
-1.1744264e-06
7.6595674e-06
-1.0486987e-06
7.6084377e-06
-9.1858611e-07
7.5641845e-06
-7.8444891e-07
7.5270663e-06
-6.4667606e-07
7.4973244e-06
-5.0568414e-07
7.4751793e-06
-3.6191347e-07
7.4608307e-06
-2.158294e-07
7.4544443e-06
-6.7899963e-08
7.4561384e-06
8.1366951e-08
7.466017e-06
2.3145965e-07
7.484182e-06
3.8185922e-07
7.5107173e-06
5.3200099e-07
7.5456861e-06
6.8132816e-07
7.5891187e-06
8.2930528e-07
7.6410059e-06
9.7540465e-07
7.701305e-06
1.1191074e-06
7.7699387e-06
1.2599102e-06
7.846799e-06
1.3973322e-06
7.9317499e-06
1.5309149e-06
8.0246271e-06
1.660229e-06
8.1252394e-06
1.7848786e-06
8.2333627e-06
1.9044836e-06
8.3487586e-06
2.0187864e-06
8.4711322e-06
2.1271518e-06
8.600298e-06
2.2307681e-06
8.7355979e-06
2.3233159e-06
2.4297746e-06
8.8783159e-06
1.3399282e-05
-1.2082392e-07
1.3388055e-05
-1.6652421e-07
1.3374404e-05
-2.303989e-07
1.3358274e-05
-2.8752954e-07
1.3339808e-05
-3.439331e-07
1.3319025e-05
-3.9958577e-07
1.3295953e-05
-4.5312976e-07
1.3270639e-05
-5.0491778e-07
1.324312e-05
-5.5532698e-07
1.3213424e-05
-6.0453681e-07
1.3181575e-05
-6.52755e-07
1.3147593e-05
-7.001893e-07
1.3111489e-05
-7.4701543e-07
1.3073272e-05
-7.9338795e-07
1.3032943e-05
-8.3944162e-07
1.2990501e-05
-8.8529162e-07
1.2945941e-05
-9.3103434e-07
1.2899253e-05
-9.7675043e-07
1.2850428e-05
-1.022505e-06
1.2799451e-05
-1.0683512e-06
1.2746309e-05
-1.1143292e-06
1.2690985e-05
-1.1604698e-06
1.2633464e-05
-1.2067911e-06
1.2573728e-05
-1.2533017e-06
1.251176e-05
-1.2999993e-06
1.2447545e-05
-1.3468707e-06
1.2381067e-05
-1.3938928e-06
1.2312313e-05
-1.4410321e-06
1.224127e-05
-1.4882453e-06
1.216793e-05
-1.5354804e-06
1.2092286e-05
-1.5826755e-06
1.2014334e-05
-1.6297603e-06
1.1934075e-05
-1.6766539e-06
1.1851514e-05
-1.723267e-06
1.1766659e-05
-1.7695001e-06
1.1679524e-05
-1.8152435e-06
1.1590128e-05
-1.8603779e-06
1.1498497e-05
-1.9047732e-06
1.1404662e-05
-1.94829e-06
1.1308661e-05
-1.9907779e-06
1.1210542e-05
-2.0320773e-06
1.1110357e-05
-2.0720192e-06
1.1008168e-05
-2.110425e-06
1.0904047e-05
-2.1471073e-06
1.0798074e-05
-2.1818716e-06
1.0690338e-05
-2.2145149e-06
1.058094e-05
-2.2448277e-06
1.0469989e-05
-2.2725941e-06
1.0357609e-05
-2.2975943e-06
1.024393e-05
-2.3196022e-06
1.0129097e-05
-2.3383922e-06
1.0013267e-05
-2.353731e-06
9.8966071e-06
-2.3654004e-06
9.7793013e-06
-2.3731587e-06
9.6615301e-06
-2.3768301e-06
9.5434928e-06
-2.3761815e-06
9.4253955e-06
-2.371015e-06
9.3074983e-06
-2.3610042e-06
9.1900136e-06
-2.3460713e-06
9.073205e-06
-2.3259745e-06
8.957296e-06
-2.3006546e-06
8.8425903e-06
-2.2697999e-06
8.7293363e-06
-2.233396e-06
8.6178583e-06
-2.1911964e-06
8.5083927e-06
-2.1432602e-06
8.4012575e-06
-2.0894217e-06
8.2968005e-06
-2.0295303e-06
8.1953632e-06
-1.9635562e-06
8.0972252e-06
-1.8916617e-06
8.0027086e-06
-1.8138691e-06
7.9121494e-06
-1.7302117e-06
7.8258858e-06
-1.6407833e-06
7.744223e-06
-1.545782e-06
7.6674565e-06
-1.4454188e-06
7.5958899e-06
-1.3398801e-06
7.5298257e-06
-1.2293766e-06
7.4695581e-06
-1.1141589e-06
7.4153709e-06
-9.9451145e-07
7.3675343e-06
-8.7074951e-07
7.3263035e-06
-7.4321811e-07
7.2919167e-06
-6.1228931e-07
7.264593e-06
-4.7836044e-07
7.2445306e-06
-3.4185096e-07
7.2319059e-06
-2.0320474e-07
7.2268777e-06
-6.2871775e-08
7.2295912e-06
7.8653463e-08
7.2401598e-06
2.2089104e-07
7.2586601e-06
3.6335894e-07
7.285135e-06
5.0552608e-07
7.3195989e-06
6.4686427e-07
7.3620414e-06
7.8686285e-07
7.4124255e-06
9.2502057e-07
7.4706924e-06
1.0608405e-06
7.5367577e-06
1.1938449e-06
7.6105105e-06
1.3235794e-06
7.6918134e-06
1.4496121e-06
7.7805026e-06
1.5715398e-06
7.8763901e-06
1.6889911e-06
7.9792623e-06
1.8016114e-06
8.0888852e-06
1.9091635e-06
8.2049839e-06
2.0110532e-06
8.3273416e-06
2.1084104e-06
8.4553509e-06
2.1953065e-06
2.2950896e-06
8.590036e-06
1.290877e-05
-1.1233163e-07
1.2897991e-05
-1.5574377e-07
1.2884826e-05
-2.1723472e-07
1.2869281e-05
-2.7198493e-07
1.2851498e-05
-3.2614945e-07
1.2831485e-05
-3.7957323e-07
1.2809272e-05
-4.3091624e-07
1.2784903e-05
-4.8054889e-07
1.2758412e-05
-5.2883652e-07
1.2729829e-05
-5.7595358e-07
1.2699177e-05
-6.2210254e-07
1.2666473e-05
-6.6748502e-07
1.2631729e-05
-7.1227204e-07
1.2594954e-05
-7.5661287e-07
1.2556149e-05
-8.0063718e-07
1.2515314e-05
-8.444567e-07
1.2472444e-05
-8.8816355e-07
1.2427529e-05
-9.3183558e-07
1.238056e-05
-9.7553634e-07
1.2331525e-05
-1.0193159e-06
1.2280409e-05
-1.0632139e-06
1.2227199e-05
-1.1072594e-06
1.2171878e-05
-1.1514701e-06
1.2114431e-05
-1.1958543e-06
1.2054841e-05
-1.2404095e-06
1.1993093e-05
-1.2851235e-06
1.1929174e-05
-1.3299736e-06
1.186307e-05
-1.3749281e-06
1.1794771e-05