/*--------------------------------*- C++ -*----------------------------------*\
| =========                 |                                                 |
| \\      /  F ield         | OpenFOAM: The Open Source CFD Toolbox           |
|  \\    /   O peration     | Version:  2406                                  |
|   \\  /    A nd           | Website:  www.openfoam.com                      |
|    \\/     M anipulation  |                                                 |
\*---------------------------------------------------------------------------*/
FoamFile
{
    version     2.0;
    format      ascii;
    arch        "LSB;label=32;scalar=64";
    class       volScalarField;
    location    "30";
    object      alphat;
}
// * * * * * * * * * * * * * * * * * * * * * * * * * * * * * * * * * * * * * //

dimensions      [1 -1 -1 0 0 0 0];

internalField   nonuniform List<scalar> 
62344
(
1.0826833e-06
1.0859103e-06
1.0647383e-06
1.0512185e-06
1.0445068e-06
1.0606546e-06
1.083564e-06
1.0981497e-06
1.0895167e-06
1.0634834e-06
1.0441236e-06
1.0317774e-06
1.0328285e-06
1.0308226e-06
1.0302526e-06
1.0330757e-06
1.0222634e-06
1.0063443e-06
9.9838038e-07
1.0034514e-06
1.0154134e-06
1.0329011e-06
1.0511995e-06
1.0776199e-06
1.1088339e-06
1.1265665e-06
1.1414405e-06
1.1520165e-06
1.1650219e-06
1.1783239e-06
1.2164126e-06
1.2771313e-06
1.3520083e-06
1.420056e-06
1.4719677e-06
1.6075003e-06
1.7945953e-06
2.0667106e-06
2.4936298e-06
2.8139902e-06
3.4478805e-06
3.7576346e-06
4.7085138e-06
5.2367242e-06
6.3292184e-06
7.2150959e-06
8.8375511e-06
9.6084645e-06
1.0579657e-05
1.1487171e-05
1.2550787e-05
1.3652286e-05
1.4645097e-05
1.522469e-05
1.647638e-05
1.0829808e-06
1.085783e-06
1.0650032e-06
1.0485032e-06
1.0406398e-06
1.0592953e-06
1.0836671e-06
1.0972651e-06
1.0910222e-06
1.063263e-06
1.0405381e-06
1.026708e-06
1.0323027e-06
1.0292003e-06
1.0303617e-06
1.0339834e-06
1.0202599e-06
1.0069954e-06
9.9716274e-07
9.9637057e-07
1.0068639e-06
1.0243814e-06
1.0413957e-06
1.065083e-06
1.0924538e-06
1.1112363e-06
1.1272842e-06
1.1363712e-06
1.1472862e-06
1.1541761e-06
1.171963e-06
1.1955927e-06
1.2772906e-06
1.3446432e-06
1.3830424e-06
1.474279e-06
1.6702073e-06
1.8207459e-06
2.0218642e-06
2.3768339e-06
2.9553813e-06
3.1664361e-06
4.0170423e-06
4.6392269e-06
5.9338538e-06
6.5904674e-06
8.1229561e-06
8.8463945e-06
1.0322707e-05
1.1166453e-05
1.2720309e-05
1.3918595e-05
1.5349557e-05
1.677963e-05
1.7407857e-05
1.0833e-06
1.0875262e-06
1.067182e-06
1.0496647e-06
1.0421656e-06
1.0579794e-06
1.0844037e-06
1.0962264e-06
1.0937283e-06
1.0697446e-06
1.0446748e-06
1.0296756e-06
1.0332587e-06
1.03316e-06
1.0333579e-06
1.0394062e-06
1.0248469e-06
1.0084953e-06
1.0032518e-06
9.9978525e-07
1.0075823e-06
1.0277758e-06
1.0433272e-06
1.0668899e-06
1.092859e-06
1.110065e-06
1.1297706e-06
1.1417881e-06
1.1506794e-06
1.1587512e-06
1.170336e-06
1.1862141e-06
1.2548406e-06
1.3499045e-06
1.3825875e-06
1.4770529e-06
1.5851998e-06
1.780418e-06
1.9272679e-06
2.0724109e-06
2.5112458e-06
2.7613508e-06
3.2689908e-06
3.7187867e-06
4.6820906e-06
5.257747e-06
6.4321013e-06
6.9793493e-06
8.5415928e-06
9.3271596e-06
1.132451e-05
1.26514e-05
1.4450553e-05
1.5886742e-05
1.7320023e-05
1.0832853e-06
1.0885139e-06
1.0682277e-06
1.0506625e-06
1.0401402e-06
1.0577275e-06
1.0839583e-06
1.0985065e-06
1.0951552e-06
1.0713439e-06
1.0495719e-06
1.0300111e-06
1.0347076e-06
1.0363027e-06
1.0379028e-06
1.0389303e-06
1.0291603e-06
1.0143827e-06
1.0050028e-06
1.0018214e-06
1.0099742e-06
1.0320605e-06
1.0467287e-06
1.0675948e-06
1.0982083e-06
1.1147836e-06
1.1338283e-06
1.1499016e-06
1.1576483e-06
1.169665e-06
1.1735399e-06
1.1829145e-06
1.2327298e-06
1.3288534e-06
1.365785e-06
1.4635808e-06
1.5571456e-06
1.7430123e-06
1.8813528e-06
1.9972866e-06
2.3396813e-06
2.5931878e-06
3.0645883e-06
3.3772015e-06
4.0217845e-06
4.4396361e-06
5.3049549e-06
5.7461571e-06
6.8983601e-06
7.5543217e-06
9.0588618e-06
9.9257582e-06
1.1921522e-05
1.3234758e-05
1.5921063e-05
1.0830246e-06
1.0886205e-06
1.0692935e-06
1.0500021e-06
1.0378159e-06
1.0587274e-06
1.0866901e-06
1.0996597e-06
1.0948035e-06
1.0687142e-06
1.0512132e-06
1.0303011e-06
1.0346051e-06
1.0359465e-06
1.0415012e-06
1.042904e-06
1.0404961e-06
1.020998e-06
1.0059513e-06
1.0056274e-06
1.0124326e-06
1.0295898e-06
1.0456966e-06
1.0666262e-06
1.1000477e-06
1.1192925e-06
1.1373768e-06
1.1548826e-06
1.1608499e-06
1.176689e-06
1.1778857e-06
1.1832708e-06
1.2241719e-06
1.2917893e-06
1.3220098e-06
1.4044271e-06
1.5276367e-06
1.7191463e-06
1.8284137e-06
1.9586141e-06
2.2471729e-06
2.4767961e-06
2.9537041e-06
3.1848216e-06
3.797548e-06
4.1016892e-06
4.7397093e-06
5.1424296e-06
6.0751745e-06
6.6525333e-06
7.7237234e-06
8.4138809e-06
9.9203593e-06
1.1010787e-05
1.3197728e-05
1.0826911e-06
1.0880938e-06
1.0685961e-06
1.0509882e-06
1.0409449e-06
1.058038e-06
1.0872352e-06
1.1003637e-06
1.0950173e-06
1.0726015e-06
1.0519332e-06
1.0332673e-06
1.0315932e-06
1.0385945e-06
1.0407206e-06
1.0437144e-06
1.0414884e-06
1.0218386e-06
1.0101082e-06
1.0109672e-06
1.0140398e-06
1.0274093e-06
1.0454589e-06
1.0688695e-06
1.0966256e-06
1.1187847e-06
1.1365128e-06
1.1548252e-06
1.1659127e-06
1.1862489e-06
1.1877476e-06
1.1894488e-06
1.220586e-06
1.254314e-06
1.2980376e-06
1.3554219e-06
1.5180535e-06
1.6444657e-06
1.8261338e-06
1.9369202e-06
2.173804e-06
2.3915876e-06
2.8226455e-06
3.087023e-06
3.5620467e-06
3.7987885e-06
4.3486077e-06
4.719166e-06
5.5380018e-06
6.0880071e-06
6.9558601e-06
7.4456499e-06
8.5216006e-06
9.2389541e-06
1.0797507e-05
1.0829344e-06
1.0883813e-06
1.0691164e-06
1.054423e-06
1.0429816e-06
1.0573917e-06
1.0859703e-06
1.1040646e-06
1.1006356e-06
1.0803814e-06
1.0538919e-06
1.033548e-06
1.030544e-06
1.0420249e-06
1.0401342e-06
1.0417758e-06
1.0401771e-06
1.0239442e-06
1.0140018e-06
1.009874e-06
1.0128414e-06
1.0272222e-06
1.0453061e-06
1.0710106e-06
1.0916401e-06
1.1142646e-06
1.1351414e-06
1.1545145e-06
1.1671197e-06
1.1893064e-06
1.1897676e-06
1.1932939e-06
1.2209244e-06
1.2412917e-06
1.2909748e-06
1.3521128e-06
1.498119e-06
1.6048119e-06
1.7909858e-06
1.9026442e-06
2.1383992e-06
2.3314093e-06
2.6836603e-06
3.007419e-06
3.2982509e-06
3.5356473e-06
4.1752189e-06
4.5590119e-06
5.1807662e-06
5.6796678e-06
6.5998826e-06
7.1707579e-06
8.1238266e-06
8.5906673e-06
9.2627958e-06
1.0832029e-06
1.0883679e-06
1.0700972e-06
1.0543702e-06
1.0410696e-06
1.0556125e-06
1.0858582e-06
1.1054276e-06
1.1024154e-06
1.0807979e-06
1.0547016e-06
1.0358403e-06
1.0347093e-06
1.0428404e-06
1.0442586e-06
1.0456404e-06
1.0475552e-06
1.0365522e-06
1.0198549e-06
1.010477e-06
1.0146692e-06
1.0280265e-06
1.0433467e-06
1.0686614e-06
1.0924656e-06
1.1160809e-06
1.13741e-06
1.1570956e-06
1.1707491e-06
1.1924991e-06
1.1920974e-06
1.1981814e-06
1.2225336e-06
1.2375562e-06
1.287278e-06
1.3510958e-06
1.4781694e-06
1.5795605e-06
1.739705e-06
1.8353898e-06
2.0802278e-06
2.3622917e-06
2.5045633e-06
2.8061463e-06
3.0176829e-06
3.3037654e-06
4.0176477e-06
4.6948756e-06
4.8064099e-06
5.2099752e-06
6.0582734e-06
6.4681083e-06
7.209414e-06
7.8022346e-06
8.6343377e-06
1.0834427e-06
1.0886613e-06
1.0708275e-06
1.0531186e-06
1.0392024e-06
1.0536478e-06
1.0848611e-06
1.1023184e-06
1.1000498e-06
1.0788157e-06
1.0538069e-06
1.0357086e-06
1.0354866e-06
1.0402957e-06
1.0459133e-06
1.0472477e-06
1.0475991e-06
1.0387066e-06
1.0207695e-06
1.0087293e-06
1.0137214e-06
1.0255997e-06
1.0406479e-06
1.06471e-06
1.0908702e-06
1.1167251e-06
1.1411746e-06
1.1589109e-06
1.173777e-06
1.1969997e-06
1.1980035e-06
1.2072925e-06
1.2282009e-06
1.2386632e-06
1.2797311e-06
1.3402612e-06
1.4675284e-06
1.5583561e-06
1.6713557e-06
1.7812801e-06
2.0815669e-06
2.3357994e-06
2.4039814e-06
2.5554296e-06
2.8606183e-06
3.2955891e-06
4.0016958e-06
4.6196108e-06
4.7319768e-06
4.7437949e-06
5.1938534e-06
5.5911418e-06
6.4409071e-06
7.2576186e-06
8.7836475e-06
1.0837426e-06
1.0894517e-06
1.071198e-06
1.053488e-06
1.0405396e-06
1.0532724e-06
1.083353e-06
1.0992222e-06
1.097667e-06
1.07898e-06
1.0533394e-06
1.0339647e-06
1.0298397e-06
1.0364609e-06
1.0454976e-06
1.0459122e-06
1.0436035e-06
1.0367643e-06
1.0223508e-06
1.0087418e-06
1.0113624e-06
1.0252049e-06
1.0417008e-06
1.0652224e-06
1.0891074e-06
1.1144603e-06
1.1421003e-06
1.1604433e-06
1.1765489e-06
1.1991095e-06
1.2032896e-06
1.2183797e-06
1.2383263e-06
1.2462874e-06
1.2659574e-06
1.3430805e-06
1.4726727e-06
1.5186029e-06
1.5849764e-06
1.7260838e-06
2.040953e-06
2.3011632e-06
2.3820197e-06
2.4342619e-06
2.7007077e-06
3.1916312e-06
3.9153992e-06
4.4706318e-06
4.6566577e-06
4.5655754e-06
4.7283406e-06
5.0502607e-06
5.937308e-06
7.006269e-06
8.6646919e-06
1.0841305e-06
1.090494e-06
1.0718292e-06
1.0570684e-06
1.0419564e-06
1.0533534e-06
1.083049e-06
1.1013154e-06
1.1019036e-06
1.084721e-06
1.0553343e-06
1.0341666e-06
1.0268924e-06
1.0361064e-06
1.0443265e-06
1.0459586e-06
1.0419783e-06
1.0356232e-06
1.0276761e-06
1.0144215e-06
1.0123232e-06
1.0281581e-06
1.0468218e-06
1.0711473e-06
1.091312e-06
1.1088654e-06
1.1367168e-06
1.1582429e-06
1.1780676e-06
1.1979116e-06
1.2039809e-06
1.2228326e-06
1.2407413e-06
1.2498602e-06
1.265263e-06
1.3232111e-06
1.4417994e-06
1.4926215e-06
1.5662522e-06
1.6581014e-06
1.9834053e-06
2.2256456e-06
2.4030488e-06
2.4588379e-06
2.6764834e-06
3.0414653e-06
3.7315127e-06
4.293095e-06
4.5487483e-06
4.5601877e-06
4.6924534e-06
4.9213986e-06
5.6536338e-06
6.5833453e-06
8.1989854e-06
1.0841964e-06
1.0908865e-06
1.0726384e-06
1.0596279e-06
1.0412674e-06
1.0519391e-06
1.0836358e-06
1.1081717e-06
1.1068866e-06
1.092369e-06
1.0591026e-06
1.0398235e-06
1.033969e-06
1.0408752e-06
1.0498536e-06
1.0544049e-06
1.0505664e-06
1.0463212e-06
1.0394809e-06
1.0219524e-06
1.0162394e-06
1.0281786e-06
1.0467627e-06
1.0715159e-06
1.0923737e-06
1.1086281e-06
1.1315304e-06
1.1562485e-06
1.1803013e-06
1.1983041e-06
1.2056626e-06
1.2275523e-06
1.2444675e-06
1.2474054e-06
1.258064e-06
1.3028247e-06
1.397016e-06
1.4559544e-06
1.5457315e-06
1.6391006e-06
1.9397155e-06
2.1183852e-06
2.39528e-06
2.50072e-06
2.7652016e-06
2.9740452e-06
3.3998937e-06
3.932639e-06
4.322497e-06
4.4752087e-06
4.6851248e-06
5.1241213e-06
5.6123583e-06
6.0178322e-06
7.2317843e-06
1.0839352e-06
1.0906401e-06
1.0727105e-06
1.0588653e-06
1.039245e-06
1.0500046e-06
1.0822981e-06
1.10849e-06
1.1057889e-06
1.0924709e-06
1.0590424e-06
1.0418768e-06
1.0361902e-06
1.0400672e-06
1.0517088e-06
1.0555939e-06
1.0552761e-06
1.0520716e-06
1.0417139e-06
1.0239578e-06
1.0169378e-06
1.0256958e-06
1.0445455e-06
1.0685344e-06
1.0889843e-06
1.1075115e-06
1.1296875e-06
1.1544109e-06
1.1812602e-06
1.1971684e-06
1.2076215e-06
1.2351212e-06
1.252324e-06
1.2498621e-06
1.2563689e-06
1.2965289e-06
1.3639097e-06
1.414539e-06
1.5048309e-06
1.6266773e-06
1.9230516e-06
2.0614114e-06
2.3315145e-06
2.4542599e-06
2.7866962e-06
2.9397358e-06
3.338255e-06
3.5893417e-06
4.0149501e-06
4.223702e-06
4.4933745e-06
5.1494578e-06
5.4990781e-06
5.6827928e-06
6.5364978e-06
1.0834853e-06
1.0898949e-06
1.0723027e-06
1.0560455e-06
1.038354e-06
1.0487091e-06
1.0788251e-06
1.1036755e-06
1.1007467e-06
1.0869944e-06
1.0566181e-06
1.039598e-06
1.034135e-06
1.0338312e-06
1.0477337e-06
1.0516617e-06
1.0533614e-06
1.0506873e-06
1.0391597e-06
1.0218917e-06
1.010647e-06
1.0160094e-06
1.0334805e-06
1.0571344e-06
1.0777165e-06
1.0981576e-06
1.1227504e-06
1.1499824e-06
1.1807737e-06
1.1946107e-06
1.2044825e-06
1.232729e-06
1.2503649e-06
1.2481821e-06
1.2552041e-06
1.2912228e-06
1.3524549e-06
1.3961295e-06
1.4669533e-06
1.5914441e-06
1.8884577e-06
2.0093762e-06
2.2298723e-06
2.4007386e-06
2.6327368e-06
2.9348727e-06
3.2227316e-06
3.3180345e-06
3.6686554e-06
3.9717956e-06
4.1685689e-06
4.7154813e-06
5.1194382e-06
5.312088e-06
6.0012388e-06
1.0830071e-06
1.0891644e-06
1.0716517e-06
1.0541068e-06
1.0386784e-06
1.0478026e-06
1.0759291e-06
1.0983544e-06
1.0977217e-06
1.0829724e-06
1.0551523e-06
1.0347105e-06
1.027112e-06
1.0262236e-06
1.0379351e-06
1.0403985e-06
1.0417267e-06
1.0389847e-06
1.0293529e-06
1.0168709e-06
1.0068295e-06
1.0109363e-06
1.0265883e-06
1.0490652e-06
1.0678102e-06
1.0877793e-06
1.113732e-06
1.1407183e-06
1.1730426e-06
1.1864808e-06
1.1976775e-06
1.2231223e-06
1.238629e-06
1.2373929e-06
1.2464992e-06
1.2797047e-06
1.3447662e-06
1.3865095e-06
1.4544698e-06
1.5326916e-06
1.8146928e-06
1.9465893e-06
2.1554853e-06
2.3341099e-06
2.5004683e-06
2.8061298e-06
3.1000563e-06
3.1615919e-06
3.4714207e-06
3.7101629e-06
3.9299166e-06
4.3890834e-06
4.841126e-06
5.0438096e-06
5.5115606e-06
1.0825618e-06
1.0884716e-06
1.0711754e-06
1.0546497e-06
1.0397212e-06
1.0470465e-06
1.074611e-06
1.0970272e-06
1.0990109e-06
1.0844394e-06
1.0563801e-06
1.0332287e-06
1.0239598e-06
1.0244168e-06
1.0345863e-06
1.0369368e-06
1.0377718e-06
1.0347343e-06
1.0265896e-06
1.0156803e-06
1.0057594e-06
1.0074524e-06
1.021847e-06
1.0436e-06
1.0613241e-06
1.0800349e-06
1.1064956e-06
1.1325043e-06
1.1633462e-06
1.1748645e-06
1.1832776e-06
1.2018087e-06
1.211993e-06
1.210532e-06
1.2271183e-06
1.2590382e-06
1.3223089e-06
1.3585844e-06
1.4476041e-06
1.4920519e-06
1.7074456e-06
1.8374665e-06
2.0216793e-06
2.2471486e-06
2.401839e-06
2.6382859e-06
2.9509247e-06
3.1184998e-06
3.3093163e-06
3.412981e-06
3.733718e-06
4.2738379e-06
4.6195007e-06
4.7199966e-06
5.0842666e-06
1.0821494e-06
1.0878242e-06
1.071049e-06
1.0571922e-06
1.0410878e-06
1.0459988e-06
1.0749512e-06
1.1005296e-06
1.1040488e-06
1.0924539e-06
1.0626245e-06
1.0369553e-06
1.026229e-06
1.0303632e-06
1.0376676e-06
1.0427214e-06
1.0436884e-06
1.0390241e-06
1.0334585e-06
1.0230777e-06
1.0119081e-06
1.0103624e-06
1.0213438e-06
1.0408842e-06
1.0563723e-06
1.0742527e-06
1.0984315e-06
1.1198928e-06
1.1481968e-06
1.1600587e-06
1.1666084e-06
1.1801859e-06
1.1856017e-06
1.1814426e-06
1.1944351e-06
1.2220127e-06
1.2775445e-06
1.29992e-06
1.3914955e-06
1.4310866e-06
1.5827707e-06
1.7621227e-06
1.8440889e-06
2.0248188e-06
2.2908799e-06
2.403355e-06
2.7169607e-06
2.9660111e-06
3.1167631e-06
3.1907834e-06
3.5701764e-06
4.0410266e-06
4.3593904e-06
4.402982e-06
4.6932658e-06
1.0818033e-06
1.0870201e-06
1.0710479e-06
1.0589982e-06
1.0411209e-06
1.0441723e-06
1.0750678e-06
1.1046352e-06
1.1100047e-06
1.0977788e-06
1.0685111e-06
1.0427504e-06
1.03029e-06
1.0336478e-06
1.0419967e-06
1.0496091e-06
1.0493614e-06
1.0471089e-06
1.043613e-06
1.0282637e-06
1.0131003e-06
1.0092663e-06
1.016553e-06
1.032548e-06
1.0460376e-06
1.0614692e-06
1.0797313e-06
1.0975398e-06
1.1226547e-06
1.1313625e-06
1.1367543e-06
1.1472243e-06
1.1499087e-06
1.1456043e-06
1.1558424e-06
1.1793195e-06
1.2247172e-06
1.1018823e-06
1.2300342e-06
1.3415916e-06
1.4342292e-06
1.5938692e-06
1.6780431e-06
1.7101522e-06
1.9860584e-06
2.0956259e-06
2.3008441e-06
2.5538655e-06
2.759836e-06
2.8382309e-06
3.1709284e-06
3.6237513e-06
3.9640927e-06
4.0414417e-06
4.3746331e-06
1.0814659e-06
1.086439e-06
1.0704226e-06
1.0587418e-06
1.039828e-06
1.0416537e-06
1.0720077e-06
1.1014618e-06
1.1080923e-06
1.0932096e-06
1.0651023e-06
1.0386253e-06
1.0240005e-06
1.0237897e-06
1.0324097e-06
1.0374284e-06
1.0378877e-06
1.0372866e-06
1.0325521e-06
1.0133493e-06
9.9949881e-07
9.9620056e-07
1.0014843e-06
1.0144926e-06
1.0262271e-06
1.0384139e-06
1.0516225e-06
1.070355e-06
1.1006521e-06
1.1121412e-06
1.1177435e-06
1.1281491e-06
1.1324937e-06
1.1305819e-06
1.1417415e-06
1.0337192e-06
1.1966501e-06
8.0745577e-07
1.0186546e-06
1.2752889e-06
1.3437646e-06
1.469066e-06
1.552007e-06
1.5621841e-06
1.7582284e-06
1.8824823e-06
2.0057361e-06
2.2195445e-06
2.4416335e-06
2.4996441e-06
2.7644623e-06
3.2094489e-06
3.532668e-06
3.6485356e-06
4.0336816e-06
1.0810485e-06
1.0853488e-06
1.0685854e-06
1.0560716e-06
1.0365004e-06
1.0370804e-06
1.0631318e-06
1.0890798e-06
1.0932223e-06
1.0774845e-06
1.0482228e-06
1.0201652e-06
1.0053236e-06
1.0011826e-06
1.0082543e-06
1.0108143e-06
1.0138847e-06
1.0156562e-06
1.0100328e-06
9.9342631e-07
9.8666338e-07
9.9061247e-07
1.0007655e-06
1.012937e-06
1.0255877e-06
1.0379172e-06
1.0576223e-06
1.0844171e-06
1.1324797e-06
1.1557871e-06
1.1850202e-06
1.204895e-06
1.0128962e-06
1.1680688e-06
1.2663031e-06
1.2237552e-06
1.3296782e-06
7.1257161e-07
9.9867321e-07
1.4021845e-06
1.4498903e-06
1.5417138e-06
1.6167485e-06
1.609649e-06
1.7488259e-06
1.8599681e-06
1.6268634e-06
2.1076019e-06
2.3087199e-06
2.3784055e-06
2.558964e-06
2.937314e-06
3.2209522e-06
3.3470169e-06
3.7315937e-06
1.0803866e-06
1.0841133e-06
1.0648874e-06
1.0493117e-06
1.0274966e-06
1.0237574e-06
1.0410909e-06
1.0597488e-06
1.0609491e-06
1.0480084e-06
1.0200517e-06
9.9520429e-07
9.837627e-07
9.8395695e-07
9.9635037e-07
1.0038179e-06
1.0186086e-06
1.0339713e-06
1.0403084e-06
1.0447452e-06
1.0584748e-06
1.0830117e-06
1.1172097e-06
1.1400363e-06
1.1737725e-06
1.1931263e-06
1.2422998e-06
1.2812628e-06
1.3643973e-06
1.420258e-06
1.5020021e-06
1.5474577e-06
1.2467488e-06
1.3542274e-06
1.7100859e-06
1.7434198e-06
1.8109115e-06
9.6858617e-07
1.3224065e-06
1.9612264e-06
2.0079249e-06
2.0873578e-06
2.1459437e-06
2.1958515e-06
2.2556014e-06
2.35006e-06
1.7531158e-06
1.8035789e-06
2.5863357e-06
2.6848974e-06
2.771167e-06
2.9990596e-06
3.2050238e-06
3.3801505e-06
2.8777307e-06
1.0768979e-06
1.0768194e-06
1.0518036e-06
1.0298372e-06
1.0013192e-06
9.909362e-07
1.0044041e-06
1.0194026e-06
1.0286189e-06
1.0324513e-06
1.0244952e-06
1.021866e-06
1.0317784e-06
1.0568876e-06
1.0913366e-06
1.1280224e-06
1.1696785e-06
1.2245562e-06
1.2797969e-06
1.3030325e-06
1.366918e-06
1.4240298e-06
1.5090101e-06
1.5503125e-06
1.6302886e-06
1.6619224e-06
1.7549376e-06
1.8077198e-06
1.8917587e-06
1.9558738e-06
2.1725721e-06
2.2735673e-06
1.9041463e-06
1.9554541e-06
2.572273e-06
2.6519133e-06
2.7498306e-06
1.7396248e-06
2.16553e-06
3.0385116e-06
3.112544e-06
3.2142598e-06
3.264232e-06
3.4107057e-06
3.4767049e-06
3.5581662e-06
2.9912993e-06
2.5313819e-06
3.4357394e-06
3.757015e-06
3.7703026e-06
3.8399921e-06
3.9274426e-06
3.4991214e-06
2.7291128e-06
1.0612522e-06
1.0510596e-06
1.0178151e-06
9.9304445e-07
9.6363027e-07
9.6192667e-07
9.8424514e-07
9.9745903e-07
1.0527614e-06
1.1083439e-06
1.1636606e-06
1.2205369e-06
1.2873125e-06
1.3415219e-06
1.433004e-06
1.4910103e-06
1.5748021e-06
1.6776307e-06
1.7891551e-06
1.8364261e-06
1.9568095e-06
2.0422804e-06
2.1776385e-06
2.2452695e-06
2.3831907e-06
2.4473366e-06
2.6018099e-06
2.6771885e-06
2.8222159e-06
2.95661e-06
3.1579656e-06
3.3449282e-06
3.4070219e-06
3.3199702e-06
3.758253e-06
3.9105411e-06
4.0521387e-06
3.2725771e-06
3.6956361e-06
4.4721637e-06
4.599456e-06
4.729665e-06
4.5051512e-06
4.9899816e-06
5.0915232e-06
5.1605695e-06
4.4474235e-06
3.6246421e-06
3.8572704e-06
5.3776996e-06
5.3831868e-06
5.3645433e-06
5.3525058e-06
4.2102514e-06
3.2449866e-06
7.317442e-07
9.9832341e-07
9.8450243e-07
9.7033449e-07
9.5687188e-07
1.0060436e-06
1.041129e-06
1.0918303e-06
1.1926428e-06
1.3788814e-06
1.5009818e-06
1.6212951e-06
1.6993988e-06
1.7689918e-06
1.9433753e-06
1.9757229e-06
1.988915e-06
2.0761196e-06
2.1477985e-06
2.3094841e-06
2.4467169e-06
2.4321183e-06
2.6385601e-06
2.7942891e-06
3.0151285e-06
3.0445356e-06
3.2475299e-06
3.4953792e-06
3.5529888e-06
3.7549506e-06
4.0237485e-06
4.246677e-06
4.4200178e-06
4.5289202e-06
4.7246737e-06
4.9738311e-06
5.1537181e-06
4.6073168e-06
4.8051701e-06
5.5824212e-06
5.7354052e-06
5.7080194e-06
5.1961199e-06
5.8810852e-06
6.1319643e-06
6.1685132e-06
5.2900699e-06
4.6759512e-06
4.6271815e-06
5.6672019e-06
6.4213625e-06
6.4319413e-06
6.3806555e-06
5.1211314e-06
4.2435359e-06
6.8762225e-07
9.6259204e-07
9.8507895e-07
1.0334216e-06
1.0811873e-06
1.1532492e-06
1.2260915e-06
1.3475776e-06
1.4622626e-06
1.5895015e-06
1.6427449e-06
1.6953505e-06
1.7541475e-06
1.8124048e-06
1.8991307e-06
1.9440919e-06
1.9710383e-06
2.0305215e-06
2.0846022e-06
2.1811875e-06
2.2485362e-06
2.2775753e-06
2.393663e-06
2.4845723e-06
2.5988631e-06
2.6382998e-06
2.7351246e-06
2.9366116e-06
3.005823e-06
3.1101157e-06
3.3664929e-06
3.481481e-06
3.5465358e-06
3.5271164e-06
3.7404371e-06
3.9096703e-06
4.0065668e-06
3.9479838e-06
4.0167407e-06
4.2386944e-06
4.3639567e-06
4.4446056e-06
4.5148577e-06
4.598883e-06
4.6722904e-06
4.7083758e-06
4.521321e-06
4.1142333e-06
3.8566717e-06
4.045572e-06
4.7653013e-06
4.784742e-06
4.7421457e-06
4.318984e-06
3.8949934e-06
8.1711608e-07
1.0819102e-06
1.1778544e-06
1.2444996e-06
1.3149559e-06
1.3728307e-06
1.422907e-06
1.4339731e-06
1.4975553e-06
1.5387677e-06
1.548263e-06
1.5413388e-06
1.5337336e-06
1.5303759e-06
1.5314146e-06
1.5329971e-06
1.5325593e-06
1.5422999e-06
1.5481616e-06
1.5788539e-06
1.5985922e-06
1.6062307e-06
1.6359879e-06
1.6699121e-06
1.7075749e-06
1.7212224e-06
1.7302819e-06
1.7608896e-06
1.7640979e-06
1.7950976e-06
1.8607276e-06
1.8943927e-06
1.9061009e-06
1.8978508e-06
1.9147729e-06
1.9704665e-06
1.9998399e-06
1.9809692e-06
1.9759158e-06
2.0036763e-06
2.0420304e-06
2.0636437e-06
2.0719321e-06
2.0869621e-06
2.1104067e-06
2.1196741e-06
2.1122775e-06
2.0970242e-06
2.0976891e-06
2.1312731e-06
2.1728561e-06
2.1917515e-06
2.1808999e-06
2.146155e-06
2.1679226e-06
1.5963338e-06
2.071092e-06
1.9756408e-06
1.7151351e-06
1.5224537e-06
1.3762044e-06
1.2661591e-06
1.1644152e-06
1.085628e-06
1.0259187e-06
9.5623161e-07
8.8780318e-07
8.2122939e-07
7.6385993e-07
7.1428668e-07
6.7938428e-07
6.4862495e-07
6.2441852e-07
6.0520006e-07
5.9537881e-07
5.8033238e-07
5.6250982e-07
5.4754056e-07
5.3676194e-07
5.2443127e-07
5.0550185e-07
4.8411265e-07
4.7150239e-07
4.5837916e-07
4.4745976e-07
4.439934e-07
4.419512e-07
4.3611709e-07
4.2347633e-07
4.1251987e-07
4.1312633e-07
4.1424686e-07
4.0467358e-07
3.9113654e-07
3.819863e-07
3.7625811e-07
3.7023369e-07
3.6310695e-07
3.59746e-07
3.6145137e-07
3.603619e-07
3.5020531e-07
3.325164e-07
3.17176e-07
3.1227015e-07
3.1386349e-07
3.171955e-07
3.183139e-07
3.0949491e-07
2.9717207e-07
2.6773452e-07
1.9982454e-06
4.0044817e-06
4.2294727e-06
3.4141853e-06
3.2547032e-06
4.0038951e-06
3.9779604e-06
4.2726847e-06
4.2859143e-06
4.6379949e-06
5.4232368e-06
5.7528557e-06
6.3022649e-06
7.1162533e-06
8.1435456e-06
9.3022064e-06
9.7867982e-06
1.0216762e-05
1.0251143e-05
1.0533259e-05
1.1963215e-05
1.4410115e-05
1.7104208e-05
1.8714206e-05
1.9407878e-05
1.8796114e-05
2.3921133e-07
1.862342e-06
4.1404594e-06
5.2938391e-06
5.5547479e-06
4.9707595e-06
4.4295058e-06
4.4617343e-06
4.8240543e-06
5.1817691e-06
5.5980167e-06
6.0265099e-06
6.4605345e-06
7.1158953e-06
7.9705468e-06
8.8342284e-06
9.476273e-06
9.7362758e-06
1.0352668e-05
1.1219282e-05
1.1978667e-05
1.3444022e-05
1.5415893e-05
1.8119769e-05
1.9972843e-05
2.1032094e-05
2.1748144e-05
2.1676197e-07
1.7308626e-06
4.3564906e-06
6.3055069e-06
6.3445544e-06
5.4686731e-06
4.9474654e-06
4.8705829e-06
5.112231e-06
5.4805652e-06
5.9060238e-06
5.3718297e-06
6.593512e-06
7.6885668e-06
8.5920781e-06
9.3346443e-06
9.3078688e-06
9.4365695e-06
1.0234203e-05
1.1704451e-05
1.2702588e-05
1.4084333e-05
1.6836621e-05
1.9602087e-05
2.1217949e-05
2.3084129e-05
2.4799945e-05
1.9674433e-07
1.5904341e-06
4.227808e-06
6.211517e-06
6.5664448e-06
5.9376053e-06
5.4625809e-06
5.3868297e-06
5.4619997e-06
4.2478271e-06
4.3134441e-06
5.5108878e-06
7.732121e-06
8.3970262e-06
9.2462822e-06
1.009723e-05
9.8569912e-06
9.7577459e-06
1.0776587e-05
1.2532194e-05
1.354291e-05
1.4858067e-05
1.8277574e-05
2.1036256e-05
2.2364009e-05
2.520456e-05
2.8051709e-05
1.7128085e-07
1.4049316e-06
3.9552913e-06
5.5113139e-06
5.7692211e-06
5.1933323e-06
4.4897609e-06
4.022857e-06
3.9278597e-06
4.7443339e-06
7.3182933e-06
8.0093703e-06
8.5631241e-06
8.9958379e-06
9.6181422e-06
1.04625e-05
1.105025e-05
1.1824459e-05
1.3467778e-05
1.5338977e-05
1.6032415e-05
1.6719062e-05
1.9255544e-05
2.2721302e-05
2.3845238e-05
2.7236688e-05
3.1266996e-05
1.3286262e-07
1.1845682e-06
3.245893e-06
3.8752183e-06
3.5192617e-06
2.9618404e-06
2.7663624e-06
3.1027064e-06
4.0710689e-06
6.9035338e-06
8.7183734e-06
8.0985574e-06
7.3013909e-06
9.5650372e-06
1.069761e-05
1.1292032e-05
1.2366081e-05
1.5348125e-05
1.8198189e-05
1.9642581e-05
1.9559455e-05
1.9046692e-05
1.9987747e-05
2.3988102e-05
2.6148659e-05
2.941415e-05
3.3690458e-05
1.0925751e-07
1.0208717e-06
2.6082631e-06
3.350015e-06
3.2063906e-06
3.1761801e-06
3.62125e-06
5.1352336e-06
7.5355804e-06
6.7746006e-06
5.5510149e-06
5.7492621e-06
7.5869034e-06
1.0952693e-05
1.1612401e-05
1.2506934e-05
1.4161017e-05
1.7993195e-05
2.0916964e-05
2.2394083e-05
2.2265364e-05
2.1261425e-05
2.1102606e-05
2.4906737e-05
2.8693788e-05
3.123591e-05
3.4765676e-05
1.0002481e-07
9.1716924e-07
2.4702986e-06
3.9613223e-06
4.7528779e-06
7.2141797e-06
7.7626229e-06
8.0786788e-06
8.529877e-06
6.7084531e-06
7.1415989e-06
1.0054322e-05
1.089827e-05
1.1830745e-05
1.2801136e-05
1.4070239e-05
1.6371072e-05
1.9460514e-05
2.1845652e-05
2.3688501e-05
2.4134153e-05
2.3573156e-05
2.3538948e-05
2.6551067e-05
3.0592778e-05
3.239756e-05
3.5555922e-05
9.0868154e-08
8.3766968e-07
3.220239e-06
5.6719933e-06
7.4752404e-06
8.2900288e-06
8.0446074e-06
6.1707682e-06
5.6552447e-06
6.1964821e-06
7.9289048e-06
1.0524302e-05
1.0955791e-05
1.2735721e-05
1.4848767e-05
1.658933e-05
1.9019358e-05
2.1091597e-05
2.3179166e-05
2.5485417e-05
2.6388195e-05
2.6333965e-05
2.6840017e-05
2.9093755e-05
3.205225e-05
3.3096754e-05
3.62514e-05
8.9822984e-08
7.2739996e-07
3.1155262e-06
5.7274579e-06
7.5717823e-06
8.5944896e-06
8.7081714e-06
8.7643867e-06
6.895069e-06
6.0422363e-06
5.8489912e-06
6.2609379e-06
7.5081031e-06
9.7029712e-06
1.3917943e-05
1.9120414e-05
2.1096721e-05
2.28383e-05
2.5115753e-05
2.7903987e-05
2.9345513e-05
2.9991239e-05
3.1004302e-05
3.2629983e-05
3.4084039e-05
3.4346791e-05
3.6967918e-05
8.7239064e-08
6.0753164e-07
2.8754746e-06
5.476349e-06
6.5815571e-06
7.7133054e-06
9.066036e-06
9.9192584e-06
1.1128258e-05
9.6104555e-06
8.9504309e-06
9.5629546e-06
1.0640374e-05
1.2225267e-05
1.3090975e-05
1.3540501e-05
1.4670332e-05
1.8959552e-05
2.7920175e-05
3.1319051e-05
3.3501526e-05
3.4547959e-05
3.5311816e-05
3.6522253e-05
3.7754696e-05
3.7630374e-05
3.9631872e-05
7.2783e-08
4.901438e-07
2.2433206e-06
3.9059439e-06
4.0768235e-06
4.1105042e-06
4.1410218e-06
4.4514723e-06
5.2785494e-06
7.0272981e-06
1.1090501e-05
1.7172504e-05
1.9472789e-05
2.1537728e-05
1.782404e-05
1.5802684e-05
1.6741466e-05
2.0598127e-05
2.3015598e-05
2.6262257e-05
3.9071864e-05
4.0013588e-05
3.9539834e-05
4.0097192e-05
4.1880639e-05
4.2763369e-05
4.4844647e-05
5.9897239e-08
4.1145722e-07
2.0800189e-06
3.6133318e-06
3.9461221e-06
4.0989001e-06
4.3677063e-06
4.8277443e-06
5.5409333e-06
6.4677131e-06
7.8762167e-06
9.4876159e-06
1.0703508e-05
1.1795449e-05
1.5014612e-05
2.3780055e-05
2.9337697e-05
3.340809e-05
2.5809741e-05
2.6550174e-05
3.7223113e-05
4.5770927e-05
4.4889594e-05
4.4194968e-05
4.6338887e-05
4.8303074e-05
5.0553041e-05
5.5387956e-08
3.5285343e-07
1.8974301e-06
3.740195e-06
4.6548667e-06
5.5028412e-06
6.6933483e-06
8.7043552e-06
1.2184403e-05
1.4312003e-05
1.3360532e-05
1.0160797e-05
9.2066646e-06
1.0410301e-05
1.3798211e-05
1.8559482e-05
2.0691582e-05
2.3875566e-05
3.6177094e-05
5.2691666e-05
5.648175e-05
3.9353092e-05
3.8604439e-05
5.0739015e-05
5.2431742e-05
5.4414265e-05
5.5540989e-05
5.1984851e-08
3.0199158e-07
1.895634e-06
4.5018876e-06
6.5390323e-06
8.6299436e-06
1.0224236e-05
1.1626847e-05
1.3239069e-05
1.5277868e-05
1.1922906e-05
1.1401959e-05
1.4680414e-05
2.360617e-05
2.6034647e-05
1.9635741e-05
1.6601704e-05
1.8440623e-05
2.5280491e-05
4.6061178e-05
6.4843258e-05
6.5904906e-05
5.5500079e-05
4.7775201e-05
4.502826e-05
6.2007286e-05
6.0016586e-05
4.8009694e-08
2.4993484e-07
1.6558343e-06
4.2993533e-06
6.8324129e-06
8.8171516e-06
1.0489615e-05
1.2082117e-05
1.4092184e-05
1.1233794e-05
1.0938523e-05
1.2374408e-05
1.5516751e-05
1.5871967e-05
1.623344e-05
2.0078835e-05
3.0115347e-05
3.5563325e-05
2.785357e-05
2.6597935e-05
3.4203156e-05
5.7615012e-05
7.4573258e-05
7.4064753e-05
4.8213955e-05
4.3123309e-05
4.7328951e-05
4.7584364e-08
2.1149653e-07
1.4668597e-06
4.098197e-06
6.772652e-06
8.8952206e-06
1.0739157e-05
1.2678859e-05
1.5137443e-05
1.6451874e-05
1.4780159e-05
1.3505825e-05
1.1706406e-05
1.1426091e-05
1.3486249e-05
1.9320284e-05
3.2188806e-05
4.9981926e-05
5.8950718e-05
3.9177826e-05
3.8040688e-05
4.2691268e-05
5.4195588e-05
8.5729252e-05
8.4760917e-05
5.1746199e-05
3.576261e-05
4.8662018e-08
1.7810044e-07
1.2692077e-06
3.7564398e-06
6.4518626e-06
8.7387134e-06
1.0866928e-05
1.317096e-05
1.5939725e-05
1.9035652e-05
1.3865481e-05
1.1840059e-05
1.1957317e-05
1.4551609e-05
1.947804e-05
2.2205986e-05
2.4190648e-05
2.6825578e-05
3.4363457e-05
6.6445554e-05
8.1350273e-05
7.5440641e-05
5.2113194e-05
5.1608461e-05
8.1631426e-05
9.120675e-05
5.5593125e-05
4.3742556e-08
1.4581482e-07
1.0572455e-06
2.9682932e-06
5.0980479e-06
6.3622867e-06
7.5116937e-06
8.4691241e-06
9.4731071e-06
1.0823799e-05
1.2780254e-05
1.6705176e-05
2.4161491e-05
3.1230442e-05
2.8656879e-05
2.5249504e-05
2.6001659e-05
2.7628138e-05
3.0470876e-05
3.7419612e-05
5.0786218e-05
8.7035566e-05
9.8486884e-05
6.6796771e-05
5.1414898e-05
5.8341981e-05
9.2738671e-05
3.5900029e-08
1.168958e-07
8.512749e-07
2.2292594e-06
3.5946261e-06
4.2175945e-06
4.7608324e-06
5.5082335e-06
6.7782595e-06
8.9580207e-06
1.3354816e-05
2.4308783e-05
3.3371097e-05
3.7403587e-05
3.2556681e-05
3.3888396e-05
3.847068e-05
4.2146373e-05
4.2093692e-05
3.9521429e-05
3.8950311e-05
4.6923453e-05
7.3909001e-05
0.00010682543
7.5534753e-05
5.0851519e-05
5.2999916e-05
3.4112868e-08
9.905649e-08
7.3324172e-07
1.945393e-06
3.2617282e-06
3.9540611e-06
4.7038888e-06
5.9110457e-06
7.8039305e-06
1.0569532e-05
1.4005765e-05
1.6576573e-05
1.7977451e-05
2.123694e-05
2.6235593e-05
3.7717029e-05
5.7826031e-05
6.9905612e-05
8.3993823e-05
6.3338524e-05
5.0617999e-05
5.0523671e-05
5.3430505e-05
6.4751573e-05
0.00011047878
0.00010275063
5.7715856e-05
3.5564791e-08
9.1158654e-08
6.6008537e-07
1.9235592e-06
3.663888e-06
5.3453855e-06
7.6113782e-06
1.0814113e-05
1.480318e-05
1.8059244e-05
1.7882257e-05
1.6124713e-05
1.6810668e-05
1.9778957e-05
2.407801e-05
3.3509917e-05
5.2057349e-05
7.3585151e-05
8.9661274e-05
0.00010744557
0.00012297437
8.4873886e-05
6.4904361e-05
5.5733725e-05
6.2922057e-05
0.00011140973
0.00010568224
3.695735e-08
8.9042576e-08
6.5689619e-07
2.562562e-06
5.6720936e-06
8.8500147e-06
1.2049881e-05
1.5295086e-05
1.9112111e-05
2.33606e-05
2.7659745e-05
3.1368083e-05
2.926298e-05
3.2597041e-05
3.61707e-05
4.129039e-05