/*--------------------------------*- C++ -*----------------------------------*\
| =========                 |                                                 |
| \\      /  F ield         | OpenFOAM: The Open Source CFD Toolbox           |
|  \\    /   O peration     | Version:  2406                                  |
|   \\  /    A nd           | Website:  www.openfoam.com                      |
|    \\/     M anipulation  |                                                 |
\*---------------------------------------------------------------------------*/
FoamFile
{
    version     2.0;
    format      ascii;
    arch        "LSB;label=32;scalar=64";
    class       volScalarField;
    location    "30";
    object      alphat;
}
// * * * * * * * * * * * * * * * * * * * * * * * * * * * * * * * * * * * * * //

dimensions      [1 -1 -1 0 0 0 0];

internalField   nonuniform List<scalar> 
20580
(
8.7695321e-07
8.7521498e-07
8.3479726e-07
8.2571256e-07
8.3026499e-07
8.3073997e-07
8.2144872e-07
8.1229828e-07
7.9897002e-07
7.9051627e-07
7.8171216e-07
7.7039733e-07
7.626997e-07
7.5498726e-07
7.4919498e-07
7.4425052e-07
7.4409862e-07
7.4242418e-07
7.4231628e-07
7.4064001e-07
7.4034072e-07
7.4037943e-07
7.4033148e-07
7.3840545e-07
7.43933e-07
7.5889542e-07
7.710367e-07
7.8266045e-07
8.0699099e-07
8.401881e-07
8.8816248e-07
8.7868865e-07
8.8032561e-07
8.3808266e-07
8.2887373e-07
8.3395156e-07
8.346008e-07
8.2519689e-07
8.1553981e-07
8.00981e-07
7.9153455e-07
7.8287283e-07
7.7174272e-07
7.6324043e-07
7.5622912e-07
7.5021076e-07
7.4478345e-07
7.429338e-07
7.4242854e-07
7.4409508e-07
7.3891601e-07
7.416084e-07
7.4230705e-07
7.4414904e-07
7.4212781e-07
7.4556315e-07
7.5565822e-07
7.7203911e-07
7.8410567e-07
7.9759313e-07
8.2305992e-07
8.694218e-07
8.7874279e-07
8.9029239e-07
8.4628988e-07
8.330158e-07
8.3592234e-07
8.3495827e-07
8.2457056e-07
8.1416566e-07
8.0170432e-07
7.9239931e-07
7.8336762e-07
7.734293e-07
7.6399055e-07
7.5641751e-07
7.506889e-07
7.4600591e-07
7.4268757e-07
7.4075926e-07
7.4551817e-07
7.3722866e-07
7.3958669e-07
7.4190514e-07
7.4400255e-07
7.4139217e-07
7.4717391e-07
7.5290256e-07
7.6894216e-07
7.8146953e-07
7.9167199e-07
8.134214e-07
8.5597663e-07
8.8056159e-07
8.971519e-07
8.5228394e-07
8.3491117e-07
8.3659072e-07
8.3429287e-07
8.2419577e-07
8.1300828e-07
8.0214319e-07
7.9360792e-07
7.8457414e-07
7.7471319e-07
7.6499703e-07
7.5742458e-07
7.505152e-07
7.4650203e-07
7.425544e-07
7.3985929e-07
7.4551146e-07
7.3700723e-07
7.3805408e-07
7.4102672e-07
7.4208791e-07
7.3852995e-07
7.4554349e-07
7.4946371e-07
7.638174e-07
7.7592877e-07
7.8528204e-07
8.0016168e-07
8.384287e-07
8.8295779e-07
9.0202529e-07
8.5703126e-07
8.385779e-07
8.3917579e-07
8.3540937e-07
8.2588303e-07
8.1377379e-07
8.0384671e-07
7.961924e-07
7.8629446e-07
7.7787844e-07
7.6757301e-07
7.6011813e-07
7.5318755e-07
7.4670803e-07
7.4355249e-07
7.4043434e-07
7.4461206e-07
7.3715093e-07
7.3791643e-07
7.3985616e-07
7.4052646e-07
7.3699316e-07
7.4215337e-07
7.4581676e-07
7.5728271e-07
7.700009e-07
7.819127e-07
7.8916291e-07
8.1951104e-07
8.8436609e-07
9.0497538e-07
8.5997152e-07
8.477882e-07
8.4995486e-07
8.4448457e-07
8.3485488e-07
8.1946822e-07
8.07569e-07
7.9802202e-07
7.8705727e-07
7.7880675e-07
7.6882496e-07
7.603218e-07
7.5564739e-07
7.4917942e-07
7.4470237e-07
7.4455011e-07
7.4577493e-07
7.3846074e-07
7.3860241e-07
7.3858044e-07
7.392092e-07
7.3674604e-07
7.3902654e-07
7.4325729e-07
7.5059937e-07
7.6276869e-07
7.7902969e-07
7.8405367e-07
8.0889316e-07
8.8339052e-07
9.0853276e-07
8.6038297e-07
8.5449742e-07
8.6409154e-07
8.6207171e-07
8.515963e-07
8.3444818e-07
8.1929349e-07
8.0490677e-07
7.921588e-07
7.8108365e-07
7.7134007e-07
7.6045576e-07
7.5620946e-07
7.5029771e-07
7.4549979e-07
7.4453285e-07
7.4735424e-07
7.429757e-07
7.4106473e-07
7.3920989e-07
7.3882453e-07
7.3730258e-07
7.3840977e-07
7.4170577e-07
7.4527886e-07
7.5480937e-07
7.7006172e-07
7.7722488e-07
8.0086873e-07
8.7830101e-07
9.0497978e-07
8.5880906e-07
8.5314305e-07
8.646512e-07
8.646012e-07
8.5590129e-07
8.4395648e-07
8.3070724e-07
8.1693523e-07
8.0548016e-07
7.9066209e-07
7.790246e-07
7.6715839e-07
7.5912691e-07
7.5359773e-07
7.4707055e-07
7.4472174e-07
7.4500043e-07
7.4604833e-07
7.4130399e-07
7.3900586e-07
7.3785493e-07
7.4100735e-07
7.4086119e-07
7.4169024e-07
7.4262504e-07
7.4971781e-07
7.6095504e-07
7.7019356e-07
7.8764348e-07
8.7222936e-07
8.9031897e-07
8.5447845e-07
8.469884e-07
8.5591446e-07
8.6034737e-07
8.5530605e-07
8.4497528e-07
8.3244192e-07
8.2064566e-07
8.1226798e-07
8.0091232e-07
7.8861061e-07
7.7807483e-07
7.6754584e-07
7.5959823e-07
7.5449004e-07
7.5011331e-07
7.4523936e-07
7.4706965e-07
7.4573424e-07
7.4180013e-07
7.3941118e-07
7.3811648e-07
7.4433555e-07
7.4607734e-07
7.4199441e-07
7.4797936e-07
7.5819874e-07
7.6961464e-07
7.7950228e-07
8.6811281e-07
8.8764894e-07
8.5385768e-07
8.4728611e-07
8.5367495e-07
8.5740471e-07
8.4963095e-07
8.4002614e-07
8.2994204e-07
8.2046975e-07
8.1242622e-07
8.0231444e-07
7.9036229e-07
7.8106214e-07
7.7280207e-07
7.6552669e-07
7.6077884e-07
7.5900207e-07
7.5130251e-07
7.5032848e-07
7.4962184e-07
7.4892198e-07
7.4451035e-07
7.425881e-07
7.4137164e-07
7.4953793e-07
7.4743817e-07
7.4967371e-07
7.5529968e-07
7.688757e-07
7.7800902e-07
8.6689571e-07
8.9042534e-07
8.5582644e-07
8.4889405e-07
8.5468092e-07
8.5817209e-07
8.4971571e-07
8.3899777e-07
8.2735009e-07
8.1973309e-07
8.0928044e-07
8.0037182e-07
7.8962624e-07
7.8074909e-07
7.7270835e-07
7.6755939e-07
7.6234691e-07
7.6201268e-07
7.5621834e-07
7.5393768e-07
7.5209361e-07
7.5155972e-07
7.4949675e-07
7.4914429e-07
7.4363559e-07
7.4898438e-07
7.5089641e-07
7.5350517e-07
7.5576208e-07
7.6390693e-07
7.7503602e-07
8.6634316e-07
8.9659546e-07
8.6329297e-07
8.5471904e-07
8.6440431e-07
8.6889589e-07
8.6073177e-07
8.4628941e-07
8.3246277e-07
8.2305248e-07
8.1094379e-07
8.0092426e-07
7.8991071e-07
7.8073918e-07
7.7248252e-07
7.6761618e-07
7.621107e-07
7.6097786e-07
7.5670024e-07
7.5515541e-07
7.5317916e-07
7.5050353e-07
7.5068448e-07
7.5327813e-07
7.4735212e-07
7.4701154e-07
7.5097443e-07
7.5556642e-07
7.5553888e-07
7.5943466e-07
7.6838847e-07
8.6641206e-07
8.929855e-07
8.7746225e-07
8.7448321e-07
8.8989673e-07
8.9700855e-07
8.9045523e-07
8.7204204e-07
8.5409037e-07
8.3869314e-07
8.2287167e-07
8.0889976e-07
7.9614854e-07
7.8533762e-07
7.7528217e-07
7.6925986e-07
7.6380649e-07
7.6058473e-07
7.5736336e-07
7.5663611e-07
7.5476732e-07
7.5053351e-07
7.5048411e-07
7.547097e-07
7.5142941e-07
7.4614552e-07
7.4958859e-07
7.5658126e-07
7.5723335e-07
7.5880291e-07
7.6237838e-07
8.6606053e-07
8.8150431e-07
8.6512935e-07
8.7070143e-07
8.8769015e-07
8.9465272e-07
8.8846648e-07
8.7234551e-07
8.5669701e-07
8.429534e-07
8.3249203e-07
8.2017906e-07
8.0893433e-07
7.9703303e-07
7.8524606e-07
7.763464e-07
7.7021998e-07
7.6424755e-07
7.6179488e-07
7.5949194e-07
7.5923191e-07
7.5417253e-07
7.5293952e-07
7.5637897e-07
7.5695727e-07
7.4990472e-07
7.4975943e-07
7.5618667e-07
7.6026006e-07
7.6119853e-07
7.6215644e-07
8.7198084e-07
8.7574913e-07
8.4738314e-07
8.5068784e-07
8.6400543e-07
8.700795e-07
8.6520495e-07
8.5384534e-07
8.4237914e-07
8.3186121e-07
8.2467838e-07
8.1550819e-07
8.0478273e-07
7.9464239e-07
7.8539664e-07
7.7737996e-07
7.7157117e-07
7.6514607e-07
7.6433523e-07
7.6246742e-07
7.6183012e-07
7.6046149e-07
7.5651353e-07
7.5989807e-07
7.6068968e-07
7.574225e-07
7.5582375e-07
7.5894861e-07
7.6499146e-07
7.6605271e-07
7.6767824e-07
8.7313353e-07
8.7847671e-07
8.3741483e-07
8.2739497e-07
8.3146904e-07
8.3466879e-07
8.324573e-07
8.2568854e-07
8.1933845e-07
8.1410391e-07
8.1051245e-07
8.0381763e-07
7.9490026e-07
7.8648889e-07
7.7917715e-07
7.7055824e-07
7.6661312e-07
7.6027492e-07
7.6144067e-07
7.589175e-07
7.5934594e-07
7.5668037e-07
7.5748418e-07
7.546742e-07
7.5928974e-07
7.5795899e-07
7.6021628e-07
7.5873679e-07
7.6606251e-07
7.6925027e-07
7.748365e-07
8.7099026e-07
8.7949982e-07
8.3852358e-07
8.2034011e-07
8.1961243e-07
8.2311874e-07
8.1983715e-07
8.1191934e-07
8.0488951e-07
7.9978912e-07
7.9754862e-07
7.9201814e-07
7.8555361e-07
7.7823495e-07
7.7245953e-07
7.6388599e-07
7.6072378e-07
7.5462633e-07
7.5767304e-07
7.5299982e-07
7.547547e-07
7.5307556e-07
7.547325e-07
7.52661e-07
7.5418381e-07
7.5692934e-07
7.6008611e-07
7.565678e-07
7.6009717e-07
7.6587002e-07
7.7432301e-07
8.6726074e-07
8.7555369e-07
8.3732799e-07
8.185158e-07
8.1764746e-07
8.2027209e-07
8.1617245e-07
8.0724641e-07
7.9992079e-07
7.9364287e-07
7.902202e-07
7.846957e-07
7.7958887e-07
7.7152489e-07
7.6655831e-07
7.5941414e-07
7.5557949e-07
7.493919e-07
7.5283871e-07
7.4873937e-07
7.4964078e-07
7.5074506e-07
7.5218598e-07
7.5153733e-07
7.4837417e-07
7.5331144e-07
7.5691455e-07
7.5424945e-07
7.5333013e-07
7.5793156e-07
7.6889838e-07
8.6582875e-07
8.805467e-07
8.4095849e-07
8.2282223e-07
8.2092751e-07
8.2379712e-07
8.207191e-07
8.1010022e-07
8.022049e-07
7.9459301e-07
7.9003527e-07
7.8443326e-07
7.7905458e-07
7.7045946e-07
7.6430212e-07
7.5792615e-07
7.5287821e-07
7.4669064e-07
7.4900925e-07
7.4533693e-07
7.4620602e-07
7.462281e-07
7.5019705e-07
7.485834e-07
7.4585479e-07
7.5028713e-07
7.5423652e-07
7.5332869e-07
7.5191928e-07
7.5219248e-07
7.6170672e-07
8.6148017e-07
8.7342206e-07
8.4105415e-07
8.224438e-07
8.1733744e-07
8.2330027e-07
8.255984e-07
8.175045e-07
8.1284604e-07
8.0850637e-07
8.0390038e-07
7.9726281e-07
7.9402158e-07
7.8558891e-07
7.7783122e-07
7.7259139e-07
7.6490591e-07
7.6108068e-07
7.6623725e-07
7.6568393e-07
7.6654845e-07
7.6144582e-07
7.6566198e-07
7.6129998e-07
7.5834755e-07
7.6104249e-07
7.6226022e-07
7.6007373e-07
7.6022351e-07
7.590417e-07
7.617034e-07
8.5496e-07
8.9866441e-07
8.9549728e-07
8.5322087e-07
8.4523901e-07
8.823055e-07
9.2510059e-07
9.6383914e-07
1.0034946e-06
1.0345611e-06
1.0207965e-06
1.0249514e-06
1.025689e-06
1.0209604e-06
1.0276046e-06
1.0260431e-06
1.0355592e-06
1.061504e-06
1.1019678e-06
1.1074791e-06
1.1008714e-06
1.0979276e-06
1.0868808e-06
1.0523988e-06
1.0449352e-06
1.0370349e-06
8.3841795e-07
1.008497e-06
1.0125732e-06
1.0106492e-06
9.7254092e-07
9.7096636e-07
1.6236244e-06
1.6278288e-06
1.6934853e-06
1.5794045e-06
1.6383537e-06
1.7668008e-06
1.777721e-06
1.9336103e-06
2.0939307e-06
1.9534786e-06
1.9903629e-06
1.9998812e-06
2.021246e-06
1.9648988e-06
2.0774544e-06
2.0475799e-06
2.1478688e-06
2.3640287e-06
2.4425166e-06
2.405475e-06
2.3901704e-06
2.3084087e-06
2.2561029e-06
2.272352e-06
2.3185476e-06
2.2707268e-06
1.697829e-06
2.3390057e-06
2.3484296e-06
2.3123881e-06
1.1195251e-06
2.2156471e-06
3.1558024e-06
2.7098788e-06
2.3041928e-06
2.0934252e-06
2.1127824e-06
2.0495853e-06
1.9953236e-06
2.0487037e-06
1.8113784e-06
2.101295e-06
1.8073416e-06
2.1445047e-06
1.9435072e-06
2.2478784e-06
1.9109272e-06
2.4590298e-06
1.8954584e-06
2.6695843e-06
1.8971997e-06
2.6877054e-06
2.2856452e-06
2.7531807e-06
2.8073392e-06
2.5805554e-06
2.5973613e-06
3.1814287e-06
2.9021381e-06
3.0276906e-06
3.0384638e-06
2.5277264e-06
2.1239164e-06
1.0005024e-06
7.6977612e-07
7.6918093e-07
7.7516234e-07
7.7934869e-07
7.7805631e-07
7.7474471e-07
7.7372921e-07
7.7397857e-07
7.7911402e-07
7.8524573e-07
7.8406047e-07
7.8395157e-07
7.9450105e-07
8.138739e-07
8.2600528e-07
8.3615941e-07
8.5150439e-07
8.6703889e-07
8.8544055e-07
9.0977694e-07
2.2959237e-06
2.521226e-06
1.3111471e-06
8.1108581e-07
7.7221605e-07
7.7315553e-07
7.8107938e-07
7.9038565e-07
7.9246108e-07
7.9012634e-07
7.9104656e-07
7.9554426e-07
7.9732223e-07
7.9397503e-07
7.9368135e-07
8.0484645e-07
8.267903e-07
8.4291868e-07
8.5549329e-07
8.6753186e-07
8.7854887e-07
9.0327735e-07
9.2221856e-07
1.7766976e-06
2.5623943e-06
1.4095059e-06
6.3879278e-07
7.7859226e-07
7.7733143e-07
7.8656472e-07
8.0008405e-07
8.0376345e-07
7.9981492e-07
7.9797681e-07
8.0129562e-07
8.0584731e-07
8.0701566e-07
8.1255829e-07
8.223048e-07
8.3646732e-07
8.5118197e-07
8.623176e-07
8.7665227e-07
8.9357001e-07
9.2613814e-07
9.4325952e-07
1.6372571e-06
2.5897969e-06
1.5812005e-06
6.6472612e-07
6.8353913e-07
7.9656979e-07
8.0269763e-07
8.1294609e-07
8.1190487e-07
8.057582e-07
8.0376852e-07
8.0833173e-07
8.2047489e-07
8.3036198e-07
8.3671064e-07
8.4120908e-07
8.489289e-07
8.6460088e-07
8.7735158e-07
8.934491e-07
9.1042332e-07
9.4676103e-07
9.6400414e-07
1.2441325e-06
2.601492e-06
8.4421092e-07
5.7924136e-07
7.8386101e-07
8.07642e-07
8.1065921e-07
8.2038184e-07
8.2458473e-07
8.2618797e-07
8.2740763e-07
8.3236264e-07
8.4499385e-07
8.5640801e-07
8.610607e-07
8.6165382e-07
8.6612357e-07
8.8111213e-07
9.0053295e-07
9.1979475e-07
9.3341734e-07
9.6666478e-07
9.8304786e-07
1.0140524e-06
1.4627258e-06
1.4928528e-06
8.5960568e-07
7.7509547e-07
7.6214564e-07
8.1593144e-07
8.3027745e-07
8.4363698e-07
8.5116465e-07
8.5372524e-07
8.5709471e-07
8.6644419e-07
8.7432131e-07
8.7569957e-07
8.7192902e-07
8.7286723e-07
8.8874971e-07
9.1538958e-07
9.3912332e-07
9.5251561e-07
9.7878516e-07
1.0024956e-06
5.6065313e-07
1.2429008e-06
1.4533827e-06
7.5105832e-07
4.9769053e-07
7.2593884e-07
8.7535061e-07
8.6768423e-07
8.7531724e-07
8.7810082e-07
8.7568871e-07
8.7625386e-07
8.8393462e-07
8.9508067e-07
8.967426e-07
8.9384816e-07
8.9318255e-07
9.0290715e-07
9.2751787e-07
9.4858044e-07
9.5976584e-07
9.8064471e-07
1.0053152e-06
2.8772608e-06
3.7379441e-06
4.9263117e-06
4.5345424e-06
2.3722452e-06
1.4203056e-06
1.0539438e-06
1.029725e-06
9.6546175e-07
9.3792663e-07
9.2207871e-07
9.1586705e-07
9.2041465e-07
9.2963779e-07
9.3459539e-07
9.3611135e-07
9.3390932e-07
9.3654963e-07
9.530353e-07
9.7413425e-07
9.7916778e-07
9.9258876e-07
1.0117244e-06
1.9983826e-06
6.0742119e-06
6.3701015e-06
5.1447108e-06
3.0215049e-06
2.2541066e-06
1.4309058e-06
1.1384332e-06
1.044211e-06
9.9344832e-07
9.5674688e-07
9.369658e-07
9.3723516e-07
9.462646e-07
9.5624482e-07
9.5882987e-07
9.5949455e-07
9.6193901e-07
9.7330217e-07
1.0021875e-06
1.0119385e-06
1.0204338e-06
1.0307536e-06
4.3601472e-06
9.4053974e-06
6.6745891e-06
5.1479771e-06
3.639322e-06
2.197521e-06
1.4060069e-06
1.132342e-06
1.0527485e-06
1.0074276e-06
9.7148082e-07
9.5032445e-07
9.4942479e-07
9.5472237e-07
9.6109547e-07
9.6111461e-07
9.6117785e-07
9.6391506e-07
9.7451085e-07
1.0067057e-06
1.0299035e-06
1.0486013e-06
1.0583546e-06
3.9270387e-06
1.0117633e-05
5.5749411e-06
4.7476453e-06
3.2422155e-06
1.911247e-06
1.2843536e-06
1.0907687e-06
1.0422012e-06
1.0081875e-06
9.8035222e-07
9.6304203e-07
9.6287249e-07
9.6593827e-07
9.6947118e-07
9.6503248e-07
9.6248107e-07
9.6351136e-07
9.7244318e-07
1.0019185e-06
1.0354809e-06
1.0661231e-06
1.0818363e-06
3.6311823e-06
8.0152611e-06
3.8157534e-06
2.8195202e-06
1.8242777e-06
1.647435e-06
1.2188206e-06
1.0755072e-06
1.0229934e-06
9.9445735e-07
9.7593571e-07
9.6522355e-07
9.6565693e-07
9.6982368e-07
9.7712106e-07
9.755794e-07
9.7257187e-07
9.7256702e-07
9.781001e-07
1.0026351e-06
1.0349606e-06
1.0690995e-06
1.0872545e-06
3.1571889e-06
7.6048577e-06
4.8379185e-06
3.8497608e-06
1.5145582e-06
8.9989988e-07
7.3232216e-07
1.0958997e-06
1.0344095e-06
9.8946794e-07
9.6336009e-07
9.5546447e-07
9.5646969e-07
9.6179235e-07
9.7513794e-07
9.8016935e-07
9.8329179e-07
9.8789403e-07
9.93346e-07
1.013326e-06
1.0380788e-06
1.0672255e-06
1.0850909e-06
3.3650426e-06
6.91875e-06
6.2436264e-06
4.301249e-06
2.808065e-06
1.0640902e-06
6.9603726e-07
9.2712988e-07
1.0715287e-06
1.0003984e-06
9.6074632e-07
9.4746635e-07
9.4879383e-07
9.5504431e-07
9.6910711e-07
9.7816862e-07
9.8823043e-07
1.0006134e-06
1.0108202e-06
1.0297393e-06
1.0485017e-06
1.0719209e-06
1.0869678e-06
3.2019586e-06
8.5835047e-06
8.3060255e-06
6.354242e-06
5.1990277e-06
3.4557103e-06
2.4456378e-06
1.6851294e-06
1.2828625e-06
1.076187e-06
9.8908572e-07
9.5990704e-07
9.546403e-07
9.5894743e-07
9.717465e-07
9.8179636e-07
9.9430712e-07
1.0108444e-06
1.0247178e-06
1.043171e-06
1.0686293e-06
1.0942421e-06
1.1078564e-06
3.9633048e-06
1.3100052e-05
1.3014217e-05
1.2108383e-05
1.077921e-05
7.8172946e-06
5.715323e-06
3.5488858e-06
2.1536955e-06
1.4058888e-06
1.1219702e-06
1.0299889e-06
1.0062843e-06
1.0021914e-06
1.0091789e-06
1.0161676e-06
1.0273787e-06
1.039819e-06
1.0505488e-06
1.0666555e-06
1.1080035e-06
1.140178e-06
1.1474973e-06
4.6272607e-06
1.2230413e-05
1.4957398e-05
1.5068928e-05
1.3761499e-05
1.1254489e-05
9.2531783e-06
6.7598721e-06
4.2223819e-06
2.3575932e-06
1.5308124e-06
1.2295544e-06
1.1327724e-06
1.0963829e-06
1.091802e-06
1.0880953e-06
1.0912599e-06
1.0956442e-06
1.0996289e-06
1.1106329e-06
1.1415335e-06
1.1754853e-06
1.1833477e-06
4.0694535e-06
1.0486424e-05
1.4559363e-05
1.5347398e-05
1.3864714e-05
1.1790262e-05
1.0115989e-05
8.1054901e-06
5.5596639e-06
3.165839e-06
1.8643351e-06
1.362666e-06
1.205785e-06
1.1546524e-06
1.1387301e-06
1.1235182e-06
1.1196163e-06
1.1215395e-06
1.1253032e-06
1.1316908e-06
1.1548799e-06
1.1890837e-06
1.2089836e-06
3.6443669e-06
9.3798517e-06
1.2872219e-05
1.4715059e-05
1.3667595e-05
1.1672362e-05
1.0121972e-05
8.3074368e-06
5.8443348e-06
3.3826486e-06
1.9597759e-06
1.4020571e-06
1.2282861e-06
1.1735857e-06
1.1504054e-06
1.12997e-06
1.1232953e-06
1.1253114e-06
1.1290194e-06
1.1345112e-06
1.1575606e-06
1.1964514e-06
1.2205011e-06
3.4593562e-06
9.0379781e-06
1.1149515e-05
1.2406076e-05
1.2182555e-05
1.0887254e-05
9.6704645e-06
7.9232241e-06
5.4487078e-06
3.0961726e-06
1.8115188e-06
1.3513946e-06
1.218321e-06
1.1728709e-06
1.148322e-06
1.1258882e-06
1.1189889e-06
1.1234378e-06
1.1284631e-06
1.1343547e-06
1.1606246e-06
1.2028595e-06
1.2235724e-06
2.7636236e-06
8.5260523e-06
1.05012e-05
1.0932565e-05
1.02444e-05
9.1226508e-06
7.9057721e-06
6.0572356e-06
3.8102359e-06
2.1676357e-06
1.4293101e-06
1.2047266e-06
1.1566514e-06
1.141105e-06
1.1177099e-06
1.0960114e-06
1.0933556e-06
1.110207e-06
1.1234612e-06
1.1351076e-06
1.1667722e-06
1.2076739e-06
1.2264445e-06
3.1096591e-06
8.3646498e-06
1.0665945e-05
1.0311328e-05
8.750887e-06
6.2657065e-06
5.2195119e-06
3.9900501e-06
2.4392342e-06
1.5427384e-06
1.2061657e-06
1.130793e-06
1.1184616e-06
1.1057831e-06
1.082005e-06
1.0683158e-06
1.0728538e-06
1.0952455e-06
1.1154488e-06
1.1381251e-06
1.1714376e-06
1.2120273e-06
1.2314818e-06
3.3638407e-06
8.6858848e-06
1.1248843e-05
1.0715411e-05
7.8739247e-06
4.417257e-06
3.2779538e-06
2.8301398e-06
1.7928425e-06
1.2959643e-06
1.1408307e-06
1.1154341e-06
1.112555e-06
1.100634e-06
1.0765716e-06
1.0667448e-06
1.0735239e-06
1.0959879e-06
1.1167138e-06
1.1414534e-06
1.178141e-06
1.2177816e-06
1.2349884e-06
3.5221891e-06
9.5302509e-06
1.3394596e-05
1.1912512e-05
8.9015808e-06
4.5900594e-06
3.2973088e-06
2.6595419e-06
1.6963998e-06
1.2754959e-06
1.1463347e-06
1.1240694e-06
1.1207589e-06
1.1081367e-06
1.0831834e-06
1.0735534e-06
1.0804942e-06
1.101868e-06
1.1232412e-06
1.1547533e-06
1.1984631e-06
1.2276413e-06
1.246495e-06
3.860545e-06
9.7013097e-06
1.583223e-05
1.7168226e-05
1.2882399e-05
6.7643499e-06
4.6125075e-06
3.0914112e-06
1.8736099e-06
1.3547932e-06
1.2093724e-06
1.1845076e-06
1.1713787e-06
1.1473916e-06
1.1132858e-06
1.1035678e-06
1.1079048e-06
1.1252001e-06
1.1530446e-06
1.2033848e-06
1.2338085e-06
1.2446544e-06
1.2647588e-06
4.3958599e-06
9.9483017e-06
1.5616399e-05
1.9969189e-05
1.8378753e-05
1.2794686e-05
7.7314459e-06
4.78476e-06
2.6983445e-06
1.6976392e-06
1.3893507e-06
1.2918176e-06
1.2502832e-06
1.2247383e-06
1.1995063e-06
1.1894456e-06
1.1872241e-06
1.1992627e-06
1.2440475e-06
1.2752014e-06
1.2799036e-06
1.2758889e-06
1.3038403e-06
4.8745124e-06
1.0217384e-05
1.5361936e-05
2.0129492e-05
2.0262022e-05
1.5690851e-05
1.0002025e-05
6.4032887e-06
3.6956992e-06
2.0560498e-06
1.4907954e-06
1.3338244e-06
1.2792963e-06
1.2610074e-06
1.2548636e-06
1.2590143e-06
1.2669281e-06
1.2824019e-06
1.3105139e-06
1.3203599e-06
1.3208408e-06
1.3379149e-06
1.407743e-06
5.0753353e-06
1.0551051e-05
1.5273507e-05
1.9923384e-05
2.0589156e-05
1.6513185e-05
1.0821424e-05
7.0053889e-06
4.0775353e-06
2.1784591e-06
1.5142017e-06
1.3399403e-06
1.2834039e-06
1.2698146e-06
1.2727958e-06
1.2890159e-06
1.3028025e-06
1.3251324e-06
1.3517109e-06
1.3619787e-06
1.3743603e-06
1.4103148e-06
1.4857505e-06
4.9083624e-06
1.0987778e-05
1.4596857e-05
1.8794232e-05
1.9821089e-05
1.6091743e-05
1.0651647e-05
6.9402726e-06
4.0087409e-06
2.1031583e-06
1.4659594e-06
1.318236e-06
1.271624e-06
1.2646567e-06
1.2751386e-06
1.3030403e-06
1.3289796e-06
1.350294e-06
1.3771141e-06
1.3871298e-06
1.4135095e-06
1.4834561e-06
1.6364603e-06
4.7610881e-06
1.0377107e-05
1.3698277e-05
1.5396303e-05
1.5935849e-05
1.314823e-05
8.7613434e-06
5.647884e-06
3.0684816e-06
1.7122397e-06
1.3626956e-06
1.286593e-06
1.2592799e-06
1.2481785e-06
1.2577336e-06
1.2970113e-06
1.3329401e-06
1.3685163e-06
1.387002e-06
1.4049123e-06
1.4636534e-06
1.6240562e-06
1.7334808e-06
5.0752016e-06
1.0141739e-05
1.339141e-05
1.1575076e-05
1.0873168e-05
8.7426159e-06
5.6939978e-06
3.573432e-06
2.1115876e-06
1.4904068e-06
1.3335357e-06
1.2831608e-06
1.2543139e-06
1.2386223e-06
1.2453898e-06
1.2900855e-06
1.3551042e-06
1.3941828e-06
1.4180823e-06
1.4714169e-06
1.6005145e-06
1.7239464e-06
1.7799433e-06
6.3622012e-06
1.0018114e-05
1.4349825e-05
1.134484e-05
6.4290436e-06
5.3188079e-06
3.4382611e-06
2.3009752e-06
1.6774501e-06
1.4360075e-06
1.3294588e-06
1.2815316e-06
1.2548933e-06
1.2443258e-06
1.2522563e-06
1.2959849e-06
1.3640168e-06
1.41091e-06
1.4479184e-06
1.5175709e-06
1.631745e-06
1.7580959e-06
1.8334094e-06
6.3440327e-06
9.9525411e-06
1.5417059e-05
1.2991156e-05
7.5296645e-06
4.5285431e-06
2.6941016e-06
1.8698265e-06
1.5577367e-06
1.4180543e-06
1.3577889e-06
1.3140864e-06
1.2887038e-06
1.2850975e-06
1.3107998e-06
1.3664169e-06
1.4124018e-06
1.4424262e-06
1.4962849e-06
1.6020132e-06
1.7407221e-06
1.8628806e-06
2.003819e-06
6.3019284e-06
9.7590976e-06
1.5437881e-05
1.5940036e-05
9.4541402e-06
5.0221447e-06
2.8412486e-06
1.843258e-06
1.5376659e-06
1.4558131e-06
1.4344082e-06
1.4114723e-06
1.3806375e-06
1.3692735e-06
1.3729241e-06
1.4117376e-06
1.4359743e-06
1.4572484e-06
1.5253025e-06
1.6561018e-06
1.8061834e-06
1.9409853e-06
2.1526615e-06
6.2020179e-06
9.6288154e-06
1.4890294e-05
1.6757721e-05
1.2380559e-05
5.802802e-06
2.8472956e-06
1.794989e-06
1.5334823e-06
1.47739e-06
1.4666956e-06
1.4695357e-06
1.4669727e-06
1.4712869e-06
1.4890799e-06
1.5002183e-06
1.5093303e-06
1.5672874e-06
1.6850278e-06
1.856602e-06
2.0383462e-06
2.2420683e-06
2.5064176e-06
5.3400621e-06
8.2453472e-06
1.390998e-05
1.6324557e-05
1.4519296e-05
8.7190608e-06
4.6363465e-06
2.4145924e-06
1.6534372e-06
1.5012553e-06
1.4827506e-06
1.4778805e-06
1.4761159e-06
1.4796467e-06
1.503759e-06
1.5459871e-06
1.5670507e-06
1.6071842e-06
1.6859879e-06
1.8358287e-06
1.9963897e-06
2.2347543e-06
2.3911083e-06
2.6844682e-06
6.1968207e-06
1.065105e-05
1.4358291e-05
1.4230409e-05
9.428848e-06
5.2986051e-06
2.8910106e-06
1.8099403e-06
1.5238024e-06
1.4787233e-06
1.4717775e-06
1.4714022e-06
1.4733396e-06
1.4950388e-06
1.5466934e-06
1.5914429e-06
1.6275072e-06
1.699475e-06
1.8323305e-06
1.9710111e-06
2.1785976e-06
2.3065103e-06
2.2462069e-06
4.8051526e-06
8.0923883e-06
1.0330774e-05
1.1443098e-05
8.761918e-06
5.0841429e-06
2.8547549e-06
1.8692293e-06
1.5207539e-06
1.4613316e-06
1.4647738e-06
1.4733334e-06
1.4760873e-06
1.4865791e-06
1.5346482e-06
1.5867271e-06
1.6367051e-06
1.7068342e-06
1.8001324e-06
1.9732946e-06
2.1147171e-06
2.3117046e-06
1.4301384e-06
3.8121502e-06
5.9475819e-06
7.2120483e-06
6.9769711e-06
5.4155778e-06
3.6344247e-06
2.4753145e-06
1.8227131e-06
1.5397758e-06
1.4516347e-06
1.4527809e-06
1.4720062e-06
1.4921953e-06
1.5064228e-06
1.5366951e-06
1.5885334e-06
1.6410957e-06
1.6972966e-06
1.772361e-06
1.9313108e-06
2.0518673e-06
2.3547053e-06
1.5857941e-06
2.7781286e-06
4.2072629e-06
5.1121058e-06
4.7111688e-06
3.4963421e-06
2.5541304e-06
2.0177522e-06
1.7480809e-06
1.5965141e-06
1.5173852e-06
1.4925945e-06
1.4942784e-06
1.5082879e-06
1.5218081e-06
1.5498923e-06
1.5927453e-06
1.6581092e-06
1.6946406e-06
1.7716834e-06
1.8689053e-06
1.9826684e-06
2.297836e-06
8.6229691e-07
2.1188598e-06
2.9907666e-06
3.6816342e-06
3.5947803e-06
2.6656822e-06
2.0374846e-06
1.7529183e-06
1.6532729e-06
1.6018778e-06
1.5792319e-06
1.5654102e-06
1.5615872e-06
1.5668471e-06
1.5721439e-06
1.5685152e-06
1.5899821e-06
1.643065e-06
1.6824633e-06
1.7767526e-06
1.8636367e-06
1.9513729e-06
2.2094837e-06
7.6218175e-07
1.7761443e-06
2.1688761e-06
2.6389204e-06
2.6460781e-06
2.1118916e-06
1.7430616e-06
1.6050355e-06
1.5725477e-06
1.5760589e-06
1.5839536e-06
1.5902781e-06
1.5937814e-06
1.5990462e-06
1.6276493e-06
1.6304909e-06
1.6210105e-06
1.643949e-06
1.6927142e-06
1.755659e-06
1.8403389e-06
1.9100983e-06
2.1131582e-06
9.3208062e-07
1.9283074e-06
1.7911636e-06
1.9968372e-06
1.9404803e-06
1.7088572e-06
1.5782502e-06
1.5451772e-06
1.5518228e-06
1.5558753e-06
1.5787094e-06
1.5890242e-06
1.5962849e-06
1.6103431e-06
1.6427948e-06
1.6815625e-06
1.7016578e-06
1.6987312e-06
1.7184705e-06
1.7581565e-06
1.8232894e-06
1.8807531e-06
2.0392079e-06
1.0773769e-06
2.1328694e-06
1.6726808e-06
1.6931684e-06
1.6183723e-06
1.5216513e-06
1.4999288e-06
1.5255573e-06
1.5519025e-06
1.5641253e-06
1.5980428e-06
1.608262e-06
1.6134611e-06
1.6273083e-06
1.6557494e-06
1.6930926e-06
1.7445813e-06
1.7577896e-06
1.762988e-06
1.7825697e-06
1.8328837e-06
1.8763226e-06
2.0030171e-06
1.3118486e-06
2.495412e-06
1.6785825e-06
1.4979445e-06
1.4384309e-06
1.4368393e-06
1.4723192e-06
1.5152847e-06
1.5450979e-06
1.5737503e-06
1.6216286e-06
1.6508905e-06
1.6677292e-06
1.6703796e-06
1.6815924e-06
1.7043844e-06
1.7483734e-06
1.7828118e-06
1.799328e-06
1.8107754e-06
1.843686e-06
1.8796222e-06
1.9754653e-06
1.2464361e-06
2.8067834e-06
1.7230824e-06
1.4150751e-06
1.3557381e-06
1.3968318e-06
1.4626231e-06
1.505645e-06
1.5298468e-06
1.571178e-06
1.6206038e-06
1.6596996e-06
1.6871404e-06
1.709989e-06
1.7215364e-06
1.7335386e-06
1.7650685e-06
1.7995238e-06
1.8535924e-06
1.8574087e-06
1.8629898e-06
1.8869053e-06
1.9667239e-06
1.7784873e-06
4.0230427e-06
1.992878e-06
1.4146254e-06
1.2994536e-06
1.3509891e-06
1.4294026e-06
1.4745671e-06
1.5027316e-06
1.5700841e-06
1.6285893e-06
1.6680214e-06
1.69651e-06
1.725582e-06
1.7435747e-06
1.7579389e-06
1.7742839e-06
1.8186422e-06
1.8589131e-06
1.9309294e-06
1.9434514e-06
1.9470728e-06
2.0040625e-06
1.9802529e-06
4.1394288e-06
2.0518811e-06
1.4063719e-06
1.2668303e-06
1.3048676e-06
1.3859414e-06
1.4394975e-06
1.4687921e-06
1.5325241e-06
1.6270908e-06
1.6732044e-06
1.6973024e-06
1.7346019e-06
1.754103e-06
1.7726191e-06
1.788205e-06
1.8334162e-06
1.8727481e-06
1.9521457e-06
1.9886614e-06
2.0880553e-06
2.0531206e-06
2.2160498e-06
4.6508838e-06
2.1616152e-06
1.3955838e-06
1.2237484e-06
1.2327129e-06
1.3235305e-06
1.3794437e-06
1.4120724e-06
1.4845431e-06
1.5853773e-06
1.6523003e-06
1.6887114e-06
1.735908e-06
1.7627441e-06
1.7890843e-06
1.8090462e-06
1.8448725e-06
1.8837699e-06
1.9448657e-06
2.0089418e-06
2.0609122e-06
2.1732875e-06
2.5923606e-06
4.8641474e-06
2.1598064e-06
1.3536552e-06
1.1412112e-06
1.1690937e-06
1.2603429e-06
1.3053756e-06
1.3524548e-06
1.4375202e-06
1.5160707e-06
1.561201e-06
1.6351504e-06
1.6916964e-06
1.7343139e-06
1.7716904e-06
1.8048492e-06
1.8370769e-06
1.8910801e-06
1.9514912e-06
2.0046328e-06
2.073548e-06
2.1867178e-06
2.909419e-06
5.3091446e-06
2.1703893e-06
1.2562891e-06
1.0779635e-06
1.126574e-06
1.1959155e-06
1.229851e-06
1.2892066e-06
1.3568021e-06
1.419207e-06
1.4667522e-06
1.5600435e-06
1.5956446e-06
1.6620988e-06
1.7036104e-06
1.7416795e-06
1.7805227e-06
1.816093e-06
1.9331264e-06
1.9553855e-06
2.115762e-06
1.4963459e-06
3.1588517e-06
4.4610018e-06
1.8821789e-06
1.1090358e-06
1.0330285e-06
1.0948257e-06
1.1413913e-06
1.1795078e-06
1.2368044e-06
1.2847291e-06
1.3319396e-06
1.376576e-06
1.4479034e-06
1.4777922e-06
1.5424946e-06
1.5770743e-06
1.6186192e-06
1.668694e-06
1.7381304e-06
1.8519904e-06
1.9554086e-06
2.2242111e-06
8.5264669e-06
3.1647066e-06
3.195493e-06
1.3874437e-06
9.9621227e-07
1.0140977e-06
1.0724572e-06
1.1079675e-06
1.1522444e-06
1.1961603e-06
1.2312624e-06
1.2697962e-06
1.3166312e-06
1.3801748e-06
1.4303261e-06
1.5114001e-06
1.5637383e-06
1.6547631e-06
1.7782934e-06
1.9801888e-06
2.4403289e-06
3.429409e-06
6.7367478e-06
3.3698403e-05
3.1358875e-06
2.4592451e-06
1.1255213e-06
9.647075e-07
1.0169412e-06
1.0613032e-06
1.0933003e-06
1.135112e-06
1.1766555e-06
1.2174839e-06
1.2663159e-06
1.3274746e-06
1.4165458e-06
1.5104725e-06
1.6911228e-06
2.0592055e-06
2.9287136e-06
4.9832917e-06
9.1428308e-06
1.6931823e-05
2.7345304e-05
4.7202133e-05
6.34573e-05
3.0446575e-06
2.1367625e-06
1.0357585e-06
9.7940263e-07
1.0297526e-06
1.0680135e-06
1.1009745e-06
1.1440528e-06
1.1904902e-06
1.2509271e-06
1.3579172e-06
1.5764571e-06
2.0877608e-06
3.3421907e-06
6.2296807e-06
1.2193558e-05
2.190254e-05
3.5724158e-05
5.6885374e-05
8.8472282e-05
0.00012243215
0.00015778968
0.00018675887
2.9722912e-06
1.9606173e-06
1.0279059e-06
1.0030063e-06
1.0399605e-06
1.0779768e-06
1.1246795e-06
1.2139688e-06
1.4059901e-06
1.8713371e-06
3.0458571e-06
5.8653727e-06
1.1878167e-05
2.2220542e-05
3.7054003e-05
6.076603e-05
9.3925472e-05
0.00012863745
0.00015980762
0.00018114413
0.00019465319
0.00020313272
0.00021572241
2.8134134e-06
1.8767297e-06
1.0476409e-06
1.0181442e-06
1.0666618e-06
1.1597188e-06
1.3996385e-06
2.0905513e-06
3.9524104e-06
8.3885173e-06
1.7194834e-05
3.0714708e-05
5.1602027e-05
8.4371783e-05
0.00011946012
0.00015000187
0.00016954445
0.00018163816
0.00018728898
0.00018756772
0.00018348269
0.00016969753
0.00016232391
2.6321704e-06
1.8006471e-06
1.0716515e-06
1.0680673e-06
1.2622465e-06
1.9017491e-06
3.8684435e-06
8.8976354e-06
1.9029993e-05
3.4669205e-05
6.0425203e-05
9.708764e-05
0.00013152241
0.00015483965
0.00016945704
0.00017584327
0.00017634006
0.00017226278
0.00015820003
0.00012828183
8.9928499e-05
5.924032e-05
5.0164325e-05
2.4678278e-06
1.6874337e-06
1.1353201e-06
1.3744881e-06
2.6741627e-06
6.8144523e-06
1.6368158e-05
3.2146277e-05
5.8509525e-05
9.8307085e-05
0.00013370432
0.00015595333
0.00016793508
0.00017109105
0.00016956041
0.0001623976
0.0001436764
0.00010703184
6.526292e-05
3.6598302e-05
2.4197972e-05
2.0789209e-05
3.1120624e-05
2.2446763e-06
1.6371898e-06
1.4531806e-06
3.3834337e-06
1.0219669e-05
2.3959191e-05
4.6907666e-05
8.8399345e-05
0.00012925949
0.00015498398
0.00016847173
0.00017115216
0.00016705339
0.00015901085
0.00013988443
0.00010338835
6.2216289e-05
3.3636869e-05
1.9260292e-05
1.4947261e-05
1.5651958e-05
2.3804258e-05
3.681792e-05
2.0084418e-06