/*--------------------------------*- C++ -*----------------------------------*\
| =========                 |                                                 |
| \\      /  F ield         | OpenFOAM: The Open Source CFD Toolbox           |
|  \\    /   O peration     | Version:  2406                                  |
|   \\  /    A nd           | Website:  www.openfoam.com                      |
|    \\/     M anipulation  |                                                 |
\*---------------------------------------------------------------------------*/
FoamFile
{
    version     2.0;
    format      ascii;
    arch        "LSB;label=32;scalar=64";
    class       volScalarField;
    location    "30";
    object      alphat;
}
// * * * * * * * * * * * * * * * * * * * * * * * * * * * * * * * * * * * * * //

dimensions      [1 -1 -1 0 0 0 0];

internalField   nonuniform List<scalar> 
158064
(
9.6987815e-07
9.5054303e-07
9.3337946e-07
9.2068024e-07
9.1031695e-07
9.0135956e-07
8.9340352e-07
8.8645824e-07
8.8047151e-07
8.7522486e-07
8.7028289e-07
8.6567248e-07
8.6107167e-07
8.5720599e-07
8.5365973e-07
8.5126943e-07
8.4910338e-07
8.4732479e-07
8.4576859e-07
8.4393514e-07
8.4260591e-07
8.4070876e-07
8.3938262e-07
8.3771102e-07
8.3683844e-07
8.3454542e-07
8.3339905e-07
8.3086106e-07
8.2855284e-07
8.2548468e-07
8.2368445e-07
8.2129323e-07
8.1971022e-07
8.1854055e-07
8.1857048e-07
8.1820551e-07
8.194426e-07
8.1963889e-07
8.2220715e-07
8.2330205e-07
8.2486476e-07
8.2572285e-07
8.2667224e-07
8.2830352e-07
8.2903433e-07
8.2962172e-07
8.2999046e-07
8.2983324e-07
8.2948736e-07
8.2927475e-07
8.2936156e-07
8.2927023e-07
8.2926341e-07
8.29902e-07
8.3022812e-07
8.3087397e-07
8.3107194e-07
8.3147668e-07
8.3237748e-07
8.3423786e-07
8.376395e-07
8.4104788e-07
8.4542045e-07
8.5200372e-07
8.5651065e-07
8.6765979e-07
8.7618419e-07
8.9540656e-07
9.0799314e-07
9.3536525e-07
9.5303376e-07
9.9211131e-07
1.0143256e-06
1.0582883e-06
1.1002759e-06
1.1501555e-06
1.1826329e-06
1.2339161e-06
1.2886245e-06
1.3181541e-06
1.3642396e-06
1.4034809e-06
1.4818064e-06
1.536519e-06
1.6169802e-06
1.6590738e-06
1.7411405e-06
1.7978702e-06
1.941511e-06
9.6991045e-07
9.5060258e-07
9.3345189e-07
9.2075448e-07
9.103973e-07
9.0144553e-07
8.9349235e-07
8.865391e-07
8.8053971e-07
8.7531064e-07
8.703731e-07
8.6577684e-07
8.6115975e-07
8.5730454e-07
8.5370436e-07
8.5134042e-07
8.491419e-07
8.4742689e-07
8.4579442e-07
8.4414811e-07
8.4265959e-07
8.409691e-07
8.3952702e-07
8.3798846e-07
8.370031e-07
8.3495464e-07
8.3358258e-07
8.3120837e-07
8.2887195e-07
8.2589651e-07
8.2389628e-07
8.2164376e-07
8.1966897e-07
8.186573e-07
8.1846644e-07
8.1821534e-07
8.1881797e-07
8.1938473e-07
8.2172021e-07
8.2266638e-07
8.2405078e-07
8.2517344e-07
8.2665757e-07
8.2781167e-07
8.286225e-07
8.2885823e-07
8.293628e-07
8.2915497e-07
8.2926849e-07
8.289235e-07
8.2894435e-07
8.2910333e-07
8.2922165e-07
8.2991501e-07
8.3021561e-07
8.3079697e-07
8.3096188e-07
8.3171891e-07
8.3297642e-07
8.3406973e-07
8.3750236e-07
8.3994003e-07
8.4383231e-07
8.4820214e-07
8.5138716e-07
8.5875766e-07
8.6286603e-07
8.7388226e-07
8.8039478e-07
8.9792013e-07
9.0854848e-07
9.3410328e-07
9.4959846e-07
9.7487701e-07
1.0205361e-06
1.0511025e-06
1.1049269e-06
1.1375749e-06
1.2077732e-06
1.249481e-06
1.3186355e-06
1.3537578e-06
1.4276141e-06
1.4679874e-06
1.5457872e-06
1.5847985e-06
1.6606162e-06
1.7018525e-06
1.8071094e-06
9.6994153e-07
9.5065312e-07
9.3351514e-07
9.2082393e-07
9.1047184e-07
9.0151855e-07
8.9357146e-07
8.8660457e-07
8.8059299e-07
8.753649e-07
8.7043536e-07
8.6584095e-07
8.6122291e-07
8.5736487e-07
8.5372791e-07
8.5132966e-07
8.4907678e-07
8.47407e-07
8.4569349e-07
8.4411542e-07
8.4248963e-07
8.4085304e-07
8.3928886e-07
8.3777066e-07
8.3668508e-07
8.3476482e-07
8.3326637e-07
8.3099695e-07
8.2861814e-07
8.2572916e-07
8.2357422e-07
8.2147208e-07
8.1928926e-07
8.183602e-07
8.1812817e-07
8.1772204e-07
8.1826915e-07
8.1874484e-07
8.2125931e-07
8.2198743e-07
8.2365717e-07
8.2451717e-07
8.2662664e-07
8.2713306e-07
8.2848421e-07
8.2840279e-07
8.2914522e-07
8.2871321e-07
8.292883e-07
8.284173e-07
8.2864409e-07
8.282611e-07
8.2871592e-07
8.2874296e-07
8.297929e-07
8.2920821e-07
8.3016719e-07
8.3047302e-07
8.3196753e-07
8.3274702e-07
8.3514475e-07
8.3830117e-07
8.4084497e-07
8.4503468e-07
8.480952e-07
8.5335788e-07
8.5795918e-07
8.6499214e-07
8.7512612e-07
8.8064959e-07
8.969485e-07
9.0637665e-07
9.2788256e-07
9.4209388e-07
9.702362e-07
9.8899988e-07
1.026514e-06
1.0527624e-06
1.1090331e-06
1.1418501e-06
1.2068727e-06
1.2435071e-06
1.3150381e-06
1.3559574e-06
1.4373051e-06
1.478952e-06
1.5594256e-06
1.6023121e-06
1.7003077e-06
9.6997719e-07
9.5071081e-07
9.3358402e-07
9.2089203e-07
9.1054745e-07
9.0159974e-07
8.9365726e-07
8.8668409e-07
8.8066477e-07
8.7544087e-07
8.7052665e-07
8.6593681e-07
8.6131474e-07
8.5744623e-07
8.5378157e-07
8.5136797e-07
8.4911155e-07
8.4750014e-07
8.4571994e-07
8.4429442e-07
8.4258188e-07
8.4107698e-07
8.394295e-07
8.380343e-07
8.3684999e-07
8.3521712e-07
8.3360624e-07
8.3162133e-07
8.2914115e-07
8.2637861e-07
8.2414807e-07
8.2188981e-07
8.1963034e-07
8.1887667e-07
8.1835009e-07
8.1769501e-07
8.1828905e-07
8.18953e-07
8.2132521e-07
8.216848e-07
8.2372734e-07
8.2460971e-07
8.2703327e-07
8.2711525e-07
8.2843379e-07
8.2837929e-07
8.2924402e-07
8.2879664e-07
8.2941196e-07
8.2833559e-07
8.2861339e-07
8.2801271e-07
8.2869058e-07
8.2845293e-07
8.291347e-07
8.2901609e-07
8.2923748e-07
8.2953899e-07
8.3093959e-07
8.3165714e-07
8.3310885e-07
8.3594e-07
8.3785267e-07
8.4163652e-07
8.4489534e-07
8.4766036e-07
8.5309957e-07
8.5704239e-07
8.654497e-07
8.7174685e-07
8.8427026e-07
8.9283973e-07
9.0980792e-07
9.2045625e-07
9.4448808e-07
9.5983406e-07
9.9029127e-07
1.0095318e-06
1.0497437e-06
1.0770369e-06
1.1325102e-06
1.1606775e-06
1.2163964e-06
1.2497036e-06
1.3172424e-06
1.3565876e-06
1.4347542e-06
1.4745371e-06
1.5739376e-06
9.7000645e-07
9.5075604e-07
9.3363918e-07
9.2094834e-07
9.1060723e-07
9.0166056e-07
8.9371954e-07
8.8674338e-07
8.8071308e-07
8.7548893e-07
8.7058383e-07
8.6599099e-07
8.6137789e-07
8.5749221e-07
8.5380261e-07
8.513553e-07
8.4906726e-07
8.4749967e-07
8.4565387e-07
8.4430328e-07
8.4248257e-07
8.4100096e-07
8.3931666e-07
8.3796404e-07
8.3663144e-07
8.3518594e-07
8.3342868e-07
8.3156289e-07
8.2892975e-07
8.262555e-07
8.2394063e-07
8.2160425e-07
8.1938116e-07
8.1876187e-07
8.1796732e-07
8.1729242e-07
8.1787201e-07
8.1863314e-07
8.2086524e-07
8.2105922e-07
8.2315526e-07
8.24099e-07
8.2666216e-07
8.2660195e-07
8.2786172e-07
8.278787e-07
8.2875385e-07
8.2826216e-07
8.2898187e-07
8.2775388e-07
8.279693e-07
8.2732859e-07
8.2805654e-07
8.2765372e-07
8.2809533e-07
8.2798886e-07
8.281894e-07
8.2817587e-07
8.2952544e-07
8.308574e-07
8.3214083e-07
8.3398622e-07
8.3605006e-07
8.3928797e-07
8.4206741e-07
8.4479785e-07
8.5014975e-07
8.5380471e-07
8.6161692e-07
8.6654034e-07
8.7759982e-07
8.8339555e-07
8.9797788e-07
9.0761067e-07
9.2694115e-07
9.3730163e-07
9.6164424e-07
9.7733222e-07
1.0100756e-06
1.0302953e-06
1.0732155e-06
1.0966312e-06
1.1441079e-06
1.1694346e-06
1.2227882e-06
1.2535946e-06
1.3176273e-06
1.3526691e-06
1.4413221e-06
9.7003801e-07
9.508045e-07
9.3369496e-07
9.2100276e-07
9.1066894e-07
9.017241e-07
8.9379205e-07
8.8680785e-07
8.8076859e-07
8.7555087e-07
8.706639e-07
8.6606839e-07
8.6145671e-07
8.5755792e-07
8.5386172e-07
8.5139785e-07
8.4907828e-07
8.4757566e-07
8.4565808e-07
8.444592e-07
8.4252525e-07
8.4112189e-07
8.3938375e-07
8.3814134e-07
8.3663073e-07
8.3544118e-07
8.3351282e-07
8.3198016e-07
8.2910764e-07
8.2678378e-07
8.2435648e-07
8.2189422e-07
8.1993826e-07
8.1901151e-07
8.1786446e-07
8.1779251e-07
8.1799559e-07
8.1863534e-07
8.2071662e-07
8.2111054e-07
8.2339235e-07
8.2410604e-07
8.2652837e-07
8.268956e-07
8.2829074e-07
8.2795988e-07
8.2871479e-07
8.2849003e-07
8.2949303e-07
8.2829722e-07
8.2837089e-07
8.2750084e-07
8.2823511e-07
8.2794038e-07
8.2808596e-07
8.2757734e-07
8.2783961e-07
8.2749394e-07
8.2839446e-07
8.2955889e-07
8.3077208e-07
8.3230271e-07
8.3371179e-07
8.3653517e-07
8.3920983e-07
8.4178351e-07
8.4617686e-07
8.4913364e-07
8.5586391e-07
8.6065371e-07
8.7092211e-07
8.7662023e-07
8.889349e-07
8.9674802e-07
9.1429303e-07
9.2424003e-07
9.4538532e-07
9.5800127e-07
9.8590477e-07
1.0036601e-06
1.0400386e-06
1.0608356e-06
1.1008011e-06
1.1194586e-06
1.1593186e-06
1.1828203e-06
1.2317633e-06
1.2612577e-06
1.3338446e-06
9.7006494e-07
9.5084482e-07
9.3374251e-07
9.21048e-07
9.1071821e-07
9.0178157e-07
8.9385075e-07
8.8686184e-07
8.8081246e-07
8.7559645e-07
8.7071391e-07
8.661182e-07
8.615254e-07
8.5759902e-07
8.5389465e-07
8.5139419e-07
8.4904401e-07
8.4758315e-07
8.4560638e-07
8.4448094e-07
8.4245038e-07
8.4109534e-07
8.3933845e-07
8.3817266e-07
8.3654023e-07
8.3551507e-07
8.3347595e-07
8.3207241e-07
8.2901112e-07
8.2697414e-07
8.2432635e-07
8.2174612e-07
8.1989612e-07
8.1884039e-07
8.1751688e-07
8.178147e-07
8.1772974e-07
8.1835135e-07
8.202959e-07
8.2086024e-07
8.2314592e-07
8.2383095e-07
8.2604332e-07
8.2669522e-07
8.2803809e-07
8.2750585e-07
8.2811268e-07
8.2815399e-07
8.2921846e-07
8.2814143e-07
8.2805165e-07
8.2721033e-07
8.276724e-07
8.2757634e-07
8.2768558e-07
8.26713e-07
8.2709469e-07
8.2687269e-07
8.2745388e-07
8.2855754e-07
8.2956928e-07
8.3099435e-07
8.3185917e-07
8.3439633e-07
8.3643955e-07
8.3952547e-07
8.4303152e-07
8.4590782e-07
8.5205329e-07
8.5586484e-07
8.6493642e-07
8.7036396e-07
8.8014116e-07
8.865352e-07
9.0209932e-07
9.1198322e-07
9.3087204e-07
9.4187471e-07
9.6551798e-07
9.8003175e-07
1.0097884e-06
1.0270912e-06
1.0639654e-06
1.0837677e-06
1.1190976e-06
1.1367561e-06
1.1718646e-06
1.1939527e-06
1.2494207e-06
9.7009319e-07
9.5088634e-07
9.337891e-07
9.210961e-07
9.1077132e-07
9.0183432e-07
8.9390569e-07
8.8691095e-07
8.8085467e-07
8.7564434e-07
8.7078549e-07
8.6619592e-07
8.6158869e-07
8.5765804e-07
8.5393436e-07
8.5143062e-07
8.4904241e-07
8.4763983e-07
8.4563994e-07
8.4460036e-07
8.4248803e-07
8.4119131e-07
8.3938072e-07
8.3825992e-07
8.3652161e-07
8.3571752e-07
8.335211e-07
8.322718e-07
8.2909212e-07
8.2749318e-07
8.2447616e-07
8.2207963e-07
8.2030008e-07
8.1886553e-07
8.1754657e-07
8.1820877e-07
8.1767921e-07
8.1850325e-07
8.2002869e-07
8.2095622e-07
8.2318368e-07
8.2382775e-07
8.2601702e-07
8.2684245e-07
8.2792477e-07
8.2732152e-07
8.282439e-07
8.285155e-07
8.293924e-07
8.2830522e-07
8.2836519e-07
8.2749683e-07
8.2773902e-07
8.2739502e-07
8.2760277e-07
8.2664543e-07
8.2693764e-07
8.26668e-07
8.2732314e-07
8.2769714e-07
8.2889255e-07
8.2952377e-07
8.3064595e-07
8.328711e-07
8.346016e-07
8.3749285e-07
8.4017358e-07
8.4289927e-07
8.479565e-07
8.5096721e-07
8.5882402e-07
8.6335749e-07
8.7278989e-07
8.7900588e-07
8.9353125e-07
9.0266155e-07
9.2073248e-07
9.2952299e-07
9.4744971e-07
9.5997587e-07
9.8814047e-07
1.0042504e-06
1.0360905e-06
1.0533606e-06
1.0887876e-06
1.1057244e-06
1.1391422e-06
1.1561387e-06
1.1967316e-06
9.7011779e-07
9.5092231e-07
9.3383039e-07
9.2113391e-07
9.1080884e-07
9.0187843e-07
8.9396195e-07
8.8696489e-07
8.809029e-07
8.756933e-07
8.7083376e-07
8.6623781e-07
8.616501e-07
8.5771152e-07
8.539784e-07
8.5144236e-07
8.4901501e-07
8.4765834e-07
8.4559388e-07
8.4460388e-07
8.4243397e-07
8.4117373e-07
8.3938475e-07
8.3832893e-07
8.3646308e-07
8.3579551e-07
8.3345614e-07
8.322709e-07
8.290805e-07
8.276964e-07
8.2441352e-07
8.2204245e-07
8.2015844e-07
8.1862661e-07
8.173841e-07
8.1819217e-07
8.1749373e-07
8.183413e-07
8.1958856e-07
8.2060096e-07
8.2277466e-07
8.2335341e-07
8.2559882e-07
8.2668671e-07
8.2755269e-07
8.2695639e-07
8.2800077e-07
8.2834107e-07
8.2901358e-07
8.2806501e-07
8.2824519e-07
8.2740605e-07
8.2753608e-07
8.2689938e-07
8.2715856e-07
8.26299e-07
8.2629226e-07
8.2609321e-07
8.2680771e-07
8.2668006e-07
8.2779846e-07
8.2869893e-07
8.2969554e-07
8.3135423e-07
8.3309733e-07
8.3569076e-07
8.3810298e-07
8.4091797e-07
8.4529763e-07
8.4770236e-07
8.5330899e-07
8.5878113e-07
8.6826809e-07
8.7282118e-07
8.8322261e-07
8.91875e-07
9.0918667e-07
9.1809596e-07
9.349416e-07
9.4485011e-07
9.6567909e-07
9.8668195e-07
1.0177206e-06
1.0326602e-06
1.0624989e-06
1.077418e-06
1.1071038e-06
1.1211321e-06
1.1523832e-06
9.7014283e-07
9.5095852e-07
9.3387062e-07
9.2117502e-07
9.1085717e-07
9.0192353e-07
8.9400528e-07
8.870059e-07
8.8093562e-07
8.7572655e-07
8.7089187e-07
8.6630262e-07
8.6171916e-07
8.5775285e-07
8.5401695e-07
8.5145164e-07
8.4902126e-07
8.4768931e-07
8.4564327e-07
8.4466134e-07
8.4250377e-07
8.4124074e-07
8.3939959e-07
8.3838828e-07
8.3647947e-07
8.3596692e-07
8.3352591e-07
8.3244397e-07
8.2929309e-07
8.2806236e-07
8.2457144e-07
8.2243286e-07
8.2032717e-07
8.1881137e-07
8.1757618e-07
8.1816454e-07
8.173271e-07
8.1852396e-07
8.1945228e-07
8.2086716e-07
8.2274377e-07
8.2341927e-07
8.2555546e-07
8.2666856e-07
8.2727678e-07
8.2729616e-07
8.2858827e-07
8.2872778e-07
8.2901736e-07
8.2823756e-07
8.2864098e-07
8.277702e-07
8.2772761e-07
8.2676966e-07
8.2693234e-07
8.2642059e-07
8.2647333e-07
8.259943e-07
8.2660739e-07
8.2634803e-07
8.2705131e-07
8.2789726e-07
8.2884151e-07
8.3029176e-07
8.3152577e-07
8.3383504e-07
8.3577363e-07
8.3839553e-07
8.4173946e-07
8.4450959e-07
8.5030242e-07
8.5431721e-07
8.623084e-07
8.6692058e-07
8.7736213e-07
8.8395769e-07
8.9896693e-07
9.0897247e-07
9.255537e-07
9.3385386e-07
9.5220018e-07
9.7130067e-07
9.989862e-07
1.0103759e-06
1.0342972e-06
1.0482345e-06
1.0766348e-06
1.0927229e-06
1.1261208e-06
9.7016523e-07
9.509914e-07
9.3390717e-07
9.2120933e-07
9.1089248e-07
9.0197386e-07
8.940549e-07
8.87049e-07
8.8098275e-07
8.7577514e-07
8.7094324e-07
8.6635609e-07
8.6177978e-07
8.578136e-07
8.5405535e-07
8.5147041e-07
8.4901347e-07
8.476959e-07
8.4563906e-07
8.4462795e-07
8.4252011e-07
8.4124704e-07
8.3939358e-07
8.3845878e-07
8.3645198e-07
8.3597888e-07
8.3346112e-07
8.3245507e-07
8.2942919e-07
8.2819355e-07
8.2455514e-07
8.2264357e-07
8.2033215e-07
8.1885575e-07
8.1752029e-07
8.1802857e-07
8.1713016e-07
8.1846424e-07
8.1914043e-07
8.206823e-07
8.2238064e-07
8.2320337e-07
8.2531695e-07
8.2638049e-07
8.2681258e-07
8.2708709e-07
8.2842859e-07
8.2848033e-07
8.2856638e-07
8.2781915e-07
8.2833922e-07
8.2760274e-07
8.2759467e-07
8.265929e-07
8.2650363e-07
8.2620029e-07
8.2614053e-07
8.254603e-07
8.2590849e-07
8.2582262e-07
8.2628874e-07
8.2721955e-07
8.2810734e-07
8.2916894e-07
8.302986e-07
8.3237627e-07
8.3396272e-07
8.3651651e-07
8.3965491e-07
8.4219883e-07
8.4685666e-07
8.5045368e-07
8.578484e-07
8.6278588e-07
8.7172105e-07
8.7761583e-07
8.9302235e-07
9.009137e-07
9.1492774e-07
9.2194972e-07
9.385774e-07
9.5043298e-07
9.7706425e-07
9.9129619e-07
1.0186631e-06
1.0327827e-06
1.061147e-06
1.0745901e-06
1.1045589e-06
9.7018751e-07
9.5102397e-07
9.3394211e-07
9.2124745e-07
9.1093261e-07
9.0200375e-07
8.9410019e-07
8.8709356e-07
8.8101953e-07
8.7581392e-07
8.7099058e-07
8.6639901e-07
8.6183957e-07
8.5785482e-07
8.540992e-07
8.5149923e-07
8.4900326e-07
8.4772998e-07
8.456835e-07
8.4463055e-07
8.4260569e-07
8.4125718e-07
8.3936393e-07
8.3853067e-07
8.3650954e-07
8.3603037e-07
8.335513e-07
8.3252325e-07
8.2956361e-07
8.2825857e-07
8.2463579e-07
8.2284799e-07
8.202519e-07
8.1887236e-07
8.1744897e-07
8.1789342e-07
8.1702938e-07
8.1850118e-07
8.1899562e-07
8.2064483e-07
8.2205927e-07
8.2327258e-07
8.2511241e-07
8.2603848e-07
8.2658327e-07
8.274073e-07
8.2862295e-07
8.285869e-07
8.2883886e-07
8.2811731e-07
8.2857188e-07
8.2781737e-07
8.2761314e-07
8.2672117e-07
8.2641505e-07
8.2611431e-07
8.2618368e-07
8.2546889e-07
8.2572196e-07
8.2546331e-07
8.26155e-07
8.2646076e-07
8.2744174e-07
8.2791378e-07
8.290036e-07
8.308416e-07
8.32581e-07
8.3491677e-07
8.3757782e-07
8.3994605e-07
8.4498748e-07
8.4783486e-07
8.5383404e-07
8.5928602e-07
8.6813015e-07
8.7212745e-07
8.8085604e-07
8.9218434e-07
9.0850911e-07
9.1570119e-07
9.2738789e-07
9.3781133e-07
9.6649353e-07
9.8219076e-07
1.0022476e-06
1.0116214e-06
1.0334989e-06
1.0471099e-06
1.0743374e-06
9.7020836e-07
9.5105437e-07
9.3397519e-07
9.2127449e-07
9.1096386e-07
9.0205668e-07
8.9414125e-07
8.8712315e-07
8.8105509e-07
8.7584324e-07
8.7103982e-07
8.6645774e-07
8.6190839e-07
8.5789296e-07
8.5412909e-07
8.5150882e-07
8.489893e-07
8.4772662e-07
8.4568791e-07
8.4459893e-07
8.4265743e-07
8.4129224e-07
8.3933232e-07
8.3856202e-07
8.3648948e-07
8.3598836e-07
8.336149e-07
8.3258503e-07
8.297982e-07
8.2837361e-07
8.2476209e-07
8.2313023e-07
8.2028026e-07
8.1910101e-07
8.1746237e-07
8.1780457e-07
8.1692399e-07
8.1844208e-07
8.1884331e-07
8.2043832e-07
8.2176446e-07
8.2328274e-07
8.2479152e-07
8.256364e-07
8.2620448e-07
8.272763e-07
8.282007e-07
8.2813604e-07
8.285607e-07
8.2799321e-07
8.2828542e-07
8.2763695e-07
8.2736587e-07
8.2647348e-07
8.2623045e-07
8.2552888e-07
8.2583856e-07
8.2500128e-07
8.2523165e-07
8.2474371e-07
8.2555482e-07
8.2573201e-07
8.2636759e-07
8.2701458e-07
8.2812668e-07
8.2972627e-07
8.3109827e-07
8.3365269e-07
8.3603433e-07
8.3791556e-07
8.4230114e-07
8.4470677e-07
8.5084137e-07
8.5400269e-07
8.6140225e-07
8.666912e-07
8.7780347e-07
8.8708903e-07
9.0033487e-07
9.0702845e-07
9.1776513e-07
9.2625307e-07
9.4834068e-07
9.7002885e-07
9.8872326e-07
9.964509e-07
1.0136629e-06
1.0262567e-06
1.0528704e-06
9.7022896e-07
9.5108405e-07
9.3400723e-07
9.2131405e-07
9.1100156e-07
9.020885e-07
8.9418121e-07
8.8717046e-07
8.8109769e-07
8.7588533e-07
8.710793e-07
8.6649865e-07
8.6195885e-07
8.5795211e-07
8.5417249e-07
8.5153189e-07
8.4899698e-07
8.4774138e-07
8.4571324e-07
8.4460775e-07
8.4272524e-07
8.4133126e-07
8.3938397e-07
8.3863908e-07
8.3653922e-07
8.3596576e-07
8.3375561e-07
8.3255526e-07
8.2995597e-07
8.2838448e-07
8.2490446e-07
8.2330825e-07
8.2027417e-07
8.1916494e-07
8.1737078e-07
8.176729e-07
8.1672022e-07
8.183801e-07
8.187046e-07
8.2017751e-07
8.2142436e-07
8.2326734e-07
8.2451308e-07
8.254389e-07
8.2615079e-07
8.2742068e-07
8.2816736e-07
8.2805631e-07
8.2841751e-07
8.2801892e-07
8.2813807e-07
8.2737132e-07
8.2734469e-07
8.2638017e-07
8.2631835e-07
8.2537876e-07
8.2556761e-07
8.2483346e-07
8.2503119e-07
8.2444888e-07
8.2490223e-07
8.2501599e-07
8.2551394e-07
8.2628171e-07
8.2703438e-07
8.2857569e-07
8.2964718e-07
8.3221993e-07
8.3435604e-07
8.3677955e-07
8.3933377e-07
8.4206932e-07
8.4878194e-07
8.5365964e-07
8.5849911e-07
8.6084133e-07
8.6901809e-07
8.7971969e-07
8.9631831e-07
9.0402936e-07
9.0959771e-07
9.147582e-07
9.2549077e-07
9.5139289e-07
9.8161113e-07
9.9175698e-07
1.0073763e-06
1.0162082e-06
1.0364758e-06
9.702493e-07
9.5111274e-07
9.3403883e-07
9.2133618e-07
9.1102943e-07
9.0213038e-07
8.9422715e-07
8.8720011e-07
8.8112843e-07
8.7592041e-07
8.7113151e-07
8.6654832e-07
8.6201488e-07
8.579802e-07
8.5419661e-07
8.515466e-07
8.4899405e-07
8.4774849e-07
8.4572388e-07
8.4455791e-07
8.4272351e-07
8.4132317e-07
8.3931287e-07
8.3855923e-07
8.365057e-07
8.3587711e-07
8.3381191e-07
8.3253136e-07
8.3004681e-07
8.2830403e-07
8.2493305e-07
8.2325962e-07
8.2024035e-07
8.1913892e-07
8.1726974e-07
8.1751633e-07
8.1650309e-07
8.1816043e-07
8.1842393e-07
8.1988541e-07
8.2092627e-07
8.2293152e-07
8.2407439e-07
8.2500511e-07
8.2564289e-07
8.2708423e-07
8.2774854e-07
8.2773583e-07
8.2796939e-07
8.2762387e-07
8.2776372e-07
8.2686968e-07
8.2691648e-07
8.2584877e-07
8.2585334e-07
8.2483044e-07
8.2477545e-07
8.2423262e-07
8.2409122e-07
8.2368958e-07
8.2396003e-07
8.2386089e-07
8.2447637e-07
8.253333e-07
8.2590654e-07
8.2709419e-07
8.2857106e-07
8.3017692e-07
8.3188162e-07
8.3539994e-07
8.3711015e-07
8.3882754e-07
8.4381405e-07
8.5099436e-07
8.5524262e-07
8.5787112e-07
8.6241987e-07
8.7026511e-07
8.8956438e-07
9.0120461e-07
9.089487e-07
9.1142442e-07
9.1642995e-07
9.3082321e-07
9.6819756e-07
9.8772594e-07
1.004011e-06
1.0093216e-06
1.0212448e-06
9.702682e-07
9.5113987e-07
9.3406981e-07
9.2137171e-07
9.110654e-07
9.0216883e-07
8.9425572e-07
8.8723748e-07
8.8117035e-07
8.7594286e-07
8.7116241e-07
8.6657723e-07
8.6207128e-07
8.5801347e-07
8.5424236e-07
8.5153738e-07
8.4898968e-07
8.477073e-07
8.4572139e-07
8.4453064e-07
8.4274677e-07
8.413388e-07
8.3930366e-07
8.3850792e-07
8.3652048e-07
8.3578062e-07
8.3384378e-07
8.3247167e-07
8.3013334e-07
8.2828251e-07
8.250652e-07
8.2326876e-07
8.202741e-07
8.189879e-07
8.1717286e-07
8.1722905e-07
8.1620405e-07
8.1784914e-07
8.1796176e-07
8.1953837e-07
8.2057252e-07
8.222805e-07
8.2349992e-07
8.2449385e-07
8.2491885e-07
8.2641291e-07
8.2707401e-07
8.2719264e-07
8.2744657e-07
8.2704451e-07
8.2712236e-07
8.262168e-07
8.2614896e-07
8.250866e-07
8.2505957e-07
8.2397003e-07
8.237264e-07
8.2299263e-07
8.2288883e-07
8.2232207e-07
8.2265704e-07
8.2216677e-07
8.2292873e-07
8.2348916e-07
8.2413169e-07
8.2518932e-07
8.2674935e-07
8.2783144e-07
8.2959572e-07
8.3186687e-07
8.3509334e-07
8.3712559e-07
8.3942521e-07
8.440095e-07
8.5279375e-07
8.5740832e-07
8.6044346e-07
8.6458164e-07
8.7547864e-07
8.9213763e-07
9.0723221e-07
9.1192298e-07
9.1445353e-07
9.1922741e-07
9.3886493e-07
9.6849048e-07
9.9397733e-07
1.0026392e-06
1.0132532e-06
9.702872e-07
9.5116679e-07
9.3409976e-07
9.2139802e-07
9.1108533e-07
9.0220028e-07
8.9429715e-07
8.8726946e-07
8.8119967e-07
8.759678e-07
8.7119771e-07
8.6661341e-07
8.6211512e-07
8.5802537e-07
8.5426794e-07
8.5149588e-07
8.4899173e-07
8.4763587e-07
8.4570604e-07
8.4447586e-07
8.4274251e-07
8.4132305e-07
8.3931216e-07
8.3841787e-07
8.3649414e-07
8.3562255e-07
8.3380976e-07
8.323914e-07
8.3006355e-07
8.2809686e-07
8.2496828e-07
8.2303667e-07
8.202049e-07
8.1867522e-07
8.1693316e-07
8.1670365e-07
8.157521e-07
8.1723568e-07
8.1724574e-07
8.1874623e-07
8.198856e-07
8.2122562e-07
8.2236248e-07
8.2343163e-07
8.2376416e-07
8.2509837e-07
8.2576568e-07
8.2584618e-07
8.2607025e-07
8.2555104e-07
8.2555712e-07
8.2456585e-07
8.2442613e-07
8.2326021e-07
8.2320073e-07
8.2204343e-07
8.2165454e-07
8.2069995e-07
8.2073311e-07
8.1987058e-07
8.2037151e-07
8.1978746e-07
8.2021111e-07
8.2071803e-07
8.214878e-07
8.2227934e-07
8.2340053e-07
8.2483693e-07
8.2679484e-07
8.2835491e-07
8.3120069e-07
8.3483725e-07
8.3635592e-07
8.3906082e-07
8.4718836e-07
8.5521598e-07
8.5881538e-07
8.6098744e-07
8.6551398e-07
8.7818801e-07
8.9985511e-07
9.1023479e-07
9.1339611e-07
9.1551236e-07
9.2274936e-07
9.3855351e-07
9.7160968e-07
9.9068319e-07
1.0072094e-06
9.703034e-07
9.511913e-07
9.3412801e-07
9.2142629e-07
9.1112054e-07
9.0223548e-07
8.9432824e-07
8.8729067e-07
8.8122985e-07
8.7599091e-07
8.7122791e-07
8.6661897e-07
8.6213796e-07
8.5801118e-07
8.5428707e-07
8.514295e-07
8.4896317e-07
8.4751035e-07
8.4565381e-07
8.4432036e-07
8.4264831e-07
8.411658e-07
8.3920427e-07
8.3813946e-07
8.3632202e-07
8.3529866e-07
8.3359364e-07
8.3211481e-07
8.2982735e-07
8.277783e-07
8.2473859e-07
8.2252202e-07
8.1979794e-07
8.180677e-07
8.1624357e-07
8.1569091e-07
8.1472979e-07
8.1589679e-07
8.1585533e-07
8.170817e-07
8.1833834e-07
8.1935212e-07
8.2054408e-07
8.2152977e-07
8.2185934e-07
8.2301542e-07
8.2359556e-07
8.2357051e-07
8.2363772e-07
8.2291592e-07
8.2275276e-07
8.215423e-07
8.2125419e-07
8.2002365e-07
8.1981909e-07
8.1866392e-07
8.1824256e-07
8.1682326e-07
8.1699458e-07
8.1575345e-07
8.1648445e-07
8.1545522e-07
8.159526e-07
8.1608843e-07
8.1688537e-07
8.1752231e-07
8.1857427e-07
8.2022966e-07
8.221801e-07
8.2387143e-07
8.2591326e-07
8.2950038e-07
8.3176575e-07
8.3424137e-07
8.4066704e-07
8.4696173e-07
8.5461718e-07
8.5743241e-07
8.6283609e-07
8.6819453e-07
8.8188253e-07
8.9977885e-07
9.1020406e-07
9.1404255e-07
9.1853415e-07
9.257764e-07
9.457811e-07
9.7182735e-07
9.9658804e-07
9.7032111e-07
9.5121655e-07
9.341536e-07
9.2145211e-07
9.1114069e-07
9.0225594e-07
8.9435074e-07
8.8731497e-07
8.8124709e-07
8.7597757e-07
8.7122605e-07
8.6659769e-07
8.6213843e-07
8.5793613e-07
8.5425481e-07
8.5125095e-07
8.4888208e-07
8.472663e-07
8.4552127e-07
8.440381e-07
8.424161e-07
8.4079115e-07
8.389005e-07
8.3761348e-07
8.3592644e-07
8.3467321e-07
8.330413e-07
8.3146068e-07
8.2914953e-07
8.2694086e-07
8.2390904e-07
8.2148933e-07
8.1867403e-07
8.1661131e-07
8.1475513e-07
8.1383477e-07
8.1296607e-07
8.136718e-07
8.135311e-07
8.1430083e-07
8.1563465e-07
8.161215e-07
8.1716965e-07
8.1789817e-07
8.1828967e-07
8.1903442e-07
8.1937406e-07
8.1915822e-07
8.1925042e-07
8.1809471e-07
8.1784088e-07
8.1626672e-07
8.159006e-07
8.1421581e-07
8.1387723e-07
8.1240479e-07
8.1202769e-07
8.1016838e-07
8.1032106e-07
8.0880002e-07
8.09259e-07
8.0836886e-07
8.0866718e-07
8.0830086e-07
8.0945931e-07
8.0976817e-07
8.1104577e-07
8.1227829e-07
8.1379755e-07
8.1569803e-07
8.1770771e-07
8.2075555e-07
8.2477273e-07
8.2699323e-07
8.3303955e-07
8.3676182e-07
8.4531167e-07
8.4909358e-07
8.566441e-07
8.6151844e-07
8.5177391e-07
8.3651875e-07
7.8641202e-07
7.2779174e-07
7.0902472e-07
8.09428e-07
7.6650929e-07
7.8052039e-07
7.7271678e-07
9.7033505e-07
9.5123842e-07
9.3417717e-07
9.214746e-07
9.1116054e-07
9.0227216e-07
8.9436943e-07
8.8730694e-07
8.8122535e-07
8.7592292e-07
8.7118557e-07
8.6650956e-07
8.6206171e-07
8.5774385e-07
8.541133e-07
8.5091489e-07
8.4865431e-07
8.4677664e-07
8.4516971e-07
8.4344644e-07
8.4193019e-07
8.3999094e-07
8.3820489e-07
8.3656681e-07
8.3492656e-07
8.3336755e-07
8.3165202e-07
8.2988876e-07
8.2747396e-07
8.2500561e-07
8.2192924e-07
8.1920064e-07
8.1629431e-07
8.1381968e-07
8.11736e-07
8.1025756e-07
8.0935864e-07
8.0936142e-07
8.0909562e-07
8.0912308e-07
8.1034763e-07
8.1022395e-07
8.1109501e-07
8.1132686e-07
8.1155031e-07
8.1187184e-07
8.119913e-07
8.1120967e-07
8.113315e-07
8.0960582e-07
8.0920369e-07
8.0708908e-07
8.0665902e-07
8.0435248e-07
8.0403031e-07
8.0162759e-07
8.0156097e-07
7.9904906e-07
7.9920128e-07
7.9719427e-07
7.9772406e-07
7.9634275e-07
7.9666719e-07
7.9632654e-07
7.9742748e-07
7.9696311e-07
7.982316e-07
7.99357e-07
8.0112828e-07
8.0346254e-07
8.0466924e-07
8.0754303e-07
8.1308511e-07
8.1515062e-07
8.198341e-07
8.2406804e-07
8.315774e-07
7.6454068e-07
8.4326602e-07
7.1422762e-07
6.4906689e-07
7.0088169e-07
5.87785e-07
6.031795e-07
6.0249084e-07
6.0867975e-07
5.9189686e-07
6.0668072e-07
5.4725089e-07
9.7035215e-07
9.5126148e-07
9.3419795e-07
9.2149339e-07
9.1116877e-07
9.0226889e-07
8.9435086e-07
8.8725049e-07
8.8115161e-07
8.7579082e-07
8.7104772e-07
8.6625632e-07
8.6180927e-07
8.5728662e-07
8.5375172e-07
8.5019617e-07
8.4804231e-07
8.4573759e-07
8.4422808e-07
8.4213566e-07
8.4066472e-07
8.3823268e-07
8.3650561e-07
8.3431854e-07
8.3270099e-07
8.3067567e-07
8.2883399e-07
8.2671819e-07
8.2403758e-07
8.211661e-07
8.1781843e-07
8.14576e-07
8.1136228e-07
8.0829622e-07
8.0579513e-07
8.0360864e-07
8.024042e-07
8.0140799e-07
8.0092677e-07
7.9991383e-07
8.0092417e-07
8.0009824e-07
8.0065312e-07
8.0031997e-07
8.0021159e-07
8.0003748e-07
7.9993558e-07
7.9850893e-07
7.9836648e-07
7.9605354e-07
7.9532353e-07
7.9271021e-07
7.9200233e-07
7.8926999e-07
7.8866961e-07
7.8574638e-07
7.8541789e-07
7.826255e-07
7.8253653e-07
7.8019916e-07
7.8055092e-07
7.7848157e-07
7.7925732e-07
7.7816121e-07
7.7933678e-07
7.7844104e-07
7.79861e-07
7.8051119e-07
7.8217832e-07
7.8465783e-07
7.8598441e-07
7.8846462e-07
7.9341431e-07
7.9715221e-07
7.9970499e-07
8.028837e-07
7.0969359e-07
6.305301e-07
6.437006e-07
6.0306895e-07
5.6824516e-07
6.0696158e-07
5.2577684e-07
5.3747031e-07
5.2139678e-07
5.1204849e-07
4.8694061e-07
4.7240135e-07
4.5008551e-07
9.7036345e-07
9.5127678e-07
9.3420916e-07
9.2149009e-07
9.1114612e-07
9.0221075e-07
8.9426533e-07
8.8709662e-07
8.8094192e-07
8.7543994e-07
8.7065366e-07
8.6565764e-07
8.611293e-07
8.5621544e-07
8.5268612e-07
8.4856978e-07
8.4646626e-07
8.4349338e-07
8.4204339e-07
8.3926363e-07
8.3778764e-07
8.3445667e-07
8.3271247e-07
8.2963823e-07
8.2784353e-07
8.2504351e-07
8.2288374e-07
8.2021417e-07
8.1697684e-07
8.1343642e-07
8.0959585e-07
8.0575868e-07
8.0199903e-07
7.9811713e-07
7.9494809e-07
7.9187937e-07
7.9017248e-07
7.8797564e-07
7.8709e-07
7.8495165e-07
7.8553481e-07
7.8402508e-07
7.8413365e-07
7.8320485e-07
7.8281866e-07
7.8214037e-07
7.8186344e-07
7.7985082e-07
7.7956356e-07
7.7660247e-07
7.7565424e-07
7.7252328e-07
7.7162447e-07
7.6833726e-07
7.676124e-07
7.6403999e-07
7.6364709e-07
7.6053718e-07
7.6032876e-07
7.5757439e-07
7.5774553e-07
7.5529495e-07
7.5595623e-07
7.5436799e-07
7.5564892e-07
7.5488024e-07
7.5571322e-07
7.5571272e-07
7.5767691e-07
7.5928184e-07
7.6153024e-07
7.6423304e-07
7.6702181e-07
7.7066093e-07
7.7505104e-07
7.0987099e-07
6.0741578e-07
6.5117395e-07
4.6462785e-07
5.3369336e-07
5.2215888e-07
5.1142704e-07
4.9294938e-07
4.3231611e-07
4.2458344e-07
4.135799e-07
3.7703023e-07
3.6561898e-07
3.5580731e-07
9.7037848e-07
9.5128838e-07
9.3420255e-07
9.2145305e-07
9.1106242e-07
9.0203154e-07
8.9401972e-07
8.8667727e-07
8.8035932e-07
8.7455682e-07
8.6958305e-07
8.6415252e-07
8.5934865e-07
8.5371927e-07
8.5006203e-07
8.4494287e-07
8.4274199e-07
8.386638e-07
8.3702963e-07
8.3314128e-07
8.3142398e-07
8.2671612e-07
8.2468852e-07
8.2036942e-07
8.1814438e-07
8.1425596e-07
8.1153103e-07
8.0810892e-07
8.0411051e-07
7.9972879e-07
7.9526297e-07
7.9066739e-07
7.8615193e-07
7.8141388e-07
7.7746958e-07
7.7346643e-07
7.712406e-07
7.6785403e-07
7.6652222e-07
7.6333185e-07
7.6345907e-07
7.6139784e-07
7.611967e-07
7.598791e-07
7.5933616e-07
7.5838195e-07
7.5803566e-07
7.5571074e-07
7.5553091e-07
7.5222031e-07
7.5113729e-07
7.4752765e-07
7.4654777e-07
7.4270462e-07
7.4195991e-07
7.3757525e-07
7.3724618e-07
7.3360691e-07
7.3346441e-07
7.2998719e-07
7.3033462e-07
7.2699667e-07
7.2761873e-07
7.257493e-07
7.2677729e-07
7.2547849e-07
7.2615543e-07
7.2647246e-07
7.2804518e-07
7.292754e-07
7.3202968e-07
7.3433967e-07
7.3661052e-07
7.3975465e-07
6.7692004e-07
6.2020846e-07
5.9136688e-07
6.5371888e-07
4.0151169e-07
4.8142304e-07
4.8810041e-07
4.1896949e-07
3.8357296e-07
3.4291542e-07
3.4931705e-07
3.3279215e-07
2.9587506e-07
2.9595207e-07
2.9353099e-07
9.703829e-07
9.5127575e-07
9.3414487e-07
9.2131662e-07
9.1080102e-07
9.0156126e-07
8.9329801e-07
8.8554117e-07
8.7878011e-07
8.7233796e-07
8.668345e-07
8.6049105e-07
8.5495016e-07
8.4798992e-07
8.4380442e-07
8.3708642e-07
8.3442637e-07
8.28702e-07
8.2655439e-07
8.2115191e-07
8.189496e-07
8.1248094e-07
8.0996156e-07
8.0420144e-07
8.014589e-07
7.9642619e-07
7.931297e-07
7.8898873e-07
7.8428047e-07
7.7909235e-07
7.7399992e-07
7.6863679e-07
7.6341769e-07
7.5760678e-07
7.5279126e-07
7.4775433e-07
7.4502173e-07
7.4047402e-07
7.3865788e-07
7.3447996e-07
7.3423539e-07
7.3156824e-07
7.3119513e-07
7.2949915e-07
7.2878908e-07
7.2761645e-07
7.2721202e-07
7.2459541e-07