/*--------------------------------*- C++ -*----------------------------------*\
| =========                 |                                                 |
| \\      /  F ield         | OpenFOAM: The Open Source CFD Toolbox           |
|  \\    /   O peration     | Version:  2406                                  |
|   \\  /    A nd           | Website:  www.openfoam.com                      |
|    \\/     M anipulation  |                                                 |
\*---------------------------------------------------------------------------*/
FoamFile
{
    version     2.0;
    format      ascii;
    arch        "LSB;label=32;scalar=64";
    class       volScalarField;
    location    "30";
    object      k;
}
// * * * * * * * * * * * * * * * * * * * * * * * * * * * * * * * * * * * * * //

dimensions      [0 2 -2 0 0 0 0];

internalField   nonuniform List<scalar> 
158064
(
3.9116495e-06
2.9651755e-06
2.3856705e-06
1.9987004e-06
1.7221431e-06
1.5147745e-06
1.3537153e-06
1.2255456e-06
1.1214597e-06
1.0353345e-06
9.6256446e-07
9.0058324e-07
8.4682075e-07
8.0082649e-07
7.6053216e-07
7.2597622e-07
6.9487836e-07
6.6717144e-07
6.4204793e-07
6.1875332e-07
5.9788629e-07
5.7797073e-07
5.6029424e-07
5.4346256e-07
5.2894259e-07
5.1399658e-07
5.01579e-07
4.8875778e-07
4.7736849e-07
4.6594638e-07
4.5668138e-07
4.4721801e-07
4.3903369e-07
4.3148806e-07
4.2517631e-07
4.187963e-07
4.1381075e-07
4.0832488e-07
4.0465251e-07
4.0014339e-07
3.9596596e-07
3.9199274e-07
3.8770363e-07
3.8471465e-07
3.8045164e-07
3.7697393e-07
3.7309128e-07
3.6943467e-07
3.6523307e-07
3.6201079e-07
3.578694e-07
3.5536919e-07
3.5137642e-07
3.4958822e-07
3.4609465e-07
3.4449463e-07
3.4110355e-07
3.3958301e-07
3.3738004e-07
3.368058e-07
3.3674218e-07
3.3741113e-07
3.3848641e-07
3.4133781e-07
3.4356664e-07
3.4968481e-07
3.5467645e-07
3.6678794e-07
3.7481507e-07
3.9335072e-07
4.0559508e-07
4.3329628e-07
4.4981589e-07
4.8338635e-07
5.1425523e-07
5.5489974e-07
5.8375819e-07
6.2657076e-07
6.7190114e-07
6.9716732e-07
7.4213155e-07
7.79263e-07
8.5763695e-07
9.0718005e-07
9.8952781e-07
1.0346402e-06
1.1283569e-06
1.1918089e-06
1.3575722e-06
3.9131267e-06
2.9673074e-06
2.3878689e-06
2.0008403e-06
1.7241981e-06
1.5167184e-06
1.355564e-06
1.227298e-06
1.1231069e-06
1.0369482e-06
9.6413247e-07
9.0212785e-07
8.4828714e-07
8.0228448e-07
7.6186848e-07
7.2737345e-07
6.9620429e-07
6.6862801e-07
6.4337898e-07
6.203298e-07
5.9922299e-07
5.7958078e-07
5.6168797e-07
5.45052e-07
5.3033536e-07
5.1570237e-07
5.0299368e-07
4.903465e-07
4.788187e-07
4.6748997e-07
4.5794969e-07
4.4861677e-07
4.4007819e-07
4.3263225e-07
4.2620987e-07
4.1982347e-07
4.144932e-07
4.0907938e-07
4.0554572e-07
4.0065621e-07
3.9674209e-07
3.9243992e-07
3.889948e-07
3.8512152e-07
3.8151592e-07
3.7742064e-07
3.7392022e-07
3.6985277e-07
3.6642494e-07
3.626328e-07
3.5891779e-07
3.5606101e-07
3.5253491e-07
3.5048649e-07
3.4716081e-07
3.4546413e-07
3.4221984e-07
3.4092406e-07
3.3867179e-07
3.3799157e-07
3.373079e-07
3.3762528e-07
3.3782006e-07
3.3949436e-07
3.4059775e-07
3.4396395e-07
3.4618108e-07
3.523255e-07
3.5643912e-07
3.6744453e-07
3.7444127e-07
3.917265e-07
4.0224331e-07
4.2255094e-07
4.5193337e-07
4.790578e-07
5.1811885e-07
5.4784828e-07
6.0658459e-07
6.416091e-07
7.0134107e-07
7.3401115e-07
8.0441001e-07
8.4348569e-07
9.2133515e-07
9.6089866e-07
1.0409321e-06
1.0852152e-06
1.1993454e-06
3.9144655e-06
2.9692817e-06
2.3899597e-06
2.0029083e-06
1.7261812e-06
1.5185945e-06
1.3573493e-06
1.2289616e-06
1.1246602e-06
1.0384192e-06
9.6554432e-07
9.0345233e-07
8.4955106e-07
8.0348283e-07
7.629713e-07
7.2839126e-07
6.9713168e-07
6.6958161e-07
6.4420657e-07
6.2120428e-07
5.9990267e-07
5.803162e-07
5.6226231e-07
5.4564461e-07
5.3075643e-07
5.1623393e-07
5.0332703e-07
4.9075818e-07
4.7910596e-07
4.6783397e-07
4.5810589e-07
4.4889413e-07
4.4017535e-07
4.3280586e-07
4.2636108e-07
4.198303e-07
4.1453219e-07
4.0905621e-07
4.056883e-07
4.0054798e-07
3.9696431e-07
3.9236765e-07
3.8954572e-07
3.8506533e-07
3.8195341e-07
3.7755658e-07
3.7433539e-07
3.699467e-07
3.6703258e-07
3.625762e-07
3.5951053e-07
3.5567824e-07
3.5313115e-07
3.4988938e-07
3.4784844e-07
3.4441243e-07
3.4273116e-07
3.4027695e-07
3.3870246e-07
3.3743853e-07
3.3673197e-07
3.3661636e-07
3.369486e-07
3.3773832e-07
3.3890293e-07
3.4103685e-07
3.4327417e-07
3.4688893e-07
3.5247039e-07
3.5691651e-07
3.6597471e-07
3.7311529e-07
3.8768524e-07
3.9734596e-07
4.1676823e-07
4.3037684e-07
4.587605e-07
4.7872452e-07
5.2352734e-07
5.5010297e-07
6.0564116e-07
6.3648411e-07
7.006866e-07
7.3758884e-07
8.1492757e-07
8.5579108e-07
9.3834757e-07
9.8158189e-07
1.0851897e-06
3.9158669e-06
2.9712903e-06
2.3920375e-06
2.004933e-06
1.7281303e-06
1.5204453e-06
1.3590944e-06
1.2305974e-06
1.1261993e-06
1.0398942e-06
9.6696651e-07
9.0481715e-07
8.508499e-07
8.0471748e-07
7.6411877e-07
7.29501e-07
6.9820767e-07
6.7072178e-07
6.4523512e-07
6.223884e-07
6.0095547e-07
5.8150482e-07
5.6332785e-07
5.4683861e-07
5.3180248e-07
5.1756545e-07
5.0447456e-07
4.9216424e-07
4.803675e-07
4.6922446e-07
4.5941214e-07
4.5009193e-07
4.4135605e-07
4.3415278e-07
4.2743545e-07
4.2074571e-07
4.1548061e-07
4.1019655e-07
4.066271e-07
4.0128069e-07
3.9790178e-07
3.9343475e-07
3.9073567e-07
3.8600563e-07
3.8279938e-07
3.7844691e-07
3.7530009e-07
3.7090147e-07
3.6802503e-07
3.6340643e-07
3.6044568e-07
3.5644829e-07
3.5404021e-07
3.5051823e-07
3.4846312e-07
3.4501785e-07
3.4301402e-07
3.4035381e-07
3.3917822e-07
3.3709779e-07
3.3652081e-07
3.3566734e-07
3.3576406e-07
3.3601321e-07
3.3681027e-07
3.3779179e-07
3.4020546e-07
3.4216779e-07
3.4693567e-07
3.5061895e-07
3.5844195e-07
3.6368787e-07
3.7501909e-07
3.8232895e-07
3.9901412e-07
4.0986482e-07
4.3231964e-07
4.4641967e-07
4.7747283e-07
4.9867345e-07
5.431936e-07
5.6637983e-07
6.1372426e-07
6.4186358e-07
7.0254752e-07
7.3835168e-07
8.131051e-07
8.5298991e-07
9.5386068e-07
3.9171263e-06
2.9731407e-06
2.3939898e-06
2.0068528e-06
1.7299737e-06
1.5221882e-06
1.3607425e-06
1.2321439e-06
1.1276432e-06
1.0412666e-06
9.6828153e-07
9.0605746e-07
8.5203472e-07
8.0583085e-07
7.6515902e-07
7.3046988e-07
6.9910622e-07
6.7166168e-07
6.460518e-07
6.2329095e-07
6.0168789e-07
5.8227856e-07
5.6402234e-07
5.4759541e-07
5.3234331e-07
5.1828712e-07
5.0500093e-07
4.9278644e-07
4.8077314e-07
4.6969889e-07
4.5975886e-07
4.5034067e-07
4.4160469e-07
4.3447723e-07
4.2750873e-07
4.208501e-07
4.1551913e-07
4.1033771e-07
4.0666068e-07
4.0124425e-07
3.9790982e-07
3.9350222e-07
3.9086688e-07
3.860111e-07
3.8277384e-07
3.7850079e-07
3.7536097e-07
3.7096419e-07
3.6813549e-07
3.6346117e-07
3.6042194e-07
3.5646379e-07
3.5406811e-07
3.504404e-07
3.4820779e-07
3.4485849e-07
3.4264977e-07
3.3989138e-07
3.3888926e-07
3.3691693e-07
3.3628719e-07
3.3503324e-07
3.3484848e-07
3.3491835e-07
3.3540447e-07
3.3622056e-07
3.3855148e-07
3.4032043e-07
3.4444891e-07
3.474014e-07
3.5400747e-07
3.5772059e-07
3.6713536e-07
3.735334e-07
3.8670108e-07
3.9401104e-07
4.1117106e-07
4.2287464e-07
4.4731561e-07
4.6243353e-07
4.9589947e-07
5.1497001e-07
5.5353785e-07
5.7454626e-07
6.1971713e-07
6.4666079e-07
7.0412335e-07
7.363992e-07
8.2029921e-07
3.9184078e-06
2.9749884e-06
2.3959071e-06
2.0087237e-06
1.7317756e-06
1.5238927e-06
1.3623573e-06
1.2336583e-06
1.129067e-06
1.0426262e-06
9.6960123e-07
9.0730651e-07
8.5323824e-07
8.0696632e-07
7.662416e-07
7.3150987e-07
7.0007872e-07
6.7270125e-07
6.4697301e-07
6.2436129e-07
6.0260032e-07
5.8326742e-07
5.6494366e-07
5.486286e-07
5.3315835e-07
5.1934846e-07
5.0585386e-07
4.9392003e-07
4.8162651e-07
4.7084592e-07
4.6078316e-07
4.5123476e-07
4.4272886e-07
4.3543772e-07
4.2817052e-07
4.220584e-07
4.1639018e-07
4.1122082e-07
4.073896e-07
4.0220604e-07
3.98969e-07
3.9439949e-07
3.916135e-07
3.8713482e-07
3.8394108e-07
3.7937968e-07
3.7611334e-07
3.7193492e-07
3.6931045e-07
3.6463463e-07
3.6153991e-07
3.5737956e-07
3.5504138e-07
3.5147305e-07
3.4896703e-07
3.454752e-07
3.4323439e-07
3.4010097e-07
3.3893705e-07
3.36845e-07
3.3595691e-07
3.3458033e-07
3.3398771e-07
3.3378447e-07
3.3404878e-07
3.3451916e-07
3.3633465e-07
3.3770482e-07
3.4098327e-07
3.4363131e-07
3.4981158e-07
3.5334625e-07
3.6100459e-07
3.6615579e-07
3.7821848e-07
3.848703e-07
3.996191e-07
4.0878956e-07
4.2905329e-07
4.4246848e-07
4.7084732e-07
4.8700616e-07
5.185295e-07
5.3422586e-07
5.6722706e-07
5.8707255e-07
6.2988611e-07
6.5525859e-07
7.19701e-07
3.9195857e-06
2.9767183e-06
2.3977284e-06
2.0105097e-06
1.733492e-06
1.5255251e-06
1.3639023e-06
1.2351115e-06
1.1304233e-06
1.0439244e-06
9.7083851e-07
9.0847782e-07
8.5436704e-07
8.0801556e-07
7.672417e-07
7.3243429e-07
7.0094323e-07
6.7359841e-07
6.4777109e-07
6.2524613e-07
6.0333277e-07
5.8405509e-07
5.656738e-07
5.4943256e-07
5.3378207e-07
5.2015063e-07
5.0647501e-07
4.9465921e-07
4.8213232e-07
4.716312e-07
4.613086e-07
4.5168297e-07
4.432597e-07
4.3578683e-07
4.2835292e-07
4.2258294e-07
4.1662637e-07
4.1145501e-07
4.0749265e-07
4.0246978e-07
3.9921854e-07
3.9459791e-07
3.9163587e-07
3.8744895e-07
3.8419357e-07
3.7945625e-07
3.760621e-07
3.7209448e-07
3.6951868e-07
3.6492905e-07
3.6170429e-07
3.5756226e-07
3.5504461e-07
3.5163725e-07
3.4907886e-07
3.4531113e-07
3.431811e-07
3.4007717e-07
3.386682e-07
3.3669112e-07
3.3561447e-07
3.3410584e-07
3.3327471e-07
3.3266277e-07
3.3287301e-07
3.3325414e-07
3.3460139e-07
3.3581938e-07
3.3868603e-07
3.4069444e-07
3.4590183e-07
3.4912426e-07
3.5532105e-07
3.5936864e-07
3.6950629e-07
3.7617373e-07
3.8956059e-07
3.971351e-07
4.1443643e-07
4.2512665e-07
4.4707214e-07
4.6081717e-07
4.9073607e-07
5.0605854e-07
5.3379455e-07
5.4827348e-07
5.7843798e-07
5.9737798e-07
6.4555626e-07
3.9207638e-06
2.9784241e-06
2.3995045e-06
2.0122482e-06
1.7351643e-06
1.5271066e-06
1.3653981e-06
1.2365138e-06
1.1317454e-06
1.0451861e-06
9.7206415e-07
9.0964619e-07
8.554763e-07
8.0906914e-07
7.6823386e-07
7.3339546e-07
7.0182205e-07
6.745369e-07
6.4864222e-07
6.2619224e-07
6.041612e-07
5.8494977e-07
5.6651678e-07
5.5032699e-07
5.345288e-07
5.2109174e-07
5.0721813e-07
4.9551524e-07
4.8282899e-07
4.7272037e-07
4.6200013e-07
4.525185e-07
4.4417339e-07
4.3639511e-07
4.2898021e-07
4.2359573e-07
4.1728733e-07
4.1223574e-07
4.0796763e-07
4.032216e-07
3.9993117e-07
3.9526128e-07
3.9231978e-07
3.8834275e-07
3.8487918e-07
3.8009807e-07
3.7693435e-07
3.7316919e-07
3.7038652e-07
3.6582417e-07
3.6273718e-07
3.5856475e-07
3.558812e-07
3.5230586e-07
3.4983848e-07
3.4598492e-07
3.4391159e-07
3.4076675e-07
3.3921967e-07
3.3690818e-07
3.3579358e-07
3.3377744e-07
3.3313038e-07
3.3216381e-07
3.3219052e-07
3.3232966e-07
3.3312773e-07
3.341262e-07
3.3634895e-07
3.3786901e-07
3.4202334e-07
3.4473629e-07
3.5031193e-07
3.5416428e-07
3.6378338e-07
3.7028492e-07
3.825201e-07
3.8842655e-07
4.0098632e-07
4.0997838e-07
4.3117857e-07
4.4341205e-07
4.6749313e-07
4.8186762e-07
5.1058911e-07
5.2437607e-07
5.5151592e-07
5.6582164e-07
6.0079428e-07
3.9218634e-06
2.9800385e-06
2.4012016e-06
2.0139098e-06
1.7367591e-06
1.5286244e-06
1.3668419e-06
1.2378725e-06
1.1330237e-06
1.046407e-06
9.7322922e-07
9.1074791e-07
8.5653761e-07
8.1007155e-07
7.6917688e-07
7.3427551e-07
7.026412e-07
6.75394e-07
6.4940793e-07
6.270129e-07
6.0488518e-07
5.857084e-07
5.6725443e-07
5.5111182e-07
5.3514753e-07
5.2186883e-07
5.078181e-07
4.9616664e-07
4.8342126e-07
4.7353521e-07
4.6250253e-07
4.5307868e-07
4.445998e-07
4.3675473e-07
4.2938361e-07
4.24095e-07
4.175838e-07
4.1265809e-07
4.0810551e-07
4.0352177e-07
4.0013835e-07
3.9547748e-07
3.9250765e-07
3.8866069e-07
3.8496984e-07
3.8026989e-07
3.7720831e-07
3.7355268e-07
3.7052598e-07
3.6607314e-07
3.6305844e-07
3.5894383e-07
3.5616334e-07
3.5239713e-07
3.4993643e-07
3.4616568e-07
3.4387815e-07
3.4088315e-07
3.3922329e-07
3.3658914e-07
3.3555037e-07
3.3359751e-07
3.3289323e-07
3.3174782e-07
3.3157016e-07
3.3164048e-07
3.3215439e-07
3.3290124e-07
3.3469361e-07
3.3575869e-07
3.3855489e-07
3.4188668e-07
3.4742404e-07
3.5021932e-07
3.568458e-07
3.6238438e-07
3.743388e-07
3.8053239e-07
3.9239478e-07
3.9920743e-07
4.1454964e-07
4.3048078e-07
4.5397311e-07
4.6539649e-07
4.8914065e-07
5.0145344e-07
5.2507961e-07
5.3675474e-07
5.6304659e-07
3.9229492e-06
2.9816175e-06
2.4028502e-06
2.0155253e-06
1.7383155e-06
1.5300959e-06
1.3682295e-06
1.239177e-06
1.1342541e-06
1.0475796e-06
9.7436851e-07
9.1183491e-07
8.5757923e-07
8.1104081e-07
7.7010553e-07
7.3514375e-07
7.0347225e-07
6.7623353e-07
6.5023481e-07
6.2782964e-07
6.0570126e-07
5.8651797e-07
5.6801358e-07
5.519272e-07
5.3587316e-07
5.2271418e-07
5.0850471e-07
4.9692992e-07
4.8417787e-07
4.7440792e-07
4.6314696e-07
4.5391656e-07
4.4524351e-07
4.3741522e-07
4.3008435e-07
4.2465965e-07
4.1803997e-07
4.1339967e-07
4.0862243e-07
4.0431601e-07
4.0071314e-07
3.961473e-07
3.9315836e-07
3.8929719e-07
3.8539548e-07
3.8110811e-07
3.7820964e-07
3.7442896e-07
3.7114804e-07
3.6680686e-07
3.6393221e-07
3.5987439e-07
3.569879e-07
3.5301609e-07
3.5050387e-07
3.4694225e-07
3.4458462e-07
3.414834e-07
3.3978354e-07
3.3692652e-07
3.3572649e-07
3.3375464e-07
3.3287986e-07
3.3164477e-07
3.3108044e-07
3.3087007e-07
3.3105877e-07
3.3148056e-07
3.3289055e-07
3.3406145e-07
3.3689281e-07
3.3907329e-07
3.4372876e-07
3.4657074e-07
3.529581e-07
3.5720602e-07
3.6742213e-07
3.7415774e-07
3.8554941e-07
3.9161533e-07
4.0436358e-07
4.1859298e-07
4.3953309e-07
4.4843078e-07
4.6658966e-07
4.7737659e-07
5.0064606e-07
5.1394563e-07
5.4152137e-07
3.9239751e-06
2.983124e-06
2.4044311e-06
2.0170748e-06
1.7398056e-06
1.5315197e-06
1.3695738e-06
1.2404387e-06
1.1354547e-06
1.0487212e-06
9.7546283e-07
9.1287548e-07
8.5858226e-07
8.1198531e-07
7.7099082e-07
7.3597582e-07
7.042484e-07
6.7701961e-07
6.509971e-07
6.2854096e-07
6.0645474e-07
5.8723909e-07
5.6869057e-07
5.5268832e-07
5.3651727e-07
5.2339364e-07
5.0907692e-07
4.9754875e-07
4.8486834e-07
4.7507131e-07
4.6362637e-07
4.5461915e-07
4.4571158e-07
4.3793787e-07
4.3053574e-07
4.2501094e-07
4.1836901e-07
4.1388409e-07
4.0885471e-07
4.0470533e-07
4.0090219e-07
3.9644219e-07
3.9340638e-07
3.895416e-07
3.8551257e-07
3.8152607e-07
3.7863213e-07
3.7477422e-07
3.7130279e-07
3.6706806e-07
3.6425451e-07
3.6025539e-07
3.57328e-07
3.532877e-07
3.5064454e-07
3.472743e-07
3.4486263e-07
3.4153209e-07
3.3985458e-07
3.3702063e-07
3.3563157e-07
3.3377748e-07
3.3272823e-07
3.3139853e-07
3.3079492e-07
3.3016661e-07
3.302771e-07
3.3055475e-07
3.3176879e-07
3.3275466e-07
3.3485041e-07
3.3658589e-07
3.4097508e-07
3.4384403e-07
3.4927275e-07
3.53154e-07
3.6339186e-07
3.6879172e-07
3.7817645e-07
3.8330275e-07
3.94874e-07
4.036224e-07
4.2347963e-07
4.3403554e-07
4.5480108e-07
4.6590041e-07
4.8854721e-07
4.9965239e-07
5.2350685e-07
3.9249782e-06
2.9845889e-06
2.4059615e-06
2.0185806e-06
1.7412509e-06
1.5328822e-06
1.3708702e-06
1.2416591e-06
1.1366091e-06
1.0498215e-06
9.7652307e-07
9.1388125e-07
8.5955518e-07
8.1289221e-07
7.7185307e-07
7.367955e-07
7.0501128e-07
6.7780016e-07
6.5177233e-07
6.2925184e-07
6.0724957e-07
5.8795855e-07
5.6935915e-07
5.5345054e-07
5.3722327e-07
5.2406578e-07
5.0977851e-07
4.9821712e-07
4.855925e-07
4.7570081e-07
4.6425328e-07
4.5535905e-07
4.4619231e-07
4.3852633e-07
4.3104795e-07
4.2546554e-07
4.1883575e-07
4.1449966e-07
4.0930028e-07
4.052682e-07
4.0126865e-07
3.9715019e-07
3.9390111e-07
3.8990227e-07
3.8591717e-07
3.8230641e-07
3.7932272e-07
3.7538832e-07
3.7194552e-07
3.6779783e-07
3.6496901e-07
3.6099268e-07
3.5797552e-07
3.5397327e-07
3.5114791e-07
3.4786843e-07
3.4550829e-07
3.4205485e-07
3.4027714e-07
3.3742614e-07
3.3603855e-07
3.3384203e-07
3.3284304e-07
3.3109798e-07
3.304812e-07
3.2965805e-07
3.2973265e-07
3.2983407e-07
3.3066133e-07
3.3165705e-07
3.3388099e-07
3.3518674e-07
3.3835919e-07
3.4177714e-07
3.4716898e-07
3.4961215e-07
3.5492311e-07
3.628682e-07
3.7414211e-07
3.7874221e-07
3.8674802e-07
3.9469742e-07
4.1544149e-07
4.2711794e-07
4.4210148e-07
4.4961941e-07
4.6655685e-07
4.7737658e-07
4.9926138e-07
3.9259362e-06
2.9859943e-06
2.4074349e-06
2.0200214e-06
1.7426376e-06
1.5342174e-06
1.3721194e-06
1.242829e-06
1.1377246e-06
1.0508766e-06
9.7754712e-07
9.1486165e-07
8.6050066e-07
8.1376555e-07
7.7267424e-07
7.3757776e-07
7.0573555e-07
6.7853236e-07
6.5249196e-07
6.2991509e-07
6.0798225e-07
5.8865476e-07
5.6997722e-07
5.5415258e-07
5.3785645e-07
5.2464804e-07
5.1043108e-07
4.9880402e-07
4.8630278e-07
4.7626131e-07
4.6481985e-07
4.5605703e-07
4.4660441e-07
4.391381e-07
4.314799e-07
4.2584514e-07
4.1921071e-07
4.1495606e-07
4.0965331e-07
4.0561841e-07
4.0148106e-07
3.9768897e-07
3.9414155e-07
3.9010467e-07
3.8619261e-07
3.8282114e-07
3.7958059e-07
3.7561446e-07
3.7233668e-07
3.6824142e-07
3.6525442e-07
3.6136534e-07
3.5831299e-07
3.5437059e-07
3.5153481e-07
3.480389e-07
3.4581183e-07
3.4236404e-07
3.404001e-07
3.3750745e-07
3.3622095e-07
3.3376055e-07
3.3273702e-07
3.3092387e-07
3.3035755e-07
3.2930961e-07
3.2927186e-07
3.29413e-07
3.3004169e-07
3.3057419e-07
3.3235197e-07
3.3366773e-07
3.3682619e-07
3.3849472e-07
3.4295354e-07
3.4621364e-07
3.5298968e-07
3.5933873e-07
3.6848561e-07
3.7285958e-07
3.8008354e-07
3.8593766e-07
4.0193268e-07
4.1838909e-07
4.3239894e-07
4.3796063e-07
4.5074415e-07
4.6063547e-07
4.8231985e-07
3.9268653e-06
2.9873546e-06
2.4088586e-06
2.0214283e-06
1.7439838e-06
1.5354915e-06
1.373328e-06
1.2439706e-06
1.1388079e-06
1.0519052e-06
9.7853475e-07
9.1580551e-07
8.6141022e-07
8.1462417e-07
7.7347913e-07
7.3834006e-07
7.0645265e-07
6.7924944e-07
6.5320547e-07
6.3058641e-07
6.0871193e-07
5.8934053e-07
5.7063524e-07
5.548347e-07
5.3851921e-07
5.2522387e-07
5.1115414e-07
4.9935573e-07
4.8701935e-07
4.7678447e-07
4.6543585e-07
4.5670097e-07
4.4707864e-07
4.3971355e-07
4.3192302e-07
4.2629101e-07
4.1957542e-07
4.1546123e-07
4.101176e-07
4.0600673e-07
4.0178193e-07
3.9827499e-07
3.9448611e-07
3.9048642e-07
3.8664082e-07
3.8347209e-07
3.8009117e-07
3.7610438e-07
3.7285472e-07
3.6894483e-07
3.6578874e-07
3.6181444e-07
3.5892352e-07
3.5500016e-07
3.5220504e-07
3.4854512e-07
3.4624452e-07
3.4293148e-07
3.4084853e-07
3.3795545e-07
3.364264e-07
3.3387875e-07
3.3285749e-07
3.3102473e-07
3.3019717e-07
3.2908585e-07
3.2894652e-07
3.2902211e-07
3.2946321e-07
3.2979472e-07
3.3079399e-07
3.3212348e-07
3.3562779e-07
3.3848179e-07
3.4123934e-07
3.4248467e-07
3.4743176e-07
3.5452289e-07
3.6575643e-07
3.7132732e-07
3.7516074e-07
3.7840274e-07
3.8573631e-07
4.0450729e-07
4.2722536e-07
4.3454706e-07
4.4648758e-07
4.5341186e-07
4.6919188e-07
3.9277625e-06
2.9886669e-06
2.4102333e-06
2.0227688e-06
1.7452742e-06
1.5367308e-06
1.3745001e-06
1.2450638e-06
1.1398495e-06
1.052893e-06
9.7949545e-07
9.1672119e-07
8.6228892e-07
8.1544046e-07
7.7424881e-07
7.3906663e-07
7.0714108e-07
6.799281e-07
6.5388359e-07
6.3121092e-07
6.0936993e-07
5.9000153e-07
5.7122069e-07
5.5541991e-07
5.3912435e-07
5.2574454e-07
5.1180474e-07
4.9988332e-07
4.8766212e-07
4.7724605e-07
4.6600767e-07
4.5719531e-07
4.4754906e-07
4.4020133e-07
4.3232498e-07
4.2665974e-07
4.199107e-07
4.158098e-07
4.1044249e-07
4.0637538e-07
4.0196016e-07
3.986454e-07
3.9472688e-07
3.9079779e-07
3.8688784e-07
3.8384109e-07
3.8037383e-07
3.7653002e-07
3.7312224e-07
3.6933113e-07
3.6614218e-07
3.6213987e-07
3.5925509e-07
3.5535267e-07
3.5261392e-07
3.4885945e-07
3.4641528e-07
3.4326938e-07
3.4092464e-07
3.3819345e-07
3.3647108e-07
3.3396554e-07
3.3271309e-07
3.3116832e-07
3.2997099e-07
3.2893318e-07
3.2869619e-07
3.2839336e-07
3.2862546e-07
3.2937159e-07
3.2988756e-07
3.305108e-07
3.329455e-07
3.3714282e-07
3.397065e-07
3.4105695e-07
3.4381426e-07
3.4848182e-07
3.6074862e-07
3.6920324e-07
3.746922e-07
3.7643899e-07
3.80006e-07
3.8988675e-07
4.1660081e-07
4.3151956e-07
4.4404141e-07
4.4842613e-07
4.5740496e-07
3.9286229e-06
2.9899301e-06
2.4115601e-06
2.0240774e-06
1.7465282e-06
1.5379267e-06
1.3756197e-06
1.2461273e-06
1.1408616e-06
1.0538412e-06
9.8041253e-07
9.1759792e-07
8.6314419e-07
8.1623443e-07
7.7500741e-07
7.397573e-07
7.0781682e-07
6.8056154e-07
6.5454529e-07
6.3183575e-07
6.1002683e-07
5.9066357e-07
5.7183405e-07
5.5599226e-07
5.3974754e-07
5.2625986e-07
5.1243683e-07
5.0041349e-07
4.8828796e-07
4.7773604e-07
4.666186e-07
4.5769157e-07
4.4808614e-07
4.4063513e-07
4.3281165e-07
4.2698251e-07
4.2026212e-07
4.1622684e-07
4.1069386e-07
4.0681077e-07
4.0231194e-07
3.9889852e-07
3.9503725e-07
3.9120485e-07
3.8714288e-07
3.8418421e-07
3.8069634e-07
3.7700252e-07
3.7355281e-07
3.6975989e-07
3.6652199e-07
3.6259248e-07
3.5959713e-07
3.5573978e-07
3.5305068e-07
3.4925523e-07
3.4668189e-07
3.4346254e-07
3.4118312e-07
3.3840122e-07
3.3649853e-07
3.3400614e-07
3.3260674e-07
3.3098988e-07
3.2975565e-07
3.2874955e-07
3.2847697e-07
3.2773689e-07
3.2779724e-07
3.2808606e-07
3.2925102e-07
3.2997708e-07
3.3105338e-07
3.3322614e-07
3.3817601e-07
3.4134578e-07
3.4315603e-07
3.4538641e-07
3.5204887e-07
3.6320817e-07
3.7383547e-07
3.7725595e-07
3.7895884e-07
3.8237138e-07
3.956573e-07
4.1712613e-07
4.364362e-07
4.4369004e-07
4.5167629e-07
3.9294629e-06
2.9911551e-06
2.4128427e-06
2.0253326e-06
1.7477241e-06
1.5390767e-06
1.3767121e-06
1.2471516e-06
1.1418334e-06
1.0547584e-06
9.8130209e-07
9.1845235e-07
8.6396895e-07
8.1699116e-07
7.7573633e-07
7.4041073e-07
7.0847577e-07
6.8115581e-07
6.5518455e-07
6.3243535e-07
6.1064792e-07
5.9129318e-07
5.7243532e-07
5.5651975e-07
5.4033843e-07
5.2673712e-07
5.1301419e-07
5.0093681e-07
4.8884266e-07
4.7818448e-07
4.6715108e-07
4.5808904e-07
4.4862357e-07
4.4098547e-07
4.3325795e-07
4.2722898e-07
4.205579e-07
4.1653755e-07
4.1086352e-07
4.0703995e-07
4.0261627e-07
3.9899734e-07
3.9512509e-07
3.9145166e-07
3.8726964e-07
3.8426522e-07
3.808054e-07
3.7722965e-07
3.7368741e-07
3.6991289e-07
3.6663017e-07
3.6271758e-07
3.5966166e-07
3.5584235e-07
3.5310203e-07
3.4940498e-07
3.4668023e-07
3.4337294e-07
3.4122587e-07
3.3828218e-07
3.364711e-07
3.338618e-07
3.3229055e-07
3.3064339e-07
3.2947263e-07
3.282507e-07
3.2782838e-07
3.2713519e-07
3.2705471e-07
3.2712491e-07
3.2806602e-07
3.2947301e-07
3.3000822e-07
3.3110372e-07
3.3546945e-07
3.4059099e-07
3.4265023e-07
3.4384584e-07
3.4686307e-07
3.544451e-07
3.6893724e-07
3.7667731e-07
3.7917343e-07
3.8087077e-07
3.8565698e-07
3.9661173e-07
4.2066962e-07
4.3529551e-07
4.4712312e-07
3.9302569e-06
2.9923283e-06
2.4140765e-06
2.0265464e-06
1.7488943e-06
1.5401909e-06
1.3777625e-06
1.2481359e-06
1.1427758e-06
1.0556472e-06
9.8216252e-07
9.1926557e-07
8.6475861e-07
8.1771394e-07
7.7644803e-07
7.4103015e-07
7.0911527e-07
6.8171015e-07
6.5580096e-07
6.3298996e-07
6.1122375e-07
5.9186516e-07
5.7299876e-07
5.5698149e-07
5.4087895e-07
5.2717019e-07
5.1352372e-07
5.0140584e-07
4.8935252e-07
4.7861428e-07
4.6767217e-07
4.5841629e-07
4.4909101e-07
4.4130843e-07
4.3356622e-07
4.2734832e-07
4.2073185e-07
4.1664026e-07
4.1089738e-07
4.0706871e-07
4.0270149e-07
3.9898284e-07
3.9508312e-07
3.9150854e-07
3.8731072e-07
3.8423812e-07
3.8075657e-07
3.7733419e-07
3.7366903e-07
3.6989943e-07
3.6658498e-07
3.6265881e-07
3.5950003e-07
3.5577371e-07
3.5289026e-07
3.4930955e-07
3.4657553e-07
3.4303289e-07
3.4101617e-07
3.3793185e-07
3.3621345e-07
3.333474e-07
3.319131e-07
3.2989602e-07
3.2877266e-07
3.2746383e-07
3.2709308e-07
3.2634754e-07
3.2619631e-07
3.2622574e-07
3.2684026e-07
3.2794403e-07
3.2876745e-07
3.2983085e-07
3.3306676e-07
3.3673486e-07
3.412518e-07
3.4295999e-07
3.4634631e-07
3.4958873e-07
3.5806809e-07
3.7067867e-07
3.7817555e-07
3.8049593e-07
3.8379209e-07
3.8913327e-07
4.0345248e-07
4.2183232e-07
4.3949812e-07
3.931045e-06
2.9934727e-06
2.4152688e-06
2.0277187e-06
1.7500132e-06
1.5412565e-06
1.3787737e-06
1.2490927e-06
1.1436804e-06
1.0564887e-06
9.8298317e-07
9.2004373e-07
8.6552095e-07
8.1839287e-07
7.7712635e-07
7.4158951e-07
7.0972987e-07
6.8220833e-07
6.5638816e-07
6.3350046e-07
6.1175274e-07
5.9236187e-07
5.7351872e-07
5.5737628e-07
5.4135804e-07
5.275393e-07
5.1395181e-07
5.0177862e-07
4.897519e-07
4.7891715e-07
4.6801397e-07
4.5861766e-07
4.493304e-07
4.4140937e-07
4.336872e-07
4.2725798e-07
4.2078994e-07
4.1654853e-07
4.1077537e-07
4.0685868e-07
4.0256341e-07
3.9873709e-07
3.9477626e-07
3.9115425e-07
3.8706902e-07
3.8388242e-07
3.8026318e-07
3.7695432e-07
3.7331994e-07
3.6948091e-07
3.6609526e-07
3.6216242e-07
3.5898178e-07
3.551713e-07
3.5226477e-07
3.4861121e-07
3.4591778e-07
3.4230164e-07
3.402096e-07
3.3710419e-07
3.3521861e-07
3.3250947e-07
3.3090863e-07
3.2862293e-07
3.2767405e-07
3.2624866e-07
3.258191e-07
3.2489103e-07
3.2458911e-07
3.2456727e-07
3.2511237e-07
3.2579259e-07
3.2725679e-07
3.2827271e-07
3.3110452e-07
3.3308933e-07
3.3800232e-07
3.4043227e-07
3.4485799e-07
3.4758869e-07
3.5190064e-07
3.6169469e-07
3.7275228e-07
3.7724858e-07
3.8091247e-07
3.8435006e-07
3.928476e-07
4.0425239e-07
4.2516372e-07
3.931777e-06
2.9945622e-06
2.4164143e-06
2.0288484e-06
1.751095e-06
1.5422854e-06
1.3797537e-06
1.2500019e-06
1.1445381e-06
1.0572863e-06
9.8376785e-07
9.207747e-07
8.6623894e-07
8.1901238e-07
7.7775847e-07
7.4208661e-07
7.1030188e-07
6.8262315e-07
6.5692077e-07
6.3391407e-07
6.1222978e-07
5.9272113e-07
5.7394825e-07
5.5763081e-07
5.4165651e-07
5.2771993e-07
5.1413959e-07
5.0188917e-07
4.8988424e-07
4.7894595e-07
4.6807798e-07
4.5853228e-07
4.4929076e-07
4.4123334e-07
4.3346239e-07
4.2678544e-07
4.2044271e-07
4.1595839e-07
4.1022941e-07
4.0610264e-07
4.0181226e-07
3.97904e-07
3.9393568e-07
3.901532e-07
3.861206e-07
3.8286953e-07
3.7921462e-07
3.7580612e-07
3.7225283e-07
3.6834103e-07
3.6489916e-07
3.6087449e-07
3.5769454e-07
3.5381827e-07
3.5082644e-07
3.4699141e-07
3.4435793e-07
3.4068921e-07
3.385535e-07
3.3534177e-07
3.3346101e-07
3.3057983e-07
3.2899665e-07
3.2685089e-07
3.2564673e-07
3.2400797e-07
3.2342448e-07
3.2256031e-07
3.2234222e-07
3.223389e-07
3.2258246e-07
3.2329251e-07
3.2527223e-07
3.2604757e-07
3.2800053e-07
3.2985346e-07
3.3417037e-07
3.3657414e-07
3.4115388e-07
3.4367166e-07
3.4752996e-07
3.5337614e-07
3.6286047e-07
3.6847666e-07
3.7278737e-07
3.7492247e-07
3.8015405e-07
3.8597775e-07
4.005752e-07
3.9325203e-06
2.9956328e-06
2.4175248e-06
2.0299423e-06
1.7521373e-06
1.543271e-06
1.3806851e-06
1.2508617e-06
1.1453531e-06
1.0580334e-06
9.8450518e-07
9.2142672e-07
8.6689095e-07
8.1952817e-07
7.7833657e-07
7.4245455e-07
7.1076368e-07
6.8287148e-07
6.572703e-07
6.3411922e-07
6.1247829e-07
5.928076e-07
5.7411392e-07
5.5757784e-07
5.4166791e-07
5.2758664e-07
5.140234e-07
5.0165227e-07
4.8965196e-07
4.7857154e-07
4.676747e-07
4.5794936e-07
4.4868398e-07
4.4045323e-07
4.3259158e-07
4.2565343e-07
4.1935373e-07
4.1453091e-07
4.08896e-07
4.0443437e-07
4.0014162e-07
3.9615325e-07
3.9215463e-07
3.8822848e-07
3.8421736e-07
3.808052e-07
3.7720476e-07
3.736804e-07
3.7011385e-07
3.6608737e-07
3.6264349e-07
3.5852922e-07
3.553236e-07
3.5137259e-07
3.4833278e-07
3.4434295e-07
3.4163691e-07
3.3795051e-07
3.3575771e-07
3.3256902e-07
3.3044887e-07
3.2744127e-07
3.2604417e-07
3.2353751e-07
3.2238265e-07
3.2062756e-07
3.200315e-07
3.1909459e-07
3.1884797e-07
3.1883487e-07
3.1896741e-07
3.1947758e-07
3.214096e-07
3.2247267e-07
3.2334944e-07
3.2474078e-07
3.2881259e-07
3.3233686e-07
3.3619224e-07
3.3787749e-07
3.4050078e-07
3.4372885e-07
3.5097798e-07
3.565178e-07
3.6157172e-07
3.637808e-07
3.6777985e-07
3.7092824e-07
3.7957631e-07
3.9331938e-06
2.9966419e-06
2.4185861e-06
2.0309837e-06
1.753131e-06
1.5441937e-06
1.3815655e-06
1.2516579e-06
1.1460993e-06
1.0586757e-06
9.8514812e-07
9.2195173e-07
8.6739626e-07
8.198263e-07
7.7867459e-07
7.425277e-07
7.1094379e-07
6.8276356e-07
6.5729693e-07
6.3389934e-07
6.1233737e-07
5.923649e-07
5.7378521e-07
5.5692248e-07
5.4104001e-07
5.2673672e-07
5.1314969e-07
5.0061993e-07
4.8854769e-07
4.7727918e-07
4.6630701e-07
4.5637243e-07
4.4699022e-07
4.3852135e-07
4.3049552e-07
4.2326177e-07
4.1692975e-07
4.1168023e-07
4.0612121e-07
4.0128019e-07
3.9689899e-07
3.9282142e-07
3.8876629e-07
3.8467811e-07
3.8072265e-07
3.771003e-07
3.7350934e-07
3.6993162e-07
3.6636192e-07
3.6220156e-07
3.5869869e-07
3.5456724e-07
3.5131177e-07
3.4721616e-07
3.4419151e-07
3.3999834e-07
3.3728594e-07
3.3355226e-07
3.3132046e-07
3.2810084e-07
3.2585757e-07
3.2287451e-07
3.2125271e-07
3.1868631e-07
3.1766556e-07
3.1599877e-07
3.1497509e-07
3.1381368e-07
3.1362676e-07
3.136545e-07
3.1394295e-07
3.1419265e-07
3.1499039e-07
3.1631541e-07
3.181929e-07
3.1931578e-07
3.2247147e-07
3.2552692e-07
3.2901736e-07
3.3038823e-07
3.3298709e-07
3.3489954e-07
3.393788e-07
3.4413693e-07
3.4986358e-07
3.5241476e-07
3.5645932e-07
3.5863479e-07
3.643794e-07
3.9338973e-06
2.9976377e-06
2.4196077e-06
2.031978e-06
1.7540697e-06
1.5450269e-06
1.3823615e-06
1.252328e-06
1.1466886e-06
1.0590962e-06
9.8553373e-07
9.2214127e-07
8.6753568e-07
8.1965218e-07
7.7857285e-07
7.4199546e-07
7.1054419e-07
6.8193076e-07
6.5656883e-07
6.3280609e-07
6.1129458e-07
5.908749e-07
5.7237013e-07
5.5508348e-07
5.3918784e-07
5.2458067e-07
5.1091903e-07
4.9819693e-07
4.8598388e-07
4.7449782e-07
4.6340467e-07
4.5324293e-07
4.4366599e-07
4.349078e-07
4.2665871e-07
4.1908728e-07
4.1264197e-07
4.0692537e-07
4.0139162e-07
3.9615099e-07
3.9163187e-07
3.8742136e-07
3.8336635e-07
3.7913634e-07
3.7521599e-07
3.7148924e-07
3.678618e-07
3.6428922e-07
3.6080796e-07
3.5662931e-07
3.5304938e-07
3.4888823e-07
3.4562219e-07
3.4149954e-07
3.3838518e-07
3.3403157e-07
3.3133304e-07
3.2746982e-07
3.2527927e-07
3.2182287e-07
3.1974694e-07
3.1649628e-07
3.1485523e-07
3.1225276e-07
3.1102299e-07
3.0919283e-07
3.0807524e-07
3.0692996e-07
3.0677795e-07
3.0663555e-07
3.0695853e-07
3.0703589e-07
3.0770019e-07
3.08865e-07
3.1130093e-07
3.1230875e-07
3.1462202e-07
3.1657267e-07
3.200674e-07
3.215972e-07
3.2468717e-07
3.2646019e-07
3.299621e-07
3.3284226e-07
3.3803948e-07
3.405618e-07
3.4500265e-07
3.4697741e-07
3.5182851e-07
3.9345201e-06
2.9985588e-06
2.4205591e-06
2.0328873e-06
1.7548942e-06
1.5457095e-06
1.3829279e-06
1.2526761e-06
1.1468614e-06
1.059e-06
9.8533759e-07
9.2160666e-07
8.6683139e-07
8.1842347e-07
7.7735037e-07
7.4015078e-07
7.0877292e-07
6.7955969e-07
6.5424234e-07
6.2999166e-07
6.0849054e-07
5.8746831e-07
5.6897927e-07
5.511863e-07
5.3525841e-07
5.2028684e-07
5.0653987e-07
4.9360029e-07
4.8122006e-07
4.695052e-07
4.5822812e-07
4.4780703e-07
4.3798838e-07
4.2886188e-07
4.2032662e-07
4.1230707e-07
4.0562708e-07
3.9938356e-07
3.9376598e-07
3.8811726e-07
3.8345566e-07
3.7896589e-07
3.7504232e-07
3.7067019e-07
3.6676738e-07
3.6298831e-07
3.5937887e-07