/*--------------------------------*- C++ -*----------------------------------*\
| =========                 |                                                 |
| \\      /  F ield         | OpenFOAM: The Open Source CFD Toolbox           |
|  \\    /   O peration     | Version:  2406                                  |
|   \\  /    A nd           | Website:  www.openfoam.com                      |
|    \\/     M anipulation  |                                                 |
\*---------------------------------------------------------------------------*/
FoamFile
{
    version     2.0;
    format      ascii;
    arch        "LSB;label=32;scalar=64";
    class       volScalarField;
    location    "30";
    object      nut;
}
// * * * * * * * * * * * * * * * * * * * * * * * * * * * * * * * * * * * * * //

dimensions      [0 2 -1 0 0 0 0];

internalField   nonuniform List<scalar> 
158064
(
9.6808637e-07
9.4750611e-07
9.3106784e-07
9.1823717e-07
9.0768835e-07
8.9864397e-07
8.9067342e-07
8.83736e-07
8.7773612e-07
8.7242414e-07
8.6736315e-07
8.6258484e-07
8.5777828e-07
8.5362257e-07
8.4978095e-07
8.4706117e-07
8.4460521e-07
8.4252181e-07
8.4072988e-07
8.386683e-07
8.3717918e-07
8.3512327e-07
8.3373211e-07
8.3197528e-07
8.3110302e-07
8.2876567e-07
8.2762419e-07
8.2509438e-07
8.2283685e-07
8.1977733e-07
8.1806276e-07
8.156792e-07
8.141792e-07
8.1306319e-07
8.1318296e-07
8.1288614e-07
8.1417861e-07
8.1446534e-07
8.1709172e-07
8.1816255e-07
8.198173e-07
8.2082558e-07
8.2192686e-07
8.2353965e-07
8.2416882e-07
8.2473607e-07
8.2520399e-07
8.250491e-07
8.2476348e-07
8.2448308e-07
8.2454332e-07
8.2443687e-07
8.2435629e-07
8.2492931e-07
8.2507557e-07
8.2550626e-07
8.2570121e-07
8.2597093e-07
8.267406e-07
8.2827705e-07
8.3165172e-07
8.3508399e-07
8.3908872e-07
8.4552146e-07
8.4997455e-07
8.6111034e-07
8.6939953e-07
8.8858771e-07
9.0083994e-07
9.2809507e-07
9.4570176e-07
9.8412772e-07
1.0067871e-06
1.0498632e-06
1.0914154e-06
1.1421619e-06
1.1745871e-06
1.2244822e-06
1.2793565e-06
1.3080791e-06
1.3550866e-06
1.3937009e-06
1.4735751e-06
1.5275597e-06
1.6083551e-06
1.6499736e-06
1.7318848e-06
1.7889629e-06
1.9326162e-06
9.6811995e-07
9.4756403e-07
9.311357e-07
9.1831075e-07
9.0777127e-07
8.9873138e-07
8.9076855e-07
8.8382806e-07
8.7781829e-07
8.7252431e-07
8.6747525e-07
8.6271459e-07
8.5789727e-07
8.5376495e-07
8.4987224e-07
8.4717954e-07
8.4469171e-07
8.4267958e-07
8.4081556e-07
8.3893724e-07
8.3728556e-07
8.3543417e-07
8.3391177e-07
8.3228376e-07
8.3129306e-07
8.2920184e-07
8.2786131e-07
8.2548647e-07
8.2319304e-07
8.2023189e-07
8.182978e-07
8.1607072e-07
8.1418589e-07
8.132013e-07
8.1310573e-07
8.1291114e-07
8.136115e-07
8.1419609e-07
8.1663185e-07
8.1766216e-07
8.1914711e-07
8.2028406e-07
8.2182921e-07
8.2300285e-07
8.2390997e-07
8.2415561e-07
8.2470461e-07
8.2448951e-07
8.2466609e-07
8.2423554e-07
8.2419955e-07
8.2424622e-07
8.2434663e-07
8.2490419e-07
8.2515405e-07
8.2558019e-07
8.2564923e-07
8.2626605e-07
8.274274e-07
8.2833098e-07
8.3158148e-07
8.3388115e-07
8.3779163e-07
8.4204149e-07
8.450964e-07
8.5217217e-07
8.5638417e-07
8.6701618e-07
8.73734e-07
8.9103174e-07
9.0160126e-07
9.2697098e-07
9.4225692e-07
9.6761278e-07
1.0130573e-06
1.0431857e-06
1.0965549e-06
1.1295503e-06
1.1991562e-06
1.2409895e-06
1.3095045e-06
1.3450873e-06
1.4185032e-06
1.4589113e-06
1.5364693e-06
1.5756167e-06
1.6519308e-06
1.6939428e-06
1.7988339e-06
9.6815034e-07
9.4761479e-07
9.3119823e-07
9.183816e-07
9.0784826e-07
8.9880999e-07
8.9085543e-07
8.8390646e-07
8.7788746e-07
8.7259954e-07
8.675648e-07
8.6280518e-07
8.5799045e-07
8.5385867e-07
8.4993415e-07
8.4721083e-07
8.4466902e-07
8.4269998e-07
8.4075376e-07
8.3894307e-07
8.3715266e-07
8.3535503e-07
8.3371073e-07
8.3210226e-07
8.3100463e-07
8.290392e-07
8.2757538e-07
8.253076e-07
8.2297151e-07
8.2009745e-07
8.1801023e-07
8.1593234e-07
8.1383971e-07
8.1294039e-07
8.1279507e-07
8.1243346e-07
8.1309206e-07
8.1364701e-07
8.1620567e-07
8.1697641e-07
8.1875993e-07
8.1965421e-07
8.2188418e-07
8.2240278e-07
8.2382641e-07
8.2378731e-07
8.2456014e-07
8.241557e-07
8.247296e-07
8.237817e-07
8.2399281e-07
8.2353913e-07
8.2398128e-07
8.2387332e-07
8.2483026e-07
8.2406957e-07
8.2494329e-07
8.2511048e-07
8.2648003e-07
8.2703063e-07
8.2940003e-07
8.32405e-07
8.3480891e-07
8.3884109e-07
8.4192362e-07
8.4700546e-07
8.5158758e-07
8.5849796e-07
8.6840542e-07
8.7399632e-07
8.9013889e-07
8.9954583e-07
9.210608e-07
9.3494393e-07
9.6315183e-07
9.817256e-07
1.0193496e-06
1.0451481e-06
1.1013141e-06
1.1339004e-06
1.1991998e-06
1.2352739e-06
1.3067866e-06
1.347566e-06
1.4289785e-06
1.4709047e-06
1.5518135e-06
1.5938924e-06
1.6921113e-06
9.6818744e-07
9.4767364e-07
9.3126741e-07
9.1845455e-07
9.0793072e-07
8.9889916e-07
8.9094956e-07
8.8399825e-07
8.7797499e-07
8.7269505e-07
8.6767471e-07
8.6292724e-07
8.5811507e-07
8.539803e-07
8.5003064e-07
8.472955e-07
8.4475164e-07
8.4284624e-07
8.4083435e-07
8.3917158e-07
8.3729284e-07
8.3562172e-07
8.338901e-07
8.3240346e-07
8.3120885e-07
8.2953162e-07
8.2795851e-07
8.2597133e-07
8.2353104e-07
8.2078247e-07
8.1861717e-07
8.1638937e-07
8.1422422e-07
8.1351569e-07
8.1307708e-07
8.1244791e-07
8.1316626e-07
8.1387567e-07
8.163243e-07
8.1670597e-07
8.1885583e-07
8.1978902e-07
8.2232282e-07
8.22427e-07
8.2383363e-07
8.2377708e-07
8.2468688e-07
8.2423301e-07
8.2491904e-07
8.2375684e-07
8.2400539e-07
8.2334103e-07
8.2398083e-07
8.2365367e-07
8.2424222e-07
8.2395801e-07
8.2412008e-07
8.2428279e-07
8.2555759e-07
8.2606237e-07
8.2745836e-07
8.3011581e-07
8.3195874e-07
8.3556817e-07
8.3878166e-07
8.4131037e-07
8.4671159e-07
8.5050852e-07
8.5919684e-07
8.6518619e-07
8.7785346e-07
8.8590313e-07
9.0289343e-07
9.1366081e-07
9.3766782e-07
9.5286369e-07
9.8331845e-07
1.0022217e-06
1.0427066e-06
1.0699076e-06
1.124643e-06
1.1529775e-06
1.2089534e-06
1.2419499e-06
1.3100091e-06
1.3490599e-06
1.4265838e-06
1.4673487e-06
1.5669319e-06
9.6821712e-07
9.4772172e-07
9.3132644e-07
9.1851893e-07
9.0800207e-07
8.9897366e-07
8.9102892e-07
8.8407515e-07
8.7804342e-07
8.7276806e-07
8.6776211e-07
8.6301581e-07
8.582083e-07
8.5406198e-07
8.500942e-07
8.4732882e-07
8.4475347e-07
8.428888e-07
8.4081129e-07
8.3922419e-07
8.3723859e-07
8.3559094e-07
8.3382051e-07
8.3237285e-07
8.3102163e-07
8.2952284e-07
8.2780378e-07
8.2593893e-07
8.2334633e-07
8.2068744e-07
8.1845045e-07
8.161429e-07
8.1398791e-07
8.1339291e-07
8.126951e-07
8.1207114e-07
8.1273939e-07
8.13549e-07
8.1589181e-07
8.1614606e-07
8.183592e-07
8.1934019e-07
8.2196454e-07
8.2189755e-07
8.2326094e-07
8.2331108e-07
8.2422271e-07
8.2375228e-07
8.2453452e-07
8.2326182e-07
8.2342841e-07
8.2274969e-07
8.2343243e-07
8.2295937e-07
8.2327483e-07
8.230039e-07
8.2313519e-07
8.2299818e-07
8.2420359e-07
8.2536772e-07
8.2656035e-07
8.2820897e-07
8.3017441e-07
8.3324605e-07
8.3607182e-07
8.3859469e-07
8.4385228e-07
8.4739018e-07
8.5514888e-07
8.6016902e-07
8.7105552e-07
8.7701355e-07
8.9148301e-07
9.009739e-07
9.2015761e-07
9.3069239e-07
9.5466425e-07
9.7069433e-07
1.0033076e-06
1.0232983e-06
1.0660122e-06
1.0900221e-06
1.136958e-06
1.1624566e-06
1.2154478e-06
1.2466622e-06
1.3105218e-06
1.3459023e-06
1.4348043e-06
9.6825021e-07
9.4777399e-07
9.3138738e-07
9.1858378e-07
9.0807502e-07
8.9905079e-07
8.9111355e-07
8.8415578e-07
8.7811911e-07
8.7285011e-07
8.6786481e-07
8.6311837e-07
8.5832371e-07
8.5416614e-07
8.5019293e-07
8.4741478e-07
8.4480938e-07
8.4301388e-07
8.4086155e-07
8.3942142e-07
8.373192e-07
8.3574747e-07
8.3392845e-07
8.3259259e-07
8.3106705e-07
8.2983199e-07
8.2794419e-07
8.2640613e-07
8.235692e-07
8.2125341e-07
8.188967e-07
8.1646779e-07
8.1460009e-07
8.1371596e-07
8.1268363e-07
8.1267179e-07
8.1293006e-07
8.136248e-07
8.1578918e-07
8.1624741e-07
8.1861661e-07
8.1940335e-07
8.2188717e-07
8.2224547e-07
8.2373084e-07
8.234434e-07
8.2421558e-07
8.2399959e-07
8.2505058e-07
8.238273e-07
8.2388635e-07
8.2296308e-07
8.2363679e-07
8.2328303e-07
8.2332906e-07
8.2267975e-07
8.2284621e-07
8.2234974e-07
8.2314458e-07
8.2412786e-07
8.2520048e-07
8.2660764e-07
8.2791234e-07
8.3063059e-07
8.3313382e-07
8.3576854e-07
8.4002445e-07
8.4299965e-07
8.495908e-07
8.5420621e-07
8.6451797e-07
8.7022933e-07
8.8235146e-07
8.9020573e-07
9.0804566e-07
9.177256e-07
9.3865868e-07
9.5144361e-07
9.7892736e-07
9.9679443e-07
1.033455e-06
1.0538148e-06
1.0934854e-06
1.112946e-06
1.1527022e-06
1.176415e-06
1.2258123e-06
1.2548361e-06
1.3270482e-06
9.6827815e-07
9.4781896e-07
9.3144184e-07
9.1864227e-07
9.0814004e-07
8.9912204e-07
8.9118962e-07
8.8422999e-07
8.7818414e-07
8.7292422e-07
8.679476e-07
8.6320409e-07
8.5841913e-07
8.5424428e-07
8.5026596e-07
8.4745662e-07
8.4482218e-07
8.4306802e-07
8.4086296e-07
8.395003e-07
8.373023e-07
8.3577146e-07
8.3391635e-07
8.3264898e-07
8.3100149e-07
8.2992649e-07
8.2792498e-07
8.265173e-07
8.235021e-07
8.2147146e-07
8.1890993e-07
8.1637507e-07
8.1458836e-07
8.1355334e-07
8.1232236e-07
8.1264295e-07
8.1263628e-07
8.1331856e-07
8.1536893e-07
8.1599688e-07
8.1839814e-07
8.1913292e-07
8.2142869e-07
8.2211732e-07
8.2355652e-07
8.2305216e-07
8.2367666e-07
8.2370521e-07
8.2482107e-07
8.2372e-07
8.2359154e-07
8.2267037e-07
8.2310768e-07
8.229304e-07
8.2297339e-07
8.2186449e-07
8.221633e-07
8.217871e-07
8.2225791e-07
8.2317527e-07
8.2411034e-07
8.2538716e-07
8.2606869e-07
8.2862859e-07
8.3048911e-07
8.33479e-07
8.3687485e-07
8.3973845e-07
8.4588381e-07
8.4962224e-07
8.5861366e-07
8.6386126e-07
8.7389321e-07
8.8021909e-07
8.955217e-07
9.0530347e-07
9.245844e-07
9.3533429e-07
9.592258e-07
9.7376056e-07
1.0031075e-06
1.0204678e-06
1.0577946e-06
1.0774878e-06
1.1122986e-06
1.1300434e-06
1.1658531e-06
1.1879662e-06
1.243244e-06
9.6830805e-07
9.4786581e-07
9.3149644e-07
9.1870146e-07
9.0820616e-07
8.991913e-07
8.9126417e-07
8.8430135e-07
8.7825126e-07
8.7299585e-07
8.6803916e-07
8.6330165e-07
8.5851871e-07
8.5433962e-07
8.5034808e-07
8.4753536e-07
8.4485772e-07
8.4316546e-07
8.409251e-07
8.3964165e-07
8.373611e-07
8.3589505e-07
8.3400641e-07
8.3279891e-07
8.3103454e-07
8.3017177e-07
8.2800986e-07
8.267517e-07
8.2360841e-07
8.220149e-07
8.190621e-07
8.1669998e-07
8.1500025e-07
8.1361501e-07
8.1240699e-07
8.1312529e-07
8.1270721e-07
8.1356906e-07
8.151543e-07
8.1610865e-07
8.1844623e-07
8.1913235e-07
8.2141003e-07
8.2229492e-07
8.234715e-07
8.2289735e-07
8.2384319e-07
8.2410948e-07
8.2500901e-07
8.2392135e-07
8.2398556e-07
8.2303429e-07
8.2324179e-07
8.2281981e-07
8.2296318e-07
8.2187173e-07
8.2206657e-07
8.2166512e-07
8.2216088e-07
8.2240094e-07
8.2351388e-07
8.2400184e-07
8.2503229e-07
8.2706615e-07
8.2874084e-07
8.3147226e-07
8.3422164e-07
8.3673058e-07
8.4185346e-07
8.4492356e-07
8.5254518e-07
8.5715701e-07
8.6645414e-07
8.7251933e-07
8.8713957e-07
8.9657472e-07
9.1446559e-07
9.2303215e-07
9.409948e-07
9.5337393e-07
9.8169055e-07
9.9789049e-07
1.0294761e-06
1.046737e-06
1.0828206e-06
1.1000022e-06
1.1329044e-06
1.1500087e-06
1.1911238e-06
9.6833415e-07
9.479076e-07
9.3154663e-07
9.1875485e-07
9.0826452e-07
8.9925601e-07
8.913359e-07
8.8437157e-07
8.783171e-07
8.7306701e-07
8.6811866e-07
8.6338231e-07
8.5861002e-07
8.5442515e-07
8.504224e-07
8.4758422e-07
8.4487796e-07
8.4323126e-07
8.4093809e-07
8.397106e-07
8.3736966e-07
8.3593139e-07
8.3403906e-07
8.3287629e-07
8.3099414e-07
8.3028672e-07
8.2799875e-07
8.2680995e-07
8.2366012e-07
8.2228599e-07
8.1908439e-07
8.1675184e-07
8.1494765e-07
8.1345351e-07
8.1227413e-07
8.1310464e-07
8.1247355e-07
8.1338011e-07
8.1473716e-07
8.1583336e-07
8.1809932e-07
8.1874231e-07
8.2104784e-07
8.2213185e-07
8.2309078e-07
8.2255968e-07
8.236615e-07
8.2404078e-07
8.2470983e-07
8.2372818e-07
8.2387894e-07
8.2300129e-07
8.23087e-07
8.2238832e-07
8.2255237e-07
8.2158311e-07
8.2148193e-07
8.2116087e-07
8.217122e-07
8.2144913e-07
8.224981e-07
8.2317203e-07
8.2419833e-07
8.2563692e-07
8.2739939e-07
8.2971337e-07
8.3208682e-07
8.34864e-07
8.3908568e-07
8.4145217e-07
8.4708948e-07
8.526228e-07
8.6189049e-07
8.6650409e-07
8.7707107e-07
8.8531212e-07
9.0282086e-07
9.1182221e-07
9.2887751e-07
9.3849082e-07
9.5955791e-07
9.8069751e-07
1.011658e-06
1.026327e-06
1.0561664e-06
1.0714451e-06
1.1010019e-06
1.1153442e-06
1.1470271e-06
9.6836115e-07
9.4794994e-07
9.3159634e-07
9.1880855e-07
9.0832485e-07
8.9931995e-07
8.9140292e-07
8.8443622e-07
8.7837837e-07
8.7313089e-07
8.6820019e-07
8.634699e-07
8.5870548e-07
8.5450548e-07
8.5050202e-07
8.4764058e-07
8.4492137e-07
8.4329876e-07
8.4101113e-07
8.3978881e-07
8.3746089e-07
8.3602538e-07
8.340963e-07
8.3299714e-07
8.3105286e-07
8.3048014e-07
8.2807213e-07
8.2698766e-07
8.2386754e-07
8.2264436e-07
8.1922811e-07
8.1712232e-07
8.1510532e-07
8.1363453e-07
8.1248175e-07
8.1313741e-07
8.1238195e-07
8.1362714e-07
8.1464488e-07
8.1611129e-07
8.1807212e-07
8.1885051e-07
8.2108227e-07
8.2217052e-07
8.2284546e-07
8.2291737e-07
8.2423378e-07
8.2439684e-07
8.2469446e-07
8.2390785e-07
8.2425238e-07
8.23403e-07
8.2337339e-07
8.2237922e-07
8.2241894e-07
8.2176047e-07
8.2169583e-07
8.2108642e-07
8.215802e-07
8.211679e-07
8.2183683e-07
8.2248425e-07
8.233522e-07
8.2464527e-07
8.2575706e-07
8.2792614e-07
8.2986223e-07
8.3239674e-07
8.3581111e-07
8.384318e-07
8.4427323e-07
8.4816771e-07
8.5622508e-07
8.6089463e-07
8.7112062e-07
8.7764529e-07
8.9287562e-07
9.025773e-07
9.1912298e-07
9.2780343e-07
9.4579407e-07
9.6448401e-07
9.9260855e-07
1.0044445e-06
1.0281848e-06
1.0419565e-06
1.0707466e-06
1.087158e-06
1.1205121e-06
9.6838549e-07
9.4798883e-07
9.3164274e-07
9.1885822e-07
9.0837934e-07
8.9938296e-07
8.9146945e-07
8.8449881e-07
8.7844258e-07
8.7319736e-07
8.682759e-07
8.6354931e-07
8.5879636e-07
8.5458934e-07
8.505729e-07
8.47693e-07
8.4494682e-07
8.4334985e-07
8.4105885e-07
8.3980833e-07
8.3752761e-07
8.3606937e-07
8.3410972e-07
8.3308979e-07
8.3106207e-07
8.3054254e-07
8.2806038e-07
8.270474e-07
8.2403489e-07
8.2280881e-07
8.1924169e-07
8.1735662e-07
8.1512199e-07
8.1368635e-07
8.1243596e-07
8.1298499e-07
8.1217937e-07
8.1356241e-07
8.1433812e-07
8.159212e-07
8.1770339e-07
8.1857051e-07
8.2077322e-07
8.2186209e-07
8.2238848e-07
8.2273418e-07
8.2412488e-07
8.2422465e-07
8.2435673e-07
8.2361183e-07
8.2407207e-07
8.2325435e-07
8.232045e-07
8.2213922e-07
8.219757e-07
8.2153054e-07
8.2140605e-07
8.205824e-07
8.2094726e-07
8.2071722e-07
8.2109681e-07
8.2187429e-07
8.2257238e-07
8.2359927e-07
8.2463647e-07
8.265999e-07
8.2801186e-07
8.3061222e-07
8.3371694e-07
8.3607845e-07
8.4086821e-07
8.4416113e-07
8.5187755e-07
8.5656338e-07
8.6543027e-07
8.714927e-07
8.8688867e-07
8.9482727e-07
9.086446e-07
9.1608959e-07
9.3260356e-07
9.4461292e-07
9.7119565e-07
9.853821e-07
1.0130435e-06
1.0272069e-06
1.0552844e-06
1.0692574e-06
1.0986588e-06
9.6840995e-07
9.4802744e-07
9.3168786e-07
9.1890821e-07
9.0843338e-07
8.9943944e-07
8.9153266e-07
8.8456018e-07
8.7850205e-07
8.7325928e-07
8.6834858e-07
8.6362435e-07
8.5888524e-07
8.5466548e-07
8.5064412e-07
8.4775161e-07
8.4497763e-07
8.4341117e-07
8.4112954e-07
8.3984057e-07
8.376421e-07
8.3612884e-07
8.3412999e-07
8.3319875e-07
8.3113433e-07
8.3060809e-07
8.2817551e-07
8.2716427e-07
8.2424137e-07
8.2295128e-07
8.193982e-07
8.1765575e-07
8.1514788e-07
8.1381636e-07
8.1247134e-07
8.1293364e-07
8.1214136e-07
8.1366434e-07
8.1423521e-07
8.1594676e-07
8.1749334e-07
8.1877101e-07
8.20692e-07
8.2163768e-07
8.2220463e-07
8.2306395e-07
8.2429892e-07
8.2428759e-07
8.2455503e-07
8.2382743e-07
8.2431041e-07
8.2350779e-07
8.2330739e-07
8.2235646e-07
8.2197056e-07
8.2150579e-07
8.2149009e-07
8.2064004e-07
8.2079302e-07
8.2041738e-07
8.2097856e-07
8.2116203e-07
8.2198749e-07
8.2239087e-07
8.2336648e-07
8.2517303e-07
8.2670706e-07
8.2903016e-07
8.3151649e-07
8.3394505e-07
8.3898567e-07
8.4165751e-07
8.4772207e-07
8.5327048e-07
8.6208247e-07
8.6608644e-07
8.7457971e-07
8.8610614e-07
9.0264586e-07
9.0939673e-07
9.2117222e-07
9.3225426e-07
9.6044881e-07
9.7603359e-07
9.9615257e-07
1.0060813e-06
1.0280016e-06
1.0414669e-06
1.068752e-06
9.6843278e-07
9.4806373e-07
9.3173086e-07
9.1895345e-07
9.08483e-07
8.9950052e-07
8.9159258e-07
8.8461592e-07
8.7856003e-07
8.7331536e-07
8.6841823e-07
8.6370063e-07
8.5897416e-07
8.5473733e-07
8.5070659e-07
8.4780226e-07
8.449996e-07
8.4345465e-07
8.4117566e-07
8.3985281e-07
8.37726e-07
8.3618724e-07
8.3412889e-07
8.3327427e-07
8.3115845e-07
8.3060678e-07
8.2826015e-07
8.2721793e-07
8.2444311e-07
8.2303771e-07
8.1950331e-07
8.1791403e-07
8.1512109e-07
8.139744e-07
8.1242846e-07
8.1282186e-07
8.1200636e-07
8.1359266e-07
8.140579e-07
8.1571596e-07
8.1714267e-07
8.1873967e-07
8.2035031e-07
8.2124736e-07
8.218813e-07
8.2301446e-07
8.239909e-07
8.2393211e-07
8.2435934e-07
8.2371602e-07
8.2401204e-07
8.2333202e-07
8.2305208e-07
8.2210231e-07
8.2178623e-07
8.2099956e-07
8.2119496e-07
8.2025753e-07
8.2032495e-07
8.1972086e-07
8.2042535e-07
8.2046614e-07
8.209997e-07
8.2149385e-07
8.2250099e-07
8.2395953e-07
8.2538481e-07
8.2774066e-07
8.3009321e-07
8.3216709e-07
8.3619654e-07
8.3892604e-07
8.4494224e-07
8.4797362e-07
8.556183e-07
8.6084267e-07
8.7148013e-07
8.8064685e-07
8.9432695e-07
9.007702e-07
9.1171793e-07
9.2010442e-07
9.4224206e-07
9.6395411e-07
9.8293072e-07
9.9052328e-07
1.0077558e-06
1.020485e-06
1.0475128e-06
9.684551e-07
9.48099e-07
9.317724e-07
9.1900106e-07
9.0853265e-07
8.9955408e-07
8.9165071e-07
8.8467385e-07
8.786182e-07
8.7337294e-07
8.6848354e-07
8.6377002e-07
8.5905573e-07
8.5481269e-07
8.507731e-07
8.4785274e-07
8.4503134e-07
8.4349911e-07
8.4122824e-07
8.3987964e-07
8.3781695e-07
8.362467e-07
8.3417342e-07
8.3334229e-07
8.3121691e-07
8.3060471e-07
8.2841734e-07
8.2723958e-07
8.2465422e-07
8.2308415e-07
8.1965888e-07
8.1811229e-07
8.1515105e-07
8.1409358e-07
8.1239343e-07
8.1276861e-07
8.1185291e-07
8.1356155e-07
8.1397744e-07
8.1551777e-07
8.1684269e-07
8.187601e-07
8.2007332e-07
8.2100377e-07
8.2174334e-07
8.2309748e-07
8.239159e-07
8.2382283e-07
8.2428303e-07
8.2386181e-07
8.2394411e-07
8.2315313e-07
8.2309911e-07
8.2207286e-07
8.2187889e-07
8.2087652e-07
8.2094332e-07
8.2013026e-07
8.2014802e-07
8.1946505e-07
8.1982606e-07
8.19796e-07
8.2023999e-07
8.2078228e-07
8.2155242e-07
8.2282037e-07
8.2396605e-07
8.2630117e-07
8.2856918e-07
8.308274e-07
8.3313559e-07
8.3598515e-07
8.4270479e-07
8.4766407e-07
8.5237575e-07
8.5470962e-07
8.6307154e-07
8.7387481e-07
8.9020638e-07
8.9834274e-07
9.041581e-07
9.0899636e-07
9.1970455e-07
9.4588946e-07
9.7631938e-07
9.8599921e-07
1.0017754e-06
1.0108177e-06
1.0311596e-06
9.6847682e-07
9.4813307e-07
9.3181262e-07
9.1904259e-07
9.0857793e-07
8.9960874e-07
8.9170837e-07
8.847251e-07
8.7867202e-07
8.7342529e-07
8.6854907e-07
8.6383644e-07
8.5913235e-07
8.5487434e-07
8.5083165e-07
8.4789103e-07
8.4505879e-07
8.4352618e-07
8.4126627e-07
8.3987791e-07
8.3786044e-07
8.3629309e-07
8.3417012e-07
8.3333432e-07
8.312329e-07
8.3055301e-07
8.2850937e-07
8.2723691e-07
8.2478561e-07
8.2306438e-07
8.1976043e-07
8.1814091e-07
8.1516638e-07
8.1409546e-07
8.1230087e-07
8.1260795e-07
8.1164157e-07
8.1332621e-07
8.1370222e-07
8.1524384e-07
8.1637611e-07
8.1844642e-07
8.1964884e-07
8.2059992e-07
8.2128861e-07
8.2278341e-07
8.234905e-07
8.2350622e-07
8.2382714e-07
8.2349435e-07
8.235649e-07
8.2264869e-07
8.2269275e-07
8.2158353e-07
8.2146018e-07
8.2037237e-07
8.2020077e-07
8.1957493e-07
8.1926959e-07
8.1877367e-07
8.1892008e-07
8.1872474e-07
8.1923883e-07
8.1984105e-07
8.2035276e-07
8.2144224e-07
8.2271657e-07
8.244623e-07
8.2624065e-07
8.2941601e-07
8.3132657e-07
8.3294249e-07
8.3788515e-07
8.4526223e-07
8.4943775e-07
8.517422e-07
8.5658747e-07
8.6441793e-07
8.8324024e-07
8.9521572e-07
9.0286931e-07
9.054668e-07
9.1079841e-07
9.2517693e-07
9.6220816e-07
9.8189811e-07
9.982507e-07
1.0039717e-06
1.0159101e-06
9.6849703e-07
9.4816528e-07
9.318513e-07
9.1908599e-07
9.0862357e-07
8.9966056e-07
8.9175851e-07
8.8477626e-07
8.7872508e-07
8.7347053e-07
8.6860466e-07
8.6389177e-07
8.5920641e-07
8.5492952e-07
8.5089407e-07
8.4791042e-07
8.4508771e-07
8.435232e-07
8.4129649e-07
8.3987376e-07
8.379043e-07
8.3633214e-07
8.3419071e-07
8.3330565e-07
8.3126189e-07
8.3047917e-07
8.2857018e-07
8.2721369e-07
8.248728e-07
8.2303537e-07
8.1986793e-07
8.181226e-07
8.1520538e-07
8.1398635e-07
8.1223699e-07
8.1233384e-07
8.1137981e-07
8.1306176e-07
8.1327246e-07
8.1490288e-07
8.1603565e-07
8.178215e-07
8.1913328e-07
8.2017601e-07
8.2067113e-07
8.2219387e-07
8.2291011e-07
8.2305089e-07
8.2331145e-07
8.2292068e-07
8.2295331e-07
8.2200356e-07
8.2193042e-07
8.2081316e-07
8.206966e-07
8.1953653e-07
8.1922276e-07
8.1839162e-07
8.1816328e-07
8.1748561e-07
8.1764428e-07
8.1707475e-07
8.1772332e-07
8.1811509e-07
8.1854071e-07
8.1966381e-07
8.2100596e-07
8.2215884e-07
8.2378619e-07
8.2607586e-07
8.2930755e-07
8.3119301e-07
8.3363493e-07
8.381044e-07
8.4695311e-07
8.5170873e-07
8.5470382e-07
8.585438e-07
8.6973288e-07
8.8631438e-07
9.0117454e-07
9.0603546e-07
9.0852804e-07
9.1361632e-07
9.3283999e-07
9.6246325e-07
9.8801079e-07
9.9729688e-07
1.0081924e-06
9.6851762e-07
9.4819721e-07
9.3188884e-07
9.1912576e-07
9.086631e-07
8.997083e-07
8.9180983e-07
8.8482242e-07
8.7877196e-07
8.7351087e-07
8.6865626e-07
8.6394119e-07
8.5927111e-07
8.5496413e-07
8.5094505e-07
8.4790141e-07
8.4510944e-07
8.4348235e-07
8.4130633e-07
8.3983545e-07
8.3791006e-07
8.3631953e-07
8.3418544e-07
8.3320409e-07
8.3124029e-07
8.3032718e-07
8.2853595e-07
8.2713183e-07
8.2482807e-07
8.2289075e-07
8.1982234e-07
8.1791343e-07
8.1513896e-07
8.1368126e-07
8.1200964e-07
8.1182624e-07
8.109359e-07
8.1246848e-07
8.1254904e-07
8.140897e-07
8.1533451e-07
8.1676365e-07
8.1801857e-07
8.191605e-07
8.1956603e-07
8.209018e-07
8.2162833e-07
8.2178649e-07
8.21993e-07
8.2144283e-07
8.2142979e-07
8.2037866e-07
8.2023006e-07
8.1898621e-07
8.1887017e-07
8.1762429e-07
8.1718923e-07
8.1614979e-07
8.1607392e-07
8.1508e-07
8.1541842e-07
8.147185e-07
8.1500593e-07
8.1545704e-07
8.1603234e-07
8.1677213e-07
8.1782842e-07
8.1917907e-07
8.209875e-07
8.2267224e-07
8.2533193e-07
8.2893965e-07
8.3052147e-07
8.3294959e-07
8.4119303e-07
8.493779e-07
8.5269627e-07
8.5471905e-07
8.5980535e-07
8.7240356e-07
8.9351782e-07
9.0419874e-07
9.0790549e-07
9.1038809e-07
9.1731492e-07
9.3295713e-07
9.6636796e-07
9.8552211e-07
1.0014501e-06
9.685354e-07
9.4822648e-07
9.3192378e-07
9.1916397e-07
9.0870443e-07
8.9975323e-07
8.9185482e-07
8.8486051e-07
8.7881356e-07
8.7354216e-07
8.6869793e-07
8.6396762e-07
8.5931597e-07
8.5496757e-07
8.5098191e-07
8.478471e-07
8.4510807e-07
8.433772e-07
8.4127669e-07
8.3971607e-07
8.378454e-07
8.3619178e-07
8.3409867e-07
8.3295925e-07
8.3110281e-07
8.3003129e-07
8.283329e-07
8.2687824e-07
8.2460257e-07
8.2256891e-07
8.1959679e-07
8.1744855e-07
8.1478414e-07
8.1309494e-07
8.1133935e-07
8.1084872e-07
8.0995093e-07
8.1120437e-07
8.1122716e-07
8.1250274e-07
8.1382366e-07
8.1492372e-07
8.161865e-07
8.1721621e-07
8.1757996e-07
8.1875142e-07
8.1940054e-07
8.1943941e-07
8.1954613e-07
8.1881354e-07
8.1871433e-07
8.1748529e-07
8.1717884e-07
8.1583139e-07
8.1554414e-07
8.1426843e-07
8.1379322e-07
8.1228725e-07
8.1237335e-07
8.1098808e-07
8.1159819e-07
8.1044005e-07
8.1079414e-07
8.1089477e-07
8.1160047e-07
8.1202147e-07
8.1307617e-07
8.1460692e-07
8.1642874e-07
8.1806233e-07
8.2004105e-07
8.2359479e-07
8.2595041e-07
8.2841392e-07
8.3487879e-07
8.4120079e-07
8.4860188e-07
8.5154022e-07
8.5710489e-07
8.6229025e-07
8.7582336e-07
8.9414842e-07
9.0454784e-07
9.0802771e-07
9.1284427e-07
9.2052444e-07
9.4101952e-07
9.6647217e-07
9.9066382e-07
9.6855496e-07
9.4825636e-07
9.31957e-07
9.191999e-07
9.0873902e-07
8.9978947e-07
8.9189203e-07
8.8489118e-07
8.7884048e-07
8.735472e-07
8.6871472e-07
8.6396105e-07
8.5932936e-07
8.5491185e-07
8.5097142e-07
8.4769799e-07
8.4504647e-07
8.4315069e-07
8.4115868e-07
8.3945827e-07
8.3764766e-07
8.3585829e-07
8.3384175e-07
8.3247514e-07
8.3073766e-07
8.294475e-07
8.2781929e-07
8.2625771e-07
8.2395749e-07
8.2175701e-07
8.187675e-07
8.163906e-07
8.1364767e-07
8.1165782e-07
8.0986357e-07
8.089886e-07
8.0815594e-07
8.0894125e-07
8.0888496e-07
8.0972564e-07
8.1113112e-07
8.117228e-07
8.1286299e-07
8.1363191e-07
8.1403355e-07
8.1481601e-07
8.1523525e-07
8.1505003e-07
8.1518922e-07
8.1401572e-07
8.1379466e-07
8.1221266e-07
8.118491e-07
8.101013e-07
8.0969237e-07
8.0810197e-07
8.0765712e-07
8.0569213e-07
8.0574768e-07
8.0409481e-07
8.0443808e-07
8.034248e-07
8.0364159e-07
8.031273e-07
8.0422577e-07
8.0435314e-07
8.0559298e-07
8.0669486e-07
8.0817149e-07
8.0994572e-07
8.1195777e-07
8.1509185e-07
8.1887033e-07
8.2131889e-07
8.2735e-07
8.3094906e-07
8.3944181e-07
8.4361164e-07
8.510528e-07
8.554633e-07
8.4621898e-07
8.3121851e-07
7.8158472e-07
7.2299944e-07
7.0461731e-07
8.0480627e-07
7.6194373e-07
7.7544386e-07
7.6791046e-07
9.6857021e-07
9.4828233e-07
9.3198639e-07
9.1923116e-07
9.0876786e-07
8.9981546e-07
8.9191764e-07
8.8489607e-07
8.7883577e-07
8.7350874e-07
8.6868661e-07
8.6388387e-07
8.5926579e-07
8.5473665e-07
8.5085186e-07
8.4738046e-07
8.4483644e-07
8.4268301e-07
8.408336e-07
8.3888732e-07
8.3718045e-07
8.3508046e-07
8.3317267e-07
8.3144541e-07
8.2974829e-07
8.2815738e-07
8.2646936e-07
8.247309e-07
8.2232235e-07
8.1987286e-07
8.1683165e-07
8.1413188e-07
8.1128984e-07
8.0889554e-07
8.0687467e-07
8.0545289e-07
8.0456878e-07
8.0462769e-07
8.0446193e-07
8.0457186e-07
8.0587269e-07
8.0587664e-07
8.068347e-07
8.0709575e-07
8.0735582e-07
8.0776072e-07
8.0794864e-07
8.0716286e-07
8.0731231e-07
8.0559156e-07
8.0518051e-07
8.030319e-07
8.0260317e-07
8.0028321e-07
7.9988859e-07
7.9740285e-07
7.9729102e-07
7.9468933e-07
7.9472966e-07
7.9260821e-07
7.9299333e-07
7.9148072e-07
7.9179274e-07
7.9123153e-07
7.9222485e-07
7.9171648e-07
7.9284385e-07
7.9388061e-07
7.9569679e-07
7.9777496e-07
7.9909348e-07
8.0194208e-07
8.073062e-07
8.09661e-07
8.1421979e-07
8.178906e-07
8.2581124e-07
7.5961711e-07
8.3746052e-07
7.091798e-07
6.4498991e-07
6.9641605e-07
5.8391158e-07
5.9935875e-07
5.9869853e-07
6.0520939e-07
5.884418e-07
6.0309931e-07
5.443815e-07
9.6858898e-07
9.4830915e-07
9.3201263e-07
9.1925625e-07
9.0878492e-07
8.9981929e-07
8.9191191e-07
8.8485329e-07
8.7877244e-07
8.7338171e-07
8.6855767e-07
8.6364856e-07
8.5903263e-07
8.5429745e-07
8.5050202e-07
8.4667563e-07
8.442472e-07
8.4167958e-07
8.3992581e-07
8.3759996e-07
8.3593266e-07
8.3333705e-07
8.3148704e-07
8.2922602e-07
8.275471e-07
8.2547545e-07
8.2365733e-07
8.215755e-07
8.1890154e-07
8.1605099e-07
8.1276686e-07
8.095917e-07
8.0643635e-07
8.0343682e-07
8.0099808e-07
7.9887663e-07
7.9771392e-07
7.9677127e-07
7.9638124e-07
7.9547076e-07
7.9653208e-07
7.9582528e-07
7.9644381e-07
7.9613531e-07
7.9608833e-07
7.9598906e-07
7.9592955e-07
7.9451257e-07
7.9440213e-07
7.9214081e-07
7.9140896e-07
7.8877257e-07
7.8802279e-07
7.8527001e-07
7.8458894e-07
7.8160048e-07
7.8125426e-07
7.7839092e-07
7.7819022e-07
7.7576306e-07
7.759603e-07
7.7375078e-07
7.7449042e-07
7.7325196e-07
7.7425093e-07
7.7330104e-07
7.745762e-07
7.7526553e-07
7.7687997e-07
7.7916431e-07
7.8057485e-07
7.8283897e-07
7.8785195e-07
7.9157466e-07
7.9413058e-07
7.9708818e-07
7.0477006e-07
6.2627393e-07
6.3905517e-07
5.9891105e-07
5.6439487e-07
6.0292915e-07
5.2213019e-07
5.3416437e-07
5.1826303e-07
5.0897619e-07
4.8394428e-07
4.6954261e-07
4.4764735e-07
9.6860113e-07
9.483282e-07
9.3202852e-07
9.1926231e-07
9.0877319e-07
8.9977052e-07
8.9183859e-07
8.847046e-07
8.7856737e-07
8.7304138e-07
8.6817969e-07
8.6306208e-07
8.5836582e-07
8.5324569e-07
8.4945661e-07
8.4507573e-07
8.4270009e-07
8.3946771e-07
8.3776534e-07
8.3476086e-07
8.3308556e-07
8.2959906e-07
8.2772312e-07
8.2458577e-07
8.2273637e-07
8.1989444e-07
8.1773503e-07
8.1509383e-07
8.1188412e-07
8.0837662e-07
8.0460051e-07
8.0084251e-07
7.9714315e-07
7.933244e-07
7.9022684e-07
7.8724136e-07
7.8560293e-07
7.834582e-07
7.8266075e-07
7.8061554e-07
7.8124438e-07
7.798272e-07
7.8000415e-07
7.791164e-07
7.7880821e-07
7.7817371e-07
7.7791932e-07
7.7595118e-07
7.7569868e-07
7.7282495e-07
7.7189e-07
7.6874116e-07
7.6777667e-07
7.6446341e-07
7.6365291e-07
7.6001707e-07
7.5959091e-07
7.5640313e-07
7.5610898e-07
7.5329021e-07
7.5332531e-07
7.5075812e-07
7.5130355e-07
7.4965742e-07
7.5077997e-07
7.4984323e-07
7.5062264e-07
7.5067158e-07
7.5243329e-07
7.5409725e-07
7.5619988e-07
7.5888035e-07
7.6183179e-07
7.6512674e-07
7.6951732e-07
7.0500339e-07
6.0330666e-07
6.4650869e-07
4.6137983e-07
5.3029004e-07
5.1859058e-07
5.0798331e-07
4.8959376e-07
4.2966509e-07
4.2208626e-07
4.1109089e-07
3.7477519e-07
3.6360328e-07
3.5402614e-07
9.6861779e-07
9.4834288e-07
9.3202634e-07
9.1923118e-07
9.0869617e-07
8.9960314e-07
8.9159756e-07
8.8429413e-07
8.7799688e-07
8.7217455e-07
8.6712394e-07
8.6156922e-07
8.5660211e-07
8.5076752e-07
8.4685386e-07
8.4148405e-07
8.3900736e-07
8.3466688e-07
8.3278494e-07
8.2868911e-07
8.2677509e-07
8.2191787e-07
8.1975706e-07
8.1537549e-07
8.1311042e-07
8.0920021e-07
8.0647889e-07
8.0308888e-07
7.991279e-07
7.9477338e-07
7.9035031e-07
7.8582245e-07
7.8138568e-07
7.7672514e-07
7.7285204e-07
7.6893001e-07
7.6676382e-07
7.6343659e-07
7.6217974e-07
7.5907756e-07
7.5928438e-07
7.5731386e-07
7.5718554e-07
7.5591085e-07
7.5545574e-07
7.5456908e-07
7.5425406e-07
7.5199266e-07
7.5182633e-07
7.4858221e-07
7.4750448e-07
7.4388233e-07
7.4284827e-07
7.3898023e-07
7.3817106e-07
7.3371195e-07
7.3333579e-07
7.2960376e-07
7.294029e-07
7.2586723e-07
7.2610388e-07
7.2267506e-07
7.2313879e-07
7.2122191e-07
7.221811e-07
7.2062642e-07
7.2135484e-07
7.2155904e-07
7.2293613e-07
7.2438216e-07
7.2678808e-07
7.2923479e-07
7.3168047e-07
7.3459243e-07
6.7210068e-07
6.1598707e-07
5.8753285e-07
6.490146e-07
3.9876066e-07
4.7835009e-07
4.8496647e-07
4.1621197e-07
3.8111243e-07
3.4081561e-07
3.4724293e-07
3.3076166e-07
2.9402717e-07
2.9432238e-07
2.9203432e-07
9.6862325e-07
9.4833261e-07
9.3197308e-07
9.1909966e-07
9.0843968e-07
8.9914016e-07
8.9088428e-07
8.8317091e-07
8.7643187e-07
8.6996739e-07
8.6438646e-07
8.57929e-07
8.5223138e-07
8.4506959e-07
8.4063599e-07
8.3366979e-07
8.3073619e-07
8.2475833e-07
8.2237378e-07
8.167788e-07
8.1438949e-07
8.077788e-07
8.0513358e-07
7.9931615e-07
7.9654025e-07
7.9150271e-07
7.8822743e-07
7.841289e-07
7.7944221e-07
7.742678e-07
7.6921322e-07
7.6391365e-07
7.5877087e-07
7.5304919e-07
7.4829954e-07
7.433347e-07
7.4066256e-07
7.3618692e-07
7.3443617e-07
7.3033577e-07
7.3018664e-07
7.2762486e-07
7.2734439e-07
7.2569724e-07
7.2506823e-07
7.2396316e-07
7.2359059e-07
7.2104315e-07
7.2097997e-07