/*--------------------------------*- C++ -*----------------------------------*\
| =========                 |                                                 |
| \\      /  F ield         | OpenFOAM: The Open Source CFD Toolbox           |
|  \\    /   O peration     | Version:  2406                                  |
|   \\  /    A nd           | Website:  www.openfoam.com                      |
|    \\/     M anipulation  |                                                 |
\*---------------------------------------------------------------------------*/
FoamFile
{
    version     2.0;
    format      ascii;
    arch        "LSB;label=32;scalar=64";
    class       volScalarField;
    location    "30";
    object      omega;
}
// * * * * * * * * * * * * * * * * * * * * * * * * * * * * * * * * * * * * * //

dimensions      [0 0 -1 0 0 0 0];

internalField   nonuniform List<scalar> 
158064
(
4.0405997
3.1294526
2.562295
2.1766712
1.8972846
1.6856225
1.5198784
1.3867779
1.2776729
1.186733
1.1097595
1.0440518
0.98722568
0.93815057
0.89497436
0.85705288
0.82272563
0.79187438
0.76367921
0.73778075
0.71416766
0.69207834
0.67203151
0.65321959
0.63643445
0.62019531
0.60604681
0.59236591
0.58014962
0.56838163
0.55824736
0.54827683
0.53923472
0.53069438
0.52285443
0.51519675
0.50825549
0.50134102
0.49523511
0.48907567
0.48299292
0.47755912
0.47170089
0.46714769
0.46161858
0.45708433
0.45212006
0.44777295
0.44283371
0.43907607
0.43402135
0.43104475
0.4262434
0.42377961
0.41947024
0.41731317
0.41310772
0.41113191
0.40808451
0.40663423
0.4049077
0.40404454
0.40339764
0.40370094
0.40420815
0.40608594
0.40795565
0.4127763
0.41607288
0.42382589
0.42888265
0.4402846
0.44678354
0.46042792
0.47118196
0.48583282
0.49699014
0.51170261
0.52518678
0.53297029
0.54766356
0.55913217
0.58201102
0.59387533
0.61524213
0.62706472
0.65151957
0.66620106
0.70245307
4.0419854
3.1315113
2.5644693
2.1788271
1.899375
1.6876215
1.5217915
1.3886162
1.2794298
1.1884462
1.1114236
1.0456852
0.98879804
0.93970182
0.89645059
0.85858241
0.82421111
0.79345463
0.76518443
0.73942337
0.71567339
0.693748
0.67355803
0.65488722
0.63796438
0.62192623
0.60758206
0.59400913
0.58166028
0.56994854
0.55963696
0.54972781
0.54051316
0.53201126
0.52417521
0.51644447
0.50944854
0.50243348
0.49660777
0.49000214
0.48433558
0.47841954
0.47332803
0.46794676
0.46305535
0.45794827
0.45339897
0.44858396
0.44433128
0.43996259
0.43547439
0.4319838
0.42765373
0.42488145
0.42072241
0.41845012
0.41448575
0.41260809
0.40930695
0.40803927
0.40562219
0.40488417
0.40322683
0.40318009
0.40302827
0.40363199
0.40423573
0.40636554
0.40794924
0.41238096
0.41530695
0.42258766
0.42689345
0.43669425
0.4461084
0.45922582
0.47249694
0.48501452
0.50584287
0.51701411
0.53557744
0.54569779
0.56708367
0.57816106
0.59964435
0.6098556
0.63013059
0.64064452
0.66673494
4.0432414
3.1334269
2.5665424
2.1809107
1.9013984
1.6895612
1.5236471
1.3903751
1.2810984
1.1900295
1.1129363
1.0471105
0.99016377
0.94100213
0.89768284
0.85975206
0.82533119
0.79456702
0.76622502
0.74046059
0.71659889
0.69469409
0.67440935
0.65574225
0.63869251
0.62268941
0.60819478
0.5946367
0.58216591
0.57046144
0.56002465
0.55016098
0.54086246
0.53239557
0.5245616
0.51675654
0.50982196
0.50274408
0.49704175
0.49028096
0.48483602
0.478699
0.47396669
0.46821988
0.46363336
0.45831803
0.45398192
0.44887962
0.44503384
0.44013626
0.43630299
0.43188991
0.42856695
0.42468832
0.42172124
0.41794096
0.41546027
0.41240169
0.40981324
0.40801213
0.40599465
0.40439012
0.40362363
0.40262492
0.40253406
0.40263831
0.40309908
0.40406495
0.4058823
0.40837302
0.41114338
0.41478186
0.42091167
0.42499443
0.43271291
0.43838812
0.45005217
0.45804468
0.47536606
0.48514223
0.50503775
0.51525746
0.53619052
0.54734894
0.57028679
0.58181274
0.60467803
0.6158395
0.64132289
4.0445338
3.1353518
2.5685828
2.182942
1.9033725
1.6914526
1.5254449
1.3920812
1.2827237
1.1915894
1.1144344
1.048544
0.99153357
0.94231387
0.89893085
0.8609759
0.8265242
0.7957819
0.76737484
0.74167002
0.7177363
0.69589482
0.67554207
0.65693937
0.63979406
0.62392492
0.60929933
0.59586117
0.58330224
0.57167943
0.56120511
0.55132017
0.54205714
0.53367474
0.52570102
0.51787408
0.51094178
0.50400394
0.49811956
0.49134047
0.48592409
0.47992196
0.47516092
0.46934942
0.46465617
0.45940451
0.45508192
0.44999589
0.44613473
0.4411574
0.43743122
0.4329291
0.42967045
0.42556507
0.42276786
0.41873232
0.4162185
0.41290904
0.41084744
0.40807789
0.40669214
0.40436206
0.40358259
0.4021374
0.40154701
0.40150675
0.40179615
0.40230966
0.40379068
0.4052526
0.40831638
0.41052781
0.41535256
0.4184583
0.42553889
0.43014003
0.43965374
0.44543006
0.45791678
0.4660902
0.48299201
0.49123232
0.50764922
0.51681923
0.53629208
0.5473083
0.56996659
0.58131372
0.6087442
4.0457107
3.1371452
2.5705163
2.1848791
1.905253
1.6932512
1.5271587
1.3937095
1.2842681
1.1930623
1.1158375
1.0498735
0.99280643
0.94352737
0.90008734
0.86208549
0.82758609
0.79685681
0.76836718
0.74269898
0.71865762
0.69684643
0.67643135
0.65787274
0.64058899
0.62480151
0.61004907
0.59663787
0.58392577
0.57232372
0.56174306
0.55179145
0.54251996
0.53415418
0.52603828
0.5182429
0.51125753
0.50437984
0.49842476
0.49163289
0.48622881
0.4802672
0.47552767
0.46965842
0.46494837
0.45972998
0.45541207
0.45033464
0.44647675
0.44148916
0.43770889
0.43325909
0.42999048
0.42582952
0.4229545
0.41902412
0.41627398
0.41299165
0.41117178
0.40820222
0.40685135
0.40452743
0.40334714
0.40194412
0.40116706
0.40093333
0.40119757
0.40161007
0.40279408
0.40387574
0.40641207
0.40788491
0.41182541
0.41458848
0.42025527
0.4233526
0.43069703
0.43564141
0.44584093
0.45190493
0.46519119
0.47243998
0.48685864
0.49425181
0.50986735
0.51871373
0.53728471
0.54714163
0.57171506
4.0468959
3.1389217
2.5724066
2.1867616
1.9070843
1.6950018
1.5288257
1.3952952
1.2857789
1.1945078
1.1172261
1.0511959
0.99407511
0.94474164
0.90125614
0.86322529
0.82868247
0.79797174
0.7694168
0.74379957
0.71967814
0.69789911
0.6774486
0.65894005
0.64153469
0.62584772
0.6109758
0.59767228
0.58480393
0.57332599
0.56268777
0.55266695
0.54349228
0.5351225
0.52686003
0.51934668
0.51220911
0.50541825
0.49938098
0.49275016
0.48736978
0.48132522
0.47648084
0.47082634
0.46610017
0.46072345
0.45632884
0.45137756
0.44762158
0.44261053
0.43882256
0.43425953
0.43106547
0.42691643
0.4238488
0.41993886
0.41713066
0.41357217
0.41175883
0.40872905
0.40712156
0.40476317
0.40340951
0.40184466
0.40095453
0.40025335
0.40038674
0.400599
0.40135001
0.40228144
0.40463193
0.40603808
0.40913922
0.41131592
0.41651923
0.41937406
0.4257342
0.4296519
0.4382892
0.4438914
0.45560504
0.4621364
0.47419882
0.48001057
0.49208465
0.49903523
0.51385201
0.52218661
0.54233222
4.0479956
3.1405979
2.5742116
2.1885666
1.9088378
1.696683
1.5304289
1.3968215
1.2872281
1.1958935
1.1185451
1.0524485
0.99527959
0.94588349
0.90235495
0.86427349
0.82969321
0.79898466
0.77036463
0.74478368
0.72056744
0.69882153
0.67833398
0.65986096
0.64233587
0.62674301
0.61174022
0.59848622
0.5854658
0.57412975
0.56332032
0.55327874
0.54415177
0.53565859
0.52731889
0.52001059
0.51268492
0.5058965
0.49976475
0.49322465
0.48780479
0.48172634
0.47677403
0.47128182
0.46650541
0.46103548
0.4565652
0.45173258
0.4479986
0.4430256
0.43917922
0.43463613
0.43134649
0.42729889
0.42416786
0.4201558
0.41741233
0.41382637
0.41187588
0.4090151
0.40724458
0.40478681
0.40344672
0.40146185
0.40081563
0.39983508
0.3998225
0.39990949
0.40039309
0.4009952
0.40286085
0.4041439
0.40659551
0.40827181
0.41261567
0.41552224
0.42133589
0.42459162
0.43205304
0.43658232
0.44568715
0.45157442
0.46392378
0.46966523
0.47990222
0.48517916
0.49614995
0.50285773
0.51925145
4.0490872
3.1422423
2.5759674
2.1903179
1.9105401
1.6983111
1.5319792
1.3982946
1.2886351
1.1972407
1.119839
1.0536829
0.99645621
0.94701114
0.90343458
0.86532727
0.8306985
0.80000538
0.77134363
0.74578511
0.72150616
0.69978853
0.67927149
0.66081618
0.64320888
0.62769147
0.61257498
0.59935195
0.5862361
0.57507519
0.56405995
0.55408169
0.54499786
0.53636561
0.52803609
0.52094767
0.51345346
0.50670036
0.50047903
0.49407834
0.48864685
0.48253653
0.47761746
0.472267
0.46738616
0.46190217
0.45753167
0.45281507
0.44894845
0.44400376
0.44022274
0.43566198
0.43229243
0.42816891
0.42509615
0.42097191
0.41835005
0.41472704
0.41259525
0.40966414
0.40775704
0.4050688
0.4037786
0.40161698
0.40083764
0.39968821
0.3993276
0.39932352
0.39953385
0.39988115
0.40117913
0.4021857
0.40430522
0.40590996
0.4100633
0.41299951
0.41829906
0.42081583
0.42613022
0.43002894
0.43922045
0.44434941
0.45410782
0.46035214
0.4715362
0.47670455
0.48681593
0.49201511
0.50439282
4.0501137
3.143807
2.5776504
2.1919991
1.9121732
1.6998767
1.5334757
1.3997199
1.2899939
1.1985415
1.1210786
1.0548605
0.99758632
0.94808954
0.90446451
0.8663157
0.83164816
0.8009594
0.77224227
0.74670118
0.72236338
0.70066563
0.68012934
0.66169709
0.64398471
0.6285405
0.61330781
0.60009757
0.58691838
0.57587655
0.56465797
0.55473237
0.54555628
0.53691419
0.52861909
0.52157493
0.51396602
0.50733733
0.50090451
0.49461299
0.48910731
0.48303046
0.47805698
0.4727474
0.46771249
0.46230066
0.45796521
0.4533182
0.44928042
0.44441013
0.44066964
0.43614006
0.43271652
0.42850454
0.42542754
0.42133983
0.41860708
0.41512347
0.41282494
0.40975044
0.40796492
0.40525855
0.40389943
0.40180837
0.40073774
0.39970488
0.39918237
0.39874906
0.39887895
0.3990229
0.39966839
0.40098233
0.40309534
0.40417504
0.40686076
0.40932951
0.41463242
0.41733178
0.42243975
0.4253717
0.43202149
0.43895368
0.44874167
0.45345831
0.46312838
0.46801599
0.47691072
0.48124582
0.49087471
4.0511221
3.1453323
2.5792825
2.1936292
1.9137597
1.7013921
1.5349171
1.4010926
1.2913046
1.1997968
1.1222855
1.0560124
0.99868843
0.94913471
0.90547173
0.8672824
0.83258902
0.80189081
0.77315839
0.7476042
0.72325917
0.70155522
0.6809928
0.66257995
0.64481236
0.62941202
0.61408263
0.60089158
0.58768898
0.57668654
0.56534554
0.55550626
0.54624047
0.53760651
0.52934648
0.52224832
0.51458549
0.50809474
0.50159577
0.49541774
0.48982617
0.48378464
0.47882943
0.47349933
0.46836921
0.46311832
0.4588621
0.45418535
0.45004308
0.44520375
0.44153008
0.43705742
0.43356745
0.42926193
0.42618653
0.42219389
0.41935787
0.41589216
0.41357318
0.41030163
0.40850748
0.40578849
0.40429826
0.40216658
0.4009417
0.39963718
0.3989322
0.39822424
0.39828443
0.39843604
0.39903291
0.39977152
0.40144673
0.40257045
0.40517708
0.407005
0.41150427
0.41454371
0.41947533
0.42208868
0.42753871
0.43400718
0.44280607
0.44644655
0.4537994
0.45815405
0.46756729
0.47274235
0.48328024
4.0520796
3.1467923
2.580851
2.195197
1.9152853
1.702856
1.5363104
1.4024199
1.2925771
1.2010128
1.123448
1.0571203
0.9997507
0.95014678
0.90643708
0.86821034
0.83348251
0.80277433
0.77402086
0.74843383
0.72410119
0.70238082
0.68179348
0.66341986
0.64558027
0.63018281
0.61478237
0.60159642
0.58840753
0.57737752
0.56592136
0.55620661
0.54680353
0.5382146
0.52993191
0.52277834
0.51511899
0.5087306
0.50206997
0.49601032
0.49027826
0.48431037
0.47931191
0.47397441
0.46877185
0.46372945
0.45943538
0.45469912
0.45041519
0.4456809
0.44201778
0.43759913
0.43406954
0.42971761
0.42658748
0.42271624
0.41984428
0.41620694
0.41397858
0.4106416
0.40876005
0.40611743
0.40449721
0.40237837
0.4011403
0.39942736
0.39887967
0.39796519
0.39793936
0.39799454
0.39821985
0.39872233
0.40026302
0.40142275
0.40358277
0.40522886
0.40973785
0.41213732
0.41619842
0.41841186
0.42341035
0.42728867
0.43603946
0.44047435
0.44894525
0.45356045
0.46295312
0.46728916
0.4764963
4.0530131
3.1482094
2.5823686
2.1967163
1.9167623
1.7042639
1.5376556
1.4037022
1.2938036
1.2021876
1.124575
1.058193
1.00078
0.95112325
0.90737483
0.8691172
0.83435497
0.80364143
0.77487747
0.74925154
0.7249511
0.70319132
0.68257844
0.66424792
0.64637358
0.6309423
0.61554405
0.60231944
0.58913872
0.57804249
0.56657836
0.55690802
0.5473759
0.5388517
0.53053927
0.52337056
0.5157178
0.50942341
0.50268064
0.49668461
0.49085249
0.48505648
0.47996217
0.47454283
0.46936876
0.46449175
0.46017616
0.4554094
0.45108635
0.44645009
0.44275677
0.43835976
0.43480179
0.43043776
0.42720253
0.4234522
0.42058728
0.41681473
0.41457119
0.41128595
0.40931465
0.4065483
0.40492471
0.40260415
0.40137801
0.39950172
0.39885065
0.39785533
0.39766058
0.39769653
0.39795792
0.398246
0.3991393
0.40054959
0.40270971
0.40366889
0.40582134
0.40950873
0.4144949
0.41647633
0.41984334
0.42337958
0.43254934
0.43760578
0.443809
0.44690167
0.45384838
0.45836941
0.46714427
4.0539068
3.1495713
2.5838308
2.198176
1.918184
1.7056326
1.5389533
1.4049363
1.2949879
1.2033186
1.125664
1.0592347
1.0017771
0.95206506
0.90827349
0.86998796
0.8351904
0.80446809
0.77569049
0.75003034
0.7257531
0.70397482
0.68332032
0.66503023
0.64711662
0.63164431
0.61626903
0.60298986
0.58985607
0.57866281
0.56719705
0.55758553
0.54789946
0.53949866
0.53109895
0.52390956
0.5162653
0.51002925
0.50322381
0.49725448
0.49132309
0.48573311
0.48045517
0.47501482
0.46988855
0.4651451
0.46066114
0.45588035
0.45166794
0.447049
0.44326344
0.43890597
0.43534669
0.43105412
0.42776917
0.42392094
0.42110808
0.41738604
0.41495764
0.41173461
0.40981297
0.40679381
0.40528275
0.40283183
0.40165004
0.39966721
0.39893133
0.39796643
0.39759594
0.39724497
0.39745676
0.397732
0.39863813
0.39918072
0.40082539
0.40217993
0.40504616
0.40803953
0.41202561
0.41393419
0.4168872
0.41944986
0.42657052
0.43403424
0.43990785
0.44215077
0.44727517
0.45138878
0.46044291
4.0547727
3.1508889
2.5852436
2.199593
1.9195609
1.7069474
1.5402085
1.4061347
1.2961351
1.204417
1.1267165
1.0602423
1.0027408
0.95298558
0.90914854
0.87083526
0.83600763
0.80527581
0.77649019
0.75080568
0.72654525
0.70474482
0.68407268
0.66579449
0.64786844
0.63233914
0.61702491
0.60364101
0.59057401
0.57926576
0.56784092
0.55823751
0.5484611
0.54012654
0.53166729
0.52449247
0.51681212
0.51066969
0.50384394
0.49785147
0.49187186
0.48643673
0.48103761
0.47562074
0.47051287
0.46588904
0.46132278
0.45653552
0.45233822
0.44782369
0.44394848
0.43954694
0.43606354
0.4318354
0.42853642
0.42460115
0.42176422
0.4181427
0.41559392
0.41240984
0.41036315
0.40727052
0.405805
0.40330394
0.40191856
0.39994859
0.39922339
0.39818667
0.39762909
0.39694733
0.397047
0.39728394
0.39827445
0.39931124
0.4003391
0.40070296
0.40255268
0.40569071
0.410867
0.41334705
0.41492826
0.41628631
0.41941328
0.42764753
0.43758771
0.44071745
0.44569631
0.44855947
0.45501382
4.0556082
3.1521597
2.5866073
2.2009522
1.9208856
1.7082213
1.5414233
1.4072889
1.2972412
1.2054757
1.1277376
1.0612208
1.0036741
0.95387173
0.9099906
0.87165285
0.83679513
0.80605453
0.77726115
0.75155081
0.72729288
0.70549612
0.68477721
0.6665031
0.64858399
0.6330054
0.61774164
0.60428073
0.59125925
0.57984048
0.56846811
0.55882222
0.54902786
0.54072446
0.53222272
0.52504993
0.51735977
0.51124604
0.50441363
0.49847096
0.49237129
0.48707574
0.48158048
0.47623426
0.47107416
0.46651535
0.46190433
0.4572279
0.45291326
0.44849261
0.44458206
0.44021205
0.43668196
0.43252166
0.4292526
0.42524524
0.42235425
0.41883831
0.41613242
0.41304876
0.4108717
0.40790943
0.40612466
0.40394211
0.40223061
0.40043373
0.39952543
0.39831217
0.39773577
0.39711265
0.39682066
0.39679907
0.39736413
0.39886181
0.39991925
0.40042274
0.4013767
0.40314043
0.40843771
0.41241818
0.41500158
0.41574024
0.41722295
0.42141858
0.43296329
0.43947488
0.44481954
0.44665215
0.45024159
4.056412
3.1533849
2.5879237
2.2022721
1.9221691
1.7094521
1.5425922
1.4084095
1.2983146
1.2064989
1.1287212
1.0621677
1.004583
0.95473886
0.91081539
0.87244747
0.83756609
0.80680832
0.77801976
0.75229847
0.72803879
0.70625478
0.68549558
0.66721288
0.64931106
0.63368219
0.61845918
0.60493861
0.59195546
0.58045628
0.56913874
0.55944131
0.54966043
0.54132988
0.53286375
0.52562443
0.5179598
0.51192524
0.50498927
0.49921381
0.4930078
0.48775744
0.48226248
0.4769767
0.47173937
0.46726718
0.46262203
0.45805494
0.45371992
0.44932629
0.44537398
0.44110816
0.43750313
0.43339922
0.43018416
0.42616188
0.42318392
0.41967993
0.41701104
0.41395373
0.41154636
0.40878284
0.40674729
0.40457618
0.40285797
0.40107853
0.40009085
0.39862965
0.39791544
0.39716214
0.3970192
0.39699213
0.39712034
0.39759502
0.3992854
0.4007776
0.40149116
0.40229329
0.40477816
0.40979609
0.41483137
0.41638101
0.41711298
0.41852512
0.42414273
0.43339435
0.44173222
0.44489264
0.44800603
4.057193
3.1545706
2.5891959
2.2035424
1.9234017
1.7106397
1.5437283
1.4094937
1.2993512
1.2074931
1.1296783
1.0630959
1.0054672
0.95558531
0.91161742
0.87322738
0.83832429
0.80755194
0.77877051
0.75304674
0.72877502
0.70701826
0.68622071
0.66792729
0.65003879
0.63437297
0.61918157
0.60563116
0.59266007
0.58110324
0.5698199
0.56007033
0.55036453
0.54196341
0.53356257
0.52625667
0.51860806
0.51268149
0.50564766
0.49999398
0.49380502
0.48851016
0.48302705
0.47786931
0.47253012
0.46810133
0.46347648
0.45903608
0.45461143
0.45032091
0.44633172
0.44213434
0.43848876
0.43449126
0.43120636
0.42734173
0.42423494
0.42072294
0.41813108
0.41502942
0.41263614
0.40978792
0.4077155
0.40547003
0.40374948
0.40188773
0.40085227
0.39934515
0.39836746
0.39763699
0.39749585
0.3974632
0.39735061
0.39750751
0.39880199
0.40098875
0.40184324
0.40229107
0.40342046
0.4062857
0.41290418
0.41658686
0.41763536
0.41836089
0.4204194
0.42511249
0.43530999
0.44169025
0.44647568
4.0579383
3.1557105
2.5904227
2.2047713
1.924602
1.7117926
1.5448283
1.4105453
1.300362
1.2084674
1.1306145
1.0640047
1.0063337
0.95642686
0.91241427
0.87401389
0.83908235
0.80830992
0.77953064
0.75381427
0.72951853
0.7078103
0.6869676
0.66867797
0.65079668
0.63512086
0.61994847
0.60638413
0.59344045
0.58185312
0.5706125
0.56078916
0.55117789
0.54275141
0.53438332
0.52703829
0.51945351
0.51360702
0.50651334
0.50100595
0.49482647
0.48959532
0.48405986
0.47907584
0.47372825
0.46929766
0.46467698
0.46047845
0.4559463
0.4517505
0.44775689
0.44362732
0.43992822
0.4360873
0.43270528
0.42898575
0.42587666
0.4223049
0.41977764
0.41669152
0.41426096
0.41131655
0.40936791
0.40682963
0.40509176
0.40326991
0.40229083
0.40061965
0.39954045
0.39877859
0.39856573
0.39818614
0.39804745
0.3981474
0.39894026
0.4003026
0.40213415
0.40275254
0.40408859
0.40541885
0.40883596
0.41456056
0.41808242
0.41903559
0.42043545
0.42272998
0.42873975
0.43646608
0.44364002
4.0586701
3.1568179
2.5916097
2.2059605
1.92576
1.7129079
1.5458975
1.4115778
1.3013515
1.2094238
1.1315374
1.0649134
1.0072051
0.95728335
0.91322261
0.8748275
0.83987081
0.80911791
0.7803381
0.7546539
0.73032227
0.70868696
0.68780283
0.66954105
0.65165944
0.63601288
0.62085025
0.6072907
0.59438977
0.58279655
0.5716079
0.56176255
0.55224199
0.54383677
0.53550649
0.52813845
0.52067914
0.51493051
0.50782916
0.50246486
0.49629882
0.49122323
0.4856615
0.48075088
0.47549517
0.47112773
0.46644595
0.46249225
0.45795496
0.45389899
0.44986196
0.44589606
0.44217796
0.43842825
0.43506001
0.43139507
0.42829781
0.42485414
0.42222845
0.41923439
0.41671151
0.41386508
0.41176146
0.40917913
0.40744037
0.40560376
0.4044463
0.4027434
0.40163395
0.40072719
0.40040552
0.39970047
0.39964422
0.39968971
0.40019885
0.40085409
0.40265128
0.40354146
0.40521338
0.40631631
0.4081659
0.41243081
0.41754815
0.41970836
0.42125154
0.42285646
0.42650431
0.43356186
0.44080948
4.0593618
3.1578804
2.5927571
2.2071144
1.9268893
1.7140019
1.5469519
1.4125974
1.3023344
1.2103901
1.1324773
1.0658547
1.0081152
0.95820435
0.91409387
0.87574194
0.84075667
0.81005923
0.78127321
0.75566058
0.73129967
0.70977728
0.68887072
0.6706764
0.65279617
0.63722179
0.62209153
0.608549
0.59573261
0.58417101
0.57304095
0.56321622
0.55379809
0.54547629
0.53721154
0.52987015
0.52256901
0.51695759
0.5099426
0.50474378
0.49860513
0.49375298
0.48824831
0.48340386
0.47825332
0.47398879
0.46935486
0.46558897
0.46110139
0.4572305
0.45318926
0.44938998
0.44566798
0.44211633
0.43859414
0.43515195
0.43190996
0.42870742
0.42599831
0.42308642
0.42050922
0.41767263
0.41550855
0.41309134
0.41105342
0.40924748
0.40792961
0.40630833
0.40510686
0.4040474
0.40368552
0.40313698
0.40291061
0.4026964
0.40284029
0.40329778
0.40465708
0.40554828
0.40736712
0.40839239
0.40969107
0.41265689
0.41797267
0.42103804
0.42285115
0.42418643
0.42675351
0.43178176
0.43913397
4.0600506
3.1589201
2.5938755
2.2082442
1.9279999
1.71509
1.5480062
1.4136374
1.3033558
1.2114216
1.1334943
1.0669001
1.0091479
0.95930073
0.91514958
0.87690553
0.84189048
0.81132
0.78253376
0.75706692
0.73268855
0.71136594
0.69046647
0.67240755
0.65454632
0.63913063
0.62407433
0.61059789
0.59793753
0.58644808
0.57541064
0.56565472
0.55637866
0.5482114
0.54006568
0.53281497
0.52569439
0.52026338
0.51344253
0.50842142
0.50235469
0.49778923
0.49238204
0.48764133
0.48263157
0.47840507
0.47391727
0.47032661
0.46590239
0.46214936
0.45822515
0.45454068
0.45090523
0.44745449
0.4439685
0.44056133
0.43729286
0.43416554
0.4314597
0.42869922
0.42585795
0.423187
0.42097896
0.41841149
0.41638007
0.41462192
0.41316981
0.41159394
0.41042115
0.40920106
0.40863142
0.40810127
0.40795686
0.40738125
0.40717415
0.40740885
0.40881913
0.41030386
0.41221526
0.41281095
0.41378833
0.41539383
0.41963189
0.42407563
0.42666183
0.42809639
0.4297468
0.43267879
0.43907846
4.0606951
3.1599207
2.59497
2.2093625
1.9291184
1.7162083
1.5491206
1.414775
1.3045093
1.2126294
1.1347284
1.0682334
1.0105205
0.96083263
0.91667376
0.87865227
0.84364983
0.81332916
0.78458358
0.75937837
0.73502339
0.71403758
0.69320911
0.67539666
0.65761042
0.64244455
0.62752563
0.61418688
0.6017456
0.59041685
0.57955097
0.56986539
0.56074022
0.55276422
0.54477461
0.53765185
0.53071307
0.52546547
0.51889814
0.51405611
0.50803437
0.5037288
0.49841566
0.49373638
0.4888529
0.48459656
0.48013892
0.476746
0.47229927
0.46867219
0.46470183
0.46123098
0.45757026
0.45419591
0.45071721
0.44735619
0.4440363
0.44097155
0.43819141
0.43555703
0.4325589
0.43006462
0.42759376
0.42510926
0.42311406
0.42141978
0.41961842
0.4180439
0.4168167
0.41593375
0.41515869
0.41402133
0.41346449
0.41341571
0.41349673
0.41363522
0.41467621
0.41631291
0.4180089
0.41850662
0.41959924
0.42075353
0.42340807
0.42887743
0.43311389
0.43549887
0.43708475
0.43841591
0.44152482
4.0613515
3.1609219
2.5960723
2.210519
1.9303148
1.7174539
1.5504321
1.4161894
1.3060282
1.2143168
1.1365546
1.0703043
1.0127639
0.96342674
0.91937097
0.88177008
0.84688673
0.81700948
0.78840143
0.76362303
0.73937228
0.71889774
0.69821922
0.68077038
0.66311762
0.64827056
0.63351816
0.62035093
0.6081428
0.5970228
0.58632819
0.57677524
0.56779385
0.55992497
0.55205743
0.54502656
0.53816046
0.5330179
0.52663644
0.52188473
0.51579076
0.51157304
0.50630437
0.50156224
0.49667501
0.49231973
0.48771603
0.48443188
0.47990865
0.47640634
0.47230402
0.46900997
0.4652662
0.46212271
0.45841026
0.45526255
0.45181628
0.44883242
0.44595281
0.44336328
0.44035977
0.43795102
0.43540083
0.43294963
0.43067174
0.42906119
0.42707863
0.42537054
0.42435001
0.42330632
0.42234943
0.42103846
0.42053901
0.42045764
0.42059317
0.42056617
0.42094538
0.42212977
0.42399978
0.4246953
0.42620502
0.42736559
0.42921723
0.43359693
0.43781409
0.44113171
0.44403097
0.44658434
0.44771804
4.0619715
3.1619273
2.5972414
2.2118246
1.9317675
1.7190974
1.5523093
1.4183846
1.3085574
1.217287
1.1399271
1.0742225
1.0171315
0.96846873
0.92471698
0.88782249
0.85318652
0.82395007
0.79555351
0.77131245
0.74717386
0.72726384
0.70668928
0.68957233
0.67197911
0.65734056
0.64263162
0.62948871
0.6173903
0.60638605
0.59571015
0.58620111
0.57723405
0.56950048
0.56170904
0.55467216
0.54765436
0.54250293
0.53614731
0.53142305
0.52514746
0.52082592
0.51563239
0.51077801
0.50583844
0.50139058
0.49666051
0.4933767
0.48893111
0.48552163
0.48156952
0.47841581
0.47480365
0.47193503
0.46824476
0.46538588
0.46199699
0.45921796
0.45617318
0.45388507
0.45077154
0.44881571
0.44609127
0.44362524
0.44122441
0.43956329
0.43754204
0.43583251
0.43450241
0.43329909
0.43220111
0.43061445
0.4300723
0.42936065
0.42903982
0.42881952
0.42899979
0.42964958
0.43119451
0.4320558
0.43341857
0.43457453
0.43577983
0.43871224
0.44244798
0.44624519
0.44888073
0.45196345
0.45322041
4.0626505
3.1630625
2.5986751
2.2136133
1.9340031
1.7219062
1.5558147
1.4227409
1.3137735
1.2234806
1.1469831
1.0822772
1.0259575
0.97826567
0.93486474
0.89876853
0.86418308
0.83548847
0.80697733
0.78304511
0.75862284
0.73901892
0.71814507
0.70109252
0.68322781
0.66853169
0.65361764
0.64028744
0.62817557
0.61724477
0.60653075
0.59708632
0.58819754
0.58069699
0.57315665
0.56641677
0.55935114
0.55450325
0.54829089
0.54397684
0.53767936
0.53350686
0.52860125
0.52400351
0.51915812
0.51504221
0.51033637
0.50742597
0.50323247
0.50032103
0.49674948
0.49423244
0.4909292
0.48873883
0.48526679
0.48324995
0.47996456
0.47785348
0.47448402
0.47289259
0.46980985
0.46825619
0.46524126
0.46355779
0.46046791
0.45905214
0.45629076
0.45488608
0.45273609
0.45146604
0.44960845
0.44808243
0.44679074
0.44574884
0.44475747
0.4439087
0.44395095
0.44410161
0.44466058
0.44510947
0.44566246
0.44637624
0.44707837
0.44894393
0.45178827
0.45528185
0.45711716
0.46092
0.46171228
4.0633789
3.1645705
2.6009651
2.2169506
1.9386564
1.7281303
1.5637828
1.432539
1.3251778
1.2363713
1.1608783
1.097067
1.041051
0.99379548
0.94986911
0.91392204
0.8784309
0.84976882
0.82039069
0.79646373
0.77129019
0.75201682
0.73063472
0.71388093
0.6957913
0.68134982
0.66645174
0.65331287
0.6416047
0.63131548
0.62111859
0.61233787
0.60416201
0.59751249
0.59090252
0.58519253
0.57857966
0.57469385
0.56915261
0.56588948
0.56019221
0.55667074
0.55246187
0.54873609
0.54447672
0.54122214
0.53713196
0.53492524
0.53157344
0.52960457
0.52697758
0.52566396
0.52347899
0.52219453
0.51997798
0.51891302
0.51686943
0.51546409
0.51277023
0.51149381
0.50903432
0.50777573
0.50520123
0.50378461
0.50068877
0.49901082
0.49552654
0.49396702
0.4906531
0.48929202
0.4862661
0.48472995
0.48173402
0.48042851
0.47780592
0.47594988
0.47461677
0.47356369
0.47270592
0.47203311
0.47097644
0.47010818
0.47002368
0.47035254
0.47127673
0.47324669
0.47447583
0.47773643
0.47754726
4.0645402
3.1675066
2.6062146
2.2252472
1.9503514
1.7431481
1.5816388
1.4523903
1.3458451
1.2570792
1.1807827
1.1161871
1.0590732
1.0114482
0.96632583
0.93052981
0.89399325
0.86597811
0.83596265
0.81293843
0.78756752
0.76985117
0.74874249
0.7335813
0.71616025
0.70316423
0.68921056
0.67749581
0.66730683
0.65897765
0.65070623
0.64396128
0.63782202
0.63336805
0.62902522
0.6257494
0.62088708
0.61898681
0.61536226
0.61381635
0.61037782
0.60834859
0.60555986
0.60360367
0.60099151
0.59935158
0.59712201
0.59603916
0.59465975
0.5940933
0.5937979
0.593973
0.59411402
0.59447676
0.59473654
0.59536413
0.59543708
0.59532824
0.59462526
0.59381183
0.59239383
0.59165391
0.589891
0.58868212
0.58573109
0.58380517
0.57951701
0.57754721
0.57284916
0.57094697
0.5662338
0.5637773
0.55822542
0.55572035
0.5499674
0.54735047
0.5422726
0.53945367
0.53551824
0.53323573
0.52927053
0.52596608
0.52247868
0.52053929
0.51842552
0.51787905
0.51702292
0.51714839
0.51408088
4.0670702
3.1756572
2.6212333
2.2471844
1.9772095
1.7720643
1.6100319
1.4789636
1.3702346
1.2799326
1.2025832
1.137817
1.0809245
1.0346954
0.989923
0.95606373
0.91998012
0.8945704
0.86542032
0.84529402
0.8215886
0.80770649
0.78911452
0.777883
0.76353273
0.754121
0.7432484
0.73540592
0.72889262
0.72475883
0.72098269
0.71890704
0.71710479
0.71714128
0.71746595
0.71855172
0.71874677
0.71958662
0.72022965
0.72207813
0.72253805
0.72340541
0.72377356
0.72463771
0.72530087
0.72681044
0.72753905
0.72935671
0.73055909
0.73301626
0.73483753
0.73897958
0.74183643
0.74597742
0.74905254
0.75330599
0.7574405
0.76003542
0.7604999
0.76084249
0.76164934
0.76255769
0.76212439
0.76128253
0.7589541
0.75704617
0.75193971
0.74912389
0.74237496
0.73968735
0.73273102
0.72885509
0.7194059
0.71485535
0.70440271
0.69957071
0.68924917
0.68424192
0.67427763
0.66928451
0.65965434
0.65404304
0.64310275
0.63746065
0.62830244
0.62431845
0.61689565
0.61359437
0.60116797
4.0763131
3.2013512
2.6587594
2.2874784
2.0139885
1.8049211
1.6409915
1.5099978
1.4023274
1.3143574
1.2402775
1.1794536
1.127353
1.0869872
1.0468172
1.0187186
0.98709651
0.96804083
0.94370449
0.92999264
0.91244729
0.90606991
0.89466489
0.89134666
0.8849937
0.88272031
0.87908526
0.87906782
0.87977297
0.88232168
0.88686003
0.89371744
0.89923794
0.90732379
0.91471258
0.92603635
0.93078479
0.9401921
0.94542655
0.95592216
0.96015897
0.9674871
0.97210044
0.97723731
0.98346315
0.99094798
0.99458244
1.0024721
1.0067624
1.014104
1.0190283
1.0287576
1.0347217
1.0449126
1.0508979
1.06024
1.0687406
1.0763323
1.0787661
1.0830736
1.0847578
1.0890185
1.0903392
1.0907559
1.0895108
1.0880556
1.0830375
1.0798231
1.0711689
1.0678348
1.0589152
1.0540535
1.0409058
1.0343463
1.0186738
1.0106645
0.99351453
0.98518315
0.96776299
0.95906948
0.94095688
0.93143433
0.9109703
0.90018396
0.87853216
0.8689935
0.85037753
0.84195746
0.81429053
4.1076142
3.2499906
2.7026051
2.3289054
2.0579867
1.8555907
1.7013791
1.5815914
1.4852587
1.4094146
1.349104
1.3016999
1.2646205
1.2391731
1.2132471
1.1981761
1.1792744
1.1726978
1.1608918
1.1580249
1.156372
1.159227
1.1626062
1.1728183
1.1788087
1.1912108
1.1977564
1.2092217
1.2197512
1.234354
1.249533
1.2685225
1.2837402
1.3028184
1.3189853
1.3446077
1.3559102
1.3773354
1.3891281
1.4110765
1.4209838
1.4368236
1.4487487
1.4598904
1.4733492
1.4886652
1.4972919
1.5142103
1.5222314
1.535551
1.544595
1.56088
1.5710335
1.5880241
1.5964491
1.6119943
1.6250575
1.6391809
1.6445967
1.6547434
1.6584221
1.6662098
1.6688568
1.6732549
1.672319
1.6713914
1.6671751
1.6643235
1.6544623
1.6507828
1.640386
1.6350622
1.6195778
1.6114186
1.5909051
1.5797772
1.5555024
1.5443899
1.5202974
1.5084235
1.4821348
1.4687876
1.439499
1.4231326
1.3884208
1.3715929
1.3382933
1.3231286
1.2748121
4.1283703
3.2872166
2.7692455
2.4319164
2.1967602
2.0314114
1.9150657
1.8317321
1.7698158
1.7261778
1.6986991
1.6827487
1.6767547
1.6783962
1.6821682
1.6887358
1.6938227
1.705522
1.7129055
1.7302757
1.7398956
1.7623441
1.7773681
1.8110455
1.8284251
1.8599084
1.8773126
1.9020445
1.922125
1.9477623
1.971676
2.000361
2.0238003
2.0529017
2.0759567
2.1154507
2.1348219
2.1687382
2.1879517
2.2226949
2.2401332
2.2665345
2.2876297
2.3085164
2.3300119
2.3546653
2.3714671
2.3987237
2.4131211
2.4335714