/*--------------------------------*- C++ -*----------------------------------*\
| =========                 |                                                 |
| \\      /  F ield         | OpenFOAM: The Open Source CFD Toolbox           |
|  \\    /   O peration     | Version:  2406                                  |
|   \\  /    A nd           | Website:  www.openfoam.com                      |
|    \\/     M anipulation  |                                                 |
\*---------------------------------------------------------------------------*/
FoamFile
{
    version     2.0;
    format      ascii;
    arch        "LSB;label=32;scalar=64";
    class       volScalarField;
    location    "30";
    object      p;
}
// * * * * * * * * * * * * * * * * * * * * * * * * * * * * * * * * * * * * * //

dimensions      [1 -1 -2 0 0 0 0];

internalField   nonuniform List<scalar> 
20580
(
0.99960538
1.0008162
1.0008686
1.0009487
1.0004481
1.0011744
1.0003067
1.0015356
0.99899569
0.99922827
0.99876134
0.99586564
0.9960986
0.99435786
0.99229138
0.99050108
0.99126049
0.98723024
0.98699091
0.98778864
0.98430009
0.98347987
0.98459639
0.9835677
0.97928284
0.98115887
0.982636
0.9783338
0.98061841
0.98215757
0.97506564
0.99954927
1.0004686
1.0012377
1.0012362
1.0002289
1.0013717
0.99992675
1.0017305
0.99897892
0.99899006
0.99890884
0.99609208
0.99571325
0.99440082
0.99233106
0.99042622
0.99048874
0.98681487
0.98869306
0.98623613
0.98261858
0.98478782
0.98417326
0.98374431
0.97975337
0.98152864
0.98565196
0.98015729
0.97998413
0.98492212
0.97872276
1.0009095
1.0015834
1.0020391
1.0011776
1.0000524
1.0008303
0.99958636
1.0008061
0.9993335
0.99900335
0.99858282
0.99682935
0.99552407
0.99433124
0.99241449
0.99108172
0.98923728
0.98582149
0.99008181
0.98545435
0.98171638
0.98559028
0.98335333
0.9836956
0.9809248
0.98045277
0.98626099
0.98252892
0.9778259
0.98392563
0.98421754
1.0031715
1.0036699
1.0028536
1.0008951
1.0000711
0.99983122
0.99947868
0.9992088
0.99965168
0.99926231
0.99801906
0.99725539
0.99571426
0.99431773
0.99224395
0.99163807
0.98891199
0.98539311
0.99016787
0.98516153
0.98245646
0.98668336
0.98302989
0.98332664
0.98243892
0.97896781
0.98405616
0.98389406
0.9760427
0.97706707
0.98276684
1.005611
1.0057559
1.0031417
1.0007658
1.0002871
0.99895342
0.99971865
0.99797189
0.99969451
0.99948499
0.99767237
0.99709353
0.99598318
0.99413384
0.99197749
0.99154055
0.98949703
0.98644034
0.98916503
0.98514969
0.98393311
0.98693453
0.98275982
0.98280679
0.98321515
0.97863258
0.9814861
0.98400374
0.9779646
0.97226071
0.97706884
1.0071853
1.0070005
1.002643
1.0007965
1.0006763
0.9987123
1.0001491
0.99796804
0.99973804
0.99934129
0.99769195
0.99685346
0.99611062
0.99384536
0.99223053
0.99095472
0.98943325
0.98820713
0.98787351
0.98479356
0.98524636
0.98613297
0.98225273
0.98237423
0.98438049
0.98045271
0.9800461
0.9819635
0.98104619
0.97408689
0.97547703
1.0070038
1.0069148
1.0014972
1.000814
1.0010691
0.99922774
1.0003727
0.99915163
0.99990567
0.99891906
0.99798431
0.99698042
0.9958833
0.99368537
0.99269984
0.99034395
0.98843336
0.98920112
0.98678463
0.9848404
0.98566783
0.98471988
0.98149548
0.98070718
0.98504686
0.98237103
0.97923967
0.97929224
0.98165334
0.9780624
0.97674852
1.0052303
1.0054067
1.0004569
1.0008713
1.0010511
1.0000639
1.0001266
1.0005696
0.99998903
0.99864348
0.99822698
0.99735953
0.99563661
0.99398784
0.99291587
0.99046178
0.98771534
0.98935683
0.98579567
0.98525648
0.98519379
0.98387747
0.98189132
0.97910081
0.984282
0.983771
0.97851033
0.9773912
0.98080966
0.9812505
0.97772182
1.0028036
1.003196
1.0003636
1.0010366
1.0004323
1.0006718
0.99951998
1.0011595
0.99974917
0.99880089
0.99836791
0.9976173
0.99570361
0.99469583
0.99300918
0.99088555
0.98801539
0.98986575
0.9858346
0.98576492
0.98521827
0.98426269
0.98310401
0.97877488
0.98245083
0.98471484
0.97874276
0.97673026
0.98053039
0.98521664
0.98179765
1.0006979
1.0014381
1.0014482
1.0011425
0.99957223
1.0006205
0.99891126
1.0005398
0.99912939
0.99914209
0.99839561
0.99744437
0.99568685
0.99477574
0.99266362
0.99126458
0.98872585
0.99033789
0.98630742
0.98535975
0.98474771
0.98370743
0.98431311
0.98029435
0.98014521
0.9842395
0.98051534
0.97754945
0.97853384
0.98534744
0.98595557
0.99968771
1.0009197
1.0031211
1.0011654
0.99901976
1.0000001
0.99877376
0.99924099
0.99853378
0.9993134
0.99828191
0.99686676
0.99550925
0.99426078
0.99212837
0.99126473
0.9889737
0.98989902
0.98639657
0.9848686
0.98512234
0.9826351
0.9847033
0.98328142
0.97902946
0.98223257
0.98278494
0.97999048
0.97627097
0.98001305
0.98317855
1.0004426
1.0017895
1.0042752
1.0012034
0.9991278
0.99931732
0.9993202
0.99823611
0.99864589
0.9991111
0.99813215
0.99663848
0.99562937
0.99411395
0.99202958
0.99092147
0.98887174
0.98819454
0.98602269
0.98478239
0.98617457
0.98144403
0.98310382
0.98539137
0.98020079
0.9785158
0.98297611
0.98339477
0.97739269
0.97523138
0.9757799
1.0027462
1.0036398
1.0039628
1.0011425
0.99996212
0.99899257
1.000087
0.9982462
0.99942363
0.99880805
0.9980588
0.9970954
0.99628533
0.99458029
0.99222534
0.99086615
0.98944762
0.98657992
0.98552572
0.98532996
0.98728049
0.98138409
0.98150447
0.98581364
0.98334676
0.97615468
0.98074245
0.98492519
0.98139262
0.97507428
0.97165593
1.0052591
1.0057539
1.0023655
1.0009314
1.0011506
0.99932933
1.0004727
0.99899577
1.0001629
0.99875203
0.99824851
0.99766765
0.99675014
0.99506057
0.99283116
0.99110825
0.99089644
0.98628811
0.98584024
0.98587955
0.98753516
0.98245167
0.98104348
0.98481507
0.98586016
0.97765074
0.97828242
0.98336215
0.98488398
0.97878879
0.97336418
1.0067556
1.0069731
1.0004315
1.000752
1.0020268
0.99996421
1.0001653
0.99979422
1.000098
0.99895849
0.99853895
0.99779444
0.99634062
0.99504119
0.99355549
0.99093475
0.99177438
0.98713045
0.9872186
0.98622411
0.98660603
0.98329319
0.98072775
0.98294494
0.98476991
0.98054673
0.97812766
0.98053589
0.98492378
0.98182128
0.97676867
1.0066265
1.0064772
0.99942561
1.0007899
1.0019486
1.0003839
0.99941405
1.0001223
0.99918496
0.99927713
0.99866517
0.99750082
0.99564187
0.99470002
0.99387613
0.99034789
0.9909384
0.98776741
0.98843887
0.98642658
0.98500341
0.98399083
0.98104286
0.98140853
0.98112922
0.98189483
0.97996507
0.97815653
0.98122995
0.98178885
0.9800765
1.0047473
1.0047334
1.0000286
1.0009521
1.0009076
1.0003746
0.99885313
0.99969197
0.99825022
0.99941784
0.99855504
0.99722503
0.99552168
0.9942526
0.9937185
0.99028331
0.98960006
0.98764298
0.98860602
0.9859243
0.98349533
0.98513198
0.98294508
0.98111932
0.97844729
0.98168127
0.98198871
0.97767611
0.9768146
0.97946952
0.98348858
1.002111
1.0028137
1.002176
1.0013026
0.99964992
0.99975167
0.99881702
0.99900428
0.99819504
0.99934333
0.99821844
0.9973009
0.99607039
0.99404634
0.99342462
0.99121139
0.98925031
0.98716298
0.98797914
0.98565368
0.98267644
0.9855992
0.98576583
0.98215306
0.97787953
0.98130089
0.98408242
0.97984644
0.97492414
0.97629352
0.98426819
1.0000979
1.0014718
1.004322
1.0017487
0.9987648
0.99932671
0.99943041
0.99863961
0.99917308
0.99889792
0.99792459
0.99760653
0.99693868
0.99437972
0.99332107
0.99219109
0.98980829
0.98749988
0.98774441
0.9864262
0.98267259
0.98422359
0.98760595
0.98335312
0.97900108
0.98142917
0.98539317
0.98305206
0.97640105
0.97469346
0.98128193
0.99993973
1.0013287
1.0051285
1.0018092
0.99861524
0.99915768
1.0000204
0.99865785
1.0003556
0.9985596
0.9978975
0.99780543
0.99754137
0.9951291
0.99344182
0.99251484
0.99036186
0.98878158
0.98810644
0.98727691
0.98379633
0.98233275
0.98698462
0.98370766
0.98062851
0.98148789
0.98421715
0.98412007
0.97936877
0.97605057
0.9780299
1.0016838
1.0028356
1.0040993
1.0016623
0.99970618
0.99937231
0.99990907
0.99897463
1.0005589
0.99859514
0.99817414
0.99790616
0.99727274
0.9957376
0.9937742
0.99258081
0.99039427
0.98970007
0.98781141
0.98705388
0.9855038
0.98208498
0.98429823
0.98288321
0.9821617
0.9814656
0.98138427
0.98174688
0.98125418
0.97951609
0.9775159
1.0045216
1.0051416
1.0014247
1.0010791
1.0013109
1.0001472
0.99952567
0.99933431
0.99932682
0.99901198
0.99871793
0.99787931
0.99627379
0.99572467
0.99371337
0.9924616
0.98980856
0.98984148
0.98703855
0.98577092
0.98675231
0.9846663
0.98187454
0.98175344
0.98362925
0.9828196
0.97946549
0.9779728
0.98092269
0.98334303
0.98032139
1.0066536
1.0065623
0.99889053
1.0007974
1.0022367
1.000346
0.9992647
0.99957099
0.99777149
0.99962169
0.99913
0.99769702
0.99549353
0.99533981
0.99335304
0.99245091
0.9893426
0.99029621
0.98681403
0.98504329
0.98663061
0.98776959
0.981443
0.98090885
0.9838134
0.98450465
0.9802641
0.97574947
0.97920622
0.98568648
0.9829096
0.97721561
0.97634099
0.97665198
0.98045764
0.98499576
0.9855647
0.98166884
0.97748767
0.97632411
0.97593369
0.97509078
0.97845159
0.98329987
0.97959975
0.97346535
0.97452557
0.97936432
0.98069319
0.98105216
0.98238134
0.9783514
0.97356195
0.97588439
0.97909576
0.97791575
0.97576329
0.97688643
0.977461
0.97576579
0.97509739
0.97764135
0.98191022
0.98390405
0.9825211
0.98066912
0.9787099
0.97309886
0.96948878
0.97313406
0.97867305
0.98168516
0.98224803
0.98033046
0.97414572
0.97249302
0.97754417
0.98659897
0.98356727
0.97877681
0.97500635
0.97173441
0.9704856
0.97317128
0.97818845
0.98239753
0.9828681
0.97974968
0.97644624
0.97488697
0.97519388
0.97882667
0.98245263
0.98081348
0.97577164
0.97259852
0.9732891
0.97414
0.97700204
0.98139622
0.98095051
0.97815299
0.97655953
0.97706889
0.97936234
0.98161826
0.98222829
0.98014741
0.97582152
0.97232916
0.97118461
0.97141334
0.97329567
0.97811652
0.98399837
0.98547891
0.98113068
0.97504218
0.97169748
0.97255426
0.97445885
0.97614678
0.97796731
0.97090139
0.97049898
0.97328558
0.97853208
0.98464002
0.98751821
0.98515661
0.97922833
0.97403533
0.9724214
0.97362745
0.97495668
0.97595583
0.97740977
0.97790012
0.97618641
0.97377078
0.97331577
0.97611487
0.97996677
0.98025495
0.97702674
0.97397575
0.97515354
0.9762064
0.97706205
0.9774517
0.97759732
0.97541344
0.97366834
0.97326467
0.97519672
0.9794006
0.98293276
0.98377494
0.98208333
0.97892252
0.9748536
0.97012297
0.96700462
0.968546
0.9745873
0.9803032
0.98151797
0.9796052
0.97661175
0.98599234
0.98317709
0.97954027
0.97494845
0.97037429
0.96709751
0.96678839
0.96972401
0.97481609
0.97933054
0.98152044
0.98168946
0.98096732
0.97970747
0.97726663
0.97355448
0.97099157
0.97151521
0.97369707
0.97454546
0.97374855
0.97327918
0.97442263
0.98221867
0.97967782
0.97739383
0.97591946
0.97587948
0.9765938
0.97776426
0.97811718
0.97684391
0.9739703
0.97082241
0.96978636
0.97112096
0.97375065
0.97646701
0.97857462
0.97978726
0.97985809
0.97826451
0.97476657
0.97025517
0.96698744
0.96742852
0.96521175
0.96706891
0.9708743
0.97557838
0.9812721
0.98555383
0.98642698
0.9836158
0.97815448
0.97151696
0.96622317
0.96426213
0.96576198
0.96925063
0.97312975
0.97657021
0.97896111
0.98002371
0.9799872
0.97840669
0.97518114
0.97148351
0.96880038
0.96566716
0.96763248
0.97065107
0.97397626
0.97787018
0.98044834
0.9811815
0.98005718
0.97750148
0.97444555
0.97219143
0.97129362
0.97186148
0.97300644
0.97332235
0.97261634
0.97152818
0.97132638
0.97288696
0.97547126
0.97742048
0.97759415
0.97624634
0.9789826
0.97791271
0.97566301
0.97304423
0.97095975
0.96956655
0.96944972
0.97036404
0.97245304
0.97524991
0.97815369
0.98043571
0.98167347
0.98066701
0.97722899
0.97249228
0.96776932
0.96479931
0.96448566
0.9672693
0.97228848
0.97754566
0.9805716
0.98865901
0.98538042
0.97992868
0.97351395
0.96753673
0.9639475
0.96313668
0.96487421
0.96848106
0.97311127
0.97794322
0.98229345
0.98469458
0.98408601
0.98105065
0.97603587
0.97058902
0.96583749
0.96315204
0.96366207
0.96702285
0.97176246
0.97615554
0.98446434
0.98175022
0.978537
0.97430919
0.97094953
0.96823077
0.96748569
0.96813992
0.96973923
0.97176847
0.97423634
0.97647963
0.97795954
0.97918187
0.97972705
0.97871046
0.97641599
0.97319716
0.97037416
0.96822042
0.96696959
0.96695255
0.9683315
0.97462443
0.97406103
0.97432909
0.97490183
0.97598697
0.97661444
0.97706571
0.97671326
0.97555628
0.97337575
0.97058016
0.96887023
0.9689447
0.97051866
0.9733444
0.97691337
0.97979043
0.98093691
0.98009257
0.97700422
0.97260945
0.96836634
0.96520951
0.96645231
0.9673238
0.97167368
0.97528388
0.97993317
0.983348
0.9849059
0.98417573
0.98106271
0.97606525
0.9707425
0.96596034
0.96330288
0.96357851
0.96683025
0.97231578
0.97852295
0.98349916
0.98535988
0.98350331
0.97924875
0.97379917
0.96895917
0.96174069
0.96467643
0.96896749
0.97480253
0.98103774
0.98591576
0.98871348
0.98785924
0.98424673
0.97905103
0.97274163
0.96712406
0.96365273
0.96278006
0.9646614
0.9689448
0.9745586
0.98005421
0.98382226
0.98498698
0.98316602
0.97936731
0.97395332
0.96523224
0.96658637
0.97081745
0.97534076
0.98040242
0.98382192
0.9864071
0.98658085
0.98458847
0.98045737
0.97559471
0.97102172
0.96807851
0.96667945
0.9668319
0.96860322
0.97167283
0.97543395
0.97897578
0.98170528
0.98274581
0.98154369
0.97825085
0.96993137
0.97080985
0.97394757
0.97569379
0.97862691
0.98030146
0.98180502
0.98234718
0.98211719
0.98085729
0.97874902
0.97630229
0.97440683
0.97261784
0.97129185
0.97049452
0.97076312
0.97223038
0.97492104
0.97828546
0.98117099
0.98216067
0.98103109
0.97522854
0.97563929
0.97657558
0.97708449
0.9777966
0.97807236
0.97849143
0.97887654
0.97956911
0.98050083
0.9811859
0.98086518
0.97952144
0.97737558
0.9747246
0.97245621
0.97114119
0.97140242
0.97321954
0.97645955
0.9800761
0.98259767
0.98344113
0.98156042
0.98074568
0.97914369
0.97794793
0.97730861
0.97750006
0.97789639
0.97844896
0.97959029
0.98125301
0.982912
0.98381269
0.98296436
0.98048653
0.97680562
0.97340549
0.97143034
0.97126371
0.97330457
0.97685724
0.98058386
0.98358653
0.98491298
0.98580472
0.98416773
0.9815791
0.97925251
0.97782698
0.9773564
0.97775539
0.97922009
0.98136341
0.98376078
0.98588602
0.98667046
0.98588172
0.98281254
0.97843602
0.97441462
0.97203218
0.972
0.97435548
0.97820196
0.98244763
0.98584549
0.98694099
0.98638333
0.98577909
0.98396677
0.98174985
0.9797751
0.97878105
0.97907084
0.98046861
0.98315029
0.98636014
0.98848745
0.98906943
0.98721096
0.98343565
0.97931737
0.97623401
0.97474939
0.97532969
0.97783203
0.98156002
0.98545337
0.98814779
0.98837892
0.98510913
0.98541234
0.98551196
0.98483589
0.98374464
0.98294471
0.98302174
0.98407546
0.98568361
0.98767604
0.98939468
0.98961823
0.98792892
0.98493846
0.981403
0.97840303
0.97718564
0.97820717
0.98111266
0.9847159
0.98768278
0.9890955
0.98848513
0.98485889
0.9858809
0.98696874
0.98756064
0.98763756
0.98741201
0.98753815
0.9881491
0.98915617
0.9902267
0.99067227
0.99022714
0.98873936
0.98583628
0.98172376
0.97824683
0.97730836
0.97951611
0.98389206
0.98867472
0.99177311
0.99197045
0.98953578
0.98371822
0.9855109
0.98790385
0.99049403
0.9924312
0.99299031
0.99214704
0.99088123
0.99087059
0.99170614
0.99227338
0.99104043
0.98740379
0.98279863
0.97934618
0.97804537
0.97965605
0.98454562
0.99147858
0.99693651
0.99783267
0.99362572
0.98686123
0.98272022
0.98459295
0.98824741
0.99264206
0.99703932
0.99916335
0.99855229
0.99645973
0.99384432
0.99164753
0.9901077
0.98802301
0.98483299
0.98186768
0.98135096
0.98407892
0.98867411
0.99404409
0.99855791
0.99963105
0.99554502
0.98794255
0.98088761
0.98542103
0.9871032
0.99013849
0.99392494
0.99849683
1.0026679
1.0048472
1.0030321
0.99748792
0.99043884
0.98452138
0.9819217
0.98313825
0.98680963
0.99125008
0.99506123
0.99728285
0.99697266
0.99527527
0.9929267
0.98941645
0.98540235
0.9821423
0.99028879
0.99228167
0.99561453
0.99933577
1.0020217
1.0026475
1.0025202
1.00047
0.99567893
0.98853519
0.98213071
0.9804697
0.98519424
0.99392231
1.0013476
1.0033155
1.0002778
0.99465151
0.98916552
0.98666703
0.98723763
0.98780227
0.98693865
1.0018138
1.0007995
1.0007175
1.0012282
1.0007496
0.99911903
0.99565879
0.99192982
0.98973191
0.98963492
0.98974079
0.99032215
0.99390442
0.99998845
1.0056722
1.0060289
0.99978967
0.99176222
0.98628707
0.9849222
0.98719963
0.99058891
0.99317194
1.0123979
1.0076582
1.0017836
0.99607333
0.9919306
0.98916394
0.98831976
0.98981607
0.99365938
0.99894066
1.0042374
1.0063643
1.003787
1.000007
0.99852669
0.99850001
0.99535282
0.98942381
0.98575633
0.98676244
0.99122475
0.99578146
0.9988612
1.0097759
1.0070373
1.0002002
0.9927222
0.98844071
0.98815383
0.99231304
0.99885408
1.0061046
1.0113961
1.0120883
1.0088164
1.0024882
0.99465971
0.98867163
0.98874295
0.99249198
0.99366728
0.99305431
0.99425237
0.99770868
1.0008535
1.0012431
0.99582153
0.99944502
1.001949
1.00222
1.0015423
1.0016253
1.0029755
1.0045528
1.0061606
1.0076768
1.0075197
1.0030551
0.99683894
0.99235421
0.98904902
0.98747862
0.99270543
1.0020033
1.0072246
1.0059272
1.0015123
0.99658386
0.99321678
0.99166737
0.99620404
1.0050896
1.0134777
1.0161848
1.0134085
1.0078274
1.0025832
0.99915032
0.99765104
0.99741362
0.9971827
0.99631196
0.99638886
0.99968403
1.0029789
1.0037731
1.0051143
1.0060174
1.0008283
0.99284196
0.98838263
0.99050226
1.0077113
1.0044826
1.0041963
1.0070744
1.0124144
1.0149921
1.0121324
1.0042602
0.99542118
0.99037302
0.99162472
0.99785129
1.0059012
1.0106333
1.009811
1.0063307
1.0020017
0.99737037
0.99787036
1.0000858
0.99613511
0.99179642
0.99192692
1.0176336
1.014681
1.0082412
1.0016445
0.9977676
0.99911885
1.0043609
1.0084668
1.0060786
0.99966677
0.99828366
1.0038586
1.0107584
1.0129702
1.0100705
1.0027617
0.99522182
0.9921195
0.99536621
1.0013765
1.00197
0.99998419
0.99935041
1.0105396
1.0134835
1.0131483
1.0087243
1.0003025
0.99305064
0.99430078
1.0044778
1.0150218
1.0169751
1.0118486
1.0065575
1.0043431
1.0023006
1.0011229
1.0024658
1.0027708
1.0002917
0.99777612
0.99750114
0.99946287
1.0021745
1.0048225
1.0017113
1.0056292
1.0097224
1.0117902
1.0105194
1.0059049
1.0019633
1.0036167
1.0108025
1.0177336
1.0172011
1.0101874
1.0026164
0.99852351
0.99777334
1.0001173
1.004026
1.0062567
1.0063873
1.0055349
1.0041673
1.0024081
0.99976094
0.99809746
1.0021962
1.0104345
1.0188958
1.0227068
1.0198917
1.0127582
1.0056008
1.0033725
1.0064019
1.0114531
1.0136087
1.0100639
1.0031553
0.99843201
0.99801932
1.0017475
1.0069163
1.0101033
1.0101074
1.0081324
1.0050626
1.0016798
1.017317
1.0122662
1.0098592
1.0104117
1.0139984
1.0183704
1.0192075
1.0146508
1.0073142
1.0010849
0.99827715
1.0013524
1.0077094
1.0124144
1.0130579
1.01024
1.0065771
1.0048319
1.0049282
1.0049657
1.0028484
1.0002342
0.99994507
1.0217983
1.0189046
1.0142053
1.0087422
1.0041658
1.0031222
1.0067436
1.0114939
1.0134833
1.0124205
1.0082559
1.0039266
1.0029623
1.005759
1.0119337
1.0168075
1.0174196
1.0134112
1.0076341
1.0029835
0.99944736
0.99762499
0.99868487
1.0153592
1.0150753
1.0120115
1.0088952
1.0063528
1.0040107
1.0044271
1.0087368
1.0138587
1.0171341
1.0171722
1.0155315
1.0126578
1.0095565
1.0075276
1.0072583
1.008625
1.0085364
1.0074465
1.007531
1.0081139
1.0076572
1.0081223
1.0055899
1.0084044
1.0128871
1.0169211
1.0192579
1.0182662
1.013892
1.0091965
1.0078036
1.0107556
1.0154156
1.0187938
1.0184136
1.014542
1.0101347
1.0059397
1.0039405
1.0048132
1.005188
1.0066481
1.0093986
1.0104634
1.0094868
1.0158473
1.0124926
1.0115785
1.0136806
1.0169314
1.0204892
1.0213965
1.0177841
1.0122181
1.0083717
1.0073608
1.0089072
1.0098477
1.0105491
1.0115714
1.0131267
1.0144623
1.0134234
1.0106595
1.0081269
1.0076356
1.0082964
1.0063306
1.0226194
1.0195468
1.0148376
1.0105143
1.0078928
1.0090935
1.0132338
1.0172206
1.0181281
1.0154727
1.0116033
1.0092237
1.0087514
1.0094977
1.0122037
1.013341
1.0132861
1.0118689
1.0115182
1.012054
1.0122623
1.0121361
1.0101876
1.0151967
1.0162171
1.0161448
1.0147851
1.0116548
1.0097767
1.0100322
1.0122666
1.0163675
1.018463
1.0177093
1.0163748
1.0153197
1.0138712
1.0131591
1.0118381
1.0116975
1.0089499
1.0107753
1.012174
1.0122234
1.0110906
1.0102933
1.0091641
1.011146
1.0143269
1.0189519
1.0209591
1.0204254
1.0183601
1.0151344
1.0135561
1.0124472
1.0113684
1.0124747
1.0136541
1.0142881
1.0139921
1.0141768
1.0159511
1.0147159
1.0127419
1.0096196
1.0070261
1.0059652
1.0063291
1.0171639
1.0161238
1.015253
1.0159413
1.0168681
1.0171045
1.0167647
1.0143572
1.0128442
1.0138708
1.0139016
1.0140931
1.0153505
1.0159593
1.013846
1.0129602
1.0110524
1.011894
1.012514
1.0109621
1.0112816
1.0110233
1.0122137
1.0173646
1.0177354
1.0168082
1.0152391
1.0136623
1.0131132
1.0142382
1.0148975
1.0148487
1.0153438
1.0158899
1.0154794
1.0143557
1.0168592
1.0158485
1.0141137
1.0115358
1.0104856
1.014434
1.0166341
1.0193362
1.0173706
1.0147403
1.0153873
1.0156159
1.0163962
1.0159753
1.0140377
1.0129808
1.0139988
1.0154447
1.0165771
1.0163329
1.0150278
1.0160922
1.0149099
1.015578
1.0171036
1.0168926
1.0172748
1.0146097
1.0142077
1.0131132
1.0128406
1.0113831
1.0099185
1.014379
1.0144825
1.0151354
1.0168919
1.0168636
1.0158427
1.0160761
1.0170404
1.0182458
1.0190267
1.0173623
1.0170303
1.0160984
1.012945
1.0124481
1.0128242
1.0144327
1.0150843
1.0133062
1.0118852
1.0090749
1.0093077
1.0116493
1.0168602
1.016861
1.0166486
1.0177133
1.0191137
1.0182961
1.0162574
1.0145207
1.0135974
1.013849
1.0141568
1.014687
1.0155808
1.0136432
1.0129024
1.0142682
1.0146495
1.0167549
1.0172302
1.018576
1.0185631
1.0171835
1.0164767
1.0163063
1.016444
1.0160604
1.0150971
1.0158382
1.0169107
1.0161426
1.0151384
1.014949
1.0148063
1.0156145
1.0164601
1.0180149
1.0191965
1.0189693
1.0199426
1.018886
1.0166758
1.0152935
1.0158302
1.0169812
1.0152126
1.0129162
1.0166934
1.0169582
1.0170421
1.0165191
1.0157226
1.0163257
1.0171971
1.0174984
1.0184979
1.019093
1.018331
1.0174341
1.0157929
1.0150618
1.0147292
1.0153679
1.0168833
1.015496
1.0138359
1.0121715
1.012887
1.0126663
1.0130328
1.017113
1.017627
1.018011
1.0178356
1.0167583
1.0154096
1.014967
1.0151909
1.0158948
1.0169285
1.0163416
1.0155328
1.0158215
1.0159265
1.0158056
1.0148724
1.0152415
1.0167212
1.018006
1.0177424
1.0184366
1.0181617
1.0176218
1.0168425
1.0163622
1.0162517
1.0165585
1.0171703
1.0178674
1.0181771
1.0177684
1.017034
1.0165835
1.016769
1.0166357
1.0170838
1.0184061
1.0188405
1.0180359
1.0166601
1.0163032
1.0168351
1.0162107
1.0159713
1.0158847
1.0154567
1.0197011
1.0190272
1.0181842
1.017459
1.0173241
1.017845
1.0185383
1.0186342
1.0181419
1.0172344
1.0165971
1.0163462
1.0162134
1.0161825
1.0171403
1.0178464
1.0184369
1.0179411
1.017103
1.0161748
1.0156244
1.0160825
1.0159279
1.0181944
1.0189055
1.0192362
1.018637
1.0180414
1.0176337
1.0168668
1.0166357
1.01724
1.017955
1.0185851
1.0190529
1.0189952
1.0183738
1.0176743
1.0170796
1.0164749
1.0165031
1.0163231
1.0166929
1.0165005
1.0170528
1.017251
1.0180826
1.0184626
1.0185145
1.0184611
1.019733
1.0207489
1.0198769
1.0186531
1.0182209
1.0180168
1.0178586
1.0175512
1.0167778
1.0162727
1.0163883
1.0166
1.0166611
1.0168045
1.0174813
1.0182064
1.0182104
1.017543
1.0167006
1.0208488
1.021069
1.0196314
1.0180158
1.018337
1.0189845
1.018469
1.0181024
1.0178577
1.0172744
1.0177322
1.0176658
1.0165812
1.0171962
1.0185948
1.0190555
1.0189914
1.0182972
1.0173582
1.0162814
1.0156974
1.0155783
1.0161309
1.0193611
1.0200421
1.0192103
1.018791
1.0196863
1.0195042
1.0184556
1.0185644
1.0188608
1.0193834
1.0209153
1.02025
1.0181415
1.0180338
1.0179703
1.0173384
1.0173082
1.0165285
1.0163816
1.0163245
1.0171388
1.0171918
1.0172077
1.0200235
1.0203024
1.0194946
1.0200534
1.0218266
1.0220691
1.0208441
1.0197685
1.0187991
1.0190844
1.0199222
1.0182021
1.0168945
1.018152
1.0182938
1.0174489
1.0175936
1.0177575
1.0182429
1.0180154
1.0180349
1.0171929
1.0159021
1.0220124
1.0211543
1.0195025
1.0199482
1.0214376
1.0208809
1.0190233
1.0181757
1.0183933
1.0194777
1.0203127
1.0189266
1.0177935
1.0188734
1.0188803
1.0184027
1.0183189
1.0175332
1.01706
1.0167257
1.0168314
1.0151168
1.0142935
1.0217156
1.0205935
1.018791
1.0197495
1.021506
1.0207779
1.0195142
1.0193708
1.0194413
1.0203288
1.0205136
1.0186075
1.018079
1.0189098
1.0187048
1.018049
1.017029
1.0167524
1.0180245
1.0174452
1.0165472
1.0164279
1.0162415
1.0217873
1.0207551
1.0193642
1.0209217
1.0229444
1.021639
1.0192123
1.0184999
1.0194546
1.0211473
1.0205434
1.0182682
1.0184532
1.0185519
1.0175738
1.0188075
1.0193973
1.018409
1.0163771
1.0169626
1.0178715
1.0156117
1.0144409
1.0227768
1.020986
1.0191851
1.0209416
1.0232728
1.0220349
1.019927
1.0195345
1.0199966
1.020761
1.0201612
1.0187639
1.0190739
1.0196923
1.0192804
1.0191801
1.0174999
1.0173661
1.0178146
1.0174054
1.0166629
1.0155512
1.0158959
1.022343
1.0207834
1.0200311
1.0226931
1.0246774
1.0219608
1.0186423
1.0186374
1.020501
1.0216037
1.0205471
1.0196882
1.0202516
1.0184397
1.0173887
1.0200291
1.0196247
1.0168153
1.016383
1.0178654
1.0180158
1.0158948
1.0155741
1.0236873
1.0210751
1.0197354
1.0223004
1.0244391
1.0222783
1.0199849
1.0205511
1.0212787
1.0210913
1.0203715
1.0191053
1.0191167
1.0193792
1.0190895
1.0192106
1.0181631
1.0177564
1.0178741
1.017976
1.0175913
1.0153684
1.01514
1.0231194
1.0212309
1.0208426
1.0240318
1.0257795
1.0224311
1.0187703
1.019175
1.0215395
1.0219754
1.0209109
1.0206837
1.0205986
1.0186109
1.0177439
1.0178572
1.0172603
1.0177775
1.0188376
1.0175633
1.0156968
1.0150223
1.0158589
1.0233016
1.021065
1.0206267
1.0236684
1.0260741
1.0237447
1.0202925
1.020399
1.0219895
1.0219001
1.0194813
1.0188305
1.0208639
1.0201202
1.0179184
1.018662
1.0196865
1.0171744
1.0151618
1.0169712
1.0175946
1.0146908
1.0143899
1.0244742
1.0221409
1.0205196
1.0226369
1.0256473
1.0241058
1.0200962
1.0185624
1.0203401
1.0226912
1.0227853
1.0205689
1.0195946
1.0196787
1.0184725
1.0166535
1.0156658
1.0177637
1.0194259
1.0178563
1.0158362
1.0150352
1.0155476
1.0231146
1.0222349
1.0209472
1.0215544
1.0239893
1.024184
1.0216427
1.0197869
1.0199456
1.0206743
1.0207862
1.0203156
1.0198862
1.0185938
1.017581
1.0185369
1.0183451
1.0166309
1.0159019
1.0166898
1.0170376
1.0148359
1.0123411
1.0201659
1.0205983
1.0207747
1.0198132
1.0195812
1.0199553
1.0204171
1.0201339
1.0195241
1.0190174
1.0191239
1.0189359
1.01849
1.0178149
1.0168727
1.016994
1.0174649
1.0166771
1.0153825
1.0153597
1.0161293
1.0150185
1.0121125
1.0173021
1.0174293
1.0167653
1.0168811
1.0174063
1.0179424
1.0176987
1.0169009
1.0170223
1.0179271
1.0184136
1.0175334
1.016013
1.015393
1.0153711
1.0154153
1.0155724
1.0154401
1.0144694
1.0130111
1.012925
1.0139119
1.0136902
1.013634
1.0158773
1.014792
1.0138191
1.0138802
1.0148874
1.015688
1.0159048
1.015727
1.0149721
1.0140392
1.0136707
1.0134229
1.0125043
1.0117989
1.0129856
1.0141894
1.0135994
1.0121838
1.0116014
1.0122159
1.0115465
1.00956
1.0084674
1.0092176
1.0122355
1.0122628
1.0111889
1.0101981
1.0101594
1.0104408
1.0103442
1.0098593
1.0102292
1.0113817
1.0114363
1.0093379
1.0072559
1.0082732
1.0103136
1.0103067
1.008727
1.0084021
1.0095453
1.0087741
1.0065231
1.005388
1.0065958
1.0074368
1.007899
1.0077531
1.0073995
1.0069519
1.0060892
1.00498
1.004519
1.0055398
1.0070474
1.0072564
1.0057952
1.0042716
1.0041818
1.004764
1.0045947
1.0042377
1.0050017
1.0064541
1.0062728
1.0043925
1.0075177
1.0059471
1.0049369
1.0041673
1.0037333
1.0037308
1.004009
1.0039131
1.0031273
1.0022288
1.0017624
1.0014857
1.0010534
1.0007488
1.0010389
1.0014567
1.0010372
0.99973866
0.9987643
0.99900773
1.0005187
1.002104
1.0029136
1.0046956
1.0041225
1.0037229
1.0028483
1.0019778
1.0013779
1.0012421
1.0013574
1.0015146
1.0011132
0.99994713
0.99821753
0.99643076
0.99531263
0.99546402
0.99642489
0.99728919
0.99732746
0.99662484
0.99547012
0.99466372
0.99508062
0.99670194
1.0037446
1.0031592
1.003289
1.0031145
1.0028037
1.0020688
1.0010446
1.0000164
0.99922767
0.99845396
0.99749673
0.99651833
0.99570286
0.99499304
0.99420662
0.993511
0.99315731
0.99301963
0.99280802
0.99233917
0.99186682
0.99210346
0.99308246
1.0060747
1.0052489
1.0049139
1.0044346
1.004049
1.0033855
1.0023253
1.0010377
0.99983487
0.99867649
0.99743107
0.99634227
0.99566985
0.99524668
0.99454032
0.99339379
0.99224458
0.99132746
0.99064108
0.99014571
0.9903324
0.99116049
0.99170873
1.0092756
1.0086282
1.0081524
1.0074613
1.0069377
1.0061685
1.0050769
1.0039111
1.0026462
1.0015509
1.0003642
0.99906293
0.99787032
0.99690119
0.99590664
0.99449152
0.99307174
0.99215317
0.99165691
0.99123566
0.99117617
0.99152281
0.99159455
1.0109461
1.0103336
1.010259
1.009876
1.0094818
1.0087897
1.0078223
1.0068988
1.0056709
1.0047529
1.0040187
1.0031058
1.0017071
1.0001802
0.99929558
0.99863463
0.99753637
0.99607461
0.99510526
0.99497567
0.9948946
0.99401586
0.99286714
1.0096869
1.0098312
1.0101787
1.009877
1.0092361
1.0089711
1.0090783
1.0091669
1.0079595
1.0066355
1.0061668
1.0062973
1.0054155
1.0033086
1.0019757
1.0024033
1.0027113
1.001197
0.99917806
0.99904826
0.99961784
0.9986754
0.99676164
1.0069924
1.0076259
1.0087138
1.0087036
1.0076185
1.0072314
1.0081579
1.0092214
1.0082432
1.006353
1.0059058
1.0073181
1.0081293
1.0063661
1.0046049
1.0049778
1.0061647
1.0051668
1.0029927
1.00247
1.0030683
1.0030085
1.001996
1.0052404
1.0056654
1.0068665
1.0069078
1.0054831
1.0046446
1.0056129
1.006919
1.0066154
1.0051282
1.0049966
1.0066607
1.0076017
1.0061244
1.004823
1.0059231
1.0078018
1.0072529
1.0051195
1.0049829
1.0062538
1.0065171
1.0063276
1.0050837
1.0049277
1.0049787
1.0050317
1.0048424
1.0040847
1.0041735
1.0048743
1.0051468
1.0046646
1.0043564
1.0049874
1.0055967
1.0051683
1.0046629
1.00561
1.0075826
1.0073938
1.0064647
1.0067928
1.0078545
1.007611
1.0069615
1.0047167
1.004784
1.0053026
1.0054735
1.0049871
1.0045751
1.0048332
1.0050492
1.0049647
1.0048007
1.0046112
1.0050606
1.0056006
1.00554
1.0052792
1.0055319
1.0068068
1.0068609
1.0066458
1.0075229
1.0089413
1.0079485
1.006717
1.0046728
1.0048585
1.0051513
1.0053295
1.0053115
1.0050345
1.0051455
1.0054762
1.0052762
1.0048734
1.0047751
1.0053721
1.0059629
1.0059451
1.0056535
1.0061407
1.0066132
1.0068207
1.0063303
1.0068435
1.0082703
1.0080753
1.0064402
1.0054824
1.0047341
1.0041108
1.0040253
1.0045942
1.0051787
1.0051336
1.0047468
1.0045537
1.0049459
1.0054072
1.0053698
1.0051691
1.0052586
1.0055839
1.0060823
1.0058263
1.0055504
1.0063513
1.0070326
1.0072942
1.0063847
1.0076827
1.0039091
1.0041938
1.0044042
1.0045168
1.0045307
1.004416
1.004188
1.0041223
1.0042911
1.0047666
1.0049516
1.0047081
1.0043103
1.0043013
1.0046152
1.004988
1.0047376
1.0047698
1.0053595
1.0054616
1.0054747
1.0051393
1.005563
1.0039163
1.004007
1.0040321
1.0040063
1.0038742
1.0038364
1.0039672
1.0039792
1.0040758
1.0040997
1.0039557
1.0038672
1.0038911
1.0040991
1.004124
1.0038104
1.0037061
1.003502
1.0041665
1.0033542