/*--------------------------------*- C++ -*----------------------------------*\
| =========                 |                                                 |
| \\      /  F ield         | OpenFOAM: The Open Source CFD Toolbox           |
|  \\    /   O peration     | Version:  2406                                  |
|   \\  /    A nd           | Website:  www.openfoam.com                      |
|    \\/     M anipulation  |                                                 |
\*---------------------------------------------------------------------------*/
FoamFile
{
    version     2.0;
    format      ascii;
    arch        "LSB;label=32;scalar=64";
    class       volScalarField;
    location    "30";
    object      p_0;
}
// * * * * * * * * * * * * * * * * * * * * * * * * * * * * * * * * * * * * * //

dimensions      [1 -1 -2 0 0 0 0];

internalField   nonuniform List<scalar> 
20580
(
0.99998486
1.0016654
0.99982775
0.99995264
1.0003429
1.0004654
1.0008246
1.0011986
0.99893327
0.99896132
0.9989492
0.99614662
0.99621579
0.99425726
0.99217978
0.99047277
0.991212
0.98752609
0.98664746
0.98829975
0.98480966
0.98339119
0.98461099
0.98411363
0.97979476
0.98022727
0.98303494
0.97835157
0.97988761
0.98281017
0.9755155
0.99978798
1.0013536
1.00027
1.0001289
1.0002437
1.0006063
1.0004523
1.0014619
0.99873514
0.99894328
0.9989431
0.99619212
0.99593904
0.99456142
0.99221142
0.99034852
0.99071743
0.98671609
0.98823505
0.9871314
0.98271399
0.98427429
0.98434079
0.9838084
0.97998387
0.98023479
0.98545978
0.9809256
0.97905335
0.98510498
0.98065613
1.0010072
1.0022008
1.0016285
1.0003256
1.0002343
1.0003719
0.99974764
1.0006679
0.99897932
0.99923434
0.99842705
0.99661705
0.99564951
0.99474121
0.99232333
0.99096521
0.98978106
0.98565936
0.98963043
0.98652738
0.98140444
0.98472151
0.98364825
0.98328238
0.98126462
0.97944237
0.98536705
0.98348926
0.97734556
0.98270761
0.98543394
1.00308
1.0037338
1.0031665
1.0006033
1.0002969
0.99988154
0.99909287
0.99921884
0.99937172
0.99955654
0.99782065
0.99689857
0.99558314
0.99461323
0.99229399
0.99155865
0.98956493
0.98533652
0.98986549
0.98616471
0.98207068
0.9862441
0.98378282
0.98310946
0.98295478
0.97910667
0.98313402
0.98492172
0.9772306
0.97593425
0.98177374
1.0053344
1.0051952
1.0039232
1.0012482
1.0003438
0.9994248
0.99900991
0.99807007
0.99969353
0.99947715
0.99764168
0.99700377
0.99570415
0.99400961
0.99212616
0.99158836
0.98989756
0.98635748
0.98917092
0.9856519
0.98346648
0.98692034
0.98353392
0.98289392
0.98359956
0.9793136
0.98090283
0.98413254
0.98001573
0.97253191
0.97553753
1.006857
1.0059757
1.0033463
1.001875
1.0004686
0.99926138
0.99955608
0.99804452
1.000018
0.99893582
0.99788065
0.99710847
0.99594006
0.99348312
0.99239073
0.9909621
0.98944599
0.98781306
0.9881861
0.98486943
0.98506857
0.9864528
0.98283659
0.98229289
0.98461631
0.98103831
0.98018619
0.98164689
0.98235361
0.97522143
0.97469198
1.0067567
1.0057847
1.0016527
1.0018696
1.0005901
0.99942277
1.0001263
0.99908895
1.000212
0.99837802
0.99816381
0.9972735
0.99599009
0.99355325
0.99280113
0.99045773
0.98837828
0.98866386
0.98720117
0.98451696
0.98564951
0.9848122
0.98181776
0.98015485
0.98453223
0.9828106
0.97983844
0.97915437
0.98146459
0.97861509
0.97623976
1.0050858
1.0046564
1.000037
1.0014036
1.0004059
0.99969711
1.0003038
1.0003351
0.99994699
0.99839148
0.99826939
0.99736493
0.99590658
0.99427449
0.99302915
0.99065555
0.98781114
0.98923883
0.98645018
0.98491336
0.98546182
0.98415312
0.98227836
0.97869102
0.98324006
0.98440731
0.97937772
0.97720237
0.97968807
0.98151114
0.97851308
1.0028012
1.0032043
0.99974801
1.0007908
0.99993142
0.99993172
0.99995457
1.0008124
0.99924632
0.99901254
0.99822804
0.99729939
0.99582711
0.99505324
0.99300937
0.99109711
0.98812761
0.99003082
0.98671576
0.98552072
0.98544444
0.98439619
0.98356395
0.97906615
0.98138493
0.98516033
0.97972956
0.97658745
0.97885087
0.98469117
0.98382724
1.0008615
1.0022081
1.001033
1.0000687
0.99955506
0.99990818
0.99917393
1.0002261
0.99846587
0.99960409
0.99809119
0.99700654
0.9955798
0.99483369
0.99242986
0.99148116
0.98854473
0.99027299
0.9868838
0.98515236
0.98474812
0.98376153
0.98465657
0.98140653
0.97933609
0.98409489
0.98116365
0.9776964
0.97693874
0.98366062
0.98675792
0.9999257
1.002162
1.0030906
0.99964098
0.99948918
0.99970521
0.99868126
0.99914933
0.99817979
0.9996334
0.99803114
0.99674281
0.99542399
0.99412619
0.99202101
0.99131647
0.98862034
0.9896301
0.98653947
0.98500982
0.98505583
0.98279613
0.98410545
0.98416524
0.97896875
0.98137363
0.98281385
0.98068487
0.97622634
0.97890471
0.98209363
1.0006117
1.0029629
1.0045732
1.0000331
0.99977495
0.99961913
0.99893396
0.99834248
0.99885432
0.99902311
0.99806125
0.99696338
0.99578908
0.99406027
0.99212281
0.99101785
0.98876375
0.98816912
0.98579777
0.98481408
0.98609904
0.98188
0.98199516
0.98528398
0.98124879
0.97765652
0.98243644
0.98388658
0.9788614
0.97596901
0.97467687
1.0028211
1.0040677
1.0043377
1.0009107
1.0003796
0.99960207
0.99948756
0.99837175
0.99993726
0.99834768
0.99819682
0.99746217
0.99647864
0.99458902
0.99250115
0.99108572
0.98971566
0.98713922
0.9853439
0.98507615
0.98739355
0.98226335
0.98097181
0.98502431
0.98507335
0.97667486
0.98009539
0.98437203
0.98291193
0.97724064
0.97194137
1.0052568
1.00511
1.0024492
1.0016924
1.0010104
0.99969305
0.99996756
0.9990212
1.0004699
0.9981939
0.99844165
0.99769958
0.99655948
0.99502399
0.9931305
0.99114279
0.99113957
0.98711118
0.98588646
0.98554266
0.98766729
0.98310729
0.98108191
0.98385996
0.98689682
0.97926678
0.97806303
0.98218589
0.98549425
0.98082414
0.97443882
1.006607
1.0055855
1.0000854
1.0021778
1.0012567
0.99978312
1.0000993
0.99960661
0.99986513
0.99863463
0.99858617
0.99754495
0.9958942
0.99511339
0.99364908
0.9906265
0.9915363
0.98771533
0.98706605
0.98620064
0.98672967
0.98344456
0.98096938
0.98233281
0.98445122
0.98170323
0.97820699
0.97933625
0.98443029
0.98260476
0.97766712
1.0063133
1.0050765
0.99885679
1.0022699
1.0009546
0.99963391
0.99964031
0.99977103
0.99852262
0.99935425
0.99851918
0.99727693
0.99543502
0.994808
0.99379628
0.99003416
0.99050549
0.98790515
0.98791954
0.98665293
0.9850671
0.98406621
0.98138339
0.9813996
0.9802311
0.9819778
0.9797358
0.97741461
0.98034397
0.98127263
0.98074019
1.004613
1.0039192
0.99960754
1.0015492
1.0002478
0.99946103
0.99915996
0.99941647
0.99758603
0.99974061
0.99825789
0.99717438
0.99569297
0.9943308
0.99359475
0.99044357
0.98959637
0.98746832
0.98795618
0.98623955
0.98354418
0.98505789
0.98336875
0.98173106
0.97779499
0.98094626
0.98175087
0.97803121
0.97655491
0.97797608
0.98323024
1.0020807
1.0031479
1.0022028
1.0005591
0.99965223
0.99937493
0.99901768
0.99890058
0.99794719
0.99957883
0.99796358
0.99731044
0.99643704
0.99408804
0.99330971
0.99172086
0.98964567
0.98711851
0.98769386
0.98619445
0.98290986
0.98493985
0.98605351
0.98318096
0.97795476
0.98042451
0.98434881
0.98139474
0.97553915
0.97469544
0.98281557
1.0002045
1.0027794
1.004886
0.99993333
0.99938287
0.99961411
0.99917555
0.99864494
0.99938753
0.99882919
0.99791369
0.99752766
0.99719587
0.99433133
0.99322646
0.99247102
0.99016732
0.98762564
0.98791259
0.98703277
0.98315637
0.98306729
0.98744519
0.98429092
0.97980412
0.98044536
0.98553776
0.98480323
0.97763655
0.97403678
0.97990269
1.0001416
1.0028976
1.0058172
1.0000284
0.999492
0.99992076
0.99943865
0.99871156
1.0006966
0.99819405
0.99805909
0.99769181
0.99744303
0.99506682
0.99348629
0.9925006
0.99047452
0.98870355
0.98829696
0.98746274
0.98430561
0.98141097
0.98635669
0.98410598
0.98155379
0.98040586
0.98364655
0.98499551
0.98034729
0.97646706
0.97797506
1.0018247
1.0037093
1.0044218
1.0006905
1.0001656
1.0000095
0.99944286
0.99894893
1.0006956
0.99826648
0.99829791
0.99783935
0.99693092
0.99570386
0.99392239
0.99239309
0.99032819
0.98932054
0.98777018
0.9867947
0.98565532
0.98198676
0.98388019
0.98264332
0.98272419
0.98099771
0.98099332
0.98160643
0.98113843
0.98020065
0.97843571
1.0045133
1.0046241
1.0010297
1.0016091
1.0009598
0.99989283
0.99938748
0.99917215
0.99901958
0.99887702
0.99864516
0.99783396
0.99609603
0.99562779
0.99377213
0.99225672
0.98980224
0.98958947
0.98720131
0.98557033
0.98623231
0.98539419
0.9822983
0.9811909
0.98335144
0.98319546
0.9800373
0.9774531
0.97989187
0.98366677
0.98101196
1.0064151
1.004863
0.9981029
1.0026732
1.0012681
0.99926476
0.99957253
0.99934863
0.99732037
0.99971397
0.99878715
0.99770336
0.9956259
0.9953107
0.99346036
0.9924258
0.98953196
0.99040192
0.98727736
0.98530889
0.98551477
0.98880976
0.98248347
0.98053877
0.98243272
0.98552473
0.9814465
0.97559507
0.97788239
0.98541386
0.98259127
0.97775648
0.97739517
0.9771041
0.97957676
0.9839431
0.98579242
0.98282307
0.97791891
0.97532198
0.97470626
0.97395122
0.97692569
0.9835766
0.98268673
0.97583107
0.97435134
0.97821035
0.97966894
0.97963146
0.98189838
0.98033881
0.97447376
0.97474442
0.97744079
0.97708044
0.97549672
0.97731083
0.97955022
0.97861537
0.9766688
0.97717069
0.9803522
0.98286707
0.98228332
0.98033808
0.97884801
0.97393267
0.96904895
0.97163769
0.97831254
0.98277842
0.98351814
0.9812364
0.97490215
0.97155344
0.97594124
0.98601963
0.98334413
0.97865959
0.97456254
0.97174939
0.96994171
0.97193625
0.97768917
0.98332946
0.9849605
0.98177737
0.97733205
0.97484591
0.97425888
0.97679176
0.98054245
0.98020033
0.97647483
0.97401661
0.97476785
0.97487317
0.97641156
0.9803139
0.98309181
0.9799951
0.97713614
0.97616812
0.9770209
0.97871636
0.98033316
0.97992349
0.97702645
0.97391972
0.97234722
0.97209115
0.97337973
0.97732039
0.98329535
0.98595377
0.98231667
0.97566643
0.97083306
0.97102395
0.97332181
0.97565615
0.97835946
0.97221022
0.97116925
0.9729748
0.97781994
0.98449591
0.98825479
0.98626495
0.98025459
0.97389857
0.97102344
0.97172414
0.97338826
0.97474997
0.97683347
0.97902092
0.97892032
0.9767336
0.97480521
0.97500528
0.97751694
0.97853698
0.9762159
0.97402782
0.9736515
0.97480972
0.97583685
0.97737549
0.9795411
0.97879865
0.97698074
0.97478236
0.974889
0.97798198
0.98135432
0.98254738
0.98086678
0.97787418
0.9746939
0.97111506
0.96821243
0.96891716
0.9741916
0.98052339
0.98264368
0.98034251
0.97636959
0.98480862
0.98245561
0.97930054
0.9750323
0.9706808
0.96715854
0.96607733
0.96877685
0.97462218
0.98052673
0.98386819
0.98379075
0.98175503
0.97920152
0.97625959
0.97228926
0.96911094
0.9693589
0.97253989
0.97529242
0.97611716
0.97583875
0.97558416
0.98462065
0.98181043
0.97866999
0.97577103
0.97401025
0.97318445
0.97383772
0.97538118
0.97641421
0.97582374
0.97402363
0.97284054
0.97314787
0.97483241
0.97693456
0.97811569
0.97823156
0.97783974
0.9765666
0.97392122
0.97065488
0.96811056
0.96835855
0.96772793
0.96877331
0.97176506
0.97572355
0.98021653
0.98332818
0.98427102
0.98222779
0.97788677
0.97199883
0.96667596
0.96445281
0.96563812
0.96906329
0.97340346
0.97774207
0.98060556
0.98130421
0.98038229
0.97793833
0.97415803
0.9699347
0.96715974
0.96481614
0.96668275
0.97027292
0.97439965
0.97933271
0.98234524
0.98332499
0.98210373
0.97875844
0.97429934
0.97070014
0.96864538
0.96870061
0.97027411
0.97228337
0.97370614
0.97400138
0.97426243
0.97548993
0.97684731
0.97705255
0.97593358
0.97417931
0.97545033
0.97533314
0.97444565
0.97360443
0.97282287
0.97233455
0.97268575
0.97324493
0.97451864
0.9761627
0.97739367
0.97810332
0.97866778
0.97815166
0.97590693
0.97216979
0.96829943
0.96613461
0.96628959
0.96896334
0.97343659
0.97799193
0.98038821
0.98718498
0.98425243
0.97947142
0.97341187
0.96785927
0.96450924
0.96382762
0.96551919
0.96921836
0.97390809
0.97869009
0.98307748
0.98516643
0.98413151
0.98031894
0.97463059
0.96910928
0.96477527
0.96265707
0.96374324
0.96786676
0.97327946
0.97808694
0.98667971
0.98359373
0.97942553
0.9742302
0.96959858
0.96613735
0.96494125
0.96570239
0.96812662
0.971397
0.97562669
0.97902553
0.98119678
0.98205504
0.98095143
0.97820941
0.97452361
0.97053504
0.9676532
0.96614905
0.96643538
0.96814716
0.97047888
0.97776735
0.97686847
0.97625868
0.97548183
0.97474003
0.97386642
0.97341194
0.97304192
0.97271454
0.97204232
0.97129406
0.97154605
0.97288005
0.97422373
0.97617708
0.97816417
0.97886732
0.97836267
0.97683739
0.97427325
0.97113514
0.96818734
0.96614336
0.9689764
0.9691396
0.97309576
0.97592626
0.97938874
0.98179372
0.98269874
0.98157765
0.9786357
0.97431523
0.97013111
0.96681027
0.96550858
0.96644106
0.96957543
0.97419175
0.97906231
0.98273777
0.98366506
0.98173366
0.97761149
0.97269836
0.96845712
0.96159771
0.96475881
0.96942584
0.97571275
0.98198571
0.98695714
0.98891828
0.98727368
0.98310059
0.97773435
0.97166464
0.96642663
0.96352485
0.96321506
0.96556494
0.97011898
0.97572748
0.98090837
0.98419419
0.98475702
0.98255946
0.97835302
0.97259581
0.96321974
0.96522334
0.97015503
0.9760039
0.9817355
0.98597513
0.98867496
0.98816434
0.98503015
0.97987331
0.97419691
0.96948425
0.96662779
0.9656304
0.96638842
0.96886144
0.97266867
0.97684551
0.98072559
0.98332452
0.98358725
0.98108683
0.97677372
0.96714773
0.96870229
0.97279176
0.97574926
0.9800062
0.98270076
0.98474776
0.98509535
0.98378778
0.98094903
0.97771068
0.97436977
0.97217556
0.97044997
0.96972307
0.96998731
0.97141536
0.97418233
0.97757613
0.98088684
0.98277101
0.9821066
0.97948722
0.97255228
0.97336134
0.9754368
0.97690766
0.97919625
0.98056009
0.98164561
0.98200204
0.98168616
0.98116158
0.98004364
0.9784564
0.97669645
0.97467516
0.97272992
0.971544
0.97143516
0.97297877
0.97593983
0.97946287
0.98218955
0.98327921
0.98251712
0.97864579
0.97862913
0.97835205
0.97824329
0.97905866
0.97976083
0.98037085
0.98090409
0.98148457
0.98221472
0.98239511
0.98195471
0.9804387
0.97786706
0.97482549
0.97233565
0.97141631
0.97248587
0.97570605
0.97965962
0.9829678
0.98485165
0.98438472
0.98206167
0.98170711
0.98081226
0.98018412
0.97975241
0.97963001
0.97987793
0.98108243
0.98293417
0.98466823
0.98565859
0.98528343
0.9836233
0.9803585
0.9766178
0.97358445
0.97222056
0.97334215
0.97660278
0.98081493
0.98470227
0.9868187
0.98603107
0.98224963
0.98289546
0.98309499
0.9828653
0.98224854
0.9817532
0.98181245
0.98268743
0.9843956
0.9863664
0.98722767
0.98698627
0.98492988
0.98165517
0.97843235
0.97607273
0.97524062
0.97658284
0.97981029
0.98386667
0.98715802
0.98833923
0.98697451
0.98168014
0.98296767
0.98453755
0.98563251
0.98596223
0.9859112
0.98606914
0.98644813
0.98683536
0.98740651
0.9877628
0.98736599
0.98594405
0.98352437
0.98037672
0.97786923
0.97737208
0.97912489
0.98269123
0.98668208
0.98927335
0.98941531
0.98728778
0.98218048
0.98369373
0.9857033
0.98780222
0.98944908
0.9902565
0.99042737
0.99027043
0.99021654
0.99008064
0.98950084
0.98837821
0.98644165
0.98340774
0.97987228
0.97763543
0.97804055
0.98126606
0.98631962
0.99119756
0.9934622
0.99186297
0.98747103
0.98175741
0.98373122
0.98686119
0.9905667
0.99399957
0.99568594
0.99506359
0.99329387
0.99189608
0.99107864
0.99050909
0.98854456
0.98454906
0.98034786
0.97823653
0.97898559
0.98228887
0.98782156
0.99426234
0.99833513
0.99755105
0.99177827
0.98397854
0.98294044
0.98443336
0.98784969
0.99216901
0.99703897
1.0001705
1.0007315
0.99872282
0.9947014
0.99043002
0.98690697
0.9841361
0.98203936
0.9812692
0.98301909
0.98742963
0.99252573
0.99658348
0.99854789
0.99743541
0.99264556
0.98582402
0.98015594
0.98677099
0.9883334
0.99105212
0.99440782
0.99812878
1.0017583
1.0040592
1.0024955
0.99689697
0.98915118
0.98254473
0.98005424
0.98244742
0.98824934
0.99461899
0.99865053
0.99942295
0.99703725
0.99299219
0.98937359
0.98678321
0.98511232
0.98365945
0.99240383
0.99397574
0.99683006
0.99978734
1.001245
1.0010045
0.99952728
0.99711144
0.99353104
0.98837482
0.9835678
0.98233372
0.9868777
0.99527848
1.0026678
1.0044257
1.0003028
0.99349496
0.98710703
0.98418352
0.98545791
0.98793381
0.98860355
1.0040494
1.0024636
1.0009728
1.0001907
0.99843684
0.99647489
0.99291827
0.9895615
0.98858178
0.99092703
0.99357475
0.9949093
0.99633312
0.99934506
1.0033199
1.0038994
0.99864821
0.99108645
0.98553796
0.98432377
0.98709058
0.99147958
0.99505435
1.0126696
1.007729
1.0008144
0.99414933
0.98965472
0.98726514
0.98773768
0.9907969
0.99577901
1.0014815
1.0067067
1.0085408
1.0049022
0.99863459
0.99476015
0.99491204
0.99427171
0.99029173
0.98701225
0.98819494
0.99247899
0.99664633
0.99915092
1.0062094
1.0049836
0.99932734
0.99314837
0.98995703
0.99102139
0.9950297
1.0001458
1.0059656
1.0106553
1.0114392
1.0081241
1.00195
0.99452797
0.9877078
0.98634572
0.99074153
0.99465959
0.99601595
0.99707604
0.99901677
1.0003459
0.99901957
0.99222614
0.99702963
1.0025137
1.0058594
1.0062537
1.0048922
1.0041158
1.0037239
1.0036301
1.0045127
1.0054328
1.0023122
0.996144
0.99154745
0.98971888
0.98926842
0.99366535
1.0027541
1.0091534
1.0074333
1.0007124
0.99378089
0.99067311
0.99370118
0.99665924
1.0045478
1.0128749
1.0164127
1.0145147
1.0087314
1.0021751
0.99754067
0.99532826
0.99481475
0.99538888
0.9965868
0.99865725
1.0030148
1.006421
1.0048939
1.0024623
1.0027589
0.99994672
0.99348233
0.98851997
0.990089
1.0110014
1.0068646
1.0041416
1.0044412
1.0087806
1.0121881
1.0113457
1.0051653
0.99629065
0.99003628
0.99076073
0.99784198
1.0075153
1.0136337
1.0118337
1.0053954
0.99963295
0.99542384
0.99637436
0.99996004
0.9968678
0.99236835
0.9920912
1.0164866
1.0149379
1.009342
1.002087
0.99635535
0.99559874
1.0006416
1.0075284
1.0092217
1.0043371
1.0011095
1.0039539
1.0091116
1.0103917
1.0077509
1.0022263
0.99604858
0.9927836
0.99438663
1.0003106
1.0034064
1.0024743
1.0007559
1.0077038
1.0111507
1.012339
1.0095052
1.0021496
0.99425149
0.99363944
1.0029195
1.0152891
1.0197078
1.0145011
1.0064402
1.0019279
0.99967462
0.99904899
1.0015387
1.0039754
1.0024833
0.99935098
0.99805367
0.99952998
1.0013344
1.0032835
0.99985151
1.003519
1.0085316
1.0126829
1.0134685
1.0098565
1.0049547
1.0035982
1.0081017
1.0150316
1.0165245
1.0107777
1.002827
0.99791658
0.99697567
0.99942902
1.0038562
1.007093
1.0078643
1.0071071
1.00523
1.0022056
0.99844453
1.0010283
1.0033324
1.0101342
1.0176076
1.0218424
1.0207955
1.0149612
1.0072175
1.0027674
1.0035871
1.0078236
1.011254
1.0103699
1.0052136
1.0007006
0.99937704
1.0019183
1.0063504
1.0092702
1.0092528
1.0071033
1.0037475
1.000975
1.0201777
1.0145421
1.0100384
1.0082931
1.0104629
1.0151404
1.0177668
1.0149604
1.0082231
1.0015367
0.99784696
0.99979287
1.0062071
1.0121364
1.0146793
1.0130638
1.0089851
1.0054791
1.0040348
1.0032072
1.0010808
0.99850407
0.99875504
1.020819
1.0184954
1.0137516
1.0079749
1.0028865
1.0008973
1.0040666
1.0102302
1.0144146
1.0146091
1.0111039
1.0060875
1.0035725
1.0049061
1.0103493
1.0157653
1.0172676
1.0134177
1.0073736
1.0027523
1.0002101
0.99889707
1.0000329
1.0125771
1.0131013
1.011278
1.0094047
1.0083214
1.0068455
1.0059644
1.0083225
1.0123274
1.0158685
1.0174302
1.01706
1.014772
1.0108252
1.0071415
1.0053544
1.0058607
1.0067337
1.0067233
1.0077466
1.0096831
1.009747
1.0094911
1.0057721
1.0082278
1.0125447
1.0169951
1.0199637
1.0197128
1.015885
1.0105033
1.0075198
1.0093384
1.0136663
1.0172045
1.0173623
1.0139821
1.010284
1.0070111
1.0051223
1.0058903
1.0056971
1.0061993
1.0086204
1.0102151
1.008808
1.0177596
1.0137803
1.0115827
1.0122848
1.0148931
1.0185879
1.0208671
1.0189149
1.013638
1.0087532
1.0060918
1.0067379
1.0082808
1.0099964
1.0121191
1.0141661
1.0153186
1.0140251
1.0109854
1.0092267
1.0079899
1.008379
1.0064187
1.02182
1.0195377
1.0152324
1.0106441
1.007157
1.0072877
1.0110236
1.0157884
1.0182557
1.0167693
1.0131165
1.0103506
1.0099829
1.0106028
1.0124807
1.012828
1.0119078
1.0105166
1.010949
1.0129539
1.0129344
1.0121989
1.0105212
1.0130095
1.0146231
1.0154647
1.0156474
1.0138575
1.0116157
1.011063
1.0121264
1.0153181
1.0176697
1.0172296
1.0160714
1.015391
1.0143831
1.0132264
1.0117328
1.0120322
1.0097517
1.0109672
1.0119165
1.011252
1.0099849
1.0089916
1.0095613
1.0113841
1.0142106
1.0186595
1.0211746
1.0207355
1.0187943
1.0151818
1.0126168
1.0117055
1.0109301
1.0121361
1.0135965
1.0142413
1.0140926
1.0142167
1.0154655
1.0151577
1.0128674
1.0092135
1.0066591
1.0058788
1.0066073
1.0179253
1.0170842
1.0156198
1.0151188
1.0155271
1.0154084
1.0155441
1.0143682
1.0130026
1.0144245
1.0149197
1.0144265
1.0151411
1.0161954
1.014257
1.012444
1.0103245
1.0107227
1.0126952
1.0121637
1.0132278
1.012786
1.0135347
1.0167962
1.0172771
1.0166612
1.015024
1.0134515
1.0126058
1.0137248
1.0152638
1.0152289
1.0151066
1.0154869
1.0157295
1.014254
1.0163065
1.0163855
1.014339
1.0129557
1.0111263
1.0148459
1.0169206
1.0190921
1.0170321
1.0141226
1.0150507
1.0150479
1.0157637
1.0159573
1.0144303
1.0131591
1.0141954
1.0158694
1.0167511
1.0166936
1.0152657
1.0161543
1.0155469
1.0147976
1.0162861
1.0164397
1.0177439
1.0154184
1.0138718
1.0123776
1.0108119
1.0100717
1.0094166
1.0142657
1.0146538
1.0151914
1.0169478
1.0175371
1.0164911
1.0162165
1.0168435
1.0175331
1.0184784
1.0174923
1.0167116
1.016166
1.0125621
1.0115314
1.012514
1.0139258
1.0152666
1.0136714
1.0125853
1.0100354
1.0102495
1.0126968
1.0169096
1.0171397
1.0167427
1.0171903
1.0187872
1.0184504
1.016164
1.0139343
1.0126827
1.01295
1.0138337
1.0142974
1.0156568
1.0146706
1.0139323
1.0155361
1.0155179
1.0167549
1.0175842
1.0188021
1.0197691
1.0179666
1.0164036
1.0160965
1.0161383
1.016061
1.0149792
1.0151644
1.0165907
1.0164403
1.0155723
1.0156858
1.0159253
1.0165221
1.0170461
1.0178145
1.0192108
1.0192746
1.0197959
1.0189997
1.0162359
1.0149329
1.0147992
1.0157999
1.01419
1.0122672
1.0169359
1.0172369
1.0173558
1.0168954
1.0158055
1.0158143
1.0168328
1.0173225
1.018112
1.019027
1.0181298
1.016973
1.0153702
1.0145291
1.0145845
1.0146217
1.0160892
1.0154691
1.0145957
1.0128457
1.0132041
1.0133619
1.0140195
1.0166829
1.0172313
1.0176816
1.0175314
1.0167409
1.0157354
1.0152567
1.0154744
1.0157564
1.0164818
1.0162754
1.0155142
1.0160877
1.0166687
1.0167042
1.0154675
1.0150021
1.0166083
1.0184859
1.0182082
1.018503
1.018402
1.0178207
1.0171004
1.0165851
1.0163451
1.0165572
1.0171884
1.0180529
1.0185423
1.0181356
1.0171621
1.0164142
1.0165677
1.0166964
1.0169332
1.0181582
1.0187908
1.0182415
1.0169506
1.016376
1.0167661
1.0162261
1.0156009
1.0156876
1.0152562
1.019523
1.019112
1.018458
1.0177791
1.0173427
1.0174686
1.0180342
1.0182531
1.0179947
1.0173481
1.0167953
1.0167079
1.0167069
1.0164285
1.0170784
1.0177299
1.0183568
1.0180587
1.016956
1.0162483
1.0157357
1.0163276
1.0162038
1.0177303
1.0184113
1.0192062
1.0190289
1.0183387
1.0178356
1.0170498
1.0166418
1.0172958
1.018099
1.0186232
1.0189577
1.0189988
1.0183565
1.0175368
1.0168397
1.0161132
1.0163958
1.0164712
1.0169477
1.0167704
1.0171728
1.0174889
1.0183262
1.0185623
1.0187852
1.0184825
1.0193254
1.0205526
1.0200437
1.018695
1.0181272
1.0179266
1.0175393
1.0172181
1.0165898
1.0161631
1.0164204
1.0169076
1.0171183
1.0171193
1.017582
1.0181572
1.0182047
1.0173463
1.0164438
1.0205581
1.0209053
1.0199801
1.0180726
1.0178649
1.018733
1.0184729
1.0178412
1.0177381
1.0173484
1.0176542
1.0181512
1.0173549
1.0174286
1.0186571
1.0191262
1.0189405
1.0180973
1.0168802
1.0158181
1.0155472
1.0157985
1.0164172
1.0187415
1.0199017
1.0196391
1.0188971
1.0196227
1.0198984
1.018781
1.0185771
1.0190771
1.0194037
1.0207067
1.0206882
1.0183479
1.0174476
1.017559
1.0170281
1.0171033
1.0166886
1.0167565
1.0170555
1.0174912
1.0172424
1.0170917
1.0197887
1.0207186
1.0200959
1.0198941
1.0213206
1.0220007
1.0209181
1.019653
1.0185147
1.0184508
1.0196909
1.0187356
1.0169928
1.0179406
1.0184919
1.0176077
1.0177382
1.0178071
1.0180579
1.0178042
1.0177786
1.017264
1.0157513
1.021471
1.0214093
1.0197828
1.0193262
1.020715
1.0210442
1.0195406
1.0182588
1.0181292
1.0190676
1.0204146
1.0195109
1.0175295
1.0182977
1.0191142
1.0184619
1.0182365
1.0175324
1.0170914
1.0169115
1.0165481
1.0149775
1.0143344
1.021242
1.0211017
1.0191528
1.0191482
1.0208896
1.0209098
1.0196982
1.0192672
1.0191351
1.0198229
1.0208283
1.0193298
1.0180338
1.0187418
1.0185673
1.0177421
1.0171766
1.0169291
1.0177241
1.0173035
1.0168212
1.0166539
1.0161327
1.0210002
1.0210913
1.0196285
1.0203933
1.0226615
1.0222545
1.0198802
1.0185405
1.0187561
1.0205213
1.0210702
1.0185818
1.0177382
1.0184424
1.0178309
1.0187671
1.0196025
1.018463
1.0165841
1.0168202
1.018015
1.0155205
1.0139023
1.0222317
1.0216331
1.0195312
1.0202819
1.0227877
1.0222849
1.0200271
1.0191417
1.0193198
1.0204644
1.0209112
1.0193273
1.0187845
1.0198311
1.019354
1.0187915
1.0175822
1.0174735
1.0177252
1.0169134
1.0168157
1.015988
1.0157238
1.0217271
1.0213116
1.0200032
1.0217735
1.0242842
1.022632
1.0192181
1.0184415
1.0197842
1.0213185
1.0211088
1.0197514
1.0198246
1.0185725
1.0171059
1.019613
1.0201523
1.0172468
1.0161239
1.0175207
1.0187026
1.0161291
1.014773
1.0231275
1.0217961
1.0198557
1.0214886
1.0241162
1.0227179
1.019983
1.0200238
1.0207418
1.0208579
1.0209408
1.0194426
1.0187285
1.0195882
1.0191136
1.0187075
1.0177532
1.0181071
1.0186723
1.0176191
1.0171212
1.015513
1.0150888
1.0225557
1.0218466
1.0208091
1.0231582
1.0254083
1.0229457
1.0191645
1.0190214
1.0209251
1.0216817
1.0211405
1.020646
1.0207605
1.0188541
1.0170392
1.0174937
1.0180197
1.0182407
1.0176854
1.0169917
1.0167623
1.0152429
1.0147618
1.0232139
1.0216138
1.0204866
1.0227179
1.0255548
1.0241984
1.0207882
1.0201422
1.0211706
1.021637
1.0201305
1.018792
1.0203981
1.0205288
1.0181301
1.0181572
1.0191461
1.0175653
1.0156732
1.0167431
1.0175461
1.0152306
1.0141562
1.0239765
1.0230052
1.0208303
1.0216598
1.0247605
1.0244741
1.0208281
1.0184306
1.0196544
1.0223236
1.0233372
1.0210465
1.01931
1.0193623
1.0180929
1.016509
1.0161699
1.0179972
1.0190592
1.0176268
1.0159759
1.0153987
1.014965
1.0223018
1.0228114
1.0220127
1.0212381
1.0225396
1.0235919
1.0226296
1.0209973
1.0198287
1.0196081
1.0201631
1.0206705
1.0201829
1.0184593
1.0172
1.0184998
1.0193131
1.0168555
1.0150281
1.0163981
1.0174866
1.0152442
1.0115241
1.020153
1.0208122
1.0212067
1.0196792
1.0187947
1.0192947
1.0202902
1.020409
1.0196927
1.019037
1.0192757
1.0192867
1.0184266
1.0173799
1.016704
1.0167994
1.0175441
1.0171247
1.0154504
1.0148309
1.0156298
1.0154217
1.0127874
1.0168649
1.0173928
1.0169417
1.0167678
1.01713
1.0179173
1.0178453
1.0171606
1.0171945
1.0176673
1.0178712
1.0174531
1.0163414
1.0152141
1.0149584
1.0155822
1.016029
1.0156106
1.014195
1.0127832
1.0130598
1.0139504
1.0132181
1.0129604
1.0156956
1.0155101
1.0143347
1.0136914
1.0142407
1.0153684
1.0160695
1.0158494
1.0147338
1.0137138
1.013862
1.013953
1.0124221
1.0111938
1.0127883
1.0144219
1.013785
1.0119476
1.0114516
1.0125768
1.0117024
1.0090899
1.0083071
1.0088113
1.0121821
1.0125564
1.0114252
1.0103077
1.0101729
1.0102854
1.0098581
1.0093538
1.0101502
1.0115613
1.0116117
1.0094368
1.0073985
1.008278
1.0100773
1.010166
1.0087213
1.0083448
1.0094455
1.0088988
1.0069276
1.0062027
1.006697
1.0069896
1.0073272
1.0073792
1.0073155
1.0070447
1.0062605
1.0050929
1.0046323
1.0055411
1.0067124
1.0068002
1.0057416
1.0048106
1.0045798
1.0045467
1.0042159
1.0040704
1.0048392
1.0061725
1.0065395
1.0055071
1.0077281
1.0060478
1.0048257
1.0039223
1.0034409
1.0034664
1.0038149
1.0039658
1.0034884
1.0027566
1.0020078
1.0011702
1.0004076
1.000306
1.0010688
1.0016576
1.0012227
1.000048
0.99911833
0.99890756
0.99981702
1.0016052
1.0033354
1.0044723
1.0040128
1.003749
1.0029836
1.002171
1.0014712
1.0012065
1.0011772
1.0013812
1.0011403
1.0000231
0.99826762
0.99643639
0.99537785
0.99551181
0.99628052
0.99703063
0.99725129
0.9968645
0.99571697
0.99467193
0.99493137
0.99673521
1.0037217
1.0031295
1.0032665
1.003141
1.002936
1.0022688
1.0012359
1.0000932
0.99911441
0.99819783
0.99722266
0.996405
0.99582877
0.99531725
0.99462188
0.99374186
0.99304681
0.99261942
0.99241523
0.99219078
0.99203669
0.99244455
0.99341823
1.0062816
1.0053243
1.0048618
1.0043893
1.0040669
1.0034235
1.0023338
1.0010143
0.99991779
0.99881484
0.99752998
0.99637251
0.99573133
0.99537534
0.99460883
0.99338524
0.99217524
0.99121733
0.99051591
0.99017907
0.99058395
0.99148759
0.99184998
1.0095616
1.0086369
1.0079139
1.0074085
1.0071789
1.0064152
1.005098
1.0036689
1.0026346
1.0018542
1.0006331
0.99905235
0.99776877
0.99699192
0.99604279
0.99445473
0.99295838
0.99222463
0.9918721
0.99137396
0.99126436
0.99169528
0.99172912
1.0113803
1.010326
1.0097764
1.0096427
1.0096817
1.0091178
1.0078313
1.0065455
1.0055921
1.0051686
1.004415
1.0030141
1.0013712
1.0002189
0.99962409
0.9986991
0.99737588
0.99622049
0.99557464
0.99514467
0.99468661
0.99394925
0.9931403
1.0102442
1.0096403
1.0094272
1.0095408
1.0096921
1.0096354
1.0091549
1.0086
1.0076375
1.0069008
1.0066215
1.0061965
1.0049952
1.0032556
1.0024389
1.0026832
1.0025452
1.0010755
0.99944172
0.99926221
0.99953377
0.99853242
0.99686062
1.0076911
1.0074988
1.0078633
1.0082534
1.0080721
1.0079443
1.008246
1.0085741
1.0077475
1.006473
1.0064766
1.0075227
1.0078201
1.0060152
1.0047618
1.0053481
1.0063022
1.0049872
1.00285
1.0026407
1.0033727
1.0029956
1.0017425
1.005732
1.0054057
1.00621
1.0066732
1.0059451
1.0050658
1.0054511
1.0063718
1.0064078
1.0054867
1.0054504
1.00668
1.0072877
1.0058002
1.0049605
1.0062074
1.0079181
1.0069965
1.0048236
1.0052751
1.0069213
1.0065222
1.0053081
1.0051201
1.0047898
1.0047464
1.0050096
1.0051966
1.0043652
1.0039897
1.0044742
1.0050789
1.0050334
1.0045809
1.0048286
1.0053183
1.0051917
1.0049073
1.0057915
1.0074062
1.0071549
1.0064061
1.0070409
1.00841
1.0075671
1.006072
1.0049693
1.0046294
1.0048936
1.0053677
1.0053335
1.0048787
1.0048172
1.0048261
1.0047147
1.0049687
1.0049556
1.0048978
1.0051831
1.0056836
1.0058056
1.005701
1.0065166
1.0066892
1.0067071
1.007698
1.0090434
1.0078605
1.006599
1.0048348
1.0048701
1.004917
1.0050934
1.0053288
1.005294
1.0051709
1.0052563
1.0051919
1.0050011
1.0049812
1.0052383
1.0057285
1.0060512
1.0059936
1.0061478
1.006227
1.0067565
1.0067287
1.0070802
1.0080508
1.0079318
1.0065983
1.0053862
1.0047202
1.0040974
1.0040402
1.0045813
1.0051499
1.0049823
1.0045588
1.0044545
1.0050623
1.0055196
1.0053465
1.0050559
1.0052062
1.0057138
1.0061188
1.0056314
1.0055556
1.0065759
1.0070625
1.0071916
1.0063235
1.007785
1.0037135
1.0041104
1.0044551
1.0045651
1.004438
1.0042554
1.0041298
1.0041899
1.0043674
1.00467
1.0047434
1.0045591
1.0043716
1.0044544
1.0046753
1.0048312
1.0046618
1.0049646
1.0054746
1.0053113
1.0053045
1.0052276
1.0058218
1.0039013
1.0039362
1.0039068
1.0038686
1.0038033
1.0038191
1.0039739
1.0039642
1.0040341
1.0039891
1.0038161
1.0038431
1.0039171
1.00415
1.0040853
1.003752