/*--------------------------------*- C++ -*----------------------------------*\
| =========                 |                                                 |
| \\      /  F ield         | OpenFOAM: The Open Source CFD Toolbox           |
|  \\    /   O peration     | Version:  2406                                  |
|   \\  /    A nd           | Website:  www.openfoam.com                      |
|    \\/     M anipulation  |                                                 |
\*---------------------------------------------------------------------------*/
FoamFile
{
    version     2.0;
    format      ascii;
    arch        "LSB;label=32;scalar=64";
    class       surfaceScalarField;
    location    "30";
    object      phi_0;
}
// * * * * * * * * * * * * * * * * * * * * * * * * * * * * * * * * * * * * * //

dimensions      [1 0 -1 0 0 0 0];

oriented        oriented;

internalField   nonuniform List<scalar> 
123996
(
0.0010170817
-3.4628493e-05
5.6183625e-05
0.0011019455
-0.00025906986
0.00026229122
0.0011993224
-0.00036717899
0.0003247322
0.0012818524
-0.00045249017
0.00044754452
0.0013412886
-0.00056116249
0.00053275012
0.0013695833
-0.00045150344
0.00067654201
0.0013798392
-0.0005306283
0.00049893663
0.001391415
-0.00045930373
0.00044978029
0.0013767088
-0.00044854347
0.00057964514
0.0013994092
-0.00056954198
0.00052308234
0.0014288666
-0.00053486849
0.00042775398
0.001429951
-0.00043376646
0.00027023596
0.0014367928
-0.00039385467
0.00041953856
0.0014595935
-0.00044381193
0.0004203379
0.0014676509
-0.0003696894
0.00045248532
0.0014390473
-0.0005669205
0.00042596048
0.0014256002
-0.00047287341
0.00039617981
0.001448589
-0.00036255391
0.000465836
0.0013926129
-0.0005263729
0.00045066254
0.0013903163
-0.00048607579
0.00037209044
0.0014282139
-0.00033771291
0.00030226761
0.001400516
-0.00030769244
0.0002933162
0.0014131601
-0.00029638273
0.00025049889
0.0012869928
-0.00026203821
0.00019464515
0.0012872814
-0.00023113209
0.00022828354
0.0013271278
-0.00017781639
0.00023590072
0.0013569877
-0.00016363148
0.00019706401
0.001321678
-0.00015848932
0.0001320817
0.0012833809
-0.00014564195
0.0001017703
0.0012553434
-0.00012926597
0.00011949731
0.0012560197
-0.00015189398
0.0001546591
0.0014119187
-5.3153758e-05
6.3345829e-05
0.0011672642
-3.5988112e-05
9.5787607e-06
0.0011072665
-0.00011491797
0.00014893368
0.0014624025
-3.0059178e-05
0.00011807689
0.0016731614
0.00013571848
-0.00012840881
0.0014764754
0.00015179297
-0.0002559553
0.0012277129
5.7223636e-05
-0.00012961631
0.0011045431
-4.6669133e-05
-1.9641839e-05
0.0011434696
-2.868951e-06
1.3445837e-05
0.0015179392
0.00020966627
-6.8105282e-05
0.0019368915
0.00035433625
-0.00029743853
0.0019173539
0.00037031873
-0.00047242876
0.0015426497
0.00029042303
-0.00048514846
0.0011917305
0.00023751342
-0.0003836682
0.0012734793
0.00025114493
-0.00027579568
0.0016135492
0.00030373591
-0.00028139324
0.0018693232
0.00038397892
-0.00035534476
0.0019504485
0.00046219485
-0.00046498655
0.001915519
0.00051172409
-0.00054976845
0.0017834333
0.000508663
-0.00058429769
0.0017156032
0.00048985973
-0.00055377473
0.0017786797
0.00047686928
-0.0005110964
0.0020488675
0.00044829405
-0.00047244207
0.00043840032
0.0023569037
-0.00047485056
0.00096895797
-3.3826451e-05
0.0010499601
-0.00018486456
0.0011422237
-0.00031890913
0.0012195166
-0.00044044305
0.0012894387
-0.00039791279
0.0013051989
-0.00044451304
0.001320762
-0.00052367496
0.001330366
-0.0004628198
0.0013053708
-0.0004313759
0.001330708
-0.00046408528
0.0013596812
-0.00055505838
0.0013598345
-0.00046323029
0.0013574279
-0.00039585588
0.0013936982
-0.00038035395
0.0013688709
-0.00041960502
0.001366775
-0.00043712194
0.0013656707
-0.00047178228
0.0013479113
-0.0003837928
0.0013193918
-0.0004024187
0.0013336453
-0.0003831555
0.0013482106
-0.00026540994
0.0013135416
-0.00028388434
0.0013347518
-0.00029253235
0.0012240198
-0.00029524095
0.0012232316
-0.00026810003
0.0012498953
-0.00017930287
0.0012708522
-0.00011032646
0.0012400015
-0.00013164099
0.0012100483
-0.00013627695
0.001166794
-0.00013186369
0.0011999186
-0.00015310975
0.0013090623
-2.5929213e-05
0.0011163766
-5.5551669e-05
0.001092082
-0.00013137322
0.0013676499
-1.1240675e-05
0.0014842183
0.00014589768
0.0013231892
0.00013517434
0.0011351
3.1689335e-07
0.001149988
-6.7253493e-05
0.0012883786
5.7457271e-06
0.0014625415
0.00022394562
0.0016687234
0.00037321836
0.0016542032
0.00025177967
0.0014664475
0.0001089515
0.0012400869
0.00011490613
0.0012376374
0.00023527852
0.0015453823
0.00034815931
0.0018372156
0.00037868162
0.0019263934
0.00037884983
0.0018568242
0.00037152807
0.0017613463
0.00038787011
0.0016782603
0.00040310942
0.0016586839
0.00043266337
0.0017622588
0.00045109572
0.00049789174
0.0020038622
0.00091332504
-6.2634081e-05
0.00099100232
-0.00016553286
0.0010792141
-0.00027642125
0.00116035
-0.00037549899
0.0012225544
-0.00032953352
0.0012343858
-0.00044418321
0.0012555596
-0.00057036648
0.0012622537
-0.00050522483
0.001237474
-0.00053265372
0.0012555806
-0.00043458686
0.001295968
-0.00046062823
0.0012951808
-0.00048364733
0.0012914392
-0.00043749891
0.0013207572
-0.00038332042
0.001305141
-0.00043778118
0.0013080331
-0.00036097601
0.001317112
-0.00037066138
0.001291963
-0.00041102676
0.0012772475
-0.00034772961
0.0013061194
-0.000334712
0.0012986402
-0.00025202631
0.0012629299
-0.00024604982
0.0012917398
-0.0002071013
0.001193954
-0.00022136886
0.0011962798
-0.00021028396
0.0012218728
-0.0001461183
0.0012284097
-6.863008e-05
0.0012110063
-0.00010223719
0.0011907853
-9.4093816e-05
0.001130232
-0.00010750675
0.0012017901
-0.00012051158
0.0012704294
-1.1326594e-05
0.001081798
-6.6750813e-05
0.0010772073
-0.00014171465
0.0013288373
9.0926668e-06
0.0014310917
0.00015507009
0.0012563073
0.00011043029
0.0010696341
-4.6417072e-07
0.0010972961
-7.1420524e-05
0.0013296551
2.7529362e-05
0.0014492905
0.00021227189
0.0013753827
0.0002988035
0.0012959071
0.0001869222
0.0013254121
3.3710079e-05
0.001306414
4.2508359e-05
0.0012554866
0.0001838032
0.0013411029
0.00033790591
0.0015529363
0.00036319721
0.0016868946
0.00028560971
0.0017380489
0.00024847985
0.0017067936
0.00026607265
0.0016628901
0.00032660003
0.0016695405
0.00041135321
0.0017227431
0.00045342945
0.00051566535
0.0018401569
0.00086468811
-8.847777e-05
0.00093805522
-0.00016097131
0.001024118
-0.00024603601
0.0011071776
-0.00031929441
0.0011604783
-0.00041396286
0.0011698668
-0.00043944667
0.0011975401
-0.00051081483
0.0011977252
-0.00053822151
0.0011808963
-0.00054128207
0.0011955082
-0.00049443216
0.00123666
-0.00036468015
0.0012389004
-0.00043247362
0.0012312637
-0.00042945578
0.0012485349
-0.0004089454
0.0012525473
-0.00044697269
0.0012493975
-0.00037178574
0.0012508348
-0.00034987794
0.0012399323
-0.00039578693
0.001217735
-0.00028221941
0.0012498995
-0.00028150215
0.0012316859
-0.00031385162
0.0012088063
-0.00028257365
0.0012365654
-0.00018923301
0.0011532737
-0.00018128376
0.0011534076
-0.0001787762
0.0011777885
-0.00011355583
0.0011507799
-6.6612293e-05
0.0011491
-0.00010107545
0.0011279379
-8.5883749e-05
0.0010584626
-9.4115524e-05
0.0011623311
-0.00010066277
0.0011848047
-5.1817861e-06
0.0010073354
-7.9896924e-05
0.0010520466
-0.00012966756
0.0012816621
2.3707775e-05
0.0013395498
0.00014942045
0.0011855764
7.8479948e-05
0.001001399
-2.2944564e-05
0.0010704845
-3.9176275e-05
0.0013711014
6.0021429e-05
0.0014494329
0.00018025356
0.0012372414
0.00020359726
0.0010673254
0.00012696376
0.0011833519
5.3529879e-05
0.0013696573
5.0199846e-05
0.0014077318
0.00013686066
0.0012756636
0.00025758491
0.0012217259
0.00033330306
0.0013120671
0.00030464729
0.001452995
0.00023354623
0.0015940508
0.00021265782
0.0016642147
0.00024674864
0.0016713948
0.00033349668
0.0016767324
0.00041211044
0.00049308655
0.0017078367
0.00082060308
-9.6074391e-05
0.0008888451
-0.00015979341
0.00097112575
-0.00021755762
0.0010471838
-0.0002887741
0.0010994654
-0.0004287851
0.0011082371
-0.00050881538
0.0011372579
-0.00042549177
0.0011386259
-0.00047431226
0.0011221062
-0.00045278306
0.0011415994
-0.00049624315
0.0011704295
-0.00037813247
0.0011795513
-0.0003673222
0.0011704449
-0.00042906558
0.0011807645
-0.00036510193
0.0011963907
-0.00040182743
0.0011906454
-0.00036010447
0.0011837512
-0.00035738951
0.0011952836
-0.00036545117
0.001164741
-0.00029405774
0.0011830745
-0.00024676583
0.0011753852
-0.00031291147
0.0011650727
-0.0002965191
0.0011867858
-0.0001955044
0.0011133811
-0.00017632932
0.0011186918
-0.00018448701
0.0011426374
-0.00010482442
0.0010975455
-7.0969991e-05
0.0011107476
-0.00010609758
0.0010939408
-8.5374848e-05
0.0010160803
-0.00010196501
0.0011392239
-8.3616237e-05
0.0011268831
-2.3235599e-06
0.0009645112
-9.5910742e-05
0.0010491807
-0.00012368545
0.0012498241
4.38693e-05
0.0012561467
0.0001363219
0.0011241216
4.6581597e-05
0.00097864718
-5.4330293e-05
0.0010355216
-1.9547913e-05
0.0013201926
0.00011085104
0.0014004811
0.00017317194
0.0011644923
0.00010877388
0.00096211192
5.9129015e-05
0.0010499839
8.1863502e-05
0.0013095764
0.00010864023
0.0014623851
0.00014273399
0.0013558923
0.00016644399
0.0011633626
0.00022367178
0.0011000202
0.00029084873
0.0012163184
0.0002919864
0.0014093936
0.00026988628
0.0015958906
0.00024473334
0.0016922255
0.00026343603
0.0016814569
0.00029305486
0.00036530278
0.0016483324
0.00078014198
-8.5120425e-05
0.00084354239
-0.00016823789
0.00092208629
-0.00022170904
0.00099194256
-0.00029646357
0.001043092
-0.00036996862
0.0010586447
-0.00053619683
0.0010840941
-0.00041737324
0.0010898233
-0.00037683125
0.0010694627
-0.00040126628
0.0010921492
-0.00043831749
0.0011134995
-0.00042826751
0.001118561
-0.00036072722
0.0011201616
-0.00041206636
0.0011224535
-0.00037495997
0.0011458271
-0.00034848594
0.0011360804
-0.00031328081
0.0011275525
-0.00033872087
0.0011463032
-0.00031893555
0.0011152217
-0.0003342331
0.0011186976
-0.00026258503
0.0011221977
-0.00024291593
0.0011250225
-0.00024779489
0.00113608
-0.00018418699
0.0010635636
-0.00017671285
0.0010785989
-0.0001590733
0.0010979087
-8.6055455e-05
0.001036704
-5.8363055e-05
0.0010611832
-8.8897008e-05
0.0010413855
-7.291329e-05
0.0009655925
-0.00010602303
0.0010925153
-6.5027668e-05
0.0010532419
-9.0308752e-07
0.00091157958
-0.00011271793
0.0010264243
-0.00010943151
0.0011946424
6.0957366e-05
0.0011591814
0.00012521128
0.0010371041
1.7335065e-05
0.00096252481
-8.6027067e-05
0.0010306076
-2.3507328e-05
0.0012393769
0.00014401296
0.0012968935
0.00018225728
0.0011335288
5.5529923e-05
0.00098581144
1.0589489e-05
0.00098023025
7.5955474e-05
0.0011904507
0.00017356552
0.0013606422
0.00017919642
0.001369141
0.00012947562
0.0012446627
0.00011585044
0.0010914838
0.0001884271
0.0010773373
0.0002837848
0.0012093865
0.00032716196
0.0013933644
0.00031222419
0.0015552553
0.00026732454
0.0016162096
0.00022177998
0.00022437032
0.0015812431
0.00073805958
-6.0667481e-05
0.00079779093
-0.00017158138
0.00087279623
-0.00023768307
0.0009398143
-0.0003188659
0.00098562896
-0.00035594169
0.0010095873
-0.00043657321
0.0010317216
-0.00044956071
0.0010366032
-0.00035917415
0.0010165518
-0.00039940977
0.0010377449
-0.00040708202
0.0010604318
-0.00042327327
0.0010601398
-0.00034876461
0.0010669211
-0.00034373015
0.0010673665
-0.00040764556
0.0010927005
-0.00032984843
0.0010792899
-0.00031870404
0.0010756191
-0.00032310608
0.0010890443
-0.000254157
0.0010655728
-0.0003187724
0.0010701795
-0.0002936027
0.001075792
-0.00017162978
0.0010832366
-0.00018227309
0.0010853162
-0.0001797081
0.001020272
-0.00018612266
0.0010396016
-0.00012784035
0.0010582774
-6.083306e-05
0.00099074418
-5.6788427e-05
0.0010222367
-5.9882202e-05
0.00099933581
-5.1398243e-05
0.00093394343
-0.00010372164
0.0010556146
-4.4583733e-05
0.00098893762
-6.2028083e-06
0.00087803311
-0.00012456997
0.0010139273
-8.556492e-05
0.0011486062
7.6542924e-05
0.0010740613
0.00011853859
0.00094825829
6.2557394e-06
0.00093536346
-9.5170446e-05
0.0010437237
-4.2248769e-05
0.0011597857
0.00013262084
0.001150436
0.00018311572
0.001071445
5.4353065e-05
0.0010262567
-8.8055511e-06
0.0010058774
5.3067382e-05
0.0010772465
0.00018935893
0.0011804158
0.00021392349
0.0012484272
0.00012954326
0.0012667012
7.7463209e-05
0.0011982769
9.1700664e-05
0.0011048017
0.00018791712
0.001096784
0.00030490306
0.0011733281
0.00034620438
0.0012939019
0.00032198891
0.0013966906
0.00023226374
0.00015706508
0.0014379555
0.00070162829
-3.1400991e-05
0.00075761095
-0.00016715922
0.00082886801
-0.0002180018
0.00089333517
-0.0003095751
0.00093710475
-0.00035744952
0.00096158039
-0.00032105383
0.00098415793
-0.00041706055
0.00098443742
-0.00038471492
0.00096727103
-0.00038156042
0.00098691011
-0.00040298107
0.0010149976
-0.00039457353
0.001014947
-0.00033264889
0.0010154271
-0.00027991068
0.0010226768
-0.00036941316
0.0010420491
-0.00029528953
0.0010285771
-0.00036057135
0.0010335636
-0.00030799462
0.0010359008
-0.00019891432
0.0010158142
-0.00027669272
0.0010332566
-0.00030348281
0.0010292315
-0.00014554001
0.0010364316
-0.00014617872
0.0010378468
-0.00018121792
0.00098569558
-0.00018732709
0.0010021851
-0.00011946635
0.0010139842
-4.7836429e-05
0.00094785021
-6.3414889e-05
0.00097757909
-3.6250788e-05
0.00094839785
-3.6114234e-05
0.00090087136
-0.00011088749
0.0010070051
-3.8942437e-05
0.00092207809
-2.0105265e-05
0.0008468585
-0.00013345945
0.00099080363
-7.1046479e-05
0.0010990412
8.3541351e-05
0.00099986023
0.00010506372
0.00087116433
3.4858263e-06
0.00089674197
-9.1614712e-05
0.0010536019
-4.8371946e-05
0.001123893
9.89127e-05
0.0010376446
0.00016156468
0.00098258809
8.4158828e-05
0.0010157272
5.0408722e-06
0.0010721437
3.6686268e-05
0.0010477008
0.00014280869
0.001026817
0.00020978304
0.0010833119
0.00016695154
0.001164432
8.5452627e-05
0.0012344473
6.491874e-05
0.0012131905
0.00010347315
0.0011316689
0.00020475565
0.0010761841
0.00030256478
0.0010745938
0.00032853684
0.0011087464
0.00027870494
0.00019982801
0.0011629473
0.00066768036
-9.7267942e-06
0.00072144296
-0.00015131475
0.00078824652
-0.00018223077
0.00084959133
-0.00025660989
0.00089448451
-0.00032642763
0.00091428463
-0.00028115801
0.00093877111
-0.00033986393
0.00093808927
-0.00038109625
0.00092045869
-0.00033826497
0.00093860768
-0.00037554249
0.00096768818
-0.00036364742
0.00096944262
-0.00033232591
0.00096300028
-0.00027658043
0.00097999301
-0.00029431953
0.00098721198
-0.00024728993
0.00098018486
-0.00035214027
0.00099268074
-0.00028031331
0.00098199702
-0.00020288952
0.00096428658
-0.00025289096
0.0009969796
-0.00028025478
0.00098148442
-0.00015652704
0.00098511155
-0.00012958829
0.00099366428
-0.00015900821
0.00095505573
-0.00016315474
0.0009662147
-0.00011340007
0.00096663976
-4.367545e-05
0.00091199137
-6.9087776e-05
0.00093417694
-1.8924982e-05
0.00089692122
-2.9425464e-05
0.00087179213
-0.00010722825
0.00096149783
-2.6356234e-05
0.00086540843
-2.7406988e-05
0.00081971926
-0.00013794701
0.00096831969
-6.6702005e-05
0.0010514296
7.7939137e-05
0.0009438656
8.4393304e-05
0.0008090562
-5.8683417e-06
0.00084630465
-7.5652575e-05
0.0010316877
-3.6796271e-05
0.0010895177
7.1249021e-05
0.00097223804
0.0001198855
0.00089249464
9.0591768e-05
0.00096787608
4.0144505e-05
0.0010791255
4.6249517e-05
0.0010647588
8.9294745e-05
0.0009619972
0.00014978682
0.00094229293
0.000166039
0.001030479
0.00013080003
0.0011544687
8.6152913e-05
0.0012469612
8.7808432e-05
0.0012212557
0.00012655624
0.0011042422
0.00019545474
0.0010034766
0.00026131619
0.00093445884
0.0002645122
0.00024734046
0.00093295541
0.00063421333
-6.5192862e-06
0.00068673518
-0.00013757428
0.0007500031
-0.00016500358
0.00080839567
-0.00021201436
0.00085409805
-0.00027523797
0.00087074389
-0.00028520634
0.00089452082
-0.00029917438
0.00089724457
-0.00035688233
0.00087771145
-0.00031855344
0.00089528301
-0.00031661255
0.00092243707
-0.00032204772
0.00092468942
-0.00032102656
0.00091629262
-0.00030445633
0.00093883129
-0.00026402681
0.00093777307
-0.00022352844
0.00094141425
-0.00027906169
0.00095257589
-0.00023905529
0.00093422087
-0.00022926339
0.00091973983
-0.0002356134
0.00096157065
-0.00022284734
0.00093860762
-0.00016996871
0.0009379424
-0.0001175504
0.00095231145
-0.00011484192
0.00092190435
-0.0001195577
0.00093132809
-9.1053355e-05
0.00092035469
-4.2244712e-05
0.00088120395
-6.6157931e-05
0.00089048673
-2.3193184e-07
0.00084678596
-2.101001e-05
0.00084490999
-9.0462337e-05
0.00091541657
-6.9978616e-06
0.00081086517
-3.0127275e-05
0.00079113882
-0.00012792801
0.00094083816
-5.1889891e-05
0.0010031927
7.2278169e-05
0.00089942523
6.0268857e-05
0.00076517085
-2.5631815e-05
0.00079979432
-6.3559523e-05
0.00099080106
-1.3934814e-05
0.0010642084
6.3798638e-05
0.00094883033
7.6585419e-05
0.00084262895
7.1196292e-05
0.000909582
6.9469599e-05
0.0010340159
6.962927e-05
0.0010636668
6.528513e-05
0.00096059607
7.004067e-05
0.00088217214
0.00011694213
0.00091700462
0.00014727863
0.0010423323
0.00013903412
0.001177762
0.00011903028
0.0012329387
0.00011062225
0.0011601057
0.0001172491
0.001020387
0.00014716867
0.00089525117
0.00018480399
0.00021684006
0.000832624
0.0006014036
-1.9214738e-05
0.00065268242
-0.00012072011
0.00071299622
-0.00016469098
0.00076866353
-0.00020773852
0.00081328939
-0.00023928483
0.00082851482
-0.00028099718
0.00085011354
-0.00031471339
0.00085658221
-0.00033656537
0.00083717201
-0.0003309612
0.000853974
-0.00026993012
0.00087970251
-0.00027462449
0.00088087146
-0.00027311305
0.00087255937
-0.00030253426
0.00089539543
-0.00027079695
0.00089243116
-0.00022825172
0.0009033056
-0.00020105171
0.00090995104
-0.00018401734
0.00089190082
-0.00022831522
0.0008806274
-0.00019945214
0.00092283306
-0.00014994357
0.00090081359
-0.00017593615
0.00089529302
-0.00012942292
0.00091097201
-8.2969453e-05
0.00088516413
-9.0346213e-05
0.00089361804
-7.9721388e-05
0.00087654043
-4.6296875e-05
0.0008549875
-6.2421565e-05
0.0008509553
1.5120905e-05
0.00079921466
-1.6008548e-05
0.00081767729
-8.0373717e-05
0.00087092615
2.1093524e-06
0.00076294948
-3.1355121e-05
0.00076255507
-0.00010703682
0.00090719668
-2.8790882e-05
0.00095192655
7.8691781e-05
0.00085362256
4.4841767e-05
0.00072880549
-4.8759804e-05
0.00075124633
-6.3342544e-05
0.00093127235
1.456973e-05
0.001015464
7.3051042e-05
0.0009280153
5.3865586e-05
0.00081445183
2.726688e-05
0.00084180699
6.8367181e-05
0.00094531115
9.2342678e-05
0.0010034741
6.1731181e-05
0.00096145264
2.9481437e-05
0.00088178149
4.4644634e-05
0.00085487663
0.00011395645
0.00094013731
0.00016752738
0.0010668199
0.00017237284
0.0011527523
0.00013438317
0.0011450086
8.9848161e-05
0.0010502454
6.8103595e-05
0.00091565384
8.1327543e-05
0.00013597746
0.00082337547
0.00057197841
-4.0277743e-05
0.00062088231
-9.743278e-05
0.00067837661
-0.000155848
0.00073148822
-0.0002320271
0.00077369915
-0.00022323808
0.00078793254
-0.00027595617
0.00080925336
-0.00033821515
0.00081655412
-0.00031675069
0.00079901265
-0.00034061912
0.00081382985
-0.00025753422
0.00084061356
-0.00023260568
0.00084080883
-0.00021057435
0.00083310176
-0.00025519885
0.00085422572
-0.00025798457
0.00085207536
-0.0002353717
0.00086451239
-0.00016910368
0.00086809815
-0.00015315583
0.00085625729
-0.00019968426
0.00084762175
-0.00016706166
0.00088089404
-8.9411549e-05
0.00086471542
-0.00017199615
0.00085837627
-0.00014464333
0.00086877111
-7.5329046e-05
0.00084548457
-8.69971e-05
0.00085567751
-8.6199013e-05
0.00083595153
-5.2283121e-05
0.00083085381
-5.6122111e-05
0.00081375071
2.4221588e-05
0.00075499768
-1.050036e-05
0.00079010518
-7.699164e-05
0.00082890639
3.2197115e-06
0.00072359983
-3.6171392e-05
0.00073628751
-8.9921658e-05
0.00087285425
-3.920837e-06
0.00090399731
8.5386991e-05
0.00081019468
3.373252e-05
0.00070157398
-6.6252107e-05
0.00072142707
-7.2302379e-05
0.00087673899
3.0380126e-05
0.00095733452
9.8513262e-05
0.00089487991
4.7803873e-05
0.00081100455
-7.5727924e-06
0.00079916314
3.6870545e-05
0.00085737147
9.9599891e-05
0.00091483623
7.8773552e-05
0.00092160229
2.2407929e-05
0.0008953287
2.0912677e-06
0.00085549414
5.0734964e-05
0.00088052158
0.00015051093
0.00095796094
0.00020257188
0.0010300937
0.00017657566
0.0010574924
9.8548813e-05
0.001027832
3.5968125e-05
0.00095227177
1.2489607e-05
4.4609953e-05
0.00087001436
0.00054597769
-5.6262284e-05
0.00059161034
-7.4074329e-05
0.00064600786
-0.00013420782
0.00069755016
-0.00024598005
0.00073643201
-0.00021285036
0.00074963768
-0.00028364597
0.00077220818
-0.000336238
0.000778431
-0.00028455939
0.00076358005
-0.00031150919
0.0007758706
-0.00025850257
0.00080336425
-0.00020765923
0.00080261266
-0.00017445572
0.00079638108
-0.00020147063
0.0008153282
-0.00019896524
0.00081437079
-0.0002283101
0.00082391642
-0.0001688021
0.00082476884
-0.00015146016
0.00081918742
-0.00017834293
0.00081413941
-0.00015618857
0.00083461808
-7.0326188e-05
0.00082784195
-0.00015157415
0.00082275317
-0.00014176979
0.00082751078
-8.8872577e-05
0.00080592833
-9.4439824e-05
0.00082030899
-9.9894229e-05
0.00079890361
-5.3003235e-05
0.00080582237
-4.2414622e-05
0.00077757478
2.7153627e-05
0.00071267486
-6.0802007e-06
0.00075950782
-6.580878e-05
0.00078701697
9.6272458e-08
0.00068717886
-5.0730149e-05
0.00070781468
-8.425387e-05
0.0008347022
8.5138502e-06
0.00085378648
8.0859331e-05
0.0007619942
2.7194795e-05
0.00067244735
-7.2412907e-05
0.00069663814
-8.4094515e-05
0.00082428388
3.4832974e-05
0.00088688489
0.00011912703
0.00083738037
5.5494085e-05
0.00079691517
-2.2858728e-05
0.00078252531
-2.9380416e-06
0.00079048562
8.0487081e-05
0.00082377116
9.8408452e-05
0.00084429087
3.4042825e-05
0.00086807249
-8.695678e-06
0.00087761928
7.6245057e-06
0.00087228715
0.00010070092
0.0008840817
0.0001907265
0.00090565379
0.00019750674
0.00093086894
0.00013233899
0.0009365123
3.9073193e-05
0.0009342535
-8.0202748e-06
-1.73022e-05
0.00090823308
0.00052172958
-6.215122e-05
0.00056399957
-5.8877678e-05
0.00061528026
-0.00011042036
0.00066630641
-0.00022313128
0.00070134586
-0.00020278062
0.00071442364
-0.00029708719
0.00073884942
-0.00030454135
0.0007438674
-0.00023608218
0.00073066431
-0.00023855796
0.00074075706
-0.00024479276
0.0007669534
-0.00018986479
0.00076604233
-0.00016167905
0.00076217372
-0.00017029525
0.00077806804
-0.00012736592
0.00077935305
-0.00020935335
0.00078546043
-0.00017565728
0.00078404759
-0.00016626909
0.0007815357
-0.00016548419
0.00077975764
-0.00016869548
0.00079034085
-9.0674308e-05
0.00079144934
-0.00012071473
0.00078770183
-0.00011691053
0.00078842904
-0.0001013487
0.00076845048
-9.9693263e-05
0.00078815621
-9.7231189e-05
0.00076533937
-4.5398668e-05
0.00077972659
-1.8054648e-05
0.00074468935
2.5374451e-05
0.00067528116
-6.3740641e-06
0.00072835828
-4.6307551e-05
0.00074601864
-3.7422332e-06
0.00065492611
-6.8600679e-05
0.00068066379
-8.465748e-05
0.00079562999
1.4734047e-05
0.00080900193
7.0711483e-05
0.00072109309
1.6292493e-05
0.00064567473
-7.2339046e-05
0.00068041143
-9.2104479e-05
0.00079046756
2.6552426e-05
0.0008256199
0.00012405358
0.00077552535
6.8813143e-05
0.00076618481
-2.0978695e-05
0.00077734301
-2.6263744e-05
0.00076155253
4.0552275e-05
0.00075253902
9.7990008e-05
0.00076575161
5.7644625e-05
0.00081289094
4.2193444e-06
0.00087878525
3.3913274e-06
0.00089318727
5.494672e-05
0.00086111607
0.00014197118
0.00082570865
0.00018220753
0.00081492851
0.00015048042
0.00082274107
7.2704161e-05
0.00086158673
-8.0443122e-07
-2.7690619e-05
0.00090677578
0.00049860647
-5.7976288e-05
0.00053772545
-5.1147331e-05
0.00058621249
-9.3284479e-05
0.00063653994
-0.00016686679
0.00066806284
-0.00019390261
0.0006825461
-0.00029302786
0.00070786059
-0.00026410543
0.00071215068
-0.0001905755
0.00069893951
-0.00016064431
0.00070813672
-0.00020569691
0.00073186539
-0.00017045626
0.0007303079
-0.00016505067
0.00072897317
-0.00016548968
0.00073973312
-8.3439048e-05
0.00074513675
-0.00018510788
0.00074899904
-0.00016577607
0.00074686885
-0.00017547992
0.00074347837
-0.00015569336
0.00074459294
-0.00017951861
0.0007502307
-0.00013255421
0.00075614385
-9.1058014e-05
0.00075099867
-8.203771e-05
0.00075117153
-0.00010050429
0.0007332986
-9.4954849e-05
0.00075717112
-7.6813397e-05
0.00073444707
-3.3201726e-05
0.00075117521
1.3264371e-05
0.00071300957
2.7489831e-05
0.00064229082
-1.4309838e-05
0.00069509816
-2.5399096e-05
0.00070543163
-2.3623774e-06
0.00062579293
-7.9727736e-05
0.00065330227
-8.0383949e-05
0.00075355611
2.2443952e-05
0.00076260633
6.2624656e-05
0.00068127912
1.398756e-06
0.00061289597
-7.4050547e-05
0.00065950612
-8.6263537e-05
0.00076076929
1.9689122e-05
0.00076960155
0.00011580258
0.00071355665
7.2269567e-05
0.00071867211
-7.5631302e-06
0.00075184242
-3.3930994e-05
0.0007472011
2.285027e-06
0.0007039898
6.7330239e-05
0.00069722025
6.9500134e-05
0.00075192923
3.1675629e-05
0.00084327354
2.1825915e-05
0.0008951942
4.2301485e-05
0.00085788212
8.5461498e-05
0.00078679431
0.0001336014
0.00073155213
0.00013608164
0.00071969385
9.2103838e-05
0.00076619878
3.3633201e-05
3.7494553e-07
0.0008534867
0.00047597033
-4.6574455e-05
0.00051249779
-5.0006298e-05
0.0005589792
-8.7428805e-05
0.00060759675
-0.00010607893
0.00063663836
-0.00018883683
0.00065303529
-0.00026077394
0.00067809272
-0.00022734729
0.00068240737
-0.00016647845
0.0006682319
-0.00010922419
0.00067741085
-0.0001459493
0.00069828921
-0.00014334272
0.00069624803
-0.00016518573
0.00069739842
-0.00016574116
0.00070194349
-8.2982676e-05
0.00071186812
-0.00015850484
0.00071434439
-0.0001397572
0.00071353511
-0.00016984518
0.00070814514
-0.00013609169
0.00071031209
-0.00016662209
0.00071649511
-0.00016612119
0.00072357284
-6.912531e-05
0.00071531548
-5.1705528e-05
0.00071712591
-8.6996692e-05
0.00070129461
-8.5378809e-05
0.00072765119
-5.131591e-05
0.00070778991
-1.8944938e-05
0.00072110815
3.9702633e-05
0.00068254744
3.1494811e-05
0.00061477807
-2.3912761e-05
0.00066193938
-9.4394558e-06
0.00066724091
3.3706939e-06
0.0006022627
-7.787477e-05
0.00062985582
-6.7109932e-05
0.0007151514
3.3291239e-05
0.00072065324
6.0423013e-05
0.00064831817
-1.0029758e-05
0.00058563376
-7.9864685e-05
0.00063892957
-7.2869003e-05
0.00073787499
2.2316236e-05
0.00072774913
0.00010134788
0.00066574656
6.8950758e-05
0.00067253357
6.8321234e-06
0.00071816673
-2.8273217e-05
0.00073517997
-1.8364806e-05
0.00068086807
2.4422793e-05
0.00064868509
5.6375433e-05
0.00069719265
5.9188345e-05
0.00078987156
4.8680933e-05
0.00086296174
5.2157047e-05
0.00085183833
5.5774793e-05
0.00077174117
7.2995465e-05
0.00068806933
9.0896432e-05
0.00064751225
8.1682022e-05
0.00067961656
5.6694682e-05
3.548928e-05
0.00076998135
0.00045475048
-3.231668e-05
0.00048882239
-5.1922617e-05
0.0005338016
-8.8418272e-05
0.00057950862
-6.5495839e-05
0.00060763167
-0.00018571203
0.00062517144
-0.00020174887
0.00064893875
-0.00019513514
0.00065348115
-0.00016188762
0.00063884419
-9.6591622e-05
0.00064790568
-8.8672189e-05
0.00066643109
-0.00010985871
0.00066421781
-0.00014335233
0.00066655708
-0.00015511543
0.00066643046
-0.00011219197
0.00067987911
-0.00012503539
0.00068062267
-0.00011552671
0.00068251601
-0.00014764201
0.00067557893
-0.00010494811
0.00067703199
-0.00012942478
0.00068722727
-0.00017142993
0.0006921416
-5.6652415e-05
0.00068110215
-2.8891368e-05
0.00068401533
-6.5781229e-05
0.00067046594
-7.4802922e-05
0.00069636938
-3.2445811e-05
0.00068178397
-9.498621e-06
0.00068904292
5.5155359e-05
0.00065131359
3.2252798e-05
0.00058977241
-3.4209617e-05
0.00062903852
3.1156394e-06
0.00062976757
7.9524353e-06
0.00057993806
-7.3113524e-05
0.00060641662
-5.6401662e-05
0.00067757297
4.2514313e-05
0.00067899011
6.1808061e-05
0.0006157924
-1.3922624e-05
0.00055937973
-8.5741518e-05
0.0006131814
-6.1746816e-05
0.00070873775
3.0003657e-05
0.00069070976
8.7209772e-05
0.00062423208
5.9496426e-05
0.00062492027
1.7947212e-05
0.00067418434
-1.4421775e-05
0.00070914924
-2.1488874e-05
0.00066576128
-1.1988354e-05
0.00061920781
2.1184879e-05
0.0006445857
6.4214904e-05
0.00072830013
7.8226087e-05
0.00080371072
6.9222641e-05
0.00082012904
5.1799288e-05
0.00075776376
3.3113148e-05
0.00066593931
3.3109662e-05
0.00060373562
4.5270441e-05
0.00061361556
5.3288957e-05
6.3423633e-05
0.00068590241
0.00043417545
-1.4527462e-05
0.00046635762
-5.2517904e-05
0.00051029119
-8.6412308e-05
0.00055244411
-5.2832627e-05
0.00058106825
-0.00017404083
0.00059820586
-0.00013557476
0.00062036626
-0.00015971529
0.00062510381
-0.00016721161
0.00061082591
-0.00011068255
0.00061937134
-5.4012154e-05
0.00063666009
-8.0146877e-05
0.00063449594
-0.00010913429
0.00063671016
-0.00013129593
0.00063533312
-0.00014162899
0.00064983498
-8.4779062e-05
0.00064914366
-9.5199636e-05
0.00065451991
-0.00011657055
0.0006469688
-6.8292348e-05
0.00064587656
-8.0996229e-05
0.00066057593
-0.00014608199
0.00066298268
-5.1888071e-05
0.00064980791
-1.4634792e-05
0.00065334911
-4.2136431e-05
0.00064204996
-6.0975213e-05
0.00066576749
-2.7360344e-05
0.00065723375
-7.6713929e-06
0.00065839521
6.016223e-05
0.0006215399
2.8328392e-05
0.0005678811
-4.0870294e-05
0.00059798265
1.2507724e-05
0.00059526457
8.2706947e-06
0.00055849532
-6.8946671e-05
0.0005859377
-5.0511437e-05
0.00064454253
5.0485528e-05
0.0006413334
6.6733351e-05
0.00058639415
-1.3090624e-05
0.00053984223
-9.0087883e-05
0.00059179709
-5.3131809e-05
0.00068067615
4.1605216e-05
0.00066159906
7.545745e-05
0.00059549129
4.7263994e-05
0.0005848222
2.4798952e-05
0.00062988391
4.3823251e-06
0.00067395895
-1.1376315e-05
0.00065208722
-3.3529276e-05
0.00060956961
-1.6545388e-05
0.00060936445
4.3137253e-05
0.00067169409
9.4215588e-05
0.00074078767
9.3277556e-05
0.00076980807
6.0429853e-05
0.00073351315
1.6963546e-05
0.00065628188
-8.1612261e-06
0.00058590373
-2.3161047e-06
0.0005770091
3.0323985e-05
6.7240527e-05
0.00062469876
0.00041535364
4.7537505e-06
0.00044556809
-4.8764216e-05
0.00048820001
-7.6136467e-05
0.00052684947
-6.0522089e-05
0.0005565088
-0.00014686789
0.0005721853
-8.0682725e-05
0.00059299921
-0.00012019526
0.00059819881
-0.00016611279
0.00058457461
-0.00013189699
0.00059095265
-4.7433114e-05
0.00060743195
-6.2457587e-05
0.00060594255
-7.9325116e-05
0.00060741826
-0.00010025618
0.00060776922
-0.00014491964
0.00062037576
-4.2391465e-05
0.00061904535
-8.1899192e-05
0.00062677669
-8.5792473e-05
0.00061907058
-3.8811227e-05
0.00061567873
-3.7481038e-05