/*--------------------------------*- C++ -*----------------------------------*\
| =========                 |                                                 |
| \\      /  F ield         | OpenFOAM: The Open Source CFD Toolbox           |
|  \\    /   O peration     | Version:  2406                                  |
|   \\  /    A nd           | Website:  www.openfoam.com                      |
|    \\/     M anipulation  |                                                 |
\*---------------------------------------------------------------------------*/
FoamFile
{
    version     2.0;
    format      ascii;
    arch        "LSB;label=32;scalar=64";
    class       volScalarField;
    location    "30";
    object      rho;
}
// * * * * * * * * * * * * * * * * * * * * * * * * * * * * * * * * * * * * * //

dimensions      [1 -3 0 0 0 0 0];

internalField   nonuniform List<scalar> 
20580
(
0.99893566
1.0000136
1.0002139
1.0002924
0.99971293
1.0002209
0.99939102
1.0004419
0.99860829
0.99885494
0.99843327
0.99637028
0.99658217
0.99546089
0.99403144
0.99278008
0.99333964
0.99045769
0.99034163
0.99081831
0.98828681
0.98776884
0.9885564
0.98774175
0.98475901
0.98622736
0.98720452
0.98416993
0.98584074
0.98686476
0.98201997
0.99896653
0.99982636
1.0005021
1.0005647
0.99959508
1.0004212
0.99917332
1.000598
0.9986451
0.9986423
0.99857861
0.99657344
0.9963114
0.995442
0.99407356
0.99274339
0.99277433
0.99023801
0.99157939
0.98967926
0.98719126
0.988828
0.98828719
0.98796093
0.98519423
0.9865915
0.98945566
0.98546536
0.98545727
0.98879263
0.98438548
0.9999334
1.0006667
1.0009689
1.0004891
0.9994764
1.0000274
0.99901716
0.99994631
0.99894083
0.99859965
0.99837526
0.99716266
0.9961947
0.99533516
0.99411023
0.99320186
0.99183521
0.98951232
0.99255421
0.98910905
0.98663945
0.98946642
0.98772901
0.98801164
0.98602243
0.98581259
0.989956
0.98716383
0.98394049
0.98829228
0.98828702
1.0014955
1.0021597
1.0014171
1.0002139
0.9994877
0.99926211
0.99907259
0.99880791
0.99915127
0.99878357
0.9980086
0.99749202
0.99637473
0.99535432
0.99396169
0.99357698
0.99157971
0.98916722
0.99260134
0.9889095
0.98715854
0.9901778
0.98743502
0.98770244
0.98702856
0.98459768
0.9883563
0.98808286
0.98249287
0.98346536
0.98753368
1.003205
1.0037005
1.0015233
1.0000063
0.99969149
0.99858743
0.99931891
0.99793741
0.99913037
0.99901701
0.99776668
0.99734937
0.99661973
0.9953274
0.99378541
0.9934872
0.99202852
0.98991389
0.99185355
0.98895702
0.98822404
0.99029675
0.98724319
0.98730296
0.98762227
0.98433246
0.98646346
0.98821727
0.98373769
0.9798891
0.98355334
1.0043905
1.0047698
1.0012036
0.99990282
1.0000254
0.99842558
0.99962238
0.99794634
0.99914258
0.99901095
0.99775383
0.99715622
0.99672283
0.99519044
0.99397677
0.99310255
0.99206057
0.99124318
0.99090981
0.98876175
0.98909625
0.9896786
0.98691524
0.98702245
0.98845957
0.98566941
0.98539475
0.98685344
0.98602551
0.9811123
0.98231965
1.0042964
1.004791
1.0004981
0.99990396
1.0003649
0.99886598
0.99972025
0.99883211
0.99930014
0.99877915
0.99799026
0.99726146
0.99653362
0.99505289
0.99432589
0.99267236
0.99137806
0.99198713
0.99014472
0.98885251
0.98939107
0.98873137
0.98642596
0.98594962
0.98904752
0.98709152
0.98480257
0.98493729
0.98669741
0.98410311
0.98330712
1.0030255
1.0036244
0.99991063
1.0000331
1.0003895
0.9995651
0.99949691
0.99988027
0.99943656
0.99856328
0.99821541
0.9976034
0.99635271
0.99520413
0.99449034
0.99277049
0.99085015
0.99203933
0.9894375
0.98916215
0.98903205
0.98811014
0.98670344
0.98483259
0.98857695
0.98805805
0.98429011
0.98360686
0.98620771
0.98642462
0.9838928
1.0012689
1.0018272
0.99987226
1.0003203
0.99993367
1.0000646
0.99903191
1.0003165
0.99936255
0.99860701
0.99836043
0.99787389
0.99645402
0.99571132
0.99459641
0.99310698
0.99108191
0.99237632
0.98944171
0.98953801
0.98910371
0.98843541
0.98755721
0.98451195
0.98726067
0.9887388
0.98447475
0.98317243
0.98609618
0.98927423
0.98656755
0.99981028
1.0005035
1.0005381
1.0005308
0.99921553
0.99999154
0.99861523
0.99986304
0.99896284
0.99880205
0.99842869
0.99780037
0.99651406
0.99584959
0.99442606
0.9933903
0.99166303
0.99278387
0.98985316
0.9892784
0.98883682
0.98810131
0.98845071
0.985511
0.9856193
0.98846035
0.985808
0.98376931
0.98470312
0.98954909
0.98965632
0.99916849
1.0001586
1.0016277
1.0006328
0.99874239
0.99948416
0.99857943
0.99892352
0.99848174
0.99895049
0.99833739
0.99732993
0.9963779
0.99553479
0.99403309
0.99342528
0.99188132
0.99255087
0.99000552
0.9888969
0.98914313
0.98736509
0.98888916
0.98772266
0.98481858
0.98718021
0.98749592
0.98544734
0.98290495
0.98569375
0.98794911
0.99970909
1.0007778
1.002433
1.0006183
0.99881308
0.99892956
0.99906018
0.99819979
0.99846344
0.99888981
0.99820011
0.99708074
0.99641674
0.99541527
0.99392279
0.99318274
0.99178153
0.99132637
0.98981662
0.98886516
0.9899044
0.98650755
0.98785567
0.98938653
0.98555101
0.98459936
0.98771951
0.98787611
0.98351303
0.9820504
0.98277949
1.0013093
1.0021278
1.0022386
1.000437
0.99946825
0.99869821
0.99968204
0.99821566
0.99898116
0.99877071
0.99814761
0.99743073
0.99691137
0.99575493
0.99405206
0.99313104
0.99214738
0.99009298
0.98943796
0.98931349
0.99066018
0.98638718
0.98663133
0.98978022
0.98770124
0.98275908
0.98615051
0.98911702
0.98637914
0.98178814
0.97960616
1.0031139
1.0038688
1.0011216
1.0001283
1.0004316
0.99897946
0.99991419
0.99876284
0.99955755
0.99877576
0.99829523
0.99791895
0.99732482
0.9961226
0.99449793
0.99335361
0.993174
0.98984649
0.98963509
0.98975218
0.99087023
0.98717955
0.98623838
0.98908737
0.98958729
0.98369493
0.98434382
0.9881253
0.98899177
0.98450118
0.98074788
1.0042734
1.0050274
0.99987869
0.99992054
1.0012456
0.99959901
0.99967492
0.99941118
0.99963781
0.99889739
0.99853436
0.99806038
0.99708332
0.99608519
0.99504416
0.99329726
0.99387964
0.99048613
0.99065017
0.98996411
0.99020928
0.98788748
0.98605208
0.98771594
0.98901682
0.98583462
0.98421411
0.98615471
0.98920835
0.98688565
0.98326451
1.0042005
1.0046865
0.99930389
0.99999068
1.0013091
1.0001078
0.99919835
0.99974496
0.99913567
0.99908123
0.99869051
0.99790113
0.99659298
0.99585378
0.99532319
0.99290427
0.99333733
0.99103206
0.99159148
0.99007963
0.98906667
0.98840498
0.98630738
0.98654259
0.98651746
0.98693578
0.985648
0.98444121
0.98665675
0.98698364
0.98564992
1.00273
1.003212
0.99970312
1.0002737
1.0004992
1.0001322
0.99877818
0.99941697
0.99848605
0.99916141
0.99867559
0.99770606
0.9964773
0.99558886
0.99525412
0.99279066
0.99233941
0.99102093
0.99176416
0.98974683
0.98803627
0.989231
0.98763165
0.98627502
0.9846066
0.9868978
0.98712972
0.983959
0.98339385
0.98547323
0.98818359
1.000822
1.0015801
1.0009925
1.0007328
0.99944293
0.99946251
0.99865644
0.99883326
0.99831539
0.99908788
0.99839915
0.99769786
0.99678684
0.99541292
0.99500708
0.99335166
0.99200627
0.99064464
0.99125092
0.98950796
0.98743897
0.98964777
0.98965651
0.98698907
0.98408435
0.98663972
0.98850491
0.98533145
0.98195145
0.98326229
0.98891635
0.99948933
1.0005677
1.0024173
1.0012693
0.99873582
0.99908794
0.99922826
0.99858364
0.99892198
0.99882205
0.9981373
0.99792817
0.99741754
0.99565543
0.99490862
0.99407223
0.99239685
0.99082847
0.99100009
0.99001232
0.98738111
0.98875376
0.99103278
0.98786322
0.98477677
0.98671511
0.98942609
0.98753747
0.98290798
0.98198254
0.9867939
0.99937657
1.0004842
1.0030415
1.001379
0.99865938
0.99898689
0.99979586
0.99867589
0.99980453
0.99872676
0.99816132
0.99814518
0.99797906
0.99627851
0.99505154
0.99442378
0.99287205
0.99178181
0.99129136
0.99072369
0.98822489
0.98743165
0.99066814
0.98820197
0.98593659
0.98683407
0.98870574
0.98843142
0.98507599
0.98278922
0.98426188
1.0005464
1.001539
1.0023331
1.0010878
0.99942857
0.99909892
0.99965929
0.99890269
1.0000052
0.99873004
0.99834549
0.99818511
0.99780826
0.99668418
0.99528373
0.99453424
0.99297714
0.9925626
0.99118776
0.99067676
0.98954417
0.98717787
0.98874881
0.98769244
0.98711869
0.98679602
0.98667633
0.98692124
0.98659253
0.98520397
0.98370117
1.0025581
1.0034762
1.000605
1.000343
1.0004432
0.99966934
0.99985234
0.99976748
0.99951383
0.99880052
0.99842344
0.99782439
0.99685669
0.99669811
0.99550173
0.99483633
0.99288722
0.99285197
0.99071154
0.98973011
0.99045521
0.98879888
0.98681699
0.98692451
0.98822761
0.98776578
0.98515391
0.98436548
0.98658876
0.98816501
0.98591205
1.0041098
1.0056962
1.0008028
0.99887198
0.99818
1.0016949
1.0053336
1.0024374
0.99683392
0.99554423
0.99632998
0.99768145
0.99712279
0.99821769
0.99871711
0.99791257
0.9934172
0.99262917
0.98942261
0.98780602
0.98934564
0.99048638
0.98660052
0.98656769
0.98920009
0.98943139
0.98656079
0.98352089
0.98616399
0.99059374
0.98854636
0.98436195
0.98309527
0.98322669
0.98617403
0.98943615
0.98965842
0.98673696
0.983835
0.9832235
0.9829423
0.98229442
0.98479149
0.98798985
0.98492438
0.9806265
0.98170608
0.98525931
0.98611596
0.98646019
0.98729268
0.9839912
0.98069188
0.98263415
0.98563092
0.98450024
0.9828124
0.98355302
0.98374988
0.98242012
0.98207254
0.98413231
0.98729946
0.98860625
0.98752196
0.986219
0.98470426
0.98050426
0.97813839
0.9809569
0.98472213
0.98663035
0.98699362
0.98567177
0.98120373
0.98028743
0.98387969
0.99050005
0.98838067
0.98488097
0.98228457
0.97986041
0.97906253
0.98107674
0.98450932
0.98734663
0.98755862
0.98537442
0.98312243
0.98202585
0.98233185
0.98505619
0.9875822
0.98619642
0.98246495
0.98016299
0.98059877
0.98127619
0.98344964
0.98658897
0.98647578
0.98447862
0.98329501
0.98380579
0.98565282
0.9873736
0.98760546
0.98586196
0.9826314
0.98015181
0.97936222
0.97952794
0.98089033
0.984495
0.98863017
0.98946803
0.98625726
0.98195334
0.97981845
0.98048986
0.98178912
0.98287169
0.98404668
0.97885129
0.97917197
0.98102146
0.98497202
0.98919132
0.99114443
0.98934994
0.98509354
0.98155407
0.98062556
0.98152017
0.98237831
0.98300516
0.98402716
0.9841554
0.9826798
0.98089298
0.98073137
0.98305593
0.98595637
0.98596868
0.98353038
0.98120439
0.9821156
0.98260427
0.9836549
0.98380336
0.98391676
0.98221627
0.98097817
0.98085708
0.98244884
0.9856443
0.98819156
0.98869956
0.9874473
0.9851077
0.98209045
0.97851267
0.97623417
0.97745873
0.98193881
0.98593031
0.98660861
0.98527021
0.98312127
0.99243245
0.98912704
0.9862184
0.98261512
0.97928322
0.97696693
0.97679414
0.97881918
0.98225141
0.98529446
0.98675707
0.98693754
0.98648541
0.98564566
0.98390524
0.98125033
0.97949115
0.97988998
0.98131133
0.98169266
0.9809042
0.98060649
0.98155224
0.98814919
0.98648888
0.9849767
0.98391522
0.98385923
0.98449692
0.98532557
0.98523495
0.98382863
0.98143011
0.9790705
0.97838549
0.97941853
0.98131226
0.98322976
0.98483795
0.98585119
0.98588394
0.98460499
0.98196862
0.97861552
0.97622664
0.9765787
0.97261067
0.97560055
0.9793489
0.98289922
0.98718869
0.99045496
0.99106321
0.98884255
0.98461515
0.9797675
0.97606212
0.97479342
0.97585585
0.97824958
0.98088666
0.98322571
0.98488059
0.98563703
0.98564082
0.98454592
0.98231865
0.97975855
0.9778372
0.972507
0.97620102
0.97902614
0.98148969
0.98425164
0.98614568
0.98667366
0.9857098
0.98385604
0.98187345
0.98055008
0.98012121
0.98057571
0.98123486
0.98111353
0.98030045
0.97941367
0.97920104
0.98032726
0.98229828
0.98387578
0.98420657
0.98327988
0.98390108
0.98476976
0.98324404
0.98113516
0.97946554
0.9783445
0.97818048
0.97875538
0.98025015
0.98234797
0.98476665
0.98671909
0.98766983
0.98671226
0.98394391
0.98041011
0.97696728
0.97474495
0.97440509
0.97636486
0.98002933
0.98388805
0.98611376
0.99137728
0.9905045
0.98653678
0.98181794
0.97743119
0.97475789
0.97414214
0.97523188
0.97765718
0.98092206
0.98446426
0.98764954
0.9893244
0.9888095
0.98664426
0.98311207
0.9792933
0.9759111
0.97384496
0.97405125
0.9762471
0.97954855
0.98268157
0.98720856
0.98766897
0.98528963
0.98219167
0.97997534
0.97811206
0.97755935
0.97792928
0.97883489
0.98009543
0.9816745
0.98323406
0.98414472
0.98490904
0.98540545
0.98491327
0.98356311
0.98145325
0.9794053
0.9776398
0.97640233
0.97609834
0.97699564
0.97729249
0.98166443
0.9817994
0.9821328
0.98328558
0.98402195
0.98447054
0.98413041
0.98308091
0.981292
0.97912616
0.97769576
0.97752137
0.97858023
0.98058805
0.98334926
0.98580569
0.98701678
0.98652515
0.98411031
0.98062286
0.97729385
0.97493073
0.97175369
0.97642674
0.97991765
0.98247251
0.98606539
0.98864816
0.98988516
0.98925262
0.98692799
0.98320609
0.97931866
0.97582114
0.97375907
0.9737332
0.97593813
0.97994189
0.98463704
0.98850977
0.99001511
0.98860132
0.98541638
0.9813401
0.97777945
0.97328268
0.97576397
0.97903151
0.98322932
0.98767515
0.9906995
0.99270066
0.99190009
0.9892347
0.98535957
0.98086564
0.9769195
0.97439851
0.97359571
0.97469796
0.97757389
0.98164326
0.98573648
0.98856635
0.98942022
0.98803886
0.98532263
0.98152709
0.97834317
0.97802192
0.98122956
0.98459028
0.98804959
0.989829
0.99128371
0.99112082
0.98955267
0.98647087
0.98304237
0.97988857
0.97785279
0.97673267
0.97655446
0.97753085
0.97955951
0.98231035
0.98488085
0.98679569
0.987544
0.98685091
0.98467385
0.981183
0.98116537
0.98375982
0.98511574
0.98705797
0.98758097
0.9881773
0.98827663
0.98791598
0.98687152
0.98534049
0.98380459
0.98258547
0.98127186
0.9800294
0.97907573
0.97902766
0.97991976
0.98179015
0.98412725
0.98626044
0.9872395
0.98670896
0.98438225
0.98477388
0.98572505
0.98622198
0.98637
0.98606305
0.98602506
0.9860679
0.98633565
0.98671077
0.98714779
0.98715005
0.98640497
0.98487487
0.98264907
0.98056159
0.97932604
0.97937375
0.98053773
0.9827458
0.9853619
0.98737282
0.98835521
0.98843698
0.9881969
0.98733693
0.98641389
0.98564543
0.98549458
0.98564724
0.98583144
0.98637484
0.98723217
0.98837176
0.98926007
0.98892216
0.98716179
0.98418819
0.98132861
0.97962247
0.97938341
0.98066706
0.98306094
0.98566027
0.98796062
0.98934261
0.99052481
0.99016824
0.98835315
0.98642465
0.98527868
0.98491879
0.98524741
0.98615987
0.98740344
0.98882282
0.99032952
0.99122244
0.99099845
0.98882719
0.98534653
0.98203669
0.98010169
0.9799705
0.98152045
0.98409525
0.98701945
0.98963705
0.99087374
0.98855475
0.99080477
0.98955172
0.98761232
0.98598709
0.98524784
0.98549554
0.98641692
0.98821423
0.99047056
0.99226018
0.99303981
0.99189344
0.98902537
0.98565158
0.98312233
0.98199916
0.98241963
0.98409119
0.98655671
0.98930327
0.9914833
0.9920786
0.98599649
0.98988367
0.99055073
0.98979315
0.98870577
0.98792154
0.98784864
0.98852813
0.98973631
0.99139398
0.99303185
0.99351887
0.99229955
0.98988473
0.98700762
0.98465171
0.98376192
0.98446828
0.98643223
0.98881525
0.99093852
0.99223309
0.9922193
0.98590528
0.9896049
0.99162521
0.99203576
0.99182711
0.99128013
0.9910838
0.99134568
0.99207549
0.99316577
0.9939497
0.99393961
0.99290739
0.99059494
0.98728681
0.98457523
0.98383731
0.98533078
0.98828339
0.991555
0.99386963
0.99440414
0.9931308
0.98578287
0.98897311
0.99227129
0.99456907
0.99586092
0.99579858
0.99472286
0.99345889
0.99346765
0.99443735
0.99526162
0.99463237
0.99200459
0.98834463
0.98546065
0.98428712
0.9852984
0.98873107
0.99363726
0.99763412
0.99854011
0.99592801
0.99136655
0.98568468
0.98814667
0.99248448
0.99660058
1.0000911
1.0012175
1.0000523
0.99789444
0.99589084
0.99459829
0.99400534
0.99275264
0.99012479
0.98729301
0.98644372
0.98825281
0.99157188
0.99561435
0.99916313
1.0002125
0.99746033
0.99203362
0.98674669
0.98885886
0.99015157
0.99373216
0.99763147
1.0016491
1.0047275
1.005758
1.0036658
0.99907737
0.99391637
0.98996543
0.98818878
0.98866124
0.99051963
0.99323833
0.99609959
0.99804719
0.99817955
0.99728144
0.99582867
0.99322335
0.9899529
0.98729512
0.99352254
0.99464928
0.99781264
1.0014779
1.0042875
1.0050735
1.0049191
1.0027779
0.99836861
0.99250546
0.98774793
0.98663995
0.98983239
0.9957305
1.0009542
1.0025418
1.0006912
0.99676089
0.99294858
0.99124888
0.99157638
0.99163562
0.99071322
1.0024294
1.0015016
1.0019169
1.003054
1.0033721
1.0024829
0.9998439
0.99657022
0.99405121
0.99316413
0.99286819
0.99320651
0.99589427
1.0004754
1.0048445
1.0051734
1.0005963
0.99460957
0.9906809
0.98977927
0.99142519
0.99365656
0.99524584
1.0098318
1.0067745
1.0029028
0.99920973
0.99655292
0.99456471
0.99353824
0.99397088
0.99610196
0.99964091
1.0034449
1.0049699
1.0030755
1.0006989
1.0002429
1.0002801
0.99751448
0.99276662
0.99009179
0.99088941
0.99418685
0.99743051
0.99961411
1.0076367
1.0063151
1.0016292
0.99619166
0.99294572
0.99233382
0.9951141
0.99971808
1.0049656
1.0089901
1.0096147
1.0071815
1.0023679
0.9967519
0.99287406
0.99321149
0.99562313
0.99581237
0.99513655
0.99614091
0.99885267
1.0012093
1.0016387
0.99676462
1.0006055
1.0026983
1.0024857
1.0015019
1.0014722
1.0025146
1.0038274
1.0054268
1.0068478
1.0065798
1.0029947
0.99837667
0.99526498
0.99283424
0.99166848
0.99546435
1.0019568
1.0054755
1.0046143
1.0018041
0.99854848
0.9961873
0.99258982
0.99747434
1.0052142
1.0115143
1.0130582
1.0104087
1.0061496
1.0024715
1.0004522
0.9997244
0.99955341
0.99892437
0.99792772
0.99790869
1.0001084
1.0024407
1.0032584
1.004749
1.0054918
1.001405
0.99550554
0.99251302
0.99420865
1.0042162
1.0030362
1.0046538
1.0077688
1.011628
1.012733
1.0097859
1.0035791
0.99744263
0.99427395
0.99513026
0.99921043
1.004626
1.0079373
1.0075763
1.005345
1.002409
0.99919409
0.99959734
1.0007919
0.99773914
0.99479741
0.99510842
1.0130827
1.0110622
1.0073962
1.0034802
1.0011852
1.0021694
1.0051518
1.007039
1.004771
1.0002886
0.99947287
1.0034766
1.0087799
1.0105767
1.0084977
1.002947
0.99735573
0.99528231
0.99791097
1.0020595
1.0020594
1.0006899
1.0004143
1.0092278
1.0112642
1.0112236
1.0081914
1.0023419
0.99722008
0.99787932
1.0046283
1.0115789
1.0127995
1.0092208
1.0056324
1.0044
1.0032017
1.0022901
1.0028863
1.0026063
1.000779
0.99916168
0.99900608
1.0003169
1.0024075
1.004404
1.0028586
1.0058824
1.0088225
1.0101338
1.0090336
1.0056373
1.0027355
1.0038619
1.0091432
1.0142302
1.0137002
1.0083883
1.0029157
1.0001252
0.99966722
1.0011989
1.0037184
1.0051159
1.005254
1.004684
1.0038014
1.0027012
1.0008752
0.99936139
1.0027283
1.0088829
1.0151591
1.0179334
1.0157339
1.0103549
1.0050271
1.0035683
1.0062151
1.0100689
1.0112879
1.0081996
1.0030298
0.99983645
0.99965365
1.0022841
1.0058968
1.0081658
1.0082789
1.0069188
1.0048456
1.0022143
1.0127238
1.0093466
1.0081079
1.0091413
1.0120852
1.015168
1.0153059
1.0115271
1.0060899
1.0018675
1.0002757
1.0025919
1.0068685
1.0098646
1.0101091
1.0081477
1.0057151
1.004613
1.0047634
1.0049752
1.0034657
1.0015662
1.0010917
1.0169633
1.0145109
1.0112241
1.0075907
1.0046667
1.0042994
1.0068557
1.0097123
1.010498
1.0095941
1.0067757
1.0039719
1.0034108
1.0053573
1.0097851
1.0132632
1.0137053
1.0109235
1.0068203
1.0034859
1.0008464
0.99949392
1.0002925
1.0131696
1.0123548
1.0098346
1.007525
1.0056769
1.0040922
1.0047214
1.0078347
1.0113388
1.0135361
1.0134689
1.0122459
1.0101919
1.0080215
1.0067013
1.00675
1.0078934
1.0077376
1.0067694
1.0065757
1.006777
1.006457
1.0070421
1.0060287
1.0075902
1.01047
1.0132159
1.0148888
1.014327
1.0113735
1.0081244
1.0071421
1.0091969
1.0126089
1.0150946
1.0148125
1.0119709
1.0086448
1.0054603
1.004121
1.0047992
1.0051627
1.0061444
1.0080556
1.0087212
1.0083077
1.0130326
1.0102356
1.0094829
1.0111437
1.0136736
1.0164393
1.017065
1.0142813
1.0101216
1.0073764
1.0069545
1.0083265
1.0089693
1.0092423
1.0096947
1.0105521
1.0115484
1.010989
1.0091929
1.0072213
1.0069227
1.0072957
1.0059856
1.0182203
1.0152982
1.0116051
1.0086013
1.0070755
1.0083579
1.0115566
1.0143003
1.0145107
1.0122721
1.0094964
1.0080405
1.0078221
1.0083641
1.0103106
1.0111238
1.0111654
1.0101502
1.0098965
1.0100095
1.0102658
1.0101648
1.0087795
1.0131256
1.013135
1.0125865
1.0113989
1.009192
1.0082466
1.0087545
1.0105801
1.0134921
1.0147121
1.0140264
1.0131472
1.0125088
1.0115205
1.0111173
1.0101918
1.0099165
1.0078409
1.009205
1.0102646
1.0105333
1.0096515
1.0091179
1.008335
1.0091927
1.0111444
1.0144567
1.0160319
1.0159386
1.0146441
1.0125015
1.0115005
1.0105245
1.0095644
1.0103359
1.0112467
1.0118054
1.0116651
1.0118213
1.013115
1.0119893
1.0106483
1.0085242
1.0068259
1.0059487
1.0062148
1.0139679
1.0126478
1.0117707
1.012456
1.0134357
1.0139563
1.0137958
1.011924
1.0107996
1.011336
1.0111486
1.0113772
1.0124236
1.0128651
1.0114525
1.0110302
1.0097707
1.0103111
1.010504
1.0092442
1.0094163
1.0092595
1.0102226
1.0142948
1.0140399
1.0129782
1.0118454
1.0109663
1.0109378
1.0119164
1.0122425
1.0121529
1.0125288
1.0128356
1.0123522
1.0116762
1.0135658
1.0127805
1.0117224
1.0097443
1.0091044
1.0118658
1.0133222
1.0153817
1.014033
1.0123107
1.0129317
1.0126416
1.0128175
1.0123208
1.0110977
1.0107096
1.0116135
1.012639
1.0134411
1.0131618
1.0121846
1.0128842
1.01192
1.0127073
1.0138468
1.0137302
1.0138751
1.0119722
1.0118687
1.0110938
1.0111997
1.0099359
1.0088928
1.0121583
1.0116945
1.0118086
1.0129787
1.0130517
1.0126387
1.0130505
1.0138033
1.0147371
1.0151962
1.0138555
1.013654
1.0128948
1.0107707
1.0106082
1.0107851
1.0120436
1.012385
1.0112215
1.010125
1.0081074
1.0081732
1.0098526
1.0138626
1.0132745
1.012856
1.0137112
1.0148706
1.014441
1.0131403
1.0120253
1.0114283
1.0115777
1.0116569
1.0119996
1.0125175
1.0110031
1.010587
1.0115575
1.0119889
1.0136505
1.0139869
1.0149279
1.0147568
1.0137679
1.0134579
1.0132839
1.0129384
1.0123916
1.0118318
1.0126681
1.0134966
1.0128874
1.0121727
1.0120189
1.011857
1.0124303
1.0130485
1.014275
1.0150578
1.0149402
1.015772
1.0150585
1.0136315
1.0126727
1.0131292
1.0140029
1.01266
1.0110741
1.0133815
1.0130949
1.0130398
1.0127853
1.0124439
1.0130536
1.0136107
1.0138013
1.0145897
1.0149671
1.0144681
1.0138588
1.0127
1.012213
1.0119632
1.0125991
1.0137441
1.0126424
1.0113586
1.0101753
1.0107796
1.0104945
1.0107753
1.0136598
1.0136002
1.013826
1.0138636
1.0131613
1.012165
1.0118558
1.0120212
1.012638
1.0134496
1.0129774
1.0123977
1.0125433
1.0125377
1.0124818
1.0119291
1.0123872
1.0133677
1.0141404
1.0139447
1.0145471
1.0143094
1.0140029
1.0132893
1.0125842
1.0125659
1.0129539
1.0134189
1.0138507
1.0140534
1.0137851
1.0133231
1.0130819
1.0132138
1.0130565
1.0134221
1.0143811
1.0146817
1.0140794
1.0131225
1.0129265
1.0133587
1.0129595
1.0129531
1.0129178
1.0126897
1.0153198
1.0144921
1.0139484
1.01355
1.0134953
1.0139036
1.0144419
1.0145005
1.0141033
1.0134195
1.0129626
1.0127675
1.0126723
1.0127266
1.0134973
1.0140541
1.014546
1.0142514
1.0138165
1.0132138
1.0129029
1.0132483
1.0132034
1.0142716
1.0145286
1.0147883
1.0143735
1.0139515
1.0136758
1.0131525
1.0130145
1.0134178
1.0139088
1.0144036
1.0148181
1.0148304
1.0144947
1.0141286
1.0138419
1.0135517
1.0136126
1.0135157
1.0137898
1.0136464
1.0139875
1.0140693
1.0140731
1.0141532
1.014262
1.0143318
1.0152873
1.0159629
1.0152755
1.0144355
1.0141795
1.0140937
1.0141327
1.0140391
1.0136025
1.01337
1.0135511
1.0137434
1.0138123
1.0139339
1.0143902
1.0147735
1.0145536
1.013799
1.0130771
1.0161242
1.0160804
1.0150707
1.0140152
1.014324
1.0147393
1.0143594
1.0142279
1.0141339
1.0138342
1.0143439
1.0143351
1.0136563
1.0142937
1.0153521
1.0156586
1.0155392
1.0148838
1.0139969
1.0129133
1.0121973
1.0118846
1.0122769
1.01513
1.0154058
1.0147972
1.014561
1.0152488
1.0151088
1.0145147
1.0147985
1.0151321
1.0157204
1.0169846
1.0164922
1.0151154
1.0151631
1.0149848
1.0143352
1.0140037
1.0130719
1.0126501
1.0123486
1.0129179
1.0129964
1.0130564
1.0155415
1.0155431
1.0150055
1.0155869
1.017031
1.0172844
1.0165788
1.0160293
1.0155522
1.0159608
1.016541
1.0151843
1.0142754
1.0150407
1.0147919
1.0138975
1.0136993
1.0136158
1.0138514
1.0136315
1.0136302
1.0129552
1.0120841
1.0169812
1.0162283
1.0151697
1.0158057
1.017097
1.0167492
1.0155817
1.0152393
1.015578
1.0164121
1.0168458
1.0156206
1.0147544
1.0152391
1.0147819
1.0142285
1.0140131
1.0133241
1.012911
1.0126178
1.0127591
1.0115036
1.0108825
1.0168504
1.0159242
1.0148902
1.015998
1.0174738
1.0170371
1.0163152
1.0163724
1.0164918
1.0170803
1.0168439
1.0151338
1.0145525
1.0148351
1.0144339
1.0138606
1.0129374
1.0126801
1.013627
1.0131781
1.0124328
1.0123231
1.0122313
1.0170092
1.0162893
1.0156434
1.0171775
1.0187907
1.0178883
1.0162824
1.0159086
1.0166348
1.0175766
1.0165981
1.014662
1.0146754
1.0143688
1.0134516
1.0142498
1.0145417
1.0138438
1.0123757
1.0128428
1.0133705
1.0118087
1.0110424
1.017786
1.0167035
1.0158696
1.0175678
1.0193714
1.0184917
1.0170704
1.0168028
1.0169986
1.0171345
1.0161293
1.0148504
1.0149461
1.0150765
1.0146343
1.0145571
1.0132169
1.0131
1.0134313
1.0132184
1.0125316
1.0116742
1.0119845
1.0176018
1.0169109
1.0168924
1.019202
1.0206585
1.0186138
1.0162617
1.0162256
1.017362
1.0176844
1.0164453
1.0155995
1.0158203
1.0142051
1.0134142
1.0151674
1.0146263
1.0126658
1.012472
1.0135147
1.0133812
1.0119922
1.0119217
1.0187754
1.0174598
1.0170436
1.0192607
1.0207737
1.0190958
1.0174383
1.0176989
1.0179212
1.0174299
1.0164318
1.0153104
1.0151582
1.0149934
1.0146458
1.0146872
1.0138418
1.0133756
1.0133314
1.0136061
1.0133043
1.0116265
1.0114896
1.0187048
1.0179563
1.0182326
1.0208291
1.0220141
1.0193973
1.0166624
1.0167831
1.0182551
1.0182236
1.0171166
1.0167586
1.0163842
1.0147447
1.0140907
1.0139318
1.0131884
1.0135001
1.0144297
1.0133739
1.0117304
1.0114044
1.0121627
1.0191443
1.0182605
1.0185123
1.020977
1.0225573
1.0205438
1.0178573
1.0178258
1.0187985
1.0184068
1.0163507
1.0158327
1.0171182
1.0162287
1.0145382
1.0149725
1.0154932
1.0133774
1.0117976
1.0130522
1.0133233
1.0111244
1.0109934
1.0205762
1.0194674
1.0189351
1.0207154
1.0226382
1.021013
1.0178243
1.0166434
1.0177845
1.0192014
1.0189482
1.0172897
1.0166086
1.0165216
1.0155537
1.0140834
1.0131086
1.0143884
1.0154319
1.0140734
1.0123942
1.0115968
1.0119648
1.0203963
1.0199977
1.0194699
1.0200133
1.021637
1.0212064
1.0188344
1.0172293
1.0173662
1.017872
1.0177523
1.0172023
1.016853
1.0159906
1.0152893
1.015837
1.0154484
1.014259
1.0137753
1.0140021
1.0138715
1.0119792
1.0101309
1.0186379
1.0188411
1.0191908
1.0184725
1.0180879
1.0179166
1.0177868
1.0172643
1.0166651
1.0162084
1.0161402
1.0158909
1.0156337
1.0152189
1.0145346
1.0146881
1.0150188
1.0144421
1.0136266
1.0136799
1.0140884
1.01294
1.0105755
1.0168338
1.0169312
1.016384
1.0163235
1.0163479
1.0162415
1.0156186
1.0146509
1.0144049
1.0148597
1.01504
1.0142417
1.0130677
1.0127463
1.0128013
1.0128789
1.01304
1.0131713
1.012677
1.0117812
1.0117601
1.0125324
1.0124184
1.0138238
1.0162915
1.015466
1.0145704
1.0141965
1.0142651
1.014065
1.0134956
1.0128227
1.0119031
1.0109064
1.0103053
1.0099043
1.0093115
1.0089113
1.0098362
1.0107845
1.0106473
1.0099671
1.0098508
1.0104327
1.0102937
1.0091571
1.0099308
1.0102123
1.013174
1.0129933
1.0117088
1.0102111
1.0092854
1.0086325
1.0078326
1.0068556
1.0065278
1.0068809
1.0065987
1.004976
1.0034555
1.0042946
1.0059591
1.0062451
1.005515
1.005762
1.0070033
1.0069269
1.0057821
1.0071862
1.0082999
1.008994
1.0091326
1.0083592
1.0071639
1.0058364
1.0042423
1.0025097
1.0012889
1.0012006
1.0016184
1.0012513
0.99980002
0.99847717
0.99840892
0.99906212
0.99927844
0.99946308
1.0006047
1.0022912
1.0027885
1.0021187
1.0087579
1.0074676
1.0066743
1.0056881
1.0045632
1.0034951
1.0025281
1.0012574
0.99951467
0.99772963
0.99635221
0.99521881
0.99408253
0.99316511
0.99287569
0.9929737
0.99273198
0.9920811
0.99186757
0.99273617
0.99464529
0.99663243
0.99809285
1.0058651
1.0055518
1.0053444
1.0043128
1.0028845
1.0013162
0.99990412
0.99860864
0.99730392
0.99561435
0.9934241
0.99091709
0.98852734
0.98673517
0.98603455
0.98618971
0.98654404
0.98655415
0.98636272
0.98619916
0.98646817
0.9877209
0.98995245
1.0037454
1.0036985
1.0042114
1.0038235
1.0030384
1.0016422
0.99974952
0.9976303
0.9955692
0.99346804
0.9912965
0.98919542
0.98724884
0.98550744
0.98390561
0.98259093
0.98174422
0.98129065
0.98098671
0.98076837
0.9809729
0.98201544
0.98376857
1.002713
1.0032836
1.0041708
1.0040052
1.0035244
1.0025127
1.0009141
0.99889703
0.99670773
0.99441479
0.99196549
0.98963315
0.98766087
0.98597496
0.98426992
0.9824558
0.98084326
0.97956135
0.9786634
0.97811723
0.97825721
0.97919434
0.98035955
1.0060496
1.0062277
1.0064347
1.0060793
1.0056684
1.0049147
1.0037694
1.002316
1.0004837
0.99851842
0.99638458
0.99404898
0.99165995
0.98939988
0.98723705
0.98495954
0.98284949
0.98128367
0.98025116
0.97954644
0.97932564
0.97959467
0.97975436
1.0083639
1.0083461
1.008663
1.0084754
1.0082397
1.0077013
1.0068648
1.0058785
1.0044413
1.0029803
1.0016226
1.0000478
0.99803047
0.99573553
0.9937791
0.99203475
0.99004208
0.98786991
0.98617584
0.98533991
0.98478133
0.98385511
0.98272761
1.0078567
1.0083314
1.0088382
1.0086167
1.0081704
1.0081358
1.0083884
1.0086381
1.0076315
1.0063957
1.0056228
1.0052601
1.0039965
1.0016795
0.99978676
0.99917173
0.99847907
0.9964883
0.99415993
0.99332251
0.99313203
0.99207612
0.99010787
1.0059551
1.0066046
1.007437
1.0072972
1.0063671
1.0061976
1.0071002
1.008256
1.0077009
1.0064076
1.0061087
1.0071352
1.007721
1.0063023
1.0047175
1.0045763
1.0049602
1.0038307
1.0017204
1.0007253
1.0005806
1.0001553
0.99885595
1.0049317
1.0052849
1.0059508
1.0056639
1.0043244
1.003662
1.0044194
1.0054996
1.0053471
1.0044029
1.0045403
1.0059678
1.0069556
1.0060329
1.005146
1.0059417
1.00736
1.0069837
1.0054156
1.0051265
1.0058345
1.0059498
1.0056588
1.0052316
1.0050023
1.0048396
1.0046122
1.0041543
1.0033939
1.0033689
1.0038317
1.0039819
1.0036981
1.0036572
1.004352
1.0050406
1.0048682
1.0047058
1.0055516
1.0072144
1.0072407
1.0067025
1.0069242
1.0076966
1.0076376
1.0072326
1.0050165
1.0049871
1.0052927
1.0053236
1.0048299
1.0044448
1.004584
1.004689
1.0045647
1.00436
1.0042572
1.0047793
1.0053325
1.0053022
1.0052017
1.0055834
1.0067332
1.0068956
1.0069049
1.0076049
1.0088232
1.008174
1.0078685
1.0049132
1.0049582
1.0051351
1.0052792
1.0052311
1.0049783
1.0050822
1.005347
1.005183
1.0048739
1.0048073
1.005334
1.0058347
1.0058388
1.0056628
1.0061437
1.0066557
1.0068225
1.0064809
1.0069744
1.0080952
1.0080154
1.0031378
1.0054963
1.0047912
1.0042867
1.0042563
1.0047147
1.0051515
1.0051517
1.0048901
1.0047459
1.0050054
1.0053571
1.005383
1.0052879
1.0053751
1.0056099
1.006039
1.0059851
1.0057893
1.0064465
1.0069307
1.0074569
1.0067804
1.0055557
1.0043076
1.0043311
1.0044006
1.0045215
1.0046428
1.004642
1.0045015
1.0044625
1.0046109
1.0049919
1.0051574
1.0049837
1.0046681
1.0046397
1.0048836
1.0051848
1.0049987
1.0049521
1.0053544
1.0055279
1.0053079
1.0050938
1.0035171
1.0041637
1.0041159
1.0041065
1.0041451
1.0041569
1.0042311
1.0044075
1.0044918
1.0046116
1.0046707
1.0045988
1.0045254
1.0045339
1.004672