/*--------------------------------*- C++ -*----------------------------------*\
| =========                 |                                                 |
| \\      /  F ield         | OpenFOAM: The Open Source CFD Toolbox           |
|  \\    /   O peration     | Version:  2406                                  |
|   \\  /    A nd           | Website:  www.openfoam.com                      |
|    \\/     M anipulation  |                                                 |
\*---------------------------------------------------------------------------*/
FoamFile
{
    version     2.0;
    format      ascii;
    arch        "LSB;label=32;scalar=64";
    class       volScalarField;
    location    "30";
    object      T;
}
// * * * * * * * * * * * * * * * * * * * * * * * * * * * * * * * * * * * * * //

dimensions      [0 0 0 1 0 0 0];

internalField   nonuniform List<scalar> 
158064
(
1.0014391
1.0011669
1.0010701
1.0011057
1.0011787
1.0012376
1.0012782
1.0012939
1.0013066
1.0013351
1.0014114
1.001512
1.0016663
1.0017939
1.0019359
1.0020276
1.002134
1.0022015
1.002314
1.0023989
1.0025437
1.0026536
1.0028023
1.0028792
1.0029924
1.0029954
1.0030482
1.0029974
1.0029901
1.0029213
1.0028956
1.0028302
1.0028207
1.0027365
1.0027142
1.0026161
1.0026013
1.0024903
1.0024611
1.0024125
1.0023952
1.0022744
1.0022379
1.0022037
1.0023247
1.0023421
1.0023818
1.0024034
1.0024608
1.0025132
1.0026033
1.0025998
1.0026737
1.0026669
1.0027685
1.0028319
1.0028385
1.0028355
1.002896
1.0029864
1.0030029
1.0029065
1.0030583
1.0030709
1.0030917
1.0030033
1.0030904
1.0029806
1.0031136
1.003015
1.0029963
1.003067
1.0028574
1.0029593
1.0030999
1.002573
1.0024966
1.0027261
1.0026103
1.0027229
1.0024284
1.0024496
1.0019224
1.001971
1.0018195
1.0017901
1.0017103
1.0015751
1.0014028
1.0014407
1.0011695
1.0010707
1.001106
1.0011782
1.0012377
1.001276
1.0012895
1.0013008
1.0013288
1.0014
1.0014991
1.0016495
1.0017737
1.0019188
1.0020098
1.0021167
1.0021809
1.0022888
1.0023726
1.0025168
1.002627
1.0027819
1.0028587
1.0029774
1.0029837
1.0030285
1.0029795
1.0029754
1.0029073
1.0028922
1.0028131
1.0028023
1.0027282
1.0027087
1.0026166
1.0025845
1.0025055
1.0024692
1.0023551
1.0023214
1.0022578
1.0022682
1.0022298
1.0022511
1.0022451
1.002309
1.0023334
1.0023955
1.0024581
1.0025613
1.0026088
1.0026683
1.0026907
1.0027495
1.0027612
1.0028324
1.0028239
1.0028871
1.0028912
1.002994
1.0029671
1.0029859
1.0029261
1.0030279
1.0030493
1.0030539
1.0030938
1.0030602
1.0029865
1.0030746
1.0029382
1.0030669
1.00283
1.0028584
1.0028166
1.0028996
1.0025538
1.0026788
1.0023958
1.0025146
1.0022027
1.0022518
1.00206
1.0020626
1.001874
1.0016954
1.0013868
1.0014164
1.0014413
1.0011707
1.0010698
1.0011049
1.0011768
1.001235
1.001272
1.001283
1.0012928
1.0013182
1.0013847
1.0014847
1.0016319
1.0017578
1.0019022
1.0019936
1.0020995
1.0021639
1.0022711
1.0023532
1.0024954
1.0026051
1.0027583
1.0028371
1.0029577
1.002967
1.0030113
1.002962
1.0029579
1.0028898
1.0028737
1.0027973
1.0027871
1.0027121
1.0026973
1.0026128
1.0025756
1.0024665
1.00245
1.0023606
1.0023231
1.0022479
1.0022257
1.0021837
1.0022139
1.002197
1.0022602
1.002271
1.0023612
1.0024243
1.0025088
1.002541
1.0025996
1.0026289
1.0027065
1.0027359
1.0027964
1.0027888
1.0028637
1.0028949
1.0029257
1.0028985
1.0029901
1.0029691
1.0030002
1.0029756
1.0030273
1.0029597
1.0030984
1.0029712
1.0030577
1.0029483
1.002936
1.0029243
1.0028972
1.0027939
1.0026967
1.0026924
1.0026429
1.0025289
1.0023188
1.0023479
1.0022433
1.0021288
1.0020164
1.0017876
1.0015566
1.0016692
1.0015126
1.0014421
1.0011715
1.0010683
1.0011029
1.0011735
1.0012314
1.0012682
1.0012781
1.0012855
1.0013093
1.0013747
1.0014703
1.0016136
1.001739
1.0018842
1.0019759
1.0020801
1.002142
1.0022474
1.0023285
1.0024699
1.0025814
1.0027348
1.0028145
1.002933
1.0029446
1.0029897
1.0029427
1.0029396
1.002872
1.002856
1.0027795
1.0027659
1.0026844
1.0026702
1.0025982
1.0025543
1.0024636
1.0024306
1.0023524
1.0023127
1.0022309
1.002209
1.0021675
1.0021809
1.0021823
1.0022393
1.0022666
1.002321
1.0023911
1.0024806
1.0025173
1.0025861
1.0026011
1.0026764
1.0027068
1.0027549
1.0027539
1.0028266
1.0028503
1.0028939
1.0028876
1.0029395
1.0029269
1.0029701
1.0029983
1.003052
1.0030326
1.0029268
1.0029587
1.0029235
1.0030337
1.0030671
1.0028751
1.0028936
1.0027911
1.0027636
1.0027405
1.0026103
1.0024675
1.0026346
1.0023989
1.0022459
1.0022097
1.001933
1.0019381
1.0019751
1.0015737
1.0013671
1.0014425
1.0011714
1.0010653
1.0010993
1.0011684
1.0012251
1.0012599
1.0012692
1.0012757
1.0012967
1.0013582
1.0014528
1.0015961
1.001722
1.0018655
1.0019575
1.0020608
1.0021236
1.002228
1.0023069
1.0024464
1.0025564
1.0027101
1.0027929
1.0029142
1.0029307
1.0029753
1.0029261
1.0029238
1.0028561
1.002835
1.0027646
1.0027621
1.0026941
1.0026759
1.0025912
1.0025621
1.0024706
1.0024225
1.0023269
1.0022756
1.0021951
1.0021954
1.0021683
1.0021728
1.002158
1.0022149
1.0022273
1.0022834
1.0023393
1.0024431
1.0024676
1.0025389
1.0025521
1.0026449
1.0026812
1.0027366
1.0027289
1.0028079
1.0028106
1.0028655
1.0028715
1.0029421
1.0029321
1.0029355
1.0029426
1.0030158
1.0029738
1.0030404
1.0028996
1.0030126
1.0028313
1.0029254
1.002838
1.0029325
1.0027276
1.0028977
1.0025903
1.0026439
1.0025765
1.0025725
1.0022315
1.0023294
1.0021911
1.0021986
1.0019878
1.0019221
1.0017031
1.0015079
1.0014429
1.0011709
1.0010618
1.0010953
1.0011629
1.0012188
1.0012546
1.0012622
1.0012659
1.0012874
1.0013465
1.0014392
1.0015759
1.0017039
1.0018483
1.0019412
1.002042
1.002104
1.0022079
1.0022865
1.0024264
1.0025353
1.0026847
1.0027675
1.0028866
1.0029016
1.0029481
1.0029033
1.0029031
1.0028381
1.0028185
1.0027477
1.0027316
1.0026605
1.0026326
1.0025464
1.0025357
1.0024427
1.0024082
1.0023131
1.0022745
1.0021785
1.002173
1.002143
1.0021479
1.0021308
1.0021942
1.0022106
1.0022686
1.0023187
1.0024067
1.0024473
1.0025285
1.0025387
1.002616
1.0026496
1.0027112
1.0027268
1.002783
1.002798
1.0028676
1.0028542
1.0029157
1.0028821
1.0029855
1.0028765
1.0029655
1.0028706
1.0029491
1.002954
1.0029561
1.0028563
1.0029514
1.0028544
1.0027296
1.0027247
1.0028162
1.0026369
1.0027963
1.0026149
1.0024452
1.0025366
1.0025306
1.0021604
1.0021287
1.0019924
1.0017509
1.0018509
1.0018203
1.0014431
1.0011698
1.0010577
1.0010897
1.001156
1.0012124
1.001246
1.0012527
1.001256
1.0012734
1.0013293
1.0014214
1.0015609
1.0016865
1.00183
1.0019233
1.0020224
1.0020841
1.0021835
1.0022588
1.0023963
1.0025081
1.0026652
1.0027527
1.0028697
1.0028883
1.0029349
1.0028892
1.0028838
1.0028185
1.0027937
1.0027217
1.0027187
1.0026647
1.0026433
1.0025782
1.0025523
1.0024523
1.0024049
1.0023099
1.0022559
1.0021781
1.0021563
1.0021018
1.0021008
1.0020878
1.0021474
1.0021754
1.0022352
1.0022864
1.0023835
1.0024419
1.0025065
1.0025378
1.0025996
1.0026341
1.0026877
1.0027103
1.0027672
1.0027857
1.002825
1.0028218
1.0029226
1.0028383
1.0029319
1.0028968
1.0029791
1.0029047
1.0029223
1.0028762
1.0029421
1.0029264
1.002845
1.0027667
1.0028909
1.0028438
1.0026922
1.0026877
1.00258
1.0024746
1.0025867
1.0024685
1.00222
1.0022145
1.0023065
1.0022091
1.0019174
1.0018549
1.0018169
1.0014433
1.0011685
1.0010532
1.0010851
1.0011498
1.001205
1.0012373
1.0012422
1.0012435
1.0012623
1.0013188
1.0014105
1.0015403
1.0016696
1.0018112
1.001907
1.0020069
1.002069
1.0021716
1.0022504
1.0023855
1.0024915
1.0026374
1.0027203
1.0028426
1.0028692
1.0029177
1.0028792
1.0028738
1.00281
1.002796
1.0027257
1.0027113
1.0026484
1.0026153
1.0025399
1.0025025
1.0024181
1.0023949
1.0023166
1.0022618
1.0021897
1.0021604
1.0020967
1.0020928
1.0020777
1.0021266
1.0021488
1.002218
1.0022594
1.0023357
1.0024015
1.0024713
1.0025057
1.0025699
1.0026077
1.0026691
1.0026817
1.0027578
1.0027572
1.0027983
1.0027981
1.0028423
1.0028644
1.0029004
1.0029124
1.0028907
1.002921
1.0029008
1.002793
1.0029381
1.002796
1.0028798
1.002862
1.0028494
1.0026017
1.002662
1.0026815
1.0026708
1.002653
1.002546
1.0024312
1.0024893
1.0024424
1.0020935
1.0019661
1.0021045
1.0020157
1.0017072
1.0014433
1.0011668
1.0010484
1.0010786
1.0011406
1.0011954
1.0012298
1.0012353
1.0012359
1.0012513
1.0013023
1.001391
1.0015244
1.0016545
1.0017974
1.0018934
1.001986
1.0020486
1.0021422
1.0022174
1.0023517
1.0024624
1.002618
1.0027107
1.0028231
1.0028444
1.0028857
1.0028481
1.0028366
1.0027721
1.0027486
1.0026794
1.0026692
1.0026174
1.0026077
1.0025513
1.0025275
1.0024313
1.0023787
1.0022723
1.002229
1.0021457
1.0021248
1.0020878
1.002079
1.002049
1.0020801
1.0020854
1.0021662
1.0022236
1.0023195
1.0023681
1.0024452
1.0024739
1.0025491
1.002581
1.0026426
1.0026565
1.0027348
1.0027417
1.0027695
1.0028155
1.0028002
1.0028373
1.0028255
1.0028872
1.0029165
1.0028654
1.0029507
1.002913
1.0029196
1.0028063
1.0029216
1.0028007
1.0027461
1.0028631
1.0027671
1.002662
1.0025594
1.0025997
1.002481
1.0023363
1.0023087
1.0023571
1.0022823
1.002105
1.0020681
1.0019578
1.0017528
1.0014433
1.001165
1.0010435
1.001073
1.0011342
1.0011867
1.0012194
1.001224
1.0012218
1.0012369
1.0012904
1.0013794
1.0015084
1.0016365
1.0017775
1.0018747
1.0019702
1.002037
1.002134
1.0022108
1.0023403
1.0024472
1.0025924
1.0026828
1.0028018
1.0028399
1.0028854
1.0028489
1.0028389
1.0027795
1.002755
1.0026898
1.002671
1.0026165
1.0025951
1.0025231
1.0024946
1.0024114
1.0023683
1.0022742
1.0022306
1.0021294
1.0020907
1.0020689
1.0020721
1.0020473
1.0020942
1.0021034
1.0021705
1.0022098
1.0023145
1.002337
1.0023902
1.0024182
1.0025096
1.0025654
1.0026303
1.0026545
1.0027098
1.0027322
1.0027367
1.0027685
1.0027991
1.0028104
1.0028704
1.0028783
1.0028856
1.0028546
1.0028437
1.0028371
1.0028109
1.0028142
1.0027872
1.0026881
1.0027869
1.0027545
1.0026404
1.0026885
1.0027145
1.0024801
1.0026403
1.002727
1.0024621
1.0022527
1.0022943
1.0023329
1.0021072
1.0018886
1.0019068
1.0014431
1.0011632
1.0010387
1.0010665
1.0011259
1.0011808
1.0012114
1.001216
1.0012145
1.0012283
1.0012769
1.0013657
1.001492
1.0016265
1.0017627
1.0018628
1.0019569
1.0020176
1.0021087
1.0021869
1.0023147
1.0024324
1.0025779
1.0026697
1.0027758
1.0028143
1.002857
1.0028277
1.0028242
1.0027685
1.0027404
1.0026805
1.0026658
1.0026163
1.0025933
1.0025404
1.0025038
1.002422
1.0023722
1.0022858
1.0022422
1.0021683
1.0021241
1.0020756
1.0020584
1.0020179
1.0020506
1.0020533
1.0021059
1.0021499
1.0022574
1.0023351
1.0024104
1.0024522
1.0025144
1.0025682
1.0026092
1.0026464
1.0026875
1.0027042
1.0027361
1.0027478
1.0028288
1.0027885
1.0028318
1.0028156
1.0029071
1.002825
1.002855
1.0028495
1.0028236
1.0028923
1.0027438
1.0028117
1.0028411
1.0026883
1.0027159
1.0026122
1.0026893
1.0024534
1.0024945
1.0023517
1.0023136
1.0023012
1.0020941
1.0020505
1.0021142
1.0018704
1.0020068
1.0014429
1.0011613
1.0010339
1.0010616
1.0011185
1.0011682
1.0012034
1.0012074
1.0012028
1.0012169
1.0012643
1.0013499
1.0014761
1.00161
1.0017494
1.0018508
1.0019381
1.002008
1.0020965
1.002173
1.0022946
1.0024043
1.0025455
1.0026483
1.0027612
1.002804
1.0028374
1.0027986
1.0027829
1.0027321
1.0026999
1.0026334
1.0026094
1.0025616
1.0025415
1.0025029
1.0024729
1.0023898
1.0023477
1.0022528
1.0021855
1.0021053
1.0020699
1.0020312
1.0020442
1.0020179
1.0020573
1.0020692
1.0021286
1.0021743
1.0022335
1.0022966
1.0023547
1.0024048
1.0024756
1.0025456
1.002595
1.0026322
1.0026772
1.0026836
1.0027345
1.0027369
1.0027974
1.0027743
1.0028234
1.0027738
1.0028641
1.0028189
1.0029079
1.0028156
1.0028205
1.0028306
1.0028321
1.0027289
1.0027143
1.0026913
1.0027781
1.0026309
1.0024956
1.0026717
1.0025898
1.0022566
1.0024432
1.0024318
1.0023293
1.0020777
1.0020339
1.0020772
1.0019829
1.0014426
1.0011594
1.0010294
1.0010538
1.001111
1.0011646
1.0011941
1.001197
1.0011932
1.0012038
1.0012523
1.0013398
1.001463
1.0015952
1.0017332
1.0018335
1.0019243
1.0019893
1.0020788
1.0021541
1.0022792
1.0023948
1.0025267
1.0026265
1.0027378
1.0027894
1.0028289
1.0028099
1.0028009
1.0027517
1.0027088
1.0026522
1.0026357
1.0025945
1.0025635
1.0025114
1.0024871
1.0024059
1.0023686
1.002277
1.0022165
1.0021224
1.0020697
1.0020128
1.0020048
1.0019711
1.0019958
1.0020206
1.0020867
1.002167
1.0022348
1.002291
1.0023546
1.002403
1.0024677
1.0025069
1.0025746
1.0025989
1.0026706
1.002682
1.002714
1.0027291
1.0027602
1.002788
1.0028224
1.0028426
1.0028035
1.0028386
1.0028549
1.0027271
1.0028761
1.0026704
1.0027185
1.0027288
1.0026288
1.002602
1.0027826
1.0027809
1.0025831
1.0026513
1.0025168
1.0025823
1.0024834
1.0023972
1.0022464
1.0023248
1.0022633
1.0021298
1.0019434
1.0014425
1.0011576
1.001025
1.001051
1.0011042
1.0011537
1.0011865
1.0011908
1.001185
1.0011974
1.0012404
1.0013263
1.0014477
1.0015885
1.001722
1.0018232
1.0019149
1.0019792
1.0020665
1.0021486
1.0022652
1.0023872
1.0025259
1.0026268
1.0027257
1.0027753
1.002812
1.0027848
1.0027753
1.0027415
1.0027012
1.0026436
1.0026149
1.0025713
1.0025403
1.0024821
1.0024667
1.0023962
1.0023457
1.0022557
1.0022055
1.0021163
1.0020791
1.0020456
1.0020438
1.0019956
1.0020074
1.0020225
1.002037
1.0020969
1.0021888
1.0022457
1.0023212
1.0023759
1.0024682
1.0024994
1.0025679
1.0025838
1.002659
1.002674
1.0026987
1.0027201
1.0027285
1.0027933
1.0027524
1.0028304
1.0027872
1.0028438
1.0027672
1.0027967
1.0029167
1.002834
1.0028157
1.0027411
1.0028014
1.0027795
1.0027056
1.0025992
1.0026576
1.0024074
1.0022943
1.002439
1.00242
1.0022144
1.0020118
1.0022023
1.0021047
1.0019581
1.0019119
1.0014425
1.0011558
1.0010212
1.0010424
1.0010971
1.0011482
1.00118
1.0011812
1.0011747
1.0011882
1.001232
1.0013163
1.0014351
1.001572
1.001705
1.0018133
1.0019015
1.0019714
1.0020535
1.002126
1.0022405
1.0023575
1.0024888
1.0025919
1.0027002
1.002761
1.0027943
1.0027763
1.00275
1.0027104
1.002661
1.0026092
1.0025903
1.00256
1.0025354
1.0024864
1.002464
1.0024088
1.0023448
1.0022511
1.0021906
1.0021099
1.0020767
1.0020345
1.0020216
1.0019904
1.0020134
1.0020204
1.0020376
1.0020776
1.0021823
1.0022403
1.0023019
1.0023508
1.0024443
1.0024817
1.0025485
1.0025669
1.002636
1.0026478
1.0026901
1.0026905
1.0027115
1.00279
1.0028025
1.0027913
1.002888
1.002779
1.0027279
1.0028288
1.0027371
1.0027546
1.002762
1.0026163
1.0026368
1.0027344
1.0026106
1.0025951
1.0027667
1.0025349
1.0025907
1.0025383
1.0023527
1.0023232
1.0023728
1.0022702
1.0021923
1.0020165
1.0020203
1.0014425
1.0011542
1.0010176
1.0010395
1.001092
1.001141
1.0011703
1.0011757
1.0011688
1.0011772
1.0012192
1.0013033
1.0014248
1.0015626
1.001697
1.0018015
1.001888
1.0019569
1.0020385
1.0021161
1.002227
1.0023436
1.0024685
1.0025771
1.002687
1.0027461
1.0027736
1.002761
1.0027528
1.0027206
1.0026754
1.0026261
1.0025861
1.0025421
1.0025174
1.0024828
1.0024448
1.0023872
1.0023303
1.0022518
1.0021834
1.0020957
1.0020417
1.001989
1.001968
1.0019476
1.0019637
1.0019807
1.0020326
1.0020725
1.0021621
1.002234
1.0022937
1.0023518
1.0024271
1.0024706
1.0025147
1.0025449
1.0025968
1.0026193
1.0026881
1.0026827
1.0027137
1.002737
1.0028302
1.0027457
1.0028363
1.00275
1.0028218
1.0027684
1.0027438
1.0027845
1.0027205
1.002734
1.0026827
1.0025766
1.0025759
1.0026635
1.0025405
1.0025039
1.0025667
1.0024363
1.0024137
1.0023672
1.0024949
1.0023793
1.0022796
1.0020331
1.0018785
1.0014424
1.0011526
1.0010143
1.0010334
1.0010833
1.0011341
1.0011659
1.0011681
1.0011603
1.0011711
1.0012121
1.0012966
1.0014137
1.001552
1.0016851
1.0017883
1.0018803
1.0019466
1.002027
1.0021106
1.0022209
1.0023438
1.0024727
1.0025803
1.0026791
1.002742
1.0027706
1.002761
1.0027397
1.0027021
1.0026519
1.0026185
1.0025823
1.0025362
1.0025067
1.0024761
1.0024454
1.0023852
1.0023358
1.0022658
1.0021923
1.0021017
1.0020332
1.0019684
1.0019415
1.0019369
1.0019436
1.0019358
1.0020026
1.0020657
1.0021402
1.002219
1.0022787
1.0023517
1.002412
1.0024667
1.0025003
1.0025296
1.0025752
1.0026109
1.0026694
1.0026868
1.0027312
1.0027009
1.0027721
1.0027526
1.0027631
1.0027606
1.002818
1.0027227
1.0027943
1.0027632
1.0027163
1.0028457
1.0027556
1.0026532
1.0027753
1.0028146
1.0025453
1.0025581
1.0027462
1.0025411
1.0023045
1.0021787
1.0022736
1.0022233
1.0020391
1.0019672
1.0021867
1.0014423
1.0011511
1.0010113
1.0010295
1.0010805
1.0011288
1.0011584
1.0011607
1.0011557
1.0011664
1.0012049
1.001285
1.0014016
1.0015431
1.0016755
1.001784
1.0018693
1.0019396
1.0020168
1.0020957
1.0022055
1.0023287
1.002461
1.002564
1.0026613
1.0027307
1.0027628
1.0027523
1.0027358
1.0027037
1.0026454
1.0025925
1.0025608
1.002537
1.0025083
1.0024712
1.002436
1.002364
1.0023183
1.0022489
1.0021977
1.002112
1.0020579
1.0020036
1.0019887
1.001976
1.001971
1.0019652
1.0019968
1.0020547
1.0020924
1.0021598
1.0022299
1.0023249
1.0023961
1.0024675
1.0025033
1.002538
1.0025689
1.0026146
1.0026485
1.0026771
1.0027234
1.0027007
1.0027087
1.0027704
1.0027389
1.002762
1.0027987
1.0027982
1.0028305
1.0027956
1.0027572
1.0027348
1.0026819
1.0026412
1.0027219
1.0026518
1.0025424
1.0026275
1.0026691
1.0023752
1.0023903
1.0025246
1.0023534
1.002211
1.0019509
1.0021153
1.0022616
1.0014421
1.0011496
1.001008
1.0010246
1.0010735
1.0011215
1.0011522
1.001158
1.0011504
1.0011572
1.0011955
1.0012775
1.0013946
1.0015346
1.0016661
1.0017729
1.0018617
1.0019346
1.0020112
1.0020864
1.0021883
1.0023073
1.0024366
1.0025438
1.002645
1.0027108
1.0027453
1.0027375
1.0027225
1.0026959
1.0026512
1.0026107
1.0025681
1.0025289
1.0025008
1.0024739
1.0024484
1.002385
1.0023269
1.0022481
1.0021899
1.0020973
1.0020338
1.0019882
1.0019821
1.0019605
1.0019517
1.0019634
1.0019915
1.0020559
1.0021027
1.002161
1.0022178
1.0022905
1.0023617
1.0024407
1.0024861
1.0025347
1.0025662
1.0026108
1.0026418
1.002673
1.0026775
1.0027161
1.0027072
1.0027623
1.0027563
1.0027801
1.0027757
1.0028103
1.0028033
1.0027106
1.0028109
1.0026815
1.0026934
1.0027007
1.0026766
1.0024888
1.0025223
1.0026922
1.0024825
1.0024273
1.0023543
1.0024971
1.002306
1.0021477
1.0022611
1.002501
1.0023732
1.001442
1.0011483
1.0010053
1.0010211
1.0010699
1.0011171
1.0011487
1.0011515
1.0011421
1.0011502
1.0011899
1.0012708
1.001387
1.0015254
1.0016562
1.0017652
1.0018551
1.0019271
1.0019989
1.0020774
1.0021778
1.0022968
1.002422
1.0025353
1.0026379
1.0027023
1.0027275
1.0027204
1.0027094
1.0026816
1.002643
1.0026076
1.0025629
1.0025202
1.0024937
1.0024643
1.0024481
1.0023999
1.0023321
1.0022497
1.0021829
1.0020807
1.0020193
1.0019819
1.0019593
1.0019209
1.00192
1.0019541
1.0019899
1.0020426
1.0021098
1.0021815
1.0022338
1.0022854
1.0023582
1.0024247
1.002458
1.0025059
1.0025507
1.002591
1.002637
1.0026769
1.0026426
1.0027128
1.0027406
1.0027212
1.0027699
1.0027656
1.0027277
1.0028154
1.0027527
1.0027453
1.0028007
1.0026119
1.0026577
1.0029181
1.0026991
1.0024591
1.0026935
1.0027219
1.0023856
1.002451
1.0024988
1.002409
1.0024034
1.0021976
1.0022596
1.0022602
1.0019974
1.0014419
1.0011471
1.0010028
1.0010185
1.0010654
1.0011134
1.0011419
1.0011458
1.0011381
1.0011481
1.0011852
1.0012623
1.0013771
1.0015175
1.0016515
1.0017609
1.0018464
1.0019142
1.0019858
1.0020707
1.0021712
1.0022921
1.0024166
1.002526
1.0026308
1.0027049
1.0027306
1.0027211
1.002711
1.0026812
1.002628
1.0025802
1.0025445
1.0025117
1.0024855
1.0024545
1.002426
1.0023846
1.0023207
1.0022346
1.0021779
1.0020819
1.0020294
1.0019945
1.0019578
1.0019253
1.001929
1.0019555
1.0019862
1.0020139
1.0020766
1.0021485
1.0022284
1.0022872
1.0023627
1.0024218
1.0024425
1.0024855
1.0025374
1.0025665
1.0026188
1.0026665
1.0026543
1.0026845
1.0027487
1.0027301
1.0027828
1.0027163
1.0027302
1.002786
1.0027184
1.0028167
1.0027644
1.0027243
1.0027185
1.00281
1.0026885
1.0025822
1.0027869
1.0026455
1.0025943
1.0025841
1.0026763
1.0023686
1.0023083
1.0023205
1.0023615
1.0022891
1.0020495
1.0014419
1.0011459
1.0010007
1.0010144
1.0010607
1.0011087
1.0011367
1.0011436
1.0011358
1.0011427
1.0011777
1.0012568
1.0013715
1.0015095
1.0016443
1.0017532
1.001838
1.0019069
1.0019808
1.0020637
1.0021647
1.0022836
1.0024116
1.0025196
1.0026212
1.0026976
1.0027338
1.0027275
1.0027076
1.0026743
1.0026214
1.0025697
1.0025353
1.0025084
1.0024793
1.0024411
1.0024023
1.0023655
1.0023035
1.0022298
1.002175
1.0020934
1.0020358
1.0019945
1.0019496
1.0019313
1.0019361
1.0019445
1.001974
1.0019831
1.0020371
1.0021125
1.0022079
1.0022736
1.0023561
1.0024188
1.0024466
1.0024924
1.002533
1.0025521
1.0026024
1.0026337
1.0026718
1.0026612
1.0027107
1.0027761
1.0027649
1.002714
1.0027854
1.0027216
1.0027731
1.0027573
1.0026427
1.0028062
1.0027889
1.002649
1.0026171
1.0028098
1.0026702
1.0024326
1.0026273
1.0026072
1.0026459
1.002345
1.0022494
1.0023229
1.0022843
1.0020935
1.0018914
1.0014419
1.001145
1.0009985
1.001012
1.0010578
1.0011037
1.001135
1.0011393
1.0011305
1.0011363
1.0011726
1.0012523
1.0013645
1.0015042
1.0016396
1.0017447
1.0018325
1.0019062
1.0019776
1.0020557
1.002155
1.0022748
1.0024051
1.0025155
1.0026099
1.0026801
1.0027195
1.0027143
1.0026944
1.0026689
1.0026294
1.0025792
1.0025334
1.0025005
1.0024739
1.0024413
1.0024065
1.0023672
1.0023123
1.002244
1.0021708
1.0020914
1.0020311
1.0019897
1.001935
1.0019046
1.0019046
1.0019068
1.0019436
1.0019612
1.0020198
1.0020967
1.0021854
1.0022554
1.0023285
1.002404
1.0024404
1.0024969
1.0025226
1.0025458
1.0025862
1.0026077
1.002668
1.002658
1.002661
1.0027816
1.0027009
1.0027532
1.0028221
1.0026752
1.0028587
1.0027381
1.0026165
1.0027465
1.0027681
1.0026227
1.0025127
1.0028177
1.0026019
1.0024393
1.0024969
1.0025095
1.0024394
1.00233
1.0022715
1.0023167
1.0023335
1.0020558
1.0018904
1.0014417
1.0011444
1.0009966
1.0010099
1.0010559
1.001101
1.0011314
1.0011348
1.0011263
1.0011338
1.0011706
1.0012459
1.0013573
1.0014974
1.0016321
1.0017403
1.0018296
1.001904
1.0019733
1.0020486
1.0021438
1.0022646
1.0023932
1.002505
1.0025982
1.0026641
1.0026996
1.0026944
1.0026859
1.0026696
1.0026336
1.002587
1.0025415
1.0025026
1.0024809
1.0024523
1.0024176
1.0023767
1.0023226
1.0022622
1.0021805
1.0020974
1.0020255
1.0019779
1.0019232
1.0018925
1.0018907
1.0018883
1.0019134
1.0019541
1.0020322
1.0021018
1.0021671
1.0022344
1.0022988
1.0023696
1.0024148
1.0024805
1.0024971
1.0025331
1.0025697
1.0025954
1.0026475
1.0026612
1.0026464
1.0027483
1.0026688
1.0027737
1.0028157
1.0026817
1.0028082
1.0027384
1.0026904
1.0026688
1.0027472
1.0026365
1.0025907
1.0026917
1.0025693
1.0025496
1.0024435
1.0025357
1.0023523
1.0024129
1.0024891
1.0024416
1.0023679
1.002223
1.002147
1.0014417
1.0011437
1.000995
1.0010079
1.0010536
1.0010976
1.0011273
1.0011325
1.0011242
1.00113
1.0011654
1.0012398
1.0013532
1.0014923
1.0016263
1.0017375
1.001825
1.0018969
1.001968
1.0020438
1.0021362
1.0022516
1.0023782
1.0024896
1.0025903
1.0026598
1.0026919
1.0026886
1.0026848
1.0026665
1.0026206
1.0025773
1.0025442
1.0025062
1.0024846
1.0024441
1.0024138
1.002372
1.0023148
1.0022499
1.0021782
1.0020927
1.0020126
1.001959
1.0019131
1.0018973
1.0018874
1.001881
1.001898
1.0019523
1.0020411
1.0021011
1.0021415
1.0022008
1.0022637
1.0023301
1.0023803
1.0024495
1.0024688
1.0025193
1.0025498
1.0025867
1.0026203
1.0026514
1.0026678
1.0026871
1.002694
1.0027386
1.0027421
1.0027268
1.0027114
1.0026987
1.0027305
1.0026464
1.0027231
1.0026742
1.0027624
1.002659
1.0025675
1.0026587
1.0025407
1.0025689
1.0024216
1.0024824
1.0025228
1.0023669
1.0022515
1.002228
1.0022549
1.0014416
1.0011432
1.0009938
1.0010062
1.0010499
1.001095
1.0011245
1.0011305
1.0011208
1.0011262
1.0011619
1.0012359
1.0013485
1.0014883
1.0016233
1.0017324
1.0018198
1.0018872
1.0019592
1.0020379
1.002132
1.002241
1.0023664
1.0024771
1.002584
1.0026614
1.0026931
1.0026867
1.0026715
1.0026443
1.0025957
1.0025504
1.002517
1.0024822
1.0024601
1.0024199
1.0023866
1.0023432
1.002287
1.0022207
1.0021552
1.0020727
1.0019926
1.0019378
1.001909
1.0018871
1.0018683
1.0018758
1.0018848
1.0019404
1.0020142
1.0020595
1.0020945
1.0021525
1.0022249
1.0022879
1.0023516
1.0024137
1.0024463
1.0024998
1.0025227
1.0025694
1.0025897
1.0026182
1.0026854
1.0026146
1.00272
1.0027005
1.0026686
1.0027697
1.0026908
1.0026509
1.0027084
1.0026835
1.0026199
1.0027215
1.0027928
1.0026518
1.0025738
1.0026272
1.0026875
1.0024641
1.0024739
1.0025089
1.002551
1.002296
1.0020413
1.0021396
1.002317
1.0014416
1.0011428
1.0009926
1.001004
1.0010472
1.0010936
1.0011226
1.0011274
1.0011175
1.0011231
1.0011584
1.001231
1.0013412
1.0014778
1.0016167
1.0017222
1.0018095
1.0018756
1.0019446
1.0020243
1.0021155
1.0022269
1.0023511
1.0024614
1.0025651
1.0026449
1.0026778
1.0026697
1.0026455
1.0026148
1.0025694
1.0025146
1.0024692
1.0024336
1.0024121
1.0023754
1.0023475
1.0023086
1.0022537
1.0021835
1.0021223
1.0020476
1.001964
1.0019054
1.0018728
1.0018397
1.001815
1.0018286
1.0018406
1.0018809
1.0019405
1.0019909
1.0020377
1.0020995
1.0021782
1.0022437
1.0023193
1.002374
1.0024173
1.0024662
1.0024887
1.0025371
1.0025577
1.0025763
1.0026688
1.0025615
1.0027067
1.00267
1.0026146
1.0027642
1.0026969
1.0026573
1.0026936
1.0027461
1.0025231
1.0027174
1.0026944
1.0025531
1.0025442
1.0024929
1.0026844
1.0023692
1.0023926
1.0024207
1.0024954
1.0023908
1.0021178
1.0021725
1.0023262
1.0014415
1.0011425
1.0009919
1.0010022
1.0010456
1.0010914
1.0011198
1.0011236
1.0011136
1.0011182
1.0011524
1.0012216
1.0013299
1.0014638
1.0016027
1.0017061
1.0017926
1.0018616
1.001927
1.0020011
1.0020892
1.0022006
1.0023241
1.002431
1.002527
1.0026017
1.0026387
1.0026337
1.002613
1.0025828
1.0025359
1.0024782
1.002425
1.0023831
1.0023561
1.0023236
1.0022971
1.0022641
1.0022106
1.0021316
1.0020667
1.001995
1.0019166
1.0018498
1.0018194
1.0017833
1.0017464
1.00175
1.0017589
1.0017946
1.0018502
1.0019129
1.0019781
1.0020407
1.0021239
1.0021921
1.0022659
1.0023089
1.0023601
1.0024054
1.0024443
1.0024823
1.002515
1.0025352
1.0026064
1.0025498
1.0026541
1.0026201
1.0025855
1.0027033
1.0026658
1.0026569
1.0026963
1.0027069
1.0025607
1.00262
1.0025835
1.0024552
1.0025453
1.0024321
1.0025124
1.0023399
1.0023573
1.0023857
1.0023102
1.002367
1.0022914
1.0022438
1.0022509
1.0014416
1.0011423
1.0009913
1.0010017
1.0010442
1.0010875
1.0011141
1.0011167
1.0011056
1.0011069
1.0011377
1.0012035
1.001309
1.001439
1.0015747
1.0016759
1.0017624
1.0018284
1.0018957
1.0019596
1.0020454
1.00215
1.0022715
1.002373
1.0024667
1.0025357
1.0025748
1.0025786
1.002567
1.0025386
1.0024875
1.0024351
1.002385
1.0023362
1.0023004
1.0022682
1.0022355
1.0022057
1.0021549
1.0020721
1.0019961
1.0019263
1.0018556
1.0017794
1.0017453
1.0017133
1.0016745
1.0016584
1.0016674
1.0017093
1.0017631
1.0018286
1.0018926
1.0019535
1.0020358
1.002106
1.0021789
1.0022136
1.0022669
1.0023148
1.0023789
1.0024083
1.0024472
1.002492
1.0025019
1.0025424
1.0025989
1.0025563
1.0025757
1.0026372
1.0025713
1.0026346
1.0026494
1.0025506
1.0026344
1.0025121
1.0024779
1.0024583
1.0025278
1.0024896
1.0023186
1.0023363
1.0023947
1.002358
1.0022541
1.0022721
1.002258
1.0022205
1.0020677
1.0014413
1.0011418
1.0009897
1.0009984
1.0010397
1.0010784
1.0011001
1.0010994
1.001085
1.0010796
1.0011049
1.0011667
1.0012669
1.0013922
1.0015257
1.0016254
1.0017129
1.0017734
1.0018395
1.001899
1.001982
1.0020776
1.002196
1.0022928
1.0023879
1.0024552
1.0024957
1.0025012
1.0024941
1.0024701
1.0024182
1.0023712
1.0023254
1.0022732
1.0022304
1.0021985
1.0021615
1.0021275
1.0020822
1.0019978
1.0019194
1.0018469
1.0017765
1.0017034
1.0016695
1.0016361
1.0015965
1.0015645
1.0015744
1.0016167
1.0016596
1.001715
1.0017688
1.0018229
1.0018984
1.0019652
1.0020398
1.002081
1.0021374
1.0021947
1.0022838
1.0023152
1.0023429
1.0024244
1.0023706
1.0024974
1.0025073
1.0024813
1.0025725
1.0025568
1.002473
1.0025767
1.0025812
1.0023646
1.0026461
1.002453
1.0023653
1.0024563
1.0025039
1.0025425
1.0022026
1.002259
1.0023933
1.0023064
1.0021937
1.0021062
1.0020967
1.0021519
1.0019795
1.00144
1.0011396
1.000985
1.0009896
1.001025
1.0010532
1.0010653
1.001056
1.0010356
1.0010233
1.001042
1.0010976
1.0011897
1.0013107
1.0014444
1.0015443
1.0016327
1.001688
1.0017523
1.0018102
1.0018901
1.0019773
1.0020898
1.0021842
1.0022812
1.0023549
1.0023937
1.0023999
1.0023938
1.0023749
1.0023293
1.0022841
1.0022384
1.0021888
1.0021485
1.0021148
1.0020789
1.0020358
1.0019921
1.0019125
1.0018386
1.0017664
1.0016973
1.0016294
1.0015929
1.0015517
1.0015049
1.0014634
1.0014666
1.0014996
1.0015274
1.001566
1.0016087
1.001649
1.0017086
1.0017736
1.0018534
1.0019096
1.0019713
1.0020381
1.002141
1.0021852
1.0022052
1.0023169
1.0022392
1.0023938
1.0023891
1.0023737
1.0025181
1.0024726
1.0023794
1.0024847
1.0024762
1.0022608
1.002553
1.0024437
1.0022888
1.0023431
1.0024364
1.0024541
1.0021675
1.0021734
1.0022865
1.0021998
1.0020705
1.0019642
1.0019958
1.0021241
1.0020211
1.0014323
1.00113
1.0009675
1.0009562
1.0009815
1.0009906
1.0009865
1.0009678
1.0009415
1.0009246
1.0009382
1.0009878
1.0010745
1.0011934
1.0013284
1.0014332
1.0015236
1.0015803
1.0016428
1.0017004
1.0017745
1.0018565
1.0019603
1.002052
1.0021495
1.0022296
1.002271
1.0022771
1.0022746
1.0022638
1.0022269
1.0021796
1.0021307
1.0020802
1.002045
1.0020051
1.0019713
1.0019241
1.0018798
1.0018134
1.001746
1.0016754
1.0016057
1.0015321
1.0014897
1.0014402
1.0013862
1.0013456
1.0013338
1.0013461
1.0013611
1.0013837
1.0014201
1.001449
1.0014921
1.0015547
1.0016378
1.0017077
1.0017733
1.0018465
1.001946
1.002013
1.0020405
1.0021484
1.0021048
1.0022288
1.0022337
1.0022426
1.0023915
1.0023612
1.0023012
1.0023603
1.0023434
1.0022463
1.002369
1.0023794
1.0022484
1.0022321
1.0023036
1.0022578
1.0021353
1.0021198
1.0021393
1.0020289
1.0019428
1.0018921
1.001957
1.0020311
1.0019738
1.0014005
1.0010953
1.0009058
1.0008664
1.0008756
1.0008649
1.0008444
1.0008274
1.0008038
1.0007896
1.0008042
1.0008515
1.0009385
1.0010615
1.0011963
1.0013115
1.0014066
1.0014706
1.0015326
1.0015878
1.0016562
1.0017309
1.0018252
1.0019068
1.0020007
1.0020806
1.002131
1.0021464
1.0021543
1.0021506
1.0021184
1.0020713
1.0020198
1.0019629
1.0019267
1.0018771
1.0018418
1.0017973
1.0017508
1.0016937
1.0016261
1.0015564
1.0014858
1.0014063
1.0013586
1.0013076
1.0012485
1.0012056
1.0011811
1.0011715
1.0011879
1.0012015
1.0012267
1.0012459
1.0012765
1.0013345
1.0014137
1.0014853
1.0015502
1.0016194
1.0017113
1.00178
1.0018411
1.0019059
1.0019575
1.002014
1.0020386
1.0020999
1.0021968
1.0021793
1.0022191
1.0021939
1.0021609
1.0022345
1.0021875
1.0022097
1.0022041
1.0021493
1.0021374
1.0020561
1.0020856
1.0020667
1.0020011
1.0018705
1.0018541
1.0018397
1.0018878
1.0018534
1.001791
1.001295
1.0009968
1.0007386
1.0006871
1.0006951
1.0006805