/*--------------------------------*- C++ -*----------------------------------*\
| =========                 |                                                 |
| \\      /  F ield         | OpenFOAM: The Open Source CFD Toolbox           |
|  \\    /   O peration     | Version:  2406                                  |
|   \\  /    A nd           | Website:  www.openfoam.com                      |
|    \\/     M anipulation  |                                                 |
\*---------------------------------------------------------------------------*/
FoamFile
{
    version     2.0;
    format      ascii;
    arch        "LSB;label=32;scalar=64";
    class       volScalarField;
    location    "30";
    object      T_0;
}
// * * * * * * * * * * * * * * * * * * * * * * * * * * * * * * * * * * * * * //

dimensions      [0 0 0 1 0 0 0];

internalField   nonuniform List<scalar> 
158064
(
1.0014389
1.001166
1.0010689
1.0011044
1.001178
1.0012375
1.0012787
1.0012951
1.0013084
1.0013364
1.0014127
1.001513
1.0016674
1.0017942
1.0019351
1.0020282
1.0021339
1.0022001
1.0023129
1.0023977
1.0025421
1.0026524
1.0028022
1.0028818
1.0029941
1.0029955
1.0030471
1.0029987
1.0029921
1.0029201
1.0028933
1.0028308
1.0028211
1.0027401
1.0027152
1.0026197
1.0026011
1.0024948
1.0024523
1.0024099
1.0024027
1.0022829
1.002247
1.0021919
1.0023075
1.0023334
1.0023786
1.0024074
1.0024587
1.0025141
1.002606
1.002608
1.0026685
1.0026717
1.0027553
1.0028326
1.002842
1.0028321
1.0028859
1.0029735
1.0030143
1.002901
1.0030333
1.003071
1.0030859
1.0030179
1.0030736
1.0029877
1.0030911
1.0030312
1.0029709
1.0030839
1.0028544
1.0029185
1.0031183
1.0026473
1.0024728
1.002693
1.0025861
1.0026923
1.0024998
1.0024625
1.0020456
1.0019413
1.0018814
1.0017735
1.0017311
1.0015642
1.0013737
1.0014405
1.0011687
1.0010695
1.0011049
1.0011774
1.0012377
1.0012767
1.0012909
1.0013024
1.0013304
1.0014013
1.0014999
1.0016501
1.0017737
1.0019187
1.0020095
1.0021163
1.0021805
1.0022883
1.0023721
1.0025165
1.002627
1.002782
1.0028587
1.0029777
1.0029843
1.0030295
1.0029801
1.0029758
1.0029077
1.0028922
1.0028129
1.0028016
1.0027272
1.0027085
1.0026163
1.0025829
1.0025038
1.0024722
1.0023562
1.0023169
1.0022535
1.002263
1.0022304
1.0022512
1.0022411
1.0023075
1.002327
1.0023913
1.0024512
1.0025555
1.0026031
1.0026627
1.0026845
1.0027421
1.0027552
1.0028272
1.0028215
1.0028834
1.0028852
1.0029856
1.0029644
1.0029929
1.0029177
1.0030147
1.0030425
1.0030485
1.0030885
1.0030736
1.0029702
1.0030852
1.0029178
1.003068
1.0028406
1.0028574
1.0027908
1.0028931
1.0025642
1.002688
1.0023917
1.0024997
1.0022047
1.0022336
1.0020559
1.0020573
1.0018754
1.0016773
1.001389
1.001427
1.0014412
1.0011699
1.0010686
1.0011036
1.0011761
1.0012349
1.0012726
1.0012841
1.001294
1.0013195
1.0013858
1.0014858
1.0016322
1.0017579
1.001902
1.0019932
1.0020989
1.0021632
1.0022705
1.0023528
1.0024949
1.0026047
1.0027583
1.0028375
1.0029582
1.0029674
1.0030115
1.0029618
1.002958
1.0028898
1.0028738
1.0027978
1.0027876
1.0027118
1.002697
1.0026128
1.0025763
1.0024664
1.0024466
1.0023596
1.0023228
1.0022477
1.002227
1.0021811
1.0022119
1.0021977
1.0022565
1.0022701
1.0023571
1.0024217
1.002507
1.0025394
1.0025982
1.002627
1.0027048
1.0027315
1.0027922
1.0027827
1.0028559
1.0028927
1.0029228
1.002895
1.0029791
1.002972
1.0030014
1.0029749
1.0030291
1.0029481
1.0030812
1.0029811
1.0030452
1.0029731
1.0029175
1.0029256
1.0028897
1.0027936
1.0027077
1.0026945
1.0026128
1.0025285
1.0023109
1.0023715
1.0021945
1.0021535
1.0020073
1.0017823
1.0015482
1.0016832
1.0015042
1.001442
1.0011707
1.0010671
1.0011019
1.0011726
1.0012314
1.0012689
1.0012795
1.0012871
1.0013109
1.0013761
1.001471
1.0016142
1.0017389
1.0018838
1.0019754
1.0020795
1.0021415
1.0022468
1.0023276
1.0024693
1.0025808
1.0027343
1.002814
1.0029328
1.002945
1.0029909
1.0029438
1.0029404
1.0028723
1.0028558
1.0027787
1.002765
1.0026838
1.0026686
1.002598
1.0025555
1.0024632
1.0024292
1.0023517
1.002313
1.0022342
1.0022104
1.0021701
1.0021809
1.0021796
1.002239
1.0022678
1.0023199
1.0023881
1.0024768
1.0025146
1.0025831
1.002597
1.0026722
1.0027006
1.002754
1.002749
1.0028227
1.002844
1.0028925
1.0028847
1.0029358
1.0029236
1.00296
1.0029925
1.0030472
1.0030422
1.0029363
1.0029446
1.0029213
1.0029995
1.0030792
1.0028836
1.0028913
1.0027948
1.0027557
1.002726
1.0026248
1.0024661
1.002651
1.0023634
1.0022919
1.0022003
1.0019219
1.0019428
1.0019846
1.0015914
1.0013445
1.0014424
1.0011707
1.0010642
1.0010979
1.0011677
1.001225
1.0012604
1.00127
1.0012769
1.0012979
1.0013591
1.0014537
1.0015963
1.001722
1.0018651
1.0019569
1.00206
1.0021225
1.002227
1.0023061
1.0024456
1.002556
1.0027102
1.0027934
1.0029145
1.0029309
1.0029747
1.0029247
1.0029229
1.0028553
1.0028347
1.0027651
1.0027626
1.0026947
1.0026763
1.0025905
1.0025601
1.002469
1.0024226
1.0023255
1.0022742
1.0021907
1.0021908
1.0021642
1.002172
1.0021566
1.0022124
1.0022256
1.0022817
1.0023367
1.0024422
1.0024641
1.0025356
1.0025484
1.0026416
1.0026781
1.0027355
1.002725
1.0028043
1.0028075
1.002864
1.0028596
1.002944
1.0029241
1.00294
1.0029311
1.0030112
1.0029605
1.0030479
1.0028996
1.0030222
1.0028374
1.0029376
1.0028154
1.0029353
1.0027243
1.0029139
1.002577
1.0026483
1.0025862
1.0025481
1.0022532
1.002311
1.0021889
1.0022133
1.0019855
1.0019216
1.0016696
1.0015441
1.0014428
1.0011701
1.0010607
1.0010942
1.0011619
1.0012186
1.0012553
1.0012633
1.001267
1.0012888
1.0013476
1.0014396
1.0015761
1.0017037
1.001848
1.0019406
1.0020411
1.0021035
1.002207
1.0022855
1.0024254
1.0025342
1.0026836
1.0027665
1.0028863
1.0029017
1.0029497
1.0029055
1.0029044
1.0028398
1.0028191
1.0027467
1.00273
1.0026591
1.0026327
1.0025462
1.0025363
1.0024459
1.0024111
1.0023171
1.0022785
1.0021797
1.0021734
1.0021418
1.0021475
1.002133
1.0021958
1.0022114
1.0022674
1.002315
1.0024071
1.0024463
1.0025291
1.0025357
1.0026102
1.0026476
1.0027067
1.0027233
1.0027769
1.0027958
1.0028583
1.0028529
1.0029133
1.0028714
1.0029852
1.0028785
1.0029629
1.0028745
1.0029324
1.0029547
1.0029433
1.0028715
1.002912
1.0028804
1.002728
1.002719
1.0027811
1.0026443
1.0027841
1.0025997
1.0024473
1.0025311
1.0025436
1.0021489
1.002129
1.0019919
1.0017537
1.0018556
1.0018237
1.001443
1.0011691
1.0010566
1.0010886
1.0011552
1.0012121
1.0012463
1.0012538
1.0012574
1.0012744
1.0013301
1.0014222
1.0015612
1.0016861
1.0018291
1.0019225
1.0020216
1.0020827
1.0021823
1.0022574
1.002395
1.0025073
1.0026646
1.002752
1.0028686
1.0028875
1.0029333
1.0028866
1.0028816
1.002816
1.0027921
1.0027217
1.0027194
1.0026663
1.0026438
1.0025769
1.0025491
1.0024477
1.0023995
1.0023051
1.0022515
1.0021763
1.0021532
1.0020996
1.0020985
1.0020816
1.0021429
1.0021712
1.0022347
1.0022851
1.0023783
1.0024365
1.0025031
1.0025366
1.0025963
1.0026306
1.0026816
1.0027076
1.0027614
1.0027808
1.0028205
1.0028179
1.0029165
1.0028436
1.0029228
1.0028904
1.0029751
1.0029094
1.0029182
1.002879
1.0029405
1.0029201
1.0028687
1.0027578
1.0028753
1.0028541
1.0027135
1.0026858
1.0025957
1.0024879
1.0025916
1.002458
1.0022256
1.0022286
1.0022931
1.0021861
1.0019375
1.001836
1.001828
1.0014433
1.0011678
1.001052
1.0010839
1.0011487
1.0012048
1.001238
1.0012428
1.0012444
1.0012635
1.0013198
1.0014108
1.00154
1.0016695
1.0018108
1.0019063
1.0020057
1.0020684
1.0021706
1.0022497
1.0023848
1.0024902
1.0026367
1.0027208
1.0028444
1.0028712
1.0029195
1.0028814
1.0028756
1.0028121
1.0027977
1.0027256
1.002709
1.002646
1.0026131
1.0025393
1.0025061
1.0024226
1.0024003
1.0023219
1.0022649
1.0021937
1.0021648
1.0021046
1.0021008
1.0020805
1.0021272
1.0021486
1.0022175
1.0022594
1.0023348
1.0024001
1.0024687
1.0025032
1.0025706
1.0026043
1.002668
1.002677
1.0027529
1.002752
1.0027972
1.0027984
1.0028323
1.0028607
1.002895
1.0029207
1.0028912
1.0029222
1.0029087
1.0027871
1.0029406
1.0027767
1.0028727
1.0028516
1.0028738
1.0025984
1.0026364
1.0026742
1.002664
1.0026249
1.0025375
1.0024438
1.0024798
1.0024337
1.0021273
1.0019938
1.0021278
1.0020413
1.001646
1.0014433
1.0011662
1.0010473
1.0010777
1.00114
1.0011951
1.0012299
1.0012364
1.0012372
1.0012522
1.0013028
1.0013913
1.0015247
1.0016537
1.0017966
1.0018923
1.0019848
1.0020462
1.00214
1.0022149
1.0023495
1.0024611
1.0026164
1.0027077
1.0028192
1.0028409
1.0028838
1.0028464
1.0028355
1.0027706
1.0027476
1.0026787
1.0026705
1.0026189
1.00261
1.0025524
1.0025251
1.0024272
1.0023734
1.00227
1.0022276
1.0021431
1.0021213
1.0020823
1.002072
1.0020432
1.0020746
1.0020823
1.0021639
1.0022203
1.0023189
1.0023669
1.0024438
1.0024684
1.0025429
1.0025737
1.0026412
1.002652
1.0027315
1.0027409
1.0027659
1.0028129
1.0028024
1.0028362
1.0028231
1.0028743
1.0029108
1.0028533
1.0029371
1.0029198
1.0029127
1.0028184
1.0029253
1.0027893
1.0027618
1.0028657
1.0027704
1.0027008
1.0025725
1.002607
1.0024822
1.0023513
1.0023375
1.0023291
1.0022508
1.0020913
1.0020039
1.0019914
1.0017857
1.0014433
1.0011644
1.0010425
1.0010719
1.0011329
1.0011864
1.0012199
1.0012245
1.0012225
1.001238
1.0012913
1.0013799
1.0015079
1.0016361
1.0017764
1.0018735
1.0019688
1.0020366
1.0021331
1.0022096
1.0023386
1.0024448
1.0025914
1.0026834
1.0028031
1.0028413
1.0028858
1.0028481
1.0028382
1.0027789
1.0027537
1.002689
1.0026699
1.0026145
1.0025927
1.0025211
1.0024937
1.0024141
1.0023705
1.0022742
1.0022297
1.0021297
1.0020928
1.0020711
1.0020766
1.0020535
1.0021021
1.0021073
1.0021695
1.0022035
1.0023075
1.0023314
1.0023878
1.0024186
1.0025094
1.0025652
1.0026288
1.0026504
1.0027066
1.0027333
1.002733
1.002765
1.0027973
1.0028007
1.0028665
1.0028768
1.0028946
1.0028437
1.0028572
1.0028374
1.002794
1.0028251
1.0027819
1.0026921
1.0027661
1.0027427
1.0026331
1.0026551
1.0027012
1.0024669
1.0026442
1.0027221
1.002428
1.0022794
1.0023235
1.0023602
1.0021299
1.0018582
1.0019244
1.0014431
1.0011626
1.0010377
1.0010655
1.0011255
1.0011805
1.0012115
1.0012171
1.0012157
1.0012292
1.0012771
1.0013656
1.0014918
1.0016259
1.0017618
1.0018619
1.0019558
1.0020158
1.0021073
1.002186
1.0023146
1.0024329
1.0025773
1.0026685
1.0027752
1.0028147
1.0028582
1.0028296
1.0028254
1.0027694
1.0027405
1.002681
1.0026655
1.0026151
1.0025918
1.0025403
1.0025047
1.0024232
1.0023752
1.0022885
1.0022452
1.0021698
1.0021216
1.0020699
1.0020559
1.0020135
1.0020487
1.002053
1.0021077
1.0021558
1.0022634
1.0023431
1.0024128
1.002452
1.0025085
1.0025618
1.0026032
1.0026405
1.0026864
1.0027026
1.0027326
1.0027431
1.0028247
1.0027863
1.0028337
1.0028076
1.0029088
1.0028284
1.0028668
1.0028212
1.0028501
1.002882
1.0027343
1.002825
1.0028465
1.0026794
1.0027603
1.0026204
1.0026935
1.0024701
1.0025181
1.0023577
1.0022972
1.002308
1.0020782
1.0020209
1.0021273
1.001879
1.0019536
1.0014429
1.0011608
1.0010329
1.0010606
1.0011172
1.0011677
1.0012038
1.0012073
1.0012032
1.0012175
1.0012653
1.0013504
1.0014763
1.0016089
1.0017484
1.0018491
1.0019357
1.0020058
1.0020938
1.0021703
1.0022907
1.0024008
1.0025433
1.0026461
1.0027585
1.0028005
1.0028346
1.0027951
1.0027806
1.0027316
1.0026999
1.0026325
1.0026096
1.0025642
1.0025449
1.0025057
1.0024748
1.0023871
1.0023442
1.0022497
1.0021862
1.0021092
1.0020759
1.0020382
1.0020511
1.0020208
1.0020552
1.002068
1.0021231
1.0021701
1.0022272
1.0022927
1.002351
1.0024045
1.0024754
1.0025446
1.0025934
1.0026302
1.0026756
1.0026785
1.0027324
1.002733
1.0027953
1.0027716
1.0028213
1.0027711
1.0028442
1.0028265
1.0028938
1.0028119
1.0028323
1.0028094
1.0028431
1.0027312
1.0026975
1.0027043
1.0027645
1.0026264
1.0025024
1.0026871
1.0025428
1.0022492
1.0024733
1.0024631
1.0023054
1.0020544
1.0020545
1.0021225
1.0019773
1.0014427
1.0011589
1.0010285
1.0010527
1.0011107
1.0011645
1.0011939
1.0011985
1.0011944
1.0012042
1.001252
1.0013393
1.0014616
1.0015944
1.0017319
1.0018319
1.0019231
1.0019878
1.0020774
1.0021519
1.0022781
1.0023925
1.0025255
1.0026264
1.0027382
1.002791
1.0028309
1.0028108
1.0027998
1.0027503
1.0027081
1.0026526
1.0026338
1.002591
1.0025585
1.0025054
1.002484
1.0024057
1.0023675
1.0022767
1.0022148
1.002117
1.0020632
1.0020066
1.0020035
1.0019735
1.0019972
1.0020252
1.0020901
1.0021691
1.0022321
1.0022882
1.0023509
1.0023966
1.0024602
1.0025028
1.0025726
1.0025989
1.0026676
1.0026772
1.00271
1.0027246
1.0027545
1.0027886
1.0028135
1.0028493
1.0028018
1.0028424
1.0028503
1.0027592
1.0028597
1.0026895
1.0027215
1.0027123
1.0026219
1.0026102
1.0027227
1.0027546
1.0025902
1.0026274
1.0024873
1.0025884
1.0024861
1.0023649
1.002263
1.0023785
1.002269
1.0020807
1.0019709
1.0014425
1.0011571
1.001024
1.00105
1.0011027
1.001153
1.0011872
1.0011908
1.0011852
1.0011985
1.0012415
1.0013269
1.0014479
1.0015877
1.0017205
1.0018222
1.0019135
1.0019785
1.0020649
1.0021474
1.0022633
1.0023871
1.002524
1.0026237
1.0027228
1.0027727
1.0028097
1.0027847
1.002777
1.0027426
1.0027012
1.002642
1.0026135
1.0025718
1.0025424
1.0024841
1.0024672
1.0023987
1.0023492
1.0022607
1.0022102
1.0021195
1.002081
1.0020472
1.0020397
1.0019916
1.0020032
1.0020174
1.0020334
1.0020948
1.0021896
1.0022478
1.0023255
1.002377
1.0024663
1.0024992
1.002566
1.0025823
1.0026536
1.0026715
1.0026953
1.0027184
1.0027249
1.0027995
1.002746
1.0028234
1.0027866
1.0028293
1.0027569
1.0027794
1.0028872
1.0028316
1.0028128
1.0027543
1.0028129
1.0027837
1.0027477
1.0026551
1.0026597
1.0024038
1.0023396
1.0024521
1.0024306
1.0021921
1.0020006
1.0022043
1.002082
1.001897
1.0018666
1.0014425
1.0011554
1.0010203
1.0010413
1.0010968
1.0011481
1.0011795
1.0011815
1.0011759
1.0011886
1.001232
1.0013156
1.0014344
1.0015706
1.0017038
1.0018115
1.0018991
1.0019684
1.0020509
1.0021238
1.0022387
1.0023552
1.0024882
1.0025921
1.0027008
1.0027622
1.0027955
1.0027752
1.0027477
1.0027086
1.0026606
1.0026096
1.002591
1.0025602
1.0025366
1.0024869
1.0024628
1.0024097
1.0023458
1.0022526
1.0021919
1.0021134
1.0020819
1.0020385
1.0020238
1.0019943
1.0020165
1.0020195
1.0020362
1.0020737
1.0021801
1.0022383
1.0023016
1.0023499
1.0024445
1.0024842
1.0025482
1.0025626
1.0026332
1.002646
1.0026912
1.0026891
1.0027031
1.0027818
1.0028041
1.0027799
1.0028977
1.0027918
1.0027388
1.0028185
1.0027526
1.0027629
1.002747
1.0026234
1.0026442
1.002678
1.002602
1.0026024
1.0027617
1.0024992
1.0026148
1.0025721
1.0023333
1.002291
1.0023799
1.0023018
1.0021885
1.0020429
1.0020647
1.0014425
1.0011538
1.0010167
1.0010385
1.0010908
1.0011401
1.0011704
1.0011768
1.001169
1.0011772
1.001219
1.0013032
1.0014239
1.0015614
1.0016954
1.0017995
1.001886
1.0019544
1.0020361
1.0021131
1.002224
1.0023397
1.0024661
1.0025757
1.0026857
1.0027442
1.0027726
1.0027614
1.0027525
1.0027205
1.0026751
1.0026251
1.0025859
1.002543
1.0025172
1.0024819
1.0024425
1.0023845
1.0023298
1.002251
1.0021806
1.0020937
1.0020401
1.0019884
1.0019711
1.0019499
1.0019684
1.0019872
1.0020344
1.0020719
1.0021616
1.0022335
1.0022906
1.0023478
1.002424
1.0024683
1.0025121
1.0025386
1.0025967
1.0026166
1.0026889
1.0026812
1.002713
1.0027217
1.0028316
1.0027455
1.002839
1.0027479
1.0028249
1.0027766
1.0027422
1.0027942
1.0027423
1.0027292
1.0026884
1.002594
1.0025807
1.0026176
1.0025442
1.0025047
1.0025693
1.0023978
1.0023294
1.0024008
1.0025299
1.0023269
1.0022472
1.002076
1.0019143
1.0014425
1.0011522
1.0010134
1.0010323
1.0010826
1.0011341
1.0011661
1.001168
1.0011604
1.0011722
1.001213
1.0012967
1.001413
1.001551
1.001684
1.0017869
1.0018782
1.0019452
1.0020246
1.0021079
1.0022182
1.002342
1.0024696
1.002577
1.0026757
1.0027393
1.002769
1.0027585
1.0027386
1.0027027
1.0026541
1.0026189
1.0025797
1.0025319
1.0025019
1.0024729
1.0024457
1.0023826
1.0023312
1.0022614
1.0021873
1.0020968
1.002031
1.0019664
1.0019429
1.0019388
1.0019424
1.0019414
1.0020086
1.0020695
1.0021416
1.0022181
1.0022733
1.0023461
1.0024075
1.0024608
1.0024969
1.0025255
1.0025745
1.0026074
1.0026677
1.0026821
1.0027349
1.0026955
1.0027728
1.0027544
1.0027565
1.0027574
1.0028157
1.0027263
1.0027841
1.0027551
1.0027056
1.0028351
1.0027149
1.0026767
1.0027819
1.0027971
1.0025341
1.0026085
1.0027443
1.0025193
1.0023539
1.0022773
1.0022929
1.0021308
1.0020363
1.0019773
1.0021958
1.0014424
1.0011508
1.0010105
1.0010287
1.0010796
1.0011281
1.0011578
1.0011611
1.0011567
1.0011666
1.0012046
1.0012845
1.0014008
1.0015415
1.0016731
1.0017816
1.0018676
1.0019375
1.0020149
1.002094
1.0022035
1.0023272
1.0024592
1.0025624
1.0026602
1.0027306
1.0027614
1.0027518
1.0027346
1.0027013
1.0026413
1.0025908
1.0025635
1.0025403
1.0025124
1.0024753
1.002443
1.0023717
1.0023258
1.0022584
1.0022106
1.0021254
1.0020662
1.0020066
1.0019898
1.0019766
1.001967
1.0019601
1.0019885
1.0020492
1.002092
1.002164
1.0022354
1.002329
1.0023975
1.0024661
1.0025011
1.0025371
1.0025658
1.0026108
1.0026454
1.0026727
1.002721
1.0027092
1.002703
1.0027702
1.0027299
1.0027653
1.0027838
1.002791
1.0028327
1.0027828
1.0027715
1.0027539
1.0026632
1.0026552
1.002707
1.0026604
1.0025212
1.0026503
1.002672
1.0023497
1.002444
1.0024953
1.002313
1.0022845
1.0020354
1.002124
1.0022448
1.0014422
1.0011493
1.0010072
1.0010234
1.0010724
1.001121
1.0011526
1.0011583
1.0011506
1.0011572
1.0011954
1.0012773
1.0013939
1.0015337
1.0016644
1.0017717
1.0018596
1.0019323
1.0020089
1.0020846
1.0021868
1.0023053
1.002436
1.0025434
1.0026447
1.0027115
1.0027459
1.0027372
1.002722
1.0026952
1.0026493
1.0026083
1.0025666
1.0025279
1.0024988
1.0024705
1.0024446
1.0023838
1.0023253
1.0022461
1.0021917
1.0020999
1.0020357
1.0019911
1.001983
1.0019595
1.0019512
1.001962
1.0019894
1.0020575
1.0021016
1.002158
1.0022163
1.00229
1.0023629
1.0024442
1.0024889
1.0025389
1.0025618
1.0026077
1.0026365
1.0026749
1.0026681
1.0027217
1.0027002
1.0027615
1.0027579
1.0027762
1.0027755
1.002808
1.0028152
1.0027118
1.0028017
1.0026828
1.0027334
1.0027034
1.0026536
1.0025063
1.002558
1.0026572
1.0024501
1.0024362
1.0023975
1.0024523
1.0022218
1.0021401
1.0022477
1.0024657
1.0023428
1.0014421
1.001148
1.0010046
1.0010202
1.0010693
1.0011168
1.0011487
1.0011513
1.0011421
1.0011508
1.0011902
1.0012698
1.0013859
1.0015235
1.0016548
1.001763
1.0018526
1.0019241
1.0019959
1.0020741
1.0021749
1.0022944
1.0024202
1.002533
1.0026354
1.0026998
1.0027281
1.0027212
1.0027106
1.0026851
1.0026474
1.0026086
1.0025598
1.002516
1.00249
1.0024604
1.002442
1.0023952
1.0023272
1.0022419
1.0021753
1.0020741
1.0020133
1.0019783
1.0019538
1.0019188
1.0019236
1.0019577
1.0019946
1.0020489
1.0021122
1.0021779
1.0022285
1.0022806
1.0023533
1.0024239
1.0024566
1.0025082
1.0025489
1.00259
1.0026309
1.0026802
1.0026365
1.0027069
1.0027405
1.0027153
1.0027762
1.0027476
1.0027424
1.0028038
1.0027558
1.0027604
1.0028039
1.0025958
1.0026624
1.0028928
1.002712
1.0024374
1.0027528
1.0026948
1.0023764
1.0024903
1.002466
1.0024043
1.0023841
1.0022425
1.0023008
1.0022665
1.0020082
1.001442
1.0011468
1.0010021
1.0010176
1.0010642
1.0011128
1.0011413
1.0011464
1.0011388
1.0011485
1.0011848
1.0012619
1.001376
1.0015161
1.0016494
1.001758
1.0018434
1.0019114
1.0019834
1.0020676
1.0021678
1.0022885
1.0024133
1.0025238
1.002629
1.0027026
1.002729
1.0027205
1.0027099
1.0026792
1.002627
1.0025823
1.0025477
1.0025141
1.0024878
1.0024564
1.0024273
1.0023877
1.0023244
1.0022381
1.0021795
1.0020838
1.0020298
1.0019954
1.0019577
1.0019277
1.001933
1.0019571
1.0019894
1.0020146
1.0020754
1.0021458
1.0022273
1.0022845
1.0023556
1.0024169
1.0024391
1.0024845
1.0025379
1.0025663
1.0026152
1.0026636
1.0026573
1.0026767
1.0027488
1.0027243
1.0027937
1.0027043
1.0027394
1.0027747
1.0027072
1.0028139
1.0027652
1.0027099
1.0027288
1.0028001
1.0026938
1.0025621
1.0027798
1.002626
1.0025785
1.0026334
1.0026491
1.0023965
1.0023421
1.0023575
1.0023521
1.0022403
1.0020183
1.001442
1.0011456
1.001
1.0010135
1.0010598
1.0011078
1.0011367
1.0011439
1.001136
1.0011424
1.0011774
1.0012567
1.0013707
1.0015082
1.0016426
1.0017513
1.0018359
1.0019052
1.0019785
1.0020612
1.0021624
1.0022813
1.002409
1.0025187
1.0026205
1.0026974
1.0027313
1.0027234
1.0027026
1.002669
1.0026166
1.0025682
1.002536
1.0025103
1.0024813
1.0024431
1.0024068
1.0023702
1.0023106
1.0022386
1.0021819
1.0020988
1.0020386
1.0019984
1.0019562
1.0019345
1.0019364
1.0019408
1.001974
1.0019804
1.0020353
1.0021128
1.002211
1.002275
1.0023554
1.002418
1.0024456
1.0024884
1.0025322
1.0025492
1.0026032
1.0026252
1.0026782
1.0026559
1.0027049
1.002777
1.0027622
1.0027253
1.0027716
1.0027217
1.0027724
1.0027578
1.0026303
1.0027985
1.0027932
1.002636
1.0026176
1.0028563
1.0026275
1.0024458
1.0026269
1.0026269
1.0026516
1.0023425
1.0023012
1.0023556
1.0022879
1.0020907
1.0019009
1.001442
1.0011447
1.0009978
1.0010112
1.001057
1.0011033
1.0011351
1.0011391
1.0011304
1.0011366
1.0011729
1.0012519
1.001363
1.0015025
1.0016377
1.0017432
1.0018309
1.0019044
1.0019747
1.0020531
1.0021523
1.0022727
1.0024033
1.0025135
1.0026077
1.0026783
1.0027176
1.0027114
1.0026929
1.0026687
1.0026292
1.002576
1.0025303
1.0024987
1.0024722
1.0024414
1.0024069
1.0023654
1.0023132
1.0022455
1.0021725
1.0020925
1.0020303
1.0019898
1.0019378
1.0019057
1.001905
1.0019085
1.0019456
1.0019586
1.0020191
1.0020993
1.0021893
1.0022581
1.0023309
1.0024058
1.002443
1.0024928
1.0025208
1.002541
1.0025887
1.002599
1.0026718
1.0026547
1.0026553
1.0027854
1.0026854
1.0027719
1.0028032
1.0026782
1.0028735
1.0027389
1.0026093
1.0027754
1.0027592
1.0026066
1.0025418
1.0028634
1.0025535
1.0024503
1.0025688
1.0024914
1.0024261
1.0023257
1.0023225
1.0023029
1.0022779
1.0020202
1.0018797
1.0014419
1.0011441
1.000996
1.0010088
1.0010549
1.0011007
1.0011311
1.0011348
1.0011269
1.0011343
1.0011705
1.0012449
1.0013564
1.0014955
1.0016298
1.0017384
1.0018273
1.0019011
1.0019707
1.0020461
1.0021411
1.0022617
1.0023907
1.0025012
1.0025948
1.0026612
1.0026999
1.0026967
1.0026893
1.0026733
1.0026365
1.0025868
1.0025397
1.0025003
1.0024784
1.0024475
1.0024132
1.0023723
1.0023166
1.0022559
1.0021767
1.0020974
1.002026
1.0019759
1.0019236
1.0018929
1.0018919
1.0018909
1.0019151
1.0019561
1.0020343
1.0021036
1.0021676
1.002232
1.0022995
1.0023691
1.0024157
1.0024769
1.0024957
1.0025304
1.0025691
1.0025921
1.0026455
1.0026589
1.0026441
1.0027451
1.0026587
1.0027747
1.0028097
1.0026837
1.0028136
1.0027366
1.0026906
1.0027118
1.0027298
1.0026375
1.0026146
1.0026833
1.0025792
1.0025299
1.0024909
1.0024951
1.0023155
1.0023873
1.0024818
1.002397
1.0023236
1.0022153
1.0021817
1.0014418
1.0011435
1.0009943
1.0010069
1.0010524
1.0010969
1.0011269
1.0011327
1.0011247
1.0011299
1.0011648
1.0012389
1.0013525
1.0014911
1.0016245
1.0017348
1.0018221
1.0018934
1.0019654
1.0020415
1.0021337
1.0022484
1.0023759
1.0024873
1.0025887
1.0026592
1.0026939
1.0026922
1.0026866
1.0026665
1.0026208
1.0025793
1.0025443
1.0025034
1.0024817
1.002442
1.0024116
1.002369
1.0023109
1.0022461
1.0021762
1.002094
1.0020164
1.0019611
1.0019188
1.0019014
1.0018888
1.001886
1.0019022
1.0019567
1.0020441
1.0020989
1.0021361
1.0021954
1.0022608
1.0023274
1.0023784
1.0024486
1.0024688
1.0025205
1.002545
1.0025894
1.002611
1.0026514
1.0026676
1.0026781
1.0026999
1.0027262
1.0027471
1.0027369
1.0027017
1.0026942
1.0027279
1.0026478
1.0026862
1.0027
1.0027551
1.0026014
1.0026154
1.0026574
1.0025226
1.0025386
1.0024288
1.0025135
1.0025161
1.0023217
1.0022505
1.0022504
1.002314
1.0014418
1.0011429
1.0009931
1.0010052
1.0010489
1.0010944
1.0011245
1.0011305
1.0011207
1.0011258
1.0011615
1.0012353
1.0013471
1.0014866
1.0016215
1.0017295
1.0018165
1.001884
1.0019561
1.0020353
1.0021292
1.0022388
1.0023648
1.0024769
1.0025837
1.0026619
1.0026928
1.0026851
1.0026677
1.0026397
1.0025933
1.0025505
1.0025175
1.0024823
1.0024613
1.0024226
1.0023881
1.0023459
1.0022899
1.0022239
1.0021595
1.0020771
1.0019976
1.0019443
1.0019151
1.0018907
1.0018704
1.001878
1.0018837
1.0019389
1.0020098
1.0020533
1.002089
1.002148
1.0022235
1.0022866
1.0023503
1.0024163
1.0024453
1.0025032
1.0025164
1.0025749
1.0025784
1.0026201
1.0026848
1.0026046
1.0027318
1.0026854
1.0026764
1.0027847
1.0026713
1.0026561
1.0027206
1.0026523
1.0025826
1.0027561
1.0027691
1.0025921
1.0026008
1.0026808
1.0026515
1.002454
1.0025001
1.002552
1.0025816
1.002301
1.0020741
1.0021581
1.0023331
1.0014417
1.0011425
1.000992
1.0010031
1.0010464
1.0010931
1.0011222
1.0011275
1.0011173
1.0011235
1.0011586
1.0012307
1.0013397
1.0014758
1.0016142
1.0017196
1.0018069
1.0018735
1.0019419
1.002021
1.0021122
1.0022245
1.0023491
1.0024611
1.0025641
1.0026438
1.0026746
1.0026647
1.0026409
1.0026118
1.002567
1.0025124
1.0024697
1.0024362
1.0024154
1.002379
1.0023506
1.002314
1.0022596
1.0021885
1.0021287
1.0020523
1.0019664
1.0019071
1.0018701
1.0018381
1.0018151
1.0018289
1.0018368
1.0018753
1.0019348
1.001988
1.0020381
1.0020992
1.0021799
1.0022459
1.0023202
1.0023769
1.0024135
1.002467
1.0024835
1.00254
1.0025501
1.0025783
1.0026683
1.0025564
1.0027144
1.0026613
1.0026097
1.0027746
1.0026762
1.0026663
1.0027176
1.0027163
1.0025219
1.0027384
1.0026889
1.0025277
1.0025352
1.0025444
1.0026631
1.002364
1.0024068
1.0024292
1.0024805
1.002391
1.0021705
1.0021887
1.0023037
1.0014417
1.0011423
1.0009912
1.0010014
1.0010448
1.0010909
1.0011192
1.0011239
1.001114
1.0011189
1.0011522
1.0012212
1.0013288
1.0014619
1.0016007
1.0017041
1.0017908
1.0018596
1.0019246
1.0019976
1.0020864
1.0021972
1.0023208
1.002428
1.0025243
1.0025988
1.0026346
1.0026296
1.002611
1.0025833
1.0025361
1.0024773
1.0024251
1.0023846
1.0023573
1.0023245
1.0022965
1.0022652
1.0022125
1.002133
1.002067
1.0019934
1.0019147
1.0018473
1.0018143
1.0017803
1.001746
1.0017473
1.0017547
1.0017931
1.0018517
1.0019188
1.0019863
1.0020451
1.002127
1.0021933
1.002265
1.0023098
1.0023553
1.0024023
1.002442
1.00248
1.0025138
1.0025347
1.0026039
1.0025495
1.0026555
1.0026155
1.0025771
1.0026982
1.0026503
1.00266
1.0027101
1.0026962
1.0025961
1.0026269
1.0025849
1.0024873
1.0025208
1.0024308
1.0024996
1.0023449
1.0023613
1.0023713
1.0022547
1.0023541
1.0023188
1.0022553
1.0022309
1.0014417
1.0011421
1.0009907
1.0010006
1.0010433
1.0010868
1.001114
1.0011169
1.0011061
1.0011072
1.0011372
1.0012027
1.0013083
1.0014375
1.0015731
1.0016741
1.0017603
1.0018259
1.0018931
1.0019566
1.002043
1.0021465
1.0022683
1.0023691
1.0024633
1.0025326
1.0025737
1.0025786
1.0025671
1.0025396
1.0024887
1.0024355
1.0023829
1.0023336
1.002297
1.0022649
1.0022313
1.002202
1.002153
1.0020707
1.0019928
1.0019241
1.0018525
1.0017758
1.0017414
1.001712
1.0016746
1.0016562
1.0016694
1.0017141
1.0017701
1.001836
1.0019013
1.001959
1.002039
1.0021033
1.0021755
1.0022106
1.0022636
1.0023086
1.00238
1.0024009
1.0024511
1.0024894
1.0024961
1.0025454
1.0025936
1.0025584
1.0025771
1.0026257
1.0025774
1.002625
1.0026486
1.002543
1.0026797
1.002507
1.0024689
1.0025111
1.0025322
1.0024461
1.0023113
1.0023542
1.0023932
1.0023429
1.0022447
1.0022578
1.0022669
1.0022368
1.0020657
1.0014415
1.0011416
1.0009891
1.0009975
1.0010388
1.0010777
1.0011003
1.0010992
1.001085
1.0010792
1.0011045
1.001166
1.0012658
1.0013907
1.0015238
1.001623
1.00171
1.0017706
1.0018365
1.0018964
1.0019798
1.0020748
1.0021933
1.0022897
1.0023851
1.0024541
1.002497
1.0025033
1.0024951
1.0024699
1.0024188
1.002371
1.002322
1.0022683
1.0022253
1.0021948
1.0021594
1.0021244
1.0020804
1.001998
1.0019183
1.0018464
1.0017762
1.0017059
1.0016713
1.0016399
1.0015997
1.0015649
1.0015796
1.0016225
1.0016648
1.0017179
1.0017723
1.0018257
1.0018976
1.0019585
1.0020358
1.0020762
1.0021386
1.0021879
1.0022869
1.0023063
1.0023489
1.0024204
1.0023626
1.0025039
1.0024947
1.0024816
1.0025864
1.0025417
1.0025041
1.0025661
1.0025715
1.00237
1.0026598
1.0024409
1.0023432
1.0024864
1.0025342
1.0024925
1.0022005
1.0022951
1.0024112
1.0023006
1.0022031
1.0021094
1.0021176
1.0021675
1.0019874
1.0014401
1.0011394
1.0009843
1.0009884
1.001024
1.0010526
1.0010653
1.0010557
1.0010356
1.0010227
1.0010418
1.001097
1.0011881
1.001309
1.0014421
1.0015416
1.0016294
1.0016848
1.0017491
1.001808
1.0018873
1.0019752
1.0020878
1.0021824
1.00228
1.0023542
1.0023944
1.0024007
1.0023932
1.0023732
1.0023284
1.0022833
1.0022377
1.0021879
1.002147
1.0021136
1.0020788
1.0020348
1.0019915
1.0019155
1.0018408
1.0017695
1.0017018
1.0016368
1.0015964
1.0015566
1.0015082
1.0014653
1.0014711
1.0015016
1.0015257
1.0015625
1.0016056
1.0016461
1.001704
1.0017672
1.0018521
1.0019061
1.001976
1.0020334
1.0021454
1.0021777
1.0022102
1.0023122
1.002231
1.0024016
1.0023705
1.002378
1.0025313
1.0024535
1.0024234
1.0024732
1.0024566
1.002286
1.0025355
1.0024163
1.0022751
1.0023415
1.0024615
1.0024363
1.0021763
1.0022039
1.0023127
1.0021887
1.0020688
1.0019894
1.0020229
1.0021095
1.0019909
1.0014324
1.0011298
1.0009669
1.0009554
1.0009805
1.0009901
1.0009861
1.0009676
1.0009418
1.0009246
1.0009381
1.0009869
1.001073
1.0011916
1.001326
1.0014305
1.0015205
1.001577
1.00164
1.0016981
1.0017711
1.0018544
1.0019585
1.0020518
1.0021487
1.0022288
1.0022698
1.0022761
1.0022735
1.0022625
1.0022244
1.002178
1.0021323
1.0020836
1.0020478
1.0020069
1.0019726
1.0019264
1.0018821
1.0018183
1.0017495
1.0016796
1.0016105
1.0015361
1.0014916
1.0014434
1.0013898
1.0013477
1.0013337
1.0013423
1.001355
1.0013787
1.0014154
1.001443
1.0014867
1.0015503
1.001639
1.0017075
1.0017778
1.0018451
1.0019477
1.0020075
1.0020436
1.0021443
1.002101
1.002236
1.0022173
1.00225
1.0023933
1.0023416
1.0023314
1.0023542
1.0023274
1.0022743
1.0023473
1.0023455
1.0022615
1.0022149
1.0023079
1.0022675
1.0021546
1.0021202
1.0021445
1.0019992
1.0019286
1.0019261
1.0019669
1.0019687
1.0019139
1.0014006
1.0010952
1.0009053
1.0008655
1.0008746
1.0008645
1.0008439
1.0008273
1.0008042
1.00079
1.0008041
1.0008504
1.0009372
1.0010598
1.001194
1.0013091
1.0014039
1.0014675
1.00153
1.0015849
1.0016527
1.0017283
1.0018231
1.0019053
1.0019992
1.0020799
1.0021287
1.0021444
1.002153
1.0021501
1.002116
1.0020698
1.0020216
1.0019656
1.001929
1.0018793
1.0018431
1.0017998
1.0017535
1.0016957
1.001628
1.0015587
1.0014878
1.0014057
1.0013597
1.0013085
1.0012508
1.001208
1.001177
1.0011667
1.0011839
1.0011996
1.0012229
1.0012411
1.0012733
1.0013331
1.0014158
1.0014877
1.0015506
1.0016199
1.0017084
1.0017788
1.0018416
1.0019035
1.0019583
1.0020147
1.0020336
1.0021022
1.0021913
1.0021695
1.0022209
1.0021972
1.0021479
1.0022444
1.0021789
1.0021863
1.0022242
1.0021461
1.0021251
1.0020719
1.0021067
1.0020487
1.0019849
1.0018494
1.0018388
1.0018558
1.0018732
1.001795
1.0017582
1.0012951
1.0009966
1.000738
1.0006863
1.0006941
1.0006799
1.000671