/*--------------------------------*- C++ -*----------------------------------*\
| =========                 |                                                 |
| \\      /  F ield         | OpenFOAM: The Open Source CFD Toolbox           |
|  \\    /   O peration     | Version:  2406                                  |
|   \\  /    A nd           | Website:  www.openfoam.com                      |
|    \\/     M anipulation  |                                                 |
\*---------------------------------------------------------------------------*/
FoamFile
{
    version     2.0;
    format      ascii;
    arch        "LSB;label=32;scalar=64";
    class       volScalarField;
    location    "75";
    object      k_0;
}
// * * * * * * * * * * * * * * * * * * * * * * * * * * * * * * * * * * * * * //

dimensions      [0 2 -2 0 0 0 0];

internalField   nonuniform List<scalar> 
20580
(
3.1411803e-06
2.325364e-06
1.8552047e-06
1.548136e-06
1.3257742e-06
1.1589324e-06
1.0383016e-06
9.432821e-07
8.6902588e-07
8.0629716e-07
7.5441874e-07
7.0770875e-07
6.7099422e-07
6.3589362e-07
6.0882946e-07
5.8319013e-07
5.6316717e-07
5.4620838e-07
5.3302891e-07
5.2245312e-07
5.1406889e-07
5.0356296e-07
4.9631572e-07
4.9976917e-07
5.0575574e-07
5.1973482e-07
5.379515e-07
5.5470313e-07
5.7916951e-07
6.181553e-07
6.7911949e-07
3.1529116e-06
2.3752775e-06
1.8808143e-06
1.5599974e-06
1.3357257e-06
1.1679226e-06
1.0486449e-06
9.5141912e-07
8.7591256e-07
8.1206511e-07
7.6017273e-07
7.1218706e-07
6.7628945e-07
6.4008408e-07
6.1223539e-07
5.8696571e-07
5.6542871e-07
5.4846342e-07
5.3653733e-07
5.2718171e-07
5.1987721e-07
5.1464145e-07
5.0264677e-07
5.026269e-07
5.0657731e-07
5.1782322e-07
5.3984529e-07
5.585117e-07
5.8055488e-07
6.1371831e-07
6.7975799e-07
3.1538481e-06
2.4023029e-06
1.9060802e-06
1.5791789e-06
1.3493946e-06
1.1792351e-06
1.0544657e-06
9.5719724e-07
8.8209742e-07
8.1806423e-07
7.6630597e-07
7.1760154e-07
6.8101313e-07
6.4533177e-07
6.1536659e-07
5.9052663e-07
5.6827369e-07
5.5024155e-07
5.3890294e-07
5.2860081e-07
5.2008355e-07
5.1718315e-07
5.0858681e-07
5.0505261e-07
5.0672269e-07
5.1521237e-07
5.3441872e-07
5.5100644e-07
5.7473312e-07
6.012497e-07
6.7102959e-07
3.1552372e-06
2.4037138e-06
1.9185543e-06
1.593052e-06
1.3613496e-06
1.187544e-06
1.0602496e-06
9.6142169e-07
8.8775422e-07
8.226727e-07
7.7042108e-07
7.2249509e-07
6.8436799e-07
6.4954855e-07
6.1868747e-07
5.9408877e-07
5.7166901e-07
5.5237557e-07
5.4166156e-07
5.3048734e-07
5.2081695e-07
5.1836263e-07
5.1322917e-07
5.0854722e-07
5.0980658e-07
5.1689385e-07
5.3443898e-07
5.4756346e-07
5.6320988e-07
5.7714593e-07
6.2977537e-07
3.1574976e-06
2.4089064e-06
1.9337781e-06
1.620717e-06
1.3853376e-06
1.2029e-06
1.0727933e-06
9.7042017e-07
8.9398987e-07
8.2777783e-07
7.7342845e-07
7.2640109e-07
6.8692281e-07
6.5299347e-07
6.2201926e-07
5.9762371e-07
5.7597011e-07
5.5630382e-07
5.4439749e-07
5.3362868e-07
5.2312565e-07
5.2077993e-07
5.1690566e-07
5.1327605e-07
5.1592199e-07
5.2258437e-07
5.4110471e-07
5.5431872e-07
5.6858324e-07
5.7833334e-07
6.069716e-07
3.1599877e-06
2.4254277e-06
1.9431843e-06
1.6484261e-06
1.4301991e-06
1.2409981e-06
1.1041821e-06
9.9014376e-07
9.0623302e-07
8.3773894e-07
7.7989839e-07
7.3211961e-07
6.9115823e-07
6.5599568e-07
6.2550812e-07
5.9966577e-07
5.7813358e-07
5.6018366e-07
5.4714316e-07
5.3598454e-07
5.2715778e-07
5.2507493e-07
5.2053386e-07
5.1624008e-07
5.2052594e-07
5.2719719e-07
5.3861798e-07
5.6734743e-07
5.8713223e-07
6.1537879e-07
6.2653804e-07
3.1634809e-06
2.4301518e-06
1.9365663e-06
1.6459341e-06
1.4341541e-06
1.2636416e-06
1.1312168e-06
1.0255603e-06
9.3619064e-07
8.6340587e-07
7.9847302e-07
7.4642419e-07
7.016123e-07
6.6328074e-07
6.3123747e-07
6.0366933e-07
5.8026434e-07
5.6277378e-07
5.4900284e-07
5.3749366e-07
5.2965483e-07
5.2742919e-07
5.2238681e-07
5.1596856e-07
5.1925662e-07
5.2530088e-07
5.321909e-07
5.5779238e-07
5.8704064e-07
6.1968883e-07
6.5634724e-07
3.1768184e-06
2.4218225e-06
1.9260727e-06
1.619728e-06
1.4145444e-06
1.2567854e-06
1.1393992e-06
1.0501647e-06
9.7408242e-07
9.0885604e-07
8.4414758e-07
7.8558652e-07
7.3237509e-07
6.8380737e-07
6.4542681e-07
6.1319366e-07
5.8597957e-07
5.6713898e-07
5.515652e-07
5.3908721e-07
5.3124229e-07
5.2759998e-07
5.2368356e-07
5.1775183e-07
5.1856679e-07
5.2264324e-07
5.2508053e-07
5.3519578e-07
5.6393938e-07
5.9617409e-07
6.4945899e-07
3.307848e-06
2.5740361e-06
1.9822672e-06
1.6322072e-06
1.3960351e-06
1.2346231e-06
1.1325997e-06
1.0506778e-06
9.8547386e-07
9.2814616e-07
8.7131746e-07
8.2055266e-07
7.7100539e-07
7.2371301e-07
6.8282643e-07
6.4290293e-07
6.0484e-07
5.790638e-07
5.5812449e-07
5.4320136e-07
5.346816e-07
5.2834705e-07
5.2641073e-07
5.2371285e-07
5.2324668e-07
5.2633752e-07
5.2912271e-07
5.3564842e-07
5.5774989e-07
5.8158675e-07
6.169231e-07
3.7132037e-06
3.1098512e-06
2.2721611e-06
1.7481471e-06
1.4352537e-06
1.2441983e-06
1.1219089e-06
1.0334947e-06
9.6867277e-07
9.1222689e-07
8.6351719e-07
8.1769465e-07
7.76885e-07
7.3881038e-07
7.0290832e-07
6.7293218e-07
6.4037898e-07
6.1236406e-07
5.8090507e-07
5.5649964e-07
5.4450417e-07
5.3283012e-07
5.3062502e-07
5.3115502e-07
5.325044e-07
5.3711142e-07
5.4381199e-07
5.5247038e-07
5.7554094e-07
5.9577309e-07
6.2527526e-07
3.2156464e-06
2.945116e-06
2.36931e-06
1.979009e-06
1.5859738e-06
1.3181405e-06
1.1546992e-06
1.0465499e-06
9.7024088e-07
9.0545901e-07
8.50878e-07
8.0187e-07
7.6252624e-07
7.2838789e-07
6.9766988e-07
6.6998357e-07
6.4909875e-07
6.2667794e-07
6.0840827e-07
5.8626993e-07
5.7387463e-07
5.5385109e-07
5.4220358e-07
5.4149754e-07
5.4049129e-07
5.4225863e-07
5.5049278e-07
5.6511408e-07
5.8997521e-07
6.2624628e-07
6.5937288e-07
3.134441e-06
2.5424403e-06
2.2184508e-06
1.9434227e-06
1.7321375e-06
1.548016e-06
1.3636583e-06
1.2108474e-06
1.0941045e-06
9.9742543e-07
9.1595088e-07
8.4404832e-07
7.8574731e-07
7.3870235e-07
7.0029316e-07
6.6744928e-07
6.4590703e-07
6.2697873e-07
6.1039435e-07
5.9769928e-07
5.8913797e-07
5.768767e-07
5.674997e-07
5.661504e-07
5.6015544e-07
5.5283224e-07
5.564785e-07
5.674937e-07
5.8583668e-07
6.1120859e-07
6.5233569e-07
3.3296143e-06
2.7440754e-06
2.1976852e-06
1.8518266e-06
1.6779495e-06
1.5917161e-06
1.566707e-06
1.5521648e-06
1.4987687e-06
1.4203865e-06
1.3020824e-06
1.1754866e-06
1.0283525e-06
8.9506966e-07
7.9859857e-07
7.276325e-07
6.8100551e-07
6.4809049e-07
6.236008e-07
6.0942355e-07
5.9988859e-07
5.8838528e-07
5.8151513e-07
5.8385258e-07
5.7947876e-07
5.6819005e-07
5.6523407e-07
5.7395882e-07
5.8594083e-07
5.971562e-07
6.2042534e-07
3.347842e-06
2.9431142e-06
2.300013e-06
1.9007348e-06
1.6125161e-06
1.4810334e-06
1.4668163e-06
1.4765103e-06
1.4808056e-06
1.4676806e-06
1.4287576e-06
1.3729484e-06
1.3180483e-06
1.2469254e-06
1.159952e-06
1.0465337e-06
9.4206591e-07
8.4240604e-07
7.5763663e-07
7.0408347e-07
6.6970046e-07
6.4348702e-07
6.2759846e-07
6.2476988e-07
6.1958221e-07
6.0737325e-07
5.9855764e-07
6.0335149e-07
6.1150242e-07
6.2010508e-07
6.2695028e-07
3.1829435e-06
2.6067441e-06
2.189297e-06
1.8721263e-06
1.6128529e-06
1.4435098e-06
1.3386294e-06
1.2704609e-06
1.2415675e-06
1.2266971e-06
1.1994763e-06
1.1808122e-06
1.1797988e-06
1.1764912e-06
1.1610899e-06
1.1411071e-06
1.1155485e-06
1.0938085e-06
1.0646686e-06
1.0337977e-06
9.8842079e-07
9.4353298e-07
8.9229022e-07
8.5539523e-07
8.1073243e-07
7.7132667e-07
7.3661082e-07
7.2038237e-07
7.1586704e-07
7.1886295e-07
6.9660746e-07
3.161675e-06
2.4582057e-06
1.9981558e-06
1.7258503e-06
1.5249988e-06
1.3670693e-06
1.2594027e-06
1.1869518e-06
1.1445422e-06
1.0910534e-06
1.0471502e-06
1.0070267e-06
9.5543081e-07
9.4590545e-07
9.5187195e-07
9.6472045e-07
9.856689e-07
1.0172084e-06
1.0393386e-06
1.0611758e-06
1.0802813e-06
1.1073467e-06
1.1295049e-06
1.147275e-06
1.1682733e-06
1.1722249e-06
1.1597252e-06
1.1422491e-06
1.1134979e-06
1.1031226e-06
1.04966e-06
3.1681242e-06
2.4514483e-06
1.9834167e-06
1.6796673e-06
1.457788e-06
1.3000831e-06
1.1864997e-06
1.1042356e-06
1.0506444e-06
9.9851866e-07
9.5703231e-07
9.1307412e-07
8.711225e-07
8.3684126e-07
8.0867238e-07
7.9551272e-07
7.9538768e-07
8.013401e-07
8.2589047e-07
8.7034246e-07
9.1323458e-07
9.7206901e-07
1.0334603e-06
1.07909e-06
1.1264803e-06
1.1686476e-06
1.2026427e-06
1.2295353e-06
1.2442874e-06
1.2758249e-06
1.2824025e-06
3.202928e-06
2.5068761e-06
1.9898384e-06
1.6768128e-06
1.4524967e-06
1.2909119e-06
1.1683804e-06
1.0785546e-06
1.0118616e-06
9.5765849e-07
9.1247837e-07
8.6882073e-07
8.2864968e-07
7.9284849e-07
7.5884678e-07
7.3621249e-07
7.1594752e-07
7.0403848e-07
7.0640281e-07
7.1206372e-07
7.2165151e-07
7.4074266e-07
7.7889102e-07
8.1023008e-07
8.6175922e-07
9.1575778e-07
9.9286897e-07
1.0385851e-06
1.0960781e-06
1.1293172e-06
1.2004082e-06
3.3233675e-06
2.8959367e-06
2.1927186e-06
1.7849779e-06
1.5031124e-06
1.3128645e-06
1.1765216e-06
1.0805932e-06
1.0099718e-06
9.5561554e-07
9.1123054e-07
8.6843349e-07
8.2840231e-07
7.9053713e-07
7.5800544e-07
7.2983111e-07
7.0524137e-07
6.8440462e-07
6.7321963e-07
6.6360036e-07
6.5877443e-07
6.6200475e-07
6.7220751e-07
6.8051473e-07
6.9358781e-07
7.1421158e-07
7.5587312e-07
7.832276e-07
8.2186903e-07
8.4011968e-07
9.0686088e-07
3.1712703e-06
2.7418299e-06
2.2967266e-06
1.9764619e-06
1.6830316e-06
1.4570236e-06
1.2829403e-06
1.1558092e-06
1.0631221e-06
9.9677277e-07
9.4533918e-07
9.0303329e-07
8.6216862e-07
8.2533482e-07
7.9289938e-07
7.6126192e-07
7.3561185e-07
7.1299304e-07
6.9989141e-07
6.8757891e-07
6.8089005e-07
6.8213507e-07
6.897005e-07
6.9914783e-07
7.0810759e-07
7.3077612e-07
7.5750246e-07
7.8896931e-07
8.0953381e-07
8.2374888e-07
8.4578474e-07
3.0126895e-06
2.9424027e-06
2.5851015e-06
2.4305387e-06
2.2449147e-06
2.1003807e-06
1.9584025e-06
1.826565e-06
1.713571e-06
1.6158952e-06
1.5484321e-06
1.4927047e-06
1.4402946e-06
1.3901761e-06
1.3362047e-06
1.2892205e-06
1.2492634e-06
1.2153588e-06
1.2008072e-06
1.1946184e-06
1.1812254e-06
1.1788857e-06
1.1936758e-06
1.1979255e-06
1.1927869e-06
1.2036702e-06
1.2304893e-06
1.2509944e-06
1.2396316e-06
1.2166604e-06
1.1438975e-06
4.7142079e-06
1.1981512e-05
8.6580899e-06
8.445801e-06
7.8597888e-06
7.4169745e-06
7.3094372e-06
6.7117576e-06
6.8087477e-06
6.1711753e-06
6.4947792e-06
6.1687324e-06
6.2622369e-06
6.008859e-06
5.9011118e-06
5.7658896e-06
5.7987821e-06
5.7425982e-06
5.7314312e-06
5.6909512e-06
5.5826716e-06
5.4905387e-06
5.452031e-06
5.3677453e-06
5.2292429e-06
5.1227461e-06
5.0895718e-06
5.0352588e-06
4.8295624e-06
4.6147558e-06
4.1785916e-06
2.1301326e-05
9.1176313e-05
4.9319578e-05
5.5906033e-05
4.149626e-05
4.7757931e-05
3.776782e-05
4.2316714e-05
3.4905873e-05
3.820801e-05
3.2752608e-05
3.5120233e-05
3.1140158e-05
3.2288909e-05
2.9970171e-05
2.950793e-05
2.716332e-05
2.6891902e-05
2.5429401e-05
2.5037476e-05
2.3980121e-05
2.3319193e-05
2.2230324e-05
2.1103831e-05
2.0479671e-05
1.9531202e-05
1.8998608e-05
1.7819705e-05
1.6969485e-05
1.6204445e-05
1.5081426e-05
1.4317405e-05
4.3403108e-06
1.236984e-06
8.7646226e-07
9.2935596e-07
1.2053936e-06
1.3152894e-06
1.1301001e-06
7.7084575e-07
6.6804903e-07
6.5175678e-07
6.8486491e-07
6.9879936e-07
6.6941225e-07
6.4815792e-07
6.7500395e-07
7.0360782e-07
6.945102e-07
6.7204022e-07
6.7788854e-07
7.103079e-07
7.2165393e-07
7.1679507e-07
1.248439e-05
4.7105792e-06
1.3913171e-06
9.227467e-07
9.4266463e-07
1.16561e-06
1.3640799e-06
1.2966985e-06
9.1688004e-07
7.3171217e-07
6.9277884e-07
7.3591069e-07
7.634784e-07
7.3529289e-07
6.843323e-07
7.0598091e-07
7.6675451e-07
7.6822948e-07
7.315789e-07
7.2833067e-07
7.6391551e-07
8.142992e-07
8.0494106e-07
1.1181934e-05
5.1693557e-06
1.6658741e-06
1.0048624e-06
9.8129497e-07
1.161628e-06
1.3967046e-06
1.3954529e-06
1.0894585e-06
8.21007e-07
7.3910206e-07
7.7058275e-07
8.3094241e-07
8.2801354e-07
7.8144602e-07
7.7430691e-07
8.4148511e-07
8.6544414e-07
8.4012277e-07
7.9689507e-07
8.1691168e-07
8.6638065e-07
8.9318793e-07
9.5851199e-06
5.264411e-06
1.8862408e-06
1.1197764e-06
1.0610661e-06
1.1966698e-06
1.4750003e-06
1.5153835e-06
1.2964954e-06
9.6228928e-07
8.1079149e-07
8.2804341e-07
9.1116602e-07
9.3178443e-07
9.0911456e-07
8.7415963e-07
9.2151404e-07
9.596184e-07
9.4782412e-07
9.087406e-07
8.9815949e-07
9.4635504e-07
9.9322535e-07
8.2652703e-06
5.3795007e-06
2.0931044e-06
1.2456968e-06
1.159364e-06
1.2664751e-06
1.5667338e-06
1.6869294e-06
1.5305931e-06
1.1342259e-06
9.1399991e-07
8.9744669e-07
9.8433468e-07
1.009981e-06
1.001994e-06
9.4833468e-07
9.8233731e-07
1.0316835e-06
1.0300038e-06
1.0188677e-06
9.8996931e-07
1.0378068e-06
1.0738056e-06
7.3813452e-06
5.5088307e-06
2.3279173e-06
1.3754164e-06
1.2396182e-06
1.3325854e-06
1.6491151e-06
1.8298189e-06
1.7208403e-06
1.3154207e-06
1.0489015e-06
9.9086481e-07
1.0971969e-06
1.1411701e-06
1.1394764e-06
1.0867716e-06
1.0489794e-06
1.1349743e-06
1.1659593e-06
1.1868328e-06
1.1458399e-06
1.1467998e-06
1.1718449e-06
6.9645285e-06
5.5116203e-06
2.5130477e-06
1.5138193e-06
1.3442446e-06
1.4142894e-06
1.6947566e-06
2.0185551e-06
1.994315e-06
1.6603314e-06
1.3215182e-06
1.1677193e-06
1.2504424e-06
1.3426966e-06
1.3181807e-06
1.2945778e-06
1.202892e-06
1.2733481e-06
1.2967788e-06
1.301522e-06
1.3124114e-06
1.2758078e-06
1.3311551e-06
7.0481088e-06
5.4283584e-06
2.6647258e-06
1.6876107e-06
1.5227351e-06
1.6037715e-06
1.8374736e-06
2.3555802e-06
2.3771856e-06
2.0962706e-06
1.6149319e-06
1.3370283e-06
1.3813532e-06
1.4771856e-06
1.4479153e-06
1.4515479e-06
1.3996179e-06
1.425244e-06
1.5177647e-06
1.5125611e-06
1.5181445e-06
1.4511758e-06
1.4274989e-06
7.5463498e-06
5.3591133e-06
2.8213053e-06
1.8680138e-06
1.7151758e-06
1.8445482e-06
2.0828022e-06
2.6994256e-06
2.6573807e-06
2.3308038e-06
1.8146067e-06
1.4816761e-06
1.4643966e-06
1.5874578e-06
1.587688e-06
1.6114493e-06
1.5981083e-06
1.5732833e-06
1.6923543e-06
1.6933484e-06
1.6430179e-06
1.59336e-06
1.5190939e-06
8.6718551e-06
5.4214427e-06
2.9747557e-06
2.0236505e-06
1.8783971e-06
2.0431577e-06
2.2638053e-06
2.9593548e-06
3.0518175e-06
2.7500791e-06
2.2255892e-06
1.8113275e-06
1.6547634e-06
1.8562492e-06
1.9037195e-06
1.8870292e-06
1.9061306e-06
1.8297157e-06
1.9092937e-06
1.9663464e-06
1.8588136e-06
1.8512966e-06
1.7720445e-06
1.0618966e-05
5.5567132e-06
3.1084931e-06
2.2600292e-06
2.1526113e-06
2.3356716e-06
2.5234677e-06
3.4230053e-06
3.7299182e-06
3.4473009e-06
2.7832684e-06
2.3025894e-06
2.0349407e-06
2.2244651e-06
2.3216795e-06
2.2273311e-06
2.2136789e-06
2.111515e-06
2.0505294e-06
2.1623366e-06
2.159078e-06
2.1227037e-06
2.1020549e-06
1.3122273e-05
5.7708212e-06
3.2351574e-06
2.5580936e-06
2.5703815e-06
2.8783748e-06
3.0110906e-06
3.9331095e-06
4.2581874e-06
3.9614024e-06
3.2125712e-06
2.7112006e-06
2.3705985e-06
2.4979797e-06
2.657532e-06
2.5428287e-06
2.4849181e-06
2.4212689e-06
2.3235214e-06
2.4787605e-06
2.5455759e-06
2.4651466e-06
2.5210408e-06
1.589089e-05
6.2443201e-06
3.4999593e-06
2.8933468e-06
2.9554558e-06
3.2847869e-06
3.3630927e-06
4.2468506e-06
4.7861369e-06
4.5762595e-06
3.7573441e-06
3.1555209e-06
2.7277685e-06
2.7599847e-06
2.9953855e-06
2.9268445e-06
2.7572966e-06
2.7154028e-06
2.6069512e-06
2.6815369e-06
2.7902484e-06
2.7443431e-06
2.7607855e-06
1.878928e-05
7.0874291e-06
3.8533016e-06
3.2315048e-06
3.3884979e-06
3.8015788e-06
3.8644096e-06
4.9389107e-06
6.0769431e-06
5.888339e-06
4.8534365e-06
3.9839736e-06
3.3890307e-06
3.2700416e-06
3.5770483e-06
3.5462933e-06
3.2828096e-06
3.255559e-06
3.1395319e-06
3.0792904e-06
3.1914209e-06
3.1771773e-06
3.0308928e-06
2.1725867e-05
8.7809916e-06
4.6160854e-06
3.9406327e-06
4.3379648e-06
5.1180166e-06
5.2191797e-06
6.5548727e-06
8.0048895e-06
7.6761476e-06
6.1143003e-06
5.0853626e-06
4.2897353e-06
3.9819221e-06
4.304175e-06
4.3653755e-06
4.085852e-06
3.9837538e-06
3.809925e-06
3.5967374e-06
3.7752062e-06
3.7584817e-06
3.4499625e-06
2.4631145e-05
1.0419235e-05
5.4371235e-06
4.6745788e-06
5.3378583e-06
6.8025829e-06
7.0808413e-06
8.1084464e-06
9.4410627e-06
8.8378132e-06
6.8272443e-06
5.8472284e-06
4.9307305e-06
4.5592465e-06
4.9103262e-06
5.0698489e-06
4.8803157e-06
4.7642838e-06
4.8634108e-06
4.6813219e-06
4.7140906e-06
4.6039122e-06
4.1861288e-06
2.7903566e-05
1.2574948e-05
6.3872049e-06
5.257427e-06
5.7998084e-06
7.7272417e-06
8.4187526e-06
9.6729868e-06
1.0878064e-05
9.8966801e-06
7.4226774e-06
6.375179e-06
5.4290292e-06
5.0379994e-06
5.3881303e-06
5.5320062e-06
5.3579976e-06
5.1901281e-06
5.4460937e-06
5.4117859e-06
5.7146148e-06
5.7156876e-06
5.208494e-06
2.9641064e-05
1.3922012e-05
7.1522665e-06
5.7075834e-06
6.2457521e-06
9.0326783e-06
1.0611363e-05
1.2743764e-05
1.383222e-05
1.2231059e-05
8.5842962e-06
7.2258059e-06
6.2290609e-06
5.8133399e-06
6.0589936e-06
6.1242748e-06
5.8803229e-06
5.6943325e-06
6.2492323e-06
6.4956295e-06
6.936936e-06
6.9141775e-06
6.2814599e-06
3.1751614e-05
1.5482911e-05
8.0594932e-06
6.3834391e-06
7.1165461e-06
1.164434e-05
1.6415364e-05
2.0369347e-05
1.9926429e-05
1.5249816e-05
1.0113078e-05
8.8951876e-06
8.1110918e-06
7.7309336e-06
7.7894244e-06
7.696221e-06
6.981737e-06
6.4497179e-06
7.025532e-06
7.3229753e-06
7.7287714e-06
7.8691094e-06
7.0409982e-06
3.1434839e-05
1.6601813e-05
8.7954148e-06
6.9273831e-06
7.9252386e-06
1.3970695e-05
2.2620731e-05
2.6567861e-05
2.3863876e-05
1.5680346e-05
1.1235125e-05
1.0964767e-05
1.1015558e-05
1.093954e-05
1.100476e-05
9.8071661e-06
7.6284475e-06
7.0541035e-06
7.8135662e-06
8.2641998e-06
8.5774306e-06
8.2848283e-06
7.387099e-06
2.9669385e-05
1.7304143e-05
9.2783723e-06
7.2880458e-06
8.4778184e-06
1.5765037e-05
2.6787376e-05
3.066339e-05
2.5907324e-05
1.5328858e-05
1.1731183e-05
1.2279707e-05
1.3088896e-05
1.3277627e-05
1.3079453e-05
1.1214708e-05
8.5938273e-06
8.4939605e-06
9.5490952e-06
9.9471909e-06
9.8284786e-06
8.6566194e-06
7.4214634e-06
2.6858775e-05
1.7554498e-05
9.7704696e-06
7.8578801e-06
9.462488e-06
1.9182216e-05
3.4577307e-05
3.8508978e-05
2.9305722e-05
1.5454147e-05
1.2222614e-05
1.3308322e-05
1.438095e-05
1.4604469e-05
1.4520141e-05
1.1757097e-05
9.2545545e-06
1.0182226e-05
1.308867e-05
1.3967739e-05
1.2248506e-05
8.7303946e-06
7.6229739e-06
2.3789923e-05
1.7398e-05
1.062297e-05
9.3691276e-06
1.2534261e-05
2.985013e-05
5.2634548e-05
5.4812532e-05
3.2854596e-05
1.6121787e-05
1.322383e-05
1.5079388e-05
1.675866e-05
1.739883e-05
1.6303858e-05
1.2287191e-05
1.0798612e-05
1.4594717e-05
1.7768101e-05
1.6808379e-05
1.2721844e-05
9.3090819e-06
8.7781622e-06
2.1188605e-05
1.7104677e-05
1.1589937e-05
1.1311596e-05
1.6608296e-05
4.1049659e-05
6.416964e-05
6.1670973e-05
3.3178353e-05
1.7884145e-05
1.6150751e-05
2.1359926e-05
2.3184629e-05
2.1298309e-05
1.623409e-05
1.3034339e-05
1.3025205e-05
1.8229439e-05
2.0490719e-05
1.9546819e-05
1.2562323e-05
1.0293759e-05
1.1019873e-05
1.9301437e-05
1.6853063e-05
1.2238726e-05
1.2478462e-05
1.9345893e-05
4.6818365e-05
6.8178788e-05
6.5027578e-05
3.3897859e-05
2.2859228e-05
2.3544407e-05
2.9951292e-05
3.0925043e-05
2.6180087e-05
1.6766056e-05
1.4183248e-05
1.6712949e-05
2.3960383e-05
2.5199765e-05
1.8423972e-05
1.348173e-05
1.2437007e-05
1.5636407e-05
1.8210291e-05
1.6754008e-05
1.2990641e-05
1.3994395e-05
2.4026893e-05
5.7868777e-05
7.3734612e-05
6.2724092e-05
3.4492139e-05
2.6996821e-05
3.1679261e-05
4.0171684e-05
4.0245965e-05
2.5898467e-05
1.8314149e-05
1.7654296e-05
2.5929207e-05
2.9155121e-05
2.5137498e-05
1.8258703e-05
1.5577169e-05
1.8581962e-05
2.0114051e-05
1.790551e-05
1.720328e-05
1.5108347e-05
1.8329421e-05
3.6162183e-05
6.8052998e-05
7.5942432e-05
5.8989229e-05
3.5597568e-05
3.2047028e-05
3.9780758e-05
4.639742e-05
4.2578483e-05
2.7074921e-05
2.2361752e-05
2.7034836e-05
3.2181794e-05
3.1803445e-05
2.333721e-05
2.0020821e-05
2.1143194e-05
2.3723785e-05
2.1341621e-05
1.718294e-05
1.8263369e-05
1.754857e-05
2.3350179e-05
4.7565468e-05
7.3091832e-05
7.5037257e-05
5.2096529e-05
3.7270613e-05
3.6954751e-05
4.9517037e-05
5.3213666e-05
4.0153213e-05
3.1148287e-05
3.106036e-05
3.6861843e-05
3.7548704e-05
2.9160337e-05
2.4929237e-05
2.4596049e-05
2.6815672e-05
2.6642548e-05
2.5178599e-05
1.5747292e-05
1.8813172e-05
1.9190685e-05
2.7108748e-05
5.5625754e-05
7.329549e-05
7.3413545e-05
4.954606e-05
4.1140402e-05
4.9825333e-05
5.747395e-05
5.3267223e-05
4.0962943e-05
3.7186035e-05
4.2020111e-05
4.2977248e-05
3.6081758e-05
3.0566729e-05
2.9651657e-05
3.0748756e-05
3.1380184e-05
3.1679483e-05
3.6182542e-05
1.4983004e-05
1.8644272e-05
1.9988021e-05
2.9649618e-05
5.8819468e-05
7.1530127e-05
6.8108895e-05
5.3351292e-05
5.2684674e-05
5.6577158e-05
5.6565925e-05
4.8911327e-05
4.430853e-05
4.7561112e-05
4.8204688e-05
4.3073726e-05
3.7479333e-05
3.5856129e-05
3.6607305e-05
3.6348882e-05
3.7050888e-05
4.4580028e-05
4.9893572e-05
1.4461484e-05
1.8560454e-05
2.0461043e-05
3.3413171e-05
6.1646045e-05
6.9505407e-05
6.5559909e-05
5.8403911e-05
5.7755737e-05
5.6751567e-05
5.2022494e-05
4.9631772e-05
5.2168776e-05
5.3282036e-05
4.8926789e-05
4.4156748e-05
4.2464479e-05
4.2642607e-05
4.1908269e-05
4.2159968e-05
4.7931338e-05
5.3769391e-05
5.6151564e-05
1.4427009e-05
1.9288326e-05
2.2711594e-05
4.0248274e-05
6.1889021e-05
6.6153292e-05
6.1203437e-05
5.9145965e-05
5.9583366e-05
5.5998484e-05
5.0907292e-05
5.0400461e-05
5.3818414e-05
5.4309659e-05
4.7858255e-05
4.5894382e-05
4.6271671e-05
4.7987937e-05
4.8723723e-05
5.0333286e-05
5.5518993e-05
5.9938284e-05
6.3236362e-05
1.4922386e-05
2.1430304e-05
2.7421699e-05
4.658553e-05
5.9308238e-05
6.0777387e-05
6.0274821e-05
6.1517494e-05
6.1106141e-05
5.5149728e-05
5.1828427e-05
5.5549191e-05
5.857559e-05
5.3076458e-05
4.704307e-05
4.7704212e-05
5.6326247e-05
5.8646999e-05
5.6028594e-05
5.444872e-05
5.9943864e-05
7.0104474e-05
8.0648352e-05
1.4962131e-05
2.2398614e-05
2.8786459e-05
4.8289054e-05
5.7103864e-05
5.8122997e-05
5.9094395e-05
6.1223425e-05
6.0339745e-05
5.585586e-05
5.5588324e-05
5.8936645e-05
5.7717832e-05
4.9126197e-05
4.6429893e-05
5.1028508e-05
6.0158987e-05
6.1959779e-05
5.9717413e-05
6.0683812e-05
7.4553084e-05
9.7689021e-05
0.00013141593
1.466895e-05
2.264087e-05
3.0696641e-05
5.0711033e-05
5.7252346e-05
5.7367826e-05
5.9351326e-05
6.1310482e-05
5.8362955e-05
5.5001753e-05
5.641212e-05
5.8961544e-05
5.6756621e-05
5.0894099e-05
5.0533188e-05
6.0836016e-05
6.9419895e-05
7.2463706e-05
7.5044823e-05
9.2275917e-05
0.00014057494
0.0002308311
0.00040316028
1.4552006e-05
2.1977696e-05
2.969253e-05
4.9723748e-05
5.6765799e-05
5.6958551e-05
5.9850955e-05
6.1920272e-05
5.7939256e-05
5.2318266e-05
5.361755e-05
5.8994391e-05
5.9616948e-05
5.3761642e-05
5.1800885e-05
6.0864175e-05
7.1936525e-05
7.6612989e-05
8.2235482e-05
0.000110996
0.00019295334
0.00037952561
0.00070279666
1.477901e-05
2.2000953e-05
2.8932674e-05
4.6771947e-05
5.3907529e-05
5.54695e-05
5.9621488e-05
6.2097106e-05
5.8634679e-05
5.2084425e-05
5.101486e-05
5.6295858e-05
5.9216395e-05
5.5813429e-05
5.3365313e-05
6.0578487e-05
7.1789738e-05
7.7879966e-05
8.5857355e-05
0.00011656318
0.00021524852
0.00050536157
0.0014125366
1.4900629e-05
2.2675879e-05
2.8936266e-05
4.4853929e-05
5.0964282e-05
5.2366088e-05
5.7417064e-05
6.1741896e-05
6.0056227e-05
5.3684662e-05
5.0784336e-05
5.4745334e-05
5.7504614e-05
5.5366096e-05
5.3163349e-05
5.9218679e-05
6.9300398e-05
7.7573217e-05
8.9098912e-05
0.00013110596
0.0002885095
0.00083402582
0.0017121824
1.458474e-05
2.3102861e-05
2.8936585e-05
4.3593433e-05
4.9285562e-05
4.9915805e-05
5.4499328e-05
6.0096902e-05
6.0176486e-05
5.4907055e-05
5.1240628e-05
5.4178012e-05
5.6789759e-05
5.457835e-05
5.180059e-05
5.6495782e-05
6.542582e-05
7.4820608e-05
9.230996e-05
0.00017012884
0.00046446389
0.0011496222
0.0017298268
1.405909e-05
2.3005319e-05
2.8572709e-05
4.2464924e-05
4.8448553e-05
4.8982638e-05
5.2426988e-05
5.8296465e-05
5.9025419e-05
5.4571565e-05
5.0463912e-05
5.2474006e-05
5.5208989e-05
5.3763319e-05
5.0683109e-05
5.3866761e-05
6.2843389e-05
7.1752466e-05
9.1373924e-05
0.00018733129
0.00055201711
0.0012275077
0.0016135177
1.3883544e-05
2.2911813e-05
2.8075295e-05
4.0781464e-05
4.7247956e-05
4.7982713e-05
5.0659143e-05
5.6434167e-05
5.7763724e-05
5.3834343e-05
4.8523784e-05
4.9213214e-05
5.2255324e-05
5.2286894e-05
5.0050768e-05
5.1805511e-05
6.0917568e-05
6.995695e-05
8.9852245e-05
0.00018700452
0.00055280204
0.0011949197
0.0014645512
1.2869396e-05
2.27501e-05
2.7524083e-05
3.8200991e-05
4.5065201e-05
4.5881553e-05
4.7981587e-05
5.3668812e-05
5.5833902e-05
5.3370242e-05
4.7239383e-05
4.6851631e-05
4.9812595e-05
5.0720432e-05
4.9170474e-05
4.9977701e-05
5.6820698e-05
6.7070059e-05
8.5751891e-05
0.00017471077
0.00051263311
0.0010885494
0.0013423193
1.1096172e-05
2.1994938e-05
2.580488e-05
3.4248789e-05
4.1788747e-05
4.3392075e-05
4.5004436e-05
5.0108556e-05
5.3359505e-05
5.2854985e-05
4.7545608e-05
4.5699921e-05
4.7601558e-05
4.9599196e-05
4.857828e-05
4.8117657e-05
5.214635e-05
6.2165479e-05
7.5301079e-05
0.00013259466
0.00039874274
0.00094261667
0.0012320739
1.0038005e-05
1.9854776e-05
2.3989355e-05
3.0011439e-05
3.8535243e-05
4.1200145e-05
4.3091055e-05
4.7921316e-05
5.1328225e-05
5.1534627e-05
4.7984862e-05
4.4574502e-05
4.5385326e-05
4.820069e-05
4.7968077e-05
4.6891842e-05
4.8608066e-05
5.6220405e-05
6.5319688e-05
9.4958191e-05
0.00025014249
0.00070820889
0.0011280245
1.0630057e-05
1.7094185e-05
2.2481397e-05
2.5955915e-05
3.3787535e-05
3.8090508e-05
4.0786952e-05
4.6182245e-05
5.0046175e-05
5.0527066e-05
4.8458118e-05
4.4131412e-05
4.3491281e-05
4.5405257e-05
4.6653598e-05
4.5661391e-05
4.6021675e-05
5.0005751e-05
5.811101e-05
7.4097811e-05
0.00014614861
0.00041732199
0.00090971732
1.2855339e-05
1.7331632e-05
2.2442668e-05
2.3744946e-05
2.8999495e-05
3.3840065e-05
3.6968673e-05
4.2208576e-05
4.7155103e-05
4.8914196e-05
4.7974253e-05
4.4278794e-05
4.2306426e-05
4.3049385e-05
4.536031e-05
4.5001091e-05
4.4538475e-05
4.6158888e-05
5.1664795e-05
6.121782e-05
9.1862188e-05
0.00021651472
0.00055639545
1.4503457e-05
1.6828738e-05
2.3070412e-05
2.3520005e-05
2.6316911e-05
3.0725857e-05
3.3593382e-05
3.8469788e-05
4.3384993e-05
4.6105786e-05
4.6861257e-05
4.5024596e-05
4.2170278e-05
4.2186797e-05
4.3598253e-05
4.4458141e-05
4.4098252e-05
4.4483356e-05
4.6903286e-05
5.2429151e-05
6.5933421e-05
0.00011348312
0.00027168667
1.7164852e-05
1.731253e-05
2.3202914e-05
2.367052e-05
2.5588182e-05
2.9643316e-05
3.231715e-05
3.6810208e-05
4.1600247e-05
4.4369279e-05
4.5264098e-05
4.4774623e-05
4.2361841e-05
4.13089e-05
4.1785127e-05
4.3183089e-05
4.3234117e-05
4.3296022e-05
4.4123773e-05
4.6705737e-05
5.3022377e-05
7.0371122e-05
0.00013052431
2.3523575e-05
1.8525084e-05
2.3253288e-05
2.3722696e-05
2.4976307e-05
2.8398279e-05
3.0942723e-05
3.4642804e-05
3.9378017e-05
4.2722978e-05
4.39234e-05
4.3858712e-05
4.2676695e-05
4.0526294e-05
4.0474871e-05
4.1056126e-05
4.2045271e-05
4.2182515e-05
4.2602639e-05
4.3767085e-05
4.6829299e-05
5.3858305e-05
7.6464432e-05
2.4156077e-05
1.788871e-05
2.4261583e-05
2.4052676e-05
2.4573176e-05
2.7593615e-05
2.949866e-05
3.209742e-05
3.6141164e-05
3.9905298e-05
4.2372696e-05
4.300687e-05
4.2538871e-05
4.0784824e-05
3.9480599e-05
3.9688725e-05
4.0695685e-05
4.1577753e-05
4.2021942e-05
4.2499453e-05
4.3809162e-05
4.6875046e-05
5.7199149e-05
2.1336808e-05
1.6343307e-05
2.4184945e-05
2.5260787e-05
2.4709501e-05
2.6454691e-05
2.8794976e-05
3.0833816e-05
3.415622e-05
3.7470221e-05
4.0411998e-05
4.2146535e-05
4.2228537e-05
4.1241917e-05
3.9414448e-05
3.8678935e-05
3.9005402e-05
4.0010486e-05
4.1067336e-05
4.1455121e-05
4.2044208e-05
4.3455378e-05
4.882265e-05
3.2349777e-05
1.9402931e-05
2.3283401e-05
2.5662916e-05
2.5063543e-05
2.5420674e-05
2.7069914e-05
2.9047495e-05
3.1978141e-05
3.5166495e-05
3.7694698e-05
3.9710995e-05
4.0915705e-05
4.0644244e-05
3.9419017e-05
3.8061769e-05
3.7728408e-05
3.803154e-05
3.8892928e-05
4.0033148e-05
4.070604e-05
4.1523159e-05
4.4793632e-05
7.1714344e-05
3.2589769e-05
2.3772411e-05
2.5209692e-05
2.500123e-05
2.4487985e-05
2.4988914e-05
2.6481691e-05
2.922671e-05
3.2286111e-05
3.4854047e-05
3.6535524e-05
3.7733808e-05
3.8649086e-05
3.8624801e-05
3.7901203e-05
3.6933631e-05
3.6816976e-05
3.7091765e-05
3.7840104e-05
3.898413e-05
3.9669048e-05
4.2129821e-05
9.5655482e-05
3.5406527e-05
2.5362256e-05
2.533132e-05
2.5088885e-05
2.4185e-05
2.4135006e-05
2.4844473e-05
2.6715136e-05
2.9361234e-05
3.2297688e-05
3.4572448e-05
3.5886361e-05
3.6788293e-05
3.7239512e-05
3.7194055e-05
3.6649317e-05
3.6083463e-05
3.6091871e-05
3.6326514e-05
3.701461e-05
3.7638861e-05
3.9645474e-05
9.7228183e-05
3.1537603e-05
2.7508611e-05
2.7154237e-05
2.6138143e-05
2.3877513e-05
2.2979759e-05
2.3217207e-05
2.4216411e-05
2.6310891e-05
2.9125843e-05
3.199235e-05
3.4031008e-05
3.5265781e-05
3.5947357e-05
3.6277236e-05
3.6146952e-05
3.5849848e-05
3.5662779e-05
3.5641126e-05
3.5830261e-05
3.624365e-05
3.776621e-05
8.9071455e-05
2.6431858e-05
2.8203492e-05
2.8006728e-05
2.6019813e-05
2.2363874e-05
2.0322372e-05
2.0436639e-05
2.120494e-05
2.2596666e-05
2.4726656e-05
2.7470287e-05
3.0015562e-05
3.1884775e-05
3.3233014e-05
3.4165815e-05
3.4888292e-05
3.5286852e-05
3.5237949e-05
3.520557e-05
3.5315195e-05
3.5538457e-05
3.6465873e-05
7.6055024e-05
2.3441504e-05
2.7952573e-05
2.6124298e-05
2.2701109e-05
1.8401436e-05
1.7406782e-05
1.7683222e-05
1.8293537e-05
1.9167419e-05
2.0861688e-05
2.3508419e-05
2.6403146e-05
2.9004798e-05
3.1340665e-05
3.2894943e-05
3.3929075e-05
3.4623005e-05
3.5000164e-05
3.5173296e-05
3.5265869e-05
3.5327611e-05
3.5784197e-05
6.8509465e-05
2.2287575e-05
2.6512558e-05
2.2558564e-05
1.7889381e-05
1.577127e-05
1.5698066e-05
1.6201351e-05
1.6755239e-05
1.7637123e-05
1.9488644e-05
2.2254833e-05
2.5441196e-05
2.8451589e-05
3.1205349e-05
3.2965085e-05
3.401412e-05
3.4574058e-05
3.4895261e-05
3.5065105e-05
3.5071276e-05
3.5090562e-05
3.5517524e-05
6.8478885e-05
2.1569936e-05
2.3797938e-05
2.1644158e-05
1.7051673e-05
1.5154862e-05
1.5289216e-05
1.5951025e-05
1.6615836e-05
1.7642267e-05
1.9665583e-05
2.2517583e-05
2.5782546e-05
2.8929576e-05
3.1846475e-05
3.3696825e-05
3.448686e-05
3.4516734e-05
3.4418163e-05
3.4390012e-05
3.4374018e-05
3.4488607e-05
3.4796729e-05
7.1966211e-05
2.06212e-05
2.1925322e-05
2.1111831e-05
1.7795411e-05
1.5823145e-05
1.5857524e-05
1.6570707e-05
1.7608746e-05
1.9262953e-05
2.1935671e-05
2.5141201e-05
2.8455336e-05
3.1535235e-05
3.3903269e-05
3.4784283e-05
3.4761032e-05
3.3924855e-05
3.2953984e-05
3.2599434e-05
3.2694595e-05
3.3043418e-05
3.380563e-05
7.0895606e-05
1.7870502e-05