/*--------------------------------*- C++ -*----------------------------------*\
| =========                 |                                                 |
| \\      /  F ield         | OpenFOAM: The Open Source CFD Toolbox           |
|  \\    /   O peration     | Version:  2406                                  |
|   \\  /    A nd           | Website:  www.openfoam.com                      |
|    \\/     M anipulation  |                                                 |
\*---------------------------------------------------------------------------*/
FoamFile
{
    version     2.0;
    format      ascii;
    arch        "LSB;label=32;scalar=64";
    class       volScalarField;
    location    "75";
    object      omega_0;
}
// * * * * * * * * * * * * * * * * * * * * * * * * * * * * * * * * * * * * * //

dimensions      [0 0 -1 0 0 0 0];

internalField   nonuniform List<scalar> 
20580
(
3.5427007
2.6968412
2.2015629
1.8621931
1.6170964
1.4335986
1.2942461
1.1823234
1.0909419
1.015163
0.95052941
0.89618174
0.84906248
0.80886011
0.77373941
0.74297814
0.71690697
0.69390067
0.67479366
0.65896062
0.64465492
0.63104193
0.61979795
0.61323824
0.61268331
0.61524363
0.61848665
0.61952034
0.6233039
0.63258161
0.64646417
3.5518558
2.7041663
2.2065584
1.8688368
1.626263
1.4428055
1.3035099
1.1899435
1.0973299
1.0205572
0.95574329
0.90095911
0.85362289
0.81355369
0.77758829
0.74695472
0.72016762
0.69665343
0.67844881
0.66218609
0.64861934
0.63662156
0.62453721
0.61384346
0.612435
0.61413156
0.61921655
0.62419732
0.62810896
0.63725542
0.6520333
3.5520104
2.7040589
2.2060307
1.8715864
1.631745
1.4503578
1.3098179
1.1963913
1.1042547
1.0270934
0.96168515
0.90634566
0.85843761
0.81799453
0.78147855
0.75055653
0.72375836
0.69888522
0.6817462
0.66396597
0.65053202
0.63774618
0.62888053
0.61556163
0.61112508
0.6118237
0.61626648
0.62069755
0.62577179
0.63428592
0.65323408
3.5521709
2.6984058
2.2032586
1.8716582
1.6334503
1.4527602
1.3128138
1.20136
1.1098933
1.0335767
0.96768612
0.91215052
0.86399484
0.82263385
0.78631408
0.75382342
0.72820497
0.70161057
0.68529067
0.66619348
0.65316092
0.63979523
0.63139574
0.61958816
0.6123189
0.61242315
0.61575107
0.61856193
0.62029142
0.62439642
0.64196976
3.5542212
2.6917958
2.1995886
1.8724841
1.6362417
1.4551869
1.3172482
1.2058612
1.114267
1.0371456
0.97253826
0.91592729
0.8693966
0.82616717
0.79219832
0.75769216
0.73241079
0.70586801
0.68843669
0.66953629
0.65516603
0.64420525
0.63318463
0.62504761
0.61624531
0.61552526
0.61745065
0.62106566
0.62257952
0.62458418
0.63281489
3.5586789
2.6936109
2.1957953
1.872552
1.640428
1.4610349
1.3242532
1.211864
1.1201877
1.0415242
0.97717423
0.9202139
0.87332141
0.83007636
0.79535345
0.7629916
0.73534306
0.71125827
0.6912561
0.67408086
0.6576586
0.64829895
0.63607057
0.62767588
0.62040782
0.61938788
0.62009691
0.62674152
0.63207258
0.63951867
0.64195183
3.5637936
2.6933796
2.182886
1.8650209
1.6370331
1.4608111
1.3265846
1.2166431
1.127652
1.0488641
0.9839622
0.92609859
0.87819412
0.83439514
0.79830282
0.76581024
0.7381969
0.71443243
0.69447804
0.6773691
0.66210523
0.65181628
0.63895215
0.62891714
0.62112548
0.6185965
0.61818134
0.62352432
0.63228952
0.64285306
0.65367642
3.5712699
2.6943251
2.1786646
1.8434744
1.6194938
1.453225
1.3245808
1.2181832
1.1330577
1.0572537
0.99269408
0.93529824
0.88553245
0.84143061
0.80349914
0.77076364
0.74074958
0.71823457
0.69593657
0.68037409
0.66446166
0.65522759
0.64208486
0.63237581
0.62364307
0.61809156
0.61474795
0.61579202
0.62301689
0.63409359
0.65092851
3.6883297
2.7486489
2.2002292
1.8478322
1.6065654
1.4341236
1.3149956
1.2141367
1.1317862
1.0594694
0.99582878
0.94079065
0.89125744
0.84938649
0.81031724
0.77796964
0.74680011
0.72381473
0.69943165
0.68179885
0.66752367
0.65552897
0.6468013
0.63660605
0.63117652
0.62261375
0.61773941
0.61676299
0.62171616
0.62979375
0.63903432
3.8722848
3.0348171
2.3246151
1.8965081
1.6221702
1.4366222
1.3015689
1.196366
1.1138955
1.045064
0.98547328
0.93515823
0.88885937
0.84954649
0.81292232
0.78160634
0.75193173
0.72877028
0.70609905
0.68601157
0.67123904
0.65747339
0.64810374
0.6417703
0.63479297
0.63188401
0.62837079
0.62790401
0.63135002
0.63748151
0.64348988
3.690058
3.0055177
2.431462
2.0096786
1.6849421
1.4655375
1.3121513
1.1981961
1.1074208
1.0337197
0.97000486
0.91816553
0.87315307
0.83678451
0.80402278
0.77691009
0.75083209
0.72852402
0.70747775
0.68973052
0.67601721
0.66240902
0.65171835
0.6459501
0.63917708
0.63351869
0.63390345
0.63641645
0.64246129
0.65456874
0.66137073
3.6233308
2.9012287
2.4139163
2.0599988
1.7955209
1.5721718
1.3932655
1.254099
1.1468712
1.0624323
0.99023075
0.93003709
0.87803456
0.83633843
0.79929103
0.76764874
0.74249722
0.72152258
0.70266814
0.68802628
0.6758658
0.66253846
0.65301413
0.64846584
0.64295073
0.63392594
0.63197261
0.63521732
0.64021706
0.6483811
0.66006636
3.8243991
2.9256297
2.3934152
2.0396591
1.7922089
1.6264612
1.5040955
1.4016701
1.3068796
1.2155737
1.1270009
1.0440002
0.95698506
0.88599496
0.83014208
0.78567049
0.75154545
0.72446676
0.70297543
0.68596436
0.67326917
0.66062154
0.65153638
0.6486631
0.64361913
0.63488828
0.62908016
0.63107308
0.63411248
0.63638653
0.64425128
3.8038517
2.9738027
2.4119632
2.0425667
1.774814
1.5995054
1.4823155
1.3955799
1.3253327
1.2603635
1.1983208
1.1381146
1.0837331
1.0255033
0.96040133
0.89545578
0.83509734
0.77967855
0.73813936
0.70847412
0.68703733
0.67030775
0.65805921
0.65288443
0.64729939
0.64024697
0.63347058
0.63452901
0.63765518
0.64001155
0.64412532
3.6137393
2.8346612
2.3525528
2.019282
1.7655659
1.5818515
1.4458934
1.3462376
1.26667
1.2032295
1.1435915
1.0933395
1.056432
1.0176436
0.98019887
0.94586929
0.91120892
0.88004284
0.84492181
0.80999856
0.77597004
0.74616644
0.71997809
0.69870259
0.68292462
0.67084212
0.6605238
0.65589682
0.65694481
0.66041961
0.65796582
3.5882419
2.7765767
2.2851252
1.960255
1.7269195
1.5515133
1.4219317
1.3196855
1.2355017
1.1619827
1.0989807
1.0440573
0.99285787
0.95767946
0.92689909
0.90266094
0.88400395
0.86757091
0.8491602
0.83605344
0.82034844
0.81092424
0.79776322
0.79035627
0.77976395
0.77023413
0.75560564
0.74482637
0.73259391
0.7304193
0.72048768
3.6002812
2.7647659
2.2739237
1.9429214
1.7021867
1.5271458
1.3962753
1.2915985
1.2070474
1.1347073
1.0717556
1.0180211
0.96828051
0.92557648
0.88712839
0.85779106
0.82926018
0.81237719
0.8008939
0.79484834
0.78693476
0.78540579
0.78393966
0.78091662
0.77822832
0.7780846
0.77745887
0.77398952
0.77048955
0.76981332
0.76752976
3.6429104
2.7789677
2.2678427
1.9335931
1.6938793
1.5195632
1.3867071
1.2819805
1.1958126
1.1232518
1.0603603
1.0054753
0.95703057
0.91355779
0.87583684
0.84383547
0.81492678
0.78961848
0.7712215
0.75538004
0.74233045
0.73289269
0.72972183
0.72703667
0.72654061
0.73025291
0.73638809
0.73912341
0.74014173
0.7421182
0.74864933
3.7971566
2.942112
2.3408983
1.9718939
1.7093168
1.5239477
1.3857238
1.2791566
1.1929445
1.1213873
1.0601385
1.0057495
0.95800823
0.91441572
0.87692149
0.84399899
0.81529752
0.7889739
0.76853836
0.75048196
0.73417573
0.72265823
0.71519603
0.70770717
0.70102781
0.70043863
0.70367426
0.70607988
0.70554738
0.70509887
0.70939863
3.663991
2.9957089
2.4638075
2.0871867
1.7971214
1.58753
1.4299511
1.3089437
1.2125449
1.135038
1.0709154
1.0167544
0.96921549
0.92724565
0.89095135
0.85737837
0.8287541
0.80282174
0.78219909
0.76380841
0.74785167
0.73691406
0.72962274
0.72447005
0.71964954
0.72123975
0.72563654
0.7305458
0.7315844
0.73011203
0.72868564
3.6428228
3.0905104
2.5603578
2.2327346
1.9697395
1.7747357
1.6293167
1.498799
1.3949598
1.3090095
1.2423629
1.1883296
1.1382115
1.0972513
1.0579692
1.0152689
0.98371946
0.95721477
0.93640303
0.91897837
0.89975335
0.88720462
0.88128793
0.87486826
0.86817435
0.86760137
0.87227863
0.87542179
0.871881
0.8630091
0.8393435
4.3779627
5.2155957
4.2175305
3.7150133
3.4159571
3.2127898
3.0684676
2.890705
2.8099047
2.6584424
2.6038834
2.4966702
2.4453797
2.365655
2.3025895
2.2408977
2.1998612
2.1558785
2.1280358
2.1001928
2.0537065
2.0130078
1.9901042
1.9610501
1.9178205
1.8911564
1.8881092
1.881735
1.8392619
1.7827006
1.6760098
13.033669
14.170092
12.327161
11.890811
10.913128
10.612934
9.8869115
9.6386173
9.0789511
8.865484
8.4280829
8.2428335
7.9070366
7.7249989
7.4714574
7.281138
7.0557579
6.8805771
6.7062856
6.5828629
6.408936
6.2688124
6.161058
6.0435242
5.9065345
5.7670722
5.6950876
5.6255055
5.5325336
5.4099063
5.2972244
5.5410995
1.7388633
0.8614136
0.73632458
0.71459494
0.74648922
0.7709928
0.73503728
0.67507211
0.65297376
0.65244291
0.66983538
0.67530445
0.66054221
0.64902948
0.6581719
0.66986133
0.66599334
0.65702561
0.65890562
0.6665395
0.66740968
0.6592556
6.1175008
1.9126878
0.90674824
0.75323931
0.71832514
0.7367956
0.77526183
0.76663005
0.70702514
0.67040851
0.66385912
0.68370565
0.69485584
0.68305697
0.660836
0.66811793
0.6910019
0.69297701
0.6794048
0.67795992
0.68918094
0.69841984
0.69257791
6.7018449
2.187075
0.99278916
0.78445925
0.72874824
0.73793515
0.77738563
0.78272644
0.74447609
0.69438338
0.67653201
0.69282555
0.71629149
0.71357359
0.6919508
0.68958031
0.71317035
0.72087488
0.71240615
0.69656942
0.7037477
0.71729126
0.72293298
7.3595119
2.3802545
1.0805985
0.82773454
0.7554272
0.75150007
0.78876881
0.80405906
0.77962603
0.72760636
0.69578577
0.70534548
0.73832017
0.74359962
0.73454019
0.71777972
0.73423276
0.74524307
0.74158263
0.73004395
0.72709298
0.74155186
0.75356722
8.2142182
2.6211682
1.1719916
0.88173545
0.79010132
0.77326037
0.80431686
0.83324643
0.81734805
0.76533648
0.72143407
0.72454639
0.75744633
0.77047008
0.76994649
0.7496474
0.75686039
0.7709321
0.77039159
0.76744932
0.75583296
0.76952988
0.77587071
9.130658
2.9725398
1.2892687
0.95013042
0.83090133
0.79725345
0.81768631
0.8629892
0.85377115
0.80399296
0.76033897
0.75167341
0.78967969
0.80244234
0.8014336
0.78576054
0.77300419
0.79620977
0.80624941
0.81342709
0.80453115
0.80351627
0.8086935
9.9854063
3.3618157
1.4337345
1.0250618
0.87750304
0.82897921
0.83452494
0.88789106
0.89591962
0.86784684
0.82722158
0.79702959
0.82564013
0.84930745
0.84145977
0.83311092
0.80844377
0.82786889
0.83765691
0.84006998
0.84385295
0.83152752
0.84398996
10.99765
3.7393209
1.5989188
1.1360408
0.96008677
0.88904847
0.87645362
0.93364624
0.94940514
0.93037974
0.87567281
0.83039574
0.84901499
0.87958018
0.87189761
0.87389087
0.85842546
0.86431466
0.88496368
0.88331866
0.88670223
0.87501961
0.87024313
12.321467
4.3312792
1.8524034
1.2838618
1.0743635
0.98571473
0.951619
0.99638212
0.99789254
0.96489928
0.91385376
0.8644525
0.86836524
0.91099985
0.91461888
0.92142454
0.915527
0.90050303
0.92528928
0.92534261
0.91353109
0.90582701
0.88965833
13.733592
5.0005207
2.1491233
1.463846
1.2045136
1.0847802
1.016695
1.0511033
1.0524518
1.0247116
0.98932653
0.93712498
0.91195015
0.95935435
0.97062412
0.96743098
0.97217921
0.95422931
0.96815706
0.97814474
0.9565127
0.95749414
0.94393418
14.876498
5.5228625
2.456132
1.6776745
1.3713551
1.2119321
1.1165559
1.1478539
1.1459972
1.1120537
1.0646157
1.0144026
0.97607523
1.0174946
1.0376151
1.0208604
1.0221918
1.0079012
0.99519245
1.0157218
1.012634
1.0031316
1.0008881
15.652227
5.959904
2.7210205
1.8528045
1.5292325
1.3781779
1.2714118
1.2746612
1.2485026
1.1718739
1.1123018
1.0699502
1.0292348
1.0604064
1.1053704
1.0889948
1.0800266
1.0698794
1.0467006
1.0714079
1.0798008
1.0617734
1.0715897
16.490022
6.4312851
3.0167789
2.0570697
1.6907247
1.5118427
1.3902234
1.3716868
1.33734
1.2504913
1.1738486
1.1499936
1.1080062
1.1208638
1.1700717
1.1576311
1.1260365
1.1217442
1.1007113
1.1074834
1.1234172
1.116664
1.1177713
17.674318
7.1348978
3.4204975
2.3164382
1.8801548
1.6712148
1.5518492
1.5457973
1.5177623
1.4073717
1.2853388
1.257794
1.1982538
1.1858686
1.2277151
1.2230694
1.1859638
1.1830059
1.1684622
1.1623961
1.1867628
1.1877248
1.1657547
19.023227
8.2110833
3.9169409
2.6012613
2.166247
2.0188381
1.879444
1.8333486
1.7673889
1.5759721
1.3941357
1.3471965
1.2796916
1.2533959
1.3051897
1.3179287
1.2867026
1.2804625
1.2654281
1.2351279
1.2566461
1.2534725
1.2150609
20.125053
9.204689
4.4123474
2.8560921
2.3969997
2.3372664
2.1990467
2.089181
1.9598099
1.6636917
1.4573422
1.4127125
1.3557574
1.3293452
1.3873653
1.4114629
1.3842162
1.364123
1.3745488
1.3513434
1.3647745
1.3566018
1.3124422
20.763945
10.035915
4.8050369
3.031232
2.5471408
2.5498462
2.4450915
2.3079402
2.1290992
1.7519138
1.5384607
1.495561
1.4268989
1.3953963
1.4451768
1.4633991
1.4420934
1.4220936
1.4515764
1.4453482
1.4729119
1.4745156
1.4219723
20.880887
10.460738
5.0415529
3.1703286
2.7252734
2.7904436
2.8008201
2.6998778
2.445097
1.9297582
1.6523383
1.584629
1.5166997
1.4840616
1.5137534
1.527483
1.5111657
1.4842772
1.5365475
1.5534442
1.5781614
1.5716799
1.5125601
20.6176
10.704426
5.1615548
3.2829583
2.8971626
3.11325
3.3663201
3.2825465
2.8295302
2.0420197
1.7444604
1.7055506
1.6832927
1.6637607
1.6772557
1.6658657
1.5883177
1.539495
1.5948459
1.6173776
1.6340723
1.6379278
1.5701622
20.058097
10.933555
5.2569513
3.3536287
3.0021669
3.3199795
3.7400214
3.6344349
2.996471
2.0717272
1.8033268
1.8240168
1.8710745
1.873395
1.8690298
1.7854394
1.6331258
1.5890638
1.6673797
1.7081083
1.7297396
1.689176
1.596106
19.227865
10.965276
5.2981036
3.4179075
3.1013342
3.5007691
4.0058912
3.8382755
3.0437618
2.0638082
1.8254212
1.9009365
1.9918327
2.0061136
1.9778761
1.8564828
1.6806532
1.7035112
1.8500917
1.8915127
1.8436706
1.7108088
1.5928305
18.223884
10.860096
5.3050323
3.5183794
3.2877879
3.8100248
4.4653838
4.2010441
3.0638195
2.0646274
1.8553136
1.9632648
2.0655212
2.0823602
2.0682392
1.8736312
1.7100996
1.8139917
2.0146264
2.0625031
1.9800911
1.7057765
1.6110985
17.055867
10.511778
5.2555229
3.640828
3.4899246
4.1293796
4.8518359
4.4965991
3.0481988
2.0928599
1.9199435
2.0809428
2.206833
2.2427187
2.1484029
1.8882219
1.7740841
2.0138029
2.2176194
2.2162897
1.9796483
1.7439393
1.6990937
15.767325
10.066586
5.1550723
3.743854
3.6787177
4.378184
5.0308464
4.50719
2.9071876
2.1848079
2.1139607
2.432041
2.5323684
2.4524541
2.1305026
1.9240912
1.9192829
2.2347552
2.3542665
2.2921497
1.9444142
1.8107944
1.8967352
14.343937
9.434503
4.9767263
3.8217407
3.8162586
4.5699551
5.0397966
4.3557737
2.8292377
2.3624663
2.4057929
2.7120926
2.7594913
2.5698341
2.1499007
1.9961005
2.1858669
2.4803144
2.5223797
2.2244645
1.9941983
1.9416043
2.1412721
12.84202
8.6632271
4.7639135
3.9023642
3.9945426
4.6854592
4.90817
4.026815
2.7553622
2.4622715
2.6236975
2.962603
2.9846144
2.5315078
2.2256353
2.203798
2.5634859
2.682161
2.5043401
2.2114318
2.0919083
2.2569532
2.3251656
11.383793
7.9143136
4.6031884
3.9961615
4.1309769
4.6118561
4.6631673
3.6442334
2.7687354
2.6255415
2.9397059
3.1421955
3.0017277
2.5582874
2.403881
2.6114021
2.7752784
2.7177363
2.4102961
2.2773238
2.3339314
2.4475997
2.3739738
10.190184
7.3668831
4.4777133
3.9844282
4.186735
4.5012037
4.4270879
3.2885247
2.8093989
2.8256253
3.1598304
3.2215398
2.8944735
2.667016
2.6901431
2.8578159
2.8647155
2.622002
2.4607481
2.4470564
2.5480311
2.5617082
2.5055201
9.3682821
6.8480809
4.3671874
3.9603691
4.1535907
4.3809348
4.0236911
3.0939519
2.8845044
3.0910834
3.2527623
3.2042458
2.905925
2.8192587
2.942604
2.9643479
2.8256748
2.6613574
2.6347913
2.6717825
2.695087
2.6974623
2.7812144
8.6958406
6.4219422
4.2999461
3.9417784
4.0714663
4.0999422
3.6169668
3.1201811
3.0760678
3.1618108
3.2019998
3.0664104
2.966899
3.0250986
3.0366345
2.9684089
2.8471837
2.7977943
2.8192944
2.8061619
2.8156068
2.9584043
3.2457189
7.9290916
5.9245596
4.0928312
3.8413541
3.9140299
3.8949359
3.3718785
3.134498
3.1130241
3.1183127
3.0694479
3.0443102
3.0932806
3.1084328
3.0426377
2.9903525
2.9716543
2.9984656
2.9455489
2.9170354
3.0074247
3.2876349
3.4755345
7.0877838
5.4695371
3.9190674
3.7596981
3.7868279
3.5844974
3.1684237
3.0915069
3.0952214
3.066855
3.0075243
3.017885
3.0941224
3.1014142
3.0201178
3.0087375
3.0460174
3.0545367
3.0052024
2.9934317
3.1598051
3.4812092
3.6903824
6.2706593
5.0917007
3.7902323
3.5936256
3.4996418
3.2652828
3.0877875
3.0820346
3.0932873
3.0164959
2.9710225
3.0717817
3.1292941
3.0604943
2.9570853
2.9919242
3.1654693
3.1879558
3.1410424
3.1332477
3.424202
3.8547809
4.1999941
5.6541917
4.9002904
3.6790415
3.4491712
3.3334283
3.075976
3.0042135
3.0346976
3.029558
2.9741285
2.9914871
3.0862591
3.0853867
2.932126
2.8851124
3.0091813
3.1997958
3.2383854
3.2151889
3.3280383
3.8086699
4.3908227
5.0567958
5.2048649
4.5449517
3.5286847
3.3448914
3.156229
2.9490326
2.935296
2.9903263
2.9517419
2.9092321
2.9716044
3.0577344
3.0328078
2.9170638
2.8983406
3.097542
3.3116985
3.4126995
3.5528507
4.0112007
4.7936119
5.5612636
6.2880144
4.9843466
4.3751594
3.4459456
3.2600243
3.0835102
2.8751625
2.8849254
2.9440664
2.8911393
2.7989994
2.8476952
3.0079119
3.0357547
2.9292649
2.8795842
3.0572707
3.2937021
3.3794998
3.5006684
3.9352645
4.6806343
5.4971458
6.4919305
4.9516666
4.2464312
3.3575814
3.147448
2.9711369
2.8032457
2.830921
2.8867801
2.8541139
2.7484507
2.7373319
2.8866487
2.9847542
2.9336689
2.8708658
2.9921652
3.2006506
3.3221142
3.4489423
3.8641973
4.5914892
5.5089026
6.345834
4.9191611
4.147611
3.2723395
3.046594
2.8630002
2.6978565
2.7365429
2.8189625
2.8194502
2.7326676
2.6917919
2.7979906
2.8813939
2.8749553
2.8199534
2.9143761
3.0815077
3.2097969
3.3756494
3.8414303
4.6464936
5.4794722
5.9067106
4.9620769
4.0592171
3.2014866
2.9638823
2.7904488
2.6053149
2.6258231
2.7307873
2.7674466
2.7064711
2.6552282
2.7378682
2.8124573
2.8019808
2.7373399
2.7918676
2.9386086
3.0878207
3.2909787
3.8343254
4.7303119
5.3469805
5.4341217
5.0171361
3.9725885
3.1338667
2.8961703
2.738325
2.5507607
2.5504426
2.6445455
2.6935633
2.6419719
2.5796692
2.6472406
2.738795
2.727965
2.6627466
2.685211
2.8340788
2.9846575
3.189904
3.7759038
4.6845995
5.0224296
4.9625184
4.9903871
3.9184499
3.0669806
2.8116358
2.6651526
2.4899583
2.4810224
2.5594362
2.6094618
2.5717133
2.4857744
2.5169003
2.6195926
2.6457966
2.6074904
2.6220501
2.7495678
2.8872222
3.0867347
3.6831283
4.5073651
4.6791827
4.5473335
4.8946203
3.8959876
3.031908
2.7309355
2.5861375
2.4060786
2.3848057
2.4504753
2.5178503
2.5046591
2.4192829
2.4199546
2.5046004
2.5606332
2.5471237
2.5433372
2.6344031
2.7909023
2.9785064
3.4965899
4.2476328
4.3944947
4.2544746
4.8574207
3.8752567
3.0312695
2.6635634
2.5107409
2.3300978
2.2879138
2.331379
2.4185346
2.4331115
2.370811
2.3521063
2.4039223
2.4887475
2.4928639
2.4744256
2.5253393
2.681821
2.8216214
3.1803684
3.9457967
4.159011
4.0476264
4.8913084
3.7679382
3.0483084
2.6337992
2.4663961
2.2909434
2.228353
2.2472115
2.32247
2.3515345
2.3227871
2.279239
2.3021194
2.3950481
2.4214992
2.4037027
2.4234824
2.5359617
2.6627527
2.8978152
3.5245871
3.9940579
3.9173838
4.909537
3.720755
3.0885987
2.6239618
2.4383882
2.2666367
2.1856023
2.1905104
2.2408992
2.2819639
2.2712798
2.2194607
2.2180967
2.2713391
2.3393706
2.3359851
2.3402696
2.4006141
2.5455164
2.6841269
3.0510427
3.7819682
3.8332554
4.964842
3.7206175
3.1223507
2.6106531
2.3810757
2.2152244
2.1227774
2.1158721
2.1410403
2.1936643
2.2031259
2.1777809
2.1545097
2.1768589
2.258935
2.2690425
2.2738815
2.3045752
2.4054221
2.5276381
2.7282805
3.2716468
3.6656741
5.0619842
3.5740811
3.1413175
2.6116769
2.3315616
2.1572726
2.055307
2.0401186
2.0509671
2.0935877
2.1199364
2.1168745
2.0975407
2.1062188
2.1507244
2.216461
2.2165265
2.2279456
2.2762
2.3892098
2.4974449
2.7517257
3.2576045
5.2039197
3.5855346
3.1354821
2.6123321
2.3104561
2.1305873
2.01752
1.9870644
1.9904434
2.0115089
2.0466236
2.0549037
2.0486034
2.0461777
2.0639896
2.119851
2.1591317
2.1624315
2.1831238
2.2431704
2.3514989
2.470368
2.8068697
5.4359145
3.5243487
3.021427
2.5507821
2.2585877
2.095137
1.9862789
1.9380765
1.9315819
1.9391911
1.9645316
1.9865284
1.9867298
1.9820515
1.9866609
2.0117125
2.0674441
2.0969922
2.1076471
2.1367793
2.2170768
2.2920216
2.5109821
5.4735529
3.0988469
2.7738569
2.3767218
2.1106721
2.002497
1.9218797
1.878997
1.8655169
1.8672464
1.8822043
1.9089208
1.9179214
1.915601
1.9161781
1.9252057
1.95577
2.015846
2.0504212
2.0658422
2.1075616
2.1591836
2.3188515
5.3671002
2.9462396
2.6946551
2.3432236
2.0406136
1.8861025
1.8233982
1.8017631
1.7985091
1.8006425
1.8125989
1.8426785
1.8638403
1.8705891
1.8682856
1.8699446
1.882052
1.9152297
1.9739073
2.0027621
2.0335966
2.0668859
2.1805426
5.7035801
3.3720919
2.7274752
2.3878754
2.0506543
1.8537351
1.7452349
1.7103079
1.7064549
1.7119206
1.7251596
1.754519
1.7833073
1.8026261
1.8114864
1.8091099
1.8104578
1.8225344
1.855287
1.9003344
1.9414793
1.9677003
2.0546414
6.8114799
3.8329827
2.7806827
2.4549205
2.1201244
1.8654841
1.7171483
1.6468716
1.6246525
1.6219541
1.6271154
1.6408582
1.6649171
1.6893016
1.7134985
1.7290624
1.7340978
1.7402984
1.7559666
1.7842924
1.8365768
1.862651
1.9394844
7.4430153
3.7453742
2.7471114
2.4489913
2.1880476
1.9062105
1.7115308
1.6178286
1.5750909
1.5571768
1.5552776
1.5589283
1.5710309
1.5925233
1.620814
1.6502703
1.6714468
1.6817159
1.6957876
1.7117296
1.7497788
1.774847
1.8456028
7.5444074
3.1042273
2.5424235
2.4002263
2.1886216
1.9043888
1.6959234
1.5807813
1.5224826
1.4992281
1.4999292
1.5029098
1.5113075
1.5249462
1.5428881
1.5641004
1.5901591
1.6067386
1.6209692
1.6300317
1.6539406
1.6732352
1.7343199
7.4084422
2.3658066
2.1686787
2.2711715
2.1392589
1.86276
1.6564323
1.5418129
1.4769091
1.4423681
1.4349886
1.4371472
1.4407468
1.4454188
1.4526833
1.4620762
1.4808274
1.4964165
1.5136874
1.5218681
1.5414494
1.5550757
1.6047073
7.1352046
1.9895912
1.8382724
1.9391617
1.9344454
1.7304274
1.5736553
1.4965529
1.4416684
1.4029227
1.3786937
1.3697931
1.3690118
1.3710095
1.3817412
1.3881583
1.4025249
1.4167234
1.4395359
1.4507596
1.4700749
1.4800638
1.515584
6.9778713
1.9465595
1.5901133
1.580988
1.5310595
1.4541559
1.4126051
1.396079
1.3702613
1.348269
1.3356358
1.3276688
1.3273301
1.33471
1.3524564
1.359616
1.3704202
1.3797748
1.3961674
1.4050442
1.4199766
1.428049
1.4554226
7.0045817
2.1111342
1.4694375
1.3632679
1.2677753
1.2131081
1.2096878
1.2213596
1.2299668
1.2415334
1.2565503
1.2740378
1.2882503
1.3031977
1.3199207
1.3251696
1.3261384
1.3168669
1.3083576
1.3079852
1.3124601
1.3194201
1.3504712
7.1176191
2.2887537
1.4471385
1.2761068
1.164185
1.0994756
1.081104
1.0860193
1.0975004
1.1172143
1.1427765
1.1703228
1.199375
1.2216132
1.230422
1.2270531
1.2066748
1.165075
1.1453016
1.1404733
1.1455851
1.1571248
1.2040193
7.1230075
2.2839878
1.4361061
1.2519273
1.1459662
1.0804877
1.0486514
1.0376255
1.0390461
1.0463214
1.0613273
1.0793092
1.0951638
1.1049013
1.1055462
1.0985722
1.0759865
1.0466079
1.0338266
1.0305481
1.0350215
1.044499
1.0830306
7.0642957
2.2065962
1.3847747
1.2217523
1.1384428
1.0849692
1.0515911
1.0369349
1.0346118
1.0376837
1.0450156
1.0546592
1.0611964
1.0627456
1.0610076
1.0526912
1.0352259
1.0160319
1.0071191
1.0053132
1.0086923
1.0146038
1.032277
7.0138303
2.1984901
1.3141619
1.1562005
1.1202815
1.0969929
1.0728927
1.0625507
1.0623829
1.0653576
1.0695557
1.0743054
1.0761606
1.0746303
1.070796
1.0608844
1.0468667
1.0314031
1.0242595
1.0216304
1.024576
1.0276673
1.0345843
6.9934394
2.2825328
1.3256756
1.1578446
1.1323853
1.130486
1.1365586
1.1568061
1.1626314
1.1606994
1.1539284
1.1451424
1.1354604
1.1234068
1.1120635
1.097421
1.0846658
1.0701577
1.0609928
1.0506044
1.0474102
1.0394796
1.0553715
6.9998973
2.3733666
1.4269343
1.2587554
1.265332
1.2802477
1.2776085
1.2362864
1.1987386
1.1728283
1.1530386
1.1349869
1.1185518
1.1015831
1.0865363
1.0700009
1.0558922
1.0397739
1.0287417
1.0143122
1.0070673
0.98867088
1.004209
7.0638397
2.5628359
1.7709058
1.6207448
1.5912879
1.4713848
1.3327485
1.2255452
1.1418966
1.0718488
1.0140994
0.96914098
0.93522686
0.90897513
0.88891278
0.87181873
0.85801197
0.84372005
0.83395292
0.81970451
0.81131719
0.79179272
0.80268088
7.0540195
3.6284196
2.8099858
2.3903331
1.9752682
1.5973378
1.3134517
1.1118769
0.95892127
0.8525847
0.782362
0.73596447
0.70539737
0.68521877
0.67186049
0.66382748
0.66007725
0.65815229
0.65765577
0.65655155
0.65561555
0.65226165
0.66503726
7.2812098
5.2058877
3.8188611
2.9938917
2.2536419
1.6714504
1.2637942
0.99027675
0.81668126
0.71294215
0.65166706
0.61542149
0.59375063
0.58237057
0.57748262
0.57656975
0.57672762
0.57666287
0.57603483
0.57475374
0.57452941
0.57315433
0.58243101
8.235388
5.3935582
3.8252525
2.8886404
2.0866214
1.4879116
1.0705829
0.83062267
0.70039378
0.62692681
0.58458975
0.56106741
0.54891185
0.54247874
0.53737369
0.53117859
0.52542703
0.52054782
0.51838423
0.51748554
0.51771565
0.518051
0.52562779
9.8212786
4.9217095
3.0596278
2.0601567
1.4162971
1.0323414
0.81391125
0.68972542
0.61752286
0.57508961
0.55090767
0.53735641
0.52643928
0.51401278
0.5006884
0.49034905
0.48549363
0.48403732
0.48433385
0.48651709
0.48986905
0.49680753
0.51049179
10.555871
4.2903402
2.2851261
1.4233547
1.0066638
0.79175469
0.67472789
0.6082089
0.56834279
0.54484601
0.52999978
0.51448329
0.49639191
0.47976581
0.47102444
0.46786336
0.46810612
0.46962359
0.47479143
0.4788905
0.48588848
0.50034021
0.50629632
10.943272
4.1414694
1.9403986
1.1515533
0.83285163
0.68396425
0.60706254
0.56436026
0.53941311
0.52306694
0.50428307
0.48349849
0.46801955
0.46106705
0.46011392
0.46095061
0.46484803
0.46805875
0.47486097
0.47960254
0.49287396
0.50327285
0.5033455
11.193241
4.0170342
1.7314594
1.0110676
0.7468105
0.63028213
0.57219664
0.53975105
0.52030377
0.50082216
0.47876183
0.4633415
0.45653772
0.45605459
0.45737323
0.46035952
0.46524915
0.46907143
0.47698089
0.48354122
0.50055369
0.50328795
0.50902086
11.344757
3.8690474
1.575593
0.92199988
0.69710981
0.60128448
0.55375116
0.52607496
0.50644012
0.48426159
0.46706808
0.45723035
0.45449621
0.45525731
0.45768341
0.46088267
0.46575433
0.47079806
0.4801552
0.48905381
0.50449793
0.50569948
0.53524348
11.411774
3.6929596
1.4532901
0.86207323
0.66739374
0.58612217
0.54517162
0.5195179
0.49872143
0.47902677
0.46579569
0.45754197
0.45566971
0.45647433
0.4591235
0.46216027
0.46748387
0.4732863
0.48370093
0.49400039
0.50750539
0.51005265
0.55972252
11.404237
3.5300282
1.3621746
0.82328023
0.65128309
0.58006284
0.54295861
0.51778082
0.49738661
0.48108332
0.46914121
0.46120402
0.45895735
0.45912367
0.4609593
0.46368678
0.46938764
0.47593491
0.48724866
0.4970101
0.50954756
0.51613246
0.56884162
11.327645
3.351619
1.2905964
0.79767713
0.64329307
0.57947774
0.54499846
0.52030855
0.50082512
0.48592367
0.47435591
0.46634127
0.46292174
0.46205375
0.46248145
0.46463433
0.46962797
0.47672058
0.48735789
0.4975599
0.51059393
0.52085489
0.55595499
11.190861
3.1467773
1.2304358
0.78024759
0.64062557
0.58238269
0.55065676
0.52698507
0.50729674
0.4909139
0.47907421
0.47153865
0.46722701
0.46475995
0.46400784
0.46510493
0.46930379
0.47605105
0.48568458
0.49652641
0.50812225
0.51969041
0.54327707
11.003903
2.9249377
1.1776167
0.76887644
0.64194771
0.58890885
0.55873643
0.5352654
0.51487199
0.49695322
0.4839959
0.4762147
0.4711821
0.46757804
0.46536379
0.46556806
0.46843979
0.47374648
0.48164544
0.49186687
0.50312065
0.51510917
0.53223839
10.789566
2.6971449
1.1325075
0.76362085
0.64687098
0.59744416
0.56847621
0.54531114
0.52435999
0.50462991
0.4894518
0.47987392
0.47441262
0.47130639
0.4669656
0.46571073
0.46638693
0.46988274
0.47652944
0.48542747
0.49540732
0.5061433
0.52002164
10.540879
2.4371733
1.0855534
0.76078878
0.65463229
0.60845184
0.58037603
0.55706411
0.53476867
0.51392203
0.49669701
0.48475915
0.47782966
0.47404516
0.46965831
0.46549615
0.46487853
0.46590191
0.46960395
0.47641387
0.48531973
0.49551275
0.50559207
10.286878
2.1734869
1.046509
0.76088263
0.66308047
0.61947827
0.59236571
0.56936537
0.54685073
0.52476897
0.50496073
0.49047554
0.48088505
0.47606505
0.47283409
0.46744477
0.4632509
0.46217369
0.46320799
0.46704251
0.47281621
0.48198073
0.49112423
10.018969
1.9693925
1.0213632
0.76361341
0.67095848
0.62933509
0.60429169
0.58238324
0.55994712
0.53671957
0.51508923
0.49820179
0.4860417
0.47872797
0.47393685
0.46972683
0.46386479
0.45957174
0.45837776
0.45891211
0.46100599
0.46704205
0.4747223
9.7502251
1.8965191
1.0132043
0.76877487
0.67956202
0.63902695
0.61421746
0.59322448
0.57209783
0.55013697
0.52707201
0.50699104
0.4915241
0.48158631
0.4757765
0.47069832
0.46554443
0.45953192
0.45437463
0.45252188
0.452424
0.45343066
0.45574592
9.4773365
1.8751844
1.0114365
0.773642
0.68615777
0.64649382
0.62296968
0.60358849
0.58363813
0.56254535
0.53943106
0.5180125
0.49931274
0.48533914
0.47697814
0.47065492
0.46534124
0.45974402
0.45363059
0.447487
0.44434561
0.44381283
0.44438338
9.2160992
1.8505961
1.0110403
0.78018009
0.69441674
0.65509195
0.632377
0.61402566
0.59489018
0.57624756
0.55503253
0.53334645
0.51231917
0.49345207
0.48036876
0.4717559
0.46502375
0.45851212
0.4518228
0.44504576
0.43980471
0.43725055
0.43630127
8.9828104
1.8297388
1.0106211
0.78517127
0.70118708
0.66276554
0.64050453
0.62284945
0.60626627
0.59037599
0.57155355
0.55065074
0.52934632
0.50822135
0.48928923
0.47558324
0.46661751
0.45912783
0.45143857
0.44420722
0.43771599
0.4327056
0.42702982
8.8247536
1.8260516
1.0142628
0.79380037
0.71110373
0.67201661
0.64854875
0.63191416
0.61652877
0.601582
0.58512283
0.56747817
0.54870393
0.52732036
0.50679308
0.48824902
0.47307004
0.46254743
0.45328908
0.44566806
0.43751349
0.42943835
0.42200365
8.6068585
1.8298549
1.0215698
0.80054535
0.71780062
0.67948246
0.65617419
0.64051731
0.62445731
0.60895562
0.59507286
0.57995542
0.56328743
0.54306183
0.52453521
0.50760923
0.48991363
0.47411322
0.46033436
0.45072097
0.44029387
0.43071668
0.42375904
8.4454234
1.8238693
1.0280105
0.80893718
0.72575516
0.68742443
0.66474587
0.64982623
0.63198816
0.61416504
0.59970358
0.58526242
0.57050427
0.55211525
0.53552316
0.52065438
0.50456558
0.49043025
0.47725369
0.46488152
0.45099222
0.43974298
0.42810054
8.3024131
1.8005673
1.0349495
0.82409916
0.74382095
0.70543755
0.68014113
0.66145559
0.64105452
0.62182693
0.60590955
0.58971478
0.5749372
0.55768677
0.54233754
0.52858745
0.51379932
0.50116311
0.48699258
0.47325117
0.45856448
0.44606924
0.43627176
8.1395869
1.7910922
1.0484436
0.84854691
0.77480983
0.73754578
0.70737326
0.68265528
0.65773563
0.6369186
0.61859703
0.59960918
0.5832236
0.5655978
0.55070437
0.53688945
0.52200766
0.50989265
0.49734441
0.48632451