/*--------------------------------*- C++ -*----------------------------------*\
| =========                 |                                                 |
| \\      /  F ield         | OpenFOAM: The Open Source CFD Toolbox           |
|  \\    /   O peration     | Version:  2406                                  |
|   \\  /    A nd           | Website:  www.openfoam.com                      |
|    \\/     M anipulation  |                                                 |
\*---------------------------------------------------------------------------*/
FoamFile
{
    version     2.0;
    format      ascii;
    arch        "LSB;label=32;scalar=64";
    class       surfaceScalarField;
    location    "75";
    object      phi;
}
// * * * * * * * * * * * * * * * * * * * * * * * * * * * * * * * * * * * * * //

dimensions      [1 0 -1 0 0 0 0];

oriented        oriented;

internalField   nonuniform List<scalar> 
40800
(
0.00080845412
0.000925761
-0.0010348779
0.00090453434
0.0010230031
-0.0010214649
0.00096883094
0.00095465253
-0.0011046068
0.0010241072
0.00093560961
-0.001005943
0.001071176
0.00093442358
-0.0010312315
0.0011150917
0.00080819428
-0.0008862499
0.0011548787
0.00077181617
-0.00080000072
0.0011791857
0.00072602863
-0.00081917334
0.00122119
0.00069545075
-0.00065989049
0.0012469289
0.00062652791
-0.00070863187
0.00128661
0.00060449454
-0.00061356485
0.0013310204
0.00060725666
-0.00064292435
0.0013588536
0.00062354892
-0.00070487155
0.0014045893
0.0006015547
-0.00064718877
0.0014550955
0.00068563833
-0.00070508133
0.0014877867
0.00072007676
-0.00077372906
0.0015401859
0.00069181954
-0.00073172204
0.0016316946
0.00087189221
-0.00090767609
0.0015940299
0.00088227409
-0.00097951732
0.0016672987
0.00072934994
-0.00074738933
0.0018050525
0.0010336556
-0.0010300835
0.0018075057
0.0011582754
-0.0012108975
0.0018325561
0.0010060758
-0.0010666555
0.0019699003
0.0011213875
-0.0011351432
0.0021935376
0.0014146174
-0.0014710551
0.0021793852
0.0015682714
-0.0017039279
0.0022195905
0.0014865726
-0.0016374537
0.0023584845
0.001305611
-0.0014522077
0.0023450943
0.0014283142
-0.0015399294
0.0025047222
0.0017538997
-0.0017552144
0.0018576161
0.0030215659
-0.0019194091
0.00080403966
0.00082496498
0.00090346015
0.0010097111
0.00097096324
0.00085177532
0.0010284651
0.00086340538
0.0010734115
0.00081666116
0.0011166538
0.0007446681
0.0011538459
0.00075433598
0.00117911
0.0006377937
0.001218576
0.00071444826
0.0012441354
0.00055597582
0.0012837611
0.0005761685
0.0013260649
0.00059455621
0.0013502139
0.00053882465
0.0014029644
0.00057164239
0.0014486533
0.00065953209
0.0014734785
0.00066452319
0.0015412819
0.00067559264
0.0016153516
0.00083590598
0.0015597026
0.00076977987
0.0016881071
0.000760008
0.001802479
0.0010293643
0.0017626561
0.0010651093
0.0018259495
0.00096400346
0.0019811889
0.0011246399
0.0021793967
0.001300533
0.0021255053
0.0013267532
0.0021266674
0.0012993481
0.0023715641
0.00123192
0.0024663523
0.0013398279
0.0024675231
0.0016983733
0.0018766907
0.0027476649
0.00080038513
0.00074035254
0.00089864033
0.00097652014
0.0009681383
0.00081534623
0.0010280021
0.00081658905
0.0010738214
0.00070021148
0.0011196521
0.00069608234
0.0011533925
0.00071205596
0.0011830998
0.00057628259
0.0012153259
0.00068113487
0.0012434719
0.00052433749
0.0012820084
0.00053640756
0.0013188154
0.00056789701
0.001346221
0.00049527105
0.0014022366
0.00056966361
0.0014400177
0.00062028708
0.0014629256
0.00060268482
0.0015419153
0.00067388042
0.0015917977
0.00078837507
0.0015435625
0.00064961578
0.0017054645
0.00078780565
0.0017874355
0.0010110533
0.0017242602
0.00094672033
0.0018263054
0.00090484475
0.0019652236
0.0011196571
0.002118413
0.0011877077
0.0020631273
0.0010732054
0.0020405998
0.0010967145
0.002352978
0.0012113269
0.0025968489
0.0012964334
0.0025457949
0.0015273789
0.001764316
0.0025396778
0.00079587006
0.00067486788
0.00089029429
0.00091701358
0.00096153937
0.00083253536
0.0010224526
0.00079769354
0.0010718713
0.00062290632
0.0011189051
0.00067449356
0.0011501403
0.00064767146
0.0011861887
0.00055911732
0.0012112418
0.00059491281
0.0012432446
0.00052954705
0.0012807448
0.00049693849
0.0013115863
0.0005277956
0.001345789
0.00046855982
0.0013992549
0.00056133121
0.0014289059
0.00056923871
0.0014568846
0.00052446887
0.001539787
0.00066267057
0.0015622411
0.0007212365
0.0015434238
0.00055845926
0.0017143278
0.00080035963
0.0017580292
0.00094735994
0.0016927487
0.00080939017
0.0018382474
0.0008405918
0.0019410885
0.0010919439
0.0020351121
0.0011036327
0.0020175456
0.00088606709
0.0020031672
0.00094920624
0.0022934993
0.0012184866
0.0026262883
0.0012999554
0.0026233859
0.0013190341
0.0014780139
0.0024653748
0.00079209359
0.00061806665
0.00088180247
0.00080287215
0.00095334493
0.00084614339
0.0010146077
0.00076940387
0.0010683351
0.00060870632
0.0011150419
0.00067273185
0.0011470057
0.00058197098
0.0011854091
0.00057624315
0.0012075346
0.00048788524
0.0012412399
0.00052921927
0.001279346
0.00047688243
0.0013051823
0.00047097483
0.0013464217
0.00045278394
0.0013936943
0.00054228365
0.0014162224
0.00053373344
0.0014560454
0.00048201144
0.001532585
0.00063557024
0.0015326446
0.00065394994
0.0015538407
0.00049729203
0.0017077532
0.00078884662
0.0017178612
0.00083649336
0.0016699457
0.0006826512
0.0018559091
0.00076754321
0.0019201048
0.0010161129
0.0019469298
0.0010406094
0.0020013936
0.00080334045
0.0020331171
0.00088678602
0.0022287987
0.0012246412
0.0025466073
0.0013273135
0.0026193901
0.00113602
0.0011307339
0.0024651588
0.00079002285
0.00056164417
0.00087486594
0.00063128914
0.00094368676
0.00080939117
0.0010038625
0.00071602711
0.0010615148
0.00062724762
0.0011058934
0.00065163206
0.001141653
0.00052477862
0.0011782302
0.00059052549
0.001203693
0.00041270419
0.0012366282
0.00048376738
0.0012750068
0.00047880006
0.0012994846
0.00041475059
0.001345918
0.00044486765
0.0013872127
0.00050571636
0.0014054578
0.00049750761
0.0014583548
0.00046498795
0.0015243078
0.00060219475
0.0015053045
0.00058003353
0.0015699752
0.00046594488
0.0016902375
0.00076852741
0.0016780906
0.00073498864
0.0016530139
0.00057688153
0.0018677972
0.00072266031
0.0019056412
0.00091259295
0.0018741453
0.00095754417
0.0020003874
0.00080689885
0.002109823
0.00088104683
0.0022023387
0.0012017481
0.0023849983
0.0013264172
0.0025157009
0.0010193768
0.00083145397
0.0024828719
0.00079121983
0.00050626818
0.00086928738
0.00045767588
0.00093184817
0.00072808781
0.00098920044
0.00064610299
0.0010485915
0.00063385902
0.0010910226
0.00058548598
0.0011325797
0.00049318108
0.0011644101
0.00056805281
0.0011961439
0.00040180827
0.0012283288
0.00041573569
0.0012654931
0.00046005956
0.0012937213
0.0003887885
0.0013413166
0.00042432599
0.0013787782
0.00047102208
0.0013958906
0.00045481689
0.0014596734
0.00047041301
0.0015115846
0.00055155
0.001482393
0.00049063665
0.0015902026
0.00047800612
0.0016656874
0.00072557493
0.001639702
0.00061924118
0.0016496812
0.00052676978
0.0018676678
0.0007387687
0.0018905707
0.00081596404
0.0018175242
0.00082812443
0.0019978639
0.00083193142
0.002190475
0.00089269017
0.0022293744
0.0011124762
0.0022388673
0.0012330778
0.002344228
0.00099029728
0.00068216593
0.0024629886
0.00079863146
0.00044538256
0.00087136523
0.00032461455
0.00092607948
0.00062817284
0.00097755031
0.00055872827
0.0010333751
0.00059874811
0.00107331
0.0004803301
0.0011188476
0.00048215692
0.0011458186
0.00049202023
0.0011816399
0.00043539336
0.0012140255
0.00036625467
0.0012491103
0.0004005329
0.0012826583
0.00037438232
0.0013307295
0.00039657173
0.0013657845
0.00043120888
0.0013854115
0.00040245324
0.0014516737
0.00045546815
0.0014911684
0.00049558977
0.0014687701
0.0004122837
0.0016043715
0.00051036155
0.0016326824
0.00066946502
0.0016109922
0.0004977881
0.0016611343
0.00051441687
0.0018451454
0.00078727853
0.0018686485
0.00072460885
0.0017887849
0.00067685215
0.0019690709
0.00083067086
0.0022128332
0.00090086423
0.0022400896
0.00094542436
0.0021467496
0.001010022
0.0021948007
0.00094918238
0.00074261539
0.0024047095
0.00082108599
0.00038092362
0.00088130533
0.00025084593
0.0009304013
0.00052849715
0.00097485125
0.00046297841
0.0010204454
0.00051418125
0.0010581682
0.00036665821
0.0011007821
0.00046120009
0.001124645
0.00038419076
0.0011597889
0.00045514801
0.0011924104
0.00034633355
0.0012255711
0.0003284189
0.001262547
0.00034555517
0.0013115085
0.00037116106
0.0013437151
0.00037392721
0.0013697227
0.00033399054
0.0014362107
0.00044076373
0.0014662752
0.00045590628
0.0014615387
0.00034273953
0.0016062744
0.00052755793
0.00159263
0.00061807764
0.0015957623
0.00042079647
0.0016877111
0.00050911495
0.0018024522
0.00082379639
0.0018340184
0.00066845059
0.0017927405
0.0005293868
0.0019332229
0.00077935928
0.0021672651
0.00090829602
0.0022072752
0.00076461847
0.0020902709
0.00070024352
0.0020867803
0.00080110254
0.00086438753
0.0023181142
0.00088465683
0.00034517651
0.00090234682
0.00028639004
0.00094366523
0.00046731039
0.00098241708
0.00040441579
0.0010154308
0.00040740503
0.001050551
0.0002991379
0.0010817019
0.00042629756
0.0011038895
0.00029375773
0.0011321666
0.00042084305
0.0011639247
0.00034827179
0.0011964399
0.00029522743
0.0012344206
0.00030100348
0.0012826848
0.00035156453
0.0013119289
0.00032078098
0.0013495921
0.00028233174
0.0014127416
0.00042534507
0.0014328704
0.00040879845
0.0014551232
0.00029436621
0.0015924302
0.00052195095
0.001547817
0.0005183451
0.001587016
0.00038312561
0.0017224536
0.00048983495
0.0017579191
0.00080478422
0.0017783989
0.00065743114
0.001813495
0.00041170075
0.0019155536
0.0006786348
0.0020666591
0.00089067173
0.0021263015
0.00066607477
0.0020672875
0.00044293049
0.0020589295
0.00056565775
0.00087576171
0.0022422698
0.0009707426
0.00033293224
0.00095053516
0.00042522018
0.00097750415
0.00047652017
0.0010074443
0.00041250209
0.001025618
0.00033143763
0.0010555617
0.00031196194
0.0010755486
0.0003852713
0.001098941
0.00026590894
0.0011173933
0.00033654943
0.0011454658
0.00033777445
0.0011743868
0.0002915388
0.0012101381
0.0002573497
0.0012514599
0.00032764352
0.0012765028
0.00027282517
0.0013254041
0.00024964031
0.0013794884
0.00038472904
0.0013927774
0.00035814872
0.0014446669
0.00027446259
0.0015597006
0.00049233886
0.0015028413
0.00041306361
0.0015720525
0.0003410645
0.0017493762
0.00046785802
0.0017188606
0.00069095653
0.001709615
0.00060695291
0.0018376895
0.00037256467
0.0019339188
0.00055686882
0.0019717352
0.00080062451
0.0020049201
0.00065652333
0.0020420909
0.0003480267
0.0021052567
0.0004036651
0.00075366943
0.0022184584
0.00099600072
0.00029171759
0.0009965908
0.00055410416
0.0010199927
0.00052036165
0.0010453253
0.00043618612
0.0010564774
0.00030819782
0.0010779426
0.00038665679
0.0010855411
0.00034150521
0.0011066278
0.00031142617
0.0011187035
0.00024855209
0.0011444167
0.00030101233
0.0011696282
0.00027699407
0.0012054197
0.00021723098
0.0012367259
0.00028369621
0.0012575183
0.00023188925
0.0013099465
0.00023797526
0.0013481855
0.00032615508
0.0013528177
0.00029843279
0.0014276659
0.0002681864
0.0015111884
0.00044111949
0.001458666
0.00031233558
0.0015448159
0.0003195342
0.0017395985
0.00046409661
0.0016702344
0.0005066901
0.0016352984
0.00048055208
0.0018419671
0.00041564517
0.0019588164
0.00047095669
0.0019207123
0.00062964099
0.0019004711
0.00061972606
0.0020190842
0.00042883152
0.0021799635
0.00039262117
0.00060923601
0.0022822836
0.00098020866
0.00022461682
0.0010194001
0.00058410976
0.0010529585
0.00053368687
0.001084569
0.00043972361
0.0011055578
0.0003198268
0.0011244084
0.0004571585
0.0011265614
0.00030814536
0.0011388076
0.00036960746
0.0011458954
0.00020764092
0.0011652501
0.00026613859
0.0011827314
0.00025066966
0.001217366
0.00020858394
0.0012377694
0.00023537577
0.0012582977
0.0002129578
0.0013099765
0.00024762824
0.0013332871
0.000264083
0.0013329896
0.00023037993
0.0014181711
0.0002835455
0.0014623638
0.0003790267
0.0014252301
0.00019038122
0.0015158451
0.0003282485
0.0016909087
0.00046536305
0.0016173449
0.00032391342
0.0015707547
0.0003178099
0.0017957832
0.00047878378
0.0019423659
0.00046688918
0.0018805167
0.00044903684
0.0018218429
0.00048014912
0.001976928
0.00053058746
0.0022022489
0.00050533233
0.00054349171
0.0023303477
0.00092143164
0.00015051802
0.0010031491
0.00049153499
0.00104984
0.00050745521
0.0010929359
0.00042682762
0.001133372
0.00034073796
0.001162382
0.00044496215
0.0011811844
0.00027594595
0.001195148
0.00036373503
0.0012078035
0.0002172418
0.001221816
0.00023676795
0.0012342256
0.00021002839
0.001264201
0.00023751799
0.0012731861
0.00019875194
0.0012887466
0.00021454974
0.0013277098
0.00027609556
0.0013367814
0.00021953149
0.0013375477
0.00018094905
0.0014208545
0.00029084065
0.0014272222
0.00032787413
0.001426674
0.00011128051
0.0015011153
0.000320672
0.0016239571
0.00046548643
0.0015732293
0.00019303279
0.0015459564
0.00015682489
0.0017282882
0.0004882551
0.0018804403
0.00053792833
0.001833768
0.00032438414
0.0017890272
0.00028835933
0.0019191578
0.00051291434
0.0021550014
0.00062277208
0.0005569029
0.0022967009
0.00088195359
9.9927142e-05
0.0009645024
0.00032378022
0.001020769
0.0004269509
0.0010751463
0.00036811062
0.0011266604
0.00033297118
0.0011601787
0.00033724152
0.0011951359
0.00023766243
0.001215547
0.00028118083
0.0012438685
0.00024337373
0.0012632893
0.00020193957
0.0012857836
0.00016248811
0.0013183474
0.00026508115
0.0013318588
0.00016881314
0.0013514218
0.00021901639
0.0013767007
0.00029817743
0.0013769478
0.00019691527
0.0013787105
0.00014607651
0.0014470677
0.00028376781
0.001416919
0.00028339885
0.0014591874
8.9903682e-05
0.0015183664
0.00029838591
0.0015692091
0.00046441875
0.0015458431
0.00013764298
0.0015765359
5.9920296e-05
0.0016973339
0.00044241158
0.0017904029
0.00060246632
0.0017726338
0.00027853912
0.0017900926
0.00015691029
0.001889645
0.00037119349
0.002060715
0.00062780077
0.00058120931
0.0021775273
0.00089632415
4.7634524e-05
0.00096694807
0.00011846135
0.0010124473
0.00030555412
0.0010598501
0.00025374369
0.0011090082
0.00028152146
0.0011414296
0.00018085693
0.0011816115
0.00020945794
0.0012041598
0.0001714008
0.0012373326
0.00025416391
0.0012573389
0.00017288666
0.0012900103
0.00013790926
0.0013201989
0.0002495202
0.0013477342
0.00015093696
0.0013802741
0.00019855171
0.0014041208
0.00027853998
0.0014140259
0.00018387713
0.0014333017
0.00013060824
0.0014920708
0.00026910212
0.0014382294
0.00022871747
0.0015198248
0.00011043262
0.0015766902
0.00026667689
0.001550241
0.00041958098
0.001543641
0.00016010396
0.0016532822
6.185539e-05
0.0017382191
0.00036674451
0.0017202515
0.00056908086
0.0017177857
0.00031584492
0.0017988901
0.0001129128
0.0019187997
0.00023124853
0.0019987817
0.00049180975
0.00052794284
0.0020438449
0.00089547076
-6.1686787e-06
0.00096521314
-2.9196998e-05
0.0010094304
0.00019812144
0.0010552188
0.00015516786
0.0010978098
0.00020581584
0.0011292846
4.5085296e-05
0.0011656639
0.000190561
0.0011906293
9.6762512e-05
0.001219508
0.00024010456
0.0012413107
0.00013300602
0.0012811459
0.00014737994
0.0013033116
0.00017893251
0.0013391876
0.00014385076
0.001375452
0.00016393305
0.0013939445
0.00022718096
0.0014122745
0.00017739669
0.0014532182
0.00013303667
0.001504942
0.0002286012
0.0014500737
0.0001598393
0.0015661167
0.00015054484
0.0016310544
0.00023109081
0.0015547866
0.00030279828
0.0015697323
0.00019120529
0.0017423693
0.00013252813
0.0018124099
0.0003016991
0.0017104038
0.00041575075
0.0017017669
0.00032819661
0.0018333494
0.00015270024
0.0019866967
0.00019045526
0.0020037143
0.00030557449
0.00037746884
0.0019663859
0.00089952155
-4.7373128e-05
0.00096313747
-6.759539e-05
0.0010047203
0.00016982335
0.0010483706
0.00011400204
0.001085404
0.0001317554
0.0011226675
6.5282962e-06
0.0011535468
0.00016329869
0.0011827099
8.7633868e-05
0.0012021031
0.00018084041
0.0012279734
9.4547148e-05
0.0012660376
0.00017270906
0.0012846666
9.0636504e-05
0.001324624
0.00013819069
0.001363203
0.00012719912
0.0013784257
0.00015572429
0.0013995644
0.00015788121
0.0014494822
0.00014632198
0.0014870256
0.00017591035
0.0014424728
8.2004724e-05
0.0015651227
0.000197188
0.0016331722
0.0001955188
0.001543385
0.00014399369
0.0015682116
0.00018222155
0.0017750661
0.00024252151
0.0018366
0.00025083194
0.0017134135
0.0001964566
0.0016812418
0.00022975685
0.0018485924
0.00023486744
0.0020172058
0.00022923669
0.0020243886
0.00019714383
0.00018184165
0.0019394004
0.00095498563
-9.2432188e-05
0.00098154082
2.7892667e-05
0.0010132149
0.00021756328
0.0010508616
0.00012084564
0.0010788138
8.1325491e-05
0.0011181468
5.972867e-05
0.0011418144
0.00013044313
0.0011724672
0.00011704111
0.0011842061
9.5806441e-05
0.0012161543
8.8020621e-05
0.0012462945
0.00015794216
0.0012703311
4.4661971e-05
0.0013080854
0.0001312215
0.0013461867
9.7254818e-05
0.0013607921
7.7098796e-05
0.0013852154
0.00011183944
0.001438421
0.00015817076
0.0014648547
0.00013290662
0.0014446705
1.9133646e-06
0.0015485561
0.0002310913
0.0016094633
0.00017583483
0.0015390084
8.5382982e-07
0.001565513
0.0001168676
0.0017574325
0.00033370324
0.001806311
0.00022535577
0.0017052893
1.388213e-05
0.0016673093
1.4662436e-05
0.001830208
0.00026320985
0.0019855196
0.00031979009
0.0020000966
0.00017406379
5.4907055e-05
0.0019308137
0.0010331542
-0.00012653372
0.0010335209
0.00015288263
0.001051726
0.00031306335
0.0010785204
0.00015071961
0.0010955472
6.941167e-05
0.0011288087
0.00016856562
0.0011435292
9.8014182e-05
0.001166446
0.00013650457
0.0011722633
3.2523221e-05
0.0012032039
0.0001037915
0.0012217728
9.6382003e-05
0.0012540826
3.2197678e-05
0.0012845807
0.00010908764
0.0013234767
7.8763934e-05
0.001340236
1.9085824e-05
0.0013668869
6.6811055e-05
0.0014160619
0.0001546471
0.0014302999
9.7384274e-05
0.0014517918
-5.2443959e-05
0.0015201473
0.00022387487
0.0015628965
0.00016360454
0.0015385723
-9.6442123e-05
0.0015775652
2.3834486e-05
0.0017100633
0.00035215428
0.0017372166
0.00021649243
0.0016744358
-8.4547707e-05
0.0016948354
-0.00015676362
0.0018132393
0.00016635172
0.0019202852
0.00036933397
0.0019360492
0.00021309546
1.6520119e-05
0.0019166831
0.00105904
-0.00015501756
0.0010733876
0.00022521455
0.0010894655
0.00037461578
0.001118506
0.00012552488
0.0011367964
7.1918487e-05
0.0011608323
0.00023027563
0.0011699566
7.1372564e-05
0.0011824646
0.00012044105
0.0011884451
-8.9688809e-06
0.0012131091
0.00010662479
0.0012257802
3.4444292e-05
0.0012611971
2.9763631e-05
0.0012856519
6.7281588e-05
0.0013151681
7.2053827e-05
0.0013370044
1.6179745e-06
0.0013690274
3.2742822e-05
0.0014081761
0.00012975761
0.0014065828
7.0959798e-05
0.0014721545
-6.7297308e-05
0.001504992
0.00016123253
0.0015118308
0.00015193047
0.0015364882
-0.00012665365
0.0016120837
-3.8918204e-05
0.0016712383
0.00025641325
0.0016585062
0.00021974697
0.0016282936
-0.00011033698
0.00173223
-0.00021035241
0.0018357465
4.2300576e-05
0.0018608145
0.00029374923
0.0018594187
0.00022940763
3.411968e-05
0.0018916614
0.0010626996
-0.00016045664
0.0010500173
0.00021543195
0.0010745017
0.00032323795
0.0011126876
8.4316391e-05
0.0011460671
5.1137479e-05
0.0011719413
0.0001638812
0.0011911527
4.2385137e-05
0.0012041632
6.4170738e-05
0.0012227627
-1.5558804e-05
0.0012434112
6.7138454e-05
0.0012606598
7.7739598e-06
0.0013003998
1.6711435e-05
0.0013213337
3.4488348e-05
0.0013544718
4.1522499e-05
0.0013770344
1.3911329e-05
0.0014074361
1.3093892e-05
0.0014367589
7.2832723e-05
0.0014250343
4.2770186e-05
0.0015275156
-5.4201422e-05
0.0015374742
7.2873234e-05
0.0015069226
0.00010240359
0.0015765656
-8.4332594e-05
0.0016787597
-4.9365259e-05
0.0016910055
0.00011565706
0.0016211544
0.0001527236
0.0016318797
-6.54096e-05
0.0017959333
-0.00014027745
0.001906439
-2.8058291e-05
0.0018614702
0.00013658093
0.0018196426
0.00015147391
3.8329351e-05
0.0018769558
0.00082569583
0.00092119469
0.001131051
0.0011893087
0.0012449882
0.0012730863
0.0013155931
0.0013324086
0.0013767144
0.001392996
0.0014308589
0.0014635368
0.0015025539
0.0015151364
0.0015692104
0.0016187383
0.0016439376
0.0016154956
0.001734676
0.0017297576
0.0016698992
0.0017552259
0.0018735352
0.0018707549
0.0017591522
0.001779155
0.0019631198
0.0020958312
0.0020262645
0.001941275
0.0019883593
0.0001828937
0.0020936132
0.00032260615
0.0019475669
0.00038794659
0.0018728411
0.00036736192
0.0018201733
0.00033856177
0.0018028545
0.00037762103
0.0018068054
0.0004800478
0.001833177
0.00059254972
0.0018952878
0.00062327918
0.0019728886
0.000534369
0.0020389141
0.00037853529
0.0020971705
0.00032386134
0.0021785841
0.00050719032
0.0023008038
0.00090349517
0.0024661864
0.0012825398
0.0025612264
0.0014021773
0.0025285879
0.0012574848
0.0023951644
0.0010373733
0.0022660828
0.00092334419
0.0022204331
0.0010266226
0.0022899407
0.0013683897
0.0024685394
0.0016539552
0.0027061464
0.0028732892
0.00169966
-2.5208045e-05
0.0020031273
-6.1719815e-05
0.001884075
-3.1441597e-05
0.0018733341
7.709233e-05
0.0018945182
0.00028144776
0.0019464364
0.00053411953
0.0019722922
0.00072560735
0.0019430205
0.00076711807
0.0018692172
0.00066482618
0.0018133024
0.00052509774
0.0018128903
0.00048256688
0.0018736375
0.00058505428
0.0019863458
0.00078820961
0.0021571251
0.00099715013
0.0023221152
0.0010431969
0.0024047444
0.0008835036
0.0023931678
0.00067674655
0.0023344256
0.00067762372
0.0023297958
0.00094228511
0.0024310758
0.0013726379
0.0025589556
0.0017706844
0.0026186894
0.0019231312
0.002627913
0.0025778168
0.0016803828
-7.7582453e-05
0.0018008746
-9.2426447e-05
0.0017319724
-1.786399e-05
0.0017717706
0.00011941964
0.0018590026
0.00025794942
0.0019391401
0.00030243908
0.0019626291
0.00027422542
0.0019493342
0.0002630985
0.0019059309
0.00037182762
0.0018920402
0.00059167418
0.0019322792
0.00086593083
0.0019806456
0.0011091367
0.0020119627
0.0012052619
0.0020355742
0.0010891697
0.0020452275
0.00079877665
0.0020380482
0.00050821522
0.0020401416
0.00046167836
0.0021076842
0.00069324675
0.0022970331
0.0011199903
0.0025510094
0.0014810606
0.0027484433
0.0016421183
0.0027929439
0.0016082797
0.0026824101
0.0024973253
0.0013794113
0.00017162359
0.0018556215
0.00035429892
0.0017343146
0.00047719672
0.0017024518
0.00042716828
0.0017010454
0.00022944532
0.0017092586
2.6842455e-05
0.0017185851
-4.9006342e-05
0.0017567687
1.893755e-05
0.0018167361
0.0002804299
0.0019207203
0.00062642961
0.0020532422
0.00091688128
0.0021389179
0.0010214128
0.0021442496
0.00094843737
0.002080997
0.00077318399
0.0019965953
0.00062749287
0.0019505931
0.00069218966
0.0019419673
0.00097286236
0.0019934775
0.0013335429
0.0021385461
0.0015230637
0.0023350583
0.0014230444
0.0024954082
0.0011433605
0.0025436083
0.00085334314
0.0025024463
0.0024729132
0.00072704416
0.00020377307
0.0019646315
0.000317989
0.0017937418
0.00029139798
0.0017100894
0.00021374049
0.0016641768
0.00016280059
0.0016573787
0.00018637125
0.0016532738
0.0003253971
0.0016788599
0.00055855935
0.0017276292
0.0007685103
0.0018116497
0.00082514612
0.001904382
0.00067941185
0.0019649337
0.00040756109
0.0019843528
0.00013956255
0.0019951089
0.00012746615
0.0020302615
0.00041759105
0.0021094264
0.00093824278
0.0021874722
0.0014888221
0.002211962
0.001838792
0.0021802793
0.0018091049
0.0021628113
0.001415493
0.0021655791
0.00086706604
0.0021417174
0.00051162108
0.0021398831
0.0022518795
0.00057000543
-0.00013897925
0.0018133305
-0.00027762244
0.0016942331
-0.00030473927
0.0016736481
-0.00019751401
0.0017046058
5.7071782e-05
0.001770619
0.00041698501
0.0018029268
0.00079386436
0.001810714
0.0010496694
0.001786231
0.0010770114
0.0017538132
0.00086409641
0.0017286602
0.00048506937
0.001714401
0.00015042958
0.0017135796
2.5158514e-05
0.0017708837
0.00016557409
0.0019020026
0.00055930818
0.0020953294
0.001001936
0.0022696922
0.0013236874
0.0023416665
0.0014302696
0.0023100318
0.0013238851
0.0022220764
0.0010673936
0.0021277595
0.00082861993
0.0020604991
0.00086529483
0.0020300835
0.0020854919
0.0012022942
-0.00012360365
0.0016317931
-0.00016410241
0.0015616042
-8.3559927e-05
0.0015729848
8.4521312e-05
0.0016499735
0.00029089845
0.0017520314
0.00048361479
0.0018087028
0.0005696043
0.0018267209
0.00051806755
0.0018049693
0.00036836526
0.0017606094
0.00025266593
0.0017245958
0.00025540175
0.0017178033
0.00040084943
0.0017068318
0.0006866336
0.0017302792
0.0010136963
0.0017998452
0.0012398497
0.0019246943
0.0012324285
0.0020631165
0.0010031811
0.0021306189
0.00063992263
0.0021409435
0.00028334031
0.0021380535
0.00023038547
0.0021703828
0.00057831266
0.0022440903
0.0012203552
0.0022932256
0.0022814069
0.0018872853
0.00033583851
0.0016925037
0.00063686246
0.0015984395
0.00083904433
0.0015536162
0.00089206173
0.0015634725
0.00074333922
0.0016037662
0.00044586252
0.0016219049
4.5269168e-05
0.0016323223
-0.00028651716
0.0016464879
-0.00045165346
0.0016856025
-0.00031779058
0.0017482068
6.8607118e-05
0.0018398817
0.00063258501
0.0018895947
0.0011826497
0.0019000026
0.0015837137
0.0018879294
0.0016728004
0.0018737453
0.0014211696
0.0018851476
0.00089145145
0.0018794918
0.00031654616
0.0018540397
3.1552838e-05
0.0018866654
8.2468589e-05
0.0020121615
0.0005418202
0.0022323116
0.0011799017
0.002421568
0.0024924113
0.0017372641
0.00045600446
0.0018196381
0.00079007401
0.0017286711
0.00094837465
0.0016375955
0.00087981405
0.0015713053
0.00061366436
0.0015321638
0.00023581436
0.0014900885
-8.8684484e-05
0.0014657153
-0.00024638136
0.0014818205
-0.00017595751
0.0015539314
3.5866521e-05
0.0016684422
0.0003906498
0.0018150747
0.0007303584
0.0019217595
0.00098329619
0.0019626337
0.0010539132
0.0019560454
0.00095560656
0.001915696
0.00077231246
0.0018787268
0.00056570864
0.0018461672
0.00049698766
0.0017830995
0.00059305381
0.0017548348
0.00088210742
0.0018378278
0.0012287882
0.002026442
0.001408659
0.002255695
0.0023907858
0.0014072286
1.9106077e-05
0.0018037301
-9.9875283e-05
0.0017461062
-0.00027620592
0.0016677886
-0.0003876789
0.0016130377
-0.00037155298
0.0015851161
-0.00017316274
0.0015493788
0.00018136589
0.001515839
0.00059066171
0.0015022724
0.00095627275
0.0015257075
0.0011924114
0.0015848078
0.0012193143
0.0016818213
0.0010032469
0.0017679826
0.00060564193
0.0018027883
0.00012990748
0.0018249923
-0.0002083089
0.0018527593
-0.00029560362
0.001884928
-5.2509256e-05
0.001925355
0.00043651122
0.0019205968
0.0011502593
0.0018857627
0.001799794
0.001873849
0.0021360434
0.0019192948
0.0020040367
0.0020265714
0.00214451
0.0014895565
-0.00063155975
0.0016345235
-0.0011623969
0.0016261169
-0.0014598008
0.001593293
-0.0014487313
0.0015987993
-0.0011035904
0.0016348428
-0.00045012026
0.0016653515
0.00032326292
0.0016608441
0.0010580648
0.0016433652
0.0015966212
0.0016266966
0.0018198785
0.0016083381
0.0016567335
0.0016164281
0.0011577865
0.0016360323
0.00045456893
0.0016303717
-0.00021124961
0.0016357742
-0.00068554532
0.0016836005
-0.00075249207
0.001777649
-0.00038382328
0.0019064317
0.00033388579
0.0020168322
0.0011105937
0.0020269918
0.001783881
0.0019995144
0.0021530471
0.0019708318
0.0021233579
0.0019676879
0.0019964468
0.0016461776
-0.00067041996
0.0014653911
-0.0011004244
0.0014803252
-0.001196889
0.0014803124
-0.0010021211
0.0015337744
-0.0006084449
0.0016172009
-0.00013283736
0.0016778046
0.00033002
0.0016987583
0.00071011195
0.0017031946
0.0009518901
0.001698013
0.0010211888
0.0016771157
0.00090995934
0.001646778
0.00061494507
0.0016208708
0.00025420303
0.0015750832
-3.8255047e-05
0.0015391951
-0.00011996417
0.0015673145
3.0159803e-05
0.0016664339
0.00028285234
0.0018042696
0.0006212273
0.0019468535
0.00088440995
0.0020121288
0.0011075987
0.0020225203
0.0011800836
0.0020166571
0.0011637243
0.0020049172
0.0020013772
0.0010490137
0.00018492189
0.0014462422
0.00036101951
0.0014357542
0.00048120086
0.0014099224
0.00051240603
0.0014490132
0.00052072019
0.0015301185
0.00046298926
0.0016030877
0.00033418359
0.0016380839
0.00013106729
0.0016595045
-0.00017626738
0.0016736555
-0.00044967948
0.0016775585
-0.0006312512
0.0016745971
-0.00056346321
0.001668842
-0.00023780572
0.001633332
0.00026587496
0.0015877027
0.0007937851
0.0015731595
0.0011593708
0.0016246331
0.0013654624
0.0017153591
0.0013243513
0.0018399136
0.0010428861
0.0019143465
0.00062200194
0.0019364016
0.00018920341
0.0019518986
-0.00012405423
0.0019868204
0.0020080798
-0.0001973792
0.00090227405
0.0015293597
0.0016258664
0.0014984369
0.002019239
0.0014340663
0.002050657
0.0014246187
0.0017450541
0.0014614095
0.001150875
0.0015098606
0.00039107367
0.0015393791
-0.00039846358
0.0015675829
-0.0011201555
0.0015937135
-0.0016288049
0.0016245341
-0.001785116
0.0016439632
-0.0014613001
0.0016857686
-0.00073452534
0.0016961391
0.00024614526
0.0016690166
0.0011784027
0.0016477757
0.0018677343
0.001667914
0.0021795226
0.001701577
0.0019829873
0.0017727156
0.0013769199
0.0018280643
0.00053724419
0.0018410087
-0.0002945654
0.001849108
-0.00093660874
0.0019059204
0.0019645144
-0.001076941
0.00097302159
0.0015873859
0.0017663923
0.0015734709
0.0022883139
0.0014975732
0.0024575277
0.0014556328
0.0022102878
0.0014562196
0.0015052876
0.001469256
0.00047288976
0.0014698694
-0.00064189805
0.001484889
-0.0015065678
0.0015172268
-0.0019636326
0.0015662057
-0.0019350592
0.0016081529
-0.0014960515
0.0016728133
-0.00078447447
0.001705461
8.2345181e-05
0.0017011584
0.00096131652
0.0016940153
0.0016641168
0.0017132934
0.002063623
0.0017319612
0.0020175747
0.0017692408
0.0014814254
0.0017970472
0.00055442928
0.001781622
-0.00044197261
0.0017698566
-0.0011377786
0.0018285413
0.0019049485
-0.0013644728
0.0005715839
0.0015843469
0.0010621865
0.0015972116
0.0014244977
0.0015365799
0.0016257927
0.0014943271
0.0015601145
0.0014839107
0.0011368137
0.001483279
0.00038203177
0.0014633105
-0.00047990139
0.0014604783
-0.0011173121
0.0014926982
-0.001360347
0.0015454694
-0.0012480114
0.001592005
-0.00089653831
0.0016578946
-0.00043713973
0.0016922715
6.3019383e-05
0.0016921946
0.00054412951
0.0016977209
0.00099105922
0.0017267452
0.0012710596
0.0017555845
0.0012929138
0.001783153
0.00098729516
0.0018017209
0.0003888349
0.0017752916
-0.00033793727
0.0017462316
-0.00088157555
0.001790959
0.001873404
-0.0010569352
0.00012427408
0.0015451171
0.00020563306
0.0015887348
0.00027827413
0.0015411606
0.00033052151
0.0015111547
0.00032829479
0.0015121849
0.00025578267