-0.5 	1.0989601
-0.48412699 	1.0508981
-0.46825397 	1.023755
-0.45238095 	1.0072157
-0.43650794 	0.99701596
-0.42063492 	0.99045979
-0.40476191 	0.98557046
-0.3888889 	0.9811743
-0.37301588 	0.9767041
-0.35714287 	0.97188121
-0.34126985 	0.96712721
-0.32539684 	0.96244923
-0.30952379 	0.95818314
-0.29365078 	0.95458
-0.27777776 	0.95187564
-0.26190475 	0.95027948
-0.24603173 	0.94992637
-0.23015872 	0.95036632
-0.2142857 	0.95125226
-0.19841269 	0.95224992
-0.18253967 	0.95320817
-0.16666666 	0.95387713
-0.15079364 	0.95403309
-0.13492063 	0.95343975
-0.11904758 	0.95209139
-0.10317457 	0.95013063
-0.087301552 	0.94767516
-0.071428537 	0.94472076
-0.055555522 	0.94122921
-0.039682507 	0.93755761
-0.023809493 	0.93400423
-0.0079364777 	0.93099613
0.0079365373 	0.92871938
0.023809552 	0.92690083
0.039682567 	0.92542611
0.055555582 	0.92467394
0.071428597 	0.92501782
0.087301612 	0.92643472
0.10317463 	0.9287906
0.11904764 	0.9321162
0.13492066 	0.93605502
0.15079367 	0.94005557
0.16666669 	0.94398721
0.1825397 	0.94784482
0.19841272 	0.95147852
0.21428573 	0.95466483
0.23015875 	0.95717212
0.24603176 	0.95885198
0.26190484 	0.95969737
0.27777785 	0.95958324
0.29365087 	0.95878058
0.30952388 	0.95815508
0.3253969 	0.95815345
0.34126991 	0.95678757
0.35714292 	0.95320445
0.37301594 	0.94930838
0.38888895 	0.94834956
0.40476197 	0.95228117
0.42063499 	0.96429164
0.436508 	0.98060129
0.45238101 	0.99395198
0.46825403 	0.99673039
0.48412704 	0.98451431
0.5 	0.9685503
