-0.5 	1.0009009
-0.48412699 	1.0018798
-0.46825397 	1.0110482
-0.45238095 	1.0134528
-0.43650794 	1.0132872
-0.42063492 	1.0101591
-0.40476191 	1.006847
-0.3888889 	1.0053659
-0.37301588 	1.0046824
-0.35714287 	1.0038768
-0.34126985 	1.0022257
-0.32539684 	0.99998681
-0.30952379 	0.99827097
-0.29365078 	0.99737559
-0.27777776 	0.99676131
-0.26190475 	0.99599935
-0.24603173 	0.99515311
-0.23015872 	0.99419606
-0.2142857 	0.99258403
-0.19841269 	0.99068471
-0.18253967 	0.98881972
-0.16666666 	0.98743929
-0.15079364 	0.98700527
-0.13492063 	0.98673412
-0.11904758 	0.98639257
-0.10317457 	0.98559471
-0.087301552 	0.98510335
-0.071428537 	0.98482036
-0.055555522 	0.98474938
-0.039682507 	0.98492189
-0.023809493 	0.98566183
-0.0079364777 	0.98681006
0.0079365373 	0.98822429
0.023809552 	0.98901367
0.039682567 	0.98954284
0.055555582 	0.98990784
0.071428597 	0.99089861
0.087301612 	0.99204249
0.10317463 	0.99322918
0.11904764 	0.99407471
0.13492066 	0.99458715
0.15079367 	0.99510229
0.16666669 	0.99579559
0.1825397 	0.99723851
0.19841272 	0.99896855
0.21428573 	1.0002272
0.23015875 	1.0005604
0.24603176 	0.99964872
0.26190484 	0.99838745
0.27777785 	0.99744668
0.29365087 	0.996614
0.30952388 	0.99554318
0.3253969 	0.99408401
0.34126991 	0.99260366
0.35714292 	0.99133452
0.37301594 	0.98878232
0.38888895 	0.98362565
0.40476197 	0.97683092
0.42063499 	0.96728508
0.436508 	0.95865471
0.45238101 	0.96410899
0.46825403 	0.97777022
0.48412704 	0.98492933
0.5 	0.99058007
