/*--------------------------------*- C++ -*----------------------------------*\
| =========                 |                                                 |
| \\      /  F ield         | OpenFOAM: The Open Source CFD Toolbox           |
|  \\    /   O peration     | Version:  2406                                  |
|   \\  /    A nd           | Website:  www.openfoam.com                      |
|    \\/     M anipulation  |                                                 |
\*---------------------------------------------------------------------------*/
FoamFile
{
    version     2.0;
    format      ascii;
    arch        "LSB;label=32;scalar=64";
    class       volScalarField;
    location    "100";
    object      alphat;
}
// * * * * * * * * * * * * * * * * * * * * * * * * * * * * * * * * * * * * * //

dimensions      [1 -1 -1 0 0 0 0];

internalField   nonuniform List<scalar> 
20580
(
8.8520741e-07
8.8815565e-07
8.9007168e-07
8.686364e-07
8.4466239e-07
8.2801489e-07
8.1919614e-07
8.1431048e-07
8.0838885e-07
8.0384221e-07
8.0150577e-07
8.0305148e-07
8.0327873e-07
8.0670867e-07
8.0731491e-07
8.095227e-07
8.120946e-07
8.0943221e-07
8.1950416e-07
8.2321577e-07
8.2319409e-07
8.2319185e-07
8.2636776e-07
8.4135334e-07
8.4823167e-07
8.732425e-07
9.0685889e-07
9.3044626e-07
9.605059e-07
1.0175907e-06
1.0884876e-06
8.85809e-07
8.9352095e-07
8.9986986e-07
8.8392761e-07
8.5375927e-07
8.3233587e-07
8.211833e-07
8.1496494e-07
8.0820262e-07
8.0211306e-07
7.985234e-07
7.9940641e-07
7.9813322e-07
8.005277e-07
7.9960643e-07
8.0306837e-07
8.0428756e-07
8.0184517e-07
8.1811743e-07
8.1877018e-07
8.251688e-07
8.3481288e-07
8.3131146e-07
8.4749721e-07
8.5071937e-07
8.8244682e-07
9.3118999e-07
9.6504315e-07
9.7095509e-07
1.0132094e-06
1.0819256e-06
8.8599711e-07
8.9700878e-07
9.0209555e-07
8.916466e-07
8.7238595e-07
8.4533112e-07
8.302061e-07
8.2052247e-07
8.1194959e-07
8.0410532e-07
7.9915554e-07
7.9901871e-07
7.9546823e-07
7.9706552e-07
7.95251e-07
7.966586e-07
7.9665619e-07
7.9457281e-07
8.1307939e-07
8.1393858e-07
8.1665626e-07
8.3591773e-07
8.3582551e-07
8.4602003e-07
8.530375e-07
8.7928096e-07
9.281122e-07
9.5858451e-07
9.7722232e-07
1.0100992e-06
1.0933709e-06
8.8661082e-07
9.0081521e-07
9.0567043e-07
8.9390674e-07
8.807385e-07
8.7134763e-07
8.5750707e-07
8.3941385e-07
8.2615715e-07
8.1377337e-07
8.0629842e-07
8.0282091e-07
7.9736e-07
7.9642913e-07
7.9545346e-07
7.9452259e-07
7.9281084e-07
7.9251037e-07
8.0506998e-07
8.0736108e-07
8.0988045e-07
8.3335797e-07
8.3498383e-07
8.458465e-07
8.5910813e-07
8.7930143e-07
9.2333509e-07
9.5323082e-07
9.6875754e-07
9.8814006e-07
1.0735466e-06
8.8686601e-07
9.0696726e-07
9.0966664e-07
8.9857023e-07
8.892291e-07
8.8992433e-07
8.9236031e-07
8.893072e-07
8.7328573e-07
8.504621e-07
8.3103363e-07
8.1894207e-07
8.0989948e-07
8.0300541e-07
8.0127506e-07
7.9695936e-07
7.9235503e-07
7.9494542e-07
7.9970293e-07
8.0362102e-07
8.0536704e-07
8.2871048e-07
8.3153534e-07
8.4482968e-07
8.6276631e-07
8.8087739e-07
9.2800024e-07
9.5671125e-07
9.8600568e-07
9.9806316e-07
1.0587782e-06
8.87527e-07
9.1602613e-07
9.1564717e-07
9.040275e-07
8.9551699e-07
9.0065906e-07
9.0926218e-07
9.1847299e-07
9.2108877e-07
9.1010808e-07
8.9862942e-07
8.7408358e-07
8.566052e-07
8.342651e-07
8.2536493e-07
8.1346995e-07
8.0145168e-07
8.0344489e-07
7.9926504e-07
8.0247764e-07
8.063193e-07
8.2609539e-07
8.2628083e-07
8.3995929e-07
8.6321772e-07
8.782403e-07
9.0734254e-07
9.6853695e-07
1.005276e-06
1.0646285e-06
1.0808306e-06
8.9015795e-07
9.1575182e-07
9.136014e-07
9.050836e-07
8.9870368e-07
9.0501535e-07
9.153252e-07
9.2455665e-07
9.3539724e-07
9.3736946e-07
9.4537645e-07
9.3900727e-07
9.3202259e-07
9.160704e-07
8.9761404e-07
8.7543215e-07
8.4622089e-07
8.3512565e-07
8.1480077e-07
8.1093153e-07
8.121741e-07
8.2618244e-07
8.2080715e-07
8.2948474e-07
8.5732956e-07
8.6862233e-07
8.7841502e-07
9.4169553e-07
1.0009126e-06
1.0782652e-06
1.1131115e-06
8.9977444e-07
9.4343303e-07
9.2247692e-07
9.0713888e-07
8.9774003e-07
9.0427673e-07
9.1857798e-07
9.2875253e-07
9.3867415e-07
9.4225364e-07
9.5295458e-07
9.5874909e-07
9.6226668e-07
9.6602096e-07
9.5210403e-07
9.421975e-07
9.1550177e-07
9.0789079e-07
8.7078401e-07
8.5474182e-07
8.3833079e-07
8.3664446e-07
8.2618541e-07
8.2874927e-07
8.5386355e-07
8.6642944e-07
8.6045445e-07
8.8218176e-07
9.5290542e-07
1.0317181e-06
1.1144831e-06
9.5521646e-07
1.0304524e-06
9.6680687e-07
9.2559026e-07
9.0372385e-07
9.0031421e-07
9.0322441e-07
9.0327611e-07
9.1519805e-07
9.2571603e-07
9.4548093e-07
9.5794289e-07
9.636245e-07
9.714955e-07
9.6102637e-07
9.5480161e-07
9.4202468e-07
9.367534e-07
9.1595254e-07
9.0438419e-07
9.0081881e-07
8.8205402e-07
8.6483518e-07
8.5144117e-07
8.622239e-07
8.7677407e-07
8.7165015e-07
8.8137327e-07
9.370407e-07
9.9829546e-07
1.0655063e-06
9.2040402e-07
1.0482576e-06
1.0866358e-06
1.007163e-06
9.5560028e-07
9.2732887e-07
9.158277e-07
9.0678625e-07
9.0487695e-07
9.0772843e-07
9.1383515e-07
9.2422147e-07
9.3116597e-07
9.4273028e-07
9.4075481e-07
9.4032712e-07
9.3571008e-07
9.3299597e-07
9.1991739e-07
9.1644727e-07
9.2138807e-07
9.1011182e-07
9.0969615e-07
9.134923e-07
9.1258788e-07
9.203033e-07
9.2088494e-07
9.2248136e-07
9.5541537e-07
1.00357e-06
1.0717378e-06
8.3311764e-07
9.531496e-07
1.0797572e-06
1.134399e-06
1.1419905e-06
1.0973775e-06
1.0349503e-06
9.8968332e-07
9.6025536e-07
9.4489358e-07
9.367345e-07
9.347989e-07
9.3528581e-07
9.3509139e-07
9.3005072e-07
9.2417441e-07
9.186091e-07
9.1437438e-07
9.0938964e-07
9.1491664e-07
9.1856081e-07
9.0993441e-07
9.2211779e-07
9.3779418e-07
9.4139285e-07
9.5261921e-07
9.7616826e-07
1.0091904e-06
1.0307433e-06
1.0789488e-06
1.1016398e-06
8.8007722e-07
8.8627801e-07
9.8173264e-07
1.0874444e-06
1.1565858e-06
1.234924e-06
1.2832613e-06
1.2952349e-06
1.2640653e-06
1.2212756e-06
1.1543765e-06
1.1114788e-06
1.0788557e-06
1.0509223e-06
1.0231686e-06
9.9596668e-07
9.7075285e-07
9.4780252e-07
9.2770283e-07
9.2931759e-07
9.2577601e-07
9.1397456e-07
9.3005883e-07
9.5063951e-07
9.4866015e-07
9.4924855e-07
9.7439939e-07
1.0149885e-06
1.0402002e-06
1.0726892e-06
1.123606e-06
9.575825e-07
1.0221346e-06
1.0053533e-06
1.0023804e-06
1.0477335e-06
1.1345062e-06
1.2312994e-06
1.2957875e-06
1.3674294e-06
1.4269945e-06
1.4907726e-06
1.5389654e-06
1.5663543e-06
1.5566958e-06
1.5161149e-06
1.452494e-06
1.3736092e-06
1.2763136e-06
1.1793629e-06
1.1009564e-06
1.03583e-06
9.8045744e-07
9.6608265e-07
9.7791459e-07
9.6950775e-07
9.603555e-07
9.7671286e-07
1.01089e-06
1.0342726e-06
1.0475414e-06
1.0812623e-06
8.8888643e-07
1.0093064e-06
1.0322802e-06
1.0207979e-06
1.0096628e-06
1.0258366e-06
1.0463129e-06
1.123399e-06
1.2008993e-06
1.2857599e-06
1.3892859e-06
1.4897359e-06
1.5542106e-06
1.606089e-06
1.6396548e-06
1.6360056e-06
1.6010214e-06
1.5513373e-06
1.4973643e-06
1.4541946e-06
1.3849681e-06
1.3094278e-06
1.2404984e-06
1.2090405e-06
1.1322397e-06
1.0682622e-06
1.0423252e-06
1.0586074e-06
1.0770328e-06
1.0828726e-06
1.0945768e-06
8.7825589e-07
9.9218323e-07
1.0162037e-06
1.0165022e-06
9.9794513e-07
1.0020753e-06
1.0022453e-06
1.0188633e-06
1.0436738e-06
1.0847766e-06
1.1378365e-06
1.2070622e-06
1.2841145e-06
1.350897e-06
1.3963943e-06
1.4392696e-06
1.4485291e-06
1.43762e-06
1.427369e-06
1.4173808e-06
1.3977948e-06
1.3763683e-06
1.3668608e-06
1.3724626e-06
1.3784789e-06
1.356307e-06
1.3421577e-06
1.3337468e-06
1.3266223e-06
1.3190076e-06
1.2703142e-06
8.6396957e-07
9.2221555e-07
9.5323723e-07
9.7186872e-07
9.6965253e-07
9.809125e-07
9.8494067e-07
9.8899032e-07
9.950923e-07
1.0111816e-06
1.0414654e-06
1.0804393e-06
1.117162e-06
1.1518839e-06
1.1827147e-06
1.2032209e-06
1.2116844e-06
1.21138e-06
1.2216828e-06
1.2230933e-06
1.2405726e-06
1.267194e-06
1.2906439e-06
1.3110337e-06
1.3390696e-06
1.3795158e-06
1.4035454e-06
1.4403453e-06
1.4684389e-06
1.5341708e-06
1.5721193e-06
8.6908894e-07
9.1808125e-07
9.3027313e-07
9.3636919e-07
9.3962853e-07
9.6151469e-07
9.7535233e-07
9.8157795e-07
9.8548285e-07
1.0000053e-06
1.0231729e-06
1.0528951e-06
1.0777246e-06
1.1032321e-06
1.1138372e-06
1.1115967e-06
1.1118726e-06
1.1040091e-06
1.1057321e-06
1.0971712e-06
1.0920055e-06
1.1172964e-06
1.135583e-06
1.1430695e-06
1.1716402e-06
1.2457071e-06
1.3035284e-06
1.3459402e-06
1.3855033e-06
1.4451017e-06
1.5490249e-06
8.7473835e-07
9.1863011e-07
9.3796182e-07
9.429661e-07
9.4167391e-07
9.4921445e-07
9.5854371e-07
9.6123479e-07
9.6462888e-07
9.761849e-07
9.9990866e-07
1.0325804e-06
1.0657411e-06
1.0969721e-06
1.1152958e-06
1.1147706e-06
1.1095086e-06
1.1052892e-06
1.099889e-06
1.0743479e-06
1.0592919e-06
1.0686505e-06
1.0687098e-06
1.0599574e-06
1.065398e-06
1.1010193e-06
1.1417458e-06
1.1503347e-06
1.1755172e-06
1.2042433e-06
1.3147752e-06
8.7500845e-07
8.9252526e-07
9.1337469e-07
9.2271834e-07
9.3053261e-07
9.2962973e-07
9.2969411e-07
9.2104581e-07
9.1660478e-07
9.2059051e-07
9.3856403e-07
9.6903365e-07
1.0023186e-06
1.0329083e-06
1.054136e-06
1.065738e-06
1.0709093e-06
1.0731021e-06
1.0731843e-06
1.0605059e-06
1.0493976e-06
1.0624164e-06
1.0687543e-06
1.0557455e-06
1.0588557e-06
1.0863003e-06
1.1211996e-06
1.1327353e-06
1.1424771e-06
1.1622951e-06
1.2113447e-06
8.6584002e-07
9.0718297e-07
9.2612862e-07
9.3707428e-07
9.4373837e-07
9.4844602e-07
9.4699352e-07
9.3886015e-07
9.3300567e-07
9.3726734e-07
9.5004624e-07
9.7008099e-07
9.8795039e-07
1.0046545e-06
1.0171565e-06
1.0279657e-06
1.0301812e-06
1.0351938e-06
1.0415528e-06
1.0453806e-06
1.05306e-06
1.076518e-06
1.0584497e-06
1.107588e-06
1.1153849e-06
1.1412312e-06
7.9485277e-07
8.4748398e-07
1.1945169e-06
1.0314702e-06
1.226113e-06
8.5836506e-07
9.4489507e-07
1.0114871e-06
1.076234e-06
1.1271672e-06
1.1630653e-06
1.1874042e-06
1.2091518e-06
1.2336453e-06
1.2682684e-06
1.2953351e-06
1.3286012e-06
1.3532298e-06
1.3803556e-06
1.401383e-06
1.4187678e-06
1.4320442e-06
1.4531673e-06
1.4782352e-06
1.507395e-06
1.5330176e-06
1.5814093e-06
1.0303207e-06
1.6624862e-06
1.6792867e-06
1.7169522e-06
9.4552693e-07
7.9679598e-07
1.76972e-06
1.4109589e-06
1.7096254e-06
1.0321966e-06
1.7574513e-06
2.0084545e-06
2.1970705e-06
2.1804289e-06
2.2963408e-06
2.2647438e-06
2.3060566e-06
2.2735431e-06
2.4525145e-06
2.4214839e-06
2.596873e-06
2.6004289e-06
2.7200458e-06
2.7709528e-06
2.8365153e-06
2.8980163e-06
2.9479981e-06
2.7840399e-06
3.0531004e-06
3.114e-06
3.1413295e-06
2.5000338e-06
3.0421703e-06
3.2122804e-06
3.2116968e-06
2.3904491e-06
2.1070623e-06
2.6540087e-06
3.1469728e-06
3.105562e-06
1.0580971e-06
2.1816292e-06
2.756486e-06
2.1565833e-06
2.4678943e-06
2.1587728e-06
1.9909561e-06
2.1429758e-06
1.9262074e-06
2.1247155e-06
1.9390224e-06
2.2003398e-06
1.9315284e-06
2.2664097e-06
2.164293e-06
2.2949557e-06
2.2218364e-06
2.2773334e-06
2.522179e-06
2.3349124e-06
2.1983379e-06
2.4917508e-06
3.0487941e-06
2.7725665e-06
2.2892298e-06
2.3184802e-06
3.2298835e-06
3.1022049e-06
3.0333843e-06
2.5148431e-06
2.6293513e-06
2.5940819e-06
2.622578e-06
1.3766977e-06
1.0262024e-06
1.2850882e-06
1.3657698e-06
1.6098876e-06
1.6537733e-06
1.3812929e-06
1.1956005e-06
1.1625197e-06
1.2148861e-06
1.1934494e-06
1.1364055e-06
1.1063408e-06
1.1476299e-06
1.1782133e-06
1.1858393e-06
1.1572116e-06
1.1599468e-06
1.1501824e-06
1.1240226e-06
1.1074996e-06
2.1190461e-06
2.0190722e-06
1.1145024e-06
1.3074698e-06
1.3267623e-06
1.3632726e-06
1.6076984e-06
1.7531117e-06
1.549822e-06
1.3309117e-06
1.2752918e-06
1.331454e-06
1.3013942e-06
1.2059661e-06
1.1502009e-06
1.1772416e-06
1.2731585e-06
1.3116563e-06
1.3053691e-06
1.2502659e-06
1.2346719e-06
1.213628e-06
1.2042229e-06
1.8587737e-06
3.033845e-06
1.7093475e-06
1.0361408e-06
1.3910143e-06
1.3783417e-06
1.6007209e-06
1.86595e-06
1.7967579e-06
1.5039899e-06
1.3657936e-06
1.4166387e-06
1.3806454e-06
1.3201194e-06
1.2519604e-06
1.2801491e-06
1.3765574e-06
1.3828008e-06
1.3520012e-06
1.2804933e-06
1.27727e-06
1.2978859e-06
1.3344646e-06
1.60439e-06
2.8238725e-06
1.6104571e-06
1.1303089e-06
1.0937799e-06
1.3129579e-06
1.7156883e-06
2.0730574e-06
2.0453195e-06
1.7918396e-06
1.4666645e-06
1.4746053e-06
1.5085677e-06
1.5129778e-06
1.4738689e-06
1.4546638e-06
1.5202777e-06
1.5351682e-06
1.467137e-06
1.3621347e-06
1.3326326e-06
1.3626787e-06
1.396204e-06
1.1937503e-06
1.5335399e-06
1.2266278e-06
1.1383872e-06
1.2401512e-06
1.7009713e-06
1.9179352e-06
2.3622969e-06
2.2906327e-06
2.0416003e-06
1.6606241e-06
1.5980416e-06
1.684469e-06
1.7149316e-06
1.7166356e-06
1.6612204e-06
1.6512915e-06
1.6764346e-06
1.6478586e-06
1.608426e-06
1.5245497e-06
1.538741e-06
1.5230812e-06
6.3442835e-07
1.3620466e-06
8.2728837e-07
1.1509789e-06
1.8225855e-06
1.8645002e-06
2.0658163e-06
2.5235782e-06
2.4815135e-06
2.2975823e-06
1.9386337e-06
1.823968e-06
1.9196006e-06
1.9159192e-06
1.8096046e-06
1.7419441e-06
1.6901399e-06
1.7757956e-06
1.8211226e-06
1.8858549e-06
1.883075e-06
1.8374345e-06
1.7865298e-06
1.1311701e-06
1.3533582e-06
2.0727862e-06
2.0804039e-06
1.9406742e-06
1.5211298e-06
1.9746411e-06
2.6195041e-06
2.6565593e-06
2.6012958e-06
2.2972881e-06
2.1399754e-06
2.1793936e-06
2.1180909e-06
1.9460979e-06
1.8312585e-06
1.7861599e-06
1.8336497e-06
1.9719886e-06
2.0378949e-06
2.1027182e-06
2.0571233e-06
1.9943848e-06
1.1928916e-06
2.0024941e-06
1.349416e-06
1.1893686e-06
1.5769292e-06
2.152846e-06
2.2450642e-06
2.9374607e-06
3.1869146e-06
3.1651245e-06
2.8069996e-06
2.4397563e-06
2.386056e-06
2.3538038e-06
2.2136118e-06
2.060554e-06
2.0323585e-06
2.0799256e-06
2.1937854e-06
2.2017467e-06
2.1596145e-06
2.0705836e-06
1.9953476e-06
8.4042788e-07
1.0852233e-06
2.0930605e-06
2.5223078e-06
2.0882954e-06
1.3214431e-06
1.2905298e-06
2.3017563e-06
4.1123571e-06
3.9535255e-06
3.5887949e-06
2.8865059e-06
2.6376234e-06
2.7175646e-06
2.7087029e-06
2.5766081e-06
2.4592967e-06
2.4956808e-06
2.5877571e-06
2.5360199e-06
2.3471638e-06
2.1501507e-06
2.0244491e-06
4.1861713e-07
1.068046e-06
1.2862754e-06
2.0524869e-06
2.1771492e-06
2.348705e-06
3.1052794e-06
4.2044562e-06
4.0323769e-06
3.5836664e-06
4.1174886e-06
3.4630235e-06
3.0182858e-06
3.1091532e-06
3.1813764e-06
3.1608457e-06
3.1349866e-06
3.0834543e-06
3.1531486e-06
3.1147958e-06
2.8607003e-06
2.4947095e-06
2.2815188e-06
4.0518773e-07
1.0996987e-06
1.3030974e-06
1.9997863e-06
2.4951436e-06
2.2037017e-06
2.1347191e-06
2.9955201e-06
4.2409322e-06
4.9167963e-06
4.731164e-06
4.051716e-06
3.5858704e-06
3.6644308e-06
3.7241733e-06
3.6495644e-06
3.4821148e-06
3.4406139e-06
3.4863166e-06
3.6609143e-06
3.6130475e-06
3.3582846e-06
2.9226458e-06
6.8771056e-07
8.2085232e-07
2.4063388e-06
3.68255e-06
4.2952076e-06
2.6251334e-06
2.2192129e-06
2.8009264e-06
3.9067681e-06
6.0184506e-06
5.8224831e-06
5.1348968e-06
3.5198579e-06
3.9967995e-06
4.4999597e-06
4.2156286e-06
3.7656502e-06
3.6101597e-06
3.5440654e-06
3.7279326e-06
3.9240817e-06
4.0212841e-06
3.9875345e-06
1.4258441e-06
1.4006877e-06
3.1496411e-06
4.0466008e-06
4.0524535e-06
4.5733381e-06
4.1416584e-06
5.2402057e-06
6.5625127e-06
7.1873255e-06
7.4832832e-06
6.695152e-06
6.0062563e-06
5.8270701e-06
5.7095188e-06
5.1711728e-06
4.3447089e-06
3.9397742e-06
3.7758703e-06
3.8666661e-06
4.161127e-06
4.2973706e-06
4.3447565e-06
2.1020146e-06
2.277409e-06
3.9212713e-06
3.8152976e-06
5.8436076e-06
5.8369521e-06
5.4564824e-06
6.4619664e-06
8.4840351e-06
9.3851437e-06
1.0216109e-05
9.1534566e-06
8.0082457e-06
7.6677396e-06
7.7355287e-06
6.9611492e-06
5.6440557e-06
4.7294641e-06
4.3887673e-06
4.3705758e-06
4.6468225e-06
4.7646604e-06
4.7988434e-06
1.3794053e-06
2.0333857e-06
4.3542981e-06
5.6781511e-06
5.7106008e-06
7.4702422e-06
7.7277995e-06
9.3999174e-06
1.1929532e-05
1.3715096e-05
1.3206673e-05
1.2331343e-05
9.5867552e-06
8.7412406e-06
1.0935224e-05
1.0443685e-05
8.8744542e-06
6.5053198e-06
5.5588562e-06
5.3105838e-06
5.6074356e-06
5.6788689e-06
5.6131731e-06
1.0494257e-06
1.7422013e-06
4.1939981e-06
6.3373959e-06
8.1435736e-06
8.2240889e-06
1.0982178e-05
1.3860543e-05
1.6449566e-05
1.8149121e-05
1.6768042e-05
1.6840489e-05
1.2331576e-05
1.0587796e-05
1.1454405e-05
1.2498287e-05
1.155487e-05
8.9400577e-06
7.6387359e-06
7.2572628e-06
7.7383078e-06
7.6580647e-06
7.1785381e-06
1.0194935e-06
2.1416194e-06
3.7352696e-06
6.7055952e-06
9.2764875e-06
1.0789517e-05
1.5335219e-05
2.0930708e-05
2.5529902e-05
2.7119923e-05
2.199999e-05
1.9077144e-05
1.7087031e-05
1.5621123e-05
1.5652554e-05
1.5721539e-05
1.4357318e-05
1.2527082e-05
1.2177539e-05
1.2138653e-05
1.3171875e-05
1.2369793e-05
1.029915e-05
1.2636048e-06
2.8729407e-06
4.0215213e-06
7.3855336e-06
1.0551781e-05
1.5205558e-05
2.2721116e-05
3.1981285e-05
4.025415e-05
3.6064089e-05
2.5948363e-05
2.3218742e-05
2.2651438e-05
2.2231881e-05
2.2579014e-05
2.2052558e-05
1.8024451e-05
1.4986156e-05
1.5374147e-05
1.6063266e-05
1.858158e-05
1.8670165e-05
1.5704433e-05
1.7958293e-06
3.4479518e-06
4.9143662e-06
7.9091847e-06
1.1787752e-05
2.0566475e-05
3.1468749e-05
4.4042151e-05
5.6298982e-05
4.5027955e-05
3.1557863e-05
2.8920367e-05
3.2017592e-05
3.5597057e-05
3.6819997e-05
3.3805564e-05
2.4050268e-05
1.8317268e-05
1.8627555e-05
1.9746452e-05
2.3094487e-05
2.2331033e-05
1.8363191e-05
2.4832841e-06
3.4013791e-06
5.2926531e-06
9.1360055e-06
1.4620067e-05
2.4743008e-05
3.8683576e-05
5.3829841e-05
7.0080887e-05
5.8528151e-05
4.6004055e-05
4.5097697e-05
5.7008984e-05
7.172335e-05
7.4554849e-05
6.2624315e-05
3.8503336e-05
2.5756727e-05
2.5290627e-05
2.7447257e-05
3.0913022e-05
2.711257e-05
1.9096487e-05
1.8596113e-06
2.8270256e-06
5.2980554e-06
1.0409488e-05
1.8023163e-05
2.5734993e-05
4.2180561e-05
5.9480726e-05
7.9234939e-05
7.5470189e-05
6.5542847e-05
7.141447e-05
9.6016502e-05
0.00011799166
0.00011732648
9.38802e-05
5.8057161e-05
3.9441853e-05
3.87551e-05
4.2344759e-05
4.4386873e-05
3.3802726e-05
2.1207163e-05
1.3968628e-06
2.6094893e-06
6.506562e-06
1.2377614e-05
2.3036134e-05
2.7193971e-05
4.6885437e-05
6.556958e-05
8.6633232e-05
9.3981618e-05
8.5021075e-05
9.8158976e-05
0.00013104042
0.0001646906
0.00016027726
0.0001208409
7.5466693e-05
5.81303e-05
6.2659663e-05
7.3297061e-05
7.2987327e-05
4.9968195e-05
2.7662655e-05
1.7852815e-06
3.1912569e-06
9.2688348e-06
1.4681011e-05
2.052356e-05
3.3628396e-05
6.0535949e-05
7.9063108e-05
9.3353151e-05
0.00012252083
0.00012262619
0.00012936871
0.00014242941
0.00016990457
0.0002054184
0.00015340277
0.00011551545
0.00011410217
0.00014216285
0.00015830837
0.00012652902
6.7514586e-05
4.0942298e-05
4.5070983e-06
8.6668344e-06
1.1675706e-05
1.6925918e-05
2.7828006e-05
5.4109591e-05
9.7339257e-05
0.000119689
0.00012645717
0.00014971058
0.00017005023
0.00015982321
0.00019771356
0.0002567978
0.00027077468
0.00018725999
0.00015520702
0.00015350159
0.00017039777
0.00017651148
0.00013795298
8.2829839e-05
6.1646576e-05
5.727929e-06
1.4145445e-05
1.4631651e-05
1.8774032e-05
2.9259934e-05
5.551653e-05
0.00010188716
0.00013759785
0.00016499796
0.00016541122
0.0002137932
0.00032449923
0.00039056184
0.0003813048
0.00030386404
0.00021112498
0.00018193102
0.00017999003
0.00019366979
0.00017890873
0.00013540606
0.00010493324
9.5936617e-05
4.9300289e-06
1.386642e-05
2.1578909e-05
2.4904737e-05
3.293165e-05
5.3182013e-05
9.9111911e-05
0.00013717263
0.00020353456
0.00026287987
0.00033831336
0.00032187248
0.00044101587
0.00041753967
0.00033997343
0.00029173871
0.00027412805
0.00026730744
0.00023641517
0.00018784403
0.00015702685
0.00016129768
0.00019244235
3.886285e-06
1.72512e-05
1.7354265e-05
2.7193942e-05
4.487594e-05
6.2858632e-05
0.00010701009
0.00019338104
0.00028940948
0.00033636725
0.00024276257
0.00023188347
0.00030752132
0.00046990206
0.00045427087
0.00043424864
0.00040266601
0.00035604429
0.00028261028
0.0002309398
0.00022616569
0.00024147952
0.00021991279
3.9468826e-06
1.8056282e-05
1.9048022e-05
2.9833332e-05
6.7147956e-05
0.00012852421
0.0002287528
0.00021733327
0.00022044247
0.00030478318
0.00039633611
0.00043005914
0.00045714256
0.0005475106
0.00058863552
0.00057722524
0.0005363632
0.00045054057
0.00034993503
0.00028913227
0.00025206288
0.0002275958
0.00018819223
5.4677256e-06
2.5145455e-05
3.9465898e-05
5.648367e-05
6.7079667e-05
9.9658709e-05
0.00020285505
0.00035102145
0.00040350866
0.00040118074
0.00043988175
0.00050772777
0.00057396731
0.00063625758
0.00068929658
0.00069013978
0.00061882967
0.00050046418
0.00038281817
0.00029665953
0.00024068671
0.0002052521
0.00016795735
7.90975e-06
3.9922137e-05
5.1204503e-05
7.4278838e-05
0.00011866458
0.00019384842
0.00029287481
0.00039212299
0.00048084845
0.00041314876
0.00039294682
0.00055333545
0.00067769148
0.00069201794
0.00060181874
0.00058205878
0.00061790863
0.00052618417
0.00041185394
0.00031419774
0.00024784293
0.00020022642
0.00015182308
6.3587584e-06
4.4156738e-05
6.9664486e-05
0.00010847295
0.00016330469
0.0002458447
0.00034562413
0.00044422232
0.0005023948
0.00063872285
0.00070409115
0.00073825261
0.00065332155
0.0006928645
0.00064798491
0.00062160014
0.00060862863
0.00057169302
0.000476678
0.00035393321
0.00025986093
0.00019313224
0.00013886879
5.1848467e-06
3.6191715e-05
4.6921485e-05
0.00010153844
0.00021322036
0.00029514942
0.00041606405
0.00050211229
0.00057420069
0.00049333629
0.00065028483
0.00077964985
0.00077117295
0.00073010384
0.00068049551
0.00064417866
0.00063117509
0.00059785877
0.00050563823
0.00037445445
0.00026096318
0.00017329876
0.00013866863
6.3971602e-06
4.8251455e-05
7.1635675e-05
0.00012444683
0.00025217699
0.00035771249
0.0004636679
0.00054487146
0.0006018839
0.00065403469
0.00072447734
0.00075158314
0.00084301384
0.00082331757
0.0007607293
0.00070127774
0.00063765093
0.00054677071
0.00043835019
0.00033423323
0.00024444986
0.00017738428
0.00015521176
7.7367786e-06
5.3046663e-05
9.528989e-05
0.0001755935
0.00026199613
0.00036766206
0.00048440537
0.00058771256
0.0006654683
0.0007226561
0.00077409436
0.00082353708
0.00080428802
0.00087375546
0.00083299934
0.0007540347
0.00064438237
0.00051660023
0.00040007828
0.00031398621
0.00024333439
0.00019805386
0.00018221702
7.6503552e-06
6.2951893e-05
0.0001117966
0.00020324865
0.00029603409
0.00040151319
0.00051913046
0.00063524211
0.00073523799
0.00080127829
0.00083815302
0.0008460403
0.00084063541
0.00083755744
0.00082463358
0.00076225069
0.00063056653
0.00047308449
0.00034529413
0.00026165342
0.00020890575
0.00019382073
0.00018694603
7.6386838e-06
6.9714829e-05
9.503475e-05
0.00021081663
0.00030924743
0.00041319714
0.00051571857
0.00061277116
0.00071028799
0.00079984607
0.0008601558
0.00087666312
0.00085963986
0.00083292419
0.0008146573
0.0007928728
0.00072541305
0.00059232327
0.00043633063
0.00031053196
0.00022636234
0.00019071001
0.00018156751
8.4595902e-06
9.8509318e-05
0.00015336587
0.00021391403
0.0003084971
0.00041003236
0.00051057834
0.00059695683
0.00067622043
0.00075605055
0.00083410231
0.00088904095
0.00090423519
0.00088470114
0.00084810261
0.00081015621
0.00076065124
0.00066736031
0.0005396369
0.00040260283
0.00028751094
0.00021830068
0.00018959811
9.068615e-06
0.00011352326
0.00017989282
0.00023588355
0.00030606192
0.00039610746
0.00049645926
0.00058973264
0.00066903336
0.00073808716
0.00080236294
0.00086199613
0.00090538413
0.00091783295
0.00089585939
0.00084915208
0.00079044858
0.00070586488
0.0005978333
0.00047758607
0.0003577971
0.00026412508
0.00021275674
8.2521511e-06
0.00011588284
0.00020067528
0.00025967318
0.00031723894
0.00038956629
0.00047769419
0.00057196918
0.00066009283
0.00073449346
0.00079230594
0.00083658763
0.00087121392
0.00089502712
0.00090001566
0.0008767643
0.00083117416
0.00076269525
0.00066039113
0.00054622072
0.0004271078
0.00031934124
0.00024326378
7.6274279e-06
0.0001080387
0.00020022511
0.00028088529
0.00033782188
0.00039765154
0.0004668351
0.00054366091
0.00062489313
0.00070474764
0.000772427
0.0008214196
0.00085261928
0.00087140382
0.0008800683
0.00087461805
0.00085153779
0.00081041053
0.0007345616
0.00063006201
0.00051142529
0.00039200646
0.00028710165
7.6516535e-06
9.2696717e-05
0.0001943374
0.00028270444
0.00034862535
0.00040710918
0.00046617328
0.00052697449
0.00059223071
0.00066230655
0.00073300548
0.00079519323
0.0008409525
0.0008687718
0.00088028378
0.00087661028
0.00085769526
0.00082821388
0.00077990702
0.00069547975
0.0005912481
0.00047567086
0.00034974153
7.63755e-06
7.2699812e-05
0.00015511949
0.00025405659
0.00033416927
0.00040071422
0.0004635996
0.00052273089
0.00058180196
0.00064196479
0.0007023806
0.00076017023
0.00081032513
0.00084836741
0.00087132967
0.00087772765
0.0008667154
0.00084034053
0.00080310609
0.00074352528
0.00065602473
0.00055577407
0.00042530065
7.4287603e-06
5.6627341e-05
0.00011666025
0.0002118471
0.00030220736
0.00037964731
0.00044786381
0.00051159973
0.00057090961
0.00062821883
0.00068254377
0.00073207489
0.00077567407
0.00081206209
0.00083986642
0.00085693077
0.00086066491
0.00084899423
0.0008242333
0.000785851
0.00071844387
0.000635388
0.00051167696
7.2747499e-06
4.8735947e-05
9.1611366e-05
0.00016879502
0.00025796395
0.00034311513
0.00041817362
0.0004845775
0.00054523994
0.00060097225
0.00065421125
0.00070416869
0.00074908216
0.00078761391
0.00081831771
0.00083979381
0.00085047875
0.00084852409
0.00083292655
0.00080709462
0.00076629922
0.00069928925
0.00059249387
7.2596167e-06
4.4922109e-05
8.0560382e-05
0.00014072394
0.00021535241
0.00029596248
0.00037465078
0.00044638272
0.00051179672
0.00057113572
0.0006249196
0.00067506043
0.0007211843
0.00076195303
0.00079581961
0.00082098251
0.00083593756
0.0008396522
0.00083151277
0.00081186623
0.0007844401
0.00074391454
0.00066179814
7.2665197e-06
3.1069289e-05
6.9088459e-05
0.00012169012
0.00018216706
0.00025091807
0.0003244518
0.00039771925
0.00046730166
0.00053305869
0.00059195529
0.00064386277
0.00068954945
0.00072923317
0.00076268497
0.00078938838
0.00080852555
0.00081930639
0.00082096553
0.00081291647
0.00079493569
0.00077177941
0.00072046105
7.0951438e-06
2.4236398e-05
6.3832431e-05
0.00011159314
0.00016137139
0.00021817221
0.00028176598
0.00034878812
0.00041583102
0.00048092432
0.00054256807
0.0005973604
0.0006459953
0.00068851503
0.00072541987
0.000756474
0.00078097949
0.00079794823
0.00080657647
0.00080624921
0.00079657415
0.00078001464
0.00074979221
6.9548392e-06
2.3996135e-05
6.6998758e-05
0.00011069914
0.00015142718
0.00019709237
0.00024935265
0.00030695775
0.00036707981
0.00042778017
0.00048771893
0.00054371414
0.00059507878
0.00064141887
0.00068249426
0.00071790903
0.00074701855
0.00076888004
0.00078265034
0.0007878868
0.00078462893
0.00077520595
0.00075698042
6.6954324e-06
2.665346e-05
7.356311e-05
0.00011571926
0.00015049013
0.00018742029
0.0002295808
0.00027698685
0.00032826178
0.00038193201
0.00043650814
0.00049004538
0.00054109128
0.0005885403
0.00063147358
0.00066938254
0.00070184126
0.00072845941
0.00074884688
0.00076244317
0.0007688555
0.00076913701
0.00075976227
6.3730033e-06
2.9383872e-05
7.9761472e-05
0.00012146735
0.00015377558
0.00018518244
0.00021986562
0.00025865852
0.00030101506
0.00034609053
0.0003929087
0.00044027505
0.00048716185
0.00053251616
0.00057536911
0.00061500783
0.00065095762
0.00068281306
0.00071022853
0.00073259066
0.0007493424
0.00076071244
0.00076333055
6.1355726e-06
3.1395096e-05
8.4048787e-05
0.00012557756
0.00015551765
0.00018348935
0.00021273567
0.00024465471
0.00027948387
0.00031679582
0.00035590662
0.00039613801
0.00043690241
0.00047755846
0.0005174675
0.00055607427
0.00059289512
0.00062746345
0.0006593552
0.00068810781
0.00071331999
0.00073537459
0.00075507721
5.9453053e-06
3.2129154e-05
8.5169539e-05
0.00012594724
0.00015314088
0.00017813108
0.00020307028
0.00022966208
0.00025829923
0.00028898936
0.00032136913
0.00035488378
0.00038907224
0.00042366929
0.00045835854
0.00049292293
0.00052710821
0.0005605539
0.00059288297
0.00062387295
0.00065353862
0.00068272981
0.00071748391
5.7853717e-06
3.126989e-05
8.285637e-05
0.00012309021
0.0001488631
0.00017174942
0.00019438341
0.00021778252
0.00024225912
0.00026801163
0.00029502071
0.00032293749
0.00035145003
0.00038034613
0.00040956826
0.00043893408
0.0004683612
0.000497732
0.00052692819
0.00055589483
0.00058486217
0.00061494037
0.00065626631
5.6610801e-06
3.0612119e-05
8.1071114e-05
0.00012150642
0.00014784572
0.00017086011
0.00019361279
0.00021626511
0.00023895031
0.00026180937
0.00028511027
0.00030873115
0.00033243203
0.00035603078
0.00037942968
0.00040242767
0.00042497727
0.00044710588
0.00046906191
0.0004910101
0.0005132839
0.00053697541
0.00057005531
5.5343536e-06
3.0601588e-05
8.0963838e-05
0.00012257893
0.00015060125
0.00017498606
0.00019832743
0.00022113631
0.00024347992
0.00026490206
0.00028515937
0.0003043664
0.00032204697
0.00033804162
0.00035232713
0.00036491541
0.00037595354
0.00038567718
0.00038487415
0.00038727103
0.00039927568
0.00042097555
0.00042527575
5.4065196e-06
3.1048184e-05
8.1879161e-05
0.00012514382
0.00015490413
0.00018113443
0.0002060919
0.00023010312
0.00025224283
0.00027154437
0.00028737885
0.00029931397
0.00030718552
0.00031103573
0.0003111264
0.00030780066
0.00030162113
0.00029280437
0.00028191499
0.00026931385
0.00025514843
0.00023846431
0.0002537756
5.2612889e-06
3.203436e-05
8.4283899e-05
0.00013048872
0.00016480917
0.00019633971
0.000224282
0.00024779948
0.0002661261
0.00027880147
0.00028543911
0.00028641753
0.00028097825
0.00026925207
0.00025182556
0.00022949182
0.00020299242
0.00017287552
0.000139431
0.00010541717
7.8287582e-05
5.6375076e-05
6.123045e-05
5.1144437e-06
3.509596e-05
9.1879828e-05
0.00014472137
0.00018536694
0.00021794656
0.00024328597
0.0002620749
0.00027351496
0.00027737071
0.00027433382
0.00026241313
0.00024208921
0.00021411524
0.00017955468
0.00013944729
9.5407506e-05
5.6549681e-05
3.4121495e-05
2.5345678e-05
2.4300952e-05
2.5643983e-05
3.3732972e-05
4.9643355e-06
4.4384128e-05
0.0001086926
0.0001652773
0.00020639203
0.00023651172
0.0002575186
0.00026958114
0.00027290953
0.00026818865
0.00025308957
0.00022786099
0.00019323983
0.00015084828
0.00010233143
5.4152733e-05
2.743626e-05
1.9284684e-05
1.7593688e-05
1.8711626e-05
2.1299392e-05
2.2617637e-05
2.5512391e-05
4.82247e-06
5.7843197e-05
0.00012760824
0.00018487775
0.00022444789
0.00025072082
0.000265698
0.00027039971
0.00026581818
0.00025022594
0.00022334229
0.00018543623
0.0001385802
8.4985997e-05
3.915671e-05
1.9682846e-05
1.5540589e-05
1.4753939e-05
1.5372236e-05
1.6576709e-05
1.7381615e-05
1.7518427e-05
1.9467087e-05
4.6980991e-06
6.6173476e-05
0.0001440981
0.00020179685
0.00023882078