/*--------------------------------*- C++ -*----------------------------------*\
| =========                 |                                                 |
| \\      /  F ield         | OpenFOAM: The Open Source CFD Toolbox           |
|  \\    /   O peration     | Version:  2406                                  |
|   \\  /    A nd           | Website:  www.openfoam.com                      |
|    \\/     M anipulation  |                                                 |
\*---------------------------------------------------------------------------*/
FoamFile
{
    version     2.0;
    format      ascii;
    arch        "LSB;label=32;scalar=64";
    class       volScalarField;
    location    "100";
    object      k_0;
}
// * * * * * * * * * * * * * * * * * * * * * * * * * * * * * * * * * * * * * //

dimensions      [0 2 -2 0 0 0 0];

internalField   nonuniform List<scalar> 
20580
(
3.138417e-06
2.3883004e-06
1.9402396e-06
1.5972677e-06
1.350039e-06
1.1790477e-06
1.0547213e-06
9.5903723e-07
8.8027486e-07
8.155389e-07
7.6393952e-07
7.2138592e-07
6.850367e-07
6.5503352e-07
6.2724611e-07
6.0234778e-07
5.8236555e-07
5.640359e-07
5.5219185e-07
5.4034141e-07
5.287194e-07
5.1544823e-07
4.9818149e-07
5.0198942e-07
5.1099945e-07
5.2830806e-07
5.473548e-07
5.6340114e-07
5.8539906e-07
6.3130808e-07
7.1252228e-07
3.142365e-06
2.3987309e-06
1.9594142e-06
1.6256599e-06
1.3683347e-06
1.1902605e-06
1.0618381e-06
9.6354361e-07
8.8352881e-07
8.1725792e-07
7.644631e-07
7.2110206e-07
6.8369485e-07
6.5315114e-07
6.2471767e-07
6.0022011e-07
5.8119431e-07
5.6333083e-07
5.5581094e-07
5.4599049e-07
5.3981656e-07
5.3493797e-07
5.1811457e-07
5.1473429e-07
5.1968322e-07
5.3896678e-07
5.708355e-07
6.0452093e-07
6.1480343e-07
6.4367674e-07
7.0150395e-07
3.1438637e-06
2.3998818e-06
1.9554706e-06
1.637458e-06
1.3982665e-06
1.2118364e-06
1.0768576e-06
9.7401146e-07
8.906647e-07
8.2206857e-07
7.674799e-07
7.2258251e-07
6.840274e-07
6.5224153e-07
6.2376843e-07
5.9743908e-07
5.7802972e-07
5.6005849e-07
5.5410233e-07
5.448827e-07
5.3873536e-07
5.3811394e-07
5.3079407e-07
5.2449446e-07
5.2647528e-07
5.4116185e-07
5.6996996e-07
5.9883268e-07
6.2824156e-07
6.5822786e-07
7.1786831e-07
3.1482988e-06
2.4028017e-06
1.9489887e-06
1.6335013e-06
1.4095907e-06
1.2500623e-06
1.118298e-06
1.0044819e-06
9.1282213e-07
8.3714694e-07
7.7790077e-07
7.2905334e-07
6.8805318e-07
6.5376575e-07
6.2503964e-07
5.9772553e-07
5.7667646e-07
5.5861128e-07
5.508078e-07
5.4149781e-07
5.3571538e-07
5.3734179e-07
5.3358112e-07
5.3230775e-07
5.3491694e-07
5.4668423e-07
5.7272248e-07
5.9761733e-07
6.2285689e-07
6.4486371e-07
7.0555709e-07
3.1555442e-06
2.4181194e-06
1.9554614e-06
1.6328213e-06
1.4183972e-06
1.2756313e-06
1.1675407e-06
1.0736964e-06
9.7748089e-07
8.8629708e-07
8.1095047e-07
7.5082326e-07
7.0368845e-07
6.6315989e-07
6.321147e-07
6.0213073e-07
5.7789303e-07
5.5996761e-07
5.4902386e-07
5.3982451e-07
5.326596e-07
5.3494119e-07
5.3406109e-07
5.3619132e-07
5.4272568e-07
5.5651541e-07
5.9003176e-07
6.1595746e-07
6.4548747e-07
6.6204199e-07
7.0235218e-07
3.1652497e-06
2.4459121e-06
1.9661268e-06
1.6376214e-06
1.4230681e-06
1.2872432e-06
1.1881948e-06
1.1107712e-06
1.0368038e-06
9.5987435e-07
8.8936325e-07
8.1633295e-07
7.5595534e-07
6.9963682e-07
6.5803629e-07
6.2044016e-07
5.885023e-07
5.6716232e-07
5.5102569e-07
5.4008817e-07
5.3250789e-07
5.3368574e-07
5.3234439e-07
5.3409691e-07
5.426935e-07
5.5622087e-07
5.8261016e-07
6.3630664e-07
6.7264445e-07
7.3794415e-07
7.4865849e-07
3.1792015e-06
2.4537883e-06
1.9614578e-06
1.634066e-06
1.4204474e-06
1.283515e-06
1.1884418e-06
1.1128106e-06
1.0512376e-06
9.8921776e-07
9.4006555e-07
8.8654944e-07
8.3528121e-07
7.8153336e-07
7.3016266e-07
6.7937469e-07
6.3147216e-07
5.9601362e-07
5.6667493e-07
5.4826878e-07
5.3662985e-07
5.3436258e-07
5.2922852e-07
5.2709821e-07
5.3487787e-07
5.4547956e-07
5.6212054e-07
6.1722128e-07
6.6470319e-07
7.418188e-07
7.897312e-07
3.2943794e-06
2.5737001e-06
1.9963542e-06
1.6384329e-06
1.4050426e-06
1.2605025e-06
1.1667698e-06
1.0928846e-06
1.0371042e-06
9.8359193e-07
9.4212411e-07
9.0340917e-07
8.6459937e-07
8.272803e-07
7.818907e-07
7.3982108e-07
6.9222248e-07
6.5724131e-07
6.1478976e-07
5.8422145e-07
5.5824922e-07
5.4403046e-07
5.3386026e-07
5.2810626e-07
5.3261091e-07
5.3771191e-07
5.4134957e-07
5.6159712e-07
6.1213123e-07
6.8425124e-07
7.7887143e-07
3.690801e-06
3.0580956e-06
2.1757968e-06
1.6954406e-06
1.4173467e-06
1.2477591e-06
1.1277492e-06
1.0306988e-06
9.7069436e-07
9.2779002e-07
9.0370486e-07
8.7993579e-07
8.5185842e-07
8.2339401e-07
7.8480781e-07
7.487721e-07
7.1217196e-07
6.8162918e-07
6.4982292e-07
6.226004e-07
6.0428929e-07
5.8082044e-07
5.624776e-07
5.4814457e-07
5.4399541e-07
5.4658989e-07
5.4850634e-07
5.5994571e-07
5.9938144e-07
6.444972e-07
7.1588374e-07
3.5041131e-06
3.2994e-06
2.6657204e-06
1.9520586e-06
1.5455946e-06
1.3045961e-06
1.1487226e-06
1.033459e-06
9.5039806e-07
8.8825676e-07
8.4244101e-07
8.0830638e-07
7.8078796e-07
7.6013163e-07
7.3540696e-07
7.1269589e-07
6.9006212e-07
6.7031557e-07
6.4764464e-07
6.2852122e-07
6.1818041e-07
6.023341e-07
5.9502218e-07
5.9359873e-07
5.9009646e-07
5.8892956e-07
5.9144955e-07
5.970923e-07
6.2691986e-07
6.6309325e-07
7.2594779e-07
2.9689227e-06
2.9416266e-06
2.7690884e-06
2.4542792e-06
2.0769014e-06
1.6875765e-06
1.3785399e-06
1.1732586e-06
1.0337147e-06
9.3791721e-07
8.6830241e-07
8.167805e-07
7.757028e-07
7.4118185e-07
7.0754072e-07
6.7855073e-07
6.5211806e-07
6.3308651e-07
6.1725076e-07
6.1041985e-07
6.051926e-07
5.9764787e-07
5.9930301e-07
6.0663101e-07
6.1174298e-07
6.1927374e-07
6.3532736e-07
6.6551964e-07
6.9580436e-07
7.506052e-07
7.7274421e-07
3.2572246e-06
2.6254984e-06
2.4537688e-06
2.3512516e-06
2.2128621e-06
2.1393403e-06
2.0059172e-06
1.8112367e-06
1.5727323e-06
1.3623618e-06
1.164983e-06
1.0355172e-06
9.4100783e-07
8.6839042e-07
8.0433104e-07
7.4851895e-07
6.9973638e-07
6.6160163e-07
6.2983593e-07
6.1370992e-07
6.0250098e-07
5.8952966e-07
5.9196682e-07
6.0268626e-07
6.0865028e-07
6.1330937e-07
6.2815141e-07
6.588144e-07
6.9402534e-07
7.4669549e-07
8.0860274e-07
3.6891343e-06
3.1565801e-06
2.5256616e-06
2.1313538e-06
1.9460587e-06
1.9286873e-06
1.9256083e-06
1.8885578e-06
1.8661118e-06
1.8296268e-06
1.8024023e-06
1.7501599e-06
1.6764101e-06
1.5749247e-06
1.4467706e-06
1.3039504e-06
1.1557619e-06
1.0115452e-06
8.7561675e-07
7.722872e-07
7.0056642e-07
6.4768279e-07
6.1973752e-07
6.1876746e-07
6.1661769e-07
6.1390633e-07
6.1855552e-07
6.3665362e-07
6.6292504e-07
6.9479918e-07
7.5388112e-07
3.2651147e-06
3.041149e-06
2.5841969e-06
2.1649412e-06
1.8611402e-06
1.6764435e-06
1.5605488e-06
1.5526108e-06
1.5641402e-06
1.5958868e-06
1.6603678e-06
1.7146336e-06
1.7266017e-06
1.7232757e-06
1.6964144e-06
1.6236596e-06
1.5255014e-06
1.4188412e-06
1.3106828e-06
1.212988e-06
1.1026393e-06
9.9925515e-07
8.9585477e-07
8.3240458e-07
7.5977487e-07
7.0831476e-07
6.7624126e-07
6.78476e-07
6.9490015e-07
7.159628e-07
7.5323059e-07
3.2725693e-06
2.872631e-06
2.4379256e-06
2.081347e-06
1.7903599e-06
1.5983222e-06
1.451146e-06
1.3543504e-06
1.2915007e-06
1.2624356e-06
1.2650125e-06
1.2933266e-06
1.3312608e-06
1.3551074e-06
1.359817e-06
1.3539078e-06
1.3232919e-06
1.2759748e-06
1.2294879e-06
1.1857365e-06
1.1421151e-06
1.1047137e-06
1.0724271e-06
1.0571602e-06
1.0530043e-06
1.0252982e-06
9.894492e-07
9.6370491e-07
9.4308606e-07
9.3762748e-07
9.0136873e-07
3.1519724e-06
2.7006405e-06
2.2956261e-06
1.9762585e-06
1.7165907e-06
1.5443757e-06
1.4033051e-06
1.2876307e-06
1.1976086e-06
1.1388948e-06
1.1089684e-06
1.0984917e-06
1.0899659e-06
1.0843372e-06
1.0750994e-06
1.0614827e-06
1.0361681e-06
1.0071126e-06
9.8800564e-07
9.7103056e-07
9.7110084e-07
9.7943732e-07
9.9054014e-07
1.0042409e-06
1.0291259e-06
1.0623957e-06
1.0842142e-06
1.1219365e-06
1.1488135e-06
1.2130715e-06
1.2407664e-06
3.2415654e-06
2.6829313e-06
2.2404508e-06
1.9034293e-06
1.663693e-06
1.5220194e-06
1.3977944e-06
1.287531e-06
1.1939722e-06
1.1298609e-06
1.0872506e-06
1.0623528e-06
1.0389991e-06
1.018546e-06
9.8687816e-07
9.4769165e-07
9.1510079e-07
8.7822293e-07
8.5246789e-07
8.2819855e-07
8.0845836e-07
8.1130841e-07
8.1894725e-07
8.3033082e-07
8.5732452e-07
9.1422498e-07
9.6925751e-07
1.0198888e-06
1.0676245e-06
1.1226526e-06
1.2134968e-06
3.2099513e-06
2.6693491e-06
2.2494843e-06
1.9195893e-06
1.6673171e-06
1.5001175e-06
1.3714594e-06
1.2606439e-06
1.1710888e-06
1.1092173e-06
1.0718845e-06
1.0548594e-06
1.0446597e-06
1.0318169e-06
1.0081059e-06
9.7104354e-07
9.314539e-07
8.9019408e-07
8.5093275e-07
8.1086179e-07
7.7820888e-07
7.61941e-07
7.4955296e-07
7.4074161e-07
7.4112492e-07
7.5742552e-07
7.8467283e-07
8.0112616e-07
8.3364524e-07
8.5923161e-07
9.4695253e-07
3.1716802e-06
2.5282179e-06
2.1250002e-06
1.8385584e-06
1.621581e-06
1.4524379e-06
1.3178358e-06
1.1995845e-06
1.1072246e-06
1.0405085e-06
1.0017275e-06
9.8516651e-07
9.775083e-07
9.6814905e-07
9.5210995e-07
9.297609e-07
9.0346616e-07
8.761807e-07
8.461951e-07
8.1627984e-07
7.8739004e-07
7.7264453e-07
7.6131503e-07
7.4772245e-07
7.4210824e-07
7.5142589e-07
7.7080187e-07
7.8797801e-07
8.0727097e-07
8.2839743e-07
8.6415292e-07
3.1419456e-06
2.6690127e-06
2.2177919e-06
1.9176354e-06
1.6780687e-06
1.5138089e-06
1.3695709e-06
1.2461194e-06
1.1474646e-06
1.0767319e-06
1.0292759e-06
9.9802334e-07
9.7174171e-07
9.4816525e-07
9.2408192e-07
9.0183715e-07
8.7489795e-07
8.5123339e-07
8.3234121e-07
8.1757397e-07
8.0906241e-07
8.1196548e-07
8.2208054e-07
8.2702005e-07
8.2941573e-07
8.4563319e-07
8.6871066e-07
8.9996902e-07
9.1097006e-07
9.4386208e-07
9.4339552e-07
3.1815609e-06
2.9178894e-06
2.5624853e-06
2.3833183e-06
2.1706525e-06
2.0561317e-06
1.9295922e-06
1.8202423e-06
1.735021e-06
1.686749e-06
1.6390063e-06
1.6063504e-06
1.5708412e-06
1.5368775e-06
1.5124055e-06
1.4824868e-06
1.4553394e-06
1.4333782e-06
1.4291958e-06
1.433884e-06
1.4354474e-06
1.4735113e-06
1.5268008e-06
1.5614859e-06
1.5738533e-06
1.6119534e-06
1.6628558e-06
1.7110187e-06
1.7231353e-06
1.7170992e-06
1.6366224e-06
4.4329434e-06
1.1015937e-05
8.3118781e-06
7.9331015e-06
7.1438177e-06
7.3184762e-06
6.7668472e-06
6.5940996e-06
6.2014405e-06
6.5552323e-06
6.2142422e-06
6.5592967e-06
6.3412589e-06
6.4728275e-06
6.4591945e-06
6.4831914e-06
6.5040272e-06
6.4854048e-06
6.5304373e-06
6.5561125e-06
6.5534149e-06
6.600266e-06
6.6856247e-06
6.6638494e-06
6.566012e-06
6.4898106e-06
6.4602833e-06
6.4140538e-06
6.2966415e-06
6.1491585e-06
5.8542242e-06
1.8977934e-05
8.4277013e-05
4.6255379e-05
4.8784789e-05
3.9169382e-05
3.2642489e-05
3.4166668e-05
2.9340017e-05
2.9777354e-05
2.6824714e-05
2.8021269e-05
2.5902444e-05
2.7043544e-05
2.5444316e-05
2.5543639e-05
2.5126349e-05
2.46412e-05
2.4230018e-05
2.3670797e-05
2.3032245e-05
2.2538434e-05
2.1898787e-05
2.1118866e-05
2.0386398e-05
1.9906169e-05
1.92715e-05
1.8472975e-05
1.7685014e-05
1.6715641e-05
1.623434e-05
1.5311895e-05
1.447597e-05
6.1397289e-06
1.8781961e-06
1.0404621e-06
9.2445059e-07
9.8651031e-07
1.2679574e-06
1.3367335e-06
1.0298946e-06
8.4638745e-07
8.2256338e-07
8.9656201e-07
8.7249472e-07
8.0583949e-07
7.8096148e-07
8.3942174e-07
8.6986599e-07
8.4964951e-07
7.8864921e-07
7.8002238e-07
7.814416e-07
7.7263502e-07
7.6178007e-07
1.3141172e-05
6.5933313e-06
2.1355353e-06
1.1571087e-06
9.8988144e-07
1.0056866e-06
1.2937275e-06
1.4967428e-06
1.2270973e-06
9.7305241e-07
9.089929e-07
1.0030818e-06
1.0005296e-06
9.2208e-07
8.5585448e-07
8.8764044e-07
9.8188492e-07
9.9439913e-07
9.562208e-07
8.8897244e-07
8.8976124e-07
8.7610671e-07
8.5496443e-07
1.2221e-05
7.0964327e-06
2.5258194e-06
1.3481838e-06
1.1124363e-06
1.0606201e-06
1.3136972e-06
1.6594072e-06
1.5397315e-06
1.1797122e-06
1.0171371e-06
1.1131524e-06
1.1094699e-06
1.0574098e-06
9.6577474e-07
9.7536812e-07
1.0798476e-06
1.0919468e-06
1.0621904e-06
9.7765237e-07
9.8125429e-07
9.8856979e-07
9.890622e-07
1.1494594e-05
7.4427723e-06
2.8723444e-06
1.5910756e-06
1.3087949e-06
1.1922716e-06
1.4194414e-06
1.9028593e-06
1.8651733e-06
1.5537285e-06
1.1797183e-06
1.2274994e-06
1.3073028e-06
1.2841065e-06
1.2059435e-06
1.1416861e-06
1.2239275e-06
1.2747804e-06
1.2336346e-06
1.1151113e-06
1.0625062e-06
1.0742958e-06
1.0728036e-06
1.0695905e-05
7.8226814e-06
3.4481851e-06
1.9779605e-06
1.5768582e-06
1.3920561e-06
1.6221049e-06
2.277478e-06
2.2457666e-06
1.9691359e-06
1.479073e-06
1.4016233e-06
1.5332888e-06
1.5510277e-06
1.5242698e-06
1.4308897e-06
1.4255442e-06
1.4972086e-06
1.4775503e-06
1.4106912e-06
1.2568861e-06
1.2573143e-06
1.2321094e-06
1.0514236e-05
8.0661603e-06
4.1101151e-06
2.6369566e-06
2.0962584e-06
1.7401525e-06
1.8845153e-06
2.6106595e-06
2.5869708e-06
2.333195e-06
1.8040621e-06
1.6281759e-06
1.8012765e-06
1.8158829e-06
1.7212299e-06
1.6537413e-06
1.6000433e-06
1.7360223e-06
1.7596046e-06
1.7676869e-06
1.6642587e-06
1.5541644e-06
1.514548e-06
1.1245834e-05
8.3925535e-06
4.5157272e-06
3.0548427e-06
2.4715846e-06
2.0358422e-06
2.0891597e-06
2.9498233e-06
2.9997583e-06
2.8363347e-06
2.305305e-06
1.9834783e-06
2.0926467e-06
2.1039685e-06
1.9430547e-06
1.835222e-06
1.7808464e-06
1.851357e-06
2.0157455e-06
2.0283467e-06
2.0108681e-06
1.8901342e-06
1.8340938e-06
1.2349668e-05
8.7338897e-06
5.2087219e-06
3.8798287e-06
3.128597e-06
2.5782569e-06
2.5084102e-06
3.6275882e-06
3.9463894e-06
3.8160388e-06
3.2154656e-06
2.5291254e-06
2.4945461e-06
2.5757971e-06
2.4048889e-06
2.1885732e-06
2.0830987e-06
2.1079184e-06
2.2702417e-06
2.2900178e-06
2.2276043e-06
2.0971648e-06
2.0130219e-06
1.3403494e-05
9.1855749e-06
6.3066036e-06
5.1969038e-06
4.1669407e-06
3.4161219e-06
3.229807e-06
4.7833068e-06
5.5701285e-06
5.2977941e-06
4.7873795e-06
3.6225268e-06
3.1936671e-06
3.4176949e-06
3.3776913e-06
3.0584297e-06
2.7327774e-06
2.6192115e-06
2.7742903e-06
2.8055411e-06
2.6204314e-06
2.3594433e-06
2.1898962e-06
1.4808301e-05
9.6908254e-06
7.3898386e-06
6.9377584e-06
6.0167032e-06
4.9288854e-06
4.2761335e-06
6.1070901e-06
7.0135687e-06
6.5769641e-06
6.0470005e-06
4.862008e-06
4.0543329e-06
4.324598e-06
4.4197661e-06
4.2046776e-06
3.9843454e-06
3.6903371e-06
3.7321795e-06
3.786596e-06
3.5293842e-06
2.9941959e-06
2.589382e-06
1.7260032e-05
1.0598505e-05
9.0542436e-06
9.0937958e-06
8.5333956e-06
6.8276918e-06
5.67778e-06
7.6797974e-06
8.7592318e-06
8.2326299e-06
7.3445373e-06
5.9666816e-06
4.9917047e-06
5.1954731e-06
5.3531712e-06
5.20476e-06
4.8756058e-06
4.7408817e-06
4.7639026e-06
5.1476195e-06
5.0725698e-06
4.5224529e-06
3.6308922e-06
2.0809881e-05
1.2531629e-05
1.2280233e-05
1.294359e-05
1.287182e-05
1.0571003e-05
8.0537652e-06
1.0245251e-05
1.1819857e-05
1.1466919e-05
9.8849815e-06
7.8881274e-06
6.5075904e-06
6.4402054e-06
6.5795619e-06
6.2638487e-06
5.57839e-06
5.4438041e-06
5.3960374e-06
5.8533631e-06
6.2620912e-06
6.2367205e-06
5.6772493e-06
2.5313913e-05
1.6037342e-05
1.6214539e-05
1.6064896e-05
1.639666e-05
1.5262902e-05
1.238544e-05
1.5601532e-05
1.89431e-05
1.8676473e-05
1.556917e-05
1.1882694e-05
9.4836512e-06
8.8542359e-06
8.9231603e-06
8.3483239e-06
6.9561881e-06
6.3628057e-06
6.1271859e-06
6.4116079e-06
7.1157198e-06
7.2334507e-06
6.8066769e-06
3.0285375e-05
2.0586829e-05
2.1537359e-05
2.2929379e-05
2.5369058e-05
2.5392606e-05
2.1638008e-05
2.4691563e-05
3.1565626e-05
3.2072305e-05
2.7667457e-05
2.1286816e-05
1.6206717e-05
1.4508286e-05
1.4857907e-05
1.3536332e-05
1.0357224e-05
8.2548689e-06
7.5472924e-06
7.5176601e-06
8.2422977e-06
8.4202009e-06
8.1255765e-06
3.5681046e-05
2.6110018e-05
2.7215562e-05
2.892313e-05
3.3933415e-05
3.7935237e-05
3.8829767e-05
4.3843577e-05
5.2625811e-05
5.2019206e-05
4.2121168e-05
3.6839954e-05
2.9389132e-05
2.6614547e-05
2.7240639e-05
2.6027043e-05
2.114168e-05
1.3355133e-05
1.0707514e-05
9.9730787e-06
1.0804062e-05
1.0950487e-05
1.0528621e-05
3.9938535e-05
3.197895e-05
3.2847747e-05
3.6540169e-05
4.7498578e-05
6.8595025e-05
7.989438e-05
8.7846429e-05
9.3118216e-05
8.310288e-05
6.2569724e-05
5.9178653e-05
4.8513178e-05
3.9887007e-05
3.8315769e-05
3.7318591e-05
3.2561397e-05
2.1963371e-05
1.7617191e-05
1.5866383e-05
1.7147056e-05
1.6985288e-05
1.5584827e-05
4.4627545e-05
3.9120074e-05
3.939356e-05
4.2652968e-05
5.7227543e-05
9.7785905e-05
0.00015331625
0.00018463441
0.00017727898
0.0001430513
9.2728141e-05
7.6023779e-05
6.7763518e-05
5.9261104e-05
5.6825208e-05
5.4217425e-05
4.4206284e-05
3.4580831e-05
3.1759517e-05
3.0099427e-05
3.4359558e-05
3.355696e-05
2.7797391e-05
4.8683882e-05
4.6742374e-05
4.7201467e-05
5.0565627e-05
7.0771589e-05
0.0001395898
0.00028904712
0.00036496391
0.00033237435
0.00021288534
0.00011804398
0.0001006312
0.00010352165
0.00010243818
9.9569937e-05
9.0490331e-05
6.0212644e-05
4.4948028e-05
4.5132393e-05
4.632303e-05
5.6687164e-05
6.0397853e-05
5.114045e-05
4.9990487e-05
5.166356e-05
5.3147196e-05
5.7783503e-05
8.4431726e-05
0.00018539248
0.00044279018
0.0005815382
0.0005165673
0.00029162185
0.00016308422
0.00014757135
0.00018759771
0.00022801642
0.00023343998
0.00019043832
9.3614609e-05
6.0244943e-05
6.0028553e-05
6.3298753e-05
7.6849802e-05
7.7963719e-05
6.2764397e-05
4.9396017e-05
5.6737733e-05
6.0746621e-05
6.9728289e-05
0.00011061503
0.00025863482
0.00062830488
0.00081833033
0.0007206878
0.00040447748
0.00027657413
0.000281541
0.00044722696
0.00066166926
0.00067598774
0.00048208139
0.00018267567
9.613794e-05
9.0665287e-05
9.6419037e-05
0.00011250013
0.00010188889
6.5368928e-05
4.5528043e-05
5.9026697e-05
6.6405292e-05
8.2804847e-05
0.00014388492
0.0003398998
0.00078422876
0.0010059738
0.00090052343
0.00055767426
0.00043763415
0.00050927755
0.00088763424
0.001247852
0.0011881775
0.00078204873
0.00030158932
0.00016745033
0.00016145927
0.00018225737
0.00019881309
0.00014526554
7.7158955e-05
4.8647256e-05
6.3444329e-05
7.504418e-05
0.0001036632
0.00019508813
0.00044836617
0.0009354636
0.0011738723
0.0010874845
0.00074050605
0.00061890438
0.00077196315
0.0013681806
0.0018215834
0.0016512752
0.00096854333
0.00043511935
0.00031543219
0.00038176666
0.00049613314
0.00047953098
0.00026165107
0.00011390785
6.0378625e-05
7.297684e-05
9.0304949e-05
0.00012889201
0.00023880375
0.00051370502
0.0010040007
0.0012551256
0.0012181634
0.0010123721
0.00096436879
0.0012066216
0.0020100134
0.0024578979
0.0021027058
0.0011567554
0.00077671702
0.00079706825
0.0011626765
0.001347035
0.00099134226
0.00038645939
0.00019379327
9.0608978e-05
9.4279202e-05
0.0001170305
0.00015478462
0.00027146137
0.00055216956
0.0010517085
0.0013410172
0.0013679097
0.0013373698
0.0014139679
0.0018456226
0.0027667369
0.0030476876
0.0024024079
0.0014348856
0.0011912157
0.0013098531
0.0015759912
0.0015987725
0.0011135625
0.00051964771
0.00033941801
0.00015304399
0.00014273342
0.00015941628
0.00018340963
0.00028501754
0.00056571769
0.0010899205
0.0014329523
0.0015824161
0.001690706
0.0019761885
0.0027485427
0.0034549123
0.0033743526
0.0025364534
0.0017666704
0.0016010203
0.0017406966
0.0019148132
0.0016836518
0.0010668267
0.00070463708
0.0006459277
0.00024392292
0.00022283863
0.00023910512
0.00024603822
0.00030936594
0.00058618738
0.0011711519
0.0016200049
0.0018998375
0.0021819822
0.0027345891
0.0033522518
0.0037107471
0.0035218801
0.0028766182
0.002586404
0.002604567
0.0026523081
0.0023231258
0.0016606911
0.0012117875
0.001152228
0.0013552754
0.00029306446
0.00027549551
0.00030081148
0.0003210324
0.00038209114
0.00069751255
0.0013622691
0.0019131974
0.0023019077
0.0027006266
0.0031060785
0.0034366959
0.0037577306
0.003877621
0.00379746
0.0037488684
0.0036206922
0.0032358063
0.0024778207
0.0018683136
0.0016852758
0.0016940501
0.0015366209
0.0003029223
0.00029261519
0.00032442318
0.00037859583
0.00050658897
0.00090014408
0.0015678982
0.0021676067
0.0025880512
0.0029573806
0.003200889
0.0035246055
0.0039693952
0.0043390947
0.0045640713
0.0045264485
0.0041441909
0.0035473763
0.002758787
0.002205683
0.0018455522
0.0016367441
0.0013682473
0.00029645183
0.00029129455
0.00034322951
0.00043214958
0.0006188239
0.0010430917
0.0016733198
0.002296834
0.0027668667
0.0031507947
0.0034249604
0.0038268855
0.0042962952
0.0046010643
0.0047594366
0.004653091
0.0042649169
0.0036276625
0.002869378
0.0022090149
0.0017789671
0.0015196604
0.0012326118
0.00027542004
0.00029359976
0.00038659234
0.00050873279
0.0007483074
0.0011712852
0.0017705088
0.0023818992
0.0029246877
0.0033623141
0.0037116167
0.0041797592
0.0045065958
0.004586906
0.0044391273
0.0042399229
0.0040651946
0.0036047753
0.0029035803
0.0022116096
0.0017449326
0.001427585
0.0010490216
0.00022776451
0.00027324438
0.0004451778
0.00064641999
0.00090078879
0.001327341
0.0019001663
0.0024265773
0.0029065166
0.00335566
0.0038043225
0.0042320562
0.0043764696
0.0042861069
0.0040319851
0.0038912846
0.0038608524
0.003613671
0.0029522856
0.0021928038
0.0016661046
0.0012846587
0.00089372725
0.00021556896
0.00024989947
0.00043857136
0.00073427988
0.0010253605
0.0014368364
0.0019644699
0.0024258829
0.0027810866
0.0031213463
0.0036028462
0.0040548558
0.0042002869
0.004106428
0.0038989389
0.0037872405
0.003700864
0.0033794002
0.0027492105
0.0020741436
0.0015467033
0.0010786502
0.00085205447
0.00021825461
0.0002333469
0.00041544859
0.00072922517
0.0010246878
0.0014246707
0.0019111905
0.0023364474
0.002657744
0.0029628706
0.0033803972
0.003833165
0.0040686942
0.0040232109
0.0038545043
0.0037436858
0.0034781468
0.0029044441
0.0022673819
0.0017869566
0.001366834
0.0010082535
0.0008919659
0.00024100161
0.00024052814
0.00040810203
0.00070975873
0.00097524771
0.0013323271
0.0017772232
0.002204446
0.0025713456
0.0029101383
0.003273714
0.0035600355
0.0037238019
0.0037896835
0.0037729904
0.0036318102
0.0032389418
0.0026230912
0.002037988
0.001625539
0.0012571042
0.0010072192
0.00094175002
0.00024872654
0.00025899312
0.00042484262
0.00072042016
0.00098473901
0.0013244879
0.0017325888
0.0021385157
0.0025226004
0.0028831229
0.0032088356
0.0033982288
0.0034439024
0.0034603971
0.0035050167
0.0033804059
0.0029079603
0.002245292
0.0016876248
0.001288258
0.0010035306
0.00091602067
0.00091275904
0.00026397039
0.00031149902
0.00044262854
0.00067491054
0.00092120914
0.0012241027
0.0015585639
0.0018838579
0.0022121592
0.0025656963
0.0028988906
0.0031197089
0.0031964479
0.0031968337
0.003207025
0.0031754612
0.0029373165
0.0024362642
0.0018625991
0.0013872391
0.0010256081
0.00085779258
0.00082795688
0.00026575175
0.00034703989
0.0004832479
0.000650893
0.00084626875
0.0011043369
0.001397433
0.0016782114
0.0019461278
0.0022313617
0.002538571
0.0028025042
0.0029543898
0.0030067615
0.0030057316
0.0029632812
0.0028143469
0.0024777134
0.0020339956
0.0015723548
0.0011619272
0.00089911139
0.00080241823
0.00027514488
0.00036891772
0.0005092982
0.00064184542
0.00078867044
0.00099354371
0.0012458219
0.0015016899
0.0017449357
0.0019863484
0.0022310921
0.0024609192
0.0026419493
0.002752496
0.0027930242
0.0027667766
0.002663893
0.0024193057
0.0020722692
0.0016862899
0.0012959848
0.0009748311
0.00081305765
0.00025470514
0.0003485981
0.00050614327
0.00063693711
0.0007570293
0.0009119897
0.0011111037
0.0013305515
0.0015535943
0.001775514
0.0019887493
0.0021762928
0.002326904
0.00244271
0.0025215145
0.0025423187
0.0024983488
0.0023602692
0.0020874497
0.0017596993
0.001405181
0.0010681885
0.00084389212
0.00026053559
0.00032506761
0.0004806781
0.00061504646
0.00072803804
0.00085403788
0.0010054526
0.0011740389
0.0013567077
0.0015538656
0.0017526211
0.001930291
0.0020711999
0.0021772687
0.0022553065
0.0022993856
0.0022991856
0.0022439511
0.0020799099
0.0018218071
0.0015139944
0.0011857346
0.00090703662
0.00024863585
0.00027321189
0.0004220188
0.00056374819
0.00068132034
0.00079690946
0.00092167254
0.0010535708
0.0011954812
0.0013536628
0.0015258147
0.0016947623
0.0018408183
0.0019557398
0.0020389777
0.0020887288
0.0020997796
0.0020786091
0.0020007029
0.0018215221
0.0015832591
0.0013023455
0.0010024541
0.00026523158
0.00022680283
0.00033771594
0.00048365929
0.00060734542
0.00072238961
0.00083844402
0.00095508734
0.0010752375
0.0012039311
0.0013419823
0.0014825675
0.0016154202
0.0017320422
0.0018257447
0.0018907925
0.0019213936
0.0019164731
0.0018808265
0.0017829923
0.0016100349
0.0013925752
0.0011112158
0.00028207922
0.00018194015
0.00025618642
0.00039393284
0.00051994884
0.00063523741
0.00074636253
0.00085539654
0.00096436067
0.0010766321
0.001192628
0.0013090019
0.0014212657
0.0015254098
0.0016171819
0.0016911401
0.0017411286
0.0017615327
0.0017545732
0.0017153754
0.0016073552
0.0014523904
0.0012177939
0.00030786813
0.00015404149
0.00020104082
0.00031172253
0.00042955907
0.00054197135
0.00064935194
0.00075227988
0.00085281551
0.00095358817
0.00105631
0.0011596485
0.0012608501
0.0013569526
0.0014442509
0.0015184711
0.0015749874
0.0016094854
0.0016188942
0.0016080144
0.0015657564
0.0014612427
0.001288674
0.00030994922
0.00012451163
0.00016469965
0.00025509631
0.00035340579
0.00045294272
0.00055265895
0.0006506781
0.00074699133
0.00084193214
0.00093607895
0.0010293245
0.0011204143
0.001207831
0.0012893123
0.0013616133
0.0014207761
0.0014630024
0.0014856459
0.0014876867
0.0014748804
0.0014306232
0.0013232184
0.00031694493
9.2796213e-05
0.0001298628
0.0002104596
0.00029285279
0.00037657112
0.00046354061
0.00055259644
0.00064301926
0.00073363686
0.00082301818
0.00090998023
0.00099326764
0.0010721932
0.0011461553
0.0012139457
0.0012733225
0.001321434
0.001355549
0.0013734587
0.0013750179
0.0013640973
0.0013215455
0.00031849858
7.3746327e-05
0.00010751073
0.00017600752
0.00024479813
0.00031470482
0.00038811513
0.00046512134
0.00054527692
0.00062748354
0.00071012925
0.00079147063
0.00087018198
0.00094516315
0.0010159689
0.0010817272
0.0011410638
0.0011918587
0.0012318415
0.0012589307
0.001272359
0.0012730098
0.0012685264
0.00031508473
7.0603895e-05
0.00010056217
0.00015446289
0.0002090049
0.00026535439
0.00032567289
0.00039044855
0.000459421
0.00053166009
0.00060586657
0.00068049697
0.00075412437
0.000825492
0.0008936109
0.00095752172
0.0010160658
0.0010678019
0.0011111362
0.0011443697
0.001166531
0.0011781492
0.0011913447
0.00030220171
7.3716306e-05
9.9936668e-05
0.00014230584
0.00018455169
0.00022931108
0.00027785411
0.00033111959
0.00038901654
0.0004507172
0.00051524544
0.0005813999
0.00064797828
0.00071374385
0.00077756589
0.00083847403
0.00089560227
0.00094814093
0.00099506189
0.0010349956
0.0010667634
0.0010896669
0.0011134428
0.00028569019
7.6740668e-05
9.9459538e-05
0.00013351256
0.00016690418
0.0002028581
0.00024251758
0.00028677584
0.00033507822
0.00038689662
0.00044163741
0.00049840496
0.00055646409
0.00061499045
0.00067318405
0.00073028314
0.000785602
0.00083846208
0.00088814371
0.00093365253
0.00097405061
0.001008304
0.001045522
0.00026903484
7.8204297e-05
9.7802877e-05
0.00012554685
0.00015184956
0.00018058568
0.00021310303
0.00024953868
0.00028987477
0.0003336827
0.00038004123
0.00042832405
0.00047814169
0.00052900813
0.0005805101
0.0006322349
0.00068376438
0.00073463156
0.00078436536
0.00083242248
0.0008783802
0.00092183646
0.00097535372
0.00025403402
7.7494586e-05
9.4053303e-05
0.00011702748
0.0001378612
0.00016010793
0.00018549299
0.00021458395
0.00024725279
0.00028326614
0.00032212513
0.00036303856
0.00040541139
0.00044901369
0.00049359893
0.00053902781
0.00058516743
0.00063180311
0.000678699
0.00072569305
0.00077288022
0.00082044038
0.00088391404
0.00024244953
7.4984501e-05
8.8560969e-05
0.00010797437
0.00012534251
0.0001434921
0.00016392847
0.00018742253
0.00021413931
0.00024389194
0.00027628001
0.00031083466
0.00034705772
0.00038447721
0.00042289702
0.000462245
0.00050249028
0.0005436271
0.00058566732
0.00062871987
0.00067305165
0.00071895869
0.00078320553
0.00023197517
7.2818798e-05
8.4555983e-05
0.00010180387
0.00011802216
0.00013518564
0.00015435777
0.00017587964
0.00019970096
0.0002256198
0.00025332305
0.00028237261
0.000312433
0.00034326804
0.00037467517
0.00040652449
0.00043880119
0.00047159284
0.00050517986
0.00053990121
0.00057608076
0.00061379416
0.0006662356
0.00022284447
7.2009278e-05
8.319486e-05
9.9544378e-05
0.00011614906
0.00013415302
0.00015405923
0.00017580187
0.00019882306
0.00022223513
0.0002453467
0.00026790138
0.0002894767
0.00031011717
0.00032993106
0.00034899474
0.00036746013
0.00038555652
0.00040353835
0.00042166243
0.00044050383
0.00046251016
0.00050781901
0.00021496735
7.2051093e-05
8.3594089e-05
0.00010022064
0.00011816701
0.00013823876
0.00016027938
0.00018325461
0.00020552153
0.00022562604
0.00024264521
0.00025603374
0.00026577571
0.00027225908
0.00027594726
0.00027717998
0.0002764242
0.00027370705
0.00026946453
0.00026396458
0.00025708251
0.00024603157
0.00027160152
0.00020807783
7.297089e-05
8.6246419e-05
0.00010502445
0.00012690637
0.0001518216
0.00017695298
0.0001996176
0.00021795487
0.00023106125
0.00023834151
0.00024020811
0.00023641476
0.0002274586
0.00021399548
0.00019665815
0.00017578132
0.00015181098
0.00012405153
9.5225155e-05
7.2567456e-05
5.2836137e-05
6.0429989e-05
0.00020124518
7.6411484e-05
9.3868416e-05
0.00011792301
0.00014501861
0.00017158238
0.00019518927
0.00021376083
0.00022561511
0.00023007109
0.00022770054
0.00021737084
0.00020006529
0.00017670778
0.0001481406
0.00011515628
7.8513514e-05
4.6191046e-05
2.8250613e-05
2.1854657e-05
2.1733039e-05
2.3250762e-05
3.422491e-05
0.00019444005
8.5527457e-05
0.00010948105
0.00013716225
0.00016530302
0.00019053208
0.0002103342
0.00022265072
0.00022671678
0.00022282837
0.00020940105
0.00018743813
0.00015804293
0.00012262002
8.2496891e-05
4.2683861e-05
2.1348153e-05
1.5209974e-05
1.4571771e-05
1.6065725e-05
1.8773457e-05
2.0150978e-05
2.5605394e-05
0.000188098
9.7466764e-05
0.00012815446
0.00015741578
0.0001845421
0.00020647011
0.00022065893
0.00022585093
0.00022215977
0.00020818424
0.00018441451
0.00015186645
0.00011244906
6.7979299e-05
3.0250644e-05
1.4946151e-05
1.1874705e-05
1.1634909e-05
1.2614785e-05
1.3948079e-05
1.5016305e-05
1.5359676e-05
1.851264e-05
0.00018228852
0.00011089496
0.00014756963
0.0001769565
0.00020148071
0.00021853777
0.0002259303
0.00022404701
0.00021162075
0.00018825113
0.0001548356
0.00011351325
6.6987666e-05
2.8031278e-05
1.3140404e-05
1.0169285e-05
9.8519686e-06
9.9900055e-06
1.0497363e-05
1.0943742e-05
1.1225506e-05
1.1795719e-05
1.4810664e-05
0.00017714724
0.00012487021
0.00016565007
0.00019403259
0.00021494334
0.0002258439
0.0002272036
0.0002180075
0.00019690963