/*--------------------------------*- C++ -*----------------------------------*\
| =========                 |                                                 |
| \\      /  F ield         | OpenFOAM: The Open Source CFD Toolbox           |
|  \\    /   O peration     | Version:  2406                                  |
|   \\  /    A nd           | Website:  www.openfoam.com                      |
|    \\/     M anipulation  |                                                 |
\*---------------------------------------------------------------------------*/
FoamFile
{
    version     2.0;
    format      ascii;
    arch        "LSB;label=32;scalar=64";
    class       volScalarField;
    location    "100";
    object      kMean;
}
// * * * * * * * * * * * * * * * * * * * * * * * * * * * * * * * * * * * * * //

dimensions      [0 2 -2 0 0 0 0];

internalField   nonuniform List<scalar> 
132739
(
3.3137404e-06
2.6556804e-06
2.2023763e-06
1.8813097e-06
1.6444864e-06
1.4630988e-06
1.3197769e-06
1.2036647e-06
1.1076663e-06
1.0269607e-06
9.5815554e-07
8.9879957e-07
8.4706682e-07
8.0156715e-07
7.6123615e-07
7.2523173e-07
6.9287545e-07
6.6361747e-07
6.3701107e-07
6.1270987e-07
5.9045639e-07
5.7005634e-07
5.5125819e-07
5.336224e-07
5.1657116e-07
4.9962225e-07
4.8291188e-07
4.6776915e-07
4.5681248e-07
4.5308898e-07
4.528302e-07
4.5469131e-07
4.6360824e-07
4.7783082e-07
4.9526789e-07
5.1392162e-07
5.3218861e-07
5.4908619e-07
5.6421687e-07
5.776663e-07
5.8980784e-07
6.0106432e-07
6.1180959e-07
6.2233324e-07
6.3282184e-07
6.4334019e-07
6.5387221e-07
6.6468549e-07
6.750362e-07
6.8566841e-07
6.9640454e-07
7.0679286e-07
7.1715395e-07
7.2726576e-07
7.3732013e-07
7.4735065e-07
7.5737224e-07
7.6696301e-07
7.765092e-07
7.8570078e-07
7.9452216e-07
8.0316495e-07
8.1136387e-07
8.1910125e-07
8.2636871e-07
8.3318631e-07
8.3957736e-07
8.4556436e-07
8.5116478e-07
8.5638259e-07
8.6141341e-07
8.6671358e-07
8.722636e-07
8.7820579e-07
8.8482135e-07
8.9197968e-07
9.0091604e-07
9.1254929e-07
9.2903418e-07
9.5509281e-07
9.9806074e-07
1.0596133e-06
1.1350854e-06
1.2333616e-06
1.3725503e-06
1.5025917e-06
1.5235081e-06
1.4856861e-06
1.4218811e-06
1.4178322e-06
1.4882465e-06
1.5989392e-06
1.71206e-06
1.8082547e-06
1.884675e-06
1.9470594e-06
2.0018734e-06
2.0507688e-06
2.0900793e-06
2.1141755e-06
2.1262253e-06
2.125511e-06
2.1305566e-06
2.1285792e-06
3.3135926e-06
2.6559536e-06
2.20283e-06
1.8818258e-06
1.6450164e-06
1.4636199e-06
1.3202828e-06
1.2041494e-06
1.10813e-06
1.0274112e-06
9.5860069e-07
8.9923564e-07
8.4749202e-07
8.0199157e-07
7.6165588e-07
7.2564054e-07
6.9327709e-07
6.6401896e-07
6.3741926e-07
6.1312554e-07
5.9087862e-07
5.7048113e-07
5.5167976e-07
5.3404523e-07
5.1701827e-07
5.0014488e-07
4.8354045e-07
4.6843887e-07
4.5735964e-07
4.5327412e-07
4.5303225e-07
4.554924e-07
4.6444034e-07
4.7850371e-07
4.9582074e-07
5.1449179e-07
5.3291803e-07
5.5008132e-07
5.6555109e-07
5.7935401e-07
5.9182003e-07
6.0335288e-07
6.1430737e-07
6.2499955e-07
6.3560936e-07
6.4622681e-07
6.569106e-07
6.6762024e-07
6.7841532e-07
6.8925091e-07
6.999984e-07
7.1071832e-07
7.2133553e-07
7.318106e-07
7.4214509e-07
7.5232892e-07
7.6228971e-07
7.7197908e-07
7.8136717e-07
7.9043979e-07
7.9909806e-07
8.073641e-07
8.1522973e-07
8.2268707e-07
8.2972697e-07
8.363453e-07
8.4253579e-07
8.4829874e-07
8.5367757e-07
8.5866792e-07
8.6327682e-07
8.6753927e-07
8.7152524e-07
8.752375e-07
8.7897291e-07
8.8330954e-07
8.8859191e-07
8.9507216e-07
9.0301131e-07
9.1391829e-07
9.3217973e-07
9.6302149e-07
1.0102779e-06
1.0832984e-06
1.2022835e-06
1.3597699e-06
1.508684e-06
1.5699663e-06
1.5611704e-06
1.5239324e-06
1.5261386e-06
1.5857397e-06
1.6754217e-06
1.7650589e-06
1.8409731e-06
1.9030692e-06
1.9565621e-06
2.0056822e-06
2.0505774e-06
2.0884335e-06
2.1173231e-06
2.1366849e-06
2.151702e-06
2.1641518e-06
3.3133788e-06
2.6560135e-06
2.2030429e-06
1.882133e-06
1.6453693e-06
1.4639937e-06
1.3206629e-06
1.2045232e-06
1.1084928e-06
1.0277543e-06
9.5892037e-07
8.9953864e-07
8.4777581e-07
8.0224599e-07
7.6187851e-07
7.2583861e-07
6.9345349e-07
6.6417122e-07
6.3754779e-07
6.1323119e-07
5.9096669e-07
5.705404e-07
5.5169642e-07
5.3401601e-07
5.1694531e-07
5.0008128e-07
4.8356212e-07
4.6853879e-07
4.5742329e-07
4.5326414e-07
4.5303035e-07
4.5532964e-07
4.6420712e-07
4.7820259e-07
4.9545719e-07
5.1412819e-07
5.3266374e-07
5.5003101e-07
5.6576133e-07
5.7985027e-07
5.9257667e-07
6.0432637e-07
6.154551e-07
6.2625606e-07
6.3691411e-07
6.4754127e-07
6.5819533e-07
6.6888567e-07
6.7960262e-07
6.9032688e-07
7.0103043e-07
7.1168838e-07
7.2222758e-07
7.3264324e-07
7.4291464e-07
7.5299735e-07
7.6286704e-07
7.724726e-07
7.8180965e-07
7.9085197e-07
7.9956152e-07
8.0791097e-07
8.1585548e-07
8.2338593e-07
8.3051783e-07
8.3722398e-07
8.4352718e-07
8.4943215e-07
8.5492523e-07
8.6004923e-07
8.6483693e-07
8.6930501e-07
8.7351871e-07
8.7748072e-07
8.8147853e-07
8.8596406e-07
8.9111845e-07
8.9700877e-07
9.035501e-07
9.1094134e-07
9.202737e-07
9.3320371e-07
9.5262053e-07
9.8637895e-07
1.0533576e-06
1.1744081e-06
1.3441965e-06
1.5076485e-06
1.598347e-06
1.599721e-06
1.5837219e-06
1.5958809e-06
1.6494725e-06
1.7244944e-06
1.799055e-06
1.8637307e-06
1.9189255e-06
1.9684903e-06
2.0150647e-06
2.0588072e-06
2.0974003e-06
2.1298224e-06
2.1548251e-06
2.1783005e-06
3.3132557e-06
2.6562872e-06
2.2034839e-06
1.8826018e-06
1.6458196e-06
1.4644207e-06
1.3210564e-06
1.2048893e-06
1.108839e-06
1.0280856e-06
9.5923773e-07
8.9983008e-07
8.4804285e-07
8.0249888e-07
7.621206e-07
7.2606925e-07
6.9367937e-07
6.6439672e-07
6.3776996e-07
6.1345412e-07
5.9119181e-07
5.7076591e-07
5.5191469e-07
5.3421491e-07
5.1712841e-07
5.0028482e-07
4.8389592e-07
4.6911678e-07
4.5812175e-07
4.536793e-07
4.5334333e-07
4.5601576e-07
4.6507463e-07
4.7908382e-07
4.9633074e-07
5.1504752e-07
5.3370925e-07
5.5129095e-07
5.6728959e-07
5.8166381e-07
5.9466587e-07
6.0663875e-07
6.1793889e-07
6.2885359e-07
6.3958118e-07
6.5024948e-07
6.6091264e-07
6.7159533e-07
6.8232144e-07
6.9302654e-07
7.036996e-07
7.1433295e-07
7.248785e-07
7.3530414e-07
7.4558155e-07
7.5565062e-07
7.6548581e-07
7.7509044e-07
7.8442634e-07
7.9345033e-07
8.0213967e-07
8.1046507e-07
8.183925e-07
8.2592457e-07
8.3306234e-07
8.3978013e-07
8.4607894e-07
8.5197448e-07
8.5746602e-07
8.6257883e-07
8.6731535e-07
8.717243e-07
8.758812e-07
8.7969886e-07
8.8352724e-07
8.8789087e-07
8.9302958e-07
8.9905834e-07
9.0601358e-07
9.1397164e-07
9.2304623e-07
9.3305958e-07
9.4364599e-07
9.5649497e-07
9.8259773e-07
1.0464587e-06
1.171308e-06
1.3535404e-06
1.5345506e-06
1.6266682e-06
1.6325903e-06
1.6287639e-06
1.6485543e-06
1.6997989e-06
1.7662348e-06
1.8317915e-06
1.8901512e-06
1.9421491e-06
1.9906679e-06
2.0375655e-06
2.0818816e-06
2.1224024e-06
2.1561318e-06
2.1860239e-06
3.3130576e-06
2.6563566e-06
2.2036874e-06
1.8828893e-06
1.6461552e-06
1.4647722e-06
1.3214071e-06
1.2052287e-06
1.1091618e-06
1.028388e-06
9.5952021e-07
9.0010008e-07
8.4830156e-07
8.0273809e-07
7.6234067e-07
7.2627252e-07
6.9386297e-07
6.6456044e-07
6.3791388e-07
6.1358089e-07
5.9131004e-07
5.7087349e-07
5.5198817e-07
5.3423981e-07
5.1712177e-07
5.0028408e-07
4.8398707e-07
4.6935539e-07
4.5841767e-07
4.5397837e-07
4.5368558e-07
4.5651641e-07
4.6569644e-07
4.7971641e-07
4.9693428e-07
5.1566504e-07
5.3442942e-07
5.5218418e-07
5.6842381e-07
5.8306434e-07
5.9631581e-07
6.0851877e-07
6.1998685e-07
6.3100627e-07
6.4179354e-07
6.5248195e-07
6.6313966e-07
6.7379913e-07
6.8447852e-07
6.9514902e-07
7.0579565e-07
7.163855e-07
7.2689445e-07
7.3728592e-07
7.4751186e-07
7.5756132e-07
7.6740477e-07
7.7700149e-07
7.8633704e-07
7.953799e-07
8.0409676e-07
8.1245e-07
8.2042242e-07
8.2799216e-07
8.3516689e-07
8.4193739e-07
8.482862e-07
8.5422081e-07
8.5975881e-07
8.6492801e-07
8.6973591e-07
8.7421305e-07
8.7842834e-07
8.8232186e-07
8.8625881e-07
8.9068202e-07
8.9581915e-07
9.0181833e-07
9.0876711e-07
9.1681815e-07
9.2624863e-07
9.3710432e-07
9.4837369e-07
9.5811697e-07
9.6825909e-07
9.9325931e-07
1.0620537e-06
1.2009624e-06
1.3972012e-06
1.5747808e-06
1.6545143e-06
1.662111e-06
1.6670072e-06
1.694838e-06
1.746659e-06
1.8082274e-06
1.868065e-06
1.9225694e-06
1.9730623e-06
2.0219129e-06
2.0695656e-06
2.1153866e-06
2.1562183e-06
2.1928097e-06
3.312941e-06
2.6565987e-06
2.2040722e-06
1.883305e-06
1.646553e-06
1.4651387e-06
1.3217454e-06
1.2055387e-06
1.1094444e-06
1.0286512e-06
9.5977109e-07
9.0034358e-07
8.4853465e-07
8.029615e-07
7.6255769e-07
7.264821e-07
6.9405732e-07
6.6473705e-07
6.3808336e-07
6.1374957e-07
5.914698e-07
5.7102192e-07
5.5211277e-07
5.3432843e-07
5.1718081e-07
5.0036083e-07
4.8416986e-07
4.6974069e-07
4.5901726e-07
4.5449592e-07
4.5420047e-07
4.574725e-07
4.6689564e-07
4.8097837e-07
4.9820633e-07
5.1696566e-07
5.358211e-07
5.5374943e-07
5.7022644e-07
5.8514375e-07
5.9864091e-07
6.1103236e-07
6.2266635e-07
6.3380133e-07
6.4465983e-07
6.5539168e-07
6.6605567e-07
6.767117e-07
6.8736857e-07
6.9801682e-07
7.0865228e-07
7.1922873e-07
7.2971759e-07
7.4008509e-07
7.5030846e-07
7.6035184e-07
7.7018503e-07
7.7976639e-07
7.8913022e-07
7.9822914e-07
8.0694864e-07
8.1530249e-07
8.2328317e-07
8.3088304e-07
8.3807556e-07
8.4486569e-07
8.5125234e-07
8.5721175e-07
8.6278026e-07
8.6797261e-07
8.7280311e-07
8.7730604e-07
8.8152827e-07
8.8541151e-07
8.8934955e-07
8.9376379e-07
8.9884835e-07
9.047792e-07
9.1166856e-07
9.1960548e-07
9.2890296e-07
9.4003138e-07
9.527652e-07
9.6502726e-07
9.7452911e-07
9.8597358e-07
1.0191517e-06
1.1057488e-06
1.2646082e-06
1.4625643e-06
1.6163281e-06
1.6802925e-06
1.6924729e-06
1.7061019e-06
1.7408304e-06
1.7928919e-06
1.8503623e-06
1.9055609e-06
1.9569706e-06
2.0063487e-06
2.0550589e-06
2.1034583e-06
2.1488547e-06
2.1923355e-06
3.3127905e-06
2.6567052e-06
2.2042983e-06
1.8835982e-06
1.6468786e-06
1.4654706e-06
1.3220736e-06
1.2058551e-06
1.1097433e-06
1.0289334e-06
9.6003553e-07
9.005872e-07
8.4876055e-07
8.0317491e-07
7.6275923e-07
7.2666611e-07
6.9422463e-07
6.6489187e-07
6.3822141e-07
6.1387147e-07
5.9158242e-07
5.7111829e-07
5.5217799e-07
5.3433916e-07
5.1714155e-07
5.0033404e-07
4.8424809e-07
4.7002034e-07
4.5954302e-07
4.5505161e-07
4.5486144e-07
4.5851981e-07
4.6818354e-07
4.8235203e-07
4.996013e-07
5.1839909e-07
5.3735243e-07
5.554617e-07
5.7217764e-07
5.8733641e-07
6.0107803e-07
6.1368252e-07
6.2546494e-07
6.3670368e-07
6.4762082e-07
6.5837183e-07
6.6903789e-07
6.7968148e-07
6.9030702e-07
7.0093058e-07
7.1155062e-07
7.2207499e-07
7.3250827e-07
7.428661e-07
7.5308135e-07
7.6312899e-07
7.7298198e-07
7.8257735e-07
7.9192823e-07
8.0099644e-07
8.0974848e-07
8.1817274e-07
8.2619948e-07
8.3382863e-07
8.4106829e-07
8.4790981e-07
8.5435537e-07
8.6038866e-07
8.6600923e-07
8.7125854e-07
8.7614101e-07
8.80676e-07
8.8494719e-07
8.88877e-07
8.9286023e-07
8.9732612e-07
9.0243499e-07
9.0832393e-07
9.1514382e-07
9.2297591e-07
9.320098e-07
9.4278347e-07
9.5571208e-07
9.6967719e-07
9.8206074e-07
9.9312508e-07
1.0135146e-06
1.0673103e-06
1.1806542e-06
1.3531362e-06
1.5355992e-06
1.65931e-06
1.7104805e-06
1.7276616e-06
1.7493025e-06
1.7880492e-06
1.8381541e-06
1.8907581e-06
1.9413587e-06
1.9899249e-06
2.0378708e-06
2.0863433e-06
2.1334881e-06
2.1818711e-06
3.3126907e-06
2.6568912e-06
2.2045833e-06
1.8838921e-06
1.6471723e-06
1.4657615e-06
1.3223583e-06
1.2061369e-06
1.1100191e-06
1.0291968e-06
9.6028492e-07
9.0082141e-07
8.4898266e-07
8.0338468e-07
7.6294672e-07
7.2683535e-07
6.9438281e-07
6.6503075e-07
6.3834633e-07
6.1398934e-07
5.9168955e-07
5.7120955e-07
5.5223447e-07
5.3433888e-07
5.1709556e-07
5.0030687e-07
4.8434459e-07
4.7038552e-07
4.6018016e-07
4.5574415e-07
4.5573487e-07
4.5990065e-07
4.69843e-07
4.8413909e-07
5.0145695e-07
5.2032212e-07
5.3940338e-07
5.5770505e-07
5.746597e-07
5.9007482e-07
6.0404318e-07
6.1683021e-07
6.2873935e-07
6.4006502e-07
6.5103194e-07
6.6180465e-07
6.7247457e-07
6.8310768e-07
6.9373004e-07
7.0431777e-07
7.1488846e-07
7.2540208e-07
7.3586024e-07
7.4622956e-07
7.5643312e-07
7.6646129e-07
7.7631286e-07
7.8592713e-07
7.9528137e-07
8.0436887e-07
8.1312901e-07
8.2156429e-07
8.2964367e-07
8.3734974e-07
8.4464633e-07
8.5156062e-07
8.5808583e-07
8.6416214e-07
8.6983092e-07
8.7512025e-07
8.8005282e-07
8.8462721e-07
8.8893022e-07
8.9286751e-07
8.9689388e-07
9.0141732e-07
9.0652575e-07
9.1235973e-07
9.1909677e-07
9.2685798e-07
9.3573662e-07
9.4614626e-07
9.5870288e-07
9.7308842e-07
9.873564e-07
1.0006715e-06
1.0194233e-06
1.0606776e-06
1.1460249e-06
1.2853159e-06
1.4577373e-06
1.6117882e-06
1.7062871e-06
1.7471751e-06
1.7686656e-06
1.7962109e-06
1.8354005e-06
1.8812225e-06
1.9282559e-06
1.9744728e-06
2.0204563e-06
2.0673542e-06
2.1144942e-06
2.164578e-06
3.312598e-06
2.6570765e-06
2.2049e-06
1.8842554e-06
1.647524e-06
1.4660886e-06
1.3226675e-06
1.2064262e-06
1.1102912e-06
1.0294519e-06
9.6052155e-07
9.0103816e-07
8.4917789e-07
8.0356063e-07
7.6310826e-07
7.269798e-07
6.9450602e-07
6.6513829e-07
6.3843793e-07
6.1406705e-07
5.9175992e-07
5.7126682e-07
5.5225392e-07
5.3429748e-07
5.1700055e-07
5.0022174e-07
4.8440188e-07
4.706996e-07
4.6081847e-07
4.5657426e-07
4.5680497e-07
4.6151429e-07
4.7175384e-07
4.8621591e-07
5.0363111e-07
5.226004e-07
5.4183465e-07
5.6034589e-07
5.7753606e-07
5.931793e-07
6.0734537e-07
6.202973e-07
6.3232593e-07
6.4372397e-07
6.5473973e-07
6.6552518e-07
6.7619435e-07
6.8682046e-07
6.9741906e-07
7.0799367e-07
7.1855031e-07
7.2906121e-07
7.3948378e-07
7.4981659e-07
7.6002504e-07
7.7006673e-07
7.7992289e-07
7.8955328e-07
7.9893533e-07
8.0805765e-07
8.1686955e-07
8.2534324e-07
8.3346486e-07
8.4121094e-07
8.4856498e-07
8.5552627e-07
8.6209921e-07
8.6826235e-07
8.7402185e-07
8.7937808e-07
8.8437725e-07
8.890352e-07
8.9337769e-07
8.9734553e-07
9.0138259e-07
9.0589611e-07
9.1103608e-07
9.1687612e-07
9.2357935e-07
9.3130526e-07
9.4012564e-07
9.5025622e-07
9.6229041e-07
9.7656275e-07
9.9186083e-07
1.0068626e-06
1.0260348e-06
1.0639724e-06
1.1395259e-06
1.2614188e-06
1.4170696e-06
1.5734383e-06
1.6930758e-06
1.7614969e-06
1.7949735e-06
1.8189853e-06
1.848197e-06
1.8846672e-06
1.9252565e-06
1.9672918e-06
2.0104838e-06
2.0552168e-06
2.1024359e-06
2.1513371e-06
3.3124921e-06
2.6571727e-06
2.2051036e-06
1.8845152e-06
1.6478151e-06
1.4663919e-06
1.3229621e-06
1.206703e-06
1.1105493e-06
1.0296875e-06
9.6073253e-07
9.0123337e-07
8.4935737e-07
8.0371907e-07
7.6324828e-07
7.2709725e-07
6.946045e-07
6.6522175e-07
6.385074e-07
6.1412858e-07
5.9181659e-07
5.7130281e-07
5.5224445e-07
5.342219e-07
5.168638e-07
5.0010508e-07
4.844517e-07
4.7106544e-07
4.6157917e-07
4.575828e-07
4.5814338e-07
4.63454e-07
4.7402388e-07
4.8870096e-07
5.0627371e-07
5.2539898e-07
5.4481135e-07
5.6353365e-07
5.8094833e-07
5.9680367e-07
6.1115365e-07
6.2424126e-07
6.363702e-07
6.4783113e-07
6.5887771e-07
6.6967719e-07
6.8035023e-07
6.9096354e-07
7.0155478e-07
7.1213307e-07
7.2267795e-07
7.3317565e-07
7.4359943e-07
7.5392699e-07
7.6412854e-07
7.7418213e-07
7.8403671e-07
7.9369318e-07
8.0312295e-07
8.1225979e-07
8.2110772e-07
8.2963222e-07
8.3781112e-07
8.4561155e-07
8.5304022e-07
8.6009545e-07
8.6672439e-07
8.7295507e-07
8.7878741e-07
8.8421762e-07
8.8927248e-07
8.9397679e-07
8.9838271e-07
9.0239772e-07
9.064801e-07
9.1100151e-07
9.1611364e-07
9.2191695e-07
9.2855016e-07
9.3620652e-07
9.4501555e-07
9.5504116e-07
9.6664475e-07
9.8052241e-07
9.9644327e-07
1.0130132e-06
1.0325016e-06
1.0678783e-06
1.1399944e-06
1.2601997e-06
1.4153805e-06
1.5738184e-06
1.7041385e-06
1.7902931e-06
1.8374026e-06
1.8640062e-06
1.8871378e-06
1.9147348e-06
1.9476761e-06
1.9844144e-06
2.0245386e-06
2.0674627e-06
2.1162203e-06
2.1625188e-06
3.3124494e-06
2.6574075e-06
2.2054342e-06
1.8848502e-06
1.6481367e-06
1.4666924e-06
1.323235e-06
1.2069513e-06
1.1107753e-06
1.0298983e-06
9.6092675e-07
9.0140447e-07
8.4950516e-07
8.0384495e-07
7.6335444e-07
7.271856e-07
6.9467284e-07
6.6527114e-07
6.3854264e-07
6.1415864e-07
5.9184417e-07
5.713147e-07
5.5220718e-07
5.3410475e-07
5.1668256e-07
4.9995184e-07
4.8449335e-07
4.714496e-07
4.6239955e-07
4.5878572e-07
4.5975896e-07
4.6573433e-07
4.766553e-07
4.9159771e-07
5.0937207e-07
5.2869011e-07
5.483225e-07
5.6727166e-07
5.8490479e-07
6.0095093e-07
6.1545448e-07
6.286544e-07
6.4085418e-07
6.5235381e-07
6.634175e-07
6.742272e-07
6.8490134e-07
6.9551852e-07
7.0610361e-07
7.1666589e-07
7.2720174e-07
7.3770017e-07
7.481271e-07
7.5846143e-07
7.686736e-07
7.7873529e-07
7.8860998e-07
7.982941e-07
8.0776412e-07
8.1693985e-07
8.2582976e-07
8.3441617e-07
8.4265192e-07
8.5051722e-07
8.5799903e-07
8.6510678e-07
8.7183028e-07
8.7814926e-07
8.8405064e-07
8.8956739e-07
8.9471885e-07
8.9949925e-07
9.0396725e-07
9.0804389e-07
9.1218037e-07
9.1672992e-07
9.2184517e-07
9.2762538e-07
9.3419575e-07
9.4174778e-07
9.5047106e-07
9.6042872e-07
9.7176587e-07
9.8512553e-07
1.0011903e-06
1.0194277e-06
1.0402071e-06
1.0726662e-06
1.1384836e-06
1.257607e-06
1.4242782e-06
1.6032983e-06
1.7551027e-06
1.8598674e-06
1.9202912e-06
1.9520171e-06
1.9723569e-06
1.9929078e-06
2.018448e-06
2.0496641e-06
2.0866561e-06
2.1282876e-06
2.1790871e-06
2.2226162e-06
3.3123761e-06
2.6575068e-06
2.2056187e-06
1.8850876e-06
1.6483966e-06
1.4669519e-06
1.3234838e-06
1.2071824e-06
1.1109854e-06
1.0300891e-06
9.6110037e-07
9.0156048e-07
8.4964203e-07
8.0395839e-07
7.6344462e-07
7.2725717e-07
6.9472066e-07
6.652979e-07
6.3855782e-07
6.1417008e-07
5.9185144e-07
5.7129801e-07
5.521339e-07
5.3394627e-07
5.1646315e-07
4.9978583e-07
4.8454824e-07
4.7194154e-07
4.634467e-07
4.6018981e-07
4.6171343e-07
4.6833555e-07
4.7969222e-07
4.9495567e-07
5.1301112e-07
5.3259024e-07
5.5248168e-07
5.7168336e-07
5.8952356e-07
6.0573394e-07
6.2034637e-07
6.336139e-07
6.4585862e-07
6.5737964e-07
6.684489e-07
6.7925781e-07
6.8993205e-07
7.0054355e-07
7.1113073e-07
7.2170098e-07
7.3223649e-07
7.427354e-07
7.5317407e-07
7.6351206e-07
7.7373731e-07
7.8381022e-07
7.9371568e-07
8.0342416e-07
8.1290683e-07
8.2215612e-07
8.3110704e-07
8.3975542e-07
8.4808325e-07
8.5602709e-07
8.6357916e-07
8.7076797e-07
8.7758834e-07
8.8398216e-07
8.8996432e-07
8.9556421e-07
9.0079604e-07
9.0566261e-07
9.1022243e-07
9.1437302e-07
9.1857543e-07
9.2316962e-07
9.2829471e-07
9.3404992e-07
9.4056608e-07
9.4802777e-07
9.5663025e-07
9.6650794e-07
9.776918e-07
9.9056108e-07
1.0062376e-06
1.0255962e-06
1.0488511e-06
1.0805462e-06
1.1376416e-06
1.2453804e-06
1.4136591e-06
1.6174217e-06
1.8096053e-06
1.9543214e-06
2.0442151e-06
2.0924267e-06
2.1178677e-06
2.1359147e-06
2.1558348e-06
2.1816186e-06
2.214588e-06
2.2539367e-06
2.3037661e-06
2.3447927e-06
3.3123488e-06
2.6577099e-06
2.2058993e-06
1.8853802e-06
1.6486697e-06
1.467199e-06
1.3237052e-06
1.2073807e-06
1.1111617e-06
1.0302406e-06
9.6123108e-07
9.0167178e-07
8.4973442e-07
8.0403562e-07
7.6350685e-07
7.273032e-07
6.9474918e-07
6.6530534e-07
6.385578e-07
6.1417099e-07
5.9184564e-07
5.7125902e-07
5.5202552e-07
5.3374383e-07
5.1620585e-07
4.9959499e-07
4.8463168e-07
4.7252652e-07
4.6457997e-07
4.6193316e-07
4.6406128e-07
4.7129925e-07
4.8316701e-07
4.9884986e-07
5.1727261e-07
5.3718846e-07
5.5738052e-07
5.7682997e-07
5.9486342e-07
6.111955e-07
6.2587218e-07
6.3916108e-07
6.514024e-07
6.6291532e-07
6.739789e-07
6.8479317e-07
6.9546223e-07
7.0606871e-07
7.1666636e-07
7.2723621e-07
7.3777841e-07
7.4829033e-07
7.5874117e-07
7.6910617e-07
7.7935777e-07
7.8945737e-07
7.9939068e-07
8.0915041e-07
8.1869408e-07
8.279745e-07
8.3698464e-07
8.4568548e-07
8.5406384e-07
8.6209865e-07
8.6976271e-07
8.7703754e-07
8.8391735e-07
8.904196e-07
8.9652951e-07
9.0223951e-07
9.075669e-07
9.1252388e-07
9.1715124e-07
9.2138554e-07
9.2568616e-07
9.3032175e-07
9.3545369e-07
9.4119977e-07
9.4768089e-07
9.5506723e-07
9.6355095e-07
9.7331597e-07
9.8441667e-07
9.970161e-07
1.012112e-06
1.0315986e-06
1.0570729e-06
1.0907626e-06
1.1420802e-06
1.2320456e-06
1.3811384e-06
1.5850939e-06
1.8077739e-06
2.0031619e-06
2.1445813e-06
2.2322083e-06
2.2816044e-06
2.3113277e-06
2.3343796e-06
2.358429e-06
2.3873323e-06
2.4224453e-06
2.4654333e-06
2.5044747e-06
3.3122808e-06
2.6578046e-06
2.2060786e-06
1.8855929e-06
1.6488912e-06
1.4674152e-06
1.3239107e-06
1.2075708e-06
1.1113298e-06
1.0303857e-06
9.6135119e-07
9.0176929e-07
8.4981388e-07
8.0409468e-07
7.6354678e-07
7.2732299e-07
6.9475265e-07
6.6529695e-07
6.3853917e-07
6.1414664e-07
5.9180766e-07
5.7118719e-07
5.5187536e-07
5.334907e-07
5.1589911e-07
4.9939409e-07
4.8476665e-07
4.73232e-07
4.6609006e-07
4.6389628e-07
4.6680397e-07
4.7471648e-07
4.8716894e-07
5.0336431e-07
5.2224861e-07
5.4258562e-07
5.6313038e-07
5.8284264e-07
6.0101987e-07
6.174039e-07
6.320803e-07
6.4533123e-07
6.5753501e-07
6.6902399e-07
6.800669e-07
6.9086751e-07
7.0154249e-07
7.1215984e-07
7.2276124e-07
7.3334688e-07
7.4391031e-07
7.5444626e-07
7.6491646e-07
7.7529764e-07
7.8558349e-07
7.9572521e-07
8.0572308e-07
8.1554411e-07
8.2513909e-07
8.3449576e-07
8.4357077e-07
8.5234873e-07
8.6081347e-07
8.6892464e-07
8.766579e-07
8.8401818e-07
8.910003e-07
8.9758323e-07
9.0376239e-07
9.0956133e-07
9.1499624e-07
9.2005083e-07
9.2477343e-07
9.2909012e-07
9.3347926e-07
9.381916e-07
9.4341753e-07
9.4922833e-07
9.5566322e-07
9.6295351e-07
9.7129743e-07
9.8091126e-07
9.9191327e-07
1.0044123e-06
1.0191175e-06
1.0381169e-06
1.0644231e-06
1.1007168e-06
1.1512573e-06
1.2275404e-06
1.3478675e-06
1.522331e-06
1.7365326e-06
1.954374e-06
2.1400491e-06
2.2765739e-06
2.3658787e-06
2.4225959e-06
2.4615604e-06
2.4933486e-06
2.5238888e-06
2.5574103e-06
2.5919996e-06
2.6314088e-06
3.3122457e-06
2.6579805e-06
2.2063265e-06
1.8858387e-06
1.6491025e-06
1.4675931e-06
1.3240656e-06
1.2077082e-06
1.1114558e-06
1.0304973e-06
9.6144815e-07
9.0185026e-07
8.4987683e-07
8.0413973e-07
7.6357196e-07
7.2732904e-07
6.9473635e-07
6.6526125e-07
6.3849692e-07
6.1410378e-07
5.9175219e-07
5.7107985e-07
5.5167148e-07
5.3318551e-07
5.155584e-07
4.9919001e-07
4.8498404e-07
4.7409287e-07
4.6773394e-07
4.6632753e-07
4.7000823e-07
4.7865524e-07
4.9179242e-07
5.0862111e-07
5.2809038e-07
5.4894128e-07
5.6987016e-07
5.8980685e-07
6.0806783e-07
6.2442287e-07
6.3901423e-07
6.5216915e-07
6.642903e-07
6.7573105e-07
6.8674693e-07
6.9752665e-07
7.0820373e-07
7.1884608e-07
7.2945448e-07
7.4006315e-07
7.5066366e-07
7.6122253e-07
7.717207e-07
7.8215878e-07
7.9250553e-07
8.0269857e-07
8.1273928e-07
8.2261709e-07
8.3229063e-07
8.4170822e-07
8.5087334e-07
8.597664e-07
8.6830441e-07
8.7648965e-07
8.8432362e-07
8.9179058e-07
8.9884737e-07
9.0553859e-07
9.1185924e-07
9.1774593e-07
9.2325584e-07
9.2840655e-07
9.3322175e-07
9.3762698e-07
9.4210063e-07
9.4689723e-07
9.5215735e-07
9.5797578e-07
9.6444603e-07
9.7172699e-07
9.7999556e-07
9.8944795e-07
1.0002834e-06
1.0127128e-06
1.0272784e-06
1.0457931e-06
1.0717607e-06
1.1091979e-06
1.1612625e-06
1.2321396e-06
1.3307632e-06
1.4675494e-06
1.6427675e-06
1.8392583e-06
2.0295467e-06
2.1908493e-06
2.3131403e-06
2.4001462e-06
2.4619035e-06
2.5087092e-06
2.5473981e-06
2.5844645e-06
2.6156885e-06
2.660075e-06
3.3121828e-06
2.6580699e-06
2.2064951e-06
1.886047e-06
1.6493174e-06
1.4677909e-06
1.3242349e-06
1.207848e-06
1.1115687e-06
1.0305879e-06
9.6151739e-07
9.0189898e-07
8.4990513e-07
8.0415028e-07
7.6356301e-07
7.2730436e-07
6.9469284e-07
6.6520659e-07
6.3843691e-07
6.1403603e-07
5.9166817e-07
5.709365e-07
5.5141675e-07
5.3282054e-07
5.1519011e-07
4.9903703e-07
4.8531155e-07
4.7521546e-07
4.6968257e-07
4.6915611e-07
4.7373431e-07
4.8322603e-07
4.9716271e-07
5.1476747e-07
5.349469e-07
5.5638183e-07
5.7770323e-07
5.9780949e-07
6.160578e-07
6.32288e-07
6.4671862e-07
6.59722e-07
6.717188e-07
6.8308109e-07
6.9405767e-07
7.0483385e-07
7.1551627e-07
7.2616943e-07
7.3681306e-07
7.4745854e-07
7.5809851e-07
7.6869982e-07
7.7926296e-07
7.8974636e-07
8.0013205e-07
8.1040337e-07
8.2050565e-07
8.3045972e-07
8.4023478e-07
8.497365e-07
8.5897925e-07
8.6795307e-07
8.7659363e-07
8.8488207e-07
8.9282498e-07
9.0038957e-07
9.075629e-07
9.14359e-07
9.2076963e-07
9.2679321e-07
9.3240623e-07
9.3767825e-07
9.4263436e-07
9.4711847e-07
9.5166813e-07
9.5653966e-07
9.6184249e-07
9.6768424e-07
9.7416621e-07
9.8142898e-07
9.8965034e-07
9.9900457e-07
1.0096807e-06
1.0219729e-06
1.0364894e-06
1.0547801e-06
1.0800846e-06
1.1170381e-06
1.1696753e-06
1.2398474e-06
1.3289697e-06
1.4402546e-06
1.5758992e-06
1.730979e-06
1.8918778e-06
2.042148e-06
2.1697793e-06
2.2709567e-06
2.3487591e-06
2.4095254e-06
2.4587062e-06
2.5029107e-06
2.5381169e-06
2.5895415e-06
3.3121284e-06
2.6581635e-06
2.2066297e-06
1.8861892e-06
1.6494671e-06
1.4679425e-06
1.3243776e-06
1.2079745e-06
1.1116715e-06
1.0306661e-06
9.615736e-07
9.0193476e-07
8.499192e-07
8.0414239e-07
7.6353725e-07
7.2725325e-07
6.9462016e-07
6.6512363e-07
6.3835026e-07
6.1394654e-07
5.9155087e-07
5.7074013e-07
5.5110106e-07
5.3240982e-07
5.1481289e-07
4.989607e-07
4.8584136e-07
4.7658456e-07
4.7203133e-07
4.7249967e-07
4.7805935e-07
4.8852155e-07
5.0342411e-07
5.2196968e-07
5.4300035e-07
5.6508521e-07
5.8677074e-07
6.0694797e-07
6.2505593e-07
6.4103857e-07
6.5520213e-07
6.6798815e-07
6.7984365e-07
6.9112206e-07
7.0205681e-07
7.1282122e-07
7.2352179e-07
7.3420963e-07
7.4489663e-07
7.5558903e-07
7.6629034e-07
7.7694816e-07
7.8757371e-07
7.9814266e-07
8.0860147e-07
8.1894171e-07
8.2913549e-07
8.3916529e-07
8.4900201e-07
8.5860797e-07
8.6795558e-07
8.770101e-07
8.8575677e-07
8.9417181e-07
9.0223746e-07
9.0992519e-07
9.1722019e-07
9.2414301e-07
9.3068427e-07
9.3682453e-07
9.4257409e-07
9.4794146e-07
9.529771e-07
9.5759338e-07
9.622558e-07
9.6720714e-07
9.7256252e-07
9.784147e-07
9.8488528e-07
9.9213587e-07
1.0003168e-06
1.0095897e-06
1.0201434e-06
1.0323062e-06
1.0467688e-06
1.0650053e-06
1.0898416e-06
1.1256355e-06
1.1770318e-06
1.2464072e-06
1.3327432e-06
1.433469e-06
1.5464481e-06
1.6690158e-06
1.795773e-06
1.9188708e-06
2.0307544e-06
2.126953e-06
2.2069832e-06
2.2734886e-06
2.3296042e-06
2.3799635e-06
2.4223494e-06
2.4744029e-06
3.3120806e-06
2.6582815e-06
2.2068102e-06
1.8863718e-06
1.6496225e-06
1.4680648e-06
1.3244721e-06
1.2080483e-06
1.1117282e-06
1.0307055e-06
9.6159662e-07
9.0194249e-07
8.4991035e-07
8.0411463e-07
7.6348441e-07
7.2717854e-07
6.9452711e-07
6.6501535e-07
6.3823893e-07
6.1383188e-07
5.9139554e-07
5.7048815e-07
5.5072138e-07
5.3195552e-07
5.1446671e-07
4.9900576e-07
4.8662691e-07
4.7829778e-07
4.7485386e-07
4.7640414e-07
4.8308583e-07
4.9469307e-07
5.1077042e-07
5.304716e-07
5.5249349e-07
5.7523858e-07
5.9719139e-07
6.1728211e-07
6.3508065e-07
6.5068914e-07
6.6449154e-07
6.7700895e-07
6.8869613e-07
6.9986942e-07
7.1077454e-07
7.2155416e-07
7.32287e-07
7.4303018e-07
7.5378357e-07
7.6454572e-07
7.7531094e-07
7.8605817e-07
7.9676474e-07
8.0739259e-07
8.1794334e-07
8.284022e-07
8.3869912e-07
8.4882273e-07
8.587559e-07
8.6846511e-07
8.7792243e-07
8.8709119e-07
8.9596688e-07
9.0450008e-07
9.1269058e-07
9.2053071e-07
9.2797182e-07
9.3501583e-07
9.4167616e-07
9.4794954e-07
9.538296e-07
9.5932025e-07
9.6444345e-07
9.6915626e-07
9.7392559e-07
9.7896007e-07
9.8436891e-07
9.9024303e-07
9.9672933e-07
1.0039618e-06
1.0120968e-06
1.0212991e-06
1.0317551e-06
1.0438003e-06
1.0581848e-06
1.0763856e-06
1.1009557e-06
1.1356867e-06
1.1849547e-06
1.2517918e-06
1.3357511e-06
1.4327722e-06
1.5374008e-06
1.6448353e-06
1.7511743e-06
1.8529476e-06
1.9470179e-06
2.0313157e-06
2.1053521e-06
2.1703369e-06
2.2279159e-06
2.2808709e-06
2.3282508e-06
2.380728e-06
3.3120112e-06
2.6583294e-06
2.2069139e-06
1.8865001e-06
1.6497509e-06
1.4681806e-06
1.3245683e-06
1.208116e-06
1.1117674e-06
1.0307255e-06
9.6159715e-07
9.0192157e-07
8.4987032e-07
8.0405474e-07
7.6340145e-07
7.2706853e-07
6.9440307e-07
6.6489061e-07
6.381167e-07
6.1369548e-07
5.9119942e-07
5.7017379e-07
5.5027659e-07
5.3147408e-07
5.1417686e-07
4.9924568e-07
4.8772179e-07
4.8050801e-07
4.7818297e-07
4.8099261e-07
4.889732e-07
5.0195657e-07
5.1947675e-07
5.4055265e-07
5.6365155e-07
5.8701201e-07
6.0906421e-07
6.2885409e-07
6.4615684e-07
6.6123696e-07
6.7460446e-07
6.8681411e-07
6.9830975e-07
7.0940437e-07
7.2029285e-07
7.3109778e-07
7.4188157e-07
7.5268817e-07
7.6352679e-07
7.7436907e-07
7.8521942e-07
7.9605473e-07
8.0685723e-07
8.1759415e-07
8.2824606e-07
8.3881134e-07
8.4923155e-07
8.5947377e-07
8.6953464e-07
8.7937856e-07
8.88976e-07
8.9829696e-07
9.0730856e-07
9.1599588e-07
9.2433306e-07
9.3230427e-07
9.3989907e-07
9.4709209e-07
9.5390078e-07
9.6033199e-07
9.6634102e-07
9.7195312e-07
9.7719483e-07
9.8200272e-07
9.8687321e-07
9.9198699e-07
9.9743451e-07
1.0033409e-06
1.0098176e-06
1.0170066e-06
1.0250909e-06
1.0342279e-06
1.0446032e-06
1.0565541e-06
1.0708383e-06
1.0889572e-06
1.11332e-06
1.1472222e-06
1.1943917e-06
1.2577521e-06
1.3376901e-06
1.4310365e-06
1.5320126e-06
1.6343956e-06
1.7332838e-06
1.8256874e-06
1.9101078e-06
1.9862155e-06
2.0544857e-06
2.1161433e-06
2.1724997e-06
2.2254474e-06
2.2746218e-06
2.3266053e-06
3.3119603e-06
2.6584072e-06
2.2070181e-06
1.8865944e-06
1.6498369e-06
1.4682607e-06
1.3246362e-06
1.2081641e-06
1.1117952e-06
1.0307263e-06
9.6157296e-07
9.0187791e-07
8.498064e-07
8.0396583e-07
7.6328666e-07
7.269341e-07
6.9425232e-07
6.647373e-07
6.3796799e-07
6.1352458e-07
5.9094688e-07
5.6978835e-07
5.4976974e-07
5.3098267e-07
5.1399454e-07
4.9973421e-07
4.8920325e-07
4.8320256e-07
4.8219989e-07
4.8642252e-07
4.9594303e-07
5.1062041e-07
5.2990168e-07
5.5255967e-07
5.7677665e-07
6.0058593e-07
6.2246198e-07
6.4168503e-07
6.5827696e-07
6.726976e-07
6.8557205e-07
6.9745238e-07
7.0876049e-07
7.1978116e-07
7.3066475e-07
7.4150328e-07
7.5236249e-07
7.6326072e-07
7.7418325e-07
7.8513639e-07
7.9610044e-07
8.0704551e-07
8.1796333e-07
8.2882536e-07
8.39604e-07
8.5029688e-07
8.6085965e-07
8.7124605e-07
8.8144625e-07
8.9145579e-07
9.0121193e-07
9.1069367e-07
9.1988548e-07
9.2872616e-07
9.372236e-07
9.453603e-07
9.5311707e-07
9.6049006e-07
9.6745195e-07
9.740126e-07
9.8017474e-07
9.8593677e-07
9.9130196e-07
9.9623061e-07
1.0012111e-06
1.0064041e-06
1.0119075e-06
1.0178347e-06
1.0243028e-06
1.0314674e-06
1.0394894e-06
1.0485382e-06
1.0588192e-06
1.0706859e-06
1.0848849e-06
1.1028674e-06
1.1269563e-06
1.1601343e-06
1.2055055e-06
1.2654406e-06
1.3405021e-06
1.4285635e-06
1.5249871e-06
1.6239609e-06
1.7201506e-06
1.809961e-06
1.8916852e-06
1.9652152e-06
2.0313513e-06
2.0914971e-06
2.1470175e-06
2.1995597e-06
2.2489802e-06
2.3004519e-06
3.3119003e-06
2.6584827e-06
2.2071381e-06
1.8867055e-06
1.6499249e-06
1.4683242e-06
1.3246738e-06
1.2081793e-06
1.1117894e-06
1.0307009e-06
9.6152668e-07
9.0180346e-07