/*--------------------------------*- C++ -*----------------------------------*\
| =========                 |                                                 |
| \\      /  F ield         | OpenFOAM: The Open Source CFD Toolbox           |
|  \\    /   O peration     | Version:  2406                                  |
|   \\  /    A nd           | Website:  www.openfoam.com                      |
|    \\/     M anipulation  |                                                 |
\*---------------------------------------------------------------------------*/
FoamFile
{
    version     2.0;
    format      ascii;
    arch        "LSB;label=32;scalar=64";
    class       volScalarField;
    location    "100";
    object      rho;
}
// * * * * * * * * * * * * * * * * * * * * * * * * * * * * * * * * * * * * * //

dimensions      [1 -3 0 0 0 0 0];

internalField   nonuniform List<scalar> 
132739
(
1.0029586
1.0027993
1.0027822
1.002852
1.0029028
1.0029666
1.0030169
1.0030829
1.0031522
1.0032155
1.0032735
1.0033272
1.0033972
1.0034595
1.0035242
1.0036084
1.0036812
1.0037483
1.0038095
1.0038762
1.0039435
1.0039951
1.004084
1.0041556
1.0041927
1.0042883
1.0043645
1.0044576
1.0045395
1.0046501
1.0047507
1.0048993
1.0050832
1.0052316
1.0053957
1.0056058
1.0057281
1.0059736
1.0061652
1.0063177
1.0064499
1.006668
1.0068154
1.0070103
1.007174
1.0073504
1.0075916
1.0077814
1.0079534
1.0081963
1.0083886
1.0085688
1.0088172
1.0089988
1.0091986
1.0093849
1.0095112
1.0097315
1.0098978
1.0100349
1.0102612
1.0104167
1.0104846
1.0106399
1.0107395
1.0108755
1.0109988
1.0111522
1.0112506
1.0113755
1.0114884
1.0116189
1.0117698
1.0118896
1.0120175
1.012198
1.0123249
1.0124314
1.0125348
1.0126204
1.0127297
1.0128498
1.0128614
1.0128609
1.0128377
1.0127878
1.0127346
1.0126689
1.0126149
1.012516
1.0124002
1.0122152
1.0119973
1.0117747
1.0115099
1.0112954
1.0110311
1.0107477
1.0104144
1.0101086
1.009773
1.0094134
1.0090726
1.0087287
1.0029534
1.002799
1.0027736
1.0028507
1.0029148
1.0029806
1.0030314
1.0030971
1.0031503
1.003213
1.0032789
1.0033452
1.0033997
1.0034703
1.0035539
1.0036149
1.0036756
1.0037396
1.0038129
1.0038918
1.0039565
1.0040083
1.0040961
1.0041729
1.0042317
1.0043059
1.0043706
1.0044636
1.0045269
1.0046487
1.0047881
1.0049353
1.005084
1.0052287
1.0054153
1.005618
1.0057657
1.0059282
1.0061085
1.0062797
1.0064251
1.0066584
1.0067926
1.0069833
1.007226
1.0073979
1.0076006
1.0078062
1.0079377
1.0083436
1.0084849
1.008628
1.0088621
1.008991
1.0091385
1.0092612
1.0093955
1.0096155
1.0096791
1.0101341
1.0101718
1.0102599
1.0104396
1.0105493
1.0107239
1.0108427
1.0110226
1.0110921
1.0112366
1.0113836
1.0114851
1.0115976
1.0117263
1.0118492
1.0119682
1.0120718
1.0122196
1.0123344
1.0124314
1.0126137
1.0126703
1.0127554
1.0128005
1.0128225
1.0128271
1.0127887
1.0127415
1.0126557
1.0125949
1.0124883
1.0123634
1.0121918
1.0119788
1.0117495
1.0114888
1.0112538
1.0109922
1.0106945
1.0104215
1.0101382
1.0098498
1.0095245
1.0091931
1.0088561
1.0029608
1.0027951
1.0027859
1.0028447
1.0029085
1.0029615
1.003024
1.0030881
1.0031475
1.0032138
1.0032699
1.0033426
1.0034209
1.0034852
1.0035542
1.0036079
1.0036848
1.0037437
1.0038183
1.0038934
1.003961
1.0040311
1.0040771
1.0041726
1.0042396
1.0043109
1.0043981
1.0044627
1.0045487
1.0046981
1.0048022
1.0049337
1.0050873
1.0052331
1.005427
1.0056013
1.0057479
1.0059279
1.0060773
1.0062643
1.0064182
1.0066323
1.0068023
1.0070194
1.0072346
1.007418
1.0076254
1.007814
1.0080003
1.0081607
1.0083338
1.008559
1.0087257
1.0088281
1.0090183
1.0091558
1.0093197
1.0094857
1.0096494
1.0098032
1.0099404
1.0101225
1.0103043
1.0104342
1.010599
1.0107646
1.0108741
1.0110759
1.0112006
1.0113229
1.0114663
1.0116
1.0116779
1.0117825
1.0119001
1.0119918
1.0121024
1.0122118
1.0123369
1.0124606
1.0125627
1.012667
1.0127265
1.0127476
1.0127556
1.012733
1.0126812
1.0125977
1.0125091
1.0123984
1.01227
1.0121029
1.0118829
1.0116516
1.0113789
1.0111115
1.0108528
1.0105827
1.0102885
1.0100011
1.0097444
1.0094356
1.0091362
1.00882
1.0029602
1.0027974
1.0027752
1.0028701
1.0029188
1.0029885
1.0030458
1.0030973
1.0031645
1.0032333
1.0033058
1.0033748
1.0034247
1.0034951
1.0035657
1.0036186
1.0036875
1.0037688
1.0038377
1.0039055
1.003977
1.0040325
1.0040911
1.0041976
1.0042569
1.0043327
1.0044082
1.0044753
1.0045774
1.0047209
1.0048097
1.0049306
1.0051254
1.0052349
1.0054343
1.0055918
1.0057543
1.0058945
1.0061147
1.0062484
1.0064922
1.0066804
1.0068624
1.0070544
1.0072269
1.0074095
1.0076033
1.0077854
1.0079467
1.0081149
1.0082922
1.0084372
1.0086026
1.0087375
1.008933
1.0091019
1.0092527
1.0094155
1.0096033
1.0097656
1.009915
1.0101038
1.0102452
1.0103709
1.0105426
1.0106957
1.0108194
1.0109768
1.0111281
1.0112582
1.0114196
1.0114945
1.0116952
1.011795
1.0118664
1.0119596
1.0120671
1.0121515
1.0122656
1.012375
1.0124479
1.0125316
1.0126172
1.0126464
1.0126661
1.0126579
1.0126352
1.0125604
1.0124555
1.012335
1.0121948
1.012027
1.0118102
1.0115778
1.0113191
1.0110467
1.0107758
1.0104967
1.0101964
1.0098898
1.0096319
1.0093278
1.0090303
1.0087262
1.0029612
1.0027936
1.002789
1.0028511
1.0029147
1.0029783
1.0030421
1.0030942
1.0031665
1.0032322
1.0032974
1.0033658
1.0034329
1.0035018
1.0035591
1.0036204
1.0036874
1.0037677
1.0038342
1.0038912
1.0039639
1.0040501
1.0041058
1.0041798
1.0042379
1.0043318
1.0044001
1.0044976
1.0045903
1.0046821
1.0047823
1.004913
1.005064
1.0052067
1.0053544
1.005518
1.0057149
1.0058893
1.0060376
1.0062334
1.0063945
1.0066294
1.0068543
1.0070037
1.0071861
1.0073463
1.007531
1.0076836
1.0078562
1.0080128
1.0082107
1.008386
1.008546
1.0087677
1.0089248
1.0090762
1.0092825
1.0094344
1.0096161
1.0097706
1.0099584
1.0100977
1.0102347
1.0103827
1.0105106
1.0107075
1.0108324
1.0109908
1.0110946
1.0112474
1.0113806
1.0114974
1.0116432
1.0117563
1.0118559
1.0119704
1.0120373
1.0121424
1.0122098
1.0123005
1.0123702
1.0124307
1.012491
1.0125667
1.0125583
1.0126123
1.0125861
1.0125224
1.0124334
1.0122723
1.0121471
1.0119916
1.0117804
1.0115568
1.0112945
1.0110135
1.0107307
1.0104445
1.0101551
1.0098529
1.0095524
1.0092612
1.0089823
1.0086669
1.0029604
1.0027957
1.0027808
1.0028652
1.0029319
1.0029883
1.0030539
1.0031131
1.0031811
1.0032451
1.0033144
1.0033854
1.0034573
1.0035115
1.0035794
1.0036432
1.0037127
1.0037632
1.0038321
1.0039105
1.0039837
1.0040355
1.0041144
1.0041617
1.0042654
1.0043328
1.0043954
1.0044692
1.0045528
1.0046548
1.0047759
1.0049189
1.0050595
1.0052036
1.0053712
1.0055553
1.0057267
1.0058817
1.0060143
1.0062451
1.0064501
1.0065701
1.0067644
1.0069583
1.0070911
1.007305
1.0074846
1.0076231
1.0078362
1.0079444
1.0082213
1.0083934
1.0085979
1.0087687
1.0089306
1.0091233
1.009267
1.0094296
1.009533
1.0099319
1.0100805
1.0101727
1.010307
1.010432
1.0105942
1.010686
1.0108569
1.0109575
1.0110512
1.0111924
1.0112902
1.0114309
1.01156
1.0116571
1.0117818
1.0119131
1.0120105
1.0120947
1.0122136
1.0122736
1.0123453
1.0124061
1.0124309
1.0124628
1.0124507
1.0124738
1.0124909
1.0124652
1.0123517
1.0126766
1.0123866
1.0120998
1.0118366
1.0115799
1.0113032
1.0110104
1.0107247
1.0104358
1.0101261
1.0098212
1.0095221
1.0092211
1.0089443
1.0086264
1.0029581
1.0028028
1.0027796
1.0028514
1.0029222
1.0029776
1.0030391
1.0031016
1.0031604
1.0032247
1.0033012
1.0033725
1.0034386
1.003502
1.0035801
1.0036475
1.0037043
1.0037713
1.0038473
1.003904
1.0039766
1.0040371
1.0041141
1.0041765
1.0042489
1.0043154
1.0043712
1.0044505
1.0045635
1.0046616
1.004809
1.0049372
1.0050919
1.0052388
1.0053836
1.0055636
1.005729
1.0058539
1.0060389
1.0062113
1.0063631
1.0065522
1.0067293
1.0069308
1.0070867
1.0073043
1.0074651
1.0076567
1.0078468
1.0079603
1.0083021
1.008477
1.0085504
1.0087079
1.0089473
1.0090673
1.0093329
1.0094491
1.0095937
1.009809
1.009911
1.0101285
1.0102907
1.0103663
1.0104938
1.0106037
1.010737
1.0108919
1.0109895
1.011109
1.0112478
1.011339
1.0114634
1.0115991
1.0117078
1.0118202
1.0119649
1.0120407
1.0121565
1.0122512
1.012348
1.012398
1.012424
1.0124504
1.012443
1.0124194
1.0124093
1.0123781
1.0123243
1.0123368
1.0122722
1.0121303
1.0119281
1.0116812
1.0114128
1.011108
1.0107827
1.0104711
1.0101559
1.0098384
1.0095294
1.0092227
1.0089396
1.0086301
1.0029605
1.0027987
1.0027863
1.0028601
1.0029297
1.0030006
1.0030485
1.0031105
1.0031686
1.0032314
1.0033004
1.0033756
1.0034427
1.0035241
1.0035945
1.0036408
1.0037213
1.0037945
1.0038472
1.0039319
1.003987
1.0040413
1.0041155
1.0041697
1.0042296
1.0043119
1.0043615
1.0044742
1.0045655
1.0046639
1.0047911
1.0049057
1.005086
1.0052074
1.0053846
1.005539
1.0056946
1.0058536
1.0060256
1.0062325
1.0064027
1.0065905
1.0067594
1.0069193
1.0071049
1.0072756
1.0074704
1.0076285
1.0078514
1.0079979
1.0081675
1.008338
1.0084538
1.0087869
1.0089446
1.0090918
1.0092612
1.009467
1.0095591
1.0097329
1.0098483
1.0099559
1.0101391
1.0102591
1.0104624
1.0105272
1.0108258
1.0109021
1.0109974
1.011088
1.0112125
1.0113078
1.0113998
1.0115466
1.0116112
1.0118899
1.0120133
1.0120706
1.0121351
1.0122221
1.0122876
1.0123509
1.0124703
1.0124982
1.0124785
1.0124143
1.0123769
1.0123217
1.0122727
1.0122422
1.0121643
1.0120511
1.0119185
1.0117175
1.0114918
1.0112138
1.0109148
1.010588
1.0102526
1.0099236
1.0095895
1.009266
1.0089737
1.0086562
1.0029599
1.0028013
1.0027864
1.0028673
1.002933
1.0029826
1.0030444
1.0031151
1.003176
1.0032485
1.0033159
1.0033935
1.0034516
1.0035282
1.0035976
1.0036537
1.0037212
1.0037929
1.0038593
1.0039212
1.003977
1.0040388
1.0041309
1.0041817
1.0042613
1.0043317
1.0043918
1.0044808
1.0045546
1.0047012
1.0048084
1.0049506
1.0050682
1.0052573
1.0054082
1.0055491
1.0057163
1.0058926
1.0060914
1.0062823
1.0064338
1.0066002
1.0068003
1.0069275
1.0071316
1.0073151
1.0074661
1.0076589
1.0078551
1.0079773
1.008168
1.0083401
1.0085159
1.008653
1.0088521
1.0090093
1.0091851
1.0093666
1.0094738
1.0096752
1.009828
1.0099736
1.0101126
1.0102683
1.0104042
1.0105146
1.0106893
1.0108136
1.0109425
1.0110605
1.0111485
1.0113269
1.0114211
1.0114984
1.0115899
1.0117215
1.0118867
1.0119945
1.012086
1.0122171
1.0122818
1.0123476
1.0124282
1.0124887
1.0125283
1.0125018
1.012442
1.0123706
1.0122906
1.0122007
1.0120955
1.0119946
1.0118581
1.011701
1.0115146
1.0112819
1.0110138
1.0107252
1.010398
1.0100651
1.0097166
1.0093755
1.009076
1.0087108
1.0029662
1.0027978
1.0028
1.0028643
1.0029257
1.0029865
1.0030545
1.0031194
1.0031842
1.0032549
1.0033105
1.0033853
1.0034611
1.0035302
1.0036014
1.0036603
1.0037075
1.0038015
1.003857
1.0039225
1.0039733
1.0040398
1.0041009
1.004174
1.004243
1.0043116
1.0043983
1.0044825
1.0046048
1.0047232
1.004837
1.0049611
1.005112
1.0052691
1.0054261
1.0055979
1.0057764
1.0059115
1.0061228
1.0062654
1.0064488
1.0065941
1.0068035
1.0069398
1.0071396
1.0073023
1.0074636
1.0076431
1.0077924
1.0079781
1.0081763
1.0083201
1.0085061
1.008637
1.0088206
1.0089725
1.0091784
1.0092675
1.0095338
1.0096653
1.0097904
1.0099717
1.0100929
1.0102763
1.0103612
1.0106065
1.0107302
1.0108368
1.0110006
1.0110974
1.011204
1.0113091
1.011422
1.0115131
1.0115929
1.0117243
1.0118216
1.0119219
1.0120134
1.0121309
1.0122287
1.0123186
1.0123816
1.0124421
1.012491
1.0124908
1.0124682
1.0124313
1.0123637
1.0122503
1.0121247
1.0119793
1.0118294
1.0116594
1.0114932
1.0112987
1.0110866
1.0108278
1.0105555
1.0102525
1.0099094
1.009553
1.0092161
1.0089258
1.0029658
1.002799
1.0028051
1.0028664
1.0029317
1.0030021
1.0030653
1.0031244
1.0031905
1.0032598
1.0033335
1.0033958
1.0034654
1.0035266
1.0035988
1.0036576
1.0037099
1.0037946
1.00385
1.0039068
1.0039675
1.0040365
1.0041136
1.0041721
1.0042388
1.0043134
1.0043966
1.0045003
1.0046205
1.0047311
1.0048581
1.0050049
1.0051328
1.0053237
1.005457
1.0055991
1.0057778
1.0059287
1.0060874
1.0062475
1.0064087
1.006601
1.0067873
1.0069381
1.0070915
1.0072665
1.0074265
1.0076119
1.0077956
1.0079455
1.0081237
1.0082726
1.0084818
1.0086206
1.0088379
1.0089802
1.0091939
1.0092884
1.0096141
1.0097331
1.0098725
1.0100565
1.010214
1.0103444
1.0104539
1.0105909
1.0107326
1.010891
1.0109969
1.0110884
1.0112378
1.0113502
1.0114373
1.0115392
1.0116291
1.0117303
1.0118116
1.0118961
1.0119879
1.0120896
1.0121887
1.0122671
1.0123261
1.0124217
1.0124668
1.0124859
1.0124422
1.0124135
1.0123586
1.0122829
1.0121669
1.012004
1.0118429
1.0116547
1.0114601
1.011289
1.0110769
1.0108648
1.0106197
1.0103707
1.0100981
1.009741
1.0094193
1.0090454
1.0029637
1.0027983
1.0027993
1.0028603
1.0029292
1.0029997
1.0030601
1.0031233
1.0031861
1.0032614
1.0033406
1.0034089
1.0034789
1.0035374
1.003593
1.0036547
1.0037083
1.0037715
1.0038423
1.003895
1.0039669
1.0040255
1.0041069
1.0041659
1.0042369
1.0043242
1.0044276
1.0045312
1.0046436
1.0047532
1.0049116
1.0050345
1.0051745
1.0052855
1.0054173
1.005589
1.0057121
1.0059238
1.0060641
1.0062262
1.0064061
1.0065556
1.0067708
1.0069208
1.0070769
1.0072409
1.0074062
1.0075952
1.0077651
1.007961
1.008142
1.0082875
1.0085196
1.0086665
1.0088439
1.0090061
1.0091553
1.0093315
1.0094916
1.0096456
1.0098803
1.0099656
1.0102525
1.010365
1.0105062
1.0105834
1.0108312
1.0109473
1.0110304
1.0111258
1.0112595
1.0113721
1.0114831
1.0116112
1.0116712
1.011784
1.0118458
1.0119264
1.0119886
1.0120921
1.0121797
1.0122489
1.0123232
1.0123688
1.0124123
1.0124381
1.012414
1.0123792
1.0123294
1.0122583
1.0121759
1.0120511
1.0118962
1.0116729
1.0114643
1.0112537
1.0110486
1.0108422
1.0106219
1.0103883
1.0101396
1.0098552
1.0095356
1.0092094
1.0029637
1.0028003
1.0027885
1.0028578
1.0029372
1.0029944
1.0030599
1.0031145
1.0031889
1.0032589
1.0033368
1.0034068
1.0034705
1.0035266
1.0035865
1.0036452
1.0037038
1.0037578
1.0038167
1.0039055
1.0039685
1.0040328
1.004092
1.0041806
1.0042366
1.0043628
1.0044397
1.0045197
1.0046269
1.0047493
1.0048781
1.0050019
1.0051591
1.0052491
1.005427
1.0055838
1.0057224
1.005888
1.0060372
1.006238
1.0063966
1.0065804
1.0067513
1.0069127
1.0070503
1.007248
1.007428
1.0075676
1.0077631
1.0079753
1.008096
1.0082976
1.0084722
1.0086558
1.0088387
1.0090037
1.0091377
1.0093092
1.0095178
1.0096586
1.0098066
1.0099604
1.010098
1.0102684
1.0104275
1.0105863
1.010724
1.0108485
1.0110442
1.0111782
1.0113323
1.0114386
1.0115581
1.0116422
1.0118086
1.011865
1.011882
1.0119359
1.0120043
1.0120906
1.0121714
1.0122285
1.0122939
1.0123293
1.0123716
1.0123846
1.0123949
1.0123533
1.0123064
1.0122415
1.0121275
1.0120194
1.0118683
1.0117091
1.0114896
1.011249
1.0110359
1.0108273
1.0105863
1.0103709
1.010137
1.0098742
1.0095718
1.0092767
1.0029654
1.0027956
1.0027929
1.0028607
1.0029253
1.0029936
1.0030558
1.0031246
1.003191
1.0032578
1.00333
1.0033929
1.0034643
1.0035278
1.0035809
1.0036495
1.0036997
1.0037804
1.0038314
1.0039119
1.0039551
1.0040103
1.0041045
1.004165
1.004227
1.0043527
1.0044253
1.0045265
1.0046451
1.0047504
1.0048637
1.0050231
1.0051523
1.0052825
1.0054115
1.0055724
1.0057034
1.0058767
1.0060542
1.0061843
1.006385
1.0065409
1.006699
1.0068848
1.0070306
1.007209
1.0073936
1.0075647
1.007752
1.0079455
1.0080971
1.0083074
1.0084874
1.0086437
1.0087987
1.0089965
1.009111
1.0094001
1.0095262
1.009729
1.0098803
1.0100183
1.0101929
1.0103657
1.0104895
1.0106204
1.0107777
1.0109252
1.0110317
1.0111595
1.011317
1.0114642
1.0115485
1.0116889
1.0117999
1.0119209
1.0119466
1.0122287
1.0122054
1.0122299
1.0122422
1.0122798
1.012337
1.0123658
1.0123761
1.0123715
1.0123656
1.0123152
1.0122591
1.0121977
1.0120977
1.0119982
1.0118429
1.0116879
1.0115103
1.0112711
1.0110297
1.0107744
1.0105402
1.010291
1.0100386
1.0097888
1.0094911
1.0092222
1.0029637
1.0027973
1.002793
1.002868
1.0029334
1.0029901
1.0030558
1.0031202
1.0031877
1.0032596
1.0033245
1.0033991
1.0034653
1.0035349
1.0035859
1.0036591
1.0037136
1.0037821
1.0038299
1.0039217
1.003961
1.0040191
1.0040843
1.0041625
1.0042391
1.0043201
1.0044155
1.0045097
1.0046229
1.0047607
1.0048805
1.0049839
1.0051376
1.0052943
1.005408
1.0055983
1.0057418
1.0058963
1.0060675
1.0062115
1.0063758
1.0065358
1.0066687
1.0068718
1.0070431
1.0072003
1.0073476
1.007579
1.007754
1.0078838
1.0081144
1.0082802
1.0084352
1.0085837
1.0088426
1.0090025
1.0091349
1.0093611
1.0095152
1.0097204
1.009801
1.0100906
1.0102277
1.0103351
1.010458
1.0106235
1.0107676
1.0108423
1.0111037
1.0112112
1.0113008
1.0114518
1.0115472
1.0116859
1.0118073
1.0119209
1.0120075
1.0121802
1.0122379
1.0123178
1.0123471
1.0123762
1.0123719
1.0124133
1.0124252
1.0123955
1.0123799
1.0123033
1.0122284
1.0121729
1.0120607
1.0119615
1.0118029
1.0116491
1.0114519
1.0112538
1.0110048
1.0107342
1.0105096
1.0102571
1.0099693
1.0097193
1.0094417
1.0091716
1.0029634
1.0027967
1.0027836
1.0028762
1.0029391
1.0030027
1.0030594
1.0031267
1.0031908
1.0032691
1.0033383
1.0034121
1.0034744
1.0035364
1.0035868
1.0036477
1.0037237
1.0037663
1.0038499
1.0038984
1.0039532
1.0040253
1.0040865
1.0041338
1.0042293
1.0043101
1.0044099
1.0045062
1.0046232
1.0047614
1.0048881
1.0050276
1.0051468
1.00532
1.0054431
1.0055928
1.0057502
1.0058769
1.006042
1.0061878
1.0063574
1.0065447
1.0066655
1.0068451
1.0070238
1.007168
1.007366
1.0075206
1.007718
1.0078522
1.0080866
1.008222
1.0084055
1.0085924
1.0087447
1.0089037
1.0090812
1.0091845
1.0094864
1.0096347
1.009745
1.0099781
1.0101271
1.0102497
1.010385
1.0105647
1.0106571
1.0108101
1.0109581
1.0111065
1.0112378
1.011319
1.0115842
1.011674
1.0117486
1.0118761
1.011968
1.0121184
1.0122281
1.0123232
1.0123782
1.0124413
1.0124692
1.0124815
1.0124734
1.0124503
1.0124152
1.0123296
1.0122292
1.0121548
1.0120444
1.0119535
1.0117907
1.0116449
1.0114369
1.0112182
1.0109942
1.0107004
1.0104462
1.0102215
1.009909
1.0096313
1.0093878
1.009069
1.0029648
1.0027982
1.002799
1.0028699
1.0029342
1.003
1.003065
1.0031346
1.0032037
1.0032723
1.0033477
1.0034218
1.0034904
1.0035436
1.0035989
1.0036652
1.0037106
1.0037708
1.0038431
1.0038903
1.0039506
1.0040203
1.0040775
1.0041387
1.0042213
1.0043015
1.0044253
1.0045305
1.0046484
1.0047965
1.0049279
1.0050488
1.005188
1.0053269
1.0054302
1.005579
1.0057402
1.0058694
1.0060316
1.0061963
1.0063385
1.0065134
1.0066509
1.0068795
1.0070369
1.0071919
1.0073584
1.0075327
1.0077081
1.0078495
1.0080471
1.0082214
1.0083296
1.0085884
1.0087237
1.0088758
1.0090313
1.00918
1.009365
1.0094941
1.0096691
1.0098169
1.0099409
1.0101091
1.0102687
1.0104359
1.0105374
1.0106813
1.0108475
1.0109881
1.011108
1.0112491
1.0113665
1.0115425
1.011649
1.0117702
1.0118849
1.0120233
1.0121051
1.0122217
1.0123187
1.0123921
1.0124479
1.0124749
1.0124807
1.0124655
1.0124464
1.0123719
1.0122501
1.012151
1.0120303
1.0119182
1.0117621
1.011608
1.0114175
1.0111896
1.0109789
1.010689
1.010431
1.0101372
1.0099024
1.0096022
1.009364
1.0090428
1.0029693
1.0027942
1.0027898
1.0028724
1.0029414
1.0030043
1.0030676
1.0031378
1.0032093
1.0032745
1.003343
1.0034183
1.0034898
1.0035452
1.0035991
1.0036531
1.0037197
1.0037594
1.0038164
1.0038666
1.00394
1.0039951
1.0040651
1.0041339
1.0042233
1.0043065
1.0044201
1.0045327
1.0046535
1.0047786
1.0049083
1.0050392
1.005165
1.0053043
1.0054483
1.0055867
1.0057224
1.0058774
1.0060006
1.0061969
1.0063434
1.0064562
1.0066779
1.0068552
1.0069891
1.0071956
1.0073211
1.0075186
1.0076883
1.0078535
1.0080206
1.0082003
1.008377
1.008553
1.0086574
1.008903
1.0090807
1.0092111
1.0093615
1.0094875
1.0096518
1.0097737
1.0099071
1.0100868
1.01018
1.0103976
1.0105198
1.0106465
1.0107564
1.0109003
1.0110178
1.0111616
1.0112543
1.0113807
1.0115312
1.0116284
1.0117732
1.0118681
1.0119824
1.0121269
1.012213
1.012312
1.0123761
1.0124382
1.0124499
1.0124828
1.0124495
1.0123988
1.0122936
1.0121835
1.0120476
1.0119088
1.0117413
1.0115947
1.0114054
1.0111843
1.0109831
1.010701
1.0104322
1.0101303
1.0099
1.0095852
1.0093447
1.0090283
1.0029751
1.0027903
1.0027886
1.0028676
1.0029349
1.0029945
1.0030641
1.0031371
1.0032006
1.0032686
1.0033489
1.0034135
1.0034857
1.0035406
1.0035955
1.0036417
1.0036975
1.0037692
1.0038215
1.0038802
1.0039387
1.0040033
1.0040597
1.0041578
1.0042452
1.0043236
1.0044656
1.0045612
1.0046934
1.0048078
1.0049381
1.005073
1.0051664
1.0053415
1.0054513
1.0055731
1.0057521
1.0058622
1.0060136
1.0061915
1.0063075
1.0064445
1.0066404
1.0067977
1.0070019
1.0071494
1.007334
1.0074615
1.0076826
1.0078309
1.0079788
1.0081577
1.0083101
1.008495
1.0086124
1.0088235
1.0090044
1.0091368
1.0092574
1.0094291
1.0095601
1.0097424
1.0098603
1.0100254
1.0101591
1.0103132
1.0104287
1.0105702
1.0106476
1.0108436
1.0109585
1.011061
1.0111732
1.0112851
1.0113896
1.0115306
1.0116236
1.0117337
1.0118658
1.0119534
1.0120475
1.012157
1.0122481
1.0123186
1.0123563
1.0123802
1.0124154
1.012362
1.0122855
1.0121747
1.0120698
1.0119197
1.0117503
1.0115848
1.0113858
1.0111656
1.0109659
1.0106907
1.0104524
1.0101342
1.0098945
1.0095774
1.0093471
1.0090251
1.0029796
1.0027867
1.002789
1.0028664
1.0029334
1.0029971
1.0030686
1.003137
1.0031988
1.0032714
1.003332
1.0034105
1.0034846
1.0035431
1.0035841
1.0036385
1.0036997
1.0037511
1.0038195
1.0038786
1.0039358
1.0039914
1.0040766
1.0041484
1.0042315
1.0043253
1.0044339
1.0045382
1.0046982
1.0047978
1.0049757
1.0050688
1.0051747
1.0052982
1.0054238
1.005588
1.0057061
1.0058399
1.005999
1.0061633
1.006282
1.0064835
1.0066158
1.0068311
1.007004
1.0071525
1.0072877
1.0074832
1.0076337
1.0077753
1.0079694
1.0081144
1.0082835
1.0084502
1.008602
1.0087652
1.008976
1.0091046
1.0092308
1.0093839
1.0095948
1.0097049
1.0099155
1.0100439
1.010148
1.0102983
1.0103997
1.0105432
1.010666
1.0107656
1.0108896
1.0110134
1.0111307
1.011214
1.0113195
1.0114398
1.0115194
1.0116216
1.0117141
1.011811
1.0119149
1.011998
1.012101
1.0121789
1.0122633
1.0122983
1.0123204
1.0123033
1.012245
1.0121529
1.0120416
1.0119302
1.0117606
1.011601
1.0114095
1.0111712
1.0109612
1.0106847
1.0104589
1.0101335
1.009901
1.0095814
1.0093403
1.0090274
1.0029814
1.0027859
1.0027921
1.0028663
1.0029318
1.0030036
1.0030728
1.0031372
1.0032009
1.0032732
1.0033419
1.0034156
1.0034711
1.0035365
1.0035796
1.0036414
1.0036898
1.0037632
1.0038044
1.0038716
1.003922
1.0039881
1.0040488
1.0041495
1.0042459
1.0043332
1.0044517
1.0045577
1.0046644
1.004802
1.004925
1.0050233
1.0051624
1.0052891
1.0054231
1.0055485
1.0057089
1.0058365
1.0060123
1.0061685
1.0063209
1.0065067
1.0066418
1.0067974
1.0069674
1.0071489
1.0072711
1.0074296
1.0076184
1.0077599
1.0079352
1.008102
1.0082407
1.0084593
1.008612
1.0087656
1.0089094
1.0090584
1.0092563
1.0094003
1.0095736
1.0096952
1.0098484
1.0100126
1.0101312
1.0102804
1.010375
1.0105218
1.0106153
1.0107281
1.010837
1.0109701
1.0110667
1.011159
1.01125
1.0113714
1.0114541
1.0115359
1.0117269
1.0117438
1.0118094
1.0118933
1.0119683
1.0120323
1.0121134
1.0121663
1.012209
1.0122152
1.0121743
1.0120975
1.0119877
1.0118723
1.0117324
1.0115713
1.0114115
1.0111971
1.0109774
1.0107039
1.0104706
1.0101552
1.0098969
1.0095735
1.0093301
1.0090127
1.0029809
1.0027847
1.0027902
1.0028685
1.0029382
1.0030088
1.0030763
1.0031378
1.0032007
1.0032747
1.0033498
1.0034125
1.0034787
1.0035264
1.0035764
1.00364
1.0036881
1.0037531
1.0037979
1.0038693
1.003911
1.0039941
1.004061
1.0041516
1.004248
1.0043373
1.0044487
1.0045595
1.0046724
1.0047774
1.0049017
1.0050112
1.0051522
1.0052799
1.0054234
1.0055427
1.0057066
1.0058268
1.0060247
1.0061539
1.006368
1.0065183
1.0066516
1.0068044
1.0069794
1.00713
1.0072576
1.0074365
1.0075696
1.007754
1.0078775
1.0080992
1.008249
1.0084234
1.0085704
1.0087363
1.0088863
1.0090402
1.0092417
1.0093825
1.009581
1.0096832
1.0098288
1.0099707
1.0100903
1.0102237
1.0103682
1.0104935
1.0106089
1.0107242
1.0108065
1.010931
1.0110322
1.0111384
1.011228
1.011324
1.0113839
1.011488
1.0115923
1.0116573
1.0117398
1.0118215
1.0118935
1.0119363
1.0119827
1.012043
1.0120869
1.0120945
1.0120863
1.0120236
1.0119421
1.0118337
1.0117076
1.0115492
1.011389
1.0111775
1.0109756
1.0107168
1.0104915
1.0101893
1.0099169
1.0095775
1.00934
1.0090186
1.0029787
1.0027862
1.0027919
1.0028733
1.0029405
1.0030016
1.0030747
1.0031378
1.0032022
1.0032741
1.0033551
1.0034183
1.0034756
1.0035131
1.0035772
1.0036374
1.0036774
1.0037348
1.0038002
1.003848
1.0039188
1.0039761
1.0040545
1.0041303
1.0042401
1.0043405
1.0044506
1.0045571
1.004671
1.0047923
1.0048898
1.005039
1.0051467
1.0052821
1.0054447
1.0055433
1.005708
1.0058208
1.0060225
1.0061607
1.0063021
1.0064837
1.0066521
1.0067752
1.0069542
1.0070837
1.0072366
1.0073873
1.0075382
1.0076919
1.0078637
1.0080749
1.0082321
1.008391
1.0085602
1.0087361
1.0088629
1.0090689
1.009205
1.0093493
1.0095009
1.00967
1.0098243
1.0099325
1.0100986
1.0102113
1.010319
1.0104762
1.0105856
1.0107086
1.0108152
1.0109141
1.0109907
1.0111174
1.0112036
1.0112959
1.0113784
1.0114277
1.0115262
1.0115901
1.0116554
1.0117716
1.0117924
1.011856
1.0118862
1.0119215
1.011962
1.0119733
1.0119617
1.0119119
1.0118565
1.0117524
1.0116391
1.0114811
1.0113343
1.0111527
1.0109553
1.0106871
1.0104732
1.0101742
1.0099308
1.0096014
1.0093385
1.0090359
1.0029763
1.002789
1.002804
1.002876
1.0029379
1.0030095
1.0030726
1.0031426
1.0032108
1.0032806
1.0033544
1.0034184
1.0034711
1.0035152
1.0035729
1.0036242
1.0036764
1.0037241
1.0037772
1.0038472
1.0039019
1.003973
1.004056
1.0041331
1.0042273
1.0043548
1.0044523
1.0045707
1.0046741
1.0048072
1.0048982
1.0050346
1.0051526
1.0052846
1.0054191
1.0055307
1.0056899
1.0058143
1.0059564
1.0061454
1.0062734
1.0064247
1.0066121
1.006747
1.0069028
1.0070622
1.0072348
1.0073959
1.0075493
1.0077166
1.0078711
1.0080584
1.0082061
1.0084257
1.0085535
1.008746
1.0088807
1.0090426
1.0092033
1.0093548
1.0095067
1.0096227
1.0097896
1.0099113
1.0100838
1.0102016
1.010326
1.0104335
1.0105646
1.0106858
1.0107823
1.010886
1.0109705
1.011103
1.0111576
1.0112376
1.0113469
1.0113941
1.0114831
1.0115252
1.0115859
1.0116874
1.0117129
1.0117353
1.0117828
1.0118043
1.0118379
1.0118508
1.0118367
1.0117952
1.0117263
1.0116521
1.0115443
1.0114156
1.0112629
1.011093
1.0109076
1.0106771
1.0104691
1.0101792
1.0099232
1.0096203
1.0093017
1.00901
1.0029761
1.002789
1.0028059
1.0028749
1.0029455
1.0030055
1.0030794
1.0031428
1.003212
1.0032846
1.003357
1.0034174
1.0034589
1.0035148
1.0035665
1.0036154
1.0036524
1.0037152
1.0037694
1.0038228
1.0038893
1.0039591
1.0040595
1.0041407
1.0042346
1.0043311
1.004455
1.0045478
1.0046755
1.0047891
1.0048897
1.005012
1.0051354
1.0052657
1.0053922
1.005528
1.0056925
1.005816
1.0059644
1.0061282
1.0062536
1.0064213
1.0065799
1.0067339
1.0069043
1.0070604
1.0072907
1.0074116
1.0075943
1.0077354
1.0079157
1.0080875
1.0082176
1.008408
1.0085577
1.0087051
1.0088938
1.0090222
1.0091768
1.0093565
1.0094537
1.0096336
1.0097715
1.00992
1.0100127
1.010206
1.0103265
1.010426
1.010545
1.0106554
1.0107523
1.0108641
1.0109532
1.0110506
1.0111664
1.0112412
1.0113227
1.01139
1.0114585
1.0115105
1.0115627
1.0116107
1.0116706
1.0116961
1.0117142
1.0117121
1.0117297
1.0117403
1.0117142
1.0116927
1.0116066
1.0115449
1.0114468
1.0113275
1.0111886
1.0110366
1.0108532
1.0106466
1.010414
1.0101804
1.0099105
1.0096153
1.0093335
1.0090127
1.0029785
1.0027877
1.0027994
1.0028797
1.0029458
1.0030166
1.0030802
1.0031463
1.0032134
1.0032805
1.0033528
1.0034071
1.0034524
1.0035105
1.0035529
1.0036057
1.0036417
1.0037012
1.0037468
1.0038052
1.0038691
1.0039583
1.0040488
1.004143
1.0042315
1.0043442
1.0044478
1.004547
1.0046676
1.0047704
1.0048893
1.0050013
1.0051433
1.005259
1.0053946
1.0055356
1.0056964
1.0058245
1.005971
1.0061298
1.0062619
1.0064479
1.006604
1.0067488
1.0069281
1.0071029
1.007244
1.0074273
1.0075853
1.0077321
1.0079245
1.0080581
1.0082449
1.0084106
1.0085207
1.0087059
1.0088776
1.0090141
1.0091745
1.0093191
1.0094497
1.0095865
1.0097337
1.0098496
1.0100343
1.0101243
1.0102576
1.0104039
1.0104927
1.0106062
1.0107365
1.0108189
1.0109361
1.0110353
1.0111193
1.0112321
1.0113094
1.0113791
1.0114687
1.0115046
1.0115579
1.0116031
1.0116358
1.0116917
1.0116968
1.0116886
1.0117104
1.0116862
1.0116456
1.0116221
1.0115146
1.0114355
1.0113558
1.0112346
1.0111074
1.010956
1.010771
1.0105975
1.0103841
1.0101448
1.0099112
1.009611
1.0093249
1.0090006
1.0029815
1.002787
1.0027963
1.0028784
1.0029465
1.0030189
1.0030847
1.0031455
1.0032169
1.0032837
1.0033532
1.0034053
1.0034524
1.0035014
1.0035378
1.0035883
1.0036244
1.0036825
1.0037358
1.0037966
1.0038727
1.0039491
1.0040398
1.0041346
1.0042345
1.0043285
1.0044341
1.0045355
1.0046476
1.0047572
1.0048782
1.0049967
1.005128
1.0052605
1.0053944
1.0055429
1.0057006
1.0058178
1.0059999
1.0061464
1.0062806
1.0064513
1.0066098
1.0067526
1.0069235
1.0071103
1.0072499
1.0074071
1.0075776
1.0077167
1.0078789
1.0080522
1.0082025
1.0083637
1.0085094
1.0086768
1.008846
1.0089617
1.0091393
1.0092947
1.0094285
1.0095573
1.0097207
1.0098446
1.0099758
1.0101061
1.0102252
1.0103569
1.0105157
1.0105994
1.0107271
1.0108255
1.0109171
1.0110177
1.0111044
1.0112331
1.0112937
1.0113712
1.0114389
1.0115002
1.0115408
1.0115807
1.0116215
1.0116404
1.0116884
1.0116731
1.0116661
1.0116431
1.0116003
1.0115719
1.0114699
1.0113705
1.0112754
1.0111608
1.0110236
1.0108826
1.0107021
1.0105372
1.0103351
1.0101094
1.0098961
1.0096256
1.0093511
1.0090179
1.0029829
1.0027878
1.0027957
1.0028802
1.0029478
1.0030181
1.0030853
1.0031495
1.0032226
1.0032839
1.0033493
1.0034031
1.0034399
1.0034929
1.0035268
1.0035696
1.0036095
1.0036684
1.0037194
1.003789
1.003864
1.0039337
1.0040448
1.0041294
1.0042161
1.0043261
1.0044213
1.0045276
1.0046456
1.0047534
1.004872
1.0050043
1.0051247
1.0052686
1.0053989
1.0055393
1.005687
1.0058125
1.0059881
1.0061286
1.0062722
1.0064628
1.0065939
1.0067816
1.0069222
1.0070985
1.0072477
1.007401
1.0075717
1.0077194
1.00788
1.0080246
1.0081778
1.0083282
1.008482
1.008616
1.0087844
1.0089433
1.0091132
1.0092544
1.0093912
1.0095286
1.0096681
1.0098318
1.0099727
1.0100949
1.010201
1.0103371
1.0104404
1.01058
1.0106901
1.0108247
1.0109117
1.0110243
1.011107
1.0112206
1.0112735
1.0113655
1.0114484
1.0114949
1.0115548
1.011592
1.0116139
1.0116344
1.0116739
1.0116712
1.011652
1.0116378
1.0115889
1.0115261
1.0114398
1.0113319
1.011222
1.0110998
1.0109642
1.0108145
1.0106639
1.0104814
1.0102947
1.0100802
1.0098764
1.0096106
1.0093617
1.009032
1.0029835
1.0027881
1.0027961
1.0028834
1.0029558
1.0030175
1.0030901
1.0031555
1.0032249
1.0032867
1.0033455
1.003396
1.0034369
1.0034776
1.0035122
1.0035589
1.0035952
1.0036533
1.0037168
1.0037831
1.0038503
1.0039379
1.0040292
1.0041215
1.0042198
1.0043078
1.0044119
1.004535
1.0046415
1.0047493