/*--------------------------------*- C++ -*----------------------------------*\
| =========                 |                                                 |
| \\      /  F ield         | OpenFOAM: The Open Source CFD Toolbox           |
|  \\    /   O peration     | Version:  2406                                  |
|   \\  /    A nd           | Website:  www.openfoam.com                      |
|    \\/     M anipulation  |                                                 |
\*---------------------------------------------------------------------------*/
FoamFile
{
    version     2.0;
    format      ascii;
    arch        "LSB;label=32;scalar=64";
    class       volScalarField;
    location    "100";
    object      rho_0;
}
// * * * * * * * * * * * * * * * * * * * * * * * * * * * * * * * * * * * * * //

dimensions      [1 -3 0 0 0 0 0];

internalField   nonuniform List<scalar> 
20580
(
0.99955377
1.0011825
1.0021226
1.0035532
1.0018681
1.0008716
1.0021264
1.0024069
1.0035383
1.0025642
1.0030067
1.0030159
1.0038637
1.0034816
1.0026738
1.0038156
1.0048713
1.0003943
1.0031554
1.0064772
1.0011158
1.0003388
1.0038274
1.0048334
0.99668999
0.99642339
1.0053524
1.002791
1.0016399
1.0116838
1.0057404
0.99964609
1.0006887
1.0021128
1.0035694
1.0022823
1.0008368
1.0022753
1.0024745
1.0037251
1.0027012
1.0026415
1.0033008
1.0042691
1.003071
1.0024848
1.0045121
1.0038681
0.99961996
1.0053707
1.0060604
0.99900478
1.0013325
1.0045793
1.0028403
0.99452665
0.99720762
1.0112102
1.009448
0.99753023
1.0022837
1.0112215
1.000407
1.0013771
1.0023548
1.0029666
1.0028804
1.001679
1.0026649
1.0026444
1.0033561
1.0030062
1.0023673
1.003509
1.0042321
1.0026375
1.0024728
1.005001
1.0029072
0.99950497
1.0068454
1.0053239
0.99793248
1.0032215
1.0053214
1.0022265
0.99547649
0.99805957
1.013226
1.0140019
0.99563225
0.99155284
1.0086669
1.0015722
1.002898
1.0026722
1.0020852
1.0032962
1.0030662
1.0030336
1.0029224
1.0028177
1.0030664
1.0024386
1.0035188
1.0039343
1.002355
1.0026469
1.005056
1.0022404
1.0003538
1.0071531
1.0040401
0.99803586
1.0053699
1.0055194
1.0022774
0.99951835
0.9999455
1.0107466
1.0141918
0.99661567
0.98448396
0.99880164
1.0028336
1.0044558
1.0027985
1.0015048
1.0031604
1.0041728
1.0031179
1.0031594
1.0025
1.0029358
1.002854
1.0035121
1.0034799
1.0024323
1.0030976
1.0045046
1.0019603
1.0021435
1.0064797
1.0023057
0.99933361
1.0072201
1.0044215
1.0016096
1.004415
1.0030073
1.0053401
1.0094073
0.99998936
0.98501481
0.98956564
1.0037074
1.0054317
1.00245
1.0013734
1.0025146
1.0042671
1.0028662
1.0031606
1.002451
1.002919
1.0032813
1.0035566
1.0029039
1.0027467
1.0037421
1.0036338
1.0018495
1.0042434
1.0052052
1.0005388
1.0011123
1.0087267
1.0025378
0.99921146
1.0079486
1.0069597
0.99972765
1.0014368
1.0041313
0.99449367
0.98860775
1.003615
1.0053771
1.0016511
1.0015606
1.0018343
1.0034119
1.0024329
1.0028605
1.0025503
1.0028764
1.0036533
1.0035894
1.0022698
1.0032007
1.00417
1.0028984
1.001788
1.0059585
1.0037506
0.99936522
1.0026454
1.0090866
1.0008858
0.99616594
1.0086174
1.0104503
0.99670483
0.99349863
1.0047674
1.0087161
0.99813996
1.0026659
1.0042456
1.0009681
1.0021479
1.0016098
1.0021817
1.002242
1.002567
1.002655
1.0027041
1.0036865
1.0035516
1.0021121
1.0036547
1.0043745
1.0024432
1.0018613
1.0069105
1.0024682
0.99924646
1.0041285
1.00808
0.99996423
0.99456602
1.0063067
1.0117863
0.99723838
0.98892397
1.0015497
1.0184739
1.0139101
1.001433
1.002553
1.0009899
1.0028941
1.0019631
1.001333
1.0025185
1.0025228
1.0026803
1.0026725
1.0034528
1.0033295
1.0024455
1.0039396
1.0044055
1.0022723
1.0020893
1.0068259
1.0014143
1.0001929
1.005457
1.0060415
1.000156
0.99583336
1.0030645
1.0100684
1.0006993
0.98993365
0.99740689
1.0171698
1.0237716
1.0005077
1.0012957
1.0019013
1.0032322
1.0027665
1.0013368
1.0029754
1.002589
1.002644
1.0026934
1.0033015
1.0030247
1.0028905
1.0038518
1.0040906
1.0025699
1.0026441
1.0056843
1.0006124
1.0020842
1.0063065
1.0028631
1.0008481
1.0002305
1.0011806
1.0050893
1.0043613
0.99675742
0.99695599
1.0069873
1.0193388
1.000065
1.0011481
1.0033265
1.0031256
1.0036197
1.002072
1.0032092
1.0026868
1.0027201
1.00267
1.0032225
1.0028183
1.0034283
1.0036306
1.0033508
1.0030013
1.0034921
1.0040514
1.0001435
1.0041979
1.0070329
0.99944571
1.0010752
1.0063658
1.0017519
0.99884949
1.004524
1.0063927
1.0015332
0.99801301
1.0029655
1.0003966
1.0019415
1.0044042
1.0028586
1.0038628
1.0031219
1.0030603
1.0027969
1.0028595
1.0029608
1.0028397
1.002672
1.003946
1.0034445
1.0026008
1.0033508
1.0044155
1.0025747
1.0001926
1.0055391
1.0074704
0.99701826
1.0003731
1.0115077
1.0048419
0.99454725
1.0007714
1.0130498
1.0094852
0.99633491
0.98808612
1.00141
1.0033115
1.004232
1.0025308
1.0032227
1.0038591
1.0026228
1.0028631
1.0030201
1.0034945
1.0023808
1.0028062
1.0044001
1.0033688
1.0023106
1.0036174
1.0052477
1.0016002
1.000863
1.0060325
1.0070647
0.99619289
0.99934711
1.0133267
1.0082779
0.99364139
0.99622055
1.0127192
1.0162426
1.0011604
0.98492523
1.0026616
1.0048051
1.0026594
1.0021319
1.0021873
1.0037209
1.0021784
1.0028129
1.0031448
1.0038032
1.0024252
1.0030206
1.0043968
1.0033819
1.0022604
1.0036143
1.0055924
1.0011864
1.0022024
1.0057285
1.005964
0.99720271
0.99929067
1.0112073
1.0094379
0.99566634
0.99452583
1.006461
1.0160946
1.00778
0.9917721
1.0036534
1.0057302
1.0007386
1.0020813
1.0014854
1.0030388
1.002142
1.0027491
1.0030852
1.0035586
1.0029618
1.0031557
1.0038432
1.003384
1.0026048
1.0034108
1.0051397
1.0012561
1.0040531
1.0045928
1.0039954
0.99988694
1.0010375
1.0067665
1.0067643
0.99946
0.99703225
1.0007579
1.0073866
1.0091799
1.0027993
1.0038159
1.0053767
0.99980041
1.002382
1.0015283
1.0023811
1.002665
1.002833
1.0029706
1.0027519
1.0034224
1.0033302
1.0030936
1.0033676
1.0035311
1.0033157
1.0041382
1.0015523
1.0060083
1.0033
1.0010736
1.0029639
1.0041831
1.0024905
1.0007201
1.0028125
1.0027422
0.9997304
0.99660753
1.0026096
1.0088087
1.0026733
1.0039808
1.0004328
1.0025244
1.0021918
1.0020316
1.0033599
1.0031042
1.0029958
1.0020549
1.0036553
1.0036652
1.0025827
1.0032132
1.0045764
1.0034904
1.0031367
1.0018005
1.0073199
1.0026882
0.99836036
1.0050594
1.0081378
1.0005934
0.99472941
1.0037277
1.0099943
1.0031366
0.99191167
0.99291451
1.0072046
1.001095
1.0021372
1.0023402
1.0025142
1.0031174
1.0022036
1.0035194
1.0032204
1.0029232
1.0021686
1.0037231
1.0040011
1.0025316
1.0029831
1.0050721
1.0037186
1.0023444
1.0019773
1.0075759
1.0027239
0.99718313
1.0054778
1.0114075
1.0008956
0.99219406
1.0023184
1.0149877
1.0090852
0.99400736
0.98872328
1.0008696
1.0001157
1.0009103
1.0043132
1.0027021
1.0038183
1.0027672
1.0032415
1.0030445
1.0026464
1.0029911
1.003488
1.0040716
1.0027549
1.0029344
1.0048845
1.0038955
1.001976
1.0023947
1.0068773
1.0030327
0.99784802
1.0043136
1.0119929
1.0024335
0.99356009
1.0004174
1.0143918
1.0129028
0.99924972
0.99158214
0.99656974
0.99996974
1.0010151
1.0050299
1.002833
1.0036959
1.003407
1.0029738
1.0027924
1.0026654
1.0036839
1.0030733
1.0038612
1.0032085
1.0031391
1.0043247
1.004067
1.0023086
1.0032817
1.0051041
1.003377
1.0003191
1.0033042
1.0085884
1.0038897
0.99732141
1.001404
1.0084673
1.0103649
1.0041937
0.99821132
0.99780451
1.0007982
1.0022814
1.0038475
1.0026875
1.0030453
1.0034683
1.0025692
1.002597
1.0029653
1.0036398
1.0028785
1.0034238
1.0036271
1.0035077
1.0035577
1.0039682
1.0029376
1.0045348
1.0028649
1.0031595
1.0037939
1.0031374
1.0031952
1.0031547
1.0025508
1.0043651
1.0028344
1.0015437
1.0045254
1.0056338
1.0032232
1.0023967
1.004417
1.0014398
1.0026718
1.0021795
1.0030506
1.0026616
1.0027835
1.0032516
1.0033842
1.0033884
1.0030634
1.0039387
1.0042546
1.0030186
1.0037146
1.00362
1.0059777
1.0013105
1.0024178
1.0074556
1.0042327
0.99909204
1.0003218
1.0072446
1.0089716
1.0010338
0.99328906
0.99985827
1.0104391
1.0103458
1.00367
1.0066069
1.0000789
1.0033417
1.0023493
1.0029639
1.0033342
1.0035932
1.0036785
1.0035668
1.004376
1.0030448
1.004273
1.0053087
1.0030514
1.0035546
1.0041041
1.0074372
1.0008992
1.0014451
1.0095391
1.0062935
0.99787293
0.99769585
1.0082452
1.0135378
1.0030618
0.99045021
0.9943622
1.0098098
1.0149808
1.0040437
0.99919772
0.99810067
1.003126
1.0114177
1.0174261
1.0180147
1.0102017
0.99607559
0.98510033
0.98501749
0.99479557
1.0075643
1.0139848
1.0082688
0.99605245
0.99064079
0.99908821
1.0145117
1.0234486
1.0169657
0.99557731
0.97631425
0.98911161
0.99190111
0.99714703
1.0035952
1.0090438
1.0104702
1.0074393
1.0036448
1.0033283
1.0078619
1.0131905
1.0141587
1.0077199
0.99442614
0.9813716
0.97772145
0.98705772
1.0065168
1.0245197
1.0276578
1.0138769
0.9952106
0.98422396
1.0100792
1.0095412
1.004116
0.9957441
0.98683464
0.98153383
0.98347786
0.9935427
1.0087281
1.022524
1.027375
1.0203001
1.0044516
0.99122948
0.98768431
0.99372975
1.0039303
1.0090103
1.0057033
0.99441923
0.98541922
0.98779873
1.001215
1.0318096
1.0214086
1.0070037
0.99352052
0.98550129
0.98665853
0.9925627
1.0005597
1.006279
1.0062336
0.99971628
0.98945128
0.98644855
0.99532976
1.014474
1.0322386
1.0347182
1.0197208
0.99299388
0.97103588
0.96573618
0.97729873
1.0004131
1.0051696
0.99887574
0.99699225
1.0025825
1.0140572
1.0250211
1.0295754
1.0228302
1.0064064
0.98672982
0.97093815
0.96675417
0.97518916
0.99518251
1.018941
1.0362459
1.0350769
1.0170849
0.99585956
0.98603421
0.99026954
1.0015785
1.0118275
0.97482426
0.97850198
0.99049422
1.007553
1.0251628
1.0359719
1.0330463
1.0197792
1.0034411
0.99150872
0.99032095
0.99609694
1.003345
1.0068876
1.0055048
0.99839227
0.98738957
0.98009943
0.9849308
1.0047255
1.0324612
1.0506583
1.0437512
0.99789515
1.0038552
1.0056284
1.0036696
0.99783242
0.99158357
0.98583606
0.98317018
0.98865468
1.0053006
1.0287876
1.0483171
1.0507669
1.0334248
1.0028513
0.97476198
0.95739706
0.955531
0.96966479
0.99877736
1.0341614
1.0587452
1.0531275
1.0525747
1.0382182
1.0158956
0.99393819
0.9773221
0.96639815
0.96182751
0.96476239
0.97929341
1.0039172
1.0329489
1.0545259
1.0528008
1.0338628
1.0090305
0.98980431
0.98520061
0.9883949
0.99550138
1.0028958
1.0097034
1.0113892
1.0028206
1.0388448
1.0273954
1.0154768
1.0032152
0.99357951
0.99219065
0.99844818
1.0058529
1.0083621
1.0057071
1.0012006
0.99831377
0.99544109
0.99197572
0.9932634
1.0066754
1.0313315
1.0559654
1.0603095
1.0415223
1.006985
0.97381891
0.95094113
0.98275545
0.97984012
0.98446665
1.0000867
1.0271234
1.0555776
1.0723316
1.0674807
1.0428469
1.009505
0.98185267
0.96469597
0.95423674
0.95144523
0.96428245
0.99492623
1.0405879
1.0876344
1.1026525
1.0759527
1.0268461
0.98278273
0.95579671
0.95521272
0.95846185
0.97261294
0.99762448
1.0333371
1.0709189
1.094222
1.0854922
1.0556832
1.01943
0.99030233
0.97423611
0.97115888
0.97348994
0.98122464
0.99431061
1.0161172
1.0434498
1.0638481
1.0582844
1.038045
1.0131286
0.99862027
0.98271477
0.99252205
1.0034887
1.0145719
1.0221304
1.0280616
1.0313659
1.0292551
1.0254038
1.0206296
1.0168868
1.0232818
1.0345179
1.0424993
1.0399308
1.0238459
1.0052831
0.99456638
0.99151493
0.99131714
0.99377131
1.0071803
1.0333881
1.0702534
1.0599096
1.0373992
1.012612
0.9927712
0.98288027
0.97754077
0.97340801
0.97549651
0.98704551
1.0150285
1.0611521
1.1102215
1.1335011
1.1109267
1.0588111
1.0067234
0.97247016
0.95757626
0.95068509
0.95437438
0.97261697
1.0142716
1.1504144
1.1115423
1.0543549
1.0046362
0.97434858
0.96320003
0.96206756
0.960326
0.96031457
0.97094623
1.0017672
1.0608268
1.133861
1.1828698
1.1621432
1.0920773
1.0218052
0.97726676
0.9574218
0.95418082
0.95246378
0.96467131
0.99678396
1.156264
1.1171207
1.0633723
1.0169141
0.98831913
0.97977088
0.98059973
0.98346672
0.98274876
0.98718344
1.0070326
1.0524743
1.1139613
1.1609157
1.1566875
1.1088182
1.0485469
1.0036436
0.98512925
0.98342963
0.9846725
0.98907509
1.0005624
1.1146956
1.089977
1.0608084
1.0370876
1.0239526
1.0228082
1.026467
1.0311812
1.0283682
1.0240704
1.0283918
1.0475664
1.0784972
1.112463
1.1192321
1.0972494
1.0630231
1.0358504
1.0285689
1.0329765
1.0379651
1.0319387
1.019879
1.0701705
1.060338
1.0502538
1.0460513
1.0555712
1.0720009
1.085479
1.0928868
1.0823185
1.0634556
1.0474815
1.0446536
1.0549721
1.0737134
1.0859129
1.0808386
1.0650352
1.0560638
1.066323
1.0857852
1.0986369
1.0800619
1.0467311
1.0454857
1.0435206
1.0436167
1.0536306
1.0781805
1.1132214
1.1426648
1.1546671
1.133848
1.0958145
1.0618498
1.0433385
1.0444587
1.0584568
1.0711775
1.0693853
1.0625044
1.0699844
1.0966849
1.1328747
1.1533023
1.1199904
1.0694302
1.044626
1.0434362
1.0454281
1.0620135
1.096511
1.1460279
1.1893231
1.2043574
1.1730922
1.1203318
1.0732598
1.0468459
1.0477327
1.0602879
1.0723363
1.0711315
1.0686056
1.0830302
1.1213774
1.1724619
1.1953849
1.1473967
1.0837517
1.0649654
1.0630934
1.0636198
1.0789883
1.1136335
1.1671372
1.2155121
1.2316083
1.1971139
1.1377785
1.0854898
1.0587066
1.0623092
1.0758619
1.0870119
1.0873901
1.0861879
1.1022473
1.1443193
1.1993173
1.2184422
1.1572211
1.0885886
1.1183219
1.1057765
1.0954634
1.1013346
1.1269342
1.173659
1.2156165
1.2314863
1.2040434
1.1513546
1.1059229
1.0859074
1.0908996
1.1097817
1.1212184
1.1214698
1.1135383
1.1234083
1.1615445
1.2084795
1.2176208
1.1549278
1.0871861
1.2154374
1.1799396
1.1423379
1.1212934
1.1247496
1.1546592
1.1909497
1.2110231
1.1993502
1.1630582
1.1310259
1.1264919
1.143918
1.1715004
1.1778657
1.1632211
1.138752
1.1328597
1.1633586
1.1971144
1.1937477
1.1403166
1.09067
1.3733984
1.2876756
1.1863336
1.1208514
1.0966889
1.1192077
1.1554804
1.1774604
1.1743576
1.161815
1.1605448
1.1876662
1.2368415
1.2722147
1.2530548
1.1978984
1.1418736
1.1215314
1.1405136
1.1631255
1.1560986
1.1246207
1.106124
1.5333971
1.3870778
1.2223016
1.1139385
1.0696668
1.0869074
1.1288369
1.1483529
1.1481105
1.157413
1.2020551
1.2892292
1.3784207
1.3864748
1.2973944
1.1914667
1.1193499
1.100185
1.1067083
1.115717
1.1162156
1.121789
1.1635771
1.5432323
1.4372441
1.2657959
1.144223
1.0884956
1.0989192
1.1372558
1.1560463
1.1745533
1.2128176
1.2922484
1.4051248
1.4727819
1.4104713
1.2764946
1.1587538
1.0956043
1.0758706
1.0802264
1.0862237
1.10877
1.1768013
1.2917781
1.4309428
1.4053103
1.3162697
1.222844
1.1785763
1.1932098
1.2518062
1.2699471
1.2774883
1.2907051
1.3288726
1.3814088
1.3963344
1.3331522
1.237454
1.1540518
1.1092623
1.0963102
1.1028287
1.1224989
1.1798205
1.2916297
1.4049393
1.3464649
1.3298609
1.3048971
1.2880095
1.3112752
1.3798516
1.4316457
1.3820269
1.314822
1.2679194
1.2462235
1.2469089
1.2523448
1.2509321
1.2394512
1.2232293
1.2128731
1.2122371
1.2052466
1.2076488
1.2407123
1.3005
1.3297144
1.360642
1.3228129
1.2950227
1.2980143
1.3456408
1.4355384
1.4625593
1.3842254
1.2906836
1.2248355
1.188625
1.1792369
1.1904409
1.2328303
1.3016286
1.3675384
1.3765783
1.3237237
1.2455869
1.1969406
1.1819405
1.1862754
1.191798
1.4657431
1.3705811
1.2970526
1.2612947
1.2746107
1.3262174
1.3569078
1.3473043
1.3143097
1.2754363
1.2502203
1.2350289
1.2485037
1.2852881
1.3474491
1.4037282
1.3896422
1.3044171
1.208387
1.1494026
1.129967
1.1249693
1.1433755
1.4875994
1.3904147
1.295204
1.2429653
1.2418387
1.2634508
1.2863626
1.3228422
1.3706652
1.4029641
1.3912936
1.3460217
1.3013939
1.2756031
1.2706149
1.2863705
1.2957495
1.2767836
1.2321349
1.1895809
1.170537
1.1590682
1.1875006
1.4005845
1.3644587
1.3274203
1.3082318
1.3123307
1.3215201
1.3260442
1.3455005
1.3845302
1.4244726
1.4230705
1.3687772
1.2936485
1.2351222
1.2069782
1.2066161
1.2385208
1.2921671
1.3272163
1.3095176
1.2498844
1.2005749
1.1931114
1.380456
1.3482693
1.341849
1.3727388
1.4121829
1.4152153
1.3867659
1.3553828
1.3356346
1.3335027
1.3460302
1.3447379
1.3176478
1.274965
1.2441282
1.2284776
1.2487926
1.297633
1.3476384
1.345342
1.2815873
1.2108524
1.170012
1.4349101
1.3886108
1.3553687
1.358602
1.3909486
1.4132891
1.4019178
1.3634944
1.3250606
1.30242
1.300144
1.3245905
1.3562963
1.360949
1.3236843
1.2769321
1.2470799
1.2444526
1.2646386
1.2834343
1.2792293
1.2586762
1.2234203
1.4395335
1.4099618
1.3662786
1.3416963
1.3450183
1.3659635
1.3885861
1.3996072
1.3856292
1.3551103
1.3250004
1.316866
1.3329412
1.3564025
1.3532935
1.3079831
1.2485532
1.2125123
1.2059775
1.2265568
1.2711389
1.3078278
1.2978727
1.3822927
1.3886896
1.388265
1.3804444
1.3752069
1.371921
1.3804126
1.3987128
1.4113554
1.3946456
1.351761
1.3100724
1.2892449
1.2958785
1.3194669
1.3277638
1.299636
1.2499356
1.2158356
1.2156729
1.2481146
1.2791135
1.2804914
1.3708296
1.3711905
1.3861245
1.4032526
1.4133656
1.4058293
1.3884108
1.3772455
1.3792048
1.3866593
1.3797551
1.3508991
1.310358
1.2804776
1.2758989
1.2987289
1.3253596
1.3285273
1.2972691
1.2520713
1.2235028
1.2189222
1.2208875
1.3938667
1.3831757
1.3779632
1.3897464
1.4064304
1.4149978
1.406669
1.3848656
1.3651707
1.3588895
1.3662065
1.3729917
1.3639549
1.3372707
1.3054077
1.2867771
1.2898051
1.3041005
1.3099605
1.2928478
1.2641653
1.2401447
1.224633
1.3982195
1.3967724
1.3855124
1.3764908
1.3815534
1.3965489
1.4100066
1.4107046
1.3965454
1.3762885
1.3624193
1.3619526
1.3689683
1.3685437
1.3508463
1.3209734
1.293345
1.2791599
1.2766376
1.2772322
1.2723775
1.2642389
1.2550427
1.3754443
1.3895409
1.3963033
1.3949869
1.3913047
1.3929678
1.4028166
1.4157311
1.4203742
1.4098567
1.387967
1.3657403
1.3529759
1.3499192
1.3492196
1.3409036
1.3233226
1.3036458
1.2882155
1.2777888
1.2706536
1.265542
1.260146
1.3621025
1.377816
1.3968174
1.4115677
1.4166514
1.4116426
1.4038378
1.4011651
1.4037212
1.4067675
1.4017421
1.3865102
1.3669455
1.3506696
1.3410377
1.3367333
1.3331359
1.3266396
1.3176433
1.3068992
1.2942794
1.2805692
1.2648362
1.3632695
1.3758027
1.3866509
1.3996354
1.4104054
1.4146581
1.4103082
1.4010836
1.3939794
1.3923226
1.3947206
1.39581
1.3904513
1.3789547
1.3646629
1.3509071
1.3394577
1.3300984
1.3218516
1.3137746
1.3045205
1.2928896
1.2763339
1.3343376
1.3606931
1.372728
1.379565
1.3877801
1.3983413
1.4079535
1.4124123
1.4108431
1.4055044
1.3997723
1.3955882
1.3917009
1.3860785
1.37763
1.3667711
1.3542553
1.3409891
1.3279056
1.3159791
1.3056746
1.296333
1.2842415
1.2721409
1.3174487
1.3520004
1.3712174
1.3818921
1.3900606
1.3988667
1.4073099
1.4123694
1.4123496
1.4072678
1.398629
1.3891207
1.3801089
1.3723533
1.3656387
1.3592163
1.3521193
1.3435305
1.3335155
1.3229418
1.3126886
1.3004023
1.2229447
1.2679528
1.314306
1.3507561
1.3732716
1.3855709
1.3911304
1.393614
1.3951778
1.3959145
1.3960124
1.3951077
1.3924415
1.3881917
1.3824074
1.3756056
1.368302
1.3605687
1.3522985
1.3431311
1.3332059
1.323137
1.3112055
1.1995864
1.2324935
1.2720351
1.310233
1.3399796
1.3606146
1.3737028
1.3815476
1.3858937
1.3884418
1.3899148
1.3907575
1.3909047
1.3896259
1.3864767
1.3810652
1.3736665
1.3650965
1.3559787
1.346739
1.3375904
1.3286587
1.3184917
1.1786744
1.2024906
1.2362559
1.2728004
1.3045266
1.3293498
1.3482509
1.3627851
1.3739542
1.3819338
1.3864822
1.3877186
1.3862133
1.3830946
1.3788764
1.3740391
1.3687913
1.3634196
1.3582346
1.3532339
1.3477886
1.3412924
1.3325744
1.1631692
1.1812848
1.2094152
1.2432566
1.2765612
1.3049066
1.3267929
1.3428737
1.3547065
1.3632642
1.3691043
1.3722784
1.373405
1.373055
1.3723202
1.371222
1.3694478
1.3665564
1.3626229
1.3579244
1.3525685
1.3462676
1.3381996
1.1584981
1.1737004
1.1947451
1.2203219
1.2484264
1.2758155
1.2995553
1.3184079
1.3326374
1.3431409
1.3509352
1.3567702
1.3609686
1.3638256
1.3656078
1.3663173
1.3658687
1.3638442
1.3600785
1.3549728
1.3493059
1.3437599
1.3381649
1.1541599
1.1697238
1.1875404
1.2071478
1.2288811
1.2516352
1.273346
1.2925461
1.3085424
1.3214112
1.3316366
1.3397936
1.3460938
1.3505687
1.3532035
1.3541941
1.3539522
1.3528594
1.3512737
1.3492485
1.3468529
1.3441691
1.341222
1.149485
1.1650003
1.180803
1.1973096
1.214935
1.2332072
1.2513275
1.2684234
1.2837046
1.296737
1.3075579
1.3164837
1.3238797
1.3298338
1.3343281
1.3374177
1.3394597
1.3407816
1.3417794
1.3423105
1.3422039
1.3412425
1.3398862
1.1488801
1.1617097
1.1744235
1.1873341
1.2008203
1.2145915
1.2284665
1.2422502
1.2557683
1.268199
1.2790945
1.2884931
1.2966196
1.3036102
1.3095949
1.3145857
1.3186995
1.3219948
1.3246362
1.3266822
1.3280671
1.3289174
1.3304765
1.1480526
1.1577721
1.1674139
1.1769225
1.18671
1.1965851
1.2062655
1.2160277
1.2261442
1.2362633
1.245605
1.2540176
1.2615336
1.268308
1.2744327
1.2801173
1.2853878
1.290011
1.2938294
1.2970044
1.2999472
1.3032441
1.3095225
1.1423697
1.1532336
1.1606217
1.1671562
1.1735517
1.179707
1.1852738
1.1904694
1.1954814
1.2009879
1.2065245
1.2116521
1.2163726
1.2209416
1.2255705
1.2301331
1.2346028
1.2388628
1.2426255
1.2459301
1.2493251
1.2539323
1.2641425
1.1402296
1.1495178
1.154859
1.1586743
1.1615102
1.1637069
1.165177
1.1657399
1.1655981
1.1651935
1.1650982
1.1651397
1.1652827
1.1657535
1.1666885
1.1677671
1.1688575
1.1700594
1.171523
1.1730132
1.1747035
1.1779525
1.1881982
1.1392451
1.1459438
1.1491975
1.150742
1.1508079
1.1494227
1.1469415
1.143175
1.1383715
1.132891
1.1275073
1.1226123
1.1181946
1.1143334
1.1109218
1.1077236
1.1045938
1.1017687
1.0995395
1.0976414
1.0958449
1.0957904
1.1026739
1.1395607
1.1427124
1.1435901
1.1429698
1.1404719
1.1359901
1.129846
1.1223881
1.1140705
1.1053747
1.0969555
1.0891952
1.0820102
1.075273
1.0689164
1.062748
1.0566841
1.0509937
1.0459956
1.0415322
1.0371208
1.0322916
1.0348706
1.1362122
1.1390641
1.1379634
1.1347424
1.1294596
1.1224103
1.1137468
1.1040231
1.0939424
1.0837504
1.0738811
1.0647038
1.0562005
1.0481367
1.0404428
1.0329551
1.0258144
1.0192954
1.0136139
1.0089121
1.0054727
1.0022793
1.0023883
1.133721
1.1352316
1.132099
1.1261232
1.1183042
1.1092643
1.0989578
1.0882107
1.077529
1.0667392
1.0564388
1.0468453
1.0377588
1.0292049
1.0212082
1.0138268
1.0074034
1.0027006
1.0004376
0.99965633
0.99940072
0.99920956
0.99909259
1.1310518
1.1310847
1.1252302
1.1171468
1.1078727
1.0973888
1.0860143
1.0748305
1.0636981
1.0526344
1.0425311
1.0330128
1.0237997
1.0154598
1.0081941
1.00279
1.0003001
0.99960792
0.99945813
0.99944136
0.99953722
0.99928866
0.99885798
1.1293255
1.1261046
1.1175509
1.1080306
1.0978137
1.0864484
1.0746555
1.063041
1.0513884
1.0405952
1.0311205
1.0219955
1.0135346
1.0064146
1.0013561
0.99965724
0.99963834
0.99980587
0.99981054
0.99944367
0.99921646
0.99894539
0.99889521
1.1269654
1.120198
1.1099752
1.0995613
1.088444
1.0765079
1.0645462
1.0526032
1.0411431
1.0311035
1.0218421
1.0131135
1.0061705
1.001607
0.99969932
0.99946544
0.99944839
0.99983592
0.9998695
0.99946355
0.99918058
0.99893706
0.99890139
1.1240608
1.1140086
1.1027174
1.0916051
1.0795967
1.0672816
1.0553297
1.0434709
1.0328603
1.0234364
1.0140673
1.0064656
1.0019952
1.000147
0.99980282
0.99973123
0.99944862
0.99982535
1.0001266
1.0000735
0.99956247
0.99917418
0.99901403
1.1207153
1.1075098
1.0956033
1.0838779
1.0715044
1.0594207
1.0472043
1.0352897
1.0256899
1.0170763
1.008579
1.0029266
1.0004292
0.99974518
1.0004041
1.0000951
0.99967727
0.99994031
1.0001154
1.0000349
0.99934444
0.99900129
0.99910372
1.1167647
1.101217
1.0884273
1.0761125
1.0645474
1.0529745
1.0402159
1.0288506
1.0199118
1.0115278
1.0049177
1.0013423
0.99945881
0.99966858
1.0006769
1.0003056
1.0001486
1.0000542
1.0002005
1.0003749
0.99986437
0.99930469
0.99910286
1.1126201
1.0952558
1.0815675
1.0693078
1.0582047
1.0463296
1.0339512
1.0235894
1.0146623
1.0071043
1.003054
1.0010591
0.99987562
1.0005708
1.0011031
1.0005347
0.99983949
0.99948074
1.0003165
1.0004438
0.99947348
0.99921897
0.9996393
1.1075738
1.0890787
1.0749686
1.0631342
1.0525435
1.0412312
1.0293471
1.0186703
1.0102784
1.0049992
1.002601
1.0008403
0.99965066
1.0000489
1.0000841
1.0004553
1.0007832
1.0002509
1.0007524
1.0005803
1.000019
0.99938602
0.99942598
1.1029356
1.0827896
1.0687552
1.0576478
1.0473738
1.0358434
1.0241637
1.0141116
1.0066843
1.0034593
1.0026807
1.0012024
1.0006326
1.0007161
1.000751
1.00092
0.99925844
0.99931564
1.0008741
1.0011897
1.000494
0.99955506
0.99960391
1.0972936
1.0764808
1.0628837
1.0523039
1.0424496
1.0316121
1.0207665
1.0111679
1.0047305
1.002473
1.0018475
1.0011304
1.0007319
1.0005612
1.0004377
1.0004269
1.0006032
1.0006496
1.0004679
1.000854
1.000789
0.99973098
0.99972682
1.0932802
1.071426
1.0571503
1.0464175
1.0371004
1.0267843
1.0161573
1.0077614
1.003751
1.0034824
1.0032547
1.0016295
1.0005526
1.000533
1.0013531
1.001259
0.9996949
0.99982182
1.0009609
1.0012826
0.99988758
0.9998652
1.0004142
1.0875473
1.0656073
1.0520556
1.0419139
1.0327109
1.0230856
1.0139362
1.0069228
1.0038056
1.0032441
1.0026922
1.0020374
1.0018201
1.0008272
1.0001185
1.0009194
1.0011443
1.0004305
1.000334
1.0009094
1.0011061
1.0000001
0.99930609
1.0825795
1.0612345
1.0481851
1.0376582
1.0282252
1.0193796
1.0116696
1.0064602
1.0042647
1.0042184
1.0040437
1.0027107
1.001449
1.0013787
1.001925
1.0018303
1.0009835
1.0005948
1.0008394
1.0006773
1.0002485
1.0001588
0.99997006
1.0783057
1.0559176
1.0435406
1.0346446
1.0257559
1.0165916
1.0099849
1.0069328
1.0063779
1.0061986
1.0048759
1.0036542
1.0034211
1.0028082
1.002516
1.0024751
1.0013205
1.0007426
1.0012683
1.0015184
1.0007983
0.99998435
1.0001545
1.0730664
1.0527883
1.0406654
1.0304707
1.0222219
1.0156941
1.0111201
1.008754
1.0081337
1.0076901
1.0070855
1.0065065
1.0059637
1.0050619
1.0040993
1.0037691
1.0036543
1.0021619
1.0012427
1.0016249
1.0021479
1.0010682
0.99941261
1.0708619
1.0486858
1.0375134
1.0289436
1.021528
1.0157789
1.0124253
1.0110273
1.0111681
1.0118968
1.011443
1.0099184
1.0083684
1.0082724
1.0091579
1.0078957
1.00524
1.0043338
1.0050154
1.0044595
1.0027252
1.0021544
1.0024574
1.0693897
1.0489817
1.0365268
1.0277512
1.0216662
1.017278
1.0148997
1.0146732
1.0158964
1.0168834
1.0163087
1.0160111
1.016019
1.0143859
1.013332
1.0135258
1.0126149
1.0108302
1.0098057
1.0099303
1.0091594
1.0062846
1.0043028
1.0673218
1.0495898
1.0373245
1.027449
1.0221737
1.0206295
1.0200619
1.019814
1.0204961
1.0225519
1.0238371
1.023882
1.0243185
1.0245453
1.0234924
1.0230336
1.023019
1.0228311
1.0221032
1.0201256
1.0179257
1.0160656
1.0142114
1.0621095
1.0481581
1.0372396
1.0276337
1.0231804
1.0237893
1.0255257
1.0261642
1.026874
1.0297029
1.0329797
1.0339661
1.0343584
1.0366482
1.03789
1.0367316
1.0360827
1.0370102
1.0380055
1.0367445
1.0342437
1.0328015
1.0316523
1.0560201
1.0449709
1.0363533
1.0286917
1.0249184
1.0257736
1.0296749
1.0332324
1.0356001
1.0374739
1.0402643
1.0434151
1.0459688
1.048291
1.049765
1.0499822
1.050289
1.0516563
1.052052
1.0513273
1.0511681
1.0518585
1.0514474
1.0627883
1.0450094
1.0362513
1.029004
1.0256018
1.0279948
1.0340831
1.0391245
1.0415725
1.0437503
1.0478054
1.0515823
1.0531016
1.0546222
1.0574378
1.0590288
1.0586699
1.0593563
1.0607955
1.0602427
1.0596916
1.0612781
1.0617179
1.0630055
1.0434389
1.0357134
1.0315847
1.0292
1.0305672
1.0358404
1.0419393
1.0461469
1.0487678
1.0521687
1.0557604
1.0573105
1.0574649
1.0586394
1.0601654
1.0602041
1.0597192
1.060478
1.0615833
1.0618072
1.0615412
1.0608098
1.0588715
1.0401955
1.0338784
1.0319398
1.0323511
1.0345232
1.0381345
1.0430671
1.048077
1.0515243
1.0534473
1.0548241
1.0559257
1.0566454
1.0573286
1.0577135
1.0576332
1.0573653
1.0575879
1.0582325
1.0586481
1.0580001
1.0569718
1.0517515
1.0401879
1.0338811
1.0321905
1.0334293
1.0363973
1.0396833
1.043052
1.0471679
1.0508773
1.0526871
1.0527033
1.0527041
1.0537908
1.0550334
1.0545754
1.0534329
1.0536119
1.0540313
1.0531407
1.0522584
1.0517472
1.0512642
1.055609
1.0419094
1.0365806
1.034105
1.0343898
1.0367995
1.039632
1.0426648
1.0457722
1.0487044
1.0505507
1.0507344
1.0503501
1.050876
1.0517222
1.0509713
1.0492838
1.0489175
1.0488972
1.0470824
1.044792
1.0436214
1.0428979
1.0607372
1.0453874
1.0393709
1.0363782
1.0356663
1.0368316
1.0393426
1.0421352
1.0445523
1.0465865
1.0480091
1.0485913
1.0486371
1.0485064
1.0483244
1.0474586
1.045858
1.0446284
1.0433553
1.0411719
1.0384137
1.0363911
1.0348351
1.0597364
1.0491707
1.0428512
1.0392394
1.0373157
1.0371073
1.0383738
1.0404223
1.0425785
1.044535
1.0460106
1.0471194
1.0476169
1.047531
1.0467943
1.0456181
1.044183
1.0427394
1.0407122
1.0383183
1.0356495
1.0332447
1.0304126
1.0566917
1.0530024
1.0473066
1.0430803
1.0403036
1.0388814
1.0384769
1.0388737
1.0401186
1.041677
1.0432024
1.0444003
1.0452828
1.0457848
1.045724
1.0448956
1.0438464
1.0425203
1.04088
1.03856
1.0363336
1.0341083
1.0315971
1.0722238
1.0627345
1.0552645
1.0497464
1.0458545
1.0429982
1.0412568
1.0406715
1.0406593
1.0408347
1.041099
1.0410821
1.0413391
1.0420886
1.0427728
1.0427739
1.0423214
1.0414982
1.0406363
1.0390971
1.0375523
1.0360708
1.0340815
1.0912214
1.0798908
1.071215
1.0643892
1.0590233
1.0543969
1.0504209
1.0475864
1.0459006
1.0450547
1.044443
1.0434911
1.0428167
1.0426251
1.0425869
1.0421838
1.0414353
1.0410359
1.0405405
1.039655
1.0383161
1.0374346
1.0366165
1.0921361
1.0883671
1.0826108
1.0773899
1.0731628
1.0694859
1.0661432
1.0628369
1.0595888
1.0568292
1.0544041
1.052118
1.0505213
1.0493067
1.0484139
1.0473079
1.0459791
1.0453765
1.0449345
1.0443109
1.0427533
1.041426
1.0403456
1.0861559
1.0854394
1.0799396
1.0757436
1.0725907
1.0702209
1.0691677
1.0679444
1.0663995
1.0648258
1.0631067
1.0619718
1.061043
1.0596718
1.058263
1.0567822
1.0553646
1.0546149
1.0537498
1.0528092
1.051075
1.0496272
1.0486639
1.0748256
1.0722143
1.0658559
1.0622447
1.0606232
1.0601771
1.0608598
1.0613188
1.0612874
1.060991
1.0603715
1.0604949
1.0604709
1.0598422
1.0591374
1.0583428
1.057837
1.0573784
1.0566795
1.0561529
1.0552638
1.0544671
1.0540943
1.0621398
1.0547795
1.0488569
1.045886
1.0444765
1.0440731
1.0445909
1.0454126
1.0458024
1.045644
1.0456965
1.0464933
1.0471518
1.0472101
1.0469157
1.0466468
1.0471181
1.0474576
1.0473532
1.0470447
1.046769
1.0468807
1.0489461
1.0501694
1.0421769
1.0385711
1.0361594
1.03373
1.0315642
1.0304884
1.0301541
1.0294909
1.0280434
1.0264571
1.0253372
1.0248392
1.0245058
1.0237531
1.0232622
1.0232268
1.022789
1.0221295
1.0219684
1.0223558
1.0229065
1.0234538
1.0415701
1.0346905
1.0319092
1.0297226
1.0271832
1.02467
1.0227724
1.0209956
1.0187825
1.0162805
1.0142308
1.0133479
1.0125805
1.0108869
1.0089709
1.0080117
1.0082505
1.0081938
1.0072456
1.006124
1.0060764
1.0065318
1.0069061
1.0344143
1.0302616
1.0286383
1.0261037
1.0226102
1.0191504
1.0170972
1.0160408
1.0145846
1.0125828
1.010249
1.00803
1.0068179
1.0060785
1.0057369
1.0054183
1.0045057
1.0035806
1.0030157
1.0026542
1.002965
1.0035241
1.0032705
1.0309902
1.0267777
1.0241048
1.0217767
1.0194058
1.0170308
1.0148932
1.0131839
1.0114361
1.0093354
1.0074097
1.005869