/*--------------------------------*- C++ -*----------------------------------*\
| =========                 |                                                 |
| \\      /  F ield         | OpenFOAM: The Open Source CFD Toolbox           |
|  \\    /   O peration     | Version:  2406                                  |
|   \\  /    A nd           | Website:  www.openfoam.com                      |
|    \\/     M anipulation  |                                                 |
\*---------------------------------------------------------------------------*/
FoamFile
{
    version     2.0;
    format      ascii;
    arch        "LSB;label=32;scalar=64";
    class       volScalarField;
    location    "100";
    object      T;
}
// * * * * * * * * * * * * * * * * * * * * * * * * * * * * * * * * * * * * * //

dimensions      [0 0 0 1 0 0 0];

internalField   nonuniform List<scalar> 
20580
(
1.0012522
1.0011143
1.0020175
1.0025436
1.0017887
1.0012926
1.0017933
1.0019535
1.0023825
1.0020244
1.00217
1.0022219
1.0025366
1.0023921
1.0020895
1.0026112
1.0029302
1.0011115
1.0023665
1.0034151
1.0011931
1.001084
1.0024694
1.0025732
0.99915677
0.99956791
1.0029541
1.0015556
1.0015627
1.0051573
1.0001997
1.0012083
1.0008939
1.0019572
1.0024908
1.0019147
1.0012357
1.001815
1.0019644
1.0024371
1.0020482
1.0019863
1.0023292
1.0026647
1.0021772
1.0020192
1.0028603
1.0024204
1.000837
1.00323
1.0031388
1.0003442
1.0015031
1.00269
1.0017377
0.99826712
0.99985261
1.0051492
1.0036537
0.99927662
1.0022581
1.0043166
1.0015479
1.0011693
1.0020456
1.0022506
1.0021332
1.0015724
1.0019776
1.0020002
1.0022881
1.0021405
1.0018803
1.0023887
1.0026147
1.0019721
1.0019927
1.0030126
1.0019574
1.000799
1.0037375
1.0027118
0.99990829
1.0021895
1.0028313
1.001438
0.99868642
1.0001454
1.0058946
1.0051278
0.99758098
0.99742284
1.0046292
1.0021266
1.0018184
1.0021606
1.0019089
1.0022987
1.0021414
1.0021361
1.0020885
1.0020829
1.0021507
1.0019179
1.0023693
1.0024926
1.0018626
1.0020563
1.003016
1.0016659
1.0011604
1.0037946
1.0021468
0.99997514
1.0029803
1.002723
1.0015362
1.0002741
1.0006222
1.0048791
1.0053249
0.99745463
0.99350215
1.000882
1.0026724
1.0025155
1.0022062
1.0017053
1.0022426
1.0025866
1.0021852
1.002174
1.0019617
1.002098
1.0021041
1.0023542
1.0023241
1.0019249
1.0022237
1.0027744
1.0016091
1.0018735
1.0034285
1.0014912
1.0005574
1.0036071
1.0021118
1.0013046
1.002319
1.0015299
1.0026037
1.0037977
0.99893305
0.99298428
0.99601319
1.002899
1.0028979
1.0020962
1.0016621
1.0019504
1.0026353
1.0020766
1.0021875
1.0019399
1.0021155
1.00229
1.0023729
1.0021133
1.0020804
1.0024839
1.0024168
1.0016521
1.0027088
1.002852
1.0008723
1.0013473
1.0041306
1.0012106
1.0003831
1.0038677
1.0028181
1.0000426
1.0009015
1.001281
0.99663451
0.99428368
1.002819
1.0028235
1.0018134
1.0017521
1.0016759
1.0023276
1.0019199
1.0021
1.0019771
1.0021349
1.0024487
1.0024012
1.0018791
1.0022959
1.0026469
1.0021145
1.0017249
1.0033914
1.0022096
1.0005296
1.0020304
1.0042432
1.0004761
0.99912193
1.0042294
1.004053
0.9984004
0.99772412
1.002273
1.0029274
0.99783727
1.0024775
1.0023141
1.0015209
1.0020006
1.0016469
1.0018729
1.0018567
1.0020303
1.002027
1.0021001
1.0024755
1.0023933
1.0018395
1.0024954
1.0027286
1.0019068
1.0017965
1.0037183
1.0016654
1.0005668
1.0025899
1.0038179
1.0001887
0.99837837
1.0032516
1.0046536
0.99827038
0.99560396
1.0011842
1.0071238
1.004351
1.0019285
1.001608
1.0014471
1.0022842
1.0018606
1.0015483
1.0019796
1.0020393
1.0020678
1.0021028
1.0023997
1.0023269
1.0019896
1.0026189
1.0027591
1.0018292
1.0019009
1.0036424
1.0012795
1.0010197
1.0030432
1.0029952
1.000407
0.99876433
1.0018144
1.0040711
0.9996156
0.99562765
0.9991936
1.0066715
1.0083331
1.0012367
1.0008859
1.0017143
1.0023258
1.0021527
1.001531
1.0021888
1.0020738
1.0020989
1.0021319
1.0023608
1.0022479
1.0021853
1.0025705
1.0026575
1.0019658
1.002107
1.003145
1.0010105
1.0018091
1.0032544
1.0017349
1.000953
1.0005241
1.0008858
1.0022888
1.0014845
0.99815936
0.99841423
1.0024042
1.0066844
1.000853
1.000533
1.0021262
1.0020607
1.0023244
1.0017307
1.0022569
1.0020597
1.0021317
1.0021128
1.0023375
1.0021899
1.0024314
1.0024689
1.0023785
1.0021768
1.0024239
1.0024804
1.0009131
1.002687
1.0034301
1.0002899
1.0012745
1.0030636
1.0009274
0.99994344
1.0022519
1.0024134
1.0001369
0.99863618
1.0004673
1.0010473
1.000809
1.0023999
1.0018306
1.0022976
1.0019783
1.0020455
1.0019736
1.002083
1.0021288
1.0021194
1.0020808
1.0026084
1.0023491
1.002049
1.002351
1.0027767
1.001876
1.0010168
1.0032313
1.0035283
0.999249
1.0011051
1.0051162
1.0018151
0.99801468
1.0010571
1.0055669
1.0033179
0.99778114
0.99451955
1.0016965
1.0015593
1.0023229
1.0016807
1.0019768
1.0021462
1.0017202
1.0018485
1.0019827
1.0021939
1.0017968
1.0020027
1.0026691
1.0021883
1.0018109
1.0023815
1.0029695
1.001406
1.0012572
1.0033279
1.0033113
0.9988248
1.000599
1.0057541
1.0028544
0.99715887
0.99889207
1.0054137
1.0059414
0.99904813
0.9926552
1.0023578
1.0023834
1.001878
1.0016611
1.0015845
1.0021509
1.0015189
1.0017907
1.0019544
1.00225
1.001721
1.0019904
1.0025658
1.0021211
1.0016964
1.0023039
1.002976
1.0011484
1.0017091
1.0030837
1.0028508
0.99917897
1.0003813
1.004851
1.0033769
0.99767917
0.99767641
1.0025318
1.0058059
1.0015762
0.99494327
1.002634
1.0027196
1.0012272
1.0017213
1.0013126
1.0019615
1.0015478
1.0018313
1.0019482
1.002161
1.0019214
1.0020273
1.0022834
1.0021063
1.0017851
1.0021806
1.002744
1.0011834
1.0023778
1.0024963
1.0021408
1.000353
1.0009126
1.0030104
1.0025694
0.99931941
0.99838413
0.99981673
1.0024068
1.0026525
0.99963082
1.0025178
1.0024075
1.0007087
1.0017661
1.0012846
1.0016551
1.0016914
1.0018374
1.0018816
1.0018244
1.0020936
1.0020862
1.0019558
1.0021123
1.0021357
1.0020984
1.0023325
1.0013627
1.0031614
1.0018529
1.0010789
1.0018294
1.0021558
1.0013076
1.0005957
1.0013333
1.0009871
0.99952781
0.99830743
1.0008431
1.0028878
1.0022286
1.0019173
1.0009288
1.0017785
1.0015739
1.0014703
1.0019264
1.0018705
1.0018352
1.0014839
1.0021536
1.0021604
1.0017025
1.0020246
1.0025054
1.0021096
1.0019062
1.001493
1.0036629
1.0014813
1.0000181
1.0028162
1.0036838
1.0003636
0.99829721
1.0021716
1.0041253
1.0008997
0.99639016
0.99723239
1.0028872
1.0017618
1.0012908
1.0018407
1.0018525
1.0020649
1.0015912
1.0020841
1.0019624
1.0018597
1.0015608
1.0022108
1.0023018
1.001677
1.001949
1.0027026
1.0021646
1.0015687
1.0015744
1.0037321
1.0014162
0.99942907
1.002944
1.0047803
1.0000873
0.99690642
1.0013576
1.005782
1.0027175
0.99657344
0.99486378
1.0001054
1.0012045
1.0007346
1.0027106
1.0018858
1.0023356
1.0017839
1.0020071
1.0019109
1.0017666
1.0019259
1.0021398
1.0023355
1.0017892
1.0019293
1.0026561
1.0022305
1.001444
1.0017404
1.0034377
1.0015562
0.99963114
1.0024284
1.0049902
1.0005707
0.99724116
1.0002873
1.0054621
1.0040355
0.99826428
0.99531875
0.99773101
1.0010498
1.0006152
1.0028636
1.0018048
1.0022159
1.0019021
1.0017786
1.0017081
1.0016758
1.0021048
1.0018813
1.0021742
1.0019175
1.0019308
1.0023906
1.0022569
1.0015565
1.002022
1.0026893
1.0018237
1.0006316
1.0018956
1.0037524
1.0014141
0.99885815
1.0005832
1.0031023
1.003476
1.0006478
0.99819211
0.99809362
1.0014606
1.0012141
1.0024064
1.0018057
1.0019796
1.0019842
1.0016286
1.0016273
1.0017753
1.0020638
1.001752
1.0019626
1.0020551
1.0019977
1.0020188
1.0021485
1.0017644
1.0023978
1.0016679
1.0018619
1.0020384
1.0017302
1.0017143
1.0016528
1.0013677
1.0019825
1.0011207
1.0006789
1.0018975
1.0020832
1.0008057
1.0020577
1.0019669
1.0013997
1.0017376
1.0014971
1.001704
1.0014962
1.0015613
1.0017403
1.0017714
1.0017484
1.0016147
1.0019631
1.0020263
1.0015414
1.0018175
1.0018343
1.0026805
1.0006971
1.0013968
1.003268
1.0017066
0.99968523
1.0004026
1.0030872
1.0033858
0.99984925
0.99696653
1.0000264
1.0037851
1.0032385
1.0025244
1.0017261
1.0003597
1.0008284
1.0007919
1.0008227
1.0010952
1.0012999
1.0013292
1.0012234
1.0015707
1.0010083
1.001515
1.0017938
1.0010654
1.0013276
1.0014073
1.0027347
0.99995228
1.0005322
1.0036085
1.0017597
0.99837453
0.99866101
1.0029321
1.0043562
0.99956442
0.99464953
0.99675886
1.0025299
1.0038517
0.9984402
0.99823953
0.99872584
1.0003706
1.0033115
1.0057324
1.0061423
1.003075
0.99706483
0.99231156
0.99260166
0.99715371
1.001867
1.0031057
1.0001609
0.99601971
0.99518412
0.99914375
1.0050266
1.0086808
1.0061463
0.9971261
0.98860353
0.99321946
0.99580285
0.99845499
1.000127
1.0010433
1.0010678
1.0001452
0.99976517
1.000468
1.0018677
1.0034844
1.0043095
1.0021394
0.99574061
0.9893625
0.98832332
0.99325891
1.0011424
1.0072171
1.0076661
1.0028102
0.99691855
0.99321676
1.0020977
1.0030393
1.0012092
0.99671402
0.99156091
0.98882588
0.9905712
0.99591675
1.0022782
1.0062088
1.0069495
1.004669
0.99984368
0.99504886
0.99293763
0.99540634
0.99990708
1.0019743
0.99919914
0.99269226
0.98945697
0.99257859
0.99944954
1.0080534
1.0060801
1.0017007
0.99597404
0.99157423
0.99139829
0.99476913
0.99909756
1.0011289
0.99867695
0.99329496
0.98960325
0.9910307
0.99657107
1.0031113
1.0084539
1.0099071
1.0053785
0.99469416
0.98387538
0.98134348
0.98735787
0.9976244
0.99454663
0.99514448
0.99684301
0.99960431
1.0026195
1.0049212
1.0074388
1.0066817
1.001099
0.99124049
0.98178646
0.98000009
0.98574366
0.99581722
1.003842
1.0067063
1.0052374
1.0004944
0.99527417
0.99132517
0.99129315
0.99612826
1.0010641
0.98287128
0.98725344
0.99425758
1.0008624
1.0048682
1.0058411
1.004578
1.0022965
0.99870441
0.99398157
0.9907003
0.99107489
0.99581569
0.99994731
0.99877052
0.99067723
0.98254419
0.98160118
0.98806612
0.99781052
1.0055487
1.011117
1.0106145
0.9928671
0.99756687
0.99992673
0.99845438
0.99210891
0.98525287
0.98210409
0.98445952
0.99124142
0.99931978
1.0045104
1.0071502
1.0095764
1.0074795
0.99796396
0.98287744
0.96989047
0.96929993
0.97897761
0.99330053
1.0045797
1.0087488
1.0072089
1.0101061
1.0081461
1.002436
0.99392327
0.98372897
0.97476431
0.97113357
0.97563977
0.98607273
0.99755762
1.0041455
1.0043331
1.0028882
1.0010671
0.99787176
0.99073259
0.98253474
0.98028294
0.98609399
0.9934774
0.9954679
0.98860369
0.98059839
0.99774579
0.99903468
0.99942571
0.99671382
0.9900897
0.98412207
0.98305289
0.98917807
0.99554479
0.99734381
0.99035552
0.97849444
0.97276869
0.97657623
0.9860441
0.99628515
1.0002741
1.0005691
1.0035362
1.0034478
0.99476702
0.97634244
0.95730217
0.9700946
0.97575062
0.98388226
0.99351972
1.0011967
1.0041205
1.0040668
1.0056813
1.0039569
0.99689679
0.98275804
0.96466326
0.95197489
0.95396375
0.96804149
0.98791335
1.0031044
1.0074584
1.0088631
1.0059648
0.99777962
0.98202695
0.9627664
0.95578173
0.96408011
0.97732662
0.99059034
1.000249
1.0031775
1.0024297
1.0023871
1.0008843
0.99706014
0.98588627
0.96816541
0.95466991
0.95617961
0.96736675
0.98378621
0.99245965
0.98809733
0.98295915
0.98442763
0.99001756
0.99083436
0.98191295
0.96207234
0.97369592
0.98687389
0.99387728
0.99089231
0.978086
0.96718311
0.96842242
0.97807068
0.98987124
0.99343152
0.98566256
0.97338849
0.97095849
0.97935363
0.98846508
0.98659749
0.96891242
0.94866872
0.94543333
0.95715375
0.97790445
0.99404853
0.98595823
0.99145104
0.99489548
0.98881954
0.97268873
0.95156135
0.93587444
0.93422368
0.94621553
0.96711334
0.98817831
0.99721728
0.99343015
0.98769987
0.98986532
0.99140861
0.98319334
0.95943847
0.93220746
0.91775558
0.92685039
0.9514537
0.98122889
1.000026
1.000078
0.99523364
0.98054737
0.95810413
0.93382889
0.91763941
0.91486604
0.92681184
0.95086912
0.97597341
0.99210515
0.99381533
0.98749589
0.98856714
0.98907496
0.98170415
0.95899566
0.92872332
0.90797681
0.91115422
0.93346711
0.96603635
0.98583724
0.98868742
0.9893295
0.97897884
0.95611458
0.92911254
0.91017998
0.90606429
0.92029288
0.94593693
0.97065514
0.98160474
0.97679526
0.96384163
0.96572492
0.97626964
0.98020298
0.96560517
0.9346293
0.90941414
0.90784671
0.92674843
0.95711961
0.95427398
0.96394341
0.97719983
0.9783444
0.96117259
0.93290667
0.90965537
0.90291598
0.92002346
0.94824971
0.96968892
0.96995858
0.95050393
0.93091596
0.93240154
0.95095368
0.97128911
0.97076726
0.9452056
0.9171296
0.90888428
0.92633604
0.95379287
0.9212326
0.93703899
0.96066449
0.97223404
0.96337111
0.93610831
0.90922775
0.89981761
0.91899678
0.94874401
0.96540903
0.95730831
0.92665667
0.89953959
0.89919338
0.92370838
0.95603213
0.96816465
0.95170233
0.92303559
0.90880158
0.92605727
0.95162685
0.89360781
0.91330087
0.94339261
0.9634284
0.9594469
0.93337066
0.90416065
0.89356735
0.91463123
0.94441351
0.95695954
0.94279796
0.90557913
0.87508333
0.87207732
0.89905916
0.93907933
0.96142771
0.95226509
0.92313768
0.90471247
0.92321996
0.94795072
0.87239737
0.89402389
0.92714823
0.95225321
0.95169777
0.92572789
0.89299831
0.88089083
0.90306295
0.93386228
0.94536283
0.92710119
0.88789248
0.85498679
0.85066167
0.87999332
0.9249547
0.95279292
0.94613261
0.91616679
0.89585994
0.9184455
0.94193041
0.85562633
0.87936267
0.91552709
0.94188106
0.94011735
0.9100104
0.87334835
0.86062851
0.88460733
0.91747949
0.92941808
0.91034576
0.87041443
0.83880289
0.83706265
0.86736297
0.91455472
0.94372213
0.93436666
0.9005737
0.88147475
0.9099236
0.93423523
0.84355184
0.86810445
0.90618131
0.93032865
0.92359024
0.88599047
0.84523466
0.83310653
0.85929168
0.89615148
0.91150752
0.89349861
0.85418645
0.82705313
0.83148233
0.86427275
0.90876431
0.93007524
0.91186311
0.87564597
0.86573555
0.90086086
0.92378046
0.8400479
0.86293982
0.89756204
0.91504035
0.90026301
0.85416391
0.81138323
0.8007229
0.82843936
0.86977216
0.89101922
0.87875883
0.84349138
0.82258054
0.83381254
0.86664333
0.90254315
0.90642316
0.8767793
0.84604697
0.85262503
0.89008399
0.91073335
0.8384024
0.85796386
0.88443708
0.89180891
0.86922692
0.82067297
0.77750467
0.76683013
0.79284029
0.83680237
0.86806994
0.86586981
0.84290837
0.82982331
0.84406912
0.86895201
0.88422806
0.8677738
0.83406005
0.81772412
0.84009922
0.87980971
0.89580401
0.81371653
0.8353423
0.86143265
0.86366663
0.83925404
0.79059279
0.74785074
0.73762604
0.76092757
0.80464316
0.84551141
0.85851118
0.85011136
0.84275171
0.84962416
0.85813925
0.85056381
0.82031638
0.7948298
0.79317374
0.82747989
0.87142208
0.88443233
0.73554528
0.77361432
0.82114036
0.83895034
0.82295935
0.77655086
0.72993033
0.72368464
0.74932559
0.79530427
0.83537984
0.84855404
0.84286196
0.83977293
0.8402391
0.83195204
0.80593435
0.77495228
0.76178624
0.7816658
0.82672847
0.86992755
0.87839728
0.64990846
0.69358156
0.76522274
0.81775446
0.82308184
0.78619249
0.74025497
0.74231633
0.76641766
0.79700735
0.8108847
0.80873578
0.80766379
0.81661315
0.8176827
0.8009628
0.77214323
0.7529907
0.75923581
0.79581766
0.84328177
0.86725136
0.86508242
0.63414196
0.66728497
0.73285883
0.8006047
0.83135136
0.80872389
0.76790891
0.76478575
0.77013284
0.77034901
0.76080931
0.75427291
0.76620536
0.78764432
0.79888986
0.7901632
0.77407696
0.77188576
0.79505282
0.82535247
0.83914888
0.8329412
0.83051621
0.66541526
0.69795037
0.74722775
0.79405891
0.81350203
0.79219739
0.76743924
0.76205485
0.7524829
0.7382914
0.72614357
0.72601967
0.74494066
0.7724137
0.79581741
0.80609232
0.80578568
0.809798
0.81467697
0.81141496
0.79419815
0.78543732
0.80656693
0.71001278
0.73731567
0.76402987
0.77584286
0.76607054
0.74338268
0.73855846
0.74513017
0.74367284
0.73384167
0.72785922
0.73460704
0.75512882
0.77651595
0.79521914
0.80729558
0.81220604
0.81078723
0.7976353
0.77646447
0.76362613
0.77119763
0.80452795
0.72319884
0.74946133
0.76113071
0.75511134
0.73238636
0.71373387
0.71560301
0.7299831
0.74488386
0.75313688
0.75611927
0.76102493
0.76538626
0.76768424
0.76866238
0.77613521
0.79110881
0.79872147
0.78868789
0.77223527
0.77066264
0.79022731
0.81413635
0.6951598
0.73134911
0.75602248
0.75401688
0.7325979
0.71718568
0.71748235
0.72722969
0.74089958
0.75399154
0.76307308
0.76477038
0.75786802
0.74892275
0.74529597
0.75334951
0.77420495
0.79458962
0.80242012
0.79926078
0.80001992
0.80544828
0.79993814
0.68256262
0.71173213
0.74217502
0.75283177
0.74379046
0.7318639
0.7255033
0.72318937
0.72390373
0.73003707
0.74359806
0.75491882
0.75614642
0.75030124
0.74919173
0.75678458
0.77319056
0.79107612
0.80454929
0.81213495
0.81226919
0.79841808
0.7788572
0.69674706
0.71079582
0.72842593
0.73509083
0.73123524
0.72720389
0.72395831
0.71888984
0.71572473
0.71852945
0.72891793
0.74551221
0.76106816
0.76836294
0.76863017
0.76912094
0.77031442
0.7734541
0.78322971
0.79930312
0.80794687
0.79985265
0.78813826
0.71005934
0.71637932
0.72150701
0.71993495
0.71299619
0.71185949
0.71645583
0.72162827
0.72426053
0.7265238
0.73083513
0.74032638
0.75370305
0.76740125
0.77551552
0.77398433
0.76496047
0.76005178
0.76582826
0.78338637
0.80055169
0.8077689
0.81183216
0.71045531
0.71695225
0.72251623
0.72071807
0.71300061
0.70834367
0.71113929
0.71955338
0.72933139
0.73519583
0.73628171
0.7369371
0.74156077
0.75273419
0.76799657
0.77672939
0.77436666
0.76864758
0.77090176
0.78107164
0.79272956
0.8049071
0.81447357
0.71292675
0.71555118
0.72062619
0.72218464
0.71863534
0.71317259
0.70969423
0.71104194
0.71799363
0.72812945
0.73597954
0.73861788
0.73846569
0.74111568
0.75008304
0.7648863
0.77793173
0.78424181
0.78452044
0.78229192
0.78110288
0.78496905
0.79449733
0.71949922
0.7174836
0.71651257
0.71652065
0.71563675
0.71395662
0.7113385
0.70869691
0.70934108
0.71521261
0.72580555
0.73660169
0.74305518
0.74546636
0.74734835
0.75227914
0.76159805
0.77280499
0.78186013
0.78578892
0.7854802
0.78493153
0.78896783
0.72194463
0.71899998
0.71500638
0.7104338
0.7080665
0.70863145
0.71048293
0.71146976
0.71164122
0.71300331
0.71785309
0.72681176
0.73745941
0.74587511
0.75021943
0.75181622
0.75350856
0.7578983
0.76527372
0.77420078
0.78160294
0.78640744
0.79191909
0.71982275
0.71742101
0.71518819
0.71156324
0.70765504
0.70594496
0.70734058
0.71078195
0.71403083
0.71599794
0.71753061
0.72038293
0.72591247
0.7339171
0.74251036
0.74910002
0.75286097
0.75563081
0.75946956
0.76516792
0.77249269
0.78002017
0.78833595
0.72243507
0.71745226
0.71575913
0.71432476
0.71190496
0.70860108
0.70611429
0.70600856
0.70852362
0.71243886
0.71613251
0.71891853
0.72169505
0.72582103
0.73198557
0.7396908
0.74742006
0.7538332
0.75920036
0.76442622
0.76979854
0.77526857
0.78226467
0.7339751
0.7235106
0.71721358
0.71404881
0.71195638
0.70991712
0.70739728
0.70503785
0.70459173
0.70671006
0.7110618
0.71636149
0.72119347
0.72542855
0.72971618
0.73457335
0.74024692
0.74641802
0.752579
0.7585813
0.76441653
0.77002102
0.77688766
0.75375262
0.7368137
0.72397141
0.71582884
0.71138721
0.70947677
0.70888888
0.70847522
0.70810573
0.70834726
0.70997671
0.71303174
0.71735228
0.72211981
0.72679988
0.73137434
0.73596372
0.74065738
0.74543943
0.75042503
0.7558553
0.7617765
0.76951731
0.78189762
0.75735371
0.73877817
0.7263775
0.71842628
0.71367153
0.71146659
0.71093479
0.71110563
0.71147749
0.71188469
0.71277734
0.7144852
0.71722591
0.7209185
0.72544128
0.7306154
0.73607229
0.74144651
0.74658432
0.75166749
0.75701114
0.76407299
0.81119784
0.78397664
0.75970809
0.74253878
0.73119959
0.72347004
0.71797642
0.7142625
0.71223215
0.71158375
0.71202089
0.71323155
0.71514743
0.71761112
0.72057454
0.72392593
0.7277774
0.73219333
0.73700661
0.74191866
0.74680078
0.75177702
0.75807732
0.83325772
0.80943658
0.78326182
0.7605893
0.744627
0.73395237
0.72666087
0.72154858
0.71798839
0.71589151
0.71515035
0.71560202
0.7169778
0.71911097
0.72159694
0.72424327
0.72695792
0.72985907
0.73319269
0.73702031
0.74124558
0.74580844
0.75159193
0.84789086
0.83106792
0.80740275
0.78262251
0.7622898
0.74757146
0.73757103
0.73098499
0.7266743
0.72388967
0.72214197
0.72116602
0.72082483
0.72112508
0.72213715
0.72380143
0.72595228
0.72856182
0.73161592
0.73513395
0.73906317
0.74323292
0.74816249
0.85631578
0.84356477
0.82480221
0.80329129
0.78281878
0.76583302
0.7528854
0.7434526
0.73675114
0.73205492
0.72885348
0.72672192
0.72547086
0.72500339
0.725313
0.72638544
0.72810815
0.7302705
0.73275012
0.73549891
0.73841761
0.74147329
0.7450109
0.86184878
0.850301
0.83472126
0.81719653
0.79908966
0.7824495
0.76850292
0.75744988
0.74895829
0.74258223
0.73795148
0.73475109
0.73268538
0.73154408
0.73115736
0.73142176
0.73213538
0.73320481
0.73452216
0.73608279
0.73795183
0.74013592
0.74275962
0.86568499
0.85401143
0.84077654
0.82657596
0.8115273
0.79672309
0.78334153
0.77197507
0.7626931
0.75533495
0.74965702
0.74541396
0.74231457
0.74009451
0.73852655
0.73749541
0.73694563
0.73691445
0.73732049
0.73821498
0.73956037
0.74129995
0.74333963
0.86796547
0.85663355
0.8455655
0.83419197
0.82213435
0.80981351
0.79801542
0.78731412
0.77798567
0.77006312
0.76348916
0.75816355
0.7539575
0.75067788
0.74813172
0.74617322
0.74475541
0.74386398
0.74348849
0.74359729
0.74402719
0.74465573
0.74521039
0.86925797
0.85963898
0.85054838
0.84151854
0.83205334
0.82226371
0.81255704
0.80332829
0.79492027
0.78736387
0.78066394
0.7748354
0.76987524
0.76571482
0.7622677
0.759423
0.75710757
0.75525231
0.75381605
0.75275148
0.75193302
0.75113336
0.74969071
0.87016115
0.86268859
0.85549242
0.84864203
0.84173776
0.83474552
0.82768887
0.82074802
0.81415343
0.80798104
0.80216184
0.79675408
0.79180656
0.78735903
0.7834076
0.77995656
0.77695995
0.77431341
0.77192986
0.76977918
0.76780729
0.76566481
0.76178809
0.87453308
0.86615831
0.86048388
0.85556402
0.8510713
0.84693863
0.84301311
0.83919914
0.83541242
0.83181258
0.82829296
0.82476779
0.82128015
0.81793443
0.81481235
0.81188674
0.80914635
0.80655251
0.8040244
0.80152471
0.7989999
0.79599323
0.78966776
0.87649605
0.86947533
0.86525961
0.86206529
0.85967777
0.85820437
0.85751623
0.85729883
0.85728986
0.85734192
0.8574362
0.85740897
0.85718468
0.85681146
0.85633347
0.85566965
0.85480003
0.85377228
0.85266834
0.85143135
0.8498861
0.84743025
0.84027102
0.87733397
0.87225253
0.86956051
0.86819785
0.86791402
0.86899729
0.8713561
0.87456872
0.87823005
0.88202223
0.8858522
0.88962186
0.89319068
0.89651092
0.89951994
0.90214361
0.90435226
0.90626085
0.90806077
0.90972477
0.91106917
0.91095098
0.90529666
0.87755517
0.87476321
0.87369546
0.87414002
0.87617517
0.87983005
0.8848436
0.89075607
0.89713338
0.90367852
0.91027516
0.91683992
0.92321347
0.92928258
0.9349947
0.94028401
0.94515066
0.94973155
0.95422141
0.95861328
0.9628606
0.96729876
0.96475956
0.88023805
0.87749458
0.87801079
0.88046626
0.88475886
0.89069479
0.89772667
0.90544652
0.91357821
0.92181395
0.93002026
0.93812306
0.94600372
0.95352844
0.96064247
0.96725991
0.97343002
0.97929086
0.98491972
0.98999807
0.99359321
0.99639714
0.99577719
0.88170459
0.88045708
0.88305079
0.88754416
0.89369982
0.9012157
0.90952073
0.91839278
0.92759698
0.93675764
0.94580653
0.9546432
0.96310678
0.97111796
0.97856719
0.98536923
0.99140992
0.99595789
0.99825302
0.99915396
0.99939906
0.99951557
0.99946232
0.88350114
0.88400325
0.88865074
0.89495659
0.90263857
0.91123998
0.92038062
0.93001264
0.93975331
0.94929942
0.95874611
0.96782008
0.97625824
0.98405597
0.99094311
0.99628086
0.99889772
0.99952356
0.99959339
0.99962757
0.99967957
0.99966051
0.99951305
0.88554845
0.88817856
0.89457719
0.90233137
0.91114988
0.92055268
0.93037107
0.94044104
0.95033329
0.96009522
0.9697153
0.97864103
0.98668229
0.99349624
0.9978704
0.99941678
0.99971606
0.99976433
0.99976358
0.99963609
0.9995857
0.99956463
0.99957807
0.88736234
0.89279135
0.90080249
0.9096498
0.91918348
0.92914192
0.93944782
0.94972464
0.95977285
0.96967817
0.9789715
0.98720326
0.99412224
0.99842064
0.99959802
0.99970899
0.99962936
0.99976282
0.99978233
0.99965076
0.99959603
0.99958352
0.99961186
0.88968122
0.89783003
0.90710825
0.9167023
0.92661163
0.93693573
0.94755128
0.95792472
0.96814043
0.97786921
0.98628141
0.99330685
0.9981328
0.99975024
0.99989939
0.9997745
0.9996198
0.99975476
0.99988891
0.99990782
0.9997648
0.99968192
0.99966745
0.89259472
0.90306316
0.91327444
0.92329631
0.93350404
0.94418577
0.9547866
0.96501719
0.97524497
0.98453894
0.99189365
0.99720549
0.99955315
0.99990732
1.0001134
0.99991138
0.99971596
0.99981007
0.99989616
0.99989981
0.99968017
0.99960839
0.99968823
0.89602181
0.9084645
0.91911193
0.92929964
0.94001788
0.95095931
0.96125987
0.97139349
0.98126473
0.98953989
0.9957027
0.99908597
0.99968157
0.99989262
1.0002103
1.0000034
0.99990771
0.99985686
0.99994386
1.0000498
0.99988748
0.99970362
0.99964496
0.89998172
0.91392458
0.92470799
0.93511036
0.94604991
0.95679229
0.96697944
0.97699112
0.98599114
0.99311717
0.99805889
0.99989586
0.99994876
1.0002291
1.0003832
1.0001168
0.99979703
0.99963724
0.99998654
1.0000771
0.99972556
0.99965525
0.99983264
0.90415389
0.9192367
0.93007673
0.94067864
0.95172592
0.96245087
0.97242156
0.98164477
0.989747
0.99599532
0.99943845
1.0000605
0.99982521
1.0000107
0.99999608
1.0001171
1.0001901
0.99996338
1.0001711
1.0001227
0.9999141
0.99968546
0.99971911
0.90878116
0.92437882
0.93530905
0.94611425
0.95709171
0.96739989
0.97690266
0.98549597
0.99258401
0.9976739
1.0000365
1.0001866
1.0001626
1.0002506
1.0002718
1.0003313
0.9996137
0.99962952
1.0002362
1.0003738
1.0000836
0.99970347
0.99973935
0.91326252
0.9293637
0.94040184
0.95126516
0.96212753
0.9722772
0.98141355
0.98909109
0.99487877
0.99838378
0.99972757
1.000011
1.0000697
1.0001168
1.0001132
1.0001415
1.0002141
1.0002144
1.0001361
1.0002648
1.0002123
0.99976447
0.9997693
0.91832177
0.93463641
0.94532134
0.95590642
0.96663002
0.97647588
0.98486102
0.99157579
0.99626038
0.99893528
1.0000091
0.9999242
0.99976779
0.99994894
1.0003851
1.000425
0.99985829
0.99994701
1.0004053
1.0005187
0.99989107
0.99983074
1.0000162
0.92263183
0.93931009
0.95010715
0.96067247
0.97106351
0.98057535
0.98843516
0.99375009
0.99669813
0.99846392
0.999244
0.99958795
0.9998752
0.99973273
0.99965676
1.0001401
1.0003259
1.0001429
1.000175
1.0004377
1.0004953
1.0000055
0.99968154
0.92690014
0.94401041
0.9548156
0.96498938
0.97496503
0.98405685
0.99077235
0.9943547
0.99633595
0.99782799
0.99869509
0.99887805
0.99891157
0.99929862
0.99984011
1.0000615
1.0000119
1.0000159
1.0002245
1.0002549
1.0001866
1.0001552
0.99999597
0.93112417
0.94799683
0.95874068
0.96927623
0.97909403
0.98677911
0.99137253
0.99393089
0.99565994
0.99678145
0.99720468
0.9975266
0.99812764
0.9984821
0.99894923
0.99939431
0.99933022
0.99943974
0.99995298
1.0002275
1.0001023
0.99991176
1.0000934
0.93429223
0.95252413
0.96303773
0.9726855
0.98175122
0.98809631
0.99115765
0.99259445
0.99358046
0.99436533
0.99500899
0.99567487
0.99629297
0.99673152
0.99706403
0.99769155
0.99834885
0.99837045
0.99851215
0.99917669
0.99975274
0.9996942
0.99920565
0.93689822
0.95494512
0.96573962
0.9754744
0.98317691
0.98755843
0.98928093
0.98981736
0.99050995
0.99140109
0.99188756
0.99199322
0.99212311
0.99297722
0.99423742
0.99467832
0.99462417
0.99522389
0.99648914
0.99712386
0.99736589
0.99797281
0.99876748
0.93743768
0.95567039
0.96624299
0.97560139
0.98275736
0.98573446
0.98601237
0.98600216
0.9863953
0.98670393
0.98651189
0.98654319
0.98681228
0.98668712
0.98699886
0.9880492
0.98876308
0.9893148
0.99028002
0.99186383
0.9930928
0.99353381
0.9943247
0.93744614
0.95529592
0.96589139
0.97468315
0.98079347
0.9828937
0.98254866
0.98126934
0.98031608
0.97988149
0.97924684
0.97834686
0.97797013
0.9776466
0.9771588
0.97732438
0.97794527
0.97894516
0.97993915
0.98096855
0.98212712
0.98366856
0.98534394
0.94173504
0.95589432
0.96598193
0.97340733
0.97768196
0.97902292
0.9778388
0.97545569
0.97302072
0.97147513
0.97028065
0.96837873
0.96660698
0.96593022
0.9652768
0.96407079
0.96350529
0.96390116
0.96470012
0.96520397
0.96568355
0.96710354
0.96925241
0.94570555
0.95744552
0.96634207
0.97223109
0.97423065
0.97379293
0.97170545
0.96908654
0.96596176
0.96275379
0.96011426
0.95791984
0.95593325
0.95430652
0.95278306
0.95121912
0.9501474
0.94977493
0.94944568
0.94902111
0.94906836
0.94981405
0.95083322
0.93791954
0.9559815
0.96503849
0.96958913
0.97044389
0.96916506
0.96667621
0.96338143
0.95912855
0.95507561
0.95217514
0.94974001
0.94714353
0.94517996
0.94415671
0.94307759
0.94163733
0.94086926
0.9406517
0.93972721
0.9391277
0.93936552
0.93955354
0.93724024
0.95401948
0.96260481
0.96716559
0.96779585
0.96539707
0.96176285
0.95784653
0.95343734
0.94920072
0.94628905
0.94443751
0.94263748
0.94100255
0.9401995
0.93978491
0.93900276
0.93814065
0.93793272
0.93768547
0.93727988
0.93673238
0.93641111
0.93976127
0.95459668
0.96083601
0.96441278
0.96499829
0.96199362
0.95722304
0.95260538
0.94887977
0.94589584
0.94364031
0.94213885
0.94117597
0.94036281
0.93983484
0.93939513
0.93887687
0.93832403
0.93804356
0.93800395
0.93797796
0.93750606
0.93688849
0.94562154
0.9546827
0.95944526
0.96189101
0.96210223
0.95919207
0.95455524
0.95044935
0.94754452
0.94552977
0.94376654
0.9421051
0.94095738
0.94051119
0.94042439
0.93994791
0.93949925
0.93957938
0.93990493
0.93995489
0.94006752
0.94025491
0.94026906
0.94164966
0.9535034
0.95798805
0.95998615
0.96003687
0.95792438
0.95464444
0.95098158
0.94802064
0.94595348
0.94436193
0.94287493
0.94175636
0.94140423
0.94157436
0.94147285
0.94134723
0.94196552
0.94293819
0.94347512
0.94393952
0.94486151
0.94594189
0.93634502
0.95043497
0.95600542
0.95837073
0.95875813
0.95755908
0.95518302
0.95218854
0.94932087
0.94706678
0.9454312
0.94423082
0.94343563
0.94310855
0.94323068
0.94353408
0.94397535
0.94492096
0.94615342
0.94728406
0.94833482
0.94975677
0.95144623
0.93795556
0.94781073
0.95384571
0.95688848
0.95805018
0.95775378
0.95643551
0.95422052
0.95167112
0.94932506
0.94742229
0.94609372
0.94523685
0.9448066
0.94472412
0.94495596
0.94556408
0.9466074
0.94783318
0.94923884
0.95079059
0.95252805
0.95427088
0.94237229
0.94609855
0.95155023
0.9551346
0.95704911
0.9576874
0.95753278
0.9568006
0.95536928
0.95350959
0.95158665
0.94983411
0.94847745
0.94756983
0.94706333
0.94684657
0.94706434
0.94765398
0.94857643
0.94958857
0.9509407
0.95253901
0.95422536
0.93122782
0.93980551
0.94646321
0.95118504
0.95434876
0.95629829
0.95708639
0.95727498
0.95722345
0.95686716
0.95613661
0.95500554
0.95377123
0.95276502
0.9519433
0.95120988
0.95070609
0.95051065
0.95074503
0.9511082
0.95183592
0.95298352
0.95422735
0.9171474
0.9269018
0.93407321
0.93983822
0.94462028
0.94853435
0.95144222
0.95349714
0.95482733
0.95565586
0.95591304
0.95563496
0.95536553
0.95519463
0.95501141
0.95468118
0.95425667
0.95408375
0.95402257
0.95399098
0.95395988
0.95424607
0.95485542
0.91729202
0.92088247
0.92558606
0.92980418
0.9333269