/*--------------------------------*- C++ -*----------------------------------*\
| =========                 |                                                 |
| \\      /  F ield         | OpenFOAM: The Open Source CFD Toolbox           |
|  \\    /   O peration     | Version:  2406                                  |
|   \\  /    A nd           | Website:  www.openfoam.com                      |
|    \\/     M anipulation  |                                                 |
\*---------------------------------------------------------------------------*/
FoamFile
{
    version     2.0;
    format      ascii;
    arch        "LSB;label=32;scalar=64";
    class       volScalarField;
    location    "100";
    object      T;
}
// * * * * * * * * * * * * * * * * * * * * * * * * * * * * * * * * * * * * * //

dimensions      [0 0 0 1 0 0 0];

internalField   nonuniform List<scalar> 
132739
(
0.99986622
0.99972394
0.99971729
0.99970012
0.9997055
0.99966759
0.99967205
0.99964891
0.9995729
0.99961632
0.99951865
0.99946488
0.9994759
0.99941224
0.99941282
0.99936418
0.9993288
0.99927143
0.99921119
0.99917253
0.9991731
0.99918913
0.99921313
0.99923678
0.99927263
0.99939284
0.99958522
0.99992168
1.000296
1.000757
1.0011086
1.0014249
1.0017372
1.001947
1.0020596
1.0019328
1.0018939
1.0019569
1.0018742
1.001727
1.0017928
1.0016614
1.0016285
1.001505
1.0014865
1.0014937
1.0014311
1.0014606
1.0013523
1.0013554
1.0011725
1.0011862
1.0010487
1.0010128
1.0008457
1.0007442
1.0007324
1.0007165
1.000647
1.0005982
1.0006068
1.0004965
1.0004806
1.0004373
1.0004138
1.0003708
1.0004071
1.0002923
1.0001692
1.0001684
1.0000715
1.0000859
1.0000317
0.9998238
1.0002022
0.99984671
0.99950385
0.99929768
0.99919676
0.99914534
0.99902924
0.99876127
0.99819965
0.99760737
0.99725013
0.99698751
0.99692651
0.99692377
0.9967972
0.99628325
0.99553071
0.99500782
0.99491668
0.99486554
0.9949672
0.99494923
0.99509765
0.99527613
0.99587514
0.99626644
0.99669341
0.99718404
0.99759968
0.99790081
0.99988253
0.99971709
0.99969784
0.99970967
0.99969217
0.99963555
0.99962363
0.99962037
0.9995754
0.99953648
0.9995357
0.99946679
0.99948008
0.99941518
0.99943604
0.99935843
0.99936368
0.99931299
0.99932676
0.99929659
0.99928861
0.999276
0.99927163
0.99928555
0.99930071
0.99937387
0.99953611
0.99985995
1.0002804
1.0007361
1.0011102
1.0014283
1.0017488
1.0018746
1.0019902
1.0019088
1.0019347
1.0018595
1.0018406
1.0017852
1.0017737
1.0016914
1.0016597
1.001646
1.0015685
1.001596
1.0014489
1.0014852
1.0013568
1.0014385
1.0012571
1.0011297
1.0011022
1.0009791
1.0008599
1.0009201
1.0007821
1.0008552
1.0007052
1.0007987
1.0006625
1.0008239
1.0006425
1.0007204
1.0005724
1.0005842
1.0004058
1.000351
1.000254
1.0003231
1.0001574
1.0001757
1.0000295
1.0000816
0.999803
0.99995183
0.99963559
0.99935179
0.99923825
0.99923474
0.99911357
0.9989895
0.9986116
0.99802116
0.99746864
0.99710457
0.99677274
0.99658445
0.99652473
0.99626227
0.99565631
0.99504811
0.99491109
0.99479533
0.99496814
0.9949901
0.99510042
0.99545763
0.99580674
0.99627954
0.99656029
0.99698259
0.99734437
0.99763292
0.99985374
0.99973015
0.99972332
0.99971315
0.99970966
0.99968327
0.99968142
0.99963504
0.99963601
0.99956616
0.99957773
0.99951329
0.9995043
0.99942898
0.99931535
0.99931122
0.99932498
0.99928866
0.99928399
0.99925607
0.99927232
0.99924454
0.99928506
0.99927188
0.99929065
0.99935546
0.99951423
0.99984952
1.0002366
1.0006964
1.0010721
1.0013438
1.0016663
1.001817
1.0019683
1.0018924
1.0019112
1.0018868
1.0018488
1.0018326
1.0018078
1.0017719
1.0017839
1.0017182
1.0016885
1.0016745
1.0016066
1.0015668
1.0013733
1.0012431
1.0012159
1.0011684
1.0009983
1.0010211
1.000878
1.0008863
1.0007754
1.0007652
1.000687
1.0006555
1.0006429
1.000657
1.0005903
1.0006021
1.0005606
1.0005511
1.0004592
1.0006113
1.0004451
1.0002702
1.0002822
1.0000603
0.9999247
0.99989694
0.99979841
0.99977427
0.9997046
0.9995388
0.99926183
0.99911971
0.99895753
0.99883504
0.99863917
0.99824703
0.99777471
0.99730184
0.9968937
0.99650761
0.99627242
0.99612324
0.9957959
0.99526272
0.99493265
0.9949418
0.9950863
0.99530509
0.99555159
0.99570906
0.99589231
0.99638129
0.99675422
0.99696962
0.99707029
0.99731391
0.99985569
0.9997302
0.99971073
0.99969998
0.99968567
0.99968747
0.99963101
0.99962602
0.99960684
0.99957024
0.99956461
0.99951177
0.99941536
0.99948353
0.99936348
0.99933184
0.99932752
0.99928586
0.9993121
0.99926947
0.99928965
0.99926216
0.99927534
0.99928213
0.99928883
0.99934877
0.99952063
0.99985181
1.0002489
1.0006952
1.0010707
1.0013386
1.0016429
1.0017729
1.0019371
1.0018867
1.0019647
1.0018664
1.0018551
1.0018316
1.0018968
1.0017684
1.0017905
1.0016721
1.0016462
1.0016104
1.0016116
1.0015471
1.0013778
1.0013386
1.0011645
1.0011511
1.0010057
1.000992
1.0009044
1.0009096
1.0007917
1.0008262
1.0007525
1.000716
1.0007011
1.0006183
1.0005435
1.0005311
1.000518
1.0004914
1.0003932
1.0004997
1.0003566
1.0003941
1.0002107
0.99999664
1.0000771
0.99985553
0.99961522
0.99963276
0.9995054
0.99946919
0.99920483
0.99912407
0.99895454
0.99882666
0.99867475
0.99837048
0.99799628
0.99756095
0.99710076
0.9966378
0.99626272
0.99598464
0.99580705
0.99548319
0.9952344
0.99511832
0.99523575
0.99535446
0.99555347
0.9957644
0.99589419
0.99637043
0.99676895
0.99686937
0.99704925
0.99708693
0.99984933
0.99973498
0.99975585
0.99972583
0.9997177
0.9996997
0.9996545
0.99966034
0.99960693
0.99961056
0.99956243
0.99947672
0.99939303
0.99937219
0.99930353
0.99935285
0.99928847
0.99929698
0.99925757
0.99924707
0.99924042
0.99925225
0.99924885
0.99925232
0.99927579
0.99934903
0.99953143
0.99987035
1.0002566
1.0006641
1.0009567
1.0012405
1.0015128
1.0016812
1.0018381
1.0019251
1.00199
1.0019276
1.0019389
1.0019156
1.0018384
1.0019528
1.0018374
1.001752
1.0017484
1.0016393
1.001652
1.0015576
1.001452
1.0014578
1.0013857
1.0011248
1.0011177
1.0010792
1.0008969
1.0009239
1.0008127
1.0007962
1.0007684
1.0007417
1.0006853
1.0005857
1.000639
1.0005329
1.000434
1.0005244
1.0003921
1.0002855
1.0002708
1.0002969
1.0001078
1.0001639
1.0000072
0.99978554
0.99971964
0.99945911
0.99944932
0.99926148
0.99920171
0.99899746
0.99875861
0.99865228
0.99851134
0.99837294
0.99811647
0.99782226
0.99739428
0.99689249
0.99638144
0.99597358
0.99577469
0.99557322
0.99541606
0.99523806
0.99524555
0.99534648
0.99567592
0.99584598
0.99604837
0.99633593
0.9966729
0.9971151
0.99713779
0.99727123
0.99987443
0.99974627
0.99973181
0.9997343
0.9996963
0.99971243
0.99965056
0.99967286
0.99960413
0.99961064
0.99956251
0.99948385
0.99932803
0.99930049
0.9992656
0.9992532
0.99922174
0.99921468
0.99922877
0.99922457
0.9992189
0.99923832
0.99924118
0.99924277
0.99927533
0.99935023
0.99954897
0.99988767
1.0002579
1.0006
1.000916
1.0011761
1.0013747
1.0015852
1.0018186
1.0018488
1.0018559
1.0017675
1.0020164
1.0018639
1.0017284
1.0017338
1.0017226
1.0015843
1.0016598
1.0014808
1.0014902
1.0014524
1.0013373
1.0013125
1.0013463
1.0012097
1.0011826
1.0010483
1.0010136
1.0010026
1.0008899
1.0009098
1.0008585
1.0008914
1.0007907
1.0005997
1.0006218
1.0005948
1.0004456
1.0004185
1.0004337
1.0002592
1.0002138
1.0001603
1.0000933
1.0000986
1.00001
0.9998903
1.0000046
0.99981631
0.99961178
0.99936803
0.99928984
0.99911039
0.99877973
0.99864785
0.99850184
0.99837287
0.99822695
0.99807251
0.99772525
0.9972727
0.99652568
0.99632469
0.99597908
0.99569245
0.99554116
0.99536858
0.99543066
0.9955138
0.99574212
0.99584194
0.99601521
0.99638378
0.99670592
0.99714219
0.99726468
0.99737501
0.99992282
0.99970957
0.99968526
0.99968703
0.99965729
0.99965451
0.99964283
0.9996211
0.99961422
0.99959586
0.99950746
0.99948039
0.99937221
0.99930587
0.99928046
0.99923087
0.99922915
0.99919763
0.99921637
0.99920811
0.99920596
0.99921723
0.99923117
0.99924247
0.99926362
0.99935041
0.99956997
0.99988209
1.0002591
1.0005758
1.0008818
1.0011141
1.0013155
1.0015411
1.0016854
1.0017996
1.0017415
1.0017374
1.0017587
1.0016932
1.0016867
1.0016066
1.0016158
1.0015371
1.0015283
1.001452
1.0013777
1.0014385
1.0012571
1.0012505
1.0012828
1.0011098
1.0010422
1.001079
1.0009961
1.0009958
1.0009949
1.0008788
1.0008712
1.0007635
1.0006915
1.0008091
1.0006357
1.0006043
1.0004883
1.0004949
1.0004216
1.0002719
1.0001531
1.0001297
1.0000247
0.99996813
1.0000111
0.99988747
0.99985848
0.99984044
0.99965965
0.99950219
0.99940982
0.99921913
0.99895533
0.99873942
0.99847499
0.9983191
0.99816613
0.99800083
0.99778092
0.99750385
0.99688753
0.99644547
0.9960913
0.99578261
0.99551719
0.9955191
0.99540294
0.99553259
0.99574907
0.99594715
0.99613716
0.9963888
0.99666374
0.99715495
0.99723968
0.9974071
0.99991121
0.99972557
0.99968662
0.99970299
0.99966386
0.99962741
0.99963404
0.99959852
0.99961813
0.99953883
0.99957244
0.99946423
0.99937257
0.99937674
0.99926013
0.99923096
0.99923121
0.99920291
0.99919508
0.99920303
0.99920125
0.99919629
0.99921943
0.99922022
0.99925004
0.99936346
0.99956873
0.99989891
1.0002691
1.000565
1.00083
1.0010224
1.0012226
1.0013686
1.0015955
1.0016709
1.0017259
1.0016908
1.00169
1.0016183
1.0016813
1.0015422
1.001557
1.0015662
1.0014378
1.001398
1.0013622
1.0013555
1.0012245
1.0011884
1.0011859
1.0010965
1.0010764
1.0011763
1.0010268
1.0011433
1.0009846
1.0008459
1.0008344
1.000847
1.0007169
1.0007039
1.0006051
1.000634
1.0004447
1.0004261
1.0004591
1.0003196
1.0001237
1.0000313
1.0000309
0.99990129
0.99997859
0.9998572
0.99987795
0.99995096
0.99986859
0.99964002
0.99956287
0.99930821
0.99912008
0.99885707
0.99858087
0.99834586
0.99816466
0.99799354
0.99778729
0.99764759
0.99727444
0.99670686
0.99620429
0.99586252
0.99555755
0.99559121
0.99548863
0.99563751
0.99577672
0.99596458
0.99613016
0.99638347
0.99666461
0.99715406
0.99726387
0.997382
0.99991504
0.99971268
0.99969595
0.9996914
0.99965059
0.99962329
0.99962309
0.99958742
0.99959898
0.99953199
0.99953046
0.99944969
0.99932192
0.99934661
0.99924726
0.99919377
0.99918275
0.99918318
0.99917175
0.99916906
0.99916405
0.99916423
0.99917563
0.9991931
0.99924681
0.99937872
0.99960222
0.99993205
1.0002547
1.0005701
1.0007839
1.0009699
1.0011179
1.001303
1.0014399
1.0016283
1.0016682
1.001702
1.0016552
1.0016489
1.0016067
1.0015993
1.0015285
1.0015284
1.0014531
1.0013318
1.0013635
1.0013345
1.0012141
1.0012135
1.0011864
1.0011637
1.0010891
1.0011185
1.0010435
1.0010518
1.0009489
1.0009283
1.0008616
1.0008292
1.0007527
1.0007266
1.000624
1.0006168
1.0004573
1.0004308
1.0002946
1.0003012
1.0001949
1.0000169
0.99996291
0.99994073
0.99976913
0.99978231
0.99971428
0.99982549
0.99971707
0.99969567
0.99964058
0.99948246
0.99931602
0.99900499
0.9987093
0.99845614
0.99819562
0.99795932
0.99765448
0.99745065
0.99726134
0.99695443
0.99645549
0.99605506
0.99569402
0.99546093
0.99553468
0.99563204
0.99578421
0.99592871
0.99613277
0.99639025
0.99664077
0.99705816
0.99723461
0.99736712
0.99987769
0.99973176
0.99975759
0.99970605
0.99969708
0.99964631
0.99964419
0.9995783
0.99954859
0.99954423
0.99945274
0.99945257
0.99937672
0.99929462
0.9991886
0.99914691
0.99914104
0.99916782
0.9991388
0.99914165
0.99913539
0.99913848
0.99915336
0.99918161
0.99925029
0.99940562
0.99967028
0.99998345
1.0003116
1.0005745
1.0007633
1.0009174
1.0010577
1.0012037
1.0013349
1.0014632
1.0016046
1.0016158
1.001626
1.0016206
1.0015807
1.0016038
1.0015466
1.0015496
1.0014383
1.0014297
1.001401
1.0013319
1.0012934
1.0013862
1.0012564
1.001368
1.0012266
1.0012419
1.001149
1.0011453
1.0010511
1.0009954
1.0010755
1.0009151
1.0009271
1.0007391
1.0007414
1.0006077
1.0005444
1.0005547
1.0004212
1.0003997
1.0002698
1.0001442
0.99995138
0.99997391
0.99979079
0.99965358
0.99969604
0.99965046
0.99955565
0.99956411
0.99951126
0.99934865
0.99937206
0.99916711
0.99888892
0.99860901
0.99824004
0.99797015
0.99769112
0.99735417
0.99692926
0.99666575
0.99635793
0.99604481
0.99575347
0.99557036
0.99559437
0.99565712
0.99578794
0.99591332
0.9961025
0.99631431
0.99650383
0.99675801
0.99697517
0.99722897
0.99987892
0.99973249
0.99975024
0.99969944
0.99969842
0.99966976
0.99957678
0.9995568
0.99952232
0.99951385
0.99942987
0.99938822
0.99932207
0.99919577
0.99916476
0.99911067
0.99911377
0.99912106
0.99909396
0.99910275
0.99910511
0.99910623
0.99912024
0.99916112
0.99926635
0.99946917
0.9997568
1.0000751
1.0003709
1.0005799
1.0007446
1.0008888
1.001001
1.0011379
1.0012442
1.0013479
1.0014595
1.0016054
1.001599
1.0016759
1.001624
1.0016169
1.0015108
1.0015184
1.0014275
1.0014529
1.0013867
1.001406
1.0013512
1.0013757
1.0012779
1.0012815
1.0011909
1.0011791
1.0010751
1.001078
1.0010718
1.0009917
1.0010051
1.0008381
1.0008767
1.0008324
1.0007154
1.0006909
1.0005789
1.0006103
1.0005471
1.0003567
1.000327
1.0001541
1.0003155
1.0001021
0.99986434
0.99968304
0.99963821
0.99952216
0.99951941
0.99940281
0.99931402
0.9993277
0.99921808
0.99904691
0.99889267
0.99872755
0.99837114
0.9979594
0.99755932
0.99717443
0.99692997
0.99655408
0.9961003
0.99583626
0.99566627
0.99553605
0.99554396
0.99559233
0.9956666
0.99576995
0.9958913
0.99602245
0.99614224
0.99625309
0.99639076
0.9967063
0.99991018
0.99973533
0.99966394
0.99967783
0.99964924
0.9996395
0.99957441
0.99956537
0.9995096
0.99952472
0.99945965
0.9993989
0.99928342
0.99913402
0.99906793
0.99906178
0.99905185
0.99904847
0.99904908
0.99904586
0.99907452
0.99907676
0.9990961
0.9991579
0.9993046
0.99955155
0.99987045
1.0001664
1.0004162
1.0005865
1.0007475
1.0008584
1.0009651
1.0010526
1.0011531
1.0012762
1.0013656
1.0015385
1.0015829
1.0016246
1.0015772
1.0016586
1.0015779
1.0014918
1.0014872
1.0013774
1.0013993
1.0013979
1.0013429
1.0013403
1.0012494
1.0012774
1.0011649
1.0011521
1.0010611
1.001031
1.0010235
1.0009265
1.0009102
1.0009031
1.0007941
1.0008161
1.000815
1.0007098
1.0006081
1.0005539
1.0005722
1.0004143
1.000371
1.0003108
1.0002315
1.0000219
1.0000503
0.99980271
0.99976065
0.9994939
0.99948218
0.99928199
0.99924944
0.99921304
0.99904932
0.99886152
0.99871799
0.99851856
0.99827227
0.99795224
0.99755184
0.9971886
0.99674663
0.99645644
0.99609595
0.99566819
0.99538751
0.99533619
0.99534088
0.99533999
0.99535118
0.99539322
0.99545863
0.99553372
0.99562594
0.99569457
0.99581452
0.99598991
0.99992115
0.99972916
0.99966022
0.99965185
0.99963986
0.99961746
0.99955657
0.99955109
0.9994994
0.99952189
0.99947113
0.99940362
0.99923086
0.99909373
0.99904008
0.99903624
0.99901885
0.99901508
0.9990218
0.99901924
0.99902749
0.99904377
0.99907539
0.99918373
0.9993473
0.99965076
0.99995657
1.0002143
1.000419
1.0005774
1.0007064
1.0008076
1.0009107
1.0009789
1.0010911
1.0012071
1.0013178
1.0014421
1.0015146
1.0016209
1.001592
1.0016396
1.0015448
1.0014368
1.0014562
1.0014573
1.0013614
1.0013915
1.0014269
1.0013262
1.0013117
1.0012624
1.0012778
1.0011958
1.001204
1.0010785
1.0010376
1.0010248
1.0009727
1.0008911
1.0008847
1.0007815
1.0008032
1.000681
1.0007919
1.0005611
1.0006082
1.0004661
1.0005906
1.0004367
1.000442
1.0002149
1.0002131
0.99994031
1.000022
0.99975823
0.99938688
0.99922443
0.99918794
0.99895926
0.99891704
0.99876546
0.9985475
0.99829417
0.99808237
0.9978157
0.9974228
0.99698527
0.99673834
0.99638774
0.9959842
0.99565318
0.99527976
0.99501216
0.99488377
0.99490643
0.99490839
0.9949429
0.99498611
0.99506142
0.99503481
0.9949906
0.99500465
0.99512572
0.9999112
0.99973626
0.99964594
0.99966601
0.99962066
0.99960317
0.99954617
0.9995469
0.99948373
0.99951461
0.99946106
0.9993843
0.99919831
0.9990438
0.99902203
0.99900966
0.99899549
0.99901894
0.99899983
0.99899074
0.99901017
0.99901548
0.99907088
0.99919006
0.99939238
0.99971623
1.0000033
1.0002413
1.0004267
1.0005592
1.0006657
1.0007704
1.00085
1.0009295
1.0010133
1.0011326
1.0012312
1.0013656
1.0014545
1.0015484
1.001532
1.0015499
1.0014966
1.0015536
1.001437
1.0014755
1.0014542
1.0013855
1.0013952
1.0013203
1.0013138
1.0012666
1.001271
1.0011824
1.0011925
1.0010802
1.0010457
1.001071
1.0009873
1.0009733
1.000882
1.0008878
1.0008203
1.0006819
1.0007278
1.000602
1.0005911
1.0004729
1.0005295
1.0004309
1.0004249
1.0002354
1.0002971
1.0001143
0.99993092
0.99972044
0.99935925
0.99937477
0.99917451
0.99887386
0.99857836
0.99848796
0.99839601
0.99811251
0.99788265
0.99756145
0.99725193
0.99699566
0.99660968
0.99631731
0.99597521
0.99561246
0.99526649
0.99496321
0.99465804
0.99447594
0.99438662
0.99437031
0.99443859
0.99440532
0.99445866
0.99453985
0.9945284
0.99450908
0.99992533
0.99971324
0.99968716
0.99964108
0.99964619
0.99958716
0.99958297
0.99951962
0.99948378
0.99947556
0.99942994
0.99936621
0.99916514
0.99904752
0.99901213
0.9990124
0.99898709
0.99898315
0.99897968
0.99898653
0.99898185
0.99899866
0.99905956
0.99920371
0.99944818
0.99974571
1.0000303
1.0002437
1.0004055
1.0005394
1.0006354
1.0007103
1.0007955
1.000883
1.0009574
1.0010784
1.0011736
1.0012866
1.0013884
1.0015014
1.0014836
1.0014897
1.0014729
1.0015233
1.0014577
1.0014719
1.0014422
1.0014484
1.0013572
1.0013417
1.0014
1.0013155
1.0013002
1.0012437
1.0012714
1.0011521
1.0011409
1.0011381
1.001068
1.0009638
1.0009348
1.0009692
1.0008783
1.0007591
1.0008038
1.000654
1.0005065
1.000452
1.0004434
1.0002929
1.0002608
1.0001329
1.0001246
1.0000591
0.999776
0.99973765
0.99938104
0.99920164
0.99907293
0.99870184
0.9985242
0.99825477
0.99820228
0.99802696
0.9977203
0.9973032
0.99704504
0.99681498
0.99657477
0.99634229
0.99594857
0.99562776
0.99525314
0.99496558
0.99466138
0.99445594
0.99420858
0.99427151
0.9942949
0.99430997
0.99435169
0.99434601
0.99435773
0.99435646
0.99993115
0.99970485
0.99966903
0.9996421
0.99964856
0.99957017
0.99956955
0.99949703
0.99947764
0.99946195
0.99942395
0.99934678
0.9991506
0.99901178
0.99898402
0.99897766
0.99895769
0.99895351
0.99895428
0.99894949
0.99895717
0.99898481
0.99906566
0.99921791
0.99949303
0.99978155
1.0000504
1.0002422
1.0003883
1.0005084
1.0005984
1.000679
1.0007469
1.0008395
1.0009164
1.0010169
1.0011226
1.0012291
1.0013403
1.0014206
1.0015616
1.0014915
1.0014757
1.0014964
1.0014525
1.00149
1.0014546
1.0014594
1.0013978
1.0014032
1.0013413
1.0012898
1.0013195
1.0012292
1.0011918
1.0011729
1.001104
1.0010644
1.0013435
1.0010275
1.0009388
1.0009753
1.0008708
1.0007846
1.0007631
1.0006576
1.000498
1.0005303
1.0004189
1.0002084
1.0002168
1.0001073
1.0001084
0.99985697
0.99980785
0.99966132
0.99953076
0.99927217
0.99914217
0.99875913
0.99856236
0.99815475
0.99792538
0.99768427
0.99744903
0.99703404
0.99674041
0.99658488
0.99639597
0.99620139
0.99590581
0.99561366
0.99526028
0.99497092
0.99466106
0.99445844
0.99425057
0.99428286
0.99426805
0.99427686
0.99444489
0.99448797
0.99449712
0.9946443
0.99992918
0.99970436
0.99967038
0.99964407
0.999636
0.99958974
0.99954787
0.99947032
0.99948431
0.99944014
0.9994048
0.99932301
0.99912153
0.99898085
0.99896355
0.99893877
0.99892752
0.99892761
0.99895617
0.9989401
0.99894474
0.99897839
0.99907729
0.99926352
0.99954529
0.99981835
1.0000745
1.000246
1.0003737
1.0004844
1.0005669
1.0006365
1.0007108
1.0007906
1.0008666
1.0009713
1.0010902
1.0011876
1.001286
1.0013856
1.001552
1.0014821
1.0015062
1.0015308
1.0014508
1.0014474
1.001401
1.0014951
1.0013819
1.0013492
1.0013798
1.0012952
1.0012768
1.0013141
1.0012388
1.0012387
1.0011506
1.0012093
1.0010956
1.0010553
1.0009683
1.0008798
1.0008579
1.0007593
1.000767
1.0006099
1.0005505
1.0004824
1.0004588
1.000323
1.0003402
1.0001882
1.000147
0.9999722
0.99996783
0.99975948
0.99964554
0.99944536
0.99926218
0.99895939
0.99870923
0.99821189
0.99792425
0.99766724
0.99742463
0.99704381
0.99670963
0.99640332
0.99607554
0.99591629
0.99573294
0.99551821
0.99521698
0.99495613
0.99470354
0.99451176
0.99427906
0.99429036
0.99430511
0.99441806
0.99443003
0.99451767
0.99453208
0.99462263
0.99990888
0.99971522
0.99965317
0.99965787
0.99962653
0.99960046
0.99953701
0.99944214
0.99945193
0.99941202
0.9993787
0.99929129
0.999086
0.99895416
0.99893526
0.9989137
0.99891224
0.99890118
0.99891811
0.99891727
0.99893107
0.99897698
0.99911031
0.99932248
0.99961142
0.99986541
1.0000854
1.0002367
1.000351
1.0004413
1.0005184
1.0005904
1.0006603
1.0007456
1.0008423
1.0009441
1.0010497
1.0011505
1.0012231
1.0013808
1.0014382
1.0014434
1.0015819
1.0014681
1.001453
1.0014046
1.0014072
1.0014104
1.0013693
1.001383
1.0013433
1.0013618
1.0012711
1.0012902
1.0012475
1.0012737
1.0011752
1.0012029
1.0010638
1.0010214
1.0009687
1.0008694
1.0008723
1.0007531
1.0007018
1.0007129
1.0005765
1.0005099
1.0003234
1.0004281
1.0002788
1.000017
0.99993283
0.99985189
0.99985742
0.99971556
0.99969415
0.99951187
0.99933822
0.99916529
0.99892069
0.99853577
0.99811158
0.99776417
0.99744887
0.99710971
0.99672285
0.99642099
0.99608136
0.99576619
0.99551964
0.99535513
0.99514979
0.99494651
0.99474942
0.99458705
0.99437863
0.99424053
0.99436606
0.99442673
0.99437901
0.99460734
0.99453207
0.99464836
0.99987491
0.9997295
0.99965727
0.99965583
0.99962233
0.9995996
0.99953903
0.9994334
0.99940495
0.99939392
0.99936243
0.99924766
0.99905117
0.99891956
0.9989037
0.99888258
0.9988897
0.99888384
0.99890111
0.9989011
0.99892139
0.99899927
0.99915732
0.999404
0.99968169
0.99990141
1.0001055
1.0002235
1.0003289
1.0004049
1.0004785
1.0005519
1.0006124
1.000718
1.0008073
1.0009042
1.0010215
1.0010902
1.0011838
1.0013158
1.001395
1.0013805
1.001437
1.0013836
1.0014153
1.0013552
1.0013895
1.0013487
1.00138
1.0013478
1.00134
1.0013364
1.0013046
1.0012614
1.0012512
1.0013333
1.0012611
1.0011339
1.0011693
1.0010492
1.001013
1.0008665
1.0009055
1.0007515
1.0007649
1.0006297
1.0006291
1.000524
1.0003507
1.0003646
1.0001227
1.0000979
0.99993565
0.99978411
0.99978512
0.99961629
0.9995958
0.99940259
0.99941227
0.99923145
0.99902516
0.99878996
0.99844928
0.99806475
0.99764809
0.99726183
0.99684271
0.99645829
0.9960985
0.99576226
0.99550112
0.99528858
0.99509954
0.9949334
0.99476287
0.99462338
0.994414
0.99437748
0.99433542
0.99441674
0.99440973
0.99456413
0.99442694
0.9945373
0.99984396
0.99974201
0.99965575
0.99964033
0.99961305
0.99958747
0.99952808
0.99942536
0.9993731
0.99938598
0.99934043
0.99920206
0.99902108
0.99889775
0.99887852
0.99886248
0.99885709
0.99886464
0.99886803
0.99887978
0.99892466
0.99903531
0.99923804
0.99948329
0.99973749
0.99993846
1.0000925
1.0001976
1.0002997
1.0003628
1.0004504
1.0005072
1.0005779
1.0006714
1.0007712
1.0008817
1.0009671
1.0010437
1.0011523
1.0012414
1.0012878
1.0014356
1.0013464
1.0013547
1.0013293
1.0013227
1.0013133
1.0013289
1.001278
1.0012941
1.0013656
1.0012992
1.0012958
1.0012684
1.00127
1.0012434
1.0012521
1.0011437
1.0012117
1.0011415
1.0009834
1.0008854
1.00093
1.0008092
1.0007842
1.0006552
1.0006265
1.0005449
1.0003535
1.0001589
1.0002099
0.99999037
0.99988249
0.99973986
0.99974872
0.99954008
0.99954004
0.99933889
0.99923148
0.99907978
0.99901259
0.99886524
0.99867941
0.99838773
0.99802313
0.9975867
0.99710547
0.9966205
0.99617764
0.99579611
0.99550226
0.99529008
0.99509534
0.99493315
0.9947772
0.99463699
0.99443951
0.99436391
0.99429715
0.99441066
0.99436535
0.99453904
0.99448291
0.99459912
0.99982876
0.99974803
0.999656
0.99961809
0.99960252
0.99957658
0.99950841
0.99939443
0.9993709
0.99935409
0.99931408
0.99917387
0.99895352
0.9988605
0.99884886
0.99884611
0.99884345
0.99884447
0.99884793
0.99887556
0.9989413
0.99909638
0.99931197
0.99957152
0.99980147
0.99996068
1.0000879
1.0001744
1.0002462
1.0003199
1.0003911
1.0004566
1.0005486
1.0006428
1.0007475
1.0008388
1.0009423
1.0010135
1.0011288
1.0011987
1.0012797
1.0012619
1.0012317
1.0013508
1.0013363
1.001284
1.0012686
1.0012529
1.0012316
1.001241
1.0012713
1.0012446
1.0012361
1.0012939
1.0012071
1.0012297
1.001196
1.0011616
1.0011627
1.0011066
1.0009395
1.0008694
1.0008791
1.0008039
1.000779
1.0006346
1.0006109
1.0004881
1.0002761
1.0001519
1.000141
1.0000418
0.99981977
0.9998127
0.9996304
0.99962176
0.99947211
0.9993142
0.99932878
0.99915227
0.99901999
0.99890322
0.99878703
0.99858221
0.99830134
0.99792077
0.99745548
0.9969252
0.99640752
0.99593072
0.99555684
0.99530778
0.99510701
0.99493906
0.99479433
0.99465659
0.99447449
0.99438656
0.99430495
0.99437911
0.99438724
0.99454502
0.99447871
0.99474594
0.99982664
0.99975381
0.9996531
0.99960586
0.99959143
0.99956272
0.99948724
0.99937065
0.99935534
0.99933261
0.99928561
0.99912784
0.99890558
0.99881936
0.99882622
0.99881361
0.9988212
0.99882312
0.99883313
0.99887978
0.99897509
0.99917281
0.99940828
0.99964688
0.99984243
0.99997083
1.0000711
1.0001457
1.0002093
1.0002719
1.000347
1.0004226
1.0005202
1.0006139
1.0007233
1.0008104
1.0009137
1.0009782
1.0010871
1.0011512
1.0012406
1.001194
1.0012506
1.0012472
1.0012387
1.0012328
1.0012057
1.0012246
1.0012308
1.0012051
1.0012197
1.0012981
1.0012265
1.0012477
1.0011986
1.0011866
1.0011345
1.001092
1.0010872
1.0010226
1.0009062
1.0008783
1.000777
1.0008471
1.0007434
1.0006115
1.0006479
1.0004801
1.0003001
1.0001546
1.000121
0.99996407
0.9999292
0.99977944
0.9995604
0.99955462
0.99938721
0.99926024
0.99922058
0.99908477
0.99898919
0.99884735
0.99872306
0.99856573
0.99835934
0.99808819
0.99771597
0.9972423
0.99673769
0.99621426
0.99575966
0.99542106
0.995182
0.99499418
0.99483818
0.99468708
0.99453111
0.99441628
0.99429526
0.99435911
0.99435979
0.9945249
0.99450814
0.99467908
0.99983265
0.99975686
0.99965161
0.9995869
0.9995733
0.99954287
0.99946632
0.99935541
0.99934007
0.99931216
0.99925698
0.99907083
0.99885433
0.9987972
0.99880507
0.99878349
0.9987922
0.99879337
0.99881792
0.99888308
0.99903467
0.99924729
0.99949748
0.9997031
0.9998673
0.99997329
1.0000519
1.0001132
1.0001729
1.0002429
1.0003116
1.0004081
1.0004947
1.0005926
1.0007092
1.0007848
1.0008872
1.0009496
1.0010367
1.0011341
1.0011452
1.0011572
1.0012111
1.001196
1.0011929
1.001184
1.0012245
1.0012019
1.0011899
1.001188
1.0011934
1.001209
1.0011588
1.0011729
1.0011734
1.0010909
1.001073
1.0010198
1.0009741
1.000961
1.0009015
1.0009034
1.0007829
1.0007085
1.0007504
1.0005572
1.0005991
1.0004006
1.0002937
1.0001334
1.0002056
0.99992443
0.99992123
0.99972223
0.99955675
0.99955846
0.99932135
0.99917646
0.99903942
0.99908127
0.99885617
0.99886335
0.99869365
0.99853236
0.99835694
0.99814108
0.99783477
0.99744806
0.99701943
0.99653722
0.99607658
0.99566895
0.99537064
0.99513515
0.99495363
0.99478744
0.99462031
0.9944747
0.99431502
0.99433107
0.9943019
0.99448804
0.99457079
0.99458044
0.99984553
0.99975252
0.99965951
0.9995689
0.9995564
0.99953009
0.99944363
0.99934635
0.99932581
0.99929379
0.99922068
0.99901405
0.99880182
0.99876642
0.99877895
0.99876313
0.99876489
0.99877963
0.99880851
0.99891411
0.99909629
0.99933241
0.99957318
0.99974894
0.99987179
0.99996674
1.000026
1.0000826
1.0001377
1.0002177
1.0002893
1.0003883
1.0004822
1.0005814
1.0006857
1.0007637
1.0008632
1.0009321
1.0009958
1.0010889
1.0010929
1.0011081
1.0011291
1.0011391
1.0011633
1.0011803
1.001161
1.0011999
1.0011411
1.0011789
1.0011783
1.0011485
1.0011878
1.0011209
1.0011124
1.0010275
1.0009879
1.0010048
1.0009032
1.0008969
1.0007968
1.0007785
1.0007511
1.0006518
1.0006609
1.0005263
1.0005388
1.0003931
1.0003977
1.0002167
1.0001873
0.99998138
1.0000052
0.99979412
0.99966762
0.99962041
0.99936647
0.99926382
0.99903301
0.9990157
0.99885679
0.9987681
0.99860686
0.9984138
0.99824264
0.99804773
0.99783616
0.99753867
0.99719377
0.99680602
0.99638298
0.99599612
0.99566324
0.99539507
0.99517141
0.99497845
0.99479414
0.9946251
0.99444613
0.99434261
0.99426721
0.99437471
0.99457975
0.99460193
0.99985209
0.9997447
0.99965917
0.99956292
0.99954745
0.99951243
0.99943758
0.99933202
0.99931361
0.99927473
0.99918068
0.99895185
0.99876085
0.99876257
0.99874377
0.998735
0.99875132
0.99876071
0.99881825
0.99895339
0.9991707
0.99940953
0.99963311
0.99977625
0.99987138
0.99993908
0.99999774
1.0000433
1.0001092
1.0001892
1.0002745
1.0003717
1.0004722
1.0005735
1.0006708
1.0007563
1.0008506
1.0009137
1.0009897
1.0010291
1.0010496
1.0010732
1.0011453
1.0011054
1.0011622
1.0011482
1.0011433
1.0011212
1.0011506
1.0011113
1.0011761
1.0011086
1.0011111
1.0010479
1.0010603
1.0010236
1.0009698
1.0009671
1.0009208
1.0008048
1.0007572
1.0007338
1.0007143
1.000575
1.0005771
1.0005524
1.0004769
1.0003365
1.0003729
1.0001833
1.0001858
1.0000269
1.0000175
0.99985752
0.99982208
0.99968489
0.99950374
0.99934263
0.99915565
0.999006
0.99886843
0.99873375
0.99860471
0.9984124
0.99823526
0.9980438
0.99783806
0.99757642
0.99727839
0.99698779
0.99662819
0.99630328
0.99599527
0.99572435
0.99548716
0.99527838
0.99507854
0.99489068
0.99465796
0.99450576
0.99434773
0.99445227
0.99442743
0.99456583
0.99984556
0.99974604
0.99964521
0.99956647
0.99953669
0.99950126
0.9994213
0.99932481
0.99929767
0.99924961
0.99913492
0.99887971
0.99873017
0.99872582
0.99871172
0.99871249
0.99872404
0.9987502
0.99883744
0.99901216
0.9992462
0.99948366
0.99966626
0.99978518
0.99985818
0.99991667
0.9999625
1.0000096
1.0000803
1.0001655
1.000267
1.0003613
1.0004718
1.0005666
1.0006667
1.0007543
1.0008438
1.0009038
1.0009576
1.0009962
1.0010208
1.0010794
1.0010589
1.0011187
1.0011214
1.0011021
1.0011095
1.0011157
1.0011072
1.0010897
1.0010916
1.0010642
1.0010897
1.001016
1.001026
1.0010205
1.0009723
1.0009627
1.0009159
1.0008137
1.0008105
1.0007499
1.000636
1.0005943
1.0005552
1.0004514
1.0004888
1.0003257
1.0003578
1.0002665
1.000165
1.0000187
0.99999209
0.99980662
0.9998056
0.99960623
0.99952404
0.99929213
0.99922782
0.9990293
0.99889742
0.99874582
0.99861162
0.99843959
0.99824379
0.99801078
0.99778673
0.997576
0.99732122
0.99708504
0.99678515
0.99652086
0.99627943
0.99604217
0.99582816
0.99562589
0.99542785
0.99524559
0.99503125
0.99482628
0.99462289
0.99432338
0.994492
0.99470213
0.99983898
0.99974205
0.99963638
0.99957467
0.99953375
0.99948742
0.99940453
0.99931384
0.99928395
0.99922205
0.99907966
0.99880707
0.99869743
0.99869337
0.99868423
0.99868696
0.99870269
0.99875263
0.99887865
0.99908362
0.99932812
0.99953288
0.99968219
0.99977627
0.99983748
0.99988261
0.99992767
0.99997993
1.0000586
1.0001542
1.0002616
1.0003639
1.0004697
1.0005719
1.000667
1.000759
1.0008397
1.0008931
1.0009653
1.0010256
1.0010195
1.0010451
1.0010408
1.0010429
1.0010938
1.0010773
1.0010891
1.0010665
1.0010791
1.001067
1.0010517
1.0010602
1.0010348
1.0010317
1.0009873
1.0010331
1.0009489
1.0009458
1.0009066
1.0008092
1.0007804
1.0006993
1.0007132
1.0006373
1.0005026
1.000505
1.0004091
1.0002929
1.0003088
1.000238
1.0001501
0.99998024
0.99999243
0.99980792
0.99980797
0.99960423
0.99950251
0.9992764
0.99920855
0.99902797
0.99888397