/*--------------------------------*- C++ -*----------------------------------*\
| =========                 |                                                 |
| \\      /  F ield         | OpenFOAM: The Open Source CFD Toolbox           |
|  \\    /   O peration     | Version:  2406                                  |
|   \\  /    A nd           | Website:  www.openfoam.com                      |
|    \\/     M anipulation  |                                                 |
\*---------------------------------------------------------------------------*/
FoamFile
{
    version     2.0;
    format      ascii;
    arch        "LSB;label=32;scalar=64";
    class       volScalarField;
    location    "700";
    object      alphat;
}
// * * * * * * * * * * * * * * * * * * * * * * * * * * * * * * * * * * * * * //

dimensions      [1 -1 -1 0 0 0 0];

internalField   nonuniform List<scalar> 
132739
(
8.6473067e-07
8.498342e-07
8.3708939e-07
8.264542e-07
8.1752018e-07
8.0988928e-07
8.032598e-07
7.9741766e-07
7.9221013e-07
7.875254e-07
7.8327948e-07
7.7940763e-07
7.7585894e-07
7.7259252e-07
7.6957521e-07
7.6677967e-07
7.641832e-07
7.6176679e-07
7.5951441e-07
7.5741249e-07
7.5544951e-07
7.536156e-07
7.5190246e-07
7.5030297e-07
7.4881113e-07
7.474219e-07
7.4613112e-07
7.449354e-07
7.4383203e-07
7.4281896e-07
7.4189475e-07
7.4105846e-07
7.4030971e-07
7.3964855e-07
7.3907542e-07
7.3859123e-07
7.3819713e-07
7.3789467e-07
7.3768567e-07
7.375722e-07
7.3755654e-07
7.376412e-07
7.3782889e-07
7.3812243e-07
7.3852477e-07
7.3903902e-07
7.3966817e-07
7.4041527e-07
7.4128327e-07
7.4227483e-07
7.4339272e-07
7.446376e-07
7.4601686e-07
7.4752178e-07
7.491245e-07
7.5078506e-07
7.5250161e-07
7.5425855e-07
7.5591566e-07
7.5762003e-07
7.5923069e-07
7.6094701e-07
7.6262056e-07
7.6452227e-07
7.6641392e-07
7.6865923e-07
7.7125163e-07
7.7432285e-07
7.7768464e-07
7.8133312e-07
7.8535754e-07
7.8966866e-07
7.9393334e-07
7.9808869e-07
8.022268e-07
8.0617578e-07
8.1007435e-07
8.1426912e-07
8.1879797e-07
8.2337301e-07
8.2806525e-07
8.3308328e-07
8.3864957e-07
8.4488072e-07
8.5147395e-07
8.5881324e-07
8.6709853e-07
8.7661636e-07
8.8786031e-07
9.0138615e-07
9.1763702e-07
9.3683345e-07
9.5888306e-07
9.8342804e-07
1.0100494e-06
1.038523e-06
1.0690253e-06
1.1021363e-06
1.1388909e-06
1.1800995e-06
1.2277435e-06
1.2801906e-06
1.3440493e-06
1.41011e-06
8.647161e-07
8.4982915e-07
8.3709196e-07
8.2646247e-07
8.1753291e-07
8.0990551e-07
8.0327887e-07
7.974392e-07
7.9223402e-07
7.875518e-07
7.8330878e-07
7.7944045e-07
7.75896e-07
7.7263469e-07
7.6962337e-07
7.6683477e-07
7.6424619e-07
7.6183861e-07
7.59596e-07
7.5750474e-07
7.5555323e-07
7.5373156e-07
7.5203126e-07
7.5044509e-07
7.4896688e-07
7.475914e-07
7.4631428e-07
7.4513188e-07
7.4404129e-07
7.430402e-07
7.4212692e-07
7.4130032e-07
7.4055972e-07
7.3990495e-07
7.3933624e-07
7.388543e-07
7.3846018e-07
7.3815524e-07
7.3794125e-07
7.3782017e-07
7.3779434e-07
7.3786622e-07
7.3803862e-07
7.3831434e-07
7.3869641e-07
7.3918788e-07
7.3979181e-07
7.4051116e-07
7.4134885e-07
7.4230746e-07
7.4338975e-07
7.4459583e-07
7.4593675e-07
7.4736435e-07
7.4882258e-07
7.5029011e-07
7.5183635e-07
7.5356315e-07
7.55468e-07
7.5753852e-07
7.597577e-07
7.621172e-07
7.6457223e-07
7.6712952e-07
7.6982713e-07
7.7248946e-07
7.7518389e-07
7.7800816e-07
7.8099783e-07
7.8412428e-07
7.8782729e-07
7.9161871e-07
7.952682e-07
7.9876787e-07
8.0269434e-07
8.0697578e-07
8.1011541e-07
8.1339068e-07
8.1849942e-07
8.2348604e-07
8.271641e-07
8.3183504e-07
8.3711232e-07
8.4333479e-07
8.5048997e-07
8.5839184e-07
8.6697168e-07
8.7594276e-07
8.8554406e-07
8.9602502e-07
9.0775946e-07
9.2129905e-07
9.3730885e-07
9.5640151e-07
9.7895866e-07
1.0050515e-06
1.0344863e-06
1.0670149e-06
1.1024898e-06
1.1411024e-06
1.1833583e-06
1.2302104e-06
1.2804811e-06
1.3445493e-06
8.6470571e-07
8.4982791e-07
8.370976e-07
8.2647281e-07
8.1754644e-07
8.0992102e-07
8.0329537e-07
7.9745591e-07
7.9225029e-07
7.87567e-07
7.8332226e-07
7.7945147e-07
7.7590369e-07
7.7263804e-07
7.6962124e-07
7.6682587e-07
7.6422911e-07
7.6181185e-07
7.5955794e-07
7.5745368e-07
7.554874e-07
7.5364912e-07
7.5193033e-07
7.5032375e-07
7.488232e-07
7.4742346e-07
7.4612017e-07
7.4490973e-07
7.4378927e-07
7.4275656e-07
7.4181e-07
7.4094853e-07
7.4017162e-07
7.3947922e-07
7.3887173e-07
7.3834993e-07
7.3791504e-07
7.3756853e-07
7.3731227e-07
7.3714833e-07
7.3707907e-07
7.3710705e-07
7.3723498e-07
7.3746572e-07
7.3780213e-07
7.3824719e-07
7.3880386e-07
7.3947492e-07
7.4026311e-07
7.4117072e-07
7.4219983e-07
7.4335247e-07
7.4462745e-07
7.4602861e-07
7.4756247e-07
7.4923551e-07
7.5104449e-07
7.5297375e-07
7.5501373e-07
7.5716091e-07
7.5941218e-07
7.617598e-07
7.6419048e-07
7.6670383e-07
7.692999e-07
7.7198275e-07
7.7473481e-07
7.7753185e-07
7.8038441e-07
7.8329719e-07
7.861523e-07
7.8928063e-07
7.9242767e-07
7.9548981e-07
7.9862755e-07
8.0179093e-07
8.0483956e-07
8.0797902e-07
8.1150853e-07
8.1514203e-07
8.1892108e-07
8.2286846e-07
8.2724509e-07
8.3229854e-07
8.3799903e-07
8.4440793e-07
8.5205837e-07
8.6097975e-07
8.7125486e-07
8.8285265e-07
8.9564656e-07
9.0952627e-07
9.2452228e-07
9.4088971e-07
9.5910108e-07
9.7975215e-07
1.0033952e-06
1.0304278e-06
1.0609828e-06
1.0951074e-06
1.1325916e-06
1.174325e-06
1.2170581e-06
1.2763204e-06
8.6469886e-07
8.4982978e-07
8.3710595e-07
8.2648546e-07
8.1756197e-07
8.0993846e-07
8.0331422e-07
7.9747604e-07
7.9227183e-07
7.8759021e-07
7.8334748e-07
7.7947912e-07
7.7593424e-07
7.7267204e-07
7.696593e-07
7.6686866e-07
7.6427738e-07
7.6186641e-07
7.5961965e-07
7.5752345e-07
7.5556619e-07
7.5373794e-07
7.520302e-07
7.5043573e-07
7.4894836e-07
7.4756288e-07
7.462749e-07
7.4508081e-07
7.4397776e-07
7.4296347e-07
7.420363e-07
7.4119517e-07
7.4043944e-07
7.3976905e-07
7.3918426e-07
7.3868581e-07
7.3827478e-07
7.3795255e-07
7.3772084e-07
7.3758167e-07
7.3753715e-07
7.3758975e-07
7.3774203e-07
7.379966e-07
7.3835627e-07
7.3882379e-07
7.3940194e-07
7.4009343e-07
7.409006e-07
7.4182572e-07
7.4287062e-07
7.4403666e-07
7.4532501e-07
7.4673431e-07
7.4826288e-07
7.4990934e-07
7.5167354e-07
7.5355544e-07
7.5555257e-07
7.5766064e-07
7.59879e-07
7.6219417e-07
7.6460028e-07
7.6708283e-07
7.6964752e-07
7.7227494e-07
7.7494347e-07
7.7763359e-07
7.8035433e-07
7.8309853e-07
7.8586397e-07
7.8864976e-07
7.9143547e-07
7.9447523e-07
7.9744983e-07
8.0039218e-07
8.0329071e-07
8.0601008e-07
8.0905307e-07
8.1237821e-07
8.1592562e-07
8.1972719e-07
8.2386772e-07
8.2844639e-07
8.3357707e-07
8.3931296e-07
8.4566306e-07
8.5275613e-07
8.608248e-07
8.701454e-07
8.8097188e-07
8.9346565e-07
9.0766487e-07
9.23518e-07
9.4096758e-07
9.6005201e-07
9.809672e-07
1.0040689e-06
1.029781e-06
1.05852e-06
1.0904386e-06
1.1263251e-06
1.1634343e-06
1.2139373e-06
8.6469534e-07
8.4983461e-07
8.371166e-07
8.2649972e-07
8.1757858e-07
8.099567e-07
8.0333367e-07
7.9749648e-07
7.9229304e-07
7.8761196e-07
7.8336952e-07
7.7950114e-07
7.7595591e-07
7.7269296e-07
7.6967902e-07
7.6688671e-07
7.6429324e-07
7.6187949e-07
7.5962935e-07
7.5752911e-07
7.555671e-07
7.5373337e-07
7.5201939e-07
7.504179e-07
7.489227e-07
7.4752856e-07
7.4623112e-07
7.4502675e-07
7.4391258e-07
7.4288633e-07
7.4194639e-07
7.4109164e-07
7.4032151e-07
7.3963591e-07
7.3903512e-07
7.3851988e-07
7.3809126e-07
7.3775067e-07
7.3749984e-07
7.3734067e-07
7.372754e-07
7.3730636e-07
7.3743604e-07
7.376671e-07
7.380023e-07
7.3844432e-07
7.3899572e-07
7.3965907e-07
7.4043682e-07
7.4133099e-07
7.4234329e-07
7.4347507e-07
7.4472632e-07
7.460977e-07
7.4759026e-07
7.4920425e-07
7.5093679e-07
7.5278124e-07
7.5473178e-07
7.5678326e-07
7.5893294e-07
7.611713e-07
7.634908e-07
7.6587983e-07
7.6833732e-07
7.7085103e-07
7.7340716e-07
7.7598989e-07
7.7859786e-07
7.8122615e-07
7.8385985e-07
7.8648353e-07
7.891074e-07
7.9179576e-07
7.9439997e-07
7.9699133e-07
7.9957914e-07
8.0225781e-07
8.0503213e-07
8.0792736e-07
8.1098926e-07
8.1427298e-07
8.1784258e-07
8.2177198e-07
8.2613995e-07
8.3106985e-07
8.3671534e-07
8.4318726e-07
8.5056963e-07
8.5895571e-07
8.6847695e-07
8.7931487e-07
8.9167583e-07
9.0574522e-07
9.2163956e-07
9.3939088e-07
9.5898048e-07
9.8040626e-07
1.0037585e-06
1.0292442e-06
1.0570752e-06
1.0879823e-06
1.1202359e-06
1.1630222e-06
8.646945e-07
8.498412e-07
8.3712824e-07
8.2651474e-07
8.175961e-07
8.0997616e-07
8.0335474e-07
7.9751899e-07
7.9231689e-07
7.8763711e-07
7.8339598e-07
7.7952899e-07
7.7598525e-07
7.7272394e-07
7.6971184e-07
7.6692159e-07
7.6433043e-07
7.6191928e-07
7.5967204e-07
7.5757504e-07
7.5561662e-07
7.5378684e-07
7.5207719e-07
7.5048038e-07
7.4899024e-07
7.4760153e-07
7.4630986e-07
7.451116e-07
7.4400387e-07
7.4298438e-07
7.4205148e-07
7.4120404e-07
7.4044141e-07
7.3976349e-07
7.391705e-07
7.3866311e-07
7.3824237e-07
7.3790959e-07
7.3766638e-07
7.3751461e-07
7.3745638e-07
7.3749399e-07
7.3762983e-07
7.3786649e-07
7.3820649e-07
7.3865239e-07
7.3920685e-07
7.3987231e-07
7.406509e-07
7.4154447e-07
7.4255459e-07
7.4368234e-07
7.4492803e-07
7.462916e-07
7.4777228e-07
7.493684e-07
7.5107746e-07
7.5289564e-07
7.5481935e-07
7.5684404e-07
7.589657e-07
7.6117438e-07
7.634615e-07
7.6581525e-07
7.6823024e-07
7.7069389e-07
7.7319041e-07
7.7570291e-07
7.7822525e-07
7.8075024e-07
7.8326763e-07
7.8576866e-07
7.882518e-07
7.9071442e-07
7.9316217e-07
7.9560419e-07
7.9805498e-07
8.0053294e-07
8.0306497e-07
8.0568609e-07
8.0843988e-07
8.1137968e-07
8.1456591e-07
8.1806921e-07
8.2197131e-07
8.2633799e-07
8.3121804e-07
8.3671332e-07
8.4294977e-07
8.5006684e-07
8.5820572e-07
8.6751011e-07
8.7813377e-07
8.9024918e-07
9.0403966e-07
9.1967145e-07
9.3726022e-07
9.5684956e-07
9.7843328e-07
1.0019997e-06
1.0275169e-06
1.0553957e-06
1.0842768e-06
1.1215251e-06
8.6469531e-07
8.4984893e-07
8.3714093e-07
8.2653092e-07
8.1761496e-07
8.099971e-07
8.0337733e-07
7.9754293e-07
7.9234195e-07
7.8766313e-07
7.834228e-07
7.7955645e-07
7.760132e-07
7.7275222e-07
7.6974027e-07
7.6694997e-07
7.6435856e-07
7.6194693e-07
7.5969898e-07
7.5760099e-07
7.5564132e-07
7.5380999e-07
7.5209848e-07
7.5049951e-07
7.4900688e-07
7.4761534e-07
7.4632049e-07
7.4511872e-07
7.4400712e-07
7.429834e-07
7.4204592e-07
7.4119351e-07
7.404256e-07
7.3974198e-07
7.3914295e-07
7.3862911e-07
7.3820148e-07
7.3786137e-07
7.3761036e-07
7.3745026e-07
7.373832e-07
7.3741135e-07
7.3753708e-07
7.3776287e-07
7.3809125e-07
7.3852485e-07
7.3906596e-07
7.3971684e-07
7.404797e-07
7.4135624e-07
7.4234787e-07
7.4345557e-07
7.4467949e-07
7.4601937e-07
7.4747469e-07
7.4904434e-07
7.5072578e-07
7.5251431e-07
7.5440446e-07
7.5639023e-07
7.5846624e-07
7.6062329e-07
7.6285253e-07
7.6514263e-07
7.6748601e-07
7.6987099e-07
7.7228339e-07
7.7470816e-07
7.7713645e-07
7.7955986e-07
7.8196722e-07
7.84347e-07
7.8669283e-07
7.8900358e-07
7.9128166e-07
7.935334e-07
7.9577038e-07
7.9801007e-07
8.0027638e-07
8.0260067e-07
8.0502135e-07
8.0758484e-07
8.103477e-07
8.1337062e-07
8.167232e-07
8.2049226e-07
8.2478689e-07
8.2969601e-07
8.3531231e-07
8.4172372e-07
8.490252e-07
8.573214e-07
8.667268e-07
8.7736966e-07
8.8939717e-07
9.0297682e-07
9.182867e-07
9.3549022e-07
9.5470707e-07
9.7600876e-07
9.9934151e-07
1.0249766e-06
1.0515229e-06
1.0853834e-06
8.6469677e-07
8.4985739e-07
8.3715457e-07
8.2654828e-07
8.1763514e-07
8.1001939e-07
8.0340129e-07
7.9756826e-07
7.9236849e-07
7.8769075e-07
7.8345143e-07
7.7958607e-07
7.7604379e-07
7.7278381e-07
7.6977291e-07
7.6698371e-07
7.6439348e-07
7.6198313e-07
7.5973653e-07
7.5764003e-07
7.5568194e-07
7.5385231e-07
7.5214261e-07
7.5054558e-07
7.4905496e-07
7.4766553e-07
7.4637288e-07
7.4517338e-07
7.4406411e-07
7.4304278e-07
7.4210771e-07
7.4125773e-07
7.4049221e-07
7.3981093e-07
7.3921411e-07
7.3870235e-07
7.382766e-07
7.3793813e-07
7.3768844e-07
7.3752933e-07
7.3746275e-07
7.3749087e-07
7.37616e-07
7.3784054e-07
7.3816693e-07
7.3859763e-07
7.3913497e-07
7.3978111e-07
7.4053808e-07
7.4140752e-07
7.4239068e-07
7.4348835e-07
7.4470062e-07
7.4602705e-07
7.4746666e-07
7.4901768e-07
7.5067705e-07
7.5244035e-07
7.5430252e-07
7.5625791e-07
7.5830082e-07
7.6042211e-07
7.6261242e-07
7.6486031e-07
7.6715631e-07
7.6948833e-07
7.7184194e-07
7.7420174e-07
7.7655648e-07
7.7889625e-07
7.8120986e-07
7.834869e-07
7.8572102e-07
7.8790976e-07
7.9005381e-07
7.9215769e-07
7.9423111e-07
7.9628923e-07
7.9835378e-07
8.0045333e-07
8.0262437e-07
8.0490888e-07
8.0736241e-07
8.1003959e-07
8.1301254e-07
8.16341e-07
8.2008648e-07
8.2432943e-07
8.2916916e-07
8.3471131e-07
8.4106617e-07
8.4834303e-07
8.566478e-07
8.6608331e-07
8.7675219e-07
8.8876354e-07
9.0224059e-07
9.1732537e-07
9.3416564e-07
9.5292273e-07
9.7363825e-07
9.9668614e-07
1.0207258e-06
1.0517534e-06
8.6469931e-07
8.4986716e-07
8.3716955e-07
8.2656693e-07
8.1765653e-07
8.1004284e-07
8.0342636e-07
7.9759468e-07
7.9239604e-07
7.877193e-07
7.8348089e-07
7.7961634e-07
7.760748e-07
7.7281546e-07
7.6980512e-07
7.6701642e-07
7.6442659e-07
7.6201654e-07
7.5977016e-07
7.5767376e-07
7.5571566e-07
7.538859e-07
7.5217591e-07
7.5057842e-07
7.490872e-07
7.4769699e-07
7.4640338e-07
7.4520274e-07
7.4409215e-07
7.4306932e-07
7.4213254e-07
7.4128066e-07
7.4051301e-07
7.3982937e-07
7.3922992e-07
7.3871528e-07
7.3828635e-07
7.3794435e-07
7.3769075e-07
7.3752733e-07
7.3745598e-07
7.3747883e-07
7.3759817e-07
7.3781627e-07
7.3813553e-07
7.385583e-07
7.3908686e-07
7.3972329e-07
7.4046954e-07
7.4132706e-07
7.4229704e-07
7.4338007e-07
7.4457618e-07
7.4588471e-07
7.4730456e-07
7.4883382e-07
7.5046947e-07
7.5220705e-07
7.54041e-07
7.5596502e-07
7.5797247e-07
7.600542e-07
7.6220041e-07
7.6439973e-07
7.6664169e-07
7.6891402e-07
7.7120264e-07
7.7349256e-07
7.7577156e-07
7.7802869e-07
7.8025243e-07
7.8243165e-07
7.8455834e-07
7.8662824e-07
7.8864061e-07
7.9059866e-07
7.9251049e-07
7.9438936e-07
7.9625472e-07
7.9813224e-07
8.0005479e-07
8.0206271e-07
8.0420331e-07
8.0653045e-07
8.0910167e-07
8.1199138e-07
8.1527727e-07
8.1903461e-07
8.2334629e-07
8.2829367e-07
8.3396401e-07
8.4044919e-07
8.4784538e-07
8.562516e-07
8.6576628e-07
8.7648605e-07
8.8850509e-07
9.019225e-07
9.1683897e-07
9.3339269e-07
9.516368e-07
9.7199295e-07
9.9329653e-07
1.0210602e-06
8.6470342e-07
8.4987823e-07
8.3718569e-07
8.2658668e-07
8.1767897e-07
8.100673e-07
8.0345241e-07
7.9762205e-07
7.9242455e-07
7.8774883e-07
7.8351134e-07
7.7964765e-07
7.7610694e-07
7.7284842e-07
7.6983888e-07
7.6705099e-07
7.6446198e-07
7.6205278e-07
7.5980726e-07
7.5771174e-07
7.5575454e-07
7.5392568e-07
7.5221662e-07
7.5062005e-07
7.4912976e-07
7.4774047e-07
7.4644777e-07
7.4524801e-07
7.4413827e-07
7.4311625e-07
7.4218021e-07
7.4132898e-07
7.4056187e-07
7.3987866e-07
7.3927948e-07
7.3876491e-07
7.3833582e-07
7.3799338e-07
7.3773903e-07
7.3757447e-07
7.3750157e-07
7.3752238e-07
7.376391e-07
7.3785395e-07
7.381693e-07
7.3858739e-07
7.3911038e-07
7.3974032e-07
7.4047899e-07
7.4132779e-07
7.4228778e-07
7.4335943e-07
7.4454267e-07
7.458367e-07
7.472402e-07
7.4875094e-07
7.5036571e-07
7.5207984e-07
7.5388772e-07
7.55783e-07
7.5775875e-07
7.5980584e-07
7.619143e-07
7.6407257e-07
7.6626942e-07
7.6849216e-07
7.707266e-07
7.7295767e-07
7.7517215e-07
7.7735799e-07
7.7950327e-07
7.8159674e-07
7.8362993e-07
7.8559777e-07
7.8749855e-07
7.8933437e-07
7.9111177e-07
7.9284222e-07
7.9454379e-07
7.9623952e-07
7.9796002e-07
7.9974414e-07
8.0163638e-07
8.036877e-07
8.059542e-07
8.0849435e-07
8.1136837e-07
8.1464703e-07
8.1840963e-07
8.2274133e-07
8.277313e-07
8.3346907e-07
8.4004394e-07
8.4754457e-07
8.5605877e-07
8.6567237e-07
8.7646809e-07
8.8852727e-07
9.0192142e-07
9.1674599e-07
9.3302165e-07
9.5109906e-07
9.6999893e-07
9.94465e-07
8.647093e-07
8.4989086e-07
8.3720315e-07
8.2660752e-07
8.1770234e-07
8.1009259e-07
8.034792e-07
7.9765011e-07
7.924537e-07
7.8777894e-07
7.8354234e-07
7.7967947e-07
7.7613952e-07
7.7288173e-07
7.6987288e-07
7.6708563e-07
7.6449723e-07
7.6208858e-07
7.5984358e-07
7.5774851e-07
7.557917e-07
7.5396316e-07
7.5225436e-07
7.5065797e-07
7.4916775e-07
7.4777842e-07
7.4648558e-07
7.4528556e-07
7.4417544e-07
7.4315289e-07
7.4221619e-07
7.4136414e-07
7.4059606e-07
7.3991166e-07
7.3931113e-07
7.3879496e-07
7.3836401e-07
7.3801944e-07
7.3776262e-07
7.3759521e-07
7.3751906e-07
7.3753611e-07
7.3764854e-07
7.3785852e-07
7.3816832e-07
7.385801e-07
7.3909599e-07
7.3971792e-07
7.4044758e-07
7.412863e-07
7.4223497e-07
7.4329404e-07
7.4446321e-07
7.457416e-07
7.4712772e-07
7.4861913e-07
7.5021255e-07
7.5190324e-07
7.5368543e-07
7.5555253e-07
7.5749707e-07
7.5950976e-07
7.6158037e-07
7.6369721e-07
7.6584851e-07
7.6802132e-07
7.7020145e-07
7.7237397e-07
7.7452495e-07
7.7664185e-07
7.787123e-07
7.8072472e-07
7.8266996e-07
7.8454186e-07
7.8633764e-07
7.8805832e-07
7.8970933e-07
7.9130045e-07
7.9284816e-07
7.9437391e-07
7.9590636e-07
7.9747889e-07
7.9913646e-07
8.0092391e-07
8.0289794e-07
8.0511159e-07
8.0763085e-07
8.105233e-07
8.1386047e-07
8.177164e-07
8.2216852e-07
8.2729606e-07
8.3318029e-07
8.39903e-07
8.4754619e-07
8.5619079e-07
8.6591448e-07
8.7679239e-07
8.8888993e-07
9.0228256e-07
9.1698095e-07
9.3324654e-07
9.5025511e-07
9.7194879e-07
8.6471604e-07
8.4990411e-07
8.3722112e-07
8.2662886e-07
8.177262e-07
8.1011833e-07
8.0350643e-07
7.9767857e-07
7.9248325e-07
7.8780947e-07
7.8357376e-07
7.7971174e-07
7.761726e-07
7.7291559e-07
7.6990749e-07
7.6712098e-07
7.6453332e-07
7.6212541e-07
7.5988112e-07
7.5778676e-07
7.5583064e-07
7.5400279e-07
7.5229464e-07
7.5069887e-07
7.4920925e-07
7.4782047e-07
7.4652814e-07
7.4532856e-07
7.4421882e-07
7.4319655e-07
7.4226005e-07
7.4140808e-07
7.4063997e-07
7.3995538e-07
7.393545e-07
7.3883776e-07
7.3840602e-07
7.3806037e-07
7.3780214e-07
7.3763294e-07
7.3755456e-07
7.375689e-07
7.3767806e-07
7.3788416e-07
7.3818941e-07
7.3859591e-07
7.3910568e-07
7.3972059e-07
7.4044222e-07
7.4127183e-07
7.4221017e-07
7.4325756e-07
7.4441368e-07
7.4567747e-07
7.4704724e-07
7.4852046e-07
7.5009358e-07
7.517618e-07
7.5351922e-07
7.5535902e-07
7.5727353e-07
7.5925346e-07
7.6128836e-07
7.6336642e-07
7.6547548e-07
7.6760234e-07
7.6973271e-07
7.7185154e-07
7.7394454e-07
7.7599853e-07
7.7800075e-07
7.7993942e-07
7.8180489e-07
7.8359042e-07
7.8529258e-07
7.8691158e-07
7.8845178e-07
7.8992191e-07
7.9133694e-07
7.9271665e-07
7.9408679e-07
7.9548263e-07
7.9694363e-07
7.9851339e-07
8.0024333e-07
8.0218547e-07
8.0439211e-07
8.0692856e-07
8.0986298e-07
8.132682e-07
8.1721965e-07
8.2179315e-07
8.2706463e-07
8.3310947e-07
8.400014e-07
8.4781227e-07
8.5661202e-07
8.6646823e-07
8.7744193e-07
8.8959912e-07
9.0295662e-07
9.1772123e-07
9.3319851e-07
9.5270113e-07
8.6472409e-07
8.4991848e-07
8.3724002e-07
8.2665095e-07
8.1775069e-07
8.1014466e-07
8.0353421e-07
7.9770758e-07
7.9251333e-07
7.8784051e-07
7.8360569e-07
7.797445e-07
7.7620616e-07
7.7294991e-07
7.6994255e-07
7.6715676e-07
7.6456978e-07
7.6216253e-07
7.5991888e-07
7.5782514e-07
7.558696e-07
7.5404226e-07
7.5233455e-07
7.5073918e-07
7.4924987e-07
7.4786134e-07
7.4656915e-07
7.4536963e-07
7.4425983e-07
7.432374e-07
7.4230063e-07
7.4144825e-07
7.4067956e-07
7.3999426e-07
7.3939244e-07
7.3887457e-07
7.3844143e-07
7.3809407e-07
7.3783379e-07
7.3766218e-07
7.3758091e-07
7.3759191e-07
7.3769718e-07
7.3789879e-07
7.3819886e-07
7.3859947e-07
7.3910251e-07
7.3970979e-07
7.4042283e-07
7.412427e-07
7.4217017e-07
7.4320536e-07
7.4434785e-07
7.4559649e-07
7.4694942e-07
7.4840393e-07
7.4995636e-07
7.5160181e-07
7.5333426e-07
7.5514673e-07
7.5703128e-07
7.5897845e-07
7.6097762e-07
7.630169e-07
7.6508378e-07
7.6716485e-07
7.6924571e-07
7.7131134e-07
7.7334722e-07
7.7533971e-07
7.7727579e-07
7.7914346e-07
7.8093268e-07
7.826362e-07
7.8424988e-07
7.8577325e-07
7.8720981e-07
7.8856717e-07
7.8985926e-07
7.9110483e-07
7.9232835e-07
7.9356315e-07
7.9484275e-07
7.96213e-07
7.9772094e-07
7.994148e-07
8.0135153e-07
8.035893e-07
8.0619211e-07
8.092268e-07
8.127624e-07
8.1686866e-07
8.2161597e-07
8.2707465e-07
8.3331348e-07
8.4039964e-07
8.4839728e-07
8.5736691e-07
8.6736498e-07
8.7844863e-07
8.9063867e-07
9.0411072e-07
9.1826936e-07
9.3597702e-07
8.6473322e-07
8.4993369e-07
8.3725958e-07
8.2667365e-07
8.1777574e-07
8.1017148e-07
8.0356246e-07
7.9773702e-07
7.9254382e-07
7.8787195e-07
7.8363803e-07
7.7977768e-07
7.7624015e-07
7.7298467e-07
7.6997808e-07
7.6719302e-07
7.6460679e-07
7.6220025e-07
7.5995731e-07
7.5786424e-07
7.5590935e-07
7.5408262e-07
7.5237549e-07
7.5078063e-07
7.4929177e-07
7.4790363e-07
7.4661177e-07
7.4541251e-07
7.4430288e-07
7.4328053e-07
7.4234372e-07
7.4149121e-07
7.4072225e-07
7.4003651e-07
7.3943405e-07
7.3891532e-07
7.3848105e-07
7.3813228e-07
7.3787022e-07
7.3769642e-07
7.3761251e-07
7.3762037e-07
7.3772191e-07
7.3791918e-07
7.3821422e-07
7.3860899e-07
7.3910537e-07
7.3970504e-07
7.4040945e-07
7.4121951e-07
7.4213599e-07
7.4315884e-07
7.4428754e-07
7.4552079e-07
7.4685662e-07
7.4829215e-07
7.4982357e-07
7.5144586e-07
7.5315287e-07
7.5493748e-07
7.5679156e-07
7.587055e-07
7.606686e-07
7.6266884e-07
7.6469351e-07
7.6672898e-07
7.6876078e-07
7.7077389e-07
7.7275355e-07
7.746858e-07
7.765574e-07
7.7835626e-07
7.8007206e-07
7.8169719e-07
7.8322714e-07
7.8466094e-07
7.8600144e-07
7.8725596e-07
7.8843724e-07
7.8956306e-07
7.9065624e-07
7.917473e-07
7.9287191e-07
7.940688e-07
7.9538702e-07
7.9687112e-07
7.9857005e-07
8.005421e-07
8.0284675e-07
8.0554825e-07
8.0871273e-07
8.124063e-07
8.1669533e-07
8.2164517e-07
8.2731961e-07
8.337802e-07
8.4108558e-07
8.4929052e-07
8.5844679e-07
8.6860373e-07
8.797824e-07
8.9213439e-07
9.0514164e-07
9.2131133e-07
8.6474367e-07
8.4995003e-07
8.3728005e-07
8.2669708e-07
8.1780142e-07
8.1019886e-07
8.0359121e-07
7.9776694e-07
7.9257477e-07
7.8790385e-07
7.8367079e-07
7.7981127e-07
7.7627454e-07
7.7301984e-07
7.70014e-07
7.6722968e-07
7.6464415e-07
7.622383e-07
7.5999602e-07
7.5790358e-07
7.5594928e-07
7.5412309e-07
7.5241644e-07
7.50822e-07
7.4933349e-07
7.4794561e-07
7.4665392e-07
7.4545473e-07
7.4434507e-07
7.4332259e-07
7.4238554e-07
7.4153265e-07
7.4076316e-07
7.4007674e-07
7.3947335e-07
7.3895346e-07
7.3851771e-07
7.3816714e-07
7.3790293e-07
7.3772654e-07
7.3763956e-07
7.376438e-07
7.3774116e-07
7.3793353e-07
7.3822294e-07
7.3861129e-07
7.3910032e-07
7.3969167e-07
7.4038666e-07
7.4118615e-07
7.4209071e-07
7.4310025e-07
7.442141e-07
7.4543085e-07
7.4674836e-07
7.4816358e-07
7.4967256e-07
7.5127018e-07
7.5295015e-07
7.5470516e-07
7.565269e-07
7.5840566e-07
7.6033052e-07
7.622894e-07
7.6426938e-07
7.6625675e-07
7.6823695e-07
7.7019477e-07
7.7211545e-07
7.7398486e-07
7.7578963e-07
7.7751764e-07
7.7915845e-07
7.8070432e-07
7.8215047e-07
7.8349561e-07
7.8474234e-07
7.8589737e-07
7.8697233e-07
7.8798443e-07
7.8895647e-07
7.8991705e-07
7.9090085e-07
7.919432e-07
7.9309294e-07
7.9438934e-07
7.9588456e-07
7.9763076e-07
7.9968505e-07
8.0210755e-07
8.0495983e-07
8.0830391e-07
8.12202e-07
8.1671508e-07
8.2190284e-07
8.2782284e-07
8.3452982e-07
8.4207352e-07
8.505018e-07
8.5985815e-07
8.7016338e-07
8.8154933e-07
8.9355877e-07
9.0839659e-07
8.6475493e-07
8.4996691e-07
8.373009e-07
8.2672081e-07
8.1782733e-07
8.1022643e-07
8.0362012e-07
7.97797e-07
7.9260585e-07
7.8793587e-07
7.8370369e-07
7.7984502e-07
7.7630909e-07
7.7305516e-07
7.7005008e-07
7.6726649e-07
7.6468167e-07
7.6227652e-07
7.6003491e-07
7.5794309e-07
7.5598936e-07
7.5416371e-07
7.5245752e-07
7.5086347e-07
7.4937528e-07
7.4798763e-07
7.4669609e-07
7.4549695e-07
7.4438725e-07
7.433646e-07
7.4242725e-07
7.4157392e-07
7.4080384e-07
7.4011661e-07
7.3951226e-07
7.389911e-07
7.3855378e-07
7.3820124e-07
7.3793466e-07
7.3775541e-07
7.3766507e-07
7.3766531e-07
7.3775803e-07
7.3794502e-07
7.3822824e-07
7.3860947e-07
7.3909043e-07
7.3967259e-07
7.4035717e-07
7.4114498e-07
7.4203642e-07
7.4303129e-07
7.4412875e-07
7.4532728e-07
7.4662454e-07
7.4801735e-07
7.4950155e-07
7.5107185e-07
7.5272186e-07
7.544441e-07
7.5622999e-07
7.5806971e-07
7.5995217e-07
7.6186519e-07
7.6379568e-07
7.6572976e-07
7.6765279e-07
7.6954979e-07
7.7140564e-07
7.732063e-07
7.7493841e-07
7.7658986e-07
7.7815035e-07
7.7961218e-07
7.8097064e-07
7.8222443e-07
7.8337603e-07
7.8443219e-07
7.8540414e-07
7.8630953e-07
7.8716818e-07
7.8800942e-07
7.8886526e-07
7.8977305e-07
7.9077229e-07
7.9191072e-07
7.9322973e-07
7.9478172e-07
7.9662018e-07
7.9880246e-07
8.013869e-07
8.0443207e-07
8.0799675e-07
8.1213806e-07
8.1691185e-07
8.2237108e-07
8.285666e-07
8.3554413e-07
8.4334764e-07
8.5201617e-07
8.61569e-07
8.7212259e-07
8.8327066e-07
8.9696357e-07
8.6476658e-07
8.4998413e-07
8.3732203e-07
8.2674478e-07
8.1785345e-07
8.1025419e-07
8.036492e-07
7.9782722e-07
7.9263708e-07
7.8796802e-07
7.8373672e-07
7.7987887e-07
7.7634372e-07
7.7309055e-07
7.7008619e-07
7.6730332e-07
7.6471917e-07
7.6231467e-07
7.6007365e-07
7.5798239e-07
7.5602917e-07
7.5420395e-07
7.5249813e-07
7.5090434e-07
7.4941632e-07
7.4802874e-07
7.4673716e-07
7.4553786e-07
7.4442787e-07
7.434048e-07
7.4246688e-07
7.4161282e-07
7.408418e-07
7.4015341e-07
7.3954763e-07
7.390248e-07
7.3858543e-07
7.3823039e-07
7.3796084e-07
7.3777805e-07
7.3768357e-07
7.3767898e-07
7.377661e-07
7.3794668e-07
7.3822251e-07
7.3859538e-07
7.3906679e-07
7.3963818e-07
7.403106e-07
7.4108474e-07
7.4196086e-07
7.4293861e-07
7.4401699e-07
7.4519428e-07
7.4646795e-07
7.478346e-07
7.492899e-07
7.5082834e-07
7.5244325e-07
7.5412702e-07
7.5587084e-07
7.5766462e-07
7.5949713e-07
7.6135599e-07
7.6322794e-07
7.6509902e-07
7.6695454e-07
7.6877954e-07
7.7055918e-07
7.7227942e-07
7.7392682e-07
7.754897e-07
7.7695817e-07
7.7832491e-07
7.7958556e-07
7.8073913e-07
7.8178842e-07
7.8274036e-07
7.8360681e-07
7.8440337e-07
7.8515271e-07
7.8588068e-07
7.8661864e-07
7.8740344e-07
7.882728e-07
7.8927211e-07
7.9044205e-07
7.9183217e-07
7.9349332e-07
7.9547961e-07
7.9784527e-07
8.0064543e-07
8.0393514e-07
8.0776782e-07
8.1219565e-07
8.1726802e-07
8.2303217e-07
8.2953e-07
8.3680223e-07
8.4488436e-07
8.5379418e-07
8.6363545e-07
8.7404293e-07
8.8675782e-07
8.6477903e-07
8.5000185e-07
8.3734344e-07
8.2676888e-07
8.1787961e-07
8.1028193e-07
8.0367824e-07
7.9785737e-07
7.9266824e-07
7.8800009e-07
7.8376965e-07
7.7991259e-07
7.7637821e-07
7.7312576e-07
7.7012209e-07
7.6733986e-07
7.6475633e-07
7.623524e-07
7.6011191e-07
7.5802111e-07
7.5606827e-07
7.5424334e-07
7.5253773e-07
7.5094404e-07
7.49456e-07
7.4806828e-07
7.4677641e-07
7.455767e-07
7.4446613e-07
7.4344232e-07
7.4250347e-07
7.4164826e-07
7.4087587e-07
7.4018584e-07
7.3957809e-07
7.3905291e-07
7.3861087e-07
7.3825262e-07
7.3797927e-07
7.3779201e-07
7.3769232e-07
7.376817e-07
7.3776187e-07
7.3793447e-07
7.3820122e-07
7.3856374e-07
7.3902345e-07
7.3958164e-07
7.4023918e-07
7.4099662e-07
7.4185402e-07
7.4281082e-07
7.4386584e-07
7.4501709e-07
7.462618e-07
7.4759631e-07
7.4901592e-07
7.5051491e-07
7.5208638e-07
7.5372232e-07
7.5541366e-07
7.5715006e-07
7.5892e-07
7.6071098e-07
7.6250956e-07
7.6430166e-07
7.660727e-07
7.6780786e-07
7.6949259e-07
7.7111309e-07
7.726568e-07
7.7411206e-07
7.7547e-07
7.7672397e-07
7.7787039e-07
7.7890912e-07
7.7984377e-07
7.8068178e-07
7.8143424e-07
7.8211986e-07
7.8275694e-07
7.8337544e-07
7.84003e-07
7.8467694e-07
7.8543198e-07
7.8631282e-07
7.8735823e-07
7.8861557e-07
7.9013305e-07
7.9196169e-07
7.9415289e-07
7.9675802e-07
7.9982928e-07
8.0341257e-07
8.0756163e-07
8.1232059e-07
8.1773272e-07
8.2383599e-07
8.3066756e-07
8.3825894e-07
8.4662688e-07
8.5586566e-07
8.6564193e-07
8.7752988e-07
8.6479187e-07
8.5001987e-07
8.3736505e-07
8.2679312e-07
8.1790585e-07
8.103097e-07
8.0370727e-07
7.9788748e-07
7.9269929e-07
7.8803201e-07
7.8380238e-07
7.7994607e-07
7.7641239e-07
7.7316059e-07
7.7015753e-07
7.6737586e-07
7.6479283e-07
7.6238933e-07
7.601492e-07
7.5805867e-07
7.5610601e-07
7.5428114e-07
7.5257546e-07
7.5098156e-07
7.4949316e-07
7.481049e-07
7.4681233e-07
7.4561171e-07
7.4450005e-07
7.4347491e-07
7.425345e-07
7.4167745e-07
7.4090291e-07
7.4021037e-07
7.3959971e-07
7.3907114e-07
7.3862515e-07
7.3826248e-07
7.379839e-07
7.3779061e-07
7.3768396e-07
7.3766535e-07
7.3773634e-07
7.3789852e-07
7.3815341e-07
7.3850252e-07
7.3894709e-07
7.3948819e-07
7.4012653e-07
7.4086239e-07
7.4169559e-07
7.4262532e-07
7.4365009e-07
7.4476756e-07
7.4597462e-07
7.4726719e-07
7.4864026e-07
7.5008763e-07
7.5160204e-07
7.5317511e-07
7.5479735e-07
7.5645813e-07
7.5814568e-07
7.5984728e-07
7.6154941e-07
7.6323806e-07
7.6489887e-07
7.6651738e-07
7.6807965e-07
7.6957255e-07
7.7098438e-07
7.7230488e-07
7.735262e-07
7.7464229e-07
7.7565108e-07
7.7655375e-07
7.7735511e-07
7.7806355e-07
7.7869092e-07
7.7925522e-07
7.7977765e-07
7.8028479e-07
7.8080613e-07
7.8137614e-07
7.8203356e-07
7.8281309e-07
7.837579e-07
7.8491118e-07
7.8631887e-07
7.8802954e-07
7.90089e-07
7.9255725e-07
7.9542138e-07
7.9902524e-07
8.027719e-07
8.0729091e-07
8.1242945e-07
8.1821674e-07
8.2469826e-07
8.3189968e-07
8.3983147e-07
8.4857843e-07
8.5782804e-07
8.6903348e-07
8.6480503e-07
8.5003798e-07
8.3738661e-07
8.2681724e-07
8.1793192e-07
8.1033727e-07
8.0373605e-07
7.9791729e-07
7.9273002e-07
7.8806356e-07
7.8383466e-07
7.7997902e-07
7.7644595e-07
7.7319468e-07
7.7019208e-07
7.674108e-07
7.6482808e-07
7.6242478e-07
7.6018475e-07
7.580942e-07
7.5614137e-07
7.5431617e-07
7.5260997e-07
7.5101538e-07
7.4952606e-07
7.4813667e-07
7.4684273e-07
7.4564047e-07
7.445269e-07
7.4349956e-07
7.4255661e-07
7.4169663e-07
7.4091875e-07
7.4022237e-07
7.3960735e-07
7.3907376e-07
7.3862203e-07
7.3825277e-07
7.3796688e-07
7.3776514e-07
7.376488e-07
7.3761916e-07
7.3767758e-07
7.3782554e-07
7.3806434e-07
7.3839522e-07
7.3881926e-07
7.393372e-07
7.3994948e-07
7.4065606e-07
7.4145643e-07
7.4234932e-07
7.4333288e-07
7.4440426e-07
7.4555989e-07
7.4679515e-07
7.4810447e-07
7.4948118e-07
7.5091745e-07
7.5240447e-07
7.5393233e-07
7.5549004e-07
7.5706567e-07
7.5864641e-07
7.602189e-07
7.6176941e-07
7.6328413e-07
7.6474941e-07
7.6615229e-07
7.6748088e-07
7.6872481e-07
7.6987543e-07
7.7092641e-07
7.7187418e-07
7.7271718e-07
7.7345868e-07
7.7410496e-07
7.7466564e-07
7.7515397e-07
7.7558796e-07
7.7598834e-07
7.7638341e-07
7.7680195e-07
7.7727549e-07
7.7784348e-07
7.7853937e-07
7.7940398e-07
7.8047891e-07
7.8180759e-07
7.834359e-07
7.8540659e-07
7.8777114e-07
7.90557e-07
7.9384081e-07
7.977104e-07
8.0192063e-07
8.0686611e-07
8.1242181e-07
8.1862563e-07
8.2551183e-07
8.330959e-07
8.4145703e-07
8.502897e-07
8.6096696e-07
8.6481849e-07
8.5005626e-07
8.3740821e-07
8.2684129e-07
8.1795782e-07
8.1036458e-07
8.0376451e-07
7.9794672e-07
7.9276028e-07
7.8809454e-07
7.8386626e-07
7.8001115e-07
7.764785e-07
7.7322757e-07
7.7022519e-07
7.67444e-07