/*--------------------------------*- C++ -*----------------------------------*\
| =========                 |                                                 |
| \\      /  F ield         | OpenFOAM: The Open Source CFD Toolbox           |
|  \\    /   O peration     | Version:  2406                                  |
|   \\  /    A nd           | Website:  www.openfoam.com                      |
|    \\/     M anipulation  |                                                 |
\*---------------------------------------------------------------------------*/
FoamFile
{
    version     2.0;
    format      ascii;
    arch        "LSB;label=32;scalar=64";
    class       volScalarField;
    location    "700";
    object      k;
}
// * * * * * * * * * * * * * * * * * * * * * * * * * * * * * * * * * * * * * //

dimensions      [0 2 -2 0 0 0 0];

internalField   nonuniform List<scalar> 
132739
(
3.298178e-06
2.6454478e-06
2.1949934e-06
1.8758445e-06
1.6405207e-06
1.4603888e-06
1.3181537e-06
1.2029989e-06
1.1078663e-06
1.0279617e-06
9.5991303e-07
9.0127749e-07
8.5024146e-07
8.0542919e-07
7.6577835e-07
7.3045516e-07
6.9879641e-07
6.7026768e-07
6.4443385e-07
6.2093698e-07
5.9948001e-07
5.7981445e-07
5.6173089e-07
5.4505166e-07
5.2962515e-07
5.1532115e-07
5.0202747e-07
4.8964673e-07
4.780943e-07
4.6729615e-07
4.5718743e-07
4.4771109e-07
4.3881676e-07
4.3045992e-07
4.2260105e-07
4.1520502e-07
4.0824054e-07
4.0167965e-07
3.9549739e-07
3.8967134e-07
3.8418143e-07
3.7900958e-07
3.7413957e-07
3.6955671e-07
3.6524779e-07
3.6120075e-07
3.5740469e-07
3.5384956e-07
3.5052617e-07
3.4742585e-07
3.4454081e-07
3.4186224e-07
3.393874e-07
3.3710103e-07
3.3497369e-07
3.3296777e-07
3.310771e-07
3.292848e-07
3.2747909e-07
3.2577057e-07
3.2404886e-07
3.2246295e-07
3.2089877e-07
3.1955129e-07
3.1825964e-07
3.1724679e-07
3.1653431e-07
3.1620279e-07
3.1612678e-07
3.162977e-07
3.1677516e-07
3.1747215e-07
3.1815612e-07
3.1878565e-07
3.1940354e-07
3.1995493e-07
3.20512e-07
3.212304e-07
3.221433e-07
3.231618e-07
3.2432953e-07
3.2575266e-07
3.2754095e-07
3.2974e-07
3.3235571e-07
3.354289e-07
3.391777e-07
3.4387573e-07
3.4985662e-07
3.5748251e-07
3.6707829e-07
3.7884132e-07
3.9277067e-07
4.0868366e-07
4.263447e-07
4.4565317e-07
4.6680981e-07
4.9035273e-07
5.1719934e-07
5.4820531e-07
5.8514351e-07
6.2712344e-07
6.8011745e-07
7.3557496e-07
3.298299e-06
2.6458931e-06
2.1955858e-06
1.8764949e-06
1.6411864e-06
1.46105e-06
1.318801e-06
1.2036285e-06
1.1084776e-06
1.0285555e-06
9.6049123e-07
9.018427e-07
8.5079633e-07
8.0597643e-07
7.6632045e-07
7.3099448e-07
6.9933504e-07
6.7080755e-07
6.4497667e-07
6.2148426e-07
6.0003305e-07
5.8037434e-07
5.6229849e-07
5.4562758e-07
5.3020975e-07
5.1591458e-07
5.0262954e-07
4.9025707e-07
4.7871224e-07
4.6792081e-07
4.578177e-07
4.4834562e-07
4.3945404e-07
4.3109827e-07
4.2323864e-07
4.1583997e-07
4.0887086e-07
4.0230336e-07
3.9611249e-07
3.9027587e-07
3.8477349e-07
3.7958736e-07
3.7470132e-07
3.701008e-07
3.6577264e-07
3.6170489e-07
3.5788668e-07
3.5430803e-07
3.5095976e-07
3.4783323e-07
3.4492069e-07
3.42213e-07
3.3971041e-07
3.3736594e-07
3.3512846e-07
3.329764e-07
3.3096021e-07
3.2915379e-07
3.2754837e-07
3.2612828e-07
3.2487502e-07
3.2377771e-07
3.2279806e-07
3.2194103e-07
3.2121796e-07
3.2056185e-07
3.1999343e-07
3.1953952e-07
3.1922903e-07
3.1903358e-07
3.1914181e-07
3.1940253e-07
3.196312e-07
3.198156e-07
3.2019554e-07
3.2075499e-07
3.2091542e-07
3.2120231e-07
3.2230116e-07
3.2345736e-07
3.2423327e-07
3.2552375e-07
3.2737672e-07
3.2975722e-07
3.3267093e-07
3.3612531e-07
3.3998742e-07
3.4425811e-07
3.4901669e-07
3.5442669e-07
3.6076886e-07
3.6845384e-07
3.7797602e-07
3.8980986e-07
4.0429306e-07
4.2157012e-07
4.4161246e-07
4.6436169e-07
4.8983185e-07
5.1831405e-07
5.5036317e-07
5.8690481e-07
6.2749117e-07
6.8007829e-07
3.2984454e-06
2.6463434e-06
2.1961658e-06
1.8771179e-06
1.6418124e-06
1.4616607e-06
1.3193883e-06
1.2041893e-06
1.1090111e-06
1.0290621e-06
9.6097181e-07
9.02298e-07
8.5122688e-07
8.0638249e-07
7.6670202e-07
7.3135136e-07
6.9966682e-07
6.7111371e-07
6.4525657e-07
6.2173716e-07
6.0025817e-07
5.8057083e-07
5.6246546e-07
5.4576417e-07
5.3031508e-07
5.159878e-07
5.0266984e-07
4.902637e-07
4.7868452e-07
4.6785815e-07
4.577196e-07
4.4821169e-07
4.3928402e-07
4.3089198e-07
4.2299605e-07
4.1556112e-07
4.0855592e-07
4.0195257e-07
3.9572616e-07
3.8985437e-07
3.8431721e-07
3.790967e-07
3.7417666e-07
3.6954246e-07
3.6518088e-07
3.6107986e-07
3.5722842e-07
3.5361644e-07
3.5023453e-07
3.470739e-07
3.4412624e-07
3.4138383e-07
3.3883722e-07
3.3648153e-07
3.3431449e-07
3.3233424e-07
3.3053148e-07
3.2888811e-07
3.2739151e-07
3.2603431e-07
3.2480987e-07
3.2370851e-07
3.2271699e-07
3.2183179e-07
3.2105121e-07
3.2037345e-07
3.1978214e-07
3.1925891e-07
3.1881197e-07
3.1843949e-07
3.1808309e-07
3.1786355e-07
3.1768623e-07
3.175168e-07
3.174249e-07
3.1739586e-07
3.1738095e-07
3.1747045e-07
3.1779126e-07
3.1824878e-07
3.1885523e-07
3.1973152e-07
3.2093738e-07
3.225218e-07
3.2454253e-07
3.2708628e-07
3.3041469e-07
3.3469491e-07
3.3995607e-07
3.46166e-07
3.532505e-07
3.6115456e-07
3.6992232e-07
3.7975688e-07
3.9102182e-07
4.0418388e-07
4.19704e-07
4.3796296e-07
4.5918474e-07
4.8354587e-07
5.1108337e-07
5.4255229e-07
5.7594115e-07
6.2320382e-07
3.2986105e-06
2.6467955e-06
2.196739e-06
1.8777296e-06
1.6424246e-06
1.4622568e-06
1.3199624e-06
1.2047402e-06
1.1095399e-06
1.029571e-06
9.6146289e-07
9.0277354e-07
8.5168902e-07
8.0683329e-07
7.6714343e-07
7.3178524e-07
7.0009497e-07
6.7153786e-07
6.4567836e-07
6.2215817e-07
6.0067991e-07
5.8099475e-07
5.6289294e-07
5.4619653e-07
5.3075355e-07
5.1643356e-07
5.0312401e-07
4.9072732e-07
4.7915856e-07
4.683435e-07
4.5821709e-07
4.4872207e-07
4.3980793e-07
4.3143e-07
4.2354866e-07
4.161287e-07
4.0913878e-07
4.0255088e-07
3.9634002e-07
3.9048377e-07
3.8496203e-07
3.7975671e-07
3.7485154e-07
3.7023177e-07
3.6588407e-07
3.6179629e-07
3.5795735e-07
3.5435699e-07
3.5098575e-07
3.4783471e-07
3.4489551e-07
3.4215999e-07
3.396204e-07
3.3726794e-07
3.350939e-07
3.330905e-07
3.3125138e-07
3.2957094e-07
3.2804204e-07
3.2665658e-07
3.2540967e-07
3.2428714e-07
3.2328119e-07
3.2237796e-07
3.2157897e-07
3.2086753e-07
3.2022607e-07
3.1963905e-07
3.1911186e-07
3.1863855e-07
3.1821606e-07
3.1784353e-07
3.1751113e-07
3.1732095e-07
3.1714646e-07
3.170044e-07
3.1689591e-07
3.1677595e-07
3.1685262e-07
3.1712123e-07
3.1757386e-07
3.1824031e-07
3.1917375e-07
3.204372e-07
3.2210238e-07
3.2420921e-07
3.267608e-07
3.2984883e-07
3.3363161e-07
3.3830187e-07
3.4404092e-07
3.5097396e-07
3.5915007e-07
3.6856274e-07
3.7920561e-07
3.9114327e-07
4.0455732e-07
4.1975324e-07
4.3710753e-07
4.5700902e-07
4.7972595e-07
5.0590475e-07
5.3390586e-07
5.7280478e-07
3.2987938e-06
2.6472503e-06
2.1973052e-06
1.8783281e-06
1.6430202e-06
1.4628354e-06
1.3205189e-06
1.2052736e-06
1.1100506e-06
1.0300598e-06
9.6193098e-07
9.0322194e-07
8.5211868e-07
8.0724503e-07
7.6753793e-07
7.3216308e-07
7.0045659e-07
6.7188361e-07
6.4600848e-07
6.2247283e-07
6.0097919e-07
5.8127867e-07
5.6316149e-07
5.4644963e-07
5.3099111e-07
5.1665546e-07
5.0333009e-07
4.9091744e-07
4.7933255e-07
4.685012e-07
4.5835832e-07
4.4884668e-07
4.3991576e-07
4.3152091e-07
4.236225e-07
4.1618534e-07
4.0917805e-07
4.0257265e-07
3.9634412e-07
3.9047004e-07
3.8493028e-07
3.7970672e-07
3.7478305e-07
3.7014452e-07
3.6577774e-07
3.616705e-07
3.5781164e-07
3.5419086e-07
3.5079862e-07
3.4762592e-07
3.4466422e-07
3.4190542e-07
3.3934107e-07
3.3696386e-07
3.3476724e-07
3.3274471e-07
3.3088767e-07
3.2918533e-07
3.2762806e-07
3.2620727e-07
3.2491667e-07
3.237453e-07
3.2268416e-07
3.2172171e-07
3.2085463e-07
3.2007162e-07
3.1936079e-07
3.1870914e-07
3.1811457e-07
3.1757253e-07
3.1707175e-07
3.1660044e-07
3.1616212e-07
3.1578399e-07
3.1540879e-07
3.150683e-07
3.1477114e-07
3.1456117e-07
3.1444891e-07
3.1445519e-07
3.1461097e-07
3.1495313e-07
3.1552405e-07
3.1637231e-07
3.1754863e-07
3.1913584e-07
3.2124142e-07
3.2394022e-07
3.2729156e-07
3.3136155e-07
3.3624416e-07
3.4206916e-07
3.4898887e-07
3.5714842e-07
3.6665501e-07
3.7756743e-07
3.8991731e-07
4.0375279e-07
4.1919387e-07
4.3644433e-07
4.5575486e-07
4.7769381e-07
5.0129144e-07
5.3322767e-07
3.298989e-06
2.6476985e-06
2.1978558e-06
1.8789084e-06
1.6435985e-06
1.4633987e-06
1.3210623e-06
1.2057958e-06
1.110552e-06
1.0305415e-06
9.6239447e-07
9.0366874e-07
8.5255033e-07
8.0766305e-07
7.6794377e-07
7.3255812e-07
7.0084211e-07
6.7226082e-07
6.4637852e-07
6.2283676e-07
6.0133799e-07
5.8163328e-07
5.6351276e-07
5.4679834e-07
5.31338e-07
5.1700121e-07
5.0367532e-07
4.9126271e-07
4.7967838e-07
4.6884806e-07
4.5870662e-07
4.4919677e-07
4.4026796e-07
4.3187546e-07
4.2397959e-07
4.1654511e-07
4.0954059e-07
4.0293798e-07
3.9671219e-07
3.9084074e-07
3.8530345e-07
3.8008215e-07
3.7516045e-07
3.7052354e-07
3.6615794e-07
3.6205141e-07
3.5819273e-07
3.545715e-07
3.5117807e-07
3.4800336e-07
3.4503877e-07
3.4227602e-07
3.3970689e-07
3.373235e-07
3.3511795e-07
3.3308232e-07
3.3120843e-07
3.2948779e-07
3.279125e-07
3.2647448e-07
3.2516646e-07
3.2397717e-07
3.2289686e-07
3.2191383e-07
3.2102162e-07
3.2020879e-07
3.1946204e-07
3.1876771e-07
3.1812037e-07
3.1751407e-07
3.1694087e-07
3.1639432e-07
3.1587292e-07
3.1537577e-07
3.1490616e-07
3.1447012e-07
3.1407743e-07
3.1374141e-07
3.1348064e-07
3.1331906e-07
3.1328606e-07
3.1341657e-07
3.1375105e-07
3.1433497e-07
3.1522256e-07
3.1645568e-07
3.1807075e-07
3.2013444e-07
3.2273318e-07
3.2596341e-07
3.299247e-07
3.3472004e-07
3.4046268e-07
3.4728213e-07
3.5532056e-07
3.6471627e-07
3.7558319e-07
3.879956e-07
4.0200279e-07
4.1765094e-07
4.3499454e-07
4.5435464e-07
4.7496362e-07
5.0204144e-07
3.2991887e-06
2.6481386e-06
2.1983939e-06
1.8794756e-06
1.6441642e-06
1.4639498e-06
1.3215938e-06
1.2063061e-06
1.1110413e-06
1.0310107e-06
9.6284465e-07
9.0410116e-07
8.5296617e-07
8.080634e-07
7.6832961e-07
7.3293032e-07
7.0120143e-07
6.7260792e-07
6.4671398e-07
6.2316105e-07
6.0165155e-07
5.8193646e-07
5.6380586e-07
5.4708162e-07
5.3161167e-07
5.1726545e-07
5.0393029e-07
4.9150853e-07
4.7991516e-07
4.6907589e-07
4.5892559e-07
4.4940694e-07
4.4046939e-07
4.3206818e-07
4.2416363e-07
4.1672046e-07
4.0970723e-07
4.0309587e-07
3.9686127e-07
3.9098092e-07
3.854346e-07
3.8020411e-07
3.7527301e-07
3.7062645e-07
3.6625094e-07
3.6213417e-07
3.5826481e-07
3.5463243e-07
3.5122733e-07
3.4804033e-07
3.4506273e-07
3.4228619e-07
3.3970235e-07
3.3730325e-07
3.3508126e-07
3.3302883e-07
3.3113787e-07
3.2939914e-07
3.2780339e-07
3.2634144e-07
3.2500509e-07
3.2378371e-07
3.2266744e-07
3.2164505e-07
3.2070853e-07
3.1984717e-07
3.1904899e-07
3.1830168e-07
3.1759787e-07
3.1693083e-07
3.1629201e-07
3.1567296e-07
3.1506914e-07
3.144798e-07
3.1390681e-07
3.1335485e-07
3.1283214e-07
3.1235093e-07
3.1192785e-07
3.1158419e-07
3.1134597e-07
3.1124431e-07
3.1131507e-07
3.1159889e-07
3.1213953e-07
3.1299734e-07
3.1424267e-07
3.1593805e-07
3.1814346e-07
3.2091979e-07
3.2433363e-07
3.2845968e-07
3.3338227e-07
3.3919807e-07
3.4602025e-07
3.5398021e-07
3.6322282e-07
3.7389118e-07
3.8610954e-07
3.9997561e-07
4.155205e-07
4.3296617e-07
4.5150243e-07
4.7557359e-07
3.2993865e-06
2.6485682e-06
2.1989191e-06
1.8800294e-06
1.6447166e-06
1.4644879e-06
1.3221126e-06
1.2068043e-06
1.111519e-06
1.0314691e-06
9.6328496e-07
9.045248e-07
8.5337453e-07
8.0845781e-07
7.687113e-07
7.3330044e-07
7.0156105e-07
6.7295803e-07
6.4705547e-07
6.2349476e-07
6.0197823e-07
5.822568e-07
5.641205e-07
5.4739113e-07
5.3191658e-07
5.1756622e-07
5.0422736e-07
4.9180228e-07
4.8020593e-07
4.69364e-07
4.5921129e-07
4.4969047e-07
4.4075091e-07
4.3234783e-07
4.2444152e-07
4.1699664e-07
4.0998171e-07
4.0336863e-07
3.9713223e-07
3.9124995e-07
3.8570153e-07
3.8046872e-07
3.7553506e-07
3.7088564e-07
3.665069e-07
3.6238648e-07
3.5851303e-07
3.5487603e-07
3.5146571e-07
3.4827283e-07
3.452886e-07
3.4250457e-07
3.3991239e-07
3.3750396e-07
3.3527133e-07
3.3320646e-07
3.3130097e-07
3.2954582e-07
3.2793216e-07
3.2645115e-07
3.2509435e-07
3.2385125e-07
3.2271162e-07
3.2166415e-07
3.2069952e-07
3.1980677e-07
3.1897377e-07
3.1818803e-07
3.1744053e-07
3.1672347e-07
3.1602847e-07
3.1534795e-07
3.1467743e-07
3.1401537e-07
3.1336248e-07
3.1272227e-07
3.1210167e-07
3.1151156e-07
3.1096708e-07
3.1048794e-07
3.1009837e-07
3.0982757e-07
3.0970941e-07
3.0978189e-07
3.1008954e-07
3.106729e-07
3.1157299e-07
3.128442e-07
3.1455128e-07
3.167656e-07
3.1956198e-07
3.230163e-07
3.2720463e-07
3.3220373e-07
3.3809364e-07
3.4496263e-07
3.5291286e-07
3.6206424e-07
3.7254784e-07
3.8450924e-07
3.9803229e-07
4.1340153e-07
4.2983648e-07
4.5143334e-07
3.2995875e-06
2.6489935e-06
2.1994357e-06
1.8805723e-06
1.645257e-06
1.4650136e-06
1.322619e-06
1.2072901e-06
1.1119847e-06
1.0319156e-06
9.6371356e-07
9.0493677e-07
8.5377113e-07
8.0884019e-07
7.6908053e-07
7.3365748e-07
7.0190676e-07
6.7329316e-07
6.4738071e-07
6.2381071e-07
6.0228541e-07
5.8255567e-07
5.6441147e-07
5.4767456e-07
5.3219278e-07
5.1783547e-07
5.0448989e-07
4.9205833e-07
4.804557e-07
4.6960765e-07
4.5944898e-07
4.4992232e-07
4.4097703e-07
4.3256831e-07
4.2465641e-07
4.1720599e-07
4.1018555e-07
4.0356694e-07
3.9732497e-07
3.9143705e-07
3.8588289e-07
3.8064421e-07
3.7570449e-07
3.7104878e-07
3.6666349e-07
3.6253621e-07
3.5865552e-07
3.5501087e-07
3.5159239e-07
3.4839079e-07
3.4539721e-07
3.426031e-07
3.4000006e-07
3.3757986e-07
3.3533447e-07
3.332558e-07
3.3133551e-07
3.2956459e-07
3.2793382e-07
3.264339e-07
3.2505574e-07
3.2378884e-07
3.2262275e-07
3.2154626e-07
3.2054933e-07
3.1962099e-07
3.1874937e-07
3.1792239e-07
3.1713031e-07
3.163647e-07
3.1561693e-07
3.1487899e-07
3.141453e-07
3.1341309e-07
3.1268218e-07
3.1195524e-07
3.1123821e-07
3.1054074e-07
3.0987645e-07
3.0926316e-07
3.0872314e-07
3.0828292e-07
3.0797347e-07
3.0782942e-07
3.0788934e-07
3.0820036e-07
3.088143e-07
3.0978281e-07
3.1115862e-07
3.1299638e-07
3.1535432e-07
3.1829518e-07
3.2188637e-07
3.2619929e-07
3.3130794e-07
3.3728835e-07
3.4421909e-07
3.5218624e-07
3.6128254e-07
3.7162885e-07
3.8330396e-07
3.9661257e-07
4.1088256e-07
4.2982129e-07
3.2997937e-06
2.6494128e-06
2.1999412e-06
1.8811023e-06
1.6457838e-06
1.4655257e-06
1.323112e-06
1.2077631e-06
1.112438e-06
1.0323502e-06
9.6413079e-07
9.0533797e-07
8.5415759e-07
8.0921315e-07
7.6944113e-07
7.3400676e-07
7.0224567e-07
6.7362258e-07
6.4770141e-07
6.2412341e-07
6.0259076e-07
5.8285425e-07
5.6470381e-07
5.4796114e-07
5.3247403e-07
5.1811178e-07
5.0476162e-07
4.9232577e-07
4.8071914e-07
4.6986733e-07
4.5970511e-07
4.5017507e-07
4.4122655e-07
4.3281472e-07
4.248998e-07
4.1744641e-07
4.1042301e-07
4.0380141e-07
3.9755639e-07
3.9166533e-07
3.8610789e-07
3.8086574e-07
3.7592234e-07
3.7126268e-07
3.6687314e-07
3.6274125e-07
3.5885555e-07
3.5520542e-07
3.5178095e-07
3.4857278e-07
3.4557197e-07
3.4276993e-07
3.4015817e-07
3.3772841e-07
3.3547246e-07
3.3338206e-07
3.314487e-07
3.296633e-07
3.2801663e-07
3.2649936e-07
3.2510226e-07
3.238149e-07
3.226267e-07
3.215264e-07
3.2050338e-07
3.1954644e-07
3.1864367e-07
3.1778296e-07
3.1695387e-07
3.1614725e-07
3.1535423e-07
3.1456678e-07
3.1377902e-07
3.1298767e-07
3.1219193e-07
3.113937e-07
3.1059798e-07
3.0981338e-07
3.0905237e-07
3.0833135e-07
3.0767112e-07
3.070968e-07
3.0663755e-07
3.0632604e-07
3.0619955e-07
3.0629579e-07
3.0665473e-07
3.0732288e-07
3.083521e-07
3.0979848e-07
3.1172068e-07
3.141789e-07
3.1723449e-07
3.2095009e-07
3.2538988e-07
3.3061983e-07
3.3670686e-07
3.4372062e-07
3.5172928e-07
3.6081922e-07
3.7103944e-07
3.8263898e-07
3.9505622e-07
4.1143615e-07
3.3000078e-06
2.6498301e-06
2.200439e-06
1.8816215e-06
1.6462985e-06
1.4660252e-06
1.3235925e-06
1.2082237e-06
1.1128792e-06
1.0327731e-06
9.6453672e-07
9.0572822e-07
8.5453343e-07
8.0957573e-07
7.6979152e-07
7.3434593e-07
7.0257449e-07
6.7394182e-07
6.4801177e-07
6.244255e-07
6.0288514e-07
5.8314141e-07
5.6498419e-07
5.4823513e-07
5.3274196e-07
5.1837396e-07
5.0501832e-07
4.9257724e-07
4.8096558e-07
4.7010893e-07
4.5994203e-07
4.5040746e-07
4.4145454e-07
4.330384e-07
4.2511925e-07
4.1766168e-07
4.1063411e-07
4.0400835e-07
3.9775913e-07
3.918638e-07
3.8630198e-07
3.810553e-07
3.761072e-07
3.7144262e-07
3.6704791e-07
3.6291054e-07
3.59019e-07
3.5536264e-07
3.5193147e-07
3.4871609e-07
3.457075e-07
3.4289701e-07
3.4027611e-07
3.3783641e-07
3.3556961e-07
3.3346737e-07
3.3152112e-07
3.2972178e-07
3.2806004e-07
3.2652638e-07
3.2511125e-07
3.2380415e-07
3.2259431e-07
3.2147043e-07
3.2042155e-07
3.1943632e-07
3.1850284e-07
3.176091e-07
3.1674432e-07
3.1589889e-07
3.1506372e-07
3.1423056e-07
3.1339306e-07
3.1254723e-07
3.1169153e-07
3.1082718e-07
3.0995835e-07
3.0909271e-07
3.082416e-07
3.0742026e-07
3.0664776e-07
3.0594745e-07
3.0534656e-07
3.0487578e-07
3.0456924e-07
3.0446503e-07
3.0460544e-07
3.050348e-07
3.0579933e-07
3.069472e-07
3.0852873e-07
3.1059653e-07
3.1320549e-07
3.1641249e-07
3.2027609e-07
3.2485634e-07
3.3021386e-07
3.3641083e-07
3.4350668e-07
3.5156982e-07
3.6063597e-07
3.708905e-07
3.8186453e-07
3.9613717e-07
3.3002219e-06
2.6502379e-06
2.2009238e-06
1.8821268e-06
1.6467992e-06
1.4665111e-06
1.3240598e-06
1.2086716e-06
1.1133083e-06
1.0331845e-06
9.6493161e-07
9.0610794e-07
8.5489923e-07
8.0992879e-07
7.701329e-07
7.346766e-07
7.0289534e-07
6.7425365e-07
6.483153e-07
6.2472137e-07
6.0317393e-07
5.8342366e-07
5.6526035e-07
5.4850564e-07
5.330072e-07
5.1863427e-07
5.05274e-07
4.9282857e-07
4.8121279e-07
4.7035224e-07
4.6018163e-07
4.5064351e-07
4.4168717e-07
4.3326773e-07
4.2534535e-07
4.1788459e-07
4.1085386e-07
4.0422492e-07
3.9797246e-07
3.920738e-07
3.8650853e-07
3.8125824e-07
3.7630633e-07
3.7163771e-07
3.6723867e-07
3.6309666e-07
3.5920013e-07
3.5553835e-07
3.5210132e-07
3.4887955e-07
3.4586399e-07
3.4304592e-07
3.4041673e-07
3.3796799e-07
3.356913e-07
3.3357822e-07
3.3162007e-07
3.2980773e-07
3.2813182e-07
3.2658274e-07
3.2515079e-07
3.2382546e-07
3.2259591e-07
3.2145081e-07
3.2037893e-07
3.1936874e-07
3.1840831e-07
3.1748563e-07
3.1658958e-07
3.1571014e-07
3.1483799e-07
3.1396469e-07
3.130836e-07
3.121903e-07
3.112828e-07
3.1036172e-07
3.0943059e-07
3.0849626e-07
3.0756919e-07
3.0666339e-07
3.0579694e-07
3.049919e-07
3.04274e-07
3.0367206e-07
3.0321891e-07
3.0294851e-07
3.0289716e-07
3.0310583e-07
3.0361884e-07
3.0448315e-07
3.0574744e-07
3.0746156e-07
3.0967613e-07
3.124424e-07
3.1581215e-07
3.1983797e-07
3.2457302e-07
3.3007164e-07
3.3638706e-07
3.4357755e-07
3.5167749e-07
3.6083283e-07
3.7065063e-07
3.8327482e-07
3.3004409e-06
2.650642e-06
2.2014002e-06
1.8826213e-06
1.6472882e-06
1.4669851e-06
1.3245153e-06
1.2091081e-06
1.1137264e-06
1.0335853e-06
9.6531635e-07
9.0647793e-07
8.5525568e-07
8.1027283e-07
7.7046556e-07
7.3499883e-07
7.0320798e-07
6.7455746e-07
6.4861096e-07
6.2500949e-07
6.0345505e-07
5.8369825e-07
5.6552885e-07
5.4876841e-07
5.3326459e-07
5.1888659e-07
5.0552152e-07
4.9307151e-07
4.8145139e-07
4.7058668e-07
4.6041208e-07
4.5087011e-07
4.4191005e-07
4.3348699e-07
4.2556106e-07
4.180968e-07
4.1106259e-07
4.0443015e-07
3.9817415e-07
3.9227187e-07
3.8670287e-07
3.8144872e-07
3.7649276e-07
3.7181988e-07
3.6741633e-07
3.6326952e-07
3.5936785e-07
3.5570056e-07
3.5225757e-07
3.4902937e-07
3.4600685e-07
3.4318122e-07
3.4054383e-07
3.3808616e-07
3.3579976e-07
3.3367608e-07
3.3170637e-07
3.2988151e-07
3.2819204e-07
3.2662829e-07
3.2518039e-07
3.2383777e-07
3.2258949e-07
3.2142415e-07
3.2033034e-07
3.1929642e-07
3.1831041e-07
3.1736031e-07
3.1643483e-07
3.1552365e-07
3.1461725e-07
3.1370705e-07
3.1278611e-07
3.118496e-07
3.1089503e-07
3.099225e-07
3.0893492e-07
3.0793841e-07
3.0694263e-07
3.0596066e-07
3.0500951e-07
3.0410973e-07
3.032855e-07
3.0256445e-07
3.0197711e-07
3.015567e-07
3.013393e-07
3.0136356e-07
3.0167044e-07
3.023027e-07
3.0330449e-07
3.0472121e-07
3.0659927e-07
3.0898582e-07
3.1192846e-07
3.1547502e-07
3.1967322e-07
3.2457093e-07
3.3021552e-07
3.3665661e-07
3.4392716e-07
3.5214932e-07
3.6098901e-07
3.7227598e-07
3.300662e-06
2.6510387e-06
2.2018655e-06
1.8831035e-06
1.6477649e-06
1.4674469e-06
1.3249591e-06
1.2095333e-06
1.1141336e-06
1.0339757e-06
9.6569116e-07
9.0683841e-07
8.5560303e-07
8.1060817e-07
7.7078992e-07
7.3531312e-07
7.0351304e-07
6.7485405e-07
6.4889975e-07
6.2529108e-07
6.0372999e-07
5.8396701e-07
5.6579187e-07
5.4902608e-07
5.3351726e-07
5.1913456e-07
5.0576508e-07
4.9331092e-07
4.8168686e-07
4.7081841e-07
4.6064025e-07
4.5109488e-07
4.4213154e-07
4.3370529e-07
4.2577625e-07
4.1830893e-07
4.1127166e-07
4.0463615e-07
3.9837703e-07
3.9247155e-07
3.8689922e-07
3.8164159e-07
3.7668197e-07
3.7200521e-07
3.6759752e-07
3.6344627e-07
3.5953982e-07
3.5586738e-07
3.524188e-07
3.4918453e-07
3.4615542e-07
3.4332261e-07
3.4067742e-07
3.3821126e-07
3.359156e-07
3.3378181e-07
3.318011e-07
3.2996427e-07
3.2826183e-07
3.2668404e-07
3.2522091e-07
3.2386185e-07
3.2259586e-07
3.214115e-07
3.2029724e-07
3.1924132e-07
3.1823174e-07
3.1725648e-07
3.163041e-07
3.1536405e-07
3.1442662e-07
3.1348309e-07
3.125263e-07
3.1155112e-07
3.105547e-07
3.0953671e-07
3.084996e-07
3.0744889e-07
3.0639353e-07
3.0534581e-07
3.0432162e-07
3.0334068e-07
3.0242595e-07
3.0160348e-07
3.0090286e-07
3.0035472e-07
2.9999212e-07
2.9985158e-07
2.9997195e-07
3.0039409e-07
3.0116013e-07
3.0231297e-07
3.0389592e-07
3.0595238e-07
3.0852574e-07
3.1165919e-07
3.1539564e-07
3.1977746e-07
3.248468e-07
3.3064608e-07
3.3720526e-07
3.4462871e-07
3.5262728e-07
3.627839e-07
3.3008883e-06
2.6514323e-06
2.2023232e-06
1.8835759e-06
1.6482308e-06
1.4678978e-06
1.3253921e-06
1.2099481e-06
1.1145308e-06
1.0343563e-06
9.6605659e-07
9.0718987e-07
8.5594171e-07
8.1093518e-07
7.7110625e-07
7.3561968e-07
7.0381064e-07
6.7514341e-07
6.4918154e-07
6.2556589e-07
6.0399833e-07
5.8422935e-07
5.6604861e-07
5.4927759e-07
5.3376387e-07
5.1937656e-07
5.0600272e-07
4.9354445e-07
4.8191648e-07
4.7104432e-07
4.6086261e-07
4.5131383e-07
4.423472e-07
4.3391776e-07
4.2598559e-07
4.1851518e-07
4.1147484e-07
4.0483623e-07
3.9857397e-07
3.9266526e-07
3.8708959e-07
3.8182848e-07
3.7686518e-07
3.7218453e-07
3.677727e-07
3.6361703e-07
3.5970582e-07
3.5602824e-07
3.5257411e-07
3.4933383e-07
3.4629819e-07
3.4345829e-07
3.4080539e-07
3.3833086e-07
3.3602609e-07
3.3388237e-07
3.3189085e-07
3.3004231e-07
3.2832721e-07
3.2673574e-07
3.2525783e-07
3.2388283e-07
3.2259969e-07
3.2139694e-07
3.2026291e-07
3.1918579e-07
3.1815354e-07
3.1715412e-07
3.16176e-07
3.1520849e-07
3.1424173e-07
3.1326687e-07
3.1227661e-07
3.1126557e-07
3.1023057e-07
3.0917095e-07
3.0808873e-07
3.069889e-07
3.0587975e-07
3.0477297e-07
3.0368368e-07
3.0263056e-07
3.0163536e-07
3.0072303e-07
2.999216e-07
2.9926063e-07
2.9877221e-07
2.9849099e-07
2.9845363e-07
2.9869831e-07
2.9926425e-07
3.0019143e-07
3.015202e-07
3.0329094e-07
3.0554386e-07
3.0831877e-07
3.1165489e-07
3.1559034e-07
3.2016308e-07
3.2540992e-07
3.3135788e-07
3.3809665e-07
3.4537319e-07
3.5456202e-07
3.3011151e-06
2.6518178e-06
2.2027695e-06
1.8840361e-06
1.6486845e-06
1.4683367e-06
1.3258135e-06
1.2103516e-06
1.1149172e-06
1.0347268e-06
9.6641231e-07
9.0753207e-07
8.5627156e-07
8.1125373e-07
7.714145e-07
7.3591851e-07
7.0410085e-07
6.7542572e-07
6.4945657e-07
6.2583421e-07
6.0426046e-07
5.8448574e-07
5.6629966e-07
5.4952367e-07
5.3400529e-07
5.1961361e-07
5.0623566e-07
4.9377351e-07
4.8214188e-07
4.7126624e-07
4.6108122e-07
4.5152927e-07
4.4255959e-07
4.3412718e-07
4.2619213e-07
4.1871886e-07
4.1167567e-07
4.0503418e-07
3.9876898e-07
3.9285724e-07
3.8727842e-07
3.8201399e-07
3.7704719e-07
3.7236282e-07
3.67947e-07
3.6378703e-07
3.598712e-07
3.5618861e-07
3.5272905e-07
3.4948286e-07
3.464408e-07
3.4359391e-07
3.4093341e-07
3.3845059e-07
3.3613679e-07
3.3398324e-07
3.3198101e-07
3.3012085e-07
3.2839318e-07
3.2678813e-07
3.2529553e-07
3.2390472e-07
3.2260458e-07
3.2138361e-07
3.2023008e-07
3.191321e-07
3.180776e-07
3.1705456e-07
3.1605139e-07
3.1505726e-07
3.1406222e-07
3.1305737e-07
3.1203527e-07
3.1099038e-07
3.0991934e-07
3.0882118e-07
3.0769765e-07
3.0655334e-07
3.0539612e-07
3.0423699e-07
3.0309035e-07
3.0197399e-07
3.0090901e-07
2.9991897e-07
2.9903082e-07
2.9827303e-07
2.9767545e-07
2.9727112e-07
2.9709495e-07
2.9718334e-07
2.9757354e-07
2.9830343e-07
2.9941099e-07
3.0093397e-07
3.0290965e-07
3.0537459e-07
3.0836477e-07
3.1191466e-07
3.1605866e-07
3.2082908e-07
3.2625042e-07
3.3240061e-07
3.3905706e-07
3.4741748e-07
3.3013405e-06
2.6521963e-06
2.2032059e-06
1.8844851e-06
1.6491265e-06
1.4687641e-06
1.3262238e-06
1.2107445e-06
1.1152935e-06
1.0350875e-06
9.6675869e-07
9.0786535e-07
8.5659288e-07
8.1156414e-07
7.7171495e-07
7.3620986e-07
7.0438388e-07
6.7570112e-07
6.4972497e-07
6.2609616e-07
6.0451643e-07
5.8473618e-07
5.6654496e-07
5.4976416e-07
5.3424129e-07
5.1984539e-07
5.0646346e-07
4.9399756e-07
4.8236237e-07
4.7148336e-07
4.6129512e-07
4.5174008e-07
4.4276742e-07
4.3433213e-07
4.2639424e-07
4.1891817e-07
4.1187217e-07
4.0522784e-07
3.9895973e-07
3.9304498e-07
3.8746301e-07
3.8219528e-07
3.7722497e-07
3.7253685e-07
3.6811701e-07
3.6395272e-07
3.6003221e-07
3.5634455e-07
3.5287948e-07
3.496273e-07
3.465787e-07
3.437247e-07
3.4105643e-07
3.3856516e-07
3.3624213e-07
3.3407851e-07
3.320653e-07
3.3019321e-07
3.2845259e-07
3.2683354e-07
3.2532581e-07
3.2391867e-07
3.2260096e-07
3.2136113e-07
3.2018741e-07
3.1906785e-07
3.1799035e-07
3.1694292e-07
3.1591392e-07
3.1489251e-07
3.1386867e-07
3.1283348e-07
3.1177949e-07
3.1070106e-07
3.0959471e-07
3.0845933e-07
3.0729641e-07
3.0611033e-07
3.0490845e-07
3.0370139e-07
3.0250305e-07
3.0133032e-07
3.0020345e-07
2.9914518e-07
2.981812e-07
2.9733896e-07
2.9664732e-07
2.961378e-07
2.9584362e-07
2.9579925e-07
2.9603987e-07
2.9660113e-07
2.9751877e-07
2.9882825e-07
3.0056443e-07
3.0276132e-07
3.0545219e-07
3.0866851e-07
3.1244171e-07
3.1680054e-07
3.217672e-07
3.2741011e-07
3.3353194e-07
3.4118257e-07
3.3015666e-06
2.652567e-06
2.2036313e-06
1.884922e-06
1.6495565e-06
1.4691798e-06
1.3266227e-06
1.2111266e-06
1.1156594e-06
1.0354384e-06
9.6709573e-07
9.0818973e-07
8.569057e-07
8.1186644e-07
7.7200765e-07
7.364938e-07
7.0465982e-07
6.7596974e-07
6.4998685e-07
6.2635185e-07
6.047664e-07
5.8498085e-07
5.6678469e-07
5.4999929e-07
5.3447211e-07
5.2007217e-07
5.0668645e-07
4.9421695e-07
4.8257837e-07
4.7169614e-07
4.6150482e-07
4.5194684e-07
4.4297134e-07
4.3453328e-07
4.2659268e-07
4.1911391e-07
4.120652e-07
4.0541811e-07
3.9914715e-07
3.9322944e-07
3.8764437e-07
3.8237333e-07
3.773995e-07
3.727076e-07
3.6828369e-07
3.6411498e-07
3.6018967e-07
3.5649678e-07
3.5302601e-07
3.4976759e-07
3.4671218e-07
3.4385071e-07
3.4117429e-07
3.3867407e-07
3.3634126e-07
3.3416692e-07
3.3214199e-07
3.302571e-07
3.2850255e-07
3.2686836e-07
3.253442e-07
3.2391929e-07
3.225824e-07
3.2132196e-07
3.2012614e-07
3.1898295e-07
3.1788033e-07
3.1680629e-07
3.1574926e-07
3.1469838e-07
3.1364368e-07
3.1257631e-07
3.1148886e-07
3.1037572e-07
3.092334e-07
3.0806074e-07
3.0685919e-07
3.0563278e-07
3.0438878e-07
3.0313732e-07
3.0189182e-07
3.0066872e-07
2.9948738e-07
2.9836973e-07
2.9734035e-07
2.9642566e-07
2.9565334e-07
2.9505355e-07
2.9465803e-07
2.9449968e-07
2.9461197e-07
2.9502875e-07
2.9578381e-07
2.9691047e-07
2.9844139e-07
3.0040824e-07
3.0284183e-07
3.0577109e-07
3.0922481e-07
3.1322878e-07
3.1780315e-07
3.2300889e-07
3.2866908e-07
3.3571049e-07
3.3017918e-06
2.6529312e-06
2.2040473e-06
1.8853483e-06
1.6499754e-06
1.4695845e-06
1.3270111e-06
1.2114984e-06
1.1160155e-06
1.0357798e-06
9.674238e-07
9.0850554e-07
8.5721035e-07
8.1216093e-07
7.7229288e-07
7.367706e-07
7.0492891e-07
6.7623177e-07
6.5024241e-07
6.2660145e-07
6.050105e-07
5.8521984e-07
5.6701894e-07
5.502291e-07
5.3469777e-07
5.2029392e-07
5.0690451e-07
4.9443154e-07
4.8278966e-07
4.7190429e-07
4.6170998e-07
4.5214911e-07
4.4317082e-07
4.3473003e-07
4.2678672e-07
4.1930525e-07
4.1225381e-07
4.0560392e-07
3.9933006e-07
3.934093e-07
3.87821e-07
3.8254652e-07
3.7756899e-07
3.7287309e-07
3.6844483e-07
3.642714e-07
3.6034093e-07
3.5664239e-07
3.5316542e-07
3.499002e-07
3.468373e-07
3.439676e-07
3.4128212e-07
3.3877194e-07
3.3642815e-07
3.3424173e-07
3.3220351e-07
3.3030402e-07
3.2853352e-07
3.268819e-07
3.2533876e-07
3.2389324e-07
3.2253407e-07
3.2124964e-07
3.2002809e-07
3.1885745e-07
3.1772568e-07
3.1662091e-07
3.1553167e-07
3.1444719e-07
3.1335766e-07
3.1225437e-07
3.1113009e-07
3.0997935e-07
3.0879874e-07
3.0758719e-07
3.0634613e-07
3.0507958e-07
3.0379449e-07
3.0250081e-07
3.0121153e-07
2.9994256e-07
2.9871252e-07
2.9754289e-07
2.9645717e-07
2.9548047e-07
2.9463978e-07
2.9396396e-07
2.9348343e-07
2.9322957e-07
2.9323415e-07
2.935294e-07
2.9414687e-07
2.9511933e-07
2.9647583e-07
2.9824649e-07
3.0046008e-07
3.0314338e-07
3.0632298e-07
3.1002226e-07
3.1425934e-07
3.1908916e-07
3.2435113e-07
3.3087096e-07
3.302014e-06
2.6532859e-06
2.2044515e-06
1.8857625e-06
1.6503824e-06
1.4699777e-06
1.3273884e-06
1.2118597e-06
1.1163616e-06
1.0361119e-06
9.6774287e-07
9.0881279e-07
8.5750684e-07
8.1244762e-07
7.7257067e-07
7.3704028e-07
7.0519118e-07
6.7648727e-07
6.5049169e-07
6.2684499e-07
6.0524875e-07
5.8545317e-07
5.6724769e-07
5.5045357e-07
5.3491821e-07
5.2051057e-07
5.0711759e-07
4.9464122e-07
4.8299613e-07
4.7210768e-07
4.6191041e-07
4.5234669e-07
4.4336562e-07
4.3492209e-07
4.2697605e-07
4.1949182e-07
4.1243755e-07
4.0578473e-07
3.9950779e-07
3.9358378e-07
3.87992e-07
3.8271378e-07
3.7773218e-07
3.7303186e-07
3.6859877e-07
3.6442002e-07
3.6048371e-07
3.5677872e-07
3.5329461e-07
3.5002151e-07
3.4694989e-07
3.4407052e-07
3.4137433e-07
3.3885229e-07
3.3649535e-07
3.3429438e-07
3.3224007e-07
3.3032285e-07
3.2853285e-07
3.2685988e-07
3.2529345e-07
3.2382263e-07
3.2243611e-07
3.2112228e-07
3.1986931e-07
3.1866529e-07
3.1749831e-07
3.1635667e-07
3.152291e-07
3.1410509e-07
3.1297505e-07
3.1183058e-07
3.106647e-07
3.0947221e-07
3.0824993e-07
3.0699692e-07
3.0571473e-07
3.0440741e-07
3.0308182e-07
3.0174755e-07
3.0041724e-07
2.9910652e-07
2.9783325e-07
2.9661805e-07
2.954838e-07
2.9445468e-07
2.9355659e-07
2.9281727e-07
2.9226589e-07
2.9193245e-07
2.9184725e-07
2.9204093e-07
2.9254372e-07
2.9338558e-07
2.9459585e-07
2.9620135e-07
2.9822918e-07
3.0070392e-07
3.0364995e-07
3.0708886e-07
3.110371e-07
3.1554528e-07
3.2046509e-07
3.2654097e-07
3.3022352e-06
2.6536341e-06
2.2048463e-06
1.8861659e-06
1.6507784e-06
1.47036e-06
1.3277552e-06
1.212211e-06
1.1166982e-06
1.0364348e-06
9.6805324e-07
9.0911176e-07
8.5779544e-07