/*--------------------------------*- C++ -*----------------------------------*\
| =========                 |                                                 |
| \\      /  F ield         | OpenFOAM: The Open Source CFD Toolbox           |
|  \\    /   O peration     | Version:  2406                                  |
|   \\  /    A nd           | Website:  www.openfoam.com                      |
|    \\/     M anipulation  |                                                 |
\*---------------------------------------------------------------------------*/
FoamFile
{
    version     2.0;
    format      ascii;
    arch        "LSB;label=32;scalar=64";
    class       volScalarField;
    location    "700";
    object      nut;
}
// * * * * * * * * * * * * * * * * * * * * * * * * * * * * * * * * * * * * * //

dimensions      [0 2 -1 0 0 0 0];

internalField   nonuniform List<scalar> 
132739
(
8.6271462e-07
8.4784276e-07
8.3511465e-07
8.24492e-07
8.1556347e-07
8.0793195e-07
8.0129737e-07
7.954461e-07
7.9022569e-07
7.855247e-07
7.8125941e-07
7.7736526e-07
7.7379147e-07
7.7049731e-07
7.6744971e-07
7.6462139e-07
7.6198975e-07
7.5953581e-07
7.5724362e-07
7.5509963e-07
7.5309235e-07
7.5121199e-07
7.4945022e-07
7.4779996e-07
7.4625525e-07
7.4481104e-07
7.4346322e-07
7.4220838e-07
7.4104386e-07
7.3996762e-07
7.3897823e-07
7.3807479e-07
7.3725693e-07
7.3652469e-07
7.3587858e-07
7.3531947e-07
7.3484858e-07
7.3446746e-07
7.3417795e-07
7.3398214e-07
7.3388238e-07
7.3388121e-07
7.3398137e-07
7.3418572e-07
7.3449728e-07
7.3491914e-07
7.3545437e-07
7.3610603e-07
7.3687707e-07
7.3777017e-07
7.3878815e-07
7.3993169e-07
7.412082e-07
7.4260901e-07
7.4410653e-07
7.4566115e-07
7.4727121e-07
7.4892112e-07
7.5047179e-07
7.5206927e-07
7.5357386e-07
7.5518351e-07
7.5675158e-07
7.5854679e-07
7.6033275e-07
7.6247043e-07
7.6495361e-07
7.6791271e-07
7.7116053e-07
7.746935e-07
7.7860079e-07
7.8279322e-07
7.8694072e-07
7.909809e-07
7.9500542e-07
7.9884439e-07
8.0263552e-07
8.067226e-07
8.1114331e-07
8.156133e-07
8.2020204e-07
8.2511688e-07
8.3058058e-07
8.3670643e-07
8.4319361e-07
8.50425e-07
8.5859795e-07
8.6799287e-07
8.7910352e-07
8.9247723e-07
9.0855486e-07
9.275552e-07
9.4938717e-07
9.7369745e-07
1.0000722e-06
1.0282911e-06
1.0585305e-06
1.0913659e-06
1.127823e-06
1.1687069e-06
1.2159804e-06
1.268032e-06
1.3314005e-06
1.3969747e-06
8.6269967e-07
8.4783692e-07
8.3511629e-07
8.2449942e-07
8.1557534e-07
8.0794734e-07
8.0131561e-07
7.9546683e-07
7.9024881e-07
7.8555036e-07
7.8128799e-07
7.7739738e-07
7.7382786e-07
7.7053883e-07
7.6749724e-07
7.6467588e-07
7.6205214e-07
7.5960707e-07
7.5732467e-07
7.5519136e-07
7.5319558e-07
7.5132745e-07
7.4957854e-07
7.4794163e-07
7.4641056e-07
7.4498014e-07
7.43646e-07
7.4240454e-07
7.4125284e-07
7.4018864e-07
7.3921025e-07
7.3831653e-07
7.3750687e-07
7.367811e-07
7.3613951e-07
7.3558282e-07
7.3511209e-07
7.3472877e-07
7.3443461e-07
7.3423165e-07
7.341222e-07
7.3410882e-07
7.3419425e-07
7.3438139e-07
7.3467325e-07
7.3507292e-07
7.3558349e-07
7.3620797e-07
7.369493e-07
7.378101e-07
7.3879315e-07
7.398987e-07
7.4113773e-07
7.4246238e-07
7.4381706e-07
7.4518073e-07
7.4662248e-07
7.4824354e-07
7.5004144e-07
7.5200395e-07
7.5411415e-07
7.5636391e-07
7.5870885e-07
7.6115573e-07
7.6374209e-07
7.6629396e-07
7.6887865e-07
7.7159317e-07
7.7447267e-07
7.7748838e-07
7.8107669e-07
7.8475414e-07
7.8829243e-07
7.9168405e-07
7.9550065e-07
7.9967116e-07
8.0271267e-07
8.0589144e-07
8.1088968e-07
8.1576977e-07
8.1935732e-07
8.2393176e-07
8.2911043e-07
8.3523038e-07
8.422775e-07
8.5006986e-07
8.5853469e-07
8.673913e-07
8.7687554e-07
8.8723369e-07
8.9883783e-07
9.1223523e-07
9.2808402e-07
9.4699158e-07
9.6933635e-07
9.9518953e-07
1.0243599e-06
1.0566036e-06
1.0917757e-06
1.1300678e-06
1.1719816e-06
1.2184653e-06
1.2683521e-06
1.3319318e-06
8.6268897e-07
8.4783492e-07
8.3512102e-07
8.2450891e-07
8.15588e-07
8.0796193e-07
8.0133118e-07
7.9548258e-07
7.9026407e-07
7.8556451e-07
7.8130037e-07
7.7740725e-07
7.7383436e-07
7.7054093e-07
7.674938e-07
7.6466562e-07
7.6203367e-07
7.5957886e-07
7.5728512e-07
7.5513878e-07
7.531282e-07
7.5124345e-07
7.4947603e-07
7.4781869e-07
7.4626529e-07
7.448106e-07
7.434503e-07
7.421808e-07
7.4099926e-07
7.3990348e-07
7.3889186e-07
7.3796338e-07
7.3711752e-07
7.3635425e-07
7.35674e-07
7.3507759e-07
7.3456622e-07
7.3414145e-07
7.3380514e-07
7.335594e-07
7.3340662e-07
7.3334938e-07
7.3339042e-07
7.3353262e-07
7.3377893e-07
7.3413234e-07
7.3459583e-07
7.3517224e-07
7.3586429e-07
7.3667439e-07
7.3760465e-07
7.3865706e-07
7.3983064e-07
7.4112922e-07
7.4255928e-07
7.4412738e-07
7.4583023e-07
7.476525e-07
7.4958476e-07
7.5162356e-07
7.5376587e-07
7.5600414e-07
7.5832532e-07
7.607291e-07
7.6321551e-07
7.657887e-07
7.6843157e-07
7.711202e-07
7.7386494e-07
7.7667055e-07
7.7942046e-07
7.8244303e-07
7.8548582e-07
7.8844634e-07
7.9148386e-07
7.9454907e-07
7.9750306e-07
8.0054991e-07
8.0398605e-07
8.0752871e-07
8.1121864e-07
8.1507994e-07
8.1937098e-07
8.2433667e-07
8.2994811e-07
8.3626316e-07
8.438123e-07
8.526249e-07
8.627802e-07
8.7424982e-07
8.8690909e-07
9.0064908e-07
9.1550019e-07
9.3171544e-07
9.4976297e-07
9.7023309e-07
9.9367321e-07
1.0204776e-06
1.0507795e-06
1.0846272e-06
1.1218129e-06
1.1632203e-06
1.2056355e-06
1.2644301e-06
8.6268185e-07
8.4783605e-07
8.3512853e-07
8.2452079e-07
8.1560275e-07
8.0797858e-07
8.0134924e-07
7.9550194e-07
7.9028485e-07
7.8558696e-07
7.8132484e-07
7.7743414e-07
7.7386415e-07
7.7057417e-07
7.6753109e-07
7.6470764e-07
7.6208115e-07
7.5963262e-07
7.5734601e-07
7.5520771e-07
7.5320612e-07
7.5133135e-07
7.4957494e-07
7.4792967e-07
7.4638938e-07
7.4494888e-07
7.4360382e-07
7.4235063e-07
7.4118644e-07
7.40109e-07
7.3911671e-07
7.3820847e-07
7.3738372e-07
7.3664235e-07
7.3598471e-07
7.3541154e-07
7.3492393e-07
7.3452332e-07
7.3421144e-07
7.3399031e-07
7.3386214e-07
7.3382938e-07
7.3389462e-07
7.3406057e-07
7.3433002e-07
7.3470579e-07
7.3519068e-07
7.3578737e-07
7.3649836e-07
7.3732589e-07
7.3827194e-07
7.3933784e-07
7.4052468e-07
7.4183142e-07
7.4325637e-07
7.4479829e-07
7.4645697e-07
7.4823262e-07
7.5012283e-07
7.5212338e-07
7.5423367e-07
7.5644045e-07
7.5873801e-07
7.6111205e-07
7.6356823e-07
7.6608743e-07
7.686485e-07
7.7123223e-07
7.7384754e-07
7.764875e-07
7.7915015e-07
7.8183481e-07
7.8452127e-07
7.8746154e-07
7.9033938e-07
7.9318767e-07
7.9599511e-07
7.9862789e-07
8.0158444e-07
8.0482373e-07
8.0828763e-07
8.1200851e-07
8.1606851e-07
8.2056695e-07
8.2561567e-07
8.3126701e-07
8.3752796e-07
8.4453124e-07
8.5250266e-07
8.6171799e-07
8.7242996e-07
8.847986e-07
8.9886204e-07
9.1456967e-07
9.3186485e-07
9.5078596e-07
9.7152742e-07
9.9444236e-07
1.0199508e-06
1.0484658e-06
1.0801404e-06
1.1157552e-06
1.152595e-06
1.202711e-06
8.6267814e-07
8.4784018e-07
8.3513837e-07
8.2453431e-07
8.156186e-07
8.0799604e-07
8.0136791e-07
7.9552158e-07
7.9030524e-07
7.8560788e-07
7.8134603e-07
7.7745531e-07
7.7388494e-07
7.7059419e-07
7.675499e-07
7.6472475e-07
7.6209603e-07
7.5964469e-07
7.5735465e-07
7.5521226e-07
7.5320589e-07
7.5132562e-07
7.4956294e-07
7.4791062e-07
7.4636248e-07
7.4491333e-07
7.4355879e-07
7.422953e-07
7.4111997e-07
7.4003058e-07
7.3902551e-07
7.3810369e-07
7.3726456e-07
7.3650803e-07
7.3583445e-07
7.3524456e-07
7.3473946e-07
7.3432059e-07
7.3398967e-07
7.3374868e-07
7.3359985e-07
7.3354557e-07
7.3358838e-07
7.3373096e-07
7.3397607e-07
7.3432643e-07
7.3478474e-07
7.3535358e-07
7.3603538e-07
7.3683224e-07
7.377459e-07
7.3877776e-07
7.3992798e-07
7.4119733e-07
7.425868e-07
7.4409678e-07
7.4572442e-07
7.4746326e-07
7.4930765e-07
7.5125251e-07
7.5329521e-07
7.5542642e-07
7.5763875e-07
7.5992083e-07
7.6227163e-07
7.6467913e-07
7.6712988e-07
7.6960832e-07
7.7211315e-07
7.7463964e-07
7.7717317e-07
7.7969866e-07
7.8222637e-07
7.8482012e-07
7.8733276e-07
7.8983515e-07
7.9233676e-07
7.9493133e-07
7.97624e-07
8.0044023e-07
8.0342563e-07
8.0663521e-07
8.1013237e-07
8.1399003e-07
8.1828529e-07
8.2313997e-07
8.2870803e-07
8.3509714e-07
8.4239155e-07
8.5068396e-07
8.6010573e-07
8.7083636e-07
8.8308086e-07
8.9702308e-07
9.1277866e-07
9.3037972e-07
9.4980816e-07
9.7106265e-07
9.9423348e-07
1.0195259e-06
1.0471508e-06
1.0778321e-06
1.1098582e-06
1.1523268e-06
8.6267715e-07
8.4784609e-07
8.3514926e-07
8.2454862e-07
8.1563538e-07
8.0801474e-07
8.0138821e-07
7.955433e-07
7.9032828e-07
7.8563221e-07
7.8137166e-07
7.7748231e-07
7.7391342e-07
7.706243e-07
7.6758182e-07
7.6475872e-07
7.621323e-07
7.5968355e-07
7.5739641e-07
7.5525726e-07
7.5325448e-07
7.5137815e-07
7.4961979e-07
7.4797215e-07
7.4642907e-07
7.4498533e-07
7.4363657e-07
7.4237919e-07
7.4121031e-07
7.4012767e-07
7.3912963e-07
7.3821509e-07
7.3738345e-07
7.3663457e-07
7.3596875e-07
7.3538668e-07
7.3488939e-07
7.3447826e-07
7.3415492e-07
7.3392127e-07
7.3377946e-07
7.3373179e-07
7.3378072e-07
7.3392883e-07
7.3417872e-07
7.3453305e-07
7.3499442e-07
7.3556528e-07
7.3624787e-07
7.3704415e-07
7.3795573e-07
7.3898376e-07
7.4012863e-07
7.4139037e-07
7.4276822e-07
7.4426071e-07
7.4586531e-07
7.4757844e-07
7.4939658e-07
7.513153e-07
7.5333071e-07
7.5543305e-07
7.5761395e-07
7.5986174e-07
7.6217119e-07
7.6452994e-07
7.6692251e-07
7.6933231e-07
7.7175335e-07
7.7417864e-07
7.7659817e-07
7.7900348e-07
7.8139319e-07
7.8376477e-07
7.8612402e-07
7.8848022e-07
7.908478e-07
7.9324534e-07
7.9569973e-07
7.9824619e-07
8.0092847e-07
8.0379881e-07
8.0691808e-07
8.1035477e-07
8.1419121e-07
8.1848958e-07
8.2330189e-07
8.2872575e-07
8.3488705e-07
8.4192448e-07
8.499786e-07
8.5919162e-07
8.697165e-07
8.8172439e-07
8.9539708e-07
9.1089947e-07
9.2834657e-07
9.4778204e-07
9.6920035e-07
9.9259034e-07
1.0179213e-06
1.045601e-06
1.0742829e-06
1.1112633e-06
8.6267788e-07
8.4785315e-07
8.3516122e-07
8.2456414e-07
8.1565356e-07
8.0803497e-07
8.0141009e-07
7.9556652e-07
7.9035263e-07
7.856575e-07
7.8139775e-07
7.7750903e-07
7.7394062e-07
7.7065181e-07
7.6760948e-07
7.6478633e-07
7.6215965e-07
7.5971042e-07
7.5742256e-07
7.5528243e-07
7.5327839e-07
7.5140052e-07
7.4964031e-07
7.4799051e-07
7.4644495e-07
7.4499838e-07
7.4364646e-07
7.4238557e-07
7.4121282e-07
7.4012598e-07
7.3912337e-07
7.3820391e-07
7.3736698e-07
7.3661246e-07
7.359406e-07
7.353521e-07
7.3484796e-07
7.3442953e-07
7.3409842e-07
7.3385651e-07
7.3370587e-07
7.3364877e-07
7.3368762e-07
7.3382491e-07
7.3406325e-07
7.3440518e-07
7.3485318e-07
7.3540962e-07
7.3607666e-07
7.3685613e-07
7.3774949e-07
7.3875776e-07
7.3988117e-07
7.4111957e-07
7.4247251e-07
7.4393895e-07
7.4551646e-07
7.472005e-07
7.4898573e-07
7.5086629e-07
7.5283692e-07
7.5488861e-07
7.5701267e-07
7.5919801e-07
7.6143722e-07
7.6371877e-07
7.6602886e-07
7.6835266e-07
7.706815e-07
7.7300724e-07
7.7531891e-07
7.776053e-07
7.7986023e-07
7.8208271e-07
7.8427529e-07
7.8644444e-07
7.8860176e-07
7.9076481e-07
7.9295777e-07
7.9521194e-07
7.975659e-07
8.0006626e-07
8.0276712e-07
8.0573002e-07
8.0902219e-07
8.1273294e-07
8.1696483e-07
8.2181062e-07
8.2735907e-07
8.3369888e-07
8.4092481e-07
8.4914045e-07
8.5845965e-07
8.6900972e-07
8.8093669e-07
8.9440668e-07
9.0959632e-07
9.2666794e-07
9.4574064e-07
9.6688624e-07
9.9005114e-07
1.0155056e-06
1.0418711e-06
1.0754927e-06
8.6267929e-07
8.4786098e-07
8.3517418e-07
8.2458088e-07
8.1567308e-07
8.080566e-07
8.0143338e-07
7.9559119e-07
7.903785e-07
7.8568445e-07
7.8142571e-07
7.7753797e-07
7.7397054e-07
7.7068274e-07
7.6764145e-07
7.648194e-07
7.6219391e-07
7.5974595e-07
7.5745946e-07
7.5532081e-07
7.5331837e-07
7.514422e-07
7.4968381e-07
7.4803594e-07
7.4649239e-07
7.4504795e-07
7.4369822e-07
7.4243961e-07
7.4126919e-07
7.4018472e-07
7.3918451e-07
7.3826744e-07
7.3743287e-07
7.3668062e-07
7.3601095e-07
7.3542447e-07
7.3492216e-07
7.3450531e-07
7.3417548e-07
7.3393446e-07
7.3378429e-07
7.3372716e-07
7.3376542e-07
7.3390149e-07
7.3413787e-07
7.3447704e-07
7.349214e-07
7.354732e-07
7.3613449e-07
7.3690699e-07
7.3779202e-07
7.3879045e-07
7.3990242e-07
7.4112763e-07
7.4246517e-07
7.4391332e-07
7.4546922e-07
7.4712851e-07
7.4888631e-07
7.5073712e-07
7.5267535e-07
7.5469208e-07
7.5677811e-07
7.5892219e-07
7.6111509e-07
7.6334489e-07
7.6559748e-07
7.6785772e-07
7.701146e-07
7.7235842e-07
7.7457825e-07
7.7676396e-07
7.7890939e-07
7.8101225e-07
7.8307337e-07
7.8509744e-07
7.8709412e-07
7.8907887e-07
7.9107352e-07
7.9310692e-07
7.9521493e-07
7.9744118e-07
7.9983679e-07
8.0245935e-07
8.0537727e-07
8.0865097e-07
8.1234039e-07
8.1652692e-07
8.2130737e-07
8.2678756e-07
8.3307685e-07
8.4028368e-07
8.4851338e-07
8.5786804e-07
8.6844951e-07
8.8036609e-07
8.9374007e-07
9.0871249e-07
9.2542999e-07
9.4405304e-07
9.646231e-07
9.8751171e-07
1.0113902e-06
1.0422016e-06
8.6268181e-07
8.4787016e-07
8.3518853e-07
8.2459895e-07
8.1569387e-07
8.0807944e-07
8.0145784e-07
7.9561699e-07
7.9040544e-07
7.8571239e-07
7.8145454e-07
7.775676e-07
7.7400089e-07
7.7071373e-07
7.67673e-07
7.6485143e-07
7.6222634e-07
7.5977868e-07
7.574924e-07
7.5535385e-07
7.5335138e-07
7.5147506e-07
7.4971637e-07
7.4806804e-07
7.4652388e-07
7.4507866e-07
7.4372797e-07
7.4246822e-07
7.4129648e-07
7.402105e-07
7.3920859e-07
7.382896e-07
7.3745289e-07
7.3669828e-07
7.3602599e-07
7.3543662e-07
7.3493113e-07
7.3451077e-07
7.3417706e-07
7.3393177e-07
7.3377687e-07
7.3371452e-07
7.33747e-07
7.3387668e-07
7.34106e-07
7.3443734e-07
7.3487304e-07
7.3541527e-07
7.3606595e-07
7.368267e-07
7.3769873e-07
7.3868276e-07
7.3977884e-07
7.4098646e-07
7.4230458e-07
7.4373138e-07
7.4526401e-07
7.4689807e-07
7.4862822e-07
7.5044827e-07
7.5235176e-07
7.5432969e-07
7.5637249e-07
7.5846898e-07
7.6060891e-07
7.6278023e-07
7.6496911e-07
7.671609e-07
7.6934357e-07
7.7150643e-07
7.7363818e-07
7.7572797e-07
7.7776803e-07
7.7975426e-07
7.8168609e-07
7.835669e-07
7.8540477e-07
7.8721329e-07
7.8901193e-07
7.9082665e-07
7.9269032e-07
7.9464257e-07
7.9673016e-07
7.990057e-07
8.0152882e-07
8.0436967e-07
8.0760452e-07
8.1131127e-07
8.1556975e-07
8.2046207e-07
8.2607445e-07
8.3249804e-07
8.3982846e-07
8.4816392e-07
8.5760223e-07
8.6823918e-07
8.8016832e-07
8.9348813e-07
9.0829873e-07
9.247377e-07
9.4285739e-07
9.6307718e-07
9.842421e-07
1.0118167e-06
8.6268591e-07
8.4788069e-07
8.3520406e-07
8.2461814e-07
8.1571572e-07
8.081033e-07
8.0148328e-07
7.9564373e-07
7.904333e-07
7.8574126e-07
7.8148433e-07
7.7759826e-07
7.7403238e-07
7.7074602e-07
7.6770609e-07
7.6488533e-07
7.6226105e-07
7.5981423e-07
7.5752881e-07
7.5539112e-07
7.5338954e-07
7.5151413e-07
7.4975636e-07
7.4810896e-07
7.4656572e-07
7.4512142e-07
7.4377164e-07
7.4251276e-07
7.4134188e-07
7.402567e-07
7.3925551e-07
7.3833717e-07
7.3750102e-07
7.3674682e-07
7.3607479e-07
7.354855e-07
7.3497986e-07
7.3455907e-07
7.3422461e-07
7.339782e-07
7.3382176e-07
7.3375738e-07
7.3378728e-07
7.3391377e-07
7.3413921e-07
7.3446593e-07
7.3489615e-07
7.3543197e-07
7.3607522e-07
7.3682741e-07
7.3768963e-07
7.3866249e-07
7.3974593e-07
7.409393e-07
7.4224136e-07
7.4365e-07
7.4516212e-07
7.4677319e-07
7.4847778e-07
7.5026966e-07
7.5214207e-07
7.5408609e-07
7.560919e-07
7.5814822e-07
7.6024398e-07
7.6236676e-07
7.6450263e-07
7.6663682e-07
7.6875631e-07
7.7084935e-07
7.7290424e-07
7.7491001e-07
7.7685841e-07
7.7874456e-07
7.8056692e-07
7.8232771e-07
7.840336e-07
7.8569654e-07
7.873343e-07
7.8897061e-07
7.9063613e-07
7.9236829e-07
7.9421108e-07
7.9621414e-07
7.9843517e-07
8.0093055e-07
8.0375922e-07
8.0699178e-07
8.1070725e-07
8.1499061e-07
8.1992989e-07
8.2561398e-07
8.3213153e-07
8.3957049e-07
8.480178e-07
8.5755896e-07
8.6827598e-07
8.8024957e-07
8.9355096e-07
9.0827517e-07
9.2444259e-07
9.4240201e-07
9.6118195e-07
9.8548508e-07
8.6269179e-07
8.478928e-07
8.3522097e-07
8.2463848e-07
8.1573856e-07
8.0812803e-07
8.0150952e-07
7.9567123e-07
7.9046188e-07
7.857708e-07
7.8151474e-07
7.7762948e-07
7.7406436e-07
7.7077872e-07
7.6773947e-07
7.6491935e-07
7.6229567e-07
7.598494e-07
7.5756448e-07
7.5542725e-07
7.5342606e-07
7.5155097e-07
7.4979344e-07
7.481462e-07
7.4660303e-07
7.4515868e-07
7.4380875e-07
7.4254961e-07
7.4137833e-07
7.4029262e-07
7.3929078e-07
7.3837163e-07
7.3753449e-07
7.3677914e-07
7.3610576e-07
7.3551489e-07
7.3500742e-07
7.345845e-07
7.3424759e-07
7.3399836e-07
7.3383867e-07
7.3377057e-07
7.3379622e-07
7.3391788e-07
7.3413783e-07
7.3445834e-07
7.3488156e-07
7.3540948e-07
7.3604387e-07
7.3678612e-07
7.3763722e-07
7.3859767e-07
7.3966729e-07
7.4084529e-07
7.4213026e-07
7.4351993e-07
7.4501109e-07
7.4659916e-07
7.4827856e-07
7.5004277e-07
7.5188459e-07
7.5379488e-07
7.557636e-07
7.5777932e-07
7.5983046e-07
7.6190433e-07
7.6398698e-07
7.6606373e-07
7.6812102e-07
7.7014648e-07
7.7212803e-07
7.7405436e-07
7.7591651e-07
7.7770855e-07
7.7942789e-07
7.8107567e-07
7.8265737e-07
7.8418348e-07
7.8567008e-07
7.8713915e-07
7.8861872e-07
7.9014349e-07
7.9175458e-07
7.9349857e-07
7.9542847e-07
7.9760124e-07
8.0007941e-07
8.029306e-07
8.0622579e-07
8.1003882e-07
8.1444604e-07
8.1952621e-07
8.253599e-07
8.3202855e-07
8.3961342e-07
8.4819468e-07
8.5784937e-07
8.6865233e-07
8.8066845e-07
8.9397294e-07
9.0857608e-07
9.2473779e-07
9.4164233e-07
9.6319305e-07
8.6269855e-07
8.4790556e-07
8.3523841e-07
8.2465932e-07
8.1576189e-07
8.0815324e-07
8.0153621e-07
7.9569916e-07
7.9049088e-07
7.8580077e-07
7.8154561e-07
7.7766119e-07
7.7409687e-07
7.70812e-07
7.677735e-07
7.6495411e-07
7.6233116e-07
7.5988562e-07
7.5760141e-07
7.5546488e-07
7.5346438e-07
7.5158996e-07
7.4983308e-07
7.4818645e-07
7.4664386e-07
7.4520004e-07
7.438506e-07
7.4259188e-07
7.4142096e-07
7.4033553e-07
7.3933388e-07
7.3841481e-07
7.3757765e-07
7.3682212e-07
7.3614839e-07
7.3555697e-07
7.3504871e-07
7.3462473e-07
7.3428643e-07
7.3403543e-07
7.3387355e-07
7.3380277e-07
7.3382521e-07
7.3394305e-07
7.3415853e-07
7.3447383e-07
7.3489103e-07
7.3541204e-07
7.3603853e-07
7.367718e-07
7.3761273e-07
7.3856172e-07
7.396185e-07
7.4078213e-07
7.4205106e-07
7.4342283e-07
7.4489407e-07
7.4646008e-07
7.4811515e-07
7.498526e-07
7.5166497e-07
7.5354312e-07
7.5547682e-07
7.5745452e-07
7.5946425e-07
7.6149309e-07
7.6352696e-07
7.6555115e-07
7.6755164e-07
7.6951546e-07
7.7143015e-07
7.7328418e-07
7.7506811e-07
7.7677545e-07
7.784029e-07
7.7995082e-07
7.8142368e-07
7.8283084e-07
7.8418704e-07
7.8551249e-07
7.8683368e-07
7.881834e-07
7.8960042e-07
7.9112854e-07
7.9281874e-07
7.9472191e-07
7.9689181e-07
7.9939114e-07
8.0228825e-07
8.0565546e-07
8.0956732e-07
8.1409923e-07
8.1932657e-07
8.2532391e-07
8.3216439e-07
8.3991962e-07
8.4865872e-07
8.5844896e-07
8.6935091e-07
8.8143038e-07
8.9470397e-07
9.0937717e-07
9.2476194e-07
9.4414061e-07
8.6270663e-07
8.4791947e-07
8.352568e-07
8.2468095e-07
8.1578589e-07
8.0817905e-07
8.0156347e-07
7.9572764e-07
7.9052043e-07
7.8583127e-07
7.8157699e-07
7.776934e-07
7.7412987e-07
7.7084576e-07
7.6780799e-07
7.6498931e-07
7.6236704e-07
7.5992216e-07
7.5763858e-07
7.5550265e-07
7.535027e-07
7.5162878e-07
7.4987234e-07
7.4822609e-07
7.466838e-07
7.4524021e-07
7.4389089e-07
7.4263222e-07
7.4146123e-07
7.4037563e-07
7.3937369e-07
7.3845422e-07
7.376165e-07
7.3686025e-07
7.361856e-07
7.3559305e-07
7.350834e-07
7.3465774e-07
7.3431743e-07
7.3406403e-07
7.3389933e-07
7.3382525e-07
7.3384384e-07
7.3395725e-07
7.3416763e-07
7.344771e-07
7.3488767e-07
7.3540117e-07
7.3601916e-07
7.3674286e-07
7.3757307e-07
7.3851004e-07
7.3955341e-07
7.4070214e-07
7.419545e-07
7.4330789e-07
7.4475879e-07
7.4630243e-07
7.4793297e-07
7.4964359e-07
7.5142654e-07
7.5327256e-07
7.5517121e-07
7.5711089e-07
7.5907925e-07
7.6106317e-07
7.6304852e-07
7.6502056e-07
7.6696503e-07
7.6886855e-07
7.7071837e-07
7.7250275e-07
7.7421191e-07
7.7583877e-07
7.7737938e-07
7.788334e-07
7.8020447e-07
7.8150094e-07
7.8273642e-07
7.8392978e-07
7.8510595e-07
7.862955e-07
7.8753489e-07
7.8886614e-07
7.9033659e-07
7.919961e-07
7.9389821e-07
7.9610216e-07
7.9867144e-07
8.016723e-07
8.0517284e-07
8.092424e-07
8.1395087e-07
8.1936784e-07
8.2556169e-07
8.3259888e-07
8.405429e-07
8.4945436e-07
8.5938894e-07
8.7040377e-07
8.8251941e-07
8.9590994e-07
9.099863e-07
9.2758386e-07
8.6271584e-07
8.4793423e-07
8.3527588e-07
8.2470319e-07
8.1581046e-07
8.0820539e-07
8.0159122e-07
7.9575658e-07
7.9055041e-07
7.8586221e-07
7.8160882e-07
7.7772606e-07
7.7416332e-07
7.7087999e-07
7.6784297e-07
7.6502502e-07
7.6240348e-07
7.5995929e-07
7.576764e-07
7.5554113e-07
7.5354182e-07
7.5166849e-07
7.4991261e-07
7.4826686e-07
7.4672501e-07
7.452818e-07
7.439328e-07
7.4267436e-07
7.4150353e-07
7.40418e-07
7.3941602e-07
7.384964e-07
7.3765841e-07
7.3690172e-07
7.3622645e-07
7.3563305e-07
7.351223e-07
7.3469524e-07
7.3435317e-07
7.3409763e-07
7.3393032e-07
7.3385314e-07
7.3386808e-07
7.339772e-07
7.3418261e-07
7.3448634e-07
7.3489033e-07
7.3539632e-07
7.360058e-07
7.3671987e-07
7.3753924e-07
7.3846405e-07
7.3949384e-07
7.4062743e-07
7.4186296e-07
7.4319767e-07
7.446279e-07
7.4614877e-07
7.4775432e-07
7.4943756e-07
7.5119055e-07
7.5300393e-07
7.5486714e-07
7.5676845e-07
7.586954e-07
7.6063455e-07
7.6257177e-07
7.6449227e-07
7.6638157e-07
7.6822599e-07
7.7001258e-07
7.7172943e-07
7.7336652e-07
7.7491645e-07
7.7637487e-07
7.7774094e-07
7.7901776e-07
7.8021296e-07
7.8133923e-07
7.8241439e-07
7.8346183e-07
7.8451094e-07
7.8559638e-07
7.8675778e-07
7.8804112e-07
7.894923e-07
7.9116041e-07
7.9310155e-07
7.9537597e-07
7.9804715e-07
8.011803e-07
8.0484136e-07
8.0909608e-07
8.1400923e-07
8.1964398e-07
8.260613e-07
8.3331936e-07
8.4147289e-07
8.5057274e-07
8.6066843e-07
8.7178108e-07
8.8406079e-07
8.9699434e-07
9.1306527e-07
8.6272636e-07
8.4795011e-07
8.352959e-07
8.2472621e-07
8.1583568e-07
8.082323e-07
8.016195e-07
7.9578601e-07
7.9058087e-07
7.8589359e-07
7.8164106e-07
7.7775912e-07
7.7419718e-07
7.709146e-07
7.6787832e-07
7.650611e-07
7.6244025e-07
7.5999675e-07
7.577145e-07
7.5557985e-07
7.5358112e-07
7.5170832e-07
7.4995291e-07
7.4830756e-07
7.4676605e-07
7.4532309e-07
7.4397424e-07
7.4271587e-07
7.4154501e-07
7.4045933e-07
7.394571e-07
7.3853708e-07
7.3769854e-07
7.3694116e-07
7.3626498e-07
7.3567042e-07
7.3515822e-07
7.3472939e-07
7.3438519e-07
7.3412709e-07
7.3395675e-07
7.33876e-07
7.3388678e-07
7.3399108e-07
7.3419093e-07
7.3448831e-07
7.3488505e-07
7.3538283e-07
7.3598302e-07
7.3668664e-07
7.3749427e-07
7.3840596e-07
7.3942111e-07
7.4053844e-07
7.417559e-07
7.4307062e-07
7.4447876e-07
7.4597532e-07
7.4755424e-07
7.4920836e-07
7.5092956e-07
7.5270832e-07
7.5453396e-07
7.5639463e-07
7.5827766e-07
7.6016956e-07
7.6205607e-07
7.6392227e-07
7.6575364e-07
7.6753632e-07
7.6925727e-07
7.7090453e-07
7.7246798e-07
7.7394004e-07
7.7531612e-07
7.765951e-07
7.7777972e-07
7.7887708e-07
7.7989915e-07
7.8086309e-07
7.8179132e-07
7.8271184e-07
7.8365764e-07
7.846667e-07
7.857826e-07
7.8704979e-07
7.8851594e-07
7.9023399e-07
7.9226096e-07
7.9465621e-07
7.9748059e-07
8.0079574e-07
8.0466322e-07
8.0914371e-07
8.1429636e-07
8.2017807e-07
8.2684287e-07
8.3434089e-07
8.4271898e-07
8.5202083e-07
8.6226685e-07
8.7358779e-07
8.8553078e-07
9.0027999e-07
8.6273773e-07
8.4796655e-07
8.353163e-07
8.2474951e-07
8.1586114e-07
8.082594e-07
8.0164794e-07
7.9581559e-07
7.9061146e-07
7.8592512e-07
7.8167346e-07
7.7779235e-07
7.742312e-07
7.7094938e-07
7.6791385e-07
7.6509734e-07
7.624772e-07
7.6003437e-07
7.5775278e-07
7.5561873e-07
7.5362057e-07
7.5174829e-07
7.4999332e-07
7.4834836e-07
7.4680715e-07
7.4536441e-07
7.440157e-07
7.4275736e-07
7.4158643e-07
7.4050058e-07
7.3949804e-07
7.3857758e-07
7.3773843e-07
7.3698025e-07
7.3630309e-07
7.3570727e-07
7.351935e-07
7.3476273e-07
7.3441618e-07
7.3415526e-07
7.3398158e-07
7.3389689e-07
7.3390308e-07
7.3400206e-07
7.3419579e-07
7.3448615e-07
7.3487491e-07
7.3536362e-07
7.3595355e-07
7.3664562e-07
7.374403e-07
7.383375e-07
7.3933648e-07
7.4043583e-07
7.4163334e-07
7.4292595e-07
7.4430966e-07
7.4577934e-07
7.4732875e-07
7.4895057e-07
7.5063648e-07
7.5237681e-07
7.5416073e-07
7.5597625e-07
7.5781056e-07
7.5965002e-07
7.6148029e-07
7.6328665e-07
7.6505425e-07
7.6676934e-07
7.6841881e-07
7.6999079e-07
7.7147525e-07
7.7286467e-07
7.7415451e-07
7.7534365e-07
7.7643479e-07
7.7743486e-07
7.7835561e-07
7.7921357e-07
7.8003037e-07
7.8083299e-07
7.8165357e-07
7.8252814e-07
7.834986e-07
7.8460787e-07
7.8590021e-07
7.8742628e-07
7.8923984e-07
7.9139744e-07
7.9395681e-07
7.9697627e-07
8.005138e-07
8.0462627e-07
8.0936876e-07
8.1479395e-07
8.2095192e-07
8.2788858e-07
8.3564716e-07
8.4426658e-07
8.5376633e-07
8.6426155e-07
8.7534988e-07
8.8896233e-07
8.6274948e-07
8.4798336e-07
8.3533702e-07
8.2477309e-07
8.1588682e-07
8.0828671e-07
8.0167657e-07
7.9584535e-07
7.9064221e-07
7.8595678e-07
7.8170598e-07
7.7782568e-07
7.742653e-07
7.7098423e-07
7.6794941e-07
7.651336e-07
7.6251411e-07
7.6007192e-07
7.5779091e-07
7.5565742e-07
7.5365974e-07
7.5178788e-07
7.5003326e-07
7.4838855e-07
7.468475e-07
7.4540482e-07
7.4405605e-07
7.4279754e-07
7.4162632e-07
7.4054003e-07
7.395369e-07
7.3861569e-07
7.377756e-07
7.3701625e-07
7.3633765e-07
7.3574016e-07
7.3522432e-07
7.3479107e-07
7.3444156e-07
7.3417714e-07
7.3399935e-07
7.3390988e-07
7.3391053e-07
7.3400315e-07
7.3418959e-07
7.3447165e-07
7.3485098e-07
7.3532903e-07
7.3590694e-07
7.365855e-07
7.3736504e-07
7.3824532e-07
7.3922545e-07
7.4030383e-07
7.4147805e-07
7.4274486e-07
7.4410004e-07
7.4553825e-07
7.4705305e-07
7.4863695e-07
7.5028134e-07
7.5197639e-07
7.5371104e-07
7.5547318e-07
7.5724981e-07
7.5902718e-07
7.6079094e-07
7.6252634e-07
7.6421887e-07
7.6585474e-07
7.6742076e-07
7.6890552e-07
7.7029937e-07
7.7159516e-07
7.7278872e-07
7.7387925e-07
7.7486973e-07
7.7576733e-07
7.7658369e-07
7.7733525e-07
7.7804343e-07
7.787342e-07
7.7943872e-07
7.8019196e-07
7.810339e-07
7.8200601e-07
7.8315109e-07
7.8451727e-07
7.8615567e-07
7.881195e-07
7.9046246e-07
7.9323942e-07
7.965047e-07
8.0031157e-07
8.047115e-07
8.097535e-07
8.1548404e-07
8.2194534e-07
8.2917738e-07
8.3721518e-07
8.4607696e-07
8.558654e-07
8.6621872e-07
8.7886068e-07
8.6276207e-07
8.4800067e-07
8.3535802e-07
8.247968e-07
8.1591256e-07
8.0831402e-07
8.0170516e-07
7.9587504e-07
7.9067289e-07
7.8598836e-07
7.817384e-07
7.7785889e-07
7.7429926e-07
7.710189e-07
7.6798476e-07
7.6516958e-07
7.625507e-07
7.6010906e-07
7.5782857e-07
7.5569552e-07
7.5369821e-07
7.5182663e-07
7.500722e-07
7.4842757e-07
7.4688649e-07
7.4544364e-07
7.4409458e-07
7.4283563e-07
7.4166381e-07
7.4057676e-07
7.395727e-07
7.3865033e-07
7.3780886e-07
7.3704785e-07
7.3636728e-07
7.3576744e-07
7.3524893e-07
7.3481246e-07
7.3445915e-07
7.3419028e-07
7.3400732e-07
7.3391186e-07
7.3390562e-07
7.3399034e-07
7.3416778e-07
7.3443962e-07
7.3480737e-07
7.3527234e-07
7.3583554e-07
7.3649757e-07
7.3725859e-07
7.3811817e-07
7.390752e-07
7.4012784e-07
7.4127344e-07
7.4250846e-07
7.438284e-07
7.4522767e-07
7.4669953e-07
7.4823619e-07
7.4982876e-07
7.5146713e-07
7.5314004e-07
7.5483516e-07
7.5653935e-07
7.582388e-07
7.5991919e-07
7.6156595e-07
7.6316484e-07
7.6470232e-07
7.661661e-07
7.6754474e-07
7.6882962e-07
7.7001426e-07
7.7109523e-07
7.7207251e-07
7.7294983e-07
7.7373474e-07
7.744395e-07
7.7508057e-07
7.7567928e-07
7.7626142e-07
7.7685719e-07
7.7750058e-07
7.7822989e-07
7.7908518e-07
7.8010747e-07
7.8134255e-07
7.8283895e-07
7.8464687e-07
7.868173e-07
7.8940131e-07
7.9245032e-07
7.9601018e-07
8.0013386e-07
8.0486525e-07
8.102469e-07
8.1631705e-07
8.2311196e-07
8.3066307e-07
8.3898722e-07
8.4817776e-07
8.5790416e-07
8.6972514e-07
8.6277504e-07
8.480183e-07
8.3537925e-07
8.2482067e-07
8.1593839e-07
8.0834137e-07
8.0173376e-07
7.959047e-07
7.9070349e-07
7.8601981e-07
7.8177064e-07
7.7789187e-07
7.7433292e-07
7.710532e-07
7.6801964e-07
7.6520501e-07
7.625866e-07
7.6014539e-07
7.5786524e-07
7.5573244e-07
7.5373529e-07
7.5186375e-07
7.5010924e-07
7.4846438e-07
7.4692291e-07
7.4547951e-07
7.4412972e-07
7.4286986e-07
7.4169693e-07
7.4060855e-07
7.396029e-07
7.3867869e-07
7.3783506e-07
7.3707154e-07
7.3638805e-07
7.3578482e-07
7.3526236e-07
7.3482147e-07
7.3446297e-07
7.3418808e-07
7.3399818e-07
7.3389477e-07
7.3387943e-07
7.339538e-07
7.3411949e-07
7.3437803e-07
7.3473077e-07
7.3517882e-07
7.3572299e-07
7.3636365e-07
7.3710072e-07
7.379335e-07
7.3886058e-07
7.3987979e-07
7.4098813e-07
7.4218169e-07
7.4345556e-07
7.4480377e-07
7.4621921e-07
7.476937e-07
7.4921796e-07
7.5078158e-07
7.5237302e-07
7.539798e-07
7.5558869e-07
7.5718593e-07
7.5875739e-07
7.6028895e-07
7.6176689e-07
7.631784e-07
7.6451195e-07
7.6575759e-07
7.6690764e-07
7.6795622e-07
7.6890145e-07
7.6974454e-07
7.7049036e-07
7.7114751e-07
7.7172873e-07
7.7225111e-07
7.7273608e-07
7.7320926e-07
7.7370016e-07
7.7424232e-07
7.748725e-07
7.7562885e-07
7.7655141e-07
7.7768375e-07
7.7907177e-07
7.8076313e-07
7.8280338e-07
7.8525202e-07
7.8809602e-07
7.9167634e-07
7.9540135e-07
7.9989489e-07
8.0500528e-07
8.107621e-07
8.1720984e-07
8.2437411e-07
8.3226537e-07
8.4096777e-07
8.5017213e-07
8.6131588e-07
8.6278834e-07
8.4803602e-07
8.3540044e-07
8.2484443e-07
8.1596406e-07
8.0836852e-07
8.0176211e-07
7.9593406e-07
7.9073375e-07
7.8605088e-07
7.8180243e-07
7.7792431e-07
7.7436594e-07
7.7108674e-07
7.6805363e-07
7.6523936e-07
7.6262125e-07
7.6018022e-07
7.5790015e-07
7.5576731e-07
7.5376997e-07
7.5189808e-07
7.5014304e-07
7.4849746e-07
7.4695506e-07
7.4551051e-07
7.4415934e-07
7.4289783e-07
7.4172297e-07
7.4063237e-07
7.3962418e-07
7.3869704e-07
7.3785005e-07
7.370827e-07
7.3639484e-07
7.3578659e-07
7.3525841e-07
7.3481095e-07
7.3444516e-07
7.3416185e-07
7.3396232e-07
7.3384792e-07
7.338201e-07
7.3388033e-07
7.3403002e-07
7.3427048e-07
7.3460284e-07
7.3502793e-07
7.3554627e-07
7.3615792e-07
7.3686244e-07
7.3765873e-07
7.3854498e-07
7.3951856e-07
7.4057597e-07
7.4171277e-07
7.4292354e-07
7.4420178e-07
7.4553988e-07
7.4692921e-07
7.4836007e-07
7.4982173e-07
7.5130245e-07
7.5278971e-07
7.5427038e-07
7.5573102e-07
7.5715807e-07
7.5853815e-07
7.5985857e-07
7.6110771e-07
7.6227539e-07
7.6335325e-07
7.6433508e-07
7.6521751e-07
7.659991e-07
7.6668319e-07
7.6727599e-07
7.6778735e-07
7.6823102e-07
7.6862456e-07
7.6898969e-07
7.6935225e-07
7.6974109e-07
7.7018875e-07
7.7073102e-07
7.7140474e-07
7.7224842e-07
7.7330362e-07
7.7461373e-07
7.7622383e-07
7.781764e-07
7.805225e-07
7.8328914e-07
7.8655244e-07
7.9039913e-07
7.9458662e-07
7.9950555e-07
8.0503247e-07
8.1120454e-07
8.1805621e-07
8.2560229e-07
8.3392178e-07
8.427117e-07
8.5333072e-07
8.6280195e-07
8.4805394e-07
8.3542169e-07
8.2486812e-07
8.1598957e-07
8.0839543e-07
8.0179015e-07
7.9596306e-07
7.9076355e-07
7.8608138e-07
7.8183354e-07
7.7795592e-07
7.7439797e-07
7.7111907e-07