/*--------------------------------*- C++ -*----------------------------------*\
| =========                 |                                                 |
| \\      /  F ield         | OpenFOAM: The Open Source CFD Toolbox           |
|  \\    /   O peration     | Version:  2406                                  |
|   \\  /    A nd           | Website:  www.openfoam.com                      |
|    \\/     M anipulation  |                                                 |
\*---------------------------------------------------------------------------*/
FoamFile
{
    version     2.0;
    format      ascii;
    arch        "LSB;label=32;scalar=64";
    class       volScalarField;
    location    "700";
    object      p;
}
// * * * * * * * * * * * * * * * * * * * * * * * * * * * * * * * * * * * * * //

dimensions      [1 -1 -2 0 0 0 0];

internalField   nonuniform List<scalar> 
132739
(
1.0033153
1.0033257
1.0033435
1.0033624
1.0033863
1.0034157
1.0034495
1.0034877
1.0035302
1.003577
1.003628
1.003683
1.0037421
1.0038051
1.0038721
1.003943
1.0040177
1.0040963
1.0041786
1.0042647
1.0043545
1.004448
1.0045452
1.004646
1.0047504
1.0048584
1.0049699
1.0050849
1.0052032
1.0053249
1.00545
1.0055782
1.0057096
1.005844
1.0059814
1.0061217
1.0062647
1.0064104
1.0065585
1.0067091
1.0068618
1.0070167
1.0071735
1.007332
1.0074922
1.0076538
1.0078166
1.0079804
1.0081451
1.0083105
1.0084763
1.0086424
1.0088085
1.0089746
1.0091405
1.0093058
1.0094702
1.0096336
1.009796
1.0099572
1.010117
1.0102751
1.0104317
1.0105849
1.0107363
1.0108855
1.0110319
1.0111743
1.0113128
1.0114516
1.0115856
1.0117157
1.0118427
1.0119656
1.0120843
1.0121985
1.012308
1.0124125
1.0125116
1.0126051
1.0126927
1.0127739
1.0128484
1.0129157
1.0129753
1.0130268
1.0130696
1.0131035
1.0131281
1.0131428
1.0131474
1.0131411
1.0131236
1.0130943
1.0130528
1.0129987
1.0129316
1.0128512
1.0127574
1.0126498
1.0125291
1.0123945
1.012251
1.0120941
1.003316
1.0033269
1.0033449
1.0033637
1.0033876
1.003417
1.0034508
1.0034889
1.0035314
1.0035781
1.003629
1.003684
1.003743
1.003806
1.0038729
1.0039437
1.0040184
1.0040968
1.0041791
1.0042651
1.0043548
1.0044482
1.0045453
1.004646
1.0047503
1.0048581
1.0049695
1.0050843
1.0052026
1.0053242
1.0054491
1.0055772
1.0057084
1.0058427
1.0059799
1.0061201
1.0062629
1.0064084
1.0065564
1.0067067
1.0068593
1.007014
1.0071705
1.0073288
1.0074887
1.00765
1.0078125
1.007976
1.0081403
1.0083053
1.0084706
1.0086362
1.0088017
1.0089671
1.0091321
1.0092965
1.00946
1.0096223
1.0097831
1.0099428
1.0101006
1.010257
1.0104109
1.0105629
1.0107118
1.01086
1.0110048
1.0111462
1.0112838
1.0114197
1.0115513
1.0116785
1.011802
1.0119215
1.0120368
1.0121474
1.0122533
1.0123541
1.0124494
1.0125391
1.0126227
1.0127
1.0127706
1.0128342
1.0128904
1.0129388
1.0129795
1.0130123
1.0130368
1.0130524
1.0130588
1.0130554
1.0130418
1.0130177
1.0129827
1.0129364
1.0128785
1.0128088
1.0127269
1.0126325
1.0125256
1.0124049
1.012271
1.0121192
1.0033165
1.0033281
1.0033462
1.0033649
1.0033889
1.0034183
1.0034521
1.0034903
1.0035328
1.0035796
1.0036305
1.0036856
1.0037447
1.0038077
1.0038747
1.0039456
1.0040204
1.0040989
1.0041813
1.0042674
1.0043572
1.0044508
1.004548
1.0046489
1.0047533
1.0048613
1.0049729
1.0050879
1.0052063
1.0053281
1.0054532
1.0055815
1.005713
1.0058475
1.005985
1.0061254
1.0062685
1.0064142
1.0065624
1.006713
1.0068659
1.0070208
1.0071776
1.0073361
1.0074962
1.0076576
1.0078203
1.0079839
1.0081484
1.0083134
1.0084787
1.0086442
1.0088097
1.0089747
1.0091392
1.0093031
1.0094661
1.0096281
1.0097885
1.0099476
1.0101047
1.0102601
1.0104131
1.010564
1.0107117
1.0108578
1.0110005
1.0111397
1.0112751
1.0114079
1.011537
1.011662
1.0117825
1.0118988
1.0120107
1.0121178
1.01222
1.0123168
1.0124082
1.0124938
1.0125733
1.0126464
1.0127128
1.0127721
1.012824
1.0128681
1.0129042
1.0129319
1.0129512
1.0129616
1.012963
1.0129549
1.0129371
1.0129092
1.0128708
1.0128217
1.0127616
1.0126903
1.0126076
1.0125132
1.0124071
1.0122893
1.0121588
1.0120195
1.003317
1.0033292
1.0033474
1.003366
1.00339
1.0034195
1.0034533
1.0034914
1.0035339
1.0035807
1.0036316
1.0036867
1.0037458
1.0038088
1.0038758
1.0039467
1.0040214
1.0040999
1.0041823
1.0042683
1.0043582
1.0044517
1.0045489
1.0046497
1.0047542
1.0048622
1.0049737
1.0050887
1.0052071
1.0053289
1.005454
1.0055823
1.0057138
1.0058483
1.0059857
1.0061261
1.0062692
1.0064149
1.0065631
1.0067137
1.0068665
1.0070213
1.0071781
1.0073366
1.0074966
1.007658
1.0078205
1.007984
1.0081483
1.0083131
1.0084782
1.0086434
1.0088085
1.0089732
1.0091374
1.0093008
1.0094633
1.0096245
1.0097841
1.0099422
1.0100982
1.0102524
1.0104041
1.0105535
1.0106998
1.010844
1.0109849
1.0111224
1.011256
1.0113865
1.0115131
1.0116354
1.0117532
1.0118666
1.0119754
1.0120794
1.0121783
1.0122717
1.0123596
1.0124416
1.0125175
1.0125869
1.0126496
1.0127053
1.0127536
1.0127945
1.0128277
1.012853
1.0128702
1.0128789
1.0128786
1.0128691
1.01285
1.0128211
1.0127819
1.0127324
1.0126722
1.0126013
1.0125193
1.0124263
1.0123221
1.0122067
1.0120798
1.0119421
1.0033173
1.0033302
1.0033486
1.0033671
1.0033911
1.0034206
1.0034544
1.0034925
1.003535
1.0035818
1.0036328
1.0036878
1.0037469
1.00381
1.003877
1.0039479
1.0040227
1.0041013
1.0041836
1.0042698
1.0043596
1.0044532
1.0045505
1.0046514
1.0047559
1.0048639
1.0049755
1.0050906
1.0052091
1.005331
1.0054561
1.0055845
1.0057161
1.0058507
1.0059883
1.0061287
1.0062719
1.0064177
1.006566
1.0067167
1.0068695
1.0070245
1.0071813
1.0073398
1.0074999
1.0076612
1.0078238
1.0079873
1.0081515
1.0083162
1.0084812
1.0086462
1.0088111
1.0089755
1.0091393
1.0093023
1.0094642
1.0096249
1.0097839
1.0099412
1.0100965
1.0102497
1.0104005
1.0105487
1.0106939
1.0108364
1.0109757
1.0111114
1.0112432
1.0113715
1.0114958
1.0116158
1.0117313
1.0118421
1.0119482
1.0120494
1.0121452
1.0122357
1.0123204
1.0123992
1.0124718
1.012538
1.0125974
1.0126499
1.0126952
1.0127329
1.0127629
1.0127849
1.0127989
1.0128045
1.0128015
1.0127897
1.0127687
1.0127384
1.0126985
1.0126488
1.012589
1.012519
1.0124387
1.0123478
1.0122464
1.0121343
1.0120115
1.0118771
1.0033175
1.0033312
1.0033496
1.003368
1.003392
1.0034216
1.0034553
1.0034935
1.003536
1.0035828
1.0036338
1.0036888
1.0037479
1.003811
1.003878
1.0039489
1.0040236
1.0041022
1.0041846
1.0042707
1.0043606
1.0044541
1.0045514
1.0046523
1.0047568
1.0048648
1.0049764
1.0050915
1.00521
1.0053319
1.005457
1.0055854
1.005717
1.0058516
1.0059892
1.0061296
1.0062728
1.0064186
1.006567
1.0067176
1.0068705
1.0070254
1.0071822
1.0073407
1.0075007
1.007662
1.0078245
1.0079878
1.0081519
1.0083164
1.0084812
1.008646
1.0088107
1.0089748
1.0091382
1.0093008
1.0094622
1.0096223
1.0097807
1.0099372
1.0100917
1.0102439
1.0103936
1.0105406
1.0106846
1.0108256
1.0109634
1.0110974
1.0112276
1.011354
1.0114763
1.0115941
1.0117073
1.0118157
1.0119193
1.0120178
1.0121109
1.0121985
1.0122803
1.0123561
1.0124257
1.0124888
1.0125452
1.0125947
1.0126369
1.0126717
1.0126991
1.0127189
1.0127308
1.0127345
1.0127298
1.0127165
1.0126943
1.0126629
1.0126223
1.0125722
1.0125124
1.0124429
1.0123636
1.0122742
1.0121749
1.0120654
1.0119462
1.0118159
1.0033177
1.0033321
1.0033506
1.0033689
1.0033929
1.0034225
1.0034563
1.0034944
1.0035369
1.0035837
1.0036347
1.0036897
1.0037488
1.0038119
1.0038789
1.0039498
1.0040246
1.0041031
1.0041855
1.0042717
1.0043615
1.0044551
1.0045524
1.0046533
1.0047578
1.0048659
1.0049775
1.0050926
1.0052111
1.005333
1.0054582
1.0055867
1.0057182
1.0058529
1.0059905
1.006131
1.0062742
1.00642
1.0065683
1.006719
1.0068719
1.0070268
1.0071836
1.0073421
1.007502
1.0076633
1.0078257
1.007989
1.008153
1.0083174
1.008482
1.0086466
1.008811
1.0089748
1.0091379
1.0093001
1.009461
1.0096206
1.0097783
1.0099342
1.010088
1.0102394
1.0103881
1.0105341
1.010677
1.0108167
1.0109531
1.0110857
1.0112143
1.0113389
1.0114593
1.0115752
1.0116864
1.0117927
1.011894
1.0119901
1.0120808
1.0121659
1.0122451
1.0123183
1.0123853
1.0124458
1.0124996
1.0125464
1.0125862
1.0126186
1.0126435
1.0126608
1.0126704
1.0126719
1.0126653
1.0126503
1.0126267
1.0125944
1.0125532
1.0125028
1.0124433
1.0123744
1.0122961
1.0122084
1.0121111
1.0120042
1.0118882
1.0117614
1.0033178
1.0033329
1.0033515
1.0033697
1.0033938
1.0034233
1.0034571
1.0034952
1.0035377
1.0035845
1.0036355
1.0036905
1.0037496
1.0038127
1.0038797
1.0039506
1.0040253
1.0041039
1.0041863
1.0042724
1.0043623
1.0044558
1.0045531
1.004654
1.0047585
1.0048666
1.0049782
1.0050933
1.0052118
1.0053337
1.0054589
1.0055873
1.0057189
1.0058535
1.0059911
1.0061316
1.0062748
1.0064206
1.0065689
1.0067196
1.0068724
1.0070273
1.0071841
1.0073425
1.0075024
1.0076636
1.0078259
1.0079891
1.0081529
1.0083172
1.0084816
1.008646
1.0088101
1.0089736
1.0091364
1.0092982
1.0094587
1.0096177
1.009775
1.0099302
1.0100832
1.0102338
1.0103817
1.0105267
1.0106685
1.0108071
1.0109421
1.0110733
1.0112005
1.0113235
1.0114422
1.0115563
1.0116656
1.01177
1.0118692
1.0119632
1.0120516
1.0121344
1.0122112
1.012282
1.0123465
1.0124045
1.0124559
1.0125003
1.0125376
1.0125677
1.0125905
1.0126059
1.0126136
1.0126136
1.0126055
1.0125893
1.0125648
1.0125317
1.01249
1.0124395
1.0123802
1.012312
1.0122347
1.0121484
1.0120531
1.0119486
1.0118355
1.0117124
1.0033178
1.0033337
1.0033524
1.0033704
1.0033945
1.0034241
1.0034579
1.003496
1.0035385
1.0035853
1.0036362
1.0036913
1.0037503
1.0038134
1.0038804
1.0039513
1.004026
1.0041046
1.0041869
1.0042731
1.0043629
1.0044565
1.0045537
1.0046546
1.0047591
1.0048672
1.0049788
1.0050939
1.0052124
1.0053343
1.0054595
1.0055879
1.0057195
1.0058541
1.0059917
1.0061322
1.0062753
1.0064212
1.0065694
1.0067201
1.0068729
1.0070277
1.0071844
1.0073428
1.0075027
1.0076638
1.007826
1.0079891
1.0081528
1.0083169
1.0084811
1.0086453
1.0088092
1.0089724
1.0091349
1.0092963
1.0094564
1.0096149
1.0097716
1.0099263
1.0100786
1.0102285
1.0103756
1.0105197
1.0106605
1.010798
1.0109319
1.0110619
1.0111877
1.0113093
1.0114265
1.011539
1.0116466
1.0117492
1.0118466
1.0119386
1.012025
1.0121057
1.0121805
1.0122491
1.0123115
1.0123673
1.0124165
1.0124589
1.0124942
1.0125223
1.0125432
1.0125567
1.0125627
1.012561
1.0125516
1.0125341
1.0125086
1.0124748
1.0124327
1.0123821
1.012323
1.0122554
1.0121791
1.0120941
1.0120006
1.0118984
1.0117879
1.0116682
1.0033178
1.0033344
1.0033531
1.0033711
1.0033952
1.0034248
1.0034586
1.0034967
1.0035392
1.003586
1.0036369
1.0036919
1.003751
1.003814
1.003881
1.0039519
1.0040266
1.0041052
1.0041875
1.0042736
1.0043635
1.004457
1.0045542
1.0046551
1.0047596
1.0048676
1.0049792
1.0050943
1.0052128
1.0053347
1.0054598
1.0055882
1.0057198
1.0058544
1.0059919
1.0061324
1.0062755
1.0064213
1.0065695
1.0067201
1.0068729
1.0070277
1.0071843
1.0073426
1.0075024
1.0076635
1.0078256
1.0079885
1.0081521
1.008316
1.0084801
1.008644
1.0088077
1.0089707
1.0091328
1.0092938
1.0094535
1.0096116
1.0097679
1.009922
1.0100737
1.0102229
1.0103692
1.0105125
1.0106524
1.0107889
1.0109217
1.0110506
1.0111752
1.0112955
1.0114113
1.0115223
1.0116284
1.0117293
1.011825
1.0119152
1.0119998
1.0120787
1.0121515
1.0122182
1.0122786
1.0123325
1.0123797
1.0124201
1.0124535
1.0124798
1.012499
1.0125109
1.0125155
1.0125125
1.0125019
1.0124835
1.0124572
1.0124229
1.0123805
1.01233
1.0122712
1.0122041
1.0121287
1.0120451
1.0119532
1.0118531
1.011745
1.0116285
1.0033178
1.0033351
1.0033538
1.0033717
1.0033959
1.0034255
1.0034592
1.0034973
1.0035398
1.0035866
1.0036375
1.0036925
1.0037515
1.0038146
1.0038815
1.0039524
1.0040271
1.0041056
1.004188
1.0042741
1.0043639
1.0044574
1.0045546
1.0046555
1.0047599
1.004868
1.0049795
1.0050946
1.005213
1.0053349
1.00546
1.0055884
1.0057199
1.0058545
1.005992
1.0061324
1.0062755
1.0064213
1.0065695
1.00672
1.0068727
1.0070275
1.007184
1.0073423
1.0075019
1.0076629
1.0078249
1.0079877
1.0081511
1.0083149
1.0084788
1.0086425
1.0088059
1.0089687
1.0091305
1.0092912
1.0094506
1.0096082
1.009764
1.0099176
1.0100687
1.0102173
1.0103629
1.0105054
1.0106446
1.0107802
1.010912
1.0110398
1.0111633
1.0112824
1.0113969
1.0115066
1.0116113
1.0117108
1.0118049
1.0118936
1.0119766
1.0120537
1.0121249
1.0121898
1.0122485
1.0123006
1.0123461
1.0123849
1.0124166
1.0124414
1.012459
1.0124695
1.0124728
1.0124686
1.0124569
1.0124376
1.0124107
1.0123759
1.0123332
1.0122827
1.0122242
1.0121577
1.0120832
1.0120008
1.0119104
1.0118122
1.0117063
1.0115927
1.0033177
1.0033357
1.0033545
1.0033723
1.0033965
1.0034261
1.0034598
1.0034979
1.0035404
1.0035871
1.003638
1.003693
1.003752
1.0038151
1.003882
1.0039528
1.0040275
1.0041061
1.0041884
1.0042744
1.0043642
1.0044577
1.0045549
1.0046557
1.0047602
1.0048682
1.0049797
1.0050947
1.0052131
1.005335
1.0054601
1.0055884
1.0057199
1.0058544
1.0059919
1.0061322
1.0062753
1.006421
1.0065691
1.0067196
1.0068723
1.0070269
1.0071834
1.0073416
1.0075012
1.007662
1.0078239
1.0079866
1.0081498
1.0083134
1.0084771
1.0086407
1.0088039
1.0089664
1.0091279
1.0092883
1.0094473
1.0096046
1.0097599
1.009913
1.0100636
1.0102116
1.0103566
1.0104984
1.0106368
1.0107716
1.0109025
1.0110293
1.0111518
1.0112699
1.0113832
1.0114917
1.0115951
1.0116933
1.0117861
1.0118733
1.0119548
1.0120304
1.0121
1.0121634
1.0122205
1.0122711
1.012315
1.0123522
1.0123825
1.0124058
1.0124222
1.0124314
1.0124335
1.0124283
1.0124158
1.0123958
1.0123682
1.0123331
1.0122903
1.0122398
1.0121816
1.0121157
1.0120421
1.0119608
1.0118719
1.0117755
1.0116715
1.0115606
1.0033176
1.0033363
1.0033551
1.0033728
1.003397
1.0034266
1.0034603
1.0034984
1.0035409
1.0035876
1.0036385
1.0036935
1.0037525
1.0038155
1.0038824
1.0039532
1.0040279
1.0041064
1.0041887
1.0042747
1.0043645
1.004458
1.0045551
1.0046559
1.0047603
1.0048683
1.0049798
1.0050947
1.0052131
1.0053349
1.00546
1.0055883
1.0057197
1.0058542
1.0059916
1.0061319
1.0062749
1.0064205
1.0065686
1.006719
1.0068716
1.0070262
1.0071826
1.0073407
1.0075002
1.0076609
1.0078226
1.0079852
1.0081483
1.0083118
1.0084753
1.0086387
1.0088016
1.0089638
1.0091251
1.0092852
1.0094438
1.0096007
1.0097556
1.0099083
1.0100584
1.0102059
1.0103503
1.0104914
1.0106292
1.0107632
1.0108933
1.0110193
1.0111409
1.0112579
1.0113702
1.0114776
1.0115799
1.0116769
1.0117684
1.0118543
1.0119345
1.0120088
1.012077
1.0121391
1.0121947
1.0122439
1.0122865
1.0123224
1.0123514
1.0123735
1.0123886
1.0123968
1.0123978
1.0123918
1.0123784
1.0123578
1.0123298
1.0122943
1.0122514
1.0122011
1.0121432
1.0120778
1.012005
1.0119248
1.0118373
1.0117425
1.0116404
1.0115319
1.0033175
1.0033368
1.0033557
1.0033733
1.0033975
1.0034271
1.0034608
1.0034989
1.0035413
1.003588
1.0036389
1.0036939
1.0037529
1.0038159
1.0038828
1.0039536
1.0040282
1.0041067
1.0041889
1.0042749
1.0043647
1.0044581
1.0045552
1.004656
1.0047603
1.0048683
1.0049797
1.0050947
1.005213
1.0053347
1.0054597
1.005588
1.0057194
1.0058538
1.0059912
1.0061314
1.0062744
1.0064199
1.0065679
1.0067183
1.0068708
1.0070253
1.0071816
1.0073395
1.0074989
1.0076595
1.0078212
1.0079836
1.0081466
1.0083098
1.0084732
1.0086364
1.0087991
1.0089611
1.0091221
1.0092819
1.0094402
1.0095968
1.0097513
1.0099035
1.0100532
1.0102001
1.010344
1.0104846
1.0106217
1.010755
1.0108844
1.0110096
1.0111303
1.0112465
1.0113579
1.0114643
1.0115655
1.0116614
1.0117518
1.0118366
1.0119156
1.0119887
1.0120557
1.0121165
1.0121709
1.0122189
1.0122602
1.0122949
1.0123228
1.0123437
1.0123578
1.012365
1.0123652
1.0123584
1.0123444
1.0123232
1.0122948
1.0122592
1.0122163
1.012166
1.0121085
1.0120437
1.0119717
1.0118925
1.0118062
1.011713
1.0116126
1.0115062
1.0033173
1.0033373
1.0033562
1.0033738
1.003398
1.0034276
1.0034612
1.0034993
1.0035417
1.0035884
1.0036393
1.0036942
1.0037532
1.0038162
1.0038831
1.0039538
1.0040284
1.0041069
1.0041891
1.0042751
1.0043648
1.0044582
1.0045553
1.004656
1.0047603
1.0048682
1.0049796
1.0050945
1.0052128
1.0053345
1.0054594
1.0055876
1.0057189
1.0058533
1.0059906
1.0061308
1.0062737
1.0064192
1.0065671
1.0067174
1.0068698
1.0070242
1.0071804
1.0073382
1.0074975
1.007658
1.0078195
1.0079818
1.0081446
1.0083077
1.0084709
1.0086339
1.0087964
1.0089582
1.009119
1.0092785
1.0094365
1.0095927
1.0097469
1.0098987
1.010048
1.0101944
1.0103378
1.0104779
1.0106143
1.0107471
1.0108758
1.0110002
1.0111202
1.0112356
1.0113461
1.0114516
1.011552
1.0116469
1.0117363
1.0118201
1.011898
1.01197
1.0120359
1.0120956
1.0121489
1.0121958
1.0122361
1.0122697
1.0122965
1.0123165
1.0123297
1.0123361
1.0123355
1.012328
1.0123135
1.0122919
1.0122632
1.0122274
1.0121844
1.0121344
1.0120772
1.012013
1.0119417
1.0118635
1.0117783
1.0116866
1.0115878
1.0114834
1.003317
1.0033378
1.0033567
1.0033742
1.0033984
1.003428
1.0034616
1.0034997
1.0035421
1.0035888
1.0036396
1.0036946
1.0037535
1.0038164
1.0038833
1.003954
1.0040286
1.004107
1.0041892
1.0042752
1.0043648
1.0044582
1.0045552
1.0046559
1.0047602
1.004868
1.0049794
1.0050942
1.0052125
1.0053341
1.005459
1.0055871
1.0057184
1.0058527
1.0059899
1.00613
1.0062729
1.0064183
1.0065661
1.0067163
1.0068686
1.0070229
1.007179
1.0073368
1.0074959
1.0076563
1.0078177
1.0079798
1.0081425
1.0083055
1.0084685
1.0086313
1.0087936
1.0089551
1.0091157
1.0092749
1.0094326
1.0095886
1.0097424
1.0098939
1.0100427
1.0101888
1.0103317
1.0104712
1.0106072
1.0107393
1.0108674
1.0109912
1.0111106
1.0112252
1.011335
1.0114397
1.0115392
1.0116332
1.0117218
1.0118046
1.0118816
1.0119526
1.0120175
1.0120762
1.0121286
1.0121745
1.0122138
1.0122465
1.0122725
1.0122917
1.0123041
1.0123097
1.0123085
1.0123004
1.0122854
1.0122635
1.0122345
1.0121986
1.0121557
1.0121059
1.012049
1.0119853
1.0119148
1.0118375
1.0117535
1.0116631
1.0115658
1.0114632
1.0033168
1.0033382
1.0033571
1.0033745
1.0033988
1.0034284
1.003462
1.0035
1.0035425
1.0035891
1.0036399
1.0036948
1.0037538
1.0038167
1.0038835
1.0039542
1.0040288
1.0041071
1.0041893
1.0042752
1.0043648
1.0044582
1.0045552
1.0046558
1.00476
1.0048678
1.0049791
1.0050939
1.0052121
1.0053337
1.0054585
1.0055866
1.0057178
1.005852
1.0059892
1.0061292
1.0062719
1.0064173
1.006565
1.0067151
1.0068673
1.0070216
1.0071776
1.0073352
1.0074942
1.0076545
1.0078157
1.0079777
1.0081403
1.0083031
1.0084659
1.0086285
1.0087906
1.0089519
1.0091123
1.0092713
1.0094287
1.0095843
1.0097379
1.009889
1.0100375
1.0101831
1.0103256
1.0104647
1.0106002
1.0107318
1.0108593
1.0109826
1.0111013
1.0112153
1.0113244
1.0114283
1.0115271
1.0116204
1.0117081
1.0117901
1.0118663
1.0119365
1.0120005
1.0120583
1.0121098
1.0121549
1.0121934
1.0122253
1.0122505
1.0122689
1.0122806
1.0122856
1.0122839
1.0122753
1.0122599
1.0122377
1.0122086
1.0121726
1.0121298
1.0120802
1.0120237
1.0119606
1.0118907
1.0118143
1.0117313
1.0116422
1.0115464
1.0114454
1.0033165
1.0033387
1.0033575
1.0033749
1.0033992
1.0034287
1.0034623
1.0035004
1.0035428
1.0035894
1.0036402
1.0036951
1.003754
1.0038169
1.0038837
1.0039543
1.0040289
1.0041072
1.0041893
1.0042752
1.0043648
1.0044581
1.004555
1.0046556
1.0047598
1.0048675
1.0049788
1.0050935
1.0052117
1.0053332
1.0054579
1.0055859
1.005717
1.0058512
1.0059883
1.0061283
1.0062709
1.0064161
1.0065638
1.0067138
1.006866
1.0070201
1.007176
1.0073335
1.0074924
1.0076525
1.0078136
1.0079755
1.0081379
1.0083005
1.0084632
1.0086256
1.0087875
1.0089487
1.0091088
1.0092675
1.0094247
1.0095801
1.0097333
1.0098841
1.0100323
1.0101776
1.0103197
1.0104583
1.0105934
1.0107245
1.0108515
1.0109742
1.0110924
1.0112058
1.0113143
1.0114176
1.0115157
1.0116083
1.0116953
1.0117766
1.011852
1.0119214
1.0119847
1.0120418
1.0120925
1.0121368
1.0121746
1.0122058
1.0122303
1.0122481
1.0122592
1.0122637
1.0122615
1.0122525
1.0122368
1.0122144
1.0121852
1.0121492
1.0121065
1.0120571
1.012001
1.0119384
1.0118692
1.0117936
1.0117116
1.0116236
1.0115292
1.0114298
1.0033163
1.0033391
1.0033579
1.0033752
1.0033995
1.003429
1.0034626
1.0035006
1.003543
1.0035897
1.0036404
1.0036953
1.0037542
1.003817
1.0038838
1.0039544
1.0040289
1.0041072
1.0041893
1.0042752
1.0043647
1.004458
1.0045549
1.0046554
1.0047595
1.0048672
1.0049784
1.0050931
1.0052112
1.0053326
1.0054573
1.0055852
1.0057163
1.0058504
1.0059874
1.0061272
1.0062698
1.006415
1.0065626
1.0067124
1.0068645
1.0070185
1.0071743
1.0073317
1.0074905
1.0076505
1.0078115
1.0079732
1.0081354
1.0082979
1.0084604
1.0086226
1.0087844
1.0089453
1.0091052
1.0092638
1.0094207
1.0095758
1.0097287
1.0098793
1.0100271
1.0101721
1.0103138
1.0104521
1.0105867
1.0107174
1.010844
1.0109662
1.0110839
1.0111967
1.0113046
1.0114074
1.0115049
1.0115969
1.0116833
1.0117639
1.0118387
1.0119074
1.01197
1.0120264
1.0120765
1.0121202
1.0121573
1.0121879
1.0122118
1.0122291
1.0122397
1.0122438
1.0122411
1.0122319
1.0122159
1.0121933
1.012164
1.0121281
1.0120855
1.0120364
1.0119807
1.0119186
1.01185
1.0117753
1.0116942
1.0116073
1.0115141
1.0114161
1.003316
1.0033394
1.0033582
1.0033755
1.0033998
1.0034293
1.0034629
1.0035009
1.0035433
1.0035899
1.0036406
1.0036955
1.0037543
1.0038171
1.0038839
1.0039545
1.004029
1.0041072
1.0041893
1.0042751
1.0043646
1.0044578
1.0045546
1.0046551
1.0047592
1.0048668
1.004978
1.0050926
1.0052106
1.005332
1.0054566
1.0055845
1.0057154
1.0058494
1.0059864
1.0061262
1.0062686
1.0064137
1.0065612
1.006711
1.0068629
1.0070168
1.0071725
1.0073298
1.0074885
1.0076483
1.0078092
1.0079708
1.0081328
1.0082952
1.0084575
1.0086196
1.0087812
1.0089419
1.0091016
1.0092599
1.0094167
1.0095715
1.0097242
1.0098744
1.010022
1.0101666
1.010308
1.010446
1.0105802
1.0107106
1.0108367
1.0109585
1.0110757
1.0111881
1.0112955
1.0113978
1.0114947
1.0115861
1.011672
1.011752
1.0118262
1.0118944
1.0119564
1.0120122
1.0120617
1.0121048
1.0121414
1.0121715
1.0121949
1.0122117
1.0122219
1.0122256
1.0122227
1.0122131
1.012197
1.0121743
1.012145
1.0121091
1.0120667
1.0120178
1.0119625
1.0119009
1.011833
1.011759
1.0116789
1.011593
1.011501
1.0114043
1.0033157
1.0033398
1.0033585
1.0033758
1.0034001
1.0034296
1.0034632
1.0035011
1.0035435
1.0035901
1.0036408
1.0036956
1.0037544
1.0038172
1.003884
1.0039545
1.004029
1.0041072
1.0041892
1.004275
1.0043644
1.0044576
1.0045544
1.0046548
1.0047588
1.0048664
1.0049775
1.005092
1.00521
1.0053313
1.0054559
1.0055836
1.0057145
1.0058485
1.0059853
1.006125
1.0062674
1.0064124
1.0065598
1.0067095
1.0068613
1.0070151
1.0071707
1.0073278
1.0074864
1.0076461
1.0078068
1.0079683
1.0081302
1.0082924
1.0084546
1.0086165
1.0087779
1.0089385
1.009098
1.0092561
1.0094126
1.0095672
1.0097197
1.0098697
1.0100169
1.0101613
1.0103024
1.01044
1.0105739
1.0107039
1.0108297
1.0109511
1.0110678
1.0111798
1.0112868
1.0113886
1.0114851
1.011576
1.0116614
1.0117409
1.0118146
1.0118822
1.0119437
1.0119991
1.012048
1.0120906
1.0121268
1.0121564
1.0121794
1.0121958
1.0122057
1.0122091
1.0122059
1.0121962
1.0121799
1.0121571
1.0121278
1.0120921
1.0120498
1.0120013
1.0119464
1.0118852
1.0118179
1.0117446
1.0116654
1.0115805
1.0114896
1.0113941
1.0033154
1.0033401
1.0033588
1.003376
1.0034004
1.0034299
1.0034634
1.0035013
1.0035437
1.0035902
1.0036409
1.0036957
1.0037545
1.0038173
1.003884
1.0039545
1.0040289
1.0041071
1.0041891
1.0042748
1.0043642
1.0044573
1.0045541
1.0046545
1.0047585
1.004866
1.004977
1.0050915
1.0052094
1.0053306
1.0054551
1.0055828
1.0057136
1.0058475
1.0059842
1.0061238
1.0062661
1.006411
1.0065583
1.0067079
1.0068596
1.0070133
1.0071688
1.0073258
1.0074842
1.0076439
1.0078044
1.0079658
1.0081276
1.0082896
1.0084516
1.0086134
1.0087746
1.008935
1.0090943
1.0092522
1.0094085
1.0095629
1.0097152
1.0098649
1.0100119
1.010156
1.0102968
1.0104342
1.0105678
1.0106974
1.0108229
1.0109439
1.0110603
1.0111719
1.0112785
1.0113799
1.0114759
1.0115665
1.0116514
1.0117305
1.0118037
1.0118709
1.011932
1.0119869
1.0120354
1.0120776
1.0121133
1.0121426
1.0121653
1.0121814
1.0121909
1.0121941
1.0121907
1.0121808
1.0121645
1.0121417
1.0121124
1.0120768
1.0120348
1.0119865
1.011932
1.0118713
1.0118046
1.011732
1.0116536
1.0115696
1.0114798
1.0113854
1.003315
1.0033404
1.003359
1.0033762
1.0034006
1.0034301
1.0034636
1.0035015
1.0035438
1.0035904
1.0036411
1.0036958
1.0037546
1.0038174
1.003884
1.0039545
1.0040289
1.004107
1.004189
1.0042746
1.004364
1.0044571
1.0045538
1.0046541
1.004758
1.0048655
1.0049765
1.0050909
1.0052087
1.0053298
1.0054543
1.0055819
1.0057126
1.0058464
1.0059831
1.0061226
1.0062648
1.0064096
1.0065568
1.0067063
1.0068579
1.0070115
1.0071668
1.0073237
1.0074821
1.0076416
1.007802
1.0079632
1.0081248
1.0082867
1.0084486
1.0086102
1.0087713
1.0089315
1.0090906
1.0092484
1.0094045
1.0095587
1.0097107
1.0098602
1.010007
1.0101508
1.0102914
1.0104285
1.0105618
1.0106912
1.0108163
1.010937
1.0110531
1.0111643
1.0112706
1.0113716
1.0114673
1.0115575
1.011642
1.0117207
1.0117935
1.0118603
1.011921
1.0119755
1.0120237
1.0120656
1.012101
1.0121299
1.0121523
1.0121681
1.0121775
1.0121804
1.0121769
1.0121669
1.0121505
1.0121277
1.0120986
1.0120631
1.0120213
1.0119733
1.0119192
1.0118591
1.0117929
1.011721
1.0116433
1.0115602
1.0114714
1.0113781
1.0033147
1.0033407
1.0033593
1.0033764
1.0034008
1.0034303
1.0034638
1.0035017
1.003544
1.0035905
1.0036412
1.0036959
1.0037547
1.0038174
1.003884
1.0039545
1.0040288
1.0041069
1.0041888
1.0042744
1.0043638
1.0044568
1.0045535
1.0046537
1.0047576
1.004865
1.0049759
1.0050902
1.005208
1.0053291
1.0054534
1.005581
1.0057117
1.0058453
1.0059819
1.0061214
1.0062635
1.0064082
1.0065553
1.0067047
1.0068562
1.0070096
1.0071648
1.0073217
1.0074798
1.0076392
1.0077995
1.0079606
1.0081221
1.0082839
1.0084456
1.008607
1.0087679
1.008928
1.009087
1.0092445
1.0094005
1.0095545
1.0097063
1.0098556
1.0100022
1.0101458
1.0102861
1.0104229
1.010556
1.0106851
1.0108099
1.0109304
1.0110462
1.0111571
1.011263
1.0113638
1.0114591
1.011549
1.0116331
1.0117115
1.011784
1.0118505
1.0119109
1.011965
1.0120129
1.0120545
1.0120896
1.0121183
1.0121404
1.0121561
1.0121653
1.012168
1.0121644
1.0121544
1.012138
1.0121153
1.0120862
1.0120509
1.0120094
1.0119617
1.011908
1.0118483
1.0117827
1.0117114
1.0116345
1.0115522
1.0114644
1.011372
1.0033144
1.0033409
1.0033595
1.0033766
1.003401
1.0034305
1.0034639
1.0035018
1.0035441
1.0035906
1.0036413
1.003696
1.0037547
1.0038174
1.003884
1.0039544
1.0040287
1.0041068
1.0041887
1.0042742
1.0043635
1.0044565
1.0045531
1.0046533
1.0047571
1.0048645
1.0049753
1.0050896
1.0052073
1.0053283
1.0054526
1.0055801
1.0057106
1.0058442
1.0059808
1.0061201
1.0062621
1.0064067
1.0065537
1.006703
1.0068544
1.0070077
1.0071628
1.0073195
1.0074776
1.0076369
1.007797
1.007958
1.0081193
1.008281
1.0084426
1.0086039
1.0087646
1.0089245
1.0090833
1.0092407
1.0093965
1.0095503
1.0097019
1.009851
1.0099974
1.0101408
1.0102809
1.0104175
1.0105503
1.0106792
1.0108038
1.010924
1.0110395
1.0111502
1.0112558
1.0113563
1.0114514
1.0115409
1.0116248
1.0117029
1.0117751
1.0118413
1.0119014
1.0119553
1.0120029
1.0120442
1.0120791
1.0121076
1.0121296
1.0121451
1.0121541
1.0121568
1.0121531
1.0121431
1.0121267
1.0121041
1.0120751
1.01204
1.0119987
1.0119514
1.0118981
1.0118388
1.0117738
1.0117032
1.011627
1.0115455
1.0114585
1.011367
1.0033141
1.0033412
1.0033597
1.0033768
1.0034012
1.0034306
1.0034641
1.003502
1.0035442
1.0035907
1.0036413
1.003696
1.0037547
1.0038174
1.0038839
1.0039544
1.0040286
1.0041067
1.0041885
1.004274
1.0043632
1.0044562
1.0045527
1.0046529
1.0047566
1.0048639
1.0049747
1.0050889
1.0052065
1.0053275
1.0054517
1.0055791
1.0057096
1.0058431
1.0059796
1.0061188
1.0062607
1.0064052
1.0065521
1.0067013
1.0068526
1.0070058
1.0071608
1.0073174
1.0074754
1.0076345
1.0077945
1.0079553
1.0081166
1.0082781
1.0084395
1.0086007
1.0087613
1.008921
1.0090797
1.0092369
1.0093925
1.0095462
1.0096976
1.0098465
1.0099927
1.0101359
1.0102758
1.0104122
1.0105449
1.0106735
1.0107979
1.0109178
1.0110331
1.0111436
1.011249
1.0113492
1.011444
1.0115333
1.0116169
1.0116948
1.0117668
1.0118327
1.0118926
1.0119463
1.0119937
1.0120348
1.0120695
1.0120978
1.0121196
1.012135
1.012144
1.0121466
1.0121429
1.0121329
1.0121166
1.012094
1.0120653
1.0120304
1.0119894
1.0119423
1.0118894
1.0118306
1.0117661
1.0116961
1.0116206
1.0115398
1.0114537
1.0113631
1.0033137
1.0033414
1.0033598
1.003377
1.0034014
1.0034308
1.0034642
1.0035021
1.0035443
1.0035908
1.0036414
1.003696
1.0037547
1.0038173
1.0038839
1.0039543
1.0040285
1.0041065
1.0041883
1.0042738
1.004363
1.0044558
1.0045523
1.0046525
1.0047561
1.0048634
1.0049741
1.0050882
1.0052058
1.0053267
1.0054508
1.0055781
1.0057086
1.005842
1.0059783
1.0061175
1.0062593
1.0064037
1.0065505
1.0066996
1.0068508
1.0070039
1.0071588
1.0073153
1.0074731
1.0076321
1.007792
1.0079527
1.0081138
1.0082752
1.0084365
1.0085975
1.008758
1.0089176
1.0090761
1.0092332
1.0093886
1.0095421
1.0096934
1.0098421
1.0099882
1.0101312
1.0102709
1.0104071
1.0105395
1.010668
1.0107922
1.0109119
1.011027
1.0111372
1.0112424
1.0113424
1.011437
1.0115261
1.0116095
1.0116872
1.0117589
1.0118247
1.0118844
1.0119379
1.0119851
1.012026
1.0120606
1.0120888
1.0121106
1.0121259
1.0121348
1.0121374
1.0121337
1.0121237
1.0121075
1.0120851
1.0120565
1.0120218
1.0119811
1.0119344
1.0118818
1.0118235
1.0117596
1.0116901
1.0116152
1.0115352
1.0114499
1.0113601
1.0033134
1.0033417
1.00336
1.0033771
1.0034015
1.0034309
1.0034643
1.0035022
1.0035444
1.0035909
1.0036414
1.0036961
1.0037547
1.0038173
1.0038838
1.0039542
1.0040284
1.0041063
1.004188
1.0042735
1.0043627
1.0044555
1.0045519
1.004652
1.0047556
1.0048628
1.0049735
1.0050876
1.005205
1.0053258
1.0054499
1.0055771
1.0057075
1.0058408
1.0059771
1.0061162
1.0062579
1.0064022
1.0065489
1.0066979
1.006849
1.007002
1.0071568
1.0073131
1.0074708
1.0076297
1.0077895
1.0079501
1.0081111
1.0082723
1.0084335
1.0085944
1.0087547
1.0089141
1.0090725
1.0092295
1.0093847
1.0095381
1.0096892
1.0098378
1.0099837
1.0101265
1.0102661
1.0104021
1.0105344
1.0106626
1.0107866
1.0109062
1.0110211
1.0111311
1.0112362
1.011336
1.0114304
1.0115193
1.0116025
1.01168
1.0117516
1.0118172
1.0118767
1.0119301
1.0119772
1.012018
1.0120525
1.0120806
1.0121023
1.0121175
1.0121265
1.0121291
1.0121254
1.0121155
1.0120994
1.0120771
1.0120487
1.0120143
1.0119738
1.0119275
1.0118753
1.0118174
1.011754
1.0116851
1.0116108
1.0115314
1.011447
1.0113579
1.003313
1.0033419
1.0033601
1.0033772
1.0034017
1.003431
1.0034644
1.0035023
1.0035445
1.0035909
1.0036415
1.0036961
1.0037547
1.0038173
1.0038837
1.0039541
1.0040282
1.0041061
1.0041878
1.0042732
1.0043623
1.0044551
1.0045515
1.0046515
1.0047551
1.0048622
1.0049728
1.0050869
1.0052043
1.005325
1.005449