/*--------------------------------*- C++ -*----------------------------------*\
| =========                 |                                                 |
| \\      /  F ield         | OpenFOAM: The Open Source CFD Toolbox           |
|  \\    /   O peration     | Version:  2406                                  |
|   \\  /    A nd           | Website:  www.openfoam.com                      |
|    \\/     M anipulation  |                                                 |
\*---------------------------------------------------------------------------*/
FoamFile
{
    version     2.0;
    format      ascii;
    arch        "LSB;label=32;scalar=64";
    class       volScalarField;
    location    "700";
    object      pMean;
}
// * * * * * * * * * * * * * * * * * * * * * * * * * * * * * * * * * * * * * //

dimensions      [1 -1 -2 0 0 0 0];

internalField   nonuniform List<scalar> 
132739
(
1.0030757
1.003061
1.0030717
1.0030934
1.0031172
1.0031433
1.003174
1.0032091
1.0032478
1.0032904
1.0033366
1.0033866
1.0034401
1.0034972
1.0035577
1.0036218
1.0036892
1.00376
1.0038342
1.0039117
1.0039924
1.0040764
1.0041636
1.004254
1.0043476
1.0044442
1.0045439
1.0046466
1.0047523
1.0048608
1.0049722
1.0050864
1.0052032
1.0053226
1.0054445
1.0055689
1.0056955
1.0058243
1.0059552
1.006088
1.0062225
1.0063588
1.0064965
1.0066357
1.006776
1.0069174
1.0070597
1.0072026
1.0073462
1.0074901
1.0076342
1.0077783
1.0079222
1.0080658
1.0082085
1.0083504
1.0084912
1.0086308
1.0087688
1.0089052
1.0090399
1.0091727
1.009303
1.0094311
1.0095565
1.0096788
1.0097979
1.0099136
1.0100257
1.0101338
1.0102375
1.0103365
1.0104305
1.010519
1.0106017
1.0106779
1.010747
1.0108084
1.0108617
1.0109063
1.0109415
1.0109667
1.0109812
1.0109842
1.0109749
1.0109525
1.0109161
1.0108648
1.0107979
1.0107143
1.0106131
1.0104933
1.0103541
1.0101946
1.0100139
1.0098113
1.0095862
1.0093378
1.0090658
1.0087694
1.0084502
1.0081067
1.007749
1.0073688
1.0030764
1.0030621
1.0030729
1.0030946
1.0031183
1.0031444
1.0031751
1.0032101
1.0032489
1.0032913
1.0033375
1.0033874
1.0034409
1.0034979
1.0035584
1.0036223
1.0036897
1.0037604
1.0038345
1.0039118
1.0039925
1.0040764
1.0041635
1.0042538
1.0043472
1.0044437
1.0045433
1.0046458
1.0047513
1.0048597
1.004971
1.0050849
1.0052016
1.0053208
1.0054425
1.0055666
1.005693
1.0058215
1.0059522
1.0060847
1.0062189
1.0063548
1.0064923
1.006631
1.0067709
1.0069118
1.0070535
1.0071959
1.0073388
1.007482
1.0076253
1.0077684
1.0079113
1.0080536
1.0081953
1.0083357
1.0084753
1.0086135
1.0087501
1.0088851
1.009018
1.0091487
1.0092768
1.0094024
1.0095252
1.0096448
1.0097611
1.0098737
1.0099824
1.0100869
1.0101868
1.0102818
1.0103716
1.0104558
1.010534
1.0106057
1.0106706
1.010728
1.0107775
1.0108187
1.0108509
1.0108737
1.0108863
1.0108883
1.0108789
1.0108576
1.0108235
1.010776
1.0107141
1.0106371
1.0105442
1.0104346
1.0103075
1.0101621
1.0099977
1.0098137
1.0096095
1.0093842
1.0091377
1.0088689
1.008578
1.0082623
1.0079214
1.0075492
1.0030771
1.003063
1.003074
1.0030957
1.0031194
1.0031456
1.0031763
1.0032114
1.0032501
1.0032926
1.0033389
1.0033888
1.0034423
1.0034994
1.0035599
1.003624
1.0036914
1.0037622
1.0038364
1.0039139
1.0039946
1.0040786
1.0041658
1.0042562
1.0043498
1.0044464
1.0045461
1.0046488
1.0047545
1.004863
1.0049744
1.0050885
1.0052053
1.0053247
1.0054466
1.0055709
1.0056974
1.0058261
1.0059568
1.0060895
1.0062239
1.0063599
1.0064974
1.0066362
1.0067761
1.0069169
1.0070586
1.0072008
1.0073434
1.0074863
1.0076292
1.0077718
1.0079142
1.0080558
1.0081968
1.0083366
1.0084754
1.0086128
1.0087484
1.0088821
1.0090136
1.0091427
1.0092691
1.0093926
1.0095131
1.0096303
1.0097438
1.0098535
1.009959
1.0100601
1.0101564
1.0102475
1.0103332
1.010413
1.0104867
1.0105535
1.0106131
1.010665
1.0107087
1.0107438
1.0107697
1.0107859
1.010792
1.0107873
1.0107713
1.0107433
1.0107028
1.010649
1.0105812
1.0104989
1.0104011
1.0102874
1.0101568
1.0100088
1.0098427
1.0096579
1.0094538
1.0092298
1.0089856
1.0087207
1.0084349
1.0081292
1.0077989
1.0074622
1.0030776
1.0030639
1.003075
1.0030967
1.0031205
1.0031466
1.0031773
1.0032124
1.0032511
1.0032936
1.0033399
1.0033898
1.0034433
1.0035003
1.0035608
1.0036248
1.0036922
1.003763
1.0038371
1.0039146
1.0039953
1.0040793
1.0041665
1.0042568
1.0043503
1.0044469
1.0045466
1.0046492
1.0047549
1.0048634
1.0049747
1.0050888
1.0052055
1.0053248
1.0054466
1.0055708
1.0056973
1.0058259
1.0059565
1.006089
1.0062233
1.0063591
1.0064964
1.0066351
1.0067747
1.0069153
1.0070567
1.0071986
1.0073408
1.0074832
1.0076256
1.0077677
1.0079094
1.0080503
1.0081904
1.0083293
1.0084671
1.0086033
1.0087375
1.0088697
1.0089997
1.0091271
1.0092517
1.0093732
1.0094915
1.0096063
1.0097172
1.009824
1.0099266
1.0100245
1.0101173
1.0102049
1.0102868
1.0103628
1.0104323
1.0104951
1.0105505
1.0105983
1.0106378
1.0106688
1.0106907
1.0107029
1.0107051
1.0106966
1.0106768
1.0106453
1.0106013
1.0105443
1.0104736
1.0103885
1.0102885
1.0101728
1.0100408
1.0098921
1.0097259
1.0095418
1.0093393
1.009118
1.0088774
1.0086175
1.0083374
1.0080386
1.007717
1.0073813
1.003078
1.0030648
1.003076
1.0030976
1.0031214
1.0031476
1.0031783
1.0032133
1.0032521
1.0032946
1.0033409
1.0033908
1.0034443
1.0035013
1.0035619
1.0036259
1.0036933
1.0037641
1.0038383
1.0039158
1.0039966
1.0040806
1.0041678
1.0042582
1.0043517
1.0044484
1.0045481
1.0046508
1.0047565
1.004865
1.0049764
1.0050905
1.0052073
1.0053266
1.0054485
1.0055727
1.0056992
1.0058278
1.0059584
1.0060909
1.0062252
1.006361
1.0064982
1.0066368
1.0067763
1.0069168
1.007058
1.0071997
1.0073417
1.0074838
1.0076258
1.0077675
1.0079087
1.008049
1.0081885
1.0083267
1.0084636
1.0085988
1.008732
1.0088631
1.0089918
1.0091177
1.0092406
1.0093604
1.0094767
1.0095894
1.009698
1.0098025
1.0099024
1.0099975
1.0100874
1.0101719
1.0102505
1.010323
1.010389
1.0104479
1.0104994
1.0105429
1.0105782
1.0106048
1.0106223
1.0106301
1.010628
1.0106152
1.0105914
1.0105561
1.0105086
1.0104485
1.0103751
1.010288
1.0101864
1.0100698
1.0099377
1.0097896
1.0096249
1.0094432
1.009244
1.009027
1.0087918
1.0085383
1.0082657
1.0079749
1.0076635
1.0073342
1.0030783
1.0030655
1.0030769
1.0030985
1.0031223
1.0031484
1.0031792
1.0032142
1.003253
1.0032955
1.0033417
1.0033916
1.0034451
1.0035021
1.0035627
1.0036267
1.0036941
1.0037649
1.0038391
1.0039165
1.0039973
1.0040813
1.0041685
1.0042589
1.0043524
1.004449
1.0045487
1.0046514
1.004757
1.0048655
1.0049769
1.005091
1.0052077
1.0053271
1.0054488
1.005573
1.0056994
1.005828
1.0059585
1.006091
1.0062251
1.0063608
1.0064979
1.0066363
1.0067757
1.006916
1.0070569
1.0071983
1.00734
1.0074818
1.0076234
1.0077646
1.0079052
1.008045
1.0081838
1.0083213
1.0084572
1.0085915
1.0087236
1.0088535
1.0089809
1.0091053
1.0092267
1.0093448
1.0094593
1.00957
1.0096765
1.0097786
1.009876
1.0099684
1.0100555
1.010137
1.0102125
1.0102818
1.0103443
1.0103998
1.0104477
1.0104877
1.0105194
1.0105424
1.0105563
1.0105607
1.0105551
1.0105389
1.0105119
1.0104734
1.0104231
1.0103603
1.0102845
1.0101953
1.0100922
1.0099745
1.0098418
1.0096937
1.0095297
1.0093495
1.0091526
1.0089387
1.0087076
1.0084591
1.0081927
1.0079091
1.0076065
1.0072882
1.0030786
1.0030663
1.0030777
1.0030993
1.0031231
1.0031493
1.00318
1.003215
1.0032538
1.0032963
1.0033425
1.0033924
1.0034459
1.0035029
1.0035635
1.0036275
1.0036949
1.0037657
1.0038399
1.0039173
1.0039981
1.0040821
1.0041693
1.0042597
1.0043532
1.0044498
1.0045495
1.0046522
1.0047578
1.0048664
1.0049777
1.0050918
1.0052085
1.0053278
1.0054496
1.0055737
1.0057002
1.0058287
1.0059592
1.0060916
1.0062256
1.0063613
1.0064983
1.0066365
1.0067758
1.0069159
1.0070567
1.0071978
1.0073392
1.0074807
1.0076219
1.0077627
1.007903
1.0080422
1.0081804
1.0083172
1.0084524
1.0085858
1.008717
1.0088458
1.008972
1.0090953
1.0092153
1.0093318
1.0094447
1.0095536
1.0096582
1.0097583
1.0098535
1.0099436
1.0100283
1.0101072
1.01018
1.0102463
1.010306
1.0103583
1.0104031
1.0104398
1.0104681
1.0104877
1.0104982
1.0104992
1.0104902
1.0104709
1.0104407
1.0103993
1.0103463
1.010281
1.0102032
1.0101122
1.0100077
1.0098892
1.0097563
1.0096085
1.0094454
1.0092667
1.0090722
1.0088615
1.0086343
1.0083907
1.0081301
1.0078532
1.0075582
1.0072496
1.0030788
1.0030669
1.0030785
1.0031
1.0031238
1.00315
1.0031808
1.0032158
1.0032545
1.003297
1.0033432
1.0033931
1.0034466
1.0035036
1.0035641
1.0036281
1.0036955
1.0037663
1.0038405
1.0039179
1.0039986
1.0040826
1.0041698
1.0042602
1.0043537
1.0044503
1.00455
1.0046526
1.0047582
1.0048667
1.004978
1.0050921
1.0052088
1.0053281
1.0054498
1.0055739
1.0057002
1.0058287
1.0059591
1.0060914
1.0062254
1.0063609
1.0064978
1.0066359
1.006775
1.0069149
1.0070555
1.0071964
1.0073375
1.0074787
1.0076196
1.00776
1.0078997
1.0080384
1.008176
1.0083122
1.0084467
1.0085792
1.0087096
1.0088374
1.0089625
1.0090845
1.0092032
1.0093184
1.0094297
1.009537
1.0096398
1.0097379
1.0098311
1.009919
1.0100014
1.0100779
1.0101481
1.0102118
1.0102687
1.0103182
1.01036
1.0103938
1.0104193
1.0104359
1.0104435
1.0104416
1.0104298
1.0104077
1.010375
1.0103312
1.0102758
1.0102086
1.010129
1.0100367
1.0099312
1.0098121
1.009679
1.0095316
1.0093695
1.0091924
1.0090002
1.0087925
1.0085691
1.00833
1.0080748
1.0078043
1.0075162
1.0072166
1.0030789
1.0030675
1.0030792
1.0031007
1.0031245
1.0031507
1.0031814
1.0032164
1.0032552
1.0032976
1.0033439
1.0033937
1.0034472
1.0035042
1.0035647
1.0036287
1.0036961
1.0037669
1.003841
1.0039185
1.0039992
1.0040831
1.0041703
1.0042607
1.0043542
1.0044508
1.0045504
1.004653
1.0047586
1.0048671
1.0049784
1.0050924
1.0052091
1.0053283
1.00545
1.005574
1.0057003
1.0058287
1.0059591
1.0060913
1.0062252
1.0063606
1.0064974
1.0066353
1.0067743
1.006914
1.0070544
1.007195
1.0073359
1.0074768
1.0076173
1.0077574
1.0078967
1.008035
1.008172
1.0083076
1.0084414
1.0085732
1.0087028
1.0088297
1.0089538
1.0090748
1.0091923
1.0093062
1.0094162
1.0095219
1.0096232
1.0097196
1.009811
1.009897
1.0099773
1.0100516
1.0101196
1.010181
1.0102354
1.0102825
1.0103217
1.0103529
1.0103756
1.0103896
1.0103945
1.0103899
1.0103755
1.0103509
1.0103158
1.0102697
1.0102124
1.0101433
1.0100622
1.0099686
1.0098622
1.0097426
1.0096094
1.0094625
1.0093013
1.0091258
1.0089357
1.0087308
1.0085109
1.008276
1.0080257
1.0077612
1.0074794
1.0071881
1.003079
1.0030681
1.0030799
1.0031013
1.0031251
1.0031513
1.0031821
1.003217
1.0032558
1.0032982
1.0033444
1.0033943
1.0034477
1.0035047
1.0035652
1.0036292
1.0036966
1.0037674
1.0038415
1.0039189
1.0039996
1.0040835
1.0041707
1.004261
1.0043545
1.004451
1.0045506
1.0046532
1.0047588
1.0048672
1.0049785
1.0050925
1.0052091
1.0053283
1.0054499
1.0055739
1.0057001
1.0058284
1.0059587
1.0060908
1.0062246
1.0063599
1.0064965
1.0066344
1.0067731
1.0069127
1.0070528
1.0071933
1.007334
1.0074745
1.0076147
1.0077544
1.0078933
1.0080312
1.0081677
1.0083027
1.0084359
1.008567
1.0086958
1.0088219
1.0089451
1.0090651
1.0091815
1.0092943
1.009403
1.0095073
1.0096071
1.009702
1.0097917
1.0098759
1.0099543
1.0100267
1.0100926
1.0101519
1.010204
1.0102488
1.0102857
1.0103145
1.0103349
1.0103464
1.010349
1.0103422
1.0103255
1.0102987
1.0102616
1.0102136
1.0101546
1.010084
1.0100016
1.009907
1.0097999
1.00968
1.009547
1.0094005
1.0092404
1.0090663
1.0088783
1.008676
1.0084594
1.0082285
1.0079828
1.0077238
1.0074478
1.0071639
1.0030791
1.0030686
1.0030805
1.0031019
1.0031257
1.0031519
1.0031826
1.0032176
1.0032563
1.0032988
1.0033449
1.0033948
1.0034482
1.0035052
1.0035657
1.0036296
1.003697
1.0037677
1.0038418
1.0039192
1.0039999
1.0040838
1.004171
1.0042613
1.0043547
1.0044512
1.0045508
1.0046534
1.0047589
1.0048673
1.0049785
1.0050924
1.005209
1.0053281
1.0054497
1.0055736
1.0056998
1.005828
1.0059582
1.0060902
1.0062239
1.0063591
1.0064956
1.0066333
1.0067719
1.0069113
1.0070512
1.0071915
1.0073319
1.0074722
1.0076121
1.0077515
1.00789
1.0080274
1.0081635
1.008298
1.0084306
1.0085611
1.0086892
1.0088145
1.0089369
1.0090559
1.0091714
1.0092831
1.0093906
1.0094938
1.0095922
1.0096857
1.0097739
1.0098565
1.0099333
1.0100039
1.010068
1.0101253
1.0101755
1.0102182
1.0102531
1.0102798
1.010298
1.0103075
1.0103079
1.0102989
1.0102803
1.0102516
1.0102126
1.010163
1.0101024
1.0100305
1.009947
1.0098516
1.0097439
1.0096238
1.0094909
1.009345
1.0091859
1.0090133
1.0088272
1.0086275
1.0084139
1.0081867
1.0079452
1.0076912
1.0074207
1.0071436
1.0030791
1.0030691
1.0030811
1.0031024
1.0031263
1.0031524
1.0031832
1.0032181
1.0032568
1.0032992
1.0033454
1.0033952
1.0034487
1.0035056
1.0035661
1.00363
1.0036974
1.0037681
1.0038421
1.0039195
1.0040002
1.004084
1.0041711
1.0042614
1.0043548
1.0044513
1.0045508
1.0046534
1.0047589
1.0048672
1.0049783
1.0050922
1.0052087
1.0053278
1.0054493
1.0055731
1.0056992
1.0058274
1.0059575
1.0060894
1.006223
1.0063581
1.0064945
1.006632
1.0067705
1.0069097
1.0070494
1.0071895
1.0073296
1.0074697
1.0076093
1.0077484
1.0078865
1.0080235
1.0081592
1.0082932
1.0084253
1.0085552
1.0086826
1.0088072
1.0089288
1.0090471
1.0091617
1.0092724
1.0093788
1.0094809
1.0095781
1.0096703
1.0097571
1.0098383
1.0099135
1.0099825
1.010045
1.0101006
1.010149
1.0101899
1.0102228
1.0102476
1.010264
1.0102716
1.0102701
1.0102594
1.010239
1.0102086
1.010168
1.010117
1.0100551
1.0099821
1.0098977
1.0098016
1.0096936
1.0095734
1.0094407
1.0092954
1.0091373
1.0089662
1.008782
1.0085846
1.0083738
1.0081501
1.0079126
1.0076632
1.0073979
1.0071266
1.0030791
1.0030695
1.0030816
1.0031029
1.0031267
1.0031529
1.0031836
1.0032186
1.0032573
1.0032997
1.0033458
1.0033956
1.003449
1.003506
1.0035664
1.0036303
1.0036976
1.0037683
1.0038424
1.0039197
1.0040003
1.0040842
1.0041713
1.0042615
1.0043549
1.0044513
1.0045508
1.0046533
1.0047587
1.004867
1.0049781
1.0050919
1.0052084
1.0053274
1.0054488
1.0055726
1.0056986
1.0058267
1.0059567
1.0060885
1.006222
1.0063569
1.0064932
1.0066306
1.0067689
1.0069079
1.0070475
1.0071874
1.0073273
1.0074671
1.0076064
1.0077452
1.007883
1.0080196
1.0081549
1.0082885
1.00842
1.0085494
1.0086763
1.0088002
1.0089211
1.0090386
1.0091524
1.0092622
1.0093677
1.0094687
1.0095649
1.0096559
1.0097415
1.0098214
1.0098953
1.0099628
1.0100238
1.0100779
1.0101247
1.0101639
1.0101952
1.0102184
1.010233
1.0102389
1.0102359
1.0102235
1.0102015
1.0101697
1.0101277
1.0100754
1.0100124
1.0099384
1.0098533
1.0097567
1.0096484
1.0095282
1.0093958
1.0092512
1.0090941
1.0089244
1.008742
1.0085468
1.0083388
1.0081182
1.0078844
1.0076393
1.0073788
1.0071128
1.003079
1.0030699
1.0030821
1.0031034
1.0031272
1.0031534
1.0031841
1.003219
1.0032577
1.0033001
1.0033462
1.003396
1.0034494
1.0035063
1.0035667
1.0036306
1.0036979
1.0037685
1.0038425
1.0039199
1.0040005
1.0040843
1.0041713
1.0042615
1.0043548
1.0044512
1.0045507
1.0046531
1.0047585
1.0048667
1.0049778
1.0050915
1.0052079
1.0053269
1.0054482
1.0055719
1.0056978
1.0058258
1.0059557
1.0060874
1.0062208
1.0063556
1.0064918
1.006629
1.0067672
1.0069061
1.0070455
1.0071851
1.0073248
1.0074644
1.0076035
1.0077419
1.0078794
1.0080157
1.0081506
1.0082838
1.0084149
1.0085437
1.00867
1.0087934
1.0089137
1.0090305
1.0091435
1.0092525
1.0093572
1.0094572
1.0095524
1.0096424
1.0097269
1.0098056
1.0098782
1.0099445
1.0100041
1.0100568
1.0101022
1.01014
1.0101698
1.0101915
1.0102047
1.0102091
1.0102045
1.0101907
1.0101674
1.0101343
1.0100912
1.0100378
1.0099739
1.0098991
1.0098133
1.0097163
1.0096078
1.0094877
1.0093557
1.0092118
1.0090557
1.0088873
1.0087067
1.0085137
1.0083082
1.0080906
1.0078603
1.007619
1.0073631
1.0071017
1.0030789
1.0030703
1.0030826
1.0031038
1.0031276
1.0031538
1.0031845
1.0032194
1.003258
1.0033004
1.0033465
1.0033963
1.0034496
1.0035065
1.0035669
1.0036308
1.0036981
1.0037687
1.0038427
1.00392
1.0040005
1.0040843
1.0041713
1.0042614
1.0043547
1.0044511
1.0045505
1.0046529
1.0047582
1.0048664
1.0049774
1.0050911
1.0052074
1.0053262
1.0054475
1.0055711
1.005697
1.0058249
1.0059547
1.0060863
1.0062195
1.0063543
1.0064903
1.0066274
1.0067654
1.0069041
1.0070433
1.0071828
1.0073223
1.0074616
1.0076004
1.0077386
1.0078758
1.0080118
1.0081463
1.0082791
1.0084098
1.0085382
1.008664
1.0087868
1.0089065
1.0090227
1.009135
1.0092433
1.0093472
1.0094464
1.0095407
1.0096297
1.0097132
1.0097909
1.0098624
1.0099275
1.009986
1.0100374
1.0100816
1.0101181
1.0101466
1.0101669
1.0101788
1.0101819
1.0101761
1.010161
1.0101365
1.0101023
1.0100582
1.0100038
1.0099391
1.0098637
1.0097775
1.0096802
1.0095716
1.0094516
1.00932
1.0091768
1.0090217
1.0088546
1.0086756
1.0084847
1.0082816
1.0080668
1.0078398
1.0076021
1.0073504
1.0070931
1.0030788
1.0030706
1.003083
1.0031042
1.003128
1.0031542
1.0031848
1.0032197
1.0032584
1.0033007
1.0033468
1.0033966
1.0034499
1.0035068
1.0035671
1.003631
1.0036982
1.0037688
1.0038427
1.00392
1.0040005
1.0040843
1.0041712
1.0042613
1.0043546
1.0044509
1.0045502
1.0046526
1.0047578
1.004866
1.0049769
1.0050905
1.0052067
1.0053255
1.0054467
1.0055703
1.005696
1.0058238
1.0059535
1.006085
1.0062182
1.0063528
1.0064886
1.0066256
1.0067635
1.006902
1.0070411
1.0071803
1.0073197
1.0074587
1.0075974
1.0077353
1.0078722
1.0080079
1.0081421
1.0082745
1.0084048
1.0085328
1.0086581
1.0087804
1.0088996
1.0090152
1.0091269
1.0092345
1.0093377
1.0094362
1.0095297
1.0096178
1.0097004
1.0097771
1.0098477
1.0099118
1.0099692
1.0100195
1.0100625
1.0100979
1.0101252
1.0101444
1.0101551
1.0101571
1.0101501
1.010134
1.0101085
1.0100734
1.0100283
1.0099732
1.0099078
1.0098319
1.0097453
1.0096478
1.0095392
1.0094195
1.0092883
1.0091458
1.0089916
1.0088259
1.0086485
1.0084594
1.0082587
1.0080465
1.0078225
1.0075881
1.0073405
1.0070868
1.0030787
1.003071
1.0030834
1.0031045
1.0031283
1.0031545
1.0031852
1.00322
1.0032586
1.003301
1.0033471
1.0033968
1.0034501
1.003507
1.0035673
1.0036311
1.0036983
1.0037689
1.0038428
1.00392
1.0040005
1.0040842
1.0041711
1.0042612
1.0043544
1.0044506
1.0045499
1.0046522
1.0047574
1.0048655
1.0049763
1.0050899
1.0052061
1.0053248
1.0054459
1.0055693
1.005695
1.0058227
1.0059523
1.0060837
1.0062167
1.0063512
1.0064869
1.0066238
1.0067615
1.0068999
1.0070388
1.0071779
1.007317
1.0074559
1.0075943
1.007732
1.0078686
1.008004
1.0081379
1.00827
1.0083999
1.0085275
1.0086524
1.0087742
1.0088929
1.009008
1.0091191
1.0092262
1.0093287
1.0094265
1.0095193
1.0096067
1.0096885
1.0097643
1.009834
1.0098972
1.0099536
1.010003
1.010045
1.0100793
1.0101057
1.0101238
1.0101335
1.0101345
1.0101266
1.0101095
1.0100831
1.0100472
1.0100014
1.0099456
1.0098797
1.0098034
1.0097165
1.0096189
1.0095104
1.0093909
1.0092602
1.0091184
1.0089652
1.0088007
1.0086248
1.0084376
1.008239
1.0080293
1.0078082
1.0075769
1.007333
1.0070828
1.0030785
1.0030713
1.0030838
1.0031048
1.0031286
1.0031548
1.0031855
1.0032203
1.0032589
1.0033012
1.0033473
1.003397
1.0034503
1.0035071
1.0035674
1.0036312
1.0036984
1.0037689
1.0038428
1.00392
1.0040004
1.0040841
1.0041709
1.004261
1.0043541
1.0044503
1.0045496
1.0046518
1.0047569
1.0048649
1.0049757
1.0050892
1.0052053
1.0053239
1.005445
1.0055683
1.0056939
1.0058215
1.005951
1.0060823
1.0062152
1.0063496
1.0064852
1.0066219
1.0067595
1.0068977
1.0070364
1.0071753
1.0073143
1.007453
1.0075911
1.0077286
1.007865
1.0080001
1.0081337
1.0082655
1.0083951
1.0085223
1.0086468
1.0087683
1.0088865
1.0090011
1.0091117
1.0092182
1.0093202
1.0094174
1.0095095
1.0095962
1.0096773
1.0097524
1.0098212
1.0098836
1.0099392
1.0099877
1.0100288
1.0100623
1.0100877
1.010105
1.0101138
1.0101139
1.0101052
1.0100873
1.0100602
1.0100235
1.0099771
1.0099208
1.0098545
1.0097779
1.0096908
1.0095931
1.0094848
1.0093656
1.0092354
1.0090943
1.008942
1.0087787
1.0086043
1.0084188
1.0082222
1.0080149
1.0077965
1.0075681
1.0073277
1.0070808
1.0030783
1.0030715
1.0030841
1.0031051
1.0031289
1.0031551
1.0031857
1.0032206
1.0032591
1.0033015
1.0033475
1.0033972
1.0034504
1.0035072
1.0035675
1.0036312
1.0036984
1.0037689
1.0038427
1.0039199
1.0040003
1.0040839
1.0041707
1.0042607
1.0043538
1.00445
1.0045492
1.0046513
1.0047564
1.0048643
1.004975
1.0050885
1.0052045
1.005323
1.005444
1.0055673
1.0056927
1.0058202
1.0059497
1.0060809
1.0062137
1.0063479
1.0064834
1.00662
1.0067574
1.0068955
1.007034
1.0071728
1.0073116
1.00745
1.007588
1.0077253
1.0078614
1.0079963
1.0081296
1.0082611
1.0083904
1.0085173
1.0086414
1.0087625
1.0088803
1.0089945
1.0091046
1.0092106
1.0093121
1.0094087
1.0095002
1.0095863
1.0096668
1.0097412
1.0098094
1.009871
1.0099259
1.0099736
1.010014
1.0100466
1.0100713
1.0100878
1.0100958
1.0100952
1.0100857
1.0100672
1.0100394
1.0100022
1.0099553
1.0098986
1.0098319
1.0097551
1.0096679
1.0095703
1.0094621
1.0093432
1.0092136
1.0090732
1.0089219
1.0087597
1.0085867
1.0084029
1.0082082
1.0080031
1.0077871
1.0075615
1.0073243
1.0070807
1.0030781
1.0030718
1.0030844
1.0031054
1.0031292
1.0031554
1.003186
1.0032208
1.0032594
1.0033016
1.0033477
1.0033973
1.0034505
1.0035073
1.0035676
1.0036313
1.0036984
1.0037689
1.0038427
1.0039198
1.0040002
1.0040837
1.0041705
1.0042604
1.0043535
1.0044496
1.0045487
1.0046508
1.0047559
1.0048637
1.0049743
1.0050877
1.0052036
1.0053221
1.005443
1.0055662
1.0056915
1.005819
1.0059483
1.0060794
1.006212
1.0063462
1.0064815
1.006618
1.0067553
1.0068932
1.0070316
1.0071702
1.0073088
1.0074471
1.0075849
1.0077219
1.0078579
1.0079925
1.0081256
1.0082568
1.0083858
1.0085124
1.0086362
1.0087569
1.0088743
1.0089881
1.0090978
1.0092034
1.0093044
1.0094005
1.0094915
1.0095771
1.009657
1.0097308
1.0097983
1.0098594
1.0099135
1.0099606
1.0100003
1.0100322
1.0100562
1.010072
1.0100794
1.0100782
1.0100681
1.010049
1.0100207
1.009983
1.0099357
1.0098786
1.0098117
1.0097347
1.0096475
1.00955
1.009442
1.0093236
1.0091945
1.0090548
1.0089044
1.0087434
1.0085717
1.0083894
1.0081966
1.0079935
1.0077799
1.0075568
1.0073225
1.0070822
1.0030779
1.003072
1.0030847
1.0031057
1.0031294
1.0031556
1.0031862
1.003221
1.0032595
1.0033018
1.0033478
1.0033974
1.0034506
1.0035074
1.0035676
1.0036313
1.0036984
1.0037688
1.0038426
1.0039197
1.004
1.0040835
1.0041703
1.0042601
1.0043531
1.0044492
1.0045482
1.0046503
1.0047553
1.0048631
1.0049736
1.0050869
1.0052028
1.0053211
1.0054419
1.005565
1.0056903
1.0058176
1.0059468
1.0060778
1.0062104
1.0063444
1.0064796
1.006616
1.0067531
1.006891
1.0070292
1.0071676
1.007306
1.0074442
1.0075818
1.0077186
1.0078544
1.0079888
1.0081216
1.0082525
1.0083813
1.0085076
1.0086311
1.0087515
1.0088686
1.008982
1.0090914
1.0091965
1.0092971
1.0093928
1.0094833
1.0095684
1.0096477
1.0097211
1.0097881
1.0098485
1.0099021
1.0099486
1.0099877
1.010019
1.0100425
1.0100577
1.0100645
1.0100627
1.0100521
1.0100325
1.0100038
1.0099657
1.0099181
1.0098608
1.0097937
1.0097166
1.0096295
1.0095321
1.0094244
1.0093063
1.0091778
1.0090388
1.0088893
1.0087294
1.008559
1.0083782
1.0081871
1.007986
1.0077746
1.007554
1.0073224
1.007085
1.0030776
1.0030722
1.003085
1.0031059
1.0031297
1.0031558
1.0031864
1.0032212
1.0032597
1.003302
1.0033479
1.0033975
1.0034507
1.0035074
1.0035676
1.0036313
1.0036983
1.0037687
1.0038425
1.0039195
1.0039998
1.0040833
1.00417
1.0042598
1.0043527
1.0044487
1.0045477
1.0046497
1.0047546
1.0048624
1.0049728
1.005086
1.0052018
1.0053201
1.0054408
1.0055638
1.005689
1.0058163
1.0059454
1.0060763
1.0062087
1.0063426
1.0064777
1.0066139
1.006751
1.0068887
1.0070267
1.007165
1.0073033
1.0074412
1.0075787
1.0077153
1.0078509
1.0079851
1.0081177
1.0082484
1.0083769
1.0085029
1.0086262
1.0087463
1.0088631
1.0089761
1.0090852
1.00919
1.0092901
1.0093854
1.0094756
1.0095602
1.0096391
1.009712
1.0097785
1.0098384
1.0098915
1.0099375
1.009976
1.0100069
1.0100298
1.0100445
1.0100509
1.0100487
1.0100377
1.0100177
1.0099886
1.0099502
1.0099023
1.0098449
1.0097777
1.0097006
1.0096135
1.0095163
1.0094089
1.0092913
1.0091634
1.0090251
1.0088765
1.0087176
1.0085485
1.0083691
1.0081797
1.0079803
1.007771
1.0075527
1.0073236
1.0070889
1.0030774
1.0030724
1.0030853
1.0031061
1.0031299
1.003156
1.0031866
1.0032214
1.0032599
1.0033021
1.003348
1.0033976
1.0034508
1.0035075
1.0035676
1.0036312
1.0036983
1.0037686
1.0038423
1.0039193
1.0039996
1.004083
1.0041697
1.0042594
1.0043523
1.0044483
1.0045472
1.0046491
1.004754
1.0048616
1.0049721
1.0050852
1.0052009
1.0053191
1.0054397
1.0055627
1.0056877
1.0058149
1.0059439
1.0060747
1.006207
1.0063408
1.0064758
1.0066119
1.0067488
1.0068863
1.0070243
1.0071624
1.0073005
1.0074383
1.0075756
1.0077121
1.0078474
1.0079815
1.0081139
1.0082443
1.0083726
1.0084984
1.0086214
1.0087412
1.0088577
1.0089705
1.0090792
1.0091837
1.0092835
1.0093785
1.0094682
1.0095525
1.009631
1.0097034
1.0097695
1.0098291
1.0098817
1.0099272
1.0099654
1.0099958
1.0100183
1.0100326
1.0100385
1.0100359
1.0100246
1.0100043
1.0099749
1.0099363
1.0098882
1.0098307
1.0097635
1.0096864
1.0095995
1.0095025
1.0093955
1.0092783
1.009151
1.0090134
1.0088657
1.0087078
1.0085399
1.0083618
1.008174
1.0079764
1.007769
1.0075528
1.0073261
1.0070938
1.0030772
1.0030726
1.0030855
1.0031063
1.00313
1.0031562
1.0031868
1.0032215
1.00326
1.0033022
1.0033481
1.0033977
1.0034508
1.0035075
1.0035676
1.0036312
1.0036982
1.0037685
1.0038422
1.0039191
1.0039993
1.0040827
1.0041693
1.0042591
1.0043519
1.0044478
1.0045467
1.0046485
1.0047533
1.0048609
1.0049713
1.0050843
1.0051999
1.0053181
1.0054386
1.0055614
1.0056864
1.0058135
1.0059424
1.0060731
1.0062053
1.006339
1.0064739
1.0066098
1.0067466
1.006884
1.0070219
1.0071599
1.0072978
1.0074355
1.0075726
1.0077089
1.007844
1.0079779
1.0081101
1.0082404
1.0083684
1.008494
1.0086167
1.0087363
1.0088526
1.0089651
1.0090736
1.0091777
1.0092773
1.0093719
1.0094613
1.0095452
1.0096234
1.0096955
1.0097612
1.0098204
1.0098726
1.0099178
1.0099555
1.0099856
1.0100077
1.0100217
1.0100273
1.0100243
1.0100127
1.0099922
1.0099626
1.0099238
1.0098757
1.0098181
1.0097509
1.0096739
1.0095872
1.0094905
1.0093838
1.0092671
1.0091404
1.0090035
1.0088567
1.0086998
1.008533
1.0083563
1.0081698
1.0079739
1.0077684
1.0075542
1.0073298
1.0070997
1.0030769
1.0030727
1.0030857
1.0031065
1.0031302
1.0031563
1.0031869
1.0032216
1.0032601
1.0033023
1.0033482
1.0033977
1.0034508
1.0035075
1.0035676
1.0036311
1.0036981
1.0037684
1.003842
1.0039189
1.0039991
1.0040824
1.004169
1.0042587
1.0043515
1.0044473
1.0045461
1.0046479
1.0047526
1.0048602
1.0049704
1.0050834
1.005199
1.005317
1.0054375
1.0055602
1.0056851
1.0058121
1.0059409
1.0060715
1.0062036
1.0063372
1.006472
1.0066078
1.0067445
1.0068817
1.0070194
1.0071573
1.0072951
1.0074326
1.0075696
1.0077057
1.0078407
1.0079744
1.0081064
1.0082365
1.0083644
1.0084897
1.0086123
1.0087316
1.0088477
1.0089599
1.0090681
1.009172
1.0092713
1.0093656
1.0094548
1.0095384
1.0096163
1.009688
1.0097534
1.0098123
1.0098642
1.009909
1.0099464
1.0099762
1.009998
1.0100117
1.010017
1.0100139
1.010002
1.0099813
1.0099516
1.0099127
1.0098645
1.0098069
1.0097398
1.009663
1.0095764
1.0094801
1.0093738
1.0092576
1.0091314
1.0089953
1.0088493
1.0086933
1.0085276
1.0083522
1.0081672
1.0079728
1.007769
1.0075567
1.0073344
1.0071064
1.0030766
1.0030729
1.0030859
1.0031067
1.0031304
1.0031565
1.003187
1.0032218
1.0032602
1.0033024
1.0033482
1.0033978
1.0034508
1.0035074
1.0035675
1.003631
1.003698
1.0037682
1.0038418
1.0039187
1.0039988
1.0040821
1.0041686
1.0042583
1.004351
1.0044468
1.0045456
1.0046473
1.0047519
1.0048594
1.0049696
1.0050825
1.005198
1.005316
1.0054363
1.005559
1.0056838
1.0058107
1.0059394
1.0060699
1.0062019
1.0063353
1.00647
1.0066057
1.0067423
1.0068795
1.007017
1.0071548
1.0072924
1.0074298
1.0075666
1.0077026
1.0078374
1.0079709
1.0081028
1.0082327
1.0083604
1.0084856
1.0086079
1.0087271
1.0088429
1.0089549
1.0090629
1.0091666
1.0092656
1.0093597
1.0094486
1.0095319
1.0096095
1.009681
1.0097462
1.0098047
1.0098564
1.0099009
1.0099381
1.0099676
1.0099892
1.0100026
1.0100077
1.0100044
1.0099924
1.0099716
1.0099417
1.0099028
1.0098546
1.009797
1.00973
1.0096534
1.0095671
1.0094711
1.0093652
1.0092495
1.0091239
1.0089886
1.0088433
1.0086883
1.0085237
1.0083494
1.0081658
1.0079729
1.0077707
1.0075602
1.0073399
1.0071138
1.0030764
1.003073
1.0030861
1.0031068
1.0031305
1.0031566
1.0031872
1.0032219
1.0032603
1.0033024
1.0033483
1.0033978
1.0034508
1.0035074
1.0035675
1.003631
1.0036978
1.0037681
1.0038416
1.0039185
1.0039985
1.0040818
1.0041683
1.0042579
1.0043505
1.0044463
1.004545
1.0046467
1.0047512
1.0048586
1.0049688
1.0050816
1.005197
1.0053149
1.0054352
1.0055578
1.0056825
1.0058093
1.0059379
1.0060683
1.0062002
1.0063335
1.0064681
1.0066037
1.0067401
1.0068772
1.0070146
1.0071522
1.0072898
1.007427
1.0075637
1.0076995
1.0078342
1.0079676
1.0080993
1.008229
1.0083565
1.0084815
1.0086037
1.0087227
1.0088383
1.0089501
1.0090579
1.0091614
1.0092602
1.0093541
1.0094427
1.0095259
1.0096032
1.0096745
1.0097394
1.0097977
1.0098491
1.0098934
1.0099304
1.0099597
1.009981
1.0099943
1.0099993
1.0099958
1.0099837
1.0099628
1.0099329
1.009894
1.0098458
1.0097884
1.0097215
1.0096451
1.0095591
1.0094634
1.0093579
1.0092427
1.0091178
1.0089831
1.0088387
1.0086846
1.008521
1.0083479
1.0081655
1.007974
1.0077734
1.0075645
1.0073462
1.0071219
1.0030761
1.0030732
1.0030863
1.003107
1.0031306
1.0031567
1.0031873
1.0032219
1.0032604
1.0033025
1.0033483
1.0033978
1.0034508
1.0035074
1.0035674
1.0036308
1.0036977
1.0037679
1.0038414
1.0039182
1.0039983
1.0040815
1.0041679
1.0042574
1.0043501
1.0044457
1.0045444
1.004646
1.0047505
1.0048578
1.0049679
1.0050807
1.005196
1.0053138
1.005434
1.0055565
1.0056812
1.0058078
1.0059364
1.0060667
1.0061985
1.0063317
1.0064662
1.0066017
1.006738
1.0068749
1.0070123
1.0071498
1.0072872
1.0074243
1.0075608
1.0076965
1.0078311
1.0079643
1.0080958
1.0082254
1.0083528
1.0084776
1.0085996
1.0087184
1.0088339
1.0089455
1.0090531
1.0091564
1.009255
1.0093487
1.0094372
1.0095201
1.0095973
1.0096683
1.009733
1.0097911
1.0098424
1.0098865
1.0099233
1.0099524
1.0099736
1.0099868
1.0099916
1.009988
1.0099759
1.0099549
1.0099251
1.0098862
1.0098381
1.0097808
1.0097141
1.0096379
1.0095522
1.0094569
1.0093519
1.0092372
1.0091129
1.0089789
1.0088353
1.0086821
1.0085194
1.0083475
1.0081663
1.0079761
1.007777
1.0075697
1.0073532
1.0071305
1.0030758
1.0030733
1.0030864
1.0031071
1.0031307
1.0031569
1.0031874
1.003222
1.0032604
1.0033025
1.0033483
1.0033978
1.0034508
1.0035073
1.0035673
1.0036307
1.0036976
1.0037677
1.0038412
1.003918
1.003998
1.0040812
1.0041675
1.004257
1.0043496
1.0044452
1.0045438
1.0046454
1.0047498
1.0048571
1.0049671