/*--------------------------------*- C++ -*----------------------------------*\
| =========                 |                                                 |
| \\      /  F ield         | OpenFOAM: The Open Source CFD Toolbox           |
|  \\    /   O peration     | Version:  2406                                  |
|   \\  /    A nd           | Website:  www.openfoam.com                      |
|    \\/     M anipulation  |                                                 |
\*---------------------------------------------------------------------------*/
FoamFile
{
    version     2.0;
    format      ascii;
    arch        "LSB;label=32;scalar=64";
    class       volScalarField;
    location    "700";
    object      pPrime2Mean;
}
// * * * * * * * * * * * * * * * * * * * * * * * * * * * * * * * * * * * * * //

dimensions      [2 -2 -4 0 0 0 0];

internalField   nonuniform List<scalar> 
132739
(
1.9781598e-08
2.3949453e-08
2.6552454e-08
2.627303e-08
2.7053726e-08
2.8772866e-08
3.0400585e-08
3.2070881e-08
3.4000591e-08
3.6149961e-08
3.8489598e-08
4.1042173e-08
4.3830414e-08
4.6867704e-08
5.0162912e-08
5.3730271e-08
5.7594354e-08
6.1785252e-08
6.6312831e-08
7.1198017e-08
7.6474749e-08
8.2166165e-08
8.8296784e-08
9.4903349e-08
1.0202268e-07
1.0967291e-07
1.1789982e-07
1.267306e-07
1.3620292e-07
1.4638501e-07
1.5727429e-07
1.6895131e-07
1.8149091e-07
1.9487573e-07
2.0923926e-07
2.2456814e-07
2.4096018e-07
2.5853636e-07
2.7722135e-07
2.9719301e-07
3.1854646e-07
3.4127152e-07
3.6541714e-07
3.9113596e-07
4.1853686e-07
4.4753247e-07
4.7823313e-07
5.1083245e-07
5.4529739e-07
5.817205e-07
6.2020696e-07
6.6092579e-07
7.0397802e-07
7.490859e-07
7.9701285e-07
8.4746963e-07
9.0026204e-07
9.5574765e-07
1.0143061e-06
1.0756001e-06
1.1394124e-06
1.2054617e-06
1.2745623e-06
1.3466338e-06
1.4218651e-06
1.5006691e-06
1.5829169e-06
1.6686868e-06
1.7585931e-06
1.8526694e-06
1.950858e-06
2.053567e-06
2.1608794e-06
2.2731718e-06
2.3906333e-06
2.5141364e-06
2.6450016e-06
2.7840473e-06
2.9320819e-06
3.0900649e-06
3.2591226e-06
3.4405233e-06
3.6359215e-06
3.8471772e-06
4.0763452e-06
4.326095e-06
4.5989734e-06
4.8972627e-06
5.2234437e-06
5.5804804e-06
5.9719105e-06
6.4016018e-06
6.8735429e-06
7.3921104e-06
7.9611619e-06
8.5854124e-06
9.2694731e-06
1.0018854e-05
1.0838358e-05
1.1735015e-05
1.2710341e-05
1.3766897e-05
1.4898248e-05
1.6080556e-05
1.9792132e-08
2.3972353e-08
2.658858e-08
2.6296963e-08
2.7076485e-08
2.8796965e-08
3.0424458e-08
3.2094473e-08
3.402376e-08
3.6172734e-08
3.8511802e-08
4.1063777e-08
4.3851061e-08
4.6887615e-08
5.0181479e-08
5.3747045e-08
5.7609365e-08
6.1798339e-08
6.6322931e-08
7.1205215e-08
7.6479932e-08
8.2168965e-08
8.829805e-08
9.4900845e-08
1.0201795e-07
1.0966664e-07
1.1789219e-07
1.2672543e-07
1.3619381e-07
1.4637709e-07
1.5727714e-07
1.6895835e-07
1.8149888e-07
1.9489357e-07
2.0927001e-07
2.2461881e-07
2.4102072e-07
2.5861181e-07
2.7734516e-07
2.9734771e-07
3.1871896e-07
3.4149656e-07
3.6569155e-07
3.9146101e-07
4.1892798e-07
4.4803027e-07
4.7890302e-07
5.1165677e-07
5.462855e-07
5.8286383e-07
6.2151873e-07
6.6257477e-07
7.0561609e-07
7.5124694e-07
7.9909806e-07
8.4973792e-07
9.0227316e-07
9.5728025e-07
1.0152076e-06
1.0757979e-06
1.1395697e-06
1.2061013e-06
1.2760981e-06
1.349103e-06
1.4253886e-06
1.5050206e-06
1.5880308e-06
1.6744968e-06
1.7649028e-06
1.8592511e-06
1.9577299e-06
2.0606433e-06
2.1681309e-06
2.2806093e-06
2.3981685e-06
2.5213221e-06
2.6511535e-06
2.7883414e-06
2.9337797e-06
3.0884717e-06
3.2536235e-06
3.4304891e-06
3.6205541e-06
3.8253074e-06
4.046178e-06
4.2850948e-06
4.5443096e-06
4.8262102e-06
5.1332303e-06
5.4678999e-06
5.8332311e-06
6.2323248e-06
6.6685838e-06
7.1462505e-06
7.6695635e-06
8.2428353e-06
8.8704354e-06
9.5579341e-06
1.0309794e-05
1.1132556e-05
1.2032365e-05
1.3017806e-05
1.4105812e-05
1.5302839e-05
1.980167e-08
2.4000403e-08
2.6630393e-08
2.6321568e-08
2.7101451e-08
2.8826454e-08
3.0456066e-08
3.2128792e-08
3.4061531e-08
3.6214044e-08
3.8557351e-08
4.1114378e-08
4.3906844e-08
4.6949088e-08
5.0249147e-08
5.3821857e-08
5.7691452e-08
6.188859e-08
6.6421714e-08
7.1314302e-08
7.6602152e-08
8.2302849e-08
8.8446879e-08
9.5066759e-08
1.0220268e-07
1.0987235e-07
1.181218e-07
1.269857e-07
1.3648174e-07
1.4669801e-07
1.5764218e-07
1.6937203e-07
1.8196236e-07
1.9541585e-07
2.0985685e-07
2.2528198e-07
2.417658e-07
2.5943947e-07
2.7828419e-07
2.9840518e-07
3.1990085e-07
3.4282341e-07
3.6717496e-07
3.9310519e-07
4.2077272e-07
4.5013294e-07
4.8129478e-07
5.1437325e-07
5.493331e-07
5.8630379e-07
6.2530713e-07
6.6659522e-07
7.0986294e-07
7.5569599e-07
8.0373322e-07
8.5442144e-07
9.0751626e-07
9.6316382e-07
1.0217364e-06
1.083177e-06
1.147636e-06
1.2151939e-06
1.2861332e-06
1.3600725e-06
1.4372858e-06
1.5178713e-06
1.6019466e-06
1.6895668e-06
1.7811922e-06
1.8769794e-06
1.9770246e-06
2.0814936e-06
2.1906961e-06
2.3050659e-06
2.4248641e-06
2.5507904e-06
2.6840123e-06
2.8252064e-06
2.9750024e-06
3.1342674e-06
3.3041154e-06
3.485602e-06
3.6801408e-06
3.8893469e-06
4.1147133e-06
4.3579814e-06
4.6212532e-06
4.9066003e-06
5.2162716e-06
5.5530407e-06
5.9197169e-06
6.3191201e-06
6.7548469e-06
7.2306062e-06
7.7503614e-06
8.3185157e-06
8.9394625e-06
9.6180822e-06
1.0359424e-05
1.1167918e-05
1.2051186e-05
1.3007965e-05
1.4068131e-05
1.5160678e-05
1.9809351e-08
2.4027805e-08
2.6662069e-08
2.6340365e-08
2.7122534e-08
2.885045e-08
3.0479765e-08
3.2153388e-08
3.408734e-08
3.6240825e-08
3.8585019e-08
4.1142944e-08
4.3937035e-08
4.6980575e-08
5.0281449e-08
5.3855908e-08
5.7726978e-08
6.1925269e-08
6.6459788e-08
7.1353793e-08
7.6645198e-08
8.234862e-08
8.8495794e-08
9.5121083e-08
1.0226196e-07
1.0993836e-07
1.1819336e-07
1.2706929e-07
1.3657747e-07
1.4680637e-07
1.5776983e-07
1.6951921e-07
1.8213269e-07
1.9561181e-07
2.1008368e-07
2.2554882e-07
2.4207268e-07
2.5978757e-07
2.7869209e-07
2.9888344e-07
3.2042485e-07
3.4342513e-07
3.678965e-07
3.9390281e-07
4.2166381e-07
4.5114442e-07
4.8240905e-07
5.1560614e-07
5.5071932e-07
5.879343e-07
6.2716446e-07
6.6877354e-07
7.123394e-07
7.5847923e-07
8.0686595e-07
8.5781644e-07
9.1132009e-07
9.6726506e-07
1.0261883e-06
1.0879621e-06
1.1524865e-06
1.2204036e-06
1.291713e-06
1.366218e-06
1.4440685e-06
1.5252679e-06
1.609986e-06
1.6982781e-06
1.7905058e-06
1.8869466e-06
1.9876367e-06
2.0928209e-06
2.2028599e-06
2.3179492e-06
2.4383726e-06
2.5648468e-06
2.6984235e-06
2.8398761e-06
2.9899502e-06
3.1495816e-06
3.3200087e-06
3.5025347e-06
3.6985397e-06
3.9095643e-06
4.1372765e-06
4.3833586e-06
4.6497918e-06
4.9385588e-06
5.2517067e-06
5.5917109e-06
5.9612729e-06
6.3633922e-06
6.8009472e-06
7.2772845e-06
7.7962791e-06
8.3618126e-06
8.9784012e-06
9.6506523e-06
1.038281e-05
1.1179117e-05
1.2048517e-05
1.2985279e-05
1.4022089e-05
1.5096488e-05
1.9816311e-08
2.4055831e-08
2.669381e-08
2.6358669e-08
2.7143767e-08
2.8874082e-08
3.0503585e-08
3.2178992e-08
3.4115149e-08
3.6270519e-08
3.8616773e-08
4.1177662e-08
4.3974774e-08
4.7020991e-08
5.0324877e-08
5.3903672e-08
5.7778209e-08
6.1980133e-08
6.6519349e-08
7.1417355e-08
7.671579e-08
8.2426015e-08
8.8579098e-08
9.5213963e-08
1.023642e-07
1.1005111e-07
1.183199e-07
1.2721193e-07
1.3673595e-07
1.4698284e-07
1.5797087e-07
1.6974858e-07
1.8239238e-07
1.9590386e-07
2.1041569e-07
2.2592987e-07
2.4250214e-07
2.6026803e-07
2.7923742e-07
2.9951615e-07
3.2113133e-07
3.4419424e-07
3.6879e-07
3.9491926e-07
4.2278241e-07
4.5239763e-07
4.8381203e-07
5.1719546e-07
5.5249934e-07
5.8986885e-07
6.2931673e-07
6.7106583e-07
7.1488143e-07
7.6123126e-07
8.0991515e-07
8.6112603e-07
9.1498528e-07
9.7136019e-07
1.0306738e-06
1.0928744e-06
1.1579871e-06
1.2265096e-06
1.2983031e-06
1.3732584e-06
1.4516059e-06
1.5333576e-06
1.6187271e-06
1.707772e-06
1.8007727e-06
1.8980674e-06
1.9997091e-06
2.1058925e-06
2.2170194e-06
2.3332389e-06
2.4550162e-06
2.5832179e-06
2.7187715e-06
2.8623961e-06
3.0147163e-06
3.1767117e-06
3.3493005e-06
3.5337206e-06
3.7313528e-06
3.9436027e-06
4.1721928e-06
4.4185769e-06
4.6847277e-06
4.9727691e-06
5.284642e-06
5.6226994e-06
5.9895221e-06
6.3881254e-06
6.8214443e-06
7.2924084e-06
7.8045651e-06
8.3617812e-06
8.967942e-06
9.6272056e-06
1.0344467e-05
1.1123284e-05
1.1971977e-05
1.2887172e-05
1.3895311e-05
1.4955842e-05
1.9821974e-08
2.4084451e-08
2.6719297e-08
2.6373889e-08
2.7162807e-08
2.8894783e-08
3.0523968e-08
3.2200633e-08
3.4138035e-08
3.6294362e-08
3.8641762e-08
4.1204238e-08
4.4002716e-08
4.7050157e-08
5.0355559e-08
5.3936808e-08
5.7812262e-08
6.2015138e-08
6.6556878e-08
7.145632e-08
7.6757795e-08
8.2471546e-08
8.862757e-08
9.5266805e-08
1.0242268e-07
1.1011539e-07
1.1839158e-07
1.2729433e-07
1.3682893e-07
1.4708763e-07
1.5809293e-07
1.6988879e-07
1.8255298e-07
1.9608922e-07
2.1062923e-07
2.2618211e-07
2.4278975e-07
2.6059093e-07
2.7961299e-07
2.9994698e-07
3.2162162e-07
3.4476324e-07
3.6942567e-07
3.9563464e-07
4.2361445e-07
4.5332912e-07
4.848343e-07
5.183549e-07
5.5379164e-07
5.9129638e-07
6.3094036e-07
6.7287157e-07
7.1693921e-07
7.6350694e-07
8.1247949e-07
8.6393222e-07
9.1809424e-07
9.7481599e-07
1.034456e-06
1.0969999e-06
1.1623771e-06
1.2311862e-06
1.3033355e-06
1.3786733e-06
1.4574746e-06
1.539764e-06
1.625665e-06
1.7153269e-06
1.8089253e-06
1.9068037e-06
2.0091121e-06
2.1159977e-06
2.2278978e-06
2.3449142e-06
2.4674641e-06
2.5964042e-06
2.7326427e-06
2.8769259e-06
3.0298826e-06
3.1926176e-06
3.3660786e-06
3.5515538e-06
3.7504239e-06
3.9640681e-06
4.1942653e-06
4.4424282e-06
4.7103002e-06
4.9998723e-06
5.3130015e-06
5.651758e-06
6.0185487e-06
6.4161552e-06
6.8474697e-06
7.3155057e-06
7.8233567e-06
8.3744183e-06
8.972918e-06
9.6224866e-06
1.0327847e-05
1.1092116e-05
1.192314e-05
1.2817574e-05
1.3799362e-05
1.482884e-05
1.9826744e-08
2.4113593e-08
2.6743671e-08
2.6387552e-08
2.7181186e-08
2.8914309e-08
3.0542813e-08
3.2220902e-08
3.4159888e-08
3.6317311e-08
3.8665917e-08
4.1230233e-08
4.4030379e-08
4.7079418e-08
5.0386832e-08
5.3970586e-08
5.7847643e-08
6.2052046e-08
6.6596486e-08
7.1497913e-08
7.6802759e-08
8.2519736e-08
8.8679815e-08
9.5323606e-08
1.0248473e-07
1.1018457e-07
1.1846873e-07
1.27381e-07
1.3692388e-07
1.4719447e-07
1.5821668e-07
1.7003176e-07
1.8271443e-07
1.9627395e-07
2.1083988e-07
2.2642591e-07
2.4306871e-07
2.6090606e-07
2.7997402e-07
3.0036422e-07
3.2209054e-07
3.4528493e-07
3.7003205e-07
3.9632366e-07
4.2438455e-07
4.5419144e-07
4.8579921e-07
5.1944375e-07
5.5501375e-07
5.9263293e-07
6.3245329e-07
6.7452328e-07
7.187609e-07
7.6552665e-07
8.1470831e-07
8.6635453e-07
9.2077498e-07
9.7778378e-07
1.0376337e-06
1.1005382e-06
1.1663346e-06
1.2354363e-06
1.3079195e-06
1.3836232e-06
1.4628143e-06
1.5455162e-06
1.6318668e-06
1.7220283e-06
1.8161881e-06
1.9146279e-06
2.017553e-06
2.1251327e-06
2.2377536e-06
2.3555487e-06
2.4790106e-06
2.6090726e-06
2.7465487e-06
2.8921453e-06
3.0465725e-06
3.2107925e-06
3.3856333e-06
3.5723962e-06
3.7724527e-06
3.987063e-06
4.2179057e-06
4.4665891e-06
4.7347439e-06
5.0242376e-06
5.3369783e-06
5.6750514e-06
6.0407512e-06
6.4365911e-06
6.8653579e-06
7.3299695e-06
7.8332835e-06
8.3788396e-06
8.9699284e-06
9.609924e-06
1.0304211e-05
1.1054889e-05
1.1869479e-05
1.2744366e-05
1.3704181e-05
1.4702656e-05
1.9830255e-08
2.4142342e-08
2.6763247e-08
2.6399108e-08
2.719831e-08
2.8932037e-08
3.0559497e-08
3.2238882e-08
3.4179088e-08
3.6337256e-08
3.868652e-08
4.1252036e-08
4.4053652e-08
4.7103425e-08
5.041218e-08
5.3997726e-08
5.7875061e-08
6.2079667e-08
6.6625726e-08
7.1528658e-08
7.6835023e-08
8.2553666e-08
8.8716998e-08
9.5363446e-08
1.0252719e-07
1.10232e-07
1.1852123e-07
1.274407e-07
1.3699006e-07
1.4727078e-07
1.5830622e-07
1.7013257e-07
1.8283017e-07
1.9641139e-07
2.1099969e-07
2.2660838e-07
2.4328023e-07
2.6115344e-07
2.8025745e-07
3.0068878e-07
3.2246645e-07
3.4571001e-07
3.7051896e-07
3.9687716e-07
4.2500498e-07
4.5489851e-07
4.8659347e-07
5.203299e-07
5.5601506e-07
5.9374307e-07
6.336966e-07
6.7589683e-07
7.2030301e-07
7.67236e-07
8.1661496e-07
8.6846148e-07
9.231102e-07
9.8038346e-07
1.0404511e-06
1.1036315e-06
1.169706e-06
1.2390288e-06
1.3118022e-06
1.3878089e-06
1.4673182e-06
1.5503885e-06
1.6371588e-06
1.7277376e-06
1.8224165e-06
1.9213696e-06
2.0247198e-06
2.1328868e-06
2.2461485e-06
2.3645818e-06
2.4887177e-06
2.6194792e-06
2.7576142e-06
2.9038689e-06
3.0589395e-06
3.2238503e-06
3.3993718e-06
3.5868469e-06
3.7876991e-06
4.003085e-06
4.2346458e-06
4.4840606e-06
4.7528039e-06
5.0425765e-06
5.3553068e-06
5.6929754e-06
6.0577023e-06
6.4518543e-06
6.8781096e-06
7.3391716e-06
7.8378919e-06
8.3775699e-06
8.9612623e-06
9.5925836e-06
1.0275793e-05
1.1013086e-05
1.1812216e-05
1.266836e-05
1.3608068e-05
1.4577305e-05
1.9833722e-08
2.4169288e-08
2.678105e-08
2.6409105e-08
2.7214438e-08
2.8948311e-08
3.0574656e-08
3.2255245e-08
3.4196561e-08
3.635537e-08
3.8705163e-08
4.1272092e-08
4.4074877e-08
4.7125118e-08
5.0435504e-08
5.4022437e-08
5.7900129e-08
6.2105302e-08
6.6652265e-08
7.1556578e-08
7.6863928e-08
8.2584147e-08
8.874969e-08
9.5398487e-08
1.0256466e-07
1.1027274e-07
1.1856555e-07
1.2749173e-07
1.3704798e-07
1.4733532e-07
1.5838204e-07
1.7021858e-07
1.8292862e-07
1.9652902e-07
2.1113591e-07
2.2676447e-07
2.4345957e-07
2.6136342e-07
2.8049538e-07
3.00961e-07
3.2278943e-07
3.4607351e-07
3.7093261e-07
3.9735432e-07
4.2553202e-07
4.5549448e-07
4.8727501e-07
5.2109509e-07
5.5686642e-07
5.9468834e-07
6.3476438e-07
6.7707406e-07
7.2161296e-07
7.6868014e-07
8.182167e-07
8.7022231e-07
9.2504922e-07
9.8252825e-07
1.0427918e-06
1.1062011e-06
1.1725232e-06
1.2420734e-06
1.3150561e-06
1.3913447e-06
1.4711276e-06
1.5544935e-06
1.6415875e-06
1.7325048e-06
1.8275723e-06
1.9269636e-06
2.0308026e-06
2.1394077e-06
2.2531463e-06
2.3721364e-06
2.4969229e-06
2.6284176e-06
2.7673658e-06
2.914499e-06
3.0704723e-06
3.236322e-06
3.4127091e-06
3.6010734e-06
3.8027483e-06
4.018672e-06
4.2506841e-06
4.500342e-06
4.7691278e-06
5.0587306e-06
5.3708386e-06
5.7075754e-06
6.0709953e-06
6.4632369e-06
6.8868684e-06
7.3444464e-06
7.8387975e-06
8.3729136e-06
8.9497524e-06
9.5724924e-06
1.0245198e-05
1.0970194e-05
1.1755144e-05
1.2593481e-05
1.3514563e-05
1.4457534e-05
1.9837133e-08
2.4194217e-08
2.6794881e-08
2.641732e-08
2.7229704e-08
2.896316e-08
3.0588198e-08
3.2270035e-08
3.4212104e-08
3.637133e-08
3.8721467e-08
4.1289643e-08
4.4093383e-08
4.7143786e-08
5.0455027e-08
5.4042865e-08
5.7920673e-08
6.2125704e-08
6.6672879e-08
7.1577885e-08
7.6885239e-08
8.2606306e-08
8.8773593e-08
9.542359e-08
1.0259038e-07
1.1030094e-07
1.1859707e-07
1.2752715e-07
1.3708883e-07
1.4738038e-07
1.584352e-07
1.7028115e-07
1.8299972e-07
1.9661717e-07
2.1123614e-07
2.2688116e-07
2.4360238e-07
2.6152776e-07
2.8068533e-07
3.0118007e-07
3.2304901e-07
3.463647e-07
3.7126452e-07
3.9774304e-07
4.2596545e-07
4.5598703e-07
4.8783881e-07
5.2170988e-07
5.5755868e-07
5.9549288e-07
6.3564906e-07
6.7802911e-07
7.227198e-07
7.6990746e-07
8.1955717e-07
8.7171972e-07
9.2669776e-07
9.8434298e-07
1.0448075e-06
1.1083888e-06
1.174877e-06
1.2446792e-06
1.3178374e-06
1.3943291e-06
1.4743609e-06
1.5579366e-06
1.6453485e-06
1.736542e-06
1.8319338e-06
1.9317054e-06
2.0359191e-06
2.1449673e-06
2.2591439e-06
2.378608e-06
2.5039313e-06
2.6359315e-06
2.7754019e-06
2.9230891e-06
3.0795537e-06
3.2460446e-06
3.422818e-06
3.6114555e-06
3.8137487e-06
4.0301992e-06
4.2625109e-06
4.5122916e-06
4.7811234e-06
5.0704826e-06
5.3820445e-06
5.7179177e-06
6.0799516e-06
6.4702737e-06
6.8913242e-06
7.3454142e-06
7.835451e-06
8.3642779e-06
8.9344726e-06
9.5491753e-06
1.0212404e-05
1.0925645e-05
1.169676e-05
1.2518594e-05
1.3421986e-05
1.4341925e-05
1.9840043e-08
2.4217064e-08
2.680675e-08
2.6424526e-08
2.7244222e-08
2.8976604e-08
3.0600281e-08
3.2283401e-08
3.422601e-08
3.6385496e-08
3.8735971e-08
4.1305185e-08
4.410959e-08
4.7160219e-08
5.0471913e-08
5.406039e-08
5.7938369e-08
6.2142983e-08
6.6690303e-08
7.1595266e-08
7.6902558e-08
8.2623843e-08
8.8791684e-08
9.5442826e-08
1.0260976e-07
1.1032154e-07
1.1862001e-07
1.2755233e-07
1.3711744e-07
1.4741358e-07
1.5847445e-07
1.7032649e-07
1.8305258e-07
1.9668297e-07
2.1131287e-07
2.2697077e-07
2.4371426e-07
2.6165423e-07
2.8083068e-07
3.0135287e-07
3.2325342e-07
3.4659842e-07
3.7153356e-07
3.9805521e-07
4.2630824e-07
4.5638116e-07
4.8829608e-07
5.2221352e-07
5.5812549e-07
5.9614393e-07
6.3637865e-07
6.7881389e-07
7.2360762e-07
7.7090904e-07
8.2064712e-07
8.7293288e-07
9.2804426e-07
9.8581333e-07
1.0464557e-06
1.1101799e-06
1.1767797e-06
1.2467787e-06
1.320083e-06
1.3967169e-06
1.4769716e-06
1.560758e-06
1.64845e-06
1.7398107e-06
1.8354284e-06
1.9355487e-06
2.0399901e-06
2.1494206e-06
2.263966e-06
2.3838023e-06
2.5095639e-06
2.6420799e-06
2.7820884e-06
2.9302664e-06
3.0873352e-06
3.2542898e-06
3.4317153e-06
3.6210429e-06
3.823534e-06
4.0402942e-06
4.2727681e-06
4.522459e-06
4.7910498e-06
5.0800156e-06
5.3907606e-06
5.72537e-06
6.0858437e-06
6.4740113e-06
6.8923378e-06
7.3429115e-06
7.8285117e-06
8.3521068e-06
8.9160073e-06
9.5232042e-06
1.0177294e-05
1.0879629e-05
1.1638074e-05
1.2445003e-05
1.3330793e-05
1.4230699e-05
1.9843269e-08
2.4238259e-08
2.6815448e-08
2.6430216e-08
2.7257825e-08
2.8988915e-08
3.0610988e-08
3.2295431e-08
3.4238542e-08
3.6397979e-08
3.8748778e-08
4.1318806e-08
4.4123587e-08
4.7174277e-08
5.0486106e-08
5.4075133e-08
5.7952922e-08
6.2156429e-08
6.6703714e-08
7.1608101e-08
7.6914288e-08
8.2635372e-08
8.8803591e-08
9.5455248e-08
1.0262158e-07
1.1033351e-07
1.1863316e-07
1.2756678e-07
1.3713409e-07
1.474325e-07
1.5849832e-07
1.7035503e-07
1.8308587e-07
1.9672588e-07
2.1136477e-07
2.2703451e-07
2.4379407e-07
2.6174657e-07
2.8094103e-07
3.0148117e-07
3.2340637e-07
3.4677997e-07
3.7173941e-07
3.9829462e-07
4.2657941e-07
4.5669005e-07
4.8865552e-07
5.2261201e-07
5.5857155e-07
5.9665234e-07
6.3695046e-07
6.7945526e-07
7.2433223e-07
7.717085e-07
8.2153364e-07
8.7392335e-07
9.2913324e-07
9.8701694e-07
1.0477586e-06
1.1116203e-06
1.1783727e-06
1.2485146e-06
1.3219379e-06
1.3986763e-06
1.4790806e-06
1.5630628e-06
1.6508748e-06
1.7424576e-06
1.8383294e-06
1.9386422e-06
2.0433989e-06
2.153107e-06
2.2679139e-06
2.38807e-06
2.5141774e-06
2.6470844e-06
2.78752e-06
2.9360485e-06
3.0934514e-06
3.2607248e-06
3.4385406e-06
3.6281152e-06
3.8307526e-06
4.0476744e-06
4.2802008e-06
4.5297199e-06
4.7979679e-06
5.0864298e-06
5.3963674e-06
5.729751e-06
6.0885686e-06
6.4746735e-06
6.8902456e-06
7.3372733e-06
7.8185801e-06
8.3371062e-06
8.8948918e-06
9.4947453e-06
1.0140189e-05
1.0832509e-05
1.1578699e-05
1.2371881e-05
1.3240881e-05
1.4124562e-05
1.9845513e-08
2.4258901e-08
2.6821838e-08
2.6434877e-08
2.727077e-08
2.9000166e-08
3.0620423e-08
3.2306172e-08
3.4249622e-08
3.6408923e-08
3.8760017e-08
4.133072e-08
4.4135666e-08
4.7186387e-08
5.049807e-08
5.4086984e-08
5.7964675e-08
6.2167188e-08
6.6713941e-08
7.1617417e-08
7.6922156e-08
8.2642951e-08
8.8811108e-08
9.5461802e-08
1.026269e-07
1.1033908e-07
1.1863859e-07
1.2757144e-07
1.3714045e-07
1.4744146e-07
1.5850966e-07
1.7036863e-07
1.8310472e-07
1.9675144e-07
2.1139426e-07
2.2707532e-07
2.4384456e-07
2.6180539e-07
2.8101993e-07
3.0157322e-07
3.2351041e-07
3.4691106e-07
3.7189356e-07
3.9846897e-07
4.2678008e-07
4.5692073e-07
4.8892521e-07
5.2291696e-07
5.5890492e-07
5.9704441e-07
6.3739289e-07
6.799328e-07
7.2488564e-07
7.7233378e-07
8.2221745e-07
8.7468698e-07
9.2998428e-07
9.8795773e-07
1.0487793e-06
1.1127455e-06
1.1795922e-06
1.24981e-06
1.3233491e-06
1.4001822e-06
1.4807323e-06
1.564795e-06
1.6527237e-06
1.7445744e-06
1.8405891e-06
1.9410237e-06
2.0459731e-06
2.1558707e-06
2.2709651e-06
2.3913977e-06
2.5176914e-06
2.6509342e-06
2.7917431e-06
2.9405553e-06
3.0982636e-06
3.2658924e-06
3.4440213e-06
3.6338064e-06
3.8365844e-06
4.0535613e-06
4.2859999e-06
4.5352234e-06
4.8029703e-06
5.0908013e-06
5.3997744e-06
5.7317965e-06
6.0889228e-06
6.4728611e-06
6.8858144e-06
7.3290479e-06
7.8059671e-06
8.3196557e-06
8.8714512e-06
9.4642049e-06
1.0101474e-05
1.0784496e-05
1.1519259e-05
1.2299968e-05
1.3152401e-05
1.402285e-05
1.9847046e-08
2.4279627e-08
2.682609e-08
2.6438542e-08
2.7283037e-08
2.9010488e-08
3.0628747e-08
3.2315737e-08
3.4259601e-08
3.6418549e-08
3.8769845e-08
4.1341002e-08
4.4146036e-08
4.719656e-08
5.0507889e-08
5.4096695e-08
5.7974066e-08
6.217516e-08
6.6720883e-08
7.1623118e-08
7.6926301e-08
8.2646343e-08
8.8813441e-08
9.5463011e-08
1.0262628e-07
1.1033771e-07
1.186375e-07
1.2756873e-07
1.371375e-07
1.4743846e-07
1.5850882e-07
1.7037031e-07
1.8310702e-07
1.9675985e-07
2.1140587e-07
2.2709368e-07
2.4387199e-07
2.6183864e-07
2.8106619e-07
3.0162603e-07
3.2357665e-07
3.4699873e-07
3.7199384e-07
3.9858902e-07
4.2691886e-07
4.5707894e-07
4.8911785e-07
5.231319e-07
5.5914233e-07
5.9733422e-07
6.3771395e-07
6.8028314e-07
7.2530043e-07
7.7278242e-07
8.2272713e-07
8.7526487e-07
9.3060861e-07
9.8865747e-07
1.0495421e-06
1.1136011e-06
1.1805199e-06
1.2507936e-06
1.3244449e-06
1.4013181e-06
1.4819487e-06
1.5661274e-06
1.6541158e-06
1.7461228e-06
1.8421963e-06
1.9427775e-06
2.0479773e-06
2.1580248e-06
2.2732275e-06
2.3938728e-06
2.5204623e-06
2.6539036e-06
2.7949882e-06
2.9439542e-06
3.1018072e-06
3.2696548e-06
3.4479438e-06
3.6378737e-06
3.84064e-06
4.0574934e-06
4.2897443e-06
4.5386407e-06
4.8058277e-06
5.092876e-06
5.400892e-06
5.7316026e-06
6.0869452e-06
6.468692e-06
6.8787537e-06
7.3189519e-06
7.7920668e-06
8.3005394e-06
8.8465316e-06
9.4325282e-06
1.0061827e-05
1.0735898e-05
1.1459899e-05
1.2229008e-05
1.3065227e-05
1.3926664e-05
1.984762e-08
2.4300337e-08
2.6828e-08
2.6441197e-08
2.7294498e-08
2.901976e-08
3.0636075e-08
3.2324198e-08
3.4268412e-08
3.6426918e-08
3.8778367e-08
4.1349802e-08
4.4154694e-08
4.7205108e-08
5.0515858e-08
5.4104172e-08
5.7981078e-08
6.2180746e-08
6.6724865e-08
7.1625987e-08
7.6927655e-08
8.2646264e-08
8.8811705e-08
9.5459618e-08
1.0262073e-07
1.1033085e-07
1.186294e-07
1.2755841e-07
1.3712707e-07
1.4742749e-07
1.5849805e-07
1.703598e-07
1.8309698e-07
1.9675196e-07
2.1140128e-07
2.2709412e-07
2.438748e-07
2.6184815e-07
2.8108562e-07
3.0164733e-07
3.2360766e-07
3.4704777e-07
3.7204573e-07
3.9864959e-07
4.2700332e-07
4.5717683e-07
4.8923686e-07
5.232681e-07
5.5929544e-07
5.9751668e-07
6.3791797e-07
6.805237e-07
7.2558635e-07
7.7308117e-07
8.2306912e-07
8.7566591e-07
9.3104291e-07
9.8915138e-07
1.0500792e-06
1.1141833e-06
1.1811644e-06
1.251466e-06
1.3251744e-06
1.4021161e-06
1.4827631e-06
1.5670228e-06
1.6550826e-06
1.747174e-06
1.8433418e-06
1.9439881e-06
2.0493084e-06
2.1594569e-06
2.2747907e-06
2.3956118e-06
2.5223573e-06
2.6559486e-06
2.7971961e-06
2.9463485e-06
3.1043762e-06
3.2722826e-06
3.4506781e-06
3.640637e-06
3.8433538e-06
4.0600522e-06
4.2920173e-06
4.5405323e-06
4.807049e-06
5.0931918e-06
5.400195e-06
5.7295171e-06
6.0831057e-06
6.4626607e-06
6.8701033e-06
7.3072128e-06
7.7763282e-06
8.2801104e-06
8.8205874e-06
9.4001483e-06
1.0021721e-05
1.0687285e-05
1.1400945e-05
1.2159705e-05
1.2980153e-05
1.3834714e-05
1.9847805e-08
2.4320849e-08
2.6828614e-08
2.6443429e-08
2.7305531e-08
2.9028236e-08
3.0642599e-08
3.2331713e-08
3.4276152e-08
3.6434237e-08
3.8785695e-08
4.1357226e-08
4.4161956e-08
4.7212153e-08
5.0522136e-08
5.4109822e-08
5.7985967e-08
6.2184195e-08
6.6726661e-08
7.1625885e-08
7.6925854e-08
8.2642919e-08
8.8806072e-08
9.5452148e-08
1.0261075e-07
1.1031874e-07
1.1861605e-07
1.2754239e-07
1.3710917e-07
1.4740784e-07
1.5847794e-07
1.7033812e-07
1.83075e-07
1.967323e-07
2.1138044e-07
2.2707761e-07
2.4386038e-07
2.6183296e-07
2.8107821e-07
3.0164215e-07
3.23607e-07
3.4705758e-07
3.7205876e-07
3.986692e-07
4.2703678e-07
4.5721465e-07
4.8928491e-07
5.2333414e-07
5.5937412e-07
5.9761344e-07
6.3802911e-07
6.8065422e-07
7.2574154e-07
7.732515e-07
8.2326891e-07
8.7591134e-07
9.3129579e-07
9.8942658e-07
1.0504278e-06
1.1145494e-06
1.1815502e-06
1.2518811e-06
1.3256349e-06
1.4026113e-06
1.483252e-06
1.5675506e-06
1.6556539e-06
1.7477909e-06
1.8440022e-06
1.9447104e-06
2.0501273e-06
2.160318e-06
2.275759e-06
2.3966943e-06
2.5235308e-06
2.6572408e-06
2.7985801e-06
2.9478748e-06
3.1059725e-06
3.2738676e-06
3.4522811e-06
3.6421864e-06
3.8447403e-06
4.0611742e-06
4.2927875e-06
4.5408325e-06
4.8066273e-06
5.0918046e-06
5.3977212e-06
5.7256867e-06
6.0775482e-06
6.4549213e-06
6.8597597e-06
7.293906e-06
7.7593534e-06
8.2584828e-06
8.7937157e-06
9.367281e-06
9.9815358e-06
1.0638962e-05
1.1342862e-05
1.2091996e-05
1.2897153e-05
1.3745852e-05
1.984894e-08
2.434044e-08
2.682668e-08
2.6444661e-08
2.7315791e-08
2.9035791e-08
3.0648252e-08
3.2338315e-08
3.4282898e-08
3.6440548e-08
3.8791944e-08
4.1363392e-08
4.416792e-08
4.7217803e-08
5.0526943e-08
5.4113818e-08
5.7989025e-08
6.2185389e-08
6.6726225e-08
7.1623692e-08
7.6921398e-08
8.2636779e-08
8.8797365e-08
9.5441004e-08
1.0259695e-07
1.1030205e-07
1.1859744e-07
1.2752045e-07
1.3708487e-07
1.4738202e-07
1.5845002e-07
1.7030745e-07
1.8304359e-07
1.9670104e-07
2.1134554e-07
2.2704391e-07
2.4382766e-07
2.618003e-07
2.8104961e-07
3.016089e-07
3.2357682e-07
3.4703381e-07
3.7203448e-07
3.9864893e-07
4.2702182e-07
4.5720383e-07
4.8927927e-07
5.2333227e-07
5.5937996e-07
5.97628e-07
6.3805034e-07
6.8069133e-07
7.2578705e-07
7.7330551e-07
8.2334187e-07
8.7600175e-07
9.3141292e-07
9.8954022e-07
1.0505517e-06
1.1147204e-06
1.1817252e-06
1.2520368e-06
1.32582e-06
1.4027942e-06
1.4834356e-06
1.5677673e-06
1.6558808e-06
1.7480221e-06
1.8442354e-06
1.9449939e-06
2.0504494e-06
2.1606626e-06
2.2761567e-06
2.397151e-06
2.5240426e-06
2.657823e-06
2.7992042e-06
2.9485319e-06
3.1066643e-06
3.2745481e-06
3.4528827e-06
3.6426731e-06
3.8450607e-06
4.0611786e-06
4.2923343e-06
4.5398189e-06
4.8048461e-06
5.0890484e-06
5.3938128e-06
5.7203799e-06
6.070511e-06
6.4457806e-06
6.8480234e-06
7.2791805e-06
7.7411942e-06
8.2360157e-06
8.7661935e-06
9.3340858e-06
9.9415095e-06
1.059122e-05
1.1285931e-05
1.2025988e-05
1.2816903e-05
1.3658202e-05
1.9849091e-08
2.4360365e-08
2.6823999e-08
2.6445722e-08
2.7325704e-08
2.9042639e-08
3.065316e-08
3.2344144e-08
3.4288802e-08
3.6445935e-08
3.8797094e-08
4.1368519e-08
4.4172837e-08
4.7222085e-08
5.0530248e-08
5.4116313e-08
5.799043e-08
6.2184972e-08
6.6723981e-08
7.1619243e-08
7.6914553e-08
8.2628174e-08
8.8786046e-08
9.5426515e-08
1.0257949e-07
1.1028134e-07
1.185745e-07
1.274938e-07
1.3705521e-07
1.4734997e-07
1.5841384e-07
1.7026881e-07
1.8300371e-07
1.9665902e-07
2.1129961e-07
2.2699717e-07
2.4377975e-07
2.617491e-07
2.8099948e-07
3.0155548e-07
3.2351973e-07
3.4697758e-07
3.7197808e-07
3.9859357e-07
4.2696329e-07
4.5714489e-07
4.8922553e-07
5.2327426e-07
5.5931846e-07
5.9757239e-07
6.3799646e-07
6.8063836e-07
7.2573541e-07
7.732536e-07
8.2330396e-07
8.7596372e-07
9.3136888e-07
9.8951395e-07
1.0505228e-06
1.114687e-06
1.1817079e-06
1.2519972e-06
1.3257668e-06
1.4027425e-06
1.4833461e-06
1.567681e-06
1.655785e-06
1.7479071e-06
1.8441263e-06
1.9448686e-06
2.0503278e-06
2.1605527e-06
2.2760718e-06
2.3970682e-06
2.5239899e-06
2.6578057e-06
2.7991676e-06
2.9484956e-06
3.1065688e-06
3.2743784e-06
3.4525856e-06
3.6421972e-06
3.844336e-06
4.0600721e-06
4.2907785e-06
4.5376663e-06
4.8018686e-06
5.0850277e-06
5.3885743e-06
5.7136859e-06
6.0621168e-06
6.4353532e-06
6.8350867e-06
7.2634105e-06
7.722111e-06
8.2126824e-06
8.7379903e-06
9.3005159e-06
9.901596e-06
1.0544005e-05
1.1229943e-05
1.1961132e-05
1.2739632e-05
1.3571234e-05
1.984943e-08
2.4379943e-08
2.6819597e-08
2.6446079e-08
2.7334976e-08
2.9048772e-08
3.0657397e-08
3.2349182e-08
3.4293906e-08
3.6450521e-08
3.8801409e-08
4.1372628e-08
4.4176636e-08
4.7225243e-08
5.0532404e-08
5.4117465e-08
5.799021e-08
6.2182958e-08
6.6720025e-08
7.1612875e-08
7.6905909e-08
8.2617227e-08
8.8772241e-08
9.5409395e-08
1.0255868e-07
1.1025748e-07
1.1854728e-07
1.2746266e-07
1.370216e-07
1.4731188e-07
1.5837173e-07
1.7022432e-07
1.8295464e-07
1.9660819e-07
2.1124394e-07
2.269371e-07
2.4371838e-07
2.6168154e-07
2.8093093e-07
3.0148303e-07
3.2344028e-07
3.4689445e-07
3.7189425e-07
3.9850421e-07
4.268658e-07
4.5704769e-07
4.8912201e-07
5.2316259e-07
5.5920549e-07
5.9745152e-07
6.3787043e-07
6.8050742e-07
7.2559544e-07
7.7311177e-07
8.2315416e-07
8.7581548e-07
9.3121129e-07
9.893315e-07
1.0503477e-06
1.1144912e-06
1.1814916e-06
1.2517867e-06
1.3255174e-06
1.4024466e-06
1.4830186e-06
1.5673399e-06
1.6553938e-06
1.7474768e-06
1.8437033e-06
1.944399e-06
2.0498246e-06
2.1600328e-06
2.2755498e-06
2.3965083e-06
2.5234042e-06
2.6572026e-06
2.7985167e-06
2.9478311e-06
3.105805e-06
3.2734665e-06
3.4514989e-06
3.6408843e-06
3.8427309e-06
4.0580436e-06
4.2882085e-06
4.534462e-06
4.7978325e-06
5.0799409e-06
5.3822511e-06
5.7059186e-06
6.0526483e-06
6.423811e-06
6.8210891e-06
7.2465906e-06
7.701898e-06
8.1887068e-06
8.7097446e-06
9.2668897e-06
9.8618058e-06
1.0497315e-05
1.1175038e-05
1.1897765e-05
1.2665329e-05
1.3485393e-05
1.9849757e-08
2.4398823e-08
2.6814166e-08
2.6446198e-08
2.7343838e-08
2.9054264e-08
3.0660987e-08
3.2353574e-08
3.4298282e-08
3.6454249e-08
3.8804951e-08
4.1375956e-08
4.4179493e-08
4.7227334e-08
5.0533454e-08
5.4117389e-08
5.7988523e-08
6.2179611e-08
6.6714621e-08
7.1604914e-08
7.6895428e-08
8.2604152e-08
8.8756166e-08
9.538984e-08
1.0253554e-07
1.1023082e-07
1.1851683e-07
1.274274e-07
1.3698351e-07
1.4726947e-07
1.5832382e-07
1.701736e-07
1.8289897e-07
1.9654917e-07
2.1117943e-07
2.2686558e-07
2.4364433e-07
2.6160239e-07
2.8084577e-07
3.0139048e-07
3.2334183e-07
3.4678614e-07
3.7178266e-07
3.9839091e-07
4.2673485e-07
4.5691418e-07
4.8897733e-07
5.2299919e-07
5.5904405e-07
5.9727963e-07
6.3768175e-07
6.8030402e-07
7.253834e-07
7.7288629e-07
8.2290746e-07
8.7556419e-07
9.3094439e-07
9.8903412e-07
1.050033e-06
1.1141513e-06
1.1811244e-06
1.2513834e-06
1.3250703e-06
1.4019706e-06
1.482497e-06
1.5667574e-06
1.6547549e-06
1.7467934e-06
1.8429795e-06
1.9436204e-06
2.0489713e-06
2.1591551e-06
2.2746203e-06
2.3955157e-06
2.5224044e-06
2.656128e-06
2.7973433e-06
2.9465773e-06
3.1044288e-06
3.2719067e-06
3.4497106e-06
3.6388417e-06
3.8403326e-06
4.0551668e-06
4.2847876e-06
4.5303623e-06
4.7928548e-06
5.0739164e-06
5.3749592e-06
5.6971483e-06
6.042219e-06
6.4113367e-06
6.8062582e-06
7.2289694e-06
7.6810725e-06
8.1642851e-06
8.6809677e-06
9.2331679e-06
9.8223656e-06
1.0451324e-05
1.1121463e-05
1.1835845e-05
1.2593508e-05
1.3401733e-05
1.9850076e-08
2.4417062e-08
2.680758e-08
2.644595e-08
2.7352248e-08
2.9059192e-08
3.0664094e-08
3.2357373e-08
3.4302021e-08
3.6457321e-08
3.8807758e-08
4.1378383e-08