/*--------------------------------*- C++ -*----------------------------------*\
| =========                 |                                                 |
| \\      /  F ield         | OpenFOAM: The Open Source CFD Toolbox           |
|  \\    /   O peration     | Version:  2406                                  |
|   \\  /    A nd           | Website:  www.openfoam.com                      |
|    \\/     M anipulation  |                                                 |
\*---------------------------------------------------------------------------*/
FoamFile
{
    version     2.0;
    format      ascii;
    arch        "LSB;label=32;scalar=64";
    class       volScalarField;
    location    "700";
    object      T;
}
// * * * * * * * * * * * * * * * * * * * * * * * * * * * * * * * * * * * * * //

dimensions      [0 0 0 1 0 0 0];

internalField   nonuniform List<scalar> 
132739
(
1.0009306
1.0009344
1.0009396
1.0009455
1.000953
1.0009619
1.000972
1.0009834
1.0009961
1.00101
1.0010251
1.0010414
1.0010587
1.0010772
1.0010967
1.0011173
1.001139
1.0011617
1.0011854
1.0012102
1.001236
1.0012628
1.0012907
1.0013196
1.0013494
1.0013801
1.0014118
1.0014444
1.0014779
1.0015123
1.0015475
1.0015835
1.0016203
1.0016579
1.0016961
1.0017351
1.0017747
1.001815
1.0018559
1.0018972
1.0019392
1.0019815
1.0020243
1.0020673
1.0021104
1.0021538
1.0021977
1.002242
1.0022865
1.0023309
1.0023753
1.0024196
1.0024638
1.0025079
1.0025517
1.0025951
1.0026379
1.0026808
1.0027228
1.0027637
1.0028035
1.0028422
1.0028771
1.0029127
1.0029485
1.0029831
1.0030174
1.0030502
1.0030823
1.0031122
1.0031434
1.0031726
1.0032006
1.0032264
1.0032499
1.0032717
1.0032917
1.0033102
1.0033269
1.0033418
1.003355
1.0033659
1.0033741
1.0033805
1.0033855
1.0033897
1.0033982
1.0033941
1.0033983
1.0033882
1.0033729
1.0033569
1.0033345
1.0033079
1.0032742
1.0032336
1.003192
1.0031476
1.0030968
1.0030401
1.0029771
1.0029096
1.0028382
1.0027617
1.0009307
1.0009346
1.0009397
1.0009457
1.0009531
1.000962
1.0009722
1.0009837
1.0009964
1.0010104
1.0010255
1.0010417
1.001059
1.0010774
1.0010969
1.0011175
1.0011392
1.0011619
1.0011856
1.0012104
1.0012362
1.001263
1.0012908
1.0013196
1.0013494
1.0013801
1.0014118
1.0014444
1.0014779
1.0015123
1.0015475
1.0015835
1.0016203
1.0016579
1.0016962
1.0017351
1.0017748
1.0018151
1.0018559
1.0018974
1.0019393
1.0019817
1.0020243
1.0020676
1.0021116
1.0021561
1.002201
1.0022453
1.0022896
1.0023337
1.0023778
1.0024216
1.0024656
1.0025096
1.0025531
1.002596
1.0026385
1.0026793
1.0027197
1.0027597
1.0027993
1.0028382
1.0028779
1.0029155
1.0029519
1.0029867
1.0030204
1.0030527
1.0030841
1.0031143
1.0031412
1.0031666
1.003191
1.0032141
1.0032359
1.0032563
1.0032751
1.0032923
1.0033077
1.0033213
1.0033328
1.0033424
1.0033502
1.0033563
1.0033615
1.0033673
1.0033764
1.0033989
1.0033885
1.0033798
1.0033606
1.0033402
1.0033176
1.0032924
1.003264
1.0032319
1.0031935
1.0031482
1.0030977
1.0030417
1.0029809
1.002915
1.0028448
1.0027663
1.0009307
1.0009346
1.0009399
1.0009458
1.0009533
1.0009623
1.0009725
1.0009841
1.0009968
1.0010107
1.0010258
1.001042
1.0010593
1.0010778
1.0010973
1.0011178
1.0011395
1.0011622
1.0011859
1.0012107
1.0012365
1.0012634
1.0012912
1.0013201
1.0013499
1.0013807
1.0014125
1.001445
1.0014786
1.001513
1.0015482
1.0015843
1.0016212
1.0016588
1.0016972
1.0017363
1.0017761
1.0018165
1.0018577
1.0018993
1.0019413
1.0019839
1.0020268
1.0020701
1.0021136
1.0021574
1.002201
1.002245
1.0022893
1.0023332
1.0023771
1.0024212
1.0024653
1.0025085
1.0025513
1.0025936
1.0026354
1.0026766
1.002717
1.0027568
1.0027959
1.0028341
1.0028713
1.0029074
1.0029427
1.0029766
1.0030093
1.0030407
1.0030709
1.0030998
1.0031271
1.003153
1.0031774
1.0032003
1.0032217
1.0032414
1.0032595
1.0032758
1.0032903
1.0033029
1.0033134
1.0033217
1.0033282
1.0033335
1.0033382
1.0033441
1.0033545
1.0033709
1.003365
1.0033537
1.0033315
1.0033077
1.0032827
1.0032585
1.0032339
1.0032064
1.003172
1.0031304
1.0030817
1.0030273
1.0029684
1.0028992
1.0028329
1.0027546
1.0009308
1.0009347
1.00094
1.0009459
1.0009535
1.0009625
1.0009728
1.0009843
1.000997
1.001011
1.001026
1.0010422
1.0010595
1.001078
1.0010975
1.0011181
1.0011397
1.0011624
1.0011862
1.0012109
1.0012367
1.0012636
1.0012914
1.0013202
1.0013501
1.0013808
1.0014124
1.001445
1.0014785
1.0015129
1.0015483
1.0015844
1.0016213
1.0016589
1.0016974
1.0017365
1.0017763
1.0018167
1.0018578
1.0018993
1.0019413
1.0019837
1.0020268
1.0020699
1.0021136
1.0021574
1.0022014
1.0022459
1.0022892
1.0023333
1.0023772
1.0024219
1.0024651
1.0025079
1.0025502
1.0025922
1.0026337
1.0026746
1.0027148
1.0027543
1.002793
1.0028307
1.0028675
1.0029031
1.0029378
1.0029712
1.0030033
1.0030341
1.0030637
1.0030917
1.0031184
1.0031435
1.0031671
1.0031892
1.0032096
1.0032284
1.0032455
1.0032608
1.0032742
1.0032855
1.0032943
1.0033009
1.0033061
1.0033103
1.0033148
1.0033211
1.0033304
1.0033438
1.0033432
1.0033346
1.0033146
1.0032869
1.0032562
1.0032282
1.0032019
1.0031729
1.0031378
1.0030966
1.0030514
1.0030032
1.0029507
1.0028941
1.0028323
1.0027569
1.0009308
1.0009348
1.0009401
1.0009461
1.0009537
1.0009628
1.000973
1.0009845
1.0009972
1.0010111
1.0010262
1.0010424
1.0010597
1.0010781
1.0010976
1.0011182
1.0011399
1.0011626
1.0011863
1.0012111
1.0012368
1.0012637
1.0012915
1.0013203
1.0013501
1.001381
1.0014128
1.0014455
1.001479
1.0015133
1.0015484
1.0015843
1.0016212
1.0016589
1.0016973
1.0017364
1.0017762
1.0018167
1.0018577
1.0018997
1.001942
1.0019847
1.0020278
1.0020711
1.0021147
1.0021585
1.0022019
1.0022455
1.0022901
1.0023348
1.0023791
1.0024219
1.0024645
1.0025069
1.0025491
1.0025908
1.0026321
1.0026728
1.0027127
1.0027518
1.0027901
1.0028275
1.0028638
1.002899
1.0029332
1.0029661
1.0029977
1.0030279
1.0030568
1.0030843
1.0031102
1.0031346
1.0031574
1.0031787
1.0031983
1.0032162
1.0032324
1.0032467
1.003259
1.0032689
1.0032766
1.0032818
1.0032857
1.0032879
1.0032906
1.0032928
1.0032968
1.0033095
1.0033097
1.0032976
1.0032764
1.0032511
1.0032249
1.0031997
1.0031741
1.0031456
1.0031114
1.0030696
1.0030225
1.0029749
1.0029274
1.0028781
1.0028234
1.0027579
1.0009308
1.0009349
1.0009403
1.0009463
1.0009539
1.000963
1.0009732
1.0009847
1.0009974
1.0010113
1.0010264
1.0010426
1.0010599
1.0010783
1.0010978
1.0011184
1.00114
1.0011627
1.0011864
1.0012111
1.0012369
1.0012637
1.0012915
1.0013203
1.0013501
1.001381
1.0014128
1.0014454
1.001479
1.0015133
1.0015485
1.0015846
1.0016216
1.0016593
1.0016978
1.0017369
1.0017768
1.0018173
1.0018584
1.0018998
1.001942
1.0019847
1.0020277
1.0020711
1.0021147
1.0021588
1.002203
1.0022472
1.0022907
1.0023339
1.0023774
1.0024206
1.0024634
1.0025058
1.0025479
1.0025894
1.0026305
1.0026708
1.0027105
1.0027493
1.0027873
1.0028242
1.0028602
1.002895
1.0029287
1.0029611
1.0029922
1.0030219
1.0030503
1.0030771
1.0031024
1.0031261
1.0031482
1.0031687
1.0031875
1.0032046
1.0032199
1.0032333
1.0032447
1.0032536
1.0032609
1.0032619
1.0032794
1.0032775
1.0032725
1.0032792
1.0032761
1.0032776
1.0032897
1.0032752
1.0032601
1.0032374
1.0032088
1.0031795
1.0031517
1.0031236
1.0030918
1.0030539
1.0030092
1.0029595
1.0029084
1.0028578
1.0028064
1.0027468
1.0009307
1.000935
1.0009404
1.0009464
1.0009541
1.0009631
1.0009734
1.0009849
1.0009976
1.0010115
1.0010265
1.0010427
1.00106
1.0010784
1.0010979
1.0011185
1.0011401
1.0011627
1.0011864
1.0012111
1.0012369
1.0012637
1.0012916
1.0013205
1.0013503
1.001381
1.0014127
1.0014453
1.0014789
1.0015132
1.0015485
1.0015846
1.0016216
1.0016593
1.0016978
1.001737
1.0017768
1.0018172
1.0018583
1.0019002
1.0019427
1.0019855
1.0020286
1.0020719
1.0021156
1.0021588
1.0022022
1.0022459
1.0022894
1.0023329
1.0023762
1.0024194
1.0024621
1.0025045
1.0025464
1.0025878
1.0026286
1.0026688
1.0027081
1.0027467
1.0027843
1.0028209
1.0028565
1.0028909
1.0029241
1.0029561
1.0029867
1.0030159
1.0030437
1.00307
1.0030947
1.0031178
1.0031392
1.003159
1.0031771
1.0031935
1.003208
1.0032206
1.0032311
1.0032392
1.0032449
1.0032485
1.0032516
1.0032516
1.0032563
1.0032545
1.0032571
1.0032641
1.0032729
1.0032629
1.0032462
1.0032225
1.0031947
1.003165
1.0031351
1.003105
1.0030728
1.0030364
1.0029942
1.0029468
1.0028958
1.002843
1.0027872
1.0027351
1.0009308
1.0009351
1.0009405
1.0009466
1.0009542
1.0009632
1.0009735
1.000985
1.0009977
1.0010116
1.0010266
1.0010428
1.0010601
1.0010785
1.001098
1.0011185
1.0011401
1.0011627
1.0011864
1.0012111
1.0012368
1.0012637
1.0012915
1.0013204
1.0013501
1.0013808
1.0014125
1.0014451
1.0014787
1.0015133
1.0015488
1.0015851
1.0016222
1.00166
1.0016985
1.0017377
1.0017775
1.001818
1.001859
1.0019003
1.0019423
1.0019847
1.0020276
1.0020708
1.0021142
1.0021576
1.0022012
1.0022448
1.0022883
1.0023318
1.002375
1.002418
1.0024607
1.002503
1.0025448
1.002586
1.0026266
1.0026665
1.0027056
1.0027438
1.0027811
1.0028174
1.0028526
1.0028867
1.0029195
1.0029511
1.0029812
1.00301
1.0030373
1.003063
1.0030872
1.0031097
1.0031305
1.0031497
1.0031671
1.0031828
1.0031966
1.0032084
1.0032181
1.0032248
1.0032314
1.0032397
1.0032375
1.0032386
1.0032384
1.0032377
1.0032399
1.0032453
1.0032453
1.0032365
1.0032228
1.0032008
1.0031737
1.0031439
1.0031134
1.0030824
1.0030494
1.0030127
1.0029716
1.0029263
1.0028778
1.0028266
1.0027693
1.0027029
1.0009308
1.0009352
1.0009406
1.0009467
1.0009543
1.0009633
1.0009736
1.0009851
1.0009978
1.0010117
1.0010267
1.0010429
1.0010602
1.0010786
1.001098
1.0011185
1.0011401
1.0011628
1.0011865
1.0012112
1.0012369
1.0012637
1.0012915
1.0013202
1.0013498
1.0013805
1.0014121
1.0014448
1.0014785
1.0015132
1.0015487
1.001585
1.001622
1.0016597
1.0016982
1.0017373
1.0017771
1.0018175
1.0018584
1.0018998
1.0019417
1.0019841
1.0020268
1.0020699
1.0021131
1.0021566
1.0022001
1.0022436
1.0022871
1.0023305
1.0023736
1.0024166
1.0024591
1.0025012
1.0025429
1.0025839
1.0026243
1.002664
1.0027028
1.0027408
1.0027778
1.0028137
1.0028486
1.0028823
1.0029148
1.0029459
1.0029757
1.003004
1.0030308
1.0030561
1.0030797
1.0031017
1.003122
1.0031406
1.0031575
1.0031725
1.0031857
1.0031967
1.0032057
1.0032126
1.0032189
1.0032314
1.003228
1.0032363
1.0032308
1.0032267
1.0032297
1.0032295
1.0032257
1.0032128
1.003196
1.0031749
1.0031503
1.003123
1.0030937
1.0030628
1.0030294
1.0029923
1.0029508
1.0029053
1.002858
1.0028066
1.0027533
1.0026969
1.0009308
1.0009352
1.0009407
1.0009468
1.0009544
1.0009634
1.0009737
1.0009852
1.0009979
1.0010118
1.0010268
1.001043
1.0010602
1.0010786
1.001098
1.0011185
1.0011401
1.0011628
1.0011864
1.0012111
1.0012369
1.0012636
1.0012914
1.0013201
1.0013497
1.0013804
1.001412
1.0014446
1.0014784
1.0015131
1.0015486
1.0015848
1.0016217
1.0016594
1.0016978
1.0017368
1.0017766
1.0018169
1.0018578
1.0018992
1.001941
1.0019833
1.002026
1.0020689
1.0021121
1.0021554
1.0021988
1.0022423
1.0022857
1.002329
1.0023721
1.0024149
1.0024573
1.0024993
1.0025408
1.0025816
1.0026218
1.0026612
1.0026998
1.0027375
1.0027742
1.0028099
1.0028444
1.0028778
1.0029099
1.0029407
1.0029701
1.002998
1.0030244
1.0030492
1.0030724
1.0030939
1.0031137
1.0031317
1.003148
1.0031625
1.003175
1.0031854
1.0031939
1.003201
1.0032085
1.0032223
1.0032375
1.0032289
1.0032304
1.0032272
1.003227
1.0032216
1.0032094
1.0031934
1.0031753
1.0031538
1.0031299
1.0031038
1.0030758
1.0030457
1.0030128
1.0029763
1.0029354
1.0028905
1.0028429
1.0027936
1.0027414
1.0026874
1.0009308
1.0009353
1.0009408
1.0009469
1.0009545
1.0009635
1.0009738
1.0009853
1.000998
1.0010118
1.0010269
1.001043
1.0010603
1.0010786
1.001098
1.0011185
1.00114
1.0011626
1.0011862
1.0012109
1.0012366
1.0012634
1.0012913
1.0013201
1.0013498
1.0013804
1.0014121
1.0014448
1.0014784
1.0015129
1.0015483
1.0015844
1.0016213
1.0016589
1.0016973
1.0017363
1.0017759
1.0018162
1.001857
1.0018984
1.0019402
1.0019824
1.0020249
1.0020678
1.0021109
1.0021541
1.0021975
1.0022408
1.0022842
1.0023273
1.0023703
1.002413
1.0024553
1.0024971
1.0025384
1.0025791
1.0026191
1.0026583
1.0026966
1.002734
1.0027705
1.0028059
1.0028401
1.0028731
1.0029049
1.0029353
1.0029644
1.0029919
1.0030179
1.0030423
1.0030651
1.0030861
1.0031055
1.003123
1.0031388
1.0031528
1.0031648
1.0031746
1.0031825
1.0031886
1.0031941
1.0032005
1.0032103
1.0032459
1.0032131
1.0032093
1.0031984
1.0031964
1.0031862
1.0031751
1.0031602
1.0031398
1.003115
1.0030876
1.0030588
1.0030287
1.0029961
1.0029595
1.0029181
1.0028726
1.0028254
1.0027767
1.0027266
1.0026759
1.0009308
1.0009354
1.0009409
1.0009469
1.0009546
1.0009636
1.0009739
1.0009853
1.000998
1.0010119
1.0010269
1.001043
1.0010603
1.0010786
1.001098
1.0011185
1.00114
1.0011625
1.0011862
1.0012108
1.0012365
1.0012633
1.0012912
1.0013201
1.0013498
1.0013804
1.0014121
1.0014447
1.0014782
1.0015127
1.0015479
1.0015839
1.0016207
1.0016583
1.0016966
1.0017355
1.0017752
1.0018154
1.0018561
1.0018974
1.0019391
1.0019813
1.0020238
1.0020665
1.0021095
1.0021527
1.0021959
1.0022392
1.0022824
1.0023255
1.0023683
1.0024108
1.002453
1.0024947
1.0025358
1.0025763
1.0026161
1.002655
1.0026932
1.0027304
1.0027665
1.0028016
1.0028356
1.0028683
1.0028998
1.0029299
1.0029586
1.0029857
1.0030114
1.0030354
1.0030577
1.0030784
1.0030973
1.0031144
1.0031298
1.0031433
1.0031549
1.0031643
1.003172
1.0031781
1.0031835
1.0031899
1.0032057
1.0032063
1.0032004
1.0031983
1.0031862
1.0031808
1.0031696
1.0031586
1.003143
1.0031222
1.0030978
1.0030713
1.0030436
1.003014
1.0029815
1.002945
1.0029041
1.0028583
1.00281
1.0027614
1.0027111
1.002663
1.0009307
1.0009354
1.000941
1.000947
1.0009546
1.0009637
1.0009739
1.0009854
1.0009981
1.0010119
1.0010269
1.001043
1.0010603
1.0010786
1.001098
1.0011184
1.00114
1.0011626
1.0011862
1.0012109
1.0012366
1.0012633
1.0012911
1.0013199
1.0013496
1.0013803
1.0014119
1.0014444
1.0014779
1.0015122
1.0015473
1.0015833
1.0016201
1.0016576
1.0016958
1.0017347
1.0017742
1.0018144
1.0018551
1.0018963
1.0019379
1.00198
1.0020224
1.0020651
1.002108
1.002151
1.0021942
1.0022373
1.0022804
1.0023234
1.0023661
1.0024085
1.0024505
1.002492
1.0025329
1.0025732
1.0026128
1.0026516
1.0026895
1.0027264
1.0027624
1.0027972
1.0028309
1.0028633
1.0028944
1.0029242
1.0029526
1.0029794
1.0030047
1.0030283
1.0030503
1.0030706
1.0030891
1.0031059
1.0031208
1.0031339
1.003145
1.0031541
1.0031613
1.0031673
1.0031725
1.0031786
1.0031912
1.0031865
1.0032068
1.0031859
1.003176
1.0031678
1.0031545
1.0031423
1.0031253
1.0031045
1.0030806
1.0030549
1.0030276
1.0029982
1.0029659
1.0029295
1.002889
1.0028455
1.0027968
1.0027439
1.0026924
1.0026417
1.0009307
1.0009355
1.000941
1.0009471
1.0009547
1.0009637
1.000974
1.0009854
1.0009981
1.0010119
1.0010269
1.001043
1.0010603
1.0010786
1.001098
1.0011185
1.00114
1.0011626
1.0011862
1.0012109
1.0012365
1.0012632
1.0012909
1.0013196
1.0013492
1.0013799
1.0014115
1.001444
1.0014773
1.0015116
1.0015467
1.0015826
1.0016193
1.0016567
1.0016949
1.0017337
1.0017732
1.0018132
1.0018539
1.001895
1.0019365
1.0019785
1.0020208
1.0020634
1.0021062
1.0021492
1.0021922
1.0022353
1.0022782
1.002321
1.0023636
1.0024059
1.0024477
1.002489
1.0025298
1.0025699
1.0026093
1.0026479
1.0026855
1.0027222
1.0027579
1.0027925
1.0028259
1.0028581
1.0028889
1.0029184
1.0029464
1.0029729
1.0029979
1.0030212
1.0030428
1.0030628
1.0030809
1.0030973
1.0031118
1.0031245
1.0031352
1.0031438
1.0031504
1.0031559
1.00316
1.0031653
1.0031714
1.003188
1.0031803
1.0031696
1.0031652
1.0031558
1.0031409
1.0031268
1.0031092
1.0030888
1.0030656
1.00304
1.0030124
1.0029826
1.0029499
1.0029136
1.0028741
1.0028319
1.0027878
1.002743
1.0026937
1.0026422
1.0009306
1.0009355
1.0009411
1.0009471
1.0009547
1.0009638
1.000974
1.0009855
1.0009981
1.0010119
1.0010269
1.001043
1.0010603
1.0010786
1.001098
1.0011184
1.0011399
1.0011624
1.001186
1.0012106
1.0012363
1.0012629
1.0012906
1.0013192
1.0013489
1.0013795
1.001411
1.0014434
1.0014768
1.0015109
1.001546
1.0015818
1.0016184
1.0016558
1.0016938
1.0017326
1.001772
1.001812
1.0018525
1.0018935
1.001935
1.0019769
1.0020191
1.0020616
1.0021043
1.0021471
1.00219
1.002233
1.0022758
1.0023185
1.0023609
1.002403
1.0024446
1.0024858
1.0025264
1.0025663
1.0026055
1.0026438
1.0026813
1.0027178
1.0027532
1.0027875
1.0028206
1.0028525
1.0028831
1.0029123
1.00294
1.0029662
1.0029909
1.0030139
1.0030352
1.0030548
1.0030726
1.0030886
1.0031028
1.0031152
1.0031255
1.0031337
1.0031405
1.0031462
1.0031575
1.0031576
1.0031572
1.0031741
1.0031602
1.0031532
1.0031472
1.003139
1.0031268
1.0031138
1.0030967
1.0030762
1.0030528
1.0030268
1.0029989
1.0029688
1.0029366
1.0029007
1.0028622
1.00282
1.002776
1.0027317
1.0026822
1.0026283
1.0009306
1.0009355
1.0009411
1.0009471
1.0009548
1.0009638
1.000974
1.0009855
1.0009981
1.0010119
1.0010269
1.001043
1.0010602
1.0010785
1.0010979
1.0011183
1.0011397
1.0011623
1.0011858
1.0012104
1.001236
1.0012626
1.0012902
1.0013189
1.0013485
1.001379
1.0014105
1.0014428
1.0014761
1.0015102
1.0015452
1.0015809
1.0016174
1.0016547
1.0016927
1.0017313
1.0017706
1.0018105
1.0018509
1.0018919
1.0019333
1.001975
1.0020171
1.0020595
1.0021021
1.0021448
1.0021876
1.0022304
1.0022731
1.0023156
1.0023579
1.0023998
1.0024413
1.0024823
1.0025227
1.0025624
1.0026013
1.0026395
1.0026767
1.0027129
1.0027481
1.0027822
1.0028151
1.0028467
1.002877
1.0029059
1.0029333
1.0029593
1.0029836
1.0030063
1.0030273
1.0030466
1.0030641
1.0030798
1.0030937
1.0031058
1.0031156
1.0031237
1.0031362
1.003136
1.0031461
1.0031464
1.0031417
1.0031508
1.0031492
1.0031384
1.003137
1.0031278
1.0031155
1.0031016
1.0030836
1.0030623
1.0030388
1.0030131
1.0029857
1.0029562
1.0029244
1.0028897
1.0028518
1.0028113
1.0027689
1.0027237
1.0026765
1.0026288
1.0009305
1.0009355
1.0009411
1.0009472
1.0009548
1.0009638
1.000974
1.0009855
1.0009981
1.0010119
1.0010269
1.001043
1.0010602
1.0010784
1.0010977
1.0011181
1.0011396
1.0011621
1.0011856
1.0012101
1.0012357
1.0012623
1.0012899
1.0013184
1.001348
1.0013785
1.0014099
1.0014422
1.0014754
1.0015094
1.0015443
1.0015799
1.0016164
1.0016535
1.0016914
1.0017299
1.0017691
1.0018089
1.0018492
1.00189
1.0019313
1.001973
1.002015
1.0020572
1.0020997
1.0021423
1.0021849
1.0022276
1.0022701
1.0023125
1.0023546
1.0023963
1.0024376
1.0024784
1.0025186
1.0025581
1.0025968
1.0026348
1.0026717
1.0027077
1.0027427
1.0027765
1.0028091
1.0028405
1.0028705
1.0028991
1.0029263
1.0029519
1.002976
1.0029984
1.0030191
1.0030381
1.0030553
1.0030708
1.0030844
1.0030961
1.0031057
1.0031135
1.003119
1.0031259
1.0031353
1.0031335
1.0031321
1.0031303
1.0031295
1.0031219
1.0031267
1.0031154
1.0031034
1.0030891
1.0030709
1.0030492
1.0030251
1.0029991
1.0029715
1.0029421
1.0029109
1.0028769
1.0028405
1.0028017
1.0027589
1.0027117
1.0026668
1.0026204
1.0009304
1.0009355
1.0009411
1.0009472
1.0009548
1.0009638
1.000974
1.0009855
1.0009981
1.0010119
1.0010269
1.0010429
1.0010601
1.0010783
1.0010976
1.001118
1.0011394
1.0011618
1.0011853
1.0012098
1.0012354
1.0012619
1.0012895
1.001318
1.0013475
1.0013779
1.0014092
1.0014415
1.0014746
1.0015085
1.0015433
1.0015789
1.0016152
1.0016522
1.00169
1.0017284
1.0017675
1.0018071
1.0018473
1.001888
1.0019292
1.0019707
1.0020126
1.0020547
1.002097
1.0021395
1.0021819
1.0022244
1.0022668
1.002309
1.0023509
1.0023924
1.0024336
1.0024741
1.0025141
1.0025534
1.0025919
1.0026296
1.0026663
1.0027021
1.0027368
1.0027704
1.0028027
1.0028338
1.0028636
1.002892
1.0029188
1.0029442
1.002968
1.0029901
1.0030105
1.0030292
1.0030462
1.0030614
1.0030747
1.0030862
1.0030958
1.0031032
1.0031086
1.0031146
1.0031163
1.0031495
1.0031301
1.0031224
1.0031205
1.0031103
1.0031095
1.0030992
1.0030875
1.0030735
1.0030561
1.0030354
1.0030123
1.0029869
1.0029594
1.0029295
1.0028976
1.0028637
1.0028278
1.0027896
1.0027502
1.0027097
1.0026627
1.0026078
1.0009304
1.0009355
1.0009411
1.0009472
1.0009548
1.0009638
1.000974
1.0009855
1.0009981
1.0010119
1.0010268
1.0010428
1.00106
1.0010782
1.0010975
1.0011178
1.0011392
1.0011616
1.001185
1.0012095
1.001235
1.0012615
1.001289
1.0013175
1.0013469
1.0013773
1.0014085
1.0014407
1.0014737
1.0015076
1.0015422
1.0015777
1.0016139
1.0016508
1.0016885
1.0017268
1.0017657
1.0018052
1.0018452
1.0018858
1.0019268
1.0019682
1.0020099
1.0020519
1.002094
1.0021363
1.0021786
1.0022209
1.0022631
1.0023051
1.0023468
1.0023882
1.0024291
1.0024695
1.0025092
1.0025483
1.0025866
1.002624
1.0026605
1.002696
1.0027305
1.0027638
1.0027959
1.0028267
1.0028562
1.0028843
1.0029109
1.002936
1.0029595
1.0029813
1.0030015
1.0030199
1.0030366
1.0030515
1.0030646
1.0030759
1.0030853
1.0030925
1.0030978
1.003102
1.0031064
1.0031183
1.0031165
1.0031235
1.003111
1.0031057
1.0030973
1.003085
1.0030724
1.0030578
1.0030404
1.0030205
1.0029986
1.0029743
1.0029479
1.002919
1.0028878
1.0028541
1.002819
1.0027824
1.0027404
1.0026944
1.0026478
1.0026044
1.0009303
1.0009355
1.0009411
1.0009472
1.0009548
1.0009638
1.000974
1.0009855
1.0009981
1.0010118
1.0010267
1.0010427
1.0010599
1.001078
1.0010973
1.0011176
1.0011389
1.0011613
1.0011847
1.0012092
1.0012346
1.0012611
1.0012885
1.0013169
1.0013463
1.0013766
1.0014078
1.0014398
1.0014728
1.0015065
1.0015411
1.0015764
1.0016125
1.0016493
1.0016868
1.0017249
1.0017637
1.0018031
1.001843
1.0018833
1.0019242
1.0019654
1.0020069
1.0020487
1.0020907
1.0021328
1.002175
1.0022171
1.0022591
1.0023009
1.0023424
1.0023835
1.0024242
1.0024643
1.0025038
1.0025426
1.0025807
1.0026179
1.0026541
1.0026894
1.0027236
1.0027566
1.0027885
1.002819
1.0028483
1.0028761
1.0029024
1.0029272
1.0029504
1.002972
1.0029919
1.00301
1.0030265
1.0030411
1.0030539
1.0030649
1.003074
1.0030811
1.0030864
1.0030912
1.0030956
1.0031061
1.0031019
1.0031164
1.0030965
1.0030931
1.0030844
1.0030714
1.0030588
1.0030438
1.0030264
1.0030067
1.0029854
1.0029618
1.0029364
1.0029084
1.0028781
1.0028446
1.0028082
1.0027707
1.0027336
1.0026931
1.0026483
1.0025975
1.0009302
1.0009355
1.0009411
1.0009472
1.0009548
1.0009638
1.000974
1.0009854
1.000998
1.0010118
1.0010267
1.0010426
1.0010597
1.0010779
1.0010971
1.0011173
1.0011387
1.001161
1.0011844
1.0012088
1.0012342
1.0012606
1.001288
1.0013163
1.0013456
1.0013758
1.0014069
1.0014389
1.0014717
1.0015053
1.0015398
1.001575
1.0016109
1.0016476
1.001685
1.001723
1.0017616
1.0018008
1.0018405
1.0018807
1.0019213
1.0019624
1.0020037
1.0020453
1.0020871
1.0021289
1.0021709
1.0022128
1.0022546
1.0022961
1.0023374
1.0023783
1.0024187
1.0024586
1.0024979
1.0025364
1.0025742
1.0026112
1.0026472
1.0026822
1.0027161
1.0027489
1.0027804
1.0028107
1.0028397
1.0028672
1.0028932
1.0029178
1.0029407
1.002962
1.0029816
1.0029995
1.0030156
1.00303
1.0030425
1.0030531
1.0030619
1.003069
1.0030754
1.0030823
1.0030957
1.0030926
1.0030939
1.0030865
1.0030747
1.0030796
1.0030693
1.0030573
1.0030461
1.0030316
1.0030145
1.0029954
1.0029746
1.0029517
1.0029268
1.0028991
1.0028693
1.0028379
1.0028048
1.0027684
1.0027258
1.0026795
1.0026326
1.0025877
1.0009301
1.0009355
1.0009411
1.0009472
1.0009548
1.0009638
1.000974
1.0009854
1.000998
1.0010117
1.0010266
1.0010425
1.0010596
1.0010777
1.0010969
1.0011171
1.0011384
1.0011607
1.001184
1.0012084
1.0012337
1.0012601
1.0012874
1.0013157
1.0013449
1.001375
1.001406
1.0014378
1.0014705
1.0015041
1.0015384
1.0015734
1.0016092
1.0016458
1.001683
1.0017208
1.0017593
1.0017983
1.0018378
1.0018778
1.0019183
1.0019591
1.0020002
1.0020416
1.0020831
1.0021247
1.0021664
1.002208
1.0022496
1.0022909
1.0023319
1.0023725
1.0024127
1.0024523
1.0024913
1.0025296
1.0025671
1.0026038
1.0026395
1.0026742
1.0027079
1.0027403
1.0027716
1.0028016
1.0028303
1.0028575
1.0028832
1.0029075
1.0029301
1.0029511
1.0029704
1.002988
1.0030038
1.0030178
1.0030299
1.0030402
1.0030486
1.0030551
1.0030603
1.0030644
1.0030724
1.0030717
1.0030789
1.0030732
1.0030677
1.0030664
1.0030609
1.0030501
1.0030384
1.0030233
1.0030062
1.0029876
1.0029671
1.0029446
1.0029203
1.0028939
1.002865
1.002831
1.0027938
1.0027558
1.0027166
1.0026773
1.0026335
1.0025827
1.00093
1.0009355
1.0009411
1.0009472
1.0009548
1.0009638
1.000974
1.0009854
1.0009979
1.0010116
1.0010265
1.0010424
1.0010594
1.0010775
1.0010966
1.0011168
1.001138
1.0011603
1.0011836
1.0012079
1.0012332
1.0012595
1.0012867
1.0013149
1.0013441
1.0013741
1.001405
1.0014367
1.0014693
1.0015026
1.0015368
1.0015717
1.0016074
1.0016437
1.0016808
1.0017184
1.0017567
1.0017955
1.0018349
1.0018747
1.0019149
1.0019555
1.0019964
1.0020375
1.0020788
1.0021202
1.0021616
1.0022029
1.0022441
1.0022851
1.0023258
1.0023661
1.002406
1.0024453
1.0024841
1.0025221
1.0025593
1.0025956
1.0026311
1.0026655
1.0026988
1.002731
1.002762
1.0027917
1.00282
1.0028469
1.0028724
1.0028963
1.0029186
1.0029392
1.0029582
1.0029755
1.0029909
1.0030046
1.0030165
1.0030268
1.0030354
1.0030425
1.0030481
1.0030525
1.0030561
1.0030593
1.0030659
1.0030602
1.0030582
1.0030582
1.003052
1.0030423
1.0030323
1.0030182
1.0030017
1.0029831
1.0029624
1.0029393
1.0029138
1.0028865
1.0028567
1.0028251
1.0027928
1.0027552
1.0027157
1.0026723
1.0026281
1.0025816
1.0009299
1.0009354
1.0009411
1.0009472
1.0009548
1.0009638
1.0009739
1.0009853
1.0009979
1.0010115
1.0010263
1.0010422
1.0010592
1.0010773
1.0010964
1.0011165
1.0011377
1.0011599
1.0011831
1.0012074
1.0012326
1.0012589
1.001286
1.0013141
1.0013431
1.0013731
1.0014038
1.0014354
1.0014679
1.0015011
1.0015351
1.0015699
1.0016053
1.0016415
1.0016784
1.0017158
1.0017539
1.0017925
1.0018317
1.0018713
1.0019113
1.0019516
1.0019922
1.0020331
1.0020741
1.0021152
1.0021563
1.0021973
1.0022382
1.0022789
1.0023192
1.0023592
1.0023987
1.0024377
1.0024761
1.0025137
1.0025506
1.0025867
1.0026218
1.0026559
1.0026889
1.0027208
1.0027514
1.0027807
1.0028087
1.0028353
1.0028604
1.002884
1.0029059
1.0029263
1.0029449
1.0029619
1.0029773
1.002991
1.0030033
1.0030143
1.0030239
1.0030323
1.0030394
1.0030451
1.0030493
1.0030528
1.0030599
1.0030564
1.0030549
1.0030538
1.003048
1.003039
1.0030294
1.0030161
1.0030001
1.0029818
1.0029611
1.0029384
1.0029136
1.0028862
1.0028568
1.0028252
1.0027906
1.0027534
1.002715
1.0026723
1.0026281
1.002582
1.0009299
1.0009354
1.0009411
1.0009471
1.0009548
1.0009638
1.0009739
1.0009853
1.0009978
1.0010114
1.0010262
1.0010421
1.001059
1.001077
1.0010961
1.0011162
1.0011373
1.0011595
1.0011827
1.0012069
1.001232
1.0012582
1.0012852
1.0013132
1.0013421
1.0013719
1.0014026
1.001434
1.0014663
1.0014994
1.0015332
1.0015678
1.0016031
1.0016391
1.0016757
1.001713
1.0017509
1.0017893
1.0018282
1.0018675
1.0019073
1.0019473
1.0019877
1.0020282
1.002069
1.0021097
1.0021505
1.0021912
1.0022317
1.0022721
1.0023121
1.0023517
1.0023908
1.0024295
1.0024674
1.0025047
1.0025412
1.0025769
1.0026116
1.0026453
1.0026779
1.0027094
1.0027397
1.0027687
1.0027963
1.0028226
1.0028474
1.0028706
1.0028924
1.0029125
1.0029312
1.0029484
1.0029642
1.0029788
1.0029924
1.0030049
1.0030164
1.0030268
1.0030359
1.0030433
1.0030485
1.0030523
1.0030592
1.0030574
1.003059
1.0030557
1.0030499
1.0030409
1.0030309
1.0030178
1.0030022
1.0029839
1.0029631
1.00294
1.0029148
1.0028874
1.002858
1.0028262
1.0027922
1.0027554
1.0027171
1.0026753
1.0026326
1.002585
1.0009298
1.0009354
1.000941
1.0009471
1.0009548
1.0009637
1.0009739
1.0009852
1.0009977
1.0010113
1.0010261
1.0010419
1.0010588
1.0010768
1.0010958
1.0011158
1.0011369
1.001159
1.0011821
1.0012063
1.0012313
1.0012574
1.0012844
1.0013123
1.001341
1.0013707
1.0014011
1.0014325
1.0014646
1.0014974
1.0015311
1.0015655
1.0016006
1.0016364
1.0016728
1.0017099
1.0017475
1.0017857
1.0018243
1.0018634
1.0019029
1.0019426
1.0019827
1.0020229
1.0020633
1.0021038
1.0021442
1.0021845
1.0022247
1.0022646
1.0023043
1.0023435
1.0023823
1.0024205
1.0024581
1.0024949
1.002531
1.0025663
1.0026006
1.0026339
1.0026662
1.0026973
1.0027272
1.0027559
1.0027832
1.0028092
1.0028338
1.002857
1.0028788
1.0028992
1.0029184
1.0029366
1.0029538
1.0029703
1.0029859
1.0030008
1.0030142
1.0030259
1.0030362
1.0030447
1.003051
1.0030551
1.0030583
1.003064
1.0030622
1.0030618
1.0030559
1.0030471
1.0030369
1.003024
1.0030087
1.0029909
1.0029707
1.002948
1.0029231
1.002896
1.0028668
1.0028351
1.0028016
1.0027652
1.0027277
1.0026861
1.0026455
1.002596
1.0009297
1.0009353
1.000941
1.0009471
1.0009547
1.0009637
1.0009738
1.0009851
1.0009976
1.0010112
1.0010259
1.0010417
1.0010586
1.0010765
1.0010954
1.0011154
1.0011365
1.0011585
1.0011815
1.0012056
1.0012306
1.0012565
1.0012834
1.0013111
1.0013398
1.0013693
1.0013996
1.0014307
1.0014626
1.0014953
1.0015288
1.001563
1.0015978
1.0016334
1.0016696
1.0017064
1.0017438
1.0017817
1.00182
1.0018589
1.001898
1.0019375
1.0019772
1.0020171
1.0020571
1.0020972
1.0021372
1.0021772
1.002217
1.0022565
1.0022958
1.0023346
1.0023729
1.0024107
1.0024479
1.0024843
1.00252
1.0025548
1.0025887
1.0026217
1.0026536
1.0026844
1.002714
1.0027425
1.0027697
1.0027956
1.0028203
1.0028438
1.0028662
1.0028877
1.0029085
1.0029287
1.0029483
1.0029672
1.0029846
1.0030009
1.0030157
1.0030289
1.0030402
1.0030497
1.0030572
1.0030625
1.0030661
1.0030717
1.0030705
1.0030711
1.0030657
1.0030574
1.0030477
1.0030354
1.0030208
1.0030037
1.0029844
1.0029625
1.0029385
1.0029121
1.0028836
1.0028525
1.0028197
1.0027839
1.0027473
1.0027062
1.0026674
1.0026164
1.0009296
1.0009353
1.000941
1.0009471
1.0009547
1.0009637
1.0009738
1.0009851
1.0009975
1.0010111
1.0010257
1.0010415
1.0010583
1.0010762
1.0010951
1.001115
1.001136
1.0011579
1.0011809
1.0012048
1.0012297
1.0012556
1.0012823
1.0013099
1.0013384
1.0013677
1.0013978
1.0014287
1.0014605
1.0014929
1.0015262
1.0015601
1.0015948
1.0016301
1.001666
1.0017026
1.0017397
1.0017773
1.0018153
1.0018538
1.0018927
1.0019318
1.0019711
1.0020107
1.0020503
1.00209
1.0021296
1.0021692
1.0022085
1.0022476
1.0022864
1.0023248
1.0023627
1.0024
1.0024367
1.0024728
1.002508
1.0025425
1.002576
1.0026086
1.0026403
1.0026708
1.0027004
1.0027288
1.0027561
1.0027824
1.0028078
1.0028324
1.0028565
1.0028802
1.0029036
1.0029262
1.0029475
1.0029681
1.0029874
1.0030052
1.0030214
1.0030361
1.0030489
1.0030598
1.0030687
1.0030753
1.0030795
1.0030823
1.0030866
1.0030854
1.003081
1.0030742
1.0030653
1.0030537
1.0030399
1.0030236
1.003005
1.0029839
1.0029608
1.0029351
1.0029076
1.0028773
1.0028455
1.0028104
1.002775
1.0027344
1.0026975
1.0026456
1.0009295
1.0009353
1.000941
1.0009471
1.0009547
1.0009636
1.0009737
1.000985
1.0009974
1.0010109
1.0010255
1.0010412
1.001058
1.0010758
1.0010946
1.0011145
1.0011354
1.0011573
1.0011802
1.001204
1.0012288
1.0012545
1.0012811
1.0013085
1.0013368
1.0013659
1.0013958
1.0014265
1.001458