/*--------------------------------*- C++ -*----------------------------------*\
| =========                 |                                                 |
| \\      /  F ield         | OpenFOAM: The Open Source CFD Toolbox           |
|  \\    /   O peration     | Version:  2406                                  |
|   \\  /    A nd           | Website:  www.openfoam.com                      |
|    \\/     M anipulation  |                                                 |
\*---------------------------------------------------------------------------*/
FoamFile
{
    version     2.0;
    format      ascii;
    arch        "LSB;label=32;scalar=64";
    class       volScalarField;
    location    "700";
    object      TMean;
}
// * * * * * * * * * * * * * * * * * * * * * * * * * * * * * * * * * * * * * //

dimensions      [0 0 0 1 0 0 0];

internalField   nonuniform List<scalar> 
132739
(
1.0007356
1.0007177
1.0007145
1.0007198
1.0007239
1.0007278
1.000733
1.0007404
1.0007468
1.0007559
1.0007644
1.0007754
1.0007862
1.0007974
1.0008104
1.0008245
1.0008374
1.0008486
1.0008641
1.0008818
1.0008961
1.0009123
1.0009331
1.0009489
1.0009709
1.0009893
1.001013
1.0010362
1.0010628
1.0010935
1.0011275
1.0011627
1.001201
1.0012408
1.0012803
1.0013229
1.0013612
1.0014091
1.0014529
1.00149
1.0015329
1.0015789
1.0016215
1.0016658
1.0017086
1.001755
1.0017996
1.0018444
1.0018854
1.0019303
1.0019714
1.002016
1.0020509
1.0020948
1.0021319
1.002172
1.0022045
1.0022409
1.002272
1.0023081
1.0023431
1.0023656
1.0023982
1.0024271
1.0024511
1.0024814
1.0025049
1.0025308
1.0025609
1.0025778
1.0026045
1.002621
1.0026391
1.0026497
1.0026694
1.0026808
1.0026913
1.0026966
1.002706
1.002709
1.0027081
1.002705
1.0026915
1.0026716
1.002637
1.0025912
1.0025346
1.0024681
1.0023937
1.0023145
1.0022283
1.0021341
1.0020291
1.0019145
1.0017906
1.0016609
1.0015253
1.0013928
1.0012665
1.0011372
1.0009908
1.0008387
1.0006816
1.0005135
1.0007362
1.0007175
1.0007143
1.0007196
1.000724
1.000728
1.000734
1.0007418
1.0007485
1.0007563
1.0007661
1.0007769
1.0007857
1.0007983
1.0008132
1.0008242
1.0008371
1.0008531
1.0008673
1.0008818
1.0008974
1.0009131
1.0009347
1.0009511
1.000972
1.0009905
1.0010141
1.0010382
1.0010641
1.0010934
1.001129
1.0011624
1.0012018
1.0012388
1.0012794
1.0013231
1.0013608
1.0014049
1.0014445
1.001491
1.0015295
1.001577
1.0016202
1.0016628
1.0017074
1.0017525
1.0017941
1.0018406
1.00188
1.0019252
1.0019635
1.0020036
1.0020466
1.0020856
1.0021189
1.0021584
1.0021911
1.0022239
1.0022542
1.0022932
1.0023199
1.0023511
1.0023776
1.0024107
1.0024313
1.0024632
1.0024867
1.0025042
1.0025406
1.0025521
1.0025682
1.002591
1.0026005
1.0026194
1.0026296
1.0026441
1.0026587
1.0026648
1.0026739
1.0026772
1.0026773
1.0026748
1.0026618
1.0026441
1.0026185
1.0025818
1.0025328
1.0024734
1.0024028
1.0023243
1.0022347
1.0021393
1.0020355
1.0019216
1.0017995
1.0016715
1.0015364
1.001401
1.0012631
1.0011251
1.0009758
1.0008318
1.0006724
1.0005047
1.0007376
1.000717
1.000715
1.0007199
1.0007239
1.0007291
1.0007347
1.0007421
1.0007506
1.0007575
1.0007665
1.0007782
1.0007873
1.0007997
1.0008141
1.0008248
1.0008372
1.0008536
1.0008674
1.0008817
1.0009006
1.0009151
1.0009352
1.0009516
1.0009713
1.0009901
1.0010111
1.0010388
1.0010642
1.0010934
1.0011242
1.0011588
1.0011976
1.001235
1.0012764
1.0013195
1.0013568
1.0014006
1.0014385
1.0014865
1.0015245
1.001574
1.0016168
1.0016577
1.0017056
1.0017466
1.0017899
1.0018341
1.0018725
1.0019146
1.001956
1.0019923
1.0020361
1.0020711
1.0021014
1.0021407
1.0021768
1.0022061
1.0022382
1.0022744
1.0023024
1.0023305
1.002361
1.0023892
1.0024177
1.0024416
1.0024649
1.0024825
1.0025058
1.0025266
1.0025429
1.0025734
1.0025812
1.0025977
1.0026088
1.0026196
1.0026246
1.0026286
1.0026326
1.0026363
1.0026354
1.0026312
1.0026226
1.0026019
1.0025776
1.0025427
1.0024983
1.0024426
1.0023779
1.002303
1.0022203
1.0021278
1.0020248
1.0019154
1.0017958
1.0016705
1.0015386
1.0014046
1.0012681
1.0011304
1.0009869
1.0008339
1.0006709
1.0004926
1.0007378
1.000717
1.0007147
1.00072
1.0007234
1.0007296
1.0007346
1.0007415
1.0007492
1.0007572
1.0007678
1.0007772
1.0007866
1.0007995
1.0008112
1.0008228
1.0008351
1.0008515
1.0008647
1.0008797
1.0008962
1.0009115
1.0009298
1.000947
1.000967
1.0009871
1.0010078
1.0010332
1.0010602
1.0010886
1.0011236
1.0011562
1.0011961
1.001233
1.0012729
1.0013152
1.0013522
1.0013943
1.0014367
1.0014785
1.0015217
1.0015633
1.0016107
1.0016547
1.0016955
1.0017367
1.001777
1.0018212
1.0018581
1.001902
1.0019374
1.0019734
1.0020249
1.0020559
1.0020841
1.0021223
1.0021592
1.0021882
1.00222
1.002256
1.0022841
1.0023097
1.0023387
1.0023652
1.0023928
1.0024142
1.0024418
1.0024596
1.002479
1.0025004
1.0025155
1.0025325
1.0025511
1.0025704
1.0025798
1.0025887
1.0025974
1.0026011
1.0026003
1.0026087
1.0026041
1.0026003
1.0025885
1.0025696
1.0025451
1.0025117
1.0024687
1.0024147
1.0023522
1.0022791
1.0021976
1.0021091
1.0020124
1.001907
1.0017927
1.0016722
1.0015407
1.0014097
1.0012721
1.0011369
1.0009952
1.00085
1.0006983
1.0005209
1.000738
1.0007171
1.0007153
1.0007199
1.0007233
1.0007286
1.0007344
1.0007414
1.0007481
1.0007566
1.0007661
1.0007762
1.0007865
1.0007985
1.0008102
1.0008233
1.0008345
1.0008505
1.0008638
1.0008766
1.0008948
1.0009112
1.0009273
1.0009477
1.0009666
1.0009856
1.0010063
1.0010315
1.001058
1.0010893
1.0011208
1.0011535
1.0011929
1.0012295
1.0012681
1.0013112
1.0013487
1.001393
1.0014327
1.0014722
1.001522
1.0015596
1.0016006
1.0016524
1.0016907
1.0017285
1.0017685
1.001811
1.0018466
1.0018884
1.0019234
1.0019624
1.0019957
1.002037
1.0020696
1.0021083
1.002144
1.0021738
1.0022093
1.0022425
1.0022678
1.0023012
1.0023239
1.0023554
1.0023798
1.0024011
1.0024244
1.0024458
1.0024606
1.0024827
1.002494
1.0025113
1.0025214
1.0025428
1.0025451
1.0025544
1.0025633
1.0025623
1.0025679
1.0025678
1.0025612
1.0025548
1.0025422
1.0025289
1.002503
1.0024732
1.002434
1.0023835
1.0023222
1.00225
1.0021713
1.0020821
1.0019877
1.0018892
1.0017811
1.0016673
1.0015433
1.0014136
1.0012829
1.0011472
1.0010101
1.0008688
1.0007169
1.0005498
1.000738
1.0007169
1.0007151
1.000721
1.000724
1.0007293
1.0007349
1.0007422
1.0007494
1.0007574
1.000767
1.0007755
1.000787
1.000797
1.0008093
1.0008234
1.0008327
1.0008472
1.0008638
1.0008762
1.0008933
1.00091
1.000925
1.000944
1.000964
1.0009835
1.0010029
1.0010275
1.0010563
1.001088
1.0011185
1.0011521
1.0011884
1.0012272
1.0012628
1.0013054
1.0013448
1.0013866
1.0014258
1.0014683
1.001509
1.001551
1.0015976
1.0016346
1.0016757
1.0017188
1.0017563
1.0017954
1.0018325
1.0018719
1.0019088
1.0019454
1.0019856
1.0020211
1.0020582
1.0020937
1.0021283
1.0021638
1.002194
1.0022393
1.0022618
1.002286
1.0023178
1.0023389
1.002371
1.0023881
1.0024127
1.0024271
1.0024571
1.002469
1.0024792
1.0024912
1.002509
1.0025127
1.0025264
1.0025291
1.0025383
1.0025347
1.0025385
1.0025344
1.0025272
1.0025192
1.0025083
1.0024933
1.0024666
1.0024398
1.0024021
1.0023528
1.0022961
1.0022292
1.0021503
1.0020608
1.0019634
1.0018619
1.0017576
1.0016447
1.0015294
1.0014072
1.0012826
1.0011503
1.0010178
1.0008837
1.0007369
1.0005754
1.0007375
1.0007181
1.0007152
1.0007201
1.0007243
1.0007291
1.0007348
1.0007416
1.0007492
1.0007569
1.0007663
1.0007762
1.0007856
1.0007983
1.0008083
1.0008225
1.000833
1.0008488
1.0008621
1.000876
1.0008901
1.0009076
1.0009256
1.0009418
1.0009619
1.0009801
1.0010019
1.0010272
1.0010533
1.0010853
1.0011144
1.0011509
1.0011853
1.0012267
1.0012602
1.0013001
1.001342
1.0013811
1.0014186
1.0014624
1.0015037
1.0015412
1.0015849
1.0016257
1.0016648
1.0017073
1.0017426
1.0017841
1.0018208
1.0018616
1.0018988
1.0019395
1.0019736
1.0020113
1.0020503
1.0020854
1.0021225
1.0021555
1.0021835
1.0022173
1.0022476
1.0022753
1.0023012
1.0023241
1.0023517
1.0023713
1.0023953
1.0024117
1.0024299
1.0024484
1.0024599
1.0024669
1.0024842
1.0024879
1.0024939
1.0024991
1.0024992
1.0024951
1.0024989
1.0024932
1.0024838
1.0024779
1.0024633
1.0024471
1.0024226
1.0023954
1.0023588
1.002317
1.0022637
1.0021987
1.0021254
1.0020411
1.0019483
1.0018479
1.0017439
1.0016339
1.0015152
1.0013927
1.0012692
1.0011437
1.0010144
1.0008881
1.0007499
1.0005991
1.0007381
1.0007173
1.0007157
1.0007202
1.000724
1.0007289
1.0007339
1.00074
1.0007478
1.0007556
1.0007663
1.0007746
1.0007864
1.0007973
1.0008067
1.0008199
1.000831
1.0008458
1.0008593
1.000872
1.0008893
1.000904
1.0009226
1.0009383
1.0009584
1.0009774
1.0009983
1.0010256
1.0010508
1.0010799
1.0011103
1.0011455
1.0011786
1.0012167
1.0012517
1.0012924
1.0013318
1.0013704
1.001412
1.0014532
1.0014949
1.0015334
1.001575
1.0016155
1.0016552
1.0016945
1.0017356
1.0017721
1.0018116
1.0018515
1.0018896
1.0019277
1.0019674
1.0020026
1.0020402
1.0020744
1.0021075
1.0021466
1.002173
1.0022053
1.0022388
1.0022609
1.00229
1.0023121
1.0023389
1.0023577
1.0023786
1.0023992
1.002413
1.0024449
1.0024527
1.0024608
1.0024705
1.0024751
1.0024844
1.0024864
1.0024882
1.0024803
1.0024767
1.0024664
1.002457
1.0024405
1.0024235
1.0024076
1.0023821
1.0023506
1.0023152
1.0022713
1.0022231
1.0021655
1.0020938
1.0020127
1.0019221
1.0018265
1.0017254
1.0016235
1.0015102
1.0013951
1.0012658
1.0011407
1.0010089
1.0008846
1.0007526
1.0006113
1.0007381
1.0007176
1.0007158
1.0007202
1.0007237
1.0007281
1.0007352
1.0007399
1.0007484
1.0007557
1.0007664
1.0007752
1.0007865
1.0007951
1.000808
1.0008183
1.0008314
1.0008444
1.0008581
1.0008691
1.0008856
1.000901
1.0009193
1.0009356
1.000955
1.0009736
1.0009954
1.0010193
1.0010458
1.0010731
1.0011067
1.0011391
1.0011727
1.0012083
1.0012445
1.0012879
1.0013262
1.001364
1.001408
1.0014455
1.0014872
1.0015269
1.0015665
1.0016065
1.0016469
1.0016853
1.0017261
1.0017633
1.0018079
1.0018454
1.0018819
1.001923
1.0019587
1.0019948
1.002031
1.0020646
1.0020991
1.0021329
1.0021596
1.0021888
1.0022238
1.002245
1.0022724
1.002297
1.0023212
1.0023454
1.0023625
1.0023821
1.0023977
1.0024124
1.0024308
1.0024441
1.0024546
1.0024588
1.002468
1.0024671
1.0024724
1.0024666
1.0024591
1.0024488
1.0024354
1.0024163
1.0024032
1.0023742
1.0023507
1.0023168
1.0022796
1.0022343
1.0021832
1.002125
1.00206
1.00198
1.0018929
1.0017977
1.0016992
1.0016016
1.0014937
1.0013829
1.0012659
1.0011479
1.0010173
1.0008931
1.0007639
1.0006298
1.0007383
1.0007174
1.000717
1.0007202
1.0007235
1.000728
1.0007344
1.0007393
1.000747
1.0007553
1.0007635
1.0007723
1.0007845
1.0007926
1.0008056
1.0008172
1.0008272
1.0008408
1.0008531
1.0008665
1.0008803
1.0008958
1.0009156
1.0009317
1.0009492
1.0009717
1.0009914
1.0010162
1.0010421
1.0010727
1.0011023
1.0011378
1.0011711
1.0012034
1.0012419
1.0012798
1.0013177
1.0013558
1.0013997
1.0014372
1.0014777
1.0015189
1.0015565
1.0015975
1.0016356
1.0016775
1.0017169
1.0017558
1.0017939
1.0018319
1.0018703
1.0019098
1.0019464
1.0019833
1.0020177
1.0020538
1.0020859
1.0021157
1.0021444
1.002178
1.0022046
1.0022349
1.0022575
1.0022861
1.0023073
1.0023291
1.0023466
1.0023684
1.0023826
1.0023975
1.0024118
1.0024198
1.0024309
1.0024371
1.0024402
1.002442
1.0024407
1.0024367
1.0024347
1.0024197
1.0024325
1.0024091
1.002384
1.0023567
1.0023253
1.0022911
1.0022526
1.0022054
1.0021535
1.0020936
1.0020267
1.0019516
1.0018644
1.0017733
1.0016709
1.0015725
1.001468
1.0013629
1.0012452
1.0011337
1.0010063
1.0008861
1.0007592
1.0006292
1.0007385
1.0007174
1.0007164
1.0007205
1.0007236
1.000728
1.0007335
1.0007385
1.0007457
1.0007545
1.0007625
1.0007705
1.0007821
1.0007893
1.0008025
1.0008118
1.0008239
1.0008372
1.000849
1.0008618
1.000876
1.0008954
1.0009104
1.0009261
1.0009451
1.0009665
1.0009858
1.0010136
1.0010403
1.0010693
1.0011008
1.0011333
1.0011654
1.0012024
1.0012369
1.0012749
1.0013109
1.0013504
1.0013911
1.0014286
1.0014663
1.0015098
1.0015465
1.0015895
1.0016272
1.0016661
1.0017078
1.0017462
1.0017857
1.0018223
1.0018643
1.0019016
1.0019369
1.0019744
1.0020068
1.0020403
1.0020752
1.0021045
1.0021345
1.0021749
1.0021985
1.0022272
1.0022504
1.0022768
1.0022986
1.0023142
1.0023318
1.0023674
1.0023724
1.0024001
1.0024033
1.0024113
1.0024182
1.0024225
1.0024268
1.0024231
1.0024276
1.00242
1.002412
1.0023989
1.0023894
1.002374
1.0023557
1.0023292
1.0022988
1.0022642
1.0022224
1.0021809
1.0021265
1.0020691
1.0020007
1.0019292
1.0018393
1.0017503
1.0016526
1.0015535
1.0014495
1.0013425
1.0012354
1.0011219
1.0010028
1.0008828
1.0007593
1.0006272
1.0007383
1.0007175
1.0007155
1.0007201
1.0007237
1.000727
1.0007332
1.0007384
1.0007471
1.0007542
1.0007616
1.0007721
1.0007802
1.0007886
1.0007991
1.0008081
1.0008219
1.0008326
1.0008468
1.0008581
1.0008762
1.0008881
1.000905
1.0009201
1.0009388
1.0009608
1.0009801
1.0010086
1.0010358
1.0010649
1.0010946
1.0011304
1.0011601
1.0011974
1.0012286
1.0012705
1.0013033
1.0013446
1.0013845
1.0014207
1.0014569
1.001502
1.001537
1.0015805
1.0016188
1.0016575
1.0016973
1.0017365
1.0017734
1.0018134
1.001849
1.0018898
1.0019277
1.0019608
1.0019981
1.0020306
1.0020653
1.0020957
1.002129
1.002156
1.0021827
1.002209
1.0022453
1.0022655
1.0022791
1.002299
1.0023298
1.0023404
1.0023556
1.0023726
1.0023823
1.002401
1.0024027
1.0024103
1.0024139
1.0024089
1.0024051
1.0024009
1.0023889
1.0023785
1.0023612
1.0023433
1.0023232
1.0022975
1.002266
1.0022315
1.0021902
1.0021436
1.0020957
1.0020346
1.0019698
1.0018975
1.0018167
1.0017282
1.0016273
1.0015258
1.0014221
1.0013145
1.001207
1.001094
1.0009782
1.0008599
1.0007362
1.0006178
1.0007379
1.000718
1.0007147
1.0007187
1.0007235
1.000726
1.0007317
1.0007368
1.0007438
1.0007516
1.0007592
1.0007698
1.0007765
1.0007868
1.0007968
1.000805
1.0008167
1.0008286
1.0008407
1.0008525
1.0008698
1.0008817
1.0008993
1.0009136
1.0009316
1.0009543
1.0009746
1.0010038
1.0010288
1.0010611
1.00109
1.0011244
1.0011551
1.0011906
1.0012247
1.0012619
1.0012952
1.0013351
1.0013728
1.0014096
1.0014531
1.0014895
1.0015283
1.0015694
1.0016091
1.0016484
1.0016882
1.001726
1.0017649
1.001802
1.0018381
1.0018782
1.0019106
1.0019482
1.001983
1.0020157
1.002051
1.0020849
1.0021151
1.002143
1.0021684
1.0021969
1.0022197
1.0022419
1.0022679
1.0022858
1.0023009
1.0023279
1.0023397
1.0023683
1.0023745
1.0023773
1.0023846
1.0024087
1.0024052
1.0023998
1.0023975
1.0023938
1.002383
1.002366
1.0023499
1.0023273
1.0023018
1.0022728
1.0022397
1.0022051
1.0021618
1.0021128
1.0020619
1.0020053
1.0019398
1.0018695
1.0017847
1.0017144
1.0016219
1.0015182
1.0014081
1.0012975
1.0011854
1.0010722
1.0009579
1.0008391
1.0007135
1.0005948
1.0007382
1.0007176
1.0007147
1.0007181
1.0007223
1.0007263
1.0007298
1.0007371
1.0007424
1.0007514
1.000758
1.000768
1.0007753
1.000785
1.0007934
1.0008025
1.0008138
1.0008259
1.0008369
1.000849
1.0008632
1.0008757
1.0008919
1.0009066
1.0009281
1.0009472
1.0009714
1.0010003
1.0010253
1.0010566
1.0010856
1.001118
1.0011507
1.0011826
1.0012205
1.001252
1.0012912
1.0013268
1.0013653
1.0014021
1.0014438
1.0014798
1.0015175
1.0015596
1.0015987
1.0016367
1.0016742
1.001713
1.0017518
1.0017886
1.001829
1.0018652
1.0018986
1.0019361
1.0019734
1.0020047
1.0020372
1.0020714
1.0020996
1.0021291
1.0021552
1.0021782
1.0022113
1.0022278
1.0022489
1.0022806
1.0022915
1.002316
1.0023253
1.0023382
1.0023566
1.0023617
1.0023657
1.0023746
1.0023788
1.0023773
1.0023732
1.0023867
1.0023735
1.0023562
1.0023417
1.0023166
1.0022931
1.0022617
1.0022274
1.0021894
1.0021444
1.0020919
1.0020358
1.0019793
1.0019078
1.0018372
1.0017571
1.0016726
1.0015861
1.0014897
1.0013835
1.0012747
1.0011588
1.0010419
1.0009257
1.0008122
1.0006853
1.0005649
1.0007385
1.0007172
1.0007148
1.0007181
1.0007224
1.0007257
1.0007297
1.000736
1.000742
1.0007481
1.0007557
1.000766
1.0007729
1.0007836
1.0007907
1.0007998
1.0008096
1.0008216
1.0008318
1.0008451
1.0008584
1.0008704
1.0008871
1.0009016
1.0009237
1.0009422
1.0009695
1.0009933
1.0010223
1.0010534
1.0010823
1.0011131
1.0011472
1.0011769
1.0012124
1.0012452
1.0012846
1.0013194
1.0013596
1.001395
1.0014341
1.0014703
1.0015102
1.0015485
1.0015859
1.0016241
1.0016626
1.0017027
1.0017399
1.0017766
1.0018163
1.001852
1.0018875
1.0019248
1.0019591
1.0019933
1.0020208
1.0020584
1.0020849
1.0021123
1.002141
1.0021624
1.0021941
1.0022116
1.0022408
1.0022581
1.0022724
1.0022906
1.0023123
1.0023213
1.0023362
1.00234
1.0023453
1.0023524
1.0023516
1.0023547
1.0023544
1.0023531
1.0023461
1.0023338
1.0023223
1.002301
1.0022767
1.0022479
1.0022139
1.0021738
1.0021277
1.0020736
1.0020138
1.0019547
1.0018843
1.001813
1.0017313
1.0016469
1.0015574
1.001462
1.0013556
1.0012523
1.0011342
1.0010187
1.000901
1.0007818
1.0006531
1.0005341
1.0007386
1.0007173
1.0007143
1.0007177
1.0007217
1.0007249
1.0007305
1.0007348
1.000742
1.0007471
1.0007564
1.0007639
1.0007714
1.0007804
1.0007867
1.0007976
1.000806
1.0008173
1.0008285
1.0008406
1.0008528
1.0008664
1.0008821
1.0008975
1.0009182
1.0009384
1.0009648
1.0009887
1.0010187
1.001048
1.0010755
1.0011102
1.0011399
1.0011722
1.0012059
1.0012387
1.001277
1.0013122
1.0013483
1.0013843
1.0014225
1.0014595
1.0014997
1.0015391
1.0015755
1.0016155
1.0016524
1.0016899
1.0017289
1.0017637
1.0018044
1.0018381
1.0018744
1.0019084
1.0019428
1.001976
1.0020042
1.0020335
1.0020673
1.0020954
1.0021199
1.0021489
1.0021719
1.0021985
1.0022185
1.0022392
1.0022564
1.0022764
1.0022892
1.0023038
1.0023209
1.002322
1.0023311
1.0023415
1.0023398
1.0023435
1.0023442
1.0023389
1.0023395
1.0023259
1.0023148
1.0022931
1.0022696
1.0022398
1.0022066
1.0021675
1.0021169
1.0020615
1.001995
1.001931
1.0018562
1.0017853
1.0017025
1.0016203
1.0015294
1.0014354
1.0013301
1.0012249
1.0011119
1.0009904
1.0008728
1.0007535
1.0006223
1.0005022
1.000739
1.0007171
1.0007144
1.0007173
1.0007211
1.0007243
1.00073
1.0007343
1.0007413
1.000746
1.0007547
1.000761
1.0007706
1.0007767
1.0007857
1.0007943
1.0008028
1.0008154
1.0008244
1.000838
1.00085
1.0008629
1.0008766
1.0008938
1.0009122
1.0009348
1.0009587
1.0009836
1.0010132
1.0010413
1.0010698
1.0011043
1.0011319
1.0011664
1.0011992
1.0012313
1.0012666
1.0013021
1.0013384
1.001376
1.0014097
1.0014506
1.0014879
1.0015268
1.001563
1.0016042
1.0016407
1.0016778
1.0017161
1.0017533
1.0017891
1.0018245
1.0018609
1.0018953
1.0019261
1.001958
1.0019923
1.0020203
1.0020481
1.002079
1.0021057
1.0021299
1.002157
1.0021765
1.0022001
1.0022182
1.0022376
1.0022636
1.002273
1.0022879
1.0023052
1.0023105
1.0023185
1.0023251
1.0023254
1.0023266
1.0023283
1.002322
1.0023179
1.0023073
1.0023005
1.0022814
1.0022559
1.0022288
1.002196
1.0021571
1.0021063
1.002049
1.0019815
1.001914
1.0018358
1.001761
1.0016749
1.001592
1.0014997
1.0014076
1.0013016
1.0011979
1.0010894
1.0009698
1.000849
1.0007309
1.0005968
1.0004746
1.0007392
1.0007167
1.0007145
1.000717
1.0007209
1.0007238
1.0007288
1.0007334
1.0007398
1.0007452
1.0007511
1.0007611
1.0007672
1.0007761
1.0007824
1.0007909
1.0008004
1.0008122
1.0008212
1.0008338
1.0008447
1.0008579
1.0008727
1.0008893
1.0009083
1.0009313
1.0009538
1.0009811
1.0010081
1.0010353
1.0010655
1.0010963
1.0011245
1.001159
1.0011901
1.0012243
1.0012577
1.001294
1.0013273
1.0013671
1.0014009
1.0014392
1.0014763
1.0015142
1.0015532
1.0015906
1.0016277
1.0016675
1.0017054
1.0017406
1.0017762
1.0018097
1.0018469
1.0018793
1.0019117
1.0019439
1.0019731
1.0020075
1.002034
1.0020598
1.0020939
1.0021157
1.002142
1.0021624
1.0021813
1.0022046
1.0022201
1.0022456
1.002255
1.0022659
1.0022825
1.0022867
1.0022939
1.002303
1.0023041
1.002302
1.0023023
1.0022977
1.0022926
1.002279
1.0022701
1.0022522
1.0022276
1.0022069
1.0021751
1.0021418
1.0020956
1.0020415
1.0019705
1.0018965
1.0018126
1.0017364
1.0016453
1.0015634
1.0014682
1.001383
1.0012784
1.0011747
1.0010633
1.000946
1.0008254
1.0007087
1.0005735
1.0004497
1.0007385
1.000717
1.0007142
1.0007174
1.0007203
1.0007227
1.0007281
1.0007322
1.0007371
1.0007441
1.0007496
1.000759
1.0007646
1.0007734
1.0007793
1.0007871
1.0007964
1.0008075
1.0008157
1.0008279
1.0008388
1.0008526
1.0008659
1.0008851
1.000903
1.000927
1.0009486
1.0009751
1.0010026
1.00103
1.0010575
1.0010897
1.0011176
1.0011498
1.001182
1.0012151
1.0012496
1.0012845
1.0013177
1.0013572
1.0013923
1.0014289
1.0014669
1.0015049
1.0015423
1.0015799
1.0016156
1.001655
1.001692
1.0017263
1.0017614
1.0017984
1.0018308
1.001865
1.0018957
1.0019302
1.0019587
1.0019893
1.0020179
1.0020462
1.0020704
1.0020959
1.0021267
1.0021456
1.0021642
1.0021857
1.0022018
1.0022191
1.002235
1.0022448
1.0022618
1.0022639
1.0022718
1.0022856
1.0022824
1.002277
1.0022739
1.0022677
1.0022654
1.0022538
1.0022426
1.0022237
1.0021994
1.0021735
1.002145
1.0021089
1.0020646
1.0020136
1.0019478
1.0018781
1.0017927
1.0017107
1.0016188
1.0015315
1.0014358
1.0013439
1.0012408
1.0011441
1.0010337
1.0009204
1.000799
1.0006807
1.0005526
1.0004321
1.0007385
1.0007166
1.0007141
1.0007168
1.0007195
1.0007223
1.0007262
1.0007317
1.0007353
1.0007425
1.0007475
1.0007572
1.0007624
1.0007699
1.000775
1.0007838
1.0007907
1.0008012
1.0008094
1.0008212
1.0008329
1.0008447
1.0008603
1.0008785
1.0008973
1.0009219
1.0009432
1.000972
1.0009958
1.0010254
1.0010506
1.0010825
1.0011104
1.0011422
1.0011742
1.0012075
1.0012397
1.0012761
1.0013104
1.0013474
1.0013829
1.001419
1.0014543
1.001496
1.0015324
1.0015685
1.001606
1.0016412
1.0016774
1.0017116
1.0017511
1.0017849
1.0018187
1.0018523
1.0018833
1.0019155
1.0019445
1.0019748
1.0020023
1.0020314
1.0020543
1.0020803
1.002103
1.0021282
1.0021466
1.0021692
1.002184
1.0021953
1.0022143
1.0022247
1.0022334
1.00224
1.0022479
1.0022508
1.002256
1.0022545
1.002248
1.0022409
1.002237
1.0022239
1.0022132
1.0021927
1.0021695
1.0021437
1.0021144
1.0020797
1.0020368
1.001988
1.0019217
1.001855
1.0017688
1.0016896
1.0015927
1.0015069
1.0014062
1.0013156
1.0012071
1.0011091
1.0009978
1.0008874
1.0007654
1.0006508
1.0005204
1.0004007
1.0007388
1.0007162
1.0007143
1.0007159
1.0007192
1.0007218
1.0007251
1.0007304
1.0007332
1.0007408
1.0007457
1.0007538
1.0007583
1.0007657
1.0007704
1.0007791
1.0007857
1.0007949
1.0008037
1.000816
1.0008252
1.0008394
1.0008541
1.0008737
1.0008923
1.0009162
1.0009377
1.0009666
1.0009905
1.0010187
1.0010446
1.001075
1.0011026
1.0011348
1.0011655
1.0011985
1.0012324
1.0012672
1.0013019
1.0013371
1.0013722
1.0014086
1.0014455
1.0014816
1.0015197
1.0015556
1.001592
1.0016287
1.0016631
1.0016986
1.0017347
1.0017693
1.0018044
1.001836
1.001869
1.0018996
1.00193
1.0019589
1.0019877
1.002017
1.0020393
1.0020653
1.0020894
1.0021065
1.0021259
1.0021467
1.0021624
1.0021738
1.0021871
1.0022044
1.0022086
1.0022199
1.0022211
1.0022334
1.0022293
1.0022272
1.0022218
1.0022108
1.0022069
1.0021923
1.0021811
1.0021614
1.0021368
1.0021178
1.0020863
1.0020477
1.00201
1.0019603
1.0018971
1.0018287
1.0017441
1.001663
1.0015671
1.0014783
1.0013715
1.0012776
1.0011673
1.0010653
1.0009585
1.0008504
1.0007337
1.0006176
1.0004892
1.0003755
1.0007389
1.0007158
1.0007137
1.0007157
1.0007182
1.0007207
1.0007238
1.000728
1.0007309
1.0007376
1.0007437
1.000749
1.0007562
1.0007593
1.000767
1.0007735
1.00078
1.000789
1.000797
1.0008083
1.0008185
1.0008338
1.0008485
1.0008664
1.000887
1.0009108
1.0009319
1.0009596
1.0009834
1.0010111
1.0010371
1.0010674
1.001095
1.0011257
1.0011588
1.0011898
1.001224
1.0012567
1.0012921
1.0013268
1.0013615
1.0013994
1.0014325
1.0014717
1.0015068
1.0015436
1.0015763
1.0016164
1.0016482
1.0016863
1.0017178
1.0017566
1.0017876
1.0018216
1.0018522
1.0018825
1.0019174
1.0019436
1.0019748
1.0020018
1.0020248
1.0020478
1.002072
1.0020898
1.0021095
1.0021328
1.0021451
1.0021621
1.0021697
1.002182
1.0021923
1.0021965
1.002205
1.002204
1.0022113
1.0022032
1.0021991
1.0021896
1.0021785
1.0021666
1.0021466
1.0021311
1.0021014
1.0020824
1.0020512
1.0020166
1.0019794
1.001931
1.0018757
1.0018089
1.001729
1.0016461
1.001553
1.0014611
1.0013552
1.0012544
1.0011417
1.0010315
1.0009164
1.0008054
1.0006874
1.0005742
1.0004521
1.0003392
1.0007393
1.0007154
1.0007134
1.0007153
1.0007173
1.0007193
1.0007229
1.0007254
1.0007307
1.0007344
1.0007422
1.0007457
1.0007528
1.0007551
1.0007618
1.0007686
1.0007732
1.0007831
1.0007906
1.0007999
1.0008134
1.0008246
1.0008431
1.0008598
1.0008824
1.0009028
1.0009259
1.0009522
1.0009754
1.0010032
1.0010292
1.0010587
1.0010869
1.0011168
1.0011504
1.0011789
1.0012159
1.001247
1.0012813
1.0013168
1.00135
1.0013889
1.0014206
1.0014603
1.0014921
1.0015289
1.0015638
1.0016008
1.0016331
1.00167
1.0017035
1.001737
1.001772
1.0018034
1.0018369
1.0018673
1.0018983
1.0019282
1.0019553
1.0019807
1.0020058
1.0020333
1.0020516
1.0020727
1.0020938
1.0021088
1.0021244
1.0021448
1.0021529
1.0021659
1.0021731
1.002182
1.0021845
1.0021901
1.0021868
1.0021841
1.0021763
1.0021657
1.0021511
1.002139
1.0021158
1.0021028
1.0020742
1.0020451
1.0020147
1.0019773
1.0019397
1.0018951
1.0018404
1.0017784
1.0017027
1.0016242
1.0015341
1.0014422
1.0013397
1.0012385
1.0011267
1.0010159
1.0009
1.0007819
1.0006584
1.0005402
1.0004123
1.0002999
1.0007397
1.0007151
1.0007134
1.0007149
1.0007163
1.0007182
1.0007219
1.0007233
1.0007289
1.0007318
1.0007392
1.0007422
1.0007479
1.0007505
1.0007564
1.0007622
1.0007662
1.0007767
1.0007835
1.0007929
1.0008051
1.0008174
1.000836
1.0008533
1.0008759
1.000896
1.0009187
1.0009444
1.0009678
1.0009949
1.0010218
1.0010481
1.0010795
1.0011069
1.0011382
1.001169
1.0012031
1.0012344
1.0012693
1.0013038
1.0013386
1.0013733
1.0014081
1.0014446
1.0014779
1.0015158
1.0015475
1.0015853
1.0016179
1.0016541
1.0016886
1.0017215
1.0017539
1.0017885
1.0018195
1.0018485
1.001885
1.00191
1.0019361
1.0019614
1.001986
1.0020122
1.002034
1.0020511
1.0020745
1.0020884
1.0021022
1.0021197
1.0021288
1.0021454
1.0021495
1.0021587
1.0021653
1.0021647
1.0021608
1.0021596
1.0021499
1.0021422
1.0021296
1.0021118
1.0020903
1.0020729
1.0020438
1.0020133
1.0019783
1.0019394
1.0018995
1.0018539
1.0017995
1.0017423
1.001673
1.0015975
1.0015153
1.0014238
1.0013246
1.0012225
1.0011132
1.0010004
1.0008849
1.0007664
1.0006424
1.0005214
1.000387
1.0002698
1.00074
1.0007147
1.0007131
1.0007147
1.000715
1.0007172
1.0007197
1.0007216
1.0007262
1.0007291
1.0007358
1.0007384
1.0007432
1.0007452
1.0007506
1.0007555
1.000759
1.0007685
1.0007751
1.0007851
1.0007965
1.00081
1.0008289
1.0008456
1.0008687
1.0008877
1.0009122
1.0009348
1.0009605
1.0009837
1.0010126
1.0010383
1.0010677
1.0010964
1.0011273
1.0011576
1.0011909
1.0012224
1.0012558
1.001292
1.0013249
1.0013597
1.0013953
1.0014302
1.0014639
1.0014997
1.0015334
1.0015692
1.0016031
1.0016374
1.0016713
1.0017045
1.0017364
1.0017691
1.0017991
1.0018289
1.0018608
1.0018864
1.0019135
1.0019417
1.0019641
1.0019888
1.0020107
1.0020276
1.0020458
1.0020684
1.00208
1.0020948
1.0021031
1.0021153
1.0021232
1.0021277
1.0021371
1.0021365
1.0021335
1.002133
1.0021275
1.0021148
1.0021054
1.002084
1.0020652
1.0020432
1.0020116
1.0019848
1.0019459
1.0019101
1.0018619
1.0018171
1.0017617
1.0017045
1.0016369
1.0015663
1.0014871
1.0014001
1.0013069
1.0012052
1.0011009
1.0009895
1.0008723
1.0007536
1.000629
1.0005059
1.0003725
1.0002523
1.00074
1.0007143
1.0007122
1.0007143
1.0007142
1.000716
1.0007182
1.0007198
1.0007239
1.0007264
1.0007329
1.0007345
1.0007385
1.00074
1.0007443
1.0007479
1.0007532
1.0007601
1.0007667
1.000777
1.0007882
1.0008032
1.0008207
1.0008387
1.0008601
1.000879
1.0009044
1.0009251
1.0009516
1.0009739
1.0010014
1.0010274
1.0010565
1.0010835
1.0011163
1.0011455
1.0011786
1.0012106
1.0012441
1.0012768
1.0013124
1.0013461
1.0013799
1.0014156
1.00145
1.0014846
1.0015173
1.0015545
1.0015862
1.0016211
1.0016527
1.0016849
1.0017164
1.0017476
1.0017785
1.0018076
1.0018359
1.0018647
1.0018913
1.001918
1.0019435
1.0019657
1.001985
1.0020035
1.0020268
1.0020387
1.0020577
1.0020693
1.0020782
1.0020889
1.0020964
1.0020996
1.0021032
1.002108
1.0021035
1.0021076
1.0020989
1.0020884
1.0020776
1.002061
1.0020387
1.0020177
1.0019858
1.0019562
1.0019171
1.0018773
1.0018307
1.0017827
1.0017278
1.0016699
1.0016055
1.001534
1.0014605
1.001377
1.0012886
1.0011916
1.0010891
1.0009807
1.0008661
1.0007485
1.000623
1.0004981
1.0003654
1.0002384
1.0007399
1.000714
1.0007118
1.0007135
1.0007137
1.0007152
1.0007168
1.0007182
1.0007218
1.000724
1.0007292
1.0007302
1.0007338
1.0007339
1.0007377
1.0007409
1.0007457
1.0007521
1.0007586
1.0007685
1.0007813
1.0007957
1.0008132
1.0008315
1.0008508
1.0008714
1.0008938
1.0009151
1.0009401
1.0009633
1.0009899
1.0010154
1.0010445
1.0010722
1.0011024
1.0011333
1.001165
1.001197
1.0012311
1.0012623
1.0012976
1.0013307
1.0013655
1.0013993
1.0014338
1.0014681
1.001502
1.0015356
1.0015685
1.001602
1.0016348
1.0016654
1.0016972
1.0017273
1.001759
1.0017868
1.001816
1.0018417
1.0018684
1.0018956
1.0019179
1.001942
1.0019599
1.0019791
1.0020024
1.0020138
1.0020339
1.0020448
1.0020524
1.0020658
1.0020706
1.0020747
1.0020807
1.0020787
1.0020761
1.0020767
1.0020675
1.0020609
1.0020483
1.0020323
1.0020095
1.001988
1.0019588
1.0019268
1.0018863
1.0018474
1.0017983
1.0017489
1.0016935
1.0016344
1.0015693
1.0015013
1.0014253
1.001347
1.0012619
1.0011703
1.0010725
1.0009716
1.000859
1.0007464
1.0006233
1.0004996
1.0003626
1.0002362
1.0007393
1.0007142
1.000711
1.000713
1.000713
1.0007139
1.0007154
1.0007168
1.0007196
1.0007212
1.0007253
1.0007255
1.0007279
1.0007278
1.0007307
1.0007341
1.000737
1.000744
1.0007502
1.0007608
1.0007742
1.0007881
1.0008054
1.0008235
1.0008423
1.0008624
1.0008842
1.0009046
1.0009288
1.0009528
1.0009792
1.0010031
1.0010325
1.0010602
1.00109
1.0011202
1.0011517
1.0011828
1.0012158
1.0012488
1.001281
1.0013158
1.0013493
1.0013827
1.0014165
1.0014514
1.0014832
1.0015178
1.001551
1.001581
1.0016164
1.0016455
1.0016774
1.0017095
1.0017385
1.0017655
1.001795
1.0018206
1.0018477
1.0018703
1.0018961
1.0019157
1.0019404
1.001956
1.0019762
1.0019882
1.0020028
1.0020198
1.0020271
1.0020366
1.0020425
1.0020507
1.0020504
1.0020531
1.0020484
1.0020462
1.0020384
1.0020285
1.002013
1.0019993
1.0019747
1.0019525
1.0019214
1.0018897
1.0018522
1.0018088
1.0017655
1.0017135
1.0016575
1.0016008
1.0015325
1.0014625
1.001387
1.0013094
1.0012241
1.0011374
1.0010413
1.0009443
1.0008376
1.0007295
1.0006101
1.0004935
1.00036
1.0002341
1.0007389
1.0007143
1.0007102
1.0007122
1.0007122
1.0007121
1.0007138
1.0007147
1.000717
1.0007182
1.0007211
1.0007201
1.0007215
1.0007211
1.0007229
1.0007262
1.000729
1.0007353
1.0007425
1.0007532
1.0007661
1.0007811
1.0007972
1.000815
1.0008341
1.0008529
1.0008742
1.0008947
1.0009186
1.0009413
1.0009673
1.0009924