/*--------------------------------*- C++ -*----------------------------------*\
| =========                 |                                                 |
| \\      /  F ield         | OpenFOAM: The Open Source CFD Toolbox           |
|  \\    /   O peration     | Version:  2406                                  |
|   \\  /    A nd           | Website:  www.openfoam.com                      |
|    \\/     M anipulation  |                                                 |
\*---------------------------------------------------------------------------*/
FoamFile
{
    version     2.0;
    format      ascii;
    arch        "LSB;label=32;scalar=64";
    class       volScalarField;
    location    "6";
    object      alphat;
}
// * * * * * * * * * * * * * * * * * * * * * * * * * * * * * * * * * * * * * //

dimensions      [1 -1 -1 0 0 0 0];

internalField   nonuniform List<scalar> 
96472
(
8.3639845e-07
8.1448441e-07
8.0298757e-07
8.2918083e-07
8.7024418e-07
8.9215657e-07
8.8526364e-07
8.6178016e-07
8.3676531e-07
8.1941818e-07
8.0988881e-07
8.0717757e-07
8.0633228e-07
8.0546321e-07
8.0389117e-07
8.0171858e-07
8.0032088e-07
8.0013987e-07
8.0120361e-07
8.0270064e-07
8.0389707e-07
8.0438951e-07
8.0403285e-07
8.0341199e-07
8.0283783e-07
8.0238755e-07
8.0225392e-07
8.0222497e-07
8.0438133e-07
8.0632247e-07
8.0944142e-07
8.1234232e-07
8.1597369e-07
8.199468e-07
8.2261011e-07
8.2449731e-07
8.2625626e-07
8.2722647e-07
8.3055515e-07
8.3427381e-07
8.4060234e-07
8.4652244e-07
8.5547669e-07
8.6378875e-07
8.7654539e-07
8.8662162e-07
9.0103776e-07
9.1321161e-07
9.3066721e-07
9.4503399e-07
9.6445508e-07
9.8359346e-07
1.0048462e-06
1.0304385e-06
1.0682376e-06
8.3676872e-07
8.1511208e-07
8.0313739e-07
8.2844359e-07
8.6932919e-07
8.9200136e-07
8.8613845e-07
8.6321107e-07
8.3829659e-07
8.2088298e-07
8.1129404e-07
8.0854304e-07
8.076069e-07
8.0680108e-07
8.0528978e-07
8.0299763e-07
8.0150032e-07
8.0125533e-07
8.0215051e-07
8.0349705e-07
8.0468794e-07
8.0525541e-07
8.0492173e-07
8.0407778e-07
8.0325302e-07
8.0223788e-07
8.0139991e-07
8.0070679e-07
8.0119597e-07
8.0263648e-07
8.0563896e-07
8.086297e-07
8.1306728e-07
8.178606e-07
8.2215238e-07
8.2483746e-07
8.2814588e-07
8.2995288e-07
8.3284407e-07
8.3550263e-07
8.4100248e-07
8.448424e-07
8.529927e-07
8.601776e-07
8.6817533e-07
8.8024952e-07
8.89824e-07
9.0521827e-07
9.1524647e-07
9.3527608e-07
9.4726255e-07
9.6552469e-07
9.8542346e-07
1.0014589e-06
1.0378633e-06
8.3706914e-07
8.1579851e-07
8.0340992e-07
8.2786674e-07
8.6850059e-07
8.9165019e-07
8.8654802e-07
8.6425002e-07
8.3966586e-07
8.2236386e-07
8.1277238e-07
8.0996815e-07
8.0902855e-07
8.0836564e-07
8.0697908e-07
8.046869e-07
8.0309288e-07
8.0267508e-07
8.0333858e-07
8.0452032e-07
8.0573847e-07
8.063868e-07
8.0620272e-07
8.0542696e-07
8.0458262e-07
8.0338057e-07
8.0216978e-07
8.0101795e-07
8.0058744e-07
8.0081374e-07
8.0231921e-07
8.0404469e-07
8.074065e-07
8.1051431e-07
8.1605124e-07
8.1964214e-07
8.256001e-07
8.2858874e-07
8.3280033e-07
8.3527334e-07
8.4048244e-07
8.4497778e-07
8.4960237e-07
8.5746745e-07
8.6300406e-07
8.7393164e-07
8.8049803e-07
8.9538722e-07
9.0299043e-07
9.1833837e-07
9.3334012e-07
9.450019e-07
9.6700972e-07
9.7940836e-07
1.0085028e-06
8.3738053e-07
8.1648931e-07
8.0367494e-07
8.2718565e-07
8.6759956e-07
8.9150836e-07
8.873716e-07
8.6570162e-07
8.4129405e-07
8.2392814e-07
8.1421558e-07
8.1132561e-07
8.1041336e-07
8.0984513e-07
8.0861526e-07
8.0634346e-07
8.0469201e-07
8.0418499e-07
8.0471342e-07
8.0586891e-07
8.071447e-07
8.0796185e-07
8.0793368e-07
8.0722237e-07
8.0640624e-07
8.0518434e-07
8.0385111e-07
8.0239183e-07
8.0156375e-07
8.0127897e-07
8.0217498e-07
8.0331441e-07
8.0578403e-07
8.0777345e-07
8.1157225e-07
8.1388414e-07
8.188496e-07
8.220659e-07
8.2827332e-07
8.3324096e-07
8.3791705e-07
8.4426464e-07
8.4794319e-07
8.5617988e-07
8.6044321e-07
8.7084718e-07
8.7585868e-07
8.8624597e-07
8.9670898e-07
9.0487965e-07
9.204442e-07
9.2943389e-07
9.4797771e-07
9.5858611e-07
9.8327069e-07
8.3770529e-07
8.1718827e-07
8.0390225e-07
8.2651075e-07
8.6675844e-07
8.9136923e-07
8.8813978e-07
8.6709395e-07
8.4291744e-07
8.2551521e-07
8.1567582e-07
8.1266827e-07
8.1179922e-07
8.1132481e-07
8.1027563e-07
8.0811592e-07
8.0648952e-07
8.059579e-07
8.0635671e-07
8.0739139e-07
8.0865695e-07
8.0959605e-07
8.0973879e-07
8.0917622e-07
8.0842731e-07
8.0725318e-07
8.0586113e-07
8.0429754e-07
8.0316291e-07
8.0250737e-07
8.0280807e-07
8.0388147e-07
8.0563531e-07
8.0810364e-07
8.1039747e-07
8.1306424e-07
8.1555629e-07
8.1913784e-07
8.2178041e-07
8.2767317e-07
8.3121962e-07
8.3948794e-07
8.4356527e-07
8.5275904e-07
8.5727859e-07
8.6625665e-07
8.739032e-07
8.8012591e-07
8.9229954e-07
8.9886349e-07
9.1196528e-07
9.1875723e-07
9.3450323e-07
9.4322236e-07
9.6332455e-07
8.3803106e-07
8.1786038e-07
8.0408621e-07
8.2580804e-07
8.6591739e-07
8.9123473e-07
8.8900063e-07
8.6855956e-07
8.4461752e-07
8.2714893e-07
8.171295e-07
8.1399897e-07
8.1311705e-07
8.1275511e-07
8.1190918e-07
8.0986988e-07
8.0833238e-07
8.0782737e-07
8.081095e-07
8.0906247e-07
8.1031676e-07
8.1132745e-07
8.1161101e-07
8.1115667e-07
8.1037178e-07
8.0925244e-07
8.0779047e-07
8.061487e-07
8.0476037e-07
8.0397981e-07
8.0381056e-07
8.0482644e-07
8.0603144e-07
8.0858027e-07
8.1047906e-07
8.1352608e-07
8.1538921e-07
8.1876869e-07
8.207378e-07
8.2514543e-07
8.2776387e-07
8.3405181e-07
8.378087e-07
8.4480468e-07
8.5232336e-07
8.5789956e-07
8.6862413e-07
8.7425361e-07
8.8614116e-07
8.9220504e-07
9.0460799e-07
9.1157683e-07
9.2525991e-07
9.3245783e-07
9.486675e-07
8.3834428e-07
8.1857062e-07
8.0426774e-07
8.2504933e-07
8.6500082e-07
8.9100374e-07
8.8976226e-07
8.6998326e-07
8.4630827e-07
8.2877051e-07
8.1855062e-07
8.1527271e-07
8.1435211e-07
8.1407575e-07
8.1348107e-07
8.1156848e-07
8.1019351e-07
8.0976139e-07
8.0999893e-07
8.1091563e-07
8.1213807e-07
8.1320998e-07
8.1362208e-07
8.1324934e-07
8.124597e-07
8.113697e-07
8.0986748e-07
8.0819395e-07
8.0656485e-07
8.0561885e-07
8.0512193e-07
8.0574075e-07
8.0667229e-07
8.0892691e-07
8.106453e-07
8.1378659e-07
8.1546134e-07
8.1892498e-07
8.2031032e-07
8.240695e-07
8.2645755e-07
8.3019848e-07
8.351851e-07
8.3858033e-07
8.4614835e-07
8.5058408e-07
8.6008059e-07
8.6558118e-07
8.7662162e-07
8.8240999e-07
8.9481453e-07
9.0133563e-07
9.1433042e-07
9.2133176e-07
9.3659834e-07
8.386275e-07
8.1918801e-07
8.0451339e-07
8.2439694e-07
8.6402573e-07
8.9058432e-07
8.9029161e-07
8.7121309e-07
8.4782321e-07
8.3026571e-07
8.198588e-07
8.1643191e-07
8.1551408e-07
8.1530948e-07
8.1495194e-07
8.1321798e-07
8.1204012e-07
8.1172175e-07
8.1200772e-07
8.1290462e-07
8.1408944e-07
8.1523057e-07
8.157878e-07
8.1557174e-07
8.1482016e-07
8.1364829e-07
8.1207826e-07
8.1040919e-07
8.0868499e-07
8.0752891e-07
8.0677728e-07
8.0696354e-07
8.0751887e-07
8.0922749e-07
8.1088175e-07
8.136981e-07
8.1569869e-07
8.1817615e-07
8.2094775e-07
8.2301075e-07
8.2651145e-07
8.289879e-07
8.3359183e-07
8.3654038e-07
8.4260083e-07
8.4604976e-07
8.5431104e-07
8.588321e-07
8.6836021e-07
8.7355076e-07
8.8467638e-07
8.9020252e-07
9.0274469e-07
9.0929668e-07
9.2322178e-07
8.3893635e-07
8.1993131e-07
8.0460446e-07
8.2346607e-07
8.6301519e-07
8.904815e-07
8.9131871e-07
8.7289697e-07
8.4966467e-07
8.3187391e-07
8.2116415e-07
8.1749978e-07
8.164792e-07
8.1639988e-07
8.162855e-07
8.1475195e-07
8.1379719e-07
8.1364525e-07
8.1403639e-07
8.1490893e-07
8.1615114e-07
8.1737335e-07
8.1808543e-07
8.1800123e-07
8.1729641e-07
8.1609703e-07
8.1450183e-07
8.1279155e-07
8.1098347e-07
8.0970005e-07
8.0882327e-07
8.08446e-07
8.0904617e-07
8.1005254e-07
8.1182163e-07
8.134377e-07
8.1587047e-07
8.1764375e-07
8.2060128e-07
8.2219575e-07
8.2587172e-07
8.2762195e-07
8.3231001e-07
8.3472158e-07
8.4000172e-07
8.4342545e-07
8.5029947e-07
8.5398418e-07
8.621669e-07
8.6682032e-07
8.7608576e-07
8.8131535e-07
8.9221015e-07
8.9817377e-07
9.0946961e-07
8.3922822e-07
8.206054e-07
8.047135e-07
8.2261498e-07
8.6205411e-07
8.9021217e-07
8.9198601e-07
8.7416904e-07
8.5112864e-07
8.3322022e-07
8.222441e-07
8.1842037e-07
8.1734256e-07
8.1739468e-07
8.1750405e-07
8.1617499e-07
8.1543898e-07
8.154843e-07
8.1599259e-07
8.1693763e-07
8.1822059e-07
8.1960294e-07
8.2047787e-07
8.2056516e-07
8.199267e-07
8.1873127e-07
8.1707666e-07
8.1526885e-07
8.1351922e-07
8.1200461e-07
8.1110563e-07
8.1049192e-07
8.1075497e-07
8.1131101e-07
8.1289178e-07
8.1411485e-07
8.1629517e-07
8.1775748e-07
8.2052166e-07
8.222554e-07
8.2536255e-07
8.2737237e-07
8.3135184e-07
8.3342658e-07
8.3874714e-07
8.4147144e-07
8.474517e-07
8.5084953e-07
8.5825292e-07
8.6198119e-07
8.7017971e-07
8.7482804e-07
8.8400852e-07
8.8903009e-07
8.9910619e-07
8.3945665e-07
8.2125249e-07
8.0488803e-07
8.2181401e-07
8.6087978e-07
8.8956972e-07
8.9220544e-07
8.7506243e-07
8.5231603e-07
8.3437646e-07
8.2317652e-07
8.191954e-07
8.1806159e-07
8.1822148e-07
8.1855133e-07
8.1744177e-07
8.169557e-07
8.1715561e-07
8.17842e-07
8.1887682e-07
8.202257e-07
8.2176429e-07
8.2290261e-07
8.2320632e-07
8.2270466e-07
8.215239e-07
8.1989923e-07
8.1802173e-07
8.1630945e-07
8.1466127e-07
8.1365205e-07
8.1291404e-07
8.1290839e-07
8.1317939e-07
8.1430302e-07
8.1518057e-07
8.1705793e-07
8.1820327e-07
8.2068794e-07
8.2193576e-07
8.2510414e-07
8.2666345e-07
8.30266e-07
8.3253071e-07
8.3700314e-07
8.3935756e-07
8.4514626e-07
8.4820608e-07
8.5463424e-07
8.5786353e-07
8.6577332e-07
8.6933729e-07
8.7811947e-07
8.8189745e-07
8.9066379e-07
8.3965326e-07
8.2182202e-07
8.0515368e-07
8.2116361e-07
8.5971299e-07
8.8872013e-07
8.9210343e-07
8.7562351e-07
8.5320167e-07
8.3526821e-07
8.2393217e-07
8.198575e-07
8.1868934e-07
8.1894408e-07
8.1947722e-07
8.1854733e-07
8.182699e-07
8.1869112e-07
8.194948e-07
8.2063437e-07
8.221441e-07
8.2389166e-07
8.2530121e-07
8.2586601e-07
8.2552133e-07
8.2445465e-07
8.2281879e-07
8.2091822e-07
8.1917904e-07
8.1749751e-07
8.1640737e-07
8.1555019e-07
8.1528343e-07
8.153096e-07
8.1605928e-07
8.1675061e-07
8.1822613e-07
8.1939559e-07
8.2134218e-07
8.2264491e-07
8.2527907e-07
8.2671321e-07
8.3025439e-07
8.3199953e-07
8.3603849e-07
8.3846048e-07
8.4349116e-07
8.4598131e-07
8.5180477e-07
8.5517518e-07
8.6179902e-07
8.6511569e-07
8.7257473e-07
8.7672888e-07
8.8368893e-07
8.3986421e-07
8.2243154e-07
8.0531158e-07
8.2031182e-07
8.5856278e-07
8.8816945e-07
8.9245698e-07
8.765638e-07
8.5431768e-07
8.3626511e-07
8.24661e-07
8.204254e-07
8.1920963e-07
8.1961353e-07
8.203156e-07
8.1952701e-07
8.1939507e-07
8.1998039e-07
8.2094929e-07
8.2226353e-07
8.2389157e-07
8.2578546e-07
8.2753701e-07
8.2846069e-07
8.2837476e-07
8.2743455e-07
8.2585962e-07
8.2394173e-07
8.222806e-07
8.2055064e-07
8.1937568e-07
8.1842822e-07
8.1803674e-07
8.1786565e-07
8.1836323e-07
8.1876765e-07
8.1995733e-07
8.2064123e-07
8.2241914e-07
8.2346507e-07
8.2565144e-07
8.2704956e-07
8.2994304e-07
8.3147845e-07
8.3536918e-07
8.3730294e-07
8.4173971e-07
8.4414804e-07
8.4974388e-07
8.524524e-07
8.5810467e-07
8.6181811e-07
8.681772e-07
8.7198342e-07
8.7790585e-07
8.4004563e-07
8.2300414e-07
8.0550999e-07
8.1957773e-07
8.5742535e-07
8.874389e-07
8.9248401e-07
8.7716962e-07
8.5515541e-07
8.3707453e-07
8.2526149e-07
8.2092349e-07
8.1968452e-07
8.2021337e-07
8.2109677e-07
8.2040883e-07
8.2035757e-07
8.2108516e-07
8.2218246e-07
8.2358966e-07
8.2535852e-07
8.275293e-07
8.2960457e-07
8.3090494e-07
8.311116e-07
8.3040075e-07
8.2891022e-07
8.2708685e-07
8.2541888e-07
8.2372947e-07
8.2256988e-07
8.2152872e-07
8.2096261e-07
8.2064039e-07
8.2089375e-07
8.2114551e-07
8.220758e-07
8.2269744e-07
8.2410535e-07
8.2485271e-07
8.269755e-07
8.2796562e-07
8.3044002e-07
8.3200802e-07
8.3513839e-07
8.3685504e-07
8.4101174e-07
8.4313361e-07
8.4791071e-07
8.4991798e-07
8.5587441e-07
8.5841534e-07
8.6490148e-07
8.6752907e-07
8.7278435e-07
8.4021186e-07
8.2354438e-07
8.0570356e-07
8.1885651e-07
8.5627096e-07
8.8672954e-07
8.9253716e-07
8.7783177e-07
8.5602888e-07
8.3787937e-07
8.2585018e-07
8.2134493e-07
8.2010116e-07
8.2068141e-07
8.2175365e-07
8.2114795e-07
8.212066e-07
8.2200044e-07
8.2316305e-07
8.247038e-07
8.2661638e-07
8.2897593e-07
8.3137327e-07
8.3311635e-07
8.3371326e-07
8.3326885e-07
8.3197662e-07
8.3023276e-07
8.2855937e-07
8.2698782e-07
8.2579863e-07
8.2472883e-07
8.2412378e-07
8.2373538e-07
8.2381656e-07
8.2386573e-07
8.2441481e-07
8.2485386e-07
8.2596336e-07
8.2675336e-07
8.2836033e-07
8.2922477e-07
8.315112e-07
8.3247081e-07
8.3534322e-07
8.3692394e-07
8.404657e-07
8.4231306e-07
8.464591e-07
8.4902724e-07
8.53362e-07
8.5643108e-07
8.6172963e-07
8.6392701e-07
8.6896007e-07
8.4037184e-07
8.2412522e-07
8.0588338e-07
8.1809023e-07
8.5515855e-07
8.8615848e-07
8.9274504e-07
8.7864646e-07
8.5702639e-07
8.3876139e-07
8.2645757e-07
8.217756e-07
8.2050525e-07
8.211752e-07
8.2241425e-07
8.2185115e-07
8.2190975e-07
8.2273036e-07
8.2402163e-07
8.2566827e-07
8.2763122e-07
8.3020527e-07
8.3292607e-07
8.3509746e-07
8.3609055e-07
8.3596348e-07
8.3485894e-07
8.3328083e-07
8.3173042e-07
8.3027676e-07
8.2911483e-07
8.2802008e-07
8.2736056e-07
8.2691581e-07
8.2687597e-07
8.2685832e-07
8.2722079e-07
8.2749274e-07
8.2861952e-07
8.2911949e-07
8.3043497e-07
8.3112447e-07
8.3283921e-07
8.3386821e-07
8.3630087e-07
8.3753108e-07
8.4069699e-07
8.4220995e-07
8.4604064e-07
8.4803241e-07
8.5099674e-07
8.5525942e-07
8.5916355e-07
8.6134029e-07
8.659119e-07
8.4052492e-07
8.2466525e-07
8.0609151e-07
8.1739144e-07
8.5408152e-07
8.8553648e-07
8.9288963e-07
8.7941868e-07
8.5798791e-07
8.3962032e-07
8.2709861e-07
8.2221699e-07
8.2090673e-07
8.2165772e-07
8.2301568e-07
8.2244872e-07
8.2252279e-07
8.2337256e-07
8.2468432e-07
8.2640423e-07
8.2848318e-07
8.3120039e-07
8.3416758e-07
8.367191e-07
8.3818849e-07
8.3837769e-07
8.3759657e-07
8.3622534e-07
8.3478499e-07
8.3343809e-07
8.3239276e-07
8.3132457e-07
8.3069335e-07
8.3022955e-07
8.3007818e-07
8.2994756e-07
8.3015802e-07
8.3039885e-07
8.3123087e-07
8.3165281e-07
8.3286122e-07
8.333372e-07
8.3489346e-07
8.3559458e-07
8.3767295e-07
8.3864761e-07
8.4147922e-07
8.4276175e-07
8.461306e-07
8.4758072e-07
8.5108596e-07
8.5376449e-07
8.5763314e-07
8.5958505e-07
8.6308708e-07
8.4066311e-07
8.252537e-07
8.0623108e-07
8.1659597e-07
8.5310997e-07
8.8522364e-07
8.9347533e-07
8.805779e-07
8.5922416e-07
8.4068978e-07
8.278414e-07
8.2274135e-07
8.2134146e-07
8.2212081e-07
8.2359981e-07
8.2305397e-07
8.2306213e-07
8.238774e-07
8.2521833e-07
8.2698537e-07
8.2909679e-07
8.319618e-07
8.3517049e-07
8.3810843e-07
8.400036e-07
8.4056613e-07
8.4007303e-07
8.3888946e-07
8.3760962e-07
8.3638059e-07
8.3545032e-07
8.3449571e-07
8.3394825e-07
8.3354719e-07
8.3337736e-07
8.332095e-07
8.3340899e-07
8.3351166e-07
8.3419981e-07
8.3460799e-07
8.3561319e-07
8.3598899e-07
8.3730518e-07
8.3773754e-07
8.3948807e-07
8.4038495e-07
8.4269667e-07
8.4380615e-07
8.4660957e-07
8.4850278e-07
8.5068578e-07
8.5346873e-07
8.5683378e-07
8.5858825e-07
8.6112429e-07
8.408306e-07
8.2583412e-07
8.0645274e-07
8.1593199e-07
8.5219223e-07
8.8488475e-07
8.9396373e-07
8.8164926e-07
8.6043036e-07
8.4175979e-07
8.2861956e-07
8.2327065e-07
8.2179086e-07
8.2258005e-07
8.2418251e-07
8.2364094e-07
8.2357006e-07
8.2433217e-07
8.2570319e-07
8.2747441e-07
8.296324e-07
8.3253554e-07
8.3588116e-07
8.3919525e-07
8.4153808e-07
8.4245916e-07
8.4223261e-07
8.4133071e-07
8.402079e-07
8.391988e-07
8.3839509e-07
8.3754029e-07
8.3702058e-07
8.3670463e-07
8.3656587e-07
8.3644825e-07
8.3645372e-07
8.3664791e-07
8.3732789e-07
8.3767746e-07
8.3872049e-07
8.3917928e-07
8.4000688e-07
8.4048201e-07
8.4166288e-07
8.4230378e-07
8.4440025e-07
8.4546604e-07
8.4809409e-07
8.5008029e-07
8.5109128e-07
8.5501626e-07
8.5683241e-07
8.5795646e-07
8.6091478e-07
8.4087989e-07
8.2649146e-07
8.0661533e-07
8.1508006e-07
8.5132837e-07
8.8490988e-07
8.9489327e-07
8.8312349e-07
8.6191978e-07
8.4296182e-07
8.294927e-07
8.238709e-07
8.2227899e-07
8.2306646e-07
8.2475951e-07
8.2424266e-07
8.2405866e-07
8.2474823e-07
8.2606313e-07
8.2787279e-07
8.3001507e-07
8.3295797e-07
8.3650536e-07
8.4007104e-07
8.4275928e-07
8.4402724e-07
8.4413034e-07
8.4348762e-07
8.4255533e-07
8.4172769e-07
8.4101993e-07
8.4031705e-07
8.3990338e-07
8.39595e-07
8.3959263e-07
8.3953818e-07
8.3966175e-07
8.3988153e-07
8.4042434e-07
8.4083977e-07
8.4192527e-07
8.4218641e-07
8.4320731e-07
8.4320636e-07
8.4446753e-07
8.4475888e-07
8.4659933e-07
8.4725101e-07
8.4970453e-07
8.5043435e-07
8.5370179e-07
8.5431121e-07
8.5748153e-07
8.5861938e-07
8.612113e-07
8.410275e-07
8.2717641e-07
8.0686008e-07
8.1438708e-07
8.5047111e-07
8.8469027e-07
8.9554685e-07
8.8436309e-07
8.6322791e-07
8.4403745e-07
8.3027951e-07
8.2437037e-07
8.2262832e-07
8.2341825e-07
8.2518538e-07
8.2470547e-07
8.2442777e-07
8.2501051e-07
8.2628839e-07
8.281221e-07
8.3033689e-07
8.3325307e-07
8.3688515e-07
8.4062564e-07
8.4370313e-07
8.453917e-07
8.4578807e-07
8.4538548e-07
8.4458571e-07
8.4389546e-07
8.4328256e-07
8.4268839e-07
8.4232835e-07
8.422989e-07
8.4241426e-07
8.4232089e-07
8.4227183e-07
8.4246568e-07
8.433206e-07
8.4406606e-07
8.4510886e-07
8.455606e-07
8.4600278e-07
8.4622452e-07
8.4675054e-07
8.4712201e-07
8.4874686e-07
8.4985949e-07
8.5215264e-07
8.525731e-07
8.5491938e-07
8.567385e-07
8.5944887e-07
8.5996585e-07
8.6102597e-07
8.4100624e-07
8.2754372e-07
8.0716627e-07
8.1404635e-07
8.4970894e-07
8.8398846e-07
8.9523522e-07
8.8440466e-07
8.6333903e-07
8.4403108e-07
8.3004966e-07
8.2391021e-07
8.2206782e-07
8.2288468e-07
8.2472685e-07
8.2431936e-07
8.2396306e-07
8.2452494e-07
8.2576826e-07
8.2758837e-07
8.2981151e-07
8.3271662e-07
8.3638877e-07
8.4044689e-07
8.4385332e-07
8.4579024e-07
8.464329e-07
8.4634226e-07
8.4569656e-07
8.4513265e-07
8.4470459e-07
8.4434834e-07
8.4401438e-07
8.4393651e-07
8.4419823e-07
8.4452851e-07
8.4450867e-07
8.4473574e-07
8.4547809e-07
8.4619644e-07
8.4744775e-07
8.4813515e-07
8.4881575e-07
8.4911023e-07
8.4945035e-07
8.497212e-07
8.5105039e-07
8.520578e-07
8.5332368e-07
8.540995e-07
8.5556911e-07
8.5807822e-07
8.5982704e-07
8.6071217e-07
8.6248577e-07
8.4114097e-07
8.2810827e-07
8.0746087e-07
8.1333472e-07
8.4843122e-07
8.8282259e-07
8.9445421e-07
8.8345885e-07
8.6188871e-07
8.4187398e-07
8.2728422e-07
8.2048247e-07
8.1839835e-07
8.1913177e-07
8.2095446e-07
8.2074892e-07
8.2036659e-07
8.2089868e-07
8.2214433e-07
8.2413539e-07
8.2657782e-07
8.2936039e-07
8.3316034e-07
8.3730675e-07
8.4104829e-07
8.4351186e-07
8.445343e-07
8.4452287e-07
8.4419327e-07
8.438383e-07
8.4334927e-07
8.4306128e-07
8.4282625e-07
8.4294371e-07
8.4328918e-07
8.4345431e-07
8.4341139e-07
8.438547e-07
8.4466884e-07
8.4559418e-07
8.4738685e-07
8.482377e-07
8.4902933e-07
8.4897579e-07
8.4933171e-07
8.4941985e-07
8.5082325e-07
8.5218831e-07
8.5404394e-07
8.5469615e-07
8.5636296e-07
8.5833653e-07
8.5968966e-07
8.6005683e-07
8.6118789e-07
8.406456e-07
8.2783597e-07
8.0732072e-07
8.1113225e-07
8.4409149e-07
8.7694267e-07
8.8667357e-07
8.7560878e-07
8.5536582e-07
8.3640203e-07
8.2143875e-07
8.1192997e-07
8.0803095e-07
8.0745133e-07
8.0836643e-07
8.0858696e-07
8.0825336e-07
8.0894336e-07
8.1075914e-07
8.128101e-07
8.1588883e-07
8.2063066e-07
8.2427752e-07
8.2858115e-07
8.3265775e-07
8.3530018e-07
8.3669981e-07
8.3838813e-07
8.391582e-07
8.3893035e-07
8.3833024e-07
8.376036e-07
8.359736e-07
8.3499676e-07
8.3483069e-07
8.3459665e-07
8.3443628e-07
8.3425862e-07
8.3513417e-07
8.358915e-07
8.3721657e-07
8.3831409e-07
8.3954843e-07
8.4041683e-07
8.4105499e-07
8.4137765e-07
8.4208001e-07
8.423321e-07
8.4385448e-07
8.4377187e-07
8.4566493e-07
8.4729149e-07
8.4936245e-07
8.5060125e-07
8.5074284e-07
8.364245e-07
8.1839919e-07
7.9541477e-07
7.8835373e-07
8.1468481e-07
8.5003959e-07
8.7635092e-07
8.8197158e-07
8.9037341e-07
8.9611472e-07
8.9140106e-07
8.7733977e-07
8.6169149e-07
8.5177415e-07
8.491013e-07
8.4744111e-07
8.4718121e-07
8.4879941e-07
8.5379259e-07
8.5758349e-07
8.6359968e-07
8.7679179e-07
8.7952902e-07
8.8329729e-07
8.8644836e-07
8.8845805e-07
8.9052651e-07
8.9989709e-07
9.1387567e-07
9.1858184e-07
9.1753115e-07
9.1295258e-07
8.9678007e-07
8.8760708e-07
8.8329083e-07
8.7978502e-07
8.7207473e-07
8.6647629e-07
8.6434977e-07
8.6389923e-07
8.6421922e-07
8.6501429e-07
8.6475627e-07
8.6312803e-07
8.5695887e-07
8.5154405e-07
8.4903639e-07
8.4810515e-07
8.4757474e-07
8.4683768e-07
8.4722984e-07
8.4782165e-07
8.1597905e-07
8.1219151e-07
8.4548307e-07
8.0500436e-07
7.178674e-07
7.0071384e-07
7.1212698e-07
7.2895242e-07
7.7001331e-07
8.5240991e-07
9.6573028e-07
1.0540679e-06
1.0637616e-06
1.0677468e-06
1.0659837e-06
1.0501961e-06
1.0453304e-06
1.0491881e-06
1.0551462e-06
1.06867e-06
1.0807613e-06
1.1074474e-06
1.1224156e-06
1.1454907e-06
1.185012e-06
1.1937671e-06
1.2091693e-06
1.2209271e-06
1.2306905e-06
1.2393259e-06
1.2689949e-06
1.3047162e-06
1.3309544e-06
1.3334232e-06
1.3264809e-06
1.2798199e-06
1.2564707e-06
1.2451142e-06
1.2433207e-06
1.2220188e-06
1.1909044e-06
1.1882844e-06
1.1792966e-06
1.1788597e-06
1.1843534e-06
1.1832669e-06
1.1763061e-06
1.1487579e-06
1.1188905e-06
1.0833242e-06
1.0776502e-06
1.0673135e-06
1.0660322e-06
1.0629057e-06
1.0566028e-06
1.0554903e-06
1.0525693e-06
1.0438272e-06
4.7337957e-07
5.1990834e-07
5.422164e-07
4.2757226e-07
4.1082862e-07
3.8855955e-07
3.9001848e-07
4.0940098e-07
4.5862349e-07
5.4588237e-07
6.4013951e-07
6.8078371e-07
6.2163561e-07
5.7931836e-07
5.6475944e-07
5.8250729e-07
6.1728083e-07
6.5702467e-07
6.9496451e-07
7.2379149e-07
7.5644397e-07
7.6969952e-07
7.8017049e-07
7.8083011e-07
7.7642718e-07
7.8163839e-07
8.0413955e-07
8.422797e-07
8.9467551e-07
9.5644288e-07
1.0081439e-06
1.0586398e-06
1.0960825e-06
1.1838643e-06
1.1740522e-06
1.2944283e-06
1.2034662e-06
1.3522547e-06
1.2403957e-06
1.3781547e-06
1.2876234e-06
1.4444405e-06
1.2909093e-06
1.4026723e-06
1.2538791e-06
1.3586055e-06
1.2409508e-06
1.3709461e-06
1.2640168e-06
1.3901583e-06
1.326352e-06
1.3630844e-06
1.3305659e-06
1.3464707e-06
1.2724543e-06
1.1848627e-06
1.0490955e-06
7.0578049e-07
8.5345649e-07
8.6284889e-07
8.6505531e-07
8.6424147e-07
8.6425172e-07
8.6502512e-07
8.665218e-07
8.6854637e-07
8.7149191e-07
8.7523817e-07
8.7955643e-07
8.8434537e-07
8.9039574e-07
8.9719521e-07
9.0551473e-07
9.1616535e-07
9.2856767e-07
9.4234528e-07
9.5547415e-07
9.7020195e-07
9.9071923e-07
1.0170443e-06
1.0477918e-06
1.0783572e-06
1.0902504e-06
1.0060361e-06
7.2051783e-07
8.0819735e-07
8.6348767e-07
8.6667748e-07
8.6655925e-07
8.6667948e-07
8.6750701e-07
8.692626e-07
8.719599e-07
8.7533543e-07
8.7916402e-07
8.8386601e-07
8.8935906e-07
8.955121e-07
9.0276777e-07
9.1148776e-07
9.2213424e-07
9.3518021e-07
9.4937172e-07
9.6383292e-07
9.7845862e-07
9.964964e-07
1.0212392e-06
1.0528064e-06
1.0834046e-06
9.5977683e-07
9.7996196e-07
7.3153385e-07
7.7143909e-07
8.6432665e-07
8.6812482e-07
8.6954695e-07
8.7060579e-07
8.7242272e-07
8.7481665e-07
8.7762716e-07
8.8114579e-07
8.8527169e-07
8.8998616e-07
8.9567163e-07
9.0221038e-07
9.0949169e-07
9.1823836e-07
9.2864464e-07
9.4128546e-07
9.553119e-07
9.7005405e-07
9.8615524e-07
1.0048695e-06
1.026448e-06
1.059125e-06
1.0884532e-06
8.0642422e-07
9.3716139e-07
6.7842503e-07
7.0745852e-07
8.6591545e-07
8.7267946e-07
8.7474631e-07
8.755149e-07
8.7648334e-07
8.7903472e-07
8.8231611e-07
8.8591796e-07
8.9003898e-07
8.9493009e-07
9.0065382e-07
9.0712257e-07
9.1481034e-07
9.2325368e-07
9.3392023e-07
9.4657918e-07
9.6099424e-07
9.7578503e-07
9.9326207e-07
1.0121853e-06
1.0343849e-06
1.0656437e-06
1.097214e-06
6.6871319e-07
8.9998678e-07
6.4378583e-07
6.4227259e-07
8.6584059e-07
8.7394945e-07
8.7729909e-07
8.8112631e-07
8.8382533e-07
8.8692451e-07
8.9072822e-07
8.9494435e-07
8.9941881e-07
9.0466618e-07
9.1068809e-07
9.1720429e-07
9.2486441e-07
9.3309371e-07
9.4371926e-07
9.5575659e-07
9.7006181e-07
9.840177e-07
1.0011791e-06
1.0224409e-06
1.0402294e-06
1.0726049e-06
1.1063932e-06
5.5755572e-07
8.4525472e-07
6.407718e-07
6.0568065e-07
8.6951942e-07
8.7825454e-07
8.8184697e-07
8.8456937e-07
8.87191e-07
8.9080668e-07
8.9484277e-07
8.9965736e-07
9.0474847e-07
9.1039584e-07
9.1728801e-07
9.2447076e-07
9.3285207e-07
9.4180013e-07
9.5297856e-07
9.6530108e-07
9.7927529e-07
9.9346765e-07
1.0103173e-06
1.0325106e-06
1.0503332e-06
1.0808143e-06
1.1178786e-06
4.3520747e-07
7.9422061e-07
6.5679126e-07
5.9016104e-07
8.7043654e-07
8.8085678e-07
8.8575416e-07
8.8958803e-07
8.9317787e-07
8.9729112e-07
9.0164983e-07
9.0650298e-07
9.1192886e-07
9.1813595e-07
9.2473278e-07
9.3248816e-07
9.4047674e-07
9.4956745e-07
9.6058887e-07
9.7428389e-07
9.8768155e-07
1.0024411e-06
1.0182542e-06
1.0411166e-06
1.0610974e-06
1.0862118e-06
1.1247772e-06
3.3490652e-07
7.6076391e-07
6.3793046e-07
5.5909023e-07
8.3907872e-07
8.871672e-07
8.9203534e-07
8.9473171e-07
8.9710901e-07
9.0112015e-07
9.0558316e-07
9.1041231e-07
9.1578282e-07
9.2212159e-07
9.2882103e-07
9.369695e-07
9.4571181e-07
9.5486568e-07
9.6570973e-07
9.7971264e-07
9.943385e-07
1.0091672e-06
1.0241611e-06
1.048197e-06
1.0715753e-06
1.0933813e-06
1.1329044e-06
2.6396673e-07
7.1876846e-07
6.3142086e-07
5.3549972e-07
7.5020875e-07
8.9416682e-07
9.0039376e-07
9.0531742e-07
9.0716255e-07
9.1065149e-07
9.1500818e-07
9.195872e-07
9.2444255e-07
9.3044717e-07
9.3694594e-07
9.4409056e-07
9.5288774e-07
9.6202438e-07
9.7278368e-07
9.8589066e-07
1.0015843e-06
1.0153892e-06
1.0294602e-06
1.0513832e-06
1.079017e-06
1.0994309e-06
1.1386411e-06
2.3892391e-07
6.822493e-07
6.1634544e-07
5.1842327e-07
6.6957959e-07
8.9809564e-07
9.0398326e-07
9.0985319e-07
9.1324578e-07
9.1729517e-07
9.2218822e-07
9.2704351e-07
9.325734e-07
9.3902085e-07
9.4608746e-07
9.5338738e-07
9.6182951e-07
9.7100679e-07
9.8168456e-07
9.944692e-07
1.0108603e-06
1.024028e-06
1.0374241e-06
1.0566971e-06
1.0849179e-06
1.1067128e-06
1.1457464e-06
2.3659679e-07
6.5018446e-07
6.2227789e-07
5.1851386e-07
6.2061078e-07
9.0384679e-07
9.1166057e-07
9.1814635e-07
9.2300361e-07
9.2790417e-07
9.3288599e-07
9.3834266e-07
9.4368971e-07
9.4970728e-07
9.5681058e-07
9.6446061e-07
9.7306575e-07
9.815709e-07
9.9200121e-07
1.0040667e-06
1.0208109e-06
1.0346393e-06
1.0472477e-06
1.0656212e-06
1.0910806e-06
1.1140573e-06
1.155535e-06
2.5221911e-07
6.3427115e-07
6.2970053e-07
5.1778301e-07
5.8165894e-07
9.0588041e-07
9.1486559e-07
9.2163978e-07
9.2674433e-07
9.3277468e-07
9.3911184e-07
9.4551496e-07
9.5226658e-07
9.5940342e-07
9.6707211e-07
9.7587448e-07
9.8498071e-07
9.9395359e-07
1.0039309e-06
1.0153977e-06
1.0309653e-06
1.0472696e-06
1.0582791e-06
1.0765925e-06
1.0995567e-06
1.1212956e-06
1.1655819e-06
2.8404179e-07
6.2973611e-07
6.5458471e-07
5.2695471e-07
5.6554551e-07
8.7455402e-07
9.2197757e-07
9.2973691e-07
9.3518126e-07
9.4076211e-07
9.464202e-07
9.5241415e-07
9.5896516e-07
9.6652654e-07
9.7445076e-07
9.8358971e-07
9.9308928e-07
1.0039457e-06
1.0139747e-06
1.0259265e-06
1.0411999e-06
1.0592522e-06
1.069023e-06
1.086554e-06
1.1080259e-06
1.126488e-06
1.1712672e-06
3.3019356e-07
6.2760036e-07
6.627238e-07
5.265959e-07
5.5032636e-07
7.9453148e-07
9.2735156e-07
9.3414387e-07
9.3928883e-07
9.4510795e-07
9.5141312e-07
9.579612e-07
9.6444231e-07
9.7267967e-07
9.8102452e-07
9.8985068e-07
9.9965796e-07
1.0107775e-06
1.0213999e-06
1.0333972e-06
1.0494063e-06
1.0688858e-06
1.0802804e-06
1.0966678e-06
1.1177628e-06
1.134233e-06
1.1758069e-06
3.8992266e-07
6.3301756e-07
6.7845705e-07
5.2955385e-07
5.4361056e-07
7.3786777e-07
9.3802621e-07
9.4486934e-07
9.4909884e-07
9.5338924e-07
9.584751e-07
9.6421671e-07
9.704623e-07
9.7823784e-07
9.8633919e-07
9.9566107e-07
1.0057658e-06
1.0162744e-06
1.0279074e-06
1.0393221e-06
1.0545938e-06
1.0748014e-06
1.0884863e-06
1.1021732e-06
1.1251866e-06
1.1406798e-06
1.1779687e-06
4.6256518e-07
6.3290211e-07
6.7796131e-07
5.2668955e-07
5.3016895e-07
6.8399491e-07
9.4444908e-07
9.5320094e-07
9.5754922e-07
9.6311207e-07
9.6826977e-07
9.7349363e-07
9.799454e-07
9.8643924e-07
9.9407198e-07
1.0031631e-06
1.0124555e-06
1.0226625e-06
1.0346166e-06
1.0458387e-06
1.0602375e-06
1.0804905e-06
1.096947e-06
1.1093833e-06
1.134689e-06
1.1481749e-06
1.1807898e-06
5.3027787e-07
6.5363996e-07
6.9266951e-07
5.2785325e-07
5.2659001e-07
6.4094157e-07
9.5275354e-07
9.6205172e-07
9.6878092e-07
9.7314137e-07
9.777579e-07
9.8292296e-07
9.8921496e-07
9.9565162e-07
1.0036784e-06
1.0123659e-06
1.0214809e-06
1.031552e-06
1.042752e-06
1.0538963e-06
1.0671279e-06
1.0849908e-06
1.1030231e-06
1.1148337e-06
1.1399504e-06
1.1532643e-06
1.1835175e-06
5.7306005e-07
6.6107509e-07
6.9804513e-07
5.2494019e-07
5.1654723e-07
6.1057254e-07
9.243706e-07
9.7229652e-07
9.7968019e-07
9.8495093e-07
9.9023305e-07
9.9518297e-07
1.0002802e-06
1.0067698e-06
1.0143776e-06
1.0223764e-06
1.0310505e-06
1.0414626e-06
1.0522101e-06
1.0639572e-06
1.0768201e-06
1.0938646e-06
1.114504e-06
1.1249806e-06
1.1476411e-06
1.1595787e-06
1.1877113e-06
6.2226654e-07
6.9444968e-07
7.2893908e-07
5.3074048e-07
5.1747515e-07
5.8509319e-07
8.4704617e-07
9.7932976e-07
9.8767555e-07
9.9429999e-07
1.0004729e-06
1.0057494e-06
1.011454e-06
1.01848e-06
1.0260036e-06
1.033858e-06
1.0424595e-06
1.0521816e-06
1.0620434e-06
1.0736944e-06
1.086101e-06
1.1011667e-06
1.1239643e-06
1.1344345e-06
1.156306e-06
1.1672936e-06
1.1926571e-06
6.7572995e-07
7.1723014e-07
7.3792493e-07
5.3643884e-07
5.1968402e-07
5.6236292e-07
7.9095311e-07
9.8774401e-07
9.966409e-07
1.0033072e-06
1.009292e-06
1.0147953e-06
1.0203099e-06
1.027289e-06
1.0341376e-06
1.0424095e-06
1.0511902e-06
1.0609445e-06
1.071169e-06
1.0830978e-06
1.0960962e-06
1.1100275e-06
1.1341819e-06
1.1452701e-06
1.1658972e-06
1.177471e-06
1.1984827e-06
7.3449475e-07
7.5894321e-07
7.9168287e-07
5.4590122e-07
5.251982e-07
5.5533181e-07
7.3952468e-07
9.9458007e-07
1.0042222e-06
1.011567e-06
1.0171002e-06
1.0233092e-06
1.0297361e-06
1.0366216e-06
1.0443123e-06
1.0517572e-06
1.0610622e-06
1.0693606e-06
1.0794258e-06
1.0898321e-06
1.1023959e-06
1.1156499e-06
1.1391637e-06
1.1529262e-06
1.1737642e-06
1.187735e-06
1.2041898e-06
7.9612727e-07
7.9637068e-07
8.183594e-07
5.5700279e-07
5.2516409e-07
5.5600145e-07
7.1014196e-07
1.0035145e-06
1.012331e-06
1.0197299e-06
1.024442e-06
1.0302706e-06
1.0367895e-06
1.0434759e-06
1.050994e-06
1.0599876e-06
1.0688531e-06
1.0779961e-06
1.0876676e-06
1.0986868e-06
1.1100697e-06
1.1230991e-06
1.1437015e-06
1.1586407e-06
1.1803893e-06
1.195889e-06
1.2103234e-06
8.6236946e-07
8.4451034e-07
8.5227407e-07
5.6923554e-07
5.3294695e-07
5.5619817e-07
6.8474419e-07
9.747226e-07
1.0216638e-06
1.0280367e-06
1.0332929e-06
1.037622e-06
1.0435036e-06
1.0500352e-06