/*--------------------------------*- C++ -*----------------------------------*\
| =========                 |                                                 |
| \\      /  F ield         | OpenFOAM: The Open Source CFD Toolbox           |
|  \\    /   O peration     | Version:  2406                                  |
|   \\  /    A nd           | Website:  www.openfoam.com                      |
|    \\/     M anipulation  |                                                 |
\*---------------------------------------------------------------------------*/
FoamFile
{
    version     2.0;
    format      ascii;
    arch        "LSB;label=32;scalar=64";
    class       volScalarField;
    location    "6";
    object      k_0;
}
// * * * * * * * * * * * * * * * * * * * * * * * * * * * * * * * * * * * * * //

dimensions      [0 2 -2 0 0 0 0];

internalField   nonuniform List<scalar> 
96472
(
3.134578e-06
2.5666544e-06
2.1946557e-06
2.0196905e-06
1.9007528e-06
1.740112e-06
1.5456305e-06
1.3679946e-06
1.2380913e-06
1.1584204e-06
1.1145162e-06
1.0944935e-06
1.0852642e-06
1.0802437e-06
1.0767864e-06
1.0738435e-06
1.0726539e-06
1.0732232e-06
1.0752918e-06
1.0775768e-06
1.0792371e-06
1.0801741e-06
1.0804535e-06
1.0806358e-06
1.0808774e-06
1.0813183e-06
1.0822832e-06
1.083589e-06
1.0886877e-06
1.0928436e-06
1.0989298e-06
1.1043786e-06
1.111617e-06
1.1198445e-06
1.1253695e-06
1.1291302e-06
1.1329529e-06
1.1351297e-06
1.1424768e-06
1.1512769e-06
1.1654823e-06
1.178872e-06
1.1995812e-06
1.2190699e-06
1.24836e-06
1.2718656e-06
1.3070607e-06
1.3354435e-06
1.3777937e-06
1.4127823e-06
1.4610018e-06
1.5101575e-06
1.5639238e-06
1.6296327e-06
1.729458e-06
3.1384197e-06
2.5709069e-06
2.1967121e-06
2.0202195e-06
1.9028343e-06
1.7454293e-06
1.5527676e-06
1.3745254e-06
1.2429951e-06
1.161896e-06
1.1170784e-06
1.096563e-06
1.0868557e-06
1.0815914e-06
1.0781063e-06
1.0750655e-06
1.0737832e-06
1.0743475e-06
1.0760965e-06
1.0780746e-06
1.0795356e-06
1.0803473e-06
1.0804208e-06
1.0800233e-06
1.0796801e-06
1.0790389e-06
1.0788331e-06
1.0789471e-06
1.0809158e-06
1.0843367e-06
1.0904263e-06
1.0961534e-06
1.1050393e-06
1.1148948e-06
1.1238632e-06
1.1296437e-06
1.1368129e-06
1.140894e-06
1.147551e-06
1.1534249e-06
1.1660488e-06
1.1749016e-06
1.1936879e-06
1.2101516e-06
1.2292097e-06
1.2571684e-06
1.2796597e-06
1.316951e-06
1.3409631e-06
1.3899627e-06
1.4185733e-06
1.4660314e-06
1.5152872e-06
1.5563206e-06
1.6514544e-06
3.1418057e-06
2.575516e-06
2.1996152e-06
2.0215093e-06
1.9049352e-06
1.7492939e-06
1.557574e-06
1.3791755e-06
1.2469464e-06
1.1650863e-06
1.119722e-06
1.0987032e-06
1.0886562e-06
1.0833277e-06
1.0799019e-06
1.0768744e-06
1.0754509e-06
1.0757828e-06
1.0771249e-06
1.0787674e-06
1.080159e-06
1.0809665e-06
1.0810773e-06
1.0806616e-06
1.0802438e-06
1.0793751e-06
1.0786145e-06
1.078001e-06
1.0784765e-06
1.0796091e-06
1.0827393e-06
1.0858605e-06
1.0922248e-06
1.0981936e-06
1.1096819e-06
1.1173191e-06
1.1305025e-06
1.1372906e-06
1.1468157e-06
1.1526658e-06
1.1644508e-06
1.1747717e-06
1.1852238e-06
1.2039688e-06
1.2162743e-06
1.2421611e-06
1.2576815e-06
1.2932496e-06
1.3112324e-06
1.3496007e-06
1.3851411e-06
1.4150444e-06
1.469311e-06
1.5004834e-06
1.575923e-06
3.145144e-06
2.5801064e-06
2.2024238e-06
2.0226266e-06
1.9072037e-06
1.7541918e-06
1.5639095e-06
1.3851297e-06
1.2516203e-06
1.168533e-06
1.1223103e-06
1.100707e-06
1.0903882e-06
1.0849166e-06
1.0815363e-06
1.0785353e-06
1.0770347e-06
1.077226e-06
1.0783816e-06
1.0799466e-06
1.0813589e-06
1.0822855e-06
1.0825224e-06
1.0821234e-06
1.0817343e-06
1.0809e-06
1.0800912e-06
1.0791497e-06
1.0791558e-06
1.0796719e-06
1.081853e-06
1.0839653e-06
1.0885349e-06
1.0919455e-06
1.0993707e-06
1.104015e-06
1.1145999e-06
1.1218579e-06
1.1355841e-06
1.1467987e-06
1.1577376e-06
1.1720124e-06
1.1806085e-06
1.1997136e-06
1.2099744e-06
1.2342163e-06
1.2461956e-06
1.2711261e-06
1.2959576e-06
1.3161981e-06
1.3538398e-06
1.3758426e-06
1.4227649e-06
1.4493697e-06
1.5115501e-06
3.148536e-06
2.5846455e-06
2.2051281e-06
2.0237461e-06
1.9094906e-06
1.7588729e-06
1.5699117e-06
1.3908425e-06
1.2562687e-06
1.1720567e-06
1.1249901e-06
1.1027885e-06
1.0922387e-06
1.0865889e-06
1.0832581e-06
1.0803618e-06
1.0788658e-06
1.0790001e-06
1.0799772e-06
1.081371e-06
1.0827144e-06
1.0836925e-06
1.0840555e-06
1.0838033e-06
1.083514e-06
1.0828346e-06
1.0821061e-06
1.0811585e-06
1.0808507e-06
1.0809523e-06
1.0823226e-06
1.084604e-06
1.0877391e-06
1.092271e-06
1.0964252e-06
1.1016383e-06
1.1068183e-06
1.11459e-06
1.1206624e-06
1.1337195e-06
1.1418507e-06
1.1605293e-06
1.1698026e-06
1.1912043e-06
1.2015265e-06
1.2232076e-06
1.2405919e-06
1.2566358e-06
1.2855832e-06
1.3012003e-06
1.3332643e-06
1.3508677e-06
1.389593e-06
1.4116583e-06
1.4622237e-06
3.1519195e-06
2.589154e-06
2.2076952e-06
2.0247412e-06
1.9116883e-06
1.7635779e-06
1.5762003e-06
1.3968653e-06
1.2611759e-06
1.1757419e-06
1.1277485e-06
1.1049153e-06
1.0940091e-06
1.0881948e-06
1.084932e-06
1.0821391e-06
1.0807145e-06
1.0808347e-06
1.0816422e-06
1.0828868e-06
1.0841617e-06
1.0851381e-06
1.0855577e-06
1.0853816e-06
1.0850231e-06
1.084438e-06
1.0836672e-06
1.0827501e-06
1.0821275e-06
1.0822635e-06
1.083028e-06
1.0856057e-06
1.0879537e-06
1.0927074e-06
1.0960478e-06
1.1019817e-06
1.1055879e-06
1.1128973e-06
1.1170196e-06
1.1270976e-06
1.132929e-06
1.1473328e-06
1.1557453e-06
1.1718338e-06
1.1892894e-06
1.2022402e-06
1.2271656e-06
1.2407953e-06
1.2693492e-06
1.2843389e-06
1.3151302e-06
1.3317904e-06
1.3659179e-06
1.3847465e-06
1.4261746e-06
3.15525e-06
2.5936887e-06
2.2102241e-06
2.0256449e-06
1.9138825e-06
1.7682836e-06
1.5825132e-06
1.403039e-06
1.2662392e-06
1.1795405e-06
1.1305807e-06
1.1070687e-06
1.0957812e-06
1.0897841e-06
1.0866137e-06
1.0839203e-06
1.0826128e-06
1.0827456e-06
1.0834469e-06
1.084602e-06
1.0857852e-06
1.086762e-06
1.0872369e-06
1.0870987e-06
1.0866867e-06
1.0861223e-06
1.0853083e-06
1.0844795e-06
1.0835874e-06
1.0836466e-06
1.0840537e-06
1.0860718e-06
1.08814e-06
1.0925529e-06
1.0955894e-06
1.1017688e-06
1.1050308e-06
1.1122312e-06
1.1154986e-06
1.12395e-06
1.1291513e-06
1.138054e-06
1.149172e-06
1.1574528e-06
1.1747985e-06
1.1851223e-06
1.2073875e-06
1.2201432e-06
1.2466025e-06
1.2608001e-06
1.2905719e-06
1.3064452e-06
1.3392522e-06
1.356893e-06
1.3947458e-06
3.1584186e-06
2.5980799e-06
2.2130441e-06
2.0266683e-06
1.915477e-06
1.7721033e-06
1.5880772e-06
1.4087993e-06
1.2710929e-06
1.1832507e-06
1.133362e-06
1.1091703e-06
1.0975328e-06
1.0913251e-06
1.088235e-06
1.0856743e-06
1.0845164e-06
1.0847059e-06
1.0854031e-06
1.0864819e-06
1.0875648e-06
1.0885415e-06
1.089076e-06
1.0890453e-06
1.0886428e-06
1.0880025e-06
1.0871179e-06
1.0863479e-06
1.0854023e-06
1.0852255e-06
1.0853492e-06
1.0868425e-06
1.0885286e-06
1.0921758e-06
1.0950636e-06
1.1005109e-06
1.1041526e-06
1.1095061e-06
1.1151184e-06
1.1198737e-06
1.1278237e-06
1.1334797e-06
1.1445721e-06
1.1512089e-06
1.1654095e-06
1.174008e-06
1.1930937e-06
1.2038998e-06
1.2266872e-06
1.2392751e-06
1.2658455e-06
1.2801289e-06
1.3107316e-06
1.3269939e-06
1.361353e-06
3.1617169e-06
2.6027246e-06
2.2153018e-06
2.02704e-06
1.9174828e-06
1.7774144e-06
1.595417e-06
1.4159767e-06
1.2768873e-06
1.1874151e-06
1.1363258e-06
1.1113243e-06
1.099206e-06
1.09281e-06
1.0897823e-06
1.0873457e-06
1.0863601e-06
1.0866711e-06
1.0874162e-06
1.0884141e-06
1.089483e-06
1.0904799e-06
1.0910687e-06
1.091129e-06
1.0907436e-06
1.0900615e-06
1.0891316e-06
1.088338e-06
1.0873422e-06
1.0870381e-06
1.0871067e-06
1.0877789e-06
1.0897828e-06
1.0920612e-06
1.0956705e-06
1.0987416e-06
1.1035357e-06
1.1070264e-06
1.1132683e-06
1.1169462e-06
1.1250499e-06
1.1296297e-06
1.1402083e-06
1.1460898e-06
1.1589176e-06
1.1667183e-06
1.1830616e-06
1.192282e-06
1.2119128e-06
1.2229788e-06
1.2458825e-06
1.2587397e-06
1.2853971e-06
1.2999789e-06
1.3290777e-06
3.1649322e-06
2.6071809e-06
2.2175366e-06
2.02756e-06
1.9194219e-06
1.7820733e-06
1.601839e-06
1.4223231e-06
1.2820957e-06
1.1912819e-06
1.139091e-06
1.1133919e-06
1.1008548e-06
1.0943084e-06
1.0913073e-06
1.0889861e-06
1.0881553e-06
1.0886049e-06
1.0894058e-06
1.0904095e-06
1.0914787e-06
1.0925433e-06
1.0932126e-06
1.0933695e-06
1.0930107e-06
1.0922937e-06
1.0913542e-06
1.0904375e-06
1.0895856e-06
1.0888976e-06
1.0891136e-06
1.0894917e-06
1.0911311e-06
1.0928125e-06
1.0962233e-06
1.0985609e-06
1.1029041e-06
1.1057218e-06
1.1115646e-06
1.1150384e-06
1.1223666e-06
1.1267669e-06
1.1361982e-06
1.141592e-06
1.1537338e-06
1.1605588e-06
1.1752449e-06
1.1835837e-06
1.2012148e-06
1.2108034e-06
1.2311982e-06
1.2424821e-06
1.2656883e-06
1.2782381e-06
1.3031404e-06
3.1678651e-06
2.6115595e-06
2.2200769e-06
2.0282167e-06
1.9208475e-06
1.7859215e-06
1.6074589e-06
1.4281209e-06
1.2869875e-06
1.194975e-06
1.1417819e-06
1.1153759e-06
1.1024176e-06
1.0957592e-06
1.0927889e-06
1.0905792e-06
1.0899038e-06
1.0904499e-06
1.0913423e-06
1.0923718e-06
1.0934711e-06
1.0946209e-06
1.095465e-06
1.0957377e-06
1.0954525e-06
1.0947368e-06
1.0938323e-06
1.0928105e-06
1.0920314e-06
1.0911777e-06
1.0913229e-06
1.0915897e-06
1.0928511e-06
1.0942309e-06
1.0970278e-06
1.0989903e-06
1.1028013e-06
1.1051999e-06
1.1103482e-06
1.1132635e-06
1.1201139e-06
1.1238961e-06
1.1325079e-06
1.1376622e-06
1.1485025e-06
1.1547375e-06
1.1683859e-06
1.175969e-06
1.1918637e-06
1.2005459e-06
1.219347e-06
1.2290528e-06
1.2502037e-06
1.2611477e-06
1.282269e-06
3.1706131e-06
2.6157677e-06
2.223024e-06
2.0291668e-06
1.9217998e-06
1.7886628e-06
1.6118736e-06
1.4330197e-06
1.2912941e-06
1.1982832e-06
1.1442221e-06
1.1172453e-06
1.1039121e-06
1.0971516e-06
1.0942139e-06
1.0920844e-06
1.0915358e-06
1.0922144e-06
1.0931933e-06
1.0942786e-06
1.0954821e-06
1.0967386e-06
1.0977765e-06
1.0982092e-06
1.0979959e-06
1.09734e-06
1.0964072e-06
1.0953304e-06
1.0945946e-06
1.0937044e-06
1.0937498e-06
1.0938901e-06
1.0948579e-06
1.0959934e-06
1.09828e-06
1.0999635e-06
1.1032391e-06
1.1055036e-06
1.1098451e-06
1.1126025e-06
1.1185547e-06
1.1220325e-06
1.1300005e-06
1.1344748e-06
1.1444079e-06
1.1502592e-06
1.1625636e-06
1.1693591e-06
1.1839466e-06
1.1921677e-06
1.2088119e-06
1.2178801e-06
1.2365633e-06
1.2471472e-06
1.2648501e-06
3.1734252e-06
2.620087e-06
2.2255222e-06
2.0295495e-06
1.9229912e-06
1.7925213e-06
1.6177641e-06
1.4391121e-06
1.2963213e-06
1.2019336e-06
1.1466961e-06
1.1190219e-06
1.1053446e-06
1.0985339e-06
1.0956156e-06
1.0935291e-06
1.0930475e-06
1.0938406e-06
1.0949269e-06
1.0961167e-06
1.0973898e-06
1.0987573e-06
1.1000315e-06
1.1007136e-06
1.1006475e-06
1.1000687e-06
1.0991341e-06
1.0980405e-06
1.0973782e-06
1.0964552e-06
1.0964332e-06
1.0964473e-06
1.0972393e-06
1.0981666e-06
1.1001058e-06
1.1015334e-06
1.1043319e-06
1.1061224e-06
1.1100629e-06
1.1124351e-06
1.1176231e-06
1.1207802e-06
1.1277014e-06
1.1317689e-06
1.1408643e-06
1.1460251e-06
1.1571951e-06
1.1635184e-06
1.1770274e-06
1.1842551e-06
1.1992739e-06
1.2079622e-06
1.2248866e-06
1.2344106e-06
1.2498821e-06
3.1760725e-06
2.6242821e-06
2.2281683e-06
2.0302118e-06
1.9240528e-06
1.7957378e-06
1.6228119e-06
1.4444577e-06
1.3008385e-06
1.2052821e-06
1.1489931e-06
1.1206798e-06
1.1066817e-06
1.0998349e-06
1.0969869e-06
1.0949247e-06
1.0944625e-06
1.0953525e-06
1.0965147e-06
1.0977623e-06
1.0991356e-06
1.1007085e-06
1.1022359e-06
1.103187e-06
1.1033094e-06
1.1028443e-06
1.1019438e-06
1.1009024e-06
1.1001859e-06
1.0993591e-06
1.0993557e-06
1.0992388e-06
1.0998549e-06
1.1006194e-06
1.1022018e-06
1.103467e-06
1.1058722e-06
1.1075338e-06
1.110927e-06
1.1130399e-06
1.1177889e-06
1.1204357e-06
1.1265616e-06
1.1303076e-06
1.1382666e-06
1.1429965e-06
1.1532493e-06
1.1589913e-06
1.1710835e-06
1.1775199e-06
1.1914247e-06
1.1992408e-06
1.2150666e-06
1.2228261e-06
1.2367674e-06
3.178621e-06
2.6284006e-06
2.2308421e-06
2.030857e-06
1.9250601e-06
1.7990069e-06
1.6280115e-06
1.4500577e-06
1.3055312e-06
1.2086908e-06
1.1512558e-06
1.1222148e-06
1.1079165e-06
1.1009653e-06
1.0982185e-06
1.0961956e-06
1.0957916e-06
1.0967164e-06
1.0979497e-06
1.0993025e-06
1.100785e-06
1.1025294e-06
1.1042937e-06
1.1055573e-06
1.1059503e-06
1.1056468e-06
1.1048691e-06
1.103855e-06
1.1031049e-06
1.1024117e-06
1.102361e-06
1.1021858e-06
1.102748e-06
1.1034346e-06
1.1047649e-06
1.1058216e-06
1.1077044e-06
1.109152e-06
1.1121798e-06
1.1142171e-06
1.1183175e-06
1.120737e-06
1.1262197e-06
1.1292865e-06
1.136478e-06
1.1407745e-06
1.1499156e-06
1.1551474e-06
1.1660652e-06
1.1725657e-06
1.1839914e-06
1.1927171e-06
1.2061035e-06
1.2129036e-06
1.2259148e-06
3.1811182e-06
2.6325886e-06
2.2333675e-06
2.0313495e-06
1.9262337e-06
1.8027649e-06
1.6337209e-06
1.4560851e-06
1.3105126e-06
1.2122141e-06
1.1534921e-06
1.1236507e-06
1.1090342e-06
1.1020471e-06
1.0993941e-06
1.0973756e-06
1.0969394e-06
1.0979038e-06
1.0992874e-06
1.1007395e-06
1.1022817e-06
1.1042339e-06
1.1062526e-06
1.1078238e-06
1.10851e-06
1.1083814e-06
1.1077064e-06
1.1067809e-06
1.1061034e-06
1.105556e-06
1.1054798e-06
1.1052609e-06
1.1057728e-06
1.1063941e-06
1.1075109e-06
1.1084899e-06
1.1100906e-06
1.1114196e-06
1.1143492e-06
1.1161157e-06
1.1196931e-06
1.1218259e-06
1.1265702e-06
1.1294992e-06
1.1358747e-06
1.1396635e-06
1.1479776e-06
1.1526583e-06
1.1626186e-06
1.1683439e-06
1.1777374e-06
1.1872117e-06
1.1986413e-06
1.204913e-06
1.2165616e-06
3.18353e-06
2.6366394e-06
2.2360054e-06
2.0320308e-06
1.9273818e-06
1.8062857e-06
1.6392273e-06
1.4619762e-06
1.3154349e-06
1.2157199e-06
1.1557432e-06
1.1250573e-06
1.1100923e-06
1.1030502e-06
1.10047e-06
1.0984383e-06
1.0980034e-06
1.0990012e-06
1.1004283e-06
1.1020346e-06
1.1037104e-06
1.1058242e-06
1.1080537e-06
1.1099108e-06
1.1109383e-06
1.1110123e-06
1.1105409e-06
1.10976e-06
1.1091336e-06
1.1086754e-06
1.1086736e-06
1.1084689e-06
1.1089549e-06
1.1095281e-06
1.1104854e-06
1.1113504e-06
1.1127202e-06
1.1139784e-06
1.1165203e-06
1.1181993e-06
1.1215609e-06
1.1234384e-06
1.1276951e-06
1.130137e-06
1.135777e-06
1.1391351e-06
1.1466742e-06
1.150952e-06
1.1600249e-06
1.1652653e-06
1.1739729e-06
1.1823019e-06
1.19282e-06
1.198406e-06
1.2083411e-06
3.1858111e-06
2.6407752e-06
2.2383325e-06
2.0324251e-06
1.9289246e-06
1.8107191e-06
1.6458102e-06
1.46872e-06
1.3208848e-06
1.21955e-06
1.1581397e-06
1.1265398e-06
1.1111346e-06
1.1039765e-06
1.1014546e-06
1.0994199e-06
1.0989052e-06
1.0999127e-06
1.1014555e-06
1.1031619e-06
1.1049209e-06
1.1072425e-06
1.1097288e-06
1.1118992e-06
1.1132446e-06
1.1135428e-06
1.1132329e-06
1.112584e-06
1.112044e-06
1.1116617e-06
1.111749e-06
1.1116713e-06
1.1121948e-06
1.1127864e-06
1.1137009e-06
1.1145235e-06
1.1157655e-06
1.1169141e-06
1.1191945e-06
1.1207877e-06
1.1238288e-06
1.1255802e-06
1.1293376e-06
1.1314697e-06
1.1364675e-06
1.1396283e-06
1.1464269e-06
1.1504091e-06
1.1585404e-06
1.1640448e-06
1.1708096e-06
1.1792516e-06
1.1880458e-06
1.1933861e-06
1.2018711e-06
3.1882327e-06
2.6448562e-06
2.2409291e-06
2.0331503e-06
1.9304021e-06
1.8147573e-06
1.6518835e-06
1.4750915e-06
1.3261807e-06
1.2233204e-06
1.1605537e-06
1.1279952e-06
1.1121777e-06
1.1048771e-06
1.1023896e-06
1.1003581e-06
1.0997654e-06
1.1007403e-06
1.102388e-06
1.1042416e-06
1.1061175e-06
1.1085444e-06
1.1111909e-06
1.1137149e-06
1.1154501e-06
1.1160096e-06
1.1158202e-06
1.1153693e-06
1.1149101e-06
1.1147375e-06
1.1148804e-06
1.1148451e-06
1.1153305e-06
1.1160221e-06
1.1169795e-06
1.1176921e-06
1.1186188e-06
1.1198008e-06
1.1219475e-06
1.1235686e-06
1.1267033e-06
1.1284627e-06
1.1314976e-06
1.133359e-06
1.1374304e-06
1.1401601e-06
1.1464143e-06
1.1502971e-06
1.1581522e-06
1.1638003e-06
1.1693733e-06
1.1784876e-06
1.1853714e-06
1.1899933e-06
1.1977861e-06
3.1900105e-06
2.649135e-06
2.24323e-06
2.0333196e-06
1.9321207e-06
1.8198814e-06
1.659168e-06
1.4824773e-06
1.33212e-06
1.2274234e-06
1.1631394e-06
1.1296001e-06
1.1133001e-06
1.1058356e-06
1.1033319e-06
1.1013016e-06
1.1005742e-06
1.1014911e-06
1.1031495e-06
1.1051599e-06
1.1071337e-06
1.1097166e-06
1.1126671e-06
1.1154567e-06
1.1174688e-06
1.1182635e-06
1.1182661e-06
1.1179847e-06
1.1176458e-06
1.1176023e-06
1.1178433e-06
1.117964e-06
1.1184635e-06
1.1190759e-06
1.1201568e-06
1.1209213e-06
1.1219644e-06
1.123091e-06
1.1249283e-06
1.1265328e-06
1.1295553e-06
1.1311927e-06
1.134152e-06
1.135638e-06
1.1394646e-06
1.1417921e-06
1.1474532e-06
1.1508116e-06
1.1581218e-06
1.1619888e-06
1.1700356e-06
1.1748189e-06
1.1835452e-06
1.1879585e-06
1.1948097e-06
3.1923981e-06
2.6535405e-06
2.2458155e-06
2.0339346e-06
1.9338119e-06
1.8243296e-06
1.6658017e-06
1.4894057e-06
1.3378259e-06
1.2314458e-06
1.1657603e-06
1.1312284e-06
1.1144102e-06
1.1067908e-06
1.104264e-06
1.102224e-06
1.1013832e-06
1.102165e-06
1.1038534e-06
1.1060404e-06
1.1082325e-06
1.1108389e-06
1.1139541e-06
1.1169583e-06
1.1193444e-06
1.120543e-06
1.1207919e-06
1.1206195e-06
1.1203688e-06
1.1204545e-06
1.1206612e-06
1.1208138e-06
1.1212946e-06
1.1223154e-06
1.1235027e-06
1.1240052e-06
1.1245612e-06
1.1255772e-06
1.1277867e-06
1.1298761e-06
1.1329128e-06
1.1346502e-06
1.1366274e-06
1.1380148e-06
1.1406154e-06
1.1428028e-06
1.1480264e-06
1.1520566e-06
1.1591886e-06
1.1627862e-06
1.1698979e-06
1.1759471e-06
1.1837564e-06
1.1872345e-06
1.1928132e-06
3.1936025e-06
2.6570173e-06
2.2490273e-06
2.0355268e-06
1.9350522e-06
1.8266722e-06
1.6694176e-06
1.4935659e-06
1.3415908e-06
1.2343093e-06
1.1676439e-06
1.132362e-06
1.1151224e-06
1.1073675e-06
1.1047961e-06
1.102771e-06
1.1018108e-06
1.1024968e-06
1.104182e-06
1.1064246e-06
1.1087298e-06
1.1115106e-06
1.1148048e-06
1.1182311e-06
1.1208547e-06
1.1222238e-06
1.1225889e-06
1.1227127e-06
1.1225502e-06
1.1226666e-06
1.1231454e-06
1.1235987e-06
1.1238725e-06
1.1246503e-06
1.1259897e-06
1.1270831e-06
1.1275457e-06
1.1283745e-06
1.1302504e-06
1.1322325e-06
1.1354973e-06
1.1374206e-06
1.1395502e-06
1.1409281e-06
1.1430913e-06
1.1449808e-06
1.1496609e-06
1.1533072e-06
1.1588358e-06
1.1622539e-06
1.1682681e-06
1.1749289e-06
1.1821361e-06
1.1860179e-06
1.1923345e-06
3.1959459e-06
2.6613202e-06
2.2520416e-06
2.0363295e-06
1.9363286e-06
1.8307762e-06
1.6755638e-06
1.5000509e-06
1.3475768e-06
1.2390995e-06
1.1709821e-06
1.1342572e-06
1.1162925e-06
1.108121e-06
1.1052919e-06
1.1032379e-06
1.1021472e-06
1.1026521e-06
1.1042572e-06
1.1066464e-06
1.1092611e-06
1.1119817e-06
1.115347e-06
1.1188797e-06
1.1218978e-06
1.1236794e-06
1.1245262e-06
1.1247833e-06
1.1250623e-06
1.1254489e-06
1.1255887e-06
1.1257284e-06
1.126021e-06
1.1270556e-06
1.1283087e-06
1.1290229e-06
1.128906e-06
1.1297911e-06
1.1314806e-06
1.1336678e-06
1.1374302e-06
1.139698e-06
1.1414611e-06
1.1422099e-06
1.1435313e-06
1.1450681e-06
1.1494336e-06
1.1539358e-06
1.1600565e-06
1.1634409e-06
1.1695629e-06
1.1764801e-06
1.1820001e-06
1.1853289e-06
1.1897634e-06
3.1954076e-06
2.6651797e-06
2.2558382e-06
2.0360995e-06
1.9366958e-06
1.8373464e-06
1.6823636e-06
1.512561e-06
1.3690902e-06
1.2666578e-06
1.1984401e-06
1.1569923e-06
1.1353587e-06
1.1241687e-06
1.1197049e-06
1.117184e-06
1.1156499e-06
1.1160634e-06
1.1181226e-06
1.1201383e-06
1.1233929e-06
1.1291062e-06
1.13167e-06
1.1346362e-06
1.1366428e-06
1.1376293e-06
1.1387065e-06
1.1424203e-06
1.1451713e-06
1.146015e-06
1.1458915e-06
1.1442625e-06
1.1406168e-06
1.1392535e-06
1.1396743e-06
1.1396478e-06
1.1390878e-06
1.1376859e-06
1.1396037e-06
1.14075e-06
1.1434044e-06
1.1454791e-06
1.1478345e-06
1.148984e-06
1.1495803e-06
1.1504719e-06
1.1524597e-06
1.1548303e-06
1.1591939e-06
1.1624088e-06
1.1678853e-06
1.1747895e-06
1.180568e-06
1.1869438e-06
1.1893889e-06
3.189233e-06
2.6673017e-06
2.2579294e-06
2.0210852e-06
1.9362195e-06
1.8885661e-06
1.7739409e-06
1.64806e-06
1.5809142e-06
1.537056e-06
1.4834858e-06
1.4254159e-06
1.377491e-06
1.344641e-06
1.3334927e-06
1.3260157e-06
1.3238117e-06
1.3270794e-06
1.3347172e-06
1.339483e-06
1.3483458e-06
1.3717399e-06
1.3690133e-06
1.3678362e-06
1.3633373e-06
1.3574869e-06
1.3594891e-06
1.3816507e-06
1.4151544e-06
1.4261331e-06
1.4232354e-06
1.4042328e-06
1.3593627e-06
1.338376e-06
1.3293756e-06
1.3220414e-06
1.3027776e-06
1.2887331e-06
1.2824783e-06
1.2815231e-06
1.2814991e-06
1.2830882e-06
1.2816394e-06
1.2748532e-06
1.260196e-06
1.2472715e-06
1.2424188e-06
1.2417812e-06
1.2423785e-06
1.2432403e-06
1.2470345e-06
1.2498654e-06
1.2544098e-06
1.2575136e-06
1.2509689e-06
3.1943136e-06
2.6352401e-06
2.2654683e-06
2.1286449e-06
2.1370752e-06
2.3233147e-06
2.4537839e-06
2.6907126e-06
2.9721835e-06
3.0950073e-06
3.1194316e-06
3.0991161e-06
3.0098498e-06
2.9514392e-06
2.9606994e-06
2.9800979e-06
3.0280841e-06
3.098343e-06
3.2003316e-06
3.2522379e-06
3.3399053e-06
3.5195858e-06
3.4904665e-06
3.5100808e-06
3.5036138e-06
3.4768348e-06
3.5090109e-06
3.6900258e-06
3.9048368e-06
4.0548394e-06
4.0573888e-06
3.9350174e-06
3.5930278e-06
3.4832786e-06
3.4425643e-06
3.4486468e-06
3.3520652e-06
3.1730323e-06
3.1581738e-06
3.1071114e-06
3.1111033e-06
3.1467161e-06
3.1386344e-06
3.0970662e-06
2.9555454e-06
2.7873679e-06
2.6273423e-06
2.6106619e-06
2.5785185e-06
2.5786622e-06
2.5733837e-06
2.5575741e-06
2.5630984e-06
2.5581458e-06
2.4867258e-06
5.3435988e-06
5.7893899e-06
5.9070553e-06
4.5925482e-06
4.4364947e-06
4.2235615e-06
4.2592451e-06
4.468049e-06
4.9926717e-06
5.9313362e-06
6.9576838e-06
8.0481006e-06
9.1311005e-06
1.0290246e-05
1.1355611e-05
1.2585325e-05
1.3540621e-05
1.4659235e-05
1.557906e-05
1.669204e-05
1.7488128e-05
1.8802924e-05
1.9655299e-05
2.0376176e-05
2.1025135e-05
2.1452388e-05
2.1782672e-05
2.2286191e-05
2.2944509e-05
2.3708038e-05
2.4486354e-05
2.4950319e-05
2.5032992e-05
2.4560545e-05
2.4594504e-05
2.4051273e-05
2.4501847e-05
2.3159091e-05
2.348036e-05
2.2251088e-05
2.262427e-05
2.1548434e-05
2.2306673e-05
2.0675973e-05
2.1236446e-05
1.9264422e-05
1.9392244e-05
1.7613337e-05
1.777902e-05
1.6382016e-05
1.6363402e-05
1.5755796e-05
1.477198e-05
1.497954e-05
1.4170755e-05
1.3624871e-05
2.6067825e-06
1.2660047e-06
1.2000131e-06
1.1982683e-06
1.2003372e-06
1.2014655e-06
1.204985e-06
1.2091667e-06
1.2150334e-06
1.2224117e-06
1.231283e-06
1.2416286e-06
1.2533285e-06
1.2665244e-06
1.2817966e-06
1.2991481e-06
1.3195923e-06
1.3451105e-06
1.3759046e-06
1.4099739e-06
1.4431972e-06
1.4804468e-06
1.5311009e-06
1.5978674e-06
1.6779889e-06
1.7571224e-06
1.3347457e-05
2.6910422e-06
1.2961062e-06
1.2067798e-06
1.2035846e-06
1.2078951e-06
1.2091791e-06
1.2123626e-06
1.2170693e-06
1.223539e-06
1.2318267e-06
1.2416021e-06
1.2525057e-06
1.2650746e-06
1.2795076e-06
1.2956175e-06
1.3138682e-06
1.3353715e-06
1.3615473e-06
1.393122e-06
1.4289611e-06
1.4656501e-06
1.5025857e-06
1.5475198e-06
1.6099953e-06
1.6924164e-06
1.7709872e-06
1.250513e-05
2.6747175e-06
1.3101373e-06
1.212472e-06
1.2114277e-06
1.2150651e-06
1.219357e-06
1.224386e-06
1.2307755e-06
1.2384356e-06
1.2470393e-06
1.2570375e-06
1.2683261e-06
1.2812712e-06
1.2960708e-06
1.3128413e-06
1.3314885e-06
1.35305e-06
1.378514e-06
1.4097098e-06
1.4448212e-06
1.4833924e-06
1.5248451e-06
1.5712721e-06
1.626968e-06
1.7124672e-06
1.787331e-06
1.1180716e-05
2.5981876e-06
1.3193685e-06
1.2169798e-06
1.2197682e-06
1.2290579e-06
1.2338721e-06
1.238135e-06
1.2431576e-06
1.2511015e-06
1.2605113e-06
1.2707336e-06
1.2820605e-06
1.2951558e-06
1.3102237e-06
1.3270553e-06
1.3461956e-06
1.3676942e-06
1.3934771e-06
1.4247975e-06
1.4604808e-06
1.4988245e-06
1.5439637e-06
1.592763e-06
1.6481086e-06
1.7328073e-06
1.8131036e-06
9.88052e-06
2.5804449e-06
1.3356404e-06
1.2266997e-06
1.2293922e-06
1.23772e-06
1.2449499e-06
1.2553153e-06
1.2631667e-06
1.2723979e-06
1.2829426e-06
1.2944148e-06
1.3066687e-06
1.3205855e-06
1.3363306e-06
1.3535789e-06
1.3728499e-06
1.393958e-06
1.4198692e-06
1.4498888e-06
1.4852597e-06
1.5214554e-06
1.5663188e-06
1.6204928e-06
1.6662053e-06
1.7528239e-06
1.8406924e-06
8.7902143e-06
2.5714806e-06
1.3582564e-06
1.2379549e-06
1.2420687e-06
1.2523893e-06
1.2585084e-06
1.2663861e-06
1.2741738e-06
1.2842599e-06
1.2955295e-06
1.3081612e-06
1.3217909e-06
1.3369786e-06
1.3546296e-06
1.37359e-06
1.394854e-06
1.4178831e-06
1.4451363e-06
1.4762667e-06
1.5112217e-06
1.5483546e-06
1.5927218e-06
1.6503672e-06
1.6956963e-06
1.7783538e-06
1.8744407e-06
7.3223934e-06
2.5744418e-06
1.3876795e-06
1.2556705e-06
1.2552605e-06
1.2648091e-06
1.2730638e-06
1.2825277e-06
1.2918238e-06
1.3026497e-06
1.3142844e-06
1.3271078e-06
1.341144e-06
1.357175e-06
1.374713e-06
1.3944953e-06
1.4156765e-06
1.4390769e-06
1.4667189e-06
1.5003554e-06
1.5347966e-06
1.5730805e-06
1.615389e-06
1.6762911e-06
1.7278459e-06
1.7973523e-06
1.8976683e-06
6.0183994e-06
2.6030339e-06
1.4152412e-06
1.2742551e-06
1.2752037e-06
1.2849944e-06
1.2912639e-06
1.2979145e-06
1.3051201e-06
1.3154594e-06
1.3269845e-06
1.3396173e-06
1.3534562e-06
1.3697016e-06
1.3875967e-06
1.4084374e-06
1.4309169e-06
1.4549685e-06
1.4827914e-06
1.5176352e-06
1.5546223e-06
1.5930962e-06
1.6338902e-06
1.6978497e-06
1.759216e-06
1.8200188e-06
1.9230448e-06
5.0749177e-06
2.7063607e-06
1.4677873e-06
1.2980017e-06
1.2977864e-06
1.3093866e-06
1.3177321e-06
1.3274746e-06
1.3336089e-06
1.3429392e-06
1.3538454e-06
1.3655396e-06
1.37819e-06
1.3931818e-06
1.4100283e-06
1.4288325e-06
1.4511102e-06
1.4751193e-06
1.5024045e-06
1.5362103e-06
1.5758169e-06
1.6121689e-06
1.6509152e-06
1.7113187e-06
1.7825882e-06
1.8407227e-06
1.9439696e-06
4.9239119e-06
2.8031531e-06
1.5124186e-06
1.314357e-06
1.3115716e-06
1.3253536e-06
1.3326903e-06
1.3441265e-06
1.3530695e-06
1.3637556e-06
1.3758657e-06
1.3884962e-06
1.4025976e-06
1.418789e-06
1.4366839e-06
1.4559177e-06
1.4776214e-06
1.5012849e-06
1.528287e-06
1.560871e-06
1.602665e-06
1.6374197e-06
1.6746809e-06
1.7286573e-06
1.8030076e-06
1.8648492e-06
1.9691366e-06
5.2303581e-06
2.9663354e-06
1.5816656e-06
1.3388816e-06
1.3314114e-06
1.3480598e-06
1.3575863e-06
1.3697496e-06
1.3815721e-06
1.3942401e-06
1.406959e-06
1.4205929e-06
1.4345312e-06
1.4499116e-06
1.4681913e-06
1.4881596e-06
1.5101991e-06
1.5331851e-06
1.5592966e-06
1.5906045e-06
1.6329384e-06
1.669806e-06
1.7041954e-06
1.7556554e-06
1.8238546e-06
1.8897278e-06
1.999958e-06
5.9851215e-06
3.071129e-06
1.6298898e-06
1.3543918e-06
1.3420998e-06
1.3601447e-06
1.3707548e-06
1.3829527e-06
1.3955266e-06
1.4107575e-06
1.4265791e-06
1.4426107e-06
1.4596845e-06
1.4778518e-06
1.4979269e-06
1.5203314e-06
1.5440336e-06
1.5683156e-06
1.5940203e-06
1.6243933e-06
1.6641583e-06
1.7079367e-06
1.7376192e-06
1.7899478e-06
1.8503983e-06
1.9152526e-06
2.0334247e-06
7.2369068e-06
3.2488271e-06
1.6948597e-06
1.3836281e-06
1.3641308e-06
1.3825934e-06
1.3952504e-06
1.4081723e-06
1.4210222e-06
1.4350244e-06
1.4492129e-06
1.4647008e-06
1.4814476e-06
1.5007871e-06
1.5216431e-06
1.5448658e-06
1.5701114e-06
1.5977933e-06
1.6249991e-06
1.6558157e-06
1.6951746e-06
1.7441639e-06
1.7705279e-06
1.8224141e-06
1.8789702e-06
1.9364846e-06
2.0561904e-06
9.0344892e-06
3.3700444e-06
1.7317057e-06
1.4035243e-06
1.3813488e-06
1.4014842e-06
1.4132332e-06
1.424067e-06
1.435796e-06
1.4505214e-06
1.4664736e-06
1.4830736e-06
1.5002326e-06
1.5209496e-06
1.5427548e-06
1.56628e-06
1.5921571e-06
1.6208145e-06
1.6499096e-06
1.6808891e-06
1.7219748e-06
1.7742882e-06
1.8049725e-06
1.8543773e-06
1.9120626e-06
1.9633487e-06
2.0770616e-06
1.1453513e-05
3.6055903e-06
1.7892142e-06
1.4327408e-06
1.4083786e-06
1.4321806e-06
1.4478812e-06
1.4570761e-06
1.4659e-06
1.4772875e-06
1.4898675e-06
1.5044278e-06
1.5205607e-06
1.5399922e-06
1.5616198e-06
1.5859237e-06
1.6124817e-06
1.6409439e-06
1.6720535e-06
1.7027384e-06
1.742442e-06
1.7961009e-06
1.8332403e-06
1.8753101e-06
1.9389414e-06
1.9863918e-06
2.0901062e-06
1.4595704e-05
3.7968899e-06
1.8252331e-06
1.4483676e-06
1.4221651e-06
1.4507706e-06
1.4701185e-06
1.4837238e-06
1.4929024e-06
1.5068632e-06
1.5201917e-06
1.5338753e-06
1.5500064e-06
1.5672165e-06
1.5874288e-06
1.6107898e-06
1.6359493e-06
1.6634115e-06
1.6949393e-06
1.7260562e-06
1.7639714e-06
1.817283e-06
1.8628302e-06
1.9002978e-06
1.9693788e-06
2.0135443e-06
2.1066475e-06
1.8579466e-05
4.15697e-06
1.8892141e-06
1.4746194e-06
1.4434904e-06
1.4736754e-06
1.5030685e-06
1.5141495e-06
1.5268094e-06
1.5384337e-06
1.5506848e-06
1.5638808e-06
1.5798415e-06
1.5972683e-06
1.6180772e-06
1.6410418e-06
1.6657779e-06
1.6927611e-06
1.7231573e-06
1.754479e-06
1.7894648e-06
1.8374818e-06
1.8881666e-06
1.9224603e-06
1.9906228e-06
2.0344031e-06
2.1210101e-06
2.3538801e-05
4.5061801e-06
1.9377939e-06
1.4904294e-06
1.4543093e-06
1.489802e-06
1.5284794e-06
1.546103e-06
1.5600823e-06
1.574301e-06
1.5879065e-06
1.6008476e-06
1.6149708e-06
1.6320591e-06
1.6518592e-06
1.6735767e-06
1.697409e-06
1.7246573e-06
1.7541344e-06
1.7869487e-06
1.8214359e-06
1.8672337e-06
1.9247461e-06
1.9558526e-06
2.019844e-06
2.0599094e-06
2.1414872e-06
2.9613176e-05
5.0421603e-06
2.0270182e-06
1.5202297e-06
1.4751487e-06
1.5064454e-06
1.5540534e-06
1.5716827e-06
1.5871907e-06
1.6036876e-06
1.6195924e-06
1.6343895e-06
1.6499992e-06
1.6688033e-06
1.6890876e-06
1.7109303e-06
1.7343258e-06
1.7607401e-06
1.7884004e-06
1.8206464e-06
1.854351e-06
1.8955132e-06
1.9581311e-06
1.9884954e-06
2.0513268e-06
2.0877429e-06
2.163434e-06
3.6947072e-05
5.6391572e-06
2.1017784e-06
1.5418103e-06
1.4883338e-06
1.5203164e-06
1.5765072e-06
1.6009964e-06
1.6161993e-06
1.6328286e-06
1.6484139e-06
1.663814e-06
1.6791612e-06
1.6978632e-06
1.7177509e-06
1.7402375e-06
1.7648312e-06
1.7915293e-06
1.8201919e-06
1.8531389e-06
1.888761e-06
1.9271854e-06
1.9928103e-06
2.0256967e-06
2.0866119e-06
2.1238564e-06
2.1888006e-06
4.5674444e-05
6.3966007e-06
2.2377568e-06
1.5832722e-06
1.5129776e-06
1.539439e-06
1.5959625e-06
1.6267535e-06
1.6428035e-06
1.6593808e-06
1.6753518e-06
1.6917953e-06
1.7095885e-06
1.728791e-06
1.7500956e-06
1.7720181e-06
1.7969738e-06
1.8221417e-06
1.8497349e-06
1.880168e-06
1.9146249e-06
1.9521496e-06
2.0159395e-06
2.0547902e-06
2.1166076e-06
2.1592598e-06
2.2119185e-06
5.5925407e-05
7.3235148e-06
2.3547119e-06
1.6158052e-06
1.5317423e-06
1.5596249e-06
1.6200498e-06
1.6586686e-06
1.6710643e-06
1.6870047e-06
1.700239e-06
1.7157797e-06
1.7333697e-06
1.7523831e-06
1.774164e-06
1.7985756e-06
1.8241545e-06
1.8507954e-06
1.8787441e-06
1.9103077e-06
1.9431292e-06
1.9809767e-06
2.0380993e-06
2.0805527e-06
2.1448285e-06
2.1922008e-06
2.2379183e-06
6.7795297e-05
8.3406186e-06
2.5151789e-06
1.6625974e-06
1.558335e-06
1.5804802e-06
1.6414808e-06
1.6858178e-06
1.701503e-06
1.7147219e-06
1.7282525e-06
1.7414773e-06
1.7573055e-06
1.7760714e-06
1.7962978e-06
1.8201389e-06