/*--------------------------------*- C++ -*----------------------------------*\
| =========                 |                                                 |
| \\      /  F ield         | OpenFOAM: The Open Source CFD Toolbox           |
|  \\    /   O peration     | Version:  2406                                  |
|   \\  /    A nd           | Website:  www.openfoam.com                      |
|    \\/     M anipulation  |                                                 |
\*---------------------------------------------------------------------------*/
FoamFile
{
    version     2.0;
    format      ascii;
    arch        "LSB;label=32;scalar=64";
    class       volScalarField;
    location    "6";
    object      k_0;
}
// * * * * * * * * * * * * * * * * * * * * * * * * * * * * * * * * * * * * * //

dimensions      [0 2 -2 0 0 0 0];

internalField   nonuniform List<scalar> 
62344
(
4.33286e-06
3.6284095e-06
3.1128616e-06
2.7730123e-06
2.5368356e-06
2.3201772e-06
2.0935355e-06
1.8784894e-06
1.7022348e-06
1.5726645e-06
1.4818851e-06
1.4236047e-06
1.3914095e-06
1.3786387e-06
1.3778985e-06
1.3785284e-06
1.3791764e-06
1.3776388e-06
1.372536e-06
1.3730537e-06
1.37767e-06
1.3838336e-06
1.3890782e-06
1.4079721e-06
1.4181064e-06
1.4229154e-06
1.4457398e-06
1.4794638e-06
1.4888144e-06
1.4988255e-06
1.5198354e-06
1.5309066e-06
1.5483923e-06
1.5902114e-06
1.6328543e-06
1.6980949e-06
1.7797778e-06
1.8959139e-06
1.9882038e-06
2.1282924e-06
2.28523e-06
2.5509611e-06
2.7781344e-06
3.0342726e-06
3.2754881e-06
3.5724134e-06
3.8220848e-06
4.128136e-06
4.4369061e-06
4.8449056e-06
5.1699517e-06
5.4540745e-06
5.593002e-06
5.7527486e-06
5.7375957e-06
4.335939e-06
3.6344497e-06
3.1214043e-06
2.78172e-06
2.5399487e-06
2.3227695e-06
2.0995843e-06
1.8842816e-06
1.7045353e-06
1.5735753e-06
1.4862128e-06
1.4270312e-06
1.3946126e-06
1.3799389e-06
1.3763755e-06
1.3770598e-06
1.3771636e-06
1.3785201e-06
1.3748097e-06
1.3755588e-06
1.3773825e-06
1.3775386e-06
1.3824189e-06
1.4000624e-06
1.4071341e-06
1.411942e-06
1.4334107e-06
1.4588797e-06
1.4689845e-06
1.4808283e-06
1.5020787e-06
1.5112948e-06
1.5240312e-06
1.559923e-06
1.592515e-06
1.6407468e-06
1.7054904e-06
1.8166685e-06
1.9128555e-06
2.074743e-06
2.2330513e-06
2.4682682e-06
2.6976535e-06
2.9966455e-06
3.2245833e-06
3.5350585e-06
3.8063533e-06
4.2232461e-06
4.5373617e-06
4.95695e-06
5.1787189e-06
5.6152073e-06
5.8546212e-06
6.3022603e-06
6.3507419e-06
4.339775e-06
3.641086e-06
3.1270937e-06
2.78801e-06
2.5477282e-06
2.330574e-06
2.1083827e-06
1.8943128e-06
1.7153571e-06
1.5831779e-06
1.4907994e-06
1.4268537e-06
1.3932743e-06
1.379698e-06
1.3753683e-06
1.376154e-06
1.374648e-06
1.3742709e-06
1.3715153e-06
1.3720998e-06
1.3741026e-06
1.3740616e-06
1.3785177e-06
1.3946575e-06
1.4002527e-06
1.4046408e-06
1.4249935e-06
1.4461564e-06
1.4576604e-06
1.4756224e-06
1.4990703e-06
1.5087542e-06
1.5224046e-06
1.5501569e-06
1.5712313e-06
1.6071166e-06
1.649694e-06
1.7325117e-06
1.8200777e-06
1.989813e-06
2.1144011e-06
2.3234721e-06
2.5184742e-06
2.8677833e-06
3.0686743e-06
3.4385123e-06
3.7543721e-06
4.2308335e-06
4.5559144e-06
4.9398179e-06
5.1627082e-06
5.6024226e-06
5.9022892e-06
6.3486921e-06
6.6528146e-06
4.3434743e-06
3.6487537e-06
3.1331843e-06
2.7915809e-06
2.5550073e-06
2.3423773e-06
2.1185031e-06
1.901977e-06
1.7238635e-06
1.5913279e-06
1.4952765e-06
1.4292747e-06
1.3962535e-06
1.3837249e-06
1.3788772e-06
1.3793539e-06
1.3759975e-06
1.3753178e-06
1.3739745e-06
1.3728403e-06
1.3746447e-06
1.3745192e-06
1.379078e-06
1.3934086e-06
1.3970276e-06
1.4001638e-06
1.4184061e-06
1.434673e-06
1.4447489e-06
1.4693285e-06
1.4964609e-06
1.5090695e-06
1.527384e-06
1.5533825e-06
1.5691659e-06
1.5988602e-06
1.6284145e-06
1.6832609e-06
1.7508781e-06
1.891432e-06
1.9973762e-06
2.1698692e-06
2.3069308e-06
2.5980259e-06
2.7885267e-06
3.1594013e-06
3.4905618e-06
3.9683122e-06
4.3259298e-06
4.7542354e-06
5.0575515e-06
5.4756452e-06
5.8004918e-06
6.1792474e-06
6.6779387e-06
4.3459826e-06
3.6553565e-06
3.1399794e-06
2.7965139e-06
2.5620926e-06
2.351086e-06
2.1294276e-06
1.9155392e-06
1.7333357e-06
1.5968974e-06
1.5007491e-06
1.4347846e-06
1.4000868e-06
1.3861633e-06
1.3802383e-06
1.3799125e-06
1.3755205e-06
1.3744813e-06
1.3742308e-06
1.3732455e-06
1.3746317e-06
1.3735339e-06
1.3787384e-06
1.3913412e-06
1.3944529e-06
1.3979684e-06
1.4153073e-06
1.4290726e-06
1.4397719e-06
1.4694963e-06
1.499216e-06
1.5155643e-06
1.5423271e-06
1.5680322e-06
1.5803991e-06
1.6054741e-06
1.6337643e-06
1.6732098e-06
1.7230022e-06
1.8353292e-06
1.9276455e-06
2.065108e-06
2.167783e-06
2.389753e-06
2.5621131e-06
2.9009989e-06
3.1648329e-06
3.5554446e-06
3.8734856e-06
4.287511e-06
4.6773874e-06
5.2267466e-06
5.5310737e-06
5.9243093e-06
6.4154336e-06
4.3473035e-06
3.6613642e-06
3.1459545e-06
2.801251e-06
2.5669196e-06
2.3555762e-06
2.1387776e-06
1.9282454e-06
1.7423891e-06
1.6023077e-06
1.5056001e-06
1.4385976e-06
1.4022209e-06
1.3875355e-06
1.3819145e-06
1.3810894e-06
1.3769771e-06
1.3755316e-06
1.3761949e-06
1.3762641e-06
1.3777154e-06
1.3753193e-06
1.3813132e-06
1.3912296e-06
1.393477e-06
1.3967082e-06
1.413704e-06
1.4262465e-06
1.43647e-06
1.4667422e-06
1.4970112e-06
1.5214267e-06
1.5578533e-06
1.5840361e-06
1.5983251e-06
1.6242748e-06
1.6588488e-06
1.6893492e-06
1.7248519e-06
1.8157095e-06
1.8966281e-06
2.0154484e-06
2.0940627e-06
2.2673057e-06
2.4067575e-06
2.7133637e-06
2.9420361e-06
3.2940134e-06
3.515225e-06
3.8410849e-06
4.2422707e-06
4.6408848e-06
4.9844925e-06
5.3758516e-06
5.9309297e-06
4.3485257e-06
3.6671472e-06
3.1515767e-06
2.8070139e-06
2.5729161e-06
2.3612351e-06
2.1471893e-06
1.9369016e-06
1.7514718e-06
1.609813e-06
1.5101581e-06
1.4425219e-06
1.4074105e-06
1.3928294e-06
1.3873646e-06
1.3846346e-06
1.3802682e-06
1.3789367e-06
1.3800837e-06
1.3801314e-06
1.3807057e-06
1.377114e-06
1.383005e-06
1.3918865e-06
1.3942965e-06
1.3970539e-06
1.4126982e-06
1.4242073e-06
1.4346276e-06
1.4611587e-06
1.4873551e-06
1.5198862e-06
1.5647336e-06
1.5943957e-06
1.6127759e-06
1.6426738e-06
1.6822863e-06
1.7142973e-06
1.7453018e-06
1.819599e-06
1.8945798e-06
1.9865509e-06
2.0792679e-06
2.192719e-06
2.3341198e-06
2.494489e-06
2.7770042e-06
3.0404724e-06
3.2639269e-06
3.4886152e-06
3.8693782e-06
4.0817009e-06
4.4737871e-06
4.6831404e-06
5.1482174e-06
4.3510061e-06
3.6725976e-06
3.1564013e-06
2.8101719e-06
2.5759581e-06
2.3682021e-06
2.1539592e-06
1.941494e-06
1.757006e-06
1.614273e-06
1.5124727e-06
1.4442086e-06
1.4100798e-06
1.3958022e-06
1.3895822e-06
1.3855878e-06
1.382517e-06
1.3817229e-06
1.3814218e-06
1.3815278e-06
1.3820281e-06
1.3783646e-06
1.3834862e-06
1.3918367e-06
1.3948754e-06
1.3982208e-06
1.4115748e-06
1.4215537e-06
1.432526e-06
1.4559536e-06
1.4765877e-06
1.5129992e-06
1.5654648e-06
1.6008775e-06
1.6257882e-06
1.6575359e-06
1.697949e-06
1.7357041e-06
1.7765143e-06
1.8368532e-06
1.9064072e-06
1.9851268e-06
2.0963914e-06
2.1660727e-06
2.3171541e-06
2.4378734e-06
2.6897566e-06
2.8873997e-06
3.1410063e-06
3.3307586e-06
3.5882178e-06
3.8156729e-06
4.1682159e-06
4.3345743e-06
4.705585e-06
4.3540881e-06
3.6775216e-06
3.1605026e-06
2.8117978e-06
2.57764e-06
2.375975e-06
2.1600714e-06
1.9505335e-06
1.767452e-06
1.6248746e-06
1.5207412e-06
1.4508526e-06
1.4151612e-06
1.399282e-06
1.3931946e-06
1.3875463e-06
1.3849896e-06
1.3845344e-06
1.3825888e-06
1.3838285e-06
1.3849828e-06
1.3814012e-06
1.3854287e-06
1.3922236e-06
1.3947124e-06
1.398957e-06
1.4103877e-06
1.418351e-06
1.4299195e-06
1.4513345e-06
1.4662434e-06
1.4989825e-06
1.5567141e-06
1.5967069e-06
1.627492e-06
1.6619574e-06
1.7055723e-06
1.7483376e-06
1.8057552e-06
1.8588882e-06
1.9224043e-06
1.9973875e-06
2.1226012e-06
2.192346e-06
2.3230432e-06
2.4343458e-06
2.5909331e-06
2.7954484e-06
3.0676074e-06
3.2293011e-06
3.4021446e-06
3.6885931e-06
3.9252254e-06
4.1248805e-06
4.5790271e-06
4.357039e-06
3.6823986e-06
3.1636874e-06
2.8136417e-06
2.580987e-06
2.3847885e-06
2.1719367e-06
1.9633927e-06
1.7768249e-06
1.631542e-06
1.5262659e-06
1.4551518e-06
1.4195221e-06
1.4031515e-06
1.396923e-06
1.3911905e-06
1.3891552e-06
1.3878517e-06
1.3845181e-06
1.3868583e-06
1.3894099e-06
1.3856274e-06
1.3891957e-06
1.3946578e-06
1.3960174e-06
1.4013205e-06
1.4116132e-06
1.417766e-06
1.4291942e-06
1.4485462e-06
1.4593196e-06
1.4858626e-06
1.5414698e-06
1.5867371e-06
1.6244157e-06
1.6618201e-06
1.7083059e-06
1.756491e-06
1.8279295e-06
1.8919391e-06
1.9490639e-06
2.0093235e-06
2.123815e-06
2.2322866e-06
2.3573818e-06
2.4642846e-06
2.5889957e-06
2.7789153e-06
3.0351674e-06
3.2004855e-06
3.3985552e-06
3.6537146e-06
3.7867448e-06
4.0647041e-06
4.4310043e-06
4.3593466e-06
3.687443e-06
3.1683983e-06
2.8154165e-06
2.5846986e-06
2.3899194e-06
2.180871e-06
1.9706266e-06
1.781861e-06
1.6336199e-06
1.5266833e-06
1.4550601e-06
1.4190362e-06
1.4025061e-06
1.3961292e-06
1.391063e-06
1.3888847e-06
1.3867006e-06
1.3835644e-06
1.3871631e-06
1.3907872e-06
1.3872867e-06
1.390628e-06
1.3952451e-06
1.3961908e-06
1.4029982e-06
1.4128827e-06
1.4177205e-06
1.4287081e-06
1.445466e-06
1.4534989e-06
1.4772753e-06
1.5256153e-06
1.573496e-06
1.6142534e-06
1.6599578e-06
1.7042411e-06
1.7632021e-06
1.8399835e-06
1.9241916e-06
1.9693064e-06
2.0328221e-06
2.1208788e-06
2.2668239e-06
2.4064892e-06
2.5189153e-06
2.6636139e-06
2.8852841e-06
3.0640767e-06
3.2202197e-06
3.4762295e-06
3.7342194e-06
3.8388199e-06
4.1127252e-06
4.4080594e-06
4.3610723e-06
3.6928739e-06
3.1739153e-06
2.8169649e-06
2.5861053e-06
2.391099e-06
2.182119e-06
1.9768211e-06
1.791856e-06
1.6406899e-06
1.530723e-06
1.4580739e-06
1.4195501e-06
1.4028422e-06
1.3964561e-06
1.3915195e-06
1.3885695e-06
1.3853288e-06
1.3827785e-06
1.3865538e-06
1.3895293e-06
1.3867187e-06
1.3903583e-06
1.394598e-06
1.3951942e-06
1.4033464e-06
1.413526e-06
1.4182436e-06
1.4294701e-06
1.4435682e-06
1.4491768e-06
1.4720728e-06
1.514512e-06
1.5615152e-06
1.6010264e-06
1.6523798e-06
1.7010292e-06
1.7639343e-06
1.8461327e-06
1.9420163e-06
1.9835214e-06
2.0547609e-06
2.1250369e-06
2.2666331e-06
2.4113553e-06
2.5304688e-06
2.7205776e-06
2.9148468e-06
3.0153202e-06
3.2172649e-06
3.4830585e-06
3.7504818e-06
3.8982195e-06
4.2105019e-06
4.4591006e-06
4.3623281e-06
3.6976754e-06
3.1784802e-06
2.8197245e-06
2.5874332e-06
2.3914907e-06
2.1843723e-06
1.9837563e-06
1.8005565e-06
1.6477155e-06
1.5356109e-06
1.4618234e-06
1.4229191e-06
1.4062659e-06
1.3990068e-06
1.3950596e-06
1.3914224e-06
1.3870325e-06
1.3845206e-06
1.3864874e-06
1.3880449e-06
1.3863485e-06
1.3904706e-06
1.3947486e-06
1.3948649e-06
1.40346e-06
1.4136165e-06
1.4181048e-06
1.4298063e-06
1.4410722e-06
1.4448916e-06
1.4673202e-06
1.5057883e-06
1.5489174e-06
1.5887695e-06
1.6423772e-06
1.6925861e-06
1.7527872e-06
1.8496855e-06
1.9494165e-06
1.9910358e-06
2.0594841e-06
2.1235789e-06
2.2425745e-06
2.3850065e-06
2.518253e-06
2.7153097e-06
2.8807263e-06
2.9632076e-06
3.1390398e-06
3.3867755e-06
3.6286972e-06
3.8598362e-06
4.1982416e-06
4.3983294e-06
4.3634636e-06
3.7017389e-06
3.182534e-06
2.82394e-06
2.5912658e-06
2.3962234e-06
2.1931605e-06
1.9907805e-06
1.8044059e-06
1.6503727e-06
1.5369174e-06
1.4625062e-06
1.4243645e-06
1.4071904e-06
1.3986649e-06
1.3959159e-06
1.3919937e-06
1.3882022e-06
1.3864906e-06
1.3867607e-06
1.3878388e-06
1.3871578e-06
1.3915115e-06
1.3962068e-06
1.3958017e-06
1.4043973e-06
1.4145417e-06
1.4185013e-06
1.430212e-06
1.4392763e-06
1.4421587e-06
1.4640679e-06
1.4994323e-06
1.5381006e-06
1.5814325e-06
1.6304622e-06
1.6811825e-06
1.7346152e-06
1.8426727e-06
1.9346279e-06
1.99711e-06
2.0565781e-06
2.1320846e-06
2.2112491e-06
2.3526077e-06
2.484488e-06
2.6687609e-06
2.7772382e-06
2.8723057e-06
3.0121409e-06
3.1853626e-06
3.3258164e-06
3.633931e-06
3.9130824e-06
4.1813112e-06
4.3647146e-06
3.7053993e-06
3.1865642e-06
2.8272898e-06
2.5958952e-06
2.4064493e-06
2.2051243e-06
2.0025426e-06
1.8131016e-06
1.6569619e-06
1.5411612e-06
1.4658972e-06
1.4262943e-06
1.4078726e-06
1.3982594e-06
1.3960115e-06
1.391883e-06
1.3888771e-06
1.388474e-06
1.3893e-06
1.3900585e-06
1.3892555e-06
1.3934801e-06
1.3987541e-06
1.3981726e-06
1.4061915e-06
1.4161726e-06
1.4198369e-06
1.4312723e-06
1.4390283e-06
1.4420539e-06
1.4638633e-06
1.4950871e-06
1.5301463e-06
1.5761211e-06
1.6240988e-06
1.6743557e-06
1.7264488e-06
1.8285408e-06
1.9211723e-06
2.0041174e-06
2.055155e-06
2.1362339e-06
2.2102953e-06
2.3210928e-06
2.4357055e-06
2.6000693e-06
2.7136264e-06
2.8169426e-06
2.9055902e-06
3.0457255e-06
3.1750785e-06
3.4262593e-06
3.6093273e-06
3.884601e-06
4.3663558e-06
3.7087776e-06
3.1899214e-06
2.8287732e-06
2.5999201e-06
2.4137686e-06
2.211204e-06
2.014338e-06
1.8286809e-06
1.6709091e-06
1.5523666e-06
1.4747741e-06
1.4323547e-06
1.4125453e-06
1.4024834e-06
1.3989787e-06
1.3943449e-06
1.3915261e-06
1.3919454e-06
1.3929163e-06
1.392481e-06
1.391338e-06
1.3952518e-06
1.4004007e-06
1.3992505e-06
1.4064568e-06
1.416427e-06
1.4201108e-06
1.4307074e-06
1.4375586e-06
1.4420174e-06
1.4648659e-06
1.4916056e-06
1.5208302e-06
1.5685153e-06
1.6217353e-06
1.6729903e-06
1.7284163e-06
1.8288284e-06
1.9241866e-06
2.0172972e-06
2.0895194e-06
2.1641068e-06
2.2419226e-06
2.3390822e-06
2.4591494e-06
2.6035026e-06
2.7355602e-06
2.8450839e-06
2.9389415e-06
3.0505232e-06
3.2394074e-06
3.3729694e-06
3.5809064e-06
3.7771133e-06
4.3683563e-06
3.7117564e-06
3.1926087e-06
2.8311747e-06
2.6012452e-06
2.4156491e-06
2.2142738e-06
2.019128e-06
1.8353816e-06
1.6773837e-06
1.5572698e-06
1.4784259e-06
1.4344214e-06
1.4138659e-06
1.404458e-06
1.400881e-06
1.3958228e-06
1.392813e-06
1.3933281e-06
1.3939575e-06
1.39285e-06
1.3915865e-06
1.3954811e-06
1.400613e-06
1.3993038e-06
1.4055564e-06
1.4152535e-06
1.4196108e-06
1.4291146e-06
1.4354746e-06
1.4420971e-06
1.4665526e-06
1.4897076e-06
1.512902e-06
1.559879e-06
1.6213476e-06
1.6771677e-06
1.7481644e-06
1.8422751e-06
1.9471424e-06
2.0484157e-06
2.1553209e-06
2.2194447e-06
2.306964e-06
2.3929067e-06
2.5255967e-06
2.6588397e-06
2.8302936e-06
2.9635373e-06
3.0816841e-06
3.1630093e-06
3.3529924e-06
3.4657771e-06
3.6843333e-06
3.8129859e-06
4.370423e-06
3.7144392e-06
3.1958984e-06
2.8338439e-06
2.6010406e-06
2.4171859e-06
2.2194792e-06
2.0210911e-06
1.835825e-06
1.6777098e-06
1.5566045e-06
1.476464e-06
1.4322132e-06
1.4099023e-06
1.4010885e-06
1.3982821e-06
1.3934534e-06
1.3907342e-06
1.391702e-06
1.3923357e-06
1.3912542e-06
1.3907446e-06
1.3950039e-06
1.4002441e-06
1.3990696e-06
1.4044825e-06
1.4136182e-06
1.4186405e-06
1.4265849e-06
1.432267e-06
1.4407916e-06
1.4663373e-06
1.4869421e-06
1.5054742e-06
1.5464884e-06
1.6210878e-06
1.6796302e-06
1.7625981e-06
1.8810938e-06
1.9843242e-06
2.0830583e-06
2.2475167e-06
2.3472098e-06
2.4395634e-06
2.5323382e-06
2.7159177e-06
2.851723e-06
3.0635415e-06
3.2319609e-06
3.4361774e-06
3.5067055e-06
3.6716885e-06
3.7776146e-06
4.0144941e-06
4.0880405e-06
4.3722408e-06
3.7174564e-06
3.1986807e-06
2.8360579e-06
2.6032672e-06
2.4229433e-06
2.2285771e-06
2.0275673e-06
1.8386275e-06
1.6783502e-06
1.5556931e-06
1.4729484e-06
1.4280232e-06
1.4041328e-06
1.3955165e-06
1.3933457e-06
1.3890289e-06
1.3872175e-06
1.3890769e-06
1.3901828e-06
1.3898658e-06
1.3907705e-06
1.3951301e-06
1.400142e-06
1.3995078e-06
1.4040712e-06
1.4127216e-06
1.4187888e-06
1.4249668e-06
1.430063e-06
1.4401929e-06
1.4664354e-06
1.4855266e-06
1.4997725e-06
1.535317e-06
1.6091024e-06
1.6782166e-06
1.771173e-06
1.8988107e-06
2.0251551e-06
2.1196225e-06
2.3182945e-06
2.4691966e-06
2.632228e-06
2.7565169e-06
2.9829638e-06
3.1308422e-06
3.3578309e-06
3.5596242e-06
3.8370963e-06
3.9473842e-06
4.1276607e-06
4.2200487e-06
4.4485454e-06
4.5435819e-06
4.3734436e-06
3.7208118e-06
3.2012606e-06
2.8375924e-06
2.6085177e-06
2.4308878e-06
2.2366545e-06
2.0364748e-06
1.8456451e-06
1.6829068e-06
1.5580317e-06
1.4726705e-06
1.4257379e-06
1.4018727e-06
1.3926863e-06
1.3898804e-06
1.3858729e-06
1.3847378e-06
1.3858546e-06
1.3870079e-06
1.3871748e-06
1.3886842e-06
1.3926979e-06
1.3969572e-06
1.3971637e-06
1.4011849e-06
1.4090975e-06
1.416325e-06
1.4210182e-06
1.4255341e-06
1.4369369e-06
1.4631909e-06
1.4822456e-06
1.4931791e-06
1.5247955e-06
1.5865383e-06
1.6628964e-06
1.7652621e-06
1.8990723e-06
2.0386255e-06
2.1257135e-06
2.3189113e-06
2.5081504e-06
2.7412591e-06
2.8786175e-06
3.1148308e-06
3.2854265e-06
3.5155218e-06
3.7073297e-06
4.0104099e-06
4.1747794e-06
4.361401e-06
4.4519407e-06
4.6576044e-06
4.7747803e-06
4.3745121e-06
3.7232801e-06
3.2044911e-06
2.8388676e-06
2.6102179e-06
2.4321624e-06
2.2368018e-06
2.0377024e-06
1.8478888e-06
1.6840986e-06
1.5581288e-06
1.4703102e-06
1.421194e-06
1.3974957e-06
1.3876384e-06
1.3839396e-06
1.3799719e-06
1.3780097e-06
1.3769216e-06
1.3774941e-06
1.3771976e-06
1.3787442e-06
1.3820153e-06
1.3858044e-06
1.3874033e-06
1.3911083e-06
1.3980721e-06
1.4057088e-06
1.4093203e-06
1.4135808e-06
1.4260628e-06
1.4516291e-06
1.4697359e-06
1.476554e-06
1.4974723e-06
1.538339e-06
1.6020964e-06
1.6988636e-06
1.8161601e-06
1.9447155e-06
2.0114549e-06
2.1600529e-06
2.3372281e-06
2.6036555e-06
2.766561e-06
2.993206e-06
3.1807079e-06
3.3770174e-06
3.5672106e-06
3.8254081e-06
4.0550325e-06
4.2418633e-06
4.3878411e-06
4.548123e-06
4.688624e-06
4.3745034e-06
3.7253082e-06
3.2085973e-06
2.8396104e-06
2.6047442e-06
2.4195404e-06
2.2214906e-06
2.0272896e-06
1.8444339e-06
1.6830036e-06
1.5568904e-06
1.4687775e-06
1.4176855e-06
1.3916488e-06
1.3803363e-06
1.3749663e-06
1.3703664e-06
1.3679008e-06
1.3652159e-06
1.3647033e-06
1.3625669e-06
1.3632378e-06
1.3657047e-06
1.3683341e-06
1.3707163e-06
1.3740144e-06
1.3796115e-06
1.3864443e-06
1.3901129e-06
1.3945332e-06
1.4073834e-06
1.4293908e-06
1.4450079e-06
1.4506247e-06
1.4577674e-06
1.4833054e-06
1.5321058e-06
1.5990853e-06
1.6809356e-06
1.7582547e-06
1.7956034e-06
1.8544518e-06
1.9695836e-06
2.1241562e-06
2.2850591e-06
2.4198501e-06
2.5884416e-06
2.6819903e-06
2.8303107e-06
2.9451043e-06
3.1744944e-06
3.3568501e-06
3.600606e-06
3.7237626e-06
3.9527028e-06
4.3734605e-06
3.7255993e-06
3.2102824e-06
2.8290787e-06
2.5778534e-06
2.3828665e-06
2.1942651e-06
2.0270512e-06
1.8760262e-06
1.7383015e-06
1.6239349e-06
1.5451423e-06
1.4905147e-06
1.4530378e-06
1.4326174e-06
1.4187328e-06
1.4104886e-06
1.4049825e-06
1.3990165e-06
1.3949752e-06
1.3902085e-06
1.3875612e-06
1.3867461e-06
1.3869692e-06
1.3881848e-06
1.3902441e-06
1.3938855e-06
1.3997334e-06
1.4028302e-06
1.4056446e-06
1.4141576e-06
1.4284085e-06
1.439343e-06
1.4428947e-06
1.4461542e-06
1.4609481e-06
1.5025451e-06
1.563419e-06
1.6347647e-06
1.6881044e-06
1.7203608e-06
1.7486765e-06
1.8144077e-06
1.8890219e-06
1.9872815e-06
2.0669629e-06
2.1533773e-06
2.1978526e-06
2.2541896e-06
2.2966674e-06
2.3912067e-06
2.4848922e-06
2.6092397e-06
2.6832396e-06
2.8006122e-06
4.3719099e-06
3.7274475e-06
3.2003073e-06
2.7807942e-06
2.5063033e-06
2.3214847e-06
2.1840463e-06
2.1229521e-06
2.0872957e-06
2.0394924e-06
1.971462e-06
1.924678e-06
1.8711534e-06
1.8102352e-06
1.7586775e-06
1.7217744e-06
1.6985999e-06
1.6747515e-06
1.6561476e-06
1.63955e-06
1.6253768e-06
1.6183668e-06
1.6124972e-06
1.6034027e-06
1.5996656e-06
1.6004287e-06
1.6034314e-06
1.6090003e-06
1.6111246e-06
1.6118942e-06
1.6137096e-06
1.6167098e-06
1.6184349e-06
1.6158207e-06
1.6150267e-06
1.621788e-06
1.6503325e-06
1.6986048e-06
1.7568938e-06
1.7990336e-06
1.824305e-06
1.8414394e-06
1.8827626e-06
1.9382685e-06
2.0168578e-06
2.089247e-06
2.1529789e-06
2.1809768e-06
2.205527e-06
2.2304453e-06
2.2858208e-06
2.3487701e-06
2.4150957e-06
2.4723023e-06
2.5159077e-06
4.3861715e-06
3.7101189e-06
3.090162e-06
2.5623202e-06
2.249785e-06
2.1481082e-06
2.1488117e-06
2.242772e-06
2.4790347e-06
2.6439789e-06
2.7103429e-06
2.727134e-06
2.7192039e-06
2.6651604e-06
2.5855786e-06
2.5429552e-06
2.5138065e-06
2.4832791e-06
2.4478895e-06
2.4115324e-06
2.3844959e-06
2.3745001e-06
2.3676075e-06
2.3621807e-06
2.3696657e-06
2.3848615e-06
2.4060366e-06
2.4301461e-06
2.4450338e-06
2.4567651e-06
2.4639549e-06
2.4702162e-06
2.4662774e-06
2.4487216e-06
2.4223019e-06
2.4043349e-06
2.4090182e-06
2.4204266e-06
2.4322787e-06
2.4276993e-06
2.413554e-06
2.3968444e-06
2.4030556e-06
2.4313457e-06
2.4773819e-06
2.5278963e-06
2.561645e-06
2.5686273e-06
2.5688966e-06
2.5857655e-06
2.6213225e-06
2.6706276e-06
2.718279e-06
2.7678418e-06
2.7642955e-06
4.4075122e-06
3.4928347e-06
2.7028206e-06
2.1208928e-06
1.854691e-06
1.8443076e-06
1.9049632e-06
2.1276498e-06
2.4518513e-06
2.6607719e-06
2.7680719e-06
2.7851841e-06
2.7900648e-06
2.7838391e-06
2.8213996e-06
2.863889e-06
2.8912203e-06
2.9124907e-06
2.961149e-06
2.989482e-06
3.0090979e-06
3.0445408e-06
3.136587e-06
3.2312981e-06
3.279444e-06
3.359217e-06
3.4339576e-06
3.5290799e-06
3.6549198e-06
3.7700429e-06
3.8750743e-06
3.9592301e-06
4.0454846e-06
4.1193719e-06
4.1686355e-06
4.1936516e-06
4.2056883e-06
4.2228062e-06
4.2378329e-06
4.2358723e-06
4.2514385e-06
4.2638559e-06
4.2543438e-06
4.2394001e-06
4.2555187e-06
4.3039332e-06
4.3230429e-06
4.30289e-06
4.3062739e-06
4.3320602e-06
4.3750532e-06
4.3991275e-06
4.4476691e-06
4.4714713e-06
4.3514108e-06
9.8167656e-06
1.1003175e-05
7.3882834e-06
6.1682482e-06
6.5789137e-06
7.2979886e-06
7.7580202e-06
7.959307e-06
8.3725835e-06
8.9415378e-06
9.4305393e-06
9.6953471e-06
9.8620425e-06
1.0355351e-05
1.1691505e-05
1.3379145e-05
1.4837993e-05
1.6111206e-05
1.7049221e-05
1.7929008e-05
1.8497711e-05
1.8379698e-05
1.8018459e-05
1.7538575e-05
1.7078715e-05
1.677118e-05
1.672589e-05
1.7138227e-05
1.7698893e-05
1.824627e-05
1.9017382e-05
2.0302621e-05
2.1929969e-05
2.328331e-05
2.3509301e-05
2.2327612e-05
2.0714167e-05
1.9710369e-05
1.9825998e-05
2.0487278e-05
2.05627e-05
1.9676843e-05
1.8277572e-05
1.750379e-05
1.685486e-05
1.6780021e-05
1.7345394e-05
1.7894846e-05
1.7802166e-05
1.7012897e-05
1.6586989e-05
1.6605062e-05
1.6675268e-05
1.6426639e-05
1.6367821e-05
1.6163259e-05
4.5554027e-06
2.8075953e-06
2.5342486e-06
2.7928769e-06
3.9320573e-06
4.7617822e-06
4.9432443e-06
4.8121704e-06
4.3633918e-06
4.0656419e-06
4.0043675e-06
4.0764233e-06
4.4379422e-06
4.6796473e-06
4.6997021e-06
4.679798e-06
4.7362451e-06
4.8686205e-06
5.0685223e-06
5.5437844e-06
6.4757002e-06
6.9869863e-06
7.0801306e-06
6.8199188e-06
6.5762025e-06
6.0523427e-06
1.5016861e-05
4.687471e-06
2.8406077e-06
2.5461076e-06
2.7807945e-06
3.9217535e-06
4.927704e-06
5.2412647e-06
5.1940833e-06
4.7829125e-06
4.4259237e-06
4.2836947e-06
4.288778e-06
4.6149506e-06
4.9409004e-06
5.0217598e-06
4.9847271e-06
5.0672078e-06
5.2795323e-06
5.5862648e-06
6.0751433e-06
6.9703193e-06
7.3353602e-06
7.436604e-06
7.3521916e-06
7.2188357e-06
6.6960746e-06
1.4196631e-05
4.81297e-06
2.8978323e-06
2.5824574e-06
2.8148887e-06
3.9898944e-06
5.2298992e-06
5.6021818e-06
5.5557504e-06
5.138096e-06
4.7128996e-06
4.4723647e-06
4.4769302e-06
4.7721895e-06
5.1325462e-06
5.313015e-06
5.4005059e-06
5.5320306e-06
5.7325659e-06
5.8813992e-06
6.4211404e-06
7.6012558e-06
7.889394e-06
8.1518102e-06
8.1405239e-06
8.0845362e-06
7.5366486e-06
1.4535955e-05
4.9125687e-06
3.0092039e-06
2.6575849e-06
2.8993826e-06
4.1029197e-06
5.4920935e-06
5.883875e-06
5.832993e-06
5.3846602e-06
4.9005648e-06
4.7282491e-06
4.691704e-06
4.9653246e-06
5.3795248e-06
5.5313291e-06
5.7910677e-06
5.927284e-06
6.1309079e-06
6.2811465e-06
6.7443407e-06
7.857694e-06
8.5847678e-06
9.1656057e-06
9.1186235e-06
9.1383984e-06
8.3761075e-06
1.5063576e-05
5.0118915e-06
3.1333734e-06
2.7501004e-06
2.9924091e-06
4.1868357e-06
5.7181639e-06
6.2140557e-06
6.1851891e-06
5.8007942e-06
5.2355961e-06
4.9521885e-06
4.9428021e-06
5.1425806e-06
5.6318963e-06
5.7884685e-06
5.9969981e-06
6.1590664e-06
6.555984e-06
6.8118786e-06
7.1683614e-06
8.1050173e-06
9.0469352e-06
9.8176346e-06
9.6654251e-06
9.9514315e-06
9.3504068e-06
1.5457525e-05
5.0626789e-06
3.2102532e-06
2.8273406e-06
3.0591311e-06
4.21807e-06
5.9583198e-06
6.5993794e-06
6.6765183e-06
6.3877866e-06
5.7606811e-06
5.4298049e-06
5.4180901e-06
5.5629092e-06
6.0229072e-06
6.2456291e-06
6.3966964e-06
6.6067012e-06
7.077291e-06
7.3455211e-06
7.5775049e-06
8.3790427e-06
9.1913256e-06
1.0155896e-05
1.0329927e-05
1.0649778e-05
1.0357153e-05
1.6022806e-05
5.0510596e-06
3.2372251e-06
2.8695737e-06
3.0823208e-06
4.1337671e-06
6.122109e-06
6.9911244e-06
7.1644133e-06
6.9797971e-06
6.4122965e-06
5.9956849e-06
5.8309432e-06
5.9540319e-06
6.4553299e-06
6.8467181e-06
7.2012727e-06
7.5159496e-06
8.0012883e-06
8.1332935e-06
8.1473012e-06
8.8402256e-06
9.4002488e-06
1.0378699e-05
1.1112308e-05
1.1386401e-05
1.1250216e-05
1.5812012e-05
5.0404278e-06
3.2528354e-06
2.8867047e-06
3.0720293e-06
4.0046653e-06
6.1538711e-06
7.2395176e-06
7.4638117e-06
7.3429547e-06
6.8382886e-06
6.567855e-06
6.3644592e-06
6.4105825e-06
6.8684973e-06
7.4747752e-06
8.0559239e-06
8.5120144e-06
8.9743359e-06
9.003397e-06
8.9664204e-06
9.603271e-06
1.0160432e-05
1.1071068e-05
1.2397799e-05
1.2733829e-05
1.251263e-05
1.5679999e-05
5.074588e-06
3.2798162e-06
2.9148691e-06
3.0840861e-06
3.9291992e-06
6.1477917e-06
7.5282204e-06
7.8461874e-06
7.7970263e-06
7.4241746e-06
6.9438436e-06
6.7345504e-06
6.7926255e-06
7.2240687e-06
7.9855727e-06
8.5704616e-06
9.0342224e-06
9.8713022e-06
1.0015199e-05
9.8804657e-06
1.0426966e-05
1.1519765e-05
1.2150067e-05
1.3565373e-05
1.4011311e-05
1.4049312e-05
1.6729653e-05
5.1430719e-06
3.3409546e-06
2.9617716e-06
3.113977e-06
3.9063241e-06
6.16514e-06
7.8669935e-06
8.3228769e-06
8.3164021e-06
8.0211854e-06
7.4349511e-06
7.2533985e-06
7.3054541e-06
7.5802241e-06
8.2264778e-06
8.8381479e-06
9.3711952e-06
1.0460047e-05
1.0820597e-05
1.069411e-05
1.1291254e-05
1.287488e-05
1.3961558e-05
1.5328684e-05
1.5179048e-05
1.5394419e-05
1.8448032e-05
5.2337431e-06
3.3851446e-06
2.9951206e-06
3.1345108e-06
3.873388e-06
6.1542218e-06
8.3044357e-06
9.0428733e-06
9.1801669e-06
8.9859053e-06
8.3394264e-06
7.8467562e-06
7.7753082e-06
7.9627176e-06
8.5562873e-06
9.2861644e-06
9.777383e-06
1.0744877e-05
1.1131982e-05
1.1198505e-05
1.18371e-05
1.3824916e-05
1.5478446e-05
1.692284e-05
1.660723e-05
1.6637786e-05
2.0841558e-05
5.4817981e-06
3.4303197e-06
3.027495e-06
3.1534788e-06
3.8533927e-06
6.1586663e-06
8.7957131e-06
9.7318728e-06
9.9770526e-06
9.8346185e-06
9.1941174e-06
8.4368275e-06
8.4563041e-06
8.7866665e-06
9.5705858e-06
1.0369467e-05
1.0815548e-05
1.1562012e-05
1.1934046e-05
1.2175115e-05
1.2830995e-05
1.4765015e-05
1.6559239e-05
1.8145041e-05
1.8759705e-05
1.8944766e-05
2.4033863e-05
5.7974764e-06
3.5014253e-06
3.0771107e-06
3.2079341e-06
3.9018882e-06
6.266167e-06
9.390242e-06
1.054933e-05
1.0830346e-05
1.0581761e-05
9.875344e-06
9.20143e-06
9.2210363e-06
9.5203756e-06
1.0382034e-05
1.1262338e-05
1.206115e-05
1.2908137e-05
1.3216983e-05
1.329836e-05
1.3747729e-05
1.55338e-05
1.7388676e-05
1.9400512e-05
2.1015445e-05
2.0955069e-05
2.8815071e-05
6.0478467e-06
3.5796571e-06
3.1673686e-06
3.3191706e-06
4.0480668e-06
6.4489833e-06
9.9480304e-06
1.1330196e-05
1.1613919e-05
1.1420701e-05
1.0701823e-05
9.7986729e-06
9.5813131e-06
9.8349167e-06
1.0683706e-05
1.1642831e-05
1.3192941e-05
1.4225454e-05
1.5068522e-05
1.5222886e-05
1.5315369e-05
1.6483991e-05
1.8008008e-05
2.0156106e-05
2.3136031e-05
2.3124043e-05
3.4389566e-05
6.6242946e-06
3.7470391e-06
3.3079056e-06
3.4662039e-06
4.2191915e-06
6.6439592e-06
1.0591179e-05
1.2136146e-05
1.2553649e-05
1.2387529e-05
1.1728035e-05
1.0681983e-05
1.0256662e-05
1.0393392e-05
1.1059494e-05
1.2396945e-05
1.4146842e-05
1.5625748e-05
1.6518593e-05
1.6766768e-05
1.7086943e-05
1.8245361e-05
1.9705202e-05
2.1618751e-05
2.4384085e-05
2.4918675e-05
3.610519e-05
7.3588448e-06
3.9687186e-06
3.4628741e-06
3.6032821e-06
4.3423521e-06
6.7356788e-06
1.1430208e-05
1.3483896e-05
1.394823e-05
1.3751987e-05
1.30244e-05
1.2008404e-05
1.1466585e-05
1.1522012e-05
1.217362e-05
1.4011007e-05
1.5647082e-05
1.7004345e-05
1.843765e-05
1.8300707e-05
1.8198775e-05
1.9524801e-05
2.1257571e-05
2.3415869e-05
2.6001553e-05
2.7062208e-05
3.6162033e-05
7.9774832e-06
4.1228865e-06
3.556943e-06
3.6707313e-06
4.321692e-06
6.4937729e-06
1.179251e-05
1.4401e-05
1.5187109e-05
1.518865e-05
1.4629879e-05
1.3433206e-05
1.2639073e-05
1.2627352e-05
1.3281844e-05
1.570072e-05
1.7534424e-05
1.8578264e-05
2.0166684e-05
2.0020965e-05
1.9882223e-05
2.1248683e-05
2.3167255e-05
2.5399051e-05
2.8574675e-05
2.9800009e-05
3.7040749e-05
8.9471079e-06
4.2843907e-06
3.5956123e-06
3.6575975e-06
4.1843184e-06
6.0254922e-06
1.1285032e-05
1.476046e-05
1.6061527e-05
1.6343954e-05
1.6217318e-05
1.53068e-05
1.4328825e-05
1.4289312e-05
1.4906733e-05
1.7322751e-05
1.9319648e-05
2.0381899e-05
2.2434653e-05
2.2345758e-05
2.2244259e-05
2.3318024e-05
2.5156042e-05
2.8371026e-05
3.1710881e-05
3.3366911e-05
4.2419652e-05
1.0148306e-05
4.5214586e-06
3.6232414e-06
3.6362969e-06
4.0515543e-06
5.6045967e-06
1.059394e-05
1.5056486e-05
1.7254859e-05
1.8276371e-05
1.8521403e-05
1.8006474e-05
1.6672906e-05
1.633125e-05
1.6610478e-05
1.8522228e-05
2.156529e-05
2.2889675e-05
2.4999143e-05
2.4692984e-05
2.4541659e-05
2.5207971e-05
2.6667812e-05
3.0647151e-05
3.5164373e-05
3.752575e-05
5.4430389e-05
1.1444065e-05
4.7777692e-06
3.6810113e-06
3.6623435e-06
4.0089468e-06
5.4261815e-06
1.0187252e-05
1.5982278e-05
1.9303425e-05
2.0750645e-05
2.1136681e-05
2.0737314e-05
1.8886678e-05
1.8365423e-05
1.8222302e-05
1.9672077e-05
2.4091602e-05
2.6517867e-05
2.8852533e-05
2.8706905e-05
2.813174e-05
2.8436001e-05
2.8689007e-05
3.227705e-05
3.9523323e-05
4.4627762e-05
7.5584833e-05
1.3038083e-05
5.1188599e-06
3.7965414e-06
3.7474018e-06
4.1039539e-06
5.5754392e-06
1.0532161e-05
1.7593556e-05
2.1777363e-05
2.3653757e-05
2.4068252e-05
2.3510338e-05
2.1292332e-05
2.0129564e-05
1.9680765e-05
2.0559724e-05
2.5079064e-05
2.823037e-05
3.1298331e-05
3.2384013e-05
3.2912183e-05
3.3511923e-05
3.3682773e-05
3.6837805e-05
4.4271543e-05
5.0922295e-05
0.0001001754
1.423315e-05
5.4649848e-06
3.9665562e-06
3.9229947e-06
4.3402824e-06
6.0725926e-06
1.1594763e-05
1.9873857e-05
2.4354443e-05
2.5903297e-05
2.6026214e-05
2.5409401e-05
2.3542816e-05
2.2182902e-05
2.1624095e-05
2.206934e-05
2.627605e-05
3.0838133e-05
3.431401e-05
3.6268441e-05
3.707922e-05
3.8338405e-05
3.9759136e-05
4.2719622e-05
4.9695803e-05
5.6170257e-05
0.00012308454
1.5638016e-05
5.9672805e-06
4.2627714e-06
4.1966712e-06
4.7544531e-06
7.0046479e-06
1.3428295e-05
2.2446567e-05
2.6428955e-05
2.7618947e-05
2.7621184e-05
2.7099811e-05
2.5831407e-05
2.4661339e-05
2.4161842e-05
2.4271429e-05