/*--------------------------------*- C++ -*----------------------------------*\
| =========                 |                                                 |
| \\      /  F ield         | OpenFOAM: The Open Source CFD Toolbox           |
|  \\    /   O peration     | Version:  2406                                  |
|   \\  /    A nd           | Website:  www.openfoam.com                      |
|    \\/     M anipulation  |                                                 |
\*---------------------------------------------------------------------------*/
FoamFile
{
    version     2.0;
    format      ascii;
    arch        "LSB;label=32;scalar=64";
    class       volScalarField;
    location    "6";
    object      p;
}
// * * * * * * * * * * * * * * * * * * * * * * * * * * * * * * * * * * * * * //

dimensions      [1 -1 -2 0 0 0 0];

internalField   nonuniform List<scalar> 
96472
(
1.0032924
1.0166798
1.0345101
1.0415963
1.039106
1.0351459
1.0334657
1.0343229
1.0356813
1.0371879
1.0391262
1.0411763
1.0428151
1.0430581
1.0416948
1.0394907
1.0374065
1.0364578
1.0366336
1.0374574
1.0382759
1.0383502
1.0373275
1.0358995
1.0344975
1.033176
1.0319092
1.030827
1.0302354
1.030267
1.0308299
1.031615
1.0323903
1.032881
1.0331129
1.0332478
1.0332106
1.0331187
1.0332114
1.0328763
1.0329321
1.0330685
1.0329932
1.0330434
1.0334427
1.0338198
1.0332708
1.0340499
1.0340971
1.0343996
1.0342581
1.0343811
1.0341578
1.0346078
1.034432
1.0033025
1.0167807
1.0348923
1.042071
1.0394364
1.0353866
1.0337705
1.0348233
1.0364025
1.0380686
1.0401106
1.0422575
1.0440213
1.0444778
1.0431754
1.0408558
1.0386389
1.0375667
1.0376463
1.0384498
1.0394154
1.0397433
1.0389753
1.0376675
1.0362963
1.0348422
1.0333041
1.0318165
1.0308544
1.0305442
1.030836
1.0315196
1.0322738
1.0329295
1.0333484
1.0334529
1.033509
1.0334868
1.0333162
1.0334241
1.0332697
1.0332205
1.0332694
1.0335553
1.0333138
1.0334963
1.0339528
1.0339044
1.0339991
1.0340925
1.0342237
1.0341656
1.034215
1.0341464
1.0339395
1.0033205
1.0169224
1.0352467
1.0425309
1.0397766
1.0356525
1.034113
1.035385
1.0372133
1.0390701
1.0411559
1.0433418
1.0452479
1.0459405
1.0447472
1.0423947
1.0400689
1.0388492
1.0388096
1.0396026
1.0406722
1.0411629
1.040643
1.0394944
1.0381571
1.0365849
1.0348229
1.0330816
1.0317177
1.0310585
1.0310651
1.0315552
1.0323483
1.0330671
1.0335416
1.0338217
1.0338241
1.0337824
1.0337534
1.0335377
1.0335823
1.0334951
1.0335443
1.0333504
1.0337636
1.0336887
1.0336725
1.0337977
1.0339906
1.0339659
1.0339095
1.0339009
1.03389
1.0338949
1.033401
1.0033448
1.0170268
1.0356019
1.042968
1.0400884
1.0359434
1.0344853
1.0359922
1.0380814
1.0400849
1.0422188
1.0444505
1.0464894
1.0474065
1.046373
1.0440217
1.0416525
1.0403476
1.0402107
1.0409461
1.042069
1.0427509
1.0424426
1.041421
1.0401334
1.0385321
1.0366165
1.0345823
1.0328959
1.0318522
1.0315265
1.0318033
1.0324158
1.0331973
1.0338678
1.0341914
1.0343584
1.0343062
1.0342845
1.0342359
1.0341072
1.0341186
1.0340256
1.0341025
1.0338815
1.0340742
1.0340208
1.0342596
1.0340193
1.0340101
1.0340229
1.0340587
1.0336456
1.0334665
1.0334811
1.0033699
1.0171658
1.0359512
1.0433828
1.0403736
1.0362133
1.0348581
1.0366081
1.0389456
1.0410832
1.0432488
1.0454666
1.0476351
1.0488029
1.0479619
1.0457323
1.0433848
1.0420335
1.0418046
1.0424567
1.0436042
1.0444528
1.0443313
1.0434421
1.0421923
1.0405434
1.0384893
1.0362956
1.0342956
1.032931
1.0322641
1.0322809
1.0328053
1.0335215
1.0342111
1.0347069
1.0348664
1.0349308
1.0347149
1.0347214
1.0345482
1.0344632
1.0343917
1.0342984
1.0343885
1.0341306
1.0343557
1.0340555
1.0340612
1.0341625
1.0340654
1.033444
1.0337501
1.033467
1.0332854
1.0033951
1.0172701
1.0362427
1.0437312
1.0406257
1.0364488
1.0352393
1.0371826
1.0397935
1.0420683
1.0442243
1.0464454
1.0487268
1.0501644
1.0495467
1.0474576
1.0451916
1.0438616
1.043562
1.0441581
1.045312
1.0463026
1.0463669
1.0455846
1.0443721
1.0426815
1.0405833
1.0382397
1.0360714
1.0344128
1.0334116
1.0330582
1.0332894
1.0339318
1.0346417
1.0352187
1.0356042
1.0356781
1.0358228
1.0355504
1.0355707
1.0353576
1.0352165
1.0352205
1.0349296
1.0350265
1.0347462
1.0346316
1.0347124
1.0343979
1.0338983
1.0341415
1.0338762
1.0333103
1.0328674
1.0034149
1.0173891
1.036506
1.0440514
1.0408389
1.0366319
1.0355377
1.0376725
1.0405626
1.0429703
1.0451014
1.0473058
1.0496749
1.0513489
1.0510174
1.0490903
1.0469938
1.0457565
1.0454602
1.0460269
1.0471769
1.0482834
1.0485163
1.0478396
1.0466673
1.044999
1.0428511
1.0403631
1.0380159
1.0361173
1.0348275
1.0341972
1.0341825
1.0346004
1.0352486
1.0358529
1.0361984
1.0364977
1.0363101
1.0363715
1.0361134
1.0359753
1.0359475
1.0355259
1.0355482
1.035363
1.0350722
1.0350646
1.0347342
1.034394
1.0343846
1.0342007
1.0335086
1.0332553
1.0334341
1.0034327
1.0174659
1.0367507
1.0443261
1.0409988
1.0367647
1.035777
1.0380803
1.0411929
1.0437485
1.0458424
1.0480206
1.0505126
1.0524113
1.0523591
1.0506587
1.0487644
1.0476724
1.0474451
1.0480186
1.0491632
1.0503896
1.0508232
1.0503259
1.0491984
1.0474746
1.0452207
1.0426868
1.0402443
1.0381692
1.0366134
1.0356327
1.0352538
1.0354486
1.0359729
1.0365688
1.0371372
1.0373217
1.0375934
1.0375086
1.0373515
1.0373497
1.036843
1.0369037
1.0366294
1.0361109
1.0360994
1.0357926
1.0354026
1.035118
1.0349705
1.0341887
1.0340164
1.0337484
1.0334507
1.003442
1.0175562
1.0369261
1.0445676
1.0411246
1.0368252
1.0359062
1.0383571
1.0416972
1.0443545
1.0464208
1.0485247
1.0510625
1.0532656
1.0535291
1.0520759
1.050429
1.0495261
1.0494159
1.0500124
1.0512487
1.0525778
1.0532612
1.0528903
1.0518224
1.0500959
1.0478316
1.0452082
1.0426568
1.0404612
1.0386872
1.0374659
1.0368341
1.036754
1.0370322
1.0375139
1.0378856
1.038275
1.038376
1.0383008
1.0383783
1.0378919
1.0379566
1.0375962
1.0370458
1.0370872
1.0366923
1.0361778
1.0358135
1.0356939
1.0349939
1.034731
1.0343253
1.0341677
1.0329076
1.0034425
1.0176184
1.037142
1.0447733
1.0412061
1.0368299
1.0359354
1.0385079
1.0420137
1.044767
1.0467768
1.0488491
1.0514613
1.0539325
1.0545122
1.0533175
1.0519237
1.0512546
1.0512756
1.0520136
1.053302
1.0548124
1.0557388
1.0555914
1.0546068
1.0528928
1.0505295
1.0478472
1.0452578
1.0429602
1.0410485
1.0395833
1.0386598
1.0382746
1.0383448
1.038647
1.039062
1.0393962
1.039558
1.0398163
1.0394836
1.0395993
1.039254
1.0387541
1.0387915
1.0383013
1.0376483
1.0373167
1.0370647
1.0364108
1.0357591
1.0355401
1.0347114
1.034304
1.0339082
1.0034364
1.0176707
1.037243
1.0449344
1.0412302
1.036794
1.0358685
1.0385366
1.0421928
1.0450326
1.0469614
1.0489872
1.0516735
1.0543362
1.0552336
1.0543279
1.0532388
1.0527532
1.0529928
1.0538649
1.0552388
1.056921
1.0581838
1.0583344
1.0575178
1.0558237
1.0534725
1.0507608
1.0481424
1.0457488
1.0436932
1.0420744
1.040935
1.0403006
1.0400615
1.040086
1.0403267
1.0404692
1.0407185
1.0405671
1.0407288
1.0404551
1.0401059
1.0401029
1.0395854
1.0389782
1.0387642
1.038362
1.0376544
1.0368705
1.0368126
1.0358666
1.0357953
1.0345015
1.0344064
1.0034193
1.0177212
1.0373693
1.0450579
1.0412214
1.0367012
1.0357469
1.0384766
1.0422354
1.0451299
1.0470395
1.0490327
1.0517853
1.0546039
1.0557779
1.0551095
1.0542793
1.0540629
1.0544291
1.055423
1.0570212
1.0589471
1.0605324
1.0610304
1.0604215
1.0588724
1.0565162
1.0537991
1.0510775
1.0486493
1.0465231
1.0447642
1.043409
1.0425217
1.0419947
1.0418941
1.0418783
1.0421311
1.0421071
1.0422603
1.0421564
1.0419499
1.0419491
1.041511
1.0410031
1.0407797
1.0402188
1.039427
1.0386833
1.0384529
1.0375813
1.0367886
1.0360399
1.0356649
1.034958
1.0033974
1.0177294
1.0374333
1.0451372
1.0412119
1.0365944
1.0355751
1.0382964
1.0421533
1.0451335
1.0470238
1.0489826
1.0517531
1.0547852
1.0561964
1.055711
1.055077
1.0550368
1.0556044
1.0568066
1.0585469
1.0606557
1.0626361
1.0635802
1.0633075
1.0619176
1.0596676
1.0569307
1.054249
1.0517569
1.0495378
1.0477021
1.0462767
1.0451767
1.0444649
1.0440154
1.043867
1.0436619
1.0436913
1.0436447
1.043419
1.043371
1.0430069
1.0425784
1.0423984
1.0418197
1.0411223
1.0405559
1.0401668
1.0394152
1.0381693
1.0382186
1.0369274
1.0365807
1.0357008
1.0033701
1.0177457
1.0375108
1.045218
1.0411853
1.0364556
1.0353431
1.0380684
1.042004
1.0450731
1.0469434
1.0489114
1.0517238
1.0549008
1.0565279
1.0561646
1.0556498
1.0557683
1.0564899
1.0577831
1.0597119
1.0621412
1.0644701
1.0658884
1.0659836
1.0648908
1.062769
1.0601519
1.0574766
1.0549834
1.0527524
1.0508335
1.0492446
1.0480003
1.0470985
1.0465022
1.0461489
1.0459644
1.0458008
1.0454748
1.0454297
1.0450709
1.044665
1.0445077
1.0438688
1.0432944
1.0427861
1.0421389
1.0413272
1.0400501
1.0400936
1.0385877
1.038339
1.0372911
1.0363105
1.0033404
1.017726
1.0375396
1.0452936
1.0411478
1.0363306
1.0350917
1.037806
1.0418231
1.0449844
1.0468773
1.0488073
1.0516663
1.0549174
1.0567466
1.0564758
1.0560884
1.0562768
1.0570378
1.0584799
1.0605702
1.0631909
1.0658969
1.0678629
1.0684369
1.0676798
1.0657987
1.063297
1.0606603
1.0582149
1.0559458
1.0540282
1.0524299
1.0511188
1.050081
1.0492796
1.0486807
1.0482822
1.0478537
1.0476646
1.0472155
1.0468198
1.0465499
1.0458595
1.0454075
1.0448945
1.0441317
1.0434133
1.0424433
1.0421034
1.0410504
1.0399358
1.0393068
1.038239
1.0375131
1.0033091
1.0177216
1.0375792
1.0453685
1.0411413
1.0362366
1.0348605
1.0375689
1.0416824
1.0449597
1.0468688
1.0488049
1.0516817
1.0550293
1.0570117
1.0567929
1.0564055
1.056587
1.0574395
1.05897
1.0611176
1.0639442
1.0670246
1.0694949
1.0705577
1.0702053
1.0685684
1.0662906
1.0638241
1.0614482
1.0592284
1.0572997
1.0556362
1.0542499
1.0531288
1.0522789
1.0515915
1.050991
1.0505926
1.0500439
1.0495498
1.0491108
1.0484138
1.0479693
1.0473248
1.046578
1.0458342
1.0449692
1.0441954
1.0432944
1.0416556
1.0418181
1.0401972
1.0394635
1.0389004
1.0032816
1.017695
1.0376136
1.0454535
1.0411898
1.0361708
1.0346645
1.037384
1.0415634
1.0449446
1.046937
1.0488571
1.0517512
1.0551808
1.0572351
1.05702
1.0566302
1.0568184
1.0576342
1.059166
1.0614092
1.0643696
1.0677185
1.0706355
1.0722703
1.0723183
1.0710929
1.0690641
1.0667408
1.0644808
1.0623878
1.0605005
1.0588732
1.0574645
1.0563138
1.0553209
1.0545227
1.053913
1.0532819
1.0526827
1.0521373
1.0514799
1.0509066
1.0501929
1.0494626
1.0485985
1.0478461
1.0468764
1.0459675
1.0445326
1.0444169
1.0426066
1.0417085
1.0410218
1.0398018
1.0032547
1.0176684
1.0376236
1.0455267
1.0412721
1.0361745
1.0345909
1.0372977
1.0415348
1.0450563
1.0470713
1.0490119
1.051901
1.0553747
1.0575165
1.0573145
1.0568596
1.0569591
1.0576948
1.0592158
1.0614545
1.0645229
1.0680878
1.0714464
1.0735885
1.0741212
1.0732464
1.0714559
1.0693537
1.0672451
1.0652765
1.0634885
1.061947
1.0606004
1.0594599
1.058433
1.0576687
1.0569001
1.0562581
1.0556868
1.0550074
1.054287
1.0535933
1.0527019
1.0518826
1.0510393
1.0498959
1.0488384
1.0476459
1.0467749
1.0456123
1.0440707
1.0436628
1.0424903
1.0408384
1.0032361
1.0176755
1.0376964
1.045657
1.0413968
1.0362564
1.0346124
1.0373126
1.0416091
1.0452583
1.0472934
1.0492287
1.0520998
1.0555961
1.0578472
1.0576285
1.0570831
1.0570946
1.0577492
1.0591611
1.0613759
1.0644411
1.0681171
1.0718606
1.0744732
1.0754397
1.0749258
1.0734911
1.0716256
1.0697331
1.0679371
1.0662741
1.0648018
1.063528
1.0623955
1.0614739
1.0606412
1.060009
1.0594418
1.0587597
1.0580649
1.0574436
1.0564472
1.0557789
1.054656
1.0536348
1.052517
1.0514431
1.0502134
1.0492738
1.0471791
1.0469474
1.0452021
1.0435951
1.0432444
1.0032136
1.0176479
1.0377229
1.0457658
1.0415541
1.036412
1.0346916
1.0373857
1.0417498
1.0454895
1.0475965
1.0495077
1.0523509
1.0558554
1.0581986
1.0579914
1.0573617
1.0572369
1.0577592
1.0591049
1.0612057
1.0642242
1.068022
1.0719916
1.0749992
1.0764149
1.0763304
1.0751878
1.0735968
1.0718823
1.0701935
1.0686602
1.0673423
1.0661566
1.065175
1.0642957
1.0635722
1.0629851
1.0623939
1.0618487
1.0613159
1.0604361
1.0598245
1.0586094
1.0577993
1.0564947
1.0553674
1.0540036
1.0527644
1.0510713
1.0502856
1.0485281
1.0474127
1.0459172
1.0452727
1.0032085
1.0176494
1.037773
1.0458964
1.0417483
1.03662
1.0348241
1.0375099
1.0419335
1.0457738
1.0479259
1.0498215
1.0526231
1.0561253
1.0585297
1.0583417
1.0576286
1.0573819
1.0577742
1.0589978
1.0610174
1.0639799
1.0677807
1.0718821
1.0752859
1.0771152
1.0773484
1.076523
1.0751235
1.0735908
1.0720849
1.0706789
1.0694576
1.0684093
1.06754
1.0668178
1.0661893
1.0656421
1.0652135
1.0648019
1.0642191
1.0636594
1.0627554
1.0620436
1.0608792
1.0598437
1.0585997
1.0571924
1.0559219
1.0541257
1.0529761
1.0510407
1.0499825
1.0485581
1.0463861
1.0031886
1.0176495
1.0378111
1.0460261
1.0419722
1.0368539
1.0350197
1.0376732
1.0421374
1.0460908
1.0482601
1.0501209
1.0528597
1.0563535
1.058831
1.05867
1.0578776
1.0575715
1.0578555
1.0589523
1.0608461
1.0636808
1.0673849
1.0716872
1.0754528
1.0775518
1.0781488
1.0776039
1.0763779
1.0750171
1.0735959
1.0723122
1.0712097
1.0702873
1.0694958
1.0688822
1.0683646
1.067967
1.0676449
1.0673302
1.0669282
1.0665506
1.0658988
1.0651973
1.0641484
1.0631235
1.06168
1.0604389
1.0586295
1.0575424
1.0555339
1.0547003
1.0519903
1.0508595
1.049441
1.0031908
1.017634
1.037815
1.0461469
1.0421886
1.0371074
1.0352306
1.0378506
1.0423468
1.0463886
1.0485716
1.0504071
1.0530651
1.0565164
1.059086
1.0589911
1.0581108
1.0577499
1.0579261
1.0588869
1.0606848
1.0634014
1.0670939
1.0713833
1.0752935
1.0778316
1.0787418
1.0784113
1.0774028
1.0761422
1.0748606
1.0736331
1.0725271
1.0716558
1.070986
1.0704625
1.0701135
1.0698348
1.0695956
1.069368
1.0692931
1.0689336
1.0687315
1.0678842
1.0673439
1.0661905
1.0650632
1.0637762
1.0621285
1.0607802
1.0588679
1.0569299
1.0551179
1.054227
1.0520998
1.0031699
1.0176229
1.037832
1.0462659
1.0424246
1.0373784
1.0354544
1.0380259
1.0425159
1.0466337
1.0488564
1.0506469
1.0532229
1.0566302
1.0592653
1.0592579
1.0583393
1.0579081
1.0579699
1.0588671
1.0605655
1.0631774
1.0667538
1.0710023
1.0751504
1.0779165
1.0790771
1.0789995
1.0780995
1.0769355
1.0757103
1.0746059
1.0735936
1.072738
1.0721103
1.0715874
1.0712806
1.0711211
1.0710952
1.0711716
1.0710437
1.0711058
1.0707537
1.0706148
1.0698698
1.0690847
1.0681857
1.0666114
1.0656488
1.0635667
1.062138
1.0598299
1.059025
1.0567611
1.0536205
1.0031701
1.0175867
1.037825
1.0463312
1.0426358
1.0376336
1.0356492
1.038187
1.0426456
1.0468097
1.0490405
1.0508108
1.0533091
1.056681
1.0593796
1.059462
1.0585241
1.0580519
1.0580664
1.0588711
1.0604512
1.0629303
1.0663946
1.0706442
1.0748905
1.0779296
1.0793357
1.079411
1.0786618
1.07757
1.0763769
1.0752798
1.0743264
1.0734951
1.0728028
1.0723725
1.0721279
1.0720242
1.0721343
1.0722407
1.0725596
1.0725868
1.0725396
1.072398
1.0720283
1.0714857
1.0704833
1.069493
1.0680952
1.0663034
1.0647115
1.063435
1.0614874
1.058218
1.0575073
1.0031482
1.0175334
1.0377267
1.0464228
1.0427981
1.0378605
1.0358109
1.0382603
1.0427092
1.0469159
1.0491777
1.0509191
1.0533375
1.0566545
1.0594193
1.0595942
1.0586541
1.0581721
1.0581268
1.0588269
1.0602941
1.0626646
1.0660055
1.0701648
1.074486
1.0778191
1.0794568
1.0796899
1.0790554
1.0780076
1.0768426
1.0756768
1.0746475
1.0738286
1.0731497
1.0727397
1.0725632
1.0725683
1.0726173
1.0726666
1.0729344
1.0732377
1.0735838
1.0735542
1.0734566
1.0730085
1.0722742
1.0715419
1.0699455
1.0690652
1.0674158
1.0653128
1.0632987
1.0613364
1.0608421
1.0031333
1.017491
1.0377123
1.0463326
1.0430186
1.0380044
1.0358959
1.0382918
1.0426735
1.0469075
1.049213
1.0509362
1.053285
1.0565405
1.0593658
1.0596733
1.0587493
1.0582293
1.0581294
1.0587642
1.0601622
1.0624064
1.0656203
1.0696723
1.0740192
1.0775566
1.0794545
1.0798994
1.0793983
1.0784027
1.0772306
1.0760702
1.0749487
1.0740776
1.073356
1.0729827
1.0727026
1.0727636
1.0729144
1.0734585
1.0737284
1.0741389
1.0744014
1.0746343
1.0745834
1.0742781
1.0738047
1.0728324
1.0719579
1.0704817
1.0689089
1.0674283
1.0654323
1.0643144
1.0610827
1.0592595
1.056707
1.0550789
1.0526416
1.0496294
1.0476099
1.0455399
1.0431704
1.0417271
1.0404201
1.0388499
1.0376682
1.036772
1.0359391
1.0348331
1.0343539
1.0336905
1.0332503
1.0331893
1.0326131
1.0326881
1.0328701
1.0327262
1.0330358
1.0334098
1.0336409
1.0339714
1.0558032
1.0539106
1.0516286
1.0496465
1.0475644
1.0452764
1.0435407
1.0420167
1.0403307
1.0390002
1.0378966
1.0368661
1.0357688
1.035011
1.0343013
1.0335397
1.0330773
1.0327466
1.0322624
1.0324228
1.0321033
1.0321816
1.0323454
1.0324067
1.032696
1.0331168
1.0333113
1.0520788
1.0504662
1.048531
1.0465708
1.0448525
1.0431556
1.0414721
1.0401762
1.0389155
1.0377615
1.0366716
1.0357578
1.0349824
1.0339966
1.0333988
1.0328407
1.0322533
1.0319379
1.0317839
1.031469
1.0316299
1.0314528
1.0316443
1.0317868
1.0320398
1.0322895
1.0326722
1.0484458
1.0468381
1.0451916
1.0435403
1.0420385
1.0406257
1.0394033
1.0383195
1.037222
1.0363116
1.0354672
1.0345836
1.0338253
1.0331401
1.0324691
1.0318089
1.0316239
1.0309495
1.0310578
1.0306963
1.0308023
1.0307615
1.0308289
1.0310469
1.0312144
1.0315069
1.0318185
1.0446984
1.0432145
1.0417863
1.0404409
1.0391497
1.0380819
1.0370961
1.0361999
1.035485
1.0346896
1.0340243
1.0333679
1.0326432
1.0320516
1.0315449
1.0308302
1.0306506
1.0301621
1.0300691
1.0299019
1.0299097
1.02987
1.030013
1.0301253
1.0303545
1.0305762
1.0308577
1.0408525
1.0395457
1.0382935
1.0372229
1.0361773
1.0353657
1.0346954
1.0339549
1.0334621
1.0330095
1.032356
1.0319889
1.0314285
1.0307891
1.0304562
1.0298635
1.0296144
1.029142
1.0292068
1.0288407
1.0289701
1.0289058
1.029008
1.0291012
1.0293795
1.0294994
1.0297527
1.0370072
1.0359048
1.0348048
1.0339331
1.033112
1.0325428
1.0321002
1.031651
1.0312882
1.0310195
1.0306894
1.0302707
1.0299873
1.0296247
1.0290276
1.0289124
1.0284065
1.0281717
1.0280361
1.0279082
1.0277826
1.02783
1.0279325
1.0279489
1.0281745
1.0283475
1.028509
1.0333537
1.032308
1.0313601
1.0307082
1.0300877
1.0296042
1.0293966
1.0292422
1.0289378
1.0288673
1.0287781
1.0284993
1.0283047
1.0281879
1.0277592
1.0274774
1.0273733
1.0269401
1.0268308
1.0267775
1.0265991
1.0266696
1.0265716
1.0268442
1.026771
1.0269958
1.0272388
1.0297221
1.0288147
1.0279452
1.0274656
1.0270938
1.0266985
1.0265881
1.026663
1.0265366
1.026525
1.0266612
1.026597
1.0264127
1.0265107
1.0263079
1.0259611
1.0261036
1.0255837
1.0256557
1.0253925
1.0254038
1.025302
1.0253287
1.0252969
1.0255153
1.02541
1.0258089
1.0261466
1.0253885
1.0246919
1.0241853
1.0241088
1.0238949
1.02373
1.0239544
1.0240767
1.0240653
1.024329
1.0244427
1.0244761
1.024562
1.0246029
1.0244104
1.0244065
1.0243122
1.0241145
1.0241519
1.0238431
1.0239943
1.0238647
1.023789
1.023991
1.0238646
1.0240616
1.0227739
1.0220798
1.0215588
1.0212092
1.0210589
1.0210471
1.0209872
1.021127
1.021537
1.0215668
1.0218249
1.0222036
1.0222622
1.0225387
1.0226287
1.0225288
1.022829
1.0224728
1.0227157
1.0224932
1.0223768
1.0223717
1.022326
1.0222539
1.0222436
1.0222741
1.0222374
1.0195444
1.0190555
1.0185815
1.0181878
1.0181745
1.0182587
1.0182112
1.0184979
1.0187744
1.0190585
1.0193685
1.0196939
1.0199275
1.0203369
1.0204157
1.0205918
1.020848
1.0205746
1.0210206
1.0206035
1.0208846
1.0204683
1.0207362
1.0204642
1.0205041
1.0204178
1.0203959
1.0165199
1.0161202
1.0157239
1.0154552
1.0153537
1.015477
1.0155545
1.0157989
1.0161316
1.0164292
1.0168322
1.017164
1.017541
1.0179064
1.0180038
1.0185495
1.0184403
1.0187729
1.0187719
1.0187461
1.0190322
1.0185123
1.0189282
1.0184688
1.0187443
1.018347
1.0184731
1.0137002
1.0133491
1.0130276
1.0127205
1.0126971
1.0128402
1.0129509
1.0131214
1.0135709
1.0138147
1.0141604
1.0147059
1.0148829
1.0153669
1.0157353
1.0159391
1.016165
1.0165952
1.0164144
1.0167169
1.0166971
1.0166273
1.01676
1.0164032
1.0167037
1.0162855
1.0163632
1.0110378
1.0107648
1.0104255
1.0101673
1.0101713
1.0102956
1.0103407
1.0106482
1.0109343
1.0112135
1.0116635
1.0119982
1.0122824
1.0129106
1.0130358
1.0133809
1.0138707
1.0138903
1.0141188
1.0143756
1.0142257
1.0144702
1.0143704
1.0141985
1.0144853
1.013977
1.0141559
1.0085635
1.0082736
1.0079492
1.0078036
1.0078106
1.0077776
1.0079649
1.0081642
1.0083462
1.0087589
1.0091321
1.0092552
1.0098238
1.010173
1.0103962
1.0109477
1.0110224
1.0112623
1.0117251
1.011643
1.0116514
1.012085
1.0118263
1.0118101
1.0119996
1.0115429
1.0117851
1.006211
1.0059622
1.0056366
1.0055533
1.005454
1.0055591
1.0056316
1.0056734
1.0060606
1.0063126
1.0064103
1.0068456
1.0073009
1.0073878
1.0077805
1.0082502
1.0082627
1.0086444
1.0088865
1.0088781
1.0091216
1.0093778
1.0090097
1.0093117
1.0093775
1.0089926
1.0091045
1.0040166
1.0037681
1.0034583
1.003364
1.0032824
1.003365
1.0033391
1.0034758
1.0037655
1.0037168
1.0040818
1.0044974
1.0044467
1.0048289
1.0052821
1.0054459
1.0053726
1.0060041
1.006095
1.0060173
1.0063079
1.0065267
1.00636
1.0065415
1.0065121
1.0062678
1.006436
1.0019539
1.001679
1.0014173
1.0012832
1.0012345
1.0012249
1.0011344
1.0014496
1.001345
1.0014366
1.0018369
1.0018479
1.0020156
1.0022869
1.0025851
1.0026154
1.002842
1.0031782
1.0030639
1.0033645
1.0035006
1.0035612
1.0034096
1.0037543
1.0037558
1.0033643
1.0034811
0.99999085
0.99968843
0.99943774
0.99940673
0.99913847
0.99917013
0.99924547
0.99913083
0.99922732
0.99923877
0.99955409
0.99941186
0.99948693
1.0000156
0.99972184
1.0000866
1.0000958
1.0004066
1.000305
1.0004882
1.000648
1.000662
1.0006209
1.0007234
1.0008232
1.0005158
1.0005646
0.99802083
0.99786179
0.99756593
0.99738836
0.99733438
0.99711948
0.99729131
0.9970687
0.99694886
0.997421
0.99698067
0.99722094
0.99727931
0.99725299
0.9975432
0.99714878
0.99786562
0.99736971
0.99776178
0.99766008
0.99784641
0.99781544
0.99767896
0.99796995
0.99776365
0.99763545
0.99751507
0.99619258
0.99590712
0.99578224
0.99554343
0.99534552
0.99543838
0.99513148
0.99503859
0.99519703
0.99498843
0.99495409
0.99492645
0.99502544
0.99501978
0.99470727
0.9951456
0.99505794
0.99495363
0.9949285
0.99510745
0.99521248
0.99486973
0.99494292
0.99503729
0.99500702
0.99469316
0.99453663
0.99433692
0.99408011
0.99396388
0.99372729
0.99345369
0.99357027
0.99317698
0.99313433
0.99324954
0.99277715
0.99301332
0.99269392
0.99283003
0.99284507
0.99226743
0.99292249
0.99238054
0.9927769
0.99227207
0.99253476
0.99252417
0.99228259
0.99241834
0.99195443
0.99226439
0.99192958
0.99185941
0.99256259
0.99224735
0.99213766
0.99185982
0.99171642
0.99168958
0.9912065
0.99127628
0.99119378
0.99091711
0.99094103
0.99048934
0.99088488
0.9905268
0.990299
0.99042479
0.99010829
0.99052389
0.98976697
0.99019432
0.98984224
0.98989534
0.98972668
0.98943022
0.98956791
0.98919056
0.98905911
0.99076981
0.99040471
0.99032687
0.99004216
0.98987681
0.98982137
0.98929831
0.9894829
0.9892738
0.98889266
0.98898264
0.98851233
0.98890417
0.98834958
0.98824543
0.9882443
0.98801688
0.98819966
0.98740319
0.98803823
0.98737682
0.98758834
0.98705339
0.98710646
0.98704638
0.98663549
0.98640284
0.98893583
0.98856902
0.9884859
0.98827714
0.98795673
0.98797731
0.98751432
0.98753762
0.98749986
0.98691284
0.98715097
0.98666505
0.98670259
0.98661866
0.98602431
0.98641916
0.98580965
0.98600642
0.98545332
0.98562199
0.98530024
0.98516296
0.98500497
0.98460658
0.98466993
0.98420901
0.98413151
0.987087
0.98674902
0.98658584
0.98646779
0.98609127
0.98619183
0.98575522
0.98560979
0.98569986
0.98504816
0.98540291
0.98475548
0.98484342
0.9847663
0.98404987
0.98457561
0.98366459
0.9842834
0.98334315
0.98352965
0.98312299
0.98314307
0.98299779
0.98230345
0.98234874
0.98201947
0.98202141
0.98522385
0.98489217
0.98481952
0.98464352
0.9842922
0.98436118
0.98390444
0.98401412
0.98381736
0.9832993
0.98350787
0.98288183
0.98329607
0.98270907
0.98244328
0.98248281
0.98199239
0.98247693
0.98138786
0.9816763
0.98106027
0.98136425
0.98088126
0.9804367
0.98018424
0.98004053
0.97986601
0.98327274
0.98323109
0.98303227
0.98295693
0.98245726
0.98244433
0.98241586
0.98215512
0.98222445
0.98145893
0.98170889
0.9813918
0.98133484
0.98122032
0.98045189
0.98091306
0.98009477
0.98073163
0.97968846
0.97985726
0.97938013
0.97922873
0.97921519
0.97859198
0.97851211
0.9779287
0.97781572
0.98152245
0.98150892
0.98127517
0.9811613
0.98080362
0.98080291
0.98085099
0.98041211
0.98046995
0.97987394
0.98005171
0.97987861
0.97950355
0.97968239
0.97880632
0.97932526
0.97844892
0.97895922
0.97821967
0.97816631
0.97780347
0.97727861
0.97765961
0.97686024
0.97704574
0.97606855
0.97602979
0.97988017
0.97984108
0.97954313
0.97954339
0.97927173
0.97920589
0.97921965
0.97876009
0.97896428
0.97834828
0.97850316
0.97818132
0.97797956
0.97823308
0.97738966
0.97777653
0.97679179
0.97744637
0.97678626
0.97679992
0.9761622
0.97573119
0.97600644
0.97547022
0.97556183
0.97459687
0.9744419
0.97822699
0.97824582
0.97815058
0.97812938
0.97773035
0.97755857
0.97751007
0.97750871
0.97759967
0.97703182
0.9769142
0.9764607
0.97684558
0.97680462
0.97632078
0.9760436
0.97540287
0.97590582
0.9755626
0.97550517
0.97467078
0.97444516
0.97435616
0.97428055
0.97405119
0.97344425
0.97304939
0.97660001
0.97684277
0.97697024
0.97675833
0.97628629
0.97591717
0.97616084
0.97638965
0.97629576
0.97583245
0.97520447
0.97531563
0.97552795
0.97571987
0.97505845
0.97457257
0.97429082
0.97443649
0.97453177
0.97405301
0.97366109
0.97314128
0.97317547
0.97295352
0.97282717
0.97235091
0.97197318
0.97523444
0.97558114
0.97573101
0.97545419
0.97492763
0.97469611
0.97499514
0.97523881
0.9751064
0.97452275
0.9741154
0.97416121
0.97443817
0.97440341
0.9739978
0.97347305
0.97332388
0.97326173
0.97324526
0.97298036
0.9726646
0.97232308
0.97205256
0.97182874
0.97159503
0.97145255
0.97107417
0.97408041
0.97438758
0.97453938
0.97433143
0.97391804
0.97374392
0.97381988
0.97409059
0.97391429
0.97366294
0.97328886
0.97319248
0.97329514
0.97309054
0.97318323
0.97255642
0.97267483
0.97220118
0.97215122
0.97193964
0.97174691
0.97169924
0.971163
0.97107369
0.97047909
0.9705499
0.97014332
0.97322758
0.97335771
0.97344966
0.97332113
0.97315965
0.97298263
0.97291834
0.97302666
0.97288641
0.97286209
0.97254818
0.97254753
0.9723153
0.9721827
0.9722148
0.97181279
0.97201923
0.97150753
0.97145586
0.97103641
0.97092959
0.97093715
0.97054298
0.97051941
0.96983082
0.96977313
0.96933255
0.97266105
0.97256045
0.97246569
0.97242439
0.97249297
0.97250074
0.97238559
0.97219848
0.97203474
0.97201814
0.97199187
0.97208526
0.97175075
0.97155231
0.97134368
0.97117217
0.9713487
0.97108584
0.97102017
0.97043025
0.97029905
0.97020017
0.97007056
0.96998634
0.96948005
0.96920367
0.96879724
0.97223669
0.97201395
0.97180464
0.97178146
0.97195963
0.97209737
0.97199199
0.97169739
0.97145799
0.97142923
0.97154978
0.97166981
0.97140638
0.97112041
0.97082559
0.97075992
0.97085536
0.97075501
0.9706342
0.97007539
0.96989629
0.96974571
0.96975187
0.96955815
0.96920785
0.96877806
0.96844827
0.97187339
0.9717164
0.97156393
0.97154533
0.97164642
0.97172776
0.97163495
0.97142202
0.97125757
0.97124835
0.97130073
0.97132036
0.97109746
0.97084749
0.97065183
0.97058808
0.97061361
0.97050421
0.97031682
0.96994323
0.96969733
0.96957647
0.96949226
0.96930424
0.96898445
0.9686107
0.96842442
0.97170343
0.97163449
0.97157138
0.97156179
0.97157024
0.97158178
0.97153295
0.9713618
0.97135398
0.97120177
0.9712128
0.97117949
0.9709578
0.97092308
0.97065887
0.97063902
0.97053996
0.97031713
0.97022914
0.96984897
0.96982294
0.96956295
0.96953284
0.9691988
0.96895161
0.96855375
0.96838392
0.97180122
0.97179783
0.97172834
0.97171381
0.97172031
0.97162661
0.97174103
0.97152922
0.97154958
0.97138857
0.97120906
0.97134651
0.97100333
0.97120615
0.97078972
0.97083317
0.97059128
0.97041972
0.97033518
0.97003251
0.97003965
0.96965572
0.96966291
0.9692223
0.96911567
0.96874719
0.96863924
0.97215736
0.97216787
0.97208503
0.97198925
0.97211103
0.97191729
0.97207325
0.97190214
0.97176043
0.97182146
0.9713932
0.97172539
0.97138718
0.97147225
0.97112571
0.97101868
0.97095858
0.97061449
0.97080137
0.97034698
0.9704607
0.96982017
0.96996123
0.96944974
0.96951736
0.96916576
0.96905067
0.97268073
0.97268199
0.97271131
0.97245792
0.97255037
0.97246507
0.97245304
0.97244418
0.9721244
0.97235383
0.97183418
0.97221271
0.97176689
0.97214906
0.97138986
0.97160465
0.97124066
0.97123407
0.9712247
0.97086569
0.97102038
0.97020054
0.97047469
0.96988276
0.97014135
0.96968896
0.96957724
0.97334039
0.97336943
0.97340815
0.97333938
0.97301422
0.9732315
0.97288735
0.97322416
0.97268335
0.97298364
0.9725293
0.97259958
0.97248178
0.9723857
0.97256297
0.97167508
0.97235669
0.97127351
0.97225854
0.97108796
0.97179016
0.97082849
0.97098438
0.97068053
0.97056463
0.97046331
0.97008808
0.97421596
0.97421322
0.97413445
0.9743292
0.97388704
0.97396004
0.9738344
0.97373681
0.97398755
0.97327689
0.97388114
0.97281056
0.97364542
0.9726803
0.97348007
0.97271016
0.97263362
0.97268822
0.97196735
0.97281976
0.97144513
0.97253876
0.97100215
0.97191106
0.97088355
0.97128944
0.97070401
0.97522209
0.97519072
0.97519612
0.97500153
0.97528604
0.97466247
0.97497424
0.9745706
0.97472572
0.97471792
0.97414821
0.9746689
0.97357231
0.97455117
0.97336129
0.97434986
0.97322937
0.97352702
0.97318787
0.97282699
0.97332797
0.97225962
0.97305604
0.97169395
0.97246185
0.97151122
0.97174894
0.97638341
0.97617705
0.97619581
0.97616029
0.97591773
0.97626211
0.97564431
0.97583955
0.97553325
0.97553682
0.97565889
0.97504899
0.97545995
0.97452193
0.97521369
0.9743742
0.97494968
0.97409695
0.97421381
0.97397814
0.97365516
0.9738934
0.97319213
0.97346395
0.97264584
0.9728811
0.97244247
0.97752704
0.97733114
0.97715914
0.97732121
0.97686733
0.97728129
0.97696584
0.97663869
0.97689534
0.97612586
0.97675456
0.97623939
0.97614743
0.97620939
0.97530103
0.97617167
0.97497824
0.97601256
0.97464256
0.97521494
0.97458351
0.97456581
0.97451315
0.97403678
0.9741015
0.97354491
0.97358879
0.97853214
0.97858798
0.97823457
0.97854897
0.97793943
0.97815741
0.97814702
0.97753851
0.97818031
0.97712989
0.97770268
0.97721383
0.97709978
0.97730924
0.97650791
0.97699189
0.97610592
0.97668725
0.9760296
0.97609797
0.97555475
0.97563548
0.97531437
0.97526266
0.97495442
0.97476265
0.97446352
0.97957053
0.97967902
0.97966432
0.97917977
0.97966932
0.97864274
0.97933738
0.97888078
0.97860468
0.97917915
0.97772937
0.97905941
0.97751832
0.97853622
0.97774019
0.97765585
0.97781972
0.97675388
0.97778125
0.97640758
0.9774154
0.97599577
0.97681057
0.97580331
0.97624251
0.97564158
0.97562749
0.98078231
0.98067363
0.98051265
0.9807071
0.98011827
0.98046187
0.97983335
0.98004552
0.98001219
0.97942798
0.97994334
0.97876233
0.97977086
0.97864298
0.97928883
0.97854322
0.97843904
0.97852883