/*--------------------------------*- C++ -*----------------------------------*\
| =========                 |                                                 |
| \\      /  F ield         | OpenFOAM: The Open Source CFD Toolbox           |
|  \\    /   O peration     | Version:  2406                                  |
|   \\  /    A nd           | Website:  www.openfoam.com                      |
|    \\/     M anipulation  |                                                 |
\*---------------------------------------------------------------------------*/
FoamFile
{
    version     2.0;
    format      ascii;
    arch        "LSB;label=32;scalar=64";
    class       volScalarField;
    location    "6";
    object      p_0;
}
// * * * * * * * * * * * * * * * * * * * * * * * * * * * * * * * * * * * * * //

dimensions      [1 -1 -2 0 0 0 0];

internalField   nonuniform List<scalar> 
62344
(
1.0011898
1.017925
1.0355309
1.0403052
1.035603
1.0316023
1.0288056
1.0302336
1.0349864
1.035769
1.0353928
1.0377801
1.0417154
1.0464349
1.0531099
1.0570334
1.0581552
1.0567006
1.0507059
1.0520231
1.0554866
1.0544341
1.0505882
1.0680878
1.0715646
1.0613281
1.0699912
1.0851019
1.0728242
1.0677868
1.0821859
1.080322
1.079068
1.0975983
1.0904192
1.0620486
1.064397
1.0804779
1.0752222
1.0649077
1.0845004
1.1183413
1.1245706
1.0866498
1.041105
1.0223565
1.0231874
1.0323926
1.0515903
1.0853167
1.1233416
1.1401676
1.1200372
1.0765268
1.0311101
1.0009392
1.0172358
1.0370904
1.041751
1.0349877
1.0297354
1.0276173
1.0300551
1.0330811
1.0339463
1.03414
1.0363168
1.0400664
1.0443158
1.0486267
1.0542088
1.0563632
1.057753
1.051962
1.0538053
1.057207
1.052886
1.0494789
1.068935
1.0723232
1.06366
1.0741145
1.0875581
1.0725992
1.0669686
1.0818074
1.0780102
1.0740585
1.0910175
1.0870207
1.0689299
1.0672045
1.0722341
1.0717237
1.0741904
1.0915287
1.1082621
1.1080734
1.0802765
1.0441689
1.0299407
1.0410107
1.0606928
1.0790959
1.0943019
1.1100409
1.1249174
1.1224046
1.0925989
1.046345
1.0013228
1.0168915
1.0379337
1.0438593
1.0358334
1.0289879
1.0272649
1.0285386
1.0312453
1.0342122
1.0338131
1.0323358
1.0352539
1.042483
1.0477425
1.0554066
1.0558126
1.0565297
1.0524302
1.0538395
1.056669
1.0508882
1.0480649
1.0673074
1.0715008
1.0663866
1.0794949
1.0904269
1.0738286
1.0695169
1.0831285
1.0770461
1.0739689
1.0880161
1.084063
1.0705296
1.0649129
1.05875
1.065486
1.0840477
1.0968134
1.0941258
1.0866222
1.0727718
1.0554471
1.0472649
1.0622576
1.087331
1.1046947
1.1014327
1.0917292
1.0881329
1.0902241
1.0858419
1.0673548
1.0014677
1.0172654
1.0383828
1.0449233
1.0366846
1.030147
1.0279162
1.0277725
1.0312854
1.0340557
1.0326278
1.0303232
1.0338555
1.0429399
1.047733
1.0552581
1.053276
1.0532971
1.051685
1.0511315
1.0534056
1.0475725
1.0469728
1.0647348
1.068394
1.0669791
1.0822482
1.0906621
1.0756611
1.0746297
1.0848689
1.0766869
1.0776125
1.0883505
1.0794269
1.069671
1.0651268
1.052158
1.0578497
1.0877142
1.1044089
1.0869078
1.0633272
1.0568834
1.0635934
1.067793
1.0809854
1.1036835
1.1177665
1.109258
1.0855137
1.0608428
1.0472603
1.0490527
1.0590665
1.001162
1.0176852
1.0390045
1.0458229
1.0379613
1.0313719
1.0280785
1.0286613
1.0316697
1.0332652
1.0326367
1.0312608
1.0340807
1.041107
1.0461779
1.0534896
1.050937
1.0506031
1.0505588
1.0483693
1.0499881
1.0446332
1.0475769
1.0624087
1.0639923
1.0652697
1.0822583
1.0882792
1.0767662
1.0804056
1.0859713
1.0765272
1.0840101
1.0919543
1.0760541
1.0660945
1.0658813
1.0522037
1.0548568
1.086494
1.1078894
1.0874656
1.0497011
1.0379241
1.0576431
1.083276
1.0993541
1.1115752
1.1178158
1.1100026
1.0883879
1.056773
1.0292041
1.0203898
1.0347634
1.0007169
1.0177734
1.0398389
1.0461951
1.0390372
1.0320462
1.0283482
1.0297049
1.0321081
1.0339673
1.0335587
1.0320261
1.0336237
1.0388346
1.0461253
1.05329
1.0516565
1.0507514
1.0505315
1.0476814
1.048231
1.0424092
1.0482881
1.060186
1.0603162
1.0627276
1.0807923
1.0849629
1.0767754
1.0843811
1.0844759
1.075888
1.0903583
1.0962415
1.0729734
1.0607708
1.0653013
1.0580753
1.056667
1.0844537
1.105543
1.0893184
1.0472251
1.0269914
1.0443215
1.0825548
1.1132955
1.1228799
1.1183594
1.1044507
1.083114
1.0582637
1.0351916
1.0215932
1.0256939
1.0004615
1.0176087
1.040215
1.0461429
1.0394323
1.0325408
1.0292655
1.0304349
1.0331155
1.0353812
1.033821
1.0323284
1.0343896
1.039512
1.0481052
1.0537959
1.0531578
1.0526248
1.051397
1.048479
1.0484297
1.0419576
1.0485553
1.0587197
1.0583037
1.0611093
1.0789144
1.0819855
1.0774306
1.0873482
1.0818002
1.0747707
1.0942595
1.0988924
1.071008
1.0563788
1.0636519
1.0651647
1.0634508
1.0840728
1.0993668
1.0880118
1.0523204
1.0285649
1.0373525
1.070051
1.1111649
1.132635
1.1276063
1.1061174
1.0749519
1.0493743
1.0371902
1.0338236
1.0362813
1.0005137
1.0174735
1.0401427
1.0456572
1.0390853
1.0332234
1.030299
1.030986
1.0341184
1.03626
1.0341713
1.0321257
1.0353221
1.0408645
1.0491317
1.052297
1.0532123
1.0541095
1.0516282
1.0491215
1.049385
1.0423331
1.0483132
1.0578113
1.0573571
1.0607715
1.0770313
1.079938
1.0782094
1.0891992
1.0788278
1.073302
1.0956265
1.0990146
1.0698876
1.0534139
1.0612648
1.0692373
1.0727955
1.0861767
1.0925414
1.0824176
1.0593328
1.0397008
1.0406608
1.0598251
1.0935735
1.1260429
1.1345124
1.1145084
1.0772214
1.0437709
1.0313073
1.0368353
1.0479401
1.0007534
1.0174834
1.0397093
1.0449576
1.0383265
1.0337567
1.0310167
1.0314465
1.0345223
1.0367337
1.0345661
1.032709
1.0361911
1.0413604
1.049457
1.0512178
1.0537266
1.055359
1.0511638
1.0502024
1.0509356
1.0435282
1.0482718
1.0569593
1.0567275
1.0608958
1.0756495
1.0787796
1.0794278
1.0901201
1.0764343
1.0722661
1.0957076
1.0975523
1.0694736
1.0530247
1.058386
1.0690318
1.0803597
1.0906669
1.0874395
1.0722514
1.0615858
1.0536327
1.0517327
1.0591268
1.0769086
1.1036151
1.1241623
1.1178886
1.0867485
1.0525967
1.0342856
1.0366475
1.0506675
1.0009977
1.0176588
1.0394589
1.0444598
1.0375494
1.0338669
1.031122
1.0315858
1.0343172
1.0366292
1.0351458
1.0335097
1.0367167
1.0413238
1.0492917
1.0513862
1.0548081
1.0561298
1.0504504
1.0507573
1.0521249
1.0443316
1.0485888
1.056468
1.0560735
1.0613297
1.0749568
1.0786461
1.0815095
1.0903755
1.0750951
1.0721315
1.0955493
1.0956696
1.0701693
1.0547748
1.0552775
1.0656685
1.0844609
1.0958379
1.0868185
1.0631599
1.0549827
1.0615601
1.0658612
1.0664822
1.072332
1.0833361
1.0977652
1.1039077
1.0923326
1.0706965
1.0527803
1.0470712
1.0548823
1.0010987
1.0179028
1.0396737
1.0445803
1.0370315
1.0332961
1.0304704
1.0312265
1.0342404
1.0366134
1.0355099
1.0340313
1.0364951
1.0411289
1.0490901
1.0526305
1.0559479
1.0561182
1.0504139
1.0509682
1.0521912
1.0446436
1.0488189
1.0560371
1.0553482
1.0619133
1.0748762
1.0788663
1.0837075
1.090265
1.0744179
1.073176
1.0951792
1.0938126
1.0717177
1.0577611
1.0527382
1.0604831
1.0849468
1.1012027
1.089312
1.0584029
1.0441313
1.0589769
1.0749805
1.0792862
1.0788422
1.0783395
1.0742516
1.0760351
1.081593
1.0809807
1.07618
1.0712502
1.0697967
1.0009997
1.018164
1.0403187
1.0451317
1.0367725
1.0322834
1.0294485
1.0306274
1.034033
1.0364539
1.0354592
1.0337132
1.0356138
1.0410858
1.0488664
1.0539209
1.0566499
1.0555947
1.0509224
1.0512425
1.0512411
1.0441724
1.0487712
1.0559862
1.0547705
1.0623543
1.0748601
1.0787692
1.0855756
1.0899191
1.0741584
1.0751139
1.0945761
1.0921897
1.073752
1.0615069
1.050823
1.054571
1.0820229
1.10609
1.0942655
1.0589461
1.0359006
1.0493869
1.0736934
1.089783
1.0926016
1.085892
1.0665485
1.0514458
1.0575294
1.0740189
1.0876571
1.0949256
1.0952542
1.00075
1.0183057
1.0412268
1.0459644
1.0367697
1.0310966
1.0282198
1.0299602
1.0335584
1.0361955
1.0347558
1.032937
1.0346037
1.0411858
1.0484451
1.0545997
1.0566561
1.0547196
1.0516293
1.0515583
1.049756
1.043578
1.048463
1.055854
1.0541647
1.0622579
1.0741817
1.0776508
1.086824
1.0895978
1.0745187
1.0779703
1.0940425
1.0906161
1.0760149
1.0654107
1.0498439
1.0490292
1.0775681
1.107644
1.1002644
1.0634831
1.0341429
1.0388453
1.064302
1.0914107
1.1060896
1.0993897
1.0736254
1.0422579
1.0350035
1.0555965
1.0828317
1.104689
1.1152169
1.0004664
1.0183059
1.0421243
1.0468807
1.0369468
1.0301617
1.0270699
1.0292671
1.0330257
1.0358524
1.0338203
1.032119
1.0339732
1.0410593
1.0475832
1.0544503
1.0556972
1.0537693
1.0524292
1.0518364
1.0486745
1.0429973
1.0479957
1.0555226
1.0530372
1.0614597
1.0730997
1.0760893
1.0871773
1.0889617
1.0753886
1.0812401
1.0939298
1.0884403
1.077729
1.0690663
1.0505301
1.0452077
1.0725586
1.1048346
1.1046418
1.0698397
1.0385872
1.0339809
1.0526686
1.08392
1.1112212
1.1124691
1.0859748
1.048548
1.0264061
1.035847
1.0660374
1.0984459
1.121501
1.0002839
1.0182449
1.042739
1.0477403
1.0372125
1.0297828
1.026458
1.0288116
1.0325603
1.0352902
1.0328558
1.03144
1.0334555
1.0406036
1.0466781
1.054271
1.0546301
1.0529063
1.0530947
1.0521585
1.0480627
1.0424674
1.0474643
1.0550025
1.051788
1.060223
1.0718966
1.0744485
1.0865669
1.0879151
1.0768572
1.0849715
1.0940675
1.0859981
1.0778725
1.0717775
1.0524715
1.0445437
1.068447
1.0990711
1.1043187
1.0759728
1.0467504
1.0360531
1.0451607
1.072046
1.1063505
1.1193144
1.0985046
1.0609227
1.0313825
1.0272564
1.0484914
1.0808401
1.1126638
1.0002598
1.0182004
1.0429198
1.0483569
1.0375797
1.0300602
1.0266081
1.0286802
1.0320696
1.0346374
1.0321175
1.0308905
1.032924
1.0398653
1.0459342
1.0541773
1.0539435
1.0521998
1.0533714
1.0526283
1.0478657
1.0419819
1.046693
1.0542475
1.0508477
1.0589344
1.0706021
1.072989
1.0850818
1.0863789
1.078545
1.0888661
1.0948548
1.0837655
1.0765288
1.0732816
1.0551779
1.0473423
1.0674796
1.0924885
1.0986874
1.0798707
1.0551946
1.0433919
1.0437946
1.0628086
1.0941236
1.1160164
1.1060223
1.0743781
1.043505
1.0307172
1.0397295
1.063447
1.0951746
1.000378
1.018165
1.0428458
1.0487145
1.0380086
1.0307938
1.0273286
1.0289429
1.031681
1.0341731
1.0317523
1.0306738
1.0323443
1.038863
1.0453715
1.0539661
1.05371
1.05181
1.0535587
1.0531635
1.0478767
1.0417196
1.045758
1.0531614
1.0504546
1.0580803
1.0693344
1.0717174
1.0830511
1.0845524
1.0804071
1.092303
1.0960004
1.0817358
1.0738826
1.0731143
1.0586673
1.0526558
1.0691147
1.0867954
1.0900436
1.078662
1.0636924
1.0524976
1.0481313
1.0596752
1.081954
1.1026579
1.1054518
1.0841723
1.0589951
1.0416703
1.0401413
1.0532169
1.0774086
1.0005747
1.0181234
1.0426286
1.0488425
1.0384643
1.0318147
1.0283401
1.0294518
1.031522
1.0340036
1.0317265
1.0306503
1.0319025
1.0378289
1.044882
1.0535881
1.053616
1.0518821
1.0539314
1.0537274
1.0479715
1.0417841
1.0450733
1.0518708
1.0502626
1.0575524
1.0682577
1.0708397
1.0807651
1.082705
1.0821746
1.0949136
1.0973856
1.0805464
1.07001
1.0709116
1.0626081
1.0590803
1.0731004
1.083149
1.0800718
1.0717059
1.0691277
1.0616247
1.0561966
1.0625912
1.0752161
1.0884541
1.0936432
1.0879779
1.0720642
1.0562537
1.047199
1.0506877
1.0653865
1.0007733
1.018106
1.0423705
1.0487943
1.0390208
1.0328676
1.0293268
1.0299411
1.0316088
1.0340482
1.0319046
1.0307635
1.0316595
1.0369893
1.0445078
1.0531885
1.0536975
1.0526541
1.0543697
1.0542245
1.0481554
1.0422968
1.0447585
1.0506379
1.0502544
1.0570534
1.0671615
1.0704837
1.0784406
1.0806289
1.0836463
1.0969631
1.0989846
1.0802983
1.0658371
1.0668238
1.0657976
1.0658403
1.0784214
1.0830932
1.0718169
1.0621974
1.0690652
1.0692804
1.0662096
1.069118
1.0745923
1.0774723
1.0785659
1.082151
1.0797321
1.0692252
1.0586168
1.0553463
1.0611253
1.0009097
1.0181229
1.042192
1.0486796
1.0396439
1.0337945
1.0301573
1.0304278
1.0319216
1.0342472
1.0323835
1.0309574
1.0315601
1.0363774
1.0443109
1.0527714
1.05398
1.0539417
1.0546847
1.0545517
1.0484664
1.0431743
1.0448427
1.049615
1.0503519
1.056669
1.0659524
1.0705182
1.0761965
1.0785031
1.0848011
1.0984125
1.1006251
1.080857
1.0624307
1.0612916
1.0673646
1.072497
1.085182
1.0858798
1.0657074
1.052432
1.0636968
1.0736331
1.0763798
1.0792271
1.0792892
1.0719188
1.0653441
1.0701066
1.077532
1.0768672
1.0711381
1.0654709
1.0636374
1.000952
1.0181725
1.042199
1.0485785
1.0402159
1.0346104
1.0307269
1.0308031
1.0324803
1.0345933
1.032986
1.0311627
1.0317133
1.0360051
1.0442865
1.0523934
1.0544629
1.0554198
1.0548823
1.0546833
1.0488956
1.0443451
1.0451497
1.0487293
1.0504581
1.0562837
1.064692
1.0707942
1.0742699
1.0763112
1.0854791
1.0994173
1.1021249
1.0821328
1.0602196
1.0553256
1.0664386
1.0785073
1.0919699
1.0903031
1.0629886
1.0443803
1.0543578
1.0730647
1.0844032
1.0903658
1.0876429
1.0722783
1.0566711
1.0568541
1.0680727
1.0772394
1.080098
1.0772787
1.0721138
1.0008985
1.0182401
1.0423403
1.0485268
1.0407429
1.0352464
1.0310679
1.0310821
1.0331683
1.0351708
1.0335685
1.0314533
1.032123
1.0359084
1.0445271
1.0520743
1.0550268
1.0566898
1.0548956
1.0547428
1.0494097
1.0456107
1.045565
1.0478613
1.0505178
1.0560129
1.0634599
1.071204
1.0727491
1.0744993
1.0855875
1.1001339
1.1035666
1.0841027
1.0591982
1.0501008
1.0632409
1.0826866
1.0990254
1.0953829
1.0637798
1.0395214
1.044418
1.0673425
1.0883841
1.1010973
1.0979126
1.0772324
1.0532992
1.045648
1.0548564
1.0711392
1.0833295
1.0866482
1.0825807
1.0007996
1.0182996
1.0425549
1.0485027
1.0411806
1.0356881
1.0312564
1.0312749
1.033866
1.0356548
1.0339792
1.0315086
1.0326235
1.0358476
1.0448072
1.0518449
1.0552487
1.0577467
1.0548569
1.0547036
1.0498584
1.046784
1.0460446
1.0469471
1.0503893
1.0557963
1.0622326
1.0716981
1.0715376
1.072978
1.0850774
1.1002996
1.1046746
1.086567
1.0595478
1.0456078
1.0584038
1.0841663
1.1052325
1.1006599
1.0668127
1.0373914
1.035931
1.0580693
1.0875112
1.1095722
1.1090978
1.0851063
1.0546832
1.0384432
1.0422737
1.0610628
1.080765
1.0919716
1.0925761
1.0006665
1.0183471
1.0428013
1.0485024
1.0415214
1.0359756
1.0313594
1.0314219
1.0345061
1.03626
1.0344961
1.0317645
1.0332451
1.0360311
1.0453204
1.051865
1.05564
1.058454
1.0547794
1.0547757
1.0503608
1.0477846
1.0464458
1.0461329
1.0502495
1.0556653
1.061063
1.0721741
1.0705918
1.0718787
1.0842793
1.1005398
1.1057505
1.0891466
1.061191
1.0433207
1.0526562
1.0833062
1.1103651
1.1057945
1.0712955
1.0375668
1.0300193
1.0478502
1.0821766
1.1141799
1.1198621
1.0946686
1.059586
1.0351469
1.0324224
1.0500013
1.0734594
1.0930924
1.1002487
1.0005745
1.0183889
1.0429865
1.0484859
1.0417619
1.0361713
1.0313825
1.0315303
1.0350148
1.0365701
1.0346451
1.0316807
1.0336607
1.0360378
1.0453345
1.0516495
1.0556104
1.0589423
1.0546775
1.0548296
1.0506557
1.04843
1.046765
1.0454302
1.050011
1.0556486
1.0599605
1.0723197
1.069884
1.0705034
1.0828277
1.09996
1.1062075
1.0917094
1.0632841
1.0418917
1.0471669
1.0805001
1.1139935
1.110841
1.0766345
1.0396352
1.0263076
1.0388553
1.0737433
1.1144784
1.12939
1.1056653
1.0671888
1.0358749
1.0258539
1.0391958
1.0635279
1.0901153
1.1047136
1.0004809
1.0184356
1.0431459
1.0485002
1.0419189
1.0362557
1.0313892
1.031589
1.0353758
1.0369654
1.0349669
1.0318064
1.0340055
1.0361537
1.0457227
1.0519547
1.0556558
1.059337
1.0546392
1.0549301
1.0509125
1.0489522
1.0470078
1.0448642
1.0497285
1.0555959
1.0592132
1.0727742
1.0697495
1.0698943
1.0814465
1.1003261
1.106885
1.094691
1.0662014
1.0409851
1.0418783
1.0753171
1.1153105
1.1170509
1.0829833
1.0434082
1.0235996
1.0300277
1.0633995
1.1098666
1.1357037
1.1187315
1.0773088
1.0405454
1.0230274
1.0274193
1.0514477
1.0822957
1.1046643
1.0004291
1.0184041
1.0431239
1.0484878
1.0420455
1.036392
1.0314333
1.0316004
1.0354846
1.036994
1.0350505
1.0317958
1.0341237
1.0358699
1.0452685
1.0517129
1.0554879
1.0593925
1.0546214
1.0550551
1.0511718
1.0493304
1.0472202
1.044568
1.0491767
1.0552972
1.0579396
1.0720282
1.0696576
1.0692065
1.0791994
1.0978704
1.1067859
1.0971326
1.0714675
1.0442524
1.0394511
1.068825
1.10922
1.1189767
1.0896534
1.0526454
1.0274384
1.0271838
1.0535362
1.0970721
1.1308223
1.1244065
1.089279
1.0529289
1.0292499
1.0262485
1.0426693
1.07032
1.0956221
1.108734
1.1083034
1.1001666
1.0900431
1.0800267
1.0711476
1.0661319
1.0676599
1.0765008
1.0914909
1.1100652
1.1269386
1.1354191
1.1317668
1.1138597
1.0928109
1.0764648
1.0713515
1.0689911
1.0605602
1.0489183
1.0492057
1.0639607
1.0675704
1.039388
0.996617
0.99140604
1.081387
1.0731103
1.0645041
1.0582432
1.0554941
1.0572159
1.0643468
1.0765122
1.0932386
1.1111105
1.1244161
1.1288437
1.1240807
1.1117804
1.0985284
1.0901862
1.088449
1.0857331
1.0793682
1.072683
1.0768213
1.0929726
1.1024133
1.0807901
1.0256718
0.97321656
0.97142464
1.0472827
1.0403498
1.0401458
1.043946
1.050404
1.0595952
1.0704504
1.0811963
1.0891236
1.094343
1.094097
1.0889094
1.0818388
1.076694
1.0763436
1.0805554
1.0823677
1.0772918
1.0732344
1.0812058
1.1068239
1.1329995
1.1307017
1.0902873
1.0273085
0.98551353
0.97656399
1.0432442
1.047326
1.0570736
1.0661645
1.0751559
1.0815492
1.083334
1.0805078
1.0744849
1.0660495
1.0585264
1.0519979
1.0492381
1.0497113
1.0540415
1.0563299
1.0527536
1.0494849
1.0563806
1.0824527
1.1166812
1.1375524
1.1255015
1.082919
1.0401184
1.0191403
1.0058362
1.0815989
1.0926493
1.101042
1.1066093
1.1071617
1.1020815
1.0932963
1.0828085
1.07231
1.0632159
1.0557299
1.0533938
1.0531031
1.0531289
1.0498622
1.0398431
1.0295958
1.0296087
1.0456847
1.0739376
1.0951019
1.0971094
1.0778547
1.05369
1.0472923
1.0541745
1.0545381
1.1314773
1.1392685
1.1377261
1.1317677
1.1233796
1.113342
1.1025782
1.0932667
1.0857433
1.080636
1.0804817
1.0818483
1.0809058
1.0753707
1.0653369
1.0545808
1.0481674
1.0513659
1.060404
1.0646283
1.05776
1.03581
1.0130888
1.0137684
1.0376858
1.0703365
1.1052482
1.1381196
1.136994
1.1296124
1.1243564
1.1184833
1.1119089
1.1059118
1.1016813
1.1000504
1.1010563
1.1025338
1.1031407
1.1011839
1.0955603
1.0907343
1.0908766
1.0969313
1.102569
1.096939
1.0758671
1.0350079
0.9925596
0.97265973
0.98336448
1.0161789
1.0634706
1.125382
1.10813
1.1030873
1.0986732
1.0955312
1.093322
1.0924506
1.0925805
1.0929774
1.0940017
1.0953601
1.0955125
1.0954181
1.0964149
1.1010518
1.1130565
1.1291992
1.1435665
1.1465925
1.1306228
1.0940635
1.0444312
0.99971461
0.98015202
0.98354196
1.0055501
1.0510667
1.1012906
1.0868051
1.0834784
1.0821275
1.0812918
1.0798277
1.0777136
1.0749193
1.0719544
1.0685353
1.0659744
1.0650246
1.0685839
1.0784398
1.0952237
1.1172408
1.1380189
1.1490906
1.1456306
1.1252172
1.0938531
1.061395
1.0413367
1.0287129
1.02447
1.0331388
1.0534443
1.0579129
1.0869288
1.087121
1.0872644
1.085298
1.0814159
1.075615
1.0686014
1.0610588
1.0544693
1.0510112
1.052711
1.0607896
1.0744055
1.0902383
1.1033082
1.1090261
1.1049744
1.0914832
1.0734493
1.0598576
1.0595488
1.0710302
1.0835292
1.0904282
1.0936145
1.0808052
1.0281159
1.0919539
1.0897719
1.0859268
1.0810172
1.075508
1.0702551
1.0664388
1.0650291
1.0669791
1.0724665
1.0812979
1.0916185
1.0995469
1.0997507
1.0906626
1.0728323
1.0503115
1.0272478
1.012405
1.0143343
1.034247
1.0655339
1.104416
1.1425063
1.1593804
1.1167619
1.0297123
1.0745542
1.0712669
1.0683662
1.0660857
1.0653872
1.0669454
1.0714062
1.0791882
1.0901947
1.10298
1.1143567
1.1215828
1.1199329
1.108487
1.0865511
1.0556638
1.024613
1.0012304
0.99138708
0.99568363
1.0140435
1.0462432
1.0903307
1.1368076
1.1577189
1.1223819
1.0558561
1.0514583
1.0496028
1.0514897
1.0558293
1.0628702
1.0721317
1.0832313
1.0952497
1.1064033
1.1147202
1.1180447
1.114509
1.1049176
1.0888259
1.0670828
1.0456593
1.0294191
1.0192358
1.0175594
1.0237963
1.0344605
1.0513968
1.0733234
1.0900476
1.0818703
1.0627929
1.0621617
1.0584749
1.0624604
1.0688962
1.0756242
1.0835688
1.0914385
1.0978771
1.1014209
1.100627
1.0954659
1.0857224
1.0729365
1.056847
1.0407189
1.0289362
1.0249417
1.0292926
1.0417198
1.0584559
1.0743404
1.0867908
1.0916408
1.0823687
1.0491351
1.0048408
0.98910367
1.0142852
1.1050132
1.1130938
1.1189995
1.1225802
1.1227076
1.1187817
1.1112741
1.1001396
1.0853514
1.0680973
1.0485862
1.0279568
1.0112541
1.0004797
0.99754298
1.003556
1.0205317
1.0465444
1.0791028
1.1144637
1.1398082
1.1381754
1.1055405
1.0398216
0.97346037
0.95267349
0.95969754
1.1586481
1.162746
1.159898
1.1534089
1.143828
1.1313814
1.1159992
1.0979445
1.0779698
1.0567846
1.0358662
1.0178981
1.0042885
0.9978198
0.99860929
1.0066039
1.0237566
1.0510336
1.0852869
1.1201215
1.1443029
1.1405714
1.1037621
1.0464022
0.99724245
0.96832281
0.94788687
1.1545045
1.1502116
1.1418208
1.1334488
1.1233705
1.1114366
1.0982164
1.0844704
1.0711554
1.0593742
1.0497203
1.0424053
1.0382556
1.037651
1.0417236
1.051678
1.0664002
1.0825118
1.0982581
1.1059316
1.1016339
1.0799518
1.0527853
1.0346932
1.02675
1.0130847
0.98532565
1.0921826
1.0842049
1.0760422
1.0686045
1.0615628
1.0555501
1.0510119
1.0482815
1.0477842
1.0498587
1.0552802
1.064118
1.0760907
1.0921006
1.1105459
1.1280349
1.1397928
1.1427779
1.1280511
1.0980454
1.0529715
1.0107665
0.98825861
0.99592735
1.022469
1.0407756
1.051446
1.0191863
1.0099995
1.004533
1.0002605
0.99718888
0.99584038
0.99704133
1.0015852
1.0102125
1.0238389
1.041923
1.0643977
1.0928304
1.12625
1.1604875
1.1869218
1.1970829
1.1874406
1.1548555
1.1019503
1.0412708
0.99165709
0.96437507
0.96583976
0.98739604
1.0315029
1.1020159
0.9654165
0.96025949
0.95872126
0.95847718
0.95961681
0.96279589
0.96875369
0.97785818
0.9906423
1.0080486
1.0320501
1.0624553
1.0959511
1.1278943
1.1540977
1.1698525
1.1709667
1.1571413
1.1312072
1.098191
1.0621808
1.0308479
1.0039236
0.98674828
0.98327514
1.0230024
1.1050028
0.94258126
0.94084377
0.94395889
0.94776668
0.95373629
0.9624871
0.97440465
0.98959997
1.0081184
1.0301311
1.0527482
1.0727125
1.0876471
1.0957035
1.0965437
1.0903993
1.0780867
1.0638345
1.0541352
1.0537394
1.0607013
1.0693115
1.0690756
1.0541025
1.0453598
1.0593206
1.0922487
0.9538148
0.9565122
0.96504327
0.97303876
0.98411961
0.99780092
1.013809
1.0307531
1.0474307
1.0615025
1.0693872
1.0695969
1.06103
1.0450459
1.0251135
1.0044534
0.98457569
0.97537027
0.97567952
0.99004233
1.0189788
1.0558794
1.0954336
1.1277317
1.1470532
1.1413514
1.1045153
1.0113145
1.0186999
1.027806
1.0382318
1.0497574
1.0609508
1.0701863
1.0747774
1.0740372
1.0673896
1.0545367
1.0368845
1.0142876
0.98980463
0.96636427
0.94537172
0.92980187
0.92452367
0.93132684
0.94839812
0.97368657
1.0130447
1.0698287
1.1453022
1.2140935
1.2187416
1.132478
1.1140448
1.1229367
1.1279836
1.1302995
1.1286095
1.1219341
1.1107019
1.095331
1.0753872
1.0523545
1.0264109
0.99901973
0.97329558
0.95011121
0.93032211
0.91419857
0.90876301
0.90931559
0.91705851
0.93231072
0.9557873
0.98955938
1.0440381
1.1153451
1.1816778
1.1992872
1.1356355
1.2069859
1.2108166
1.2055938
1.1945701
1.1784902
1.157991
1.1329762
1.1037107
1.072703
1.0407593
1.0099716
0.98213215
0.9579241
0.93776306
0.92250803
0.91451038
0.91235664
0.91533738
0.92224609
0.93643812
0.9614708
0.99874611
1.0408042
1.0755766
1.0981516
1.0844851
1.070836
1.2200806
1.2188674
1.2077736
1.1951884
1.1791097
1.1584212
1.1340145
1.1062999
1.0782213
1.0506681
1.0239445
0.99919429
0.97761986
0.96077123
0.94970577
0.94267365
0.93916715
0.94047675
0.94803102
0.96321691
0.98844127
1.0216325
1.0443185
1.0398579
1.0069577
0.97440035
0.97097218
1.1527825
1.1462764
1.138656
1.1297536
1.1201091
1.1099355
1.0992169
1.088201
1.0769445
1.0643649
1.0509107
1.0372017
1.0242511
1.0132457
1.0037404
0.99560018
0.99025446
0.98974216
0.99768187
1.014109
1.034533
1.0450199
1.0339736
0.99759466
0.94561717
0.89783114
0.89597018
1.0481341
1.0430343
1.038984
1.0366637
1.0357763
1.0363061
1.0384815
1.0422184
1.047277
1.0528578
1.0591772
1.0652622
1.0704101
1.0732357
1.0731533
1.0714935
1.0697933
1.0711721
1.0758727
1.0814371
1.0760434
1.0515137
1.00825
0.95396624
0.90193192
0.8669676
0.86277166
0.95917029
0.95405456
0.95244977
0.95349039
0.95699744
0.96298046
0.97170287
0.98357445
0.99908482
1.0182315
1.039984
1.0640487
1.0881407
1.1107207
1.1316928
1.1498569
1.1633232
1.1707709
1.1687701
1.1470814
1.1059146
1.0476491
0.98226067
0.92161715
0.8729329
0.85563402
0.85227093
0.90057282
0.8977771
0.89871522
0.90136909
0.90584945
0.91276045
0.92306633
0.93748189
0.95649754
0.98013694
1.0081466
1.0394738
1.0747828
1.115247
1.1587091
1.2009648
1.2351927
1.2498942
1.2358672
1.1902698
1.1204634
1.0416815
0.97043085
0.90992126
0.86823739
0.85705769
0.85323342
0.87634187
0.87571886
0.87833272
0.88241636
0.88787623
0.89499755
0.90440766
0.91674796
0.93282518
0.95362761
0.98017204
1.0137458
1.0552588
1.1042414
1.1574138
1.2075492
1.2451246
1.2597947
1.243106
1.1955616
1.1261365
1.0498393
0.98045532
0.91923311
0.8839334
0.86804482
0.86095977
0.87952624
0.88081722
0.88468899
0.8895683
0.89568135
0.90304185
0.912071
0.92290646
0.93658703
0.95448925
0.97855847
1.0101015
1.0476352
1.089381
1.13124
1.1666453
1.1916951
1.1972979
1.1830184
1.1537178
1.1114851
1.0606196
1.0060755
0.95470828
0.92133255
0.89511094
0.88649909
0.90446227
0.90654611
0.91011637
0.91484832
0.92093521
0.92871778
0.93840537
0.95024315
0.96455616
0.98178826
1.0018016
1.024272
1.0471495
1.0681974
1.0858715
1.0978869
1.101814
1.0993702
1.0917368
1.0828627
1.071969
1.054043
1.0288715
0.99849862
0.96934706
0.93944719
0.93504647
0.95011541
0.95160786
0.95388994
0.95730428
0.9624301
0.9696474
0.97934367
0.99114694
1.0040726
1.0164775
1.0271468
1.0345427
1.0375497
1.0357627
1.028711
1.0182862
1.0069533
1.0007427
1.001542
1.0082036
1.0188133
1.0277374
1.0329362
1.0319275
1.0178586
0.99951317
1.0061114
1.0073042
1.0088199
1.0110081
1.0139683
1.0178324
1.0225237
1.027765
1.0329921
1.0371079
1.0388415
1.0366816
1.0291223
1.0156805
0.99700185
0.97460916
0.95180194
0.93327219
0.92360805
0.92682159
0.94205498
0.96343763
0.98928719
1.0173476
1.04494
1.058378
1.0687023
1.0944461
1.0756528
1.0766157
1.0774989
1.0780759
1.0779387
1.0764203
1.0728495
1.0664916
1.0567559
1.0437013
1.0274814
1.0073281
0.98308713
0.95568945
0.92773882
0.90293241
0.88424183
0.87389354
0.87597013
0.89120273
0.91521754
0.94814119
0.9923373
1.0397913
1.0846822
1.1343286
1.182523
1.144723
1.1441616
1.1418735
1.1373621
1.1302036
1.1198494
1.1059581
1.088212
1.0661393
1.0395772
1.0118647
0.98224101
0.95123705
0.92050331
0.8921699
0.86862755
0.85189501
0.84441567
0.84597639
0.85701564
0.87927037
0.9142052
0.96481376
1.0280191
1.1040495
1.19081
1.2555249
1.2036651
1.2008345
1.1940643
1.1832075
1.1682557
1.1489893
1.1252392
1.0970466
1.0646477
1.0298985
0.99383213
0.95842346
0.92483999
0.8945537
0.86904821
0.84883577
0.83464953
0.82816141
0.8287274
0.83718642
0.85724436
0.89191658
0.94602891
1.0190848
1.1177128
1.23202
1.30266
1.2443475
1.2399131
1.2298325
1.2141446
1.1929215
1.1661109
1.1339845
1.0975601
1.0581546
1.0176239
0.97759527
0.94004046
0.90655231
0.87812213
0.85550722
0.83838618
0.82629125
0.82066984
0.82092409
0.8284423
0.84751786
0.88270458
0.93757388
1.019411
1.1334806
1.2569235
1.3180953
1.2627912
1.25722
1.2449895
1.2262161
1.2011153
1.1701437
1.1341793
1.0944161
1.0527933
1.0106782
0.96955468
0.93109279
0.89742095
0.87021455
0.8495601
0.83457791
0.82407674
0.81803894
0.81782612
0.82590583
0.84546058
0.88268041
0.94167724
1.0306679
1.1493907
1.2645016
1.3084881
1.2604535
1.2546657
1.2419222
1.2224459
1.1968574
1.1658539
1.1305674
1.0917888
1.0510374
1.0096931
0.9693044
0.93105763
0.89720456
0.87045982
0.84990522
0.83478963
0.8236072
0.81737373
0.81758257
0.8265943
0.84856857
0.88898933
0.95372783
1.0475502
1.1611006
1.2635107
1.2815592
1.2443638
1.2392403
1.2276935
1.2101437
1.1868249
1.1576517
1.1244189
1.0883734
1.0508627
1.0123393
0.9752363
0.93932874
0.90651542
0.87818764
0.85507475
0.83704377
0.82406616
0.81762705
0.81917366
0.83052259
0.85549764
0.89992187
0.96927365
1.0646718
1.1714573
1.2488317
1.2437347
1.224051
1.2195272
1.2089391
1.1929936
1.1721774
1.1470699
1.1183982
1.0870021
1.0533405
1.0181053
0.98249636
0.9474047
0.91469698
0.88570016
0.86149863
0.84273927
0.82939334
0.82222078
0.82327692
0.83564701
0.86349816
0.91188643
0.98341698
1.0788895
1.1725036
1.2365476
1.2066084
1.208418
1.2040479
1.1944031
1.179963
1.1611413
1.1384188
1.1123514
1.0835851
1.0523638
1.0191384
0.98473784
0.95022299
0.91782502
0.88950948
0.86647313
0.84929563
0.8373743
0.83074618
0.83172862
0.8436113
0.87172492
0.92091873
0.99609185
1.0891969
1.1746952
1.2164926
1.1771708
1.1987733
1.1943206
1.1848166
1.1708459
1.1528977
1.131493
1.1070665
1.0801735
1.0509472
1.0195373
0.98665221
0.95310487
0.92092735
0.89273152
0.87033556
0.85484873
0.84405002
0.83857571
0.8396825
0.85114474
0.87963335
0.93009802
1.0052316
1.0941249
1.1700308
1.2002201
1.1546397
1.1916833
1.1873699
1.178119
1.1645952
1.1474416
1.1272286
1.1043245
1.079008
1.0514692
1.0219883
0.99100499
0.95891766
0.92759626
0.89954702
0.87698329
0.86020529
0.8485211
0.84222814
0.84312281
0.85521536
0.88416793
0.93562102
1.0121841
1.0984633
1.1681061
1.1926168
1.1455604
1.1899625
1.18633
1.1771742
1.1639683
1.1473256
1.1276788
1.1054825
1.0809762
1.0546203
1.0264126
0.99632504
0.96473423
0.93366373
0.9056238
0.88231005
0.86406046
0.85053308
0.84261968
0.84363372
0.85726361
0.88675966
0.93955118
1.0178415
1.1043145
1.172736
1.1975763
1.1485209
1.1967215
1.1939955
1.1860407
1.174559
1.159115
1.139788
1.1167427
1.0904725
1.0611909
1.0296355
0.99725609
0.96454442
0.93357144
0.90543938
0.88181674
0.86312836
0.84957843
0.84196388
0.84376446
0.85811637
0.88900541
0.94234087
1.0237244
1.1157279
1.1900029
1.2175062
1.1614368
1.2203762
1.2169008
1.2084606
1.1961288
1.1794269
1.1580181
1.1321057
1.1022359
1.0689608
1.0335871
0.99710844
0.96101879
0.92751363
0.89787296
0.87369436
0.85540831
0.84335566
0.83778217
0.84129966
0.85712548
0.89105085
0.94886309
1.0297321
1.1260433
1.215536
1.2494023
1.1796977
1.2522604
1.2472381
1.2365997
1.2213744
1.2013948
1.1764247
1.1465679
1.1124809
1.0743195
1.0336438
0.99202815
0.95152647
0.91478134
0.88393745
0.85982809
0.84278026
0.83331238
0.83170893
0.83724364
0.8554888
0.89247005
0.95387729
1.0380571
1.1388437
1.2417827
1.2876323
1.2034912
1.2733856
1.2672023
1.2538412
1.2348525
1.2109456
1.1823534
1.1492185
1.111987
1.0707229
1.0274274
0.98391624
0.94252088
0.9052987
0.87366792
0.84874763
0.83206231
0.82488593
0.82665525
0.83637718
0.85805233
0.89696439
0.95697806
1.0402054
1.1508114
1.2724246
1.3213277
1.2088616
1.2561896
1.2513641
1.2383341
1.2195571
1.195904
1.1678537
1.1358952
1.1005681
1.0625387
1.0235709
0.98408228
0.94537295
0.90961658
0.87812955
0.85351849
0.83661156
0.82815258
0.8291339
0.84087203
0.86306336
0.89984553
0.95612969
1.0427564
1.1698918
1.3031691
1.3399704
1.1953381
1.1929513
1.1929066
1.1861623
1.1745453
1.1587716
1.1393587
1.1166105
1.0903945
1.0612627
1.0300505
0.99719254
0.96348776
0.93152217
0.90191786
0.87641138