/*--------------------------------*- C++ -*----------------------------------*\
| =========                 |                                                 |
| \\      /  F ield         | OpenFOAM: The Open Source CFD Toolbox           |
|  \\    /   O peration     | Version:  2406                                  |
|   \\  /    A nd           | Website:  www.openfoam.com                      |
|    \\/     M anipulation  |                                                 |
\*---------------------------------------------------------------------------*/
FoamFile
{
    version     2.0;
    format      ascii;
    arch        "LSB;label=32;scalar=64";
    class       surfaceScalarField;
    location    "6";
    object      phi;
}
// * * * * * * * * * * * * * * * * * * * * * * * * * * * * * * * * * * * * * //

dimensions      [1 0 -1 0 0 0 0];

oriented        oriented;

internalField   nonuniform List<scalar> 
123996
(
0.0034752185
7.7292788e-05
-0.00012337715
0.0032914582
0.00021018135
-0.00021528206
0.0031191686
7.3167839e-05
-4.5368176e-05
0.003098409
-0.00020585314
0.00015317595
0.0031197516
-0.00013274403
9.0942921e-06
0.0030850114
-1.435353e-05
-4.9287593e-05
0.0029889459
-6.3562939e-06
-4.5434297e-05
0.0028400927
-0.00016621569
0.0001184191
0.0027006912
-0.00030685783
0.00044829455
0.0026072894
-0.00043215511
0.00061705567
0.0025412737
-0.00057137919
0.00059015401
0.0024538627
-0.0006595432
0.0007000273
0.0023455357
-0.0007207553
0.00088183615
0.0022246239
-0.00081479246
0.00090680912
0.0021381394
-0.00079939224
0.00089022957
0.0020917538
-0.00083654467
0.00089002142
0.0020783406
-0.00085344243
0.00093993069
0.00212075
-0.00086922546
0.0010247202
0.0021547451
-0.00082176989
0.00090292227
0.002094971
-0.00077630925
0.00080167182
0.0021190846
-0.00075767666
0.00076526188
0.0022091956
-0.00059919314
0.00057852491
0.0020809827
-0.00040270155
0.0003688122
0.0018909607
-0.00046659604
0.00046237761
0.0020231135
-0.0003921255
0.00041718621
0.0020179956
-0.00025569681
0.00019675885
0.0017560902
-0.00032595305
0.00023075639
0.0018643473
-0.00041151325
0.00037968635
0.0020773632
-0.00026267091
0.00029623076
0.0019224777
-0.00018753244
0.00020170365
0.0019032154
-0.0002573036
0.00027408741
0.0020673513
-0.0001993039
0.00026316552
0.0018640334
-0.00015417366
0.000245705
0.0018753973
-0.00019607758
0.00030926459
0.0023813961
-5.612978e-05
0.00011081009
0.0025528893
0.00011597732
-0.00017842419
0.0023564414
0.00014707364
-0.00026067725
0.0024234022
0.00025784522
-0.00023611002
0.0026450445
0.00036416955
-0.00035656327
0.002497719
0.0002918311
-0.0004212785
0.0020404437
0.00013415524
-0.00029669707
0.0019327772
0.00016680439
-0.00018660984
0.0025084207
0.00041848237
-0.00031823943
0.0033058115
0.00073472473
-0.00064885555
0.0037025695
0.00092892229
-0.0010123546
0.0037538484
0.00099526117
-0.0011794882
0.0036761063
0.00091695104
-0.0011738178
0.0034798381
0.00075166076
-0.0010853512
0.0030890799
0.0005877143
-0.00096256837
0.0026172845
0.00052189669
-0.00081527965
0.0024350842
0.00058408464
-0.0006774934
0.0027933982
0.00067031572
-0.00063101047
0.0034979412
0.00077249699
-0.00069682741
0.0042648604
0.0008148462
-0.00081276929
0.00092331182
0.0048422588
-0.00099797101
0.0033163612
7.0330524e-05
0.0031351196
0.00018686492
0.0029649617
7.7911153e-05
0.0029543498
-0.00018896132
0.002972127
-0.00017748807
0.0029361221
-0.00010036492
0.0028347038
-0.00013436712
0.0027032912
-0.00018744253
0.002580207
-0.00020962795
0.0024859322
-0.0003759005
0.00242582
-0.00056235372
0.00235356
-0.00056081658
0.0022569377
-0.00050835335
0.0021531502
-0.00062425602
0.0020609494
-0.00070989471
0.0020176277
-0.00083024024
0.0020055409
-0.00086649285
0.0020512793
-0.00074851676
0.002081747
-0.00074013786
0.0020219924
-0.00073469752
0.0020647437
-0.00068950524
0.0021595227
-0.00054480217
0.0020077819
-0.00043870989
0.001864811
-0.00050912266
0.001979643
-0.00039402009
0.0019379679
-0.00029417271
0.0016848849
-0.00042976958
0.001816772
-0.00046001125
0.002009392
-0.00025127731
0.0018340182
-0.00022168724
0.0018312478
-0.00026629812
0.0020116515
-0.0001478946
0.0018317612
-0.00014453169
0.0018463678
-0.00016812792
0.0021786655
-6.1296386e-06
0.0023232219
0.00011733867
0.0023288943
0.00014921374
0.0023897745
0.00031032793
0.0024132443
0.00038835577
0.0022513707
0.00020889231
0.0020897265
4.346456e-05
0.0021534127
0.00018721885
0.0025651868
0.00050681873
0.0031323252
0.00078893295
0.0034154331
0.00085756563
0.0033224079
0.00078842476
0.0030989118
0.00063444237
0.0029145096
0.00043695243
0.0028214707
0.00029891428
0.0027693562
0.00030916706
0.0027221685
0.00046334227
0.0028489537
0.00068988265
0.0032879183
0.00090747962
0.0038772294
0.00098777423
0.0010127456
0.0044445877
0.0031630985
9.8801688e-05
0.0029841545
0.00019207344
0.0028188115
7.2735805e-05
0.0028127297
-0.00010001994
0.002830371
-0.00010912464
0.0027892004
-0.0001649483
0.0026940242
-0.00021458711
0.0025748824
-0.00019329634
0.0024501678
-0.00024854158
0.0023564596
-0.00036486119
0.0023107275
-0.00042006834
0.0022481057
-0.00042648492
0.0021462303
-0.00046710777
0.0020464305
-0.00060669328
0.0019475336
-0.00069112275
0.001907105
-0.00078411136
0.0019117097
-0.00080343403
0.0019386151
-0.00066715186
0.0019750039
-0.00068521771
0.0019251359
-0.00067257732
0.0019749994
-0.00058218272
0.0020665475
-0.00041929527
0.0019012014
-0.0004190568
0.0017845075
-0.00052820411
0.0018765369
-0.00038689071
0.0018093824
-0.00030152208
0.0015888305
-0.000462442
0.0017436013
-0.00045503599
0.0018991241
-0.00025268787
0.0017330247
-0.00027984111
0.0017651931
-0.00030228044
0.0019114221
-0.00012884328
0.0017467913
-0.00017153167
0.0017841575
-0.00020776859
0.0020531029
-4.0649689e-06
0.0021861073
0.0001583714
0.0023261126
0.00019412789
0.0023743583
0.00031207675
0.0022044408
0.00036247436
0.0020059679
0.00019641623
0.0020918237
3.5741071e-05
0.0023167721
0.00017735769
0.0026040059
0.00053014147
0.002883318
0.00080411248
0.0030432673
0.0008055086
0.0029079717
0.00062875169
0.0026194059
0.00043744099
0.0024090095
0.00026917759
0.0025081882
0.00020823777
0.0027608497
0.0002458934
0.0029719239
0.0003855851
0.0031191097
0.00060362717
0.0032936416
0.00086947624
0.0035706569
0.0010302878
0.0011013377
0.0038891475
0.0030178519
0.00011147687
0.0028398106
0.00021331716
0.0026815692
9.0689713e-05
0.0026845736
-2.8900591e-05
0.0026974356
-4.6541953e-05
0.002654673
-0.00013661296
0.0025702077
-0.00015801694
0.0024555387
-0.0001961423
0.0023323588
-0.0002855713
0.0022474969
-0.00032901843
0.0022095348
-0.00033960437
0.0021491695
-0.00039197611
0.002044008
-0.00046953888
0.0019538426
-0.00050586805
0.0018572678
-0.00056446056
0.001823499
-0.00065274426
0.0018446922
-0.00067715239
0.0018488599
-0.00060782724
0.0018929464
-0.00063964091
0.0018610784
-0.00060121131
0.0019184624
-0.00049684652
0.0019927946
-0.0003115028
0.0018249446
-0.00036760641
0.0017419892
-0.00048210182
0.0018133684
-0.00033537652
0.0017195913
-0.00025898146
0.0015366915
-0.00041512511
0.0016922362
-0.00037862236
0.0017950592
-0.00023249142
0.0016546118
-0.00032746689
0.0017295057
-0.00032514442
0.0018022683
-0.00014083552
0.0016458228
-0.00023349623
0.0017515772
-0.00028429182
0.0019990342
-4.5019999e-05
0.002064095
0.00017460093
0.0022629579
0.00025828038
0.0023188068
0.00029203696
0.0020466638
0.00027402153
0.0017992217
0.0001515911
0.002027986
7.6753741e-05
0.0024511044
0.00019943642
0.0027115273
0.00048707169
0.0027253248
0.00073664073
0.0026937304
0.0007687009
0.0025653697
0.00056693643
0.0023141325
0.00032431558
0.0021596598
0.00020125575
0.0023092761
0.00022002576
0.0026681009
0.00030279069
0.0030706701
0.0004150743
0.0033711537
0.00054884685
0.0034982796
0.00072570096
0.0035061445
0.00084840208
0.00095981316
0.0035131444
0.0028798326
9.4047351e-05
0.0027045932
0.00020717302
0.0025536725
0.00012551405
0.0025574155
2.8358769e-05
0.0025679708
7.6142464e-06
0.0025318112
-4.2406434e-05
0.0024536347
-7.1010646e-05
0.0023409258
-0.00016766974
0.0022222297
-0.00027468706
0.0021438738
-0.00034972437
0.0021048118
-0.0003816276
0.0020452094
-0.0003762128
0.0019523917
-0.00037077373
0.0018686388
-0.00033880718
0.0017707617
-0.000445444
0.0017393254
-0.00054978258
0.0017609533
-0.00059060619
0.0017474027
-0.00059306335
0.0018021528
-0.0005997633
0.0017836902
-0.00054815013
0.0018457108
-0.00045614387
0.0018948344
-0.00028582015
0.0017386498
-0.0003433392
0.0016902598
-0.00041137888
0.0017482456
-0.0002777322
0.0016290918
-0.00022326926
0.0014841918
-0.00034571807
0.0016267072
-0.00028636663
0.001673949
-0.00019484939
0.0015731997
-0.00034092446
0.0016962718
-0.00030773862
0.0016820721
-0.00015363077
0.0015315956
-0.00028315381
0.0017123509
-0.00033149059
0.0019634951
-6.7562741e-05
0.001980612
0.00017886892
0.0021335014
0.00028713754
0.0022195097
0.00025737666
0.0019402349
0.00017969227
0.0016705187
6.5855137e-05
0.0019082513
8.9155441e-05
0.002444296
0.00024968491
0.002746703
0.00045585554
0.0026645908
0.00060738089
0.002426306
0.00065114935
0.0022390037
0.00053938576
0.0020888282
0.00031536917
0.0020402607
0.00017215327
0.0021970596
0.00019898597
0.0025333762
0.00032367203
0.0029679651
0.00048822219
0.0033521092
0.00058529661
0.0035414667
0.00064765602
0.0034852513
0.00064979858
0.00068173116
0.0033271437
0.0027472582
6.5112903e-05
0.0025752139
0.00016567259
0.0024322554
0.0001612002
0.0024403815
6.6353362e-05
0.0024520307
6.2077866e-05
0.0024228405
5.1107232e-05
0.0023457899
-1.0972366e-05
0.0022363409
-0.00012163379
0.0021211413
-0.00027042181
0.0020448769
-0.00040143201
0.0020076372
-0.00041279932
0.0019543799
-0.00036684173
0.0018733689
-0.00031902428
0.0017846475
-0.00031017592
0.0016885208
-0.00045000506
0.0016595876
-0.0005271427
0.0016803432
-0.00052955204
0.0016640171
-0.00059423274
0.0017222456
-0.00056340257
0.0017083748
-0.00051773909
0.0017736308
-0.00046250456
0.0018042952
-0.00032310962
0.0016678606
-0.00034393161
0.0016439002
-0.00036383395
0.0016893408
-0.00024122007
0.0015576852
-0.00020989793
0.0014466816
-0.00029072769
0.001564118
-0.00021262615
0.0015550096
-0.00017688546
0.0015049674
-0.00033754644
0.0016586644
-0.00026186674
0.0015689783
-0.00015169366
0.0014269392
-0.00029560673
0.0016778428
-0.00031949798
0.0019404
-6.4880878e-05
0.0019266575
0.0001641134
0.0019844742
0.00026992009
0.0020839617
0.00022963539
0.0018413038
9.0218043e-05
0.0016068624
-2.4827705e-05
0.0017947689
6.5131672e-05
0.0023206851
0.00028336213
0.0026650355
0.00043889605
0.00259903
0.00048677399
0.0022921659
0.0004650367
0.0019949106
0.00043490506
0.0018767748
0.00033414168
0.0019309804
0.00021197678
0.0021343863
0.00019552118
0.0024706937
0.00029832128
0.0028413101
0.00048494038
0.0031518256
0.00061756573
0.0033331567
0.00066318009
0.0033306671
0.0005865326
0.00051533538
0.003191844
0.002619971
4.9869855e-05
0.0024538897
0.00012055137
0.0023171026
0.00017416954
0.0023258531
8.7282032e-05
0.0023363855
0.00011492398
0.0023083323
0.00010734846
0.0022356988
2.5068073e-05
0.0021285563
-8.5707161e-05
0.0020173993
-0.00027412309
0.0019483036
-0.00040303322
0.0019152176
-0.0004307346
0.0018698836
-0.00036025171
0.0017925443
-0.00034423879
0.0016982548
-0.00036168879
0.00161047
-0.00046163698
0.0015865642
-0.00046303107
0.0015974138
-0.0004363632
0.0015886771
-0.00055891676
0.0016450564
-0.00049029522
0.0016299875
-0.00046710242
0.0016965307
-0.00046221419
0.0017168882
-0.00036937911
0.0016013508
-0.00036199019
0.001589247
-0.00035088653
0.0016215194
-0.00022328197
0.0014896914
-0.00020165431
0.0014033899
-0.00025456529
0.0014938545
-0.00017574649
0.0014425822
-0.00017457569
0.0014466819
-0.0003098968
0.0016120532
-0.00019661332
0.0014710244
-0.00013409089
0.0013440318
-0.00028560739
0.0016382382
-0.00025770306
0.0019060291
-2.9568851e-05
0.0018866516
0.00014452106
0.0018569097
0.00022320161
0.0019245039
0.00020670233
0.0017430252
3.1385559e-05
0.0015874222
-8.6702203e-05
0.0017283762
2.744145e-05
0.0021526104
0.00029055474
0.0024847868
0.00043304786
0.0024690401
0.00039507825
0.0022358715
0.00030396191
0.0019046668
0.00026356646
0.0017189754
0.00029094429
0.0017834183
0.00027429668
0.0020196911
0.00026956661
0.0024084235
0.00033042618
0.0027727187
0.00046447348
0.0029723299
0.00057804075
0.0030507364
0.00063407618
0.0030484781
0.00056767889
0.0004684927
0.0029853039
0.0024982468
5.2680244e-05
0.0023386396
0.00010635179
0.002205156
0.0001752806
0.0022161424
8.6215809e-05
0.0022256431
0.00013616249
0.0021987169
0.00013512477
0.0021291975
5.7572515e-05
0.0020250304
-7.0494213e-05
0.0019211904
-0.0002636567
0.0018570253
-0.00038681679
0.0018278626
-0.00042264423
0.0017846635
-0.00038140943
0.0017092275
-0.00039656626
0.0016141936
-0.00041322514
0.0015379951
-0.00045806605
0.001517697
-0.00041920825
0.0015141496
-0.00040166248
0.0015209262
-0.00053545901
0.001569674
-0.0004352137
0.00154935
-0.00044218448
0.0016157549
-0.00044362522
0.0016335995
-0.00038450465
0.001534707
-0.000366026
0.001531473
-0.00033254723
0.0015549645
-0.0002097853
0.0014302483
-0.00019335072
0.0013574938
-0.00023449784
0.0014221044
-0.00015907007
0.0013429794
-0.00018311003
0.0013944335
-0.00027673064
0.001552603
-0.00014033832
0.001384349
-0.00011532951
0.0012789017
-0.00026496266
0.001581152
-0.00019029396
0.0018453583
1.6270149e-05
0.0018382931
0.00012191737
0.0017665311
0.00017689182
0.0017591899
0.00019825951
0.0016251817
1.5490478e-05
0.0015676802
-0.00011700387
0.0017217695
-6.801231e-06
0.002009842
0.00027906917
0.0022515649
0.00043919658
0.0022745379
0.00035433511
0.0021443298
0.00021052677
0.0019096743
0.00012711108
0.0016838042
0.00016283683
0.0016632897
0.00026201014
0.0018890209
0.00035220985
0.0022826767
0.00043081782
0.0026595112
0.00050625003
0.0028323915
0.00053636713
0.0028240841
0.00054681535
0.0027552486
0.00049436623
0.00043006567
0.0026957357
0.0023820816
6.578443e-05
0.0022291624
0.00012121434
0.0020983766
0.00015976708
0.0021117923
7.1476498e-05
0.0021201491
0.00012631582
0.0020939006
0.00013171147
0.0020275039
7.6636808e-05
0.0019253921
-5.7269092e-05
0.0018282034
-0.00023353335
0.0017701463
-0.00035262476
0.0017446243
-0.00040948447
0.0017010873
-0.00042113629
0.0016281918
-0.00045179924
0.0015372482
-0.00044241014
0.0014700854
-0.00044050221
0.0014492154
-0.00041119094
0.0014333298
-0.00041857677
0.0014577754
-0.00051620415
0.0014948047
-0.00039517872
0.0014756507
-0.00042614066
0.001543627
-0.00040602097
0.0015639575
-0.00035321543
0.0014751528
-0.00035760647
0.0014761713
-0.00032517227
0.0014913267
-0.00021102241
0.00137415
-0.00019858335
0.001310143
-0.00022601952
0.0013507709
-0.00015418683
0.0012608313
-0.00020772164
0.001347271
-0.0002534183
0.0014884655
-0.00010609018
0.0013072126
-0.00011207824
0.0012282191
-0.00025243351
0.0015153714
-0.00014041337
0.0017580239
4.4917289e-05
0.0017776764
0.0001036002
0.001718005
0.0001455548
0.0016304174
0.00019030763
0.0015016384
3.9829109e-05
0.0015198365
-0.00011287201
0.0017331564
-4.3249343e-05
0.0019402543
0.0002261244
0.0020518974
0.00043558716
0.0020642011
0.00037540814
0.0020015367
0.00019576111
0.0018847864
6.8829474e-05
0.001735244
4.4161542e-05
0.0016518638
0.00015281207
0.0017895067
0.00034936354
0.0021163722
0.00051629628
0.0024468605
0.00058092218
0.0026235963
0.00054093886
0.0026219881
0.00046981431
0.0025279229
0.00038996526
0.00032833028
0.0024389431
0.0022714406
8.0905644e-05
0.0021247563
0.00015249968
0.0019967381
0.00013081674
0.0020110075
4.2319966e-05
0.0020178082
9.597807e-05
0.0019925842
0.00011278242
0.0019298099
8.1373268e-05
0.0018320601
-3.9763728e-05
0.0017395525
-0.00020109534
0.001685016
-0.00032491005
0.0016626177
-0.00039557653
0.0016208329
-0.00043663065
0.0015533931
-0.00045711079
0.0014665423
-0.00044162752
0.0014023953
-0.00042303331
0.0013784555
-0.00043008022
0.0013555803
-0.00045447511
0.0013958397
-0.00047934568
0.0014203533
-0.00037064563
0.0014071231
-0.0004140608
0.0014741378
-0.00036095292
0.0014955377
-0.00030570252
0.0014155549
-0.00033526099
0.0014172589
-0.00032138741
0.0014263809
-0.00021655049
0.0013174932
-0.00020707499
0.0012616959
-0.00022852579
0.0012772186
-0.00015348864
0.0011904793
-0.00021808838
0.0012960149
-0.00023146889
0.0014173302
-8.4064828e-05
0.0012342353
-0.00012485277
0.0011809523
-0.00024912779
0.0014391953
-0.00011382383
0.0016524492
4.8623754e-05
0.0017054873
8.1200917e-05
0.0016778682
0.00012740953
0.0015365645
0.00018399184
0.00139173
7.4485273e-05
0.0014414721
-8.9223423e-05
0.0017186609
-4.6272861e-05
0.0019232048
0.00016867596
0.0019225478
0.00038699892
0.0018677664
0.00040517191
0.0018313897
0.00025439589
0.0017809276
7.3272992e-05
0.0017320353
-5.6149289e-06
0.001720947
2.6160332e-05
0.0017995904
0.00024020629
0.0019832839
0.00049437796
0.0021986071
0.00061493966
0.0023394677
0.00058356653
0.0023694533
0.00045931499
0.0022998382
0.00031954143
0.00022533643
0.0022214825
0.0021660844
9.208274e-05
0.002024659
0.0001777
0.0019009721
9.5142828e-05
0.0019159663
1.0137868e-05
0.0019211722
6.1322023e-05
0.0018964044
8.8939245e-05
0.0018364339
7.6900969e-05
0.001744214
-3.0007639e-05
0.0016573327
-0.00016868952
0.0016045149
-0.00028659902
0.0015837276
-0.00036999727
0.0015446126
-0.00041326248
0.0014836875
-0.0004157672
0.0014026036
-0.00041716997
0.0013387219
-0.00040244776
0.0013121837
-0.00043696645
0.0012874417
-0.00046545697
0.0013349637
-0.00041488158
0.0013493719
-0.00034387088
0.0013454917
-0.00040019681
0.0014091777
-0.00032092125
0.0014300681
-0.00024644336
0.0013593159
-0.00029258896
0.0013632032
-0.00030775699
0.0013663219
-0.00021691175
0.001263207
-0.00020794961
0.0012156339
-0.00023396336
0.0012118269
-0.00015647462
0.0011314767
-0.00021655295
0.0012457696
-0.00020105911
0.0013443938
-6.4165154e-05
0.0011703664
-0.00014785227
0.0011390456
-0.00025405749
0.0013602687
-0.00010146408
0.0015395991
4.4579119e-05
0.0016287145
5.5819837e-05
0.001642361
0.00011225474
0.001475171
0.00017463398
0.0012914568
0.00010031931
0.0013535076
-5.7417685e-05
0.0016603137
-3.3732425e-05
0.0019017613
0.00013177911
0.0018713883
0.00030360983
0.0017475792
0.00038288005
0.0016774917
0.00031945827
0.0016376754
0.00014316839
0.0016361129
-1.0650169e-05
0.0017456073
-3.4735427e-05
0.0018712086
0.00011070025
0.0019547852
0.00036221315
0.00202507
0.00055763549
0.0020748218
0.00057978221
0.0020797466
0.00048498204
0.0020563214
0.00032552618
0.00017630034
0.0020222708
0.0020658148
9.5472704e-05
0.0019288839
0.00018358494
0.0018103607
6.1436207e-05
0.0018247837
-1.12352e-05
0.0018295804
3.5230782e-05
0.0018056377
7.5314634e-05
0.0017467089
7.3109801e-05
0.0016593939
-2.7297483e-05
0.0015772721
-0.00012720066
0.0015266973
-0.0002377222
0.0015087046
-0.00030750521
0.001473482
-0.0003488318
0.0014169348
-0.00035743393
0.0013422483
-0.0003837095
0.0012782937
-0.00037561813
0.0012503233
-0.0004129007
0.0012283737
-0.00044190508
0.0012742341
-0.00032906694
0.0012794873
-0.00031728418
0.0012856594
-0.00038174768
0.0013476263
-0.00028449509
0.001365083
-0.0001943401
0.0013004557
-0.00023939049
0.0013096604
-0.00027107304
0.0013085146
-0.00019880678
0.0012090252
-0.00020025741
0.0011716287
-0.000231391
0.0011517378
-0.00015680749
0.0010805822
-0.00020451812
0.0011961622
-0.00016639858
0.0012675717
-5.1033958e-05
0.0011093441
-0.00018163161
0.0010994524
-0.00027191893
0.0012846444
-9.8790499e-05
0.0014250558
3.4912846e-05
0.0015426473
4.2728304e-05
0.0015964409
0.00010657378
0.0014315124
0.00015548706
0.0012071749
8.850388e-05
0.0012594351
-2.1159543e-05
0.0015659385
1.523304e-07
0.0018372759
0.00012695033
0.0018274997
0.00023132958
0.0016866708
0.00030705167
0.0015598166
0.00031508513
0.0014891973
0.00020532571
0.001501555
2.8594958e-05
0.001678691
-2.8497655e-05
0.0019022783
4.6287229e-05
0.0019880257
0.00021093318
0.0019643024
0.00040961438
0.0019077194
0.00049106037
0.0018525513
0.00046331941
0.0018209962
0.00034868613
0.00021325408
0.0018183947
0.0019697766
8.8713157e-05
0.0018371521
0.00016381829
0.001724423
3.8973697e-05
0.0017382102
-2.1593316e-05
0.001742622
2.9417544e-05
0.0017195904
6.9839005e-05
0.0016620392
6.1917727e-05
0.0015794182
-2.5329345e-05
0.0015016347
-8.7824607e-05
0.0014548356
-0.00018254317
0.0014390883
-0.00023183406
0.0014071276
-0.00026653251
0.0013538558
-0.00030204684
0.0012852061
-0.00033744073
0.0012210044
-0.00033433463
0.0011928808
-0.00035951627
0.0011782894
-0.00038651123
0.0012148736
-0.00024835677
0.0012131178
-0.00029003247
0.0012285751
-0.00035645417
0.0012885175
-0.00026243406
0.0013038897
-0.00015942937
0.0012448152
-0.00019093881
0.0012595292
-0.00021885319
0.0012548663
-0.0001615546
0.0011575599
-0.00018863174
0.0011303636
-0.00022858029
0.0010983586
-0.00016380273
0.0010382121
-0.00018842262
0.0011492934
-0.00012603343
0.001188853
-3.8711921e-05
0.0010525665
-0.0002102055
0.00106557
-0.00029342565
0.0012188313
-9.8274324e-05
0.0013220995
3.3111318e-05
0.0014544463
5.3036268e-05
0.0015377956
0.00010595077
0.0013849838
0.00012424432
0.0011467108
4.4243551e-05
0.0011721227
-9.5006366e-06
0.0014633601
4.6667494e-05
0.0017490054
0.00015560551
0.0017819253
0.0001939998
0.001655854
0.00021050627
0.0014949125
0.00024264859
0.0013666234
0.00020857653
0.0013727865
8.97513e-05
0.0015615249
8.4627221e-06
0.0018485889
4.9793257e-05
0.0019951836
0.0001318107
0.0019475331
0.00025088918
0.0018277382
0.00034949487
0.0017099121
0.00038161309
0.0016374132
0.00032962648
0.00025202145
0.0016339781
0.0018777669
7.2526616e-05
0.0017492788
0.00012320349
0.0016423807
3.82485e-05
0.0016561777
-1.1207039e-05
0.0016594763
4.2146605e-05
0.001636914
6.7747124e-05
0.001581391
3.9849492e-05
0.0015044053
-3.0026559e-05
0.0014301675
-5.8575953e-05
0.0013865209
-0.00012328123
0.0013721729
-0.00015273186
0.0013432511
-0.00019098691
0.0012933477
-0.0002452887
0.0012294757
-0.00027756153
0.0011660202
-0.00028258503
0.0011379146
-0.00030899664
0.0011320788
-0.00033796965
0.0011564577
-0.00020059159
0.0011504879
-0.0002697545
0.001172536
-0.00032926472
0.0012311279
-0.00025005255
0.0012442191
-0.00014529259
0.0011895688
-0.00016521356
0.0012089496
-0.00017566729
0.0012007068
-0.0001268103
0.0011070731
-0.00017663296
0.0010879121
-0.00022033502
0.0010495842
-0.00017004727
0.0009989311
-0.00016877844
0.0011009143
-8.2493842e-05
0.0011101796
-3.3174721e-05
0.00099498329
-0.00023300625
0.0010328649
-0.00030706824
0.0011623428
-0.0001087278
0.0012348274
4.0968278e-05
0.0013706711
8.6070441e-05
0.0014702556
0.00012035829
0.0013309904
7.983535e-05
0.0011094879
-3.6085285e-05
0.0011013501
-3.270247e-05
0.0013654543
8.8529486e-05
0.0016317294
0.00019866755
0.0016969903
0.000199392
0.0016146689
0.00014463489
0.0014544309
0.000138684
0.0012822303
0.00014669306
0.0012594106
0.00010444778
0.001443333
6.329298e-05
0.0017310343
8.8981971e-05
0.0019326427
0.000130489
0.001928096
0.00016645407
0.0017939577
0.00020724046
0.0016384969
0.00025022984
0.0015206778
0.00025924913
0.00024293378
0.0014915789
0.0017894277
5.1907725e-05
0.0016659695
7.6662606e-05
0.0015643975
5.7463534e-05
0.0015782786
1.3743622e-05
0.0015808824
5.9462644e-05
0.0015584135
6.4841087e-05
0.0015055622
1.2035164e-05
0.0014339797
-3.7678759e-05
0.0013630919
-3.0591373e-05
0.0013216356
-7.2335336e-05
0.0013080757
-8.19043e-05
0.0012812694
-0.00012882116
0.0012353047
-0.00018619355
0.001175914
-0.00021549679
0.001114639
-0.00023158081
0.0010861929
-0.0002687465
0.0010866512
-0.00029695654
0.0010999432
-0.00018241491
0.0010935715
-0.00025811066
0.0011188424
-0.00029911165
0.001175927
-0.00024105388
0.0011867225
-0.00014460556
0.0011363566
-0.00015862835
0.0011576242
-0.00014824217
0.0011459005
-0.0001046416
0.0010580417
-0.00016418142
0.0010464072
-0.00019725492
0.0010073154
-0.00016832557
0.00096477158
-0.00014850917
0.0010526975
-3.9651928e-05
0.0010355975
-2.9668877e-05
0.00093997951
-0.00024777118
0.0010005765
-0.00031542183
0.0011169443
-0.00013056439
0.0011670072
4.6644235e-05
0.0012916893
0.00013359326
0.0013904462
0.00014621354
0.0012649676
3.5293789e-05
0.0010765732
-0.00012193169
0.0010552508
-9.6382318e-05
0.001273799
0.00010026725
0.0015081998
0.00024685001
0.0015870104
0.00022743591
0.0015507842
0.00011925875
0.0014203953
5.8863214e-05
0.0012398563
4.0975535e-05
0.0011717124
6.2698219e-05
0.0013249035
0.0001003511
0.0015895839
0.0001484159
0.0018078272
0.00016324991
0.0018582766
0.00014737029
0.0017610379
0.00012190473
0.0016136847
0.00012741634
0.0014598592
0.00015262867
0.0001827363
0.0013853162
0.0017049278
3.214074e-05
0.0015869167
4.0821645e-05
0.0014898744
7.7132377e-05
0.0015041858
4.9353602e-05
0.0015060189
7.3717412e-05
0.0014835822
5.8959594e-05
0.0014336023
-6.5939493e-06
0.0013677751
-4.2441771e-05
0.0013000592
-1.2870025e-05
0.0012604719
-3.880678e-05
0.0012467624
-3.3455329e-05
0.0012215059
-8.9304947e-05
0.0011794545
-0.0001316157
0.0011245957
-0.00015436483
0.0010647835
-0.00018619535
0.0010360225
-0.00023244413
0.0010409062
-0.00026234237
0.0010447481
-0.00018492754
0.0010400074
-0.00025511082
0.0010662293
-0.00025885547
0.0011220441
-0.00022653194
0.0011303961
-0.00015337974
0.0010840274
-0.00016380001
0.0011056148
-0.00013136219
0.0010919291
-9.1700437e-05
0.0010114842
-0.00015302097
0.0010033538
-0.00016191178
0.00096763688
-0.00015735403
0.00093201951
-0.00013081732
0.0010019228
-1.0881805e-06
0.00096354049
-2.7606685e-05
0.00088465438
-0.00024591959
0.00096375246
-0.00031337157
0.0010782129
-0.00014934604
0.0011154424
4.8866235e-05
0.0012186631
0.00018285753
0.0013020134
0.00017201133
0.0011864209
4.3944492e-06
0.0010397266
-0.00019777285
0.0010310461
-0.00017467511
0.0011999702
7.6945722e-05
0.0013916199
0.00029121431
0.0014615645
0.00025655212
0.0014634808
0.00013001836
0.001368088
1.380264e-05
0.001217506
-5.7958493e-05
0.0011279431
-2.1028329e-05
0.0012301879
8.9519135e-05
0.0014551847
0.00019592673
0.0016535805
0.00021716903
0.0017374643
0.00016004286
0.0016954396
9.1253911e-05
0.0015836519
6.0692027e-05
0.0014365966
5.8651441e-05
9.8812698e-05
0.0013275883
0.001624278
1.6771002e-05
0.0015121024
2.4046991e-05
0.0014190239
8.8897898e-05
0.0014331112
8.0729282e-05
0.0014349214
7.9155202e-05
0.001413107
4.7824303e-05
0.0013659668
-1.1366266e-05
0.0013050474
-3.1144735e-05
0.0012397327
-6.8309282e-06
0.0012020091
-2.0672237e-05
0.0011879492
-7.6962829e-06
0.0011645339
-5.9424105e-05
0.0011259783
-8.9514137e-05
0.0010743742
-0.00010508072
0.0010161006
-0.0001475043
0.00098735466
-0.00019854967
0.00099495621
-0.00022670088
0.00099248
-0.00019696969
0.00099126331
-0.00025704501
0.0010160633
-0.000214851
0.0010700081
-0.00020261536
0.0010768437
-0.00016323999
0.0010352044
-0.00017683177
0.0010548766
-0.00012051235
0.0010413426
-7.8017632e-05
0.00097043215
-0.00014021332
0.00096169308
-0.00012636388
0.00093049957
-0.00014348981
0.00090189582
-0.00011435207
0.00095198199
2.7408822e-05
0.0009001029
-2.2638283e-05
0.00083424258
-0.00022859
0.00092416908
-0.00029947383
0.0010422171
-0.00016503345
0.0010779091
4.5387387e-05
0.0011487059
0.00022209099
0.0012118013
0.00020058847
0.0011046725
-6.8862032e-06
0.00099440933
-0.00024160836
0.0010174938
-0.00024382517
0.0011661386
3.6734143e-05
0.0012917645
0.00030662929
0.0013440817
0.00030404395
0.001353311
0.00016295145
0.0012822075
2.8470357e-07
0.00117554
-0.00012347923
0.0011139111
-0.00012112002
0.0011607362
2.7163363e-05
0.0013353827
0.00020626776
0.0014941132
0.00025734034
0.0015916309
0.00019632587
0.0015965437
9.9020144e-05
0.0015316082
3.7719817e-05
0.0014205482
5.2781829e-06
2.6953041e-05
0.0013029873
0.0015474377
7.3233943e-06
0.0014412134
2.2669833e-05
0.0013518452
9.1057688e-05
0.0013647008
0.00010163257
0.0013669959
7.3896822e-05
0.0013465857
3.8464645e-05
0.001302129
1.4774677e-06
0.0012451225
-5.0185199e-06
0.0011813629
-6.819727e-06
0.0011451307
-1.5818009e-05
0.0011317044
3.0982593e-06
0.0011103202
-3.7829796e-05
0.0010750601
-5.8115598e-05
0.0010259832
-7.0684793e-05
0.00096915484
-0.00011511569
0.00094039879
-0.00016978974
0.00094814145
-0.00019113153
0.00094183946
-0.00021017567
0.00094642831
-0.00024964851
0.00096785095
-0.00017404177
0.0010185508
-0.00017102293
0.0010248573
-0.000166972
0.0009897174
-0.0001866425
0.0010077442
-0.00011329677
0.00099379354
-6.5093396e-05
0.00093347689
-0.00012505706
0.00091967349
-9.3347931e-05
0.00089350471
-0.00013040584
0.00087272569
-9.7797282e-05
0.00090224439
5.035828e-05
0.00084208257
-1.4207758e-05
0.00078547272
-0.00020513966
0.00088025815
-0.00027925623
0.001007413
-0.00017481103
0.0010491129
3.3094809e-05
0.0010883075
0.00024448272
0.0011226704
0.0002379661
0.0010198152
-1.2420053e-06
0.00093956952
-0.00025382064
0.0010006764
-0.00030239161
0.0011440547
-3.2901514e-05
0.0012147367
0.0002710545
0.0012447919
0.0003405386
0.0012490096
0.00021090726
0.001186265
1.5262239e-05
0.0011190397
-0.0001496125
0.0010914222
-0.0001949856
0.0011406755
-5.2990688e-05
0.001241987
0.00015125604
0.0013534631
0.00027327385
0.001438076
0.00023743806
0.0014710081
0.00014562591
0.0014428846
4.4295359e-05
0.0013749365
-1.6246724e-05
-2.3920308e-05
0.0012873166
0.0014743051
3.7131955e-06
0.0013735807
3.1378263e-05
0.0012878588
8.2446399e-05
0.0012993363
0.00010849405
0.0013018777
6.4802634e-05
0.001283061
3.2388414e-05
0.0012420461
2.3943072e-05
0.0011880904
2.8628609e-05
0.0011261906
-7.5336829e-06
0.0010912569
-2.2633023e-05
0.0010779077
-3.2854322e-06
0.0010588379
-2.2912457e-05
0.0010266018
-3.3329378e-05
0.00097983706
-4.66305e-05
0.00092478825
-8.7897841e-05
0.00089605354
-0.00013988433
0.00090153491
-0.00015325698
0.00089456998
-0.00021272132
0.00090452263
-0.00022713103
0.00092178876
-0.00013958574
0.00096849663
-0.00013825126
0.00097586948
-0.00015755742
0.00094827771
-0.00018563231
0.00096368792
-0.00010517363
0.00094822018
-5.2959003e-05
0.00089890778
-0.00011325031
0.00087797849
-6.5493682e-05
0.00085767023
-0.00011785005
0.00084643862
-8.3018967e-05
0.00085689369
6.583501e-05
0.0007920485
-4.9250985e-06
0.00074007545
-0.00017522162
0.00083443145
-0.00025086489
0.00097016743
-0.00017585067
0.0010230947
1.1431374e-05
0.0010390972
0.0002457966
0.0010406407
0.00027404857
0.00094025975
2.0012093e-05
0.0008763879
-0.00025182661
0.00097305358
-0.00033215406
0.0011272984
-9.3685225e-05
0.0011618889
0.00020750289
0.0011577134