/*--------------------------------*- C++ -*----------------------------------*\
| =========                 |                                                 |
| \\      /  F ield         | OpenFOAM: The Open Source CFD Toolbox           |
|  \\    /   O peration     | Version:  2406                                  |
|   \\  /    A nd           | Website:  www.openfoam.com                      |
|    \\/     M anipulation  |                                                 |
\*---------------------------------------------------------------------------*/
FoamFile
{
    version     2.0;
    format      ascii;
    arch        "LSB;label=32;scalar=64";
    class       volScalarField;
    location    "6";
    object      rho;
}
// * * * * * * * * * * * * * * * * * * * * * * * * * * * * * * * * * * * * * //

dimensions      [1 -3 0 0 0 0 0];

internalField   nonuniform List<scalar> 
96472
(
1.0024691
1.0117598
1.0245443
1.0295811
1.0278029
1.0247762
1.0233569
1.023983
1.025098
1.0262838
1.0277466
1.0292506
1.0304576
1.0306696
1.0297121
1.0281716
1.0267155
1.0260425
1.0261708
1.0267741
1.0273487
1.0274307
1.0267385
1.0257558
1.0247822
1.0238515
1.0229512
1.0221809
1.0217703
1.0217747
1.0221493
1.0226982
1.0232263
1.0235367
1.0236688
1.02374
1.0237053
1.0236368
1.0237101
1.0234737
1.0235397
1.023638
1.0236005
1.0236145
1.0239171
1.0241531
1.0237824
1.0243292
1.0243714
1.0245655
1.0244852
1.0245531
1.0244096
1.0247055
1.0246059
1.0024797
1.0118243
1.0248084
1.0299136
1.0280384
1.0249379
1.0235523
1.0243156
1.0255943
1.0268834
1.028431
1.0299874
1.0312704
1.031627
1.030717
1.0290961
1.0275532
1.0267911
1.0268542
1.0274518
1.0281322
1.0283899
1.027866
1.0269554
1.0259986
1.0249761
1.0238918
1.0228433
1.0221785
1.0219535
1.0221512
1.0226357
1.0231562
1.023597
1.0238713
1.0239187
1.023946
1.0239084
1.0237914
1.0238606
1.0237701
1.0237447
1.0237956
1.0240077
1.0238484
1.023973
1.0243044
1.0242676
1.0243409
1.0243788
1.0244667
1.0244183
1.0244437
1.0244132
1.0242616
1.0024959
1.0119191
1.0250556
1.0302414
1.0282871
1.0251296
1.0237869
1.0247062
1.0261593
1.0275799
1.0291702
1.0307466
1.0321245
1.0326468
1.0318195
1.0301758
1.0285574
1.0276889
1.0276682
1.028255
1.0290157
1.0293799
1.0290335
1.028231
1.0272939
1.0261831
1.0249381
1.0237084
1.022759
1.0222921
1.0222843
1.0226483
1.0232066
1.0236946
1.0240143
1.0241936
1.0241851
1.0241374
1.0241063
1.0239421
1.0239832
1.0239141
1.0239765
1.0238434
1.0241652
1.0241187
1.0241286
1.0242207
1.0243615
1.0243519
1.0243029
1.0243048
1.0242951
1.0243198
1.0239443
1.0025155
1.0119862
1.0253044
1.0305517
1.0285174
1.0253404
1.0240458
1.0251294
1.0267634
1.0282903
1.0299189
1.031522
1.0329909
1.0336719
1.0329641
1.0313239
1.0296716
1.0287466
1.0286567
1.0292013
1.0300061
1.0304983
1.0303046
1.0295964
1.0286927
1.0275594
1.0262039
1.0247652
1.0235791
1.0228366
1.0226002
1.0227999
1.0232389
1.023777
1.0242388
1.0244555
1.0245693
1.024516
1.0245035
1.0244499
1.0243637
1.0243619
1.0243008
1.0243575
1.0242184
1.0243684
1.0243363
1.0245252
1.024363
1.0243722
1.0243829
1.0244376
1.0241453
1.0240345
1.0240243
1.0025354
1.0120797
1.0255478
1.0308438
1.0287294
1.0255362
1.0243036
1.0255567
1.0273643
1.0289895
1.0306421
1.032234
1.0337895
1.0346447
1.0340808
1.0325265
1.0308866
1.0299351
1.0297824
1.0302643
1.0310935
1.0316976
1.0316336
1.0310266
1.0301527
1.0289874
1.0275345
1.0259834
1.0245703
1.0236007
1.0231235
1.0231359
1.0235153
1.0240061
1.0244814
1.0248149
1.024921
1.0249553
1.0247987
1.0247957
1.0246767
1.0246091
1.0245659
1.0245036
1.0245689
1.0243954
1.0245554
1.0243616
1.0243587
1.0244517
1.0243934
1.023975
1.0241817
1.0239959
1.0238657
1.0025547
1.0121475
1.0257527
1.0310872
1.0289176
1.0257075
1.0245676
1.0259532
1.0279513
1.0296781
1.0313235
1.0329187
1.0345506
1.0355932
1.0351935
1.0337395
1.0321523
1.0312219
1.0310211
1.0314613
1.0322995
1.0330001
1.0330654
1.0325401
1.0316918
1.0305011
1.0290201
1.0273652
1.0258298
1.0246521
1.0239416
1.0236998
1.0238565
1.0243084
1.0247999
1.0251946
1.0254575
1.0254927
1.0255878
1.0253831
1.0253899
1.0252441
1.0251365
1.0251594
1.0249551
1.0250291
1.024833
1.0247592
1.0248131
1.0246102
1.0242546
1.0244303
1.0242411
1.0238557
1.0235403
1.0025695
1.0122271
1.0259347
1.0313107
1.0290793
1.0258425
1.0247748
1.0262889
1.0284847
1.0303098
1.031934
1.0335218
1.0352097
1.0364146
1.0362224
1.0348847
1.0334128
1.0325545
1.0323594
1.0327735
1.0336124
1.0343921
1.0345753
1.0341264
1.0333098
1.0321377
1.0306261
1.0288746
1.0272137
1.025866
1.0249499
1.0245142
1.0244946
1.0247908
1.0252401
1.0256532
1.0258867
1.026086
1.0259384
1.0259697
1.0257741
1.025667
1.0256462
1.0253636
1.0253757
1.0252682
1.0250622
1.0250735
1.0248417
1.0246133
1.0246015
1.0244877
1.0239851
1.0238132
1.0239325
1.002581
1.0122757
1.0261077
1.0315032
1.029201
1.0259404
1.0249405
1.0265654
1.0289199
1.0308531
1.0324453
1.0340214
1.0357924
1.0371511
1.0371589
1.0359829
1.0346521
1.0338988
1.033756
1.0341717
1.035006
1.0358717
1.0361977
1.0358725
1.0350916
1.033882
1.0322984
1.0305201
1.0287931
1.0273222
1.0262248
1.0255314
1.0252677
1.0253909
1.0257638
1.0261787
1.0265683
1.0266948
1.0268673
1.0268017
1.0266603
1.0266552
1.0262783
1.0263206
1.0261274
1.0257729
1.025762
1.0255684
1.0253017
1.0251153
1.0250248
1.0244867
1.0243427
1.0241747
1.0239714
1.0025839
1.0123334
1.0262309
1.0316742
1.0292993
1.0259884
1.0250307
1.0267488
1.0292684
1.031277
1.0328408
1.0343742
1.0361716
1.0377389
1.0379693
1.0369748
1.0358157
1.0351959
1.0351406
1.0355717
1.0364659
1.0374068
1.03791
1.0376743
1.0369357
1.0357251
1.0341375
1.0323004
1.0305037
1.0289545
1.0277024
1.0268345
1.0263932
1.026328
1.0265166
1.0268488
1.0271029
1.027371
1.0274387
1.0273759
1.0274172
1.0270616
1.027083
1.0268309
1.0264199
1.026453
1.0261804
1.025828
1.0255763
1.0255105
1.0250291
1.0248545
1.0245762
1.0244899
1.0236015
1.0025795
1.0123719
1.026385
1.0318221
1.0293655
1.0259964
1.0250517
1.0268425
1.0294851
1.0315647
1.0330806
1.0346008
1.0364444
1.0381959
1.038649
1.0378431
1.0368601
1.0364032
1.0364434
1.0369737
1.0378988
1.0389723
1.0396486
1.0395691
1.0388885
1.037692
1.0360369
1.0341569
1.0323379
1.0307237
1.0293795
1.0283423
1.0276962
1.027424
1.0274478
1.0276606
1.0279454
1.0281823
1.0282829
1.0284673
1.0282173
1.0282905
1.0280318
1.0276651
1.0276654
1.0273267
1.0268535
1.0266156
1.026439
1.0259954
1.0255321
1.0253972
1.0248264
1.0245674
1.0242854
1.00257
1.0124026
1.0264576
1.031939
1.0293907
1.0259777
1.0250078
1.0268512
1.0296047
1.0317518
1.0332028
1.0346977
1.036587
1.0384683
1.0391431
1.0385457
1.0377761
1.0374462
1.0376434
1.0382713
1.0392481
1.0404478
1.0413594
1.0414888
1.0409285
1.0397475
1.0381042
1.0362037
1.03437
1.0326934
1.0312521
1.0301074
1.0293159
1.0288675
1.0286795
1.028681
1.0288455
1.0289407
1.0291131
1.0290084
1.0291111
1.0289219
1.0286551
1.0286441
1.0282693
1.0278279
1.0276588
1.0273816
1.0268817
1.0263224
1.026273
1.0256208
1.0255707
1.0246706
1.0246037
1.0025525
1.0124344
1.0265481
1.0320303
1.0293903
1.0259185
1.0249254
1.0267978
1.0296294
1.031821
1.0332518
1.0347277
1.0366595
1.0386462
1.0395152
1.0390876
1.0385002
1.0383592
1.0386425
1.039359
1.0404845
1.0418661
1.0429998
1.0433695
1.0429592
1.0418832
1.0402402
1.0383384
1.0364343
1.034736
1.0332482
1.032011
1.0310692
1.0304434
1.0300658
1.0299798
1.0299585
1.0301318
1.0301096
1.0302104
1.0301346
1.0299835
1.0299689
1.029661
1.0292811
1.029113
1.0287134
1.0281539
1.0276131
1.0274403
1.026834
1.0262652
1.0257507
1.0254728
1.0249682
1.0025316
1.0124362
1.0265958
1.0320918
1.0293893
1.0258511
1.0248093
1.0266609
1.0295648
1.0318248
1.0332376
1.0346889
1.0366315
1.0387647
1.0397994
1.0395005
1.0390553
1.039036
1.0394565
1.0403211
1.0415486
1.043055
1.0444629
1.0451453
1.0449748
1.0440112
1.0424452
1.0405333
1.0386597
1.0369204
1.0353688
1.0340825
1.0330898
1.032319
1.0318143
1.0314976
1.0313746
1.0312282
1.0312375
1.0312075
1.0310362
1.0310038
1.0307406
1.0304284
1.0302921
1.0298846
1.0293798
1.0289739
1.0286938
1.0281675
1.0272685
1.0272978
1.0263867
1.0261231
1.0254894
1.0025071
1.0124452
1.0266519
1.0321539
1.0293747
1.025762
1.0246513
1.0264932
1.0294533
1.0317835
1.0331806
1.0346355
1.0366082
1.0388409
1.0400256
1.0398114
1.0394555
1.0395433
1.0400675
1.0410012
1.0423567
1.0440854
1.0457369
1.046751
1.0468359
1.0460877
1.0446099
1.0427873
1.0409235
1.0391847
1.0376259
1.0362867
1.0351797
1.0343091
1.033678
1.0332602
1.0330098
1.0328656
1.0327479
1.0325129
1.0324729
1.0322193
1.0319164
1.0318021
1.0313453
1.030928
1.0305592
1.0301021
1.0295304
1.0286138
1.0286296
1.0275934
1.0274024
1.0266419
1.0259283
1.0024813
1.0124301
1.0266752
1.0322143
1.0293488
1.0256838
1.0244814
1.0263042
1.0293189
1.0317208
1.0331355
1.0345598
1.0365677
1.0388487
1.0401727
1.0400201
1.0397611
1.039896
1.0404432
1.0414809
1.0429501
1.0448076
1.0467234
1.0481197
1.0485381
1.0480293
1.0467205
1.0449831
1.0431495
1.041448
1.0398655
1.0385302
1.0374151
1.0364987
1.0357724
1.0352155
1.0347983
1.0345231
1.0342098
1.0340753
1.0337566
1.0334731
1.0332774
1.0327885
1.0324547
1.0320886
1.0315447
1.0310259
1.0303295
1.0300754
1.0293517
1.0285495
1.0281005
1.0273184
1.0267887
1.002455
1.012426
1.0267039
1.0322739
1.0293444
1.0256297
1.0243268
1.0261351
1.0292117
1.0317018
1.0331329
1.0345564
1.0365786
1.0389243
1.0403539
1.0402363
1.0399839
1.0401128
1.0407171
1.0418197
1.0433242
1.0453213
1.0474992
1.0492503
1.0500059
1.0497852
1.0486479
1.0470689
1.0453578
1.0437059
1.0421607
1.0408212
1.0396617
1.038696
1.0379156
1.0373264
1.0368513
1.0364323
1.0361514
1.0357664
1.0354125
1.0351031
1.03461
1.0342887
1.0338302
1.033303
1.0327602
1.0321294
1.0315719
1.0309442
1.0297741
1.0298911
1.0287458
1.0281837
1.0277954
1.002432
1.012409
1.0267317
1.0323403
1.0293774
1.0255957
1.0241949
1.0260046
1.0291207
1.0316881
1.0331863
1.0345921
1.0366279
1.0390312
1.04051
1.0403914
1.0401381
1.0402735
1.0408514
1.0419511
1.043523
1.0456098
1.0479723
1.0500347
1.0511916
1.0512464
1.0504006
1.048996
1.0473896
1.0458206
1.0443676
1.0430581
1.0419247
1.0409421
1.0401434
1.0394598
1.0389086
1.0384889
1.0380505
1.0376291
1.0372455
1.0367889
1.0363824
1.0358869
1.035368
1.0347585
1.0342158
1.0335193
1.0328689
1.0318463
1.031744
1.0304873
1.0298054
1.0292986
1.0284812
1.00241
1.0123917
1.0267391
1.0323963
1.0294353
1.0256117
1.02415
1.0259446
1.0290929
1.0317622
1.033289
1.0347001
1.0367327
1.0391687
1.0407052
1.0405963
1.0402963
1.040374
1.0408907
1.0419823
1.0435506
1.0457095
1.0482182
1.050588
1.0521001
1.0524895
1.0518977
1.0506549
1.0492028
1.0477431
1.0463776
1.0451379
1.0440659
1.0431329
1.0423439
1.0416334
1.0411109
1.0405835
1.0401381
1.0397443
1.03927
1.0387661
1.0382867
1.0376586
1.0370877
1.036492
1.0356803
1.0349277
1.0340768
1.0334483
1.0326513
1.0315249
1.0312102
1.030396
1.0292565
1.0023953
1.0124
1.0267925
1.0324906
1.0295221
1.0256807
1.0241685
1.0259557
1.0291374
1.031901
1.0334546
1.0348536
1.0368721
1.0393265
1.0409386
1.0408165
1.040449
1.0404705
1.0409293
1.0419392
1.0434918
1.0456459
1.0482299
1.0508671
1.0527086
1.0533957
1.0530602
1.0520618
1.0507746
1.0494686
1.0482264
1.0470726
1.0460514
1.0451687
1.044388
1.0437553
1.0431856
1.0427547
1.04237
1.0419007
1.0414173
1.040991
1.0402948
1.0398347
1.0390498
1.0383377
1.0375492
1.0367931
1.035918
1.0352553
1.0337689
1.0335895
1.0323567
1.0312258
1.0309804
1.0023772
1.0123847
1.0268119
1.0325687
1.0296341
1.0258013
1.0242282
1.0260086
1.0292275
1.032059
1.0336769
1.0350509
1.0370463
1.0395115
1.0411881
1.0410722
1.0406418
1.0405725
1.0409402
1.0418993
1.0433697
1.0454885
1.0481546
1.0509501
1.0530663
1.0540628
1.0540259
1.0532353
1.0521357
1.0509585
1.0497915
1.0487259
1.047813
1.0469964
1.0463204
1.0457175
1.045225
1.0448314
1.0444339
1.0440634
1.0436984
1.0430914
1.0426684
1.0418253
1.0412617
1.0403496
1.0395617
1.0386064
1.037732
1.0365443
1.0359748
1.0347567
1.0339535
1.0328873
1.0324653
1.0023728
1.0123879
1.0268471
1.0326604
1.0297697
1.0259557
1.024324
1.0260972
1.0293484
1.0322541
1.0339171
1.0352732
1.0372347
1.0397058
1.041425
1.0413204
1.0408324
1.0406713
1.0409517
1.0418235
1.0432369
1.0453158
1.0479814
1.0508661
1.0532574
1.0545439
1.0547213
1.0541599
1.0531884
1.0521362
1.0510986
1.0501209
1.049276
1.0485564
1.0479636
1.0474702
1.0470443
1.0466779
1.0463931
1.0461213
1.0457285
1.0453445
1.0447247
1.0442272
1.0434248
1.0427023
1.0418405
1.0408583
1.0399696
1.0386956
1.03789
1.0365297
1.0358172
1.0347912
1.0332668
1.0023553
1.0123933
1.026874
1.0327514
1.029929
1.0261267
1.0244654
1.0262148
1.0294843
1.0324726
1.0341599
1.0354868
1.0373977
1.0398701
1.041641
1.0415526
1.0410088
1.0408044
1.0410091
1.0417906
1.0431169
1.0451075
1.0476996
1.050721
1.0533686
1.054844
1.0552694
1.0549092
1.0540545
1.0531201
1.0521405
1.0512473
1.0504854
1.0498562
1.0493179
1.0489029
1.048554
1.0482916
1.048086
1.0478841
1.0476123
1.0473643
1.0469116
1.0464368
1.0457051
1.0449995
1.0440022
1.043138
1.0418799
1.0411078
1.0396968
1.0391338
1.0372588
1.0364097
1.0354167
1.0023575
1.0123824
1.026875
1.0328356
1.0300786
1.0263132
1.0246173
1.0263419
1.0296247
1.0326772
1.0343828
1.0356911
1.0375403
1.0399865
1.041825
1.0417822
1.0411713
1.0409324
1.04106
1.0417447
1.043003
1.0449107
1.0474947
1.0505071
1.0532528
1.0550299
1.0556754
1.0554622
1.0547624
1.0538985
1.0530163
1.0521617
1.051395
1.0508006
1.050348
1.0499961
1.0497618
1.0495846
1.0494373
1.0492944
1.0492577
1.0490205
1.0488916
1.0483055
1.0479362
1.0471407
1.0463599
1.0454763
1.0443238
1.0433864
1.0420404
1.0407236
1.0394325
1.0387844
1.0373602
1.0023379
1.0123828
1.0268857
1.0329163
1.0302481
1.02651
1.0247816
1.0264669
1.0297363
1.0328438
1.034587
1.0358652
1.0376511
1.0400671
1.0419568
1.0419743
1.0413329
1.0410436
1.041093
1.0417315
1.0429184
1.0447569
1.0472582
1.0502393
1.0531527
1.0550929
1.0559066
1.0558678
1.0552471
1.0544465
1.0535995
1.0528321
1.0521297
1.0515454
1.0511228
1.0507724
1.0505712
1.0504685
1.0504721
1.0505438
1.0504719
1.0505298
1.0502977
1.0502064
1.0496976
1.0491571
1.0485459
1.0474585
1.0467984
1.0453478
1.0443427
1.0427313
1.0421774
1.0406246
1.0384361
1.0023432
1.0123552
1.0268761
1.032962
1.0303899
1.0267014
1.0249246
1.0265855
1.0298299
1.0329703
1.0347248
1.0359949
1.0377224
1.0401108
1.0420501
1.0421329
1.0414707
1.0411565
1.0411716
1.0417462
1.0428531
1.0445954
1.0470189
1.0499944
1.0529751
1.0551088
1.0561002
1.0561644
1.0556523
1.0549051
1.0540703
1.0533017
1.0526374
1.0520768
1.0516045
1.0513257
1.0511521
1.0510997
1.0511886
1.0512845
1.0515274
1.0515707
1.0515464
1.0514541
1.0511991
1.0508309
1.0501475
1.0494663
1.048519
1.0472588
1.0461479
1.045274
1.0439244
1.0416493
1.041141
1.0023221
1.0123266
1.0268046
1.0330167
1.0305179
1.0268879
1.0250696
1.0266658
1.0298986
1.0330666
1.0348572
1.0361193
1.037789
1.0401338
1.0421269
1.0422765
1.0416081
1.0412831
1.0412603
1.0417637
1.042786
1.044461
1.0467911
1.049703
1.0527441
1.0550806
1.0562257
1.0564018
1.0559733
1.0552526
1.0544445
1.0536342
1.0528998
1.0523317
1.0518703
1.0516033
1.0515016
1.0514961
1.0515799
1.0516052
1.0518076
1.0520482
1.0523086
1.0522925
1.0522322
1.0519339
1.0514215
1.0509343
1.0498299
1.0492177
1.0480779
1.0466308
1.045209
1.0438344
1.0435651
1.0022891
1.0122439
1.0267503
1.0330232
1.0306987
1.0271068
1.0252755
1.0268486
1.0298452
1.0330032
1.034896
1.0362411
1.0378381
1.0400889
1.0420859
1.0424375
1.0416941
1.0413563
1.041272
1.0418204
1.0427647
1.0443153
1.0465377
1.0493608
1.0524566
1.0549626
1.0562729
1.056582
1.0562961
1.0556362
1.0547894
1.0539716
1.0531855
1.0525858
1.0520319
1.0518356
1.0515854
1.0517323
1.0517596
1.0522436
1.0523933
1.0527369
1.0528694
1.053083
1.0530414
1.0528427
1.0525407
1.0518533
1.0512511
1.0502184
1.0491394
1.0480692
1.0466839
1.0459198
1.0436969
1.042441
1.0406838
1.0394832
1.0377305
1.0356171
1.0341812
1.0326865
1.0310009
1.0299554
1.0289963
1.0278666
1.027015
1.026357
1.0257403
1.0249475
1.024619
1.0241762
1.0239061
1.0238714
1.0234446
1.0234703
1.0236044
1.0235345
1.0237747
1.0240192
1.0241173
1.0242719
1.0399686
1.0386607
1.0370156
1.0356033
1.0341226
1.0325098
1.0312661
1.0301582
1.0289386
1.0279822
1.0271895
1.0264572
1.0256752
1.0251218
1.0246099
1.0240737
1.023778
1.0235849
1.0232581
1.0233502
1.0230877
1.0231522
1.0233019
1.0233859
1.0235895
1.0238458
1.0238616
1.0373294
1.0362105
1.0348111
1.0334274
1.0322118
1.0310008
1.0297937
1.0288489
1.0279165
1.0270717
1.0262854
1.0256346
1.0250813
1.0243693
1.0239397
1.0235425
1.0231526
1.0229695
1.0228837
1.0226544
1.0227293
1.0225978
1.0227734
1.0229234
1.0231304
1.0233044
1.0234857
1.0347552
1.0336385
1.0324571
1.0312882
1.0302257
1.0292164
1.0283318
1.0275343
1.0267149
1.0260326
1.0254121
1.0247747
1.0242308
1.0237326
1.0232423
1.0227801
1.0226661
1.0222223
1.022326
1.0220575
1.0221064
1.0220434
1.0221287
1.0223293
1.0224967
1.0227194
1.0228934
1.0320998
1.0311048
1.030065
1.0291073
1.0281873
1.0274169
1.0266955
1.0260307
1.0254818
1.0248794
1.0243871
1.0239072
1.0233802
1.0229506
1.0225742
1.0220758
1.0219662
1.0216462
1.0216111
1.0214776
1.0214587
1.0213804
1.0214982
1.021617
1.0218314
1.0220198
1.0221847
1.0293766
1.0285353
1.0276187
1.0268515
1.0260985
1.0255058
1.0250015
1.0244403
1.0240562
1.0236969
1.0232115
1.0229389
1.0225242
1.0220597
1.0218106
1.0213979
1.0212343
1.0209262
1.0209988
1.0207373
1.0207997
1.0207014
1.0207636
1.0208555
1.0210969
1.0212303
1.0213762
1.0266393
1.0259669
1.0251674
1.0245409
1.0239467
1.0235225
1.0231792
1.0228188
1.0225259
1.0223036
1.0220454
1.0217383
1.0215275
1.0212501
1.0208246
1.0207447
1.0203927
1.0202531
1.020179
1.0201025
1.019984
1.0199684
1.0200071
1.0200334
1.0202206
1.0204078
1.0204912
1.0240359
1.0234193
1.0227313
1.0222658
1.0218125
1.0214493
1.0212785
1.0211268
1.0208717
1.0207942
1.0207094
1.0205008
1.0203582
1.020261
1.0199479
1.0197556
1.0196801
1.0193949
1.019345
1.0193227
1.0191838
1.019184
1.0190712
1.0192614
1.0192259
1.0194524
1.0196043
1.0214537
1.0209369
1.0203042
1.0199669
1.0196851
1.0193865
1.0192869
1.0193023
1.0191701
1.0191379
1.0192173
1.01916
1.0190269
1.0190918
1.0189308
1.0186993
1.018795
1.0184422
1.0185284
1.0183568
1.0183751
1.0182518
1.0182314
1.0181842
1.0183502
1.0183347
1.0186093
1.0189187
1.0185035
1.0179974
1.0176389
1.0175701
1.0173941
1.0172537
1.0173829
1.0174248
1.017393
1.0175669
1.0176346
1.0176568
1.0177146
1.0177281
1.0175953
1.017597
1.0175354
1.0174305
1.0174817
1.0172814
1.0173534
1.0172194
1.0171318
1.017273
1.0172408
1.017382
1.0165313
1.0161617
1.0157882
1.0155327
1.0154144
1.0153785
1.0153053
1.0153762
1.0156285
1.015618
1.0157941
1.0160509
1.0160877
1.0162814
1.0163241
1.016262
1.0164663
1.0162252
1.016422
1.0162919
1.0162371
1.0162111
1.0161432
1.0160473
1.0160259
1.0160981
1.0160842
1.0142338
1.014031
1.0136932
1.0134083
1.0133841
1.0134146
1.0133495
1.0135204
1.0136815
1.0138513
1.0140614
1.0142803
1.0144409
1.0147255
1.0147583
1.0148902
1.0150515
1.0148766
1.0152006
1.0149358
1.0151612
1.0148526
1.015021
1.0147707
1.0147767
1.0147486
1.0147584
1.0120823
1.0119592
1.0116834
1.0114851
1.0113973
1.0114571
1.0114797
1.0116211
1.0118196
1.0120065
1.0122794
1.0125047
1.0127671
1.0130104
1.0130669
1.0134442
1.0133506
1.0136019
1.0135928
1.0136159
1.0138234
1.0134649
1.0137335
1.0133588
1.0135097
1.0132451
1.013363
1.0100197
1.0099952
1.0097803
1.0095568
1.0095236
1.0095984
1.0096422
1.0097363
1.0100193
1.0101661
1.0104057
1.0107821
1.0108999
1.0112317
1.0114722
1.0116032
1.0117537
1.0120564
1.0119284
1.0121705
1.0121566
1.0121317
1.0121901
1.0119101
1.0120529
1.0117555
1.0118337
1.0081976
1.0081528
1.0079325
1.0077478
1.0077332
1.0077911
1.0077982
1.0079851
1.0081547
1.0083379
1.0086473
1.0088747
1.009076
1.0095066
1.0095719
1.0098112
1.0101435
1.0101548
1.0103232
1.0105106
1.0104199
1.0106117
1.0105053
1.0103762
1.0104936
1.0101112
1.0102478
1.0062543
1.006363
1.0061686
1.0060637
1.0060513
1.0060035
1.0061094
1.0062143
1.0063244
1.0065967
1.0068481
1.0069365
1.0073364
1.0075615
1.0077129
1.0080957
1.0081342
1.0083134
1.0086416
1.0085845
1.0086166
1.0089341
1.0087204
1.0087206
1.0087619
1.0084036
1.0085624
1.0047765
1.004705
1.0045151
1.0044544
1.004369
1.0044237
1.0044389
1.0044443
1.0046931
1.0048471
1.0049122
1.0052188
1.0055272
1.0055791
1.0058607
1.006174
1.0061842
1.0064739
1.0066372
1.0066389
1.0068402
1.007031
1.0067504
1.0069879
1.0069448
1.0066355
1.0066816
1.0028588
1.0031169
1.0029551
1.0028902
1.0028195
1.0028517
1.0028012
1.002876
1.0030441
1.0029887
1.0032491
1.0035255
1.0034802
1.0037478
1.004067
1.0041694
1.0041307
1.0045923
1.0046496
1.0046199
1.0048423
1.0050121
1.0048892
1.0050481
1.004955
1.0047463
1.0048267
1.0016652
1.0016169
1.001493
1.0014016
1.0013532
1.0013191
1.0012284
1.0014221
1.0013055
1.0013665
1.0016322
1.0016189
1.0017403
1.001922
1.0021272
1.0021398
1.0023232
1.0025634
1.0024876
1.0027296
1.002834
1.0029034
1.0027967
1.0030784
1.0030288
1.0027232
1.0027738
0.99979277
1.0001702
1.0000869
1.0000574
0.99985216
0.99986109
0.99987162
0.99976306
0.99979882
0.99979058
0.99999996
0.99987017
0.99993732
1.0002862
1.0000688
1.0003345
1.0003392
1.0005731
1.0005026
1.0006667
1.0007755
1.000825
1.0007907
1.0009146
1.0009496
1.0007183
1.0007331
0.99877876
0.9988711
0.99874788
0.99862667
0.99856853
0.99839247
0.99848833
0.99827983
0.99819296
0.99849467
0.99815775
0.9983377
0.99834601
0.99833189
0.99850658
0.99824128
0.9987469
0.99838168
0.99869413
0.99861461
0.99877932
0.99875265
0.9986858
0.99891824
0.99877148
0.99865864
0.9985812
0.99693106
0.99745873
0.99749295
0.99731235
0.99716302
0.99719557
0.99693681
0.99685256
0.99693451
0.99676194
0.99672618
0.99669566
0.99676103
0.99672384
0.99650055
0.99680966
0.99673129
0.99666016
0.99664136
0.99678746
0.99685335
0.99663121
0.99669323
0.99678894
0.99677276
0.99653951
0.9964529
0.99606719
0.99616157
0.99621254
0.99603221
0.99582794
0.99586962
0.99554382
0.99550628
0.99554161
0.99519113
0.99535862
0.99509927
0.99522152
0.9951722
0.99478474
0.99523443
0.99482328
0.99512578
0.99472872
0.99496403
0.99489878
0.99477891
0.99485181
0.99456558
0.99478041
0.99453742
0.9945167
0.99419799
0.99484084
0.99492784
0.99472275
0.99460803
0.99453392
0.9941535
0.99418835
0.99407905
0.99387866
0.9938785
0.99355002
0.99383914
0.99353082
0.99340023
0.99346112
0.99323492
0.99351011
0.99295469
0.99329181
0.99298274
0.99305798
0.99289597
0.99274176
0.99282514
0.99254469
0.99247514
0.99325881
0.99352275
0.99365224
0.99344294
0.99331281
0.99321122
0.99280534
0.99292255
0.99271218
0.99244426
0.99248952
0.9921527
0.99243886
0.99198845
0.99195621
0.99192025
0.99177856
0.99186078
0.99129899
0.99175731
0.99124704
0.99141625
0.99098372
0.99107017
0.99101087
0.99070885
0.99055431
0.99191948
0.99218967
0.99235231
0.99219757
0.99195067
0.99191847
0.99153363
0.9915469
0.99145476
0.99103002
0.99120101
0.9908214
0.9908855
0.99075965
0.99037024
0.99063998
0.99019763
0.99034161
0.98990282
0.99005295
0.98977077
0.98971078
0.98952875
0.98927092
0.98930122
0.98896745
0.9889152
0.98975642
0.99082489
0.99099921
0.9909155
0.99062852
0.99066251
0.99028394
0.99018529
0.99018515
0.98970875
0.98996401
0.98945734
0.98957669
0.98944367
0.98897682
0.9893284
0.98868077
0.98914337
0.9884066
0.98859382
0.98822735
0.98831223
0.98811439
0.98765479
0.98765801
0.98742171
0.98741812
0.98912671
0.98946485
0.98972129
0.98960777
0.98934517
0.98935402
0.98897433
0.98905129
0.98884233
0.98847746
0.98860288
0.98813656
0.9884609
0.98797951
0.98784294
0.98782403
0.98751086
0.98784175
0.98704313
0.98728451
0.98678664
0.98705841
0.98663656
0.98635677
0.98614307
0.98602266
0.98588786
0.98740589
0.98821169
0.98840327
0.98838908
0.98801498
0.98799434
0.98790637
0.98771015
0.98771785
0.98715298
0.9873452
0.98705586
0.98705739
0.98691523
0.986416
0.98671705
0.98612849
0.98660671
0.98581332
0.98601637
0.98558114
0.98555089
0.9854635
0.98506958
0.98497623
0.98453755
0.98444513
0.98528154
0.98685939
0.98709021
0.98707649
0.98681303
0.98680853
0.98677579
0.98643972
0.98646544
0.98600813
0.98616346
0.98596138
0.98573392
0.98582014
0.98521644
0.9855908
0.98492428
0.98535105
0.98474986
0.98481798
0.98445525
0.98417697
0.98437953
0.98385437
0.98396137
0.98324352
0.98321503
0.98479154
0.98557889
0.98579185
0.98587924
0.9856769
0.98563615
0.98558423
0.98524385
0.98537372
0.98490353
0.9850426
0.98473896
0.98464472
0.98476772
0.98419114
0.98446129
0.98373259
0.98425441
0.98370985
0.98381054
0.98326977
0.9830652
0.98319827
0.98285717
0.98290062
0.98221084
0.98210905
0.98331932
0.98434899
0.98473575
0.98481236
0.98452963
0.98440696
0.98433441
0.98432328
0.98435516
0.98394188
0.98386231
0.98351409
0.98381052
0.98372382
0.98340176
0.98319053
0.98275075
0.98311719
0.98283924
0.98283105
0.98221528
0.98211971
0.98203055
0.98198362
0.98182405
0.98138969
0.98113173
0.98119453
0.98320051
0.98381781
0.98377005
0.98344491
0.98318447
0.98334891
0.98347312
0.98339071
0.98304109
0.98261231
0.98269741
0.98283156
0.98294226
0.98245388
0.9821394
0.9819304
0.98204954
0.9820752
0.9817536
0.98147709
0.9811503
0.98116707
0.98100088
0.9809389
0.9806075
0.98037481
0.98060602
0.9821857
0.98286354
0.98277959
0.98242607
0.98226957
0.98247098
0.98260962
0.98249129
0.98207047
0.98180125
0.98183736
0.98202028
0.98196911
0.98167535
0.98131342
0.9812236
0.98115294
0.98113907
0.98094213
0.98075283
0.980515
0.98033608
0.98015152
0.98003759
0.9799373
0.97970977
0.97981085
0.98123696
0.98194745
0.98192662
0.98165747
0.98153069
0.98157362
0.98174422
0.98159519
0.98142919
0.98115781
0.98110618
0.98114935
0.98101512
0.98107106
0.98063291
0.98073359
0.98034512
0.98034475
0.98016599
0.98008885
0.98002473
0.97966584
0.97957021
0.97920795
0.9792708
0.97901963
0.97879174
0.98039354
0.98111958
0.98117168
0.98107408
0.98092681
0.98087316
0.9809376
0.98083887
0.98082625
0.98058992
0.98059431
0.98040283
0.98034727
0.98035517
0.98008313
0.98022147
0.97981694
0.97981049
0.97949292
0.97947642
0.97944133
0.97918259
0.97913841
0.97869804
0.97867864
0.97838804
0.97771755
0.97967663
0.98037679
0.98051151
0.98056556
0.98054457
0.98044758
0.98031044
0.98020507
0.98018899
0.9801624
0.98021872
0.97997134
0.9798613
0.97970512
0.97959553
0.97969771
0.97949433
0.97945542
0.9790329
0.97897902
0.97887634
0.9788014
0.9787221
0.97840451
0.97821532
0.97796462
0.97749832
0.97916495
0.97984702
0.98001318
0.98015093
0.98022762
0.98013501
0.97991294
0.97974579
0.97971823
0.97980314
0.97988298
0.97969306
0.9795063
0.97929347
0.97925435
0.97930787
0.97924084
0.97915204
0.97875741
0.97864368
0.97852117
0.97854254
0.97839621
0.97817946
0.97787629
0.9776503
0.97718717
0.97884482
0.97962395
0.97981343
0.97990991
0.9799543
0.97987088
0.97970201
0.97957547
0.97956776
0.97961443
0.97963032
0.97947098
0.97929448
0.97914735
0.97911119
0.97912557
0.97904882
0.97891561
0.97864119
0.97846496
0.97837328
0.97832837
0.97819763
0.97798895
0.97770699
0.97759194
0.97696472
0.97870302
0.97957703
0.97979462
0.97982349
0.97982541
0.97976471
0.97962305
0.97961051
0.97949325
0.97952018
0.97948894
0.97933322
0.9793081
0.97911122
0.97911515
0.97903253
0.97889512
0.97881511
0.9785395
0.97851327
0.97833039
0.97832885
0.97808977
0.97793242
0.97762475
0.97751775
0.97689541
0.97873463
0.97965145
0.97989133
0.97991887
0.97984418
0.97990316
0.97972096
0.97974529
0.97960007
0.97950132
0.9795825
0.9793382
0.97948989
0.97917021
0.97923972
0.97903735
0.97895088
0.97885654
0.97865633
0.97864188
0.97839056
0.97840087
0.97809003
0.97802022
0.97773771
0.97767559
0.97695969
0.97892276
0.9798771
0.98008179
0.98019583
0.98004002
0.98014539
0.97997894
0.97989568
0.979906
0.97961187
0.9798558
0.97959029
0.97967877
0.97939284
0.97936766
0.97928375
0.97907331
0.97917787
0.97886076
0.97893434
0.97848615
0.97860378
0.97822642
0.97828745
0.97801318
0.97795645
0.97710976
0.97921702
0.98030145
0.98039436
0.98051524
0.98041748
0.98041807
0.98036171
0.98014802
0.98028362
0.97991217
0.98019078
0.97985381
0.98014449
0.97955712
0.97976854
0.97945504
0.97950592
0.97945054
0.97923408
0.97931686
0.97874494
0.97895529
0.97851649
0.97871799
0.97837276
0.97832096
0.97739569
0.97962314
0.9807843
0.98100473
0.98082781
0.98096726
0.98070052
0.98093263
0.98050396
0.98075234
0.98036586
0.98048193
0.98032426
0.98033161
0.9803702
0.97980698
0.98025389
0.97950128
0.98021541
0.97933967
0.97990373
0.97913087
0.97933531
0.97903874
0.97903283
0.97891454
0.97870808
0.97784039
0.98011988
0.98127334
0.98172089
0.98142404
0.98150193
0.98135033
0.98131414
0.9814198
0.98094489
0.98133921
0.98057444
0.98119349
0.98045971
0.98110657
0.98044598
0.98051914
0.98044578
0.9800465
0.9805733
0.97964579
0.98040321
0.97929454
0.97998129
0.97921047
0.97955397
0.97913169
0.97828235
0.98071108
0.98197844
0.98219057
0.98241539
0.98195452
0.98218691
0.98183886
0.9819993
0.98190423
0.98155691
0.98185993
0.98111567
0.98180259
0.98094186
0.9816966
0.98081173
0.98112986
0.98078195
0.98064254
0.98090209
0.9802272
0.98073457
0.97981143
0.98034812
0.97968489
0.97987114
0.97928687
0.98129842
0.98267865
0.98297949
0.98288799
0.98310626
0.98263711
0.98279435
0.98253339
0.98257323
0.98260876
0.98220244
0.98246687
0.98180792
0.98231119
0.98169039
0.98212573
0.98146056
0.98161105
0.9813815
0.98122024
0.9813348
0.98088908
0.98104543
0.98050469
0.98065529
0.98037134
0.97970301
0.98200673
0.98332683
0.98381078
0.98355019
0.98386577
0.98356947
0.98338057
0.98352397
0.98297582
0.9834639
0.98301767
0.98303904
0.98298603
0.98241454
0.98299125
0.98214681
0.9829003
0.98186867
0.98236067
0.98182405
0.98190874
0.9817879
0.98151901
0.98150701
0.98115155
0.9811729
0.98090262
0.98282361
0.98405054
0.98469768
0.98429349
0.984502
0.98441125
0.9840167
0.9844467
0.98367711
0.98414388
0.98372258
0.98370926
0.98379613
0.98326175
0.98359383
0.98295367
0.98339566
0.98288081
0.98296819
0.98255487
0.98264983
0.98240524
0.98238793
0.9821518
0.98202415
0.98180824
0.98113287
0.98355393
0.98501522
0.98513846
0.98552053
0.98477069
0.98530976
0.98488031
0.98478476
0.98510451
0.98412422
0.98506891
0.98392517
0.98474328
0.98405757
0.98412398
0.98413026
0.98346439
0.98413359
0.98318195
0.9838943
0.9828853
0.98348853
0.98275931
0.98309793
0.98264874
0.98264934
0.98257495
0.98419318
0.98563566
0.98619426
0.98584459
0.9860967
0.98561665
0.98581578
0.98573202
0.98536608
0.9856872
0.9848704
0.98559333
0.98475638
0.9852786
0.98467429
0.98468656
0.9846718