/*--------------------------------*- C++ -*----------------------------------*\
| =========                 |                                                 |
| \\      /  F ield         | OpenFOAM: The Open Source CFD Toolbox           |
|  \\    /   O peration     | Version:  2406                                  |
|   \\  /    A nd           | Website:  www.openfoam.com                      |
|    \\/     M anipulation  |                                                 |
\*---------------------------------------------------------------------------*/
FoamFile
{
    version     2.0;
    format      ascii;
    arch        "LSB;label=32;scalar=64";
    class       volScalarField;
    location    "6";
    object      rho_0;
}
// * * * * * * * * * * * * * * * * * * * * * * * * * * * * * * * * * * * * * //

dimensions      [1 -3 0 0 0 0 0];

internalField   nonuniform List<scalar> 
96472
(
1.0024443
1.0116604
1.0244312
1.0295253
1.0277656
1.024703
1.023236
1.0238348
1.0249395
1.0261142
1.0275668
1.0290671
1.0302832
1.0305199
1.0295865
1.0280665
1.0266157
1.0259372
1.026061
1.0266701
1.0272549
1.0273509
1.026669
1.0256823
1.0247037
1.0237807
1.0228902
1.0221273
1.021715
1.0217216
1.0221012
1.0226668
1.0232182
1.0235603
1.0237199
1.0238016
1.023794
1.0237175
1.0238162
1.0235945
1.0236465
1.0237623
1.0236748
1.0237868
1.0239833
1.0242948
1.0239096
1.0244537
1.0245109
1.0246644
1.0246334
1.0246698
1.0245557
1.0248575
1.0247586
1.0024547
1.0117256
1.0246939
1.0298586
1.0280063
1.0248701
1.0234361
1.0241742
1.0254433
1.0267236
1.0282612
1.0298142
1.0310979
1.031472
1.0305883
1.0289828
1.0274435
1.0266769
1.0267388
1.0273355
1.0280276
1.0283091
1.0277963
1.0268818
1.0259231
1.0249018
1.023826
1.0227856
1.0221226
1.0218901
1.0220905
1.022588
1.0231319
1.0235937
1.0238949
1.0239677
1.0240062
1.0239981
1.0238706
1.0239537
1.023886
1.0238322
1.0239446
1.0240854
1.0240122
1.0240692
1.024444
1.0243776
1.024463
1.0245296
1.0246015
1.0245405
1.024616
1.0245553
1.0243589
1.0024707
1.0118176
1.0249424
1.0301915
1.0282617
1.0250698
1.0236783
1.0245723
1.0260181
1.0274297
1.0290104
1.030579
1.0319569
1.0324936
1.0316885
1.0300588
1.0284393
1.0275633
1.0275402
1.0281316
1.0289037
1.0292898
1.0289609
1.0281601
1.0272163
1.0261079
1.0248735
1.0236513
1.022696
1.0222267
1.0222167
1.0225834
1.0231581
1.0236802
1.0240279
1.0242361
1.0242529
1.0242053
1.0242166
1.0240408
1.0240807
1.0240501
1.0240622
1.0239769
1.0242584
1.0242538
1.0242189
1.0243614
1.0244967
1.0244618
1.0244222
1.0244741
1.0244067
1.0244459
1.024111
1.0024901
1.0118866
1.0251893
1.0305072
1.0285007
1.0252914
1.0239472
1.0250055
1.0266321
1.0281506
1.0297708
1.0313658
1.03283
1.0335203
1.032832
1.0312027
1.0295473
1.0286147
1.0285232
1.0290677
1.0298843
1.0303987
1.0302251
1.0295195
1.0286162
1.0274866
1.0261379
1.0247028
1.0235178
1.022771
1.0225289
1.0227321
1.0231812
1.023732
1.0242245
1.0244643
1.0246003
1.02458
1.0245496
1.0245395
1.0244557
1.0244383
1.0244266
1.0244646
1.0243404
1.0244704
1.0244935
1.0246478
1.0244673
1.0245254
1.0245502
1.0245328
1.0243103
1.0241602
1.0242014
1.0025099
1.0119763
1.0254387
1.0308064
1.0287215
1.0254973
1.0242191
1.0254453
1.0272419
1.0288595
1.0305054
1.0320863
1.033637
1.0345031
1.0339549
1.0324125
1.0307623
1.0297977
1.0296371
1.0301215
1.0309579
1.0315855
1.0315459
1.0309481
1.0300704
1.0289131
1.0274664
1.025919
1.0245047
1.0235275
1.0230502
1.0230555
1.0234378
1.0239527
1.0244525
1.0248241
1.0249603
1.0250043
1.0248891
1.0248711
1.0247727
1.024729
1.0246464
1.0246169
1.0246739
1.0245142
1.0246565
1.0244506
1.0245117
1.0245764
1.0244794
1.0241078
1.024343
1.0241258
1.0239799
1.0025293
1.0120469
1.0256413
1.0310588
1.0289233
1.0256823
1.0244978
1.0258552
1.0278458
1.0295648
1.0312015
1.032788
1.0344081
1.0354588
1.0350782
1.0336292
1.0320313
1.0310851
1.0308761
1.0313088
1.0321535
1.032872
1.03296
1.0324489
1.0316106
1.0304271
1.0289533
1.0273041
1.025766
1.0245805
1.0238561
1.0236192
1.0237778
1.0242308
1.0247428
1.0251595
1.0254466
1.0255164
1.0256188
1.0254413
1.0254694
1.0253019
1.0252607
1.0252515
1.0250581
1.0251632
1.0249394
1.0249168
1.0249372
1.0247183
1.0243917
1.0246363
1.024333
1.0239855
1.0236881
1.0025447
1.0121252
1.0258333
1.0312906
1.0290947
1.0258321
1.0247195
1.0262074
1.0283921
1.0302074
1.0318247
1.0334009
1.0350832
1.0362957
1.0361223
1.0347892
1.0333035
1.0324245
1.0322148
1.03262
1.0334561
1.0342512
1.0344591
1.0340288
1.0332223
1.0320613
1.0305574
1.0288097
1.0271376
1.0257839
1.0248713
1.0244243
1.0244017
1.0247077
1.0251763
1.0256192
1.0258845
1.0261078
1.0259816
1.0260395
1.0258195
1.0257807
1.0257078
1.0254562
1.0255018
1.0253364
1.0251701
1.0251743
1.0249329
1.0247312
1.0247741
1.0245539
1.0240881
1.0239663
1.0241233
1.0025567
1.0121762
1.0260027
1.03149
1.0292304
1.0259461
1.0249017
1.0264986
1.0288434
1.0307692
1.0323533
1.0339186
1.035678
1.0370444
1.0370732
1.0359061
1.0345579
1.0337809
1.033619
1.0340181
1.0348454
1.0357189
1.0360684
1.0357639
1.0349973
1.0338001
1.0322313
1.0304565
1.0287267
1.0272496
1.0261386
1.0254393
1.0251743
1.0252985
1.0256777
1.0261053
1.02652
1.0266667
1.0268849
1.0268102
1.0267394
1.0266909
1.0263618
1.0264329
1.0261898
1.0258919
1.0259002
1.0256812
1.0254324
1.0252746
1.025127
1.0246097
1.0245314
1.0243568
1.0240098
1.0025603
1.0122346
1.0261332
1.0316706
1.0293407
1.0260059
1.0250038
1.0266935
1.0292037
1.0312048
1.0327653
1.0342875
1.0360757
1.0376549
1.0379085
1.0369196
1.0357421
1.035097
1.0350153
1.0354223
1.0363018
1.0372475
1.0377705
1.0375515
1.0368317
1.0356428
1.0340693
1.0322323
1.0304292
1.0288717
1.0276153
1.0267447
1.0262951
1.0262275
1.0264242
1.026783
1.0270552
1.0273622
1.0274182
1.027415
1.0274306
1.0271148
1.0271582
1.0268644
1.0265097
1.0265584
1.0262428
1.0259106
1.0256873
1.025609
1.0251106
1.0250137
1.0246668
1.0246048
1.0237299
1.0025573
1.0122724
1.0262887
1.0318245
1.029418
1.0260255
1.0250359
1.0267953
1.0294261
1.0315047
1.0330178
1.0345317
1.036368
1.0381308
1.0386088
1.0378085
1.0368087
1.0363245
1.0363377
1.0368418
1.0377457
1.038807
1.0394975
1.0394408
1.0387799
1.0376
1.0359617
1.0340893
1.032272
1.0306489
1.0292952
1.0282456
1.0275939
1.0273187
1.0273476
1.0275584
1.0278687
1.0281078
1.0282631
1.0284456
1.0282322
1.0283398
1.0280526
1.0277482
1.0277655
1.0273855
1.0269599
1.0267576
1.0265752
1.0260912
1.0256999
1.0255098
1.0249937
1.0246338
1.0244825
1.0025488
1.012308
1.0263647
1.0319496
1.0294485
1.0260129
1.0249973
1.0268107
1.0295529
1.031697
1.0331495
1.0346377
1.036524
1.0384198
1.0391294
1.0385419
1.0377551
1.0373975
1.0375607
1.0381539
1.0390994
1.0402915
1.0412103
1.0413566
1.0408136
1.0396592
1.0380326
1.0361402
1.0343001
1.0326162
1.0311685
1.0300154
1.0292153
1.0287592
1.0285717
1.0285923
1.0287564
1.0288876
1.029064
1.0289737
1.0291137
1.0289026
1.0286941
1.0286911
1.0282773
1.0279008
1.0277451
1.027447
1.026912
1.0264251
1.0263837
1.0256914
1.0256844
1.024799
1.0247051
1.0025323
1.0123382
1.0264589
1.0320448
1.0294548
1.0259573
1.0249172
1.0267562
1.0295775
1.0317714
1.0332069
1.0346777
1.0366066
1.0386135
1.0395199
1.039108
1.0385061
1.0383355
1.0385855
1.0392678
1.040366
1.0417179
1.0428537
1.0432396
1.0428505
1.0417919
1.0401679
1.0382713
1.0363632
1.0346624
1.0331643
1.0319163
1.030964
1.0303354
1.0299506
1.0298588
1.0298536
1.0300345
1.0300248
1.0301781
1.0300857
1.0299931
1.0299917
1.0296621
1.0293604
1.0291923
1.0287743
1.0282246
1.0277516
1.0276004
1.0268842
1.0264418
1.0258028
1.0256332
1.0250881
1.0025119
1.0123421
1.0265053
1.0321067
1.0294539
1.0258895
1.0247983
1.0266178
1.0295126
1.0317801
1.0331986
1.0346489
1.0365898
1.0387466
1.0398224
1.0395455
1.0390849
1.0390389
1.039429
1.0402611
1.0414454
1.042931
1.0443309
1.0450249
1.0448698
1.0439326
1.042378
1.0404736
1.0385998
1.0368497
1.0352904
1.033996
1.032995
1.0322135
1.0317078
1.0313872
1.0312697
1.0311249
1.0311693
1.0311197
1.0309943
1.0309632
1.0306857
1.0304394
1.0302897
1.0298686
1.0294074
1.0290331
1.0287649
1.0281372
1.027378
1.027351
1.0265243
1.0262028
1.0255551
1.0024874
1.0123513
1.0265637
1.0321696
1.0294375
1.0257964
1.0246359
1.026446
1.0293959
1.0317343
1.0331413
1.034599
1.036574
1.0388255
1.0400557
1.0398626
1.0395014
1.0395697
1.0400659
1.0409592
1.0422849
1.0439818
1.0456205
1.0466452
1.0467494
1.0460165
1.0445578
1.0427376
1.0408675
1.039126
1.0375563
1.0362038
1.0350832
1.0342034
1.0335563
1.0331387
1.0328846
1.0327632
1.0326362
1.0324364
1.0324052
1.0321581
1.031911
1.0317851
1.0313355
1.0309712
1.0306181
1.0301649
1.0295535
1.028721
1.0287651
1.0276238
1.0274986
1.0267064
1.0260153
1.0024612
1.0123354
1.0265826
1.0322259
1.0294076
1.0257122
1.0244597
1.0262497
1.0292546
1.0316694
1.033095
1.0345215
1.0365323
1.038835
1.0402097
1.0400856
1.0398208
1.0399383
1.0404623
1.0414749
1.0429038
1.0447303
1.0466324
1.0480401
1.04847
1.0479856
1.0466874
1.044954
1.0431122
1.0413972
1.0398043
1.0384568
1.0373302
1.0364037
1.0356697
1.0351031
1.0346812
1.0343916
1.0340959
1.0339712
1.0336529
1.0333958
1.0331945
1.0327143
1.0324208
1.0320611
1.0315076
1.0309999
1.0303454
1.0301553
1.0292692
1.0286893
1.0281193
1.0273859
1.026906
1.0024345
1.0123324
1.0266124
1.0322817
1.0293951
1.0256498
1.0242966
1.0260724
1.0291417
1.0316443
1.0330891
1.0345158
1.0365406
1.038912
1.0403916
1.0403039
1.0400452
1.0401626
1.0407545
1.0418288
1.0433108
1.0452773
1.0474361
1.0491881
1.0499655
1.0497619
1.0486392
1.0470629
1.045345
1.0436808
1.042121
1.0407649
1.0395891
1.038603
1.037808
1.037211
1.0367248
1.0363119
1.0360326
1.0356406
1.0353099
1.035013
1.0345274
1.0342505
1.0337894
1.033272
1.0327678
1.0321571
1.0316274
1.0309072
1.0298733
1.0299182
1.0287719
1.0282668
1.0278411
1.0024113
1.0123112
1.0266319
1.0323414
1.0294221
1.0256074
1.0241572
1.0259314
1.0290411
1.0316243
1.033139
1.034547
1.0365846
1.0390078
1.0405347
1.0404547
1.0402055
1.0403345
1.0408927
1.0419774
1.0435257
1.0455874
1.0479307
1.0499972
1.0511735
1.0512537
1.0504271
1.049021
1.0474012
1.04582
1.0443463
1.0430191
1.0418671
1.0408745
1.0400626
1.0393521
1.0387944
1.0383617
1.0379119
1.0375073
1.0371251
1.0366648
1.0362952
1.0357752
1.0352902
1.0346915
1.0341564
1.0334711
1.0328086
1.0318421
1.0318119
1.0304068
1.0298846
1.0293545
1.0284508
1.0023888
1.0122949
1.0266389
1.0323919
1.0294738
1.0256163
1.024101
1.0258634
1.0290057
1.0316942
1.0332358
1.0346513
1.0366826
1.0391357
1.0407231
1.0406517
1.0403553
1.0404336
1.0409435
1.0420153
1.0435664
1.045704
1.0482003
1.0505765
1.0521112
1.0525243
1.0519494
1.0507096
1.0492526
1.0477757
1.0463945
1.0451346
1.0440412
1.0430837
1.0422725
1.0415558
1.0410099
1.0404655
1.0400232
1.0396184
1.0391424
1.0386648
1.038161
1.0375811
1.0369943
1.0364343
1.0356265
1.0348946
1.034056
1.0334952
1.0325157
1.0316119
1.0312307
1.0303349
1.0293189
1.0023736
1.0123006
1.0266881
1.0324835
1.0295565
1.0256787
1.0241163
1.0258692
1.0290442
1.0318243
1.0333953
1.0347955
1.036812
1.0392819
1.0409436
1.0408615
1.0405013
1.0405269
1.0409824
1.0419849
1.0435178
1.0456533
1.048225
1.0508714
1.052736
1.0534531
1.0531422
1.0521533
1.0508606
1.0495449
1.0482832
1.0471077
1.0460635
1.0451604
1.0443563
1.0436971
1.0431109
1.0426687
1.0422625
1.0417841
1.0413042
1.0408602
1.0401885
1.0397071
1.0389536
1.0382218
1.0374626
1.0367077
1.0358735
1.0351547
1.0337953
1.0335715
1.0323172
1.0311759
1.0310876
1.0023552
1.0122823
1.0267028
1.0325574
1.0296658
1.0257958
1.0241725
1.0259201
1.0291299
1.0319783
1.0336119
1.0349845
1.0369775
1.0394573
1.0411788
1.0411068
1.0406848
1.0406164
1.0409832
1.0419414
1.043404
1.0455105
1.048167
1.0509628
1.0531105
1.0541504
1.0541408
1.0533635
1.0522612
1.0510694
1.0498879
1.0488035
1.0478691
1.0470256
1.0463302
1.0457014
1.0451885
1.0447671
1.0443451
1.0439619
1.0435838
1.0429691
1.0425477
1.0417039
1.0411489
1.0402571
1.039479
1.038534
1.0376742
1.0364481
1.0359677
1.0346295
1.0339486
1.032926
1.0323446
1.0023505
1.0122867
1.0267398
1.0326508
1.0298035
1.0259513
1.024269
1.0260089
1.0292485
1.0321688
1.0338449
1.0351985
1.0371556
1.0396379
1.0414014
1.0413405
1.0408619
1.0407097
1.0409925
1.0418622
1.0432719
1.0453438
1.0479987
1.0508878
1.053317
1.0546431
1.054857
1.0543157
1.0533469
1.0522928
1.0512405
1.0502434
1.0493774
1.0486345
1.0480132
1.0474963
1.0470398
1.0466488
1.0463477
1.0460516
1.0456244
1.0452504
1.0445941
1.0441366
1.0432966
1.0426004
1.0417289
1.040766
1.0398497
1.0386766
1.0377606
1.0365731
1.0356826
1.0347347
1.0331819
1.0023327
1.0122902
1.0267639
1.0327402
1.0299657
1.0261265
1.0244128
1.0261262
1.0293821
1.0323836
1.0340821
1.0354042
1.0373094
1.0397891
1.0416047
1.0415633
1.0410273
1.0408358
1.041047
1.0418278
1.0431487
1.0451345
1.0477241
1.0507591
1.053433
1.0549495
1.0554185
1.0550815
1.0542392
1.0533047
1.0523212
1.0514136
1.0506322
1.0499769
1.0494118
1.0489672
1.0485885
1.0482998
1.0480681
1.0478329
1.0475603
1.0472692
1.0468444
1.0463086
1.0456214
1.044888
1.043893
1.0430428
1.0417638
1.0410286
1.039596
1.0390303
1.0371088
1.0363781
1.0353863
1.0023346
1.0122805
1.0267672
1.0328278
1.0301199
1.0263167
1.0245678
1.0262544
1.0295211
1.0325843
1.0343009
1.0356008
1.0374416
1.0398955
1.0417752
1.0417823
1.0411834
1.0409562
1.0410877
1.0417792
1.04304
1.0449453
1.0475222
1.050534
1.0533138
1.055154
1.0558375
1.0556557
1.0549744
1.0541089
1.0532177
1.0523435
1.0515624
1.0509552
1.0504835
1.0501068
1.0498427
1.0496302
1.049448
1.0492935
1.0492271
1.048982
1.0488152
1.0482375
1.0478446
1.0470409
1.0462843
1.0453539
1.0442786
1.0432585
1.0419586
1.0405148
1.0394333
1.0387072
1.0370785
1.0023146
1.0122812
1.02678
1.0329115
1.0302942
1.0265188
1.0247357
1.0263813
1.0296316
1.0327478
1.0344995
1.0357677
1.0375449
1.0399667
1.0418965
1.0419649
1.0413391
1.0410608
1.0411176
1.0417669
1.042957
1.0447907
1.0472847
1.0502713
1.0532163
1.0552044
1.0560681
1.0560676
1.055469
1.0546754
1.053824
1.0530531
1.0523328
1.0517286
1.0512852
1.0509141
1.0506816
1.0505633
1.0505425
1.0505795
1.0504746
1.0505263
1.0502623
1.050176
1.0496353
1.049104
1.0484553
1.0473693
1.0466951
1.0452001
1.0442012
1.0426786
1.0420767
1.0403089
1.0383219
1.0023197
1.0122534
1.0267701
1.0329606
1.03044
1.0267155
1.024883
1.0265019
1.0297244
1.0328731
1.0346356
1.0358943
1.0376109
1.0400036
1.0419822
1.042118
1.0414711
1.0411727
1.041198
1.0417774
1.0428856
1.0446273
1.047049
1.050027
1.0530294
1.0552142
1.0562576
1.0563607
1.0558769
1.0551398
1.0543089
1.0535339
1.0528626
1.0522873
1.051798
1.0514953
1.0513037
1.0512184
1.0512841
1.0513593
1.0515806
1.05158
1.0515615
1.051427
1.0511803
1.050785
1.0500722
1.0494253
1.0483791
1.0471676
1.0460558
1.0451432
1.0436912
1.0414042
1.0411922
1.0022982
1.0122261
1.026702
1.0330173
1.0305727
1.0269068
1.0250318
1.0265862
1.0297939
1.0329675
1.034766
1.0360161
1.0376743
1.0400206
1.0420515
1.0422572
1.0416052
1.041298
1.0412835
1.0417955
1.0428192
1.0444937
1.0468201
1.049733
1.0527968
1.0551796
1.0563771
1.0565952
1.0561931
1.0554867
1.054684
1.053874
1.0531371
1.0525585
1.0520849
1.0517999
1.0516797
1.0516445
1.0517067
1.0517006
1.0518802
1.0521057
1.0523358
1.0523162
1.0522269
1.0519042
1.0514013
1.0508394
1.0497765
1.049144
1.0479621
1.0464116
1.0450678
1.043821
1.0432908
1.002265
1.0121448
1.0266497
1.0330281
1.0307535
1.0271293
1.0252405
1.0267691
1.0297403
1.0329037
1.0348045
1.0361365
1.0377201
1.0399713
1.042005
1.0424167
1.04169
1.0413707
1.0412952
1.0418538
1.0428013
1.0443504
1.0465684
1.0493906
1.0525019
1.0550559
1.0564202
1.0567709
1.0565116
1.0558684
1.0550299
1.0542147
1.0534216
1.052817
1.0522464
1.0520441
1.0517797
1.0519179
1.0519193
1.0523872
1.0525116
1.0528282
1.0529332
1.053112
1.0530461
1.0528368
1.0524993
1.0518115
1.0511778
1.0501202
1.0489906
1.0479969
1.046502
1.0457549
1.0434222
1.042266
1.0404481
1.0392217
1.0376075
1.0355154
1.0340379
1.0326581
1.0309915
1.0298992
1.0290245
1.0279335
1.0270689
1.0264136
1.0258446
1.0250629
1.0247103
1.0243138
1.0240061
1.0240194
1.0236089
1.023579
1.0237487
1.0236885
1.0238957
1.024164
1.0242863
1.0243886
1.0397171
1.0384664
1.0368072
1.0353965
1.0339874
1.0324116
1.0311705
1.030123
1.0289513
1.0279909
1.0272199
1.0265213
1.0257549
1.0252002
1.024706
1.0241926
1.0238832
1.0237154
1.0233879
1.0234709
1.0232483
1.0232679
1.0234559
1.0235271
1.0237421
1.023978
1.0240194
1.0370793
1.0359611
1.0345999
1.0332398
1.032036
1.0308903
1.0297144
1.0287904
1.0278995
1.0270799
1.0263297
1.0256787
1.025148
1.0244656
1.0240288
1.0236483
1.0232699
1.0230793
1.0230198
1.0227773
1.0228647
1.0227387
1.0229024
1.0230736
1.0232732
1.0234526
1.0236405
1.0344936
1.0333803
1.0322289
1.0310867
1.0300532
1.0290833
1.0282278
1.0274735
1.0266903
1.0260283
1.0254348
1.0248292
1.0242974
1.023796
1.0233552
1.0228742
1.0227766
1.0223483
1.0224272
1.0222116
1.0222041
1.0222108
1.0222352
1.0224947
1.0226231
1.0228843
1.0230364
1.0318304
1.0308448
1.029822
1.0289013
1.0280067
1.0272706
1.0265844
1.0259416
1.0254338
1.0248745
1.0243934
1.0239441
1.0234502
1.0230088
1.0226716
1.0221732
1.0220727
1.0217682
1.0217138
1.0216238
1.021559
1.0215321
1.0216202
1.0217636
1.021968
1.0221758
1.0223342
1.0291022
1.0282761
1.027372
1.0266348
1.0259146
1.0253372
1.0248779
1.0243531
1.0239748
1.0236678
1.0232133
1.0229493
1.02258
1.0221207
1.0218996
1.0214825
1.0213406
1.0210436
1.0211036
1.02087
1.0209106
1.0208394
1.0208834
1.0210083
1.021226
1.0213804
1.0215309
1.0263635
1.0257066
1.0249206
1.024319
1.0237531
1.0233462
1.0230371
1.0227165
1.0224427
1.0222418
1.0220253
1.0217475
1.0215398
1.0213211
1.0208862
1.0208249
1.0205046
1.0203403
1.020311
1.0202004
1.0201169
1.0200844
1.0201456
1.0201565
1.0203747
1.0205349
1.0206601
1.0237684
1.0231692
1.0224836
1.0220377
1.0216201
1.0212774
1.0211138
1.0210057
1.0207783
1.0207132
1.0206645
1.0204898
1.0203569
1.0202951
1.0200141
1.0198128
1.0197784
1.0194924
1.0194412
1.0194479
1.0192944
1.0193049
1.0192034
1.0193897
1.0193648
1.0195935
1.0197566
1.0211921
1.0206945
1.0200748
1.0197357
1.0194942
1.0192102
1.0191194
1.0191613
1.019071
1.0190398
1.0191437
1.0191314
1.0190112
1.0190828
1.0190012
1.0187217
1.0188762
1.0185452
1.0185991
1.0184954
1.018452
1.0184094
1.018318
1.0183453
1.0184626
1.0184987
1.0187367
1.0186727
1.018263
1.0177822
1.0174245
1.0173637
1.0172267
1.017095
1.0172156
1.0173181
1.0172861
1.017474
1.0175811
1.0176142
1.0177001
1.0177481
1.0176303
1.0176368
1.0176223
1.0175126
1.0175789
1.0173843
1.017473
1.0173327
1.0172655
1.0173988
1.0173897
1.0175146
1.0162993
1.0159422
1.0155811
1.0153366
1.0152094
1.0152061
1.0151506
1.0152155
1.0154881
1.0155222
1.0156795
1.0159716
1.0160433
1.0162225
1.0163457
1.0162532
1.0165107
1.0162785
1.016481
1.0163946
1.0163109
1.0163384
1.0162381
1.0161892
1.016136
1.0162488
1.0162006
1.0140204
1.0138249
1.0135092
1.0132176
1.0131879
1.0132521
1.0131901
1.0133664
1.0135425
1.0137296
1.0139489
1.0141937
1.0143685
1.0146571
1.0147556
1.0148463
1.0150976
1.0148855
1.0152592
1.0150086
1.0152206
1.0149875
1.0150765
1.0149367
1.0148561
1.0149143
1.0148491
1.0118893
1.0117733
1.0115033
1.0113088
1.0112226
1.0112914
1.011334
1.011464
1.0116918
1.0118755
1.0121585
1.0124155
1.0126666
1.0129578
1.0130105
1.0134059
1.0133708
1.0135685
1.0136775
1.0136143
1.0139175
1.0135399
1.0138105
1.0134935
1.013591
1.0134032
1.0134494
1.009848
1.0098239
1.0096171
1.0094001
1.0093585
1.0094457
1.0095089
1.009582
1.0098823
1.010061
1.0102731
1.0106732
1.010818
1.0111433
1.0114148
1.0115643
1.0117164
1.0120577
1.0119508
1.0121609
1.012246
1.0121609
1.0122875
1.011992
1.0121502
1.011895
1.0119081
1.0080428
1.0080044
1.0077877
1.0075996
1.0075849
1.0076645
1.0076629
1.0078433
1.0080373
1.008214
1.0085223
1.0087956
1.0089599
1.0094113
1.0095338
1.0097337
1.0101078
1.010142
1.0103032
1.0105342
1.0104451
1.0106331
1.010603
1.010424
1.010575
1.0102402
1.0103023
1.0061188
1.0062319
1.006038
1.0059361
1.0059255
1.0058833
1.0059866
1.0061027
1.0062033
1.006468
1.0067681
1.006826
1.0072141
1.0075147
1.0076304
1.0080097
1.0081147
1.0082674
1.0086124
1.008602
1.0086089
1.0089562
1.0088044
1.0087222
1.0088562
1.0084983
1.0086125
1.0046636
1.00459
1.0043941
1.0043506
1.0042641
1.0043009
1.0043485
1.0043385
1.0045723
1.0047624
1.0048184
1.0051016
1.0054562
1.0055082
1.0057461
1.0061449
1.0061461
1.0063814
1.006629
1.0066614
1.0067958
1.0070394
1.0068121
1.0069833
1.007038
1.006685
1.0067262
1.0027602
1.0030181
1.0028652
1.0027956
1.0027123
1.0027689
1.0027213
1.0027602
1.0029671
1.0029226
1.0031284
1.0034493
1.0034239
1.003661
1.0039782
1.0041345
1.0040768
1.0045223
1.004655
1.0045779
1.0048206
1.0050363
1.004911
1.005016
1.0050351
1.0048024
1.004848
1.0015836
1.0015352
1.0014227
1.0013214
1.0012645
1.0012592
1.0011391
1.0013381
1.001271
1.0012538
1.0015582
1.0015841
1.0016545
1.0018458
1.002065
1.0021315
1.0022261
1.0025296
1.0024857
1.0026834
1.0028161
1.0029033
1.0028166
1.0030589
1.0030781
1.0027499
1.0027888
0.99972117
1.0001198
1.0000074
1.000004
0.99980945
0.9997674
0.9998295
0.99970782
0.99974075
0.99972828
0.99992091
0.99987317
0.99983238
1.0002477
1.0000398
1.0002612
1.0003243
1.0005196
1.0005121
1.000591
1.0008064
1.0007897
1.0008245
1.0008688
1.0010109
1.0007271
1.0007424
0.99872538
0.99881016
0.99872054
0.99857128
0.99852862
0.99834752
0.99841948
0.99829659
0.99809777
0.99845072
0.99816889
0.99824013
0.99835557
0.99825446
0.99851857
0.9981875
0.99868216
0.99843601
0.99860837
0.99865116
0.99869035
0.99883541
0.99864227
0.9989299
0.99875969
0.99871394
0.99858359
0.99689179
0.99742896
0.99745226
0.99730136
0.9971179
0.99715761
0.9969466
0.99679327
0.99690153
0.99676022
0.99669622
0.99667728
0.99670294
0.99675236
0.99647723
0.99675723
0.99674161
0.99664446
0.99665217
0.99673767
0.99687778
0.99662995
0.99668467
0.99679814
0.9967871
0.99656708
0.99644257
0.99604211
0.99615347
0.99618268
0.99604037
0.99579134
0.99585003
0.99557802
0.99544169
0.99555979
0.99519081
0.99531319
0.99515273
0.99513316
0.99525671
0.99473126
0.99521246
0.99487969
0.99506342
0.99480622
0.99485905
0.99501593
0.99471942
0.99488694
0.99454264
0.99482164
0.99457581
0.99451377
0.99419035
0.99484176
0.99492794
0.99473796
0.99456845
0.99455904
0.99417607
0.99414501
0.99412522
0.99386576
0.99390519
0.9935551
0.99379781
0.99363871
0.9933431
0.99348872
0.99321792
0.993557
0.99300713
0.99320136
0.99307001
0.99303897
0.99299853
0.9926703
0.99284357
0.99259969
0.99253557
0.99328193
0.99352958
0.99365098
0.99347789
0.99329294
0.99326156
0.99283391
0.99287082
0.99279634
0.99244629
0.99252826
0.99216097
0.99240659
0.99212719
0.99190233
0.99198366
0.99172166
0.99197421
0.9913212
0.99173126
0.99129814
0.99140187
0.99111208
0.99102305
0.99105756
0.99071254
0.99062404
0.99193728
0.99223053
0.99234748
0.99225219
0.99196146
0.99194175
0.99160929
0.9915017
0.99154662
0.99106792
0.99119667
0.99091333
0.99081751
0.99089768
0.99037601
0.99066364
0.99024478
0.99032953
0.99002353
0.99003143
0.98986815
0.98964413
0.98964324
0.98929599
0.98937505
0.98894833
0.98894968
0.98977882
0.99089384
0.99100515
0.99097696
0.99066383
0.9906757
0.99039851
0.99014781
0.99027238
0.98976457
0.98997269
0.98959557
0.98947387
0.98960456
0.98897057
0.98940486
0.98873652
0.98909309
0.98858489
0.98853624
0.9884031
0.98819182
0.98828187
0.98764273
0.98777221
0.98741093
0.9874832
0.98917835
0.98953476
0.98972356
0.98968827
0.98938553
0.9894125
0.98907385
0.98901684
0.98896639
0.98849357
0.98868215
0.98822239
0.98842207
0.98814986
0.98779461
0.98797658
0.98748796
0.98791749
0.98714244
0.98726899
0.98692435
0.98700859
0.9868077
0.98632386
0.98624448
0.98604592
0.98599604
0.98744332
0.98829062
0.9884593
0.98845688
0.98810018
0.98799036
0.98802634
0.98775167
0.98780575
0.98723439
0.98731513
0.98722244
0.98703928
0.98708391
0.98639156
0.98678285
0.98623029
0.98662079
0.98599946
0.9858958
0.98579457
0.9854991
0.98566546
0.98501453
0.9850774
0.98457962
0.98457442
0.98530794
0.98695262
0.98720383
0.98715687
0.98688496
0.98679014
0.98689898
0.98653988
0.98652978
0.98610512
0.98611038
0.98615097
0.98575299
0.98595086
0.98525306
0.98560301
0.98509632
0.98531506
0.98497693
0.98468847
0.98469498
0.98411007
0.98456889
0.98384501
0.98407517
0.98329889
0.98330545
0.98483406
0.98567725
0.98590707
0.98594655
0.98577374
0.98563333
0.98571902
0.98532921
0.98543453
0.98501873
0.98501022
0.98494323
0.98462903
0.98493118
0.98423273
0.98451744
0.98387685
0.98421179
0.98393612
0.98373294
0.98351008
0.98297348
0.98337863
0.98286383
0.98306398
0.98225416
0.98217519
0.98337678
0.98444347
0.98483436
0.98489825
0.9846295
0.98444198
0.98444308
0.98437974
0.98447941
0.98403509
0.98391488
0.98361809
0.98380663
0.98391556
0.98346711
0.98330598
0.98277287
0.9831508
0.98298777
0.9829124
0.98235746
0.98208949
0.982127
0.98206419
0.98197696
0.98145223
0.98117592
0.98125308
0.98327215
0.98394526
0.98389154
0.98355055
0.98323084
0.98336838
0.9835893
0.98351655
0.98319708
0.98266926
0.98269814
0.98289914
0.983079
0.98264254
0.9821689
0.98198695
0.98204603
0.98224781
0.98187817
0.98157894
0.98115764
0.9812323
0.9811399
0.98106026
0.98066731
0.98040391
0.98065947
0.9822605
0.9830078
0.98293016
0.98253294
0.98229153
0.98249191
0.98272042
0.98265703
0.98222079
0.98184319
0.98185773
0.98207956
0.98212696
0.98181732
0.98139471
0.98123035
0.98124912
0.98124879
0.98109385
0.98078394
0.98058946
0.98040005
0.98034012
0.98011656
0.97998495
0.97971484
0.97986867
0.98131445
0.98208019
0.98207454
0.98175174
0.9815853
0.98162732
0.98183696
0.98175179
0.98151389
0.98125905
0.9811334
0.98128935
0.98109787
0.98117924
0.9807131
0.9807495
0.98054297
0.98040524
0.98033167
0.98004146
0.98013881
0.97973598
0.97979234
0.97928948
0.97930027
0.97901991
0.97890284
0.98047759
0.98120076
0.9812612
0.98116008
0.98105108
0.98097897
0.98104447
0.98090815
0.98087582
0.98069779
0.98069336
0.98059441
0.98038332
0.98044261
0.98011113
0.98029215
0.98002624
0.97989849
0.97964528
0.97940693
0.97955406
0.9792572
0.97934896
0.9787965
0.9787078
0.97841003
0.97786002
0.97977321
0.98043007
0.9805602
0.98065341
0.98069286
0.98059125
0.98041499
0.98024204
0.98023737
0.98024847
0.98036519
0.98014441
0.97991708
0.9797806
0.97961549
0.97980572
0.97964953
0.97957526
0.97915395
0.97895938
0.9789815
0.97888479
0.97888849
0.97849572
0.97826359
0.9780025
0.97762408
0.97926404
0.97992355
0.98008797
0.98024221
0.98034743
0.98025097
0.9800143
0.97981459
0.9798004
0.97989719
0.9800049
0.97981572
0.97957914
0.9793811
0.97931813
0.97943459
0.97935023
0.97925621
0.97884627
0.97867974
0.97862864
0.97863645
0.97853525
0.97825037
0.97793653
0.97770306
0.97727589
0.97894067
0.97972998
0.97992675
0.98000823
0.98003658
0.97995583
0.97980683
0.97968833
0.97967505
0.97970023
0.97971217
0.97956309
0.97938976
0.9792648
0.97921179
0.97922455
0.97912813
0.97898233
0.9787356
0.97856611
0.97849219
0.9784202
0.97826632
0.97804958
0.977787
0.97770186
0.97705034
0.97879937
0.9796832
0.97990632
0.97991803
0.97989804
0.97986064
0.97973151
0.97971796
0.9796172
0.97957598
0.97958275
0.97941575
0.97941076
0.97925167
0.97918513
0.97914579
0.97893868
0.97889937
0.97864224
0.97862544
0.97845136
0.97839048
0.97816283
0.97798379
0.97773272
0.97763343
0.97698372
0.97882893
0.97976117
0.97998524
0.98002493
0.97992058
0.97998701
0.97985377
0.97980444
0.97975173
0.97953849
0.9796921
0.97943576
0.97956614
0.97933017
0.97926569
0.97918289
0.97896034
0.9790015
0.97872537
0.978789
0.97845198
0.97847561
0.97814595
0.97810901
0.97785623
0.97779573
0.97704438
0.97901378
0.98000235
0.98016541
0.98028797
0.98014481
0.98019661
0.98013308
0.97993747
0.98004605
0.97969692
0.97990565
0.97973031
0.9797244
0.97956881
0.97937764
0.97943083
0.97910927
0.97929591
0.97895795
0.9790453
0.9785745
0.97864469
0.97832143
0.97836439
0.97814348
0.97805566
0.97719306
0.97930087
0.98041465
0.98052622
0.98055707
0.98055078
0.98044137
0.98052264
0.98019687
0.98041956
0.98000724
0.9802493
0.97994991
0.9801921
0.97976188
0.97974472
0.97965904
0.97947192
0.97964377
0.97923801
0.97946892
0.97882472
0.97901536
0.97861848
0.97877986
0.97848681
0.97839397
0.97747948
0.97971713
0.9808548
0.98115191
0.98090472
0.98104405
0.98078888
0.98098603
0.98068266
0.98074888
0.98059842
0.98041721
0.9805504
0.98022978
0.98064725
0.97979804
0.98040739
0.9795758
0.98022541
0.97954655
0.97981301
0.97943853
0.97922607
0.97929222
0.97896273
0.97907381
0.97873857
0.9779264
0.98021327
0.98134446
0.9817965
0.98159181
0.98150761
0.98153037
0.9812794
0.98161138
0.98098042
0.98144597
0.98071844
0.98116874
0.98069262
0.9809575
0.98082718
0.98034759
0.98077912
0.979906
0.98077521
0.97967647
0.98047113
0.97948607
0.97992783
0.97940167
0.97950676
0.97924747
0.97838274
0.98077566
0.98209538
0.98221873
0.98252275
0.98210432
0.98219062
0.98203619
0.98191571
0.98214406
0.98152851
0.9820422
0.98118779
0.98183016
0.98111919
0.98158448
0.98116984
0.98093989
0.98113534
0.98045636
0.98116341
0.98017757
0.98089538
0.9798771
0.98038977
0.97976566
0.97991911
0.97937715
0.98140036
0.98269656
0.98311945
0.98291908
0.98319342
0.98279959
0.98279373
0.98270556
0.98252082
0.98279202
0.98223248
0.98259802
0.98190179
0.98230972
0.98185604
0.98205771
0.98175098
0.98149073
0.98164465
0.98111273
0.98153307
0.98085766
0.98121214
0.98052105
0.98074243
0.98042512
0.9797672
0.98212774
0.98336132
0.98392256
0.98364374
0.98385509
0.98375109
0.98338448
0.98364641
0.98309502
0.98339957
0.98326183
0.98293408
0.98324947
0.98238482
0.98308489
0.98224623
0.98285993
0.98214933
0.98220901
0.98211705
0.98175071
0.98203498
0.98144541
0.9816897
0.98116167
0.98124788
0.98093886
0.98293645
0.98412758
0.98474291
0.98446739
0.98441275
0.98461088
0.98401214
0.98453789
0.98384849
0.98406353
0.98394598
0.98361776
0.98399526
0.98328474
0.98369971
0.98303455
0.98338143
0.98301716
0.98300001
0.98267381
0.98266837
0.98250099
0.9824148
0.98224341
0.98207859
0.98187799
0.98122388
0.98355273
0.98517114
0.98514587
0.98559338
0.98493337
0.98518846
0.9851752
0.98464575
0.98533137
0.98416028
0.98504285
0.98419146
0.98453981
0.98444262
0.98390174
0.98445318
0.98334255
0.98428467
0.98322455
0.98396361
0.98301299
0.98345092
0.98290039
0.98307791
0.98277907
0.98269369
0.98262961
0.98430346
0.98562578
0.98627647
0.98593272
0.98611599
0.98580047
0.98572376
0.98592895
0.98531793
0.98583471
0.98495542
0.98556737
0.98497491
0.98512514
0.98497879
0.98452296
0.98495381
0.98413039
0.98480337
0.98391727