/*--------------------------------*- C++ -*----------------------------------*\
| =========                 |                                                 |
| \\      /  F ield         | OpenFOAM: The Open Source CFD Toolbox           |
|  \\    /   O peration     | Version:  2406                                  |
|   \\  /    A nd           | Website:  www.openfoam.com                      |
|    \\/     M anipulation  |                                                 |
\*---------------------------------------------------------------------------*/
FoamFile
{
    version     2.0;
    format      ascii;
    arch        "LSB;label=32;scalar=64";
    class       volVectorField;
    location    "6";
    object      U;
}
// * * * * * * * * * * * * * * * * * * * * * * * * * * * * * * * * * * * * * //

dimensions      [0 1 -1 0 0 0 0];

internalField   nonuniform List<vector> 
62344
(
(0.19388572 -0.001369262 -1.447166e-21)
(0.18722787 -0.0024647394 -7.5805041e-22)
(0.17030793 -0.00065363793 -1.5944929e-21)
(0.16474221 0.0022356535 8.2231727e-22)
(0.16535757 0.0006876194 0)
(0.16585649 -0.00051961804 3.5663052e-21)
(0.16332524 -0.00083492708 -3.7177085e-21)
(0.15726882 0.0019349243 1.9385274e-21)
(0.1499155 0.0060291462 0)
(0.14438439 0.0088691524 0)
(0.14055799 0.010300853 8.7372165e-21)
(0.13709098 0.012302294 -1.8753165e-20)
(0.13249988 0.015120469 5.5216626e-22)
(0.12693658 0.017274997 2.0334621e-20)
(0.12165834 0.018036019 -1.0229937e-20)
(0.11849611 0.019043993 1.001852e-20)
(0.11735272 0.020067905 -1.1073171e-20)
(0.11888448 0.02138716 0)
(0.1212241 0.019997488 0)
(0.12067871 0.019038109 -7.7973675e-22)
(0.11968367 0.019135231 -4.0379916e-22)
(0.12122696 0.015227618 4.2150194e-22)
(0.11965154 0.010781596 8.7590405e-22)
(0.11173329 0.014445904 -2.9320429e-20)
(0.10832858 0.013307602 3.0489775e-20)
(0.11054521 0.008041 0)
(0.10491185 0.010725595 0)
(0.10105762 0.015065327 -2.6925977e-22)
(0.10777449 0.010610002 -3.5661977e-20)
(0.10972411 0.0078497038 3.7431698e-20)
(0.10594614 0.010889561 3.8722117e-20)
(0.10871156 0.0095976862 -4.0306693e-20)
(0.10809019 0.0088741193 -3.2715093e-22)
(0.10318059 0.01185411 4.3164367e-20)
(0.1110304 0.0030209839 -4.5249807e-20)
(0.12357098 -0.010134071 -3.6940751e-22)
(0.12312301 -0.0108168 -4.936338e-20)
(0.1191768 -0.011751287 1.0023239e-19)
(0.12306752 -0.019347165 -1.0539053e-19)
(0.12421883 -0.020332183 -6.2280601e-22)
(0.11215359 -0.0096872516 -1.6875465e-21)
(0.098968316 -0.003528838 1.1871192e-19)
(0.10331611 -0.015163415 -6.2056112e-20)
(0.12512276 -0.040811804 0)
(0.14584145 -0.065806597 -6.5809992e-20)
(0.15355077 -0.078074366 1.3677829e-19)
(0.15233959 -0.07760719 6.7754382e-22)
(0.14757559 -0.069158683 -1.4576246e-19)
(0.13647415 -0.055732505 7.742427e-20)
(0.11904137 -0.041923882 0)
(0.10484287 -0.035218132 0)
(0.10662003 -0.039895129 8.5616639e-20)
(0.12524381 -0.055267144 -9.118383e-20)
(0.15570894 -0.074286538 -1.8448185e-22)
(0.17945189 -0.097993821 -9.4528967e-20)
(0.19426419 -0.0011807858 -7.635632e-22)
(0.18752136 -0.0026271977 8.0070668e-22)
(0.16994455 -0.0014745381 2.5243781e-21)
(0.16454714 0.0017174832 -2.6156081e-21)
(0.16562291 0.0015036105 0)
(0.16618024 0.00052282598 3.7648305e-21)
(0.16320421 0.00048399196 -4.9013277e-21)
(0.1568622 0.0020997507 -5.1211948e-21)
(0.14986309 0.0032224519 5.3175403e-21)
(0.14414055 0.0053134921 0)
(0.14020413 0.0081128895 0)
(0.13696241 0.0092750036 6.0047775e-22)
(0.13243065 0.0096735547 -6.2345402e-22)
(0.12727428 0.011753756 9.1303619e-21)
(0.12197703 0.012777378 -1.079788e-20)
(0.11857069 0.014683321 0)
(0.11733873 0.015733295 0)
(0.11856963 0.015343789 0)
(0.12101148 0.015397653 1.2694914e-20)
(0.12071566 0.015601368 4.4430643e-22)
(0.12037166 0.015520658 -1.6893995e-23)
(0.12310205 0.012504657 -4.3152497e-20)
(0.12114715 0.0095013026 2.9154333e-20)
(0.11295251 0.011452656 0)
(0.11003915 0.0086340811 3.2154258e-20)
(0.11118224 0.005574671 1.0994322e-22)
(0.10446463 0.0091281959 -6.9742823e-20)
(0.10069329 0.011287533 3.6488669e-20)
(0.10782585 0.0064413445 -2.9451724e-22)
(0.10928399 0.0055023085 -3.9769902e-20)
(0.10517028 0.0079087128 4.0436882e-20)
(0.10840826 0.005338255 3.3160796e-22)
(0.10851146 0.0048085868 -4.4145061e-20)
(0.10409963 0.0058179012 9.1152232e-20)
(0.11028567 -0.00019179261 -4.8026735e-20)
(0.12102882 -0.0042288293 3.8795257e-22)
(0.12494806 -0.0041351251 0)
(0.12444547 -0.011031535 0)
(0.12416519 -0.017284956 2.1705782e-22)
(0.1212118 -0.012198455 5.8401882e-20)
(0.11440939 -0.0036934639 -1.2206144e-19)
(0.10925728 -0.0086233836 6.3266514e-20)
(0.11377487 -0.025937305 6.407668e-20)
(0.130294 -0.046134392 -1.3592149e-19)
(0.14771582 -0.057637771 7.1066987e-20)
(0.15273448 -0.05933692 0)
(0.14660507 -0.05215205 0)
(0.13954215 -0.0408705 0)
(0.13424689 -0.031015371 1.6387269e-22)
(0.1291105 -0.028995461 -1.6910563e-22)
(0.12251056 -0.0365055 0)
(0.11761465 -0.049140527 4.0119046e-24)
(0.12419798 -0.066328223 -1.8723403e-22)
(0.14913909 -0.077390515 2.8913004e-22)
(0.1720485 -0.091351806 -1.0108899e-22)
(0.19457122 -0.0012828383 8.0563636e-22)
(0.18747606 -0.0024752155 -8.4488818e-22)
(0.16989088 -0.0011699236 -8.8682849e-22)
(0.16401441 0.0016836797 9.2062606e-22)
(0.16560401 0.0018183457 -9.5673591e-22)
(0.16612287 0.0017646059 9.9416478e-22)
(0.16319593 0.0024116818 2.0678646e-21)
(0.15697379 0.0028648214 0)
(0.14981492 0.0034828774 3.3755459e-21)
(0.14370874 0.0058639492 -5.253517e-21)
(0.14007124 0.0082695968 0)
(0.13736553 0.0088352303 -6.3168879e-22)
(0.13268001 0.0090820771 1.5727327e-24)
(0.12710191 0.011584588 2.0774111e-25)
(0.12161819 0.013630284 1.1473507e-20)
(0.11806242 0.016192037 -1.1128828e-20)
(0.11745041 0.017549585 0)
(0.11841855 0.015572621 0)
(0.12066108 0.016308643 0)
(0.12084586 0.016670801 0)
(0.12075357 0.015704133 0)
(0.12411118 0.012667041 1.5489841e-20)
(0.12205213 0.011800955 -1.5627623e-20)
(0.11414024 0.014415207 -5.097838e-22)
(0.11148057 0.011262055 5.3277067e-22)
(0.1115697 0.009149858 0)
(0.10454257 0.013627705 0)
(0.10164497 0.014084678 3.0003364e-22)
(0.10867213 0.0082145081 3.1073834e-22)
(0.1095747 0.0086320606 0)
(0.10614963 0.010140402 0)
(0.10929954 0.0052289029 -4.5198531e-20)
(0.10894729 0.0058710751 9.3148232e-20)
(0.10547559 0.0074188728 -4.8094402e-20)
(0.11092228 0.00028335528 -1.9673081e-22)
(0.11978207 -0.0059851335 5.2445866e-20)
(0.12624854 -0.0074123783 -5.4771252e-20)
(0.12922604 -0.013764461 0)
(0.12451682 -0.016846437 -7.4266032e-25)
(0.11623972 -0.0091570815 0)
(0.11443221 -0.0013794467 6.3719306e-20)
(0.11967098 -0.008475754 -6.674313e-20)
(0.12626379 -0.026934509 -6.8937102e-20)
(0.1350145 -0.044763451 7.2098555e-20)
(0.14416218 -0.05031414 -1.952693e-24)
(0.14624665 -0.044631973 0)
(0.13867798 -0.034008251 0)
(0.12950191 -0.021717997 -1.6646882e-22)
(0.1281804 -0.015735836 -8.6639671e-20)
(0.13564948 -0.018509169 9.0435881e-20)
(0.14210958 -0.030653998 0)
(0.14326345 -0.048223758 9.8887824e-20)
(0.14191824 -0.067881164 -1.0213579e-19)
(0.14791565 -0.083233024 1.0430627e-19)
(0.16146185 -0.093893281 -1.0957282e-19)
(0.19497328 -0.0014931758 -4.2153459e-22)
(0.18752856 -0.0026166547 -1.3437605e-21)
(0.16963409 -0.0011700306 2.8045378e-21)
(0.16387044 0.00045870813 -1.9399347e-21)
(0.165641 0.00053003256 -3.0165319e-21)
(0.16594199 0.0015582382 3.1587465e-21)
(0.1632118 0.0022200078 -5.4547025e-21)
(0.15726586 0.002336577 9.1214918e-21)
(0.14984528 0.0035077476 -5.3252136e-21)
(0.14352752 0.0049231483 1.2336158e-21)
(0.13994987 0.0056026894 6.4132898e-22)
(0.13740661 0.0062631228 1.0691242e-20)
(0.13251293 0.0076082207 -9.7059103e-21)
(0.12668973 0.0095628635 1.2342481e-20)
(0.12118674 0.011351505 6.7266137e-23)
(0.11762791 0.013516347 -2.5900183e-20)
(0.11762683 0.0145071 1.2647105e-20)
(0.11857628 0.012833568 -4.2346946e-22)
(0.12031193 0.013908623 1.4156603e-20)
(0.12114328 0.013988858 -1.4214543e-20)
(0.12158349 0.012183302 0)
(0.124796 0.008285285 0)
(0.12228985 0.0093958748 -1.6107246e-20)
(0.11511581 0.012683242 1.770869e-20)
(0.11299709 0.0092074818 1.7458184e-20)
(0.11161566 0.0074189203 -1.8655918e-20)
(0.10431479 0.012312862 -1.9531018e-20)
(0.10246807 0.011983285 1.9935196e-20)
(0.10864768 0.0069195898 0)
(0.10900872 0.0092630156 0)
(0.10728207 0.010035683 0)
(0.11011399 0.0041935942 0)
(0.1083369 0.0068048616 0)
(0.10683917 0.0089760587 0)
(0.11380746 0.00058506191 2.0810626e-22)
(0.12035895 -0.0075572125 -5.5320881e-20)
(0.12667208 -0.010808982 5.7837668e-20)
(0.13248814 -0.014808461 2.3130848e-22)
(0.12579592 -0.015428002 -4.8226064e-22)
(0.11250686 -0.0082022152 6.5477254e-20)
(0.11190483 -0.0032248736 -6.7284155e-20)
(0.12647198 -0.010699724 6.8766873e-20)
(0.13973253 -0.028315175 -7.3675425e-20)
(0.14209699 -0.043815257 7.6062515e-20)
(0.13958084 -0.046701177 -1.5526863e-19)
(0.13702489 -0.037463135 -9.508226e-22)
(0.13090322 -0.024452953 -1.4177649e-21)
(0.12314452 -0.014590193 -8.8216064e-22)
(0.12394047 -0.013355185 5.3990049e-22)
(0.13542341 -0.019888722 2.1016312e-21)
(0.15289148 -0.031369725 1.0105037e-19)
(0.16542226 -0.047068062 0)
(0.16915899 -0.06686697 1.0760399e-19)
(0.1649894 -0.078727706 9.8101142e-22)
(0.16208227 -0.090148968 -1.1140193e-19)
(0.19539288 -0.0014016435 8.9699735e-22)
(0.18760478 -0.0027501808 9.4047698e-22)
(0.169539 -0.0016551891 9.8831921e-22)
(0.16370549 -0.00033522195 0)
(0.16533102 -1.5765183e-05 0)
(0.16595439 0.001208668 0)
(0.16335796 0.0016018092 -5.7544668e-22)
(0.15758948 0.0025231654 4.8153162e-21)
(0.15001276 0.0041226249 -4.3691251e-21)
(0.14375173 0.0052589118 -6.5121933e-22)
(0.14010915 0.0057633409 -5.4093726e-21)
(0.13730127 0.0064119251 5.6328328e-21)
(0.13251262 0.0073363462 -1.2500125e-20)
(0.12691787 0.007784681 1.2183279e-20)
(0.12107785 0.0095008117 0)
(0.11738935 0.01173392 0)
(0.11754032 0.012950701 8.598811e-22)
(0.11832273 0.012826546 4.4746546e-22)
(0.11994983 0.013734004 -1.4916434e-20)
(0.12142744 0.013280271 1.5053414e-20)
(0.12239313 0.011513504 0)
(0.12528084 0.0076051625 0)
(0.12213426 0.0093095368 -5.4317333e-22)
(0.11595739 0.012069389 0)
(0.11469978 0.0086871641 -1.8714523e-20)
(0.11215204 0.0072187834 1.9663241e-20)
(0.10441259 0.011592752 0)
(0.10312638 0.010412314 0)
(0.10816614 0.0067734667 0)
(0.10814288 0.011002176 0)
(0.10869941 0.010700444 0)
(0.11099935 0.004953447 0)
(0.10721069 0.0091682632 -2.0400725e-22)
(0.10784147 0.011323479 -2.1151652e-22)
(0.11736951 0.0020468421 0)
(0.12300671 -0.007492725 -2.2828677e-22)
(0.12674543 -0.012359795 3.0232603e-20)
(0.13303347 -0.013282275 -3.1623989e-20)
(0.12774017 -0.011146172 2.5375259e-22)
(0.1125495 -0.0050844248 2.6816881e-22)
(0.10981385 -0.004410286 0)
(0.12812033 -0.01295717 2.8741361e-22)
(0.14845964 -0.027943433 1.4378509e-24)
(0.15157301 -0.039672782 7.9980296e-20)
(0.140386 -0.041666491 1.8818178e-21)
(0.12869996 -0.033380575 -8.6226082e-20)
(0.12255983 -0.020332785 -1.7648817e-22)
(0.1196168 -0.012146386 0)
(0.12280188 -0.013488203 -1.893765e-22)
(0.13510324 -0.021171205 -1.9530397e-22)
(0.1542317 -0.033845664 1.0332594e-19)
(0.17421621 -0.047393815 -1.1014523e-19)
(0.18674364 -0.060233346 1.1055874e-22)
(0.18663079 -0.067407918 -1.7942331e-24)
(0.17451324 -0.072911992 -1.2008454e-22)
(0.19576717 -0.0011336333 0)
(0.18767877 -0.0024043885 0)
(0.16939748 -0.0019577833 -1.0418647e-21)
(0.16373846 -0.00081854959 0)
(0.16549862 -0.00085360448 2.2401786e-21)
(0.16634976 -0.00041733878 -1.7588634e-21)
(0.16388089 0.00019557485 6.067853e-22)
(0.15786174 0.0017114658 0)
(0.15032393 0.0037510968 6.6019489e-22)
(0.14389304 0.0055645365 0)
(0.14036969 0.006172895 -7.1391937e-22)
(0.13732265 0.0059875432 -5.2008786e-21)
(0.1328812 0.0057575853 1.2377676e-20)
(0.12698526 0.005533451 -6.4232483e-21)
(0.12078161 0.0082049012 0)
(0.11712008 0.01039094 0)
(0.11715705 0.011217236 5.4445618e-25)
(0.11811721 0.012423654 -4.7357292e-22)
(0.11981137 0.012676294 0)
(0.12155638 0.012082866 0)
(0.12293787 0.010799538 5.3210711e-22)
(0.12577339 0.0073793115 1.7114328e-20)
(0.12226726 0.0086810417 -3.6996683e-20)
(0.11690642 0.01021481 1.9357395e-20)
(0.1161995 0.0070223721 1.9648695e-20)
(0.11275709 0.0060899067 -2.080049e-20)
(0.10497297 0.0094101022 -2.1785672e-20)
(0.1037373 0.0075213145 2.2539486e-20)
(0.10705929 0.0057239557 -2.3403113e-20)
(0.10671897 0.011104364 4.8667762e-20)
(0.10975494 0.0096945652 -2.5835376e-20)
(0.11145888 0.0053331547 2.0497227e-22)
(0.10561568 0.010636051 4.2952947e-22)
(0.1082394 0.012239768 4.4571503e-22)
(0.12092699 0.0024401637 0)
(0.12674936 -0.0071949581 -3.0679837e-20)
(0.1270004 -0.012387421 6.4036241e-20)
(0.13144732 -0.011776259 -3.3090136e-20)
(0.12829958 -0.0067122159 -2.6884817e-22)
(0.11473051 -0.0006834748 -2.8411119e-22)
(0.11063765 -0.0039134158 0)
(0.12726657 -0.01500817 -3.8039521e-20)
(0.15085665 -0.027023733 1.0759121e-21)
(0.15886291 -0.033705027 4.1203587e-20)
(0.14560976 -0.033531632 0)
(0.12684224 -0.02872583 0)
(0.11500565 -0.020150479 -4.8064331e-20)
(0.11458772 -0.013567754 4.9546675e-20)
(0.12291351 -0.01419328 -2.765348e-25)
(0.13717439 -0.021905674 1.0601235e-19)
(0.15485143 -0.036305677 -2.2171171e-19)
(0.17336496 -0.047501936 2.2952186e-19)
(0.18644964 -0.056623546 -1.1920793e-19)
(0.19283244 -0.056399904 -1.1720855e-22)
(0.18431395 -0.055313562 1.2177453e-22)
(0.1960605 -0.00085637102 5.0322873e-22)
(0.18784096 -0.001864875 -5.1883596e-22)
(0.16942242 -0.0023229165 -2.2008198e-21)
(0.1637824 -0.0012275531 2.2799309e-21)
(0.16546264 -0.0013735076 2.9558855e-21)
(0.16622229 -0.0013384308 -6.1630471e-21)
(0.16383776 -0.00040947132 1.9240661e-21)
(0.15770623 0.0013145427 -6.6907559e-22)
(0.15011723 0.0039469331 -6.9600356e-22)
(0.14387392 0.0061566796 -5.7861561e-21)
(0.14056135 0.0067582993 6.0271463e-21)
(0.13771113 0.0060730343 0)
(0.13333181 0.0056644228 0)
(0.12712286 0.0058384004 -4.2496928e-22)
(0.12067902 0.0083805647 -4.4278396e-22)
(0.11704461 0.0095991849 7.3771315e-21)
(0.11685228 0.0096832322 -2.3434236e-20)
(0.11773331 0.012047178 1.6910042e-20)
(0.11969901 0.011528207 -1.6588156e-20)
(0.12145696 0.011205545 3.4546559e-20)
(0.12330893 0.010837344 -6.1349495e-22)
(0.12623892 0.0085192174 -3.6938785e-20)
(0.12292873 0.0090743933 1.9891024e-20)
(0.11810112 0.0095043496 2.026404e-20)
(0.11734248 0.0063127545 -2.1102066e-20)
(0.11326866 0.005805198 0)
(0.10567552 0.0080951229 -2.295934e-20)
(0.10439465 0.0059877426 2.376114e-20)
(0.10576707 0.0055352386 3.8441188e-22)
(0.10543043 0.010734992 4.0047765e-22)
(0.11060239 0.00780296 6.2621529e-22)
(0.11149263 0.0050022741 -2.1700745e-22)
(0.10419332 0.010753277 -4.5333883e-22)
(0.10822979 0.01090233 -2.3527717e-22)
(0.12343905 0.0015049517 0)
(0.13054741 -0.0067004262 0)
(0.12821995 -0.011083934 -3.3871211e-20)
(0.12913861 -0.010433715 7.0138586e-20)
(0.12723114 -0.0034480967 -3.5720198e-20)
(0.11772467 0.002965523 -1.4988025e-22)
(0.11449251 -0.002370326 0)
(0.12711036 -0.015987188 0)
(0.14871645 -0.02643755 -4.2361969e-20)
(0.15979949 -0.028198552 4.3728458e-20)
(0.15183002 -0.024424484 -4.6219957e-20)
(0.13259659 -0.020880215 4.7635488e-20)
(0.11417317 -0.018653307 1.9659559e-22)
(0.10932855 -0.01634701 -5.2276496e-20)
(0.11864117 -0.017579753 5.4623843e-20)
(0.13650378 -0.024479049 0)
(0.15774432 -0.037283217 -6.1303513e-25)
(0.17435722 -0.04809218 -5.9832919e-20)
(0.18159144 -0.053999564 1.2569124e-19)
(0.18646822 -0.050435757 -1.2693403e-19)
(0.18264561 -0.045203082 6.5465502e-20)
(0.19629455 -0.0007941297 0)
(0.18805623 -0.0015142575 1.1159051e-21)
(0.16947626 -0.0022958797 1.2296972e-23)
(0.16374614 -0.0012300915 -1.2035967e-21)
(0.16543782 -0.001805863 -2.3697793e-25)
(0.16611199 -0.0019056977 6.49233e-22)
(0.16364063 -0.00095589588 -1.3522837e-21)
(0.15746747 0.000885135 3.5256056e-21)
(0.14992141 0.0038650904 0)
(0.14395939 0.0060625299 0)
(0.14066313 0.0068597818 -5.5504442e-21)
(0.13806845 0.0062346939 6.6132482e-21)
(0.13365567 0.0064603383 0)
(0.12717983 0.0069608003 4.4778002e-22)
(0.1207578 0.008660723 4.6655632e-22)
(0.11720027 0.0086626275 0)
(0.1165428 0.0085518 -8.0651707e-21)
(0.11742282 0.011674433 -5.1310199e-22)
(0.11963174 0.010187389 9.2798878e-21)
(0.12116174 0.010483939 0)
(0.12325424 0.010863139 1.888263e-20)
(0.12634959 0.009448888 -3.9256361e-20)
(0.12348037 0.0095013147 2.0021235e-20)
(0.11915927 0.0092338459 -2.1700579e-20)
(0.11837482 0.0060395891 2.2592201e-20)
(0.11407964 0.0057115925 0)
(0.10668078 0.0073506223 0)
(0.10506229 0.0052267434 0)
(0.10474965 0.0058372602 -4.0706672e-22)
(0.10451636 0.0098903583 -4.2193066e-22)
(0.11098683 0.0059489167 -2.8356899e-20)
(0.11140168 0.0045454485 2.9259989e-20)
(0.10320839 0.010473136 2.3778932e-22)
(0.10794529 0.0087930551 0)
(0.12446487 -3.2319909e-05 0)
(0.13326552 -0.0057759266 2.6746042e-22)
(0.13037676 -0.0088563733 0)
(0.12720485 -0.0093451955 -2.8727473e-22)
(0.12422863 -0.0013449608 -3.894884e-20)
(0.11942667 0.0054545889 4.0027687e-20)
(0.12037279 -0.00025469203 4.0973058e-20)
(0.13013247 -0.015408332 -4.3563255e-20)
(0.14504982 -0.025813016 4.4769995e-20)
(0.15512859 -0.024074821 -4.6971503e-20)
(0.15362285 -0.016912171 -4.9030319e-20)
(0.14098632 -0.012023883 -1.6172585e-21)
(0.1224053 -0.013033625 1.0643645e-19)
(0.11025911 -0.016820663 -5.4885972e-20)
(0.11383919 -0.022493161 0)
(0.13191143 -0.029949803 -5.7849131e-20)
(0.15601199 -0.040234402 1.2291666e-19)
(0.1743416 -0.047713856 -6.4140772e-20)
(0.18013488 -0.0508734 0)
(0.17974516 -0.046134968 -1.310773e-22)
(0.17512233 -0.040280842 6.9680999e-20)
(0.19648755 -0.00087281724 0)
(0.18828656 -0.0015228266 0)
(0.16955965 -0.0022449134 0)
(0.16376583 -0.001153723 1.8947727e-21)
(0.16551028 -0.0018968818 -3.3017255e-21)
(0.16605098 -0.0021166329 2.7351295e-21)
(0.16349345 -0.0011926511 -3.5641135e-21)
(0.15730475 0.00077951689 -7.4391839e-22)
(0.14960024 0.0036423557 -7.7425721e-22)
(0.1438976 0.0056620175 -7.243552e-21)
(0.14077847 0.0066692144 5.8693597e-21)
(0.13836758 0.006724142 0)
(0.13388098 0.0074305916 7.2680122e-21)
(0.12729577 0.0077408326 4.5928938e-23)
(0.12097269 0.0084295448 -1.6228924e-20)
(0.11735284 0.0080794217 8.1963356e-21)
(0.11617828 0.0082576373 -5.3162143e-22)
(0.11706694 0.011061419 -5.5118768e-22)
(0.11963939 0.0090921102 -2.3383843e-25)
(0.12080249 0.0099034845 2.9996827e-22)
(0.12321568 0.010082371 3.1229636e-22)
(0.12664593 0.0091283848 3.2251927e-22)
(0.1241659 0.0092879024 0)
(0.12025767 0.0087052099 0)
(0.11938032 0.0057528711 -2.387619e-20)
(0.11482919 0.0055112502 2.4744517e-20)
(0.107681 0.0067360791 0)
(0.10557658 0.0047262308 0)
(0.10395874 0.0062026739 0)
(0.10408922 0.008760498 2.2362482e-22)
(0.11141137 0.0041754281 0)
(0.11104965 0.0040440961 3.1189333e-20)
(0.10279264 0.0096813676 -3.1734452e-20)
(0.10775666 0.0064621391 2.6061149e-22)
(0.12427108 -0.0017018471 -3.4746452e-20)
(0.13424375 -0.0051463063 3.5970961e-20)
(0.13270394 -0.0074277778 0)
(0.12688957 -0.0089118391 3.9106083e-20)
(0.12071603 -0.0014112212 -4.0732615e-20)
(0.11867112 0.005976424 1.6547063e-22)
(0.12548251 0.0015151513 4.3854001e-20)
(0.13531248 -0.013378867 -4.6184755e-20)
(0.14340859 -0.02458377 0)
(0.14894406 -0.022210997 4.9167138e-20)
(0.15019116 -0.01371507 -5.1082268e-20)
(0.14556263 -0.0065589359 4.1929265e-22)
(0.13422017 -0.0056503629 0)
(0.12122431 -0.011840301 5.8825542e-20)
(0.11700362 -0.023231464 -6.0478242e-20)
(0.1275942 -0.035404056 6.1888715e-20)
(0.14887876 -0.044924311 -6.6149935e-20)
(0.16760029 -0.047420995 -6.6930131e-20)
(0.1767099 -0.046156672 1.4001717e-19)
(0.17573475 -0.039935467 1.0353274e-21)
(0.1696336 -0.034347148 1.0296036e-21)
(0.19669171 -0.0010224569 -5.8421524e-22)
(0.18847673 -0.0017947405 -6.1974118e-22)
(0.16966628 -0.001998914 -1.2971332e-21)
(0.16368218 -0.00088573921 1.9667073e-24)
(0.16555515 -0.0015866709 1.3926379e-21)
(0.16589316 -0.0018102514 2.8826408e-21)
(0.16332396 -0.0012942712 -3.006157e-21)
(0.15716454 0.00056518722 7.8397299e-22)
(0.14940384 0.0032400684 4.0840271e-21)
(0.14368361 0.0053034729 -9.3314915e-21)
(0.14077842 0.0065570077 4.5093871e-22)
(0.1385726 0.0073119423 7.3422541e-21)
(0.13421298 0.0081136125 4.7739635e-22)
(0.12760861 0.0081491709 0)
(0.12116364 0.0082044436 5.191112e-22)
(0.11738086 0.0083265131 -5.4062676e-22)
(0.11573882 0.0090429874 -6.5448537e-25)
(0.11685739 0.01072834 1.1621566e-21)
(0.11963293 0.0085492747 -6.0572698e-22)
(0.12060995 0.0097827446 9.8076955e-21)
(0.12310446 0.0092765542 -2.1349936e-20)
(0.12676372 0.0083246006 1.0920753e-20)
(0.12474187 0.0090778334 0)
(0.1212057 0.0087895629 -1.1871229e-20)
(0.1202223 0.0060486021 1.1969942e-20)
(0.1156116 0.0059477448 -4.0231378e-22)
(0.10868399 0.0068862185 -4.1987685e-22)
(0.10597564 0.0047986583 0)
(0.10339891 0.0069472625 0)
(0.10402472 0.0081814391 -2.3571704e-22)
(0.11164939 0.0033168307 0)
(0.11068732 0.0044505196 0)
(0.10268858 0.0096243206 -3.367614e-20)
(0.10774006 0.0050722689 2.6411981e-22)
(0.12328815 -0.002291738 7.3827834e-20)
(0.1339602 -0.0042794221 -3.8514686e-20)
(0.1349069 -0.0061593172 0)
(0.1276918 -0.0084205745 1.6013146e-22)
(0.11810099 -0.0025593162 -1.6895241e-22)
(0.11650949 0.0051273264 -1.7393581e-22)
(0.12755293 0.002272145 -4.5659552e-20)
(0.14166447 -0.010374526 4.8700887e-20)
(0.14621154 -0.022397508 0)
(0.14392405 -0.022308713 0)
(0.14335273 -0.014072542 -2.1011222e-22)
(0.14332583 -0.0050751254 -2.2028581e-22)
(0.14087643 -0.00066602103 -5.9256524e-20)
(0.1345232 -0.0045916638 6.1235635e-20)
(0.13027337 -0.018688303 6.3924012e-20)
(0.13200958 -0.035876405 -6.6329085e-20)
(0.14250645 -0.046320734 -1.3384731e-22)
(0.15644069 -0.047641517 7.0907912e-20)
(0.16650391 -0.042008517 -7.4228263e-20)
(0.16921708 -0.033399818 0)
(0.1656508 -0.025889796 -8.0385232e-20)
(0.19690099 -0.0011519013 9.2606825e-22)
(0.1886074 -0.0021110163 -3.20318e-22)
(0.16973481 -0.0015599607 6.7852308e-22)
(0.16363543 -0.00052056388 7.0437187e-22)
(0.16565631 -0.0011771787 2.9206102e-21)
(0.16585315 -0.0015071034 -5.3242916e-21)
(0.16323506 -0.0012743123 3.1671251e-21)
(0.15704678 0.00037675045 0)
(0.14936975 0.0026904641 3.8732903e-21)
(0.14353298 0.0047358395 -3.1284204e-21)
(0.14068848 0.0062141355 -9.3012125e-22)
(0.13856385 0.0072237415 0)
(0.13439657 0.0077518007 -1.0071454e-21)
(0.12801368 0.0078616456 5.2463835e-22)
(0.12151273 0.0078377648 -5.4691713e-22)
(0.11752192 0.0085435165 -6.4335506e-25)
(0.11550772 0.0094128694 -8.8475368e-21)
(0.11661877 0.009530839 1.8985441e-20)
(0.11947669 0.0079131928 -1.0252201e-20)
(0.12049854 0.0094154022 0)
(0.12307481 0.008152736 -3.4658224e-22)
(0.12668592 0.0068456456 0)
(0.12514338 0.0081273386 -3.7330473e-22)
(0.12210512 0.0084194777 0)
(0.12111206 0.0060061738 3.0161181e-25)
(0.11631148 0.0059645068 4.2415676e-22)
(0.1094791 0.0068292705 4.4242867e-22)
(0.10640982 0.0046960209 1.4783336e-20)
(0.103086 0.0068945761 6.3636526e-23)
(0.10398168 0.0071150173 -1.5872185e-20)
(0.11154856 0.0023737684 3.2999186e-20)
(0.11022971 0.0048675149 -6.8851114e-20)
(0.10292953 0.0095348798 3.5597985e-20)
(0.10793035 0.0042518235 -2.9034983e-22)
(0.12185257 -0.0022050005 -3.0257141e-22)
(0.13303893 -0.003260929 3.1298427e-22)
(0.13703163 -0.0054588609 0)
(0.12992008 -0.0082898962 1.679087e-22)
(0.11686136 -0.0040833243 1.7766159e-22)
(0.11335583 0.0032330704 0)
(0.12704279 0.0016928077 -3.8028119e-22)
(0.14593915 -0.0083280396 0)
(0.15219733 -0.018909259 2.0485923e-22)
(0.14454329 -0.022196644 -5.5166583e-20)
(0.13812183 -0.017256131 5.7114016e-20)
(0.13701877 -0.0076528302 0)
(0.13884883 0.00070013266 -1.2194781e-22)
(0.14294524 0.0011198152 0)
(0.14619893 -0.010848575 6.6169463e-20)
(0.14596097 -0.029479581 -6.9622957e-20)
(0.14532061 -0.043306823 1.4124752e-22)
(0.14788814 -0.046289509 0)
(0.15312907 -0.040291063 -7.5556976e-23)
(0.15705982 -0.029821653 0)
(0.15938194 -0.019555257 8.2022788e-23)
(0.19713334 -0.0012186361 -3.2722069e-22)
(0.18871395 -0.002308248 1.0180087e-21)
(0.16975718 -0.0011348671 -7.1544351e-22)
(0.16357209 -0.00015896169 1.4785401e-21)
(0.16569019 -0.00076344805 -2.3174852e-21)
(0.16601411 -0.0011702126 -9.4936391e-25)
(0.16321251 -0.0011636193 -3.3337759e-21)
(0.15685183 0.00033985071 3.4778294e-21)
(0.14920382 0.0022022149 3.1744709e-21)
(0.14324554 0.0040826631 -8.0072913e-21)
(0.1405848 0.0055453505 4.9584283e-22)
(0.13855184 0.006560586 4.079528e-21)
(0.13457243 0.0069506025 -7.9810189e-21)
(0.12837023 0.0074294167 8.2671539e-21)
(0.12190116 0.0074354971 5.763826e-22)
(0.11769356 0.0084867618 -9.0081839e-21)
(0.11547984 0.0094799108 9.9397897e-21)
(0.11648766 0.0080142701 0)
(0.11913018 0.0073665399 1.114409e-20)
(0.12024176 0.0091569603 -2.2468401e-20)
(0.12321758 0.0073792825 4.5187637e-23)
(0.12670933 0.0056186161 1.1740791e-20)
(0.12513609 0.0070372221 1.3410727e-20)
(0.12264508 0.0078936227 -2.5771206e-20)
(0.12191741 0.0059145834 1.4070186e-20)
(0.1169832 0.0060579951 -2.2331896e-22)
(0.11043047 0.007091416 2.3293057e-22)
(0.10701828 0.0049591049 1.5344126e-20)
(0.10310548 0.0068881233 -1.637309e-20)
(0.10408939 0.0061521642 2.6148484e-22)
(0.11143352 0.0019086208 0)
(0.10961913 0.0059950345 1.8176802e-20)
(0.10339556 0.010018212 7.2195311e-23)
(0.10836454 0.0040022222 -1.9499878e-20)
(0.12030875 -0.0018271339 4.7770237e-22)
(0.13146916 -0.0022446862 -2.1042182e-20)
(0.13855161 -0.0050636302 2.1809622e-20)
(0.13285077 -0.0075260278 -1.7722246e-22)
(0.11738407 -0.0043362497 1.8672794e-22)
(0.11011428 0.0015894817 0)
(0.12418001 0.00047969313 -5.044179e-20)
(0.14662495 -0.0071098752 5.4191832e-20)
(0.15696033 -0.015118203 -1.0777976e-22)
(0.14897747 -0.019566802 -5.7534024e-20)
(0.13710792 -0.018613491 5.9597661e-20)
(0.13074573 -0.011179464 1.2361784e-22)
(0.13243147 -0.0011558727 1.2744695e-22)
(0.14238364 0.0024187714 6.7285756e-20)
(0.15658122 -0.0045561085 -7.1018804e-20)
(0.16320503 -0.019529975 -2.8638301e-22)
(0.15765803 -0.035188906 0)
(0.15008327 -0.040553601 0)
(0.14392532 -0.038313639 -7.1565673e-25)
(0.14486908 -0.029158971 0)
(0.14779389 -0.018252149 -8.8136632e-23)
(0.19736436 -0.0011799962 -6.8310657e-22)
(0.18877864 -0.0021963147 -7.2499181e-22)
(0.16975848 -0.0007878799 3.0083811e-21)
(0.16350819 0.00012945395 -1.5613928e-21)
(0.16573845 -0.00053990083 1.6188444e-21)
(0.16615157 -0.0010464636 -2.5349386e-21)
(0.16327605 -0.0010999312 -3.5116287e-21)
(0.15674296 0.0002932253 3.6619302e-21)
(0.1490221 0.0015490353 3.8209095e-21)
(0.14311731 0.0032439572 -7.4398208e-21)
(0.14061751 0.0044249002 3.6167876e-21)
(0.13856292 0.0052784727 0)
(0.13473353 0.0058814601 5.5843637e-22)
(0.12872905 0.0066722869 0)
(0.12221501 0.0068003201 0)
(0.11773931 0.0076346871 9.8130034e-21)
(0.11560311 0.008537794 -1.0486763e-20)
(0.11656436 0.0061622741 -3.4076186e-22)
(0.11858511 0.0067726476 3.0603936e-25)
(0.11991186 0.0085757796 0)
(0.12334797 0.0065937095 1.264866e-20)
(0.12665235 0.0043994093 -1.1962082e-20)
(0.12509873 0.0056108202 -9.3134256e-26)
(0.12303205 0.0065867264 1.3153611e-20)
(0.12256198 0.0050054244 -2.8706186e-20)
(0.11755645 0.0056778472 1.4467001e-20)
(0.11136587 0.0069523055 -1.597769e-20)
(0.10774338 0.0049758168 1.5492254e-22)
(0.10329647 0.0063854917 1.7250186e-20)
(0.10451372 0.0047701338 1.6960377e-20)
(0.11079364 0.001405989 -1.7992924e-20)
(0.10879178 0.0071632842 0)
(0.10418995 0.010802622 -3.1076984e-22)
(0.10922999 0.0039313119 1.8787967e-25)
(0.11899441 -0.0017458165 -1.6771929e-22)
(0.12978801 -0.0022858619 2.2298744e-20)
(0.13929558 -0.0049778034 -8.912365e-23)
(0.13559314 -0.0065882563 -2.3784975e-20)
(0.11897315 -0.0030230203 2.4891152e-20)
(0.10837086 0.00013121431 -5.2070532e-20)
(0.12065486 -0.0016669935 9.2510275e-22)
(0.14427109 -0.0083448698 5.6434918e-20)
(0.15964477 -0.012881615 -2.9452316e-20)
(0.15471531 -0.015312059 -1.1762616e-22)
(0.14052669 -0.01629123 -3.1601325e-20)
(0.12778874 -0.01268204 3.2729988e-20)
(0.12495699 -0.0045815358 0)
(0.13624123 0.00028087785 -3.5092362e-20)
(0.15725276 -0.0032921428 3.7539162e-20)
(0.17325275 -0.01290108 3.003175e-22)
(0.17229884 -0.024906577 0)
(0.15959136 -0.031785821 -8.4654081e-20)
(0.14541495 -0.03303268 -1.5597868e-21)
(0.13739846 -0.027830882 9.0209722e-20)
(0.1379244 -0.02098324 9.1465907e-23)
(0.19758808 -0.0010368224 1.3705217e-25)
(0.18882774 -0.0018119194 -1.5109206e-21)
(0.16969415 -0.00063105953 0)
(0.16347303 0.00015370734 8.2412789e-22)
(0.16575338 -0.00060357274 1.2822172e-21)
(0.16618607 -0.0010242005 1.3298542e-21)
(0.16331519 -0.00081656325 -5.5479468e-21)
(0.15675832 0.00033982067 -4.9331003e-22)
(0.14897502 0.0010347999 -5.1348081e-22)
(0.14305263 0.0023513392 7.8335635e-21)
(0.14051608 0.0031324143 -3.8092236e-21)
(0.13857249 0.0039474471 -4.5256697e-21)
(0.13490717 0.0049421156 3.5245657e-21)
(0.12897756 0.0057359006 0)
(0.12243801 0.0059434463 0)
(0.11778368 0.006728091 -1.0663883e-20)
(0.11592433 0.007589943 8.2211427e-24)
(0.11678176 0.0048772799 1.1813492e-20)
(0.11803556 0.0063156237 -3.7312677e-22)
(0.11956796 0.0080728276 1.2449607e-20)
(0.1234792 0.006276497 -1.2982606e-20)
(0.12674447 0.0039144263 -4.1854619e-22)
(0.12507006 0.0047662553 -2.1806011e-22)
(0.12327911 0.005423811 -1.4528259e-20)
(0.12302565 0.0041120252 1.505669e-20)
(0.1180689 0.0054319635 2.4654959e-22)
(0.11225362 0.0069279396 0)
(0.10859496 0.0053468354 0)
(0.10377538 0.0059475203 0)
(0.10493805 0.0035418205 5.8119117e-22)
(0.10987535 0.0011604937 -2.9940235e-22)
(0.10760931 0.0082025345 0)
(0.10476829 0.011488223 1.6345558e-22)
(0.11022158 0.0042907493 3.3913216e-22)
(0.11804629 -0.0017859902 0)
(0.12793685 -0.0033279601 2.3099772e-20)
(0.13908361 -0.0055510212 -2.433196e-20)
(0.13755431 -0.0049113178 0)
(0.12162675 -0.00022063424 2.0603009e-22)
(0.10902248 0.00064542946 2.1544615e-22)
(0.11749847 -0.0045445616 0)
(0.14003926 -0.011135739 0)
(0.15750432 -0.012768789 3.0676169e-20)
(0.15815096 -0.011150506 -3.1469599e-20)
(0.14583787 -0.011275742 0)
(0.12929368 -0.010293889 0)
(0.12028869 -0.0063260197 -1.4091031e-22)
(0.1290977 -0.0034238492 1.4462628e-22)
(0.15118177 -0.0061727595 0)
(0.17371809 -0.011381594 -4.0230541e-20)
(0.18214482 -0.017168777 4.1005851e-20)
(0.17198147 -0.022008493 -8.4314072e-23)
(0.15413253 -0.024546866 4.6463604e-20)
(0.13926943 -0.023404278 -9.534376e-20)
(0.13296785 -0.021076777 4.9462951e-20)