/*--------------------------------*- C++ -*----------------------------------*\
| =========                 |                                                 |
| \\      /  F ield         | OpenFOAM: The Open Source CFD Toolbox           |
|  \\    /   O peration     | Version:  2406                                  |
|   \\  /    A nd           | Website:  www.openfoam.com                      |
|    \\/     M anipulation  |                                                 |
\*---------------------------------------------------------------------------*/
FoamFile
{
    version     2.0;
    format      ascii;
    arch        "LSB;label=32;scalar=64";
    class       volVectorField;
    location    "6";
    object      U_0;
}
// * * * * * * * * * * * * * * * * * * * * * * * * * * * * * * * * * * * * * //

dimensions      [0 1 -1 0 0 0 0];

internalField   nonuniform List<vector> 
96472
(
(0.1653847 -0.0008326198 -3.1196693e-22)
(0.15920733 -0.0030800155 3.8326291e-21)
(0.14828723 -0.0033903556 4.8449095e-21)
(0.14462325 -0.0022902549 1.2963531e-20)
(0.14601126 -0.00058014609 -1.0241548e-20)
(0.14736491 0.00073698419 -6.0341148e-21)
(0.1452952 0.0013098922 2.6559714e-21)
(0.1406736 0.0019594084 1.415781e-20)
(0.13469576 0.0026708182 1.4944064e-20)
(0.12841329 0.0034561151 -1.6569233e-20)
(0.12199878 0.00384323 -1.8391086e-20)
(0.11571874 0.0036512151 -9.9824302e-21)
(0.11004569 0.0030960203 -1.0478079e-20)
(0.10571205 0.0025663392 -1.0535586e-20)
(0.10301485 0.0021740603 1.240303e-23)
(0.10150339 0.0015709619 -1.5576322e-23)
(0.10038039 0.0008714803 -8.4215182e-21)
(0.098930444 0.00030536979 -1.3542052e-20)
(0.096882404 -0.00013047182 7.6440258e-21)
(0.094416891 -0.00050940061 -1.3681258e-20)
(0.092058113 -0.00075535653 9.3109457e-21)
(0.090241891 -0.00084100144 -9.862518e-22)
(0.089083234 -0.00093810519 -4.8608426e-22)
(0.088277217 -0.0011348091 -1.8880505e-20)
(0.08754406 -0.0015674107 -1.0762729e-21)
(0.086864336 -0.0022926584 1.4445236e-20)
(0.086356296 -0.003454756 -1.1505008e-20)
(0.085883906 -0.005024769 1.1649788e-22)
(0.085360609 -0.0069724939 4.1650368e-21)
(0.08470151 -0.0092066382 2.5537289e-22)
(0.083984644 -0.011592409 2.7453809e-22)
(0.083322118 -0.013998084 -2.1066834e-22)
(0.082874685 -0.016304011 -6.3643974e-22)
(0.082697184 -0.018461644 5.1225252e-22)
(0.082956512 -0.020524432 0)
(0.083593729 -0.022645966 -1.2074426e-21)
(0.084685114 -0.024732073 1.0588359e-21)
(0.085986457 -0.027037463 -7.5529059e-22)
(0.08766083 -0.029268163 2.1021188e-21)
(0.089266212 -0.031702044 -4.7626363e-22)
(0.091353295 -0.034087215 4.6496527e-23)
(0.093150527 -0.036842069 -9.3251804e-22)
(0.095463539 -0.03932105 4.6708737e-23)
(0.097260645 -0.042138631 -1.2145428e-21)
(0.099904011 -0.044844486 5.6661604e-22)
(0.10172128 -0.047897806 -1.5176655e-21)
(0.10447136 -0.05046474 2.5964175e-21)
(0.10654812 -0.053930958 2.7843106e-21)
(0.10955609 -0.056558179 -1.225727e-22)
(0.11176795 -0.060201241 7.3824617e-23)
(0.11503578 -0.062755349 8.9351833e-22)
(0.1173747 -0.066515888 -6.7600436e-22)
(0.1208742 -0.069171248 3.8689344e-22)
(0.12360772 -0.072688062 1.6134729e-21)
(0.12703647 -0.077173179 -1.6032401e-21)
(0.16566287 -0.00075191592 2.1927566e-22)
(0.15935449 -0.0028368871 2.1470126e-21)
(0.14821029 -0.0029780605 0)
(0.14451226 -0.0018334223 1.2352365e-20)
(0.14605094 -0.00012139653 8.9406516e-21)
(0.14749498 0.0012200397 -3.122153e-22)
(0.1454237 0.001900423 -2.0040157e-23)
(0.14066085 0.0025838858 -1.2107684e-20)
(0.13458105 0.0032884397 1.6646603e-20)
(0.12829012 0.0040905107 0)
(0.12192155 0.004566238 -3.3795996e-22)
(0.11567151 0.0044403501 -2.0370848e-20)
(0.1099745 0.0039591739 -1.0646944e-20)
(0.10557676 0.0035000304 -2.9502839e-23)
(0.10284084 0.0031431098 1.0722353e-23)
(0.10134738 0.0025304463 -2.192482e-20)
(0.10026271 0.0017708607 -1.6390132e-22)
(0.098841441 0.001109688 -4.2249072e-23)
(0.096838668 0.00056530273 -1.4326444e-20)
(0.094428987 6.4649295e-05 0)
(0.092033292 -0.00023933851 -2.8672082e-20)
(0.090126963 -0.0003488597 1.6157362e-20)
(0.088912247 -0.00040291322 3.4193268e-22)
(0.088115868 -0.00050121533 -3.3594207e-23)
(0.087467697 -0.0008352913 1.7463458e-20)
(0.086923544 -0.0014922412 6.338283e-22)
(0.086568136 -0.0026339543 7.8794238e-22)
(0.086298306 -0.004194638 -1.0359798e-20)
(0.085988665 -0.0061126678 9.092057e-21)
(0.085533498 -0.0083088464 1.5514493e-21)
(0.084967014 -0.010686 -3.9522359e-22)
(0.084393578 -0.013161995 -3.2409531e-23)
(0.084004497 -0.015585187 -1.2282724e-21)
(0.083879395 -0.017871616 2.3375495e-22)
(0.08417543 -0.020014817 3.147187e-22)
(0.084722333 -0.022108086 1.6595958e-21)
(0.085729612 -0.024171863 -4.0635129e-23)
(0.086852699 -0.026383211 -6.7196253e-24)
(0.088491197 -0.02850411 -2.2888024e-23)
(0.089996889 -0.030911731 -3.2060097e-21)
(0.092084692 -0.033144412 1.3240939e-22)
(0.093839852 -0.035720643 8.0947002e-25)
(0.096241544 -0.03803829 -1.8510456e-23)
(0.098132532 -0.040868296 -4.1161708e-23)
(0.10073202 -0.043163561 -2.2230411e-21)
(0.10274785 -0.046237848 6.7636031e-22)
(0.1055387 -0.048653195 5.6241272e-22)
(0.10762127 -0.051820119 3.5537102e-24)
(0.11060657 -0.05428117 -2.2972019e-23)
(0.11292657 -0.057557707 -1.3154761e-22)
(0.11593772 -0.060282718 3.5365464e-23)
(0.11877467 -0.063148975 -8.8906794e-22)
(0.12144767 -0.066548897 -2.3181988e-22)
(0.12510995 -0.068634721 1.3661965e-21)
(0.12762039 -0.073180312 1.891117e-21)
(0.16592548 -0.00067222223 6.711161e-25)
(0.15951167 -0.0025960934 0)
(0.14816378 -0.0026187869 9.8362483e-21)
(0.14443232 -0.0013953414 0)
(0.14611641 0.00033087487 1.284947e-20)
(0.14771528 0.0017053958 1.4963795e-23)
(0.1456783 0.0023959232 1.0057349e-23)
(0.14090528 0.0030836424 -1.7708693e-23)
(0.13477383 0.0038114881 -1.799409e-20)
(0.12848364 0.0046384938 -1.036543e-20)
(0.12216973 0.0051565243 -2.3076136e-22)
(0.11597934 0.0050839443 2.0329579e-20)
(0.11028033 0.004707796 1.0969487e-20)
(0.10583508 0.0043260359 3.6775167e-20)
(0.10306167 0.004003198 2.7748402e-22)
(0.10157456 0.0034091444 1.1925883e-20)
(0.10051804 0.0026037087 1.0481883e-20)
(0.099119004 0.001877471 -9.569203e-21)
(0.097140514 0.0012463017 0)
(0.094743288 0.00065607458 -2.1661391e-22)
(0.092304641 0.00024874507 -1.7668067e-23)
(0.090306815 5.096106e-05 1.64633e-25)
(0.089016851 1.3492332e-05 1.8478957e-22)
(0.088221409 -3.6573258e-05 -3.9717503e-22)
(0.087622748 -0.0002921075 -4.6457242e-22)
(0.087146402 -0.0008807765 -1.7644108e-20)
(0.086913647 -0.0019867898 1.5833955e-20)
(0.086795018 -0.0035417503 5.2601682e-21)
(0.086670113 -0.0054178924 -4.3819811e-21)
(0.086401947 -0.0075644507 -2.3733829e-21)
(0.085983313 -0.0099373591 -2.6920196e-24)
(0.085488731 -0.012442691 1.4585538e-22)
(0.085112137 -0.014956154 2.0255878e-22)
(0.084944513 -0.017378681 -4.2125714e-22)
(0.085206114 -0.019644563 3.2408174e-22)
(0.085749781 -0.021828055 2.0562728e-21)
(0.086787162 -0.023871042 5.3440382e-24)
(0.087861162 -0.026019296 2.1673239e-21)
(0.08944698 -0.028077027 8.9068854e-24)
(0.090915771 -0.030340522 -1.2403451e-23)
(0.092907024 -0.032420577 1.9510377e-21)
(0.094652672 -0.03488861 4.0923557e-21)
(0.097005252 -0.037019052 0)
(0.09890283 -0.039629263 8.5033207e-22)
(0.10152369 -0.041870934 2.7456474e-22)
(0.10355103 -0.044669504 -1.3178601e-21)
(0.10630175 -0.046897342 2.9799464e-22)
(0.10859209 -0.049760236 1.3921447e-24)
(0.11130295 -0.052384028 0)
(0.11408699 -0.054977882 -2.7067795e-25)
(0.11654087 -0.057970401 -1.2285546e-22)
(0.11993069 -0.060222665 1.1113443e-22)
(0.12222882 -0.063779438 4.1750847e-22)
(0.1258328 -0.065380523 -9.9240418e-23)
(0.12832516 -0.06946344 7.6431225e-22)
(0.16614341 -0.00058899746 2.2482879e-22)
(0.1596415 -0.0023714046 1.264332e-21)
(0.14812345 -0.0022514628 -3.5282658e-23)
(0.1443667 -0.00098604425 -1.1964096e-22)
(0.1462026 0.00072587799 2.371633e-22)
(0.14795784 0.0020881237 -3.1057488e-23)
(0.14598676 0.0028274247 2.3899489e-24)
(0.14118301 0.0035134363 1.3812924e-20)
(0.13497997 0.0042451757 -1.1889744e-22)
(0.12866795 0.00509738 -1.0134893e-20)
(0.12239606 0.0056704875 -9.3787367e-24)
(0.11627178 0.0056806717 3.0770601e-23)
(0.11057526 0.0054175952 3.1859726e-20)
(0.10608355 0.0051747446 -1.1910099e-20)
(0.10328243 0.0049444852 2.3679437e-22)
(0.10181342 0.0043900525 8.0210198e-23)
(0.1007831 0.0035872115 -1.1820397e-20)
(0.099415725 0.0028218241 -2.8514355e-23)
(0.097479595 0.0020846282 1.9622031e-20)
(0.09509769 0.0014018457 0)
(0.092624218 0.00086760038 1.7407622e-20)
(0.090535005 0.00059170012 0)
(0.089154284 0.00052992184 4.0231119e-20)
(0.088328446 0.00054194832 4.096379e-20)
(0.087771634 0.00038273161 -4.6237186e-22)
(0.087401087 -0.00013004258 -1.8797387e-20)
(0.087264002 -0.0011778766 -1.6613241e-20)
(0.087271567 -0.0026721585 1.4340283e-20)
(0.087282725 -0.0044932845 -1.5749976e-20)
(0.087159358 -0.0066065933 -1.7779483e-22)
(0.086864648 -0.0089315813 5.0495092e-24)
(0.086446568 -0.011426003 1.1413579e-21)
(0.08608881 -0.013984859 -2.641733e-21)
(0.085858953 -0.016495438 -1.6644871e-21)
(0.086051489 -0.018870653 2.9133991e-21)
(0.086541612 -0.021157705 -1.828683e-23)
(0.087537281 -0.023273872 -7.8779892e-23)
(0.088651684 -0.02546619 6.1907027e-21)
(0.090252401 -0.027471718 -2.4662174e-21)
(0.091668801 -0.029728998 5.7437196e-21)
(0.093722082 -0.031690357 -7.3004668e-23)
(0.095402965 -0.034058886 2.8529046e-23)
(0.097716258 -0.036056432 -2.0704236e-23)
(0.099666727 -0.038580663 -1.8831775e-21)
(0.10216226 -0.040649368 2.626359e-21)
(0.10434605 -0.043177806 1.0869753e-21)
(0.10684069 -0.045538541 1.2650043e-21)
(0.10953283 -0.04794648 8.9113713e-23)
(0.1118044 -0.050658472 -6.5209625e-23)
(0.11491818 -0.052706293 8.4521008e-24)
(0.11728545 -0.055940379 -1.0882547e-22)
(0.12063399 -0.057732084 2.787737e-22)
(0.12288947 -0.061074535 -4.0696924e-22)
(0.12650302 -0.0627051 9.4822947e-24)
(0.1290055 -0.066547172 7.8081959e-22)
(0.16634024 -0.00050672591 3.8474343e-22)
(0.15975486 -0.0021520832 0)
(0.14808414 -0.0019305946 -1.7824458e-20)
(0.14430353 -0.00063262709 -1.0326377e-20)
(0.14627774 0.001039472 0)
(0.14816859 0.0023880314 6.5367693e-21)
(0.1462797 0.0031305874 0)
(0.14144838 0.0038193028 0)
(0.13517694 0.0045668196 1.8387468e-20)
(0.12883942 0.0054487694 -1.015725e-20)
(0.1226047 0.0060647851 -1.2911959e-22)
(0.11654366 0.0061670303 2.808699e-20)
(0.11084421 0.0060236282 -9.8397898e-21)
(0.10630232 0.0059402862 -3.4719817e-20)
(0.10347781 0.0058511377 -2.5168994e-20)
(0.1020317 0.0053556618 -1.2978075e-20)
(0.10103989 0.0045974612 2.5069123e-20)
(0.099715387 0.003798649 3.6022301e-20)
(0.097825914 0.0030081862 -1.0908641e-20)
(0.095471676 0.0022178417 -1.9492952e-22)
(0.092969688 0.0015544287 -1.9147049e-20)
(0.090783577 0.0011718583 1.0262906e-22)
(0.089297226 0.0010591728 -9.0818435e-23)
(0.088435775 0.001106695 4.3512331e-22)
(0.087918371 0.001038606 9.7339269e-22)
(0.087656222 0.00060984554 6.0345961e-22)
(0.087637292 -0.00037223327 -1.8822522e-20)
(0.087799642 -0.0017895121 -3.9404e-22)
(0.0879526 -0.0035733972 6.9258414e-21)
(0.087968172 -0.0056391242 0)
(0.08780667 -0.0079383035 -9.8209677e-23)
(0.087486958 -0.010393128 -2.0741805e-24)
(0.087140384 -0.012950265 8.1859386e-22)
(0.086836152 -0.015522073 3.1158979e-21)
(0.086903889 -0.017990963 3.4060219e-21)
(0.087257167 -0.020372927 -3.1727855e-22)
(0.088170386 -0.022559927 -1.6936597e-21)
(0.089215697 -0.024769576 -3.556469e-21)
(0.090819233 -0.02675831 -2.25711e-23)
(0.092281297 -0.028995192 -4.8668541e-21)
(0.094273895 -0.030895291 -3.3699547e-21)
(0.09610269 -0.033147704 -2.7981819e-21)
(0.098301379 -0.035117747 1.2919467e-22)
(0.10041356 -0.037354468 -2.3149199e-21)
(0.10268774 -0.03955602 8.9202591e-22)
(0.1052046 -0.041629683 9.4777736e-22)
(0.10744328 -0.044239087 -1.8037045e-21)
(0.11023024 -0.046036485 1.0788736e-21)
(0.11245059 -0.048927111 5.9877069e-24)
(0.11565968 -0.050781789 5.3163325e-22)
(0.11785536 -0.05371754 -3.9642888e-23)
(0.12112802 -0.055307818 5.4657052e-22)
(0.12351418 -0.058686274 8.7750161e-23)
(0.12702986 -0.060115901 -1.6882854e-22)
(0.12948244 -0.063612651 -6.6085335e-22)
(0.16651732 -0.00042516449 0)
(0.15985475 -0.0019384647 -8.9209255e-22)
(0.14803631 -0.0016401915 7.0572081e-21)
(0.14422556 -0.0003444102 1.0904493e-22)
(0.1463292 0.0012753203 -2.289532e-22)
(0.14836404 0.0025838571 5.5358261e-21)
(0.1465652 0.003300236 0)
(0.1417064 0.0039936828 1.22022e-20)
(0.13536722 0.0047541342 -1.7671942e-20)
(0.12900273 0.0056681504 -2.8090162e-24)
(0.12279855 0.0063453592 4.6176373e-22)
(0.11679308 0.0065313882 1.6996022e-20)
(0.11109079 0.0065366573 -1.8383777e-20)
(0.10649559 0.0065992151 2.1288491e-20)
(0.10364915 0.006648646 -6.0011832e-23)
(0.10222711 0.0062792982 3.7535651e-20)
(0.10128086 0.0055999678 1.2672395e-20)
(0.10001061 0.0048313012 -1.2503419e-20)
(0.098185893 0.0040129461 -1.0540367e-22)
(0.095875582 0.0031533973 -1.1100516e-22)
(0.093350116 0.0023835332 -2.294195e-23)
(0.09106676 0.0018857465 1.3520406e-22)
(0.089452744 0.0017009981 -2.2341504e-20)
(0.088519836 0.0017497326 -1.2079062e-22)
(0.08803179 0.0017469997 -4.6731244e-22)
(0.087870764 0.0013832897 7.6408451e-22)
(0.087987488 0.00048105863 3.9131833e-20)
(0.088310085 -0.00087363245 -9.6757803e-21)
(0.088596212 -0.0025962299 8.1023426e-21)
(0.088754461 -0.0045805355 6.2124763e-21)
(0.088726068 -0.006806905 4.8286493e-21)
(0.088525149 -0.0092331411 -8.3227266e-24)
(0.088266501 -0.011780996 -6.9712357e-24)
(0.08796522 -0.014384456 5.637055e-21)
(0.087931429 -0.016923787 -3.9018785e-21)
(0.088159348 -0.019403751 -5.5341445e-21)
(0.088889624 -0.021668127 -2.29502e-21)
(0.089878967 -0.02390737 -4.1233965e-21)
(0.091317347 -0.025984074 4.0431236e-21)
(0.092817673 -0.028073995 -4.1480303e-21)
(0.094705232 -0.030108122 -1.8479869e-22)
(0.096608999 -0.032083921 0)
(0.09865346 -0.034179967 3.4259688e-21)
(0.10103934 -0.036082413 -2.0840649e-23)
(0.10310919 -0.038341495 -2.4409222e-21)
(0.10581207 -0.040195162 8.6193141e-23)
(0.10794472 -0.042667805 -1.5326053e-21)
(0.11084967 -0.044371189 -9.1030417e-22)
(0.11311087 -0.047179196 -4.9530654e-22)
(0.11614216 -0.048717866 0)
(0.11839935 -0.051444057 -8.1147592e-22)
(0.1217351 -0.05325264 -1.4578265e-21)
(0.1240717 -0.05620987 -1.2340811e-22)
(0.12736307 -0.057421296 1.2998253e-22)
(0.12993442 -0.060720678 1.7751045e-21)
(0.16667475 -0.00034814005 0)
(0.15993907 -0.001749385 -5.1931399e-22)
(0.14798812 -0.0014086967 -2.8545871e-23)
(0.14415355 -0.00014123136 -1.0037182e-22)
(0.14637619 0.0014050416 -2.5398582e-22)
(0.1485669 0.0026517729 2.4469488e-23)
(0.14684979 0.0033262615 3.3780124e-24)
(0.14196917 0.0040080928 -2.1340828e-22)
(0.13555932 0.0047910088 -3.6515055e-22)
(0.12915383 0.005749911 2.3988035e-22)
(0.12297725 0.0064833933 1.1023615e-22)
(0.11701886 0.0067546234 -2.1984502e-20)
(0.11131401 0.0068879683 7.8958085e-21)
(0.10666882 0.0071165817 2.8227921e-20)
(0.1037875 0.0073254352 4.7686284e-23)
(0.10238883 0.0071032994 1.2194375e-20)
(0.1014999 0.0065262416 -2.5726191e-20)
(0.10029795 0.0058356788 -2.6430082e-20)
(0.098548349 0.0050202263 9.2066647e-23)
(0.096292256 0.0041415541 -2.4130336e-20)
(0.093755713 0.0033131095 4.817728e-23)
(0.091376054 0.0027177831 -2.2846625e-20)
(0.089624407 0.0024630535 -6.2649911e-23)
(0.088605177 0.0024628187 2.4345899e-20)
(0.088117305 0.0024836493 9.5671927e-22)
(0.088033048 0.002182856 -2.3209837e-20)
(0.088290387 0.0013883371 -2.4127565e-22)
(0.088773103 9.9372942e-05 -8.5650936e-21)
(0.089194925 -0.0015362298 -4.8094966e-22)
(0.089481975 -0.003442008 7.3664748e-21)
(0.089611218 -0.0056173846 -5.9905822e-21)
(0.089562417 -0.008011624 4.687328e-21)
(0.089379163 -0.01052259 -1.2945985e-24)
(0.089128295 -0.01310699 -1.0994652e-23)
(0.089040091 -0.015705729 -4.2856177e-21)
(0.089193953 -0.018248122 -5.8129719e-21)
(0.089766509 -0.02062618 2.2799849e-21)
(0.090677264 -0.022919281 4.6205017e-23)
(0.091908136 -0.025044445 4.5678966e-21)
(0.093480237 -0.0271373 1.4994939e-23)
(0.095103513 -0.029140556 -4.2519536e-21)
(0.097143781 -0.031042527 -1.0405138e-22)
(0.099028924 -0.033197518 4.1144971e-22)
(0.10141561 -0.034789102 4.0289244e-21)
(0.10351092 -0.037175917 -1.990796e-22)
(0.10618288 -0.038725419 -4.4770911e-22)
(0.10832848 -0.041101167 -1.1536099e-21)
(0.11123428 -0.042760148 4.1222632e-22)
(0.11348529 -0.045237184 -4.3266702e-22)
(0.11649241 -0.046719149 -1.1110259e-21)
(0.11894722 -0.049531952 5.7291654e-22)
(0.12211067 -0.0510177 -1.454509e-21)
(0.12436531 -0.053586608 -2.1531097e-21)
(0.12768767 -0.05487194 -5.2561018e-22)
(0.13030504 -0.058138889 -1.016828e-22)
(0.16681774 -0.00027653868 -2.3752898e-22)
(0.16001728 -0.001576281 -2.1169992e-21)
(0.14793905 -0.0012181371 -6.1902921e-21)
(0.14407069 -4.3611714e-06 -6.9046708e-21)
(0.14639985 0.0014276427 -4.2659113e-21)
(0.14874181 0.0025809341 -2.7949552e-21)
(0.14712406 0.003194099 4.685132e-21)
(0.14222441 0.0038590814 -7.9200606e-21)
(0.1357443 0.0046698691 -2.4104099e-22)
(0.12929863 0.005687579 7.1029008e-21)
(0.12314703 0.0064789261 -6.3813617e-21)
(0.11722864 0.0068409991 -1.1447836e-20)
(0.11151404 0.0070944935 1.2726498e-20)
(0.10680781 0.0074897502 -1.0455014e-22)
(0.10389365 0.0078636468 7.2948303e-23)
(0.10252036 0.0077725247 -2.8004544e-22)
(0.10168806 0.0073407543 0)
(0.1005639 0.0067518771 1.3047658e-20)
(0.098901923 0.0060044582 -2.5921117e-20)
(0.096713249 0.0051480554 -1.448341e-22)
(0.09418132 0.0042904403 -5.1001881e-23)
(0.091718448 0.0036321112 1.7978971e-22)
(0.089829339 0.0032884786 -5.5089315e-24)
(0.088697661 0.0032479176 -5.1305672e-20)
(0.088182806 0.0032757161 5.0146786e-22)
(0.088159417 0.0030410751 2.4390345e-20)
(0.088539611 0.0023316227 -2.2765984e-20)
(0.089163543 0.0011081114 -1.0840441e-21)
(0.089746658 -0.00044673666 -9.9715927e-21)
(0.090181259 -0.002275339 -1.6434715e-20)
(0.090443347 -0.0043833482 -4.4323677e-23)
(0.090527097 -0.0066816769 -1.9597903e-22)
(0.090460906 -0.0091588815 4.5400639e-21)
(0.090305289 -0.011745602 3.4465659e-24)
(0.090208225 -0.014366559 2.6984559e-21)
(0.09032918 -0.016943444 2.0780589e-23)
(0.09075049 -0.019431056 2.1058761e-21)
(0.091572637 -0.021730694 2.968973e-22)
(0.092632676 -0.024054053 -6.9526989e-23)
(0.094134646 -0.026004499 1.5171616e-22)
(0.095635328 -0.028175619 -1.2848437e-22)
(0.097651983 -0.029949533 -3.3842535e-22)
(0.099385238 -0.032007449 -8.8520289e-21)
(0.10182829 -0.033681381 4.152747e-21)
(0.10379712 -0.035830478 1.8103242e-21)
(0.10638082 -0.037248741 3.7779217e-22)
(0.10863331 -0.039644086 -2.0351856e-22)
(0.11145078 -0.041084085 -7.5050088e-22)
(0.11372926 -0.043429206 2.6238132e-21)
(0.11677668 -0.044952974 -5.3860779e-23)
(0.11916162 -0.047501027 -2.3110621e-22)
(0.12218424 -0.048657511 2.117325e-21)
(0.12464097 -0.051387609 -1.1540462e-21)
(0.12804099 -0.052668217 -6.8111172e-22)
(0.13049409 -0.055386616 7.9766441e-22)
(0.16694307 -0.00021136114 -2.4012273e-22)
(0.16008375 -0.0014337806 1.1280829e-21)
(0.14789663 -0.0010711517 5.0731659e-21)
(0.14400563 4.8746497e-05 1.2056507e-20)
(0.14644389 0.0013545689 -2.7404849e-22)
(0.14893464 0.0023962506 -3.7383089e-22)
(0.14742399 0.0029415946 -3.1007255e-25)
(0.14250148 0.0035783234 -4.9015814e-22)
(0.13594482 0.0043992892 -8.7955384e-21)
(0.12944278 0.0054619325 5.3430183e-21)
(0.12330445 0.0063134905 -1.4066253e-20)
(0.11741676 0.0067503602 4.2599169e-22)
(0.111692 0.007127424 2.8145399e-22)
(0.10692293 0.0076521276 -1.953748e-20)
(0.10396564 0.0081737442 -1.7218643e-20)
(0.10260932 0.0082342586 0)
(0.10183617 0.0079771992 0)
(0.1007957 0.0075458587 0)
(0.099230054 0.0069129578 1.2521922e-20)
(0.097124672 0.0061407922 2.4804301e-20)
(0.094616224 0.0053117892 2.4365366e-20)
(0.09208807 0.0046028056 2.4653664e-20)
(0.090061113 0.0042011891 -2.606613e-20)
(0.088805782 0.004146165 -7.5298198e-23)
(0.088238989 0.0041665566 -2.6587593e-20)
(0.088258948 0.0039521469 2.5074357e-20)
(0.088751042 0.0032944542 4.7489963e-20)
(0.089504507 0.0021530995 5.4425231e-22)
(0.090245327 0.00069119302 -1.9763684e-20)
(0.090817887 -0.0010483845 -1.9187912e-20)
(0.091222758 -0.0030664655 7.4438822e-21)
(0.091454891 -0.0053184691 -1.3990585e-20)
(0.091509563 -0.0077429929 1.1507193e-20)
(0.091443864 -0.010279495 -9.0908583e-21)
(0.091364404 -0.012877752 7.1194954e-21)
(0.091473269 -0.015486727 3.03204e-21)
(0.091790464 -0.018037106 -2.4820025e-21)
(0.092547606 -0.020433672 5.4464864e-21)
(0.09343521 -0.02277818 -9.912443e-21)
(0.094869449 -0.024806125 8.4241534e-21)
(0.096232021 -0.027034666 4.8494693e-21)
(0.098145898 -0.028671534 -4.9200228e-21)
(0.099894713 -0.030897733 -3.1581496e-23)
(0.10215691 -0.032358867 -3.155677e-22)
(0.10409453 -0.034405964 -2.2224546e-21)
(0.1067061 -0.035978817 -1.8587278e-22)
(0.10887911 -0.038094013 3.2607659e-21)
(0.11158699 -0.039393303 -3.8852703e-23)
(0.11393197 -0.041703284 -2.6497536e-22)
(0.11687775 -0.04310857 1.9369198e-21)
(0.1192119 -0.045310728 1.362415e-21)
(0.12229625 -0.046674725 1.6156322e-21)
(0.12478361 -0.049176586 3.4645196e-22)
(0.12787318 -0.050262153 -3.6530476e-21)
(0.13046585 -0.052710601 1.9184981e-21)
(0.16705744 -0.00015946522 -3.1187366e-23)
(0.16014596 -0.0012970222 8.6290595e-22)
(0.14785958 -0.00097010964 -3.5892463e-21)
(0.14394415 3.9179939e-05 5.0138857e-21)
(0.14648452 0.0011711628 1.8541492e-21)
(0.14911651 0.0020958007 -7.2241249e-23)
(0.14771236 0.0025701383 3.5198027e-25)
(0.14276089 0.0031918307 -2.4514274e-21)
(0.13612851 0.0040272105 5.2052595e-21)
(0.12957478 0.005111529 -1.4045201e-22)
(0.12345347 0.0059984441 2.7029169e-21)
(0.11758982 0.0064847731 -1.8319238e-21)
(0.11185756 0.0069487029 -8.4567101e-21)
(0.10701872 0.0075951737 -4.9985977e-21)
(0.10400867 0.0082682311 -2.0691783e-20)
(0.10265899 0.0084987537 -9.0083796e-21)
(0.10193344 0.0084075936 -1.0179044e-20)
(0.10097849 0.0081489668 -1.1102565e-20)
(0.099519245 0.0076834194 -1.1675246e-20)
(0.097505213 0.0070444231 2.3853076e-20)
(0.095049603 0.0063143209 0)
(0.092480755 0.0056362145 -3.3694825e-22)
(0.090311945 0.0052112727 -2.6065608e-20)
(0.088925914 0.0051116885 2.7546585e-20)
(0.088303408 0.005112565 -9.6525495e-23)
(0.088346686 0.0049288062 -1.5084863e-21)
(0.088910585 0.0043279527 6.6575995e-22)
(0.089775658 0.0032748222 -9.455646e-21)
(0.090677368 0.0018708645 1.1615925e-20)
(0.091413912 0.00020249434 1.9294086e-20)
(0.091964601 -0.0017302996 7.8293868e-23)
(0.092331155 -0.0038967244 -1.7117061e-20)
(0.092510241 -0.0062421477 3.2550486e-22)
(0.092553926 -0.0087235676 -1.7173024e-20)
(0.092545477 -0.011316307 9.5022096e-21)
(0.092650638 -0.013920083 1.0767421e-20)
(0.09290396 -0.016542542 6.723435e-21)
(0.093526053 -0.018941991 -1.6059067e-22)
(0.094319804 -0.021361291 -5.9242289e-21)
(0.0956175 -0.023476904 -2.6224022e-23)
(0.096857131 -0.025642668 6.561033e-23)
(0.098715542 -0.027474743 -2.5590246e-23)
(0.10032406 -0.029513769 3.981797e-21)
(0.10250152 -0.030980991 1.4068812e-22)
(0.1044865 -0.033160773 2.6186756e-21)
(0.10692105 -0.034480544 -4.0775117e-21)
(0.10903536 -0.036461056 -4.2379973e-22)
(0.11176245 -0.037850431 1.8843013e-21)
(0.1141104 -0.040059736 -1.4426682e-21)
(0.11689136 -0.041191215 -2.6649769e-21)
(0.11930427 -0.043404952 2.953169e-21)
(0.12228285 -0.044675593 1.585375e-21)
(0.12476986 -0.046930205 3.1864437e-21)
(0.12776877 -0.047844294 -1.4129527e-21)
(0.1303264 -0.050410275 -1.0055941e-21)
(0.16715952 -0.00012243268 -4.8919623e-22)
(0.16020152 -0.0011967963 -3.3565582e-21)
(0.14783224 -0.00091223122 -3.1524767e-21)
(0.14390258 -4.0044958e-05 -3.7840108e-21)
(0.14653365 0.0009359215 -2.84659e-22)
(0.14929216 0.0017444098 -1.8944536e-22)
(0.14799166 0.0021149765 -1.5155861e-22)
(0.14301233 0.0027144635 1.2456857e-23)
(0.1363143 0.0035740114 5.0814059e-21)
(0.12970841 0.0046699253 1.8642853e-21)
(0.1236022 0.005574135 2.3781525e-21)
(0.11775562 0.0060865521 -1.0585888e-21)
(0.11201044 0.0066005646 -1.1952839e-21)
(0.10709594 0.0073336822 -2.5805606e-22)
(0.10401718 0.0081104149 2.0563824e-20)
(0.10266988 0.0085089903 -1.7355737e-22)
(0.10199099 0.0085872654 -1.8468214e-23)
(0.10111362 0.0085132207 -9.6928909e-21)
(0.099754699 0.0082514017 -1.0149706e-20)
(0.097843735 0.0078012066 1.4406981e-22)
(0.095447727 0.0072149181 2.1520383e-20)
(0.092865294 0.0066285726 -4.1017026e-22)
(0.090590335 0.0062052068 2.5336341e-20)
(0.089067313 0.0060928014 -9.9862212e-23)
(0.08835636 0.0061120951 2.7972508e-20)
(0.088402574 0.005948921 0)
(0.089045422 0.0053904824 -3.8379664e-20)
(0.09002098 0.0043905566 1.2361633e-20)
(0.091053987 0.0030431983 -1.1078746e-21)
(0.09194196 0.0014821419 4.701702e-23)
(0.092633877 -0.0003594864 1.0870793e-21)
(0.093150356 -0.0024372172 1.8139376e-20)
(0.093465977 -0.0047078602 -1.5617577e-20)
(0.093624851 -0.0071113261 3.3710283e-20)
(0.093687203 -0.009655976 -1.1311499e-20)
(0.093823016 -0.012245607 2.0336251e-23)
(0.094033179 -0.014857267 -1.8365866e-22)
(0.094577823 -0.017298914 -4.5333012e-22)
(0.095272864 -0.019819878 -3.1504234e-21)
(0.096415187 -0.021875705 5.5306237e-23)
(0.097596522 -0.024218057 -6.0680073e-21)
(0.099263378 -0.025974496 1.0343091e-20)
(0.10081045 -0.028037158 0)
(0.10295467 -0.029675601 5.4410105e-21)
(0.10477894 -0.031586888 3.1597119e-21)
(0.10713175 -0.032913313 7.0538349e-21)
(0.10932113 -0.034993122 -6.4042121e-22)
(0.11194939 -0.036288888 7.053705e-22)
(0.11415695 -0.03818011 8.3742789e-22)
(0.11690256 -0.039325463 -1.4628809e-21)
(0.11936426 -0.041585523 -3.1542916e-21)
(0.12221454 -0.04253639 4.7239657e-22)
(0.12460247 -0.044776931 0)
(0.12760665 -0.045551283 2.5868619e-21)
(0.1301484 -0.048004874 -2.9107836e-21)
(0.16725802 -9.6333622e-05 3.3612866e-22)
(0.16025755 -0.0011161918 -8.8791768e-22)
(0.14781395 -0.00089527025 6.0268838e-21)
(0.14386122 -0.0001741961 2.7912666e-21)
(0.1465642 0.0006497457 1.0899767e-22)
(0.14943231 0.0013481275 4.6185055e-21)
(0.14823009 0.0016272963 3.2622866e-21)
(0.14322323 0.0022109729 -2.3174836e-21)
(0.13647221 0.0030752464 2.7050577e-22)
(0.12983128 0.0041700926 7.7707081e-22)
(0.12374699 0.0050552962 -6.0274379e-22)
(0.11791963 0.0055761056 1.1952524e-23)
(0.11216601 0.0061055342 6.4227925e-22)
(0.10717171 0.0068807674 2.1353356e-21)
(0.10400847 0.007718376 1.9584941e-20)
(0.10264235 0.0082342131 5.3469457e-21)
(0.10199704 0.0084784651 6.7578966e-21)
(0.10118953 0.0086292235 7.8643077e-21)
(0.099932457 0.0085929815 7.1110235e-23)
(0.098129628 0.0083685328 -1.7934343e-20)
(0.095818765 0.0079578849 6.5769659e-24)
(0.093242521 0.0074993445 -2.1268232e-20)
(0.090863646 0.0071350728 5.0766513e-23)
(0.08919561 0.0070537203 -2.6349627e-20)
(0.088407784 0.0070920527 0)
(0.088450787 0.0069684922 3.7951813e-22)
(0.089143737 0.0064605051 -7.1523927e-23)
(0.090217837 0.0055519892 7.3359702e-22)
(0.091365556 0.0042893292 -1.1079929e-20)
(0.092407632 0.0027929025 -1.2960698e-21)
(0.093252069 0.0010407043 -1.0672882e-21)
(0.093910309 -0.000942034 9.8915114e-21)
(0.094362126 -0.0031197288 -7.8517012e-22)
(0.094647423 -0.0054539239 2.3527442e-20)
(0.094823448 -0.0079318518 -1.3256294e-20)
(0.094988367 -0.01049661 -2.7850463e-24)
(0.095201394 -0.013078876 -9.8604092e-21)
(0.09567364 -0.015570442 -8.4817686e-21)
(0.096246754 -0.018021762 7.5418802e-21)
(0.097286977 -0.020245581 2.0111531e-23)
(0.098343188 -0.022528844 -1.9393363e-22)
(0.099875713 -0.024358149 -4.8723566e-23)
(0.10138394 -0.026564013 -2.8844272e-23)
(0.10330465 -0.02802541 -4.9169374e-21)
(0.10510094 -0.029983669 -2.7948283e-21)
(0.1074402 -0.031460969 2.6427614e-21)
(0.10950635 -0.033328901 1.3765466e-21)
(0.1119677 -0.034467605 0)
(0.11423145 -0.036376561 -2.1231676e-21)
(0.11703439 -0.037737167 4.0284912e-24)
(0.11931712 -0.039519251 -3.9722459e-21)
(0.12212793 -0.040598065 -1.7972688e-21)
(0.12455148 -0.042539039 -1.7310929e-21)
(0.12736863 -0.043436361 1.9334129e-21)
(0.12996264 -0.045659289 2.2699296e-21)
(0.16734964 -8.1731978e-05 2.4784108e-22)
(0.16031199 -0.0010538601 1.2197067e-21)
(0.14780816 -0.00090680498 7.6562269e-22)
(0.14383813 -0.00031718728 -2.2512815e-22)
(0.14660357 0.00033653126 8.639335e-23)
(0.14957267 0.00094976353 2.7568254e-21)
(0.1484725 0.0011497943 6.7098967e-23)
(0.14344943 0.0017139778 -4.4866041e-21)
(0.13664511 0.0025590361 2.7887682e-21)
(0.12996241 0.0036126576 1.2282766e-22)
(0.12388909 0.0044625642 -9.3834343e-22)
(0.11808206 0.0049675556 -2.7954004e-22)
(0.11232742 0.0055050879 6.9390909e-22)
(0.10724932 0.0062562485 3.3101899e-22)
(0.10398717 0.0071228148 7.1733277e-24)
(0.10259141 0.0077276538 8.9243547e-23)
(0.10195941 0.0081342653 0)
(0.10120681 0.0084776289 5.9004533e-21)
(0.10004049 0.008665153 2.0352152e-20)
(0.098354878 0.0086457791 1.4833307e-20)
(0.096136101 0.0084860728 -1.6395129e-20)
(0.093585025 0.0082138775 -5.6571087e-22)
(0.091137228 0.0079430466 -4.5066305e-23)
(0.089334267 0.0079190234 5.7183175e-23)
(0.088440234 0.0080062351 -2.7453287e-22)
(0.088462099 0.0079545074 0)
(0.089200844 0.0075380749 1.4710411e-20)
(0.090361378 0.0067104826 4.7142887e-22)
(0.091638075 0.0055290727 4.9758297e-20)
(0.092808891 0.0041095197 2.3597939e-20)
(0.093793029 0.0024555224 -2.2107283e-20)
(0.094599276 0.00056319518 -6.4430891e-23)
(0.095200501 -0.0015232185 -1.0135192e-20)
(0.095614948 -0.0037704257 -3.7749337e-23)
(0.095896129 -0.0061688497 -4.7978233e-22)
(0.096131195 -0.0086425315 -6.6529776e-21)
(0.096362971 -0.011223533 6.2370268e-21)
(0.096774516 -0.013650673 -2.6651238e-23)
(0.097320801 -0.016182169 4.6810688e-21)
(0.098213209 -0.018403597 0)
(0.099168666 -0.02069857 7.5827851e-21)
(0.10060147 -0.022664221 -6.7532879e-21)
(0.10192696 -0.024703125 5.6753696e-22)
(0.10376275 -0.026292579 -5.9071651e-21)
(0.10553118 -0.028345211 -3.5594718e-22)
(0.1076572 -0.029634584 -5.26471e-21)
(0.10964871 -0.031461512 -2.8877827e-21)
(0.11211873 -0.032717736 -1.264205e-21)
(0.11442493 -0.03472264 -1.3523843e-21)
(0.11692321 -0.035688741 -2.1758009e-21)
(0.1192321 -0.037444316 -2.129988e-21)
(0.12197562 -0.038626203 -7.3581049e-22)
(0.12437583 -0.04038331 1.8942332e-21)
(0.12722577 -0.04131074 -2.1947564e-21)
(0.12959185 -0.043232302 2.9392039e-21)
(0.1674401 -6.962725e-05 -1.1706731e-21)
(0.16036643 -0.0010004416 -8.6546343e-22)
(0.14781165 -0.00091984111 -1.5638034e-21)
(0.14382497 -0.00046372777 -1.7254283e-21)
(0.14664117 4.3875483e-05 -5.4904752e-22)
(0.14970422 0.00058267092 -3.0739325e-21)