/*--------------------------------*- C++ -*----------------------------------*\
| =========                 |                                                 |
| \\      /  F ield         | OpenFOAM: The Open Source CFD Toolbox           |
|  \\    /   O peration     | Version:  2406                                  |
|   \\  /    A nd           | Website:  www.openfoam.com                      |
|    \\/     M anipulation  |                                                 |
\*---------------------------------------------------------------------------*/
FoamFile
{
    version     2.0;
    format      ascii;
    arch        "LSB;label=32;scalar=64";
    class       volScalarField;
    location    "75";
    object      alphat;
}
// * * * * * * * * * * * * * * * * * * * * * * * * * * * * * * * * * * * * * //

dimensions      [1 -1 -1 0 0 0 0];

internalField   nonuniform List<scalar> 
20580
(
8.8991137e-07
8.6294664e-07
8.4705954e-07
8.3373736e-07
8.2075122e-07
8.1147662e-07
8.0592682e-07
8.0126027e-07
7.9875405e-07
7.9719511e-07
7.9526176e-07
7.9156188e-07
7.9178158e-07
7.8766047e-07
7.8791296e-07
7.8654067e-07
7.8765708e-07
7.8799947e-07
7.9155431e-07
7.9782173e-07
7.9861127e-07
7.989034e-07
8.041176e-07
8.1847454e-07
8.2375217e-07
8.4280407e-07
8.7233944e-07
8.9519235e-07
9.3119854e-07
9.8347019e-07
1.0436735e-06
8.9106453e-07
8.7888918e-07
8.567882e-07
8.3748585e-07
8.2225587e-07
8.125618e-07
8.0819301e-07
8.031815e-07
8.0037704e-07
7.9888059e-07
7.9716639e-07
7.9198265e-07
7.9416858e-07
7.8823836e-07
7.8815355e-07
7.8753675e-07
7.8703285e-07
7.8717326e-07
7.9389221e-07
8.0032924e-07
8.0095264e-07
8.1021638e-07
8.0848751e-07
8.2075523e-07
8.2335883e-07
8.4181464e-07
8.7914975e-07
8.9743411e-07
9.2238046e-07
9.666771e-07
1.0431627e-06
8.9060144e-07
8.8944444e-07
8.6706116e-07
8.4662393e-07
8.2866392e-07
8.1605526e-07
8.0839104e-07
8.0347749e-07
8.013738e-07
7.9943494e-07
7.9916795e-07
7.9298016e-07
7.9540449e-07
7.9046609e-07
7.8822459e-07
7.8860301e-07
7.8682281e-07
7.8654838e-07
7.945862e-07
7.9957433e-07
7.9767757e-07
8.1374076e-07
8.1312141e-07
8.2175622e-07
8.257531e-07
8.4142159e-07
8.763328e-07
8.9283799e-07
9.1240459e-07
9.4566852e-07
1.0340988e-06
8.8967141e-07
8.9288825e-07
8.717003e-07
8.5364748e-07
8.3632143e-07
8.2030157e-07
8.1037352e-07
8.0317085e-07
8.029417e-07
7.9849604e-07
7.9882861e-07
7.9325641e-07
7.9400733e-07
7.9101945e-07
7.8763763e-07
7.8974816e-07
7.8641318e-07
7.866581e-07
7.948512e-07
7.9886902e-07
7.9575685e-07
8.1422259e-07
8.1742478e-07
8.2226839e-07
8.3168921e-07
8.4453581e-07
8.758231e-07
8.9116318e-07
9.0025123e-07
9.1506159e-07
9.866672e-07
8.8858907e-07
8.9824325e-07
8.7831008e-07
8.6723479e-07
8.5048241e-07
8.2948418e-07
8.1685584e-07
8.0732639e-07
8.0577619e-07
8.004802e-07
7.9776201e-07
7.9459208e-07
7.9160239e-07
7.9130243e-07
7.8596887e-07
7.9014296e-07
7.8739869e-07
7.8830936e-07
7.9502762e-07
7.9846306e-07
7.9761351e-07
8.137191e-07
8.2056381e-07
8.2271555e-07
8.3976205e-07
8.5117449e-07
8.8117178e-07
8.9706564e-07
9.0677468e-07
9.139151e-07
9.5889442e-07
8.8756197e-07
9.0479196e-07
8.8369158e-07
8.8111205e-07
8.7596837e-07
8.5239632e-07
8.3652908e-07
8.197495e-07
8.1248088e-07
8.0681923e-07
8.0017225e-07
7.9754088e-07
7.9262279e-07
7.9069856e-07
7.8748234e-07
7.8708161e-07
7.866496e-07
7.8898733e-07
7.9509321e-07
7.9530564e-07
8.0199167e-07
8.159633e-07
8.2154349e-07
8.2270027e-07
8.4431985e-07
8.5535731e-07
8.6977031e-07
9.0668824e-07
9.2617866e-07
9.5308023e-07
9.709346e-07
8.8734104e-07
9.0679684e-07
8.8698241e-07
8.8289708e-07
8.7966888e-07
8.6809023e-07
8.5601701e-07
8.4619013e-07
8.3351526e-07
8.2603517e-07
8.1323532e-07
8.0814492e-07
8.0017861e-07
7.9498771e-07
7.9223145e-07
7.894364e-07
7.8600636e-07
7.9012874e-07
7.9322502e-07
7.9288201e-07
8.0176061e-07
8.1523454e-07
8.195017e-07
8.1884325e-07
8.4208079e-07
8.5496326e-07
8.5912166e-07
8.9227503e-07
9.2998091e-07
9.6375778e-07
9.9868803e-07
8.8996978e-07
9.0251606e-07
8.8577908e-07
8.7938369e-07
8.7598662e-07
8.677924e-07
8.6383444e-07
8.6592875e-07
8.6288335e-07
8.6300193e-07
8.5214823e-07
8.4211913e-07
8.2841587e-07
8.128069e-07
8.0517288e-07
7.9682451e-07
7.9046754e-07
7.9260111e-07
7.9459278e-07
7.9139576e-07
8.0221681e-07
8.1053974e-07
8.1654528e-07
8.1621204e-07
8.3650376e-07
8.5192446e-07
8.5108952e-07
8.6383815e-07
9.0958576e-07
9.4963189e-07
9.9887888e-07
8.9852245e-07
9.3884185e-07
9.0441194e-07
8.8520766e-07
8.7052594e-07
8.6363225e-07
8.6490614e-07
8.6935488e-07
8.7395371e-07
8.7966629e-07
8.7708485e-07
8.7427251e-07
8.6650404e-07
8.5253316e-07
8.4447633e-07
8.2756818e-07
8.0942552e-07
8.0326504e-07
7.9895427e-07
7.9626344e-07
8.044928e-07
8.0953195e-07
8.1430293e-07
8.2077832e-07
8.3203178e-07
8.5111278e-07
8.5406885e-07
8.6222116e-07
9.0114328e-07
9.3778642e-07
9.7481032e-07
9.6227936e-07
1.0259164e-06
9.8204756e-07
9.2527608e-07
8.8617261e-07
8.6874123e-07
8.6523058e-07
8.673632e-07
8.7293898e-07
8.7620456e-07
8.7874365e-07
8.7639403e-07
8.751889e-07
8.7072776e-07
8.6595067e-07
8.6201626e-07
8.5176905e-07
8.4349229e-07
8.2260497e-07
8.1154119e-07
8.1570031e-07
8.1187954e-07
8.1895266e-07
8.2866485e-07
8.405717e-07
8.5391575e-07
8.6523588e-07
8.7603205e-07
9.1325797e-07
9.4643861e-07
9.8475778e-07
8.7503492e-07
9.8046124e-07
9.7828619e-07
9.8956546e-07
9.4340987e-07
9.0254286e-07
8.8300737e-07
8.7650248e-07
8.7962193e-07
8.7876592e-07
8.8014853e-07
8.7536054e-07
8.7422879e-07
8.7211737e-07
8.685543e-07
8.6307745e-07
8.6539516e-07
8.6297857e-07
8.5904359e-07
8.5108487e-07
8.5430494e-07
8.3546027e-07
8.3189452e-07
8.4354302e-07
8.4770231e-07
8.5679674e-07
8.7030832e-07
8.900527e-07
9.1928713e-07
9.6095384e-07
1.005753e-06
8.6820169e-07
8.7716104e-07
9.2095782e-07
9.4783603e-07
9.676708e-07
9.884141e-07
9.8200587e-07
9.6886991e-07
9.5794194e-07
9.4157493e-07
9.2839077e-07
9.0959621e-07
8.9582133e-07
8.8514069e-07
8.7672727e-07
8.6973351e-07
8.7166557e-07
8.7115396e-07
8.6735138e-07
8.708209e-07
8.7731174e-07
8.684258e-07
8.6840046e-07
8.819164e-07
8.757043e-07
8.6976433e-07
8.8258779e-07
9.0134409e-07
9.1934731e-07
9.4096904e-07
9.8670987e-07
8.7248998e-07
9.4010653e-07
9.1871638e-07
9.1082329e-07
9.399001e-07
9.825541e-07
1.045398e-06
1.1119271e-06
1.1517045e-06
1.1721814e-06
1.1595958e-06
1.1283323e-06
1.0760533e-06
1.0123817e-06
9.6271302e-07
9.2589802e-07
9.0846799e-07
8.9627583e-07
8.8602416e-07
8.9096769e-07
8.9643238e-07
8.882469e-07
8.9148572e-07
9.100331e-07
9.072517e-07
8.9140239e-07
8.9870494e-07
9.1963312e-07
9.3312096e-07
9.3616165e-07
9.5402305e-07
8.8055399e-07
9.9369493e-07
9.5347705e-07
9.317201e-07
9.1237936e-07
9.2965004e-07
9.9362374e-07
1.06312e-06
1.1220012e-06
1.1688437e-06
1.1966324e-06
1.2088113e-06
1.2183968e-06
1.2180622e-06
1.2087384e-06
1.1680897e-06
1.1312181e-06
1.0819153e-06
1.0261459e-06
9.9673744e-07
9.7942823e-07
9.5823794e-07
9.5309047e-07
9.6553426e-07
9.6488003e-07
9.4629355e-07
9.4344258e-07
9.5883512e-07
9.6987122e-07
9.6963144e-07
9.6406732e-07
8.8037229e-07
9.2446582e-07
9.3095204e-07
9.2691815e-07
9.1699647e-07
9.1588743e-07
9.2992401e-07
9.4829134e-07
9.8409276e-07
1.0238689e-06
1.0523767e-06
1.0824599e-06
1.1188353e-06
1.1576231e-06
1.1854833e-06
1.2058601e-06
1.2272638e-06
1.2429834e-06
1.2614736e-06
1.2799662e-06
1.2768895e-06
1.2640186e-06
1.2408253e-06
1.2307153e-06
1.1933474e-06
1.1493453e-06
1.1146768e-06
1.1028756e-06
1.0977798e-06
1.0915638e-06
1.0545194e-06
8.8080504e-07
8.8993501e-07
8.7590976e-07
8.8026045e-07
8.8597565e-07
8.8388152e-07
8.8946948e-07
9.030156e-07
9.299002e-07
9.4325016e-07
9.5557085e-07
9.6723057e-07
9.6399578e-07
9.8862626e-07
1.0279305e-06
1.0689075e-06
1.1169507e-06
1.1714577e-06
1.2269458e-06
1.2726262e-06
1.3164612e-06
1.3676152e-06
1.4216595e-06
1.4541107e-06
1.4984533e-06
1.5246552e-06
1.5402039e-06
1.5368258e-06
1.5211282e-06
1.513003e-06
1.459194e-06
8.8052828e-07
8.9004548e-07
8.7463094e-07
8.6557815e-07
8.5874145e-07
8.5378229e-07
8.5297463e-07
8.5773929e-07
8.7385512e-07
8.839256e-07
8.9541337e-07
8.9963694e-07
9.0127155e-07
9.0471113e-07
9.1251847e-07
9.2841518e-07
9.6053896e-07
9.8523643e-07
1.0347168e-06
1.0977423e-06
1.157155e-06
1.2410547e-06
1.3280935e-06
1.3823677e-06
1.4398193e-06
1.5057551e-06
1.5611664e-06
1.5943077e-06
1.6093407e-06
1.6541136e-06
1.6791677e-06
8.8127621e-07
9.0383144e-07
8.7998217e-07
8.7014989e-07
8.5952799e-07
8.5209507e-07
8.4544975e-07
8.4403797e-07
8.4982078e-07
8.5603749e-07
8.6314984e-07
8.6641224e-07
8.6750692e-07
8.6816349e-07
8.6738335e-07
8.7424712e-07
8.7977219e-07
8.9027433e-07
9.1933957e-07
9.4537754e-07
9.6821794e-07
1.0131074e-06
1.077592e-06
1.1153845e-06
1.177007e-06
1.2563734e-06
1.3660644e-06
1.4166829e-06
1.4764398e-06
1.5140081e-06
1.6103654e-06
8.7875113e-07
9.8476591e-07
9.3918018e-07
9.0999971e-07
8.816788e-07
8.6471881e-07
8.5195023e-07
8.4819592e-07
8.5068845e-07
8.5541891e-07
8.6259006e-07
8.6533563e-07
8.666378e-07
8.6479232e-07
8.6531884e-07
8.6671836e-07
8.6608346e-07
8.6664615e-07
8.7861233e-07
8.8667721e-07
8.9432184e-07
9.1730945e-07
9.4860415e-07
9.6365605e-07
9.8347598e-07
1.0201388e-06
1.0876181e-06
1.1221437e-06
1.1657313e-06
1.1869513e-06
1.2805227e-06
8.6898876e-07
9.1561829e-07
9.3407837e-07
9.5232591e-07
9.3942644e-07
9.2180445e-07
9.0058776e-07
8.875183e-07
8.8116605e-07
8.8173944e-07
8.8617824e-07
8.9002132e-07
8.9170113e-07
8.9066327e-07
8.9075966e-07
8.8958912e-07
8.8842288e-07
8.8837975e-07
8.9663353e-07
9.0210674e-07
9.0943626e-07
9.2663819e-07
9.5095047e-07
9.6784493e-07
9.817573e-07
8.5709144e-07
8.9997659e-07
8.1257688e-07
1.1116776e-06
1.1291099e-06
1.163005e-06
8.2932494e-07
9.5325182e-07
1.0112507e-06
1.092972e-06
1.1434269e-06
1.1881777e-06
1.2067431e-06
1.2249397e-06
1.2345612e-06
1.2397201e-06
1.2512605e-06
1.2593688e-06
1.2680278e-06
1.2685914e-06
1.2641589e-06
1.2717078e-06
1.2703266e-06
1.271963e-06
1.284821e-06
1.3003729e-06
1.3146783e-06
1.3327156e-06
1.0062415e-06
1.2973944e-06
1.3765216e-06
1.3950155e-06
1.2677946e-06
6.47657e-07
1.3218491e-06
1.417334e-06
1.3697304e-06
1.0781451e-06
1.8141529e-06
2.055439e-06
2.2760319e-06
2.3086752e-06
2.315922e-06
2.3919917e-06
2.3321556e-06
2.4345501e-06
2.3315275e-06
2.5036189e-06
2.4785348e-06
2.5313731e-06
2.5455528e-06
2.5652802e-06
2.5755602e-06
2.5085064e-06
2.6722592e-06
2.5326655e-06
2.587665e-06
2.7298174e-06
2.7397154e-06
2.2544655e-06
2.3368104e-06
2.7429707e-06
2.7337003e-06
2.3282216e-06
1.8532211e-06
2.1137984e-06
2.610069e-06
2.5156311e-06
1.0494157e-06
2.2158869e-06
2.6569059e-06
2.1271555e-06
2.3954327e-06
1.8959946e-06
2.22501e-06
1.8251764e-06
2.1220217e-06
1.7699593e-06
2.0300063e-06
1.7821368e-06
2.0507001e-06
1.7876963e-06
2.0697566e-06
2.0560749e-06
2.0400307e-06
1.9131437e-06
2.0274258e-06
2.059072e-06
1.8577795e-06
1.8946341e-06
2.1436125e-06
2.1657711e-06
1.8336469e-06
1.6937316e-06
1.9512242e-06
2.5950644e-06
2.4885726e-06
1.9113068e-06
1.726555e-06
2.0184661e-06
2.4246312e-06
1.4231049e-06
1.1989073e-06
1.3152088e-06
1.6350773e-06
1.7220987e-06
1.5417687e-06
1.1374902e-06
1.0167004e-06
9.9538195e-07
1.0228751e-06
1.0367652e-06
1.0125369e-06
9.9220776e-07
1.0161911e-06
1.0483583e-06
1.0533292e-06
1.0409502e-06
1.0453649e-06
1.0707992e-06
1.067749e-06
1.0646471e-06
2.0380113e-06
2.0028924e-06
1.0157838e-06
1.1937506e-06
1.3170033e-06
1.5873376e-06
1.7658809e-06
1.7018369e-06
1.3113112e-06
1.1068526e-06
1.0572599e-06
1.0839096e-06
1.0949023e-06
1.0623131e-06
1.017451e-06
1.0447191e-06
1.1091366e-06
1.1184968e-06
1.0888893e-06
1.0825492e-06
1.1071433e-06
1.1566071e-06
1.1544527e-06
1.692021e-06
2.3838889e-06
1.6790507e-06
1.2737853e-06
1.3328824e-06
1.5605297e-06
1.7919171e-06
1.7928677e-06
1.4801348e-06
1.1975711e-06
1.1030219e-06
1.1148507e-06
1.1560875e-06
1.1558975e-06
1.1315881e-06
1.1322035e-06
1.1889847e-06
1.2010021e-06
1.1661383e-06
1.1222331e-06
1.1390586e-06
1.1985111e-06
1.2457359e-06
1.3189361e-06
2.227836e-06
1.7503298e-06
1.1942544e-06
1.1149039e-06
1.597427e-06
1.8795889e-06
1.8905015e-06
1.6588907e-06
1.3113982e-06
1.1492611e-06
1.1581657e-06
1.2282223e-06
1.2652663e-06
1.2663592e-06
1.2499616e-06
1.2786955e-06
1.2891829e-06
1.2579212e-06
1.2166056e-06
1.2120145e-06
1.2659115e-06
1.3254176e-06
9.9947726e-07
1.5387958e-06
9.9118792e-07
9.3482745e-07
1.4877601e-06
1.6649518e-06
1.973989e-06
2.0346992e-06
1.8614023e-06
1.4611239e-06
1.2467106e-06
1.226898e-06
1.298919e-06
1.3213235e-06
1.3171038e-06
1.279688e-06
1.304016e-06
1.3340899e-06
1.3288978e-06
1.3273655e-06
1.3215185e-06
1.3670463e-06
1.3956783e-06
8.0817799e-07
1.4111279e-06
1.0641991e-06
1.4530643e-06
1.3110421e-06
1.676258e-06
2.0135025e-06
2.1079402e-06
2.0054257e-06
1.6398645e-06
1.3938261e-06
1.3386775e-06
1.4087613e-06
1.4300507e-06
1.4115339e-06
1.3572698e-06
1.3237853e-06
1.3949902e-06
1.4380049e-06
1.4813097e-06
1.4715638e-06
1.4765856e-06
1.4775463e-06
7.1011363e-07
1.665093e-06
1.6342626e-06
7.4532975e-07
1.1168286e-06
1.6744484e-06
1.9923398e-06
2.2447983e-06
2.2224943e-06
1.9358639e-06
1.6329372e-06
1.5021045e-06
1.5457446e-06
1.5897092e-06
1.5491215e-06
1.5200396e-06
1.4536532e-06
1.5127563e-06
1.5413826e-06
1.562287e-06
1.5815037e-06
1.5627275e-06
1.5941238e-06
6.4643968e-07
1.4596545e-06
1.5612654e-06
9.0707687e-07
1.0250588e-06
1.3324338e-06
1.620828e-06
2.527688e-06
2.5176126e-06
2.2652071e-06
1.85604e-06
1.6174364e-06
1.6236231e-06
1.6665477e-06
1.6465818e-06
1.6588457e-06
1.6460227e-06
1.6762483e-06
1.7408151e-06
1.7255212e-06
1.7049439e-06
1.6309359e-06
1.6005595e-06
4.4266644e-07
9.5919565e-07
8.2826518e-07
8.0645746e-07
8.6567273e-07
1.3552597e-06
2.0113727e-06
2.7839209e-06
2.7076059e-06
2.4176634e-06
1.9598608e-06
1.6738263e-06
1.6391348e-06
1.7003586e-06
1.7169877e-06
1.76311e-06
1.7967625e-06
1.8170484e-06
1.8955178e-06
1.8618594e-06
1.785294e-06
1.7091594e-06
1.6427047e-06
3.6097061e-07
9.5749111e-07
4.7874612e-07
4.5752333e-07
8.2387884e-07
1.9409185e-06
2.300037e-06
2.8902658e-06
2.9366808e-06
2.6789441e-06
2.2188336e-06
1.8949455e-06
1.7786081e-06
1.9040807e-06
1.9479563e-06
1.9632546e-06
1.9980087e-06
1.9692313e-06
2.0162205e-06
2.0306274e-06
1.9373989e-06
1.9106845e-06
1.8514699e-06
5.4204963e-07
6.5717376e-07
5.8436317e-07
1.2234006e-06
1.1956467e-06
1.1565315e-06
1.2019455e-06
1.7564773e-06
2.9897205e-06
3.0711753e-06
2.6090202e-06
2.2872611e-06
2.1205265e-06
2.2330495e-06
2.2810993e-06
2.2051063e-06
2.1668594e-06
2.0809818e-06
2.0332749e-06
2.0915933e-06
2.0991375e-06
2.1065799e-06
2.129887e-06
8.7547728e-07
7.9838476e-07
1.0248694e-06
8.7575241e-07
1.004687e-06
1.8046066e-06
2.1567779e-06
2.9719811e-06
3.2992137e-06
3.3148866e-06
2.8941683e-06
2.6010554e-06
2.412344e-06
2.4821218e-06
2.5078754e-06
2.3831404e-06
2.2951509e-06
2.2138977e-06
2.1434548e-06
2.2224309e-06
2.286332e-06
2.2970436e-06
2.3936668e-06
1.0115959e-06
1.0124766e-06
8.4896778e-07
6.0967566e-07
9.996346e-07
2.1063406e-06
2.3294295e-06
2.9810904e-06
3.4706138e-06
3.5901305e-06
3.1958853e-06
2.8030466e-06
2.568045e-06
2.5852856e-06
2.664923e-06
2.5836654e-06
2.4515721e-06
2.3815231e-06
2.3094149e-06
2.3515167e-06
2.4238048e-06
2.4287745e-06
2.4925791e-06
9.1740948e-07
7.4761385e-07
8.2170283e-07
1.2761413e-06
1.2950946e-06
1.4446569e-06
1.4241604e-06
1.7917601e-06
2.4977687e-06
3.6388499e-06
3.7670877e-06
3.1831382e-06
2.8690015e-06
2.8038508e-06
2.9481903e-06
2.9118756e-06
2.7655493e-06
2.7454851e-06
2.6904268e-06
2.6605897e-06
2.7010206e-06
2.6850464e-06
2.6175971e-06
6.9136818e-07
7.2534109e-07
6.9062297e-07
1.496784e-06
1.9988896e-06
1.8752418e-06
1.584826e-06
1.8952746e-06
2.7579549e-06
4.6292382e-06
4.3868009e-06
3.7459072e-06
3.3116438e-06
3.1253977e-06
3.2280793e-06
3.240957e-06
3.1368566e-06
3.1178093e-06
3.0829641e-06
3.0265144e-06
3.1276577e-06
3.0926976e-06
2.8888381e-06
6.9256657e-07
1.0910804e-06
8.2719341e-07
1.3757892e-06
2.2423579e-06
3.039441e-06
2.8836135e-06
3.2073215e-06
4.2972489e-06
5.5204217e-06
4.7137043e-06
4.0820724e-06
3.542029e-06
3.314957e-06
3.3994846e-06
3.4550451e-06
3.4362709e-06
3.4918092e-06
3.6599744e-06
3.6879419e-06
3.7058521e-06
3.5862635e-06
3.2809069e-06
7.9426192e-07
1.1976705e-06
1.2695576e-06
1.5326753e-06
2.3164827e-06
3.197432e-06
3.7373929e-06
4.5918639e-06
5.519206e-06
5.9136945e-06
4.8761833e-06
4.205942e-06
3.6914061e-06
3.4653667e-06
3.5583985e-06
3.6151873e-06
3.6040321e-06
3.6457483e-06
3.901051e-06
4.0305377e-06
4.2146491e-06
4.145169e-06
3.7919689e-06
9.069266e-07
1.2780282e-06
1.3783863e-06
1.7839441e-06
2.3392048e-06
3.41679e-06
4.1098471e-06
5.1566078e-06
6.0830484e-06
6.6226844e-06
5.2687473e-06
4.5126508e-06
3.9977605e-06
3.777174e-06
3.841351e-06
3.8476443e-06
3.7762994e-06
3.8309751e-06
4.231287e-06
4.5052877e-06
4.7814784e-06
4.7113998e-06
4.3038259e-06
1.0606462e-06
1.4029047e-06
1.5320189e-06
1.9398916e-06
2.517862e-06
3.9511845e-06
5.2699597e-06
6.7465073e-06
7.5365459e-06
7.8048485e-06
5.8923858e-06
5.1807048e-06
4.718987e-06
4.5136438e-06
4.4826974e-06
4.4584505e-06
4.2909104e-06
4.2066463e-06
4.597818e-06
4.8808755e-06
5.1392262e-06
5.1309783e-06
4.644437e-06
1.1750615e-06
1.4845448e-06
1.6541667e-06
2.0721477e-06
2.7218741e-06
4.4732011e-06
6.5748509e-06
7.9738668e-06
8.5337212e-06
7.9075048e-06
6.327703e-06
5.9898197e-06
5.8080427e-06
5.7227213e-06
5.7345768e-06
5.3308228e-06
4.5824504e-06
4.4810549e-06
4.9180671e-06
5.2262582e-06
5.3824541e-06
5.2225071e-06
4.7808835e-06
1.3863003e-06
1.5469313e-06
1.7331965e-06
2.1434101e-06
2.834299e-06
4.8237133e-06
7.307944e-06
8.7463503e-06
9.1296351e-06
7.758084e-06
6.5301576e-06
6.4621578e-06
6.5207147e-06
6.5229579e-06
6.4605416e-06
5.8782701e-06
5.0580284e-06
5.0768413e-06
5.4676859e-06
5.7019826e-06
5.7653065e-06
5.3540693e-06
4.7855458e-06
1.448398e-06
1.5812399e-06
1.8151066e-06
2.2399567e-06
2.9917841e-06
5.4205508e-06
8.5110636e-06
1.007571e-05
1.0273848e-05
7.8105963e-06
6.69366e-06
6.787062e-06
6.9090613e-06
6.9074804e-06
6.8434102e-06
6.109671e-06
5.3896293e-06
5.8059047e-06
6.982725e-06
7.3984559e-06
6.6801898e-06
5.3740416e-06
4.8347438e-06
1.3601391e-06
1.6153889e-06
1.9820175e-06
2.5675387e-06
3.7250297e-06
7.8134047e-06
1.2040603e-05
1.3522839e-05
1.1622537e-05
8.0186499e-06
6.9773967e-06
7.2275261e-06
7.485174e-06
7.5817251e-06
7.3452414e-06
6.3388989e-06
6.1231542e-06
7.6279138e-06
8.7279071e-06
8.3396093e-06
6.9055239e-06
5.5539809e-06
5.2486662e-06
1.3060874e-06
1.658262e-06
2.1990895e-06
3.0165262e-06
4.672924e-06
1.0212324e-05
1.4372641e-05
1.5313819e-05
1.2270403e-05
8.4638255e-06
7.7020568e-06
8.7131069e-06
8.9606117e-06
8.4250049e-06
7.3503569e-06
6.6364142e-06
6.917877e-06
8.7410781e-06
9.6250616e-06
9.3852457e-06
6.8893473e-06
5.8817908e-06
5.8616255e-06
1.318338e-06
1.7582895e-06
2.4229826e-06
3.2868846e-06
5.2280309e-06
1.1135023e-05
1.5205988e-05
1.6555729e-05
1.272061e-05
9.9548206e-06
9.874333e-06
1.098031e-05
1.1011203e-05
9.9104057e-06
7.5966362e-06
7.0829211e-06
7.9316411e-06
1.0510712e-05
1.1110549e-05
9.0214109e-06
7.111468e-06
6.5768273e-06
7.3000693e-06
1.4238481e-06
1.6732704e-06
2.734274e-06
3.6328477e-06
6.1723577e-06
1.3226456e-05
1.640477e-05
1.5660886e-05
1.3056384e-05
1.1270747e-05
1.234651e-05
1.3657202e-05
1.3463727e-05
1.0114315e-05
8.2092498e-06
8.1824815e-06
1.0706677e-05
1.1860139e-05
1.0936618e-05
8.7600515e-06
7.7363097e-06
8.40014e-06
8.6526882e-06
1.6624613e-06
2.263772e-06
3.3459769e-06
4.6371553e-06
8.9046436e-06
1.5253868e-05
1.7005733e-05
1.637316e-05
1.3106845e-05
1.2536102e-05
1.4067498e-05
1.534366e-05
1.4634654e-05
1.0834572e-05
9.5148993e-06
1.0771753e-05
1.229176e-05
1.2412089e-05
1.0102489e-05
9.0797955e-06
9.3589592e-06
9.9768187e-06
9.179455e-06
1.4816066e-06
2.6530663e-06
4.055145e-06
5.94284e-06
1.1492096e-05
1.6431905e-05
1.707013e-05
1.5726422e-05
1.3296327e-05
1.352406e-05
1.6719941e-05
1.7853951e-05
1.4846442e-05
1.2250889e-05
1.2006839e-05
1.3379855e-05
1.3494201e-05
1.1291088e-05
1.0188556e-05
1.0266625e-05
1.1011361e-05
1.1038584e-05
1.0656963e-05
1.4330657e-06
2.9360155e-06
4.5678306e-06
7.0258277e-06
1.3647396e-05
1.6854856e-05
1.8161679e-05
1.5825001e-05
1.4377318e-05
1.6937098e-05
1.9231765e-05
1.8275743e-05
1.5264832e-05
1.4011918e-05
1.4851427e-05
1.4652792e-05
1.2637555e-05
1.1325553e-05
1.126296e-05
1.1933695e-05
1.250006e-05
1.2853785e-05
1.4190751e-05
1.802092e-06
3.015303e-06
4.8061611e-06
7.8427982e-06
1.5108195e-05
1.8079278e-05
1.9235754e-05
1.7318682e-05
1.7567998e-05
1.8865786e-05
1.8994364e-05
1.7204055e-05
1.591813e-05
1.6514517e-05
1.6388281e-05
1.4623969e-05
1.3044085e-05
1.2732908e-05
1.3256897e-05
1.3698933e-05
1.4246813e-05
1.6433878e-05
1.6525661e-05
1.8454123e-06
3.1650525e-06
5.0935718e-06
9.115813e-06
1.6959338e-05
1.9284456e-05
2.0598933e-05
1.9342205e-05
1.9190366e-05
1.8839936e-05
1.7520905e-05
1.6823884e-05
1.7458425e-05
1.7893522e-05
1.6848223e-05
1.5426301e-05
1.484328e-05
1.4662723e-05
1.4708995e-05
1.5072464e-05
1.667111e-05
1.7012798e-05
1.680218e-05
2.0665737e-06
3.5597022e-06
5.8672056e-06
1.1143424e-05
1.7621076e-05
2.0073643e-05
2.0670818e-05
2.011218e-05
1.9932381e-05
1.8554769e-05
1.6989221e-05
1.6751357e-05
1.774367e-05
1.8439174e-05
1.7114918e-05
1.6602984e-05
1.63586e-05
1.6539617e-05
1.6616902e-05
1.6820617e-05
1.7501877e-05
1.7288675e-05
1.7719981e-05
1.7685927e-06
4.3532492e-06
7.3795089e-06
1.3365158e-05
1.773763e-05
1.9561777e-05
2.0442394e-05
2.0921409e-05
2.0712836e-05
1.8910932e-05
1.7788319e-05
1.8338432e-05
1.9219985e-05
1.8203261e-05
1.7051464e-05
1.725943e-05
1.9016634e-05
1.925183e-05
1.8133192e-05
1.7221239e-05
1.729682e-05
1.8383097e-05
2.0229074e-05
1.3953242e-06
4.8163759e-06
8.0663161e-06
1.434173e-05
1.7450617e-05
1.9145349e-05
2.0047524e-05
2.1042988e-05
2.1263198e-05
2.0177799e-05
1.9776151e-05
1.9949347e-05
1.9273386e-05
1.7159536e-05
1.6546804e-05
1.7627273e-05
1.972504e-05
2.0174582e-05
1.9572294e-05
1.9047889e-05
2.0136815e-05
2.2864064e-05
2.6937627e-05
2.0847946e-06
5.1857674e-06
9.0380471e-06
1.5804802e-05
1.8778788e-05
1.9903519e-05
2.0657136e-05
2.1331085e-05
2.1033411e-05
2.0349783e-05
2.0381477e-05
2.0351129e-05
1.9255073e-05
1.7527069e-05
1.7376796e-05
1.9871e-05
2.1908147e-05
2.2991281e-05
2.3235272e-05
2.5133715e-05
3.1244749e-05
4.2835866e-05
6.4922954e-05
2.9929097e-06
5.1346502e-06
8.9027467e-06
1.6129993e-05
1.9671318e-05
2.0924178e-05
2.1579962e-05
2.1747867e-05
2.0678088e-05
1.9377561e-05
1.9794692e-05
2.0761119e-05
2.0704728e-05
1.9040064e-05
1.8354856e-05
2.0083146e-05
2.229752e-05
2.3745388e-05
2.5096676e-05
3.0326996e-05
4.4233685e-05
7.3632097e-05
0.00011504707
2.8688283e-06
5.3004311e-06
8.8271117e-06
1.5602296e-05
1.9433171e-05
2.121549e-05
2.2337111e-05
2.2478977e-05
2.1045075e-05
1.9116552e-05
1.8835441e-05
2.0013831e-05
2.0783931e-05
2.0264175e-05
1.9866387e-05
2.1479011e-05
2.3547838e-05
2.4408112e-05
2.5790832e-05
3.1150128e-05
4.8325077e-05
9.4984984e-05
0.00023197065
1.7527949e-06
5.6929129e-06
9.106237e-06
1.5246996e-05
1.8567571e-05
2.0310969e-05
2.1966559e-05
2.2902059e-05
2.2105502e-05
2.0121477e-05
1.9165646e-05
1.9928722e-05
2.0646402e-05
2.0331846e-05
2.0190118e-05
2.1869193e-05
2.4088159e-05
2.5541224e-05
2.7437401e-05
3.4977279e-05
6.3422657e-05
0.00015566428
0.00029930594
2.1063906e-06
5.9500772e-06
9.358765e-06
1.5213222e-05
1.8186156e-05
1.9573578e-05
2.1198696e-05
2.2749434e-05
2.27543e-05
2.1403851e-05
2.0366423e-05
2.081759e-05
2.1163866e-05
2.037059e-05
1.9759778e-05
2.1092941e-05
2.3165617e-05
2.5204364e-05
2.9166553e-05
4.6229909e-05
0.00010263301
0.0002254933
0.00033492535
2.8973154e-06
5.961716e-06
9.4057462e-06
1.5274824e-05
1.8509716e-05
1.9951849e-05
2.1195674e-05
2.2794843e-05
2.2909852e-05
2.1866016e-05
2.0902441e-05
2.1204672e-05
2.1416615e-05
2.0645224e-05
1.9625578e-05
2.0422167e-05
2.2428108e-05
2.4413028e-05
2.9397667e-05
5.1771525e-05
0.00012487371
0.00025997681
0.00034382073
2.8729172e-06
5.6840838e-06
9.4083197e-06
1.5172475e-05
1.8816199e-05
2.048881e-05
2.1566192e-05
2.3174337e-05
2.3202232e-05
2.1910241e-05
2.0408967e-05
2.039829e-05
2.0755456e-05
2.0455937e-05
1.9744369e-05
2.0232643e-05
2.2676206e-05
2.490234e-05
3.0152719e-05
5.3195021e-05
0.00012975886
0.00026977613
0.00033411276
2.7953515e-06
6.0959424e-06
9.3884021e-06
1.455774e-05
1.8314481e-05
2.0082369e-05
2.1112904e-05
2.2927588e-05
2.3168986e-05
2.2133128e-05
2.0127895e-05
1.9817514e-05
2.0286679e-05
2.0225646e-05
1.98404e-05
2.0394398e-05
2.2602053e-05
2.5371335e-05
3.0481748e-05
5.2922173e-05
0.00012789601
0.00025962401
0.00032178274
2.4443267e-06
5.9721363e-06
8.8451393e-06
1.3335482e-05
1.7273366e-05
1.9241019e-05
2.0202786e-05
2.2072142e-05
2.2786923e-05
2.2548995e-05
2.0844161e-05
2.0165311e-05
2.0506595e-05
2.063888e-05
2.0275209e-05
2.0383104e-05
2.1795946e-05
2.4538957e-05
2.8138614e-05
4.3773798e-05
0.0001053744
0.000233692
0.00030860666
2.1492998e-06
5.4776391e-06
8.1253139e-06
1.1811699e-05
1.6290515e-05
1.8730447e-05
2.0011254e-05
2.1977732e-05
2.2876988e-05
2.2872097e-05
2.1711016e-05
2.0607168e-05
2.075786e-05
2.1130034e-05
2.0754984e-05
2.0442116e-05
2.1039286e-05
2.3202509e-05
2.5443129e-05
3.3663366e-05
7.2657507e-05
0.00018091676
0.00029303927
2.033649e-06
4.7528658e-06
7.4809202e-06
1.0245842e-05
1.4552866e-05
1.7796567e-05
1.9731878e-05
2.2167016e-05
2.3406096e-05
2.3208932e-05
2.2402642e-05
2.0867798e-05
2.0507225e-05
2.0777923e-05
2.0602607e-05
2.0128469e-05
2.0261455e-05
2.1509023e-05
2.3562381e-05
2.8420872e-05
4.9425164e-05
0.00011407143
0.00024615348
1.6912305e-06
4.8783471e-06
7.4198594e-06
9.3791483e-06
1.2673929e-05
1.6076287e-05
1.8370412e-05
2.0950474e-05
2.2993273e-05
2.3192145e-05
2.262932e-05
2.1107636e-05
2.0348592e-05
2.0424409e-05
2.0647837e-05
2.0324244e-05
2.0079977e-05
2.063585e-05
2.2286312e-05
2.5268636e-05
3.5294521e-05
6.960783e-05
0.00016001152
2.3080702e-06
4.9389218e-06
7.5841326e-06
9.2441917e-06
1.161778e-05
1.4787932e-05
1.7041143e-05
1.9617525e-05
2.1894894e-05
2.2716168e-05
2.280023e-05
2.2001566e-05
2.0898572e-05
2.0914288e-05
2.1208407e-05
2.0961004e-05
2.0755079e-05
2.0810474e-05
2.1520367e-05
2.2975297e-05
2.7687129e-05
4.330469e-05
8.7485671e-05
1.1546629e-06
5.0184379e-06
7.6281644e-06
9.3078121e-06
1.1405077e-05
1.4475383e-05
1.6791687e-05
1.9434353e-05
2.1854561e-05
2.2978647e-05
2.2991736e-05
2.2670055e-05
2.1578057e-05
2.1161905e-05
2.1284499e-05
2.140816e-05
2.0968608e-05
2.0852895e-05
2.0980943e-05
2.1562602e-05
2.3349477e-05
2.9509714e-05
4.8192449e-05
1.2410958e-06
5.4616018e-06
7.9491157e-06
9.5952417e-06
1.1443419e-05
1.4140717e-05
1.635949e-05
1.8795173e-05
2.1407858e-05
2.3047416e-05
2.3310985e-05
2.2994486e-05
2.2360337e-05
2.1278781e-05
2.1196987e-05
2.1208344e-05
2.1059118e-05
2.0738524e-05
2.078911e-05
2.1051776e-05
2.1764008e-05
2.4307043e-05
3.1651099e-05
1.3934793e-06
6.0034968e-06
9.0494293e-06
1.0468917e-05
1.2057e-05
1.4327532e-05
1.6001674e-05
1.777641e-05
2.0106657e-05
2.2117089e-05
2.3304872e-05
2.3358946e-05
2.3053767e-05
2.2165679e-05
2.1446923e-05
2.1447185e-05
2.1607357e-05
2.1401948e-05
2.1265075e-05
2.1373959e-05
2.1660425e-05
2.2676944e-05
2.5829527e-05
1.5549661e-06
5.7710329e-06
9.2680015e-06
1.1111302e-05
1.2511971e-05
1.4576277e-05
1.6466631e-05
1.7828198e-05
1.9748233e-05
2.158373e-05
2.3154249e-05
2.3821136e-05
2.3686841e-05
2.312539e-05
2.2102508e-05
2.163781e-05
2.161606e-05
2.1769533e-05
2.1667478e-05
2.1581456e-05
2.1556272e-05
2.1908794e-05
2.327696e-05
1.6490614e-06
6.0375496e-06
8.8719717e-06
1.108474e-05
1.2602349e-05
1.4212545e-05
1.6188568e-05
1.7780544e-05
1.9624075e-05
2.1477649e-05
2.2802576e-05
2.3628647e-05
2.3984699e-05
2.3567376e-05
2.2701777e-05
2.1895485e-05
2.1599611e-05
2.1607362e-05
2.1707055e-05
2.1868287e-05
2.1795633e-05
2.1932214e-05
2.2611186e-05
2.8409549e-06
8.9274944e-06
8.9498901e-06
1.0654145e-05
1.2184739e-05
1.3572476e-05
1.5125664e-05
1.6811714e-05
1.8839291e-05
2.0829845e-05
2.2350863e-05
2.3164734e-05
2.3535255e-05
2.374875e-05
2.3405598e-05
2.2767348e-05
2.2109853e-05
2.200359e-05
2.1979991e-05
2.2122119e-05
2.2172244e-05
2.2222475e-05
2.2636098e-05
3.116635e-06
9.8844813e-06
9.6506024e-06
1.0791583e-05
1.1913398e-05
1.3158655e-05
1.4645887e-05
1.6025147e-05
1.7742894e-05
1.9716272e-05
2.1680399e-05
2.3052388e-05
2.3665153e-05
2.3935334e-05
2.3843157e-05
2.3441089e-05
2.2881472e-05
2.2439501e-05
2.2246338e-05
2.2180601e-05
2.2046179e-05
2.2061056e-05
2.2275105e-05
3.1142595e-06
1.0551063e-05
1.1270122e-05
1.1787784e-05
1.2419866e-05
1.2999876e-05
1.4035242e-05
1.5243259e-05
1.6546905e-05
1.8290985e-05
2.0261726e-05
2.2166194e-05
2.3414903e-05
2.4037788e-05
2.4237349e-05
2.4186176e-05
2.3753884e-05
2.3353774e-05
2.2983592e-05
2.2811997e-05
2.2508042e-05
2.2484343e-05
2.256557e-05
2.9121148e-06
1.1518776e-05
1.3444069e-05
1.2774924e-05
1.2589825e-05
1.2408333e-05
1.2663028e-05
1.3699156e-05
1.4881686e-05
1.6300607e-05
1.7990486e-05
1.99668e-05
2.1752729e-05
2.3018443e-05
2.3828201e-05
2.4354528e-05
2.4538469e-05
2.4563819e-05
2.4213609e-05
2.4006645e-05
2.3747228e-05
2.367754e-05
2.3588416e-05
2.6544696e-06
1.2109934e-05
1.5410667e-05
1.3875271e-05
1.2099048e-05
1.0967406e-05
1.1415622e-05
1.22228e-05
1.3182036e-05
1.4240125e-05
1.5799827e-05
1.7940374e-05
2.0115458e-05
2.2018671e-05
2.3565399e-05
2.4568256e-05
2.5111735e-05
2.5397206e-05
2.529147e-05
2.5255302e-05
2.4990977e-05
2.4886718e-05
2.4625136e-05
2.5458855e-06
1.1767944e-05
1.46971e-05
1.4634469e-05
1.2026164e-05
1.1174189e-05
1.1477744e-05
1.2023052e-05
1.2719761e-05
1.3652507e-05
1.5235356e-05
1.7508209e-05
2.0003292e-05
2.2192353e-05
2.4016968e-05
2.5191978e-05
2.5811181e-05
2.6098267e-05
2.6040514e-05
2.6077281e-05
2.5770965e-05
2.5674216e-05
2.5449993e-05
2.6369646e-06
1.0508359e-05
1.6671278e-05
1.4834686e-05
1.3871519e-05
1.2909192e-05
1.3094004e-05
1.3564514e-05
1.4063026e-05
1.4810777e-05
1.6308646e-05
1.8396781e-05
2.083773e-05
2.3078193e-05
2.5082915e-05
2.64568e-05
2.7048659e-05
2.7281594e-05
2.7341161e-05
2.7352084e-05
2.7219578e-05
2.718279e-05
2.6794195e-05
2.6811674e-06
9.2574252e-06
1.5590454e-05
1.7048846e-05
1.576639e-05
1.4873934e-05
1.5183279e-05
1.5821705e-05
1.666243e-05
1.7903447e-05
1.9934519e-05
2.2285097e-05
2.4592946e-05
2.6752048e-05
2.8515972e-05
2.9376612e-05
2.9812569e-05
3.0147709e-05
2.9793941e-05
2.9586023e-05
2.9594884e-05
2.9632734e-05
2.9229895e-05
2.6849166e-06
8.0316388e-06