/*--------------------------------*- C++ -*----------------------------------*\
| =========                 |                                                 |
| \\      /  F ield         | OpenFOAM: The Open Source CFD Toolbox           |
|  \\    /   O peration     | Version:  2406                                  |
|   \\  /    A nd           | Website:  www.openfoam.com                      |
|    \\/     M anipulation  |                                                 |
\*---------------------------------------------------------------------------*/
FoamFile
{
    version     2.0;
    format      ascii;
    arch        "LSB;label=32;scalar=64";
    class       volScalarField;
    location    "75";
    object      nut;
}
// * * * * * * * * * * * * * * * * * * * * * * * * * * * * * * * * * * * * * //

dimensions      [0 2 -1 0 0 0 0];

internalField   nonuniform List<scalar> 
20580
(
8.8672815e-07
8.6209658e-07
8.4289706e-07
8.3137333e-07
8.1989009e-07
8.0847056e-07
8.0223913e-07
7.9790329e-07
7.9645173e-07
7.9432296e-07
7.9361384e-07
7.8967664e-07
7.9034282e-07
7.8615105e-07
7.8680579e-07
7.8495977e-07
7.8552126e-07
7.8705591e-07
7.900943e-07
7.9272675e-07
7.9724096e-07
7.9798737e-07
8.0075776e-07
8.1472384e-07
8.2552798e-07
8.4504408e-07
8.6980707e-07
8.9522173e-07
9.2940527e-07
9.7701984e-07
1.0492249e-06
8.8773741e-07
8.7819894e-07
8.5252919e-07
8.3476982e-07
8.214163e-07
8.095176e-07
8.0446134e-07
7.9963335e-07
7.9811304e-07
7.9576287e-07
7.9533132e-07
7.9041824e-07
7.9233793e-07
7.8673345e-07
7.8730119e-07
7.8585323e-07
7.8504631e-07
7.8716394e-07
7.9112936e-07
7.9584941e-07
8.0132968e-07
8.0857051e-07
8.0472933e-07
8.1860616e-07
8.2690049e-07
8.4372289e-07
8.7247079e-07
8.9413067e-07
9.2459398e-07
9.6386679e-07
1.0412847e-06
8.8793126e-07
8.8827882e-07
8.6404298e-07
8.4377245e-07
8.2705719e-07
8.1307954e-07
8.0506283e-07
8.0010666e-07
7.9879032e-07
7.9647397e-07
7.968284e-07
7.9171355e-07
7.9334201e-07
7.8884792e-07
7.8742568e-07
7.8684668e-07
7.8504836e-07
7.8723265e-07
7.9078272e-07
7.9584159e-07
7.9927117e-07
8.1127107e-07
8.0861879e-07
8.2024937e-07
8.2892923e-07
8.4279406e-07
8.6787019e-07
8.8698169e-07
9.1819735e-07
9.4932638e-07
1.0271514e-06
8.8824412e-07
8.907493e-07
8.7065143e-07
8.5111437e-07
8.3348669e-07
8.1741424e-07
8.0764958e-07
8.0023425e-07
7.9992428e-07
7.9587732e-07
7.9615054e-07
7.9206623e-07
7.9208607e-07
7.8953647e-07
7.8683589e-07
7.8817248e-07
7.8492702e-07
7.8729693e-07
7.9061204e-07
7.9604177e-07
7.9729269e-07
8.1060488e-07
8.1270546e-07
8.2065974e-07
8.3239876e-07
8.4441566e-07
8.6831761e-07
8.8465691e-07
9.0713494e-07
9.2493607e-07
9.825424e-07
8.8834259e-07
8.949806e-07
8.7895956e-07
8.6548703e-07
8.4664589e-07
8.265791e-07
8.1444321e-07
8.0465424e-07
8.0242515e-07
7.9806136e-07
7.9523656e-07
7.9310443e-07
7.900648e-07
7.9034053e-07
7.8518132e-07
7.8873372e-07
7.8631972e-07
7.8818507e-07
7.9084214e-07
7.9680076e-07
7.9853895e-07
8.0877814e-07
8.1618591e-07
8.212387e-07
8.3715339e-07
8.4889818e-07
8.7642307e-07
8.9233587e-07
9.1210433e-07
9.2597339e-07
9.6058321e-07
8.8792617e-07
9.006181e-07
8.8481255e-07
8.8025334e-07
8.717809e-07
8.4937222e-07
8.3383423e-07
8.1695771e-07
8.0906748e-07
8.0432938e-07
7.9804749e-07
7.9563404e-07
7.9133961e-07
7.9025752e-07
7.8646604e-07
7.8586845e-07
7.8613379e-07
7.8774052e-07
7.9145623e-07
7.949415e-07
8.0172674e-07
8.1018819e-07
8.1808321e-07
8.2261674e-07
8.3915964e-07
8.5067932e-07
8.6851691e-07
9.0538969e-07
9.278612e-07
9.6211559e-07
9.7669813e-07
8.8763809e-07
9.024791e-07
8.8713036e-07
8.8249625e-07
8.7600776e-07
8.6508188e-07
8.527263e-07
8.4291332e-07
8.3016792e-07
8.2319412e-07
8.1142781e-07
8.0597646e-07
7.9886635e-07
7.9489018e-07
7.9076276e-07
7.881604e-07
7.8602226e-07
7.8792885e-07
7.9032127e-07
7.9338206e-07
8.0022735e-07
8.0922555e-07
8.1716145e-07
8.2049185e-07
8.3641995e-07
8.4862382e-07
8.6054489e-07
8.9485575e-07
9.2823064e-07
9.6406918e-07
1.0038965e-06
8.8953753e-07
8.9900249e-07
8.8413279e-07
8.7865048e-07
8.7343668e-07
8.6494429e-07
8.6014107e-07
8.6213203e-07
8.5955453e-07
8.596284e-07
8.5034972e-07
8.3989212e-07
8.2699843e-07
8.1265997e-07
8.0334484e-07
7.9547907e-07
7.9104405e-07
7.8981977e-07
7.9227705e-07
7.9229686e-07
7.9979349e-07
8.0515537e-07
8.1515181e-07
8.1871786e-07
8.3207666e-07
8.4514392e-07
8.5357413e-07
8.6935168e-07
9.0614992e-07
9.404396e-07
9.9692918e-07
8.9687933e-07
9.3656417e-07
9.010634e-07
8.8337804e-07
8.6900674e-07
8.6100001e-07
8.6124541e-07
8.6547766e-07
8.7060438e-07
8.7602182e-07
8.7500754e-07
8.7217677e-07
8.6504675e-07
8.5208575e-07
8.4275977e-07
8.2630369e-07
8.0991513e-07
8.0018546e-07
7.9767801e-07
7.9676895e-07
8.0113287e-07
8.0587606e-07
8.1350248e-07
8.2254604e-07
8.2941224e-07
8.4524784e-07
8.5580023e-07
8.6863748e-07
8.9858666e-07
9.23987e-07
9.642755e-07
9.5907222e-07
1.0247025e-06
9.7762365e-07
9.2187997e-07
8.8489132e-07
8.6610373e-07
8.6194782e-07
8.639292e-07
8.695951e-07
8.7283525e-07
8.7624152e-07
8.7440105e-07
8.7397241e-07
8.697292e-07
8.6469994e-07
8.6086426e-07
8.5171554e-07
8.403893e-07
8.2243508e-07
8.114724e-07
8.1120464e-07
8.1025239e-07
8.1858724e-07
8.2754208e-07
8.3893544e-07
8.5023922e-07
8.6486619e-07
8.7984765e-07
9.1252229e-07
9.3547526e-07
9.7104956e-07
8.7149301e-07
9.7974727e-07
9.7449934e-07
9.8480665e-07
9.4144851e-07
8.9942266e-07
8.8000751e-07
8.733929e-07
8.7619042e-07
8.7586224e-07
8.7714873e-07
8.7335309e-07
8.732645e-07
8.705384e-07
8.6769703e-07
8.6232998e-07
8.6460154e-07
8.6014754e-07
8.5972235e-07
8.5036976e-07
8.4888619e-07
8.358089e-07
8.3216071e-07
8.3851347e-07
8.4525732e-07
8.5626331e-07
8.6832188e-07
8.8802395e-07
9.181646e-07
9.5698272e-07
9.9777229e-07
8.6512025e-07
8.761547e-07
9.1890678e-07
9.4343072e-07
9.6465765e-07
9.8444447e-07
9.7866596e-07
9.6523042e-07
9.5399413e-07
9.3871464e-07
9.2494254e-07
9.0756531e-07
8.9491289e-07
8.8332867e-07
8.7608519e-07
8.695084e-07
8.7004278e-07
8.688129e-07
8.6852828e-07
8.6911665e-07
8.7153276e-07
8.7015422e-07
8.6957526e-07
8.7364819e-07
8.7062367e-07
8.7199075e-07
8.8102256e-07
8.9367669e-07
9.1430801e-07
9.4185896e-07
9.8913711e-07
8.706572e-07
9.3777301e-07
9.1812754e-07
9.0784524e-07
9.3612824e-07
9.7831907e-07
1.0413761e-06
1.1069746e-06
1.1467136e-06
1.1683631e-06
1.1553207e-06
1.1259633e-06
1.0747331e-06
1.0104029e-06
9.6200471e-07
9.262437e-07
9.0632738e-07
8.9438773e-07
8.8702615e-07
8.8880214e-07
8.9078664e-07
8.9006854e-07
8.9320654e-07
9.0075938e-07
8.996203e-07
8.9440227e-07
8.9921171e-07
9.1007805e-07
9.2321853e-07
9.3711489e-07
9.6244939e-07
8.8015474e-07
9.8974705e-07
9.5354781e-07
9.3053101e-07
9.0848273e-07
9.2579657e-07
9.8934281e-07
1.0578383e-06
1.1170955e-06
1.1644779e-06
1.1924062e-06
1.2062827e-06
1.2163533e-06
1.2159899e-06
1.2077254e-06
1.1688626e-06
1.1283684e-06
1.0803543e-06
1.0263259e-06
9.9411753e-07
9.7466307e-07
9.5933637e-07
9.5422227e-07
9.5762842e-07
9.5660899e-07
9.4778398e-07
9.4536518e-07
9.5154597e-07
9.58507e-07
9.6754185e-07
9.7216866e-07
8.8075697e-07
9.1991333e-07
9.3068105e-07
9.2711332e-07
9.1344915e-07
9.1263688e-07
9.2577081e-07
9.4379297e-07
9.8000308e-07
1.0195373e-06
1.048956e-06
1.0799389e-06
1.1167921e-06
1.1560639e-06
1.1843973e-06
1.2063456e-06
1.2243492e-06
1.2426386e-06
1.2599395e-06
1.2761195e-06
1.2737357e-06
1.2635397e-06
1.2394565e-06
1.224912e-06
1.1870009e-06
1.1481358e-06
1.1153617e-06
1.0986977e-06
1.0900512e-06
1.0870774e-06
1.057655e-06
8.8109463e-07
8.856471e-07
8.7456636e-07
8.8049226e-07
8.8311838e-07
8.8131967e-07
8.8565462e-07
8.9945698e-07
9.2621031e-07
9.3894968e-07
9.5275415e-07
9.645846e-07
9.6227527e-07
9.8763257e-07
1.0269466e-06
1.0686148e-06
1.1147753e-06
1.1721962e-06
1.223968e-06
1.2686161e-06
1.3167266e-06
1.3651449e-06
1.4151551e-06
1.4510214e-06
1.4988674e-06
1.5210387e-06
1.5342374e-06
1.5331191e-06
1.520567e-06
1.5099514e-06
1.455739e-06
8.7995675e-07
8.8684729e-07
8.7236313e-07
8.6456042e-07
8.5648319e-07
8.5146953e-07
8.4971937e-07
8.5492702e-07
8.7035077e-07
8.7996703e-07
8.9281449e-07
8.9703409e-07
8.9959459e-07
9.0411312e-07
9.1164317e-07
9.2727657e-07
9.589019e-07
9.86325e-07
1.031312e-06
1.0941363e-06
1.1601103e-06
1.2381835e-06
1.3176249e-06
1.380417e-06
1.4475945e-06
1.5028998e-06
1.5464708e-06
1.5870409e-06
1.6143369e-06
1.6584899e-06
1.6716681e-06
8.7921662e-07
9.021647e-07
8.7745422e-07
8.6722269e-07
8.5754877e-07
8.4952901e-07
8.4254149e-07
8.4123611e-07
8.4619599e-07
8.5253538e-07
8.6038697e-07
8.6419907e-07
8.657701e-07
8.6784656e-07
8.6653983e-07
8.7244526e-07
8.7835156e-07
8.9151612e-07
9.1610481e-07
9.4210183e-07
9.717743e-07
1.0113309e-06
1.0671696e-06
1.1131302e-06
1.1855984e-06
1.2557109e-06
1.3491224e-06
1.4037142e-06
1.4794588e-06
1.5218267e-06
1.6053409e-06
8.7526509e-07
9.8414446e-07
9.3671529e-07
9.052695e-07
8.7943812e-07
8.6140713e-07
8.490433e-07
8.4466344e-07
8.4670862e-07
8.5205909e-07
8.594672e-07
8.6346629e-07
8.6464346e-07
8.6448652e-07
8.6451754e-07
8.6477775e-07
8.6485395e-07
8.6742989e-07
8.7615407e-07
8.8387439e-07
8.9702628e-07
9.1653498e-07
9.3999807e-07
9.6071942e-07
9.8902841e-07
1.0205071e-06
1.0753811e-06
1.1086599e-06
1.163622e-06
1.1911103e-06
1.2787185e-06
8.6550859e-07
9.149401e-07
9.3194333e-07
9.4691431e-07
9.3657493e-07
9.1769658e-07
8.9727929e-07
8.8299401e-07
8.7687968e-07
8.7807712e-07
8.8276067e-07
8.8808332e-07
8.8952233e-07
8.9002906e-07
8.900416e-07
8.879422e-07
8.8748945e-07
8.8811037e-07
8.9491628e-07
9.0000001e-07
9.1025468e-07
9.2600694e-07
9.4549943e-07
9.6452627e-07
9.8373831e-07
8.5618054e-07
8.9359177e-07
8.0486996e-07
1.1059857e-06
1.1279784e-06
1.1606737e-06
8.2705833e-07
9.5145698e-07
1.0094443e-06
1.0884869e-06
1.1396527e-06
1.1830546e-06
1.2020113e-06
1.2186111e-06
1.2288228e-06
1.2343441e-06
1.246549e-06
1.2561675e-06
1.2654495e-06
1.2668631e-06
1.2632613e-06
1.2700405e-06
1.2696858e-06
1.2696834e-06
1.2832924e-06
1.2994726e-06
1.3121375e-06
1.3302695e-06
1.0044853e-06
1.2952938e-06
1.3729251e-06
1.3888498e-06
1.263312e-06
6.4650113e-07
1.3161449e-06
1.4092082e-06
1.3628972e-06
1.0771717e-06
1.8073323e-06
2.0523276e-06
2.2727741e-06
2.3007933e-06
2.3074471e-06
2.3819104e-06
2.3217384e-06
2.4239521e-06
2.3213327e-06
2.4944162e-06
2.4705924e-06
2.5273303e-06
2.5398599e-06
2.5632822e-06
2.573491e-06
2.508673e-06
2.6635917e-06
2.5302724e-06
2.5902911e-06
2.7180178e-06
2.7287668e-06
2.2570866e-06
2.3397486e-06
2.7262367e-06
2.709348e-06
2.3222297e-06
1.8619722e-06
2.1141296e-06
2.5889933e-06
2.4930036e-06
1.0499422e-06
2.2028541e-06
2.6527857e-06
2.1264936e-06
2.3865712e-06
1.8896477e-06
2.2145025e-06
1.8176323e-06
2.1127277e-06
1.7619442e-06
2.0215201e-06
1.7747265e-06
2.0470041e-06
1.7822991e-06
2.0673583e-06
2.0540615e-06
2.0407646e-06
1.9046374e-06
2.0245549e-06
2.063283e-06
1.8481107e-06
1.8821335e-06
2.1468975e-06
2.1731933e-06
1.8219305e-06
1.6717325e-06
1.94197e-06
2.6123805e-06
2.5000389e-06
1.8978078e-06
1.7066998e-06
2.0077055e-06
2.4174142e-06
1.4185664e-06
1.1909152e-06
1.3009014e-06
1.6150349e-06
1.7061502e-06
1.5379229e-06
1.142449e-06
1.0237871e-06
9.9988332e-07
1.0225912e-06
1.0334063e-06
1.0114875e-06
9.9706039e-07
1.0242313e-06
1.0510011e-06
1.0446979e-06
1.024236e-06
1.0287171e-06
1.0654364e-06
1.0806957e-06
1.0876596e-06
2.0441621e-06
2.0053409e-06
1.0145116e-06
1.1896237e-06
1.3108692e-06
1.5796525e-06
1.7571354e-06
1.6906929e-06
1.2987938e-06
1.0930249e-06
1.0447599e-06
1.0773548e-06
1.0990578e-06
1.0764898e-06
1.0349709e-06
1.0578055e-06
1.1109114e-06
1.1085428e-06
1.0747479e-06
1.0727505e-06
1.106699e-06
1.1651972e-06
1.163768e-06
1.6758194e-06
2.3667749e-06
1.6763045e-06
1.2796984e-06
1.3448829e-06
1.5733634e-06
1.7974949e-06
1.7838167e-06
1.4622524e-06
1.1803724e-06
1.0912981e-06
1.1116597e-06
1.1600652e-06
1.1611358e-06
1.1316773e-06
1.1256862e-06
1.1804042e-06
1.1995761e-06
1.1770601e-06
1.1416427e-06
1.1582271e-06
1.2076153e-06
1.2371161e-06
1.3011309e-06
2.2091587e-06
1.7466537e-06
1.1969909e-06
1.1169342e-06
1.595585e-06
1.8721197e-06
1.8831856e-06
1.658793e-06
1.3196483e-06
1.162849e-06
1.1719171e-06
1.2338871e-06
1.2549439e-06
1.2397693e-06
1.2178827e-06
1.2555204e-06
1.2875873e-06
1.2785971e-06
1.2461948e-06
1.2374482e-06
1.2781031e-06
1.3193545e-06
1.0019052e-06
1.5441612e-06
9.9141446e-07
9.2870586e-07
1.4683075e-06
1.6380277e-06
1.9474781e-06
2.0249027e-06
1.8739775e-06
1.4838961e-06
1.2679797e-06
1.2411651e-06
1.3016809e-06
1.3114e-06
1.2986894e-06
1.2621154e-06
1.2952121e-06
1.3370365e-06
1.3376644e-06
1.3314291e-06
1.3148318e-06
1.3528855e-06
1.3855339e-06
8.1145384e-07
1.4127177e-06
1.0624265e-06
1.4466585e-06
1.3032366e-06
1.6683595e-06
2.0123726e-06
2.11605e-06
2.0152991e-06
1.6411054e-06
1.3842458e-06
1.3220754e-06
1.3918188e-06
1.4216884e-06
1.4192503e-06
1.3792907e-06
1.3535749e-06
1.4218616e-06
1.4463917e-06
1.4615591e-06
1.4273683e-06
1.4282303e-06
1.448882e-06
6.9902185e-07
1.6453922e-06
1.6264946e-06
7.4807117e-07
1.1299104e-06
1.7027738e-06
2.0268605e-06
2.2726927e-06
2.227472e-06
1.9146078e-06
1.596767e-06
1.4628622e-06
1.5139611e-06
1.5801733e-06
1.5666678e-06
1.5547398e-06
1.4895321e-06
1.5407757e-06
1.5505582e-06
1.5497281e-06
1.5511066e-06
1.5294669e-06
1.5723753e-06
6.3609e-07
1.4452353e-06
1.5580934e-06
9.1231095e-07
1.0355049e-06
1.3449944e-06
1.6292591e-06
2.5292711e-06
2.5064594e-06
2.2470186e-06
1.8383479e-06
1.6057979e-06
1.6230872e-06
1.677062e-06
1.6604856e-06
1.6652883e-06
1.6371617e-06
1.6562699e-06
1.7197061e-06
1.7131517e-06
1.7091569e-06
1.6532645e-06
1.6357087e-06
4.4761253e-07
9.7190964e-07
8.3722034e-07
8.0916707e-07
8.5892268e-07
1.3299399e-06
1.9613133e-06
2.7162984e-06
2.6660703e-06
2.414121e-06
1.9827038e-06
1.7111344e-06
1.6827457e-06
1.7395323e-06
1.736588e-06
1.7510694e-06
1.7486155e-06
1.7493663e-06
1.8307787e-06
1.8303603e-06
1.7986383e-06
1.7583196e-06
1.706211e-06
3.7187637e-07
9.8196905e-07
4.8595657e-07
4.5797167e-07
8.1162772e-07
1.8872195e-06
2.2250545e-06
2.8134624e-06
2.8968515e-06
2.6859168e-06
2.252931e-06
1.9357327e-06
1.8181028e-06
1.9373075e-06
1.9628675e-06
1.9509897e-06
1.9580327e-06
1.9130901e-06
1.9664616e-06
2.0053313e-06
1.9428605e-06
1.9364335e-06
1.8832386e-06
5.474336e-07
6.6085238e-07
5.8529569e-07
1.2206777e-06
1.1901914e-06
1.1517889e-06
1.1992176e-06
1.7607447e-06
3.0111303e-06
3.1000465e-06
2.6248838e-06
2.2816037e-06
2.095201e-06
2.1960976e-06
2.2452111e-06
2.1836504e-06
2.1614442e-06
2.0866247e-06
2.0519677e-06
2.1198678e-06
2.1256147e-06
2.1141752e-06
2.1064713e-06
8.4475575e-07
7.7611173e-07
1.0101294e-06
8.7665664e-07
1.0194992e-06
1.8500045e-06
2.2243281e-06
3.0748876e-06
3.4031405e-06
3.3834439e-06
2.898689e-06
2.5444746e-06
2.3127198e-06
2.3650377e-06
2.411021e-06
2.3374973e-06
2.3010752e-06
2.2603476e-06
2.214782e-06
2.3059383e-06
2.354707e-06
2.3226638e-06
2.3555252e-06
9.5654365e-07
9.7034912e-07
8.3125576e-07
6.1047353e-07
1.0197947e-06
2.1740123e-06
2.4197363e-06
3.0976507e-06
3.586598e-06
3.6650502e-06
3.200514e-06
2.7407874e-06
2.4594896e-06
2.4582027e-06
2.5559729e-06
2.5258935e-06
2.448801e-06
2.422019e-06
2.3717353e-06
2.4258861e-06
2.4904731e-06
2.4629041e-06
2.4738708e-06
8.8657601e-07
7.2899259e-07
8.1055882e-07
1.2733053e-06
1.3041344e-06
1.4620386e-06
1.4432752e-06
1.8151423e-06
2.5228563e-06
3.6578397e-06
3.7591682e-06
3.1450533e-06
2.8120993e-06
2.7417679e-06
2.8974504e-06
2.8876052e-06
2.7652599e-06
2.7549028e-06
2.6971317e-06
2.6634907e-06
2.7029435e-06
2.6841836e-06
2.6034416e-06
6.9619764e-07
7.3085987e-07
6.9473366e-07
1.4971129e-06
1.9808121e-06
1.8379468e-06
1.5406128e-06
1.838372e-06
2.6866725e-06
4.5519798e-06
4.3589251e-06
3.7493951e-06
3.3313821e-06
3.1600933e-06
3.2805642e-06
3.2981741e-06
3.1716227e-06
3.1079351e-06
3.0214516e-06
2.9282838e-06
3.0208364e-06
3.0090754e-06
2.8437381e-06
7.1849304e-07
1.1279184e-06
8.477598e-07
1.3869523e-06
2.2069794e-06
2.9114281e-06
2.7047682e-06
2.9911519e-06
4.0575837e-06
5.3380079e-06
4.6732399e-06
4.1263544e-06
3.6259135e-06
3.4223959e-06
3.531558e-06
3.5852469e-06
3.5224194e-06
3.4913588e-06
3.5472837e-06
3.4799977e-06
3.4713404e-06
3.4045268e-06
3.1909284e-06
8.3226134e-07
1.2495761e-06
1.3115396e-06
1.5521629e-06
2.2748731e-06
3.0315102e-06
3.4475855e-06
4.1990491e-06
5.1261905e-06
5.6660997e-06
4.8273333e-06
4.2636121e-06
3.7995459e-06
3.6036324e-06
3.7211153e-06
3.7744113e-06
3.7154731e-06
3.6541904e-06
3.7603547e-06
3.7554972e-06
3.8859762e-06
3.88244e-06
3.6599888e-06
9.4689738e-07
1.3286111e-06
1.4198882e-06
1.8045007e-06
2.2958538e-06
3.2352144e-06
3.7806205e-06
4.7013869e-06
5.636424e-06
6.3324998e-06
5.2041947e-06
4.5622741e-06
4.1022399e-06
3.9122336e-06
4.0001612e-06
4.0086491e-06
3.8901634e-06
3.8372856e-06
4.0693528e-06
4.1822741e-06
4.3871842e-06
4.3977672e-06
4.1519832e-06
1.0960016e-06
1.4457252e-06
1.5676798e-06
1.9549223e-06
2.4679876e-06
3.7445979e-06
4.8623787e-06
6.1742333e-06
7.0066747e-06
7.4748433e-06
5.8119226e-06
5.2156489e-06
4.8113149e-06
4.6407769e-06
4.6388371e-06
4.6179269e-06
4.3938716e-06
4.1881696e-06
4.4027909e-06
4.5261523e-06
4.7252132e-06
4.8034841e-06
4.4863083e-06
1.2062312e-06
1.5199054e-06
1.6836927e-06
2.0810837e-06
2.6614795e-06
4.2297427e-06
6.0551058e-06
7.296373e-06
7.9450777e-06
7.5895389e-06
6.2434506e-06
6.0150763e-06
5.8964453e-06
5.8526757e-06
5.8988776e-06
5.4941091e-06
4.6695019e-06
4.43419e-06
4.6818752e-06
4.8315047e-06
4.9496886e-06
4.9057355e-06
4.6300334e-06
1.4190081e-06
1.5813418e-06
1.7620486e-06
2.1474958e-06
2.7595554e-06
4.5333232e-06
6.6888846e-06
7.9690449e-06
8.4945069e-06
7.4507561e-06
6.4384761e-06
6.4692099e-06
6.5941374e-06
6.6489038e-06
6.6395891e-06
6.0485152e-06
5.1191949e-06
4.9699907e-06
5.1449143e-06
5.2334351e-06
5.3115559e-06
5.0606242e-06
4.6596457e-06
1.4842953e-06
1.619262e-06
1.8487837e-06
2.242443e-06
2.89866e-06
5.049307e-06
7.7046849e-06
9.1074354e-06
9.5366876e-06
7.5052265e-06
6.6028274e-06
6.7925328e-06
6.9853104e-06
7.0412446e-06
7.0438681e-06
6.2770417e-06
5.4192108e-06
5.6050732e-06
6.4738305e-06
6.733727e-06
6.1641469e-06
5.1146629e-06
4.7341955e-06
1.3938965e-06
1.6555779e-06
2.0212723e-06
2.57047e-06
3.5934448e-06
7.204927e-06
1.0780248e-05
1.2119611e-05
1.0753994e-05
7.7170509e-06
6.9025186e-06
7.2531106e-06
7.5940574e-06
7.7540222e-06
7.5892264e-06
6.5079572e-06
6.0963187e-06
7.2465043e-06
7.981287e-06
7.5436402e-06
6.4008536e-06
5.3290774e-06
5.1642583e-06
1.3336591e-06
1.6940423e-06
2.2366082e-06
3.0086637e-06
4.4787483e-06
9.3373004e-06
1.2758749e-05
1.368733e-05
1.1382142e-05
8.1804357e-06
7.6427901e-06
8.755639e-06
9.1061467e-06
8.6473408e-06
7.6117196e-06
6.7792502e-06
6.7902488e-06
8.1573451e-06
8.6954671e-06
8.5011721e-06
6.4441355e-06
5.6919338e-06
5.80754e-06
1.3253798e-06
1.7713981e-06
2.4335927e-06
3.2423423e-06
4.9837909e-06
1.020419e-05
1.3633573e-05
1.5023606e-05
1.1947661e-05
9.6628749e-06
9.7782776e-06
1.1004378e-05
1.1144441e-05
1.0152359e-05
7.7979835e-06
7.1032975e-06
7.6157883e-06
9.6801911e-06
1.0041269e-05
8.296848e-06
6.7594719e-06
6.4195636e-06
7.2870014e-06
1.3845091e-06
1.6397369e-06
2.6903041e-06
3.5465128e-06
5.8919439e-06
1.2333487e-05
1.5176676e-05
1.4695989e-05
1.2521791e-05
1.0975613e-05
1.2109108e-05
1.3517234e-05
1.3440617e-05
1.0207318e-05
8.2248252e-06
7.9621095e-06
1.0079597e-05
1.0959864e-05
1.0124715e-05
8.2859896e-06
7.4568424e-06
8.2230335e-06
8.618375e-06
1.5408673e-06
2.1458038e-06
3.2393564e-06
4.530057e-06
8.6418883e-06
1.4702251e-05
1.6403921e-05
1.6004058e-05
1.2890209e-05
1.2232244e-05
1.3552033e-05
1.472966e-05
1.4155471e-05
1.0573017e-05
9.2512551e-06
1.0293492e-05
1.1649057e-05
1.1807672e-05
9.7535537e-06
8.8353903e-06
9.0530319e-06
9.6484755e-06
8.9424304e-06
1.3361908e-06
2.4676802e-06
3.9041749e-06
5.8486717e-06
1.1353082e-05
1.6268775e-05
1.6984505e-05
1.5835872e-05
1.329258e-05
1.312236e-05
1.56824e-05
1.6468413e-05
1.3829455e-05
1.164405e-05
1.1523255e-05
1.292848e-05
1.317848e-05
1.1179266e-05
1.0152506e-05
1.0069164e-05
1.0510851e-05
1.0355672e-05
9.9931858e-06
1.3206462e-06
2.7623659e-06
4.4121717e-06
6.8935947e-06
1.3442824e-05
1.6704946e-05
1.8195987e-05
1.5974409e-05
1.4243804e-05
1.6106281e-05
1.7678906e-05
1.661518e-05
1.4083154e-05
1.3211906e-05
1.4314197e-05
1.4508686e-05
1.2750528e-05
1.1472174e-05
1.1246349e-05
1.1513748e-05
1.1644951e-05
1.1710287e-05
1.2985617e-05
1.7377227e-06
2.9266993e-06
4.6873301e-06
7.5996742e-06
1.4496199e-05
1.739411e-05
1.877384e-05
1.703091e-05
1.7050504e-05
1.7885313e-05
1.7730397e-05
1.6044004e-05
1.5004393e-05
1.5743062e-05
1.5844509e-05
1.4440786e-05
1.3102654e-05
1.2769037e-05
1.2953948e-05
1.2949953e-05
1.3196195e-05
1.5156825e-05
1.5411942e-05
1.8232998e-06
3.1409175e-06
5.0180299e-06
8.7389956e-06
1.5768964e-05
1.7813158e-05
1.9402498e-05
1.8595946e-05
1.8537691e-05
1.8220811e-05
1.7021595e-05
1.6393424e-05
1.6935933e-05
1.7142712e-05
1.6015606e-05
1.4686481e-05
1.4225359e-05
1.4171359e-05
1.4197771e-05
1.4495532e-05
1.6046094e-05
1.6467316e-05
1.6193526e-05
2.0148951e-06
3.5065571e-06
5.7573207e-06
1.0653308e-05
1.6367083e-05
1.8499472e-05
1.9335591e-05
1.9139733e-05
1.9255244e-05
1.8257875e-05
1.6924377e-05
1.6712229e-05
1.7422174e-05
1.7542125e-05
1.5850257e-05
1.5212229e-05
1.5149359e-05
1.5720839e-05
1.6255848e-05
1.6858378e-05
1.7636459e-05
1.7283211e-05
1.7198645e-05
1.6587521e-06
4.1843827e-06
7.1939995e-06
1.2914236e-05
1.6980874e-05
1.8690694e-05
1.959763e-05
1.997607e-05
1.9716642e-05
1.8209612e-05
1.7386991e-05
1.8023989e-05
1.8689135e-05
1.7378622e-05
1.5990182e-05
1.6020752e-05
1.781444e-05
1.8400304e-05
1.7814497e-05
1.7339385e-05
1.7477575e-05
1.8172338e-05
1.9232772e-05
1.2973091e-06
4.579812e-06
7.8297877e-06
1.399734e-05
1.7121638e-05
1.8904708e-05
1.9715399e-05
2.0218841e-05
1.9908454e-05
1.8730194e-05
1.8519744e-05
1.906289e-05
1.8704551e-05
1.6794589e-05
1.6185702e-05
1.7083339e-05
1.8865555e-05
1.9078305e-05
1.8478378e-05
1.8144168e-05
1.9476594e-05
2.2159571e-05
2.5946467e-05
1.9997701e-06
5.0117054e-06
8.7415994e-06
1.5156562e-05
1.8086464e-05
1.9406974e-05
2.0196489e-05
2.0519189e-05
1.9822132e-05
1.8955172e-05
1.8990661e-05
1.9284873e-05
1.8722994e-05
1.7456554e-05
1.7438525e-05
1.967648e-05
2.1014741e-05
2.1260531e-05
2.108505e-05
2.2943178e-05
2.924351e-05
4.1371546e-05
6.4056171e-05
2.9131575e-06
5.0342757e-06
8.6415577e-06
1.5265503e-05
1.8384537e-05
1.9768828e-05
2.070831e-05
2.1019585e-05
2.0069671e-05
1.8764903e-05
1.8925491e-05
1.9655273e-05
1.9603557e-05
1.8278434e-05
1.7923326e-05
1.9837116e-05
2.1804435e-05
2.2690742e-05
2.3536547e-05
2.8274311e-05
4.1348526e-05
6.9168606e-05
0.00010852349
2.7466486e-06
5.1619915e-06
8.5933676e-06
1.4858934e-05
1.8179068e-05
1.9822357e-05
2.1074427e-05
2.1510203e-05
2.0534927e-05
1.8945044e-05
1.8660217e-05
1.95559e-05
1.9877363e-05
1.9027075e-05
1.8537743e-05
2.0184902e-05
2.2383455e-05
2.3456021e-05
2.4955939e-05
3.0326804e-05
4.7185376e-05
9.2220657e-05
0.0002225481
1.643667e-06
5.4487803e-06
8.8191308e-06
1.4713495e-05
1.7833749e-05
1.9475979e-05
2.1051516e-05
2.1909591e-05
2.1254091e-05
1.9573903e-05
1.8813797e-05
1.9532497e-05
1.9969158e-05
1.9290867e-05
1.8874248e-05
2.0354049e-05
2.2550364e-05
2.4216292e-05
2.6461074e-05
3.4242594e-05
6.2319589e-05
0.00015215895
0.00028903618
1.9957262e-06
5.701309e-06
9.0442887e-06
1.4711558e-05
1.7655109e-05
1.9159316e-05
2.0773162e-05
2.2032991e-05
2.1747425e-05
2.0262928e-05
1.9244947e-05
1.9738788e-05
2.0164861e-05
1.9489864e-05
1.897072e-05
2.03079e-05
2.2348505e-05
2.4320321e-05
2.8163379e-05
4.4577652e-05
9.8208116e-05
0.00021439401
0.00031751432
2.8065317e-06
5.8056221e-06
9.1355991e-06
1.4666852e-05
1.7666283e-05
1.9163325e-05
2.0515452e-05
2.202213e-05
2.192154e-05
2.067681e-05
1.9582245e-05
1.9852974e-05
2.0191463e-05
1.9730403e-05
1.90568e-05
2.0090294e-05
2.2189841e-05
2.4068543e-05
2.8733087e-05
4.9787479e-05
0.00011799846
0.0002440996
0.00032548188
2.7644548e-06
5.5363246e-06
9.1466145e-06
1.4506582e-05
1.7728255e-05
1.9262285e-05
2.0403721e-05
2.2038404e-05
2.213053e-05
2.0955577e-05
1.9567566e-05
1.9609671e-05
1.9994923e-05
1.9787357e-05
1.9197954e-05
1.9748512e-05
2.2133754e-05
2.4198124e-05
2.9068512e-05
5.0706275e-05
0.00012270278
0.00025592086
0.00032301535
2.6227902e-06
5.8231154e-06
9.0609958e-06
1.3991224e-05
1.7448349e-05
1.91033e-05
2.015659e-05
2.1932948e-05
2.2194623e-05
2.1309239e-05
1.9524562e-05
1.9358766e-05
1.988634e-05
1.9812944e-05
1.9315448e-05
1.9661276e-05
2.1577472e-05
2.4014011e-05
2.8786764e-05
5.0036656e-05
0.00012139778
0.00024927528
0.00031624
2.2956727e-06
5.6880739e-06
8.5306607e-06
1.288993e-05
1.6666663e-05
1.8636491e-05
1.9685729e-05
2.150698e-05
2.2073604e-05
2.1720381e-05
2.0033479e-05
1.940641e-05
1.9775607e-05
1.9905043e-05
1.9479156e-05
1.94509e-05
2.0660292e-05
2.320303e-05
2.6774264e-05
4.2077311e-05
0.00010226233
0.00022841028
0.00030500366
2.0587255e-06
5.2902797e-06
7.8962285e-06
1.1432913e-05
1.5646506e-05
1.7982556e-05
1.931758e-05
2.1294063e-05
2.2083685e-05
2.1916271e-05
2.0663555e-05
1.955562e-05
1.9711052e-05
2.0121349e-05
1.9811941e-05
1.9527195e-05
2.0093683e-05
2.2220585e-05
2.459832e-05
3.2971074e-05
7.1712606e-05
0.00017873399
0.00028846612
1.9436916e-06
4.5889725e-06
7.2834126e-06
9.9143004e-06
1.3889333e-05
1.6826261e-05
1.8664036e-05
2.1070429e-05
2.2322719e-05
2.2144122e-05
2.1349395e-05
1.9901948e-05
1.9628701e-05
2.0006945e-05
1.9953877e-05
1.9565038e-05
1.9695265e-05
2.0871347e-05
2.2865546e-05
2.7688482e-05
4.822376e-05
0.00011101362
0.00023802324
1.5902405e-06
4.6493845e-06
7.180691e-06
9.097502e-06
1.219516e-05
1.5305295e-05
1.7446139e-05
1.9978782e-05
2.2049192e-05
2.2316772e-05
2.1795021e-05
2.0343059e-05
1.9637608e-05
1.9766486e-05
2.0060939e-05
1.9815668e-05
1.9581241e-05
2.0038727e-05
2.1501082e-05
2.4267754e-05
3.3817259e-05
6.6480057e-05
0.00015288869
2.1802591e-06
4.7114991e-06
7.3431244e-06
9.0037311e-06
1.1288095e-05
1.4248281e-05
1.6352204e-05
1.8860009e-05
2.1154124e-05
2.2018398e-05
2.2099248e-05
2.1263782e-05
2.0101645e-05
2.0023306e-05
2.0256637e-05
2.0038114e-05
1.9881837e-05
1.9962322e-05
2.0616795e-05
2.1974124e-05
2.6489146e-05
4.1543286e-05
8.4353655e-05
1.1053858e-06
4.828339e-06
7.4053053e-06
9.0578573e-06
1.1062652e-05
1.3901005e-05
1.6008495e-05
1.8514695e-05
2.0886708e-05
2.2040829e-05
2.2103455e-05
2.178063e-05
2.0678163e-05
2.0197832e-05
2.0255663e-05
2.0382937e-05
2.0037617e-05
2.0038264e-05
2.0233288e-05
2.0846579e-05
2.2602127e-05
2.8622776e-05
4.6943282e-05
1.1893729e-06
5.2539301e-06
7.6880955e-06
9.2879448e-06
1.1041921e-05
1.35404e-05
1.557469e-05
1.7883851e-05
2.0403522e-05
2.2043159e-05
2.2362665e-05
2.2079747e-05
2.148082e-05
2.045074e-05
2.0383015e-05
2.041943e-05
2.034248e-05
2.011746e-05
2.0211712e-05
2.0481452e-05
2.1127947e-05
2.3530823e-05
3.0571194e-05
1.3328132e-06
5.7705311e-06
8.7394296e-06
1.0109308e-05
1.1628194e-05
1.3766623e-05
1.5344414e-05
1.7088192e-05
1.9385042e-05
2.1381729e-05
2.2514493e-05
2.252078e-05
2.2171744e-05
2.1278849e-05
2.0595937e-05
2.0611435e-05
2.0797674e-05
2.0614826e-05
2.048222e-05
2.0565905e-05
2.0784564e-05
2.1722913e-05
2.4705014e-05
1.4805142e-06
5.5477667e-06
8.9782528e-06
1.0778495e-05
1.2106838e-05
1.4021962e-05
1.5780816e-05
1.7104019e-05
1.8979567e-05
2.0794651e-05
2.2286917e-05
2.2860453e-05
2.2645336e-05
2.2046513e-05
2.1097133e-05
2.0692626e-05
2.073101e-05
2.0902545e-05
2.0810786e-05
2.0707941e-05
2.0683993e-05
2.1039448e-05
2.2416427e-05
1.5598376e-06
5.7428451e-06
8.5375454e-06
1.0751506e-05
1.2223765e-05
1.3719294e-05
1.5516908e-05
1.6985502e-05
1.873675e-05
2.0537291e-05
2.1850517e-05
2.2643648e-05
2.2956951e-05
2.2560297e-05
2.1767575e-05
2.1045936e-05
2.0843149e-05
2.0871567e-05
2.0964602e-05
2.1068435e-05
2.0963541e-05
2.1103506e-05
2.1800587e-05
2.6987293e-06
8.4822043e-06
8.5484574e-06
1.0272327e-05
1.179699e-05
1.3128659e-05
1.4554801e-05
1.6081547e-05
1.7992067e-05
1.9908251e-05
2.1421932e-05
2.227328e-05
2.2675442e-05
2.2888075e-05
2.254443e-05
2.1916262e-05
2.1290021e-05
2.1148993e-05
2.1116754e-05
2.1205468e-05
2.1230067e-05
2.1302811e-05
2.1732866e-05
2.9914215e-06
9.4558995e-06
9.2256287e-06
1.0343298e-05
1.1465884e-05
1.2685462e-05
1.4100808e-05
1.5358408e-05
1.6966831e-05
1.8864534e-05
2.0771405e-05
2.217879e-05
2.2839457e-05
2.3097267e-05
2.2975122e-05
2.25336e-05
2.1923448e-05
2.1451213e-05
2.1281657e-05
2.1224778e-05
2.1164133e-05
2.1215692e-05
2.1490889e-05
3.0066681e-06
1.0156608e-05
1.0804635e-05
1.1304833e-05
1.1942209e-05
1.2540031e-05
1.3557248e-05
1.4699111e-05
1.5917477e-05
1.7564551e-05
1.9433825e-05
2.1295113e-05
2.2519442e-05
2.3122742e-05
2.3298228e-05
2.3187852e-05
2.2729427e-05
2.230865e-05
2.1999197e-05
2.1869118e-05
2.1662689e-05
2.1659516e-05
2.1768438e-05
2.8230934e-06
1.1161437e-05
1.2990591e-05
1.2329251e-05
1.2167514e-05
1.202014e-05
1.2284287e-05
1.3271157e-05
1.4371946e-05
1.5685428e-05
1.7253055e-05
1.9131526e-05
2.0849866e-05
2.2072488e-05
2.2882821e-05
2.3374277e-05
2.3560804e-05
2.3578125e-05
2.3275372e-05
2.31237e-05
2.2898028e-05
2.2839714e-05
2.2711824e-05
2.5792941e-06
1.1778488e-05
1.4969126e-05
1.3471555e-05
1.1749664e-05
1.0648183e-05
1.1069489e-05
1.18259e-05
1.2700984e-05
1.3674728e-05
1.5143499e-05
1.7172015e-05
1.928946e-05
2.1157163e-05
2.2676761e-05
2.368871e-05
2.4185098e-05
2.4428586e-05
2.4305791e-05
2.4229661e-05
2.3978514e-05
2.385654e-05
2.3604532e-05
2.4759101e-06
1.1455157e-05
1.4291418e-05
1.4219163e-05
1.1678866e-05
1.0839832e-05
1.1107229e-05
1.1599137e-05
1.2224495e-05
1.3077927e-05
1.4585099e-05
1.6757055e-05
1.9155994e-05
2.1302958e-05
2.3060611e-05
2.4227341e-05
2.4809201e-05
2.5047218e-05
2.4985386e-05
2.4953702e-05
2.4695514e-05
2.4572632e-05
2.4402702e-05
2.5656746e-06
1.0229691e-05
1.6203143e-05
1.4393075e-05
1.343658e-05
1.2477735e-05
1.2624034e-05
1.3045189e-05
1.3495444e-05
1.4196798e-05
1.5631606e-05
1.765277e-05
1.9992107e-05
2.2170752e-05
2.410177e-05
2.5402732e-05
2.5990227e-05
2.6199202e-05
2.6293389e-05
2.6288668e-05
2.6178686e-05
2.6129074e-05
2.5752818e-05
2.6089247e-06
9.0150489e-06
1.5163607e-05
1.6546773e-05
1.5271138e-05
1.4372975e-05
1.4646727e-05
1.5234404e-05
1.6011874e-05
1.7194442e-05
1.9136119e-05
2.1414821e-05
2.3660951e-05
2.5752626e-05
2.7504494e-05
2.8317325e-05
2.8772649e-05
2.9101706e-05
2.8756029e-05
2.8567652e-05
2.8516973e-05
2.8532727e-05
2.804769e-05
2.6161925e-06