/*--------------------------------*- C++ -*----------------------------------*\
| =========                 |                                                 |
| \\      /  F ield         | OpenFOAM: The Open Source CFD Toolbox           |
|  \\    /   O peration     | Version:  2406                                  |
|   \\  /    A nd           | Website:  www.openfoam.com                      |
|    \\/     M anipulation  |                                                 |
\*---------------------------------------------------------------------------*/
FoamFile
{
    version     2.0;
    format      ascii;
    arch        "LSB;label=32;scalar=64";
    class       volScalarField;
    location    "75";
    object      p;
}
// * * * * * * * * * * * * * * * * * * * * * * * * * * * * * * * * * * * * * //

dimensions      [1 -1 -2 0 0 0 0];

internalField   nonuniform List<scalar> 
20580
(
1.0063343
1.0021483
1.0076265
1.0048633
1.0023675
1.0060419
1.0073163
1.0066475
1.0050743
1.0058489
1.0039037
1.0043039
1.0034067
1.0036382
1.0029965
1.0037607
1.0047991
1.0027233
1.0033659
1.0099795
1.0035179
1.0024518
1.0066732
1.0074972
0.99803407
0.99683689
1.004579
1.0005641
1.0032945
1.0102524
0.99333326
1.0065201
1.0017727
1.0077393
1.0053928
1.0022128
1.0061028
1.0073609
1.0069538
1.0049397
1.0062867
1.0041707
1.0037715
1.0040835
1.0036644
1.0025209
1.0039343
1.0045898
1.0010253
1.0056196
1.0090457
1.0004069
1.0035381
1.0074303
1.0048052
0.99487299
0.99696491
1.0108285
1.0058191
0.99723661
1.0049388
1.0034953
1.0055807
1.0024504
1.0057615
1.0056059
1.0034622
1.0059576
1.0066008
1.0066748
1.0053719
1.0060702
1.0050066
1.0031965
1.004554
1.0038987
1.002379
1.0040343
1.0042464
0.99973945
1.0074456
1.0077536
0.99820036
1.0048717
1.0086766
1.0036464
0.99543043
0.9978169
1.013709
1.0100723
0.99192507
0.99482147
1.0098334
1.0038451
1.0039081
1.0027127
1.0050989
1.0055426
1.0058008
1.0055085
1.0060095
1.0060199
1.0055202
1.0055824
1.0030085
1.0043364
1.0036279
1.0023318
1.0036722
1.0037033
0.99974467
1.0082907
1.0061325
0.99812026
1.0067742
1.0090577
1.0037272
0.99955092
1.0004351
1.0123882
1.0113005
0.9902979
0.98495179
1.0054839
1.002058
1.0056292
1.000065
1.0037643
1.0072036
1.0058156
1.0049192
1.0055514
1.0065034
1.0051281
1.0053279
1.003463
1.0036694
1.0026657
1.0023277
1.0034346
1.0029252
1.0010699
1.0082814
1.0040137
0.99905844
1.0090919
1.0084267
1.0032892
1.0050451
1.0043587
1.0082039
1.0083901
0.99277906
0.98170324
0.99668405
1.0009924
1.0069004
0.99925351
1.002272
1.0076197
1.0058276
1.0052764
1.0056508
1.0065969
1.0051227
1.0046245
1.0041556
1.0032073
1.0016781
1.0027028
1.0031366
1.0018879
1.0030144
1.0074098
1.0016923
1.0011353
1.0105703
1.0069293
1.0007771
1.009131
1.0085828
1.0029127
1.0028381
0.99819947
0.98700868
0.99092103
1.0010652
1.0070452
1.0006821
1.0015389
1.0067406
1.0056113
1.0061738
1.0062249
1.0064497
1.005565
1.0039558
1.0045976
1.0031842
1.0010458
1.0034491
1.0032587
1.0008579
1.004639
1.0062444
1.0000483
1.003299
1.0111558
1.0051491
0.99777874
1.0098148
1.0114505
0.99867646
0.99648919
1.0029447
0.99990989
0.99262887
1.0022637
1.0058916
1.0034307
1.002055
1.0049507
1.0052675
1.0068204
1.0068483
1.0063149
1.0062393
1.0037099
1.0045572
1.0032549
1.0010881
1.0039827
1.0032851
0.99981035
1.0056524
1.0052074
0.99922863
1.0048272
1.0102469
1.0035739
0.99625587
1.007691
1.0121448
0.99689293
0.99128091
1.0049458
1.0138477
1.0034334
1.0041577
1.0040074
1.0059996
1.0037503
1.0032808
1.0049838
1.0067389
1.0068777
1.0062501
1.0066137
1.0040492
1.0041943
1.0032018
1.0015151
1.0036092
1.0030538
0.99998717
1.0061292
1.0033041
0.99984263
1.0065389
1.0073084
1.0024505
0.99763253
1.0046718
1.0104415
0.99804556
0.98968458
1.003222
1.0204977
1.0161296
1.0059114
1.0022961
1.0071384
1.0059987
1.0028042
1.0050887
1.0061256
1.0062349
1.0061667
1.0062556
1.0048016
1.0039958
1.0028089
1.0023743
1.0028203
1.0027787
1.0008841
1.0059772
1.0012839
1.0006866
1.0085282
1.0037708
1.0014576
1.0026275
1.0031657
1.0066233
1.0013127
0.99414213
1.0005398
1.0157664
1.0201021
1.0066177
1.0014729
1.0061742
1.0075192
1.0035788
1.0057187
1.0055503
1.0057985
1.0061874
1.0055014
1.0056564
1.004028
1.0024219
1.0033222
1.0022359
1.0020655
1.0020657
1.0055043
0.99981286
1.0017283
1.0097259
1.0003805
1.0000161
1.0089372
1.0048002
1.0014166
1.0036568
1.0037107
1.0018643
1.0058088
1.0111956
1.0059359
1.0020166
1.003815
1.0072033
1.0049849
1.0064469
1.0054408
1.0061362
1.0064256
1.005046
1.006041
1.0039335
1.0022467
1.0036695
1.0019249
1.0011458
1.0033681
1.0047333
0.99895035
1.0032742
1.0101479
0.99820644
0.99827856
1.0134759
1.0091135
0.99696609
1.0025593
1.0123417
1.0085656
0.99935887
0.99668185
1.0041932
1.0038425
1.0015976
1.0052264
1.0062779
1.006788
1.0059467
1.0069807
1.0066753
1.0052157
1.0058592
1.0037067
1.0024204
1.0035161
1.0019087
1.0001979
1.0040049
1.0039314
0.99917254
1.0038997
1.0098236
0.99806337
0.99741137
1.0144666
1.0128266
0.99593456
0.99901636
1.0145087
1.0157921
0.99944908
0.98793055
1.0020733
1.0059525
1.0007157
1.0025385
1.0067277
1.0064748
1.0066148
1.0075455
1.0067454
1.0057781
1.0054886
1.0036503
1.0029387
1.0030923
1.0019706
0.99971399
1.0041765
1.0029014
1.0004113
1.0042743
1.0077088
0.99923907
0.99852546
1.0116377
1.0128785
0.99856565
0.99696194
1.010226
1.016844
1.0037228
0.98857776
1.0008014
1.0071413
1.0011765
1.000468
1.0061635
1.0054778
1.0068677
1.0071273
1.0065012
1.0064682
1.0050567
1.0039476
1.0031166
1.0025575
1.0019953
1.0000362
1.0039385
1.0011317
1.0022512
1.0048934
1.0042022
1.0012464
1.0019561
1.0070054
1.0081025
1.0021943
0.99921681
1.0051444
1.0098351
1.0061325
0.99601843
1.0009448
1.0069175
1.0027468
1.0002802
1.005159
1.004452
1.0065948
1.0059384
1.0061985
1.0069199
1.0046756
1.0044131
1.0030867
1.0020072
1.0019375
1.000995
1.0033777
0.9997879
1.0038585
1.0051768
1.0003542
1.0030084
1.0070441
1.0037539
1.0001769
1.0037647
1.0059783
1.0038022
1.0006715
1.0027746
1.0033333
1.0024902
1.0054091
1.0043418
1.0023536
1.0043356
1.0042763
1.0059762
1.0050934
1.0061995
1.0067649
1.0046742
1.0044784
1.0031876
1.0014731
1.0018403
1.0023107
1.0030518
0.99900573
1.0049938
1.0053883
0.99698612
1.0033943
1.0117152
1.0028626
0.99290424
1.0025253
1.0137048
1.007126
0.9962129
0.99592822
1.0057808
1.0047978
1.0031975
1.0049679
1.0055785
1.0039959
1.0050247
1.005556
1.0053765
1.0065524
1.0063164
1.0051835
1.0040235
1.003448
1.0010847
1.001834
1.0034365
1.002918
0.99853545
1.0052683
1.0056395
0.99535113
1.0023848
1.0140344
1.0036802
0.99003507
1.0000679
1.0171836
1.0134595
0.99754776
0.99230253
1.0033404
1.0066697
1.0015066
1.0046529
1.0080955
1.0042538
1.0062287
1.0054819
1.0066352
1.0071125
1.0062071
1.0057481
1.0036304
1.0039135
1.001136
1.0018069
1.0037041
1.0026865
0.99926415
1.0043026
1.0052014
0.99628258
1.0011243
1.0130137
1.0050432
0.99227109
0.99876258
1.0149942
1.0171694
1.0027631
0.9946266
1.0009406
1.0066027
1.0014983
1.0040414
1.0086118
1.0048315
1.007035
1.0056823
1.0077649
1.0072873
1.0064624
1.0058926
1.0036695
1.0040149
1.0016069
1.0016342
1.0031546
1.0021284
1.0009409
1.0031682
1.0039104
0.99925687
1.0011213
1.0083092
1.0053716
0.99738642
1.0011538
1.0094374
1.013211
1.0073285
1.0012787
1.0023355
1.0049935
1.0030767
1.0033365
1.0063869
1.0052701
1.0067906
1.0060527
1.0077931
1.0070114
1.0066508
1.0057154
1.0041507
1.0033461
1.0024918
1.0015556
1.0023874
1.0012567
1.0029872
1.0022382
1.0013936
1.0031603
1.002974
1.0028867
1.0025329
1.0039773
1.0063359
1.0053069
1.0026467
1.0061469
1.0082488
1.0072657
1.0024959
1.0054206
1.0027758
1.0025624
1.0053033
1.0055179
1.0062991
1.0065901
1.0065157
1.0064605
1.0055021
1.0048691
1.0025753
1.0034545
1.0015009
1.0015147
1.0001534
1.0047858
1.0017685
0.99864795
1.0061387
1.0059834
0.99872606
0.99805366
1.0083413
1.0127508
1.0041242
0.99342701
0.99911906
1.0108036
1.0126103
1.0006228
1.0068938
1.0023172
0.99963396
1.0050863
1.0039839
1.0063702
1.0053423
1.0061059
1.0059994
1.005655
1.0054976
1.002239
1.0039359
1.0015101
1.0012104
0.99903466
1.0058316
1.0019291
0.99670663
1.0066331
1.0092069
0.99765398
0.99443008
1.0078296
1.0178969
1.0065102
0.99012761
0.9919958
1.008048
1.0150002
1.0065235
1.0041905
1.004632
1.0088432
1.014401
1.0165837
1.0127539
1.0034095
0.99336375
0.98904273
0.99232005
0.99978524
1.0049153
1.002183
0.99385315
0.98933607
0.99629408
1.0105963
1.0217681
1.0223697
1.0077783
0.98406584
0.97019237
0.99387551
0.99750989
1.0017881
1.0048806
1.0064345
1.0066684
1.0069153
1.0090481
1.0127797
1.0162439
1.0153231
1.0079464
0.99482664
0.98141154
0.97539856
0.98142603
0.99671263
1.0122039
1.0186966
1.0132945
1.001286
0.99003021
0.98789067
1.0111448
1.0089789
1.0021204
0.99335566
0.98677527
0.98732859
0.99473086
1.0068031
1.0173127
1.020158
1.014529
1.0037443
0.99499138
0.99262007
0.99757525
1.0057239
1.0089288
1.0017284
0.98749682
0.97620264
0.97656985
0.98893955
1.0086333
1.0172266
1.0111459
1.002849
0.99588301
0.99516336
0.99874621
1.0036278
1.0048833
1.0005139
0.99124811
0.98282779
0.98259938
0.9927625
1.0104629
1.0281234
1.0348911
1.024981
1.0018376
0.97691508
0.96458899
0.96836799
0.98419833
1.0049764
0.99439292
0.99417433
0.9992254
1.0083829
1.0166913
1.0204174
1.0171882
1.0062958
0.99067158
0.97734763
0.97363179
0.98057271
0.99461102
1.0099066
1.0196176
1.0187809
1.0089148
0.99649417
0.98969993
0.99244774
1.0022695
1.0108884
1.0086697
0.99040034
0.99598189
1.001547
1.005921
1.0074316
1.0048995
0.99920104
0.99387258
0.9926491
0.99700168
1.0054084
1.0126378
1.0137378
1.0072073
0.99249738
0.97639518
0.96691458
0.9715347
0.99011157
1.0162963
1.0390349
1.0438849
1.0262369
1.0173999
1.0139737
1.0056695
0.9944172
0.98233084
0.97394404
0.97281516
0.98036428
0.9954348
1.0139688
1.0286647
1.0335283
1.0264343
1.007398
0.98373473
0.96584242
0.9608425
0.96914712
0.98753946
1.0091212
1.025517
1.0280969
1.0178572
1.0187612
1.0119503
1.0019683
0.99090969
0.9827626
0.98139963
0.9861815
0.99413916
1.0037495
1.0104983
1.0117593
1.0067019
0.99733904
0.98938405
0.98708473
0.99106095
0.99998814
1.0085433
1.011358
1.0073553
0.99521651
0.97830966
0.96656062
0.98009447
0.97939406
0.98397623
0.99393805
1.0071579
1.0195861
1.0274192
1.0286383
1.0190334
1.0011117
0.98184935
0.96462537
0.95794681
0.96389551
0.98136806
1.0065105
1.0317873
1.0456709
1.0430047
1.0210875
0.98787253
0.95643056
0.94113287
0.95185894
0.9600705
0.97614507
0.99668476
1.0180591
1.0342216
1.0402479
1.0328715
1.016519
0.99504889
0.97518763
0.96215225
0.95883614
0.96655127
0.9835719
1.0055349
1.0240582
1.0335424
1.0290228
1.0137558
0.99359092
0.97622605
0.96650122
0.97423877
0.98333473
0.99295076
1.0007708
1.0036316
1.0008655
0.99611729
0.99076171
0.98657095
0.9849874
0.98722277
0.99319591
1.0018907
1.0095685
1.0128912
1.0094361
0.99985021
0.988945
0.97895837
0.97469846
0.97841798
0.99017508
1.0051346
1.0349129
1.0290653
1.0150026
0.99627023
0.97625916
0.95867572
0.94741432
0.94381881
0.95080251
0.96810291
0.9935968
1.0210345
1.0437992
1.0529403
1.0450361
1.0225351
0.99228234
0.96260939
0.9422429
0.93792818
0.95118235
0.97883654
1.0148735
1.0654584
1.0502626
1.0243205
0.99432138
0.96597152
0.9450456
0.93244258
0.93230875
0.94295513
0.96416239
0.99249036
1.0226752
1.046742
1.0563826
1.0479838
1.025835
0.99660424
0.96616026
0.94582202
0.93905083
0.94810271
0.97126462
1.0030632
1.034109
1.0252974
1.0134521
0.99814491
0.9811326
0.9667201
0.95912078
0.9597113
0.96826736
0.98180025
0.99610422
1.0077535
1.0136407
1.0148562
1.0110899
1.004217
0.99473359
0.98377015
0.97553709
0.97349973
0.97739757
0.98597955
0.99888453
0.97375699
0.97711008
0.98489165
0.99440062
1.0024908
1.0078547
1.0110694
1.0132411
1.013852
1.010539
1.001541
0.9889658
0.97530832
0.9646012
0.96099476
0.96574796
0.97854908
0.99334877
1.0061895
1.0164625
1.0211945
1.0199055
1.012045
0.92866373
0.93791033
0.95664978
0.98284085
1.0120708
1.0396714
1.059757
1.0661445
1.0561253
1.0334454
1.0038965
0.97333585
0.94781128
0.93132649
0.92593759
0.93513957
0.95760895
0.9889804
1.0219914
1.0501956
1.0618098
1.0522678
1.0276893
0.90973608
0.9202039
0.94186766
0.97429297
1.0140985
1.0536819
1.0832495
1.0935235
1.0789191
1.0455214
1.0043916
0.96606666
0.93564152
0.91608977
0.91111661
0.92150835
0.94647911
0.98427356
1.0291225
1.0671314
1.0830267
1.0704169
1.0371011
0.90798751
0.91918696
0.9412853
0.97314434
1.0127581
1.0533706
1.0849248
1.0957154
1.0808832
1.0469659
1.00501
0.96559987
0.93415326
0.91495537
0.91024562
0.91951528
0.944202
0.98290304
1.029686
1.0706363
1.0881408
1.0746222
1.0368988
0.91456783
0.92506004
0.94584279
0.97545959
1.0119818
1.0486921
1.0765652
1.0864687
1.0737951
1.0430388
1.0042707
0.96657644
0.93626724
0.91805235
0.91325829
0.92379303
0.94984202
0.98803222
1.0318275
1.0687541
1.082797
1.0697746
1.0336648
0.91722043
0.9285601
0.94921221
0.97739038
1.0122841
1.0477252
1.074219
1.0820809
1.0688977
1.0379963
1.0006128
0.96482102
0.93563944
0.91876279
0.91650518
0.9280946
0.9544901
0.99243358
1.0349344
1.0688014
1.0799382
1.0648747
1.02805
0.91420979
0.92582699
0.9476571
0.97820549
1.0151187
1.0514605
1.0769795
1.0828613
1.0671694
1.0351436
0.99814058
0.96316579
0.93442503
0.91761291
0.91606979
0.93006527
0.9617427
1.0021251
1.0448804
1.0738532
1.0773606
1.0564961
1.0168186
0.90887746
0.92064537
0.94346061
0.97707491
1.0182099
1.057932
1.0860992
1.0896763
1.0689398
1.0327514
0.99293414
0.95647142
0.92871679
0.91434246
0.91497786
0.93368566
0.9683252
1.0141045
1.0579154
1.0821039
1.0774499
1.047474
1.0028094
0.90667532
0.91792764
0.94099935
0.9757334
1.0201
1.0652022
1.0948538
1.0977281
1.0719993
1.0284741
0.98326514
0.94598846
0.92053518
0.90928927
0.91381621
0.93709839
0.97654545
1.0266688
1.0706785
1.0898207
1.0744617
1.034424
0.98712432
0.90964025
0.92118712
0.94467343
0.97987639
1.0241915
1.0688197
1.0981686
1.0969461
1.0667764
1.0200186
0.97321316
0.93827517
0.91561581
0.90745514
0.9164741
0.94450466
0.98841762
1.041366
1.0817911
1.090846
1.0644571
1.0157275
0.96759374
0.92812067
0.93943586
0.96187027
0.99217903
1.024602
1.0548735
1.0739622
1.0715742
1.047238
1.0100963
0.96918629
0.93696141
0.91912865
0.91650116
0.93345676
0.96502369
1.0070141
1.0510947
1.0783102
1.0741971
1.0401147
0.99271604
0.95151861
0.972333
0.97660152
0.98876787
1.0015627
1.0128586
1.0205011
1.0236213
1.0239221
1.016028
0.99892909
0.97401234
0.95005691
0.93881242
0.94458597
0.96702788
0.99551679
1.0217429
1.0399999
1.0487234
1.0374009
1.0119624
0.97919862
0.95284776
1.0367874
1.0224213
1.0090166
0.99495848
0.98126787
0.97055299
0.96726134
0.97192303
0.98057801
0.98849816
0.99108593
0.98916915
0.98885181
0.99577856
1.0006274
1.0049357
1.0052334
1.0013312
0.99721992
0.99519698
0.99588949
0.9919692
0.9861646
1.0685203
1.046574
1.0146746
0.98003896
0.95193354
0.93478913
0.93054229
0.93842761
0.95840577
0.98892483
1.0217192
1.0448311
1.0478786
1.0311948
1.0057669
0.98066383
0.96344765
0.95541581
0.95906758
0.97803367
1.0074978
1.0346068
1.0434264
1.0335905
1.0271254
1.0078248
0.98080821
0.95340985
0.93460427
0.92945225
0.94088116
0.96825806
1.007523
1.0445684
1.0657659
1.0618689
1.0337713
0.98965818
0.94817874
0.9271198
0.93187906
0.95539294
0.99416657
1.0390935
1.0748849
1.0766434
0.97173046
0.98319865
0.99230307
0.99461195
0.98808549
0.97828751
0.97336022
0.97785072
0.98855857
1.0043587
1.020759
1.0312913
1.0271581
1.0081326
0.98201789
0.95524057
0.93990122
0.94913202
0.97995881
1.0171077
1.0441849
1.0526368
1.0441234
0.94088131
0.95528289
0.97797554
1.004931
1.0285278
1.0368659
1.02695
1.006351
0.98736458
0.97416692
0.96889068
0.97264238
0.98378742
0.99623301
1.0057247
1.0096735
1.0067224
0.99937626
0.99156332
0.98864323
0.98673619
0.98358397
0.99340445
0.96328425
0.96778146
0.98301555
1.0035984
1.0262566
1.0393637
1.0358552
1.0151195
0.98184288
0.95263314
0.94000796
0.94442795
0.9661325
1.0035504
1.041978
1.0621651
1.0536116
1.0180075
0.96947208
0.93168849
0.92451796
0.94218755
0.9809317
1.0170475
1.0032223
0.99011101
0.9841053
0.98355459
0.99044184
0.99924655
1.004135
1.0002335
0.98588647
0.97064923
0.96712004
0.97771769
0.9976298
1.0226235
1.0405602
1.0335677
1.0038514
0.96207968
0.92880855
0.92650848
0.95977353
1.0063537
1.0259556
1.0167571
0.99408694
0.96862921
0.95219097
0.95020349
0.96461652
0.99183033
1.0213869
1.0376774
1.0305098
1.0051981
0.97846976
0.9623371
0.96228368
0.97709486
0.99978861
1.0149177
1.0159628
1.0065911
0.99109269
0.98373796
0.98237048
0.98306087
0.99257327
0.99600362
0.99128948
0.98073806
0.97256354
0.97334535
0.98739711
1.0111374
1.0316481
1.0353566
1.0132872
0.97469749
0.94076132
0.93127686
0.95096562
0.99385495
1.0426571
1.0705019
1.0648738
1.0301236
0.9788009
0.93928991
0.96649152
0.97329997
0.99032391
1.0096552
1.0220485
1.016494
0.99933025
0.98119944
0.97032868
0.97494438
0.99526498
1.0115251
1.0113057
0.9931704
0.9704612
0.95662302
0.96837138
0.99463526
1.0184085
1.0274617
1.0228263
1.0097897
0.99919471
0.99107483
0.98360841
0.98624189
1.0005481
1.0183563
1.0282317
1.0209168
0.99626993
0.96500491
0.94539949
0.94726555
0.96755607
0.99713688
1.0237077
1.0337276
1.0247513
1.006781
0.98756826
0.97600705
0.96672862
0.96012259
0.96252342
0.98060181
1.0191169
1.0072633
0.99338021
0.98305779
0.98091575
0.9885543
0.99634603
0.99646433
0.9870029
0.97226697
0.96143397
0.96472129
0.98177306
1.0074811
1.0278008
1.0352304
1.0262903
1.0065615
0.98323985
0.96261182
0.95364792
0.95678743
0.97893244
1.0025272
1.0037335
0.99607481
0.98206673
0.96853131
0.96134441
0.96612507
0.98001175
0.99556452
1.0097948
1.014361
1.0105881
1.0026062
0.99525051
0.98876135
0.98540834
0.98245807
0.98165579
0.98230476
0.98448583
0.99157893
0.99992162
1.0126539
0.97198887
0.98012175
0.98891117
0.99383244
0.99367295
0.98842471
0.98424585
0.984845
0.99391475
1.0097986
1.0239167
1.0258968
1.0163534
0.99704239
0.97469617
0.95747046
0.9496455
0.95353942
0.96662319
0.9878373
1.0085108
1.0196171
1.0194737
0.98156995
0.98030794
0.98796612
1.0006903
1.0115844
1.0168734
1.0152719
1.0073328
0.99879947
0.99285408
0.9896013
0.98725463
0.98504573
0.98064023
0.97426819
0.97029263
0.97040875
0.97559113
0.98654611
0.99964125
1.0067153
1.0059647
0.99256346
1.0139622
1.0058133
0.99820568
0.99458452
0.99530777
0.99796554
1.0002234
0.9987053
0.99344294
0.98478905
0.97480737
0.96669117
0.96265208
0.96439814
0.97366791
0.988078
1.00186
1.0124814
1.0147924
1.0108232
1.0012959
0.98945806
0.97159775
1.0085747
1.0063866
0.99878125
0.98871546
0.97915131
0.97282449
0.97066571
0.97357388
0.97947596
0.98528239
0.98870942
0.98843091
0.98670832
0.98704836
0.99235268
1.0017391
1.0105426
1.0121343
1.0032398
0.98794824
0.97124794
0.96483999
0.96282743
0.98051629
0.98437392
0.988063
0.98965888
0.98883534
0.98607937
0.98314962
0.9823983
0.98607875
0.99355635
1.0019328
1.0073222
1.0076959
1.0040317
1.0007622
0.99978536
0.99937403
0.99383791
0.98098185
0.96413081
0.95081848
0.95101802
0.96524827
0.98429942
0.98300765
0.98532437
0.99231412
1.0013898
1.0077814
1.009861
1.0079192
1.0033864
1.0000678
0.99952105
0.99889811
0.99512098
0.98780257
0.98019017
0.97558997
0.97535656
0.97701767
0.97701541
0.97322379
0.96939317
0.97188984
0.98540238
1.0088502
1.00116
0.9934956
0.99075442
0.99327576
0.998279
1.0018485
1.000641
0.99523371
0.98916107
0.98511079
0.98389686
0.98347215
0.98110567
0.97662927
0.97232962
0.97233953
0.97772793
0.98616639
0.99353012
0.99592866
0.99793548
0.99854693
1.002768
1.0002137
0.99302063
0.98670948
0.98326517
0.98392785
0.98699137
0.98755677
0.98446795
0.98034539
0.97816179
0.98077118
0.98800956
0.99610867
1.0007265
0.99992347
0.99728481
0.99531447
0.99631582
0.99865228
0.99791499
0.99215482
0.98497534
0.98529053
0.98795348
0.98889429
0.98908336
0.98895417
0.9919532
0.99679558
0.99937762
0.99892492
0.99580772
0.99132019
0.98996958
0.99316809
0.99937847
1.004507
1.0044425
0.99969151
0.99236681
0.98729663
0.98364078
0.98186496
0.97834868
0.97229918
0.98891643
0.99131051
0.9948021
0.99699399
0.99775319
0.99843585
0.99938547
1.0001621
1.0011049
0.99939871
0.995282
0.99211301
0.9899666
0.98910047
0.98895503
0.98795286
0.9840774
0.97896117
0.97641428
0.97567135
0.97886
0.98243979
0.98546749
0.99370019
0.99523674
0.99852406
1.0005324
0.99874285
0.99481763
0.99000841
0.9854998
0.98383861
0.98395801
0.9863526
0.98824673
0.98953528
0.99111925
0.99094453
0.99061832
0.98939191
0.98896984
0.9899104
0.99154306
0.99546511
0.99762413
0.99926288
0.99223638
0.99194563
0.99331936
0.99440148
0.99481622
0.99453373
0.99193117
0.98877215
0.98814345
0.98875112
0.99237628
0.99641255
0.99972014
1.0014918
0.99929273
0.99704561
0.99413396
0.99318213
0.99353678
0.9952189
0.99520004
0.99393818
0.98945432
0.99845474
0.99766701
0.9950614
0.99251233
0.99173962
0.99234673
0.99361986
0.99503719
0.99660412
0.99768188
0.99822556
0.99895229
0.99931666
0.9968273
0.99319138
0.98964291
0.98505902
0.9846171
0.98558303
0.98945297
0.99189133
0.99132633
0.98831445
0.99454843
0.99649341
0.99589163
0.99377589
0.99276409
0.9915285
0.99192596
0.9945836
0.99606069
0.99666326
0.99624697
0.99394059
0.99122221
0.98941879
0.98838354
0.98845804
0.98824834
0.99142903
0.99274905
0.99639045
0.99794099
0.99667585
0.99427084
0.98865473
0.99126241
0.99441519
0.99633044
0.99772187
0.99675409
0.99515007
0.99562585
0.99570867
0.99540077
0.9956899
0.99250181
0.98960614
0.98935476
0.98983212
0.99193638
0.99555154
0.99866293
0.99783788
0.99805874
0.99381406
0.99203295
0.9875796
0.99439864
0.99445811
0.99586001
0.99670868
0.99794715
0.99682068
0.99395268
0.99263193
0.99199303
0.99244992
0.99463242
0.99409213
0.99412643
0.99421219
0.99434109
0.99683582
0.99788366
0.99955906
0.99661273
0.99471453
0.98993146
0.98948312
0.98821842
0.99696105
0.99592844
0.99455235
0.99383158
0.99407733
0.99386644
0.99232308
0.99212178
0.99222027
0.99266607
0.99528978
0.99691236
0.99730186
0.9973733
0.99537717
0.99552635
0.99398395
0.99352362
0.991037
0.98829071
0.98714786
0.98731711
0.99051388
0.99633128
0.99510242
0.99346359
0.99224894
0.99238731
0.99360405
0.9946859
0.99520283
0.99625144
0.99561359
0.99512836
0.99632464
0.99437775
0.99249308
0.99175067
0.98940673
0.99066912
0.99201425
0.992364
0.99455096
0.99398932
0.99558328
0.995725
0.99547133
0.99521671
0.99417797
0.99331706
0.99342344
0.99431167
0.99595468
0.99673312
0.99692909
0.99659061
0.99495447
0.99468623
0.99476262
0.99316884
0.99458843
0.99379468
0.99444667
0.99639075
0.99581816
0.99861399
0.99585886
0.99710721
0.9945358
0.99518193
0.99557031
0.99580242
0.99556073
0.99577231
0.99657997
0.9970494
0.99664684
0.99578421
0.99441058
0.99328192
0.99175187
0.9929462
0.99335371
0.99501829
0.99761068
0.99676985
0.99717796
0.99440674
0.99368136
0.99163068
0.99134331
0.99090547
0.9957516
0.99541515
0.99539094
0.99532558
0.99519039
0.99529266
0.9944836
0.99391434
0.99414912
0.99355603
0.99428512
0.99414658
0.99409383
0.99558139
0.99464709
0.99631887
0.99490277
0.99397534
0.99321358
0.99084677
0.99180722
0.99164923
0.99397729
0.99514762
0.99470031
0.99490067
0.99571652
0.9956795
0.99563158
0.99598109
0.99538832
0.99513981
0.99480685
0.99551717
0.99620836
0.99560711
0.99659818
0.99495744
0.99411907
0.99306402
0.99181465
0.99311199
0.99292983
0.99500398
0.99547094
0.99639676
0.99757987
0.99701154
0.99658007
0.9964547
0.99560232
0.99554763
0.9969048
0.99571389
0.99539433
0.99642573
0.99474633
0.99488742
0.99575643
0.9958026
0.99617769
0.99486494
0.99437679
0.99381896
0.99490758
0.99618802
0.99645359
0.99604493
0.9951445
0.99709553
0.99713559
0.99695047
0.99679235
0.99631886
0.99580516
0.99652776
0.99667053
0.99794703
0.99782185
0.99569289
0.99595582
0.9957408
0.99524771
0.99626169
0.99494347
0.99496971
0.99487357
0.99459989
0.9953796
0.99511233
0.99485332
0.99381265
0.99667314
0.99727266
0.99780889
0.99778559
0.99730077
0.99764078
0.99819592
0.99697609
0.99647171
0.99710485
0.99649967
0.99733167
0.99644436
0.99548562
0.99631807
0.99599567
0.99630019
0.99640239
0.99560255
0.9952043
0.99399985
0.99519092
0.99500679
0.99782287
0.99721336
0.99651292
0.99694185
0.99880382
0.99929215
0.99761498
0.99601266
0.99687152
0.99762712
0.99677378
0.99716119
0.99771797
0.99733663
0.99700412
0.99681034
0.99710402
0.99648161
0.99537244
0.99601879
0.99579552
0.99531455
0.99443527
0.99753973
0.99753831
0.99760677
0.99750053
0.99725299
0.99605628
0.99753833
0.99911271
0.99749568
0.99659066
0.99747335
0.99827567
0.99825734
0.99682144
0.99700236
0.99721393
0.99578327
0.99527321
0.99597024
0.99604477
0.99642872
0.99632045
0.99607843
0.99678309
0.99678616
0.99622682
0.99568547
0.99704294
0.99698082
0.99579584
0.99693147
0.99835694
0.99784739
0.9969945
0.99623594
0.99719705
0.99761941
0.99668634
0.99644339
0.99689309
0.99711184
0.99659886
0.99666909
0.99730291
0.99685999
0.99481521
0.99549102
0.99528729
0.99680838
0.99722346
0.99535295
0.99512164
0.99757958
0.9983154
0.99636456
0.99574245
0.99750297
0.99779247
0.99582447
0.9952569
0.99659719
0.99758528
0.99782162
0.99753575
0.99646778
0.99584559
0.99608603
0.99447809
0.99564714
0.99578518
0.99578113
0.99550096
0.9962763
0.99749742
0.99608907
0.99486461
0.99598957
0.99646083
0.99572162
0.99558628
0.99601148
0.9971412
0.99654534
0.99519963
0.99641953
0.99694961
0.99594755
0.99549551
0.99553357
0.99522534
0.99502472
0.99576558
0.99445543
0.99534439
0.99725716
0.9959567
0.99404558
0.99474956
0.99664248
0.99666396
0.99420434
0.99294873
0.99534751
0.99702853
0.99634946
0.99623091
0.99566108
0.99521376
0.99591207
0.99580716
0.99445526
0.99595183
0.99627682
0.99498315
0.99493644
0.99631313
0.99438097
0.99364187
0.99549757
0.99564903
0.99360143
0.99353495
0.99577886
0.99616792
0.99441982
0.99455782
0.99633968
0.99611281
0.99446933
0.99425196
0.99505782
0.99466994
0.99438287
0.99488256
0.99580426
0.99526821
0.99511923
0.99665061
0.99353137
0.99492867
0.99480951
0.99399111
0.99442933
0.99447171
0.9940114
0.99515835
0.99596303
0.99492135
0.99401773
0.99454229
0.99523438
0.9940151
0.99289888
0.99480736
0.99652889
0.99511529
0.99387039
0.9947487
0.99577074
0.99427145
0.99383435
0.994184
0.99354992
0.99420771
0.99517012
0.99541961
0.99502145
0.99419196
0.99394731
0.99412961
0.9940078
0.99412088
0.99423819
0.99449392
0.99467958
0.99404816
0.99436057
0.99545415
0.99503801
0.99386096
0.99381732
0.99473564
0.99325745
0.99243706
0.99366171
0.9939995
0.99407102
0.99461013
0.9951401
0.99477307
0.99389023
0.9935207
0.99393959
0.99402888
0.99389674
0.99443267
0.99510673
0.99522538
0.9943479
0.99359947
0.99397259
0.99405486
0.99378664
0.99349534
0.99442284
0.99495342
0.99443914
0.99472666
0.99490665
0.9946571
0.99391337
0.99337233
0.99365398
0.99400351
0.99405301
0.99423801
0.99463939
0.99475649
0.99430068
0.9938871
0.99400354
0.99445961
0.9940469
0.99346982
0.99335708
0.99403589
0.99472968
0.99480285
0.994014
0.99355165
0.99422744
0.99426139
0.99438851
0.99468425
0.99457464
0.9942108
0.99408506
0.99427284
0.9944952
0.9948015
0.99495287
0.994585
0.9939236
0.99347682
0.99370716
0.99427689
0.99470304
0.99453681
0.99414743
0.99388412
0.9937177
0.99341406
0.99319089
0.99387947
0.99469643
0.99557492
0.99606218
0.99567887
0.99494584
0.99439777
0.99406001
0.99425965
0.9946978
0.99477881
0.99473383
0.9947123
0.9942273
0.99409922
0.99434471
0.99466841
0.99468237
0.99417474
0.99341704
0.99326574
0.99372917
0.99418053
0.99575808
0.99605712
0.99604614
0.99577896
0.99577953
0.99546134
0.99495199
0.99506032
0.99505484
0.99489203
0.99516339
0.99543224
0.99559743
0.99518881
0.99477725
0.99476944
0.99422492
0.99400836
0.9945083
0.99478539
0.99469418
0.99384607
0.99350999
0.99732579
0.99665402
0.99649294
0.99682001
0.99670191
0.99611174
0.9962166
0.99621225
0.99579182
0.99610698
0.99650842
0.99695051
0.99665202
0.99483638
0.99417723
0.99504514
0.99623519
0.99628876
0.99527751
0.99498567
0.99540888
0.99549756
0.99466663
0.99741242
0.99795018
0.998827
0.99865864
0.99747916
0.99612808
0.99615336
0.99782139
0.99898857
0.99820724
0.99657198
0.99572465
0.99648256
0.99719195
0.99699308
0.99674542
0.99656819
0.99667739
0.99632985
0.99609111
0.99637991
0.99551154
0.99543763
0.99988591
0.99828756
0.99773998
0.99860523
0.99938498
0.99896646
0.9979903
0.99755448
0.99810229
0.99876535
0.99874995
0.99800695
0.99760091
0.99777702
0.99741274
0.99712158
0.99822483
0.99826355
0.99750699
0.99703126
0.99711918
0.99695603
0.99631678
0.9992745
0.9994068
0.99880252
0.99916609
1.0001371
0.99977136
0.99838519
0.99781241
0.99862029
0.99993433
0.99988275
0.9983682
0.99762662
0.99834261
0.99954014
0.9998071
0.9984067
0.9972865
0.99751735
0.99813543
0.99817952
0.99840331
0.99806353
1.0005091
1.0001795
0.99901861
0.99831646
0.99868791
0.99946738
0.99992922
1.0000776
0.99953465
0.9988244
0.99908934
0.99998713
1.0003793
0.99927093
0.99769361
0.99769826
0.9995384
1.0009651
0.99926971
0.99765533
0.99778552
0.99983814
0.99969528
0.99913445
0.99908601
0.999556
1.0003527
1.000897
1.0002721
0.99896997
0.9985896
0.99955616
1.0004097
0.99997236
0.99900906
0.99893155
0.99970788
1.0000456
0.99968717
0.99949546
0.99902338
0.99838126
0.99883365
0.99973706
0.99950586
0.99862121
0.99980189
1.0007419
0.99997328
0.99892562
0.99910204
0.99978108
0.99954342
0.99894033
0.99943903
1.0007747
1.0011113
0.99980315
0.99866585
0.99890777
0.9991915
0.99894953
0.99963965
1.0008569
1.0006775
0.99849399
0.99771089
0.99936183
1.0006493
0.99787503
0.9994714
1.0012986
1.0010772
1.0000792
0.99996224
1.0003255
0.99965776
0.99836025
0.99832322
0.99970131
1.0004515
0.99997885
0.99963861
0.99996382
1.0001331
0.99908531
0.99839971
0.99893185
0.99971564
0.99947177
0.99960901
1.0001322
0.99897682
0.99988897
1.0011224
1.0012006
0.99972848
0.99843403
0.99856397
0.99960265
1.0000773
0.99989004
1.0002968
1.0010513
1.0004129
0.99816884
0.99739217
0.99936636
1.0009937
1.0003908
0.99911199
0.99940052
1.0000281
0.99900083
0.99772315
0.99849117
0.9980471
0.99952946
1.0021394
1.0033194
1.0015209
0.99873879
0.99777899
0.99868636
0.99951538
0.99907827
0.99919474
1.0011008
1.0024285
1.0004655
0.99745104
0.99704592
0.99940167
1.0009503
1.0001166
0.99923568
0.99974518
0.9998509
1.0002988
1.0003118
0.99936941
0.99933799
1.0008497
1.0017414
1.0003142
0.99787285
0.9972784
0.99904777
1.0009275
1.0008323
0.99997922
1.0004979
1.0016867
1.0001846
0.99689561
0.99578461
0.99788171
1.0018426
1.0028987
1.0002681
0.99808181
1.0005725
1.0012432
1.0015437
0.99925535
0.99643066
0.9968606
1.0000468
1.0025349
1.0020645
1.0001481
0.99919935
0.99951635
0.99942896