/*--------------------------------*- C++ -*----------------------------------*\
| =========                 |                                                 |
| \\      /  F ield         | OpenFOAM: The Open Source CFD Toolbox           |
|  \\    /   O peration     | Version:  2406                                  |
|   \\  /    A nd           | Website:  www.openfoam.com                      |
|    \\/     M anipulation  |                                                 |
\*---------------------------------------------------------------------------*/
FoamFile
{
    version     2.0;
    format      ascii;
    arch        "LSB;label=32;scalar=64";
    class       surfaceScalarField;
    location    "75";
    object      phi_0;
}
// * * * * * * * * * * * * * * * * * * * * * * * * * * * * * * * * * * * * * //

dimensions      [1 0 -1 0 0 0 0];

oriented        oriented;

internalField   nonuniform List<scalar> 
40800
(
0.00080670074
0.00094088355
-0.0011098558
0.00090721914
0.001000472
-0.00095040246
0.00096805495
0.00097308488
-0.0012291351
0.0010226008
0.00095870971
-0.0010360539
0.0010727891
0.00092177436
-0.00095797927
0.0011163327
0.00081685537
-0.00090400891
0.0011546874
0.00077779423
-0.00084227503
0.0011782169
0.00073456557
-0.00083485636
0.0012217833
0.00068823562
-0.00063842835
0.0012456843
0.00063872341
-0.00072798755
0.001286591
0.00060657903
-0.00059564884
0.0013298872
0.00059579311
-0.00064208146
0.0013597457
0.00063740872
-0.00071029865
0.0014033841
0.0006026002
-0.00064567164
0.001455762
0.00067615921
-0.00069410217
0.0014900517
0.00072581811
-0.00078370987
0.0015351424
0.00068915345
-0.00074012378
0.001632285
0.00084308861
-0.000875516
0.0016100074
0.00092485303
-0.0010137271
0.0016512547
0.00071957262
-0.00075991416
0.0017997122
0.00098387605
-0.00097960207
0.0018192089
0.0011738226
-0.0012119922
0.0018346506
0.0010228365
-0.0010879439
0.0019380174
0.0010796022
-0.0010918859
0.0021820994
0.0013654557
-0.0013964471
0.0022075755
0.0015748998
-0.0016885002
0.0022219864
0.0015508635
-0.0016979447
0.0023707407
0.0013499221
-0.0015085667
0.0023641176
0.0013902132
-0.0015321839
0.0024509145
0.0017111393
-0.0017267441
0.0018861657
0.0029487962
-0.0018811318
0.0008019596
0.00076928886
0.0009061646
0.0010462643
0.00096946783
0.00076087859
0.0010272263
0.00087328256
0.0010759709
0.0008711034
0.0011171017
0.00074477819
0.0011528618
0.00072544874
0.0011777994
0.00062993015
0.0012196727
0.00072244372
0.0012428224
0.00055198126
0.0012833796
0.00059432679
0.0013260993
0.00057900218
0.0013508224
0.00055222377
0.0014014025
0.00057644003
0.0014502152
0.00065573714
0.0014749305
0.0006681774
0.0015333723
0.00066699575
0.0016235758
0.00081617414
0.0015685331
0.00080855729
0.0016664357
0.00073460917
0.0018071847
0.00099366027
0.0017750513
0.0010907985
0.0018210593
0.0009814358
0.0019517683
0.0010963529
0.002181568
0.0012957804
0.0021704629
0.001354425
0.0021247265
0.0013398994
0.0023455448
0.0012552296
0.0024789799
0.0012924503
0.0024646672
0.0016297409
0.0019095734
0.0026933867
0.00079883837
0.00063554795
0.00090014085
0.0010546108
0.00096665025
0.0006677669
0.0010277465
0.00079486855
0.001076508
0.00079368905
0.0011190935
0.00069466044
0.001152029
0.00067155306
0.0011819893
0.00055876385
0.0012159182
0.00069577411
0.0012427445
0.00051107439
0.0012803898
0.00054850068
0.0013199683
0.00056122214
0.0013459939
0.00049263488
0.0014000013
0.00056143454
0.0014417364
0.00061828966
0.0014633058
0.00059785576
0.0015329552
0.00065978933
0.0016059
0.00079133737
0.0015446861
0.00067471919
0.0016826903
0.00075310052
0.0018020799
0.0010052801
0.0017364376
0.00098354873
0.0018166401
0.0009099575
0.0019466413
0.0011063081
0.0021275773
0.0012247784
0.0021113733
0.0011224483
0.0020362309
0.0011034335
0.0022976284
0.0011992747
0.002592101
0.0012626267
0.0025845968
0.0014656572
0.0017597596
0.0025443669
0.00079553929
0.00056589772
0.0008900294
0.0010042661
0.00096078317
0.00069936684
0.0010232949
0.00073810098
0.001073615
0.00070139658
0.0011178907
0.00067596093
0.0011494124
0.00062676425
0.0011858339
0.00054839015
0.0012109121
0.0006071454
0.0012429148
0.00051747816
0.0012782458
0.00048958172
0.0013127652
0.00053601544
0.0013440073
0.00045461003
0.0013966006
0.00053840732
0.0014301696
0.00057029624
0.0014564683
0.00052356367
0.0015327366
0.00064475728
0.0015785334
0.00074823566
0.0015381337
0.00056733833
0.0016956067
0.00075721816
0.001779181
0.0009603766
0.0017006776
0.0008526834
0.001826026
0.00083028369
0.0019366658
0.0010773149
0.0020462723
0.0011599826
0.0020536507
0.00094264258
0.0019988619
0.00092562897
0.0022307858
0.0011700399
0.0026025643
0.0012895783
0.0026740886
0.0013025265
0.0014591387
0.0025217554
0.00079310094
0.00055222155
0.00087992011
0.00086302713
0.00095359401
0.00079807909
0.0010163398
0.00070299062
0.0010685681
0.00063268354
0.0011143047
0.00066898864
0.0011474914
0.0005951743
0.0011858189
0.00058041547
0.0012064495
0.00049302446
0.0012407612
0.00052485222
0.0012772978
0.00045826486
0.0013055927
0.00048629625
0.0013436213
0.00044131763
0.0013922808
0.00051897836
0.0014178761
0.00054253038
0.0014544403
0.00047890463
0.0015298041
0.00061535775
0.0015468968
0.000691602
0.0015432969
0.00048847851
0.001695837
0.00074510795
0.0017428613
0.00087220805
0.0016693961
0.0007133934
0.0018402673
0.00074382822
0.0019288603
0.00098548559
0.0019570713
0.0010877113
0.0020141064
0.00085170468
0.0020270427
0.00084164968
0.0021823798
0.0011613697
0.0025142843
0.001342272
0.0026621497
0.0011762333
0.0011290952
0.0025387096
0.00079187977
0.00056490402
0.00087231121
0.00063602303
0.00094478006
0.00087105342
0.0010060846
0.00068437346
0.001060274
0.00059196889
0.0011058431
0.00063751351
0.0011429141
0.00055852122
0.0011790271
0.00060615777
0.001202494
0.00041270859
0.0012357193
0.00049261145
0.0012741928
0.0004586791
0.0012990409
0.00042644309
0.0013428465
0.00044033413
0.0013882219
0.00049206258
0.0014070299
0.00051388329
0.0014554344
0.00046702563
0.0015263373
0.00058315919
0.0015146799
0.0006127686
0.0015564448
0.00044859826
0.0016883061
0.00073654185
0.0017015654
0.00077542744
0.001644494
0.00059356709
0.0018472827
0.00069117762
0.0019258447
0.00088171802
0.0018820798
0.00097523128
0.0019858036
0.00083065287
0.0020987419
0.00083252897
0.0021882573
0.0011412096
0.0023646923
0.0013520593
0.0025365006
0.0011133714
0.00085912245
0.0025368646
0.00079309529
0.00057610066
0.00086734503
0.00040021805
0.00093326186
0.00085776487
0.00099123885
0.0006692243
0.0010465771
0.00055742566
0.0010917088
0.00056847711
0.0011336535
0.00051841253
0.0011650381
0.00058284782
0.0011956411
0.00040071365
0.0012267993
0.00043316119
0.0012658247
0.00044959792
0.0012925482
0.00038835246
0.0013383632
0.00042183561
0.0013821687
0.00047181144
0.0013968773
0.0004669828
0.0014548176
0.00046672085
0.0015175426
0.00053505815
0.0014864952
0.00051507767
0.0015758701
0.00045769586
0.0016716601
0.00070938613
0.00165877
0.00065407489
0.0016355194
0.00051968212
0.0018450072
0.00070488193
0.0019162411
0.00080296311
0.0018242592
0.00082225828
0.0019635301
0.00082694087
0.0021739641
0.00085664823
0.0022446979
0.0010677858
0.0022502139
0.001259547
0.0023461741
0.0010969446
0.00074784229
0.0024732356
0.00079963724
0.00055445025
0.00087096556
0.00023249225
0.00092720591
0.00075278185
0.00097872556
0.00063366282
0.0010318047
0.0005256113
0.0010743236
0.00047086436
0.001118942
0.0004800427
0.0011457376
0.00048947136
0.0011818582
0.00043187092
0.0012119186
0.00037597857
0.0012498252
0.00040668731
0.0012810823
0.00036452494
0.0013282508
0.00039224893
0.0013696463
0.00044002371
0.0013847117
0.00039678686
0.0014456814
0.00044755715
0.0015008137
0.00050192453
0.001467915
0.00042671991
0.0015911597
0.00047431921
0.001644599
0.00067779459
0.0016231876
0.00053593712
0.0016446086
0.00047655267
0.0018253792
0.00075754206
0.0018932985
0.00074521863
0.0017979943
0.0006631979
0.0019280023
0.00080186974
0.0021910074
0.00088712983
0.0022741529
0.0009359042
0.0021890476
0.0010226365
0.0021928498
0.0010117533
0.00081372114
0.002372662
0.00082066896
0.00048074246
0.0008825835
0.00017083964
0.00093101161
0.00058891205
0.00097493871
0.00056368422
0.0010203798
0.0004904216
0.0010590407
0.00037776251
0.0010998575
0.00043964874
0.0011238716
0.00036587172
0.001159942
0.0004483852
0.001190292
0.00033607928
0.0012259903
0.00034840651
0.0012609822
0.00033825195
0.0013097253
0.00036062005
0.0013462453
0.000392396
0.0013685172
0.00032110549
0.0014318021
0.00043247918
0.0014769126
0.00047453436
0.0014551525
0.00034495185
0.0015981859
0.0004890882
0.0016086506
0.00063289674
0.0015973201
0.00045810353
0.001673561
0.00045871237
0.0017933503
0.00080111287
0.0018517916
0.00072934432
0.0018036741
0.00052707587
0.0019000562
0.00073463798
0.0021450215
0.00091635465
0.0022443105
0.00080806155
0.0021437312
0.00071073875
0.0020888316
0.00078466716
0.0008747719
0.002266737
0.00088304014
0.00038509649
0.00090469813
0.00025224487
0.00094397173
0.00043191849
0.00098158903
0.00047406833
0.0010170978
0.00043869717
0.0010511223
0.000331556
0.0010806404
0.00040583084
0.0011032019
0.00028545106
0.00113163
0.00041714301
0.0011627711
0.00032569882
0.0011962551
0.00031719627
0.0012327268
0.00029855966
0.0012825035
0.00034101283
0.0013127511
0.00034051788
0.0013487231
0.0002720808
0.0014102049
0.00040931282
0.0014420381
0.00043315198
0.0014452374
0.00028824292
0.0015898948
0.00049216346
0.0015665545
0.00054255942
0.0015761558
0.00040262136
0.0017120082
0.00043883749
0.0017660345
0.00078568279
0.0017862047
0.00073215767
0.0018186016
0.00043336497
0.0019003737
0.00062444598
0.0020566355
0.0009020601
0.0021513087
0.00075347949
0.0021057388
0.000472317
0.002065789
0.00050786581
0.00080520358
0.0021944395
0.00096868084
0.00029460691
0.00095288971
0.0004556696
0.00097775617
0.00037288419
0.0010060803
0.00040008185
0.0010283116
0.00039207821
0.0010557078
0.00034498707
0.0010755491
0.00038045243
0.0010989794
0.00028242298
0.0011162446
0.00034188065
0.0011456129
0.00032290913
0.0011731289
0.00029925729
0.0012080803
0.00025200118
0.001252682
0.00032155942
0.0012755443
0.00028035333
0.0013239365
0.00024318078
0.0013795742
0.00036618485
0.001399522
0.00038414864
0.0014332779
0.00025999613
0.001562969
0.0004737993
0.0015215384
0.0004475586
0.0015514985
0.00034584164
0.0017436224
0.00042960632
0.0017432979
0.00067784072
0.0017104119
0.00066665375
0.0018275111
0.00041186857
0.0019346472
0.00050921885
0.0019842087
0.000795176
0.0020164415
0.00073784575
0.0020513061
0.00040614166
0.0021009117
0.00035256088
0.00064722295
0.0021915456
0.00099435781
0.00019740398
0.00099798583
0.00063935828
0.001020238
0.00041657325
0.0010441627
0.00035119816
0.0010589473
0.00036514926
0.0010776919
0.00039835319
0.0010869485
0.00035856552
0.0011071585
0.00033824464
0.0011174589
0.00025767717
0.0011451926
0.00030449752
0.0011673035
0.0002696723
0.0012032989
0.00021058736
0.001238402
0.00028648848
0.0012556186
0.00022972442
0.00130749
0.00023602426
0.0013510485
0.00030910255
0.0013559911
0.00031349357
0.0014166377
0.00025126814
0.0015194862
0.00044131541
0.0014743866
0.00033424033
0.0015199707
0.00031087748
0.0017375555
0.00044788301
0.0017052589
0.0005126958
0.0016329773
0.00050729223
0.0018132215
0.00043926345
0.0019676248
0.00045075398
0.001952146
0.00061249055
0.0019085893
0.00065273555
0.0019990908
0.00048042498
0.0021541322
0.0003718215
0.00053969183
0.0022754912
0.00097980867
0.00011604736
0.0010192418
0.00068009403
0.0010532
0.00048729358
0.0010844609
0.0003264326
0.0011067081
0.00034253147
0.0011240724
0.00043882179
0.0011284071
0.0003319123
0.0011390092
0.00038244097
0.0011450138
0.00021227275
0.0011657518
0.00028067655
0.0011802989
0.00023800994
0.0012160164
0.00020687343
0.0012391995
0.00024611312
0.0012564892
0.00020451106
0.0013066095
0.00024597873
0.0013382393
0.00025730432
0.0013330554
0.00023826421
0.0014095225
0.00026130977
0.0014715615
0.00039762544
0.001437256
0.00020981413
0.0014914879
0.00029260907
0.0016905363
0.00046604654
0.0016540552
0.00035523882
0.0015679904
0.00030493572
0.0017571299
0.00046051723
0.0019489231
0.00047847583
0.0019180129
0.00044621654
0.0018333617
0.00046305295
0.001939107
0.00052976691
0.0021639576
0.00050990258
0.00053287429
0.0023325789
0.00092260361
8.6071625e-05
0.0010015625
0.00054262296
0.0010498094
0.00052113008
0.0010942587
0.0003387217
0.0011327569
0.00032005151
0.0011621205
0.00040148878
0.0011820241
0.00028601345
0.0011945023
0.00034528617
0.001207368
0.00021207389
0.0012214873
0.00025431117
0.0012324738
0.00019724929
0.0012636315
0.00024274697
0.0012734446
0.00020262199
0.0012873574
0.00020289694
0.001324301
0.00027243954
0.0013430985
0.00022817835
0.0013344507
0.00018000454
0.0014163723
0.00025812162
0.0014361203
0.00035760145
0.001431966
0.00012980532
0.0014827909
0.00026746131
0.0016263374
0.00048191635
0.0016008872
0.00024711502
0.0015431317
0.00012119588
0.00169481
0.00042593752
0.0018795569
0.00055806985
0.0018644306
0.00035435674
0.001801899
0.0002635558
0.0018833406
0.00045151611
0.002115567
0.00061634487
0.00059509982
0.002300416
0.00088409226
0.0001082969
0.0009622569
0.00030855403
0.001020357
0.00049005022
0.0010775522
0.00035722935
0.001124798
0.00029205236
0.0011602864
0.00029714882
0.0011943075
0.00023081085
0.0012144102
0.00024299738
0.0012439692
0.00023460872
0.0012619287
0.00021278823
0.001284963
0.00015321886
0.0013176745
0.0002719629
0.0013309812
0.00016809907
0.0013504299
0.00020587341
0.0013743896
0.00029294844
0.0013828597
0.00021758243
0.0013725913
0.00013819471
0.0014486502
0.00026023757
0.0014245438
0.00031177454
0.0014551345
9.6598538e-05
0.0015106608
0.00024250302
0.0015769448
0.0004856014
0.0015583583
0.00020674833
0.0015693274
2.8761628e-05
0.0016794675
0.00035544343
0.0017894419
0.00061155198
0.0017908267
0.00034794798
0.0017916006
0.00014992561
0.0018710221
0.00029419499
0.0020363113
0.0005916739
0.00062679946
0.0021803991
0.00089829398
0.00012862832
0.0009651874
5.5121775e-05
0.0010119479
0.00037792442
0.0010625533
0.00034125059
0.00110718
0.00024734147
0.0011422075
0.0001773842
0.0011797916
0.00019061481
0.0012037087
0.00014843771
0.0012377582
0.00025304417
0.00125528
0.00016699612
0.0012897658
0.00013866487
0.0013189687
0.00024626407
0.001346081
0.00015205477
0.0013795113
0.0001855594
0.0014037949
0.00027454031
0.0014185122
0.00021059568
0.0014263691
0.00012435139
0.0014987364
0.00025581582
0.0014431015
0.00025185301
0.0015074161
0.00011000602
0.0015784478
0.00021815228
0.0015659431
0.00043254942
0.0015416245
0.00021998874
0.0016343532
3.9260949e-05
0.0017377799
0.00028777359
0.0017351816
0.00056760795
0.0017227528
0.00039482153
0.0017840294
0.00012898525
0.0019104429
0.0001876568
0.0019994183
0.00043812973
0.00055440434
0.0020559212
0.00089627109
0.00011237125
0.00096476379
-0.00012010213
0.0010096986
0.0002369127
0.0010571729
0.0002924479
0.0010972975
0.00019207143
0.0011304562
7.5967131e-05
0.0011644592
0.00017649474
0.0011915256
0.00011008965
0.001219638
0.00024774356
0.0012396164
0.00012077477
0.001280551
0.00015901605
0.001302001
0.00016563444
0.0013368984
0.00014770085
0.0013751474
0.00015451344
0.0013957525
0.00022705634
0.0014148912
0.00019916597
0.0014460044
0.00012734347
0.0015146784
0.00022227402
0.0014524109
0.0001712254
0.0015480721
0.00014563509
0.0016398292
0.00020523806
0.0015764734
0.00030584427
0.0015559742
0.00022185928
0.0017136595
0.00011988053
0.0018268232
0.00026663378
0.0017440785
0.00041451851
0.0016977009
0.00037469239
0.0018079269
0.00019393707
0.0019761136
0.00018026745
0.0020263602
0.00028295494
0.00037819106
0.0019920833
0.00089852396
4.2963357e-05
0.00096430181
-0.00013437599
0.0010062074
0.00016659043
0.0010486374
0.00021998626
0.0010867268
0.00014203309
0.0011236779
4.9803613e-05
0.0011540108
0.0001603584
0.0011842759
0.00012929388
0.0012018536
0.00019442902
0.0012273938
9.2740701e-05
0.0012644566
0.0001820691
0.0012842912
8.1365453e-05
0.0013220093
0.00014571384
0.0013635648
0.00012698073
0.0013811563
0.00015678737
0.0013998866
0.00016319686
0.0014424707
0.00013744541
0.0014976289
0.00018960889
0.0014433926
7.5314107e-05
0.0015454852
0.0001803818
0.0016449041
0.00020353692
0.0015677065
0.00014787824
0.0015488788
0.00017438198
0.0017440535
0.00023288059
0.0018574931
0.00026626202
0.0017551746
0.00021121648
0.0016794524
0.00023142305
0.0018154194
0.00025209567
0.0020041906
0.00024786276
0.002052966
0.00021280401
0.00018743236
0.0019750214
0.0009525425
-9.4927331e-05
0.00098384936
2.8170967e-05
0.0010155181
0.00019694412
0.0010494186
0.0001416533
0.0010813052
0.00010487742
0.0011183817
9.1565796e-05
0.0011437166
0.0001367685
0.0011734259
0.00015066762
0.0011838288
0.00010114952
0.0012159695
9.5087726e-05
0.0012441084
0.00015652711
0.001271007
4.572024e-05
0.0013053583
0.0001302501
0.0013467678
0.0001057721
0.0013629886
7.6776605e-05
0.0013838087
0.00010330573
0.0014337671
0.00014412853
0.0014729687
0.00016165035
0.001445388
-7.2362775e-06
0.0015331805
0.00020341019
0.001619933
0.00021222135
0.0015601067
1.4863782e-05
0.0015469726
6.734499e-05
0.0017321085
0.00031572661
0.0018261498
0.00027286773
0.0017411344
5.1578663e-05
0.0016710366
-4.7496174e-06
0.0017974137
0.00022156802
0.0019715478
0.00033708074
0.0020233163
0.00022289989
7.6383215e-05
0.0019646293
0.0010307736
-0.0002045973
0.0010359547
0.00022046775
0.0010536872
0.00028020222
0.0010761587
6.2971665e-05
0.0010979076
8.7507361e-05
0.001128176
0.00015579805
0.001145604
0.00011010165
0.0011659648
0.00013557931
0.0011718518
2.5743514e-05
0.0012023771
0.00010666227
0.0012197889
8.9412232e-05
0.0012544638
4.2853753e-05
0.001282265
9.1709466e-05
0.0013238387
9.5592583e-05
0.0013416589
1.7134864e-05
0.0013645091
5.3905996e-05
0.0014151197
0.0001367007
0.001434815
0.00013194758
0.001450921
-6.210216e-05
0.0015132203
0.00018321636
0.0015704578
0.00021520347
0.0015494235
-6.3698878e-05
0.0015653653
-3.5849641e-05
0.0016959595
0.00030965851
0.0017557324
0.00028750009
0.0016942813
-2.5804237e-05
0.001693415
-0.00018283992
0.0017922292
7.4899138e-05
0.001911467
0.00035138315
0.0019506576
0.00026747978
5.0942369e-05
0.0019347076
0.0010579708
-0.00027681909
0.0010746846
0.0003188695
0.0010897998
0.00034441112
0.0011167203
1.6784763e-05
0.0011377353
7.4368706e-05
0.0011598812
0.00018170335
0.0011708221
8.031901e-05
0.0011809295
8.5528012e-05
0.0011878881
-1.8063657e-05
0.0012116762
9.9717866e-05
0.0012247161
2.8526407e-05
0.0012600748
4.425532e-05
0.0012850059
4.9520935e-05
0.0013148581
8.9542765e-05
0.0013375574
8.3098487e-07
0.0013657986
1.882252e-05
0.0014114511
0.00011090935
0.00140727
0.00010139189
0.0014671435
-7.5196837e-05
0.0015089426
0.00012250738
0.001517988
0.00019489341
0.0015349518
-8.7266246e-05
0.0016016181
-9.1081101e-05
0.0016760503
0.00020810312
0.00167625
0.00027505502
0.0016318258
-4.8141701e-05
0.0017117504
-0.00022642076
0.0018288796
-4.3084962e-05
0.0018673842
0.00024405225
0.0018689759
0.00025949189
7.3151145e-05
0.0018907883
0.0010633667
-0.00025065461
0.0010491865
0.0002792555
0.0010729933
0.00030287602
0.0011130243
6.2895417e-06
0.0011452069
4.4979025e-05
0.0011715864
0.00011578948
0.0011904343
4.6019765e-05
0.0012030876
3.1806158e-05
0.0012220088
-2.3688793e-05
0.0012421524
5.7166084e-05
0.001260682
8.8272802e-06
0.0012979271
2.818922e-05
0.0013224759
2.7154755e-05
0.0013529482
5.1346179e-05
0.0013767644
1.2625436e-05
0.0014035644
6.5278827e-06
0.0014438688
5.9675768e-05
0.0014219915
6.0883432e-05
0.0015193227
-5.9374354e-05
0.0015498053
5.0871686e-05
0.0015129351
0.00012086186
0.001563929
-5.583586e-05
0.0016688269
-7.5807013e-05
0.0017105065
8.5948435e-05
0.0016416548
0.00017290158
0.0016210048
-1.9249677e-05
0.0017619947
-0.0001456309
0.0019055091
-7.2451455e-05
0.0018861446
9.5670536e-05
0.0018304559
0.00015593714
5.7496752e-05
0.0018634021
0.00082756156
0.00091858438
0.0011291191
0.0011924378
0.0012433824
0.0012743941
0.0013143588
0.0013329518
0.0013760422
0.001392693
0.0014310787
0.001460038
0.0015044132
0.0015125992
0.0015691949
0.0016145525
0.0016534988
0.0016109545
0.0017239607
0.001745291
0.0016783786
0.0017358707
0.001862614
0.0018951389
0.0017863314
0.001759581
0.0019233671
0.0020926726
0.002062666
0.0019623054
0.0019734315
0.00017800183
0.0020656296
0.00033573239
0.0019295963
0.00042971867
0.001861749
0.00041484827
0.0018070526
0.00034974666
0.0017812458
0.00033324448
0.0017858406
0.00038884391
0.0018268601
0.00049477529
0.0019152205
0.00057218888
0.0020208892
0.0005492672
0.0021025902
0.00043962502
0.0021517607
0.00037137954
0.0022003459
0.00050230978
0.0022795145
0.00085312233
0.0024189098
0.0012537927
0.0025171378
0.0014489627
0.00250456
0.0013514332
0.0023928804
0.0011143375
0.0022722373
0.00093153064
0.0022130256
0.0009332428
0.0022663228
0.0012077237
0.0024497018
0.0015576782
0.002718527
0.0029246928
0.0017066776
1.5492254e-05
0.0020355269
-1.9310456e-05
0.0019070831
2.8425046e-06
0.0018780207
0.00011022615
0.001876464
0.00030827845
0.0019082167
0.0005515926
0.0019282854
0.00074581637
0.0019087298
0.0007871666
0.0018563944
0.00067446481
0.0018197029
0.00050183031
0.0018227254
0.00041293849
0.0018788363
0.00047889064
0.0019887608
0.00068183166
0.0021651266
0.00094809982
0.0023496147
0.00108843
0.0024548491
0.00099905415
0.0024484903
0.00079876658
0.0023641512
0.00073032261
0.0023068568
0.00090372906
0.0023555218
0.0012778474
0.0024637623
0.0016791299
0.0025547164
0.0019093411
0.0026286289
0.0026426604
0.0017544615
-0.0001229672
0.0018197824
-0.00017914519
0.0017503194
-0.000113067
0.0017892833
5.9994894e-05
0.0018739071
0.00027598303
0.0019571741
0.0003902081
0.0019787217
0.00040741746
0.001957882
0.00037932213
0.0018956064
0.00041090427
0.0018598602
0.00055025582
0.0018811092
0.00077315919
0.0019235841
0.00102774
0.0019709109
0.0011722265
0.0020283687
0.0011140625
0.0020776101
0.00085646331
0.0021005057
0.00053848957
0.002107903
0.00041010704
0.0021525281
0.0005879917
0.0023040735
0.0010319009
0.0025303655
0.00147666
0.0027222328
0.0017281594
0.0027733056
0.0017567883
0.0026716268
0.0025
0.0015397035
0.00010579542
0.0018238991
0.00024563647
0.0017122329
0.00037366549
0.0016978722
0.00039211334
0.0017195409
0.00024775817
0.0017424078
6.3208917e-05
0.0017551319
-3.6355229e-05
0.0017860629
-8.3006566e-06
0.0018312861
0.00020899931
0.0019166652
0.00056363114
0.0020388399
0.00092814155
0.0021255642
0.0011227501
0.0021330427
0.0011109763
0.002069807
0.00093155454
0.0019872441
0.00068906184
0.0019325622
0.00060837071
0.0019144507
0.00077711097
0.0019697218
0.0011225467
0.0021361352
0.0014158718
0.0023622009
0.0014509954
0.0025506179
0.0012750546
0.0026155109
0.0010308176
0.0025655519
0.0024871793
0.00086181125
0.00022453243
0.0019547767
0.00038974248
0.001788505
0.0004059087
0.0017036509
0.00031100598
0.0016528962
0.00019740242
0.0016399961
0.00014567807
0.00163262
0.0002034497
0.0016610497
0.00038790998
0.001721453
0.00062026421
0.0018245835
0.00077549164
0.001940285
0.00074180767
0.0020148271
0.0005482564
0.0020330359
0.00029962813
0.0020245659
0.00022067906
0.0020250364
0.00042524451
0.0020633281
0.0008568134
0.0021119309
0.0013691883
0.0021322326
0.0017652591
0.0021306709
0.0018180867
0.0021610362
0.0014939846
0.0022119237
0.00095836217
0.0022188486
0.00051517901
0.0022145238
0.0022903892
0.00046185603
-7.2379617e-05
0.0018484451
-0.00019611638
0.0017197185
-0.0002275383
0.0016836858
-0.0001485323
0.001694574
5.51172e-05
0.0017410038
0.00037371672
0.0017620596
0.00074175978
0.0017712838
0.0010286494
0.0017598598
0.0011028773
0.0017482179
0.00092502335
0.0017459037
0.0005415702
0.0017459339
0.000148495
0.0017497634
-3.2671879e-05
0.0018031633
3.5620444e-05
0.0019164693
0.00041223198
0.0020927085
0.00091899754
0.0022593283
0.0013737821
0.0023328239
0.0016088534
0.0023000529
0.0015679917
0.0022081892
0.0012820809
0.0021145547
0.00088728791
0.002042094
0.00072222667
0.002006231
0.0020717264
0.00093832229
-0.00019534678
0.0016417261
-0.00029267727
0.0015743353
-0.00024088048
0.0015866008
-6.6946331e-05
0.0016613206
0.00019699147
0.0017625699
0.00048359536
0.0018213232
0.00067733382
0.0018381137
0.00071143834
0.0018100498
0.00059930226
0.0017572649
0.00043436257
0.0017111798
0.00031336695
0.0016927056
0.00032406613
0.0016747228
0.00047554278
0.0016987731
0.00075389923
0.0017865185
0.0010385519
0.0019391498
0.0011663759
0.0021044027
0.0010817699
0.0021888115
0.00082972519
0.0022000753
0.00051641866
0.002176016
0.00039700759
0.0021684617
0.00061324288
0.0021953122
0.001119672
0.0022071238
0.0021868737
0.0017022656
0.00025204538
0.0016529605
0.00048326272
0.0015679379
0.00065741484
0.001537286
0.00074128332
0.001567871
0.00068633339
0.001629156
0.00048114105
0.0016613375
0.00014284961
0.0016768005
-0.00015547645
0.0016878789
-0.00033383919
0.0017090884
-0.0002664766
0.0017425306
3.7526095e-05
0.001807989
0.00054119152
0.0018384528
0.0010959643
0.0018466588
0.0015446633
0.0018482363
0.0016908118
0.0018593816
0.0014877398
0.0019011089
0.00096563863
0.0019226388
0.00035614995
0.0019127387
8.3347846e-06
0.0019429229
-1.8754182e-05
0.0020410593
0.00038004382
0.002226371
0.0010616178
0.0023879549
0.0024482374
0.0017542358
0.00049022671
0.001787251
0.00088277265
0.0016966267
0.0011013103
0.001610735
0.0010593638
0.0015552447
0.00076616491
0.0015298094
0.0003243087
0.0014999749
-8.8696015e-05
0.0014839861
-0.00038467923
0.001500379
-0.00042064851
0.0015713862
-0.00021230188
0.001680553
0.00018476278
0.0018213073
0.00066159758
0.0019255863
0.0010709308
0.0019608456
0.0012774158
0.0019460721
0.0012627057
0.0019022376
0.0010732832
0.0018663306
0.00073355035
0.0018340466
0.00047420119
0.0017722445
0.00035917776
0.0017466981
0.0005268447
0.0018413651
0.00088894773
0.0020435723
0.001238429
0.0022843776
0.0024250649
0.0014447646
0.0001690614
0.0018151655
0.00018440391
0.0017515166
8.5386442e-05
0.0016661114
-4.0656961e-05
0.0016026432
-0.00010963253
0.0015627494
-6.3511226e-05
0.0015154625
7.9374998e-05
0.0014767084
0.00034394621
0.001470036
0.00063021552
0.0015081735
0.00088452678
0.0015866762
0.0010046874
0.0017015485
0.00092923392
0.0018018015
0.00069795805
0.0018445944
0.00036697038
0.001865705
6.0711587e-05
0.0018789904
-8.5611695e-05
0.0018845382
3.5047953e-05
0.0018955447
0.00040102624
0.0018693436
0.00096525693
0.0018272381
0.0015464824
0.0018291476
0.0019043035
0.0019047006
0.0018652059
0.0020470035
0.0021949934
0.001478176
-0.000489942
0.0016819289
-0.00096299451
0.0016631853
-0.0012710109
0.0016159028
-0.0013371069
0.0016015878
-0.0010882261
0.0016180733
-0.0004822441
0.0016338987
0.00027543706
0.0016194097
0.0010073156
0.001597736
0.0015579778
0.0015864839
0.0018116916
0.0015843663
0.0016875808
0.0016147036
0.0012293932
0.0016566681
0.00054046257
0.0016690277
-0.00015602835
0.0016830576
-0.00069184038
0.00172488
-0.00083272058
0.0018016822
-0.0004862407
0.0019069415
0.00022617672
0.001994062
0.0010668826
0.0019842509
0.0018256166
0.0019504291
0.0022742624
0.0019314102
0.0022634298
0.0019509211
0.0020098327
0.0017732442
-0.00079819574
0.0015004122
-0.0013503157
0.0015153969
-0.0015286668
0.0015097554
-0.0013516255
0.0015522966
-0.00090731146
0.0016250084
-0.00031151346
0.0016771063
0.00029249162
0.0016889477
0.0008477767
0.0016880396
0.0012489361
0.0016765879
0.0014278489
0.0016547308
0.0013233384
0.0016273507
0.00094493405
0.0016109074
0.00038606014
0.0015768482
-0.00014548232
0.0015518327
-0.00042686553
0.0015862853
-0.00038692164
0.0016864892
-9.7675441e-05
0.001822728
0.00035299018
0.0019586032
0.00083421307
0.0020163433
0.0012840983
0.002018305
0.0015371559
0.0020025147
0.0016132574
0.0019873493
0.0019842512
0.0014611548
-0.00012833446
0.0014347294
-0.00016702294
0.0014370803
-0.00012388629
0.0014232784
-1.3009575e-05
0.0014709803
0.00011550477
0.001555757
0.00022436488
0.0016256287
0.0003232962
0.0016568003
0.0003173725
0.001672692
0.00020155223
0.0016796261
2.0759951e-05
0.0016763634
-0.00012253644
0.0016640588
-0.00016535102
0.0016491389
-7.902828e-05
0.001604792
0.00014181509
0.0015571532
0.00045165036
0.0015508722
0.00070508958
0.0016189793
0.00089412534
0.0017265044
0.0010018127
0.0018631097
0.00092727778
0.0019419643
0.0007442804
0.0019637201
0.00051960575
0.0019720272
0.00031168693
0.001991877
0.0019994679
0.00022010622
0.00074453359
0.0014939996
0.0013478463
0.0014707106
0.001641138
0.0014195196
0.0016298936
0.0014282914
0.0013804502
0.0014817986
0.0009409477
0.0015398788
0.00037092187
0.0015721886
-0.00023750439
0.0015988175
-0.00083360845
0.0016198197
-0.0013069614
0.0016414809
-0.0015012133
0.0016473984
-0.0012949013
0.0016727717
-0.00067585309
0.0016690895
0.00020060834
0.0016317575
0.001059594
0.0016086902
0.0016812295
0.0016385245
0.0019464112
0.0016919678
0.0017936986
0.0017836176
0.0013003183
0.0018535827
0.00058656523
0.0018729234
-0.0001454016
0.0018826268
-0.00069030599
0.0019333806
0.0019763814
-0.00083900422
0.0010868238
0.0015620973
0.0019348947
0.0015448856
0.0024451849
0.0014724461
0.0025419909
0.001442231
0.0022054043
0.0014582205
0.0014658399
0.0014861554
0.00046860144
0.0014990627
-0.00060189258
0.0015189375
-0.0014950597
0.0015479524
-0.0020478379
0.0015869743
-0.0021051561
0.0016176051
-0.0017083367
0.0016682078
-0.00095282998
0.0016907277
3.5068419e-05
0.0016790118
0.0010467803
0.0016666838
0.0018566063
0.0016873551
0.0022514117
0.0017117554
0.0021455257
0.0017620889
0.0015655941
0.001806243
0.00060620303
0.0018067608
-0.00041517103
0.001803014
-0.0011775057
0.0018564071
0.0019191145
-0.0014711773
0.00080819511
0.0015725837
0.0014937695
0.0015815875
0.0019863117
0.0015195253
0.0022085037
0.0014805627
0.0020617494
0.0014783573
0.0014637254
0.0014873532
0.00047181325
0.0014775507
-0.0006434733
0.0014812617
-0.0014867094
0.001513906
-0.0018639554
0.001561275
-0.0017867759
0.001600649
-0.0013583999
0.0016593281
-0.00073559203
0.001688227
-2.4661181e-05
0.0016821176
0.00071397065
0.0016849414
0.0013683496
0.001712854
0.0017636762
0.0017417665
0.0017792822
0.001775667
0.0013756632
0.0018051786
0.00054594169
0.0017882254
-0.0004428442
0.0017658585
-0.001176335
0.001808991
0.0018834769
-0.0014664289
0.00037999793
0.0015399471
0.0007178031
0.0015828864
0.0010119624
0.0015356361
0.0011925915
0.001506289
0.0011513196
0.0015090214
0.00084510328
0.0015203551