/*--------------------------------*- C++ -*----------------------------------*\
| =========                 |                                                 |
| \\      /  F ield         | OpenFOAM: The Open Source CFD Toolbox           |
|  \\    /   O peration     | Version:  2406                                  |
|   \\  /    A nd           | Website:  www.openfoam.com                      |
|    \\/     M anipulation  |                                                 |
\*---------------------------------------------------------------------------*/
FoamFile
{
    version     2.0;
    format      ascii;
    arch        "LSB;label=32;scalar=64";
    class       volScalarField;
    location    "150";
    object      p;
}
// * * * * * * * * * * * * * * * * * * * * * * * * * * * * * * * * * * * * * //

dimensions      [1 -1 -2 0 0 0 0];

internalField   nonuniform List<scalar> 
20580
(
1.0048347
1.0055347
1.0028237
1.0021995
1.0052591
1.0042276
1.0039399
1.0027108
1.0045274
1.0042874
1.0026058
1.0041459
1.0039813
1.0029804
1.0040573
1.0041342
1.0016501
1.0046458
1.0060277
0.99900224
1.0033323
1.0069952
1.0025761
0.99839492
1.0087823
1.0114214
0.99976929
1.0023411
1.0034367
0.99012876
0.99558355
1.0052494
1.0055296
1.0024957
1.0023592
1.0051044
1.0042808
1.0038227
1.0028867
1.0043644
1.0039021
1.0027679
1.0045682
1.0033477
1.0026023
1.0043403
1.0033165
1.0011119
1.007092
1.0040502
0.99830479
1.0064961
1.0064693
1.001248
1.0011169
1.0125469
1.0131516
0.99442701
0.99445493
1.0076871
1.0009269
0.99070149
1.0051355
1.0052912
1.0026439
1.0028955
1.0044195
1.0038177
1.0033923
1.0034828
1.0039069
1.0032788
1.0033837
1.0045646
1.0029421
1.0027885
1.0047167
1.002794
1.0010808
1.0086045
1.0024231
0.99855525
1.0086983
1.0051309
1.0003519
1.0024361
1.0120189
1.0127899
0.99233089
0.98868891
1.0101758
1.0145063
0.99214437
1.0044533
1.004895
1.0032804
1.0037194
1.0035034
1.0032364
1.0028393
1.0042162
1.0034865
1.0026927
1.0041158
1.0042019
1.0027584
1.0032338
1.0048089
1.0027462
1.001682
1.0085133
1.0010679
0.99999423
1.0098319
1.0029175
1.0000084
1.0030751
1.0071889
1.0091356
0.99470506
0.98709777
1.0083448
1.0256267
1.0045998
1.0033593
1.0044201
1.0042327
1.0048274
1.0027598
1.0028952
1.0026438
1.0046372
1.0033902
1.0027036
1.0043405
1.0036916
1.0028655
1.0037492
1.0041906
1.0030784
1.0028685
1.0070504
1.0001815
1.0023391
1.0097061
1.0003477
1.0005588
1.0049904
1.0008733
1.002902
1.0002225
0.99130208
1.0029657
1.0244016
1.0199884
1.0024462
1.0041231
1.0050848
1.0055746
1.002547
1.0029249
1.0030974
1.0044157
1.0034826
1.0034072
1.0041863
1.0032933
1.0032785
1.0043412
1.0034828
1.0035243
1.0044984
1.0049266
0.99992681
1.0049499
1.0082317
0.99768957
1.0017485
1.0085605
0.99700921
0.99581531
1.0055019
1.0016566
0.99841003
1.0101658
1.0220262
1.0023605
1.004281
1.0054225
1.0053537
1.0029204
1.003451
1.0040867
1.0036763
1.0035042
1.0042193
1.0038749
1.0029816
1.0035869
1.004757
1.0031499
1.0035618
1.0059161
1.002741
1.0002453
1.0070151
1.0065001
0.99601955
1.0027379
1.0121889
0.99737248
0.99062798
1.0077466
1.0143412
0.99912717
0.99257239
1.0066221
1.0029612
1.0048296
1.0050746
1.0045146
1.0036212
1.0041948
1.0050076
1.003015
1.0033885
1.0046591
1.0035777
1.0028911
1.0038603
1.004709
1.0027345
1.0033531
1.0067394
1.0010987
1.001137
1.0080153
1.0045049
0.9961554
1.0033632
1.0139123
1.0008707
0.9896867
1.0063831
1.022098
1.0058324
0.98351349
0.98470376
1.0037612
1.0054381
1.004112
1.0034874
1.0043162
1.0046929
1.0052264
1.0028466
1.0032496
1.0043445
1.0035192
1.0030473
1.0039347
1.0043508
1.0025866
1.0030844
1.0067975
1.0005038
1.0028337
1.0079752
1.0020668
0.99809003
1.003648
1.0118029
1.0044549
0.99338416
1.0030913
1.0201292
1.0133017
0.98632863
0.97429897
1.0045409
1.0058465
1.002925
1.0024244
1.0047266
1.0046959
1.0045493
1.0031949
1.0033897
1.0035904
1.0036578
1.0032434
1.0040108
1.0039016
1.0031178
1.0029554
1.0058898
1.0006628
1.0048424
1.006878
0.99987235
1.0019139
1.0044188
1.0057403
1.0055021
1.0002833
1.000721
1.0097455
1.0140555
0.99792587
0.98089332
1.0050892
1.0058854
1.002115
1.0018456
1.0046584
1.0041294
1.0032095
1.003816
1.0037859
1.0030535
1.003738
1.0034368
1.0039729
1.0032484
1.0038092
1.0031826
1.0043477
1.0010315
1.0064933
1.0050909
0.99791869
1.0061268
1.00655
0.99858165
1.0029511
1.0076114
1.0014698
0.99747848
1.0040101
1.0086131
1.0000871
1.0047789
1.0054479
1.0020252
1.0023644
1.0042483
1.0033032
1.0020381
1.004266
1.004164
1.0029913
1.0036442
1.003903
1.0040003
1.0025355
1.0042735
1.0038626
1.002803
1.0017953
1.0077521
1.0037736
0.99646331
1.0087516
1.0093893
0.99354423
0.99772907
1.012305
1.0061974
0.99051944
0.98953549
1.008631
1.0181268
1.0038042
1.0047347
1.0027739
1.003622
1.0037414
1.002661
1.0017709
1.0042476
1.0042336
1.0034073
1.0032792
1.004314
1.0040339
1.0022721
1.0046077
1.0048353
1.0018384
1.0030069
1.00787
1.0028838
0.99626316
1.0095049
1.011542
0.99227195
0.99328284
1.0126417
1.0124029
0.99107154
0.98190161
0.9990853
1.0229297
1.0031329
1.0042122
1.0042604
1.0049075
1.003322
1.0026613
1.0026759
1.0038462
1.0038719
1.003919
1.002946
1.0042875
1.0038204
1.0024097
1.0048454
1.0054321
1.0015655
1.004068
1.0064796
1.0020484
0.99774925
1.0083681
1.0112859
0.99481776
0.99295618
1.009305
1.0149745
0.99798039
0.98505271
0.99150228
1.0136425
1.0025775
1.0041011
1.0056693
1.0058921
1.0031855
1.0033059
1.0042514
1.0034332
1.0033788
1.0040292
1.0029589
1.0040014
1.0035446
1.002983
1.0043446
1.005256
1.00189
1.0050664
1.0045182
1.0019406
1.0011152
1.0058579
1.0074155
0.99943818
0.99738521
1.005051
1.0104145
1.0060636
0.99584168
0.9937974
1.0004871
1.0025618
1.0043301
1.0061971
1.0060225
1.0033565
1.0041507
1.0054643
1.003289
1.0031001
1.0038093
1.0034222
1.0038896
1.0032783
1.0041188
1.0034128
1.0045858
1.0025996
1.0063015
1.0024224
1.0018945
1.0055255
1.0040095
1.0010159
1.0030554
1.0053962
1.0032459
1.0006132
1.0068497
1.0093549
1.0033413
0.99537755
1.0033183
1.0050161
1.0056256
1.0047366
1.0036509
1.0046802
1.0057077
1.0034603
1.0031962
1.0034106
1.0041455
1.0037739
1.0031042
1.0052483
1.0028521
1.0037925
1.0032902
1.0070988
1.0006732
1.0013048
1.009308
1.0038513
0.99492457
1.0037208
1.0131478
1.0048142
0.9920722
0.99900407
1.0158205
1.0150838
0.999078
1.0042659
1.0056649
1.0036825
1.0028724
1.0040427
1.0045853
1.0045647
1.0037777
1.0037054
1.0031573
1.0046527
1.0033615
1.0029239
1.0055551
1.0028066
1.0029431
1.0035973
1.0069653
0.9999114
1.0009007
1.0112836
1.004716
0.99213884
1.0015779
1.017002
1.0078023
0.98894165
0.98995155
1.0116614
1.021042
1.00641
1.0049836
1.0059336
1.0015538
1.0015502
1.004322
1.004023
1.0026444
1.0039995
1.0039306
1.0032051
1.004664
1.0030058
1.0030751
1.0051998
1.0031518
1.002345
1.0037222
1.0062249
1.0005507
1.0013101
1.0108296
1.005599
0.9932721
0.99958991
1.0154082
1.0092922
0.99109437
0.98819738
1.0022654
1.0169062
1.0103062
1.0047307
1.0056711
1.0009299
1.001517
1.0043593
1.0035134
1.001608
1.0038868
1.0039304
1.0033609
1.004266
1.0032147
1.0035104
1.0044883
1.0036594
1.0025005
1.0039368
1.0049908
1.0021321
1.0024373
1.0074109
1.0058526
0.99714502
1.0006297
1.0091182
1.0075375
0.99619528
0.99360291
0.99802996
1.0052953
1.0075156
1.0041923
1.0051639
1.0020948
1.0026603
1.0041352
1.0033987
1.0021345
1.0037838
1.0034323
1.0036561
1.003802
1.0038192
1.0039911
1.0035065
1.004145
1.0033456
1.0043209
1.0029935
1.0040781
1.004485
1.0033765
1.0036356
1.0028981
1.0037258
1.0032342
1.0005941
1.0026975
1.0031739
1.000823
0.99606502
0.99916047
1.003156
1.0045906
1.0044838
1.0046391
1.0037728
1.0035647
1.0037981
1.0036619
1.0037375
1.0035562
1.0033324
1.0041916
1.0043811
1.002635
1.0042812
1.0040808
1.0050158
1.0010971
1.0052154
1.007155
1.0001283
1.0001854
1.0074653
1.0085451
1.0000454
0.99298016
1.0037238
1.0139564
1.0084253
0.9936482
0.99074317
1.002626
1.0042673
1.006705
1.0064284
1.0033624
1.0038409
1.0055794
1.0034981
1.0034265
1.0038715
1.0034595
1.0041862
1.0049404
1.0022465
1.0039973
1.0044422
1.0059554
1.0000809
1.0050013
1.0096345
0.99896441
0.99725093
1.0080402
1.0129992
1.0005259
0.98905161
0.99922106
1.0187237
1.0164228
0.99714039
0.98719164
1.0001289
1.003852
1.0039607
0.99962501
0.99128283
0.98277097
0.9826749
0.99381286
1.0120714
1.0252464
1.0254914
1.0113655
0.99250804
0.98467269
0.99293162
1.0084079
1.0157127
1.0056889
0.98483788
0.97328064
0.98381855
1.0102812
1.0343535
1.0210255
1.0164276
1.0073889
0.99646737
0.9894318
0.98911079
0.99373126
0.99898592
1.001093
0.99702496
0.98883075
0.98567928
0.99328804
1.0107997
1.0287698
1.0334465
1.0189574
0.9923878
0.97067541
0.96888669
0.98584237
1.0104696
1.0255212
0.99538271
0.99306373
0.9973693
1.0080794
1.0201019
1.0266829
1.0248686
1.0115639
0.99134162
0.97325247
0.96865895
0.97829426
0.99732817
1.0149585
1.0209715
1.0122299
0.9977259
0.99026781
0.99554441
1.0098095
1.0228307
1.0200842
0.9990301
0.96588546
0.97603535
0.99368285
1.0114844
1.0239811
1.0264916
1.0158747
1.0017637
0.99241142
0.99376845
1.0043591
1.0151788
1.0182225
1.0064437
0.98254902
0.96156554
0.95853932
0.97819398
1.0126746
1.044651
1.0532076
1.0321932
0.99518591
0.99889587
1.005675
1.0061449
0.99963729
0.98683404
0.97378063
0.96749098
0.97318362
0.99263878
1.0197508
1.0418447
1.0488241
1.0355249
1.0054541
0.97303876
0.95748165
0.96280429
0.98478757
1.0085982
1.0229553
1.0168626
0.9991949
0.98638913
1.0426453
1.0314572
1.0127111
0.99160955
0.97300762
0.9625051
0.96460918
0.97809202
0.99632712
1.0111371
1.0171589
1.0113574
0.99900739
0.99075004
0.99397372
1.0080927
1.0248221
1.0308507
1.0221851
0.99339543
0.95820969
0.94004362
0.94863885
1.0049857
1.0001549
0.99815813
0.99929616
1.0055968
1.01651
1.0258852
1.0276222
1.0151801
0.99072985
0.96460081
0.94465336
0.94340196
0.96153191
0.99616872
1.0369327
1.0676149
1.0705877
1.0430827
0.99669241
0.95487571
0.93626325
0.94318382
0.94851616
0.95403171
0.9723334
1.0033652
1.0359012
1.0598486
1.0655077
1.0506356
1.0221588
0.99121117
0.96250003
0.94756391
0.9493099
0.96629954
0.99173773
1.0136539
1.0269118
1.0228724
1.0096508
0.99767309
0.99440988
0.99629535
1.0053712
0.95725236
0.97302069
0.99242195
1.005928
1.0103312
1.0085042
1.004707
1.0010042
0.99920113
0.99821035
1.0046791
1.0146716
1.0263301
1.0304502
1.0176574
0.98964411
0.95908122
0.93610042
0.93480184
0.9555122
0.99499265
1.0412857
1.0797425
1.0442927
1.0392228
1.0199994
0.9930961
0.96604501
0.94383914
0.93012896
0.92969649
0.94676009
0.98287005
1.0323983
1.0764356
1.097774
1.0872186
1.0468262
0.99646176
0.94862948
0.91517
0.90598027
0.92344514
0.96599758
1.0209988
1.0714446
1.0934238
1.0677305
1.0299253
0.99121694
0.95766461
0.93330328
0.92202949
0.92671333
0.94720627
0.97998101
1.015542
1.046041
1.0662475
1.062246
1.0440432
1.0149812
0.98202352
0.96018466
0.95410766
0.96420858
0.98004636
0.99576587
1.0046329
1.0217348
1.017142
1.0157581
1.0095571
0.99812907
0.98628703
0.98372177
0.9916113
1.0035
1.0077125
0.99918779
0.98148698
0.96585998
0.96352608
0.97381267
0.99508428
1.0174312
1.0337881
1.0454371
1.0474296
1.0360373
1.0087415
0.97105076
0.93376471
0.94296239
0.96301695
0.9950137
1.0323367
1.0670262
1.088634
1.0900624
1.0654986
1.0265595
0.98244272
0.94177301
0.91194704
0.89696778
0.90530354
0.93818161
0.99342641
1.0593405
1.1138531
1.1306155
1.1006613
1.0404947
0.973
0.89336327
0.90612064
0.93398496
0.97743896
1.0347084
1.0954833
1.1392756
1.1445247
1.106296
1.0434043
0.9819481
0.93324043
0.9015427
0.88744304
0.89054312
0.91733585
0.9662408
1.0332521
1.0999972
1.138434
1.1269998
1.0712467
1.0010177
0.90440905
0.92064053
0.94868138
0.98779027
1.030433
1.0700867
1.0972295
1.1037984
1.0848826
1.0473017
1.0033953
0.96037884
0.93015847
0.91579786
0.91956831
0.94023253
0.97083158
1.0106138
1.0501654
1.0765997
1.0820749
1.0660664
1.0293959
0.95214629
0.96793121
0.98980846
1.0089484
1.0182024
1.0187879
1.0182089
1.0197303
1.0252389
1.0273728
1.0197826
1.0018355
0.98106582
0.96818228
0.97032845
0.9828659
0.99471462
0.99968994
1.0007687
1.0035398
1.0115904
1.0192645
1.0240528
1.0188759
1.0227887
1.0234038
1.0151092
0.9972389
0.97385276
0.95618269
0.95439313
0.96882046
0.99418612
1.0189893
1.0324631
1.0321446
1.0283286
1.0269337
1.0233662
1.0114816
0.99215105
0.96638288
0.94755719
0.95234515
0.97311244
1.0019129
1.075362
1.0668041
1.0453006
1.0149464
0.97751601
0.94202059
0.91828291
0.91378055
0.93189649
0.96664003
1.0093217
1.0462109
1.0690627
1.0781171
1.0734535
1.0543357
1.0227155
0.98415916
0.9440941
0.91730072
0.91521006
0.93910024
0.98028103
1.113029
1.0931029
1.0551594
1.0102003
0.96292323
0.92363331
0.89783783
0.89368812
0.91204027
0.95057451
1.002425
1.0525579
1.0921057
1.1118421
1.1043344
1.0720881
1.0262045
0.97404998
0.92806914
0.89821571
0.89558121
0.92162612
0.97198534
1.1238393
1.1007207
1.0588331
1.0101177
0.95799127
0.91707359
0.89103595
0.88564906
0.90527285
0.94640537
1.0042893
1.0616217
1.1059223
1.125837
1.1140776
1.0738998
1.0220616
0.96519631
0.91749748
0.88862365
0.88865114
0.91975428
0.97541671
1.1063427
1.0897488
1.0543612
1.0103456
0.96232334
0.92241969
0.8971993
0.89444116
0.91485703
0.95665576
1.0120554
1.0648157
1.1043575
1.1188043
1.1027761
1.0627411
1.0120976
0.95615813
0.91029225
0.88751728
0.89517629
0.93333353
0.99272505
1.0549816
1.0553846
1.0425309
1.0163693
0.97913653
0.9425088
0.91931164
0.91904386
0.94281714
0.98284127
1.0268896
1.0608196
1.0800653
1.0848817
1.0724631
1.0408535
0.99757144
0.95111731
0.9152964
0.90207645
0.92051409
0.96682101
1.0219911
0.97933172
0.99644214
1.0123477
1.0165757
1.00687
0.98510806
0.97019666
0.97292457
0.99221772
1.0169018
1.0309489
1.0324862
1.0266084
1.0259316
1.0272391
1.0185472
0.99405453
0.96108409
0.94006081
0.94148082
0.9715764
1.0116392
1.0410092
0.90020921
0.92712192
0.96502723
1.0075632
1.038482
1.0571398
1.0653833
1.062738
1.0509093
1.0303187
0.99983571
0.97208448
0.95594692
0.95888756
0.97719444
0.99311774
1.0004045
0.99777324
1.0001511
1.0162276
1.0280861
1.0283403
1.0134313
0.84731847
0.87430819
0.92355314
0.99168546
1.0732986
1.1485395
1.1824763
1.1540099
1.0787203
1.0025781
0.94171898
0.90155871
0.88635752
0.89547087
0.93016944
0.98253637
1.0376808
1.0824989
1.1030289
1.0847105
1.0430926
0.99370101
0.94297084
0.86000829
0.88308874
0.9342299
1.0105584
1.1009872
1.1855274
1.2165951
1.1615271
1.0606426
0.9655803
0.89564154
0.8532877
0.83984702
0.85974199
0.91833038
1.01366
1.1202226
1.1850292
1.1629251
1.0847552
0.99491796
0.92142395
0.87234933
0.96915489
0.97230498
0.99316623
1.0238499
1.0523725
1.0790353
1.0891692
1.0688078
1.0183506
0.95396421
0.89194939
0.85753369
0.86161502
0.90691427
0.9856435
1.0829806
1.1645458
1.1813792
1.113846
1.0144126
0.92649957
0.87166765
0.85423003
1.105969
1.0579888
1.0076939
0.97513811
0.94846587
0.93911183
0.94768729
0.96479553
0.97775216
0.97705236
0.96549968
0.96473093
0.98391429
1.0185198
1.0485752
1.0668312
1.0664988
1.0445837
1.0069732
0.95909162
0.91338239
0.89576065
0.91948463
1.0834516
1.054381
0.99345396
0.94141994
0.90418495
0.88889072
0.89756606
0.92898207
0.98132894
1.0409878
1.0909999
1.1038934
1.0806145
1.0394647
0.99527038
0.95353941
0.92898358
0.92762129
0.94177891
0.96706506
1.0041298
1.0359961
1.0523613
0.97572526
0.99214535
0.99808591
0.98284189
0.96281825
0.94903297
0.9540978
0.9792537
1.0175072
1.0616654
1.0919875
1.0887933
1.0488002
0.98769923
0.92779134
0.88966154
0.88337404
0.90956045
0.96906916
1.0471113
1.1121419
1.1314388
1.087364
0.94004236
0.95894757
0.99347939
1.0274015
1.0468967
1.0433012
1.0278905
1.0119901
0.99754254
0.98623739
0.98247691
0.98533788
0.98327931
0.9707159
0.95412929
0.94651863
0.9559702
0.98305125
1.0190696
1.0502882
1.0561776
1.0426944
1.019426
0.98645832
0.98006565
0.98849267
1.008518
1.0278556
1.0405112
1.0326104
1.0019657
0.96251482
0.93261555
0.92130201
0.93026889
0.96267271
1.0108022
1.051176
1.0646491
1.052061
1.0196362
0.98028017
0.94758501
0.93653084
0.93861619
0.95920158
1.0270274
1.0089395
0.98384039
0.96486363
0.96279782
0.976322
0.99186564
0.99847089
0.98892199
0.97035953
0.95858219
0.96375715
0.98804546
1.0250573
1.0585077
1.0658593
1.040031
0.99307829
0.945805
0.91484872
0.90915188
0.92925498
0.96303479
0.9991794
1.0052722
0.99525952
0.97330963
0.95641455
0.95495947
0.97179168
1.0004398
1.029268
1.0395606
1.0277984
1.0057064
0.98741481
0.9771942
0.97547527
0.97772058
0.97991881
0.98281002
0.99188673
1.0042588
1.0117156
1.0031168
0.97683234
0.96574195
0.9807506
1.0047694
1.0172296
1.006396
0.98796024
0.98082476
0.98824984
1.0047415
1.0204975
1.0221529
1.005828
0.97728612
0.95106976
0.93722044
0.94106971
0.96409752
1.0002313
1.0396114
1.0687582
1.0723209
1.0470121
0.99887747
0.98187727
0.98005326
0.9928841
1.0137727
1.0228911
1.0136352
0.99516036
0.9778111
0.9676401
0.96903736
0.98001586
0.99357806
1.0017861
1.0009117
0.99269319
0.98143142
0.97355793
0.97682602
0.98613926
0.98901441
0.99013256
0.99210652
1.0064951
1.0060724
0.99362616
0.98274363
0.98152993
0.99067819
1.0013314
1.0017672
0.99254264
0.97711475
0.9643605
0.95889242
0.96637699
0.98553108
1.0072944
1.0231131
1.0279725
1.021135
1.007757
0.98837104
0.96660494
0.94763185
0.93694094
0.95184135
1.0003127
0.99885535
0.98700643
0.97240019
0.96534707
0.9701587
0.9839357
0.99786512
1.0054805
1.0024574
0.99267164
0.98332897
0.98022919
0.98533221
0.99420773
1.0005593
1.0032182
1.0027453
0.99906819
0.99160039
0.97974934
0.96809986
0.97381824
0.9737295
0.98423811
0.99485942
0.99483046
0.98525478
0.97573094
0.97469909
0.98437779
0.99939178
1.0106256
1.013347
1.0071606
0.99698676
0.98814814
0.98001377
0.97142323
0.96440002
0.96216659
0.96983766
0.98581634
1.000815
1.0097161
1.0132007
0.96890119
0.97361708
0.98789108
1.0031745
1.0075074
0.99919589
0.98721885
0.98021848
0.97991433
0.98422627
0.9876156
0.98796327
0.98785713
0.98873918
0.98998437
0.98766065
0.97904571
0.96948579
0.96621556
0.97501468
0.99405264
1.0096998
1.0089143
0.9921683
0.98424111
0.98166136
0.98369516
0.98852202
0.9913932
0.98756273
0.98206737
0.98029797
0.97955604
0.97689951
0.97224303
0.96865857
0.97222722
0.98413198
0.99893174
1.0072798
1.0041264
0.99481325
0.98890231
0.99186663
1.0008665
0.99420775
0.99433492
0.98851553
0.98001423
0.97442658
0.97284848
0.97272509
0.97374157
0.97741259
0.98319579
0.99104047
0.99677537
0.99421341
0.98489114
0.97658829
0.9767071
0.9863941
0.99859953
1.0024453
0.99497779
0.9846003
0.97988034
0.9852689
0.98527463
0.98168927
0.97953109
0.97795506
0.97948649
0.98259842
0.98447409
0.98209682
0.9785075
0.97871087
0.9853079
0.994788
1.0015731
1.000192
0.99041042
0.9812487
0.97950173
0.98353573
0.98670868
0.98185953
0.97141154
0.96459526
0.96780819
0.98037273
0.98875627
0.98277574
0.9778107
0.97778596
0.98394022
0.99227438
0.99570833
0.98991257
0.97846791
0.97158106
0.97404856
0.98076744
0.9859857
0.98592927
0.98101774
0.97821726
0.98094131
0.9862748
0.98816513
0.9831147
0.97704686
0.97709382
0.9849638
0.99911321
0.9934349
0.98383479
0.97663771
0.97606713
0.981718
0.98868192
0.99084981
0.98578147
0.97858952
0.97455821
0.9775117
0.98283878
0.98580355
0.98444797
0.98100241
0.98146501
0.98629012
0.99165091
0.99342096
0.99009705
0.98758592
0.98823404
0.98736033
0.98961474
0.98930913
0.98601742
0.98308644
0.98293577
0.98463828
0.9866334
0.98652195
0.98464639
0.98421194
0.98672804
0.99173774
0.99553292
0.9946161
0.98956864
0.98433997
0.98288444
0.98448566
0.98613571
0.98483229
0.98120137
0.97878381
0.98533287
0.98835133
0.99224805
0.99496147
0.99563974
0.99440257
0.99216268
0.99010793
0.98786924
0.98584241
0.98503038
0.98559378
0.98776928
0.99034513
0.9906072
0.9878089
0.98366966
0.98084865
0.98140369
0.9832964
0.98427616
0.98278315
0.97982575
0.99090503
0.9916389
0.9935892
0.99532901
0.99505119
0.99302527
0.99060247
0.98908166
0.98872333
0.98942231
0.99025759
0.99007857
0.98899609
0.98787846
0.98683774
0.98568222
0.98434043
0.98442574
0.98605936
0.98859386
0.9902571
0.98971399
0.98739048
0.9953436
0.99550493
0.9957429
0.99527532
0.99321371
0.99017257
0.98725699
0.98613328
0.98766663
0.99133692
0.99504501
0.99681154
0.99569454
0.99318658
0.99056822
0.98907152
0.98908627
0.98970168
0.9905624
0.99066217
0.98921818
0.9863601
0.98285678
0.99180646
0.99197352
0.99285581
0.9940623
0.99501749
0.99541374
0.99493308
0.99439444
0.99478159
0.99596972
0.99644273
0.99577597
0.99297654
0.98935403
0.98683297
0.98620369
0.98789628
0.98981474
0.99143628
0.991202
0.98926667
0.98649336
0.98358881
0.99766318
0.99594945
0.99409705
0.99297149
0.99273461
0.99328282
0.99415649
0.99474351
0.99463503
0.99430427
0.99359897
0.99205852
0.9903838
0.98877219
0.98905647
0.99130002
0.99366876
0.99576859
0.99528972
0.99298141
0.99019629
0.98818226
0.98741943
0.99415176
0.99408115
0.99372607
0.99349202
0.99363066
0.99413447
0.99464605
0.99474415
0.9945422
0.99420698
0.9936534
0.99326733
0.99274017
0.99273118
0.99334329
0.99528291
0.99670295
0.99662423
0.9941677
0.98964675
0.98579385
0.98428066
0.98534268
0.99432911
0.99416336
0.9941921
0.9945227
0.99524685
0.99565105
0.99581891
0.99533715
0.99397636
0.99361846
0.99339928
0.99402602
0.99481907
0.99470354
0.99437732
0.9932384
0.99292136
0.99175649
0.9908428
0.98947197
0.98865429
0.98949318
0.99199264
0.99525192
0.99507621
0.99455481
0.99411098
0.99402052
0.99440664
0.99468181
0.99495765
0.9941021
0.99307562
0.99302432
0.99316302
0.99502574
0.99554986
0.99584502
0.99432069
0.99296051
0.99173758
0.99161349
0.99214397
0.99273009
0.99379043
0.99488759
0.99430544
0.9946212
0.99493692
0.99459151
0.99410223
0.99380002
0.9941856
0.99492188
0.99569571
0.99531049
0.99495842
0.99414607
0.99403255
0.99446736
0.99407219
0.99386496
0.99274418
0.99254326
0.99310012
0.99432702
0.99522699
0.99485773
0.99354639
0.9935544
0.99415205
0.9951496
0.99575044
0.99566357
0.99480748
0.99421956
0.99398244
0.99441019
0.99493484
0.99483205
0.9947032
0.99408295
0.99431104
0.99440918
0.99447911
0.9942707
0.99363273
0.9935991
0.99381567
0.99423212
0.99390034
0.99268234
0.99501567
0.99463679
0.9944567
0.99448358
0.99448152
0.99439314
0.99406894
0.99415452
0.99442577
0.99496768
0.99526155
0.99502685
0.99454272
0.99395539
0.99408433
0.99435843
0.99479825
0.99482296
0.99420077
0.99380785
0.99332476
0.99323185
0.99287315
0.99493278
0.99453653
0.99403437
0.99378343
0.99402571
0.99448412
0.99492718
0.9949586
0.99476014
0.99448239
0.99441416
0.99445294
0.99442585
0.99432928
0.99420085
0.9943129
0.99442249
0.99467688
0.9944912
0.99407402
0.99359817
0.99345931
0.99354736
0.99414477
0.99421829
0.99419335
0.99407222
0.99415862
0.99442921
0.99471204
0.99478904
0.99448521
0.99407089
0.99375805
0.99390814
0.99435949
0.99476563
0.99485832
0.99462419
0.9943093
0.99402193
0.99395475
0.99387671
0.99388477
0.9938908
0.9940788
0.99365277
0.99392702
0.99420821
0.99435961
0.99428311
0.99411254
0.99392321
0.99391271
0.99402846
0.99414142
0.99418657
0.99424735
0.99430347
0.99435641
0.99427929
0.99409016
0.99388871
0.99375625
0.99383622
0.9940864
0.99426538
0.99418723
0.99404452
0.99369939
0.99369355
0.99379509
0.99390032
0.99394931
0.99383378
0.99369115
0.9936064
0.99372197
0.99392859
0.99414708
0.99421318
0.99405478
0.99385449
0.99366115
0.99366546
0.99379417
0.99398564
0.99414736
0.99416114
0.9940492
0.99379801
0.99363521
0.99380032
0.99354653
0.99333232
0.99324851
0.99332013
0.99348662
0.99365644
0.99377508
0.99380261
0.99373189
0.99365222
0.99360781
0.99356615
0.99353661
0.99357172
0.99370357
0.99385452
0.99395921
0.99389274
0.99368521
0.99351368
0.99345401
0.99362469
0.99327911
0.99323418
0.99321398
0.99329144
0.99339041
0.99343541
0.99343234
0.9934293
0.99341166
0.99335996
0.9932712
0.99324493
0.99335468
0.99352262
0.99363746
0.9936345
0.99356584
0.99348208
0.99341704
0.99337562
0.9934124
0.99351448
0.99370916
0.99310132
0.99308203
0.99318776
0.99336714
0.99337746
0.99321571
0.99299957
0.99300825
0.99313552
0.99327395
0.99332056
0.99328184
0.9932377
0.9932479
0.99328486
0.99326225
0.99319313
0.99315166
0.99321019
0.9933305
0.99343305
0.99346088
0.99345611
0.9930858
0.99300027
0.99312409
0.9932703
0.99315322
0.9929625
0.99291071
0.99304199
0.99317474
0.99317552
0.99309478
0.99306699
0.99307667
0.99306017
0.99301408
0.9929767
0.99298005
0.99304556
0.99313825
0.9932137
0.99319532
0.99308852
0.99301139
0.99312348
0.99286462
0.99302591
0.99310499
0.99292368
0.9927918
0.99295102
0.99320654
0.99320526
0.99291877
0.992695
0.99280782
0.99303091
0.99307124
0.99293754
0.99283066
0.9928869
0.99296949
0.9929565
0.99291997
0.99291064
0.99284043
0.99277307
0.99288108
0.99280691
0.99317996
0.99323645
0.99282667
0.99256611
0.99281584
0.99325792
0.99327604
0.99278397
0.99245396
0.99269076
0.9930723
0.99311428
0.99279483
0.99265057
0.99286319
0.99296131
0.99270278
0.99249486
0.99263992
0.99286651
0.9927994
0.99255375
0.99280296
0.99349381
0.99357031
0.99292926
0.99233985
0.99255444
0.9932497
0.99340866
0.9927961
0.99231682
0.99258489
0.99320834
0.99326784
0.99261935
0.9922595
0.99263298
0.9930622
0.9927871
0.99219949
0.99224018
0.99282799
0.9930155
0.99254281
0.99285851
0.99359811
0.9937016
0.99296793
0.9922002
0.99238595
0.99320263
0.993542
0.99299057
0.99227112
0.99240552
0.99318961
0.99337027
0.99261884
0.99191527
0.99221843
0.99303682
0.99311046
0.99233785
0.99186512
0.99230293
0.99285883
0.99271637
0.99292671
0.99353776
0.99353718
0.99285335
0.99222612
0.99246007
0.99327286
0.99361381
0.99302364
0.99219492
0.99226084
0.99308436
0.99344757
0.99270778
0.99174172
0.99189691
0.99288185
0.99328465
0.99252233
0.99165055
0.99187335
0.9927161
0.99282752
0.99307617
0.99340228
0.99327585
0.99286242
0.99250955
0.99269716
0.99329581
0.99347904
0.99301001
0.99232326
0.99217644
0.99274548
0.99320765
0.9929175
0.99217987
0.9919283
0.99237289
0.99276427
0.99256738
0.99211146
0.99195619
0.99219536
0.99307932
0.9930986
0.99318905
0.99318917
0.99308459
0.99284467
0.99287746
0.99318963
0.99338216
0.99322248
0.99251028
0.99209278
0.9924737
0.99293602
0.99305488
0.99252237
0.99205047
0.99229566
0.99256239
0.99240086
0.99184355
0.99181521
0.9923142
0.99296127
0.99320106
0.99362954
0.99351577
0.99317007
0.99298261
0.99298164
0.99315224
0.99318929
0.99298708
0.99278568
0.99261691
0.99254688
0.9927295
0.9929056
0.99272162
0.99235506
0.9921795
0.9923667
0.99237244
0.99195197
0.99162118
0.99194939
0.99353535
0.99321277
0.99333234
0.99358031
0.99361846
0.99338471
0.99316803
0.99298619
0.99286258
0.99302399
0.99311341
0.99311286
0.99300847
0.99271135
0.99270585
0.99259695
0.99242201
0.99237262
0.99243973
0.99246016
0.99203773
0.99160159
0.99162432
0.9936998
0.99352422
0.99356555
0.99359348
0.99365332
0.99362585
0.99328304
0.99299277
0.99302764
0.99327788
0.99355065
0.99344175
0.99298928
0.99258195
0.99264637
0.99294596
0.99276017
0.99232869
0.99216196
0.99244258
0.99246013
0.99180072
0.99135951
0.99361313
0.99375604
0.99401037
0.9939656
0.99364234
0.99333088
0.99330496
0.99350213
0.99361285
0.99348691
0.99340934
0.99338451
0.99327657
0.99300349
0.99270186
0.9927096
0.99303595
0.99295979
0.99250648
0.992171
0.99215118
0.99213218
0.99185098
0.99341616
0.99389525
0.99446786
0.99450217
0.99399503
0.99358167
0.9933552
0.99348559
0.99359628
0.99369937
0.99381357
0.99356088
0.99340806
0.99345427
0.99304433
0.99273623
0.99278147
0.99279926
0.9929081
0.99261813
0.99238269
0.99225699
0.99220868
0.99372456
0.99421794
0.99480694
0.99478033
0.99413256
0.99327033
0.99331188
0.99389722
0.99416298
0.99429542
0.99383289
0.99308921
0.99342746
0.99389544
0.99372884
0.99338338
0.99255725
0.99233808
0.99295103
0.99315757
0.99307427
0.99251849
0.9919577
0.99394088
0.99468994
0.99508008
0.99469759
0.99357834
0.99331298
0.99412244
0.99464489
0.99463644
0.99438899
0.99354573
0.99318752
0.99376789
0.99402748
0.99386102
0.99346404
0.99275563
0.99285205
0.99337352
0.99335054
0.99317366
0.99252711
0.99231386
0.99430032
0.99485732
0.99524224
0.99467071
0.99390141
0.99418254
0.99434755
0.99424617
0.99477747
0.99496286
0.99428346
0.99372471
0.99330557
0.99339016
0.99419663
0.99433115
0.99360338
0.99310773
0.99294069
0.99345014
0.99341738
0.99294176
0.99253309
0.99438664
0.99539296
0.99579402
0.99490957
0.99408318
0.99405654
0.99432428
0.99533306
0.99612101
0.99493832
0.99334643
0.99325839
0.99391793
0.99478444
0.99491387
0.99395214
0.99364036
0.99334961
0.99354871
0.99384246
0.99376179
0.99316258
0.99277262
0.99503229
0.99576342
0.9959003
0.99518634
0.99469587
0.9951756
0.9955126
0.99503851
0.99486497
0.99497483
0.99523503
0.99507992
0.99389756
0.99379022
0.994844
0.99501558
0.99451713
0.99387235
0.99338158
0.99374752
0.99396909
0.99407525
0.99341077
0.99626526
0.99577477
0.99592423
0.99662311
0.99566547
0.99472045
0.99516001
0.9958041
0.99658121
0.99606716
0.99475069
0.99455875
0.99427609
0.99514488
0.99595165
0.99525718
0.99450695
0.99393713
0.99429356
0.99427191
0.99434775
0.99416458
0.99395146
0.99730791
0.99691394
0.99567056
0.99539908
0.9968711
0.9971852
0.99609802
0.99562116
0.99606127
0.9967693
0.99656797
0.99569299
0.99476019
0.99430175
0.99561533
0.99672499
0.99599812
0.99443817
0.99384996
0.99480791
0.99514891
0.99499412
0.99389429
0.99677094
0.99765114
0.99827606
0.9971831
0.99570225
0.99568367
0.9972813
0.99844235
0.99743765
0.99605012
0.996005
0.99626956
0.99628686
0.99562189
0.99547918
0.99644423
0.99686141
0.99632258
0.99502757
0.99417419
0.994864
0.99585526
0.99615843
0.99969631
0.99658324
0.99555966
0.99755127
0.99920163
0.99813943
0.99639741
0.99644532
0.9977899
0.99856173
0.99769562
0.99596662
0.99549571
0.99623482
0.99716025
0.99769327
0.99720189
0.99618528
0.99519133
0.99509489
0.99604363
0.99634225
0.99526374
0.9989616
0.99888523
0.99644423
0.99549254
0.9976413
0.99989214
0.99940947
0.99731957
0.99619235
0.99737893
0.99879599
0.99774083
0.99601183
0.99611394
0.99754396
0.99842381
0.9972955
0.99581768
0.99642357
0.99679551
0.9960231
0.99540546
0.99642416
0.99673988
0.99890214
0.99984302
0.99785941
0.99581189
0.9964623
0.99897256
1.0002467
0.99860132
0.99594522
0.99583633
0.99788445
0.99914576
0.99797346
0.99595275
0.99620724
0.99831343
0.9985235
0.99675896
0.99559303
0.99568235
0.9965104
0.99778252
0.99867625
0.99657678
0.99675337
0.99833578
0.99889604
0.99790051
0.99669616
0.99708528
0.99839327
0.9985264
0.99757153
0.99676053
0.99704326
0.99776895
0.9976187
0.99697005
0.99723803
0.99768277
0.99688949
0.9961202
0.99658585
0.99663828
0.99575307
0.99694561
0.99792629
0.99683581
0.99639656
0.99761788
0.99890141
0.99821185
0.99622416
0.99570373