/*--------------------------------*- C++ -*----------------------------------*\
| =========                 |                                                 |
| \\      /  F ield         | OpenFOAM: The Open Source CFD Toolbox           |
|  \\    /   O peration     | Version:  2406                                  |
|   \\  /    A nd           | Website:  www.openfoam.com                      |
|    \\/     M anipulation  |                                                 |
\*---------------------------------------------------------------------------*/
FoamFile
{
    version     2.0;
    format      ascii;
    arch        "LSB;label=32;scalar=64";
    class       surfaceScalarField;
    location    "150";
    object      phi;
}
// * * * * * * * * * * * * * * * * * * * * * * * * * * * * * * * * * * * * * //

dimensions      [1 0 -1 0 0 0 0];

oriented        oriented;

internalField   nonuniform List<scalar> 
40800
(
0.00079907528
0.0011135807
-0.001441341
0.00089194979
0.00097032771
-0.0011232144
0.00097101313
0.00095980947
-0.00092499046
0.0010238227
0.00095222596
-0.0011195719
0.0010876501
0.00077930396
-0.00073510128
0.0011383841
0.00082953447
-0.00087741679
0.001189763
0.00075662767
-0.00080235641
0.001225616
0.00072401585
-0.00086264242
0.0012720588
0.00066054481
-0.00064079573
0.0013153241
0.00065406182
-0.00067483777
0.0013480347
0.0006571455
-0.00073275606
0.0013824815
0.0005799706
-0.00059472863
0.0014259577
0.00057253257
-0.00059212205
0.0014636127
0.00064282032
-0.00067409903
0.0014845435
0.00058880153
-0.00062656203
0.0015407016
0.00059466415
-0.00060693554
0.0015969184
0.00078557244
-0.0008288168
0.0015622326
0.00063338169
-0.00071930297
0.001674815
0.00063736303
-0.00063519626
0.0017482679
0.00096037804
-0.0010159923
0.0017068849
0.00085081451
-0.00096988403
0.0017855376
0.00078506442
-0.00086578807
0.0019439887
0.001087887
-0.0011586525
0.0019882433
0.00117722
-0.0013326405
0.0018870942
0.0010303094
-0.0011670223
0.0020722303
0.0010047667
-0.001029082
0.002238476
0.0012134688
-0.0012185677
0.0022280917
0.0015701212
-0.0015996095
0.0024373484
0.0016799637
-0.001759913
0.0027012979
0.00144992
-0.0016820797
0.0013891473
0.0024527076
-0.0016755525
0.00079712387
0.00077160201
0.00088842485
0.0008020978
0.000967697
0.00099772778
0.0010218093
0.00076269805
0.0010898834
0.00083554797
0.0011372588
0.00076891646
0.001186874
0.00071023315
0.001222789
0.00057800432
0.0012713608
0.00067511903
0.001311243
0.00062110604
0.0013411764
0.00056795409
0.0013783187
0.00056770219
0.0014239258
0.00056050358
0.0014540232
0.00060626074
0.0014769963
0.00055513693
0.001544868
0.00058769091
0.0015690427
0.00070900051
0.0015510654
0.00057247215
0.0016967214
0.00067177619
0.0017103463
0.00086569815
0.0016728709
0.0007126859
0.0018041227
0.00075511218
0.0019125691
0.0009972355
0.0019185446
0.00098817288
0.0018425496
0.00094577151
0.0020874111
0.0010642711
0.0023583386
0.0012390177
0.002278407
0.0014746434
0.0022774006
0.0015817579
0.0025548091
0.001308092
0.0011245074
0.0026537848
0.00079789729
0.00053571035
0.00088650939
0.00065160857
0.00095966312
0.00098972963
0.0010173612
0.00061271055
0.0010855583
0.00086162945
0.0011317509
0.00068546581
0.0011785444
0.0006722108
0.0012195962
0.00049805894
0.0012651463
0.00064617619
0.0013027124
0.00057450235
0.0013345998
0.00050745202
0.0013723965
0.00054997833
0.0014196052
0.0005587675
0.0014434142
0.00056219756
0.0014699879
0.00053108781
0.0015405987
0.00059143522
0.0015410207
0.00061127155
0.001547594
0.00052015231
0.0016997407
0.00072124792
0.0016655324
0.00076170021
0.0016516706
0.00059821692
0.001811969
0.00074227269
0.00186573
0.0009338997
0.0018734529
0.00082501539
0.0018361839
0.00086137405
0.0020705402
0.001151648
0.0023860081
0.001277683
0.0023096759
0.0012978561
0.0021537513
0.0013964339
0.0023714997
0.0013168284
0.0010510316
0.0027380794
0.00079759642
0.00047397988
0.00088432701
0.00054966556
0.00094858891
0.00090787643
0.001009696
0.00054980942
0.0010732124
0.00082115368
0.0011212811
0.00058138308
0.0011664737
0.00061320732
0.0012147758
0.00050648997
0.0012536932
0.00057724797
0.0012914359
0.00053503261
0.0013275213
0.0004846235
0.0013637777
0.00050685753
0.0014094843
0.00054584169
0.0014304952
0.00049752925
0.0014636887
0.00050922245
0.0015287854
0.00059399539
0.0015169391
0.00051900276
0.0015531361
0.00048026168
0.0016864027
0.00075761263
0.001625185
0.00066332376
0.0016479523
0.00053863211
0.0018166436
0.00076334642
0.0018097338
0.0009057154
0.0018444903
0.00072094017
0.0018732668
0.00077611999
0.0020286333
0.0011825337
0.0023225408
0.0012838382
0.0023038128
0.0010787353
0.0020937315
0.001102329
0.0021978489
0.001306922
0.001243341
0.0026667494
0.00079942021
0.00056510138
0.00088241874
0.00050787408
0.00093814303
0.00076211107
0.0010019265
0.00057146408
0.0010539839
0.00070183491
0.001105535
0.00049408989
0.0011510807
0.00053622147
0.0012037178
0.00055741111
0.0012375806
0.00050055577
0.0012762936
0.00050495178
0.0013142146
0.00047277523
0.0013510507
0.00045500937
0.001391891
0.00052824982
0.001414929
0.00043724839
0.0014544556
0.0004709548
0.0015067014
0.00057578056
0.0014967758
0.00044825808
0.0015635038
0.00046708483
0.0016575581
0.00075673715
0.0015939535
0.00057174075
0.0016583172
0.00051156402
0.0018233329
0.00080452082
0.0017561046
0.00088268669
0.001818197
0.0006856312
0.001939667
0.00071753605
0.0019968315
0.0011136314
0.0021676937
0.0012425116
0.0022490591
0.00088189316
0.0021321126
0.00078406477
0.0021202367
0.0011501512
0.0014600937
0.0024836573
0.00080545722
0.00073078038
0.00088026612
0.00051809862
0.00092940528
0.00059704503
0.00099228118
0.00063726723
0.0010332318
0.0005436469
0.0010872023
0.00045312921
0.0011336973
0.00046837384
0.0011838626
0.00058255995
0.0012177643
0.00043922454
0.0012561919
0.00048083058
0.001293226
0.0004516664
0.0013342681
0.00040810299
0.0013668875
0.00048380988
0.0013959691
0.00038857154
0.0014421621
0.00043304453
0.0014783992
0.00053628193
0.0014794091
0.00040799272
0.0015724487
0.00046978401
0.001618355
0.00070056306
0.0015710184
0.00049518264
0.0016795718
0.00052294336
0.0018236864
0.00080113222
0.0017119818
0.0008151979
0.0018044234
0.0006960253
0.0020068835
0.00070252409
0.0020004352
0.00096639963
0.0019955063
0.0011196132
0.0021281322
0.00080088725
0.0021889129
0.00057040186
0.002185766
0.00089335522
0.0014478216
0.0023160113
0.00081210263
0.0008957465
0.00087710833
0.00055173199
0.00092401906
0.00046871961
0.00098154967
0.00068859007
0.0010176738
0.00040774423
0.0010713493
0.00045677438
0.0011171098
0.00041506892
0.0011595733
0.00053408195
0.0011971572
0.00040608544
0.0012327066
0.00045455114
0.001267164
0.00041155358
0.0013125776
0.00038295526
0.0013368657
0.00041630608
0.0013741246
0.00035467813
0.0014249557
0.00039939703
0.0014468431
0.00046461358
0.0014637327
0.00038239256
0.0015722673
0.00047796238
0.0015723004
0.00060118933
0.0015561296
0.00041610703
0.0016935954
0.000565085
0.0018072545
0.00075727805
0.0016803079
0.00068588861
0.0017779234
0.00069964736
0.002037507
0.00073430958
0.0020195891
0.00080349239
0.0018866196
0.00090105189
0.0020043971
0.00081146116
0.0022312285
0.00057450696
0.0023413117
0.00070458106
0.0011869079
0.0023046724
0.00082524067
0.00097710674
0.00088025721
0.00056580153
0.000928239
0.00042049953
0.00097616532
0.00067533155
0.0010138063
0.00032345052
0.0010628962
0.00048592496
0.0011047921
0.00039498914
0.0011377683
0.0004226247
0.001178669
0.00039351663
0.0012084948
0.00040737812
0.0012416759
0.00035815247
0.0012876203
0.00038126689
0.001305907
0.00033165866
0.00134929
0.00034141097
0.0013999095
0.00037020055
0.0014129033
0.00037809381
0.0014477376
0.0003622311
0.0015569014
0.00049483162
0.0015237283
0.00048553632
0.0015516502
0.00035172699
0.0016868485
0.00058547476
0.0017654978
0.00068806573
0.0016649226
0.00050591522
0.0017472085
0.00064772625
0.0020109646
0.00079890024
0.0020105581
0.00067751126
0.0018349723
0.00065066688
0.0019034131
0.00079718606
0.0022237495
0.00077018221
0.0024557441
0.00069681186
0.00086061008
0.0024150096
0.00085459332
0.0009065358
0.00089116552
0.00053333953
0.00094016669
0.00044855414
0.00097832362
0.00058021262
0.0010209864
0.00030462989
0.0010636945
0.00049749748
0.001101187
0.00040407105
0.0011283925
0.000306389
0.0011668334
0.00038438579
0.0011878843
0.00034995161
0.0012217214
0.00031973936
0.0012609053
0.00037433518
0.0012794703
0.00026231719
0.0013239127
0.00034113327
0.0013697295
0.00035498348
0.0013803858
0.0002967455
0.0014303724
0.00034039427
0.0015247798
0.00050088195
0.0014771664
0.00037341588
0.0015510321
0.00031842999
0.001666211
0.00058488583
0.0016993102
0.0006012991
0.0016603346
0.00032073213
0.0017319296
0.00054792568
0.0019339731
0.00083726377
0.0019774021
0.00061165481
0.0018587226
0.00044433152
0.0018650914
0.00070261958
0.002156145
0.00098655737
0.0024348626
0.00085634717
0.00068509741
0.0024830893
0.0009161364
0.00068198626
0.00092444112
0.00045481795
0.00096803761
0.00050305733
0.00099610962
0.00043996419
0.0010405521
0.00035612739
0.0010734922
0.00045577264
0.0011042767
0.00040057577
0.0011315809
0.00024521797
0.0011644887
0.00036960903
0.0011812702
0.00030327835
0.001214512
0.00031832277
0.0012401437
0.00034011929
0.0012637888
0.00022457062
0.0013027955
0.00033610219
0.0013389222
0.0003447225
0.001353322
0.00024322584
0.0014124508
0.00031929974
0.0014783106
0.00047164557
0.0014359607
0.0002728254
0.0015488208
0.00029442234
0.0016343096
0.00056588116
0.0016136188
0.00052371461
0.0016569809
0.0002102077
0.0017445127
0.00044318443
0.0018347993
0.00080357132
0.0018981033
0.00060295045
0.001900042
0.00031709977
0.001927533
0.00055172496
0.0020834667
0.0010388115
0.002302908
0.0010567448
0.00066490822
0.0024180767
0.00098330338
0.00039286164
0.0009824368
0.00033398789
0.001019566
0.0005290163
0.001043351
0.00030329741
0.0010832156
0.00043309926
0.0011030533
0.000365788
0.0011232373
0.00036721298
0.0011503032
0.00026619457
0.0011718731
0.00034612531
0.0011870929
0.00027343492
0.0012163236
0.00033636877
0.0012303989
0.00028964861
0.0012618707
0.00022535115
0.0012913607
0.00030664721
0.0013141812
0.00032348461
0.0013348995
0.00021913479
0.0013949727
0.00029689912
0.0014250742
0.00040599411
0.0014008149
0.00021164999
0.0015451623
0.00029828793
0.0015927096
0.00050005568
0.0015251501
0.00044551076
0.0016501296
0.00020506379
0.0017767118
0.00036442214
0.0017597411
0.00069035251
0.0017845716
0.00061254805
0.0019040706
0.00030351302
0.0020310219
0.00041966668
0.0020672858
0.00084391275
0.0021276701
0.0010766476
0.00077104465
0.0022222295
0.0009998701
0.00014933111
0.0010332163
0.00018295345
0.0010709881
0.00048734309
0.0011023626
0.00021320776
0.0011418865
0.00046636743
0.0011597836
0.00025482761
0.001175134
0.00030982119
0.0011983438
0.00033754968
0.0012038351
0.00031617027
0.0012141821
0.00028080427
0.0012309986
0.00034206967
0.0012359461
0.00025008725
0.0012687784
0.00025342772
0.0012902585
0.00027154422
0.001302545
0.00028661073
0.0013299216
0.00021833915
0.0013858841
0.00027562841
0.0013838177
0.00032676169
0.0013821488
0.00018973165
0.001530517
0.00034806416
0.0015438158
0.00040505887
0.0014492929
0.00034366621
0.0016314443
0.00027906544
0.0017937226
0.00035152426
0.0017111192
0.00052898622
0.0016814299
0.00055468889
0.0018804257
0.00039649207
0.0020917824
0.00038079765
0.0021080617
0.00054998981
0.0020209378
0.00080942622
0.00076544279
0.0020320587
0.00097623916
2.5699954e-05
0.0010448758
6.4191106e-05
0.0010855366
0.00036834343
0.001130056
0.00019286725
0.0011701322
0.00043615176
0.0012000367
0.00016553899
0.001229161
0.00023281464
0.0012599403
0.00037885105
0.0012637781
0.00027602594
0.0012731404
0.0003222645
0.0012754369
0.00031119451
0.0012751992
0.00021937503
0.0012979043
0.00027669597
0.0013087078
0.00024611559
0.0013087946
0.00024788256
0.0013373782
0.00023799634
0.0013858392
0.0002687719
0.0013632818
0.00024700279
0.0013878384
0.00017518097
0.0015107995
0.00038786693
0.0015080842
0.00031425148
0.0014066657
0.00022545909
0.0015937878
0.00037425662
0.0017744403
0.00042167473
0.0016700946
0.00036553515
0.0015939938
0.0003992142
0.0018094418
0.00050308413
0.0020523011
0.00043565862
0.0020985568
0.00037594128
0.0019465727
0.00039173613
0.00056293836
0.0018902826
0.00093550198
7.4103288e-05
0.0010204994
3.0674566e-05
0.0010713474
0.00023368777
0.0011257225
0.0002392813
0.0011596867
0.00034529703
0.0011981585
0.00014229483
0.0012344597
0.00017429215
0.0012683901
0.00034471305
0.00129031
0.00022943049
0.0013144948
0.00035621842
0.0013237228
0.00024464819
0.0013361873
0.00019725288
0.0013539999
0.00027485113
0.0013607122
0.00022366979
0.0013551535
0.00020722438
0.0013751838
0.00025239982
0.0014066804
0.00027182624
0.0013715271
0.00017148753
0.0014202695
0.00017787373
0.0014957143
0.00040621648
0.0014921317
0.00023734879
0.0014219875
0.00010821499
0.0015748427
0.00042279072
0.0017334867
0.00052215571
0.001642009
0.00022966794
0.0015772062
0.000193391
0.001734053
0.00051797198
0.0019558186
0.00057748952
0.0020109208
0.00032634221
0.0019131093
0.00012536941
0.00025350759
0.0018221058
0.0009040221
0.00024915326
0.00098134935
8.2710505e-05
0.0010309776
0.00016838728
0.0010914117
0.00029921352
0.0011236995
0.00019851676
0.0011731235
0.00017356348
0.0012170141
0.0001660303
0.0012484894
0.00023612816
0.0012823637
0.00019548446
0.0013038628
0.00036867473
0.0013213638
0.00018638377
0.0013509093
0.00018645674
0.0013754721
0.00024308318
0.0013945697
0.00019443003
0.0014044414
0.00015198469
0.0014307041
0.00023757994
0.0014530198
0.00026539956
0.0014223912
0.00012880658
0.0014922866
0.00019161493
0.0015125196
0.00041085646
0.0015051471
0.00019035258
0.0014953952
2.9735598e-05
0.0016000084
0.00039958211
0.0016825689
0.00056668855
0.0016307207
0.00015527182
0.0016359056
4.0907665e-05
0.0017272707
0.00039406885
0.0018531176
0.00067134583
0.0018890483
0.00039805608
0.0018824367
6.3085021e-05
5.4698066e-05
0.0018658584
0.00093165559
0.00044765617
0.00098334204
0.00018812556
0.0010211027
0.00017325111
0.0010658645
0.0003379689
0.0010921821
6.6844937e-05
0.0011403197
0.00021717747
0.0011817211
0.00019660158
0.0012109044
0.00010843177
0.0012584421
0.00017816891
0.0012739888
0.00033392228
0.0013034607
0.00016709969
0.0013386529
0.00017894033
0.0013615971
0.00020892722
0.001383894
0.00017460289
0.0014082931
0.0001122061
0.001441905
0.00020456164
0.0014634795
0.00024116371
0.0014594312
0.00011467247
0.0015571458
0.00018888185
0.0015342981
0.00035191732
0.001524965
0.00016693251
0.001594071
1.7615555e-05
0.0016757824
0.00030754389
0.001652201
0.00050673968
0.0016269893
0.00016691933
0.0017192493
-1.2048533e-05
0.0018148327
0.00022067878
0.0018064735
0.00058224937
0.0017951475
0.00049018733
0.0018499087
0.00015832579
5.6871627e-05
0.0019747739
0.0010043885
0.00054409492
0.0010128731
0.00027320493
0.0010417517
0.00021518901
0.0010716307
0.00031060908
0.0010982693
8.2180127e-06
0.0011381019
0.00022842521
0.0011674205
0.00021372164
0.0011940361
2.6053684e-05
0.0012360192
0.00018458258
0.0012398675
0.00026967036
0.0012759692
0.00018383559
0.0013123347
0.00015104356
0.0013358503
0.00016955394
0.0013594473
0.00014768606
0.0013954941
9.8554029e-05
0.0014289721
0.00016746999
0.0014428594
0.00019611915
0.0014582629
0.00011005634
0.0015685606
0.00019033005
0.001516503
0.0002278423
0.0015145666
0.00014910882
0.0016480582
6.0007066e-05
0.0017245829
0.00021585867
0.00162429
0.00033441727
0.0016217447
0.00018181356
0.0017905441
3.5538264e-05
0.0019258538
0.0001549296
0.0018328508
0.00034024341
0.0017601697
0.00043435708
0.0018526686
0.00029271103
0.00017223464
0.0020662122
0.001045582
0.00044090374
0.0010309169
0.00023667043
0.0010553288
0.00023988905
0.0010742034
0.00020915104
0.001104588
2.4037955e-05
0.0011363494
0.00017633702
0.0011574891
0.00019372975
0.001189738
1.5900225e-05
0.0012322701
0.00018012792
0.0012258716
0.00022425186
0.0012595906
0.0001914851
0.0012901572
0.00011488268
0.0013104963
0.00012343865
0.0013323705
0.00011394578
0.0013743456
0.00010729567
0.001405203
0.00012850853
0.0014123294
0.00012868785
0.0014414118
0.00010409582
0.001545646
0.00020155024
0.0014867097
9.8720186e-05
0.0014849751
0.00011913651
0.0016475733
0.00015861271
0.0017185607
0.00016882798
0.0015863148
0.0001192195
0.0015835943
0.00013550836
0.0018023054
0.00015453667
0.0019560063
0.00019707923
0.0018670408
0.00013519169
0.0017411866
0.00020682304
0.0018349261
0.00030388839
0.0003318469
0.0020761653
0.0010530406
0.00020768624
0.0010333331
0.00010698501
0.0010584508
0.00019632457
0.0010750389
7.9032679e-05
0.0011084102
9.9043731e-05
0.0011344789
7.6866279e-05
0.001153153
0.00011575011
0.0011981691
5.3080483e-05
0.0012205861
0.00015888641
0.0012186223
0.00021277409
0.0012494537
0.00015172796
0.0012813793
9.661474e-05
0.0013000942
8.7646238e-05
0.0013223695
9.1061907e-05
0.001363166
0.00012732376
0.0013879264
9.5657717e-05
0.0013928046
6.3305082e-05
0.0014327606
0.00010100455
0.0015116079
0.00021015387
0.0014697652
-1.2962302e-06
0.0014711254
5.3360446e-05
0.0016222683
0.00026093166
0.0016785289
0.00015900251
0.0015678352
-3.7953462e-05
0.0015626276
2.016421e-05
0.0017823698
0.00030314678
0.0019030094
0.0002753
0.0018528843
5.8088895e-05
0.0017486973
-4.2915056e-05
0.0018104173
0.00017119794
0.00038001229
0.0020205524
0.0010279743
-4.538199e-05
0.0010208718
-5.8831082e-05
0.0010495296
9.0222075e-05
0.0010734614
-2.8017341e-05
0.0011104435
0.00019194138
0.0011366251
-2.2968678e-05
0.0011566112
1.7726004e-05
0.0012013117
0.00010830398
0.0012372249
8.3034822e-05
0.0012239091
0.00025033511
0.0012476867
8.6890687e-05
0.0012785385
0.00010415536
0.0012948289
4.9752267e-05
0.0013192591
6.9024109e-05
0.0013542313
0.00013851647
0.0013751463
7.7207141e-05
0.001384656
1.6038666e-05
0.0014313368
9.1261186e-05
0.0014718276
0.00020540457
0.0014600288
-6.2616529e-05
0.001482596
-9.4405967e-06
0.0015852736
0.00030972801
0.001622359
0.00016910854
0.0015587359
-0.00011686016
0.00159293
-7.0248042e-05
0.0017442548
0.00033130391
0.0018231092
0.00037411102
0.001783606
4.4422202e-05
0.0017713225
-0.00016068208
0.0018225402
-3.4320217e-06
0.00030520814
0.0019457641
0.001016648
-0.00020698966
0.0010378675
-0.00017367348
0.0010654271
-4.3741668e-06
0.0010965322
-8.3163619e-05
0.0011289527
0.00022365737
0.0011577233
-8.5322103e-05
0.0011802313
-3.7872733e-05
0.0012296552
0.00011594546
0.0012370257
2.6189261e-05
0.0012344395
0.00028976816
0.0012634589
2.4680349e-05
0.0012907825
0.00010527151
0.001306686
1.471118e-05
0.0013364541
4.2653355e-05
0.0013613908
0.00012723849
0.0013791489
6.1173101e-05
0.0013958764
-8.5508948e-06
0.0014492559
5.8481809e-05
0.0014432754
0.00017833877
0.0014626542
-7.9288645e-05
0.0015245373
-4.7976789e-05
0.0015616042
0.00024724087
0.0015697269
0.00018717624
0.0015556814
-0.00011973915
0.0016563758
-0.00011388674
0.0017459839
0.00022630026
0.0017376208
0.0003925996
0.0017010431
8.0845793e-05
0.0017732166
-0.0001577899
0.0018768716
-0.00011258501
0.00016260213
0.0019229831
0.0010105943
-0.00018855378
0.0010761127
-0.000174109
0.0011062823
-2.3718376e-05
0.0011426798
-6.3731649e-05
0.0011616282
0.00015590712
0.0011931633
-9.0402224e-05
0.0012114337
-2.9626977e-05
0.0012364416
5.8963319e-05
0.0012865355
-3.3609903e-05
0.0012453563
0.0003462713
0.001281647
-8.1863051e-06
0.0013014769
6.8138017e-05
0.001331513
7.5432937e-07
0.001367149
1.6944997e-05
0.0013880485
7.399052e-05
0.001407616
3.1042581e-05
0.001436319
-1.5201135e-05
0.0014991249
2.3361993e-05
0.0014579581
0.00010237819
0.0015074226
-5.294673e-05
0.001600779
-4.6108896e-05
0.0015977474
0.00012215921
0.001564131
0.00013600731
0.0015951603
-7.0151269e-05
0.0017435954
-8.4637205e-05
0.0018093954
8.6451126e-05
0.0017130385
0.00023591089
0.0016748458
0.0001040503
0.0018064269
-7.9591436e-05
0.0019686404
-8.9688472e-05
4.7988141e-05
0.0019741767
0.0010579938
0.0010586133
0.0011146392
0.0011513347
0.0011805564
0.0011568882
0.0012039474
0.0011631356
0.001162369
0.0014961256
0.0015316456
0.0015420848
0.0015807392
0.0016160281
0.0016256231
0.0016412487
0.0016679214
0.0017296608
0.0016588997
0.0017113844
0.0018205254
0.0017947632
0.001729097
0.0017750111
0.0019391269
0.0020057507
0.0018636683
0.0017901995
0.0019518237
0.0021679132
0.0021874838
-9.8383064e-05
0.0018455735
-0.00018304454
0.0017409887
-0.00016044927
0.0018070197
2.9508534e-06
0.0019532036
0.00027825875
0.0021138437
0.00050133324
0.002161168
0.00052933027
0.0021079337
0.00040200076
0.0019900848
0.00031021156
0.0018848159
0.00040526615
0.0018976159
0.00070009072
0.0019843616
0.0011076689
0.0020725284
0.0012853962
0.0021207313
0.0011037061
0.0021129229
0.00070460722
0.0020446933
0.00042819997
0.0020329345
0.00052999527
0.0021623746
0.0010135637
0.0024535145
0.0015500213
0.0027532834
0.0017338996
0.002848096
0.0015505629
0.0027162056
0.0012373556
0.0024597621
0.0022512151
0.00096874785
0.00011748229
0.0017949809
0.00030017835
0.0017047798
0.00048962763
0.0017161375
0.00055173065
0.0017730253
0.00042175133
0.0018006492
0.00018326029
0.0018016325
-1.6691094e-05
0.0018037119
-0.0001131383
0.0018314371
5.5961433e-05
0.0019381099
0.00044652646
0.0021220937
0.00088757478
0.0022562609
0.0011084438
0.0022656508
0.0010309093
0.0021537167
0.00075242428
0.0020054557
0.00054326564
0.0019146142
0.00066732539
0.0019357674
0.0011005773
0.0020709723
0.0015286458
0.0023070588
0.0016081217
0.0024936355
0.0013151582
0.0025077316
0.00083168335
0.0024050783
0.00057139969
0.0023400886
0.0024199405
0.00084540268
0.00037646572
0.0020509386
0.00061321315
0.0019010632
0.00066214749
0.0017870428
0.00054211997
0.0016892275
0.00034072454
0.0016168798
0.00017072425
0.001574111
0.00016781154
0.0015950915
0.00033532042
0.001660438
0.00058787977
0.0018180688
0.00071976626
0.0019733154
0.00065528053
0.0020511115
0.00040362089
0.0020688196
0.00013938875
0.0020629933
0.00018202714
0.0020834031
0.00054588538
0.002178236
0.0011366674
0.0022762838
0.0016312761
0.0023012194
0.0017697819
0.0022567096
0.001462041
0.00217634
0.00088384963
0.0020539432
0.00048855353
0.001973317
0.00063376404
0.0021079057
0.0024583053
0.0012003452
-4.271922e-05
0.0019901313
-0.00019202463
0.0018420692
-0.00031545531
0.0017893563
-0.00024905679
0.0017740225
-4.1743023e-05
0.0018074336
0.0003523059
0.0018288146
0.00083166437
0.0018376569
0.0011969438
0.0017919803
0.00123029
0.0017329562
0.00090070811
0.0016897854
0.00040827494
0.0016389269
4.8202023e-05
0.0016364298
-5.0867459e-05
0.0017265454
0.00026169931
0.0019489084
0.00081898047
0.0022431174
0.0012400755
0.0024291886
0.001297295
0.0024441549
0.0010665442
0.0023357929
0.00074992637
0.0021774687
0.00060448933
0.0020751306
0.00085894828
0.0020208076
0.0014555307
0.0020950552
0.0023153945
0.0020185765
-0.00044264606
0.001629707
-0.0007211113
0.001542108
-0.00073920382
0.0016012522
-0.00049421751
0.0017385265
-4.7824828e-05
0.0019090338
0.00042465003
0.0019877157
0.00074672057
0.0019995563
0.00075945584
0.0019318723
0.00054789317
0.0018051441
0.00032602044
0.0017000553
0.0002323802
0.0016382395
0.00037819699
0.0016054071
0.00084222602
0.0016559593
0.0013066088
0.0017785672
0.0014690139
0.0019723972
0.0011746258
0.0020908094
0.00059632435
0.0020934838
3.8490841e-05
0.0020787375
-4.6097697e-05
0.0021300692
0.00035662514
0.0023020514
0.0012257259
0.0024603634
0.0020722064
0.0025034477
0.0024365412
0.0024830087
6.9592502e-05
0.0015912027
0.00024310783
0.0014723243
0.0004616861
0.0014656803
0.0005819497
0.0015529597
0.00061584527
0.0016650528
0.00040091485
0.0016917142
-1.6812123e-05
0.0017077069
-0.00045491806
0.0017174105
-0.00068442645
0.0017511795
-0.00052277078
0.001834989
2.8147114e-05
0.001962892
0.0008368387
0.0020068981
0.0015435633
0.0019793521
0.0019380155
0.0019006949
0.0017893863
0.0018330758
0.0011852322
0.0017768479
0.00040138949
0.0016665359
-7.7516204e-05
0.0016315292
1.8598877e-05
0.0018003211
0.00064632124
0.002169692
0.0013853803
0.0025377005
0.0017859324
0.0026674391
0.0026022115
0.0017945674
0.00057228434
0.0019034015
0.0010819778
0.0017151673
0.0013951263
0.0015858671
0.001369575
0.0014953895
0.00094084036
0.0014343656
0.00030611353
0.0013532736
-0.00028364123
0.001329454
-0.00057573042
0.0013831674
-0.00050852805
0.0015248301
-0.00017059251
0.001737228
0.00026117947
0.0019629514
0.00069514044
0.0020729792
0.00094868068
0.0021039593
0.00088788985
0.0020535494
0.0006647467
0.0019367465
0.00046246511
0.0018519667
0.00046179242
0.0017379133
0.00075100904
0.0016253626
0.0013491051
0.001656371
0.0018361313
0.0018470018
0.0018805306
0.0021613787
0.0014509872
0.0023480582
0.0023397041
0.00082717888
0.00023256423
0.0019798044
0.00028256811
0.001822981
0.00010494251
0.0016969225
-7.1638267e-05
0.0015902442
-8.1820533e-05
0.0015258121
7.8953594e-05
0.0014488105
0.00042040602
0.0013744488
0.00083918774
0.0013522076
0.0011811767
0.001393255
0.001330238
0.0015115533
0.0012080166
0.0016734198
0.00070037386
0.0017529211
-8.3627069e-06
0.0017776917
-0.00065210106
0.0018155749
-0.00093583252
0.0018833359
-0.00066915695
0.0020024636
0.00018193353
0.0021239181
0.0013054013
0.0020672726
0.0022801422
0.0019645878
0.0027722864
0.0018759755
0.0025629592
0.0018941898
0.0017020014
0.0019469394
0.0018891189
0.00051380163
-0.00060985354
0.0017126184
-0.0012954973
0.0016341028
-0.0017196393
0.0015823693
-0.0016994694
0.0016016683
-0.0012260588
0.0016860429
-0.00033740603
0.0017414039
0.00076071816
0.0017187516
0.0016935607
0.0016567763
0.0022846218
0.0015679475
0.0023322562
0.0014850823
0.0018078896
0.001456021
0.00082093782
0.0014270677
-0.00021417507
0.0013767085
-0.00090325836
0.0014140787
-0.0010295794
0.0015974531
-0.00059714268
0.0018649219
0.0001334973
0.0021450631
0.00094581782
0.0022615222
0.0016051007
0.0022274565
0.0018978189
0.0021215694
0.0018958889
0.0020015658
0.0015125909
0.0019197378
0.0017668199
0.00082436195
-0.00095308907
0.0013551081
-0.0014475278
0.0013668305
-0.0014024012
0.0013919652
-0.0010316658
0.0015141927
-0.00053326749
0.0016628462
-6.4730815e-05
0.0017464433
0.00034123691
0.0017569009
0.00069926789
0.00176502
0.0009110988
0.0017503188
0.00088353992
0.0016586673
0.00071692231
0.0015546606
0.00044510211
0.0014418588
0.00028890773
0.0012880468
0.00047789105
0.0012474711
0.00075111073
0.0013613204
0.0010111657
0.0015966526
0.0011055017
0.0018831443
0.00092072087
0.0020760426
0.00058683834
0.0020876055
0.00014535712
0.0020704221
-0.00022658908
0.0020540147
-0.00022201354
0.0020659752
0.0020467563
0.00029420527
0.00048717166
0.0014015121
0.00094970646
0.0013121422
0.0011165635
0.0012453756
0.0010225153
0.001314058
0.00081122492
0.0014565353
0.00059820856
0.0015602187
0.00015963962
0.0015888538
-0.00048195025
0.0016158985
-0.0012204579
0.0016511021
-0.0017266237
0.0016587628
-0.0016312457
0.0016726681
-0.00078120928
0.0016948779
0.00054275917
0.0016146848
0.0018702506
0.0014771515
0.0027293592
0.001406676
0.0029102175
0.0014462426
0.0025640011
0.0016020363
0.0016007172
0.0017720357
0.00036076322
0.0018085446
-0.00087652164
0.0017860934
-0.0016914325
0.0018375645
-0.0016827744
0.0019837519
0.0021778514
-0.00075166287
0.0013692143
0.0016430116
0.002419473
0.0015048087
0.0030375751
0.0013309497
0.0030854292
0.001262289
0.0024790399
0.0012799054
0.0013491172
0.0013199138
-5.4601203e-05
0.0013284725
-0.001465069
0.0013687154
-0.0024297799
0.0014514342
-0.0027263418
0.00154411
-0.0023189577
0.001649562
-0.0014055438
0.0017696675
-9.0309421e-05
0.0017896218
0.001339548
0.0017176187
0.0025892836
0.0016423852
0.0033740019
0.0015883425
0.0033296109
0.0015526628
0.0023349962
0.0015809075
0.00069399164
0.0015526002
-0.00079638503
0.0014920363
-0.0015743709
0.0015729167
-0.0015498299
0.0018073975
0.0020655389
-0.00084893175
0.00086615671
0.0017618486
0.0016217824
0.0016721015
0.0022398422
0.0014951293
0.0025793782
0.001374162
0.0024164506
0.0012968541
0.0015197539
0.0012350062
0.00010326658
0.0011422156
-0.0011294931
0.0011365666
-0.0016757176
0.0012402966
-0.0016011782
0.0013920452
-0.0011458086
0.0015475241
-0.00060575856
0.0017106108
-7.2711929e-05
0.0017686689
0.00040885543
0.0017366477
0.00096110242
0.0017133715
0.001397297
0.0017140406
0.0016652726
0.0016820849
0.0015991197
0.0016465416
0.0010571172
0.0015579947
0.00034453288
0.0013840745
-8.8338023e-05
0.0013595786
-9.4393001e-05
0.0015981536
0.0018674759
0.00019319387
3.7977117e-05
0.0017485999
1.5154024e-05
0.0017057119
-5.6524806e-05
0.0015570764
-0.000156277
0.0014443951
-0.00019627105
0.0013688405
-0.00011269306
0.0012967709
0.00014933001
0.0011705598
0.00049594224
0.0011023172
0.00075254377
0.0011623366
0.00084172975
0.001287177
0.00070795354
0.0014282106
0.00056717168
0.0015931347
0.00035728556
0.0016799586
4.0134263e-05
0.0016641484
-0.00036659128
0.0016602399
-0.00068711493
0.0016964788
-0.00086369876
0.0017266464
-0.0006925638
0.0017171221
-2.455406e-05
0.0016891116
0.0010106928
0.0015112919
0.0017470865
0.0013647934
0.0019542692
0.0014797552
0.001689333
0.0017070152
-0.00083493413
0.0016741344
-0.0017025616
0.0016678508
-0.0024463148
0.001534843
-0.0029312889
0.0014419628
-0.0028129381
0.0014053836
-0.001833598
0.001376515
-0.00014683313
0.0012866583
0.0016580591
0.0012123013
0.0028826537
0.0012256917
0.0032098131
0.0012814298
0.0028119974
0.0013648002
0.0019705868
0.001487163
0.00097131347
0.0015809422
-0.00011660551
0.001573756
-0.001269395
0.0015623672
-0.0022828055
0.0016083493
-0.0028794153
0.0016779703
-0.0026658775
0.0017064554
-0.0013849214
0.001765556
0.00051732006
0.0016602278
0.002466658
0.0014899565
0.0034411378
0.0014992393
0.001649879
0.003374737
-0.0016264425
0.00160531
-0.0030742229
0.0016112048
-0.004098073
0.0014830427
-0.0043911329
0.0014147247
-0.0038605593
0.001401278
-0.0024702952
0.0013967076
-0.00042098462
0.001333477
0.0017533516
0.0012794878
0.0034632531
0.0012914204
0.0043094909
0.0013251982
0.0041942034
0.0013733529
0.0032321621
0.0014493745
0.0016770842
0.0015172058
-0.00015986847
0.0014974971
-0.0019341593
0.0014762157
-0.0032507083
0.0015384061
-0.0038511095
0.0016298768
-0.0034907463
0.0016863785
-0.0022248083
0.0017562213
-0.00019572925
0.001696114
0.0019408949
0.0015581098
0.0035376942
0.001574524
0.0017109395
0.0041301365
-0.0021348582
0.0015805638
-0.0037613081
0.0015847315
-0.0045072024
0.0014464705
-0.004461839