/*--------------------------------*- C++ -*----------------------------------*\
| =========                 |                                                 |
| \\      /  F ield         | OpenFOAM: The Open Source CFD Toolbox           |
|  \\    /   O peration     | Version:  2406                                  |
|   \\  /    A nd           | Website:  www.openfoam.com                      |
|    \\/     M anipulation  |                                                 |
\*---------------------------------------------------------------------------*/
FoamFile
{
    version     2.0;
    format      ascii;
    arch        "LSB;label=32;scalar=64";
    class       volScalarField;
    location    "150";
    object      T;
}
// * * * * * * * * * * * * * * * * * * * * * * * * * * * * * * * * * * * * * //

dimensions      [0 0 0 1 0 0 0];

internalField   nonuniform List<scalar> 
20580
(
1.0020636
1.0019285
1.0016897
1.001234
1.0023016
1.001869
1.0017583
1.0012741
1.0019588
1.0018151
1.0012597
1.001756
1.0016954
1.0014042
1.0016995
1.0017967
1.0010541
1.0017515
1.0023714
1.0002763
1.0013006
1.0024434
1.0013491
0.99991808
1.0026076
1.0037296
1.0005478
1.0012758
1.0016003
0.99736897
0.99760467
1.0020448
1.0018571
1.0015771
1.0012193
1.0022483
1.0018349
1.001711
1.0013116
1.0019001
1.0016825
1.0012799
1.0018764
1.0015311
1.0012824
1.0017795
1.001564
1.0008272
1.0024874
1.0018718
0.99994551
1.0021521
1.0024232
1.0008669
1.0005374
1.0038247
1.0044773
0.99899195
0.9985832
1.0024757
1.000585
0.99670948
1.0021667
1.001775
1.001531
1.0014132
1.0020214
1.0016786
1.001603
1.0015587
1.0017205
1.0014901
1.0014901
1.0018633
1.0014262
1.00132
1.0018935
1.0014217
1.0007513
1.0029374
1.0014236
0.99995034
1.0028041
1.002066
1.000573
1.0009505
1.0037042
1.0044169
0.99841958
0.99660028
1.0025711
1.0045306
0.99790956
1.0023251
1.0017116
1.0015748
1.0017444
1.0016877
1.0015034
1.0014397
1.0018778
1.0015564
1.0013441
1.0017439
1.0017362
1.0013698
1.0014174
1.001923
1.0013957
1.0009168
1.0029532
1.0009987
1.0003322
1.003245
1.001522
1.000464
1.0012312
1.0024223
1.0032544
0.99902909
0.99600884
1.0016154
1.0073365
1.002126
1.0022988
1.0017123
1.001768
1.002154
1.0013753
1.00142
1.0013656
1.0020388
1.0015161
1.0013701
1.0018286
1.0015835
1.0013936
1.0015787
1.0017462
1.001463
1.0012893
1.0026056
1.0006751
1.0010264
1.0032627
1.0007904
1.0005709
1.0019028
1.0007713
1.0012441
1.0004489
0.99729447
1.0001971
1.006388
1.0062957
1.0020448
1.0017073
1.0019989
1.0023902
1.0012381
1.0014733
1.0014934
1.0019405
1.0015509
1.0015723
1.0017724
1.0014868
1.0014734
1.0017639
1.0015567
1.0015553
1.0018102
1.0020777
1.0004998
1.0018
1.0029885
0.99996119
1.0008055
1.0030029
0.99976128
0.99900077
1.0016834
1.0005794
0.99923028
1.0023701
1.0060603
1.0019745
1.0017242
1.0021252
1.0023092
1.0013557
1.0016739
1.0017733
1.0016389
1.0015909
1.0017846
1.0016542
1.0014241
1.0015315
1.0019067
1.0014679
1.0015217
1.0022505
1.001484
1.0004981
1.0024246
1.0025906
0.99937628
1.0009427
1.0040228
0.99995291
0.99736745
1.0019792
1.004405
1.0001045
0.99776923
1.0012323
1.0020563
1.0018098
1.0020943
1.0019969
1.0016173
1.001911
1.002055
1.0013626
1.001583
1.0018724
1.0015482
1.0014223
1.0015742
1.0019264
1.0013528
1.001432
1.0025036
1.0009997
1.0007097
1.0027399
1.0019886
0.99936394
1.0010385
1.0043613
1.0009028
0.99708418
1.0014494
1.0064108
1.0023206
0.99554132
0.99488105
1.0021188
1.0018985
1.0018962
1.0015899
1.0018925
1.0020061
1.0021289
1.0012843
1.0015261
1.0017503
1.0015436
1.001445
1.001607
1.0018374
1.0013236
1.0013523
1.0025326
1.0007924
1.0011669
1.0028281
1.0012518
0.99984259
1.0011378
1.0036426
1.0017699
0.99821976
1.0005704
1.0055931
1.0044133
0.99644237
0.99187058
1.0019033
1.001844
1.0015645
1.0011907
1.0020475
1.0018913
1.0018902
1.001433
1.0015396
1.0015379
1.0016176
1.0014353
1.0016485
1.0016916
1.0014631
1.0013488
1.0022736
1.0007549
1.0017513
1.0025522
1.000559
1.0008945
1.0015658
1.0019843
1.0019463
1.0003705
1.0001462
1.0026228
1.0041534
0.9996638
0.99394795
1.0017483
1.0015958
1.0011552
1.0008838
1.0019117
1.0015635
1.0014017
1.0016628
1.001589
1.001377
1.0016329
1.0014433
1.0016846
1.0014519
1.0016184
1.0014491
1.0018316
1.0007792
1.0022925
1.0021498
0.99989745
1.0020371
1.002451
1.0000803
1.0010914
1.0025668
1.0008295
0.99947809
1.0009735
1.002505
0.99991554
1.0017773
1.001445
1.0009616
1.0010281
1.001686
1.0012239
1.0009504
1.0017469
1.0015781
1.0013311
1.0015202
1.0015275
1.0016784
1.0011975
1.0016944
1.0016573
1.0013774
1.0009552
1.0027212
1.0018566
0.99933744
1.0027294
1.0034328
0.99870187
0.99942148
1.0036836
1.0024867
0.99779765
0.9967203
1.0018699
1.0050479
1.0019027
1.0014325
1.0010989
1.0014711
1.0014624
1.0010678
1.0008287
1.0016513
1.001515
1.0014092
1.0012718
1.0015591
1.0015898
1.0010431
1.0016944
1.0018879
1.001051
1.00122
1.0027411
1.0015227
0.99925908
1.0028553
1.0040358
0.99837649
0.99794569
1.0033509
1.0041059
0.99796613
0.99447432
0.99852047
1.0056014
1.0020528
1.001517
1.0016524
1.0020254
1.0013439
1.0012217
1.0011689
1.0014873
1.0014445
1.0015502
1.0011112
1.0015356
1.0014374
1.0010252
1.0016826
1.0019549
1.0008768
1.0014381
1.002331
1.0011444
0.99964707
1.0024914
1.0037875
0.99910221
0.99773807
1.0022048
1.0044424
0.99987023
0.99542286
0.99645165
1.0024113
1.0019841
1.0015742
1.0021519
1.0023325
1.00127
1.001525
1.0017225
1.0013293
1.0013884
1.0016114
1.0011744
1.0015162
1.0013408
1.0011827
1.0015191
1.0018462
1.0009019
1.0017242
1.0017545
1.0009822
1.000561
1.0018758
1.0024839
1.0002246
0.99914332
1.001181
1.0027757
1.0019192
0.9987188
0.99765071
0.99911977
1.0019358
1.001633
1.0023165
1.0022837
1.0013031
1.0017536
1.0020765
1.0012422
1.0013288
1.0014954
1.0013835
1.0015071
1.0012791
1.0015279
1.0012988
1.0016548
1.0010846
1.002134
1.0011452
1.0007848
1.0018361
1.0015396
1.0005696
1.0010118
1.0017215
1.0011214
1.0001465
1.0018597
1.0028241
1.0011247
0.99868596
1.0020004
1.0017175
1.0021547
1.0018559
1.0014959
1.0018671
1.0021182
1.001342
1.0013726
1.0013476
1.0016278
1.0014303
1.0012142
1.0018248
1.0011773
1.0014169
1.0012209
1.0023762
1.0006317
1.0004554
1.0029218
1.0015782
0.99878687
1.0008706
1.0038884
1.0018158
0.99800943
0.99928258
1.0042349
1.0046003
1.000228
1.001954
1.0016794
1.0016211
1.0012868
1.0017541
1.0018025
1.0018179
1.0016161
1.0015468
1.0013404
1.0017915
1.0013285
1.0011898
1.0019283
1.0012177
1.0011791
1.001289
1.0023557
1.000414
1.0003142
1.0033889
1.0019014
0.99789518
1.0000015
1.00468
1.0026162
0.99701348
0.9963917
1.0022971
1.005637
1.0021128
1.0017905
1.0015554
1.0009153
1.0008196
1.001843
1.0015303
1.0011925
1.0017087
1.0015716
1.0014462
1.0017508
1.0012838
1.0012722
1.0018793
1.001367
1.0010425
1.0013563
1.0021958
1.0005845
1.0004906
1.0032389
1.0021394
0.99828867
0.99949805
1.00405
1.0030246
0.99753227
0.99595551
0.99939469
1.0038508
1.0026749
1.0017342
1.0014698
1.0006622
1.0008118
1.0018316
1.0013442
1.0008063
1.0016692
1.0013578
1.0014794
1.001537
1.0013149
1.0013309
1.0016381
1.0014593
1.0010796
1.0014234
1.0018112
1.0009757
1.000893
1.002326
1.002113
0.99940468
1.0000667
1.0024922
1.0023575
0.99906076
0.99773329
0.99875119
1.0007305
1.0016844
1.0019139
1.0015215
1.001041
1.0012528
1.0017422
1.0013801
1.0010352
1.0015223
1.0013001
1.001592
1.001371
1.0014276
1.0014238
1.0013151
1.0015028
1.001254
1.0015198
1.0011588
1.0014012
1.0015425
1.001266
1.0012407
1.0010858
1.0012456
1.0012072
1.0002662
1.0009215
1.0009752
1.0003783
0.99885921
0.99949585
1.0020098
1.0015711
1.0018167
1.0018366
1.0014719
1.0013924
1.001497
1.0013319
1.0011199
1.001511
1.0011872
1.001364
1.0014534
1.0009331
1.0013245
1.0012907
1.0016028
1.0004403
1.001448
1.0022164
1.0002288
0.99990183
1.0019954
1.0025604
1.0002237
0.99773539
1.0004792
1.0036907
1.0024595
0.99824031
0.99677835
1.001867
1.0013127
1.0021414
1.0018178
1.0008233
1.0010846
1.0016949
1.000107
1.0011283
1.0009511
1.0007493
1.000762
1.0011326
1.0002747
1.0007956
1.0009896
1.0013841
0.99970433
1.0009611
1.0025166
0.99949932
0.99860246
1.0013937
1.0032921
0.99991741
0.99608708
0.99835294
1.0039368
1.0038797
0.99855158
0.99505481
0.99793197
1.0000583
1.0008012
0.99952402
0.99702844
0.99460552
0.99458291
0.99776659
1.0027006
1.0063388
1.0067857
1.003469
0.99769108
0.99411862
0.99581906
1.0006661
1.0037981
1.0017112
0.99588686
0.99219475
0.99500723
1.0019631
1.0080729
1.0043881
1.0041573
1.002062
0.99832502
0.9952984
0.9947501
0.99656243
0.99889235
1.0001338
0.99877976
0.99622625
0.99543647
0.99754795
1.0015693
1.0059248
1.0080123
1.005127
0.99780894
0.99013179
0.98852373
0.99357433
1.0015166
1.0068148
0.99741147
0.99768502
0.99913546
1.0013557
1.0036614
1.0050969
1.0053347
1.0027698
0.99739143
0.99086313
0.98845963
0.99153739
0.99786668
1.0034614
1.0050982
1.0027469
0.99889842
0.99653543
0.9965439
0.99909313
1.0031765
1.0044826
0.99992202
0.9872378
0.99137078
0.99751648
1.0028138
1.0055437
1.0058917
1.0036661
1.0004608
0.99734066
0.99578762
0.99706487
1.0004347
1.0031101
1.0014704
0.99425338
0.98673662
0.98541077
0.99165773
1.0014875
1.0093057
1.0121517
1.0079534
0.99823156
0.99528566
0.99889658
1.0007388
0.99943894
0.99497329
0.98994784
0.98840342
0.99096352
0.99693052
1.0035974
1.0078018
1.0098853
1.0083361
1.0012947
0.99057406
0.98262432
0.98319715
0.99085306
1.000104
1.0046651
1.0023981
0.99762236
0.99428355
1.0077465
1.0066037
1.0027769
0.99649649
0.98924619
0.98390026
0.98417594
0.98983303
0.99723448
1.0019894
1.0023273
0.99966657
0.99719925
0.99630088
0.99629965
0.9965887
0.99857749
1.0018112
1.0030691
0.99683496
0.98437375
0.97707756
0.98015771
0.997468
0.99822993
0.99873754
0.99840982
0.99739781
0.99745503
0.99941033
1.0024621
1.0022616
0.99637127
0.9862745
0.97747416
0.97756919
0.98509425
0.99650505
1.0062099
1.0108242
1.0120757
1.0080137
0.99688441
0.98189075
0.97209347
0.97400465
0.97842269
0.98246506
0.98954571
0.99913074
1.0067072
1.0102648
1.0106293
1.0089238
1.0038798
0.99556192
0.98364378
0.97397539
0.97346153
0.98148174
0.99347781
1.0010755
1.0012632
0.99854475
0.99672734
0.9957638
0.99346456
0.98813163
0.98792886
0.97711984
0.98425382
0.99316082
0.99926023
0.99966737
0.99633333
0.993451
0.99404826
0.99634998
0.99689922
0.99489205
0.99037141
0.9904741
0.99555152
0.99898297
0.99433858
0.98148044
0.96956826
0.96975523
0.97954749
0.99352946
1.0027652
1.0062755
0.99715519
1.00077
1.0005926
0.99544344
0.98554589
0.97386406
0.96593271
0.96793483
0.97738279
0.99145472
1.003912
1.0080222
1.0075866
1.0083273
1.0045316
0.994959
0.97686267
0.95799994
0.95346273
0.96233535
0.98071701
0.99863371
1.0077053
1.0108063
1.0085558
1.0022997
0.9922162
0.97890453
0.96545057
0.95670788
0.95930367
0.97019588
0.98625324
0.99878322
1.002245
0.99995182
0.99960493
1.0000476
0.99725183
0.98568974
0.9691689
0.95987441
0.96491301
0.97767714
0.98983112
0.99159614
0.98938723
0.99297037
0.99740908
0.9959786
0.98748616
0.97443857
0.96619253
0.96954375
0.98016415
0.9913548
0.99329292
0.98210385
0.96829874
0.9659153
0.97453803
0.9886866
0.99610297
0.98941926
0.97882922
0.97913728
0.98611173
0.99046798
0.98166021
0.95643356
0.96580726
0.97959045
0.99137552
0.99669213
0.99297445
0.98709163
0.9883303
0.9925537
0.9943841
0.9866607
0.96713727
0.94607561
0.93558716
0.9438989
0.96473089
0.98811872
0.99991827
0.99761751
0.99398193
0.99504114
0.99374548
0.98047672
0.93585561
0.94645438
0.96448779
0.98284548
0.99580453
0.9995195
0.99807071
0.99828015
0.99905932
0.99516392
0.98181522
0.95928309
0.93562272
0.92187194
0.92732339
0.94774754
0.97385512
0.99316886
0.99779081
0.99460175
0.99561121
0.99500947
0.98404835
0.9301236
0.94131174
0.96118046
0.98043124
0.99097201
0.99037553
0.98517937
0.9840999
0.98872062
0.99085052
0.98299228
0.96186533
0.93686373
0.92052718
0.92448914
0.94389855
0.96871097
0.98425787
0.98463886
0.97685274
0.97873348
0.98662346
0.98706299
0.93323755
0.94612352
0.96702209
0.9826557
0.98356737
0.97099817
0.95744551
0.95400761
0.96553648
0.98061567
0.98375338
0.96920204
0.94370968
0.92495292
0.92744102
0.94688764
0.97021814
0.97788901
0.96706423
0.95253562
0.95153494
0.96647886
0.98160087
0.94114468
0.95367323
0.97266215
0.98147343
0.97316716
0.95065079
0.92982369
0.92459786
0.94042797
0.96505181
0.9803024
0.97450928
0.95097393
0.9310587
0.9315602
0.95066275
0.97050348
0.97162494
0.95124754
0.92888177
0.92508016
0.94534385
0.97108027
0.94457515
0.95774152
0.974359
0.97807801
0.96199664
0.93236677
0.90715656
0.90028236
0.91868308
0.94927396
0.9731922
0.97446115
0.95449736
0.93422521
0.93284313
0.95168084
0.96885532
0.96521728
0.93832408
0.91146063
0.90367041
0.92734159
0.95990244
0.94245349
0.95603834
0.97108367
0.9719193
0.95044067
0.91667485
0.88936159
0.88195322
0.9024248
0.93684386
0.96553326
0.96966149
0.95163748
0.9318709
0.93084844
0.95066556
0.9659248
0.95651271
0.92517791
0.89586759
0.88713182
0.91469798
0.95293134
0.93293682
0.94869769
0.9651024
0.96531921
0.94139629
0.9041734
0.87547478
0.86863712
0.89101873
0.92810067
0.9590293
0.96252142
0.94242341
0.92255043
0.92556045
0.94818581
0.96079348
0.94536603
0.91002086
0.88113007
0.87623634
0.91049638
0.95064049
0.91706494
0.93533191
0.9555588
0.95807599
0.93427615
0.89547436
0.86612796
0.86140061
0.88627573
0.92463073
0.95187409
0.95011306
0.92656989
0.9084684
0.9189648
0.94446751
0.95304393
0.93000825
0.89206737
0.86844989
0.87679324
0.91609262
0.95158237
0.88766097
0.91158877
0.94061545
0.95067417
0.93245812
0.89416206
0.86434206
0.8615379
0.88822912
0.92567674
0.94463661
0.93315733
0.90468566
0.89024009
0.90994033
0.93740353
0.94121732
0.91326635
0.87833051
0.86298615
0.8875458
0.92991398
0.9495476
0.85556625
0.88092629
0.91779597
0.9401638
0.93392561
0.89994863
0.87063098
0.86964029
0.89586947
0.926741
0.93232061
0.90910585
0.8784257
0.86889079
0.89694928
0.92790139
0.93017429
0.90126161
0.87410269
0.87041706
0.90868358
0.94123282
0.93606758
0.81865353
0.84557034
0.8884197
0.92629586
0.93391708
0.9120038
0.88522136
0.88430965
0.90314613
0.91890693
0.90920054
0.87647031
0.85047097
0.84830195
0.88152023
0.9156724
0.91911749
0.89565656
0.87876028
0.89385352
0.92963479
0.93517767
0.90502493
0.78703637
0.81501439
0.86230892
0.91043022
0.93477727
0.92314064
0.89655632
0.89505312
0.90298623
0.90148737
0.87821641
0.84284895
0.82336431
0.8318287
0.8682403
0.90658271
0.91292952
0.89875308
0.89443648
0.92020589
0.93216826
0.90512254
0.86443143
0.75804921
0.79084189
0.8474811
0.90318385
0.92826687
0.91337248
0.88350347
0.88676821
0.89313409
0.88405647
0.85075702
0.81720516
0.80438172
0.82647532
0.86859797
0.9049621
0.90873666
0.9016032
0.91034218
0.92639826
0.90571837
0.86044112
0.83565195
0.7648505
0.79562516
0.8492225
0.89323775
0.90059472
0.87384528
0.84493397
0.86038174
0.87661637
0.87102336
0.83844408
0.81185377
0.81256541
0.84846455
0.88890158
0.90074811
0.89264125
0.89115518
0.91037089
0.90558962
0.86510831
0.83748481
0.83162684
0.75450346
0.78682734
0.83742383
0.86825102
0.86530662
0.83459128
0.81317418
0.83396973
0.86008965
0.8654584
0.84938653
0.83910773
0.85452401
0.88311531
0.89063917
0.8723979
0.8596327
0.87198168
0.88987712
0.8757924
0.85171614
0.84332003
0.86480678
0.7127932
0.75502096
0.81389119
0.84959692
0.85125658
0.82324818
0.80723678
0.82915834
0.8585544
0.87220538
0.8713373
0.87105318
0.8829127
0.88373494
0.86077468
0.83791426
0.83349263
0.85545417
0.86905279
0.86684019
0.87301285
0.8897384
0.90606327
0.71377528
0.73642327
0.78822263
0.84546522
0.86360905
0.84075566
0.82913787
0.84671211
0.86405319
0.86688689
0.86408531
0.86763914
0.8760727
0.86429144
0.83875418
0.82492625
0.83430805
0.85685271
0.87133868
0.88225025
0.89916503
0.91121162
0.90710821
0.74378731
0.75374352
0.78405197
0.84084265
0.87764724
0.86266747
0.85069198
0.85574541
0.85511361
0.84372493
0.83776956
0.84650091
0.85884746
0.85588392
0.84650059
0.848491
0.86463269
0.87777553
0.87764407
0.88130274
0.88566503
0.88827555
0.88473078
0.78064396
0.78018299
0.78961208
0.82642159
0.86420404
0.85923598
0.85301627
0.85400198
0.84504616
0.83115435
0.82697684
0.83771986
0.85373161
0.86276212
0.87195129
0.88359778
0.89129837
0.88231047
0.8661215
0.85802868
0.85798743
0.86344869
0.8685891
0.80676014
0.80031481
0.79811024
0.81636883
0.84438444
0.84424536
0.84541495
0.85376617
0.85210472
0.84401176
0.84249952
0.85145331
0.86017587
0.8647693
0.87422239
0.88562036
0.88648069
0.87242516
0.86005283
0.85430265
0.85576556
0.86385232
0.8647511
0.80831579
0.80838056
0.80625338
0.81701371
0.84122939
0.84110718
0.84377018
0.85449127
0.86085856
0.86142256
0.86282889
0.86427402
0.8592566
0.85405897
0.85750018
0.86590089
0.87021253
0.87146316
0.87709486
0.88437986
0.8873737
0.87556403
0.84478677
0.80869782
0.80933138
0.81076801
0.82161892
0.84955485
0.85285767
0.84872038
0.85185392
0.8539623
0.85755927
0.86366713
0.86492963
0.8576268
0.85265768
0.85481841
0.86061155
0.86830476
0.87801518
0.88856298
0.89236417
0.88175068
0.85370759
0.8147097
0.81750886
0.81434811
0.81178565
0.8137821
0.83650492
0.85491869
0.85384074
0.8502899
0.84605878
0.84544874
0.8521498
0.86126251
0.86494198
0.86680297
0.87069252
0.87285131
0.87225052
0.87282662
0.87459017
0.86999938
0.85633908
0.83431738
0.81289372
0.82505349
0.81999133
0.81261682
0.80521486
0.81318405
0.83796155
0.85224971
0.85462547
0.85054047
0.84589698
0.84696188
0.85371875
0.86119147
0.86805547
0.8765796
0.88324368
0.88384018
0.88091644
0.87638771
0.86737352
0.85037735
0.82532988
0.80514964
0.82395876
0.82216302
0.81550262
0.80540112
0.80179947
0.81455073
0.8379823
0.85332182
0.85830036
0.85692917
0.85548661
0.85709215
0.85942109
0.86211796
0.86749864
0.87431481
0.87813815
0.87935038
0.87978295
0.87626266
0.8633778
0.8388681
0.81618912
0.81876965
0.82055256
0.81924515
0.81314724
0.80514067
0.80632722
0.82154945
0.84213898
0.85482931
0.85861048
0.85991898
0.86142001
0.86262519
0.86243019
0.86318792
0.86576694
0.8677913
0.86880021
0.8724914
0.87627538
0.87201843
0.85345704
0.82939944
0.81977832
0.82053792
0.81787777
0.81406537
0.80844648
0.80616544
0.81220153
0.82904033
0.8443035
0.85104398
0.85307396
0.85526615
0.85896237
0.86206724
0.86508593
0.86927688
0.87187217
0.87160752
0.87217259
0.8746686
0.8730731
0.85850601
0.83334459
0.82498267
0.82581839
0.81845578
0.80924778
0.80228194
0.79997258
0.80343394
0.81680542
0.83588494
0.84731772
0.85035675
0.8511626
0.85315859
0.85707521
0.86290796
0.8707301
0.87804691
0.88053311
0.87995395
0.87934717
0.87556605
0.86241971
0.83921731
0.82559386
0.82937012
0.81989187
0.80778407
0.79849878
0.7938937
0.7957856
0.80563229
0.82578481
0.84507993
0.85410206
0.8567868
0.85710808
0.85776131
0.86032885
0.86594696
0.8736651
0.87876381
0.87960707
0.8788065
0.87544292
0.86582296
0.84840341
0.82111536
0.82997386
0.82322147
0.81145931
0.8023662
0.79741637
0.79721063
0.80255319
0.81618273
0.83635076
0.8508907
0.85774279
0.86069482
0.8611331
0.86115756
0.86339541
0.86817586
0.87329151
0.87550319
0.8754621
0.87368411
0.86809355
0.85835317
0.82204688
0.83376164
0.82889551
0.81634936
0.80668096
0.80280067
0.80291478
0.80697087
0.81619383
0.83036604
0.8435453
0.85161395
0.85669987
0.85981124
0.86116897
0.86286845
0.86696566
0.87230424
0.87656146
0.87849648
0.87839627
0.87542335
0.8678662
0.81926914
0.83792077
0.8369474
0.82562052
0.81395961
0.80849686
0.80816826
0.81301754
0.82206549
0.83427573
0.84447335
0.85134517
0.85642257
0.86008411
0.86213091
0.86349872
0.86652462
0.87154259
0.8766378
0.88044307
0.88225535
0.88066472
0.87475639
0.80957171
0.8357133
0.84263661
0.83955833
0.8292019
0.822201
0.81999194
0.82320732
0.83081388
0.8409354
0.8497122
0.85546782
0.8598299
0.86311193
0.86500863
0.86576136
0.86687421
0.86979604
0.8737961
0.87747095
0.88032161
0.88006003
0.87615396
0.79974927
0.828937
0.84341943
0.84886828
0.84593233
0.83975562
0.83664389
0.83736446
0.84159968
0.84752119
0.85294718
0.85678689
0.85980854
0.86237091
0.86427699
0.86541734
0.86659201
0.86874958
0.87225088
0.87587434
0.87923624
0.88090593
0.87878892
0.79193893
0.81929232
0.83765239
0.84897725
0.85303365
0.85165125
0.84904794
0.84839781
0.85059149
0.85407667
0.85745418
0.85985887
0.86141249
0.86274043
0.86398443
0.86524397
0.86676361
0.86923517
0.87265416
0.87629595
0.87968242
0.88244782
0.88211429
0.78765893
0.80734589
0.82615683
0.84227166
0.85157619
0.85534945
0.85619023
0.85614775
0.85714356
0.85921519
0.86157837
0.86348602
0.86456855
0.86527349
0.86585391
0.86673188
0.86827473
0.87027865
0.87289326
0.87565121
0.87797014
0.88020327
0.88097833
0.7836924
0.79576555
0.81125088
0.82881445
0.84425202
0.85403809
0.85879815
0.86122581
0.86274285
0.86384566
0.86452504
0.86499756
0.86515502
0.86527165
0.86571461
0.86663016
0.86818047
0.87011696
0.87231911
0.87455404
0.87655697
0.8786038
0.88025287
0.77922895
0.78720063
0.79852367
0.81331141
0.82953354
0.84396377
0.85397324
0.85964724
0.86256903
0.86420225
0.86518729
0.86557409
0.86586296
0.86629924
0.86723065
0.86862912
0.87000611
0.8715032
0.87270944
0.87395575
0.87547547
0.87749166
0.87988946
0.76706107
0.77328302
0.78354834
0.79730657
0.81285114
0.82868323
0.84250904
0.85263041
0.85904604
0.86274433
0.86474915
0.86602666
0.86696284
0.86786749
0.86881935
0.86992208
0.87089481
0.87154806
0.87193889
0.87224516
0.87314193
0.874939
0.87776924
0.7493849
0.75125782
0.76077859
0.7758211
0.79244676
0.80931706
0.82524958
0.83888143
0.84922364
0.85660117
0.86140294
0.8644595
0.86653595
0.8677644
0.86864569
0.86908101
0.86966532
0.87002902
0.87065179
0.87153575
0.8729112
0.87496181
0.87789212
0.73171507
0.72700003
0.73102277
0.74473776
0.76249814
0.78150069
0.80022904
0.817452
0.83202366
0.84349685
0.85220437
0.85820786
0.8626104
0.86537269
0.86718616
0.86811235
0.86867886
0.86921362
0.87002526
0.8712139
0.87264545
0.87437059
0.87671921
0.72176882
0.7115877
0.70937017
0.71561003
0.7279339
0.74453949
0.7639378
0.78416643
0.80346464
0.82024168
0.83403044
0.84457643
0.85227661
0.85786981
0.86152399
0.86415342
0.86577097
0.86714826
0.86844075
0.86980181
0.87116226
0.87225531
0.87404377
0.71378914
0.70543454
0.70246094
0.7032777
0.70698134
0.71444913
0.72632806
0.74231413
0.76123238
0.78116043
0.80005566
0.81675492
0.83039277
0.84110913
0.8490787
0.85481019
0.85888995
0.86168842
0.86384254
0.86557435
0.86713025
0.8683695
0.87059148
0.70812542
0.70344636
0.70195132
0.70178096
0.70232224
0.70380852
0.70717756
0.71365359
0.7239627
0.7381715
0.7553462
0.77381953
0.79195562
0.80838267
0.82245686
0.83377995
0.84252233
0.84899949
0.85359989
0.8570212
0.85963275
0.86171729
0.86515733
0.70576451
0.70385365
0.70323632
0.70306976
0.70323157
0.70377559
0.70462871
0.70596255
0.70847659
0.71332173
0.72138146
0.73297116
0.7475556
0.76399426
0.7808472
0.79686994
0.81105962
0.82297053
0.83244228
0.83971479
0.845319
0.84949561
0.85543276
0.70696815
0.70624453
0.7066897
0.70684216
0.70679811
0.7066919
0.70671961
0.70701641
0.70771019
0.70875312
0.71060327
0.7139854
0.71986515
0.72863239
0.7401682
0.75381355
0.76856777
0.78328889
0.79705177
0.8091456
0.81936234
0.82740824
0.83778832
0.71013621
0.71029418
0.71153397
0.71231372
0.71262945
0.71259279
0.71232337
0.71197551
0.71167664
0.71166664
0.71208722
0.7131264
0.71458768
0.716887
0.72048778
0.72617631
0.73428776
0.74464685
0.75667483
0.76949486
0.78216471
0.79369274
0.80877338
0.71415059
0.7150916
0.71716066
0.71878659
0.71994499
0.72067121
0.72101522
0.72100794
0.72070762
0.72018509
0.71955939
0.71896812
0.71872927
0.7190484
0.72013932
0.72177367
0.72410178
0.7274763
0.73226403
0.73895768
0.74741817
0.75722564
0.77155544
0.71752715
0.72015614
0.72331904
0.72602322
0.72829621
0.7301977
0.73172205
0.73283192
0.73347161
0.73360631
0.7332519
0.73245991
0.73135918
0.73012461
0.7289666
0.72827645
0.72823246
0.72896754
0.73044708
0.7322752
0.73477649
0.73824894
0.74436163
0.72099128
0.7253098
0.72976699
0.73374522
0.73728933
0.74048558
0.74336907
0.74592746
0.74810216
0.74980664
0.75094631
0.7514597
0.75130643
0.75047339
0.74899489
0.74702295
0.74482606
0.74265835
0.74081865
0.73965517
0.73918929
0.73944316
0.74013774
0.72493017
0.73068899
0.73638756
0.74161161
0.74638966
0.75084707
0.7550912
0.75920654
0.76313663
0.7667773
0.76999135
0.77264863
0.77463441
0.77583388
0.7761308
0.77544382
0.77380137
0.77128698
0.76808268
0.7644592
0.76063787
0.7567289
0.7523021
0.72932917
0.73649378
0.74341406
0.74980722
0.7557065
0.7613111
0.76679822
0.77226058
0.77768376
0.78300435
0.78815551
0.79306141
0.79758984
0.80156795
0.8048125
0.80714455
0.80840197
0.80841714
0.80715249
0.80456414
0.80072473
0.79582664
0.78984366
0.73423711
0.74276412
0.75105855
0.75864842
0.76560206
0.77222087
0.77875791
0.78531336
0.79187464
0.79843303
0.80503701
0.811722
0.81837972
0.82482731
0.83090385
0.83647666
0.8413882
0.84538487
0.84818071
0.84954008
0.84916607
0.84711291
0.84303877
0.73983394
0.74974617
0.75964017
0.76850358
0.7764712
0.78399779
0.79143488
0.79891083
0.80639421
0.81388661
0.8215384
0.82947739
0.83761213
0.84576983
0.85383432
0.861816
0.86966107
0.87710493
0.88384378
0.88966604
0.89447701
0.89781379
0.89733933
0.74645052
0.75797807
0.76953179
0.77966866
0.78861805
0.79696164
0.80520033
0.81352794
0.82186092
0.83017101
0.83867763
0.84757549
0.8568211
0.86618999
0.8755515
0.88506176
0.89481089
0.90456265
0.91394831
0.92288787
0.93175153
0.94050381
0.94475968
0.75420603
0.76760482
0.78069386
0.79197613
0.80183417
0.81096415
0.81998217
0.82912648
0.83831684
0.84750195
0.85684274
0.86662193
0.87689213
0.88737167
0.89789319
0.90860282
0.91970738
0.93109017
0.94245451
0.95373615
0.9646919
0.97514226
0.9808935
0.76293869
0.77833244
0.79272844
0.80493739
0.81561713
0.82554979
0.83535139
0.84529135
0.85532318
0.86539116
0.87565415
0.88643252
0.89779736
0.90948311
0.92126459
0.93325314
0.94578209
0.95894548
0.97184815
0.98260155
0.98965802
0.99397571
0.99568673
0.77229974
0.78980983
0.80520079
0.81809194
0.82949343
0.84019013
0.850733
0.86142873
0.8722674
0.88327894
0.89460736
0.90645662
0.91895349
0.93194175
0.94520994
0.95886032
0.97283452
0.98508559
0.99272864
0.99606552
0.99715538
0.99752945
0.99769376
0.78195172
0.80140461
0.81751402
0.83098518
0.84302624
0.85438583
0.86560835
0.87701594
0.88870228
0.90074844
0.91315066
0.92610336
0.93982752
0.95418299
0.96911674
0.98321522
0.99255225
0.99643308
0.997541
0.99774654
0.99766932
0.99769305
0.99785027
0.79143908
0.81265302
0.82943579
0.84335463
0.85582301
0.86776219
0.8796456
0.89177861
0.90430422
0.91729797
0.93088194
0.94511398
0.96003316
0.97566287
0.98922675
0.99589313
0.99749102
0.99768578
0.99774656
0.99778903
0.99774013
0.99769593
0.99777093
0.80082539
0.82342773
0.84050377
0.85483492
0.86784091
0.88030676
0.89276914
0.9055683
0.91889488
0.93292707
0.94764336
0.9630389
0.97903894
0.99194595
0.99693602
0.99776001
0.99779442
0.99778561
0.99779525
0.99783214
0.99775871
0.99765598
0.99764766
0.80972715
0.83358683
0.85095547
0.86551206
0.87887354
0.89187625
0.90491995
0.91837578
0.93253051
0.94748598
0.96327363
0.97957773
0.99274003
0.99723913
0.99776967
0.99792418
0.99792629
0.99780581
0.99772387
0.99777658
0.99782819
0.99771808
0.99759895
0.81819365
0.843108
0.86073661
0.87552124
0.8891138
0.9024392
0.91608463
0.93036066
0.94534422
0.96100206
0.97730781
0.99176459
0.99740347
0.99795152
0.99789719
0.99787501
0.99795909
0.99795611
0.99782123
0.99771557
0.9977211
0.99777279
0.99773187
0.82631675
0.85206531
0.86989301
0.8849032
0.89873795
0.91242853
0.92650476
0.94132543
0.9569902
0.97347122
0.98908946
0.99702755
0.99809163
0.99809356
0.99798528
0.99788017
0.99789149
0.99788341
0.99791173
0.99784793
0.99778814
0.99777316
0.99777758
0.8342418
0.86059318
0.878515
0.89366704
0.90776187
0.9216996
0.93630435
0.95182966
0.96809561
0.9845147
0.99569823
0.99801906
0.99812378
0.99823314
0.99817363
0.99806603
0.99785555
0.9977403
0.9979149
0.99799056
0.99797206
0.99784373
0.99769649
0.84184379
0.86879386
0.88675053
0.90196461
0.91612929
0.93051385
0.94584712
0.9620122
0.97865368
0.99267294
0.99780283
0.9981372
0.99824451
0.99832011
0.99824574
0.99811829
0.99790771
0.997887
0.99804191
0.99804192
0.99800288
0.99782614
0.99775877
0.84919983
0.87659173
0.8946112
0.90992849
0.92440369
0.93938816
0.95512495
0.97151891
0.98757895
0.99700108
0.99846105
0.99832435
0.99822637
0.99816322
0.99832423
0.99838799
0.99818834
0.99805865
0.99796943
0.99805054
0.99804064
0.99792149
0.99783356
0.85620167
0.88414688
0.9022919
0.91765832
0.93238921
0.94773112
0.96400506
0.98097149
0.99440887
0.99846993
0.99827464
0.99812855
0.9983498
0.99860629
0.99866988
0.99838646
0.99823397
0.99815872
0.99819001
0.99825123
0.99819729
0.997998
0.99787206
0.8630922
0.89139193
0.9094981
0.92504207
0.94019845
0.95621202
0.97317379
0.98900815
0.99734169
0.99860844
0.99868978
0.99875714
0.99851413
0.99839273
0.99862206
0.998696
0.99858287
0.99846122
0.99834068
0.99828875
0.99829685
0.99831578
0.99817112
0.86975322
0.89822569
0.91626302
0.93239225
0.94792812
0.96416775
0.98150788
0.99476225
0.99883267
0.99899556
0.99859576
0.99858935
0.99856147
0.99876431
0.99907883
0.9988778
0.99863773
0.99846477
0.99863876
0.99870128
0.99864874
0.99845414
0.99835175
0.87602993
0.90480622
0.92261315
0.93857173
0.9552744
0.97294166
0.98930344
0.99759578
0.99884242
0.9990093
0.99900966
0.99888003
0.99875426
0.99863304
0.99888439
0.99918849
0.99909609
0.99876794
0.99862264
0.99887399
0.99895784
0.99893043
0.99861643
0.88144061
0.91072556
0.92901075
0.94527813
0.96207154
0.98017428
0.99456765
0.99918615
0.99921291
0.99872469
0.99871236
0.9988834
0.99900305
0.99889611
0.99878787
0.99905461
0.99925619
0.99916083
0.99888811
0.99870395
0.99891777
0.99917359
0.99928848
0.88731217
0.91571785
0.93338976
0.95089166
0.96973565
0.98759874
0.99698259
0.99849007
0.99886463
0.99915763
0.99902117
0.99851231
0.9983224
0.99857199
0.99887147
0.9990075
0.99886028
0.99863506
0.99858592
0.99868051
0.99890143
0.99894791
0.99877687
0.89133352
0.92100743
0.93868303
0.95577709
0.97496037
0.99203072
0.99852575
0.99866453
0.99804072
0.99806461
0.99841736
0.99819839
0.99764907
0.99744695
0.99757217
0.99769097
0.99744557
0.99712132
0.99734888
0.99751573
0.9973657
0.99738852
0.99794225
0.89472297
0.92486926
0.94362409
0.96110366
0.979102
0.99313816
0.99801922
0.99865368
0.9978847
0.99668886
0.99613189
0.99625876
0.99618597
0.99528285
0.99405419
0.99355279
0.99381831
0.99370642
0.99286381
0.99234314
0.99241327
0.99281233
0.99343515
0.89825335
0.92760025
0.94575927