/*--------------------------------*- C++ -*----------------------------------*\
| =========                 |                                                 |
| \\      /  F ield         | OpenFOAM: The Open Source CFD Toolbox           |
|  \\    /   O peration     | Version:  2406                                  |
|   \\  /    A nd           | Website:  www.openfoam.com                      |
|    \\/     M anipulation  |                                                 |
\*---------------------------------------------------------------------------*/
FoamFile
{
    version     2.0;
    format      ascii;
    arch        "LSB;label=32;scalar=64";
    class       volScalarField;
    location    "1";
    object      omega;
}
// * * * * * * * * * * * * * * * * * * * * * * * * * * * * * * * * * * * * * //

dimensions      [0 0 -1 0 0 0 0];

internalField   nonuniform List<scalar> 
96472
(
3.6324015
3.2154444
3.087531
3.0576819
3.0519809
3.0510469
3.0509115
3.0508937
3.0508922
3.0509032
3.051035
3.051938
3.0557636
3.0671317
3.0922924
3.1277374
3.1478903
3.1426997
3.1414201
3.1619536
3.1979829
3.2115805
3.2008428
3.1946574
3.1975558
3.2021389
3.2045837
3.2075278
3.2118706
3.2185128
3.2273352
3.2381242
3.2472079
3.2553861
3.2635392
3.2723695
3.2816356
3.291138
3.300849
3.3094536
3.3158095
3.3197026
3.3228879
3.3265706
3.331297
3.3353569
3.3381797
3.3403589
3.3419596
3.3453131
3.3493653
3.3549321
3.3599023
3.3716621
3.3756436
3.6336378
3.2163321
3.0878529
3.0577651
3.0519981
3.05105
3.050912
3.0508938
3.0508919
3.050899
3.0509983
3.0517468
3.0550964
3.0654195
3.0892975
3.125332
3.1479191
3.1442211
3.1424044
3.1590672
3.1891192
3.1988724
3.1882641
3.1796076
3.180718
3.1831917
3.1836423
3.1848277
3.1868807
3.1910326
3.1973631
3.2057937
3.2140275
3.2223794
3.2313878
3.2419153
3.2538599
3.2671193
3.2818612
3.2960102
3.307567
3.3160819
3.3226711
3.3289486
3.3352213
3.3402407
3.3444322
3.3485492
3.3528236
3.3571065
3.3595186
3.3650911
3.3673142
3.3758057
3.380064
3.634871
3.2172138
3.0881708
3.0578468
3.0520149
3.0510529
3.0509124
3.0508938
3.0508917
3.050896
3.0509692
3.0515821
3.0544928
3.063787
3.086182
3.1225103
3.1489128
3.1480695
3.1476662
3.1639123
3.1920053
3.2009079
3.1898139
3.1809919
3.1823812
3.1844949
3.1844256
3.1849773
3.1859367
3.1886226
3.1930904
3.1996203
3.2049008
3.209526
3.2141702
3.2193939
3.2259533
3.2337149
3.2435341
3.2556019
3.2698144
3.2849171
3.2999262
3.3141521
3.3252534
3.3329554
3.3388764
3.3441898
3.349783
3.3548684
3.3599847
3.3653278
3.3689073
3.3748946
3.3814838
3.6361085
3.2181022
3.0884922
3.0579297
3.0520319
3.0510559
3.0509129
3.0508939
3.0508916
3.0508939
3.0509459
3.0514386
3.0539401
3.0622049
3.0828201
3.1184962
3.1483219
3.1507663
3.1515845
3.1675195
3.1936663
3.2017286
3.190913
3.1825044
3.1841685
3.186113
3.1858412
3.1863476
3.186867
3.1888688
3.1924054
3.1984758
3.203326
3.2069669
3.21069
3.2145216
3.2190092
3.2240563
3.2300078
3.2375205
3.2462187
3.2567037
3.2687694
3.280844
3.2938264
3.3047573
3.3147175
3.3233681
3.3329563
3.3405839
3.3507468
3.3566945
3.363812
3.3682111
3.3776358
3.6373503
3.2189975
3.0888172
3.0580138
3.0520493
3.0510589
3.0509134
3.050894
3.0508916
3.0508925
3.0509278
3.0513156
3.0534431
3.0607583
3.0796307
3.114286
3.147035
3.1530537
3.1551056
3.1704416
3.1940566
3.2010059
3.1909301
3.1829668
3.1845379
3.1862665
3.1858671
3.1864315
3.1867443
3.1885696
3.1916087
3.1972712
3.2025658
3.2060318
3.2093201
3.2124725
3.2164205
3.2206029
3.2252377
3.2310096
3.2378479
3.2458228
3.2551016
3.264406
3.2732407
3.2803851
3.2883722
3.2949794
3.3036433
3.309881
3.3222519
3.3282664
3.3400343
3.3456081
3.3592673
3.6385965
3.2198996
3.089146
3.0580991
3.052067
3.0510621
3.0509138
3.050894
3.0508916
3.0508916
3.0509142
3.0512123
3.0529993
3.0594367
3.0766079
3.1099249
3.1452486
3.1552806
3.1587642
3.1738152
3.1946452
3.2003147
3.1912353
3.1835527
3.184804
3.1864314
3.1858981
3.1863576
3.1863414
3.1875223
3.1899743
3.194956
3.2005367
3.2042188
3.2074146
3.2105849
3.2140016
3.2183928
3.2223899
3.2276145
3.2336942
3.2408993
3.248974
3.2564103
3.2631009
3.2682415
3.2743949
3.2797442
3.2863546
3.2911908
3.3003374
3.3043321
3.3121033
3.3166101
3.3281145
3.6398471
3.2208088
3.0894785
3.0581857
3.0520851
3.0510653
3.0509143
3.0508941
3.0508916
3.0508911
3.0509042
3.0511267
3.052609
3.0582365
3.0737629
3.105481
3.1429262
3.157411
3.162503
3.1774732
3.1953831
3.1996127
3.191541
3.1842739
3.1854591
3.1869096
3.1861496
3.1864093
3.1862717
3.18692
3.1888679
3.1929394
3.1984636
3.202278
3.2053655
3.2082509
3.2112825
3.215324
3.2193553
3.2240579
3.230075
3.2370215
3.2444611
3.2510049
3.2562273
3.2604055
3.2654976
3.270277
3.2758082
3.2801978
3.2872962
3.2900338
3.2955876
3.2989617
3.3072871
3.6411021
3.221725
3.0898147
3.0582736
3.0521035
3.0510685
3.0509149
3.0508942
3.0508916
3.0508909
3.0508973
3.0510574
3.0522678
3.0571494
3.0710959
3.101012
3.1400502
3.159371
3.1662968
3.1812704
3.1964585
3.1988683
3.1916896
3.1851851
3.1864502
3.1872099
3.1864673
3.1865935
3.1865267
3.1867111
3.18808
3.1914073
3.1968587
3.2007996
3.2037569
3.2064234
3.2088024
3.2123196
3.2160932
3.220571
3.2264125
3.233306
3.2404322
3.2459089
3.25027
3.2537366
3.2581729
3.2623979
3.2673618
3.2713935
3.277445
3.2796895
3.2844738
3.2873875
3.2941586
3.6423615
3.2226483
3.0901549
3.0583628
3.0521222
3.0510718
3.0509154
3.0508943
3.0508916
3.0508908
3.0508928
3.0510028
3.0519733
3.0561709
3.0686122
3.0965793
3.1366357
3.1610679
3.1701428
3.1852423
3.1978324
3.1981066
3.1919253
3.1861135
3.1874098
3.1875425
3.1870611
3.1869599
3.1868656
3.186755
3.1876237
3.1903063
3.195348
3.1995636
3.2022376
3.2047954
3.2066905
3.2097819
3.2130623
3.2174482
3.2230764
3.2300071
3.2363437
3.2415634
3.2451319
3.2480577
3.2517673
3.2556048
3.2599913
3.2636114
3.2687945
3.2705565
3.2748389
3.2774774
3.2833713
3.6436254
3.2235789
3.0904989
3.0584533
3.0521412
3.0510753
3.0509159
3.0508944
3.0508917
3.0508909
3.0508902
3.0509609
3.0517226
3.055293
3.0663183
3.0922391
3.1327329
3.1623293
3.1740308
3.1894121
3.1994836
3.1976645
3.1922717
3.1870249
3.188367
3.1882668
3.1878151
3.187254
3.1872313
3.1870744
3.1874594
3.1895158
3.1939291
3.1984849
3.2010529
3.2034752
3.2053804
3.2075434
3.2109852
3.2146394
3.2201675
3.2263763
3.2327206
3.2369195
3.239933
3.2425736
3.2459097
3.2494682
3.2534293
3.2565927
3.2608596
3.2623974
3.2662189
3.2687317
3.2736677
3.6448937
3.2245167
3.0908469
3.0585452
3.0521606
3.0510787
3.0509165
3.0508945
3.0508917
3.050891
3.0508888
3.0509302
3.0515116
3.0545122
3.0642151
3.0880441
3.1284098
3.1629695
3.1780217
3.1937485
3.2013936
3.1974973
3.1925455
3.1881122
3.1894661
3.1891683
3.1884794
3.187704
3.1877904
3.1875813
3.1875458
3.1889744
3.1925634
3.1973875
3.2000048
3.202477
3.204323
3.2060561
3.2091042
3.2128335
3.2176213
3.2235756
3.2287814
3.2324114
3.2349902
3.2370877
3.2399695
3.243266
3.2469119
3.2497647
3.2534271
3.2547518
3.2581883
3.2605689
3.2645982
3.6461664
3.2254618
3.0911989
3.0586385
3.0521804
3.0510823
3.0509171
3.0508946
3.0508917
3.0508912
3.0508885
3.0509086
3.0513377
3.0538248
3.0623011
3.084035
3.1237359
3.1629074
3.1820681
3.1982721
3.203563
3.1976814
3.1926733
3.1894803
3.1908162
3.1901278
3.1892523
3.1885829
3.1884438
3.1880836
3.1878938
3.1886661
3.1915092
3.196194
3.1992192
3.201403
3.2033387
3.2050078
3.2075423
3.2112573
3.2158504
3.2211819
3.2257202
3.2288578
3.2308131
3.2324969
3.2350295
3.2379199
3.2410116
3.2435653
3.2466663
3.2478437
3.2511008
3.2529353
3.256758
3.6474437
3.2264144
3.0915549
3.0587332
3.0522006
3.051086
3.0509177
3.0508947
3.0508918
3.0508913
3.0508887
3.0508946
3.0511972
3.0532249
3.0605702
3.080245
3.1187877
3.1620795
3.1860868
3.2029418
3.2060984
3.1984306
3.1930433
3.1910498
3.1923469
3.1912964
3.1904432
3.1895808
3.1890966
3.1887758
3.1885015
3.1885225
3.1906501
3.1949071
3.1984196
3.2003946
3.2024707
3.2038335
3.2060532
3.2095592
3.2142179
3.2190091
3.2232065
3.2256868
3.2272883
3.2288924
3.2311416
3.2335403
3.2362979
3.2384348
3.2410695
3.2422274
3.2452751
3.2471938
3.2498613
3.6487254
3.2273744
3.0919152
3.0588294
3.0522211
3.0510897
3.0509183
3.0508948
3.0508918
3.0508914
3.0508892
3.0508862
3.0510879
3.052708
3.0590146
3.0766876
3.1136667
3.1604362
3.1900318
3.2076738
3.2091238
3.1995132
3.1936757
3.1927532
3.1939921
3.192779
3.1919613
3.1906267
3.1900575
3.1897483
3.1892528
3.1887608
3.1900624
3.1936743
3.1975244
3.1995372
3.2015749
3.2028624
3.2045793
3.207734
3.2121228
3.216803
3.2201481
3.2221928
3.2235924
3.2251549
3.2273231
3.2297174
3.2318813
3.2336769
3.2358815
3.2373905
3.2404553
3.2421563
3.2443441
3.6500116
3.228342
3.0922796
3.058927
3.052242
3.0510936
3.050919
3.0508949
3.0508919
3.0508915
3.0508898
3.0508822
3.0510057
3.0522689
3.0576264
3.073375
3.1084772
3.1579904
3.1937609
3.2123883
3.2123243
3.2012037
3.1947441
3.1946897
3.1958812
3.1944446
3.1935346
3.1920631
3.1914651
3.1908408
3.1902283
3.1894968
3.1898621
3.1926081
3.1967366
3.1988587
3.2006566
3.2021581
3.2033424
3.2058996
3.2100332
3.2144406
3.2172545
3.2186017
3.2196242
3.2210553
3.2233815
3.2254148
3.227369
3.2288859
3.2309281
3.2323141
3.235125
3.2368167
3.2392743
3.6513023
3.2293173
3.0926483
3.0590262
3.0522634
3.0510975
3.0509197
3.0508951
3.050892
3.0508916
3.0508905
3.0508811
3.0509465
3.0519021
3.0563982
3.0703222
3.1033106
3.1547984
3.1970383
3.2170199
3.2157417
3.2032586
3.1963471
3.1969287
3.1982184
3.1962372
3.1950638
3.1937801
3.1931395
3.1922057
3.1915223
3.1906274
3.1901431
3.192027
3.1960202
3.1986087
3.2001254
3.201677
3.2026201
3.2047615
3.2085794
3.2126534
3.2150821
3.2157963
3.2162088
3.2175803
3.2195605
3.2214752
3.2233353
3.224824
3.2264149
3.2275902
3.230602
3.2322242
3.2343516
3.6525976
3.2303003
3.0930213
3.0591269
3.0522852
3.0511016
3.0509204
3.0508953
3.0508921
3.0508918
3.0508911
3.050882
3.0509066
3.0516032
3.0553205
3.0675355
3.0982497
3.1509222
3.1996397
3.2215592
3.2193219
3.2053953
3.1980181
3.1994991
3.2009073
3.1983236
3.1967936
3.1954917
3.1946188
3.1938219
3.1931351
3.1921813
3.1910242
3.1920451
3.1953971
3.1987679
3.2001319
3.201374
3.2025808
3.2043102
3.2077763
3.2116912
3.213687
3.2139301
3.2140666
3.2149919
3.2166255
3.2184572
3.2201817
3.2213159
3.2227488
3.2243134
3.2268634
3.2284287
3.2302025
3.6538974
3.2312912
3.0933989
3.0592293
3.0523076
3.051106
3.0509214
3.0508957
3.0508924
3.050892
3.0508917
3.0508841
3.0508821
3.0513658
3.054385
3.0650172
3.0933711
3.146436
3.201388
3.2261019
3.2229992
3.207955
3.1998167
3.2021977
3.2037127
3.2007125
3.198863
3.1971926
3.1959399
3.1951754
3.1945853
3.1938888
3.1925494
3.1926228
3.1950864
3.198989
3.2004502
3.2014038
3.2028334
3.2045935
3.2078189
3.2111881
3.2129036
3.2130223
3.2128011
3.2132543
3.2147348
3.2162878
3.2174974
3.2185168
3.2201369
3.2214972
3.2239584
3.2249307
3.2265555
3.655202
3.2322906
3.0937815
3.059334
3.0523311
3.0511111
3.050923
3.0508967
3.0508933
3.0508929
3.0508928
3.0508871
3.0508699
3.0511826
3.0535826
3.0627632
3.0887359
3.1414338
3.2021413
3.230629
3.226722
3.2105398
3.201429
3.2046445
3.20648
3.203049
3.2010148
3.199114
3.1972995
3.1961494
3.1955109
3.1949876
3.1940068
3.1935038
3.1952301
3.1989156
3.2009628
3.201628
3.2028327
3.2051281
3.2082947
3.2111095
3.2124876
3.2124068
3.2119201
3.2122974
3.2134228
3.2144086
3.2153662
3.2165724
3.2177823
3.2192141
3.2213133
3.2220401
3.2234954
3.6565118
3.2332994
3.0941706
3.0594424
3.052357
3.0511183
3.0509266
3.0508997
3.0508961
3.0508956
3.0508956
3.0508918
3.0508681
3.0510462
3.0529066
3.0607674
3.0843764
3.1360476
3.2018167
3.2351837
3.2305161
3.2131576
3.203092
3.2068098
3.2090198
3.2052254
3.2027905
3.2008019
3.1989041
3.1970124
3.1958796
3.1953312
3.1947467
3.1940018
3.1949577
3.1979542
3.2011014
3.2018592
3.202919
3.2057374
3.2090597
3.2116498
3.2123498
3.2119306
3.2116476
3.2120006
3.2126369
3.2133426
3.2142884
3.2152708
3.2164501
3.2181137
3.2199009
3.221056
3.2221474
3.6578286
3.2343221
3.0945713
3.0595596
3.0523907
3.0511328
3.0509373
3.0509096
3.0509057
3.050905
3.0509048
3.0509024
3.0508779
3.0509571
3.052351
3.0590221
3.0803382
3.1303943
3.2003919
3.2394755
3.2343953
3.2156952
3.204932
3.2086708
3.2110023
3.206976
3.2039372
3.2017201
3.1998161
3.1976418
3.1959981
3.1950102
3.194438
3.1937049
3.193751
3.1958481
3.1996079
3.2012511
3.2025653
3.2057178
3.2097907
3.2123402
3.2123763
3.2115863
3.2114944
3.2117808
3.2122493
3.2128187
3.2134017
3.2142072
3.2154805
3.2168887
3.2186307
3.2195447
3.2206099
3.6591608
3.2353789
3.0950084
3.0597118
3.0524581
3.0511803
3.0509803
3.0509511
3.0509462
3.0509444
3.0509431
3.0509411
3.0509188
3.0509281
3.0519284
3.0575382
3.0766736
3.1246127
3.1979179
3.2435501
3.2383783
3.2179614
3.2067504
3.2100748
3.2123632
3.2080803
3.2044133
3.2016326
3.1995962
3.1974153
3.1952648
3.1936965
3.193056
3.192358
3.1914915
3.1923117
3.1955609
3.1986468
3.2005976
3.2040585
3.2087976
3.2116874
3.2116982
3.2108447
3.2106221
3.2110955
3.2119216
3.2122976
3.2126243
3.2132842
3.2143515
3.2156274
3.2170274
3.2175508
3.2186401
3.6605623
3.2366035
3.0956466
3.0600708
3.052731
3.0514303
3.0512224
3.0511876
3.0511772
3.0511697
3.0511625
3.0511555
3.0511324
3.0510907
3.0517627
3.056435
3.0735345
3.1189725
3.1945476
3.2471853
3.2426161
3.2197537
3.2085414
3.2111523
3.213143
3.2086763
3.2043949
3.2007695
3.1982408
3.1958996
3.1933102
3.1910597
3.1899438
3.1892294
3.1878392
3.1873549
3.1893757
3.1931287
3.1962135
3.2000569
3.2050561
3.2085062
3.2089808
3.2083318
3.2080425
3.2088953
3.2101522
3.2109717
3.2116265
3.2124755
3.2135735
3.2152746
3.21634
3.2172538
3.2189682
3.6625688
3.2393559
3.0981681
3.0623982
3.0549732
3.0536268
3.0533793
3.0533026
3.0532468
3.0531911
3.0531336
3.0530756
3.0530073
3.0528875
3.0532541
3.0570925
3.0723756
3.115217
3.1922194
3.2519902
3.2489964
3.2237882
3.2122937
3.2139848
3.2151588
3.2103775
3.2054577
3.2009942
3.1975957
3.1946355
3.1916765
3.1889239
3.1870353
3.1858278
3.1840595
3.1823498
3.1826349
3.1857867
3.1901047
3.1943576
3.1992657
3.2024894
3.2032692
3.2027069
3.2024532
3.2031084
3.2045578
3.2057274
3.2070962
3.2081761
3.2099125
3.2117837
3.2131911
3.215021
3.2169167
3.6739031
3.2639778
3.1271508
3.092295
3.0848403
3.0832162
3.0825963
3.0820883
3.0815572
3.0809928
3.0804026
3.0797962
3.0791743
3.0784809
3.0781024
3.0810593
3.0953117
3.1378418
3.2191534
3.2873179
3.2858411
3.2583986
3.245769
3.2453857
3.2450832
3.2389895
3.232366
3.2258954
3.2203556
3.215101
3.210599
3.2074926
3.2052878
3.2040292
3.2027374
3.2009895
3.2004939
3.203122
3.2088709
3.2152614
3.2208837
3.2242887
3.2250396
3.2246048
3.224129
3.2242648
3.2251007
3.2256879
3.2268713
3.2274962
3.2286747
3.2296891
3.2307053
3.2325844
3.2319841
3.7849447
3.4814214
3.3795573
3.353456
3.3477487
3.3463568
3.3456909
3.3451087
3.3445307
3.3439665
3.3434325
3.3429411
3.3424939
3.3421379
3.3423183
3.3452464
3.3600791
3.4060411
3.5005837
3.5889074
3.6002776
3.6172767
3.6292933
3.6239951
3.6165746
3.6064392
3.5983277
3.5915154
3.5851499
3.5774548
3.5646141
3.5544204
3.5417941
3.534016
3.5259113
3.5161361
3.5058279
3.5002471
3.4979168
3.4981608
3.4989921
3.4954251
3.4927674
3.487225
3.4847236
3.4793046
3.4808139
3.4772047
3.4792073
3.477537
3.4797037
3.4793141
3.4800753
3.482107
3.449352
11.233172
11.218047
11.225839
11.236967
11.249125
11.261336
11.273252
11.284772
11.295878
11.306575
11.316876
11.326785
11.33631
11.346047
11.355619
11.349194
11.284967
11.101049
10.750082
10.392114
10.387911
10.740658
10.990995
11.023997
11.031075
11.082261
11.143278
11.204236
11.258613
11.308191
11.347502
11.379679
11.411637
11.445673
11.476985
11.506055
11.534033
11.548126
11.533782
11.496533
11.460869
11.447591
11.452884
11.469569
11.479196
11.48902
11.488218
11.506863
11.495168
11.511565
11.490415
11.506907
11.487471
11.501121
11.487071
11.852221
3.6185802
3.2420237
3.2205859
3.221393
3.2209257
3.2231592
3.2248969
3.226017
3.2289374
3.2326516
3.2361509
3.2406047
3.2457189
3.2509336
3.2571844
3.2646501
3.2729727
3.2822753
3.2924727
3.3041181
3.3220338
3.3537952
3.3769463
3.3854686
3.3864876
3.3791114
12.587201
3.7402988
3.2540384
3.2234746
3.2230587
3.221977
3.2242535
3.2269153
3.2283853
3.2313486
3.2352453
3.2386867
3.2426807
3.2471869
3.2522261
3.2582317
3.2654227
3.2735656
3.2824989
3.2924451
3.3029682
3.3170917
3.3435192
3.3746042
3.3886955
3.3946985
3.3895784
13.374051
3.8075613
3.2626203
3.2265102
3.2249697
3.2229694
3.2250764
3.2282911
3.2299761
3.2327162
3.2366877
3.2404144
3.2443219
3.2488228
3.2539188
3.2599521
3.2669573
3.2744414
3.2830948
3.2929288
3.3034284
3.3162431
3.3348149
3.3700917
3.3887189
3.4004267
3.3961553
14.221502
3.8696029
3.2735866
3.2315607
3.2291885
3.2254095
3.2270145
3.2308246
3.2326577
3.2348639
3.2383958
3.2421722
3.2459196
3.250218
3.2551433
3.2609515
3.2678687
3.2749573
3.2830526
3.2926765
3.303749
3.3159179
3.3295539
3.3574451
3.3868657
3.4040068
3.4024206
15.124152
4.0049576
3.2959986
3.2382257
3.2349805
3.2303495
3.2316651
3.236125
3.238739
3.2400625
3.2423008
3.246057
3.2492452
3.2530263
3.2573679
3.2626625
3.2691014
3.2756323
3.2833112
3.292722
3.3037904
3.315375
3.3266839
3.345564
3.380625
3.4041735
3.40911
16.097933
4.2588527
3.3299305
3.2466594
3.2406181
3.2354321
3.2367422
3.241447
3.2453702
3.2471122
3.2493803
3.2532017
3.25663
3.2597159
3.2625206
3.2666429
3.2721794
3.2778905
3.2847621
3.2938324
3.3046905
3.3159723
3.3265145
3.3419136
3.3655678
3.4018855
3.4109672
17.141411
4.4011706
3.3623121
3.2549605
3.2455746
3.2400842
3.2411963
3.2459087
3.250802
3.2529394
3.2555462
3.2600339
3.2645008
3.268651
3.2717764
3.2757544
3.2803087
3.284737
3.2896086
3.2977038
3.307529
3.3181297
3.3274979
3.3418049
3.3575669
3.3952727
3.4091985
18.26999
4.6016987
3.3961468
3.2642734
3.2508083
3.2446423
3.2455356
3.250123
3.2556545
3.2580953
3.260896
3.2658557
3.2706933
3.2759581
3.2798579
3.2845981
3.290103
3.2966797
3.3013327
3.3084762
3.3155869
3.3244221
3.3314672
3.343883
3.3564592
3.3824321
3.4033584
19.492334
4.7548676
3.4253061
3.2734807
3.2559751
3.2491424
3.24995
3.2543655
3.2603385
3.2631837
3.2660686
3.2709977
3.2761567
3.2814282
3.2862356
3.2917734
3.2977163
3.3058687
3.3113835
3.3205198
3.3271884
3.3374428
3.3423976
3.3515386
3.3589368
3.3779985
3.3950351
20.810748
4.9135695
3.4551559
3.2829237
3.2610569
3.253629
3.2544685
3.2588001
3.2649771
3.2684346
3.2713885
3.2763968
3.281388
3.2866015
3.291687
3.2979347
3.3038466
3.312788
3.3186665
3.3288525
3.3351084
3.3464413
3.3514371
3.3616584
3.3675306
3.3788665
3.3922665
22.230506
5.0343826
3.4786419
3.2924464
3.2661475
3.2581948
3.2590687
3.2634644
3.269757
3.2733913
3.2766599
3.2819515
3.2870521
3.291961
3.2972607
3.304133
3.3098785
3.3186908
3.324128
3.3340435
3.3396884
3.3511724
3.3566072
3.3685335
3.3764051
3.3829064
3.3932298
23.765848
5.1937324
3.505588
3.3031784
3.2716672
3.2629528
3.2638464
3.268252
3.2746265
3.278256
3.2816484
3.287298
3.2930183
3.2978023
3.3031374
3.3105652
3.3161121
3.3244188
3.3289321
3.3381909
3.3431717
3.3545417
3.3605771
3.3726511
3.3816907
3.3884009
3.3977785
25.425693
5.420083
3.5386663
3.3154781
3.2777029
3.2681331
3.2687566
3.2730557
3.2795
3.2828335
3.2864942
3.2921926
3.2989447
3.3041573
3.3091269
3.3164577
3.3219144
3.3296701
3.3338545
3.3425979
3.3471692
3.3581095
3.3645261
3.3759161
3.3859549
3.3929713
3.4039948
27.217484
5.6434777
3.5698681
3.328468
3.2841147
3.2729835
3.2735435
3.2775766
3.284719
3.2881127
3.2913827
3.2970178
3.3045247
3.3104625
3.3148215
3.3215848
3.3268419
3.3343366
3.3385566
3.3470548
3.3516287
3.3623233
3.3688792
3.3796258
3.3904187
3.3975392
3.4095572
29.145714
5.888182
3.6038499
3.3428118
3.2914479
3.2781127
3.2781327
3.2819521
3.2902492
3.2942322
3.2972256
3.3021858
3.3094686
3.3158003
3.3198875
3.3258936
3.3308349
3.3381189
3.3428821
3.3512896
3.3560778
3.3665492
3.3736869
3.3839269
3.39535
3.4020906
3.4139295
31.216037
6.1627577
3.6396852
3.3581774
3.300055
3.2840034
3.2831336
3.2865941
3.2953062
3.300756
3.3038985
3.307742
3.3136166
3.3202293
3.3243585
3.3297417
3.33426
3.3411332
3.3462608
3.355002
3.3601883
3.3707658
3.3781316
3.3884575
3.3998442
3.4063879
3.4167771
33.433573
6.4805795
3.6830232
3.3744681
3.3094903
3.2910153
3.2883666
3.291726
3.3000418
3.3063893
3.3105533
3.3134376
3.3174651
3.3235021
3.3277876
3.3333283
3.3375241
3.3441398
3.3493461
3.3581551
3.3640185
3.3739297
3.3817345
3.3917738
3.4037456
3.4099309
3.4184564
35.80274
6.7838953
3.7240187
3.3904321
3.3190156
3.2985209
3.2945866
3.2969987
3.3042569
3.3111206
3.3157005
3.3188282
3.3212263
3.3260064
3.3302883
3.3359466
3.3409383
3.3472211
3.3528823
3.3611241
3.3675899
3.376365
3.3840867
3.3937943
3.4057721
3.4128079
3.4200464
38.33248
7.0984002
3.7648814
3.4066831
3.3291056
3.30622
3.3013785
3.302897
3.307981
3.3144827
3.3192544
3.322828
3.3251248
3.3287265
3.3327851
3.3382175
3.3438099
3.3503966
3.35588
3.3637685
3.3701358
3.3783376
3.3855636
3.3949121
3.4063854
3.414414
3.4210767
41.01826
7.4335869
3.8081714
3.423302
3.3398795
3.3138324
3.3079013
3.3085561
3.3120813
3.3168492
3.3214305
3.3252773
3.3281735
3.3318968
3.3355415
3.3409446
3.3464392
3.3531487
3.3584558
3.3656048
3.3721129
3.3796337
3.3867005
3.3948589
3.40606
3.4146094
3.4212004
43.862253
7.8136931
3.8570359
3.4404705
3.3506849
3.3207248
3.3134993
3.3133209
3.3161044
3.3191424
3.3229902
3.3268936
3.3302558
3.3344675
3.3381609
3.3433651
3.3484723
3.3549279
3.360022
3.3665522
3.3730557
3.3801499
3.387376
3.3944765
3.4052331
3.4142843
3.4210407
46.872138
8.2326839
3.9084792
3.4574248
3.361227
3.3265781
3.3181874
3.3171395
3.3193642
3.3216711
3.3245573
3.3282457
3.3318619
3.3364516
3.3402802
3.345303
3.3499518
3.3558893
3.3607371
3.366752
3.3729369
3.379642
3.3872919
3.3938313
3.4035476
3.4133008
3.4204205
50.059153
8.7022183
3.9622935
3.4728671
3.3713618
3.3318975
3.3219854
3.3198881
3.3216275
3.3239921
3.3264617
3.3295981
3.3333451
3.3377659
3.3419826
3.3464512
3.3508783
3.3559933
3.3605886
3.3662099
3.3722732
3.3787757
3.3867148
3.3928805
3.401304
3.4113361
3.418445
53.438057
9.2534553
4.0232207
3.4871361
3.3806688
3.3368471
3.3248365
3.3219831
3.3235896
3.3258906
3.3281653
3.3313256
3.334472
3.3389197
3.3430263
3.3470452
3.3512047
3.3554879
3.3600246
3.3651969
3.3710986
3.3769696
3.3852794
3.3915174
3.3993424
3.4082165
3.4148559
57.012337
9.9105104
4.0951944
3.5004092
3.3887345
3.3412216
3.3269193
3.3231869
3.3246729
3.3273827
3.329888
3.3327336
3.3353111
3.3392229
3.3431735
3.3471091
3.3508303
3.3546669
3.3586427
3.3637852
3.3687252
3.3739457
3.3816326
3.389128
3.3967525
3.4053314
3.4111913
60.772961
10.69358
4.1746031
3.5124549
3.395143
3.3443078
3.3284635
3.3238404
3.3248725
3.3278985
3.3306982
3.3332217
3.3356421
3.3384219
3.3423004
3.3459032
3.3495338
3.3525459
3.3558674
3.3612393
3.3657825
3.3704227
3.3765261
3.384288
3.3921721
3.4012978
3.4070239
64.687762
11.576737
4.260005
3.5229705
3.3990795
3.3465404
3.3285911
3.3234799
3.3241271
3.3264857
3.3298258
3.332217
3.3347895
3.336609
3.3392841
3.3431251
3.3455443
3.3494279
3.352779
3.3571099
3.3615778
3.3664366
3.3716675
3.3787646
3.3860889
3.3954043
3.4009372
68.707292
12.551242
4.3589861
3.5320677
3.400732
3.346521
3.3279324
3.32085
3.321225
3.3227736
3.3263452
3.3295206
3.3319819
3.3329963
3.335254
3.3390786
3.3417207
3.34522
3.3483255
3.3525285
3.3571699
3.3613219
3.36667
3.3728428
3.379425
3.3883816
3.3938882
72.773012
13.596799
4.4626161
3.5406325
3.4005879
3.3452764
3.3259247
3.3168664
3.3152039
3.3165634
3.3192153
3.3237762
3.3259525
3.327701
3.3296726
3.3325595
3.3363537
3.3398199
3.3434231
3.346611
3.3512741
3.3548282
3.3607646
3.3660813
3.3724111
3.3804365
3.3858117
76.83821
14.800157
4.6043787
3.5497207
3.3993482
3.3423942
3.3210559
3.3110833
3.3086772
3.3087761
3.3109831
3.3154566
3.3189072
3.3205711
3.3227124
3.3256283
3.3296225
3.333383
3.3367098
3.3396871
3.3439243
3.3477403
3.3538463
3.3585933
3.3642004
3.3716804
3.3767265
80.834441
15.935312
4.728216
3.5569778
3.3945574
3.3379688
3.313465
3.3026616
3.2997203
3.2990647
3.3007727
3.3049485
3.3087389
3.3110653
3.3132169
3.3161582
3.3202147
3.3245578
3.3282937
3.3313985
3.3352213
3.339341
3.3448431
3.3499627
3.3554947
3.3623736
3.366904
84.731827
17.282674
4.8952605
3.5627687
3.3898093
3.3305238
3.3056548
3.2934614
3.289741
3.288493
3.2900105
3.2934412
3.2975387
3.3004968
3.3029255
3.3057276
3.3094005
3.3144903
3.3179894
3.3216914
3.324986
3.3298932
3.3351893
3.3406459
3.3453295
3.3521732
3.3565046
88.44261
18.356124
5.0221161
3.5630554
3.3779766
3.3212462
3.2941531
3.2820749
3.2773571
3.275957
3.2769458
3.2799599
3.2847775
3.2878293
3.2902833
3.2933961
3.2968918
3.3020085
3.305751
3.310416
3.3136241
3.3188317
3.3238935
3.3293736
3.3342565
3.3405919
3.3447151
91.946927
19.7686
5.1965555
3.565231
3.3692289
3.3101608
3.2843734
3.2700934
3.2656255
3.2627983
3.2635824
3.2661224
3.2707596
3.2742936
3.2767598
3.2796771
3.282729
3.2881806
3.2925319
3.297463
3.300927
3.3059652
3.3110102
3.3167609
3.3218714
3.3285312
3.3329706
95.139634
20.850431
5.3422777
3.5621651
3.3530815
3.2970773
3.2698042
3.2569642
3.2516265
3.2489989
3.2490124
3.2510356
3.2560341
3.2601581
3.2627079
3.2656195
3.2687079
3.2735339
3.2779014
3.2828874
3.2870026
3.291881
3.2966369
3.302873
3.3081266
3.3150797
3.3197116
97.995911
22.282974
5.542652
3.5626636
3.3398776
3.2821405
3.2571372
3.243045
3.2372264
3.2336149
3.2336843
3.2351653
3.2400224
3.2447657
3.2477089
3.2503902
3.2531063
3.2574542
3.2622764
3.2676287
3.27189
3.2766371
3.2821024
3.2882435
3.2936654
3.3012492
3.306312
100.43597
23.397647
5.7294882
3.5644252
3.3226488
3.2677323
3.2413231
3.2283436
3.2225807
3.2186556
3.2179821
3.219432
3.2238143
3.2286947
3.2320563
3.2347071
3.2371758
3.2409799
3.2454683
3.2509643
3.255903
3.2608606
3.2662252
3.2721729
3.2787786
3.2859629
3.2917671
102.42555
24.566307
5.9167602
3.5571366
3.3047878
3.2500287
3.2252551
3.2122155
3.2068831
3.2022646
3.2014833
3.202972
3.206894
3.2121467
3.2158182
3.2184573
3.220905
3.2245942
3.229103
3.2347595
3.2401497
3.2451794
3.2509446
3.2568628
3.2636831
3.2715562
3.2772594
103.90309
25.725675
6.1408703
3.5632777
3.2879036
3.233365
3.2091874
3.1960086
3.1909753
3.186318
3.1848525
3.18614
3.1896558
3.1948451
3.198549
3.2014358
3.2037184
3.2071464
3.211928
3.2177622
3.2235841
3.2287403
3.2352682
3.2413695
3.247925
3.2564584
3.2626135
104.58462
26.343684
6.290025
3.5524459
3.267748
3.2147244
3.1916413
3.1794904
3.1748252
3.1709546
3.1690917
3.1702019
3.1732683
3.1783661
3.1823988
3.1856981
3.1881289
3.1911508
3.1958097
3.2017464
3.2078853
3.2135956
3.2196793
3.2260861
3.2324968
3.2406691
3.2485255
105.11814
27.182641
6.4512084
3.5489352
3.2484485
3.1965321
3.1738405
3.1617893
3.1574756
3.1541207
3.1523839
3.1534243
3.1562237
3.1613249
3.1659087
3.1691864
3.1721291
3.1754422
3.1798723
3.1860566
3.192332
3.1986631
3.2046729
3.2114383
3.2179722
3.2261437
3.2345885
104.91451
27.716002
6.5796993
3.5357338
3.2304107
3.1798987
3.1582299
3.1465996
3.1426325
3.1396712
3.1377289
3.138352
3.1410855
3.1460076
3.1510227
3.1544408
3.1575172
3.1608434
3.1650025
3.1708672
3.1769813
3.1836335
3.1897581
3.1966888
3.2032092
3.2115101
3.219251
104.07828
28.127214
6.7011867
3.526228
3.2114986
3.163082
3.1420444
3.1306703
3.1271037
3.124731
3.1229379
3.1231078
3.1258977
3.1307597
3.1363175
3.1406128
3.1439738
3.1475874
3.1516091
3.1574758
3.1636141
3.17058
3.1769274
3.1835311
3.1903502
3.1988319
3.2059546
102.79383
28.156349
6.7413691
3.5119453
3.1954317
3.1492287
3.1283356
3.1166981
3.1131042
3.1113582
3.10962
3.1098899
3.1122711
3.1170852
3.1223717
3.1270511
3.1305141
3.1341131
3.1386407
3.1440222
3.1507284
3.1573516
3.1644444
3.1706708
3.1780672
3.1865372
3.1935628
101.06043
27.924864
6.697368
3.4899276
3.1796737
3.1366616
3.1160986
3.1045959
3.1010809
3.0997719
3.0983375
3.0983421
3.1010357
3.1052988
3.111335
3.1158659
3.1196619
3.1233187
3.1277726
3.1334308
3.1396775
3.1470344
3.1536119
3.1607598
3.1675331
3.1767292
3.1837987
98.869225
27.563065
6.6004047
3.4635591
3.1660449
3.1286642
3.1060054
3.0936035
3.0900415
3.0888589
3.0876844
3.0880402
3.0901411
3.0945704
3.1001561
3.1052017
3.1091512
3.1128612
3.117421
3.12298
3.1296613
3.136867
3.1440849
3.1512299
3.1587553
3.1675172
3.174612
96.26283
27.090583
6.4742427
3.4353392
3.1567212
3.1219095
3.0997225
3.08698
3.0830469
3.0821346
3.081378
3.0815267
3.0839258
3.0874396
3.0928765
3.097399
3.101499
3.1053376
3.1096321
3.1152453
3.1216258
3.1287823
3.1357849
3.1430705
3.1504322
3.1589638
3.1664881
93.291725
26.505863
6.3375912
3.4083796
3.1476205
3.1180273
3.0935535
3.0802294
3.0766703
3.0758065
3.0756823
3.0757951
3.0781853
3.0820139
3.0869672
3.0921758
3.0958157
3.1002065
3.1041519
3.1098532
3.1161754
3.1234072
3.130438
3.1376521
3.1451982
3.1531215
3.1607159
90.007835
25.790777
6.1920089
3.3863524
3.1443843
3.1183015
3.091244
3.0766159
3.0726483
3.0718427
3.0721335
3.0728057
3.0750804
3.0785623
3.0829949
3.0878553
3.0916405
3.0960749
3.1002033
3.1058031
3.1118987
3.1190058
3.1259536
3.1331276
3.1407252
3.1481878
3.1562655
86.471611
24.949118
6.029092
3.3684736
3.1454074
3.1195691
3.0917928
3.0766528
3.072476
3.0719998
3.0718639
3.0733031
3.0748305
3.0788418
3.0826955
3.0874115
3.0915022
3.095409
3.10038
3.1050428
3.1118823
3.1177496
3.1254969
3.1319425
3.1397692
3.1464141
3.1553227
82.745805
23.991421
5.8412687
3.3504046
3.1475326
3.1233929
3.0932687
3.0781924
3.0735552
3.073094
3.0733581
3.0743279
3.0766092
3.0795812
3.0841077
3.0881329
3.0924194
3.0965434
3.1010608
3.1065287
3.1123779
3.1191275
3.1258679
3.1331506
3.1401956
3.1470879
3.1557775
78.88132
22.916706
5.6249652
3.3314323
3.1519961
3.1303179
3.0973827
3.0817599
3.0770231
3.0761208
3.076744
3.0776535
3.0797659
3.0828085
3.086448
3.0906955
3.0943929
3.0989351
3.1032774
3.1087105
3.1145784
3.1209689
3.1280901
3.1350977
3.1424537
3.148966
3.1586378
74.936445
21.748211
5.3907469
3.3159399
3.1601535
3.1391008
3.1041638
3.088279
3.0832181
3.0824807
3.0824317
3.0839219
3.0852492
3.0883511
3.091444
3.0951931
3.099257
3.1029806
3.1080846
3.1127418
3.1190928
3.1249165
3.1321745
3.1389734
3.1460658
3.152694
3.1632977
70.962282
20.522122
5.1578833
3.3079427
3.1709588
3.1492479
3.1123036
3.0968924
3.0915095
3.0907666
3.0909442
3.0919054
3.0938464
3.0956088
3.099019
3.1018589
3.1058091
3.1098179
3.113964
3.1193932
3.1245419
3.131206
3.1375746
3.1450156
3.1514709
3.1584627
3.1695888