/*--------------------------------*- C++ -*----------------------------------*\
| =========                 |                                                 |
| \\      /  F ield         | OpenFOAM: The Open Source CFD Toolbox           |
|  \\    /   O peration     | Version:  2406                                  |
|   \\  /    A nd           | Website:  www.openfoam.com                      |
|    \\/     M anipulation  |                                                 |
\*---------------------------------------------------------------------------*/
FoamFile
{
    version     2.0;
    format      ascii;
    arch        "LSB;label=32;scalar=64";
    class       volScalarField;
    location    "1";
    object      p_0;
}
// * * * * * * * * * * * * * * * * * * * * * * * * * * * * * * * * * * * * * //

dimensions      [1 -1 -2 0 0 0 0];

internalField   nonuniform List<scalar> 
96472
(
1
1
1
1
1
1
1
1
1.0000009
1.0000178
1.0002156
1.0015606
1.0070856
1.0222179
1.0528069
1.0950348
1.1211452
1.1078572
1.0918195
1.1074082
1.1468023
1.1600436
1.1332205
1.1073816
1.1037644
1.1046504
1.1008444
1.0966283
1.0929912
1.0922222
1.0942908
1.0978978
1.0979211
1.0952599
1.0917438
1.0884468
1.0856471
1.083104
1.0812274
1.0795296
1.077954
1.0773582
1.0782489
1.0800732
1.0820161
1.0825266
1.0811838
1.0780997
1.0744734
1.0713845
1.069028
1.067377
1.0665751
1.0663167
1.0663674
1
1
1
1
1
1
1
1
1.0000005
1.0000117
1.000162
1.0012843
1.0061401
1.0198984
1.0486541
1.0906278
1.1207904
1.112356
1.097059
1.1102653
1.1477028
1.1600854
1.133074
1.1075227
1.1045149
1.1050692
1.1011773
1.097159
1.0934081
1.0920355
1.0933558
1.0969885
1.09755
1.095643
1.0925176
1.0890807
1.0860598
1.0833139
1.0813519
1.0798473
1.0785086
1.0784395
1.0796669
1.0819211
1.0836641
1.0834267
1.0809009
1.0773433
1.0738953
1.0711305
1.0691583
1.0678666
1.0669365
1.0663402
1.065869
1
1
1
1
1
1
1
1
1.0000002
1.0000071
1.0001177
1.0010366
1.0052697
1.0177115
1.0446017
1.0859741
1.1199485
1.1165309
1.1026812
1.11357
1.1485561
1.160154
1.1327203
1.1076236
1.105233
1.1054812
1.1014577
1.097643
1.0938156
1.0920181
1.0925691
1.0961015
1.0970658
1.0957041
1.0930632
1.0897345
1.0866628
1.0837461
1.0815811
1.0800977
1.0791897
1.0795008
1.0811412
1.0834765
1.0849212
1.0838912
1.0807204
1.076744
1.0733782
1.0711862
1.0697328
1.06861
1.0674984
1.0663041
1.0653387
1
1
1
1
1
1
1
1
1
1.0000039
1.0000824
1.0008208
1.004478
1.0156665
1.0406715
1.081115
1.118502
1.120414
1.1085649
1.1173765
1.1493185
1.1595392
1.1321915
1.1081183
1.1060586
1.1059024
1.1017535
1.0981356
1.0941674
1.0920959
1.0919508
1.0952366
1.0966563
1.0955862
1.0933717
1.0902817
1.0873395
1.0844625
1.0819329
1.0805564
1.0798145
1.0805431
1.0825445
1.0848374
1.0857789
1.0840799
1.0803314
1.0762892
1.0733791
1.0716265
1.0705189
1.0693976
1.0680253
1.0664082
1.0648512
1
1
1
1
1
1
1
0.99999999
0.99999995
1.0000018
1.000055
1.0006357
1.0037579
1.0137665
1.0368931
1.0761087
1.1163907
1.1239966
1.1146357
1.1216689
1.1499996
1.1583391
1.1319799
1.109076
1.1068368
1.1063124
1.102003
1.0986186
1.094479
1.0922073
1.0914432
1.0943634
1.0963758
1.0954439
1.0935027
1.0905688
1.0878426
1.0851994
1.0825646
1.0810019
1.0807441
1.0817968
1.0840294
1.0860565
1.0862298
1.0838853
1.0799725
1.0762424
1.0737505
1.0722729
1.0712299
1.0701584
1.068684
1.0667345
1.0647578
1
1
1
1
1
1
1
1
0.99999992
1.0000004
1.0000343
1.00048
1.0031116
1.0120103
1.033285
1.0710182
1.1136109
1.1272557
1.1207807
1.1264202
1.1506039
1.1568107
1.1317992
1.1099466
1.107443
1.1068283
1.10234
1.0991286
1.094909
1.0922512
1.0910578
1.0934004
1.0960871
1.0954569
1.093587
1.0908845
1.0879321
1.0859123
1.083121
1.0817421
1.0817671
1.0831989
1.0856138
1.0872106
1.0865667
1.0836766
1.0797465
1.0764568
1.0743312
1.0729825
1.0719859
1.0708007
1.0691351
1.0671107
1.0649559
1
1
1
1
1
1
1
1
0.99999992
0.99999967
1.0000194
1.0003511
1.0025394
1.0103963
1.0298562
1.0659003
1.1101765
1.1301402
1.1269364
1.1315178
1.151347
1.1550878
1.1313843
1.1108394
1.1084407
1.1075154
1.1027135
1.0994375
1.0953498
1.0922951
1.0907525
1.0923446
1.0956665
1.0955268
1.0938138
1.0911774
1.0881589
1.0861397
1.0836744
1.0823465
1.0828575
1.08479
1.0872727
1.088434
1.0869653
1.0834824
1.0797435
1.0769165
1.0751094
1.0739071
1.0727003
1.0711858
1.069442
1.0673543
1.065201
1
1
1
1
1
1
1
1
0.99999993
0.99999933
1.000009
1.0002469
1.0020369
1.0089159
1.0266094
1.0607975
1.1061217
1.1325611
1.1330435
1.1369051
1.1523384
1.153142
1.1307508
1.1120116
1.1097128
1.1077881
1.1030971
1.099791
1.0960006
1.0924704
1.0904728
1.0913073
1.0949108
1.0956153
1.0940544
1.0917125
1.0883134
1.0863159
1.0842363
1.082953
1.0838715
1.0863439
1.0889176
1.0895484
1.0873031
1.0835546
1.0800203
1.077618
1.0761686
1.0747924
1.0733481
1.071578
1.0695414
1.067451
1.065553
1
1
1
1
1
1
1
1
0.99999995
0.99999924
1.0000023
1.0001648
1.0016013
1.0075658
1.0235514
1.0557556
1.1015136
1.1344263
1.1389895
1.1426236
1.1536012
1.1509061
1.1301575
1.1130827
1.1108549
1.1079997
1.1039036
1.1002201
1.0965173
1.0927095
1.0902367
1.0903884
1.093789
1.0955402
1.0942856
1.0922401
1.0889215
1.0866161
1.0845949
1.0836878
1.0848885
1.0876535
1.0902776
1.0904166
1.0877216
1.0837051
1.0803848
1.0784536
1.0771072
1.0757875
1.0741176
1.0719278
1.0697907
1.0676598
1.0659803
1
1
1
1
1
1
1
1
0.99999997
0.99999931
0.99999839
1.0001022
1.0012293
1.0063399
1.0206925
1.0508217
1.0964723
1.1355289
1.1447794
1.1486527
1.1552059
1.1488147
1.1295224
1.113905
1.1120321
1.1087333
1.1047129
1.1003944
1.0969702
1.0932463
1.0902031
1.0895789
1.0923847
1.0951779
1.0943481
1.0927446
1.0897794
1.0867581
1.0853381
1.0846392
1.0858291
1.0888919
1.0914016
1.0910802
1.0878702
1.0837974
1.0808367
1.0791886
1.0781048
1.0766475
1.0746509
1.0724236
1.0700969
1.0681242
1.0663943
1
1
1
1
1
1
1
1
0.99999999
0.99999946
0.99999643
1.0000564
1.0009152
1.0052375
1.0180376
1.0460368
1.0911164
1.1356307
1.1505203
1.1548998
1.1570594
1.1468638
1.1284574
1.1147288
1.1133078
1.1095815
1.1051173
1.1007182
1.0976174
1.0938436
1.0903073
1.0889299
1.0908667
1.0944743
1.094201
1.0931646
1.0904745
1.0874777
1.0860764
1.0858102
1.0871537
1.0900173
1.0921589
1.0914002
1.0880436
1.0840782
1.0812198
1.0798478
1.0787431
1.0772364
1.0752826
1.0729208
1.0706261
1.0687173
1.0669344
1
1
1
1
1
1
1
1
1
0.99999962
0.99999582
1.0000246
1.0006558
1.0042575
1.0155887
1.0414277
1.0855389
1.1346699
1.1561039
1.1613444
1.1593054
1.1451126
1.1268156
1.1156666
1.1145861
1.1102527
1.1056487
1.1014673
1.0980793
1.0942977
1.0907112
1.088461
1.0895402
1.0932308
1.0941038
1.0930534
1.0913559
1.0884618
1.0869756
1.0869439
1.0885991
1.0911968
1.0928616
1.0917551
1.0883037
1.0843266
1.0817144
1.0803185
1.0791984
1.0778479
1.0757552
1.0734066
1.0712552
1.0692015
1.0681144
1
1
1
1
1
1
1
1
1
0.99999977
0.99999604
1.000004
1.0004468
1.0033947
1.013341
1.0370208
1.0798116
1.1326283
1.1614128
1.1680029
1.1618029
1.1439069
1.1249577
1.1165825
1.1157053
1.1109572
1.1065947
1.1021258
1.0983246
1.0948821
1.0913551
1.0882067
1.0883601
1.091692
1.0937405
1.0929658
1.0920712
1.0894725
1.0877467
1.0882071
1.0900584
1.0924818
1.0936492
1.0920355
1.0884343
1.0848186
1.0823799
1.0809589
1.0798049
1.0780216
1.0759241
1.0738006
1.0718909
1.0704911
1.0684911
1
1
1
1
1
1
1
1
1
0.9999999
0.99999673
0.99999194
1.0002845
1.002646
1.0112897
1.0328383
1.0740121
1.1295267
1.1664088
1.1748178
1.1646701
1.142691
1.123129
1.1173125
1.1167759
1.1118345
1.1075315
1.1025284
1.0988568
1.0955624
1.0919161
1.088292
1.0873362
1.0900385
1.0930823
1.0928872
1.0923534
1.0904983
1.0887326
1.0890971
1.0913804
1.0939081
1.0944926
1.0922819
1.0886477
1.0853456
1.0832799
1.0820435
1.0801477
1.0781785
1.0759768
1.074332
1.0725853
1.0710294
1.0692852
1
1
1
1
1
1
1
1
1
0.99999999
0.9999976
0.99998611
1.0001628
1.0020057
1.0094308
1.0289034
1.0682094
1.1255
1.1708412
1.1816302
1.1678687
1.1416738
1.1215131
1.1178019
1.1179479
1.11279
1.1081991
1.1030788
1.0996243
1.0960367
1.092475
1.08873
1.0866064
1.0882661
1.0921404
1.0926931
1.0923279
1.091414
1.0896689
1.0898043
1.0923664
1.095175
1.0954636
1.0928232
1.0889473
1.0858376
1.0843239
1.0827186
1.0808643
1.0785836
1.0764658
1.0744208
1.0728444
1.0715288
1.0704314
1
1
1
1
1
1
1
1
1
1
0.99999845
0.99998461
1.000076
1.0014686
1.0077613
1.0252342
1.0624647
1.1207416
1.1743168
1.1884613
1.1715351
1.1409536
1.1199482
1.1180402
1.1190827
1.1136884
1.1088377
1.1039122
1.1002006
1.0964215
1.0931685
1.0894041
1.0862331
1.0867725
1.0906653
1.0924944
1.0923052
1.0918894
1.0904633
1.0905598
1.093138
1.0962364
1.0965205
1.0933973
1.0892482
1.0865749
1.0848788
1.0834977
1.0817167
1.0794125
1.0767694
1.0746636
1.0734722
1.0721707
1.0708819
1
1
1
1
1
1
1
1
1
1.0000001
0.99999916
0.99998581
1.000018
1.0010298
1.0062749
1.0218401
1.056834
1.1154147
1.1765303
1.1952737
1.1757447
1.1405546
1.118188
1.1182696
1.1200861
1.1144391
1.1096901
1.104905
1.1006384
1.0969458
1.0937719
1.09019
1.086294
1.085706
1.0888262
1.0922296
1.0922472
1.0917745
1.0912882
1.091375
1.0939055
1.0970981
1.0972979
1.0940356
1.089981
1.0869764
1.0854756
1.0843188
1.0825244
1.0797678
1.0774565
1.075876
1.074109
1.07292
1.07131
1
1
1
1
1
1
1
1
1
1.0000001
0.9999997
0.99998851
0.99998292
1.0006807
1.0049682
1.0187278
1.051375
1.1096661
1.1772727
1.2020676
1.1804796
1.1406964
1.1166513
1.1185699
1.1209965
1.1150981
1.1105669
1.10592
1.1012892
1.0974971
1.0941972
1.0909091
1.0868335
1.0850193
1.0870413
1.091502
1.0920388
1.0915167
1.0916111
1.0922399
1.0948987
1.0977006
1.0978689
1.0948775
1.09066
1.0875645
1.0862382
1.0849238
1.0827095
1.0803412
1.078686
1.0767966
1.0754191
1.0736585
1.0722943
1
1
1
1
1
1
1
1
1
1.0000001
1.0000001
0.99999179
0.99996495
1.0004098
1.0038334
1.0158945
1.0461454
1.1036204
1.1764126
1.2086321
1.1856916
1.141046
1.1148833
1.1188136
1.12194
1.1157596
1.1112297
1.1068662
1.102278
1.0980183
1.0945629
1.0914192
1.0877353
1.084873
1.0856645
1.0898446
1.0917548
1.0912134
1.0913224
1.0931927
1.0960386
1.0984105
1.0984302
1.0953811
1.0912632
1.0885662
1.0869618
1.0851567
1.0830998
1.0812259
1.079347
1.0779201
1.0765184
1.0747729
1.0733604
1
1
1
1
1
1
1
1
1
1
1.0000003
0.99999493
0.99995927
1.0002072
1.0028655
1.0133407
1.041202
1.0973727
1.1739547
1.2148987
1.1914601
1.1418196
1.1133257
1.1189224
1.1228907
1.1165433
1.1116711
1.1075817
1.1034113
1.0987359
1.094988
1.0918088
1.0886926
1.0853234
1.0847097
1.0875904
1.0910088
1.0907076
1.0908839
1.0938143
1.0973116
1.0996512
1.0987809
1.0954942
1.0921214
1.0896005
1.0875824
1.0857033
1.0837582
1.0817243
1.0800719
1.0788949
1.0773528
1.0761435
1.0742038
1
1
1
1
1
1
1
1
1
1
1.0000004
0.99999754
0.99996166
1.0000667
1.0020548
1.0110602
1.0365899
1.0910006
1.1700865
1.2203267
1.197784
1.1428167
1.1125001
1.1188116
1.1236817
1.1174223
1.1121115
1.1080085
1.1043519
1.0998071
1.0956362
1.0922605
1.0894763
1.0862526
1.0841757
1.0854013
1.0892043
1.0901283
1.0905926
1.0938417
1.0985883
1.1010481
1.0993264
1.0957163
1.0928142
1.0904362
1.0885536
1.0865692
1.0842127
1.0822638
1.0809268
1.0795574
1.0784126
1.076922
1.0749485
1
1
1
1
1
1
1
1
1
1
1.0000003
0.99999949
0.99996877
0.99997581
1.001394
1.0090512
1.0323396
1.0845726
1.1650696
1.2248506
1.2044645
1.1442327
1.112362
1.1186619
1.1241836
1.1183362
1.1127271
1.1083026
1.1049735
1.1010622
1.0966116
1.0928079
1.0901168
1.0873934
1.0842583
1.083581
1.086427
1.0892538
1.0903849
1.0937984
1.0993298
1.1022353
1.100327
1.0964031
1.093094
1.0910982
1.0897169
1.0874993
1.0849625
1.0829994
1.081559
1.0803167
1.079131
1.077266
1.0758349
1
1
1
1
1
1
1
1
1
1
1.0000003
1.0000008
0.99997798
0.99992274
1.0008697
1.0073066
1.0284684
1.07817
1.1591521
1.2278956
1.211558
1.1457519
1.1127522
1.1185241
1.1242987
1.1191564
1.1135292
1.1087309
1.1053835
1.1020245
1.097816
1.0936323
1.0907898
1.0884832
1.0849263
1.0824326
1.0834779
1.0872922
1.0902156
1.0940353
1.0995821
1.1030359
1.1015162
1.0974595
1.0936162
1.0916581
1.0904564
1.088572
1.0860835
1.0839977
1.0822963
1.0810458
1.0794176
1.0779651
1.0763826
1
1
1
1
1
1
1
1
1
0.99999999
1.0000002
1.0000015
0.99998707
0.9998974
1.0004676
1.0058208
1.024986
1.0718903
1.1525649
1.2289687
1.2188593
1.1480863
1.1132663
1.118465
1.1241892
1.1198467
1.1144544
1.1094148
1.1057097
1.1024764
1.0988026
1.094823
1.0917148
1.0894316
1.0859672
1.0821718
1.0811414
1.0843015
1.0894496
1.0943811
1.0999627
1.1032789
1.1023614
1.0985783
1.0947495
1.0923042
1.0909565
1.0893576
1.0872564
1.0851394
1.0834332
1.0816231
1.0802312
1.0786695
1.0767937
1
1
1
1
1
1
1
1
1
0.99999999
1.0000001
1.0000019
0.99999471
0.99989095
1.0001737
1.0045842
1.0218935
1.0658398
1.145533
1.2279014
1.2259152
1.1519118
1.1142163
1.1183878
1.1239524
1.1204729
1.1154231
1.1102714
1.106099
1.1026229
1.0994346
1.0961484
1.0930019
1.0903124
1.0870129
1.0826888
1.0798758
1.0812619
1.0873672
1.0945257
1.1004083
1.1035101
1.1025738
1.0995287
1.0960745
1.0934274
1.0916329
1.0897876
1.0880585
1.0862807
1.084546
1.0827405
1.0812071
1.079185
1.0776499
1
1
1
1
1
1
1
1
1
0.99999998
1
1.0000019
1.0000004
0.99989544
0.99996212
1.0035832
1.019178
1.0600991
1.1382141
1.2249409
1.231757
1.1575746
1.1155542
1.11778
1.12378
1.121166
1.11641
1.1111413
1.1066203
1.1026665
1.0998108
1.0973882
1.0945595
1.0912338
1.0878053
1.0836502
1.0796543
1.079114
1.0845037
1.0933819
1.1006641
1.1039477
1.1028312
1.0999443
1.0971398
1.0948698
1.0926144
1.0903095
1.0884842
1.0870646
1.0855556
1.0840581
1.0820277
1.0803385
1.0788801
1
1
1
1
1
1
1
1
1
0.99999998
0.99999996
1.0000018
1.0000044
0.99990428
0.99983239
1.0028205
1.0168325
1.0547289
1.130589
1.2199678
1.2367507
1.165027
1.1165887
1.1171299
1.1240754
1.1219516
1.1171553
1.1118071
1.1073004
1.1029529
1.1001282
1.0982159
1.095791
1.0921771
1.0884432
1.0846859
1.0804462
1.0782853
1.0818687
1.0905537
1.0996232
1.1041039
1.1038787
1.1007408
1.0978209
1.0960056
1.0938938
1.0911708
1.089035
1.0875331
1.0863884
1.0848655
1.0832259
1.0815113
1.0797359
1.0777694
1.0766426
1.0758977
1.0750136
1.0743655
1.0738657
1.0731885
1.07218
1.0711782
1.0703963
1.0697279
1.06903
1.068346
1.0677122
1.0669785
1.0663239
1.0658116
1.0650031
1.0642607
1.0636113
1.063
1.0626058
1.0627122
1.0633168
1.0642704
1.0653089
1.0664197
1.0754564
1.0746078
1.0737126
1.0731081
1.0723044
1.0714536
1.0705728
1.069766
1.0690956
1.0684455
1.0675646
1.0666276
1.0657417
1.0650256
1.0647341
1.064549
1.0641583
1.0636187
1.0627898
1.061925
1.0611572
1.0607787
1.0609775
1.0617532
1.0628268
1.0640973
1.0654344
1.0730182
1.0723236
1.0716956
1.0709519
1.0700672
1.0690981
1.0682097
1.0675646
1.067037
1.0663496
1.0654236
1.0643044
1.0631907
1.062465
1.0621966
1.0622204
1.0621464
1.0616689
1.0609697
1.0602078
1.0597025
1.0597137
1.0601751
1.0610054
1.0619544
1.0629724
1.0639746
1.0707226
1.0700487
1.0695443
1.0686496
1.0676382
1.0666306
1.0658603
1.0654151
1.0648882
1.0642346
1.0632415
1.062048
1.0609539
1.0602102
1.0599717
1.0598988
1.059734
1.0593604
1.0587517
1.0582736
1.0582066
1.0587058
1.0596291
1.0606898
1.0616319
1.0623021
1.0625748
1.0686066
1.0679631
1.0671985
1.0662675
1.0652206
1.0642715
1.06354
1.0630941
1.0624817
1.0617351
1.0608569
1.0599045
1.0589541
1.0582929
1.0579347
1.0577238
1.0573808
1.056975
1.0566059
1.0564764
1.056764
1.0575937
1.0587452
1.059948
1.0609095
1.0612945
1.0608826
1.0664294
1.065765
1.0648656
1.0638942
1.0630468
1.0622368
1.0613866
1.0605645
1.0598688
1.0590519
1.0583046
1.0575183
1.0568326
1.0562554
1.0558474
1.0555174
1.0551284
1.0548402
1.0548309
1.0551437
1.0557849
1.0566481
1.057665
1.0585651
1.0591517
1.0590691
1.0582518
1.0641436
1.0632492
1.0624381
1.0616554
1.0609584
1.0601716
1.0591883
1.058117
1.0572114
1.0563924
1.0556789
1.0551189
1.0545718
1.0540493
1.0535022
1.053028
1.0528129
1.0528723
1.0534736
1.0542828
1.0552198
1.055991
1.0565469
1.0566557
1.0564343
1.0557446
1.054665
1.0614813
1.0605554
1.0598614
1.0592679
1.0585281
1.0577095
1.056718
1.0556275
1.0546965
1.0539494
1.0532753
1.0528487
1.0522873
1.0517171
1.0510529
1.0506194
1.0506053
1.0511886
1.0522207
1.0535145
1.0545406
1.0551769
1.0550705
1.0544339
1.0532932
1.0520561
1.0507809
1.0586079
1.0577707
1.0572451
1.0566169
1.0557455
1.0549077
1.0539748
1.052986
1.0522307
1.0516329
1.0510332
1.050634
1.0502021
1.0494924
1.0488863
1.0486145
1.0489101
1.0498677
1.0511475
1.0524329
1.0532145
1.0534077
1.0528681
1.0516048
1.050046
1.0485148
1.0473168
1.055885
1.0551374
1.0545411
1.0538619
1.0529148
1.0519523
1.0511756
1.0503534
1.0496955
1.0493616
1.0487868
1.0484158
1.0480594
1.0475433
1.0472367
1.0473953
1.0479022
1.0488977
1.0500263
1.0507822
1.0509768
1.0505482
1.0495929
1.0480551
1.0465443
1.0451908
1.044339
1.0533503
1.0525732
1.0518656
1.0510672
1.050084
1.0491678
1.0484376
1.0478047
1.0472568
1.0469006
1.0463986
1.0460665
1.0459516
1.0458458
1.0459917
1.0465901
1.0473119
1.0480163
1.0485403
1.0484922
1.0479279
1.0467997
1.0455287
1.0441759
1.0429345
1.0420799
1.0415982
1.0507121
1.0497992
1.0489846
1.048265
1.0473173
1.0464968
1.0459355
1.0453574
1.0448119
1.0443719
1.043932
1.0437731
1.0439348
1.0443049
1.0449878
1.0458781
1.0464074
1.0466017
1.0462958
1.0455834
1.0443127
1.0427758
1.0414789
1.0403364
1.0395091
1.0390782
1.0388339
1.0476782
1.0466852
1.0459516
1.0453165
1.0445376
1.0439465
1.0434042
1.0428834
1.0423782
1.0418676
1.0416447
1.0417165
1.0422607
1.043019
1.0439725
1.0445564
1.0447335
1.0441961
1.0432958
1.0419984
1.040383
1.0389785
1.0377857
1.0369984
1.036484
1.0362566
1.0360236
1.0442672
1.0434219
1.0427199
1.0422343
1.0417676
1.0411828
1.0407867
1.0403158
1.0399455
1.039662
1.0397497
1.040177
1.0409796
1.0417779
1.0423527
1.0424623
1.0419396
1.0408876
1.0395207
1.0379706
1.0365757
1.0354926
1.0346273
1.0341511
1.0337579
1.0334898
1.0331246
1.040816
1.0399773
1.0395651
1.039127
1.038722
1.0384199
1.0380389
1.0377746
1.0378032
1.0378558
1.0383792
1.0390564
1.0396603
1.0400986
1.0399747
1.0393573
1.038271
1.0367573
1.0354257
1.0339248
1.0330244
1.0322262
1.0318255
1.0314965
1.0310742
1.0306598
1.0299797
1.0374066
1.0368982
1.0363091
1.0360445
1.0358257
1.0354313
1.0355075
1.0355138
1.0358297
1.0365997
1.0370614
1.037719
1.0379198
1.0375336
1.0367753
1.0354932
1.0339573
1.0325494
1.0311854
1.0302743
1.0296195
1.0293375
1.0289919
1.0287738
1.0280978
1.0275665
1.0265596
1.034358
1.0338058
1.0335725
1.033031
1.0329794
1.0330628
1.0329962
1.0336908
1.0343099
1.0348742
1.0355469
1.0355657
1.0350776
1.0342826
1.0326222
1.0313265
1.0295371
1.0284869
1.0274413
1.0268166
1.0266385
1.0262443
1.0262002
1.0255623
1.0249583
1.0239719
1.0229737
1.0316458
1.0311258
1.0308382
1.0307815
1.0306357
1.0308777
1.0314518
1.0318469
1.0325326
1.032934
1.0327284
1.0324948
1.0312168
1.0300489
1.0283497
1.0268056
1.0256811
1.0246636
1.0241557
1.0237025
1.0235802
1.0232001
1.022896
1.0221888
1.0213231
1.0201955
1.0191727
1.029198
1.0290682
1.0287249
1.0287768
1.0291364
1.0292494
1.0298137
1.030147
1.0300152
1.030001
1.0291306
1.0281262
1.0268759
1.0252949
1.024016
1.0228359
1.0218937
1.0215083
1.0208654
1.0208621
1.0202402
1.0200564
1.0192158
1.0185211
1.0173731
1.0163271
1.0153184
1.0274966
1.0273177
1.0274511
1.0274283
1.0276963
1.0279247
1.0277604
1.027654
1.0269855
1.0259765
1.0248321
1.0233837
1.0220223
1.0209675
1.0197482
1.0193062
1.0185216
1.0183239
1.0178322
1.0175715
1.0169337
1.0164136
1.0154611
1.014455
1.0134588
1.0123466
1.011527
1.0264482
1.0263579
1.0264164
1.0263996
1.026268
1.0259763
1.0253024
1.0243791
1.023197
1.021624
1.0202237
1.0188145
1.0175217
1.0169429
1.0160801
1.0159088
1.0153379
1.0151051
1.0145932
1.0139873
1.0132991
1.0124958
1.0114537
1.0104905
1.0093573
1.0085888
1.0077461
1.0257427
1.0256518
1.0254287
1.0250395
1.024391
1.023421
1.0222494
1.0206355
1.0190885
1.0175031
1.015898
1.0148476
1.0137788
1.0134038
1.0127821
1.0126375
1.0121932
1.0116389
1.0109557
1.0102484
1.0093467
1.008204
1.0075107
1.0063889
1.0055361
1.0047117
1.0041707
1.0247707
1.0244109
1.0238087
1.0229851
1.0217835
1.0202474
1.0187123
1.0168984
1.0151459
1.0137788
1.0124865
1.0114918
1.0108802
1.0102251
1.0100387
1.0092
1.0089197
1.0080076
1.0070685
1.0062222
1.0051784
1.0039818
1.0034999
1.0022047
1.0019246
1.0008705
1.000552
1.022654
1.0220221
1.0210947
1.019872
1.0183305
1.01657
1.0150835
1.0132394
1.0117668
1.0108615
1.0094654
1.0090528
1.0082914
1.0075874
1.007316
1.0058488
1.0057753
1.0039982
1.0032355
1.0020618
1.0010889
0.99974423
0.99956709
0.99828389
0.99816608
0.99710441
0.99697158
1.01901
1.0180717
1.0169313
1.0156656
1.0142236
1.0125668
1.0112939
1.0100916
1.0087698
1.0081994
1.0071433
1.0067249
1.0059279
1.0050849
1.0044489
1.0028633
1.0023097
1.0004278
0.99920407
0.99830739
0.99682031
0.99616895
0.99533995
0.99476873
0.99426301
0.99354567
0.99310454
1.0137535
1.0127668
1.0116899
1.0105002
1.0095922
1.0084504
1.007417
1.0070885
1.0059658
1.0055899
1.0049269
1.0039794
1.0035631
1.0021652
1.0015752
0.99974508
0.99900522
0.99709731
0.99549013
0.99487315
0.99295278
0.99275807
0.9913238
0.99143754
0.99028942
0.98991827
0.98924811
1.0074773
1.0065926
1.005769
1.0050124
1.0045959
1.0040454
1.0035892
1.0037443
1.0030979
1.0025699
1.0022031
1.0010358
1.0004991
0.99932426
0.99792743
0.99691613
0.99554378
0.99391142
0.9924111
0.99159359
0.9896715
0.98948067
0.98781349
0.98793764
0.98656788
0.98632769
0.9852806
1.0009923
1.0003042
0.99974309
0.99952489
0.99952546
0.99932651
0.99948784
0.99990054
0.99945116
0.99914086
0.99855852
0.99754688
0.99706944
0.99569086
0.99448769
0.9936569
0.99222572
0.99086188
0.98966776
0.98835035
0.98699457
0.98624928
0.98480683
0.9844341
0.98313823
0.98267865
0.98156565
0.99491223
0.99447272
0.99410333
0.99423686
0.99467575
0.99447044
0.99499462
0.99539403
0.99486486
0.99500155
0.99397782
0.99354017
0.99290362
0.99167912
0.99110709
0.98975139
0.98933941
0.98750556
0.98710498
0.98512525
0.98464412
0.98297402
0.98216369
0.98106044
0.9799739
0.97910467
0.97802972
0.98956473
0.98923637
0.98911487
0.98947802
0.98981715
0.98985305
0.99004871
0.99021361
0.99009495
0.98961068
0.9890957
0.98863063
0.98828725
0.98742628
0.98700637
0.98618338
0.98588357
0.98447985
0.98395604
0.98238143
0.98181831
0.98008401
0.97943298
0.9779205
0.97693952
0.97574934
0.97467227
0.98497638
0.98471129
0.98467851
0.98495798
0.98522967
0.98517007
0.98491358
0.98493203
0.98468679
0.98397777
0.98381856
0.98340794
0.9832753
0.98281464
0.98267888
0.98241853
0.98208418
0.98123085
0.98068065
0.97955272
0.97867297
0.97737139
0.97642837
0.97503973
0.9739246
0.97263272
0.97149123
0.98095431
0.9806698
0.98053887
0.98074604
0.98075494
0.98028077
0.97990647
0.97967523
0.9790683
0.97845586
0.97849628
0.97807686
0.97811824
0.97821361
0.97805587
0.97845682
0.97781455
0.97782886
0.97699141
0.97647919
0.97535721
0.97448792
0.97328781
0.97212282
0.97093436
0.96964728
0.96847302
0.97726914
0.97692386
0.97663504
0.97657884
0.97623417
0.97542762
0.97503007
0.97451934
0.97362857
0.97349863
0.97326372
0.97293401
0.9732873
0.97350288
0.97359272
0.97402235
0.97357495
0.97382102
0.97316701
0.97282382
0.97194231
0.97107223
0.97021634
0.96886358
0.96806039
0.96656776
0.96554955
0.97366339
0.97331191
0.97284092
0.97238371
0.97166164
0.97070257
0.97025642
0.96959661
0.96880946
0.96883504
0.96854963
0.96833942
0.96875216
0.96911566
0.96918318
0.96959925
0.96923811
0.96954722
0.96904208
0.96884464
0.96816477
0.96740989
0.96683112
0.96555154
0.96501391
0.96348947
0.96264321
0.96994156
0.96955397
0.9689252
0.96819566
0.96734348
0.9662866
0.96561895
0.96514455
0.96454904
0.96439518
0.96452154
0.96418898
0.9645462
0.96502925
0.96490954
0.96528163
0.96500367
0.96520213
0.96478431
0.9646288
0.96416406
0.96363147
0.96312297
0.96226034
0.96173109
0.96050842
0.95972154
0.96595837
0.96550874
0.96484382
0.96407509
0.96329797
0.96235908
0.96149887
0.96119606
0.9607148
0.96046326
0.96080007
0.96038549
0.96060673
0.96103507
0.96077097
0.96101378
0.96086749
0.96086348
0.9605828
0.9603371
0.96025696
0.95967274
0.95957714
0.95872324
0.95844279
0.95750516
0.9568816
0.96168702
0.96129098
0.96070382
0.96005805
0.95952976
0.95883975
0.95802329
0.95772138
0.95728693
0.95700829
0.95727159
0.95678804
0.95678584
0.95704567
0.95671782
0.95684138
0.95673778
0.95664398
0.95650577
0.95625693
0.9564583
0.95589354
0.95614039
0.95517801
0.95526119
0.95447529
0.95401629
0.95727904
0.95703714
0.9566679
0.9562648
0.95599204
0.95559148
0.95498106
0.95465546
0.95425089
0.95388487
0.9539109
0.95341807
0.95315644
0.95312188
0.95278963
0.9529378
0.95269147
0.95263336
0.95263174
0.95245117
0.95283444
0.95233867
0.95267001
0.95196729
0.95210193
0.95158128
0.9511618
0.95309396
0.95300647
0.95288632
0.95271784
0.95259293
0.95244884
0.95207797
0.95174995
0.95142074
0.95099493
0.95078768
0.95034733
0.94984891
0.94959888
0.94926098
0.94928505
0.94905115
0.9489776
0.94907441
0.94892043
0.94943163
0.94907822
0.94923006
0.94907554
0.94901626
0.94886488
0.94845468
0.94954157
0.94953823
0.94953098
0.9494355
0.94934287
0.94930898
0.94912942
0.94888242
0.94856466
0.94816355
0.94783546
0.94745697
0.9470089
0.94658203
0.94625901
0.94610776
0.94595478
0.94584727
0.94593138
0.94586366
0.94604792
0.9461124
0.94616258
0.94629903
0.94611458
0.94611857
0.94585401
0.94665818
0.94667735
0.9466622
0.94662306
0.94651226
0.94641622
0.94628243
0.94608665
0.94579616
0.94547456
0.945129
0.94481293
0.94444894
0.94403258
0.94373325
0.94346361
0.94332122
0.94316587
0.94318131
0.94317019
0.9431632
0.9432566
0.94338937
0.94353695
0.94354957
0.94341838
0.94313049
0.94418759
0.94416911
0.94416593
0.94416116
0.94404942
0.94392022
0.94378153
0.9436074
0.9433846
0.94308081
0.94278891
0.94244711
0.94209982
0.94176613
0.94152051
0.94121221
0.94106519
0.94091423
0.94079396
0.94085567
0.94065745
0.94085411
0.94076826
0.9410176
0.94093152
0.94091159
0.94063844
0.94153353
0.9416003
0.94169933
0.941762
0.94172163
0.94168724
0.94162615
0.94154256
0.94136827
0.94101186
0.94079334
0.94033046
0.94004885
0.93983744
0.93946714
0.93923558
0.93882369
0.93896603
0.93865538
0.93873126
0.93857617
0.93863399
0.93875783
0.93865388
0.93881347
0.93853178
0.93850032
0.93899966
0.93921255
0.93939565
0.9395414
0.93964698
0.93968965
0.93983317
0.93985313
0.93960763
0.93947207
0.93896766
0.93875022
0.93816206
0.93810911
0.93761008
0.93720349
0.9370086
0.93670287
0.93708553
0.93654244
0.9369923
0.93652534
0.93706891
0.93675889
0.93700976
0.9367472
0.9367427
0.936997
0.93721805
0.93748236
0.93774108
0.93799908
0.93822576
0.9384037
0.93850354
0.93841449
0.93802691
0.93792764
0.93719113
0.93693022
0.93623591
0.9360256
0.93564203
0.93512885
0.93515807
0.93485857
0.93527711
0.93484701
0.93529674
0.9350166
0.93551342
0.93525845
0.9354992
0.93526479
0.93569048
0.93585636
0.93613598
0.93648613
0.93684688
0.93714775
0.9374374
0.93737472
0.93743425
0.93721418
0.9367407
0.93653716
0.93550539
0.93518203
0.93463857
0.93430367
0.93405726
0.93341724
0.93356421
0.93339258
0.93371643
0.9334881
0.93392035
0.93377693
0.93415435
0.93408331
0.93409022
0.9349861
0.93517306
0.93543111
0.93574204
0.93614649
0.93648159
0.93666239
0.9366064
0.93659034
0.93634032
0.93620173
0.93537923
0.93517058
0.93419686
0.93380049
0.93339944
0.9328877
0.93284165
0.93227667
0.9324138
0.93231615
0.93250236
0.93259279
0.9328251
0.93278481
0.93291066
0.93284752
0.93474768
0.93489655
0.93516981
0.93539126
0.9356674
0.93597115
0.93608832
0.93586461
0.93604232
0.9354572
0.93540885
0.93493934
0.93418768
0.93409896
0.93291119
0.93307615
0.93213629
0.93236731
0.93188863
0.93171604
0.93180616
0.93170733
0.931969
0.93176354
0.93203668
0.93193245
0.93206415
0.93487526
0.93491509
0.93504186
0.93519517
0.93528965
0.9353591
0.93558133
0.93528748
0.93545763
0.93480876
0.93470554
0.9343177
0.93370062
0.93355128
0.93264582
0.93268087
0.93198237
0.93210658
0.93174659
0.93170189
0.93155683
0.93160133
0.93162651
0.93157013
0.93170484
0.93155318
0.93141312
0.93513268
0.93511347
0.93514085
0.93501958
0.93523185
0.93494493
0.93507708
0.93488101
0.93464412
0.9348176
0.93387568
0.93418404
0.9330014
0.93315984
0.93262096
0.93215668
0.93243879
0.93140147
0.93230201
0.93121831
0.93219391
0.93142084
0.9321207
0.93171124
0.93175633
0.93147205
0.93110904
0.93546631
0.93550064
0.9354712
0.93538378
0.93513191
0.93512683
0.93491518
0.93469452
0.9346615
0.93410801
0.93416084
0.93344058
0.93327816
0.9327435
0.93252932
0.93235217
0.93179399
0.93207742
0.93159837
0.93219595
0.93178919
0.93230777
0.93193385
0.93224895
0.93186874
0.93176952
0.93126934
0.93622205
0.93614531
0.93599898
0.93592929
0.93561099
0.93545476
0.93526864
0.93478254
0.93485247
0.93409367
0.93413089
0.93357609
0.93317147
0.93316964
0.93234698
0.93256564
0.93198338
0.93218944
0.93207201
0.93206338
0.93225327
0.93213351
0.93246616
0.93230755
0.93239669
0.93193093
0.93146533
0.93724761
0.93707655
0.93685818
0.93656861
0.93636771
0.93603679
0.93569953
0.9352547
0.93481956
0.93476196
0.93403877
0.9341809
0.93335475
0.93338297
0.93319122
0.9326663
0.93306242
0.93213988
0.93267979
0.93209277
0.93262357
0.93245346
0.9326559
0.93260948
0.93237293
0.93203341
0.93136653
0.93835215
0.93816325
0.93786231
0.93751087
0.93685611
0.93667151
0.93598498
0.93580441
0.93528542
0.93481736
0.93489927
0.93411557
0.9346129
0.93380331
0.93407484
0.93372557
0.93326253
0.93361303
0.93269254
0.93350701
0.93267929
0.93328704
0.93268804
0.93271851
0.93225205
0.93181268
0.93126151
0.93940301
0.93910526
0.93870263
0.93822053
0.93760814
0.93697862
0.93668072
0.93583681
0.93602668
0.93523395
0.93535872
0.93528992
0.93481453
0.93542174
0.9345195
0.93509799
0.93439194
0.93460809
0.93437881
0.93399945
0.93399919
0.93340509
0.933436
0.93264272
0.93244379
0.93161652
0.93103709
0.94010663
0.93988768
0.93936474
0.93879763
0.93840547
0.93750397
0.93712725
0.93668375
0.93607043
0.93643601
0.9357235
0.93624959
0.93589022
0.93594726
0.93640776
0.93564582
0.93653205
0.93527995
0.93606541
0.93486316
0.93507012
0.93421486
0.93378496
0.93328303
0.93236704
0.93186347
0.93101235
0.9405528
0.94033839
0.94022158
0.93942768
0.93894788
0.93861768
0.93760849
0.93765266
0.93698667
0.93676495
0.93706276
0.9365588
0.93739475
0.93686708
0.93748885
0.93736208
0.93712791
0.9372691
0.93644088
0.93661085
0.93543196
0.93536421
0.93422476
0.93383495
0.93293116
0.93226391
0.93132823
0.94097628
0.94095371
0.94055864
0.94053551
0.9398162
0.93929311
0.93912843
0.93809713
0.93837133
0.93775168
0.93770648
0.93810338
0.93769688
0.9387173
0.93799517