/*--------------------------------*- C++ -*----------------------------------*\
| =========                 |                                                 |
| \\      /  F ield         | OpenFOAM: The Open Source CFD Toolbox           |
|  \\    /   O peration     | Version:  2406                                  |
|   \\  /    A nd           | Website:  www.openfoam.com                      |
|    \\/     M anipulation  |                                                 |
\*---------------------------------------------------------------------------*/
FoamFile
{
    version     2.0;
    format      ascii;
    arch        "LSB;label=32;scalar=64";
    class       volScalarField;
    location    "1";
    object      rho;
}
// * * * * * * * * * * * * * * * * * * * * * * * * * * * * * * * * * * * * * //

dimensions      [1 -3 0 0 0 0 0];

internalField   nonuniform List<scalar> 
62344
(
1.0000771
1.0000479
1.0000379
1.0000445
1.0000475
1.0000506
1.0000563
1.0000527
1.0000443
1.0000445
1.0000472
1.0000185
1.0002449
1.0047367
1.0246155
1.0648345
1.0931615
1.0843217
1.0745718
1.0876124
1.1142058
1.1313348
1.1315261
1.1057524
1.0758533
1.0705789
1.0842383
1.0979989
1.1017906
1.0916621
1.0786195
1.0704166
1.073902
1.0836541
1.0915722
1.093358
1.0876037
1.0772035
1.0671924
1.0610838
1.0606347
1.0647308
1.0700258
1.0735659
1.0730952
1.0695288
1.0648528
1.0618319
1.0621367
1.0655309
1.0700233
1.0742321
1.0758871
1.0748306
1.0715027
1.0000772
1.0000481
1.0000378
1.0000443
1.0000475
1.0000506
1.0000562
1.0000529
1.0000448
1.0000448
1.0000487
1.0000148
0.99999029
1.0024507
1.0184005
1.0560378
1.0898868
1.0869869
1.0777463
1.0908868
1.1171052
1.1352471
1.1287505
1.1017748
1.0763738
1.0757151
1.0890182
1.1001944
1.0998443
1.088261
1.0757924
1.0701921
1.075482
1.0852059
1.0927302
1.0936777
1.088155
1.0782596
1.0684293
1.0617797
1.0600115
1.0631668
1.0688263
1.0740809
1.0762188
1.0742011
1.0699696
1.0656584
1.063588
1.0649822
1.0688007
1.073914
1.0779843
1.0796292
1.0784595
1.0000773
1.0000483
1.0000378
1.0000441
1.0000476
1.0000505
1.0000559
1.000053
1.0000451
1.000045
1.0000504
1.0000207
0.99989265
1.0012649
1.013593
1.0481417
1.0864972
1.0896506
1.0812607
1.0950039
1.1240345
1.138083
1.1276443
1.0989127
1.0776102
1.0798333
1.0924413
1.1004016
1.0975888
1.0853629
1.0754151
1.072445
1.0774088
1.0854481
1.0906429
1.0917144
1.0879028
1.0804147
1.0719691
1.0649881
1.0614317
1.0621871
1.0664606
1.0721552
1.0765918
1.0775988
1.0751396
1.0709909
1.0669784
1.0655126
1.0669241
1.0704448
1.074662
1.0781423
1.0797427
1.0000774
1.0000485
1.0000378
1.0000439
1.0000476
1.0000505
1.0000557
1.0000531
1.0000454
1.0000451
1.000052
1.0000293
0.99987037
1.0003949
1.0095086
1.0404114
1.0820211
1.0916191
1.0845479
1.0989927
1.1288454
1.1408868
1.1251175
1.0974032
1.0783252
1.084037
1.0959205
1.0988588
1.0937912
1.083366
1.0759013
1.0754327
1.0796416
1.0848321
1.0880012
1.0883727
1.0863652
1.0821765
1.0760182
1.0693775
1.0642878
1.0623431
1.0641505
1.0688152
1.074554
1.0785564
1.0792761
1.076665
1.0723177
1.0681661
1.0659639
1.0664337
1.0687341
1.0719684
1.0747044
1.0000774
1.0000486
1.0000378
1.0000436
1.0000477
1.0000505
1.0000554
1.0000532
1.0000457
1.000045
1.000053
1.0000386
0.99988409
0.9999025
1.0062072
1.0331128
1.0763937
1.0929573
1.0878283
1.1029062
1.1329856
1.1435391
1.1227983
1.0959271
1.0807432
1.0878674
1.099471
1.0971722
1.0897066
1.0818285
1.0773864
1.0784978
1.08169
1.0841934
1.0854121
1.0855769
1.0848263
1.0826356
1.0787407
1.0731535
1.0673506
1.0633875
1.0627341
1.0658188
1.0715971
1.0775989
1.0814439
1.0817825
1.0786376
1.0735935
1.0685159
1.0650355
1.0639362
1.0649024
1.0669255
1.0000775
1.0000488
1.0000378
1.0000434
1.0000478
1.0000505
1.0000552
1.0000531
1.000046
1.000045
1.0000534
1.000047
0.99991222
0.99965487
1.0036772
1.0263604
1.069793
1.0937039
1.0911153
1.1067508
1.1366622
1.1456422
1.1210891
1.0941212
1.0838697
1.0918089
1.101478
1.0961527
1.0861606
1.0805962
1.0788528
1.0807791
1.0828547
1.083823
1.0835636
1.0836327
1.0839335
1.0833981
1.0809414
1.0762869
1.0704046
1.0652196
1.0626312
1.0637812
1.0685184
1.0749484
1.0810046
1.0844113
1.0841092
1.0802616
1.0743657
1.0683228
1.0634625
1.0607755
1.0599387
1.0000776
1.0000489
1.0000378
1.0000432
1.0000478
1.0000505
1.0000549
1.0000531
1.0000463
1.000045
1.0000534
1.0000539
0.9999437
0.99956598
1.0018517
1.0202873
1.0625082
1.0935953
1.0944702
1.1103497
1.1399919
1.147056
1.1200494
1.0926163
1.0868761
1.0961156
1.1025181
1.0949822
1.0838932
1.0800701
1.0799316
1.0820967
1.0835566
1.0833279
1.082399
1.082136
1.0831843
1.0840851
1.0831131
1.0794807
1.0738632
1.067952
1.0638176
1.0629051
1.0657725
1.0713791
1.0782296
1.0839733
1.0865757
1.0854331
1.0810682
1.0745704
1.0673816
1.0613185
1.056973
1.0000776
1.000049
1.0000378
1.0000431
1.0000478
1.0000506
1.0000547
1.0000531
1.0000466
1.0000449
1.000053
1.0000587
0.9999741
0.99956951
1.0006022
1.0150141
1.0548671
1.0923675
1.0979018
1.1138746
1.1429817
1.1479666
1.1190771
1.0915503
1.0897922
1.1000159
1.1032028
1.0938775
1.0830123
1.0799798
1.080542
1.0824229
1.0834089
1.0826952
1.0814113
1.0811167
1.0822588
1.0840555
1.0845881
1.0824495
1.0777369
1.0716585
1.0663858
1.0635812
1.0642658
1.0680979
1.0741471
1.0807121
1.0855996
1.0874464
1.0856985
1.0808119
1.0735393
1.0657212
1.0585326
1.0000777
1.0000492
1.0000378
1.0000429
1.0000478
1.0000506
1.0000546
1.000053
1.0000468
1.0000449
1.0000526
1.0000615
1.0000011
0.99961845
0.99982016
1.0105808
1.0471304
1.0899079
1.1014421
1.1173368
1.1457041
1.1484576
1.1181348
1.0911373
1.0926711
1.103104
1.1030417
1.0931937
1.0836226
1.0803893
1.0807642
1.0820401
1.0826891
1.0817715
1.0805953
1.0802677
1.0813781
1.0836344
1.0853905
1.0847933
1.0814095
1.0759337
1.0701826
1.065852
1.0643112
1.065903
1.0701973
1.0760847
1.0819196
1.0860038
1.0871321
1.0848412
1.0794511
1.0720422
1.0636782
1.0000777
1.0000493
1.0000379
1.0000427
1.0000477
1.0000507
1.0000544
1.000053
1.000047
1.0000449
1.000052
1.0000628
1.0000237
0.99968464
0.99937927
1.0069959
1.0395648
1.0862151
1.1047898
1.1207875
1.1483032
1.1485917
1.1172955
1.0916474
1.0952923
1.1055142
1.1020123
1.0925737
1.0852958
1.0813644
1.0809127
1.0813819
1.0816358
1.0809042
1.0799326
1.0795509
1.0806122
1.0829502
1.0853013
1.0861437
1.0843985
1.0801589
1.074664
1.0694321
1.0661098
1.0653853
1.0674445
1.0716666
1.0770587
1.0821564
1.0854614
1.0859419
1.0831414
1.0776471
1.0700844
1.0000778
1.0000495
1.0000379
1.0000426
1.0000477
1.0000507
1.0000543
1.000053
1.0000472
1.000045
1.0000515
1.000063
1.0000416
0.9997548
0.99917225
1.0042167
1.0324185
1.0813803
1.1076987
1.1243123
1.1507146
1.1484581
1.116623
1.0924717
1.0981314
1.1072721
1.1004147
1.0921129
1.0872222
1.08283
1.0813749
1.0808035
1.0804888
1.0800415
1.079211
1.0789039
1.0799345
1.0821404
1.0847502
1.0866015
1.0864194
1.0836729
1.079048
1.0736962
1.0691797
1.0665913
1.0663576
1.0685225
1.0724483
1.0771727
1.0814399
1.0839469
1.0838118
1.0808251
1.0752485
1.0000778
1.0000496
1.0000378
1.0000424
1.0000477
1.0000508
1.0000542
1.0000529
1.0000473
1.000045
1.000051
1.0000626
1.0000549
0.9998213
0.99910638
1.0021537
1.0258881
1.0755752
1.1099728
1.1280825
1.1529849
1.1481398
1.1161443
1.0939685
1.1007777
1.1085155
1.098996
1.0917402
1.0888063
1.0846482
1.0821824
1.080339
1.0796569
1.0791796
1.0784743
1.0783482
1.0792988
1.0812365
1.0839089
1.086489
1.0876569
1.0864581
1.0830348
1.078136
1.0731201
1.0691511
1.0669948
1.0670532
1.0690258
1.0724897
1.0763476
1.0795927
1.0812538
1.0806921
1.0776726
1.0000779
1.0000498
1.0000378
1.0000423
1.0000477
1.0000508
1.0000541
1.0000529
1.0000474
1.0000451
1.0000505
1.000062
1.0000637
0.99988029
0.99913805
1.0006925
1.0201008
1.0690004
1.111382
1.1320876
1.1550921
1.1477511
1.1157657
1.0957419
1.1030126
1.1093365
1.0979804
1.0915183
1.0899743
1.0864231
1.0830584
1.0804053
1.0791309
1.0783082
1.0775374
1.0774487
1.0783698
1.0802179
1.0828835
1.0858188
1.0879181
1.0881063
1.0860271
1.0820968
1.0772876
1.0726412
1.0691784
1.0673097
1.0672487
1.0688896
1.0713494
1.0743094
1.0766674
1.077737
1.076961
1.0000779
1.0000499
1.0000378
1.0000421
1.0000477
1.0000508
1.000054
1.0000529
1.0000476
1.0000451
1.0000501
1.0000612
1.000069
0.99993093
0.99921759
0.99970753
1.0151081
1.0619632
1.1117631
1.1363399
1.1569314
1.1473169
1.115367
1.0977486
1.1053624
1.1091584
1.0975871
1.0916535
1.0906592
1.0880064
1.0839934
1.0809432
1.079137
1.0777199
1.0767016
1.0763582
1.077148
1.0788718
1.0814505
1.08446
1.0872058
1.0886469
1.0880448
1.0853908
1.081283
1.0766444
1.0724656
1.0692362
1.0672396
1.0667524
1.0674873
1.069299
1.0713437
1.0730033
1.0736487
1.000078
1.00005
1.0000378
1.000042
1.0000477
1.0000509
1.0000539
1.0000529
1.0000477
1.0000451
1.0000498
1.0000604
1.0000717
0.99997262
0.99931536
0.99908237
1.0109245
1.054774
1.1110033
1.1407227
1.1586739
1.1467368
1.1150478
1.0999217
1.1073948
1.1083109
1.0980283
1.0921017
1.0910873
1.0891651
1.0846656
1.0815795
1.0795131
1.0775526
1.0760968
1.0753608
1.0757437
1.0772192
1.0795721
1.0826635
1.085926
1.0884153
1.0891783
1.0879035
1.0848914
1.0807432
1.0763413
1.0722518
1.0688561
1.0665301
1.0652515
1.0653341
1.0663378
1.067662
1.0688546
1.000078
1.0000501
1.0000378
1.0000419
1.0000477
1.0000509
1.0000538
1.0000529
1.0000478
1.0000452
1.0000494
1.0000596
1.0000728
1.0000059
0.99941997
0.99870483
1.0075232
1.047719
1.1090733
1.1449719
1.1604352
1.1463534
1.1147219
1.1021068
1.1093906
1.1073621
1.0986665
1.0927356
1.0916322
1.090075
1.0854864
1.0824485
1.0802001
1.077851
1.0758269
1.0745619
1.0744791
1.0756861
1.0777381
1.0806553
1.0840246
1.0872273
1.089273
1.0895138
1.0878906
1.0846725
1.0805406
1.0759647
1.0715858
1.0677487
1.0647281
1.0629041
1.0623078
1.0626894
1.0635391
1.000078
1.0000502
1.0000378
1.0000418
1.0000476
1.0000509
1.0000538
1.0000528
1.0000479
1.0000452
1.0000492
1.0000589
1.0000729
1.0000317
0.99951998
0.99851661
1.0048198
1.0410496
1.1060213
1.1489147
1.1625552
1.1460966
1.1142182
1.104412
1.1110881
1.1063445
1.0992819
1.0937098
1.0922087
1.0905692
1.086256
1.0833567
1.0810794
1.0785568
1.07609
1.0743058
1.0737338
1.0743764
1.0759654
1.0785403
1.0819326
1.085573
1.0886159
1.0902168
1.0900217
1.0879679
1.0845391
1.0800106
1.0750994
1.0700493
1.0655703
1.0620026
1.0597095
1.0587005
1.0587493
1.0000781
1.0000503
1.0000378
1.0000417
1.0000476
1.000051
1.0000537
1.0000528
1.000048
1.0000452
1.000049
1.0000583
1.0000724
1.0000508
0.99961173
0.99845662
1.0026717
1.0348537
1.1020156
1.1523621
1.1650782
1.1459757
1.1134844
1.1068169
1.1123736
1.1055895
1.0996279
1.0947401
1.0929481
1.0910826
1.0870704
1.084148
1.0819826
1.0794215
1.0766481
1.0745065
1.0734403
1.073511
1.0745747
1.0767249
1.0799173
1.083756
1.0875154
1.0902768
1.0914342
1.0906795
1.0881519
1.0840025
1.0789127
1.0732937
1.0676469
1.0625857
1.0586631
1.0561627
1.0550476
1.0000781
1.0000504
1.0000378
1.0000416
1.0000476
1.000051
1.0000537
1.0000528
1.000048
1.0000452
1.0000488
1.0000577
1.0000717
1.0000643
0.99969301
0.99846043
1.0011102
1.0292935
1.0972491
1.1551807
1.1682193
1.1460036
1.1128254
1.1092009
1.1133292
1.105184
1.0998449
1.0959671
1.093825
1.0916152
1.0878508
1.085003
1.0828771
1.080331
1.0773818
1.0749837
1.0735647
1.0731139
1.0736337
1.0752567
1.0780356
1.0818383
1.0859976
1.0896656
1.0920169
1.092599
1.0912093
1.0877796
1.0828255
1.0768597
1.070418
1.064238
1.0590136
1.0550935
1.0527643
1.0000782
1.0000504
1.0000377
1.0000415
1.0000475
1.000051
1.0000537
1.0000528
1.0000481
1.0000453
1.0000486
1.0000572
1.0000709
1.0000737
0.99976308
0.99852232
0.99991794
1.0243855
1.0920006
1.1571943
1.171461
1.1461297
1.1126039
1.1112498
1.1141363
1.1052706
1.0999624
1.097207
1.0948358
1.092129
1.0885138
1.0857996
1.0837626
1.0811735
1.0782505
1.0757668
1.0739838
1.0730759
1.0731811
1.0742966
1.0766489
1.0802045
1.0845441
1.0888507
1.0921827
1.0938464
1.0935181
1.0909434
1.0864972
1.0806692
1.0736858
1.0667732
1.0604794
1.0554113
1.0518747
1.0000782
1.0000505
1.0000377
1.0000415
1.0000475
1.000051
1.0000537
1.0000528
1.0000482
1.0000453
1.0000484
1.0000567
1.0000701
1.0000799
0.99982298
0.99860143
0.99906393
1.0201034
1.0864969
1.1583555
1.1744187
1.146216
1.1127543
1.1129437
1.1148171
1.1055486
1.0999949
1.0984863
1.0958807
1.0927235
1.0891095
1.0865343
1.0845784
1.0819817
1.0790444
1.0765468
1.0746431
1.0734084
1.0729535
1.0736046
1.0754947
1.0787291
1.0830248
1.0876816
1.0917676
1.0944101
1.0951424
1.0935308
1.0897654
1.0840303
1.0770405
1.0697374
1.0627119
1.0566871
1.0521169
1.0000782
1.0000506
1.0000377
1.0000414
1.0000475
1.000051
1.0000537
1.0000529
1.0000482
1.0000453
1.0000483
1.0000563
1.0000693
1.0000839
0.99987304
0.9986922
0.99842398
1.0164679
1.0810001
1.1586621
1.1770916
1.1463627
1.1130175
1.1143352
1.1156236
1.1061616
1.1002968
1.09938
1.0973445
1.093281
1.0897266
1.0874557
1.0854253
1.0827445
1.0798929
1.0773981
1.0753689
1.0739115
1.0731859
1.0734092
1.0748107
1.0776528
1.081761
1.0865749
1.0911683
1.0945685
1.0961402
1.0954788
1.0924402
1.0873226
1.0805236
1.0729445
1.0653969
1.0586517
1.0533212
1.0000783
1.0000507
1.0000377
1.0000414
1.0000474
1.000051
1.0000536
1.0000529
1.0000483
1.0000453
1.0000481
1.0000559
1.0000686
1.0000861
0.99991489
0.99878302
0.99796923
1.0134012
1.0756644
1.1580923
1.1796362
1.1468075
1.1131632
1.1149893
1.1161037
1.1065744
1.1000516
1.1000334
1.0982562
1.0939229
1.0901273
1.087987
1.086099
1.0834646
1.0805998
1.0781366
1.0760867
1.0744715
1.0734553
1.0732983
1.074343
1.0767541
1.0806015
1.0853602
1.0902553
1.0942918
1.096627
1.096805
1.0945521
1.0899707
1.0836381
1.0761404
1.0682846
1.0609723
1.0550282
1.0000783
1.0000507
1.0000376
1.0000413
1.0000474
1.000051
1.0000536
1.0000529
1.0000484
1.0000453
1.000048
1.0000556
1.0000679
1.0000876
0.99994859
0.99886825
0.99766058
1.0107904
1.0706493
1.1567381
1.1826107
1.148032
1.1145486
1.115976
1.1174251
1.1072749
1.1003901
1.1005374
1.0995451
1.0945535
1.0906727
1.0886773
1.0867305
1.0841011
1.0812616
1.0788105
1.076764
1.0750485
1.0738164
1.0733409
1.0740429
1.076118
1.0796092
1.0842498
1.089263
1.0937091
1.0966978
1.0975961
1.0960592
1.0921759
1.0864896
1.079259
1.0712606
1.063644
1.0571291
1.0000783
1.0000508
1.0000376
1.0000413
1.0000473
1.000051
1.0000536
1.000053
1.0000484
1.0000453
1.0000479
1.0000553
1.0000674
1.0000884
0.99997638
0.99894619
0.99743168
1.0086302
1.0660055
1.1546745
1.18291
1.1489299
1.1138514
1.1165501
1.1179027
1.1080486
1.1003768
1.1008852
1.1003956
1.0952221
1.0912122
1.0891697
1.0873493
1.0847185
1.0818898
1.0794364
1.0774317
1.0757154
1.0743593
1.0736529
1.0740273
1.0757185
1.0788934
1.083289
1.0882956
1.0930178
1.0965404
1.098049
1.0972143
1.0940706
1.0889458
1.0819246
1.0739606
1.0662558
1.059538
1.0000783
1.0000508
1.0000375
1.0000411
1.0000472
1.0000509
1.0000535
1.0000529
1.0000484
1.0000452
1.0000477
1.000055
1.0000668
1.0000887
0.99999961
0.99901396
0.99725164
1.0068396
1.0619525
1.1531853
1.1860764
1.1514388
1.1151078
1.1167484
1.1183905
1.1090291
1.1004862
1.1010011
1.1009534
1.0957695
1.0915042
1.0893738
1.0876907
1.0851707
1.0823364
1.079796
1.0777496
1.0760159
1.074578
1.0736969
1.0738108
1.07528
1.0781629
1.0823432
1.0872757
1.0921793
1.0960882
1.0982196
1.0982573
1.0959921
1.0913232
1.0845939
1.076747
1.068727
1.0615215
1.0000781
1.0000503
1.0000369
1.0000405
1.0000466
1.0000503
1.000053
1.0000524
1.000048
1.0000447
1.0000471
1.0000543
1.000066
1.0000887
1.0000224
0.99909875
0.99716445
1.0050968
1.0567798
1.1479823
1.1846991
1.1528474
1.1168041
1.1165941
1.1183349
1.1098508
1.1007966
1.1008436
1.1011091
1.096232
1.0919412
1.0896417
1.0878962
1.0855021
1.0827303
1.0801929
1.0781133
1.0763471
1.0748428
1.0738234
1.0736865
1.0748201
1.0772735
1.0809886
1.0856749
1.0905419
1.0947125
1.0973429
1.0980166
1.0964509
1.0925388
1.0867989
1.079684
1.0721096
1.0649086
1.0570108
1.0541773
1.0525025
1.0507549
1.0494383
1.048603
1.0485316
1.0494793
1.0515268
1.0548486
1.0592932
1.0642494
1.0688838
1.0723006
1.0733314
1.0714303
1.0668536
1.0605345
1.0547815
1.0520032
1.0536747
1.0596201
1.0679409
1.0751108
1.0778617
1.0752618
1.0687059
1.0495339
1.0474958
1.0469221
1.04614
1.0458463
1.0462116
1.0473126
1.0493769
1.0523113
1.0560422
1.0601831
1.0640633
1.0668721
1.0676464
1.0661536
1.0618676
1.0560913
1.050369
1.0466295
1.0467462
1.0511112
1.0585943
1.066567
1.0717433
1.0723207
1.0699537
1.0666287
1.0453832
1.044395
1.0452706
1.0455073
1.0462358
1.0476202
1.0495194
1.0521269
1.055134
1.0582618
1.0611531
1.0630348
1.0631716
1.0613223
1.0573221
1.0518626
1.0461748
1.0420249
1.040875
1.0436985
1.04992
1.0574431
1.0635146
1.0658114
1.0647182
1.0634463
1.0640323
1.0453797
1.0455051
1.0474926
1.048449
1.049927
1.0518502
1.0539546
1.056335
1.0586486
1.0603818
1.0611956
1.0605939
1.0582121
1.0542151
1.0488712
1.0432175
1.038788
1.036666
1.0380236
1.0426213
1.0492873
1.0554743
1.0587813
1.0584219
1.0563905
1.056566
1.0604588
1.0495411
1.0505726
1.0526494
1.0537751
1.0557511
1.0576584
1.0594805
1.0607745
1.0615638
1.0613743
1.0599424
1.0571909
1.0530148
1.0477446
1.0423285
1.0376933
1.0349432
1.0348941
1.0378377
1.0429868
1.0486022
1.0523453
1.0527871
1.0505131
1.0485521
1.0500567
1.0557549
1.056343
1.0577047
1.059851
1.0609095
1.0624754
1.0635301
1.0641501
1.0638689
1.0627968
1.0607895
1.0577602
1.0536587
1.0487827
1.0437277
1.0392652
1.0362767
1.0352363
1.0367142
1.0400737
1.0443624
1.0476755
1.048362
1.0462723
1.0430822
1.0418366
1.0443585
1.0504114
1.0635863
1.065498
1.0671291
1.0677097
1.0679319
1.0676445
1.0666125
1.0646736
1.0619962
1.0588211
1.0550426
1.0508032
1.0466104
1.0428869
1.0401578
1.0389886
1.0393638
1.0413425
1.0440871
1.0462693
1.046581
1.0442792
1.0404268
1.0371419
1.0366741
1.0398398
1.0450919
1.0696943
1.0710461
1.0716991
1.0710383
1.0702467
1.0685861
1.0661175
1.0631593
1.0597406
1.0562339
1.0526678
1.0494116
1.0468578
1.0450996
1.0442986
1.0447009
1.0459465
1.0475794
1.0487084
1.0482071
1.0454996
1.0410454
1.0364828
1.0337422
1.033874
1.0367492
1.0403217
1.0717612
1.0721399
1.0712954
1.0695499
1.0678475
1.0652235
1.0623585
1.0592919
1.0562815
1.0533925
1.0511195
1.0495773
1.0490052
1.0491748
1.0502148
1.0516891
1.0530899
1.0536659
1.0527821
1.0497872
1.0449404
1.0395501
1.0351622
1.0331755
1.0334983
1.0351676
1.0364747
1.0676914
1.0667625
1.0651781
1.0632823
1.0610692
1.058594
1.0560626
1.053645
1.0517307
1.0504494
1.050028
1.0505024
1.0518197
1.0538257
1.0559309
1.0577711
1.0586615
1.0578688
1.0551865
1.0505998
1.0450043
1.0399454
1.0364589
1.0350928
1.0350793
1.0349274
1.0338238
1.0584903
1.0568016
1.0554283
1.0535311
1.0517728
1.0499134
1.0483437
1.0471349
1.0466844
1.0472037
1.0486199
1.0508523
1.0536853
1.0567223
1.0592947
1.0608663
1.0609114
1.0589749
1.0553497
1.0504495
1.045566
1.0417178
1.0395608
1.0385932
1.0377884
1.0359111
1.0326933
1.0479253
1.046126
1.0449637
1.0434216
1.0421919
1.0411487
1.0406867
1.0408702
1.0417691
1.0436764
1.0462947
1.0495493
1.0530296
1.0562137
1.0586075
1.0595801
1.0588193
1.056581
1.0530925
1.0492831
1.0460925
1.0440631
1.0432733
1.0426204
1.0411315
1.0376699
1.0331972
1.0385718
1.0374548
1.0366007
1.0356926
1.035077
1.0348411
1.0351198
1.036086
1.0377092
1.0401483
1.0430389
1.0462786
1.0493625
1.0519356
1.0535425
1.0538666
1.0530583
1.0509827
1.0486205
1.0467999
1.0459133
1.0459134
1.0463215
1.045916
1.0439499
1.0396747
1.0348495
1.0324852
1.0319349
1.0317947
1.031539
1.0314493
1.0317806
1.032416
1.0334654
1.0349774
1.0370022
1.0391904
1.0414037
1.0434476
1.0447563
1.0453313
1.045133
1.0442987
1.0432971
1.0426776
1.0430339
1.0443759
1.0461204
1.0474536
1.0472784
1.0452268
1.0411019
1.0367933
1.0299522
1.0300384
1.030979
1.0310109
1.0313786
1.0317757
1.0323126
1.0329282
1.0336335
1.0344717
1.0352767
1.0359108
1.0363412
1.0364115
1.0360841
1.0355058
1.0349918
1.0350427
1.0360842
1.0381545
1.0410707
1.0439071
1.0457028
1.0458779
1.0443104
1.0411455
1.0380824
1.0309916
1.0316055
1.0324402
1.0327451
1.0334394
1.0335548
1.0336817
1.0335139
1.0331093
1.0325945
1.0318879
1.0309536
1.0298301
1.0288758
1.0278026
1.027056
1.0270042
1.0278601
1.0298444
1.0327807
1.0362094
1.0393549
1.0413994
1.0417102
1.0409274
1.0392626
1.0377833
1.0337139
1.0346788
1.0353296
1.0354234
1.0354264
1.0351245
1.0346341
1.0337084
1.0324399
1.0308946
1.0291116
1.0271389
1.0252009
1.0235134
1.0222185
1.0215411
1.0216555
1.0228383
1.0249019
1.0276891
1.0305546
1.0330709
1.0347808
1.0353665
1.0355444
1.0353026
1.035282
1.0360409
1.0371095
1.0375013
1.0370305
1.0363579
1.0353344
1.0340799
1.0326206
1.0308657
1.0288518
1.0267112
1.0245573
1.0226363
1.0209668
1.0198893
1.0193884
1.0195178
1.0204047
1.0218156
1.0235755
1.0251224
1.0263771
1.0272913
1.0279294
1.0287011
1.0294888
1.0305432
1.0363677
1.0372837
1.0372198
1.0361215
1.0351318
1.0336802
1.0321823
1.0302388
1.0284092
1.026453
1.0246116
1.0229974
1.0216318
1.0206661
1.0201383
1.0198674
1.0199396
1.0202452
1.0206004
1.0208635
1.0207686
1.020453
1.0202186
1.0204095
1.021155
1.0223186
1.0238009
1.0335702
1.0344085
1.033992
1.0328061
1.0316886
1.0302294
1.0287055
1.0270817
1.0255621
1.0241212
1.0229763
1.0221786
1.0216521
1.0215555
1.0216085
1.0216749
1.0216666
1.0214278
1.0207752
1.0195573
1.0179384
1.0161244
1.0146436
1.013885
1.0139908
1.0145948
1.0157702
1.0282825
1.0290406
1.0286219
1.0276295
1.0266718
1.0255521
1.0244677
1.0234731
1.0226409
1.0219818
1.0216688
1.0217167
1.0220452
1.0226081
1.0232512
1.0235428
1.023474
1.0229306
1.0214355
1.0192819
1.016579
1.013605
1.0109646
1.0089944
1.0079178
1.0073264
1.0074613
1.0218016
1.0228319
1.0224677
1.0217666
1.0212009
1.0205549
1.020108
1.0197945
1.0197287
1.0198743
1.0203284
1.0210892
1.0220283
1.0230905
1.0239121
1.0244628
1.0243333
1.0233556
1.0216549
1.0191392
1.0159443
1.0124406
1.0089607
1.0058468
1.0033525
1.0012162
0.99991987
1.0158715
1.017364
1.0170968
1.0166811
1.0163921
1.0162004
1.0162429
1.0164617
1.0169485
1.0176663
1.0186247
1.0197987
1.0210778
1.0222918
1.0231735
1.023575
1.0234293
1.0224588
1.0207989
1.0183529
1.0152604
1.011753
1.0078458
1.0039909
1.0002077
0.99661167
0.99370527
1.0115728
1.0136141
1.0135419
1.0132901
1.0131629
1.0131769
1.0134115
1.0138267
1.0144915
1.0153664
1.0164204
1.0176258
1.0188402
1.0199658
1.020749
1.0210904
1.0208682
1.0200077
1.0184886
1.0163959
1.0137643
1.0105833
1.0067567
1.0025728
0.99801085
0.99335158
0.98908683
1.009031
1.0116042
1.0118286
1.0116514
1.0116034
1.0116065
1.0117325
1.0120054
1.0124538
1.013062
1.0138168
1.0146721
1.0155414
1.01632
1.0168957
1.0170128
1.016712
1.0159745
1.014802
1.0131259
1.0109878
1.0083128
1.0049098
1.0008373
0.99609282
0.99102534
0.98604681
1.007893
1.0108162
1.0112639
1.0110496
1.0110559
1.0108659
1.010743
1.0106493
1.0106534
1.0107398
1.0109251
1.0111815
1.0114588
1.0116871
1.0118555
1.0117638
1.011384
1.0107383
1.0097932
1.008557
1.0068775
1.0047385
1.0019282
0.99833831
0.99399505
0.98918231
0.98420619
1.0073787
1.0105259
1.0109258
1.0105662
1.0104318
1.0100241
1.0096157
1.0091233
1.0086279
1.0081384
1.0076826
1.0072791
1.0069708
1.0066143
1.0062554
1.0058873
1.0053672
1.004742
1.0039271
1.0029693
1.0016797
1.0000392
0.99785128
0.99497545
0.9913999
0.98735253
0.98291079
1.0063227
1.0096762
1.0101029
1.0095865
1.0090665
1.0084294
1.0076933
1.0068524
1.0059416
1.0049813
1.0040272
1.0031112
1.0022185
1.0013886
1.0005957
0.99985496
0.9991176
0.99840892
0.99767265
0.99683336
0.9958397
0.99459953
0.99298328
0.9908999
0.98823982
0.98517433
0.98167651
1.0041628
1.0075978
1.0080512
1.00741
1.006663
1.005752
1.0047595
1.0036449
1.0024554
1.0011926
0.99991799
0.99866742
0.99743011
0.9962648
0.99518411
0.99416699
0.99323077
0.99233762
0.99152243
0.99069115
0.98984758
0.98888851
0.98773407
0.98636407
0.98457967
0.98249786
0.98000122
1.0005714
1.0040871
1.0046275
1.0038703
1.0030351
1.0019965
1.000875
0.99962082
0.99829999
0.99690599
0.99551635
0.99414335
0.99278393
0.99147518
0.99022796
0.98904015
0.98793718
0.98685874
0.98587307
0.98495858
0.98412238
0.98330102
0.9824335
0.98156864
0.98047142
0.97920242
0.97762535
0.99583376
0.99947105
1.0001448
0.99939194
0.99856617
0.99749694
0.99638325
0.99515048
0.99385066
0.99248286
0.99113144
0.98980601
0.98848054
0.98718603
0.98589908
0.98461783
0.98338016
0.98213251
0.980947
0.97986077
0.97889764
0.97804722
0.97725694
0.97664063
0.97596471
0.97528186
0.97443758
0.99058064
0.99442563
0.99528689
0.99464547
0.99392973
0.99290188
0.991878
0.99075528
0.98957907
0.98835265
0.98714783
0.98594366
0.98472638
0.98351265
0.98224536
0.98091439
0.97956494
0.97815906
0.97674745
0.97540701
0.9741931
0.97315012
0.97224465
0.9716497
0.97114745
0.97083942
0.97052964
0.98564407
0.9897394
0.99078981
0.99033339
0.98971212
0.98876152
0.98787956
0.98686944
0.98582451
0.98473687
0.98367805
0.98260261
0.98149847
0.98036053
0.97912566
0.97775359
0.97629143
0.97471645
0.97305848
0.97142128
0.9698785
0.96853549
0.9673855
0.96665757
0.96615193
0.96603927
0.96607807
0.98133007
0.98563064
0.98687822
0.98656813
0.98596732
0.98516677
0.98436565
0.9834779
0.98256877
0.98161857
0.98067288
0.97966372
0.97860595
0.97748103
0.97622701
0.97479471
0.97321694
0.97147017
0.96957838
0.96766079
0.96578899
0.96412398
0.96269639
0.96176052
0.96116324
0.96110186
0.96132929
0.97752104
0.98194064
0.98343094
0.98323943
0.98266244
0.98193261
0.98116075
0.98032969
0.97945715
0.97853854
0.97759914
0.97660169
0.97553645
0.97438744
0.97309224
0.97161563
0.96994444
0.96806887
0.96601678
0.96390296
0.96179091
0.95988415
0.95823148
0.95711431
0.95640959
0.95635664
0.95669802
0.97370181
0.97817203
0.97987312
0.97977203
0.97921814
0.97852639
0.97777101
0.9769562
0.97608992
0.97517233
0.97421881
0.97319595
0.97209892
0.97090009
0.96956383
0.96804526
0.96633153
0.9644102
0.96231101
0.9601312
0.95793085
0.95591901
0.95415512
0.95292554
0.95215714
0.95211261
0.95255101
0.96937845
0.97394289
0.97577009
0.975721
0.97518356
0.9745035
0.97374907
0.97293982
0.97208358
0.97118344
0.97023826
0.96922568
0.96813082
0.96693782
0.96562614
0.96416363
0.96250311
0.9606513
0.95863669
0.95652651
0.95438299
0.95240166
0.9506485
0.94939775
0.94862191
0.94856099
0.94900803
0.96433484
0.9690928
0.97105207
0.97109692
0.97059425
0.96992349
0.96920288
0.96842233
0.96758694
0.96671135
0.96580001
0.96484303
0.96382406
0.96272388
0.96152293
0.96016887
0.95866518
0.9570005
0.95518113
0.95324485
0.95127606
0.94943426
0.94779256
0.94658349
0.94580401
0.94568339
0.94607216
0.95885099
0.96383379
0.96582393
0.96597463
0.96553016
0.96490605
0.96424013
0.96352629
0.96277376
0.96199439
0.96119599
0.9603639
0.95948078
0.95852968
0.95750085
0.95635848
0.95507188
0.95364645
0.95206837
0.95036054
0.9486303
0.9469727
0.94547842
0.94434184
0.94355403
0.94337944
0.94366536
0.95349875
0.95874805
0.96076136
0.96100441
0.96060381
0.96003
0.95942017
0.95878849
0.9581324
0.95746116
0.95678547
0.95610336
0.95538985
0.9546296
0.95380331
0.95287461
0.95184092
0.95066188
0.94932712
0.94785989
0.94635996
0.94487531
0.94352482
0.9424442
0.94164558
0.941378
0.94152909
0.94887303
0.95429395
0.95635149
0.95671703
0.95639798
0.95587476
0.95532333
0.95476471
0.95419781
0.9536292
0.95307228
0.95252031
0.95194735
0.95133127
0.95065983
0.94989657
0.94902691
0.94805337
0.94691925
0.94565671
0.94434185
0.94300245
0.94176093
0.94070578
0.93989534
0.93955339
0.93956248
0.94528893
0.95075344
0.95291643
0.95339064
0.95310983
0.95261406
0.95209107
0.95156662
0.95105021
0.95054495
0.95005367
0.94957615
0.94908632
0.94856625
0.94799583
0.94737498
0.94667391
0.94582806
0.94482976
0.94370836
0.94250687
0.94125734
0.94008139
0.93907674
0.93825711
0.9378516
0.93777861
0.94267238
0.94813376
0.95032443
0.95087148
0.95064436
0.95017584
0.94967629
0.94918114
0.9486927
0.94821743
0.94775067
0.94729748
0.94684072
0.94635942
0.94584447
0.94529245
0.94464375
0.94387311
0.94296752
0.94195225
0.94083739
0.93968115
0.93857395
0.93759585
0.93680418
0.93636821
0.93622177
0.94088485
0.94621601
0.94853869
0.94917039
0.94894933
0.94848013
0.94797495
0.94746944
0.9469822
0.94650487
0.94604069
0.94558078
0.94510216
0.94461193
0.94411085
0.94350928
0.94287371
0.94215507
0.94132935
0.94039461
0.93935863
0.93829621
0.93726808
0.93634366
0.93556312
0.93513312
0.93493505
0.9391813
0.94437209
0.94662554
0.94729828
0.94709152
0.94663666
0.9461461
0.94566376
0.94518586
0.94472781
0.94427144
0.94384949
0.9434241
0.94294578
0.94241359
0.94190648
0.94135148
0.94067943
0.93991324
0.93906115
0.93810919
0.93714276
0.93617946
0.93533705
0.9346533
0.93421751
0.93396862
0.93834965
0.94318678
0.94563694
0.94629927
0.94609021
0.94559368
0.94505842
0.94449327
0.94395481
0.94347177
0.94300228
0.94256823
0.94213574
0.94175773
0.94140233
0.94090893
0.94025271
0.93960094
0.93887312
0.9380416
0.93713836
0.93625214
0.93539546
0.93460451
0.93395779
0.93356266
0.93331629
0.93835465
0.9429892
0.94548632
0.94621431
0.94599695
0.94545211
0.94485794
0.94426668
0.94369632
0.94314473
0.94260893
0.9420937
0.94162733
0.94114601
0.94062983
0.94002109
0.9394261
0.93877457
0.9380386
0.9372393
0.93642317
0.93559348
0.93477509
0.93409529
0.93350878
0.93313547
0.93284022
0.93882569
0.94315464
0.94579729
0.94661655
0.94638774
0.94588684
0.94531961
0.94474195
0.94414873
0.94353099
0.94292452
0.94230422
0.9416849
0.9410518
0.9403669
0.93968103
0.93902793
0.93831135
0.93755105
0.93676005
0.93596891
0.93519025
0.93443172
0.93380309
0.93327206
0.93292028
0.93262104
0.93933491
0.94327458
0.94593334
0.94680271
0.94666599
0.94621069
0.94567155
0.94509739
0.94451388
0.94390525
0.9432804
0.94264067
0.94197264
0.94127649
0.94055268
0.93983194
0.93907259
0.93826726
0.93744686
0.93661739
0.93581641
0.93503897
0.934321
0.9337173
0.93321725
0.93288368
0.93256359
0.93935252
0.94299083
0.94563594
0.9465273
0.94642933
0.94602201
0.94555537
0.94507495
0.94454188
0.94400345
0.94344361
0.94285071
0.94221103
0.94152615
0.94079781
0.94001335
0.93918077
0.9383299
0.9374659
0.93660663
0.93577281
0.93498554
0.93427153
0.93368542
0.93321625
0.93289343
0.93256673
0.93861284
0.94212357
0.94477119
0.94574695
0.94574795
0.94542939
0.94502569
0.94458048
0.94413562
0.9436768
0.94314852
0.94261466
0.94203102
0.94140217
0.94070893
0.93995292
0.93913851
0.93827829
0.93737332
0.93648734
0.93563217
0.93480815
0.93407214
0.9335034
0.93303183
0.93275647
0.93243195
0.93785063
0.94131568
0.94392119
0.94490658
0.94491315
0.94464459
0.94431569