/*--------------------------------*- C++ -*----------------------------------*\
| =========                 |                                                 |
| \\      /  F ield         | OpenFOAM: The Open Source CFD Toolbox           |
|  \\    /   O peration     | Version:  2406                                  |
|   \\  /    A nd           | Website:  www.openfoam.com                      |
|    \\/     M anipulation  |                                                 |
\*---------------------------------------------------------------------------*/
FoamFile
{
    version     2.0;
    format      ascii;
    arch        "LSB;label=32;scalar=64";
    class       volScalarField;
    location    "1";
    object      rho_0;
}
// * * * * * * * * * * * * * * * * * * * * * * * * * * * * * * * * * * * * * //

dimensions      [1 -3 0 0 0 0 0];

internalField   nonuniform List<scalar> 
96472
(
0.99999904
0.99999904
0.99999904
0.99999904
0.99999904
0.99999904
0.99999904
0.99999906
0.99999958
1.0000103
1.0001407
1.0010552
1.0048842
1.0154756
1.0370212
1.0668682
1.0853947
1.0764248
1.0650569
1.075572
1.1029215
1.1120238
1.0936142
1.0757423
1.0732763
1.0739435
1.071313
1.0683491
1.065805
1.0652871
1.0667297
1.0692563
1.0692781
1.067408
1.0649449
1.0626428
1.0606944
1.0589227
1.0576077
1.0564158
1.0553061
1.0548906
1.0555345
1.0568427
1.058216
1.0585719
1.0576292
1.0554376
1.0528676
1.0507149
1.0490975
1.0479898
1.0474688
1.0473026
1.0473885
0.99999904
0.99999904
0.99999904
0.99999904
0.99999904
0.99999904
0.99999904
0.99999905
0.99999931
1.0000063
1.0001048
1.0008657
1.0042255
1.013842
1.0340612
1.0636618
1.0849723
1.07944
1.0686962
1.0775844
1.1035346
1.1120258
1.0934975
1.0758126
1.073742
1.0741744
1.0714964
1.0686885
1.0660645
1.0651163
1.0660582
1.0686104
1.0690162
1.0677035
1.0655205
1.0631237
1.0610232
1.0591246
1.0577645
1.056716
1.0557805
1.0557324
1.0565911
1.0581724
1.0593782
1.059197
1.0574095
1.0549068
1.0524856
1.0505658
1.0491865
1.0483271
1.0476909
1.047319
1.0470379
0.99999904
0.99999904
0.99999904
0.99999904
0.99999904
0.99999904
0.99999904
0.99999904
0.99999914
1.0000034
1.0000753
1.0006963
1.003621
1.0123111
1.031208
1.0603727
1.0843356
1.0822557
1.0725774
1.0798689
1.10407
1.1120105
1.093198
1.0758239
1.0741791
1.0743981
1.0716266
1.0689694
1.0663014
1.0650387
1.0654377
1.0679391
1.0686414
1.0677245
1.0658928
1.0635766
1.0614387
1.0594176
1.0579264
1.0569128
1.0563008
1.0565333
1.057693
1.0593333
1.0603177
1.0595797
1.0573342
1.0545493
1.0521948
1.05067
1.0496338
1.0488734
1.0480922
1.0472895
1.0466762
0.99999904
0.99999904
0.99999904
0.99999904
0.99999904
0.99999904
0.99999904
0.99999904
0.99999905
1.0000013
1.0000519
1.0005489
1.0030716
1.0108802
1.0284426
1.0569443
1.0833078
1.0848954
1.0766777
1.0825472
1.1045973
1.1115836
1.092819
1.0761393
1.0747219
1.0746612
1.0717975
1.0692793
1.0665216
1.0650589
1.0649469
1.0672697
1.0682869
1.0675667
1.0660269
1.0638825
1.0618377
1.0598504
1.0581054
1.0571732
1.0566987
1.0572447
1.0586751
1.0602925
1.0609278
1.0597346
1.0570955
1.0542756
1.0522501
1.0510404
1.0502549
1.0494823
1.0485033
1.047372
1.0463349
0.99999904
0.99999904
0.99999904
0.99999904
0.99999904
0.99999904
0.99999904
0.99999904
0.999999
0.99999999
1.0000338
1.0004228
1.0025723
1.0095516
1.0257851
1.0534122
1.0818114
1.0873281
1.0809004
1.0855658
1.1050848
1.1107709
1.0926718
1.0768062
1.0752654
1.0749475
1.0719686
1.0696133
1.0667393
1.0651508
1.0646015
1.0666355
1.0680638
1.0674338
1.0660828
1.0640455
1.062154
1.0603201
1.0584937
1.0574236
1.0572748
1.0580445
1.0596393
1.061075
1.0611888
1.0595498
1.0568073
1.0542198
1.0525013
1.0514984
1.050775
1.0500394
1.0489919
1.0476181
1.046277
0.99999904
0.99999904
0.99999904
0.99999904
0.99999904
0.99999904
0.99999904
0.99999904
0.99999899
0.99999917
1.0000202
1.000317
1.0021245
1.0083242
1.0232487
1.0498219
1.0798418
1.0895425
1.0851566
1.0888943
1.1055193
1.1097292
1.0925556
1.0774191
1.0756825
1.0752946
1.0721946
1.0699731
1.0670453
1.0651917
1.0643548
1.0659702
1.0678556
1.0674366
1.0661403
1.0642684
1.0622195
1.0608178
1.0588811
1.0579195
1.0579557
1.0589777
1.0606843
1.0618065
1.0613537
1.059331
1.0565865
1.0543081
1.0528453
1.051927
1.0512392
1.0504303
1.0492601
1.0478315
1.0463729
0.99999904
0.99999904
0.99999904
0.99999904
0.99999904
0.99999904
0.99999904
0.99999904
0.99999899
0.99999873
1.0000105
1.0002298
1.0017288
1.007197
1.0208398
1.0462137
1.0774109
1.0915047
1.0894005
1.0924519
1.1060482
1.1085606
1.0922829
1.0780391
1.0763683
1.0757669
1.072453
1.0701859
1.0673524
1.0652206
1.0641528
1.0652433
1.067556
1.0674774
1.0663004
1.0644837
1.0623899
1.0609849
1.0592656
1.0583516
1.0587183
1.0600885
1.0618351
1.0626395
1.0616085
1.0591643
1.0565506
1.0545952
1.0533471
1.0525205
1.05168
1.0506299
1.0494002
1.0479314
1.0464633
0.99999904
0.99999904
0.99999904
0.99999904
0.99999904
0.99999904
0.99999904
0.99999904
0.999999
0.99999854
1.0000039
1.0001596
1.0013818
1.0061637
1.0185602
1.0426174
1.0745436
1.0931575
1.0935914
1.0961979
1.1067474
1.107242
1.0918555
1.0788571
1.0772621
1.0759604
1.0727089
1.0704189
1.0677995
1.0653496
1.0639608
1.0645274
1.0670396
1.0675437
1.0664766
1.0648543
1.0624948
1.061095
1.0596587
1.0587762
1.0594344
1.0611828
1.0629839
1.0634084
1.0618268
1.0591973
1.0567367
1.0550761
1.0540745
1.053121
1.0521042
1.0508696
1.0494348
1.0479665
1.0466701
0.99999904
0.99999904
0.99999904
0.99999904
0.99999904
0.99999904
0.99999904
0.99999904
0.99999901
0.99999852
0.99999976
1.0001046
1.0010817
1.0052221
1.0164141
1.0390651
1.0712874
1.0944298
1.0976714
1.100146
1.10763
1.1057286
1.0914552
1.0796144
1.0780702
1.0761047
1.0732552
1.0707153
1.0681573
1.065517
1.0637947
1.0638942
1.0662725
1.0675009
1.0666416
1.0652106
1.0628965
1.0612959
1.0598992
1.0592914
1.0601442
1.0620908
1.0639245
1.064007
1.0621184
1.0593108
1.0569983
1.0556647
1.0547265
1.053804
1.0526334
1.0511048
1.0496018
1.0481202
1.0469732
0.99999904
0.99999904
0.99999904
0.99999904
0.99999904
0.99999904
0.99999904
0.99999904
0.99999903
0.99999858
0.99999739
1.000063
1.000826
1.0043677
1.0144089
1.0355897
1.0677271
1.0951652
1.1016685
1.104287
1.108721
1.1043101
1.0910284
1.08021
1.0788944
1.0766161
1.0738246
1.0708388
1.0684607
1.0658821
1.0637725
1.0633425
1.0652986
1.06725
1.0666783
1.0655507
1.0634954
1.0613998
1.0604162
1.0599458
1.0607905
1.0629464
1.0647045
1.0644722
1.0622253
1.0593786
1.0573211
1.0561811
1.0554249
1.0544082
1.0530048
1.0514485
1.0498221
1.0484462
1.0472789
0.99999904
0.99999904
0.99999904
0.99999904
0.99999904
0.99999904
0.99999904
0.99999904
0.99999904
0.99999869
0.9999963
1.0000329
1.0006108
1.0036001
1.0125477
1.0322201
1.0639466
1.0952
1.1056224
1.1085996
1.1099838
1.1029586
1.0902983
1.0808019
1.0797923
1.0772224
1.0741166
1.071056
1.0689029
1.0662991
1.0638474
1.0628926
1.0642317
1.0667579
1.0665707
1.0658538
1.0639929
1.0619014
1.0609327
1.0607634
1.0617132
1.0637267
1.0652238
1.0646905
1.0623396
1.0595752
1.0575948
1.0566439
1.0558764
1.0548198
1.0534502
1.051802
1.0501996
1.0488766
1.0476575
0.99999904
0.99999904
0.99999904
0.99999904
0.99999904
0.99999904
0.99999904
0.99999904
0.99999904
0.99999881
0.99999606
1.0000122
1.0004337
1.0029185
1.010832
1.0289755
1.0600118
1.0944915
1.1094584
1.1130328
1.1115518
1.1017465
1.0891506
1.081464
1.0807008
1.0777071
1.0744887
1.0715794
1.0692336
1.0666132
1.0641205
1.0625632
1.0633005
1.0658913
1.0665043
1.0657853
1.0646055
1.0625912
1.0615612
1.0615568
1.06273
1.0645531
1.0657038
1.064928
1.0625125
1.0597423
1.0579319
1.0569744
1.0561928
1.0552446
1.0537877
1.0521495
1.0506475
1.0492129
1.0484854
0.99999904
0.99999904
0.99999904
0.99999904
0.99999904
0.99999904
0.99999904
0.99999904
0.99999905
0.99999891
0.99999632
0.99999911
1.0002915
1.0023193
1.0092583
1.0258744
1.055973
1.0930299
1.1130946
1.1176008
1.1132834
1.1009402
1.0878568
1.0820902
1.0814934
1.0782082
1.0751568
1.0720588
1.0694132
1.0670141
1.0645643
1.0623819
1.0624842
1.0648147
1.0662518
1.0657201
1.0650986
1.0632987
1.0621064
1.0624372
1.0637432
1.0654419
1.0662507
1.0651261
1.062603
1.0600844
1.058405
1.057413
1.0566129
1.055373
1.0539068
1.0524174
1.0510854
1.0501128
1.0487554
0.99999904
0.99999904
0.99999904
0.99999904
0.99999904
0.99999904
0.99999904
0.99999904
0.99999905
0.99999899
0.99999685
0.99999177
1.0001818
1.0018002
1.0078229
1.0229325
1.0518844
1.0908299
1.1165055
1.1222648
1.1152569
1.1001241
1.0866222
1.0825902
1.0822337
1.0788199
1.0758226
1.0723567
1.0697903
1.0674944
1.0649597
1.0624382
1.0617785
1.0636559
1.0657868
1.0656652
1.065301
1.0640152
1.0627909
1.0630536
1.0646586
1.0664316
1.0668382
1.0652938
1.0627491
1.0604549
1.0590244
1.0581758
1.0568581
1.0554759
1.0539302
1.0527866
1.0515778
1.0504944
1.0492893
0.99999904
0.99999904
0.99999904
0.99999904
0.99999904
0.99999904
0.99999904
0.99999904
0.99999905
0.99999904
0.99999747
0.9999885
1.0001002
1.0013574
1.006523
1.0201661
1.0477941
1.0879846
1.1195242
1.1269158
1.1174458
1.0994358
1.0855325
1.0829621
1.0830599
1.0794736
1.0762795
1.0727397
1.0703378
1.067844
1.0653577
1.0627443
1.061271
1.0624186
1.0651349
1.0655294
1.0652881
1.0646519
1.0634433
1.0635446
1.0653467
1.0673131
1.0675052
1.0656621
1.06296
1.0607975
1.0597547
1.0586436
1.0573468
1.0557461
1.0542685
1.0528579
1.0517509
1.0508261
1.0500812
0.99999904
0.99999904
0.99999904
0.99999904
0.99999904
0.99999904
0.99999904
0.99999904
0.99999905
0.99999908
0.99999806
0.99998799
1.0000427
1.0009869
1.0053564
1.0175878
1.043745
1.0846291
1.1218841
1.1315678
1.1199419
1.0989454
1.0844713
1.0831523
1.0838837
1.0801271
1.0767147
1.0732957
1.0707424
1.0681241
1.0658537
1.0632246
1.061016
1.0613834
1.0641145
1.0653889
1.0652705
1.0649892
1.0639954
1.0640732
1.0658877
1.0680524
1.0682403
1.0660623
1.0631635
1.0613115
1.0601469
1.0591763
1.057926
1.056319
1.054493
1.0530164
1.0521868
1.0512787
1.0504092
0.99999904
0.99999904
0.99999904
0.99999904
0.99999904
0.99999904
0.99999904
0.99999904
0.99999905
0.99999909
0.99999854
0.99998917
1.0000049
1.0006853
1.0043188
1.0152042
1.0397766
1.0808776
1.1233766
1.136196
1.1227991
1.0986747
1.0832669
1.083325
1.0846162
1.0806857
1.0773371
1.0739961
1.0710261
1.0684703
1.0662795
1.0637884
1.0610715
1.0606573
1.062834
1.0652095
1.0652326
1.0649115
1.064571
1.064645
1.0664273
1.06866
1.0687886
1.0665019
1.063671
1.0615997
1.0605568
1.05975
1.0584962
1.0565769
1.0549572
1.0538558
1.0526302
1.0517999
1.0507095
0.99999904
0.99999904
0.99999904
0.99999904
0.99999904
0.99999904
0.99999904
0.99999904
0.99999904
0.99999909
0.9999989
0.99999123
0.9999827
1.0004465
1.0034076
1.0130195
1.0359297
1.0768325
1.12386
1.1408044
1.1259983
1.0987766
1.0822228
1.0835387
1.0852736
1.0811796
1.0779804
1.0747344
1.0715
1.0688514
1.0665519
1.0642804
1.0614558
1.060198
1.0615952
1.0647198
1.0650918
1.0647316
1.0648032
1.0652507
1.0671237
1.0690885
1.069185
1.0670897
1.0641562
1.062005
1.0610863
1.0601768
1.0586339
1.0569689
1.0558197
1.0545109
1.0535481
1.0523204
1.0513828
0.99999904
0.99999904
0.99999904
0.99999904
0.99999904
0.99999904
0.99999904
0.99999904
0.99999904
0.99999909
0.99999913
0.99999359
0.99997205
1.0002623
1.0026176
1.0110318
1.0322454
1.0725805
1.1232432
1.1452483
1.1295094
1.0990113
1.0810075
1.0837069
1.0859451
1.0816694
1.0784758
1.0754261
1.0722158
1.0692463
1.066827
1.0646299
1.0620617
1.0600856
1.0606402
1.0635762
1.0648946
1.0645285
1.0646108
1.0659223
1.0679271
1.0695799
1.06958
1.0674489
1.0645749
1.062702
1.0616008
1.0603435
1.0588975
1.0575962
1.0562968
1.055295
1.0543206
1.0530867
1.0521186
0.99999904
0.99999904
0.99999904
0.99999904
0.99999904
0.99999904
0.99999904
0.99999904
0.99999904
0.99999907
0.99999926
0.9999958
0.99996946
1.0001255
1.001945
1.0092409
1.0287642
1.0681878
1.1215291
1.1494933
1.1333913
1.0995347
1.0799372
1.0837793
1.0866162
1.0822361
1.0788144
1.0759599
1.0730363
1.0697713
1.0671505
1.0649284
1.062751
1.060403
1.0599781
1.0619843
1.0643599
1.0641646
1.0643032
1.0663678
1.0688231
1.0704426
1.0698376
1.0675359
1.0651734
1.0634299
1.0620363
1.0607197
1.0593654
1.0579568
1.0568042
1.055983
1.0549035
1.0540484
1.0527073
0.99999904
0.99999904
0.99999904
0.99999904
0.99999904
0.99999904
0.99999904
0.99999904
0.99999904
0.99999906
0.9999993
0.99999759
0.99997205
1.0000319
1.0013829
1.0076425
1.0255184
1.0637085
1.1188427
1.1531711
1.137642
1.1002011
1.0793727
1.0837005
1.0871701
1.082863
1.0791431
1.0762899
1.0737273
1.0705408
1.0676249
1.0652719
1.0633293
1.0610741
1.0596244
1.0604627
1.0631197
1.0637583
1.0640938
1.0663825
1.069703
1.0714046
1.070207
1.0676843
1.0656716
1.0640257
1.0627103
1.0613295
1.059695
1.0583383
1.0574033
1.0564413
1.0556402
1.0546014
1.0532253
0.99999904
0.99999904
0.99999904
0.99999904
0.99999904
0.99999904
0.99999904
0.99999904
0.99999904
0.99999905
0.99999928
0.99999888
0.99997756
0.9999726
1.0009261
1.0062352
1.0225296
1.0591902
1.1153611
1.1562416
1.142142
1.1011433
1.0792694
1.0835931
1.0875199
1.0835088
1.0795871
1.0765178
1.0741919
1.0714467
1.0683325
1.0656824
1.063805
1.061898
1.0596977
1.0592176
1.0611972
1.0631664
1.0639621
1.0663558
1.0702272
1.0722244
1.0708891
1.0681465
1.0658618
1.0644768
1.0635142
1.0619712
1.0602039
1.0588384
1.0578397
1.0569724
1.0561493
1.0548285
1.0538463
0.99999904
0.99999904
0.99999904
0.99999904
0.99999904
0.99999904
0.99999904
0.99999904
0.99999904
0.99999904
0.99999922
0.99999972
0.99998428
0.9999392
1.000565
1.0050142
1.0198096
1.0546902
1.1112527
1.1583143
1.1469207
1.1021546
1.079531
1.0834941
1.0875959
1.0840811
1.0801539
1.0768277
1.0744995
1.0721477
1.0692
1.0662857
1.0643041
1.0626857
1.0601846
1.0584378
1.0591537
1.0618188
1.0638553
1.0665327
1.0704096
1.0727866
1.0717142
1.06888
1.066214
1.0648646
1.0640335
1.0627164
1.0609757
1.0595232
1.0583435
1.0574806
1.0563305
1.0553033
1.0542305
0.99999904
0.99999904
0.99999904
0.99999904
0.99999904
0.99999904
0.99999904
0.99999904
0.99999904
0.99999903
0.99999915
1.0000002
0.99999078
0.99992438
1.0002895
1.0039756
1.017365
1.0502774
1.106676
1.1590591
1.1518442
1.1037251
1.0798801
1.0834545
1.0875209
1.0845605
1.0807969
1.0773049
1.0747366
1.0724798
1.0699099
1.0671345
1.0649649
1.0633661
1.0609324
1.0582735
1.0575482
1.0597421
1.0633401
1.0667796
1.0706727
1.0729546
1.0723023
1.0696501
1.0669867
1.0652983
1.0643691
1.0632466
1.0617772
1.0603018
1.0591158
1.0578532
1.0568652
1.0557959
1.0545
0.99999904
0.99999904
0.99999904
0.99999904
0.99999904
0.99999904
0.99999904
0.99999904
0.99999904
0.99999903
0.99999909
1.0000003
0.99999612
0.99992197
1.0000898
1.0031128
1.0151962
1.0460273
1.1017875
1.1583583
1.1566084
1.1063201
1.0805414
1.0834108
1.0873608
1.0849994
1.0814732
1.0779008
1.0750058
1.0725892
1.0703675
1.0680721
1.0658693
1.0639856
1.0616741
1.0586447
1.0566775
1.0576287
1.0619049
1.0668889
1.070984
1.0731081
1.0724477
1.0703064
1.067894
1.0660549
1.0648104
1.0635175
1.0623115
1.0610584
1.0598514
1.0585764
1.0575095
1.056095
1.0550312
0.99999904
0.99999904
0.99999904
0.99999904
0.99999904
0.99999904
0.99999904
0.99999904
0.99999904
0.99999903
0.99999904
1.0000003
1
0.99992653
0.99994717
1.0024159
1.0132942
1.0419967
1.0966954
1.1563769
1.1605484
1.1101674
1.0814799
1.0829978
1.087236
1.0854768
1.082162
1.0785084
1.0753631
1.0726166
1.0706328
1.0689407
1.0669583
1.0646276
1.0622304
1.0593185
1.0565173
1.0561371
1.0599053
1.0661106
1.0711647
1.0734124
1.0726255
1.070602
1.0686491
1.0670527
1.0654946
1.0638681
1.0625986
1.0616059
1.0605493
1.0594968
1.0580706
1.0568814
1.0558765
0.99999904
0.99999904
0.99999904
0.99999904
0.99999904
0.99999904
0.99999904
0.99999904
0.99999904
0.99999903
0.999999
1.0000002
1.0000027
0.99993354
0.99986157
1.0018897
1.0116556
1.0382296
1.0913733
1.1529575
1.1638032
1.1151296
1.0820676
1.0824043
1.087273
1.0858667
1.0825292
1.0788229
1.0756753
1.0726571
1.0706966
1.0693627
1.0676617
1.0651299
1.0625177
1.0598816
1.0569077
1.0554001
1.0578946
1.0639815
1.0702855
1.0733605
1.0731873
1.0709889
1.0689639
1.067696
1.0662175
1.0643171
1.0628213
1.0617864
1.0609669
1.0599087
1.0587419
1.0575469
1.0563232
1.0549757
1.0543589
1.0538584
1.0532906
1.052851
1.0525024
1.0520177
1.0513105
1.0506178
1.0500754
1.0496166
1.0491211
1.0486402
1.0481947
1.0476843
1.0472327
1.0468744
1.0463078
1.045771
1.0453013
1.044888
1.0446884
1.0448398
1.0452893
1.0459798
1.0467094
1.0474374
1.0533623
1.0529364
1.0523456
1.0519771
1.051431
1.0508154
1.0501893
1.0496276
1.0491611
1.0487051
1.0480916
1.0474264
1.0468095
1.0463101
1.0461088
1.045981
1.0457072
1.0453206
1.0447206
1.0440854
1.0435342
1.0433186
1.0435582
1.0441634
1.0449469
1.045866
1.0467163
1.0516313
1.051312
1.0509147
1.0504693
1.0498815
1.0491815
1.048548
1.0481034
1.0477367
1.0472538
1.0466053
1.0458191
1.045038
1.0445311
1.0443522
1.0443757
1.0443247
1.0439829
1.0434798
1.0429157
1.0425323
1.0425617
1.0429874
1.0436659
1.0443724
1.0451193
1.0457406
1.0499419
1.0496231
1.0493269
1.0487862
1.0481232
1.0474126
1.0468626
1.0465633
1.0462058
1.0457515
1.0450568
1.044227
1.0434604
1.0429399
1.0427821
1.0427402
1.0426292
1.0423665
1.0419382
1.0415852
1.0415088
1.0418647
1.0425987
1.0434703
1.0442004
1.0446974
1.0448229
1.0484088
1.0480772
1.0475985
1.0470294
1.0463501
1.0456815
1.0451506
1.0448577
1.044449
1.0439354
1.0433174
1.0426603
1.042
1.041534
1.0412885
1.0411439
1.0409043
1.0406238
1.0403696
1.0402729
1.0404489
1.0410244
1.04189
1.0428616
1.0436349
1.0439628
1.0436087
1.0468747
1.0465439
1.0459456
1.0453408
1.0447983
1.0442219
1.0435899
1.0430289
1.0425654
1.0419995
1.0414713
1.0409305
1.0404591
1.0400535
1.0397625
1.0395276
1.0392474
1.0390458
1.0390422
1.0392554
1.0396786
1.0402673
1.0410089
1.0417424
1.0422646
1.0423102
1.0416725
1.0453091
1.0448488
1.0443054
1.0438157
1.0433712
1.0428085
1.0420658
1.0413153
1.0407062
1.0401341
1.0396322
1.0392455
1.0388726
1.0385093
1.0381162
1.0377794
1.0376182
1.0376557
1.0380725
1.0386274
1.0392505
1.0397677
1.0401566
1.0402922
1.0402263
1.0398759
1.0390761
1.0435034
1.0430429
1.0425807
1.0422086
1.0417307
1.0411439
1.0403851
1.0396126
1.0389854
1.0384652
1.0379921
1.0376947
1.0373123
1.0369225
1.0364551
1.036151
1.0361377
1.0365455
1.0372635
1.0381559
1.0388384
1.0392581
1.0391676
1.0387345
1.0379654
1.0372369
1.0363342
1.0415298
1.0411343
1.0407921
1.0403924
1.0398211
1.0392262
1.0385089
1.0378019
1.0372943
1.0368853
1.0364635
1.0361821
1.03589
1.0354092
1.034997
1.0348164
1.0350322
1.0357125
1.0366117
1.0375056
1.0380229
1.0381397
1.0377515
1.0368623
1.0357502
1.0347829
1.0339614
1.0396232
1.0392937
1.0389087
1.0384727
1.0378453
1.0371721
1.0365724
1.0359764
1.0355341
1.0353086
1.0349053
1.0346414
1.0343992
1.0340558
1.0338634
1.033997
1.03437
1.0350843
1.0358833
1.0364215
1.0365374
1.0362387
1.035575
1.034514
1.0334168
1.0325354
1.0319644
1.0378377
1.0374948
1.0370319
1.0365099
1.0358569
1.0352188
1.0346587
1.0341962
1.0338221
1.0335792
1.0332248
1.0329894
1.0329097
1.0328516
1.032978
1.0334252
1.0339494
1.0344598
1.0348345
1.0348165
1.0344156
1.0336457
1.032777
1.031879
1.0309809
1.030432
1.0301134
1.0359784
1.0355455
1.0350091
1.0345435
1.03391
1.0333418
1.0329035
1.0324793
1.0321024
1.0317947
1.0314825
1.0313714
1.0314821
1.0317531
1.03225
1.0328985
1.0332809
1.0334282
1.0332089
1.0327261
1.0318351
1.0307926
1.0299121
1.029191
1.0286004
1.0283551
1.0281875
1.0338368
1.033357
1.0328793
1.0324754
1.0319581
1.0315484
1.0311263
1.0307433
1.0303898
1.0300307
1.0298727
1.0299251
1.0303064
1.0308419
1.031518
1.0319428
1.0320676
1.0316921
1.0310418
1.0301412
1.0290047
1.0280613
1.0272538
1.026792
1.0264317
1.0263409
1.0261663
1.0314279
1.0310622
1.030608
1.0303156
1.0300119
1.0296013
1.0292887
1.028937
1.0286814
1.0284817
1.0285461
1.0288472
1.0294163
1.0299681
1.0303707
1.0304485
1.0300723
1.0293281
1.0283397
1.027254
1.0262605
1.0255508
1.0249574
1.024716
1.0244335
1.0243249
1.0240425
1.0289868
1.0286398
1.0283943
1.0281288
1.0278706
1.0276535
1.02735
1.0271503
1.0271766
1.0272171
1.0275909
1.0280644
1.0284937
1.0287923
1.0286913
1.0282513
1.0274687
1.0263976
1.0254307
1.024371
1.0237222
1.0232088
1.0229324
1.0227821
1.0224654
1.0222514
1.0217355
1.0265782
1.0264699
1.0261018
1.0259638
1.0258271
1.0255443
1.0255695
1.025553
1.0257958
1.0263432
1.0266655
1.0271288
1.0272667
1.0269865
1.0264376
1.0255172
1.0244209
1.0234189
1.022434
1.0217887
1.0213095
1.0211556
1.0209078
1.0208216
1.0203105
1.0200041
1.0192489
1.0244107
1.024298
1.0241732
1.0238339
1.0238339
1.0238727
1.0237995
1.0242829
1.0247214
1.0251366
1.0256041
1.0256037
1.0252623
1.0246877
1.0235065
1.0225779
1.0212936
1.0205559
1.0197864
1.019359
1.0192055
1.018972
1.0189299
1.018532
1.0180616
1.0174236
1.0166692
1.0224796
1.0223939
1.0222587
1.0222533
1.0221737
1.022354
1.022716
1.0229794
1.0234805
1.0237595
1.0236167
1.023432
1.0225195
1.0217018
1.02048
1.0193868
1.0185731
1.0178531
1.0174747
1.0171623
1.0170562
1.0168192
1.0165971
1.0161323
1.0154825
1.0147311
1.0139641
1.0207264
1.0209493
1.020763
1.0208503
1.0211271
1.0212046
1.0215761
1.0217781
1.0216973
1.0216893
1.0210578
1.0203416
1.0194402
1.0183266
1.0174229
1.0165718
1.0159077
1.0156189
1.015153
1.0151598
1.0146942
1.014598
1.0139853
1.0135312
1.0126844
1.0119834
1.011233
1.0194957
1.0197201
1.0198742
1.0198984
1.0201241
1.0202707
1.0201268
1.0200257
1.0195406
1.0188377
1.0180157
1.0169687
1.016013
1.0152531
1.0144014
1.014079
1.0135106
1.0133695
1.0129963
1.0128315
1.0123473
1.0120187
1.0113159
1.0106451
1.0099077
1.0091559
1.0085458
1.0187235
1.0190411
1.0191568
1.0191791
1.019111
1.0189018
1.0183808
1.0177053
1.0168623
1.0157401
1.014757
1.0137326
1.0128259
1.012404
1.0117972
1.0116756
1.0112425
1.0110815
1.0106918
1.0102819
1.009767
1.0092314
1.0084762
1.0078132
1.0070015
1.0064738
1.005863
1.0181826
1.0185464
1.018469
1.018223
1.0177753
1.0170889
1.0162192
1.015045
1.0139548
1.0128175
1.0116921
1.0109251
1.01017
1.0099032
1.009451
1.0093496
1.0090091
1.0086049
1.0081062
1.0076136
1.0069579
1.0061728
1.0056817
1.0048785
1.0042913
1.0036992
1.0033141
1.017444
1.0176707
1.0173316
1.0167728
1.0159215
1.0148317
1.0137111
1.0123893
1.0111558
1.0101892
1.0092617
1.0085552
1.0081094
1.0076428
1.0075004
1.0068925
1.0066902
1.0059984
1.0053521
1.0047366
1.0039931
1.0031605
1.0028274
1.0018925
1.0017118
1.0009528
1.0007254
1.0158934
1.0159731
1.0154097
1.0145634
1.0134666
1.0122202
1.0111382
1.0097853
1.0087681
1.0081183
1.0071182
1.0068397
1.0062492
1.0057798
1.0055451
1.0045061
1.004444
1.0031352
1.0026261
1.0017687
1.0010823
1.0001385
1.0000093
0.99910009
0.99901239
0.99826363
0.99815799
1.013248
1.0131503
1.012447
1.0115746
1.0105464
1.009363
1.0084523
1.007552
1.0066284
1.0062338
1.0054658
1.005187
1.0045647
1.0039914
1.003494
1.0023697
1.0019676
1.000581
0.99975004
0.99909556
0.99802949
0.99759544
0.99696532
0.99660204
0.9961951
0.99571706
0.99538123
1.0094361
1.0093523
1.0087055
1.0078928
1.0072552
1.0064205
1.0056952
1.0054307
1.0046087
1.0043891
1.0038759
1.0032248
1.0028859
1.0018854
1.0014507
1.0001237
0.99961758
0.99818897
0.99711612
0.99664092
0.99527337
0.99515903
0.99408281
0.99421624
0.99332901
0.99311504
0.9926019
1.004878
1.0049263
1.0044767
1.0039745
1.0036906
1.0032765
1.0029636
1.0030518
1.0025538
1.0022252
1.0019357
1.001096
1.0007139
0.99982515
0.99884504
0.99810744
0.99712309
0.99593297
0.99490996
0.99430156
0.99293593
0.99280793
0.99157379
0.99169128
0.99065773
0.99052337
0.98974265
1.0001531
1.0004106
1.0001676
1.0000559
1.0000534
0.99990189
1.0000357
1.0002886
0.99994768
0.99975451
0.99931441
0.99859377
0.99824091
0.99720877
0.99637742
0.99576919
0.99473743
0.99376897
0.99293806
0.99197446
0.99103515
0.99046863
0.98943513
0.98915177
0.98820851
0.98787373
0.98707189
0.99572156
0.99621921
0.99612713
0.99627821
0.99657241
0.99641472
0.99681984
0.99704019
0.99666491
0.9967737
0.99600792
0.99573617
0.99521247
0.9943475
0.99392046
0.99297334
0.99266942
0.99136691
0.99110398
0.98965581
0.98936231
0.9880921
0.98756531
0.98669536
0.98595219
0.9852767
0.98452936
0.99174787
0.99244284
0.99255153
0.99285588
0.99308396
0.99309634
0.99323984
0.99332849
0.99322076
0.99287604
0.99250478
0.99217406
0.99189417
0.99126799
0.99096714
0.99039422
0.99018741
0.98918913
0.98883659
0.9876869
0.98730515
0.98601872
0.98558429
0.98443552
0.98375536
0.98285739
0.98210295
0.98838141
0.98917903
0.98936582
0.98960638
0.98978455
0.98972222
0.98952489
0.98953239
0.98931091
0.98881207
0.98870532
0.98839157
0.98828863
0.98793118
0.98785321
0.98766985
0.98744744
0.98684719
0.98646952
0.98564795
0.98501678
0.98406688
0.98338885
0.98237023
0.98156128
0.98061344
0.97979719
0.98529676
0.98623947
0.98637959
0.98656935
0.9865476
0.9861902
0.9859162
0.98572838
0.98525385
0.98482883
0.98485387
0.98452521
0.98457621
0.98459821
0.9845193
0.98479921
0.98435869
0.98439658
0.98377975
0.98344017
0.98258465
0.98199299
0.98107977
0.98027947
0.97937547
0.97846062
0.9776013
0.98257901
0.98350304
0.98355808
0.98355681
0.98327395
0.98268688
0.98240029
0.98198539
0.98133225
0.98125102
0.98104434
0.98081261
0.98107621
0.98120124
0.9812822
0.98159708
0.98128169
0.98150571
0.98098516
0.98080649
0.98007539
0.97952537
0.97882185
0.97792242
0.97727391
0.97622943
0.97547183
0.9797247
0.98084706
0.9807945
0.98051059
0.97996478
0.97926585
0.97894543
0.97841406
0.97785142
0.97786903
0.97762219
0.97748129
0.97779054
0.97803278
0.9780803
0.9784021
0.97813126
0.97840462
0.97798342
0.97791341
0.97731921
0.97686427
0.97634549
0.97550731
0.97505146
0.97398976
0.97335664
0.97693739
0.9780767
0.97794031
0.97745989
0.97682589
0.97605343
0.97556302
0.97519031
0.97473878
0.97463996
0.97470316
0.97444647
0.9747445
0.97506657
0.97497665
0.97526996
0.97505314
0.97523256
0.9748878
0.97482254
0.97441421
0.97409986
0.97364175
0.97309616
0.97265883
0.97181577
0.97122841
0.97384526
0.97510072
0.9749581
0.97444868
0.97389378
0.97317827
0.97255668
0.97232397
0.97193984
0.97177812
0.97200309
0.97167526
0.97188717
0.97216533
0.97197181
0.97217313
0.97203854
0.97206159
0.97182317
0.97167244
0.97157733
0.97118767
0.97106047
0.97049767
0.97026453
0.96961128
0.96915926
0.97063165
0.9719751
0.97191338
0.97150785
0.97111869
0.97059859
0.9699975
0.96978196
0.96943017
0.96925441
0.96943341
0.96905815
0.96910557
0.96926537
0.96902787
0.96913319
0.96902472
0.9689785
0.96883541
0.9686814
0.96880508
0.96840008
0.96856652
0.96788032
0.96794927
0.96738208
0.96706932
0.96725819
0.9688327
0.96896062
0.96871422
0.96853139
0.96821086
0.96776598
0.96753009
0.96721066
0.96696393
0.9669825
0.96660793
0.96645275
0.96641027
0.96617197
0.96627688
0.96607217
0.96604267
0.96599632
0.96589082
0.96615
0.96578549
0.96603907
0.96550547
0.96564471
0.96524773
0.96497967
0.96406053
0.96582375
0.96616049
0.96609414
0.96601963
0.96590148
0.96563178
0.96539272
0.96514214
0.96484186
0.96470031
0.96437242
0.96403161
0.96384198
0.96359457
0.96360582
0.9634057
0.96335935
0.96339841
0.96328828
0.96366578
0.96338276
0.96352144
0.96337306
0.96337539
0.96324814
0.96298099
0.96136619
0.96324403
0.96368767
0.96368539
0.96361841
0.96360499
0.9634652
0.96328671
0.96304587
0.96276153
0.96253213
0.96226261
0.96194002
0.96163258
0.9613892
0.96127115
0.96113481
0.96105182
0.96109516
0.96103103
0.96118537
0.96121123
0.96125608
0.96134128
0.96122657
0.96123659
0.96105483
0.95923821
0.96107602
0.96156009
0.96159075
0.9615301
0.96146783
0.96137435
0.96123451
0.96101837
0.96078475
0.96054188
0.96032478
0.96005787
0.95975312
0.95952674
0.95931813
0.95919484
0.95907609
0.95907103
0.95905864
0.95905591
0.95912336
0.95921513
0.9593257
0.95933029
0.95924895
0.95906843
0.95742028
0.95921295
0.95971259
0.95977787
0.9597083
0.95961924
0.9595271
0.95940418
0.95924595
0.9590285
0.95882175
0.95858673
0.95833563
0.9580842
0.95789381
0.95765876
0.95754195
0.95740915
0.95731995
0.95735888
0.95720873
0.95735981
0.95728185
0.95748038
0.95740173
0.95740992
0.95722119
0.95533832
0.95726336
0.95787641
0.95799019
0.95797331
0.9579563
0.95791324
0.95785755
0.95773737
0.95747933
0.95733184
0.95700038
0.95680934
0.95663492
0.95636454
0.95618043
0.9558717
0.955965
0.95571657
0.95579066
0.95564903
0.95572154
0.95577936
0.9557361
0.95583644
0.95566241
0.95565591
0.9533529
0.95546077
0.95616069
0.95634167
0.95642689
0.95647668
0.95659726
0.95663084
0.95647157
0.95637146
0.95601538
0.95586214
0.95542718
0.95540091
0.95499449
0.95471562
0.95452626
0.95433403
0.95457217
0.95419016
0.95450894
0.95416119
0.95457228
0.95431872
0.95453579
0.95432478
0.95437414
0.95179575
0.9539532
0.95472992
0.95499156
0.95518694
0.95536268
0.95550591
0.95560566
0.95553576
0.95527707
0.95520299
0.95467496
0.95450389
0.95398181
0.95384488
0.95351961
0.95316173
0.95315802
0.9529563
0.95323528
0.95292718
0.95325577
0.95304799
0.95342088
0.95322866
0.95342423
0.95330155
0.95078343
0.95291542
0.95371753
0.954044
0.95431891
0.95454547
0.95476641
0.95473648
0.95480293
0.95463023
0.95431454
0.9541662
0.9534183
0.95319309
0.95278048
0.95254878
0.95233625
0.95188095
0.95197924
0.9518603
0.95208088
0.95191748
0.95222946
0.95212937
0.95240522
0.95237278
0.9524267
0.95023058
0.95237892
0.95317262
0.95347464
0.95378859
0.95403561
0.9541834
0.95415572
0.95415553
0.9539883
0.9538825
0.95329808
0.95314741
0.95241293
0.95215716
0.95183402
0.95148032
0.95141545
0.95101218
0.95112134
0.95104113
0.95116927
0.95124538
0.9514056
0.95139507
0.95149928
0.95150487
0.95003107
0.9521535
0.95295557
0.95319165
0.95341768
0.95365708
0.95373864
0.95360386
0.95374454
0.95330885
0.95331536
0.95291917
0.95242767
0.95231319
0.95146008
0.95158981
0.9508666
0.95107977
0.95066948
0.95060841
0.95062362
0.95059449
0.9507544
0.95063577
0.95082113
0.95078012
0.95091658
0.95012679
0.95215354
0.95284628
0.95303943
0.95312696
0.95320849
0.95336525
0.95316771
0.95330504
0.95281633
0.95277894
0.95245704
0.95204305
0.95190463
0.95124035
0.95128122
0.95073913
0.95086477
0.95056353
0.95055822
0.95042909
0.95049101
0.95048822
0.95046682
0.95056524
0.95049196
0.95043712
0.95036136
0.95230216
0.95291072
0.95290244
0.95307316
0.95287468
0.95300876
0.95283946
0.9527185
0.95280147
0.9521448
0.95236885
0.95147782
0.95163962
0.95117182
0.95090702
0.95104833
0.95034312
0.95097425
0.95018949
0.95092103
0.95032922
0.95089054
0.95054651
0.95062773
0.95041208
0.95020776
0.95068826
0.9525964
0.95315483
0.95316533
0.95299965
0.9530199
0.9528616
0.95273005