/*--------------------------------*- C++ -*----------------------------------*\
| =========                 |                                                 |
| \\      /  F ield         | OpenFOAM: The Open Source CFD Toolbox           |
|  \\    /   O peration     | Version:  2406                                  |
|   \\  /    A nd           | Website:  www.openfoam.com                      |
|    \\/     M anipulation  |                                                 |
\*---------------------------------------------------------------------------*/
FoamFile
{
    version     2.0;
    format      ascii;
    arch        "LSB;label=32;scalar=64";
    class       volVectorField;
    location    "1";
    object      U;
}
// * * * * * * * * * * * * * * * * * * * * * * * * * * * * * * * * * * * * * //

dimensions      [0 1 -1 0 0 0 0];

internalField   nonuniform List<vector> 
62344
(
(0.1775441 -1.5910423e-07 -3.2346574e-21)
(0.17755856 -3.8826838e-08 -1.6824978e-21)
(0.17754856 -2.2402929e-07 -3.5007966e-21)
(0.17754393 -9.8391549e-07 1.8338709e-21)
(0.1775441 -1.3832016e-06 0)
(0.17754616 -2.6010079e-06 7.9152125e-21)
(0.17754922 -2.8292051e-06 -8.1986033e-21)
(0.17754519 -2.2560782e-06 4.2639705e-21)
(0.17753736 -2.3374104e-06 0)
(0.177539 -3.5744918e-06 0)
(0.17756091 -5.4454057e-06 1.9371038e-20)
(0.17756202 -6.3273735e-06 -4.1171083e-20)
(0.17663963 7.9235423e-06 1.2260292e-21)
(0.17005412 -0.00061110921 4.522575e-20)
(0.14691807 -0.0036472943 -2.2616246e-20)
(0.10686838 -0.011134443 2.3055536e-20)
(0.077557505 -0.019032429 -2.4731871e-20)
(0.079376448 -0.02129134 0)
(0.088535439 -0.017814852 0)
(0.07999199 -0.0064264914 -1.7627537e-21)
(0.060195811 0.01382121 -9.3070011e-22)
(0.045547914 0.035184492 9.6851704e-22)
(0.045616218 0.038803696 2.0117928e-21)
(0.064002258 0.019800247 -6.5235804e-20)
(0.088159594 -0.0021195958 7.0675656e-20)
(0.096409193 -0.0092648607 0)
(0.08987615 0.00079109942 0)
(0.081055556 0.013967979 -6.137765e-22)
(0.078536348 0.018371417 -8.013177e-20)
(0.084355673 0.012233751 8.4820742e-20)
(0.09366319 -7.6267032e-05 8.788182e-20)
(0.099516803 -0.011386531 -9.1558438e-20)
(0.098307447 -0.014564493 -7.2830189e-22)
(0.092559179 -0.011089057 9.7795354e-20)
(0.087792687 -0.0074291793 -1.0157205e-19)
(0.087687345 -0.0062304924 -8.252783e-22)
(0.093394775 -0.0095630778 -1.0948222e-19)
(0.10254615 -0.016161278 2.300049e-19)
(0.11225926 -0.023699166 -2.3788488e-19)
(0.11908981 -0.030671286 6.6348518e-22)
(0.12087357 -0.035666813 -6.8244707e-22)
(0.11905255 -0.039011364 2.6476868e-19)
(0.11607402 -0.041201179 -1.3767109e-19)
(0.11495363 -0.042914089 0)
(0.11707566 -0.045376085 -1.4935299e-19)
(0.1228414 -0.048305123 3.0940507e-19)
(0.12961195 -0.052021803 -8.6507099e-22)
(0.13561768 -0.055249394 -3.340247e-19)
(0.13848399 -0.058043107 1.7344439e-19)
(0.13907401 -0.06067621 0)
(0.1370986 -0.063190693 0)
(0.1372496 -0.06443256 1.9827854e-19)
(0.13704791 -0.06839187 -2.0643508e-19)
(0.1419302 -0.070737552 -4.2090587e-22)
(0.14533561 -0.074255977 -2.2122883e-19)
(0.1775439 2.3486037e-07 -1.7073184e-21)
(0.17755867 6.5353064e-07 1.7762384e-21)
(0.17754866 3.5759168e-07 5.5437814e-21)
(0.17754388 3.2258087e-07 -5.7667956e-21)
(0.17754412 4.6446065e-07 0)
(0.17754601 -1.2012151e-07 8.3394705e-21)
(0.17754902 4.7304463e-07 -1.0819286e-20)
(0.17754533 1.5458374e-06 -1.1253387e-20)
(0.17753754 1.480163e-06 1.1705162e-20)
(0.17753823 8.5141392e-07 0)
(0.17755799 1.8670854e-06 0)
(0.1776106 2.4907228e-06 1.3170161e-21)
(0.17721085 -7.1736782e-05 -1.3613124e-21)
(0.17273093 -0.0011804341 2.0309635e-20)
(0.15386722 -0.006748874 -2.3900601e-20)
(0.11568105 -0.019357993 0)
(0.081874129 -0.031109678 0)
(0.077663247 -0.031572693 0)
(0.085244193 -0.025072935 2.8678968e-20)
(0.07661831 -0.013139651 1.6709136e-21)
(0.056291671 0.0043713476 8.7970257e-22)
(0.042241963 0.021191951 -9.9583356e-20)
(0.046206045 0.023496396 6.6955169e-20)
(0.066719163 0.008379363 0)
(0.087857919 -0.0052279627 7.3038728e-20)
(0.092962367 -0.0032380275 4.6319382e-22)
(0.086492196 0.0061829579 -1.5738324e-19)
(0.079032664 0.014129051 8.2847431e-20)
(0.079035971 0.013152939 -6.652646e-22)
(0.086663077 0.0054934611 -8.8504881e-20)
(0.096157366 -0.0035774705 9.3290016e-20)
(0.10090588 -0.0085092224 7.5222621e-22)
(0.09888783 -0.0085150156 -9.8472207e-20)
(0.092968252 -0.0060837148 2.056611e-19)
(0.087943914 -0.0057825411 -1.0825131e-19)
(0.08788377 -0.0077322967 8.7179017e-22)
(0.092953067 -0.012108172 0)
(0.10168789 -0.016389226 0)
(0.11196151 -0.020783538 4.9290416e-22)
(0.12002 -0.024459006 1.3029466e-19)
(0.12387553 -0.027661192 -2.7155717e-19)
(0.12357926 -0.030614654 1.418778e-19)
(0.12013697 -0.03398876 1.4672077e-19)
(0.11756964 -0.036375827 -3.0469638e-19)
(0.11664388 -0.039251858 1.5453855e-19)
(0.12069307 -0.040630458 0)
(0.12675618 -0.043586746 0)
(0.1343763 -0.045073807 0)
(0.13933881 -0.047837523 3.6233578e-22)
(0.14265949 -0.050152803 -3.7615766e-22)
(0.14181052 -0.053661608 0)
(0.14138745 -0.055184468 9.4898433e-25)
(0.13894537 -0.059689002 -4.2780071e-22)
(0.14099363 -0.060773898 6.6746828e-22)
(0.14299213 -0.064250066 -2.2778775e-22)
(0.17754373 1.8811905e-07 1.8018885e-21)
(0.17755876 5.3598281e-07 -1.8747435e-21)
(0.1775488 3.679423e-07 -1.9503794e-21)
(0.1775439 2.0949271e-07 2.0288723e-21)
(0.17754417 2.4447951e-07 -2.1017164e-21)
(0.17754598 -6.5059653e-07 2.2029193e-21)
(0.17754884 -2.3300525e-07 4.5677584e-21)
(0.1775455 9.0031249e-07 0)
(0.17753786 7.7762682e-07 7.4125854e-21)
(0.17753764 -1.5635826e-07 -1.1529214e-20)
(0.17755442 6.9861938e-07 0)
(0.17761901 5.1427363e-06 -1.4037707e-21)
(0.17748789 9.4309508e-06 1.2548611e-25)
(0.17444322 -0.00038687753 2.1096774e-24)
(0.15922483 -0.0042939158 2.6072737e-20)
(0.12359424 -0.015036463 -2.4593385e-20)
(0.086635386 -0.027406306 0)
(0.076566531 -0.028997773 0)
(0.082036045 -0.022417955 0)
(0.073010931 -0.009835834 0)
(0.05158692 0.0091685445 0)
(0.0392073 0.026365869 3.5927421e-20)
(0.047304327 0.02536056 -3.6158936e-20)
(0.069314851 0.010226697 -1.1598351e-21)
(0.088230475 -0.0015404102 1.2083038e-21)
(0.090903955 0.00043213609 0)
(0.084077944 0.010167737 0)
(0.078850574 0.015442248 6.8234024e-22)
(0.080844566 0.01126539 7.0487423e-22)
(0.088945589 0.0029231608 0)
(0.097278479 -0.0046093378 0)
(0.1012061 -0.0065362923 -1.0244116e-19)
(0.099177589 -0.0038588589 2.0822564e-19)
(0.094202628 -0.0017735396 -1.0819231e-19)
(0.090046699 -0.0029680925 -4.4776857e-22)
(0.08950375 -0.006639961 1.1912553e-19)
(0.093642099 -0.011974994 -1.2401956e-19)
(0.10096771 -0.016244998 0)
(0.10999687 -0.019103913 2.5033743e-24)
(0.11872812 -0.021389118 0)
(0.12428884 -0.022878173 1.4389772e-19)
(0.12633208 -0.024785841 -1.5027164e-19)
(0.12445876 -0.027259506 -1.564822e-19)
(0.12124952 -0.030210941 1.6124009e-19)
(0.11849693 -0.032874157 3.8070752e-25)
(0.11960317 -0.034058473 0)
(0.12376799 -0.035874408 0)
(0.13072377 -0.036019355 -3.7247942e-22)
(0.13731401 -0.037026324 -1.9747966e-19)
(0.14322453 -0.038082163 2.0549316e-19)
(0.14520971 -0.040754764 0)
(0.14581521 -0.042332636 2.1812707e-19)
(0.14396625 -0.047499864 -2.2482088e-19)
(0.14441172 -0.049689201 2.4129768e-19)
(0.14480148 -0.053307616 -2.3737903e-19)
(0.17754359 7.3434717e-08 -9.5064008e-22)
(0.17755885 4.7625171e-07 -2.9672299e-21)
(0.17754894 4.2439918e-07 6.1738967e-21)
(0.1775439 2.1337634e-07 -4.2818234e-21)
(0.17754424 3.2858574e-07 -6.661682e-21)
(0.17754596 -6.7125297e-07 6.9829687e-21)
(0.17754867 -2.8794389e-07 -1.2049423e-20)
(0.17754567 9.525138e-07 2.0053517e-20)
(0.17753815 9.2628246e-07 -1.1733028e-20)
(0.17753716 -1.3150615e-07 2.6977346e-21)
(0.1775509 1.6912712e-07 1.4160014e-21)
(0.1776099 6.2036713e-06 2.3697907e-20)
(0.17766537 3.2524096e-05 -2.135589e-20)
(0.17570711 -0.00017179627 2.708876e-20)
(0.16383543 -0.003158759 7.3276081e-22)
(0.13129886 -0.013171964 -5.8537205e-20)
(0.092039267 -0.02690469 2.8099421e-20)
(0.076291463 -0.029656393 -9.6038862e-22)
(0.078883588 -0.022518569 3.2352062e-20)
(0.069507041 -0.0094765689 -3.2435297e-20)
(0.047243335 0.0098506348 0)
(0.036432041 0.024534367 0)
(0.04821743 0.021708879 -3.6265637e-20)
(0.071157297 0.0056722904 4.1279897e-20)
(0.088382756 -0.0032273242 3.9621732e-20)
(0.088766489 0.00092064499 -4.2032746e-20)
(0.08196025 0.011088015 -4.4043726e-20)
(0.079431657 0.014398136 4.4816254e-20)
(0.08369618 0.0078885684 0)
(0.091260651 -0.00097344699 0)
(0.097864259 -0.0061894614 0)
(0.1004147 -0.0061065417 0)
(0.098800061 -0.0028614808 0)
(0.095820229 -0.0013502026 0)
(0.092923934 -0.003492544 4.7350689e-22)
(0.09280104 -0.008077164 -1.2574985e-19)
(0.095145256 -0.012849702 1.3105012e-19)
(0.10045517 -0.016932953 5.2949343e-22)
(0.10765365 -0.019041611 -1.1010869e-21)
(0.11600606 -0.020026534 1.4584712e-19)
(0.12318487 -0.02074344 -1.525089e-19)
(0.12763462 -0.022253781 1.5748073e-19)
(0.12801005 -0.024615844 -1.6461957e-19)
(0.12563305 -0.027105413 1.7197149e-19)
(0.12216654 -0.030128062 -3.5654491e-19)
(0.12011718 -0.031548094 -6.5169271e-22)
(0.120986 -0.033014665 5.1271331e-22)
(0.12612345 -0.033072774 1.2114874e-21)
(0.13289272 -0.032738903 1.1658251e-21)
(0.14033904 -0.03298483 1.3966263e-21)
(0.14604128 -0.034417604 2.2618367e-19)
(0.14897774 -0.035475685 0)
(0.14985073 -0.040808053 2.4425234e-19)
(0.15108616 -0.043793551 9.8456934e-22)
(0.14960089 -0.048430333 -2.5620682e-19)
(0.17754346 -1.5065935e-08 2.0057104e-21)
(0.17755892 4.3106914e-07 2.0868148e-21)
(0.17754904 4.711531e-07 2.1710145e-21)
(0.17754392 2.162323e-07 0)
(0.17754432 3.844291e-07 0)
(0.17754594 -6.7772123e-07 0)
(0.17754854 -3.6468191e-07 -1.2711417e-21)
(0.17754574 8.8760929e-07 1.0577585e-20)
(0.17753843 9.6829279e-07 -9.6270663e-21)
(0.17753694 -1.2409462e-07 -1.4204288e-21)
(0.17754794 -4.3840087e-07 -1.1928381e-20)
(0.17759718 5.7199198e-06 1.2502062e-20)
(0.17774208 3.7825005e-05 -2.7354214e-20)
(0.17660616 2.0240283e-05 2.6645629e-20)
(0.167599 -0.0020224118 0)
(0.13870063 -0.011038129 0)
(0.098017945 -0.025776799 1.9609848e-21)
(0.07664531 -0.030407003 1.025065e-21)
(0.075728095 -0.022672607 -3.441566e-20)
(0.065827812 -0.0088515535 3.4263836e-20)
(0.043709659 0.010513422 0)
(0.033965395 0.023322517 0)
(0.048874921 0.019372586 -1.259728e-21)
(0.072578545 0.0032310255 0)
(0.087253403 -0.0033636947 -4.2551067e-20)
(0.085893536 0.0037385223 4.4458023e-20)
(0.079877532 0.01278364 0)
(0.080387778 0.014608959 0)
(0.086482769 0.0068645979 0)
(0.092697481 -0.0015687825 0)
(0.097841729 -0.0050537522 0)
(0.09936982 -0.0042309929 0)
(0.098360172 -0.0013191717 -4.5471746e-22)
(0.096620162 -0.00063103754 -4.7900401e-22)
(0.095260983 -0.003479059 0)
(0.095672917 -0.0079303114 -5.1803219e-22)
(0.097104954 -0.012049819 6.8937097e-20)
(0.099979706 -0.015184879 -7.2178518e-20)
(0.1055544 -0.016583605 5.8073969e-22)
(0.11284274 -0.017345727 6.0542296e-22)
(0.12089809 -0.017822413 0)
(0.12699704 -0.019047017 6.5071255e-22)
(0.13043523 -0.020621143 1.2936072e-25)
(0.12958202 -0.023314747 1.8163336e-19)
(0.12648932 -0.026110772 1.3948132e-21)
(0.12280159 -0.028027474 -1.9536796e-19)
(0.12088083 -0.029323123 -3.9829273e-22)
(0.12329561 -0.02970735 0)
(0.12815384 -0.029525161 -4.2057372e-22)
(0.13503689 -0.029577728 -4.4946467e-22)
(0.14292788 -0.030137128 2.3690714e-19)
(0.14875419 -0.030561642 -2.4768781e-19)
(0.15366195 -0.034709146 2.5172218e-22)
(0.15697576 -0.037913003 -1.6219214e-24)
(0.15558713 -0.042729701 -2.6836526e-22)
(0.17754336 -8.6887216e-08 0)
(0.17755898 3.8803133e-07 0)
(0.17754914 5.0032894e-07 -2.2898031e-21)
(0.17754391 2.2666679e-07 0)
(0.17754436 4.3388611e-07 4.9485112e-21)
(0.17754597 -6.779519e-07 -3.8907162e-21)
(0.17754839 -4.3692515e-07 1.3406994e-21)
(0.17754578 8.3765683e-07 0)
(0.17753871 9.9489377e-07 1.4505456e-21)
(0.17753696 -7.3162215e-08 0)
(0.17754557 -8.5710474e-07 -1.5707387e-21)
(0.17758472 4.1482124e-06 -1.1537172e-20)
(0.17775508 3.501629e-05 2.7154319e-20)
(0.177235 0.00011892298 -1.399599e-20)
(0.17059538 -0.0011573053 0)
(0.14560874 -0.008972258 0)
(0.10453663 -0.024144379 -9.4765269e-24)
(0.077766775 -0.031082956 -1.0819256e-21)
(0.07276437 -0.022915168 0)
(0.062129888 -0.0081554617 0)
(0.040300455 0.011296979 1.2380536e-21)
(0.032357982 0.022158212 3.9255813e-20)
(0.049515443 0.016973856 -8.5399918e-20)
(0.073720697 0.0014668105 4.5338114e-20)
(0.085722721 -0.0036858741 4.4585093e-20)
(0.083131346 0.0055088894 -4.6802041e-20)
(0.077698741 0.013417833 -4.9266392e-20)
(0.081404329 0.012520529 5.0989662e-20)
(0.088583992 0.005304256 -5.2549397e-20)
(0.094225563 -0.0017686825 1.1063262e-19)
(0.097668703 -0.0038096454 -5.8422398e-20)
(0.098417007 -0.0023310227 4.6142799e-22)
(0.097960031 -0.00080293807 9.5870968e-22)
(0.097471416 -0.0013524208 9.96993e-22)
(0.097494492 -0.0041101162 0)
(0.09787015 -0.0081904834 -6.9456796e-20)
(0.098534492 -0.011571921 1.4560095e-19)
(0.099932953 -0.013998168 -7.5740439e-20)
(0.10376002 -0.015263841 -6.1541936e-22)
(0.1100818 -0.015795387 -6.36681e-22)
(0.11805054 -0.016170781 0)
(0.12540137 -0.016817279 -8.783435e-20)
(0.13069502 -0.017826054 5.0594531e-22)
(0.1320418 -0.019276644 9.4803967e-20)
(0.13019253 -0.021736873 0)
(0.12638473 -0.023722477 0)
(0.12309043 -0.02567815 -1.0796926e-19)
(0.12212679 -0.026368854 1.1225286e-19)
(0.12424241 -0.027624542 -2.0227267e-24)
(0.12950539 -0.027549754 2.3337131e-19)
(0.13714166 -0.027678875 -5.0244293e-19)
(0.14577116 -0.027455103 5.2198958e-19)
(0.15288528 -0.029502402 -2.7207636e-19)
(0.15980023 -0.032449644 -2.7575783e-22)
(0.16013165 -0.035394517 2.8313821e-22)
(0.17754326 -1.3771139e-07 1.1153681e-21)
(0.17755903 3.5292115e-07 -1.1604819e-21)
(0.17754925 5.1834241e-07 -4.8292265e-21)
(0.17754383 2.3119684e-07 5.0238291e-21)
(0.17754441 4.8157137e-07 6.5327385e-21)
(0.17754604 -6.6005936e-07 -1.3699071e-20)
(0.17754827 -4.9484001e-07 4.2413291e-21)
(0.1775458 7.6865966e-07 -1.4705765e-21)
(0.17753902 1.0460095e-06 -1.5432583e-21)
(0.17753701 -1.772847e-08 -1.2727867e-20)
(0.17754392 -1.080685e-06 1.3237846e-20)
(0.17757381 2.0490102e-06 0)
(0.17773655 2.9312261e-05 0)
(0.17764125 0.00016206616 -9.3052762e-22)
(0.17290183 -0.00052390922 -9.6838657e-22)
(0.15189138 -0.0069579284 1.6931154e-20)
(0.11145672 -0.022080895 -5.3529222e-20)
(0.079636659 -0.031546615 3.8074315e-20)
(0.070171261 -0.023306016 -3.8391964e-20)
(0.0583872 -0.0073766522 7.997948e-20)
(0.037091543 0.012070576 -3.2627389e-22)
(0.03082235 0.021306744 -8.5164021e-20)
(0.050284186 0.014324864 4.6830788e-20)
(0.074600584 1.7736908e-05 4.6026467e-20)
(0.083815122 -0.0035362836 -4.785098e-20)
(0.080332457 0.0067356551 0)
(0.076623934 0.013223771 -5.1525915e-20)
(0.081948709 0.01043316 5.3724497e-20)
(0.090077677 0.0040168395 8.7311108e-22)
(0.095188356 -0.00056035165 9.1011937e-22)
(0.097389289 -0.0015869916 1.4194901e-21)
(0.098014465 -0.00074939679 -4.860147e-22)
(0.097538478 -0.00040821592 -9.98615e-22)
(0.098616431 -0.0014113414 -5.2048275e-22)
(0.099123214 -0.0045775165 0)
(0.10004405 -0.0081794756 0)
(0.10012328 -0.011115073 -7.6830946e-20)
(0.10018772 -0.013391984 1.6027658e-19)
(0.10229472 -0.014405817 -8.1773901e-20)
(0.10732908 -0.014606967 -3.3751045e-22)
(0.11473527 -0.014617044 0)
(0.12250698 -0.014605761 0)
(0.12943188 -0.01494989 -9.6811666e-20)
(0.1328839 -0.01558953 1.0048902e-19)
(0.13290108 -0.017517106 -1.0489412e-19)
(0.13026185 -0.019234398 1.0856176e-19)
(0.12666754 -0.021350234 4.4226729e-22)
(0.12380944 -0.023037657 -1.1940096e-19)
(0.12243669 -0.024662399 1.2326111e-19)
(0.12578909 -0.026189903 0)
(0.13187888 -0.026012736 1.8159724e-24)
(0.13981977 -0.025868519 -1.3693579e-19)
(0.1487902 -0.027550264 2.8625426e-19)
(0.15758933 -0.029176541 -2.9731499e-19)
(0.16198149 -0.030252101 1.5339136e-19)
(0.17754312 -1.7570728e-07 0)
(0.17755909 3.2339356e-07 2.4469899e-21)
(0.17754935 5.2566319e-07 5.0767836e-28)
(0.17754381 2.6717127e-07 -2.6483625e-21)
(0.17754451 5.1281775e-07 1.4221488e-28)
(0.1775461 -6.4382371e-07 1.4443483e-21)
(0.17754814 -5.5269748e-07 -2.9811133e-21)
(0.1775458 6.8305107e-07 7.7522163e-21)
(0.17753929 1.0626469e-06 0)
(0.17753708 8.5619159e-08 0)
(0.17754299 -1.144592e-06 -1.2212323e-20)
(0.17756496 1.4747015e-07 1.4649109e-20)
(0.17770426 2.3703983e-05 0)
(0.1778694 0.00016446814 9.8095647e-22)
(0.17463206 -9.5319499e-05 1.0205828e-21)
(0.15745067 -0.0051142871 0)
(0.11863223 -0.019727927 -1.875419e-20)
(0.082266882 -0.031661296 -1.7368062e-21)
(0.067830424 -0.023847411 2.1259029e-20)
(0.054840892 -0.0069322811 0)
(0.034069482 0.012802376 4.4250216e-20)
(0.029522153 0.020546748 -9.0538214e-20)
(0.050796426 0.011863511 4.7209444e-20)
(0.075455323 -0.0015862196 -4.9405044e-20)
(0.082251149 -0.0031982651 5.1181976e-20)
(0.077420616 0.0074274473 0)
(0.076065691 0.012499685 0)
(0.082229246 0.0081346177 0)
(0.090557879 0.0033407296 -9.2445773e-22)
(0.095420495 0.00077795559 -9.5985757e-22)
(0.097227459 0.00031648206 -6.445568e-20)
(0.097559151 0.00060864581 6.6390826e-20)
(0.098113049 -0.00014839594 5.4009197e-22)
(0.099380816 -0.001821864 0)
(0.10073295 -0.0048862793 0)
(0.10169874 -0.0078920613 6.0734407e-22)
(0.10149153 -0.010613564 0)
(0.1008711 -0.012763673 -6.5814522e-22)
(0.10159722 -0.013922678 -8.8184751e-20)
(0.10497007 -0.014331205 9.149941e-20)
(0.11122135 -0.013990238 9.3770204e-20)
(0.11877204 -0.01350268 -9.850147e-20)
(0.12646592 -0.012982287 1.0205593e-19)
(0.13157233 -0.012801918 -1.0611347e-19)
(0.13416335 -0.013646933 -1.1042055e-19)
(0.1334324 -0.014635034 -1.0937887e-21)
(0.13078072 -0.016900454 2.3114643e-19)
(0.12727471 -0.019015083 -1.2358844e-19)
(0.12423845 -0.021747362 0)
(0.12487986 -0.024003548 -1.3487915e-19)
(0.12788531 -0.024997828 2.7549607e-19)
(0.13429573 -0.025330702 -1.4389401e-19)
(0.14267978 -0.026771671 0)
(0.15239814 -0.027392772 -3.07697e-22)
(0.15986032 -0.027337537 1.6035624e-19)
(0.17754303 -1.8367406e-07 0)
(0.17755914 3.0599828e-07 0)
(0.17754942 5.260445e-07 0)
(0.17754378 2.9652989e-07 4.1874964e-21)
(0.17754458 5.1221917e-07 -7.2602077e-21)
(0.17754617 -6.1977557e-07 6.090227e-21)
(0.17754801 -6.0054448e-07 -7.8560854e-21)
(0.17754583 5.9611635e-07 -1.6343423e-21)
(0.17753951 1.0448672e-06 -1.715244e-21)
(0.17753717 1.8427195e-07 -1.5913434e-20)
(0.17754246 -1.1085215e-06 1.2873056e-20)
(0.17755797 -1.2110399e-06 0)
(0.17767178 1.753474e-05 1.6043058e-20)
(0.17796724 0.00014674672 -1.7481808e-24)
(0.17591588 0.00017371214 -3.546451e-20)
(0.16220455 -0.0035146937 1.7998773e-20)
(0.12585812 -0.017155937 -1.1952647e-21)
(0.085706281 -0.031310654 -1.2637806e-21)
(0.065841652 -0.024717945 5.5000558e-24)
(0.051282741 -0.006304082 6.9431185e-22)
(0.03135393 0.01320174 7.273677e-22)
(0.028532695 0.01988037 7.5345005e-22)
(0.051244764 0.00950728 0)
(0.07563738 -0.0028641934 0)
(0.080448319 -0.0022103869 -5.4242724e-20)
(0.075243601 0.0082932641 5.5804995e-20)
(0.075727015 0.010925552 0)
(0.082675518 0.0059090758 0)
(0.090407799 0.0027788889 0)
(0.09499403 0.0022061557 5.0635175e-22)
(0.096985137 0.0018720636 0)
(0.097626168 0.0017887089 7.0088546e-20)
(0.098645966 0.00041420659 -7.2827832e-20)
(0.099674598 -0.0021069182 5.9156973e-22)
(0.10197302 -0.004639606 -7.9390046e-20)
(0.10287249 -0.0074516969 8.1357911e-20)
(0.10284808 -0.0096604911 0)
(0.10179632 -0.011813045 8.8561985e-20)
(0.1014264 -0.013285048 -9.2294502e-20)
(0.10351247 -0.013950007 3.7556338e-22)
(0.10812593 -0.013862832 1.0021841e-19)
(0.11493537 -0.01303376 -1.0395094e-19)
(0.12275512 -0.011859317 0)
(0.12919823 -0.010631939 1.115635e-19)
(0.13389653 -0.010484937 -1.1630653e-19)
(0.1351799 -0.010736171 9.44948e-22)
(0.13417752 -0.012624402 0)
(0.13128994 -0.014900036 1.2710894e-19)
(0.12805176 -0.017752753 -1.359003e-19)
(0.12661017 -0.021321044 1.424549e-19)
(0.12677081 -0.023379553 -1.4782719e-19)
(0.13081507 -0.024706598 -1.5329239e-19)
(0.13738705 -0.026874191 3.1873977e-19)
(0.14609952 -0.027225351 -1.3214003e-21)
(0.15485073 -0.026920312 -1.7501483e-21)
(0.17754294 -1.8751056e-07 -1.3063982e-21)
(0.1775592 2.8826612e-07 -1.3592021e-21)
(0.17754947 5.3355974e-07 -2.8281855e-21)
(0.17754373 3.1637284e-07 -2.2398337e-27)
(0.17754465 5.0566746e-07 3.060684e-21)
(0.17754625 -5.8281175e-07 6.4188346e-21)
(0.17754797 -6.2174351e-07 -6.6237834e-21)
(0.17754582 5.0686184e-07 1.7224768e-21)
(0.17753967 9.8987091e-07 9.0390037e-21)
(0.17753731 2.6544381e-07 -2.0498615e-20)
(0.17754217 -1.0008009e-06 9.688998e-22)
(0.17755303 -1.984617e-06 1.6253331e-20)
(0.17764263 1.139598e-05 1.0568058e-21)
(0.17798385 0.00012162563 0)
(0.17685328 0.0003273669 1.1242911e-21)
(0.16613566 -0.0022138778 -1.1849932e-21)
(0.13294647 -0.014476716 1.2241088e-23)
(0.089906834 -0.030418718 2.6671661e-21)
(0.064317596 -0.025732061 -1.394454e-21)
(0.047689528 -0.0058089019 2.3074846e-20)
(0.028889515 0.013526775 -4.9427409e-20)
(0.027882101 0.019174917 2.5380148e-20)
(0.051703908 0.0074391233 0)
(0.075347287 -0.0037345085 -2.7126002e-20)
(0.078427875 -0.001233508 2.7093816e-20)
(0.073283312 0.0084835409 -9.0984697e-22)
(0.07579954 0.009526914 -9.4576511e-22)
(0.082930577 0.0035023754 0)
(0.089671425 0.0019690058 0)
(0.094529529 0.0029840012 -5.3303357e-22)
(0.096626476 0.0032252423 0)
(0.097780693 0.0027475306 0)
(0.099217171 0.00085906674 -7.6735379e-20)
(0.10052826 -0.001718961 -5.380509e-22)
(0.10277385 -0.0040426546 1.6672604e-19)
(0.10415634 -0.0063837233 -8.7079966e-20)
(0.10378822 -0.0087787046 0)
(0.10291361 -0.010758887 3.6571233e-22)
(0.10243106 -0.012238963 -3.803651e-22)
(0.10299584 -0.013497826 -3.9547472e-22)
(0.10586675 -0.013812837 -1.0502577e-19)
(0.11122666 -0.013066874 1.0964006e-19)
(0.11882586 -0.011386848 0)
(0.12547804 -0.0097813186 0)
(0.13156748 -0.0086136651 -4.7959736e-22)
(0.13494787 -0.0080497449 -4.9760506e-22)
(0.13624426 -0.0088048964 -1.3293599e-19)
(0.13483049 -0.010949797 1.3803738e-19)
(0.13213569 -0.013608744 1.4408501e-19)
(0.1302441 -0.017618745 -1.49359e-19)
(0.12879019 -0.020568429 -3.0375984e-22)
(0.13035392 -0.023274793 1.619785e-19)
(0.13433065 -0.02575319 -1.6838216e-19)
(0.14100034 -0.027222746 0)
(0.14930946 -0.028068695 -1.7911343e-19)
(0.17754286 -1.8511412e-07 2.0649013e-21)
(0.17755924 2.7380034e-07 -7.1609188e-22)
(0.17754952 5.4639143e-07 1.4900862e-21)
(0.17754372 3.4063829e-07 1.550086e-21)
(0.1775447 4.9646011e-07 6.4503488e-21)
(0.17754632 -5.4654434e-07 -1.1837003e-20)
(0.1775479 -6.3913747e-07 6.9797824e-21)
(0.17754584 4.5011284e-07 0)
(0.17753982 9.2218823e-07 8.5726125e-21)
(0.17753745 3.0947095e-07 -6.872822e-21)
(0.17754205 -8.4637815e-07 -2.0423652e-21)
(0.17754972 -2.2772145e-06 0)
(0.17761803 5.8984064e-06 -2.2287453e-21)
(0.17795351 9.5909615e-05 1.1610706e-21)
(0.17751129 0.00039859456 -1.1941993e-21)
(0.16930267 -0.0012143927 4.0315615e-24)
(0.13972173 -0.011838276 -2.0616471e-20)
(0.094788496 -0.029000731 4.3246681e-20)
(0.063332967 -0.026782 -2.3181178e-20)
(0.044132519 -0.00549209 0)
(0.026463991 0.01382928 -8.0889098e-22)
(0.027591764 0.018348259 0)
(0.052154479 0.005729116 -8.6203804e-22)
(0.074770053 -0.0042075745 0)
(0.076439372 -0.00019906617 -3.0220868e-24)
(0.071920591 0.0086265542 9.6205728e-22)
(0.075803269 0.0075257533 9.979774e-22)
(0.082999748 0.0018423031 3.300049e-20)
(0.088617911 0.0014411892 -2.1725297e-22)
(0.093184527 0.0028803192 -3.6098811e-20)
(0.096139698 0.0036818571 7.4775466e-20)
(0.09801282 0.0032749082 -1.5542961e-19)
(0.099599187 0.0015257971 8.1478117e-20)
(0.1015136 -0.00089107599 -6.5668572e-22)
(0.10365687 -0.003160217 -6.8303044e-22)
(0.10454432 -0.0057750025 7.112285e-22)
(0.10505329 -0.0075177518 0)
(0.10454984 -0.0094766243 3.8488336e-22)
(0.10328671 -0.011435856 4.0107376e-22)
(0.10275522 -0.013019968 0)
(0.1042674 -0.013668768 -8.6257134e-22)
(0.10838502 -0.01312126 0)
(0.11437895 -0.011693054 4.6928503e-22)
(0.12127801 -0.0095754989 -1.2402547e-19)
(0.12805412 -0.0078796447 1.3012039e-19)
(0.13309216 -0.0062846177 0)
(0.13618102 -0.0061934277 -2.7300128e-22)
(0.13713487 -0.0072134666 0)
(0.13581174 -0.0096232018 1.4887938e-19)
(0.13446226 -0.01327893 -1.5694176e-19)
(0.13223682 -0.016642969 3.2156856e-22)
(0.13258374 -0.020721531 0)
(0.13389086 -0.024209128 -1.7313748e-22)
(0.13794185 -0.026565655 0)
(0.14500778 -0.028696248 1.8349912e-22)
(0.17754279 -1.7806639e-07 -7.2516777e-22)
(0.17755929 2.6452379e-07 2.263304e-21)
(0.17754957 5.7444389e-07 -1.5699075e-21)
(0.17754372 3.57043e-07 3.2664063e-21)
(0.17754475 4.8493933e-07 -5.0969246e-21)
(0.17754635 -5.1043851e-07 1.698275e-28)
(0.17754782 -6.4942761e-07 -7.353707e-21)
(0.17754584 3.7994868e-07 7.6491652e-21)
(0.17753997 8.732888e-07 7.025002e-21)
(0.17753756 3.4092598e-07 -1.7585355e-20)
(0.17754207 -6.8563698e-07 1.0757829e-21)
(0.17754757 -2.2357948e-06 9.0433726e-21)
(0.17759819 1.4632535e-06 -1.7598737e-20)
(0.177896 7.4987912e-05 1.8312472e-20)
(0.1779461 0.00040715982 1.2581641e-21)
(0.17180318 -0.00049182375 -2.0006434e-20)
(0.14603599 -0.0093476787 2.1983542e-20)
(0.10023604 -0.027053059 0)
(0.062965222 -0.027746155 2.5913059e-20)
(0.040655026 -0.0055152647 -5.2209615e-20)
(0.024106651 0.014097375 -3.6892199e-22)
(0.027360246 0.017661706 2.7378753e-20)
(0.052616977 0.0040475168 3.0436551e-20)
(0.073982358 -0.004559712 -5.9840593e-20)
(0.074565464 0.0012510587 3.2030831e-20)
(0.070909798 0.0079466661 -5.0526254e-22)
(0.076172809 0.0057678553 5.2655251e-22)
(0.082833643 0.0011813464 3.4391211e-20)
(0.087470592 0.00071122271 -3.717177e-20)
(0.09195267 0.0026694308 5.9361142e-22)
(0.095575071 0.0039063257 0)
(0.098294233 0.0033575661 4.0949124e-20)
(0.099884447 0.0019152402 -4.5445761e-23)
(0.10215675 0.00025935683 -4.3949241e-20)
(0.10390332 -0.0021299507 1.0799232e-21)
(0.10555908 -0.0042592493 -4.7949618e-20)
(0.10646129 -0.006482225 4.9842198e-20)
(0.10574725 -0.0084892793 -4.0583532e-22)
(0.10433255 -0.010437915 4.2204358e-22)
(0.10322566 -0.012272762 0)
(0.10357723 -0.013335334 -1.1602369e-19)
(0.10606165 -0.013112427 1.2071517e-19)
(0.1106697 -0.012045048 -2.452538e-22)
(0.11699394 -0.0098246511 -1.3058136e-19)
(0.12417782 -0.0077343108 1.3650015e-19)
(0.12969811 -0.0059661446 2.7729559e-22)
(0.13500821 -0.0043706147 2.872978e-22)
(0.13766759 -0.0040162602 1.5328036e-19)
(0.13753094 -0.0064816387 -1.5920543e-19)
(0.13821586 -0.0089110295 -6.2523057e-22)
(0.1365811 -0.011998631 0)
(0.13621527 -0.016718649 0)
(0.13595147 -0.020962773 9.2484719e-25)
(0.13845671 -0.024473821 0)
(0.14336016 -0.028236699 -1.9387788e-22)
(0.17754271 -1.6524347e-07 -1.5277859e-21)
(0.17755932 2.6209496e-07 -1.5895132e-21)
(0.17754962 5.960146e-07 6.6149713e-21)
(0.17754375 3.65126e-07 -3.440836e-21)
(0.17754482 4.8440285e-07 3.5792586e-21)
(0.17754638 -4.6757699e-07 -5.6304926e-21)
(0.17754775 -6.4196217e-07 -7.7464264e-21)
(0.17754581 2.967254e-07 8.0576667e-21)
(0.17754009 8.1365545e-07 8.4575928e-21)
(0.17753765 3.7446372e-07 -1.6345161e-20)
(0.17754209 -5.4535411e-07 7.9334095e-21)
(0.17754662 -2.0525496e-06 0)
(0.17758203 -1.63811e-06 1.2335083e-21)
(0.17783722 5.6015957e-05 0)
(0.17817496 0.00037812391 0)
(0.17375468 3.9364216e-06 2.1654261e-20)
(0.15176997 -0.007091121 -2.3136941e-20)
(0.10611245 -0.024615945 -7.7272127e-22)
(0.063296839 -0.028464597 4.50248e-25)
(0.037299616 -0.0059504243 0)
(0.02178073 0.014364085 2.9542723e-20)
(0.027189996 0.016967743 -2.7950111e-20)
(0.053094845 0.0028038577 -7.1851024e-25)
(0.073143887 -0.0049137983 3.0369033e-20)
(0.072980114 0.0022753691 -6.5738025e-20)
(0.069956824 0.0075774382 3.2730631e-20)
(0.076373816 0.0040149569 -3.58291e-20)
(0.082916214 0.0007973908 7.8983559e-22)
(0.086471251 0.00046362549 3.9144445e-20)
(0.090540825 0.0021930719 3.8657666e-20)
(0.094497949 0.0034887343 -4.0990242e-20)
(0.09787337 0.0032744817 0)
(0.099964632 0.0024119791 -7.0149328e-22)
(0.10255048 0.0012194262 2.3898119e-25)
(0.10414556 -0.00090669184 -3.792989e-22)
(0.10648718 -0.0030045174 5.0893898e-20)
(0.10719212 -0.0050716879 9.0999348e-23)
(0.10676211 -0.0074150842 -5.4608745e-20)
(0.10561448 -0.0095981747 5.6147311e-20)
(0.10427045 -0.011454226 -1.1897893e-19)
(0.10364373 -0.012788245 3.7657652e-22)
(0.10472071 -0.013256304 1.2517763e-19)
(0.1078355 -0.012413311 -6.5558851e-20)
(0.1129328 -0.010665767 -2.698367e-22)
(0.11957826 -0.0082498484 -7.1406264e-20)
(0.12563471 -0.0057783479 7.4624592e-20)
(0.1321574 -0.0039738675 0)
(0.13624825 -0.0019878132 -8.0946948e-20)
(0.13850495 -0.0032149254 8.3916618e-20)
(0.14073545 -0.0045922193 6.6156529e-22)
(0.13988001 -0.0076261244 0)
(0.14047495 -0.012692053 -1.8930915e-19)
(0.139347 -0.016447857 -1.1817348e-22)
(0.14097437 -0.020946153 2.045868e-19)
(0.14348146 -0.026259924 2.0612702e-22)
(0.17754265 -1.4720501e-07 -1.6041768e-29)
(0.17755936 2.6566483e-07 -3.3483122e-21)
(0.1775497 6.0760951e-07 0)
(0.17754378 3.7323443e-07 1.8120164e-21)
(0.17754486 4.8458086e-07 2.8272504e-21)
(0.1775464 -4.2678495e-07 2.9652163e-21)
(0.17754768 -6.3388003e-07 -1.2238301e-20)
(0.17754578 2.1775701e-07 -1.0607947e-21)
(0.17754022 7.5602997e-07 -1.1134738e-21)
(0.17753771 3.9741677e-07 1.7215444e-20)
(0.1775421 -4.1672533e-07 -8.3558197e-21)
(0.17754615 -1.7885412e-06 -1.0034345e-20)
(0.17756975 -3.4690575e-06 7.7796567e-21)
(0.1777823 3.9223371e-05 0)
(0.17828561 0.0003262693 0)
(0.17526028 0.0003229764 -2.3376917e-20)
(0.15681238 -0.0051250143 -1.029027e-21)
(0.11225262 -0.021837981 2.6175673e-20)
(0.064364489 -0.028787332 -8.6243685e-22)
(0.034134796 -0.0067833402 2.9337494e-20)
(0.019372022 0.014552053 -2.9905509e-20)
(0.027105135 0.01629819 -9.7835649e-22)
(0.053560243 0.0017357274 -5.0435635e-22)
(0.072011618 -0.0046172675 -3.3585909e-20)
(0.071652152 0.0033415224 3.4714163e-20)
(0.069697116 0.0068955062 5.6238975e-22)
(0.076494433 0.0025547379 0)
(0.082546845 0.00095529277 0)
(0.085511366 0.00041862234 0)
(0.089143842 0.0018700264 1.3171549e-21)
(0.093615201 0.0027813913 -6.8359489e-22)
(0.097162863 0.0027123875 0)
(0.10005763 0.0029361993 3.6958982e-22)
(0.10224404 0.0017693209 7.6822383e-22)
(0.10482745 0.00040561442 0)
(0.10705656 -0.0014812352 5.2758949e-20)
(0.10783662 -0.0038813294 -5.4848282e-20)
(0.10792674 -0.0058761898 0)
(0.10732183 -0.008055072 4.6865875e-22)
(0.10571998 -0.010301389 4.8799734e-22)
(0.10444973 -0.012008798 0)
(0.10436241 -0.012942774 0)