/*--------------------------------*- C++ -*----------------------------------*\
| =========                 |                                                 |
| \\      /  F ield         | OpenFOAM: The Open Source CFD Toolbox           |
|  \\    /   O peration     | Version:  2406                                  |
|   \\  /    A nd           | Website:  www.openfoam.com                      |
|    \\/     M anipulation  |                                                 |
\*---------------------------------------------------------------------------*/
FoamFile
{
    version     2.0;
    format      ascii;
    arch        "LSB;label=32;scalar=64";
    class       volVectorField;
    location    "1";
    object      U;
}
// * * * * * * * * * * * * * * * * * * * * * * * * * * * * * * * * * * * * * //

dimensions      [0 1 -1 0 0 0 0];

internalField   nonuniform List<vector> 
96472
(
(0.15 -1.7287224e-11 -5.973606e-28)
(0.15 -1.7779175e-11 -9.0986664e-28)
(0.15 3.2143568e-12 -1.2986774e-28)
(0.15 -4.9775293e-12 -1.0765392e-27)
(0.15 -3.0376531e-12 1.3815853e-27)
(0.15 -5.164599e-12 9.982563e-28)
(0.15 -4.3834125e-10 -3.122148e-27)
(0.14999991 -1.4303293e-08 -2.8621779e-25)
(0.14999781 -3.2258011e-07 -1.1274409e-23)
(0.14996741 -5.0725353e-06 5.3034568e-23)
(0.14970141 -5.4352968e-05 3.8679843e-22)
(0.14827482 -0.00037790039 6.661683e-21)
(0.14318293 -0.0016310575 8.3865647e-21)
(0.13005595 -0.0050205917 7.669295e-21)
(0.10494365 -0.011930999 -2.1510533e-22)
(0.072761936 -0.021586626 2.1020951e-22)
(0.054079093 -0.027524554 7.7885754e-22)
(0.061862511 -0.021736127 -5.0478599e-20)
(0.074606822 -0.007973577 4.0957137e-20)
(0.066344389 0.0067734051 -7.5430525e-20)
(0.04251449 0.019290587 6.15208e-20)
(0.033464703 0.024195597 1.6853594e-20)
(0.049721175 0.016317515 4.3212212e-20)
(0.067223748 0.0075111462 2.376165e-20)
(0.071741197 0.0060131657 6.0257642e-23)
(0.071167716 0.0070957877 3.7888659e-21)
(0.073334841 0.0062795064 -3.1715961e-21)
(0.076386972 0.0049635139 -2.2677809e-21)
(0.07887082 0.0037703275 2.1353437e-21)
(0.079743793 0.0022561084 -1.3673448e-21)
(0.078466596 0.00010786352 1.3491848e-21)
(0.076713878 -0.0023465058 -4.7523426e-22)
(0.076623333 -0.0047285216 6.2238519e-21)
(0.078621507 -0.0070619324 -7.117685e-21)
(0.081378061 -0.0092125925 0)
(0.084210359 -0.011477861 3.1055757e-21)
(0.086817362 -0.01426085 -1.8405705e-21)
(0.08925723 -0.017126713 3.6097315e-21)
(0.09148571 -0.02004414 -6.0496967e-21)
(0.093561054 -0.022913861 -2.8127756e-21)
(0.095620158 -0.02555472 1.1117824e-21)
(0.09730002 -0.027781114 -4.0157228e-21)
(0.098367626 -0.029467669 6.0896351e-21)
(0.099111358 -0.030478451 -1.8859718e-20)
(0.10014239 -0.031571499 -1.3099218e-21)
(0.10201153 -0.033397154 1.982349e-21)
(0.10483816 -0.036580462 6.516725e-21)
(0.10849172 -0.040826499 -2.768312e-20)
(0.11231853 -0.045655694 -7.1124108e-21)
(0.1162811 -0.050208355 1.5168194e-21)
(0.11980101 -0.054400469 8.1806566e-21)
(0.12304935 -0.057940638 3.5090735e-21)
(0.12598252 -0.061476522 -3.5688099e-21)
(0.12851705 -0.064750957 -7.8602382e-22)
(0.13109606 -0.069351794 -1.2151291e-21)
(0.15 -3.9989651e-12 1.2322625e-30)
(0.15 -1.1670324e-12 4.1577938e-28)
(0.15 1.1291869e-11 0)
(0.15 2.9505094e-11 2.4278129e-28)
(0.15 1.9530629e-11 7.6501068e-28)
(0.15 7.5336071e-12 5.6601988e-30)
(0.15 -3.088043e-10 3.969594e-28)
(0.14999996 -1.082694e-08 3.5682689e-25)
(0.14999865 -2.4969268e-07 -8.2492205e-24)
(0.14997647 -4.0331024e-06 0)
(0.14976117 -4.492607e-05 -1.1322777e-22)
(0.14852526 -0.00031662625 4.9951431e-21)
(0.14396159 -0.001445894 9.5387127e-21)
(0.13183639 -0.0045628296 1.5310895e-21)
(0.10786398 -0.011096775 -2.1224807e-22)
(0.075606205 -0.020757753 6.3863399e-20)
(0.054553646 -0.027387073 8.028391e-22)
(0.059476572 -0.022256006 -1.0147356e-21)
(0.071788093 -0.0084699206 -6.9145165e-20)
(0.064888654 0.0073795191 0)
(0.042637132 0.019476157 -1.8339971e-20)
(0.034767732 0.022284434 2.0757449e-23)
(0.050688509 0.014725513 7.1538565e-21)
(0.067283924 0.0074146608 -3.1755647e-22)
(0.071368103 0.0065088915 6.279849e-21)
(0.071063053 0.0072153056 7.2145359e-22)
(0.073351908 0.0062237785 2.064549e-21)
(0.076444792 0.0048830329 -5.8879656e-21)
(0.078997014 0.0037734908 4.2960983e-21)
(0.080136115 0.0024228976 -5.1238731e-22)
(0.079141487 0.00054946773 3.2494338e-21)
(0.077315096 -0.0017655957 2.5160247e-21)
(0.07698551 -0.0042296615 -3.1472478e-21)
(0.078696311 -0.0065656458 -1.0393031e-21)
(0.081329442 -0.0087861237 -3.4336289e-21)
(0.084283538 -0.01089817 3.6618524e-21)
(0.087118531 -0.013385088 2.5129267e-21)
(0.089724005 -0.015909946 -1.7206743e-22)
(0.092109807 -0.018541612 -1.6290891e-21)
(0.094262821 -0.021242191 -3.0424175e-21)
(0.096289749 -0.023626962 7.1860235e-22)
(0.097862324 -0.02542228 6.5219821e-23)
(0.098749738 -0.026556686 -2.047452e-22)
(0.099414073 -0.027308324 -2.8100655e-21)
(0.10060068 -0.028382925 -1.5495649e-20)
(0.10290569 -0.03058846 -3.8829686e-21)
(0.10627109 -0.034191334 4.6308528e-21)
(0.11032535 -0.038579981 -5.7783961e-22)
(0.11419208 -0.043250803 5.3994532e-22)
(0.11797962 -0.047104105 2.421328e-21)
(0.12105617 -0.050797834 -4.1240422e-21)
(0.12463318 -0.053546969 1.2452365e-21)
(0.12714419 -0.057285297 1.7964062e-21)
(0.13063367 -0.059597139 9.6577186e-22)
(0.13261672 -0.064671785 2.1440078e-21)
(0.15 1.8596443e-11 -4.1936754e-31)
(0.15 2.1561817e-11 0)
(0.15 -6.7505426e-12 3.6238541e-28)
(0.15 -3.2015871e-11 0)
(0.15 -3.248131e-11 -1.2835664e-28)
(0.15 -2.3944421e-11 -6.0700056e-31)
(0.15 -1.3190277e-10 1.5450275e-29)
(0.14999999 -5.3236566e-09 1.1206014e-27)
(0.14999927 -1.4569493e-07 5.4481593e-24)
(0.149984 -2.7027957e-06 4.261797e-23)
(0.14981629 -3.4186143e-05 -6.1636054e-23)
(0.14877951 -0.00026881628 -4.6617886e-21)
(0.14477057 -0.0012972933 -7.1152469e-21)
(0.13376262 -0.0042010075 -5.3421869e-20)
(0.11119575 -0.010423929 -5.4270605e-21)
(0.079042389 -0.020042186 -3.410676e-20)
(0.055270301 -0.027507459 -3.7555662e-21)
(0.056518964 -0.022762151 -2.706067e-20)
(0.068026861 -0.0088205141 0)
(0.062882346 0.0082450828 -5.1688477e-21)
(0.042338809 0.020563455 3.8730067e-22)
(0.035022813 0.021708106 1.8943489e-22)
(0.050817246 0.013682985 6.6276211e-21)
(0.067129025 0.0069356662 -3.8845803e-21)
(0.071131832 0.0062726046 -2.6894914e-22)
(0.070970684 0.0069911877 -3.7491855e-21)
(0.073363896 0.005922047 4.0745475e-21)
(0.076499047 0.0045423434 3.4165441e-22)
(0.079245949 0.0033938542 -1.9130763e-21)
(0.080773314 0.0020920981 2.9174466e-22)
(0.080259158 0.00031137548 5.5649506e-24)
(0.078563532 -0.0018434976 4.924541e-21)
(0.077943503 -0.0041843524 -9.5588376e-23)
(0.079344131 -0.0064573226 1.3271171e-21)
(0.081715812 -0.0087683643 -2.2955056e-21)
(0.084595648 -0.01091378 3.7481467e-21)
(0.087514699 -0.01321214 5.0673957e-21)
(0.090222809 -0.015531419 2.8094421e-21)
(0.092766413 -0.017936545 1.428669e-22)
(0.094933404 -0.020408625 -1.032295e-22)
(0.096805568 -0.022506069 3.0362405e-21)
(0.098235343 -0.023882294 9.7634761e-21)
(0.099014945 -0.024601137 0)
(0.099652396 -0.025100403 4.1798819e-22)
(0.10105836 -0.026210098 2.0129414e-21)
(0.10377172 -0.028678482 -9.3201647e-21)
(0.10751862 -0.032427824 -7.9249055e-21)
(0.11177957 -0.036603245 -3.6288979e-24)
(0.11557181 -0.040719184 0)
(0.11919187 -0.043959623 2.0004058e-24)
(0.12202079 -0.047379464 1.1059767e-21)
(0.12579792 -0.049567219 -1.1306064e-21)
(0.12832183 -0.05333046 -7.1528508e-22)
(0.13220771 -0.055305916 1.8609379e-21)
(0.13446886 -0.060152672 3.4327097e-21)
(0.15 -2.1493948e-11 -1.5646876e-31)
(0.15 -2.54914e-11 -1.3599547e-30)
(0.15 6.5839849e-12 -1.0059818e-30)
(0.15 2.0254676e-11 2.2555679e-30)
(0.15 1.3237855e-11 8.7466918e-31)
(0.15 1.7275475e-11 2.4918841e-31)
(0.15 5.3978964e-12 -1.8183e-28)
(0.15 -1.962167e-09 -6.032732e-26)
(0.14999967 -7.3181402e-08 -8.2153838e-26)
(0.14998967 -1.658987e-06 3.3941476e-23)
(0.14986207 -2.4689993e-05 -1.9528085e-24)
(0.14900315 -0.0002198204 7.1026195e-24)
(0.14550679 -0.0011391622 -1.9325472e-20)
(0.13557018 -0.00381557 1.6712042e-20)
(0.11447077 -0.0096920802 -4.6591614e-21)
(0.082747942 -0.019177177 -2.2987459e-22)
(0.056513859 -0.027486375 9.7632109e-21)
(0.053837035 -0.023259755 -9.2525668e-23)
(0.064037479 -0.0092309306 7.5211478e-20)
(0.060464341 0.0088586246 0)
(0.042054308 0.021296661 7.0118945e-21)
(0.035489464 0.020853331 0)
(0.05081711 0.012448965 -2.5945733e-22)
(0.066740217 0.0063213138 1.4279405e-20)
(0.070704063 0.0060324711 -2.862856e-22)
(0.070688322 0.0068534406 -3.738603e-21)
(0.07316779 0.005796932 -2.3421305e-21)
(0.076294005 0.004505641 4.9399894e-21)
(0.079149783 0.0033668428 -3.2606453e-21)
(0.081057139 0.0021629182 -2.4486684e-22)
(0.080929086 0.00049668438 -4.1288867e-23)
(0.079410569 -0.001460904 -3.647563e-21)
(0.078629124 -0.0037358271 3.2198727e-21)
(0.079798315 -0.0058530998 5.1469253e-22)
(0.082057658 -0.0080904241 -3.4457457e-21)
(0.084865491 -0.010363077 1.9511989e-22)
(0.0878129 -0.012612411 2.3862378e-21)
(0.090585923 -0.014797006 7.7411408e-21)
(0.093228715 -0.0169956 -2.3883191e-21)
(0.09543146 -0.019240376 3.3701298e-21)
(0.097124053 -0.021065617 1.6482272e-22)
(0.098325257 -0.02208692 -2.0180442e-21)
(0.099013167 -0.022495588 -2.9299878e-21)
(0.099732381 -0.022935189 -6.2496148e-21)
(0.10144342 -0.024333569 5.6643628e-21)
(0.10455474 -0.02711851 -8.5687317e-21)
(0.10852415 -0.03095815 -9.4787683e-23)
(0.11279427 -0.034827028 6.2272589e-21)
(0.11649579 -0.038426278 8.1212694e-24)
(0.1199623 -0.04119363 -2.6827019e-22)
(0.12266357 -0.044262937 -2.5003848e-21)
(0.12634782 -0.046131975 1.7946545e-21)
(0.12905319 -0.049707518 -3.2844196e-21)
(0.13315308 -0.051621148 2.172195e-22)
(0.13592393 -0.056168682 5.1341028e-21)
(0.15 1.4841627e-11 -3.0719905e-28)
(0.15 9.7232069e-12 0)
(0.15 -1.1777928e-11 -1.087954e-28)
(0.15 -8.2757405e-12 -7.5569099e-28)
(0.15 1.4060769e-11 0)
(0.15 9.6509157e-13 9.962002e-28)
(0.15 1.8759376e-11 0)
(0.15000001 -2.5396333e-10 0)
(0.14999992 -2.8759059e-08 -1.3832404e-24)
(0.14999381 -9.203576e-07 1.9291093e-23)
(0.1498994 -1.7011779e-05 -2.089025e-23)
(0.14919837 -0.00017544261 -4.7111439e-21)
(0.14617337 -0.00098711994 6.087728e-21)
(0.13725433 -0.0034465447 4.5372615e-20)
(0.11764177 -0.0089728082 5.659092e-20)
(0.086600047 -0.018243823 3.506482e-20)
(0.05814012 -0.027265428 -2.6264249e-20)
(0.051479203 -0.023794345 6.8409705e-20)
(0.059956745 -0.0096381606 -3.810696e-20)
(0.057797646 0.0092621827 -3.7056826e-21)
(0.041874393 0.021824125 -6.0651975e-21)
(0.036290287 0.020246009 -2.6515656e-21)
(0.051007313 0.01119657 -6.2864882e-21)
(0.06634351 0.0056770734 3.6258135e-21)
(0.070274591 0.0058972814 7.8508214e-22)
(0.07048041 0.006801624 8.5703398e-22)
(0.073057043 0.0056779661 -4.0353493e-21)
(0.076181334 0.004489989 -6.80994e-22)
(0.079129699 0.0032518988 2.151283e-21)
(0.081409114 0.0020409389 0)
(0.081791685 0.00031552661 3.452322e-22)
(0.080395552 -0.0015930732 -6.3330248e-23)
(0.079356381 -0.0036927559 -1.2235201e-21)
(0.080227223 -0.0056866605 -2.0891569e-21)
(0.082347157 -0.0078135575 -3.7240291e-21)
(0.085065915 -0.01007225 2.3481692e-21)
(0.087963632 -0.012241559 -1.0700332e-21)
(0.090749965 -0.014340424 -1.0934538e-21)
(0.093508867 -0.01639622 -3.3859448e-22)
(0.095773503 -0.018268684 -5.056818e-21)
(0.097306012 -0.019727072 -5.3289368e-21)
(0.098285833 -0.020350878 -6.0338317e-21)
(0.098912762 -0.020414155 -3.1091018e-21)
(0.099808036 -0.020799379 -4.4720973e-21)
(0.10185249 -0.022443873 -1.5474077e-21)
(0.10528824 -0.02544373 -6.6085907e-21)
(0.10940279 -0.029269235 2.0299408e-21)
(0.11358165 -0.032819048 9.8347182e-21)
(0.11713571 -0.035969959 -1.7120698e-22)
(0.12045917 -0.038291074 2.3678429e-21)
(0.1231143 -0.041026021 -1.1927594e-22)
(0.12670456 -0.042797115 3.1256649e-21)
(0.12954564 -0.046296266 5.1357369e-22)
(0.13371187 -0.04815208 1.0691603e-21)
(0.13685531 -0.052438757 -6.6758512e-23)
(0.15 9.23654e-13 0)
(0.15 4.0823085e-12 -1.473316e-31)
(0.15 1.0040822e-11 7.3766841e-28)
(0.15 -9.0258361e-12 -1.5023877e-31)
(0.15 -3.0233007e-11 -1.069886e-31)
(0.15 -1.8854304e-11 -1.0391609e-27)
(0.15 1.0049538e-11 0)
(0.15000001 4.7125813e-10 2.9401516e-26)
(0.15000005 -3.8512851e-09 3.6585864e-25)
(0.1499967 -4.2614068e-07 1.8333807e-25)
(0.14992919 -1.0992472e-05 5.6877143e-23)
(0.14936626 -0.00013595347 -2.8952471e-21)
(0.14677316 -0.00084047381 1.0072837e-20)
(0.13881676 -0.0030923571 -3.0189311e-20)
(0.12069297 -0.0082676397 3.0519874e-22)
(0.090562865 -0.017255417 -1.0053067e-19)
(0.06014023 -0.026831581 -1.4160995e-20)
(0.049451138 -0.024365302 -2.1323565e-20)
(0.055761243 -0.010033188 -2.6863001e-22)
(0.054801835 0.0095024897 -1.8369429e-21)
(0.041629035 0.022270022 2.5165648e-22)
(0.037330163 0.019694164 -2.5156305e-21)
(0.051337515 0.0099245321 8.8371451e-21)
(0.065877133 0.0051043948 -3.1492773e-22)
(0.069767636 0.0057769383 -4.4710773e-22)
(0.070287347 0.006669177 1.002991e-21)
(0.072968326 0.005474355 6.3630504e-21)
(0.076079806 0.0044529161 -3.1482032e-21)
(0.079092994 0.0032189455 2.5413268e-21)
(0.081654135 0.002082533 3.5008649e-23)
(0.082505367 0.00049388646 -1.3202411e-21)
(0.081385087 -0.0014068872 6.6360455e-23)
(0.080157922 -0.003422518 -2.4108576e-23)
(0.080710152 -0.0052815796 -5.161224e-22)
(0.082723392 -0.0072171867 -3.7128656e-21)
(0.085374015 -0.0094266001 8.2521018e-22)
(0.088229238 -0.011517632 3.7804392e-21)
(0.090989951 -0.013726224 -3.9575463e-21)
(0.093679652 -0.01566426 4.1278983e-21)
(0.095934279 -0.017345259 -3.4644754e-21)
(0.097336602 -0.018462965 1.5533634e-21)
(0.098040661 -0.018720434 0)
(0.098604894 -0.018504027 3.9297522e-21)
(0.099762113 -0.018866332 2.7996898e-23)
(0.10218436 -0.020719394 -2.6442554e-21)
(0.10588994 -0.023831485 3.0363818e-21)
(0.11002163 -0.027463303 -3.3109569e-21)
(0.11400668 -0.030593018 -3.2980488e-21)
(0.11737415 -0.033272919 -1.1730658e-21)
(0.12059144 -0.035252351 0)
(0.12335028 -0.03780486 -5.3107125e-21)
(0.12694876 -0.039575781 -1.7516651e-21)
(0.12981118 -0.042986674 -4.8860301e-22)
(0.13393338 -0.044821319 5.8574459e-22)
(0.13723786 -0.048792454 1.1960438e-20)
(0.15 -1.4330939e-11 0)
(0.15 -1.4765539e-11 5.2836199e-28)
(0.15 3.7096097e-12 -4.6347883e-30)
(0.15 2.786275e-11 -6.1996988e-31)
(0.15 3.9740272e-11 -2.0994349e-30)
(0.15 2.608321e-11 7.628139e-31)
(0.15 3.6293365e-11 -9.3944073e-30)
(0.15000001 6.3566578e-10 4.3515815e-27)
(0.15000011 7.6476472e-09 1.9147775e-26)
(0.14999863 -1.1723131e-07 1.1016991e-24)
(0.14995239 -6.4692762e-06 1.0109873e-23)
(0.1495089 -0.00010168066 3.402751e-21)
(0.14730939 -0.00070479357 -4.9213815e-21)
(0.1402589 -0.0027535085 -3.9958796e-20)
(0.12361008 -0.0075776029 -1.1431188e-22)
(0.094596698 -0.016229512 -3.7962764e-20)
(0.062530191 -0.026179022 4.7206192e-20)
(0.047798375 -0.024968371 -3.4410715e-20)
(0.051487479 -0.010417993 3.2467703e-22)
(0.05147907 0.0095730735 -6.3133536e-20)
(0.04126528 0.022577544 1.7293669e-23)
(0.038558094 0.019090418 1.9430275e-20)
(0.051735082 0.0088945152 -6.1955549e-21)
(0.065339327 0.0045720395 1.0328395e-20)
(0.069226216 0.0054770385 1.0095543e-21)
(0.070069374 0.0064076156 -5.5139095e-21)
(0.072833424 0.0053673582 -5.3170513e-22)
(0.075934418 0.0044284252 1.287066e-22)
(0.079007764 0.0032386758 -7.7283562e-22)
(0.081819461 0.0020834779 3.4203982e-22)
(0.0832233 0.00061212742 1.165898e-21)
(0.082474692 -0.001413327 -4.3436403e-21)
(0.081058548 -0.0034560572 4.0230808e-23)
(0.081191235 -0.005214819 2.9905398e-23)
(0.083046677 -0.0069964246 -5.7551044e-22)
(0.085641984 -0.0089580976 -3.5106032e-21)
(0.088514159 -0.010900716 -6.3571312e-22)
(0.091251831 -0.013005124 -1.0234004e-21)
(0.093875666 -0.014904113 2.9351899e-21)
(0.096078159 -0.016398691 9.9040303e-24)
(0.097295451 -0.017170929 -5.0638613e-21)
(0.097783677 -0.017153738 3.0805096e-21)
(0.098298533 -0.016771473 -2.6666788e-21)
(0.099763706 -0.017200482 5.6598727e-21)
(0.10258916 -0.01919945 -4.6834978e-21)
(0.10647226 -0.02230162 -6.3740432e-21)
(0.110545 -0.025657952 2.9551352e-21)
(0.11430032 -0.028355179 4.6812539e-21)
(0.11747902 -0.030643022 -1.8845314e-21)
(0.12064651 -0.03243176 -9.4934045e-22)
(0.12354242 -0.034823368 5.5127471e-21)
(0.12715704 -0.036564537 -6.2128068e-21)
(0.13010208 -0.039893316 -9.5784353e-21)
(0.134101 -0.041701683 -1.1792376e-20)
(0.13735165 -0.045350945 -2.5760031e-22)
(0.15 1.0206795e-11 1.8773529e-30)
(0.15 1.1542874e-11 -2.9288475e-28)
(0.15 -1.8271482e-11 -7.3187852e-28)
(0.15 -3.7910533e-11 -9.0490734e-28)
(0.15 -2.9787672e-11 -8.0878785e-28)
(0.15 -1.4448222e-11 -2.5839987e-28)
(0.15 -8.1302347e-12 1.3515085e-27)
(0.15000001 4.973093e-10 -3.4801197e-26)
(0.15000012 1.0755223e-08 3.5146657e-26)
(0.14999982 5.7215675e-08 -2.4431246e-24)
(0.14996992 -3.2408828e-06 9.5319229e-23)
(0.14962834 -7.2683044e-05 1.8184261e-21)
(0.14778501 -0.00058011709 -7.6614231e-21)
(0.14158233 -0.0024287027 -2.0696353e-21)
(0.1263813 -0.0069011463 -3.4148046e-21)
(0.098657062 -0.015175685 6.1745609e-21)
(0.065311046 -0.025307427 0)
(0.046567765 -0.025578955 1.3482468e-20)
(0.047198897 -0.010797277 -7.5187508e-20)
(0.04785475 0.0095467098 -1.1455687e-21)
(0.040728568 0.022677616 -2.3216489e-23)
(0.039891117 0.01854999 -2.9889122e-21)
(0.052246196 0.0081374919 -5.3350768e-21)
(0.064809115 0.0038341279 -2.2109133e-20)
(0.068655483 0.0050981669 6.8390177e-22)
(0.069770315 0.006194068 3.227644e-21)
(0.07264001 0.0053558068 -5.7024958e-21)
(0.075766084 0.0043193907 -1.4940535e-21)
(0.078887452 0.0032439733 -3.1027605e-21)
(0.081851305 0.0020905619 -8.6314221e-22)
(0.083712891 0.0008511253 -6.5637811e-24)
(0.08346685 -0.0010973348 6.5356987e-22)
(0.082038868 -0.0032567577 -3.5902263e-21)
(0.08175799 -0.005029303 -1.6694551e-23)
(0.083332471 -0.0067364031 7.8805159e-22)
(0.085828764 -0.0085105926 -9.5461045e-23)
(0.088727669 -0.010249706 2.2516594e-21)
(0.091515984 -0.012283933 -2.1470525e-21)
(0.09403611 -0.014068973 1.1345898e-21)
(0.096091197 -0.01531224 2.3665838e-24)
(0.097182034 -0.015827919 3.4612542e-21)
(0.097439587 -0.015542047 3.2044529e-21)
(0.097918738 -0.015109026 -1.2493519e-20)
(0.099681978 -0.015684185 3.7317389e-21)
(0.10288847 -0.017806946 3.4183395e-21)
(0.10694603 -0.020869534 6.6217304e-21)
(0.11090953 -0.023909934 -3.1580887e-21)
(0.11442893 -0.02621492 -3.7555188e-21)
(0.11747814 -0.028204249 6.6540958e-21)
(0.1206012 -0.029817042 -3.0013401e-22)
(0.12364009 -0.032083559 -1.426866e-21)
(0.12735247 -0.033834859 4.4092375e-21)
(0.13040135 -0.037030958 -6.9373476e-22)
(0.13427873 -0.038766102 -3.3520486e-21)
(0.13743591 -0.042153028 -1.0952569e-21)
(0.15 -8.1485091e-13 -2.0934128e-30)
(0.15 -8.6094809e-12 1.0566116e-28)
(0.15 1.7420503e-11 -7.3170096e-29)
(0.15 2.1901736e-11 2.7026931e-28)
(0.15 -8.3995912e-13 -3.6854038e-30)
(0.15 -1.408997e-11 6.7780668e-30)
(0.15 -2.8347157e-11 -3.3619433e-30)
(0.15 2.2438619e-10 4.523187e-27)
(0.15000011 1.0041498e-08 -4.4174059e-25)
(0.15000048 1.3685862e-07 -1.3912193e-25)
(0.1499827 -1.0770635e-06 1.5696115e-22)
(0.14972666 -4.8974865e-05 1.6814502e-22)
(0.14820305 -0.00046708818 4.3242126e-22)
(0.14278914 -0.002118415 3.1635596e-20)
(0.12899729 -0.0062410781 4.7483268e-20)
(0.10269982 -0.014104107 0)
(0.068476547 -0.024239221 0)
(0.045797356 -0.026159264 0)
(0.04293149 -0.011132125 3.611508e-20)
(0.043976645 0.0095208259 6.7125712e-20)
(0.039982865 0.022563308 1.4231078e-20)
(0.041249759 0.018105389 -2.2789465e-20)
(0.052921471 0.0074979293 1.1107485e-20)
(0.064297307 0.0029827551 -2.4468702e-22)
(0.067976628 0.0049118229 -1.1442065e-20)
(0.069445796 0.0059345739 3.9275597e-21)
(0.07247125 0.0051738604 1.4443489e-20)
(0.075580821 0.0041652867 7.4333354e-22)
(0.078707181 0.0032571547 -2.8230513e-21)
(0.081799463 0.0021550684 -3.7056479e-21)
(0.084109343 0.0010130405 -1.1523424e-21)
(0.084439381 -0.0008367531 6.0727179e-21)
(0.083051981 -0.0030460284 -7.9995575e-21)
(0.082396812 -0.0049457228 1.125894e-21)
(0.083618956 -0.0066037039 1.6898857e-21)
(0.085904328 -0.0082331662 1.3881993e-21)
(0.088838521 -0.0098168006 -3.1160399e-21)
(0.091698103 -0.011628565 1.2419218e-21)
(0.094108571 -0.013158339 -5.5822397e-21)
(0.096050585 -0.014168598 6.2427579e-21)
(0.09698248 -0.014350988 4.6338434e-21)
(0.097095326 -0.013854398 -9.2805591e-21)
(0.097588773 -0.013497764 1.1839618e-22)
(0.099601492 -0.014286904 -1.0791695e-21)
(0.10314596 -0.016541883 -7.5186244e-22)
(0.10729438 -0.019457495 -3.181987e-21)
(0.11112685 -0.022158725 4.1840823e-21)
(0.11445634 -0.024164472 -1.3839647e-22)
(0.11737814 -0.025903586 -1.5226918e-21)
(0.12050365 -0.02744718 2.8419722e-21)
(0.12369398 -0.029638452 1.8627383e-21)
(0.12746988 -0.031335109 1.022963e-20)
(0.13066878 -0.03434799 -4.4737479e-22)
(0.13446293 -0.035921964 -9.4698124e-21)
(0.1375074 -0.039033777 3.8624594e-21)
(0.15 -1.5238362e-13 -7.3432588e-28)
(0.15 1.50803e-11 -4.6909616e-28)
(0.15 -7.6383795e-12 6.6141292e-28)
(0.15 -3.6906633e-12 -9.3636014e-28)
(0.15 2.3969464e-11 -3.6596088e-28)
(0.15 3.0270837e-11 3.0014023e-28)
(0.15 6.0917758e-12 2.6060324e-32)
(0.15 -4.8769443e-11 -1.2254834e-26)
(0.15000008 7.7138452e-09 4.1751409e-25)
(0.15000076 1.5432479e-07 3.6083649e-26)
(0.14999161 2.5255234e-07 -3.0610954e-23)
(0.149806 -3.0331534e-05 6.4650377e-22)
(0.14856654 -0.00036657962 9.3717963e-21)
(0.14388225 -0.0018217503 7.0376392e-21)
(0.1314511 -0.0056019362 6.8957285e-20)
(0.10668307 -0.013025462 4.8277048e-20)
(0.07200859 -0.023023356 3.5214865e-20)
(0.045491314 -0.026534416 -5.0237746e-21)
(0.038760862 -0.011554381 -3.5151303e-20)
(0.039885957 0.0093243313 6.9571077e-20)
(0.038990175 0.022278098 0)
(0.04258406 0.017745546 3.5171824e-21)
(0.053764084 0.0069656875 7.8858828e-21)
(0.063797771 0.0022836294 8.9347166e-21)
(0.067225516 0.0046959617 -9.4121425e-23)
(0.069122783 0.0054999156 -2.677253e-21)
(0.072290965 0.0048919392 9.8273754e-22)
(0.075354036 0.0041712321 2.2223348e-21)
(0.078472139 0.0032583242 2.8528733e-21)
(0.081659274 0.0022013356 2.4794514e-21)
(0.084329516 0.0011787226 7.4822144e-23)
(0.085284602 -0.00042416245 6.0934507e-21)
(0.084133916 -0.0025854444 -1.2329095e-21)
(0.083148682 -0.0047326067 4.6144001e-21)
(0.083960682 -0.0063752409 -1.4636726e-21)
(0.086001796 -0.0080200845 6.9966742e-21)
(0.088834551 -0.0095317774 4.2189448e-21)
(0.091715757 -0.010914281 1.1523947e-21)
(0.094070401 -0.012300817 -3.870455e-21)
(0.095864613 -0.013028375 4.8099942e-22)
(0.096688469 -0.012822769 -2.9434098e-21)
(0.096749929 -0.012171591 2.8282645e-22)
(0.097315142 -0.011919819 4.924461e-21)
(0.099532781 -0.01293754 1.6714056e-21)
(0.10328327 -0.015220856 3.3326694e-21)
(0.1074826 -0.017934963 -4.0285025e-21)
(0.11121507 -0.020380999 -2.0902789e-21)
(0.11436689 -0.022128268 1.2185981e-21)
(0.11723955 -0.023766638 -1.3489973e-21)
(0.1203671 -0.025258101 -5.8968662e-21)
(0.12360555 -0.027342397 2.1688804e-21)
(0.12743271 -0.029022922 6.6004392e-21)
(0.13071634 -0.03175351 1.7631632e-21)
(0.13447521 -0.033145801 -6.5771696e-21)
(0.13748404 -0.035838278 2.7370187e-21)
(0.15 -1.5412954e-12 1.0499663e-31)
(0.15 -1.8884044e-11 -9.440594e-28)
(0.15 -5.260059e-12 -1.0346205e-27)
(0.15 -7.0460191e-12 -9.5210579e-28)
(0.15 -1.654938e-11 -4.8766568e-31)
(0.15 -6.6382591e-12 2.7769869e-30)
(0.15 -4.3066322e-12 -1.3158324e-28)
(0.15 -1.8386084e-10 -3.222687e-27)
(0.15000005 4.5064915e-09 6.2288399e-25)
(0.15000081 1.3418202e-07 1.6115953e-24)
(0.14999746 9.6892696e-07 -3.4090198e-23)
(0.14986858 -1.6354515e-05 3.5663547e-22)
(0.14887842 -0.00027807274 2.9655221e-21)
(0.14486516 -0.0015414112 -1.339009e-21)
(0.1337387 -0.0049882548 -8.1811042e-20)
(0.11057169 -0.011949619 5.9700595e-21)
(0.075867043 -0.021712172 8.0122482e-23)
(0.045667538 -0.026588836 1.4863866e-21)
(0.0347999 -0.012122784 -3.161517e-20)
(0.035626822 0.0089254631 4.0622941e-22)
(0.037683745 0.021822496 2.1901449e-20)
(0.043820326 0.017430801 3.8834328e-21)
(0.054748827 0.0064567979 -1.373829e-20)
(0.06336517 0.0017689599 -2.0724446e-21)
(0.066460077 0.0042559998 1.1526436e-20)
(0.068756666 0.0050561298 0)
(0.072012237 0.0047577181 -4.0367787e-21)
(0.075144668 0.0041381947 1.890487e-21)
(0.07827684 0.003101818 -1.5254845e-21)
(0.08144205 0.0022351711 8.5085644e-24)
(0.084389567 0.0013144363 1.3353311e-21)
(0.08597391 -0.00010326782 -4.0479016e-21)
(0.085256131 -0.0021149198 8.2975372e-21)
(0.084012621 -0.004464101 -1.282858e-20)
(0.084385609 -0.0060958726 -6.9214935e-22)
(0.086135491 -0.0078346124 2.5466007e-24)
(0.088717907 -0.0091912388 2.6910411e-21)
(0.091627357 -0.01035433 4.081827e-21)
(0.093994803 -0.011523225 -2.1520711e-21)
(0.095538304 -0.011978031 7.6761038e-22)
(0.09625446 -0.011464719 -6.2332574e-21)
(0.096375428 -0.010650284 9.7326871e-21)
(0.097101034 -0.010413192 0)
(0.099470993 -0.011604736 1.198121e-21)
(0.10334026 -0.013911191 7.0360393e-21)
(0.10755605 -0.016465559 1.0739149e-21)
(0.11118537 -0.018588059 -3.8343147e-21)
(0.11424189 -0.020127531 1.3521537e-21)
(0.11703881 -0.021619307 1.5501656e-21)
(0.12014003 -0.023075246 -7.3603365e-21)
(0.12346571 -0.025161262 -4.1214813e-21)
(0.12723936 -0.026776513 6.0413746e-21)
(0.13057088 -0.029227678 0)
(0.13420763 -0.030330616 6.7186373e-21)
(0.13721403 -0.03269142 -7.8250574e-21)
(0.15 7.2024497e-12 -3.9803202e-28)
(0.15 1.6717061e-12 4.3658124e-31)
(0.15 7.9355177e-12 -1.119576e-27)
(0.15 8.3844586e-12 -2.2971521e-28)
(0.15 1.7046205e-12 2.2701214e-28)
(0.15 -1.8275928e-11 -1.6375947e-27)
(0.15 -4.4455963e-11 6.4673156e-29)
(0.15 -2.8442921e-10 -3.1834377e-27)
(0.15000003 1.1323184e-09 -1.7393244e-26)
(0.15000071 9.7843434e-08 3.657543e-24)
(0.15000098 1.249323e-06 1.0783571e-24)
(0.14991644 -6.4517455e-06 1.2790073e-24)
(0.1491423 -0.0002014537 -1.9879922e-21)
(0.14574235 -0.0012814169 -7.2867984e-21)
(0.13585717 -0.0044033565 -9.298173e-20)
(0.11433606 -0.01088441 -3.3737716e-20)
(0.079991164 -0.020336379 -4.2916908e-20)
(0.0463683 -0.026266488 -1.1313297e-20)
(0.031092044 -0.012813139 1.299539e-21)
(0.031264272 0.008434733 -7.3337696e-20)
(0.036075162 0.021287906 2.2117348e-22)
(0.044911768 0.017171468 1.9842818e-20)
(0.055835648 0.0058382509 -3.7054384e-23)
(0.063026496 0.0013353774 -9.3295121e-21)
(0.065665115 0.0037019371 0)
(0.068286177 0.0047525306 8.5220923e-22)
(0.071696019 0.0046010243 -7.7778121e-23)
(0.074967474 0.0038928571 9.177104e-22)
(0.078068501 0.0029676853 1.2165301e-22)
(0.08116802 0.002346673 -1.9667413e-21)
(0.084314727 0.0014202919 -1.5010326e-21)
(0.086446699 0.00026385182 -1.3814823e-21)
(0.086350721 -0.0016125683 1.7037845e-21)
(0.0850098 -0.0040327045 -1.2583419e-20)
(0.084912911 -0.0058254393 1.338964e-21)
(0.086321029 -0.0074517995 6.23394e-22)
(0.088584895 -0.0088607227 -4.6335945e-21)
(0.091434401 -0.0098701009 -3.0055396e-21)
(0.093775281 -0.010757939 4.1404676e-21)
(0.095150572 -0.010982909 4.4277457e-22)
(0.09569495 -0.010317681 3.0876636e-21)
(0.095883863 -0.0092616205 2.4168091e-21)
(0.096843918 -0.0090632745 -9.730568e-25)
(0.099434389 -0.010387911 -8.1091654e-22)
(0.10335243 -0.012712805 -9.1345858e-22)
(0.10747108 -0.015012783 1.1899731e-21)
(0.11099827 -0.016822414 3.6403251e-21)
(0.11396816 -0.018076825 0)
(0.11680244 -0.01947938 -7.9028592e-22)
(0.1199685 -0.021031245 1.3242006e-24)
(0.12325371 -0.023032425 7.5829245e-22)
(0.12690646 -0.024533236 -9.1027166e-22)
(0.13015983 -0.026696648 -4.1971422e-21)
(0.13370411 -0.02753728 5.7352181e-21)
(0.1367684 -0.029770048 2.8962196e-21)
(0.15 -1.0451115e-11 1.1597183e-30)
(0.15 1.2112596e-11 2.6944849e-28)
(0.15 -1.2697726e-11 -2.2061047e-30)
(0.15 -5.960274e-12 -1.1212484e-30)
(0.15 9.0512285e-12 5.5993941e-29)
(0.15 2.5902527e-11 5.20743e-28)
(0.15 2.4253554e-11 4.5820465e-29)
(0.15 -2.6481233e-10 -6.0407634e-27)
(0.15000001 -1.3859105e-09 -1.3091954e-25)
(0.15000055 6.498251e-08 -1.3005923e-24)
(0.15000281 1.2352715e-06 3.0215415e-24)
(0.14995174 3.5919039e-08 -1.4262059e-22)
(0.14936193 -0.00013753269 2.0408479e-21)
(0.14651846 -0.0010422759 1.0128382e-21)
(0.1378055 -0.0038474641 -3.0160083e-22)
(0.11795101 -0.009834448 -5.4932084e-21)
(0.084313542 -0.01891231 0)
(0.047620616 -0.025552711 -1.8987699e-20)
(0.027713402 -0.013610271 9.3312024e-20)
(0.026776509 0.0078875069 7.5210452e-20)
(0.034179248 0.020683136 -2.4600227e-20)
(0.045869024 0.016927375 4.5994029e-21)
(0.057022731 0.005245679 3.8857347e-23)
(0.062776663 0.00091350427 -1.3939178e-21)
(0.064833483 0.0032690768 -9.4416233e-22)
(0.067727614 0.004466189 0)
(0.071375816 0.004200799 5.7648972e-21)
(0.074752158 0.0036787371 7.6510654e-22)
(0.077808807 0.0029912964 4.1499158e-21)
(0.080898262 0.0023172533 3.6941477e-21)
(0.084160742 0.0014189105 -3.3526827e-21)
(0.086726543 0.00055794246 -3.1053216e-23)
(0.087325488 -0.0011486138 4.2858301e-21)
(0.086107784 -0.0035059867 2.0951632e-23)
(0.085543956 -0.0055158836 3.781066e-22)
(0.086597308 -0.0069922056 2.5905821e-22)
(0.088523112 -0.0085059876 4.8474351e-21)
(0.091141315 -0.0093483995 -1.7887525e-22)
(0.093480261 -0.0099929973 1.6779176e-21)
(0.094710661 -0.01013929 0)
(0.095050349 -0.0093221174 6.3210032e-21)
(0.095281398 -0.0081598338 -5.6508918e-21)
(0.096548166 -0.0079602615 7.4370993e-22)
(0.099373862 -0.0093103229 1.0146942e-21)
(0.10327085 -0.011527237 -3.0165885e-21)
(0.10724715 -0.013640373 -4.8098911e-21)
(0.11062587 -0.015119117 -3.1652823e-21)
(0.11360305 -0.016175493 1.6231124e-21)
(0.1165736 -0.017582289 8.347958e-22)
(0.11974663 -0.019012729 2.1820584e-21)
(0.12297822 -0.020860882 -6.1621123e-22)
(0.12647361 -0.022344659 -5.2565331e-21)
(0.12961225 -0.024265303 -9.8741679e-22)
(0.13309711 -0.025107285 -4.1014035e-21)
(0.13608883 -0.026861416 4.0111255e-21)
(0.15 6.828938e-12 -1.9895967e-29)
(0.15 -5.8420173e-12 -9.0169801e-31)
(0.15 1.4123462e-11 -1.1782682e-27)
(0.15 -1.0291779e-11 -1.3997925e-27)
(0.15 -1.7843079e-11 5.1928565e-28)
(0.15 -2.7168079e-11 8.6908159e-29)
(0.15 -1.7203714e-11 1.5091928e-27)
(0.15 -1.7910576e-10 0)
(0.15 -2.72293e-09 -3.3434093e-26)
(0.15000038 3.4833657e-08 -2.2810514e-24)
(0.15000343 1.0464622e-06 3.2893417e-26)
(0.14997663 3.8373611e-06 -2.0024029e-22)
(0.14954109 -8.6258194e-05 1.3630902e-23)
(0.1471982 -0.00082591807 8.6373968e-22)
(0.13958376 -0.0033215777 4.8286802e-20)
(0.12139475 -0.0088081197 3.0365601e-20)
(0.088760354 -0.017452694 0)
(0.049447968 -0.024454729 -3.4025357e-20)