/*--------------------------------*- C++ -*----------------------------------*\
| =========                 |                                                 |
| \\      /  F ield         | OpenFOAM: The Open Source CFD Toolbox           |
|  \\    /   O peration     | Version:  2406                                  |
|   \\  /    A nd           | Website:  www.openfoam.com                      |
|    \\/     M anipulation  |                                                 |
\*---------------------------------------------------------------------------*/
FoamFile
{
    version     2.0;
    format      ascii;
    arch        "LSB;label=32;scalar=64";
    class       volVectorField;
    location    "1";
    object      U_0;
}
// * * * * * * * * * * * * * * * * * * * * * * * * * * * * * * * * * * * * * //

dimensions      [0 1 -1 0 0 0 0];

internalField   nonuniform List<vector> 
62344
(
(0.17754406 -1.5396812e-07 -3.2346579e-21)
(0.17755835 -5.4940411e-08 -1.6824985e-21)
(0.17754859 -2.629518e-07 -3.5007471e-21)
(0.17754391 -9.5622176e-07 1.8264748e-21)
(0.17754397 -1.4833076e-06 0)
(0.17754674 -2.6470077e-06 7.9116239e-21)
(0.17754923 -2.6778892e-06 -8.1986082e-21)
(0.17754376 -2.1140046e-06 4.2639682e-21)
(0.17753664 -2.4442739e-06 0)
(0.17753995 -3.9205457e-06 0)
(0.17755901 -5.5555149e-06 1.9371132e-20)
(0.17758002 -7.0436384e-06 -4.1168892e-20)
(0.1770266 7.6964052e-06 1.2481037e-21)
(0.17225595 -0.00031979793 4.5078139e-20)
(0.15311914 -0.0027714759 -2.264223e-20)
(0.11490968 -0.0094532924 2.3110067e-20)
(0.080654346 -0.018025678 -2.4635172e-20)
(0.077021842 -0.021791282 0)
(0.088312916 -0.019856526 0)
(0.084615417 -0.010986603 -1.7705252e-21)
(0.066493331 0.006553392 -9.2720832e-22)
(0.049207519 0.029658891 9.674464e-22)
(0.04323805 0.040899883 2.0156827e-21)
(0.055707545 0.027587479 -6.5308522e-20)
(0.080608468 0.0045242579 7.0945537e-20)
(0.09599594 -0.010168047 0)
(0.094004254 -0.0054876583 0)
(0.084906773 0.0077849863 -6.074612e-22)
(0.078774552 0.017141215 -8.1393428e-20)
(0.080748779 0.016156572 8.4608733e-20)
(0.08896585 0.0061194075 8.7169717e-20)
(0.097103115 -0.0070913907 -9.180772e-20)
(0.099855275 -0.015342683 -7.403055e-22)
(0.096164896 -0.015102196 9.7568506e-20)
(0.090754364 -0.011633416 -9.9964074e-20)
(0.087901274 -0.0082507088 -8.3717737e-22)
(0.090537673 -0.0087972565 -1.1005857e-19)
(0.097623056 -0.013137345 2.2649452e-19)
(0.10733226 -0.019959216 -2.3895415e-19)
(0.11608486 -0.027606071 1.1264889e-21)
(0.12072079 -0.034019973 -1.3171102e-22)
(0.12121081 -0.038863976 2.6492731e-19)
(0.11889486 -0.042058436 -1.3771552e-19)
(0.11665582 -0.044160458 0)
(0.11664036 -0.046533983 -1.4953662e-19)
(0.12057315 -0.049158102 3.0932013e-19)
(0.12680508 -0.052735681 -9.3739348e-22)
(0.13393304 -0.056187787 -3.337071e-19)
(0.13906 -0.059574846 1.7353266e-19)
(0.14180421 -0.062815012 0)
(0.14102426 -0.065661245 0)
(0.14084261 -0.067034986 1.9696141e-19)
(0.13903258 -0.070923234 -2.0611697e-19)
(0.14170771 -0.073054742 -4.2030536e-22)
(0.14402201 -0.076619582 -2.2128521e-19)
(0.17754386 2.4104064e-07 -1.7073187e-21)
(0.17755846 6.4313911e-07 1.7762392e-21)
(0.17754869 3.2004233e-07 5.5436989e-21)
(0.17754386 3.8160942e-07 -5.7667957e-21)
(0.17754398 3.6869569e-07 0)
(0.17754657 -1.384717e-07 8.3377066e-21)
(0.17754907 6.5250232e-07 -1.0819164e-20)
(0.17754396 1.6358017e-06 -1.1253537e-20)
(0.17753681 1.328368e-06 1.1705153e-20)
(0.17753921 6.1266169e-07 0)
(0.17755629 1.5173933e-06 0)
(0.17760427 3.3735467e-06 1.3170216e-21)
(0.17741822 -3.5193796e-05 -1.3586611e-21)
(0.17434815 -0.00074270247 2.0196485e-20)
(0.15933196 -0.0051539574 -2.3925808e-20)
(0.1240152 -0.016582819 0)
(0.086355937 -0.029905161 0)
(0.076255892 -0.032845447 0)
(0.085036949 -0.02739884 2.8550067e-20)
(0.081379932 -0.017468965 1.5296219e-21)
(0.062711361 -0.0015614018 9.1367886e-22)
(0.045236062 0.017164952 -9.994844e-20)
(0.042539387 0.025465887 6.6726768e-20)
(0.058417108 0.014335745 0)
(0.081814519 -0.0022945274 7.2612321e-20)
(0.0935377 -0.0064008949 -1.9177148e-22)
(0.090415238 0.0013646653 -1.5723485e-19)
(0.08196627 0.011081712 8.2730012e-20)
(0.078018197 0.014206435 -6.6532578e-22)
(0.082484602 0.0093563432 -8.8420947e-20)
(0.091802379 3.4566783e-05 9.3090372e-20)
(0.099370232 -0.0079110313 7.5179456e-22)
(0.10116041 -0.010796695 -9.822384e-20)
(0.096726412 -0.0091724761 2.0532871e-19)
(0.090778963 -0.007663981 -1.0809782e-19)
(0.087921045 -0.007659919 8.8302844e-22)
(0.090015445 -0.010680583 0)
(0.096774833 -0.01454267 0)
(0.10684539 -0.019381866 4.9495884e-22)
(0.11646745 -0.023812907 1.3022489e-19)
(0.12303558 -0.027727091 -2.7170315e-19)
(0.12542641 -0.031148783 1.4210107e-19)
(0.12348657 -0.034809931 1.4659147e-19)
(0.12062323 -0.037410451 -3.0460313e-19)
(0.11770865 -0.040463102 1.586732e-19)
(0.1195825 -0.042104999 0)
(0.12394894 -0.045146239 0)
(0.13157956 -0.046668794 0)
(0.13813334 -0.049441391 3.6254504e-22)
(0.14398333 -0.051780901 -3.7637635e-22)
(0.14535296 -0.055261892 0)
(0.14575388 -0.056955435 6.7163492e-25)
(0.14283377 -0.061444935 -4.2579137e-22)
(0.14322085 -0.062499918 6.6779785e-22)
(0.14306734 -0.066145341 -2.1946961e-22)
(0.1775437 1.8938718e-07 1.8018887e-21)
(0.17755856 5.3631001e-07 -1.8747444e-21)
(0.17754882 3.1580733e-07 -1.9503796e-21)
(0.17754389 2.8238824e-07 2.0288723e-21)
(0.17754403 1.3157657e-07 -2.1008687e-21)
(0.1775465 -6.8952687e-07 2.2020237e-21)
(0.1775489 -2.7399592e-08 4.5677024e-21)
(0.17754418 1.0232561e-06 0)
(0.17753712 6.4716692e-07 7.4125966e-21)
(0.17753866 -3.7979146e-07 -1.1565472e-20)
(0.1775534 2.1430899e-07 0)
(0.17760243 4.2870644e-06 -1.4037792e-21)
(0.17760199 1.3706902e-05 4.5651797e-26)
(0.17561084 -0.00019703133 1.3859764e-24)
(0.16393306 -0.0030071979 2.5912822e-20)
(0.13195923 -0.012426971 -2.458954e-20)
(0.092368286 -0.025843073 0)
(0.076187168 -0.030099889 0)
(0.082001207 -0.02482787 0)
(0.078143845 -0.01451799 0)
(0.058081705 0.0027726093 0)
(0.041213815 0.022662266 3.6079446e-20)
(0.042498617 0.028296643 -3.6089187e-20)
(0.06107105 0.015614158 -1.1625911e-21)
(0.083233449 0.00064513833 1.2087188e-21)
(0.092200839 -0.0026791388 0)
(0.087603126 0.005730957 0)
(0.080782077 0.014064502 6.8341383e-22)
(0.079042438 0.013913795 7.0377048e-22)
(0.084793857 0.0067991364 0)
(0.093767336 -0.0022077283 0)
(0.1004395 -0.0074442432 -1.0233878e-19)
(0.10139067 -0.0067699091 2.0815431e-19)
(0.097305887 -0.004072929 -1.0811528e-19)
(0.092214027 -0.0033475089 -4.4797249e-22)
(0.089652261 -0.0051776381 1.1911856e-19)
(0.09145713 -0.0098307954 -1.2371766e-19)
(0.096998543 -0.014700859 0)
(0.10540829 -0.018663747 1.3875938e-24)
(0.11489318 -0.021871931 0)
(0.12243403 -0.023838964 1.4372522e-19)
(0.12698164 -0.025731984 -1.5047229e-19)
(0.12716179 -0.027953406 -1.562427e-19)
(0.12476498 -0.030811102 1.611528e-19)
(0.12125139 -0.033663967 8.1215089e-25)
(0.12027523 -0.035368869 0)
(0.12214415 -0.037732707 0)
(0.12794033 -0.03818904 -3.6131295e-22)
(0.13475049 -0.039246734 -1.9732514e-19)
(0.14232991 -0.040076941 2.056824e-19)
(0.14659971 -0.042116627 0)
(0.14904893 -0.043024918 2.2307576e-19)
(0.14802274 -0.047840834 -2.302868e-19)
(0.14829423 -0.049405901 2.2924394e-19)
(0.14660501 -0.052708512 -2.2506985e-19)
(0.17754356 6.9877093e-08 -9.5064027e-22)
(0.17755865 4.8465411e-07 -2.9672317e-21)
(0.17754895 3.6255869e-07 6.1738969e-21)
(0.1775439 2.9338553e-07 -4.2818234e-21)
(0.17754411 1.9942253e-07 -6.6595678e-21)
(0.17754643 -7.2011407e-07 6.9806352e-21)
(0.17754875 -7.4866858e-08 -1.2049415e-20)
(0.17754441 1.0945195e-06 2.0053521e-20)
(0.17753738 7.8624151e-07 -1.173302e-20)
(0.17753822 -3.3495898e-07 2.7119e-21)
(0.17755065 -2.3899832e-07 1.4237278e-21)
(0.17759323 4.7632101e-06 2.3698518e-20)
(0.17769515 2.5282711e-05 -2.1354487e-20)
(0.17653787 -4.5464076e-05 2.6965882e-20)
(0.16776273 -0.0020746382 5.8873768e-22)
(0.13951286 -0.010582455 -5.8467423e-20)
(0.09883839 -0.024846818 2.8017939e-20)
(0.077053071 -0.030689548 -9.6605781e-22)
(0.079162363 -0.02512796 3.220875e-20)
(0.074838465 -0.014340033 -3.2495562e-20)
(0.053782037 0.0039917972 0)
(0.037454619 0.021490384 0)
(0.042504859 0.025300966 -3.6479878e-20)
(0.06316605 0.01084776 4.1272468e-20)
(0.08431776 -0.0021811362 3.944041e-20)
(0.090752457 -0.0026844212 -4.2138549e-20)
(0.084887845 0.0067585529 -4.4077396e-20)
(0.079952615 0.014127834 4.5191602e-20)
(0.081469586 0.011549051 0)
(0.087606579 0.0026650421 0)
(0.095353857 -0.0049383233 0)
(0.10038919 -0.0079161116 0)
(0.10056253 -0.0057089442 0)
(0.097997868 -0.0029332846 0)
(0.094268928 -0.0030924436 4.7303347e-22)
(0.092816766 -0.0061811645 -1.2586318e-19)
(0.093824626 -0.010759125 1.3105094e-19)
(0.09785389 -0.015716512 5.3136229e-22)
(0.10407694 -0.018966086 -1.0956516e-21)
(0.11231035 -0.020798208 1.4594692e-19)
(0.1204766 -0.021795061 -1.5272784e-19)
(0.1267974 -0.023089688 1.5726216e-19)
(0.12941442 -0.024992008 -1.647476e-19)
(0.12882864 -0.027322727 1.7170275e-19)
(0.12589364 -0.030541725 -3.5632876e-19)
(0.12277709 -0.03257745 -1.0422301e-21)
(0.12134685 -0.034825061 -3.0075793e-23)
(0.12461018 -0.035485045 7.9262556e-22)
(0.12993393 -0.03537886 1.0071281e-21)
(0.13752623 -0.035324524 1.6131197e-21)
(0.14458734 -0.035814752 2.2643926e-19)
(0.14948434 -0.035870219 0)
(0.15225076 -0.040063782 2.4399869e-19)
(0.15442528 -0.041880141 9.1482823e-22)
(0.15209566 -0.045847697 -2.3662692e-19)
(0.17754343 -1.8753524e-08 2.0057107e-21)
(0.17755872 4.4317931e-07 2.0868157e-21)
(0.17754904 4.021674e-07 2.1710146e-21)
(0.17754393 3.0173937e-07 0)
(0.17754419 2.51565e-07 0)
(0.17754638 -7.3861812e-07 0)
(0.17754862 -1.5164161e-07 -1.2711419e-21)
(0.17754454 1.0610371e-06 1.0577582e-20)
(0.17753765 8.2223358e-07 -9.6270597e-21)
(0.17753799 -3.1954004e-07 -1.4304467e-21)
(0.17754847 -6.4856839e-07 -1.2016076e-20)
(0.17758287 3.8467807e-06 1.2502068e-20)
(0.1777233 2.6194851e-05 -2.7351038e-20)
(0.17716727 7.1097836e-05 2.6566006e-20)
(0.17077016 -0.0011785481 0)
(0.14654169 -0.0085160009 0)
(0.1057855 -0.023156748 1.9561516e-21)
(0.078663623 -0.031253691 1.0257434e-21)
(0.076406178 -0.025574101 -3.4251319e-20)
(0.071292239 -0.013876608 3.4330933e-20)
(0.050207605 0.00482287 0)
(0.034157004 0.021007044 0)
(0.04230533 0.022980365 -1.26053e-21)
(0.065014716 0.0083645222 0)
(0.084194743 -0.0035016644 -4.2358224e-20)
(0.088276281 -0.00049561258 4.4510196e-20)
(0.082169346 0.0091473841 0)
(0.079437156 0.015065551 0)
(0.083798224 0.01076903 0)
(0.089874218 0.0015742491 0)
(0.096382952 -0.0047257105 0)
(0.099765201 -0.006266676 0)
(0.099651485 -0.0035606914 -4.5796006e-22)
(0.097838579 -0.0015776839 -4.7621709e-22)
(0.095912098 -0.0027519983 0)
(0.095682411 -0.0063030797 -5.1812e-22)
(0.096432924 -0.010592305 6.8977501e-20)
(0.098447021 -0.014499257 -7.2449683e-20)
(0.10298015 -0.016777999 5.7993485e-22)
(0.10951077 -0.018122049 6.0610073e-22)
(0.11768225 -0.018718658 0)
(0.12496367 -0.019703305 6.506026e-22)
(0.13045674 -0.020942926 -4.6315459e-25)
(0.13188757 -0.023485436 1.8125749e-19)
(0.13039401 -0.026387133 1.176795e-21)
(0.12687881 -0.02874081 -1.951725e-19)
(0.12364917 -0.030773309 -3.9862041e-22)
(0.1235931 -0.031936153 0)
(0.12622814 -0.032241023 -4.2124993e-22)
(0.1315518 -0.032240068 -4.3802464e-22)
(0.13914568 -0.032049874 2.3699154e-19)
(0.1460737 -0.031409087 -2.4801356e-19)
(0.15287953 -0.034161904 2.5119142e-22)
(0.15777597 -0.035947729 -5.5817584e-25)
(0.1569669 -0.039063112 -2.5819014e-22)
(0.17754333 -8.6020054e-08 0)
(0.17755878 4.0101681e-07 0)
(0.17754913 4.2659146e-07 -2.2898033e-21)
(0.17754393 3.1705993e-07 0)
(0.17754425 3.1205921e-07 4.9497021e-21)
(0.17754636 -7.4836494e-07 -3.8914889e-21)
(0.17754848 -2.3051397e-07 1.3406996e-21)
(0.17754463 1.0376816e-06 0)
(0.17753791 8.5985327e-07 1.4505449e-21)
(0.17753797 -2.6217532e-07 0)
(0.17754678 -9.1072409e-07 -1.584279e-21)
(0.17757341 2.2819689e-06 -1.1537571e-20)
(0.17771203 2.3427896e-05 2.7436395e-20)
(0.17758459 0.00012134834 -1.412224e-20)
(0.17306873 -0.00055456173 0)
(0.15288774 -0.006581591 0)
(0.11311658 -0.021064164 -1.0552579e-23)
(0.081111733 -0.03164326 -1.0800328e-21)
(0.073969233 -0.026108069 0)
(0.067689758 -0.013304976 0)
(0.046650932 0.0057739212 1.2356151e-21)
(0.03184291 0.020594948 3.9591185e-20)
(0.042147539 0.020655932 -8.5271168e-20)
(0.066598482 0.0063280139 4.5305537e-20)
(0.083798175 -0.0045799282 4.4801243e-20)
(0.08557147 0.00091821008 -4.6953302e-20)
(0.07928263 0.01071398 -4.9028655e-20)
(0.079327111 0.013721191 5.0872468e-20)
(0.085488567 0.0089243153 -5.2575162e-20)
(0.092142159 0.00065223971 1.106884e-19)
(0.097099533 -0.0040113411 -5.8514847e-20)
(0.099053208 -0.0040473082 4.6712176e-22)
(0.098829345 -0.0023235688 9.7095491e-22)
(0.098012825 -0.0016714053 1.0106436e-21)
(0.097643397 -0.0033069276 0)
(0.097900975 -0.0068964179 -6.9224285e-20)
(0.098449145 -0.010673672 1.4566512e-19)
(0.099273531 -0.013922204 -7.5762663e-20)
(0.10201715 -0.015847037 -6.1563103e-22)
(0.10719077 -0.016775879 -6.3740482e-22)
(0.11461908 -0.017208015 0)
(0.12249946 -0.017634599 -8.7813336e-20)
(0.12943223 -0.018360022 7.4498204e-22)
(0.13313477 -0.019604827 9.4884256e-20)
(0.13351034 -0.022001256 0)
(0.13097026 -0.024132452 0)
(0.12746727 -0.026501796 -1.0798243e-19)
(0.12476905 -0.027863868 1.1208236e-19)
(0.12410381 -0.029757124 -7.8866853e-25)
(0.12711173 -0.029955995 2.3952282e-19)
(0.13284499 -0.029897532 -4.9691712e-19)
(0.14090269 -0.028998588 5.2257911e-19)
(0.14882565 -0.029886584 -2.7254647e-19)
(0.15706414 -0.031262127 -2.7533533e-22)
(0.15898787 -0.032463106 2.8401733e-22)
(0.17754323 -1.3078831e-07 1.1153682e-21)
(0.17755885 3.638882e-07 -1.1604825e-21)
(0.17754923 4.4360632e-07 -4.8292269e-21)
(0.17754385 3.2368024e-07 5.0236247e-21)
(0.17754432 3.7547781e-07 6.5327399e-21)
(0.17754641 -7.390159e-07 -1.3697603e-20)
(0.17754836 -2.9806034e-07 4.2413308e-21)
(0.17754469 9.7481419e-07 -1.470576e-21)
(0.17753819 9.1558294e-07 -1.5296161e-21)
(0.17753798 -1.8638336e-07 -1.2727825e-20)
(0.17754566 -1.0496345e-06 1.3365598e-20)
(0.17756547 6.371311e-07 0)
(0.17768501 1.9818129e-05 0)
(0.17781687 0.00013202571 -9.3048363e-22)
(0.1747823 -0.0001315733 -9.6667315e-22)
(0.15845873 -0.0047882013 1.6820991e-20)
(0.12063385 -0.018665869 -5.3548935e-20)
(0.08437555 -0.031600551 3.7887039e-20)
(0.07202958 -0.026848981 -3.8202251e-20)
(0.06400338 -0.012622121 7.993354e-20)
(0.043212008 0.0067308822 -8.6510617e-23)
(0.029679861 0.02038976 -8.5254349e-20)
(0.042308134 0.018215727 4.6683043e-20)
(0.067859519 0.0044261564 4.5846383e-20)
(0.082975629 -0.0049332223 -4.8471929e-20)
(0.082778589 0.0020525462 0)
(0.077293036 0.011302961 -5.1656575e-20)
(0.079106859 0.012254917 5.3748061e-20)
(0.086786086 0.0069318872 8.6956393e-22)
(0.093678078 0.00094142837 9.1036969e-22)
(0.097374654 -0.0020014226 1.4199009e-21)
(0.098716617 -0.001868622 -4.8586094e-22)
(0.098072446 -0.001157906 -1.0109764e-21)
(0.098690722 -0.0011783883 -5.2580424e-22)
(0.098943012 -0.0036484334 0)
(0.10010941 -0.0071044274 0)
(0.10051247 -0.010505219 -7.6840827e-20)
(0.10029666 -0.013504279 1.6036513e-19)
(0.1013666 -0.015163781 -8.1772713e-20)
(0.10503073 -0.015818888 -3.3767006e-22)
(0.11137289 -0.01599329 0)
(0.11904434 -0.015865655 0)
(0.12706319 -0.015968928 -9.6732136e-20)
(0.1325942 -0.016350234 1.0060775e-19)
(0.13505644 -0.017968157 -1.0466102e-19)
(0.13441969 -0.019462994 1.0511863e-19)
(0.13162952 -0.021585411 4.2739649e-22)
(0.12811593 -0.02354055 -1.1946427e-19)
(0.1247341 -0.02569058 1.2306774e-19)
(0.12538446 -0.027701918 0)
(0.12869664 -0.027813461 1.2346167e-24)
(0.13463026 -0.027630278 -1.3685378e-19)
(0.14278182 -0.028701132 2.8672217e-19)
(0.15185438 -0.029062075 -2.9774629e-19)
(0.15773245 -0.028743588 1.5379799e-19)
(0.17754309 -1.6404576e-07 0)
(0.17755891 3.3017956e-07 2.4469913e-21)
(0.17754932 4.5404321e-07 7.4117832e-28)
(0.17754384 3.5836575e-07 -2.6483624e-21)
(0.17754443 4.2041405e-07 2.2543094e-28)
(0.17754643 -7.3519184e-07 1.4442702e-21)
(0.17754822 -3.6304871e-07 -2.9811086e-21)
(0.17754475 8.8793576e-07 7.7522186e-21)
(0.17753845 9.4222868e-07 0)
(0.17753797 -8.3301063e-08 0)
(0.17754507 -1.0807473e-06 -1.2330694e-20)
(0.17755922 -5.9903426e-07 1.4642361e-20)
(0.17765661 1.5147274e-05 0)
(0.17791588 0.00012018088 9.8096629e-22)
(0.17603608 0.00013330499 1.0163737e-21)
(0.16318927 -0.0032425215 0)
(0.12815718 -0.016101407 -1.8750738e-20)
(0.08843059 -0.031057055 -1.8545733e-21)
(0.070491395 -0.027725632 2.1184309e-20)
(0.060479248 -0.01229044 0)
(0.039899525 0.0076362071 4.4446998e-20)
(0.027779239 0.020199269 -9.0647137e-20)
(0.042348905 0.016052112 4.7128662e-20)
(0.069096873 0.0022176721 -4.9251562e-20)
(0.082370808 -0.0050708522 5.1411545e-20)
(0.079792606 0.0030752384 0)
(0.075899519 0.011522276 0)
(0.078894153 0.010273182 0)
(0.087262761 0.0051617961 -9.1782751e-22)
(0.094179068 0.0013734996 -9.6077093e-22)
(0.097408217 -4.8748705e-05 -6.4434361e-20)
(0.098222406 0.00014168691 6.6401408e-20)
(0.098458673 -0.00013426914 5.4002382e-22)
(0.099155658 -0.0011214602 0)
(0.10037501 -0.0038173409 0)
(0.10176637 -0.0069677158 6.0734551e-22)
(0.10214132 -0.010110435 0)
(0.10159926 -0.012782144 -6.5843457e-22)
(0.10152712 -0.01457917 -8.8302783e-20)
(0.10347262 -0.015554524 9.1484279e-20)
(0.1082803 -0.015571305 9.3919103e-20)
(0.11512501 -0.015220624 -9.8581846e-20)
(0.12327357 -0.014618346 1.0203814e-19)
(0.12996639 -0.014183334 -1.0626163e-19)
(0.13485879 -0.014564606 -1.1019719e-19)
(0.13644747 -0.014946304 -8.4043465e-22)
(0.1352349 -0.016891485 2.3478834e-19)
(0.13223122 -0.018730832 -1.2148599e-19)
(0.12827202 -0.021615208 0)
(0.1267815 -0.024268778 -1.3516322e-19)
(0.12683252 -0.025758529 2.802301e-19)
(0.13061607 -0.026520812 -1.4630123e-19)
(0.13674302 -0.028002089 0)
(0.14528788 -0.02802125 -3.0836536e-22)
(0.15324577 -0.027277355 1.6070429e-19)
(0.177543 -1.692859e-07 0)
(0.17755897 3.0846318e-07 0)
(0.17754938 4.5955886e-07 0)
(0.17754381 3.8436629e-07 4.1872918e-21)
(0.17754451 4.2664909e-07 -7.2602071e-21)
(0.17754648 -7.2272461e-07 6.0902265e-21)
(0.17754809 -4.1757527e-07 -7.8560874e-21)
(0.17754482 8.0686992e-07 -1.6343418e-21)
(0.17753866 9.3464743e-07 -1.6999595e-21)
(0.17753798 3.8456704e-09 -1.5905076e-20)
(0.17754471 -1.035128e-06 1.2991172e-20)
(0.17755453 -1.3561756e-06 0)
(0.17763082 1.0029001e-05 1.6047117e-20)
(0.17793293 9.9970633e-05 -6.7247175e-24)
(0.17693837 0.00028191906 -3.526961e-20)
(0.16706214 -0.0019851938 1.7931754e-20)
(0.13546913 -0.013447053 -1.1911838e-21)
(0.093276445 -0.029964079 -1.2594485e-21)
(0.069468365 -0.02878618 4.0128425e-24)
(0.056940524 -0.011861357 6.9279964e-22)
(0.036834422 0.0081976608 7.263071e-22)
(0.026200305 0.020071029 7.54398e-22)
(0.042469029 0.013909885 0)
(0.069702118 0.00015622649 0)
(0.081306091 -0.0045888155 -5.4154372e-20)
(0.077392877 0.0044527255 5.5789149e-20)
(0.074806213 0.01115802 0)
(0.079291109 0.008205504 0)
(0.087308096 0.0034477084 0)
(0.09371271 0.00199183 5.0674018e-22)
(0.097026346 0.0014732654 0)
(0.098104475 0.0017723834 7.0114236e-20)
(0.098833312 0.0010465786 -7.2335041e-20)
(0.099363182 -0.001030587 5.8772772e-22)
(0.10158134 -0.0035866931 -7.9375586e-20)
(0.10293622 -0.0066406201 8.1397039e-20)
(0.10359394 -0.00922034 0)
(0.10290159 -0.011757895 8.8563903e-20)
(0.10211415 -0.013714772 -9.2283428e-20)
(0.10293492 -0.014957754 3.7555469e-22)
(0.1059487 -0.015395829 1.0039565e-19)
(0.11158307 -0.014990532 -1.0400378e-19)
(0.11918024 -0.01399308 0)
(0.12654532 -0.012636438 1.115125e-19)
(0.13304834 -0.012018128 -1.1646106e-19)
(0.13650393 -0.011522831 9.4441229e-22)
(0.13756172 -0.012574188 0)
(0.13574294 -0.014327927 1.3124815e-19)
(0.1327871 -0.016812149 -1.3574619e-19)
(0.13023418 -0.020428752 1.4260126e-19)
(0.12819403 -0.022834656 -1.476328e-19)
(0.12940039 -0.024774123 -1.5380403e-19)
(0.13313839 -0.027424254 3.1933556e-19)
(0.13953214 -0.027787874 -9.0195289e-22)
(0.147444 -0.027592614 -1.5576853e-21)
(0.17754291 -1.7296502e-07 -1.3063984e-21)
(0.17755902 2.8800453e-07 -1.3592192e-21)
(0.17754942 4.7252781e-07 -2.8281858e-21)
(0.17754376 3.9989572e-07 -1.6936599e-27)
(0.17754459 4.2118339e-07 3.0606839e-21)
(0.17754654 -6.9251585e-07 6.4188341e-21)
(0.17754804 -4.4835246e-07 -6.6237851e-21)
(0.17754485 7.1973059e-07 1.7224762e-21)
(0.17753882 9.0190945e-07 8.9581635e-21)
(0.17753803 7.196788e-08 -2.0460762e-20)
(0.17754448 -9.2456071e-07 9.764658e-22)
(0.17755162 -1.7078989e-06 1.62832e-20)
(0.1776089 5.1725821e-06 1.0580057e-21)
(0.17790363 7.8624973e-05 0)
(0.17755859 0.00034848497 1.1334962e-21)
(0.17013949 -0.0010338768 -1.1802709e-21)
(0.14238907 -0.010829736 1.1369495e-23)
(0.098802047 -0.028307822 2.6598193e-21)
(0.069073138 -0.02978942 -1.3937922e-21)
(0.05340432 -0.011687157 2.3023015e-20)
(0.033956118 0.0087112219 -4.9511149e-20)
(0.024976879 0.019887921 2.5268248e-20)
(0.042766013 0.011962952 0)
(0.069864452 -0.0015018719 -2.7008297e-20)
(0.079794122 -0.0041120129 2.7217017e-20)
(0.075013757 0.0052049086 -9.0883541e-22)
(0.074206333 0.010826215 -9.4778909e-22)
(0.079854917 0.0058636545 0)
(0.086968516 0.001882988 0)
(0.093074229 0.0021644345 -5.331717e-22)
(0.096321147 0.0026288381 0)
(0.09792985 0.0029030762 0)
(0.099220197 0.0017997834 -7.67157e-20)
(0.10024876 -0.00051693856 -5.7121562e-22)
(0.10245549 -0.0029830251 1.6673583e-19)
(0.10420564 -0.005658148 -8.7108519e-20)
(0.10453845 -0.0084168776 0)
(0.10421901 -0.010683758 3.6563862e-22)
(0.10364971 -0.012493391 -3.8024511e-22)
(0.10325424 -0.014213256 -3.957743e-22)
(0.10461219 -0.015122649 -1.0515196e-19)
(0.10855883 -0.014964759 1.0961241e-19)
(0.11534147 -0.013729553 0)
(0.12216939 -0.012210389 0)
(0.1294185 -0.010681769 -4.8024282e-22)
(0.13460739 -0.0093818197 -4.9700436e-22)
(0.1379083 -0.0092097009 -1.3269261e-19)
(0.13818461 -0.010421549 1.3745834e-19)
(0.13651142 -0.012343756 1.4329147e-19)
(0.13459549 -0.015931081 -1.4918713e-19)
(0.13193916 -0.018858736 -3.0344944e-22)
(0.13132776 -0.021941451 1.6238377e-19)
(0.13249887 -0.025000807 -1.6829264e-19)
(0.13637522 -0.02697451 0)
(0.14280744 -0.028453939 -1.7901564e-19)
(0.17754283 -1.7249912e-07 2.0649016e-21)
(0.17755908 2.7224886e-07 -7.1610809e-22)
(0.17754946 4.898977e-07 1.4900863e-21)
(0.17754375 4.1856916e-07 1.5500859e-21)
(0.17754466 4.0966756e-07 6.4503498e-21)
(0.17754658 -6.5789825e-07 -1.1837e-20)
(0.17754797 -4.7810209e-07 6.979784e-21)
(0.17754491 6.5430479e-07 0)
(0.17753897 8.6263717e-07 8.4956704e-21)
(0.17753809 1.1344381e-07 -6.8508178e-21)
(0.17754433 -7.7496196e-07 -2.0554603e-21)
(0.17754993 -1.7766561e-06 0)
(0.17759104 1.2510226e-06 -2.2256238e-21)
(0.17784969 6.100128e-05 1.1575712e-21)
(0.17795106 0.00035652543 -1.1940768e-21)
(0.17253174 -0.00036037878 2.7120946e-24)
(0.14876226 -0.0083961491 -2.0521902e-20)
(0.10486958 -0.026158012 4.3228168e-20)
(0.069375941 -0.030613719 -2.3044552e-20)
(0.04996839 -0.011811827 0)
(0.031043608 0.0092410173 -8.0798714e-22)
(0.024132625 0.019523455 0)
(0.043189583 0.010308082 -8.6540147e-22)
(0.069780619 -0.0028205906 0)
(0.078145025 -0.0034519339 -2.3255187e-24)
(0.07309597 0.0059484845 9.6206219e-22)
(0.073578182 0.0094008488 9.9871969e-22)
(0.080372224 0.0040629464 3.3024506e-20)
(0.086462309 0.0010856502 -2.6034684e-22)
(0.091607701 0.001696003 -3.6140427e-20)
(0.095406214 0.0028472964 7.4790969e-20)
(0.097726968 0.003428664 -1.5560533e-19)
(0.099415775 0.002447789 8.1488801e-20)
(0.10124298 0.00022105385 -6.5677777e-22)
(0.10339533 -0.0020760205 -6.8307121e-22)
(0.10464712 -0.0050485371 7.1129166e-22)
(0.10580711 -0.007132978 0)
(0.10589432 -0.009349451 3.84727e-22)
(0.10478424 -0.011514728 4.0100486e-22)
(0.10368438 -0.013418241 0)
(0.10392508 -0.014640466 -8.6789532e-22)
(0.10660355 -0.014771788 0)
(0.11137859 -0.013945416 4.6966111e-22)
(0.11782221 -0.012149634 -1.2414733e-19)
(0.12503981 -0.010320373 1.3029414e-19)
(0.13130214 -0.0081632431 0)
(0.13614112 -0.0071728033 -2.7325447e-22)
(0.13891537 -0.0070928142 0)
(0.13901196 -0.0085740736 1.5164054e-19)
(0.13847733 -0.011309971 -1.5683317e-19)
(0.1360565 -0.014168303 3.2149306e-22)
(0.13519711 -0.018179145 0)
(0.13435725 -0.021960961 -1.7304045e-22)
(0.13584834 -0.024912901 0)
(0.14051344 -0.027813551 1.8466463e-22)
(0.17754276 -1.6878942e-07 -7.2516786e-22)
(0.17755912 2.6276421e-07 2.2633278e-21)
(0.17754951 5.2201063e-07 -1.5699076e-21)
(0.17754376 4.2801013e-07 3.2664055e-21)
(0.17754472 3.9481949e-07 -5.096924e-21)
(0.1775466 -6.1989862e-07 9.6380831e-29)
(0.17754787 -5.0085653e-07 -7.3537024e-21)
(0.17754493 5.6779265e-07 7.6491681e-21)
(0.17753913 8.3605555e-07 6.9617372e-21)
(0.17753812 1.5913173e-07 -1.7500515e-20)
(0.17754428 -6.3017855e-07 1.0808673e-21)
(0.17754895 -1.6772085e-06 9.0429489e-21)
(0.1775768 -1.5206032e-06 -1.7545293e-20)
(0.17779401 4.5565456e-05 1.8253125e-20)
(0.17815867 0.00032686945 1.257948e-21)
(0.1743652 8.5923343e-05 -1.9849167e-20)
(0.15447056 -0.0062258869 2.195111e-20)
(0.11131147 -0.023569856 0)
(0.070433577 -0.031136992 2.5852107e-20)
(0.046706325 -0.012333382 -5.2107874e-20)
(0.028136686 0.009741132 -5.5766453e-22)
(0.023372479 0.019178938 2.725664e-20)
(0.043769527 0.0086061658 3.0439043e-20)
(0.069489534 -0.0038863696 -5.9872575e-20)
(0.07641644 -0.0022383923 3.2152684e-20)
(0.071535671 0.0060058288 -5.0442097e-22)
(0.07344256 0.0078076487 5.2580434e-22)
(0.080564084 0.0029909422 3.4295243e-20)
(0.085874425 0.00040433732 -3.722809e-20)
(0.090396137 0.0013884476 5.9394158e-22)
(0.094450945 0.0029810105 0)
(0.097558029 0.0033408552 4.094882e-20)
(0.099462504 0.0025472357 -6.3838639e-23)
(0.10181917 0.001229576 -4.3955852e-20)
(0.10365846 -0.0010930123 1.0801118e-21)
(0.10571259 -0.0034171233 -4.7932497e-20)
(0.10718371 -0.0059403948 4.9849343e-20)
(0.1070466 -0.0081376175 -4.0571418e-22)
(0.10596902 -0.010216981 4.2181004e-22)
(0.10464634 -0.012302948 0)
(0.10406574 -0.013872207 -1.171329e-19)
(0.105202 -0.014382106 1.2147336e-19)
(0.10841729 -0.014018052 -2.4528968e-22)
(0.11382218 -0.012317664 -1.3076895e-19)
(0.12077868 -0.010392877 1.3665494e-19)
(0.12690029 -0.0083121752 2.776766e-22)
(0.13348449 -0.0059921904 2.8714778e-22)
(0.13767961 -0.0046839367 1.5308168e-19)
(0.13919856 -0.0059526027 -1.592832e-19)
(0.14119993 -0.0070056938 -6.2411949e-22)
(0.13993937 -0.0094169234 0)
(0.13940394 -0.013430372 0)
(0.13797597 -0.01748566 1.2211183e-24)
(0.13862016 -0.021320429 0)
(0.14107911 -0.025681616 -1.9538317e-22)
(0.17754269 -1.5950539e-07 -1.5277861e-21)
(0.17755916 2.613163e-07 -1.5895141e-21)
(0.17754955 5.483335e-07 6.6149718e-21)
(0.17754379 4.2928753e-07 -3.4408357e-21)
(0.1775448 3.9237712e-07 3.579259e-21)
(0.17754661 -5.7475336e-07 -5.6304917e-21)
(0.1775478 -5.0506349e-07 -7.7464217e-21)
(0.17754492 4.7035888e-07 8.0576694e-21)
(0.17753925 7.9010814e-07 8.3811781e-21)
(0.17753815 2.1332743e-07 -1.6245332e-20)
(0.17754423 -5.1211668e-07 7.9603401e-21)
(0.17754868 -1.5304375e-06 0)
(0.17756577 -3.0690088e-06 1.2292825e-21)
(0.17774352 3.1567138e-05 0)
(0.17822715 0.00028148131 0)
(0.17576033 0.00036833765 2.1451007e-20)
(0.15942659 -0.0043697605 -2.3050401e-20)
(0.11795479 -0.020650956 -7.6916298e-22)
(0.072290624 -0.031213068 -1.721165e-24)
(0.043687325 -0.013241724 0)
(0.025225935 0.010222741 2.9713524e-20)
(0.02268763 0.018748243 -2.782314e-20)
(0.044405579 0.0073463931 -1.2512192e-24)
(0.069171381 -0.0047910585 3.0232963e-20)
(0.074824182 -0.0013884502 -6.5885664e-20)
(0.070003897 0.0066231094 3.2859246e-20)
(0.073386543 0.0059423711 -3.5783796e-20)
(0.080886841 0.0020253177 8.7506825e-22)
(0.085328746 0.00029622736 3.9198642e-20)
(0.089096198 0.0010102357 3.8683297e-20)
(0.093089889 0.0026979524 -4.1019519e-20)
(0.096796387 0.0030559173 0)
(0.099275753 0.002609985 -7.0156601e-22)
(0.10204701 0.0019253865 1.2245529e-25)
(0.10383186 8.332084e-06 -3.791996e-22)
(0.10659652 -0.0020608445 5.087498e-20)
(0.10784839 -0.0042613808 5.4586893e-23)
(0.10799597 -0.0067232367 -5.4606114e-20)
(0.10730006 -0.0089804971 5.6120968e-20)
(0.10601888 -0.011035565 -1.1895103e-19)
(0.10484155 -0.012819213 3.0229403e-22)
(0.10470189 -0.014023867 1.2826659e-19)
(0.10653278 -0.013954163 -6.6999212e-20)
(0.11034097 -0.012926774 -2.7023588e-22)
(0.11627622 -0.010938261 -7.1492997e-20)
(0.12233994 -0.0085066783 7.4720291e-20)
(0.12953123 -0.0062699776 0)
(0.13474625 -0.0034894968 -8.0900382e-20)
(0.13849205 -0.0035346612 8.3994098e-20)
(0.14204649 -0.003400483 6.8207282e-22)
(0.14214861 -0.0053638876 0)
(0.1432647 -0.0092479144 -1.8921945e-19)
(0.14184917 -0.012280142 -3.2457988e-22)
(0.14251356 -0.01672563 2.0444486e-19)
(0.14313216 -0.02219198 2.0663298e-22)
(0.17754262 -1.4421689e-07 -1.2034917e-29)
(0.1775592 2.675324e-07 -3.3483387e-21)
(0.17754962 5.6671468e-07 0)
(0.17754382 4.314659e-07 1.8120163e-21)
(0.17754485 3.9386359e-07 2.8272499e-21)
(0.17754661 -5.3415596e-07 2.9652159e-21)
(0.17754772 -5.0960115e-07 -1.2238297e-20)
(0.17754492 3.8654365e-07 -1.0607888e-21)
(0.17753938 7.3907689e-07 -1.1033888e-21)
(0.17753814 2.5407789e-07 1.708115e-20)
(0.17754415 -4.0531194e-07 -8.3694405e-21)
(0.1775486 -1.3476901e-06 -1.0034356e-20)
(0.17755797 -3.7085372e-06 7.7494899e-21)
(0.17769973 1.9396085e-05 0)
(0.17822977 0.0002281156 0)
(0.17681354 0.00053106543 -2.3155465e-20)
(0.163588 -0.0028495481 -8.1384748e-22)
(0.12460997 -0.01760063 2.6165406e-20)
(0.074931812 -0.030715628 -8.6092376e-22)
(0.040997928 -0.014438384 2.9297586e-20)
(0.022217045 0.010567199 -2.9864207e-20)
(0.022095739 0.018376242 -9.8068176e-22)
(0.045078781 0.0062567718 -5.0677259e-22)
(0.068573085 -0.0050630326 -3.3457641e-20)
(0.073293869 -0.00029880504 3.4599255e-20)
(0.069269738 0.0069881912 5.6207172e-22)
(0.073414302 0.0041723598 0)
(0.080662085 0.0015123623 0)
(0.084667457 0.00032202975 0)
(0.087851086 0.00090366625 1.3181069e-21)
(0.092044412 0.002236102 -6.8393981e-22)
(0.095896309 0.0023292551 0)
(0.099133489 0.0027350871 3.6978895e-22)
(0.10151294 0.0020618813 7.6846608e-22)
(0.10434816 0.001083317 0)
(0.10700092 -0.00058526415 5.2737141e-20)
(0.10836394 -0.0028722175 -5.4864079e-20)
(0.10906404 -0.0048537085 0)
(0.10897965 -0.0070552959 4.6845529e-22)
(0.10765095 -0.0094335409 4.8783364e-22)
(0.10617206 -0.011499481 0)
(0.10525404 -0.013092806 0)