/*--------------------------------*- C++ -*----------------------------------*\
| =========                 |                                                 |
| \\      /  F ield         | OpenFOAM: The Open Source CFD Toolbox           |
|  \\    /   O peration     | Version:  2406                                  |
|   \\  /    A nd           | Website:  www.openfoam.com                      |
|    \\/     M anipulation  |                                                 |
\*---------------------------------------------------------------------------*/
FoamFile
{
    version     2.0;
    format      ascii;
    arch        "LSB;label=32;scalar=64";
    class       volScalarField;
    location    "120";
    object      p_0;
}
// * * * * * * * * * * * * * * * * * * * * * * * * * * * * * * * * * * * * * //

dimensions      [1 -1 -2 0 0 0 0];

internalField   nonuniform List<scalar> 
20580
(
1.0029779
1.0074327
1.0052026
1.0046585
1.0009683
1.0012122
1.0034124
1.0028055
1.0026626
1.0016714
1.0025251
1.0031315
1.002109
1.0015653
1.002887
1.0034118
0.99939645
1.0026844
1.0063806
0.99761955
0.99977953
1.0065674
1.0032307
0.9946866
1.000593
1.0147238
1.0094087
1.0002219
1.0097533
1.0033609
0.96880074
1.0030792
1.0069371
1.0052659
1.0051375
1.0013106
1.0013279
1.0037857
1.0030713
1.0025023
1.0012421
1.0028209
1.0033078
1.0013606
1.0015791
1.0035939
1.0020769
0.99831318
1.0056772
1.0048276
0.99559078
1.0030485
1.0072193
0.99994195
0.99418438
1.0052317
1.023202
1.0127231
0.98941361
0.99666207
1.0133934
0.99377344
1.0034672
1.0055766
1.0044193
1.0045889
1.0024385
1.0023861
1.0036802
1.0032585
1.0024136
1.0013464
1.0027438
1.0033196
1.0009665
1.0017291
1.0039139
1.0013772
0.9980792
1.0074852
1.0033603
0.99450237
1.0061475
1.0082104
0.99798441
0.9960203
1.0059121
1.0226826
1.0141226
0.98441773
0.98371769
1.0163227
1.0267809
1.0039692
1.0038631
1.002968
1.0032495
1.003674
1.0038105
1.0031318
1.0031837
1.0024724
1.0018498
1.0026722
1.0031067
1.0009788
1.0021919
1.0037089
1.0014828
0.99892254
1.0078496
1.0017332
0.99491423
1.0083671
1.007824
0.99785444
0.99967662
1.0050333
1.0140177
1.0116969
0.98667882
0.97686439
1.0082867
1.0447701
1.004411
1.0024496
1.0015973
1.001919
1.0043586
1.0046191
1.0025319
1.0027889
1.0024419
1.0024427
1.0026881
1.0025612
1.0014252
1.0027522
1.0032372
1.0019332
1.0007839
1.0070315
0.99963905
0.99707003
1.0096385
1.0049453
0.99828964
1.0053457
1.0045732
1.0018541
1.0049172
0.9946058
0.98127308
0.99592987
1.0354031
1.0046158
1.0019154
1.0009827
1.0010853
1.0042619
1.0042966
1.0021545
1.0024251
1.0022243
1.002951
1.0027846
1.0017612
1.0021774
1.0031749
1.0024458
1.002176
1.0032403
1.0051897
0.99776499
1.0001392
1.0097561
1.0011441
0.99705164
1.0110492
1.0068531
0.99162909
0.99537664
1.005329
0.9970439
0.99007654
1.0072855
1.0045291
1.0025364
1.0014942
1.0009404
1.0034678
1.0030273
1.0020201
1.002164
1.0021761
1.0032591
1.0027642
1.0012064
1.0029414
1.0034161
1.0013998
1.0020497
1.0054049
1.0028344
0.99687279
1.0033548
1.0087099
0.9976393
0.99498878
1.0133253
1.0113714
0.98747572
0.98707231
1.0120629
1.018316
0.99842052
0.98104363
1.0041511
1.0039963
1.0029429
1.0017002
1.0025265
1.001522
1.0020127
1.0018116
1.0023193
1.0034745
1.0024639
1.0010187
1.0034561
1.0034185
1.0007591
1.0016766
1.0064484
1.0008465
0.99687902
1.0060819
1.0073001
0.99518236
0.99423935
1.0116541
1.0139413
0.99041517
0.98447155
1.010758
1.0326599
1.0143917
0.97804179
1.0035556
1.0056544
1.0045841
1.0032564
1.0020521
1.0007455
1.0020868
1.0016482
1.0025197
1.0033623
1.0022098
1.0012505
1.0034872
1.0030069
1.0009364
1.0011915
1.0060951
0.99957819
0.9978289
1.0077882
1.0052128
0.99518472
0.99621157
1.007374
1.0116506
0.99785639
0.98898684
1.0041302
1.0307478
1.0271118
0.9903013
1.002972
1.0066224
1.0054231
1.0047286
1.0021284
1.0011842
1.0023464
1.0019849
1.0028184
1.0027262
1.0020149
1.0019525
1.0031394
1.0022601
1.0016426
1.0008585
1.0047347
0.99870475
0.99996939
1.0085261
1.0016861
0.99741463
1.0014146
1.0029842
1.0041938
1.0046087
0.99924465
1.0004603
1.0119322
1.0231888
1.0072855
1.0027344
1.0066534
1.0049229
1.0052834
1.0026193
1.0026052
1.0028634
1.0026362
1.0029415
1.0019649
1.002014
1.002913
1.0025808
1.0015417
1.0024426
1.0011623
1.0029486
0.99831291
1.0027275
1.008364
0.99789635
0.99945261
1.0089773
1.0016385
0.99448156
1.0057323
1.011889
1.0035359
0.99174948
0.99981532
1.0130821
1.0029333
1.0058681
1.0034095
1.0049109
1.0032816
1.0041416
1.0032669
1.0032633
1.0027304
1.0015184
1.0020719
1.0036874
1.0020693
1.0010324
1.003189
1.0021778
1.0011986
0.9988158
1.0050847
1.0072364
0.99505758
1.0001418
1.0151475
1.0033941
0.98740692
1.0008634
1.0205498
1.0102352
0.98519659
0.97584152
1.0011991
1.0035121
1.004398
1.001899
1.0036948
1.0036108
1.004808
1.0032818
1.0036046
1.0025594
1.0015611
1.0020582
1.003938
1.0019771
1.0007422
1.003612
1.0032911
0.99997161
0.99990223
1.0065666
1.0057833
0.99348607
0.99990563
1.0172929
1.0056996
0.98561194
0.99501684
1.0201341
1.0173188
0.98897018
0.96905156
0.98430203
1.0043436
1.0029924
1.0012672
1.001969
1.0034819
1.0043313
1.0029936
1.0033387
1.0026548
1.0019204
1.0020874
1.0035688
1.0021771
1.0008835
1.0033345
1.0039055
0.99968438
1.0011101
1.0067468
1.0044448
0.99394793
1.0000054
1.0142674
1.0063965
0.98927548
0.99379953
1.0109758
1.0185621
0.99880333
0.97954976
0.97940983
1.0048838
1.0025376
1.0018078
1.0007749
1.0032076
1.0029442
1.0026025
1.0027601
1.0027024
1.0022382
1.0021789
1.0029127
1.0022756
1.001739
1.0025108
1.0038984
1.0000911
1.002483
1.0056892
1.0023906
0.9969914
1.001907
1.0072623
1.0035304
0.9965832
0.99864603
1.0017177
1.0078959
1.0083276
0.99827852
0.99107537
1.0048591
1.0030679
1.0030893
1.0009803
1.0028183
1.0014489
1.0023281
1.0023784
1.002547
1.0025251
1.0024014
1.0021876
1.0021752
1.0029581
1.0015855
1.0033187
1.000542
1.0039786
1.0040399
0.99953693
1.0015771
1.0053706
1.000937
0.99655967
1.0040578
1.0071333
0.99917209
0.99176859
1.0054382
1.0157764
1.0107406
1.0042666
1.004058
1.0042358
1.002241
1.0025933
1.0009283
1.0022074
1.0021816
1.0023056
1.0027096
1.0027259
1.0015921
1.0020131
1.003894
1.0009726
1.0022115
1.0008183
1.0049821
1.0023959
0.99687479
1.0052732
1.0095391
0.99732266
0.98981874
1.0067288
1.0168273
1.0024227
0.98204961
0.99233099
1.0189978
1.0272931
1.0032009
1.0053234
1.004441
1.0039437
1.0027552
1.0016898
1.0022237
1.0018906
1.002066
1.0027393
1.0030133
1.0012316
1.0019347
1.0043736
1.000824
1.0010067
1.0011539
1.005191
1.0012336
0.9956418
1.0062742
1.0132186
0.99734989
0.98617297
1.0046341
1.0224488
1.0075274
0.98261413
0.98180679
1.0095946
1.0298932
1.0024402
1.0061156
1.0037123
1.0051896
1.0030082
1.0032164
1.0024352
1.0018252
1.0019192
1.0028052
1.0030919
1.0012338
1.0019874
1.0043609
1.001212
1.0003652
1.0014832
1.004664
1.0007149
0.99631398
1.0052838
1.013535
0.9989812
0.98851825
1.0013234
1.0192172
1.0103784
0.98890323
0.98350693
0.99825961
1.0189179
1.0023555
1.0061648
1.0028737
1.0054713
1.0031816
1.0043644
1.0027921
1.0021558
1.0020369
1.0028714
1.0027183
1.0016548
1.0021157
1.0035604
1.0019197
1.000546
1.0017217
1.0034073
1.00111
0.99884261
1.0039462
1.0088192
1.0015125
0.99447184
1.0013268
1.0093648
1.0075043
0.99787343
0.99250479
0.99546849
1.0040746
1.0029379
1.0052233
1.0023719
1.0044113
1.0033142
1.0043867
1.0029616
1.0025159
1.0024299
1.0026893
1.0022448
1.0023096
1.0025576
1.0022444
1.0025869
1.0013206
1.0022684
1.0018197
1.0014188
1.0026266
1.0030304
1.0020365
1.0017211
1.0025692
1.0049438
0.99928451
0.99754663
1.0044752
1.0059682
1.0016091
0.99348699
1.0041265
1.0039418
1.0026526
1.0023038
1.003204
1.0029599
1.0027912
1.0028037
1.0029903
1.0022465
1.0017872
1.0029224
1.0030329
1.0009193
1.0030197
1.0021691
1.0032058
1.000499
1.0010692
1.006734
1.0032214
0.99629871
0.99893345
1.0096304
1.0099236
0.99451921
0.98613116
1.0026121
1.0187443
1.0125722
0.99281463
1.005196
1.0027307
1.0033237
1.0009367
1.002808
1.0013693
1.0025433
1.0033087
1.0035662
1.0019159
1.0014001
1.0031778
1.0035491
1.0001247
1.0030087
1.0027561
1.0041494
0.99979754
1.0001961
1.0090511
1.0046991
0.9936348
0.99506888
1.0113597
1.0154122
0.99565922
0.9798444
0.99496771
1.0220499
1.0226182
0.99899223
0.9777695
0.98408726
0.99722269
1.010365
1.0184266
1.0183373
1.0072853
0.99627225
0.99768432
1.011116
1.0231386
1.0251825
1.0089084
0.97755975
0.95632571
0.96221481
0.99377323
1.0303586
1.0453231
1.0280191
0.99248729
0.97108645
0.97735023
1.0053729
1.0101121
1.0076063
0.99629382
0.98091812
0.96787789
0.96925407
0.985319
1.011908
1.0365488
1.0460265
1.0313296
1.0024412
0.97945228
0.97660958
0.99369973
1.0144002
1.0194264
1.0006335
0.96941107
0.95691747
0.97602877
1.0150873
1.042362
1.0305204
1.0110457
0.98972155
0.97465268
0.97314412
0.98354974
0.99947623
1.0091773
1.0075045
0.99360103
0.97949096
0.98030885
1.0019997
1.0324052
1.0543718
1.051484
1.0161397
0.96572514
0.93660539
0.94508623
0.98030631
1.0283649
1.0041566
0.99665802
0.99608807
1.0049539
1.0220247
1.037532
1.0463339
1.0323063
1.0017243
0.96538746
0.93914262
0.9400185
0.96602004
1.006636
1.0452388
1.0606544
1.0404514
1.0033265
0.97734401
0.97493624
0.99348482
1.0188864
1.0332049
0.94679132
0.95536597
0.98071911
1.0165016
1.0492133
1.0649351
1.0543966
1.0273491
0.99786437
0.97417935
0.96981028
0.98306057
1.0061989
1.0181644
1.0095008
0.98293437
0.9572057
0.95366567
0.98019663
1.0269285
1.0739456
1.0915115
1.0578245
0.9717558
0.99088352
1.0064466
1.009506
1.0005513
0.9850446
0.97034872
0.96838575
0.9804471
1.0113063
1.0495177
1.0780444
1.0827182
1.0452687
0.98742576
0.93279131
0.90448318
0.91385885
0.95929999
1.0244212
1.0835673
1.0998199
1.0580553
1.0740612
1.0592709
1.0266757
0.98651543
0.95301771
0.92555199
0.91346518
0.9252963
0.96233203
1.0176276
1.0710524
1.0969438
1.0829858
1.0440877
0.99917954
0.96254235
0.94914522
0.96006597
0.9876379
1.0148922
1.0201132
1.000392
0.9766005
1.0775384
1.0568036
1.0286103
0.99821513
0.96827261
0.95270284
0.96064621
0.98226102
1.0042687
1.0125162
1.003001
0.98777681
0.97361573
0.97293913
0.98443717
1.013408
1.0482561
1.0786328
1.0870815
1.0514568
0.98597979
0.92239054
0.88468242
0.96233001
0.96665004
0.98105842
1.0039904
1.0332941
1.0661646
1.0883474
1.0905087
1.0607169
1.0103878
0.954144
0.90824375
0.88109434
0.88649808
0.92617454
0.99823028
1.0861655
1.1564483
1.1646319
1.1043184
1.0129946
0.93230728
0.88242988
0.89413806
0.90263682
0.9311538
0.98251564
1.0567854
1.1280438
1.1635682
1.1428475
1.0837237
1.0160596
0.95934103
0.91445686
0.89285402
0.89711867
0.92667041
0.97726926
1.0341481
1.0803223
1.0985168
1.0826268
1.0492459
1.002441
0.96211327
0.90591857
0.93241457
0.97256427
1.0134468
1.0393193
1.0468917
1.0457627
1.0441972
1.0441537
1.0368201
1.0126811
0.99105972
0.97945263
0.98912895
1.0091907
1.0157216
1.000312
0.97043716
0.94592708
0.95349838
0.98203268
1.0236597
1.0572016
1.0248247
1.0409781
1.0451748
1.0263663
0.98769155
0.94383266
0.91220561
0.90582628
0.92876924
0.97375697
1.0310754
1.0830183
1.11913
1.1336488
1.1153005
1.0607956
0.98982529
0.91804224
0.87134224
0.85386919
0.87765913
0.94190241
1.0435451
1.1903972
1.1487385
1.0742266
0.9938742
0.92797036
0.88184485
0.85662606
0.84983981
0.86290138
0.90484312
0.98148889
1.090847
1.1992851
1.2546972
1.2102677
1.1028309
0.99488109
0.91044593
0.85594287
0.83150858
0.83776407
0.88510108
0.97728985
1.25282
1.180817
1.0803426
0.98599273
0.91595343
0.87169551
0.85060438
0.84725615
0.86026252
0.8987815
0.96620431
1.0637962
1.1757925
1.2497354
1.2303259
1.1342719
1.0219532
0.93200223
0.87105562
0.84538026
0.84755052
0.88246316
0.95370737
1.1931704
1.1422724
1.077621
1.0100274
0.94533078
0.89868869
0.87516769
0.87174073
0.88740254
0.92498668
0.98596511
1.0571005
1.1239611
1.1718029
1.1731945
1.1247054
1.047738
0.968477
0.9080526
0.87577896
0.87545052
0.90171408
0.95513921
1.111901
1.0906311
1.0673653
1.031813
0.98487415
0.9385724
0.90821034
0.9016854
0.91912876
0.95842208
1.0090537
1.0523639
1.0801434
1.102087
1.1097097
1.0972958
1.05835
1.0016538
0.94570061
0.91060521
0.90523687
0.9288761
0.96982239
1.0629704
1.0581201
1.0539331
1.0379044
1.0072317
0.96549173
0.93465646
0.92962603
0.94783653
0.9814306
1.0154175
1.0391096
1.050473
1.063136
1.0751708
1.0757616
1.0584404
1.0166022
0.96844025
0.93645142
0.93132911
0.95203512
0.98078224
1.0595087
1.0556969
1.052272
1.0368694
1.0073279
0.96751574
0.9388074
0.934656
0.95225379
0.98423439
1.0164255
1.0378053
1.0475459
1.0603985
1.0743808
1.0752598
1.0557616
1.0124853
0.9670156
0.93718586
0.93490151
0.95576814
0.98570298
1.0963387
1.0829988
1.0654041
1.0341444
0.99211738
0.94775882
0.91747035
0.91227761
0.93135596
0.96678757
1.0093676
1.044446
1.0712673
1.0941041
1.1030127
1.0896616
1.0523187
0.99695406
0.94757466
0.91965603
0.92263781
0.95047807
0.98507125
1.1740285
1.1320904
1.0799452
1.0214781
0.96161567
0.91242175
0.88490276
0.87888534
0.89723467
0.93870167
0.99473949
1.0552149
1.1154813
1.1541638
1.1498458
1.1054788
1.0383262
0.96665139
0.91365628
0.88953193
0.89716554
0.93183434
0.98605724
1.2477746
1.1784296
1.0863295
0.99796524
0.9268143
0.87957933
0.85507866
0.84985161
0.86658133
0.9091743
0.98626331
1.0905556
1.1905554
1.2362822
1.1967215
1.0996683
0.99902296
0.91912438
0.87129201
0.85438893
0.86753788
0.91153227
0.99018749
1.2489518
1.1841561
1.086478
0.99216875
0.91786436
0.86669108
0.8420389
0.83491665
0.85198278
0.90472256
1.0006883
1.1342723
1.2536666
1.2794782
1.1914982
1.0655942
0.95692242
0.88192057
0.83843479
0.82819942
0.84978502
0.91493807
1.023085
1.0945171
1.0976328
1.0701347
1.0153642
0.95455852
0.90225899
0.86436069
0.86083982
0.89202268
0.96116588
1.0559075
1.1461157
1.2069758
1.2065169
1.1333759
1.0311443
0.9329954
0.86361959
0.82891961
0.8339283
0.87921054
0.9713073
1.0986463
0.90774
0.94638788
0.99575954
1.0294928
1.0305067
1.0197247
1.0009811
0.99720748
1.0088578
1.0246417
1.0410101
1.048503
1.0558241
1.0631793
1.0478192
1.0059236
0.94629797
0.90018029
0.88505385
0.91355902
0.97475679
1.0495084
1.1223353
0.86304983
0.89261324
0.9507204
1.0308642
1.1141268
1.1593025
1.1520077
1.1065827
1.0478007
0.98858095
0.94104339
0.91594217
0.92033224
0.94962716
0.98860494
1.0136165
1.0209981
1.021587
1.0264792
1.0287953
1.025511
1.0126489
1.0064331
0.90208388
0.91567336
0.95989703
1.0273843
1.0964714
1.141985
1.1346449
1.0736374
0.99602197
0.92370037
0.87693606
0.85936572
0.87108285
0.91471547
0.99246145
1.0837329
1.1513461
1.1507433
1.0975873
1.0252302
0.96064495
0.9134344
0.89523713
1.0041005
0.99444455
0.99294086
0.99539313
0.99932853
1.0079512
1.014216
1.0051705
0.97529263
0.9339887
0.90739797
0.90860644
0.9366245
0.98640172
1.0489403
1.1082981
1.1363234
1.1128605
1.0484911
0.97118266
0.90943298
0.87997861
0.88634082
1.0841597
1.0434537
0.99187981
0.95027903
0.92648666
0.92453818
0.93901703
0.97063888
1.0039908
1.0299834
1.0398849
1.0388828
1.0294981
1.0187916
1.0050358
0.994932
0.99216793
0.99436005
0.99572141
0.98766738
0.97404448
0.96559345
0.97278035
1.0455644
1.0338951
0.99735607
0.95655361
0.93071001
0.92636764
0.94343541
0.98041163
1.0299812
1.0755347
1.0965767
1.0800668
1.0337151
0.97840407
0.93344484
0.90861579
0.91102242
0.94017671
0.98725483
1.0433554
1.0908716
1.104577
1.0738986
0.96684291
0.98531267
1.0024021
1.0099424
1.0062836
1.001081
0.99870207
0.99923933
1.004219
1.0122613
1.0203969
1.0208214
1.0079704
0.98213386
0.95430063
0.9385865
0.94209161
0.96517867
1.0029566
1.0397163
1.061115
1.0669164
1.0580763
0.9652038
0.97406086
0.99852369
1.0303902
1.0514228
1.0514787
1.0319248
1.0006249
0.97037673
0.95049348
0.94742072
0.96254675
0.99043866
1.0204045
1.0407304
1.0425247
1.0277427
1.004378
0.98039623
0.95928325
0.94814826
0.95186014
0.97487091
1.0170364
1.002398
0.99429892
0.99448859
1.0035077
1.0151385
1.0187886
1.0081098
0.98669083
0.96543304
0.95598976
0.96398896
0.98706685
1.0189034
1.046548
1.057846
1.0494105
1.0222244
0.98476652
0.94930083
0.92502716
0.92120903
0.94268596
1.0286851
1.0172694
0.99485528
0.97540291
0.96657342
0.97119461
0.98775395
1.0070068
1.0205899
1.0241329
1.0161225
1.0019579
0.99028844
0.98224016
0.97877688
0.98369975
0.99632905
1.0148025
1.0302126
1.0341423
1.0178775
0.98398204
0.95805243
0.98980516
1.0024396
1.0076102
1.0025033
0.99376875
0.98694763
0.98691421
0.99490896
1.0079847
1.0212814
1.0292066
1.0273476
1.0111983
0.98463901
0.958781
0.94451253
0.9515119
0.97971203
1.0226848
1.0606569
1.0716496
1.0447019
0.99283534
0.98544
0.98859271
1.0025771
1.0165774
1.0233656
1.0201749
1.0076925
0.99232626
0.98133684
0.97963582
0.98902703
1.005774
1.0209075
1.0241811
1.0102755
0.98519203
0.96405864
0.9590898
0.97087997
0.99174297
1.014341
1.031894
1.0223888
1.0070571
0.99928306
0.99440048
0.99624724
1.0028921
1.0117657
1.0157954
1.010866
0.99671236
0.98056509
0.97106386
0.97120319
0.98632496
1.0087276
1.0297812
1.0409271
1.0322718
1.0088699
0.98228373
0.96592117
0.96371166
0.97818442
1.0054447
1.014055
1.0110314
1.0001991
0.98974716
0.98381113
0.98410884
0.99179312
1.0021856
1.0115207
1.0137931
1.0072984
0.99616014
0.98641548
0.9848594
0.99070103
1.0012103
1.0124358
1.0151169
1.0091622
0.99990243
0.9914005
0.98781856
0.99210062
0.99405295
1.0008282
1.0052799
1.003837
0.99784862
0.99096857
0.98651817
0.98852953
0.99670845
1.0083758
1.0194301
1.0230286
1.0166506
1.0026095
0.9881327
0.97908054
0.97818906
0.98400994
0.99479233
1.0069414
1.0148869
1.0141587
1.0032147
0.98995208
0.99066192
0.99730556
1.0065542
1.0138137
1.0149911
1.0092687
0.99985455
0.99268892
0.99051542
0.99392151
1.0011105
1.0080663
1.0106751
1.006877
1.0002576
0.99432746
0.99092297
0.9911784
0.99662757
1.0055121
1.0104432
1.0045339
1.0087146
1.0016952
0.99615464
0.99580958
0.99996452
1.0063886
1.0111138
1.0106135
1.0042411
0.99595523
0.98945495
0.98713273
0.98903188
0.99378011
0.99993845
1.0066792
1.0127683
1.0148004
1.0110605
1.0025236
0.99528593
0.9957466
0.99707719
1.0117824
1.0095819
1.0019383
0.99387812
0.98937871
0.98966131
0.99344492
0.99872627
1.0032405
1.0056754
1.0063093
1.0050857
1.001785
0.99772481
0.99534504
0.99645548
1.0008206
1.0070874
1.0098575
1.0046761
0.99392995
0.98608647
0.99329227
0.99469599
0.99886941
1.0014139
1.0018742
1.000989
0.99900888
0.9973728
0.99653745
0.99699981
0.99971314
1.0041958
1.0092871
1.0128703
1.0118693
1.0057344
0.99809314
0.99381588
0.99387731
0.99799228
1.0007311
0.99826944
0.99200822
0.99583397
0.99538979
0.99535292
0.99818377
1.0025316
1.0068884
1.0103311
1.0111822
1.0082786
1.0027795
0.99676951
0.99361768
0.99479632
0.99886481
1.0033036
1.0050974
1.0026911
0.99875525
0.9974927
0.99956587
1.0042233
1.0069671
1.0054216
1.0045142
1.0089109
1.0061669
1.0022698
0.99914584
0.99798834
0.99909742
1.0017186
1.0043272
1.0048097
1.0023739
0.99808361
0.99459565
0.99441588
0.99701277
1.0000322
1.0020638
1.0022299
1.0020679
1.0034029
1.0055188
1.0070707
1.0058011
1.0019267
1.0022757
1.0045389
1.0044185
1.0015586
0.99715822
0.99348644
0.99255789
0.99472272
0.99895016
1.0030462
1.0052913
1.0055401
1.0046199
1.0041386
1.0043746
1.004499
1.0040665
1.0030062
1.001863
1.0014692
1.0011678
1.0002418
0.99864155
0.9929395
0.99576979
1.000742
1.0047861
1.0061938
1.0051499
1.0026697
1.000752
1.0007618
1.0022819
1.0040179
1.0047033
1.0039612
1.002399
1.0011534
1.0005275
1.0002654
0.99986345
0.99956313
0.99933237
0.99982009
1.0006357
1.001447
1.0032121
1.0015999
1.0016878
1.0032563
1.0051128
1.0057872
1.0051844
1.0038763
1.0022986
1.0012637
1.0007704
0.99993329
0.99876251
0.99739071
0.99667746
0.99719474
0.99887169
1.0007491
1.001944
1.0024293
1.0024062
1.002633
1.0031548
1.0075762
1.0058169
1.0029571
1.0002779
0.998396
0.99756362
0.99738098
0.99755439
0.99804981
0.9987406
0.99962712
1.0002156
1.0006554
1.0007473
1.0009501
1.0019111
1.0031513
1.0043348
1.004482
1.0033322
1.001408
0.99978634
0.99908211
0.99871313
0.99961533
0.99974375
0.99959695
0.99969863
1.0000677
1.0007766
1.0014651
1.0019789
1.002154
1.0021871
1.0023212
1.0023103
1.0021473
1.0019109
1.0014055
1.000974
1.0004502
0.9996613
0.99864743
0.99774389
0.9975421
0.99824703
0.99953718
0.99984607
1.0004313
1.0012384
1.0021622
1.0030651
1.00387
1.0040964
1.0035766
1.0024225
1.0007915
0.99929726
0.9984675
0.99807743
0.99819258
0.99817549
0.99818033
0.99798354
0.99809004
0.99855163
0.99943362
1.0005442
1.0018461
1.0022997
1.0019716
1.0016771
1.0011549
1.000411
0.99982124
0.99939928
0.99905369
0.99883134
0.99839494
0.99795606
0.99768719
0.99785525
0.99859632
0.99982872
1.0007859
1.0013634
1.00122
1.0009827
1.0007866
1.0007992
1.0007281
1.0002933
0.99929265
0.99975368
1.0003586
1.0007516
1.0005524
1.000383
1.0000267
0.99964711
0.99982638
1.0001494
1.0004849
1.0009834
1.0012504
1.0013569
1.0013324
1.0009117
1.0000373
0.99879318
0.99765101
0.99712483
0.9971702
0.9973935
0.99737423
1.0006479
1.0005178
1.0007086
1.0009596
1.0008992
1.0010593
1.0007066
1.0001809
0.9999735
0.99972194
0.99961871
0.99967833
0.99928957
0.9988145
0.99795066
0.99731883
0.99647692
0.99593487
0.99587298
0.99653456
0.99788462
0.99914881
0.99981227
1.0013771
1.0008913
1.0007415
1.000402
1.000081
1.0002286
0.99997293
0.99982523
0.99991245
0.9995647
0.99957479
0.9995062
0.99889746
0.99856365
0.99803216
0.99782615
0.9975769
0.99776693
0.99805694
0.99836926
0.99873474
0.99883532
0.99848399
1.000274
1.0005038
1.0006473
1.0006112
1.0005534
1.0008077
1.0005887
1.0005225
1.0006985
1.0002861
1.0003244
0.99987767
0.99915695
0.99883075
0.99821825
0.99798643
0.99783225
0.99793439
0.99790147
0.99767444
0.99717862
0.99648142
0.9957131
1.0009194
1.001073
1.0011919
1.0011956
1.0011741
1.0011954
1.0008239
1.0005984
1.0004875
0.99994955
1.0001
0.99963363
0.99920995
0.99905757
0.99842087
0.99832948
0.99782573
0.9974072
0.99694266
0.99641006
0.99589204
0.99561386
0.99539229
1.001041
1.0010972
1.0011634
1.0011041
1.0010606
1.0010721
1.000795
1.0006615
1.0005446
1.0000899
1.0002028
0.9997554
0.99937792
0.99911193
0.99847776
0.99849867
0.99781231
0.99735202
0.9965464
0.99587456
0.99538175
0.99509099
0.99501751
1.0007648
1.0006919
1.000676
1.000707
1.0007097
1.0007151
1.0005899
1.000616
1.0006658
1.0004124
1.0005641
1.0002378
0.99982707
0.99941127
0.99845441
0.99829569
0.99751419
0.99731946
0.9966599
0.99625024
0.99575855
0.99534639
0.99487999
1.0004114
1.0002559
1.0002584
1.0004017
1.0006058
1.0007954
1.0007065
1.0006391
1.00065
1.0003507
1.0002889
1.000071
0.99976189
0.99976342
0.99916034
0.99908187
0.99837566
0.99813177
0.99746314
0.996985
0.99636759
0.99574529
0.99492705
1.0002796
1.0001556
1.0000149
1.0000427
1.0001614
1.0003345
1.0003696
1.0003925
1.0005187
1.0004298
1.0002849
1.000045
0.99964397
0.99978896
0.99957417
0.99956022
0.9990464
0.99854132
0.99790235
0.99732394
0.99674739
0.99611837
0.99536611
0.99965272
0.99973675
0.99982917
0.99990363
0.99995043
1.0000399
1.0001304
1.0001958
1.0002612
1.000188
1.0000412
0.99996518
0.99978075
0.9998603
0.99972804
0.99947838
0.99910778
0.99853981
0.99814922
0.99764986
0.99717989
0.99669272
0.99616694
0.99936858
0.99948928
0.99963134
0.99972947
0.99976137
0.9998051
0.99987648
0.99989025
0.99981771
0.99969377
0.99962685
0.99980126
0.99998477
1.0000211
0.9998199
0.99940308
0.99917379
0.99882669
0.99866131
0.99825479
0.99788437
0.99741463
0.99700526
0.99954321
0.99946667
0.99937928
0.99935049
0.99936854
0.99943083
0.99951521
0.99955592
0.99956493
0.99960827
0.99966506
0.99975737
0.99984012
0.99976092
0.99962781
0.99936918
0.99923791
0.99911774
0.99902963
0.99880922
0.99857009
0.99824252
0.99785799
0.9991659
0.99917301
0.99918639
0.99923864
0.9992738
0.99928583
0.99930699
0.99935079
0.99940321
0.99948351
0.99954409
0.99948457
0.9993641
0.99924987
0.9993145
0.99943184
0.99945492
0.99936408
0.99920448
0.99909878
0.99894049
0.99868159
0.99835822
0.99889804
0.99889013
0.99897043
0.99911738
0.99919983
0.99914145
0.99904623
0.99908697
0.99921437
0.99925685
0.99920618
0.99919113
0.99924127
0.99930524
0.99933199
0.99937559
0.99942506
0.99941876
0.99932338
0.99919074
0.99903221
0.99879811
0.99868557
0.99880897
0.99866331
0.99856203
0.9985756
0.99870325
0.99887841
0.99893897
0.99889648
0.99889951
0.99901871
0.99908048
0.99909448
0.99914576
0.99925387
0.9992655
0.99919166
0.99920071
0.99931548
0.99940958
0.9993623
0.99923847
0.99907421
0.99916857
0.99806848
0.99821887
0.99834853
0.99831902
0.99822779
0.99832328
0.99854172
0.99868897
0.99866061
0.99865816
0.99877364
0.9988676
0.99884415
0.99884406
0.99893684
0.9990594
0.99916869
0.99921073
0.99919329
0.99918191
0.99924552
0.99932755
0.99940727
0.99729263
0.99782138
0.99813677
0.99805333
0.99780816
0.99771554
0.99790615
0.998253
0.99842752
0.9983671
0.99832906
0.99838084
0.99846054
0.99859188
0.99880375
0.99893613
0.99888455
0.99884318
0.99897809
0.99913586
0.99916491
0.99913075
0.99921818
0.99712513
0.99751658
0.99758154
0.99741022
0.99720946
0.99731452
0.9976999
0.99799427
0.99793674
0.99778267
0.99794792
0.99812931
0.99822657
0.99834426
0.99835862
0.99841792
0.99858726
0.99865616
0.99866452
0.9988538
0.99905954
0.99909125
0.99906675
0.99700305
0.99691758
0.99705136
0.99726432
0.99714547
0.99701795
0.99730344
0.99761336
0.99745959
0.99762288
0.99774382
0.99756934
0.9977966
0.99825337
0.9980869
0.99785805
0.99814745
0.99840857
0.99853381
0.99841384
0.99846503
0.99864894
0.99875873
0.99650609
0.99650554
0.99682356
0.9970004
0.99678763
0.99668846
0.99691149
0.99718152
0.99743895
0.9973611
0.99687737
0.99699742
0.99783931
0.99787406
0.99752518
0.99770539
0.99782972
0.99806921
0.9981191
0.99797068
0.99834938
0.99845648
0.99823241
0.9960988
0.99637829
0.99709276
0.99686534
0.99594175
0.99577817
0.99665287
0.99765588
0.99752491
0.99627171
0.99591402
0.99729848
0.9981511
0.99744654
0.99691184
0.99707776
0.99752999
0.99806667
0.99794307
0.99766239
0.99744108
0.99798584
0.99869961
0.99575825
0.99638011
0.99672381
0.99607214
0.99540402
0.9960775
0.99709875
0.99693535
0.99611099
0.99586775
0.99664723
0.99769982
0.9972589
0.99616886
0.99645114
0.99743456
0.99803568
0.99749518
0.99689086
0.99715764
0.99795854
0.99799648
0.9976698
0.99510487
0.99651518
0.99732162
0.99585727
0.99454033
0.99549129
0.99682556
0.99681933
0.9963746
0.99604463
0.99602722
0.99669482
0.99667336
0.99640926
0.99707064
0.99696145
0.99680972
0.99710816
0.99706991
0.99719796
0.99701801
0.99711319
0.99739439
0.99533857
0.99608634
0.99581021
0.99498468
0.99490343
0.99608302
0.99694782
0.99631372
0.99519028
0.99523957
0.99644735
0.99714844
0.9962448
0.99510656
0.99590208
0.99745245
0.99736468
0.9962282
0.99588637
0.99673123
0.99720082
0.99701723
0.99691473
0.99502363
0.99588174
0.99577446
0.9950189
0.9950073
0.9957287
0.99602781
0.99571316
0.99516294
0.99506427
0.99576407
0.99669233
0.99645578
0.99529961
0.99484953
0.99604132
0.99703889
0.99654691
0.99565624
0.99578856
0.9966102
0.99722392
0.99683079
0.9955433
0.99546517
0.99435036
0.99409569
0.99541356
0.99651968
0.99592507
0.99472343
0.99434939
0.99499486
0.99588319
0.9960405
0.99542739
0.99488671
0.99506814
0.996084
0.99687875
0.99572349
0.99432916
0.99542379
0.99703044
0.99712295
0.99542934
0.99581544
0.99544013
0.99374966
0.99324347
0.99452562
0.99621733
0.99667787
0.99543662
0.99346534
0.99306228
0.99503571
0.99675847
0.99629269
0.99461109
0.99370102
0.99507027
0.99694478
0.99600592
0.9937106
0.99412205
0.99661137
0.99709715
0.99490542
0.99485402
0.99525924
0.99433219
0.99364328
0.99418921
0.99521819
0.99545718
0.99489115
0.99402063
0.99372706
0.99469437
0.99593479
0.99592022
0.99479034
0.99351646
0.99378463
0.99546346
0.99602228
0.99520268
0.99419085
0.99470728
0.99591088
0.99580005
0.99377499
0.99509254
0.99493979
0.99393978
0.99351668
0.99428618
0.99533538
0.99531876
0.99406047
0.9931188
0.99391373
0.99559274
0.99568001
0.99423889
0.99322162
0.99370388
0.99534521
0.99616018
0.99488396
0.99340066
0.99374846
0.99527584
0.99638349
0.99318208
0.9946049
0.9951823
0.99430817
0.99332665
0.99353111
0.99454469
0.9950537
0.99440797
0.99355734
0.99356694
0.99438173
0.99507122
0.99452992
0.99356349
0.99362255
0.99461762
0.99523273
0.99457789
0.99330363
0.99357278
0.99485515
0.99569977
0.99279616
0.99389345
0.99494156
0.994774
0.99371573
0.99301947
0.99353992
0.99449672
0.99468126
0.99403124
0.99345911
0.99345253
0.99389471
0.99433579
0.99432074
0.99402556
0.99364957
0.99374042
0.99417329
0.99396936
0.9936372
0.99408713
0.99465701
0.99320316
0.99345624
0.99419329
0.99452393
0.99397067
0.99304746
0.99285349
0.99376418
0.994721
0.99446133
0.99333802
0.99267389
0.99320448
0.99424138
0.99456307
0.99382884
0.99298309
0.99304057
0.99381501
0.993958
0.99352283
0.99371262
0.99415488
0.99407669
0.9935777
0.9931308
0.99341728
0.99401232
0.99414961
0.99367514
0.99319414
0.99333783
0.99385178
0.99394549
0.99344759
0.99294707
0.9931105
0.9936935
0.99394127
0.99361126
0.99308396
0.99301555
0.99324914
0.99333586
0.99353825
0.9936581
0.99385598
0.9940762
0.99391514
0.99354506
0.99332106
0.99356337
0.99396751
0.9940098
0.99368591
0.99335916
0.99329652
0.99344028
0.99358206
0.99347283
0.99324949
0.9933577
0.99339536
0.99323996
0.99319203
0.99332475
0.99325807
0.9928063
0.99259695
0.99450862
0.99421738
0.99368807
0.99365116
0.99378059
0.99391774
0.99395959
0.99388937
0.99380676
0.99384761
0.99382546
0.99375708
0.99360352
0.99307131
0.99298903
0.99343048
0.99368276
0.9937074
0.99318013
0.99288632
0.99290054
0.99310962
0.99311731
0.99493826
0.99452219
0.9939649
0.99371334
0.99384522
0.99407486
0.99421755
0.99437026
0.99425018
0.99379276
0.99370311
0.9940115
0.99398121
0.99368466
0.99354161
0.99325477
0.99330095
0.99372387
0.99391394
0.99361324
0.99289026
0.99241025
0.99273731
0.9944133
0.99511421
0.99517057
0.99462278
0.99401019
0.99362923
0.9938601
0.9946373
0.99491767
0.99436998
0.99427303
0.99423035
0.99390785
0.99373844
0.99373432
0.99382473
0.99401892
0.99370682
0.99356958
0.99358169
0.99364506
0.99343504
0.99314336
0.99525725
0.99499779
0.99513261
0.9949111
0.99464841
0.99452901
0.99441007
0.99470747
0.99482183
0.99467178
0.99467805
0.99488554
0.99459876
0.9941501
0.99396418
0.9937772
0.99387716
0.99423735
0.99441742
0.99408403
0.9937771
0.99311623
0.99303261
0.99492144
0.99563089
0.99613515
0.99594498
0.99510605
0.99440894
0.9945434
0.99529764
0.99559142
0.99513835
0.99500639
0.99502742
0.99486657
0.99471898
0.99446282
0.99420959
0.99454187
0.99490455
0.99447419
0.99387883
0.99395488
0.99446632
0.99443447
0.99631247
0.99557236
0.99551632
0.99622421
0.99655374
0.99588309
0.99465949