/*--------------------------------*- C++ -*----------------------------------*\
| =========                 |                                                 |
| \\      /  F ield         | OpenFOAM: The Open Source CFD Toolbox           |
|  \\    /   O peration     | Version:  2406                                  |
|   \\  /    A nd           | Website:  www.openfoam.com                      |
|    \\/     M anipulation  |                                                 |
\*---------------------------------------------------------------------------*/
FoamFile
{
    version     2.0;
    format      ascii;
    arch        "LSB;label=32;scalar=64";
    class       surfaceScalarField;
    location    "120";
    object      phi_0;
}
// * * * * * * * * * * * * * * * * * * * * * * * * * * * * * * * * * * * * * //

dimensions      [1 0 -1 0 0 0 0];

oriented        oriented;

internalField   nonuniform List<scalar> 
40800
(
0.00073617842
0.00092178306
-0.0011486078
0.00083712669
0.00086574976
-0.00074249936
0.00090423647
0.0010000393
-0.00095897419
0.00096406716
0.00084781875
-0.00089678263
0.0010127477
0.00088620013
-0.001065025
0.0010634417
0.00077519854
-0.00087465844
0.0011056787
0.00070205233
-0.00077700508
0.0011453693
0.0006347434
-0.00065862856
0.0011829529
0.00059746249
-0.00062573309
0.0012207746
0.00060953225
-0.00062496205
0.0012446741
0.000555176
-0.00058590297
0.001269138
0.00043421633
-0.00046580925
0.0013136634
0.0004850828
-0.00047447303
0.001329506
0.00052026085
-0.0005588045
0.001339502
0.00041122305
-0.00042453876
0.0013893317
0.00038431295
-0.00037831182
0.0014537376
0.00064287736
-0.00067299935
0.001386462
0.00047623002
-0.00055376378
0.0014666348
0.00034774516
-0.00033738923
0.0015690203
0.00073050767
-0.00073377554
0.0014816346
0.00068736868
-0.00077380844
0.0014796434
0.00044242063
-0.00049388203
0.0016407737
0.00071303874
-0.0007271623
0.0017759126
0.00099851423
-0.0011680303
0.0016180624
0.00094847683
-0.0011445611
0.0015412378
0.00065984375
-0.00073951076
0.0017496616
0.00053939259
-0.00053951969
0.0017732301
0.00080811873
-0.00077832475
0.0017177037
0.0013171137
-0.0012566275
0.0021317439
0.0014465426
-0.0014058831
0.0010886574
0.0025609558
-0.0013403648
0.0007295185
0.00069964338
0.0008308278
0.001021209
0.00089770781
0.0010289176
0.00095892147
0.00082357074
0.0010054817
0.00067916078
0.0010582187
0.00067513468
0.001101617
0.00063589528
0.0011427501
0.00060911173
0.001181405
0.00056873545
0.0012170732
0.00056521892
0.0012383936
0.00051685062
0.0012702638
0.00042693444
0.0013132622
0.00048123386
0.0013220467
0.00045482419
0.0013371686
0.00041007464
0.0014057984
0.00040873943
0.001431682
0.00057064442
0.0013728295
0.00038721373
0.0015124659
0.00039733675
0.0015626071
0.00070140643
0.001450176
0.00056887423
0.0015235153
0.00041302623
0.0016674585
0.00068195401
0.0017292655
0.00079699971
0.0015397729
0.00066084433
0.0014892303
0.00062753826
0.0018497948
0.00071045687
0.0020260582
0.000892209
0.0018203545
0.0012672553
0.0018379266
0.0014903649
0.00097904144
0.0023450586
0.00073077622
0.00052614146
0.0008264068
0.0010942852
0.00088782187
0.00098695292
0.0009485807
0.00082581048
0.00099622805
0.00052861793
0.001050239
0.00060230085
0.0010954273
0.00058555682
0.0011373721
0.00058693291
0.0011766479
0.00054234682
0.0012105138
0.00051300521
0.0012315194
0.00045681295
0.0012699702
0.0004382269
0.0013062505
0.00047018775
0.0013150533
0.00038531561
0.0013336296
0.0004017775
0.0014106899
0.00044409832
0.0014036585
0.00047367618
0.0013671074
0.000302469
0.0015392304
0.00047731453
0.0015353028
0.00064054546
0.0014243268
0.00043115189
0.0015604883
0.00042820283
0.0016643865
0.00067842756
0.0016710841
0.000633118
0.0015325586
0.00041785875
0.0014960854
0.00059225601
0.0018781371
0.00092908562
0.0021820347
0.0010043627
0.0019957109
0.0010793375
0.0016596622
0.0013260147
0.0011732002
0.0018876239
0.00073386029
0.00043650331
0.00081985878
0.0010174496
0.00087772716
0.00085606477
0.00093512609
0.00083131338
0.0009871607
0.00049413333
0.0010401199
0.00057651083
0.0010864344
0.00055269209
0.0011286537
0.00055922505
0.0011682258
0.00051931108
0.0011999692
0.00046416118
0.0012239629
0.0003825607
0.0012660818
0.00044749922
0.001293509
0.00044428017
0.001307858
0.00033223741
0.0013300541
0.00037568817
0.0014034266
0.00047089059
0.001376445
0.00037529796
0.001374739
0.00024699557
0.0015443952
0.0005552109
0.0014965012
0.00056528232
0.0014117576
0.00030667385
0.0015903141
0.00046424326
0.0016381587
0.00072978716
0.0015986104
0.00054436824
0.001571978
0.00028986861
0.0015623468
0.00057558368
0.0018307799
0.0010773953
0.0021745544
0.0010963454
0.0020859411
0.00083465454
0.001688874
0.00090390952
0.0011524013
0.0015834169
0.00073918371
0.00045024032
0.00081438582
0.00081180792
0.00087171849
0.00068004552
0.00092396132
0.00079536316
0.00097889019
0.00055398402
0.0010281609
0.00059158845
0.0010741402
0.00053900609
0.0011156798
0.00051787437
0.0011551712
0.00048987051
0.0011846984
0.00042347733
0.0012148627
0.00032994742
0.001255571
0.00042975384
0.0012756901
0.00040505408
0.0012980368
0.00028867849
0.0013251144
0.00033857564
0.0013819888
0.00046614493
0.0013516043
0.00029912528
0.0013909687
0.00022771713
0.0015281543
0.00058681177
0.0014530422
0.00048778681
0.0014174631
0.00023024653
0.0016244884
0.00048539039
0.0016050468
0.00075741216
0.0015297704
0.00057803266
0.00162994
0.00029507896
0.0017039272
0.00055762334
0.0017831228
0.0011097622
0.002010324
0.0011356567
0.0020621401
0.00060671575
0.0018323804
0.00042970063
0.00086298622
0.0015501121
0.00074375305
0.00053553646
0.00080972663
0.00053268028
0.00086888196
0.00053835729
0.00091626996
0.00069478219
0.00097229633
0.00063796797
0.001016601
0.00059961471
0.0010601019
0.00052424543
0.0010998185
0.00047297132
0.0011378032
0.00045544052
0.0011654699
0.00037435864
0.0012020302
0.00032112626
0.0012373228
0.00038444476
0.0012523537
0.00035008341
0.001282755
0.00025853437
0.0013156422
0.0002972962
0.0013512133
0.00042040254
0.001328094
0.00025391126
0.0014054258
0.00024295657
0.0014942954
0.00057199436
0.0014070129
0.00039325573
0.0014294357
0.00020155213
0.0016492488
0.0005134248
0.0015764158
0.00069430022
0.001480069
0.00060347863
0.0016855062
0.00042548488
0.0018528994
0.00056667339
0.0017918841
0.00097404289
0.0017836992
0.0010856467
0.0018960296
0.00053982729
0.001955319
0.00017765889
0.00045173838
0.0017487738
0.00075018993
0.00061204393
0.0008097001
0.00025549002
0.00086812198
0.00050514599
0.00091087412
0.00055191262
0.00096460024
0.00067825178
0.0010042874
0.00056079689
0.0010448337
0.00048577634
0.0010828845
0.00042543961
0.0011171827
0.0004184688
0.0011447538
0.00032342522
0.0011838679
0.00033072531
0.0012127455
0.00033289294
0.0012248386
0.00029056347
0.0012610787
0.00025335339
0.0012982142
0.00025994064
0.0013145232
0.00034545292
0.0013047691
0.0002271955
0.00141343
0.00028543938
0.001447886
0.00052179729
0.0013615735
0.00028737637
0.0014394142
0.00021124488
0.0016431291
0.00053739697
0.0015523346
0.00056388301
0.0014336151
0.00051838041
0.0016880255
0.00058014399
0.0019265148
0.00061758314
0.0018208075
0.00072333783
0.0016231334
0.0008463817
0.0017107359
0.00063385973
0.0019752036
0.0002382775
0.00027297071
0.0021038758
0.00077127699
0.00062076596
0.00082335338
8.4889961e-05
0.00087422638
0.00058200278
0.0009126865
0.00041568442
0.00095981466
0.00062205741
0.00099513677
0.0004752211
0.0010319428
0.0004307122
0.001067543
0.0003742812
0.0010965972
0.00036972129
0.0011256461
0.00029997851
0.0011616675
0.00033373908
0.0011850033
0.00029276127
0.0011971049
0.00023559016
0.0012338083
0.00026816113
0.0012720958
0.0002400985
0.001274118
0.00026088758
0.0012822989
0.00020740671
0.0014058016
0.00034308585
0.0013880304
0.0004303848
0.0013244223
0.00018346146
0.001446676
0.00026607636
0.0015995286
0.0005441496
0.0015197612
0.0003944462
0.0014189367
0.00033150074
0.0016449134
0.00065375571
0.0018998267
0.0006969332
0.0018005145
0.00048997762
0.0015276631
0.00046987657
0.0015588111
0.00066824169
0.0018950644
0.00057322779
0.00047318125
0.002311293
0.00084173436
0.00057091223
0.00085234235
0.00012750543
0.00088887203
0.00069431312
0.00092327666
0.00034227291
0.00096027331
0.00048305587
0.00099461021
0.00036930758
0.0010293603
0.00037350574
0.0010624921
0.00034408189
0.0010858037
0.00031487336
0.0011144751
0.00029884734
0.0011428509
0.00032149533
0.0011597109
0.0002649969
0.0011738949
0.00018552868
0.00120503
0.00027606294
0.0012411813
0.00024239395
0.0012355779
0.00018426631
0.0012608862
0.00019511999
0.0013763177
0.00039149347
0.001320269
0.00031595615
0.0012992794
9.7126445e-05
0.0014445612
0.00032095796
0.0015240754
0.00055684551
0.0014656216
0.00022980608
0.0014384552
0.00013130082
0.0015867344
0.00060318749
0.0017851874
0.0007511527
0.0017477171
0.00033365792
0.0015677301
0.00014246851
0.0015020054
0.00052251399
0.0018165928
0.00091941172
0.00086608598
0.0022669044
0.0009537658
0.00045952857
0.0009197596
0.00035496057
0.00093076631
0.00074738385
0.00095634679
0.00037144609
0.0009773942
0.0003417171
0.0010078239
0.00029555939
0.001037726
0.0003359306
0.0010668748
0.00033759313
0.0010874278
0.00026157202
0.001115071
0.00028548077
0.0011376177
0.00029679811
0.0011487859
0.00024547138
0.0011680566
0.00015888035
0.0011893489
0.00027091023
0.0012170488
0.00025227468
0.0012110544
0.00013394233
0.0012488497
0.00019164403
0.0013337363
0.00040166473
0.0012579824
0.00022160545
0.0012873678
5.529705e-05
0.001439994
0.00032986841
0.0014296314
0.00054422333
0.0013856706
0.00014950097
0.0014679533
9.0845846e-06
0.0015554501
0.00044730377
0.001613581
0.00074110272
0.0016222421
0.00030271726
0.0016347847
6.1458249e-06
0.0016185576
0.00026737276
0.0017662854
0.0009843255
0.0011961022
0.0020559728
0.00098605312
0.00026986402
0.00098574503
0.00056718876
0.00099033665
0.00066612953
0.0010163343
0.00047335736
0.0010260394
0.00026010716
0.0010481302
0.00028741407
0.0010688843
0.00032597449
0.0010881833
0.00032832633
0.0011048615
0.00021505959
0.0011280125
0.00026254798
0.0011444137
0.00028086188
0.0011494734
0.00022340506
0.0011758217
0.00015987756
0.0011894293
0.00025154503
0.0012066424
0.00025089941
0.0012091673
0.00012307007
0.0012540051
0.00019199429
0.0012980915
0.00036985326
0.0012182176
0.00015013346
0.001289586
6.3568765e-05
0.001436606
0.00032465176
0.0013369275
0.00046101359
0.0013126172
0.00016443436
0.0015003379
2.2568944e-05
0.0015715236
0.00030439782
0.0014726857
0.0006113251
0.0014744261
0.00038822559
0.0016303761
6.0338421e-05
0.0018208178
0.00014902752
0.0018280003
0.00070375388
0.0011496842
0.0018488116
0.00097279153
9.0739084e-05
0.0010156113
0.00066771723
0.0010331581
0.00046986509
0.0010712744
0.00055048869
0.0010918453
0.00024996274
0.0011159828
0.00033351917
0.0011320161
0.00033174125
0.0011403562
0.00030452855
0.0011525178
0.00020337248
0.0011682304
0.00024288744
0.0011764197
0.00026576959
0.0011757309
0.0001950881
0.00120461
0.00018472037
0.0012085541
0.00022038024
0.001212655
0.00023182144
0.0012221747
0.00014478157
0.0012702003
0.00019393279
0.001275687
0.00030768164
0.0012054033
8.9288224e-05
0.0013053542
0.00011081109
0.0014336977
0.00032347725
0.0012756237
0.00031465478
0.0012663217
0.00018017652
0.0015203051
0.00014032674
0.0015934737
0.00028362216
0.0013961437
0.00037847872
0.0013680094
0.0004242785
0.0015910806
0.00025310582
0.0019191469
0.00027445066
0.0019400308
0.00038910406
0.00073648514
0.0017770514
0.00091572762
-6.6878161e-06
0.00099501592
0.0006218208
0.00103072
0.0002716361
0.0010753697
0.00054852785
0.0011137298
0.00029414584
0.0011499066
0.000381146
0.0011763115
0.00031807321
0.0011927587
0.00025408771
0.0012150318
0.00022906297
0.0012328995
0.00023063812
0.0012383342
0.00023236737
0.001239957
0.00017427328
0.0012665429
0.00022152356
0.0012633436
0.00017879294
0.0012566811
0.00019732334
0.0012663303
0.00017559586
0.0013087431
0.00020640504
0.0012783814
0.00023069614
0.0012299995
5.0624452e-05
0.0013370042
0.00019287262
0.0014304839
0.0003225621
0.0012623098
0.00014216976
0.0012532886
0.00015290848
0.0015232481
0.00034576189
0.0015887281
0.00033456802
0.0014004925
0.00016933959
0.0013087016
0.00030412962
0.0015617338
0.00049198901
0.0018752408
0.00048083032
0.0019496701
0.00029471328
0.00024468458
0.0017181485
0.00086202449
3.21804e-06
0.00094050977
0.00042815781
0.0010011272
0.00017760299
0.0010510522
0.00045593598
0.0011015716
0.00033423127
0.0011396064
0.00037148523
0.0011693281
0.00027145929
0.0011939202
0.00019363949
0.0012263192
0.00026175039
0.0012520293
0.00021441137
0.0012646025
0.0001736155
0.0012819897
0.00015938602
0.0013104764
0.00024079231
0.0013157435
0.00013107663
0.001316185
0.00014428458
0.0013344078
0.00019044987
0.001372032
0.00022486334
0.0013194104
0.00014983206
0.0013046657
4.103758e-05
0.0013934318
0.00028897743
0.0014379174
0.00031859038
0.0013049548
1.1620112e-06
0.0013060565
6.1691146e-05
0.001528003
0.00051556844
0.0015638433
0.00041122884
0.0014416941
5.1394947e-05
0.0013589169
5.8412836e-05
0.0015367807
0.00057219216
0.0017668257
0.00069792019
0.0018544018
0.00033952169
1.8024921e-05
0.0017152076
0.00086576932
9.5513582e-05
0.00091653896
0.00016738038
0.00096883625
0.00025678644
0.0010082553
0.00029763916
0.0010623915
0.00033059331
0.0011017762
0.00029077114
0.0011370492
0.00020400011
0.0011724758
0.00015866504
0.0012069187
0.00026003216
0.0012346019
0.00019259903
0.0012509941
0.00011386025
0.0012782917
0.00014689622
0.0013007176
0.00023509602
0.0013145591
0.00010525252
0.0013254633
8.9882602e-05
0.001354812
0.0001803896
0.0013933142
0.00022107255
0.0013452538
7.9475997e-05
0.001380948
3.6444261e-05
0.0014478151
0.00032821305
0.0014460491
0.00031424261
0.0013696936
-6.972837e-05
0.0014287918
-2.5009182e-06
0.0015502568
0.00052683416
0.0015339195
0.00049058741
0.0014579224
8.0200003e-06
0.0015161923
-0.00010196385
0.0015845555
0.00038208368
0.0016596148
0.00077266472
0.001689911
0.00049321032
8.1591105e-06
0.0016846684
0.00096544528
0.00023522154
0.0009450803
6.0638189e-06
0.00097937031
0.00045213993
0.0010031341
0.00013550679
0.0010430138
0.00028037706
0.0010713716
0.0001759797
0.0011030693
0.00015620301
0.0011398425
0.00017151887
0.00116895
0.00021699018
0.0011955491
0.00016901563
0.0012168596
7.0811184e-05
0.0012506311
0.00012468026
0.0012657997
0.00019947571
0.0012868382
9.2327526e-05
0.0013071144
5.3477764e-05
0.0013369351
0.00015226833
0.0013643911
0.00019211137
0.0013269768
4.1192485e-05
0.0014040327
4.6287436e-05
0.0014500752
0.00028755831
0.0014011647
0.00028519161
0.0013857936
-7.3189228e-05
0.0015318581
-2.6660547e-05
0.0015760044
0.00037983006
0.0014777477
0.00047049931
0.0014518004
2.2690331e-05
0.0016348159
-0.00011474684
0.0017151056
0.00015136881
0.0016230244
0.00055798671
0.001559836
0.00056081919
0.00015531807
0.00159372
0.00093106985
0.00024475594
0.00095707283
-7.2449487e-05
0.00098398356
0.00059550706
0.0010097489
4.5721075e-05
0.0010419902
0.00018427441
0.0010673178
5.9554807e-05
0.0010959
0.00011860121
0.0011277591
0.00018796354
0.0011480512
0.00014680627
0.0011682984
0.0001388528
0.0011905454
6.6884644e-05
0.0012219474
0.00010531877
0.0012267899
0.00014037521
0.0012499959
8.4704466e-05
0.0012777864
4.7387818e-05
0.0013044679
0.00011254819
0.0013211299
0.00014469791
0.0012982055
2.7755982e-05
0.0014000907
7.7946514e-05
0.0014253729
0.0002133721
0.0013361513
0.00019372292
0.0013770377
-1.534259e-05
0.0015726524
3.0908455e-05
0.0015748196
0.00022469096
0.0013971373
0.00028317031
0.0014238403
9.0427601e-05
0.0016725372
1.0269641e-05
0.0018067946
7.5798245e-05
0.0016510459
0.00022595033
0.0014854878
0.00036404717
0.00026032094
0.0015340858
0.00089971853
0.00010678019
0.00096057379
-6.7721279e-05
0.00098056515
0.00056340769
0.0010123997
6.8926636e-05
0.0010379837
9.5528856e-05
0.0010660857
1.3106284e-05
0.001094347
9.9316828e-05
0.0011202095
0.00017153317
0.001137891
7.7132953e-05
0.0011548794
9.3516311e-05
0.0011780348
8.9664042e-05
0.0012040869
9.5159887e-05
0.0012019099
7.3328758e-05
0.0012245396
8.6478783e-05
0.0012544322
7.0569169e-05
0.001275051
7.8386015e-05
0.0012804954
9.2806469e-05
0.001270966
2.4754472e-05
0.0013743628
0.00012987215
0.0013830324
0.00012167881
0.0012801474
5.5160676e-05
0.0013473317
7.0950964e-05
0.0015589123
0.00014946549
0.0015406558
0.00011577215
0.0013364665
3.0321719e-05
0.0013753107
8.9599054e-05
0.0016485683
0.00017909443
0.0018171956
0.00017959483
0.0016812125
2.9998482e-05
0.0014534101
2.1491822e-05
0.00019424775
0.0014889608
0.00094687608
-7.1249106e-05
0.00098481798
7.1606244e-05
0.00098688467
0.0003651944
0.0010237333
0.00014932598
0.0010443745
5.539783e-05
0.0010746145
5.0012817e-05
0.0011008775
0.0001139575
0.0011202268
0.00012273176
0.0011394501
4.1067125e-05
0.0011562881
5.5158284e-05
0.001178957
0.00010289418
0.0011997692
8.8831457e-05
0.0011974577
1.3087179e-05
0.0012191869
8.7461616e-05
0.0012469803
0.00010135615
0.0012640112
5.6827253e-05
0.001262097
4.1910232e-05
0.0012682831
1.891068e-05
0.0013510309
0.00018422617
0.0013489746
4.8277729e-05
0.0012664415
-9.5312734e-05
0.0013379614
0.00010633716
0.0015216351
0.00029051319
0.001492974
8.4766475e-05
0.0013338937
-0.00018410669
0.0013561607
9.4352564e-07
0.0016070426
0.00037997618
0.0017334368
0.00031810826
0.0016570417
5.1693144e-06
0.001495909
-0.0002018329
1.8154479e-05
0.0014881461
0.00095596798
-0.00028260463
0.0010123246
0.00021712529
0.0010082541
0.00012545085
0.0010446806
0.00023708596
0.0010642799
5.4441848e-05
0.0010963964
0.00013134678
0.001119363
0.00013218935
0.0011337952
6.1278342e-05
0.0011535413
3.0544203e-05
0.0011705838
2.9552863e-05
0.0011900831
0.000100169
0.0012048719
9.4331018e-05
0.0012079338
-2.5420158e-05
0.0012266494
7.6107112e-05
0.0012482911
0.00011831077
0.0012622775
4.6683359e-05
0.0012578622
1.5800426e-06
0.0012827458
1.3478987e-05
0.0013272164
0.00021230598
0.0013169798
4.1054257e-06
0.0012859814
-0.00018141914
0.0013474172
7.8059223e-05
0.0014658753
0.00038625314
0.0014249699
8.9456482e-05
0.0013494845
-0.0002644198
0.0014181885
-0.00012092411
0.0015632999
0.00040141555
0.0016252707
0.00048448325
0.001570808
4.9672444e-05
0.0015332515
-0.00025147975
-0.0001317317
0.0015430925
0.0010497849
-0.00037996161
0.0010552387
0.00030298495
0.0010509614
6.1341921e-06
0.001087567
0.00025871756
0.0011098652
6.2324138e-05
0.001137395
0.00018565261
0.0011539413
0.00012209104
0.0011684668
9.4459589e-06
0.0011884587
2.2344948e-05
0.0012060086
5.1749195e-06
0.0012230884
8.1881027e-05
0.0012301959
8.7833633e-05
0.0012415213
-3.4974372e-05
0.0012563699
5.2894387e-05
0.0012697385
0.000110151
0.00128156
3.7556941e-05
0.0012776269
-1.0825496e-05
0.0013216016
8.2125645e-06
0.0013225769
0.00018330182
0.0013049041
7.1627406e-06
0.0013300036
-0.00019258952
0.0014008675
3.6235475e-05
0.0014315822
0.00033695591
0.0013701047
0.00013833003
0.0013707717
-0.00022679488
0.0015217535
-0.00018110144
0.0015869635
0.00026935568
0.0015248393
0.00049163515
0.0014726397
0.00016535886
0.0015491083
-0.00016912771
-0.00019174729
0.0016573912
0.0010668795
-0.00030002139
0.0010354185
0.00026623016
0.0010558164
6.4328527e-05
0.0010911705
0.00017341168
0.0011277439
4.3445501e-05
0.0011589796
0.00011871712
0.0011789528
7.9150276e-05
0.0012007871
-9.86617e-06
0.001222906
8.6685431e-06
0.0012474983
-6.5081713e-06
0.0012657367
4.3812897e-05
0.0012701353
5.7515621e-05
0.0012936366
-1.8884748e-05
0.001309493
2.8364711e-05
0.0013185869
7.0466982e-05
0.0013343253
2.3560816e-05
0.0013361407
-7.4466111e-06
0.0013954456
1.7917333e-07
0.0013665528
0.00010054171
0.0013417083
2.7994369e-05
0.0014102363
-0.00012216592
0.001488954
-6.4264386e-06
0.0014560263
0.00018127714
0.0013653463
0.00012640263
0.0014253472
-0.00012352796
0.0016426198
-0.00012371517
0.0016739211
9.6224987e-05
0.0015069896
0.00028535224
0.0014375145
0.00017706401
0.0015809848
-5.6602552e-05
-0.00011208402
0.0017837952
0.00083466798
0.00090045225
0.0011869528
0.0012445877
0.001276828
0.001299524
0.0013395436
0.001370281
0.0013918785
0.0014152487
0.0014360219
0.0014390731
0.0014728381
0.0014967639
0.0015084614
0.0015278403
0.0015316651
0.0015973563
0.0015546591
0.0015187198
0.0016137876
0.0016981279
0.0016402649
0.0015200413
0.0016094807
0.0018539194
0.0018997232
0.0016837463
0.0015580469
0.0017340014
0.0020206315
8.9241045e-05
0.0019167612
-1.2102786e-05
0.0017057965
-0.0001167179
0.0016474211
-0.00012995537
0.0016400984
1.9183083e-05
0.0017334348
0.00041710212
0.0018092477
0.00093629587
0.0018183813
0.0012129484
0.0016901135
0.0010462548
0.0014861305
0.00058872849
0.0013026348
0.00019815381
0.0012465097
0.00010894322
0.0013952547
0.00049738282
0.0017034352
0.0010532065
0.0021119908
0.0012803157
0.0022748018
0.001032209
0.0022194366
0.00051772011
0.0020271289
0.00034392625
0.0018248557
0.00068015921
0.0018355399
0.0014903592
0.0019901299
0.0021048584
0.0020865139
0.0020174615
0.0020463349
0.0018775723
0.0014330008
-0.00022835062
0.0014353202
-0.00040286123
0.0013415547
-0.00039242516
0.0014228676
-0.00019706519
0.0016241052
7.084032e-05
0.0018361842
0.00037941934
0.0019217912
0.00049465105
0.0019067681
0.00036979778
0.0017772338
0.00024705674
0.0015779647
0.0002737802
0.0014700276
0.00055167916
0.0014555145
0.0010853351
0.0015496177
0.0015170304
0.0016380923
0.001483879
0.0017465146
0.00095975035
0.0017203768
0.00026537694
0.001620185
-6.5994229e-05
0.0016133528
0.00014840396
0.0018126785
0.0010076054
0.002273912
0.0018228204
0.002558194
0.0020469
0.002501329
0.0016949667
0.0021408402
0.0016836685
0.00092026487
0.0001910178
0.0014127076
0.00048885927
0.0013007356
0.00073125481
0.0012960163
0.0007414227
0.0014122831
0.00051237022
0.0014826218
2.4418621e-05
0.0014798481
-0.00046842407
0.0014852684
-0.00067089142
0.001535694
-0.00049147873
0.0016366934
0.00012287893
0.0018395882
0.00094936189
0.0019793823
0.0014964888
0.0019734603
0.0015663097
0.0018331092
0.0011937986
0.0016230677
0.00057495296
0.0014284173
0.00022494079
0.0012437023
0.00038125959
0.0012437063
0.0010791643
0.0015533263
0.0016416273
0.0020802739
0.0016316732
0.0023774275
0.0011696039
0.0023327691
0.00047309701
0.0020950422
0.0018311654
1.77647e-05
0.00067734142
0.0018864977
0.0012145118
0.0016441049
0.0014167481
0.0014643868
0.0011545308
0.001315739
0.0005164999
0.001170421
-0.00010918253
0.001061789
-0.0004055715
0.0010623477
-0.00022961309
0.0011828078
0.00021685244
0.0014312402
0.00069481917
0.0017350289
0.0008559359
0.0018563082
0.00067947027
0.0018574183
0.00015806484
0.0017933146
-0.00011807109
0.001715242
-2.9850055e-05
0.0016862141
0.00057758263
0.0016915955
0.0016587951
0.0016653671
0.0024468479
0.0016540608
0.0024345211
0.001716596
0.0016083711
0.0017857662
0.00041711772
0.0016543603
-0.00037954081
0.0014762356
0.0015416118
-0.0003551143
0.00021979154
0.0019196011
0.00014825766
0.0017123189
-0.00018009668
0.0015739194
-0.0003201913
0.0014524981
-0.00030704297
0.0014082276
7.3662683e-05
0.0013336719
0.00085191681
0.001297843
0.0015423566
0.0012646257
0.0019371963
0.0012782065
0.0016981526
0.0013629675
0.0008727173
0.001354498
-0.00015303186
0.0012760971
-0.00098909968
0.0012585205
-0.0011442387
0.0014530883
-0.00039957903
0.0018508483
0.00085114956
0.0021964109
0.0019243424
0.0022422206
0.0023688206
0.0020928217
0.0021575886
0.0018249748
0.0013485894
0.0016411283
0.00029082876
0.0013716332
-7.4497965e-05
0.0010578536
0.0011449118
0.00068014518
-0.00075323411
0.0014280021
-0.0015369416
0.0013399572
-0.0018393339
0.0013738151
-0.0016349235
0.001508967
-0.00091877369
0.0017110669
0.00021904795
0.0017536241
0.0012546827
0.001706675
0.0019755879
0.0016453982
0.0020799578
0.0014788149
0.0015955891
0.001303857
0.00066064848
0.0011204799
-0.00020219789
0.0009019741
-0.00033713184
0.00082709582
0.00018764429
0.0010348592
0.00085084336
0.0015007301
0.001401688
0.0019609623
0.0013542187
0.002113553
0.00092997487
0.0020412093
0.00021171393
0.0018986394
-0.00018723288
0.0018185915
6.8645844e-05
0.0017966508
0.0010329678
0.001620234
0.0014819183
0.0024436976
-0.00075979037
0.0011088363
-0.00091669423
0.0010245096
-0.00060922871
0.001101667
-0.00019334194
0.0013072208
0.00017088235
0.0015308932
0.00047098601
0.0015903259
0.00049264116
0.001569543
0.00020941483
0.0015864086
-0.0003532495
0.001566981
-0.00058509975
0.0015097189
-0.00043270664
0.0014717454
0.00027680536
0.0013269971
0.0015067701
0.0011369232
0.002499441
0.0010454894
0.0029810372
0.0011504009
0.0025865746
0.0014107135
0.0014382236
0.0015801307
-0.00012285048
0.0015142317
-0.0013350471
0.0014184716
-0.00160895
0.0015785439
-0.00058503646
0.0019988325
0.0012364079
0.0023374296
0.0022767698
0.0027810384
0.001024306
0.0015384474
0.0018573802
0.0011920504
0.0021271605
0.0010051751
0.0021293414
0.0010228251
0.0017372059
0.0011272244
0.00089272067
0.0011454975
-0.0003053067
0.0010982364
-0.001588825
0.0011272711
-0.0023666506
0.0012556282
-0.002365838
0.0014495482
-0.0014234191
0.0017389767
0.00014453413
0.001857305
0.0017666781
0.0017081355
0.0030205763
0.0015243214
0.0035561804
0.0013501132
0.003222896
0.001269184
0.0019345239
0.0012237582
0.00011841831
0.00099109789
-0.0010718606
0.00080503622
-0.00090895688
0.0010522931
0.00015059548
0.0016542679
0.0012064119
0.0022385689
0.0024633434
0.0017958663
0.00098733702
0.0019259705
0.0019305058
0.0015965293
0.0027604684
0.0013520833
0.003021922
0.0011533799
0.0023867272
0.00099470555
0.0009397805
0.00078435011
-0.00065054116
0.00057809686
-0.0014750044
0.00060604813
-0.0013638468
0.00087761079
-0.00075065616
0.001213888
-9.9935833e-05
0.0015632284
0.00030710024
0.001766336
0.00073506582
0.0017332047
0.0010856255
0.0016447145
0.0011117012
0.0016034281
0.00093917098
0.0015234232
0.00067231024
0.0014355007
0.00064177884
0.0012318519
0.001110969
0.0008418544
0.0018186756
0.00071238024
0.0022418913
0.0010709543
0.0023047074
0.001687393
0.0021367655
0.0016969061
0.00023984467
0.0019590447
0.00022493587
0.0017201006
-0.00016151089
0.0014917032
-0.0006250012
0.0013404103
-0.00072391089
0.001223228
-0.00030383144
0.0010135142
0.00053735061
0.00071951553
0.0015271723
0.00055249592
0.0020562836
0.00062461351
0.0020752921
0.00086855071
0.0018997528
0.0011858724
0.0014778232
0.0014596857
0.00060929243
0.0014987621
-0.00060366167
0.0013867208
-0.0017948084
0.0013973516
-0.0024601921
0.001486535
-0.0020222622
0.0016444666
-0.00028318398
0.0017851922
0.002042332
0.001531131
0.0039675501
0.001090901
0.0048208454
0.00096066929
0.0043576889
0.0011579627
0.0015745862
0.0028813281
-0.00098047606
0.0017867712
-0.002289706
0.0016231675
-0.0034819517
0.0013909336
-0.0041326967
0.0013044329
-0.0037606348
0.0013253126
-0.002045612
0.0013143715
0.00054750445
0.0011409058
0.0029506546
0.00094380925
0.0045488926
0.0008460926
0.0049533287
0.0008156715
0.0043522262
0.00089517504
0.0029586428
0.0010634746
0.00083184166
0.0011449897
-0.0014631222
0.0010339143
-0.0032594952
0.0010456805
-0.0037765433
0.0012538122
-0.0030331477
0.0015385169
-0.0014913939
0.0018545408
0.00071350261
0.0019159877
0.00285714
0.0015890416
0.0045884011
0.0013161305
0.0052601004
0.0012302009
0.0012966033
0.0044716712
-0.0026150613
0.001483264
-0.0044749068
0.0013943467
-0.0049864738
0.0012117452
-0.0043350446
0.0012292267
-0.0029413625
0.001315279
-0.0014784944
0.0013347345
-9.9363548e-05
0.001213507
0.0013824403
0.0011008062
0.0029180676
0.0011019911
0.0042053651
0.0010834115
0.0048338615
0.0010232792
0.0039560738
0.00096849379
0.0015620836
0.00090791634
-0.0012278157
0.00068704858
-0.0027048201
0.00070412993
-0.0026982935
0.0010043642
-0.0018224947
0.001358029
-0.0007513971
0.0017005409
4.2499876e-05
0.001863421
0.00096401781
0.0016907465
0.001944306
0.0014715803
0.0028165431
0.0014302343
0.0014383093
0.0033271809
-0.0020725448
0.0013330545
-0.0028625543
0.0012304251
-0.0025435405
0.0010443195
-0.0016971631
0.00110092
-0.00092888939
0.0011928374
-0.00032709468
0.0012241
1.5901337e-05
0.0011517581
0.00029489413
0.0010729306
0.00057199801
0.0011163355
0.0008773609
0.0011577285
0.0013395943
0.0011744761
0.001562885
0.0011180144
0.0011867076
0.0010115607
0.00047793982
0.00068131975
3.6482668e-05
0.00054218664
8.2327278e-06
0.0007975788
0.00024812518
0.0011664034
0.00040776591
0.0014866999
0.00040722745
0.001717607
0.00020519495
0.0016381149
-1.8783659e-05
0.0014162171
-0.00012558575
0.0014170824
0.001485399
-7.0797291e-05
0.00087302526
0.0014738835
0.0014848542
0.0012424765
0.0016580827
0.00095486328
0.0013209258
0.00094958877
0.0010424185
0.0010188314
0.00061311534
0.0010662708
0.00014038025
0.0010355894
-0.00043524569
0.00099492254
-0.00109684
0.0010493084
-0.0018549655
0.0011045665
-0.0024612969
0.0011584364
-0.0022579812
0.0011678489
-0.00088134485
0.0011445042
0.0012496886
0.00089282931
0.0029158738
0.00066906378
0.0032199477
0.00079646785
0.0026568323
0.0010683233
0.0018475735
0.0013279763
0.001044696
0.0015523352
0.00012522285
0.0015334097
-0.0010033424
0.0013143999
-0.0020431223
0.0013224887
0.0014612328
-0.0025983069
0.0028933402
0.0016268936
0.0046915083
0.0013591548
0.0049695632
0.00097800815
0.0042203884
0.00088246529
0.0029525902
0.00089973139
0.001594575
0.00093306251
0.00029089938
0.00091670565
-0.0010779067
0.00090886346
-0.0025274159
0.00097001224
-0.0039920576
0.0010241336
-0.0050517401
0.0010921112
-0.0049554867
0.0011322514
-0.0028132862
0.0011545545
0.00092864506
0.001017084
0.0042528384
0.00086185005
0.0052795418
0.00090735451
0.0046475857
0.0010672112
0.0033171411
0.0012486364
0.0018274549
0.0014483457
0.00020373697
0.0014430759
-0.0016337268
0.0012444657
-0.0032681405
0.0012579067
0.0014003827
-0.0042068783
0.0036584785
0.0016865201
0.005975721
0.0014749797
0.0066270115
0.0010764224
0.0060620812
0.00091378771
0.0044965672
0.00088082765
0.0024830665
0.00087945473
0.0004635428
0.00084663036
-0.0016256806
0.00084421456
-0.0036872414
0.00090152587
-0.0055047734
0.00096222177
-0.0065396197
0.0010282487
-0.0060100326
0.0010989712
-0.0035371731
0.0011297477
0.00053963284
0.0010545053
0.0044472933
0.00099057523
0.0062060576
0.0010082899
0.0059350912
0.001093522
0.0045332476
0.0012150034
0.0025473531
0.0013745496
0.00029182471
0.0013485492
-0.0021223464
0.0011807902
-0.0041517495
0.0012010038
0.0013451341
-0.0053818035
0.0036914455
0.0016931728
0.0060925996