/*--------------------------------*- C++ -*----------------------------------*\
| =========                 |                                                 |
| \\      /  F ield         | OpenFOAM: The Open Source CFD Toolbox           |
|  \\    /   O peration     | Version:  2406                                  |
|   \\  /    A nd           | Website:  www.openfoam.com                      |
|    \\/     M anipulation  |                                                 |
\*---------------------------------------------------------------------------*/
FoamFile
{
    version     2.0;
    format      ascii;
    arch        "LSB;label=32;scalar=64";
    class       volScalarField;
    location    "55";
    object      k_0;
}
// * * * * * * * * * * * * * * * * * * * * * * * * * * * * * * * * * * * * * //

dimensions      [0 2 -2 0 0 0 0];

internalField   nonuniform List<scalar> 
20580
(
3.1753491e-06
2.3328176e-06
1.882858e-06
1.566563e-06
1.3270597e-06
1.1518136e-06
1.0215215e-06
9.2253975e-07
8.416096e-07
7.7348638e-07
7.1850331e-07
6.7329482e-07
6.3507383e-07
6.053051e-07
5.7544697e-07
5.5149532e-07
5.2904383e-07
5.0831099e-07
4.9235477e-07
4.813661e-07
4.7077076e-07
4.6245016e-07
4.5667118e-07
4.5549062e-07
4.5505621e-07
4.5858089e-07
4.6193509e-07
4.609538e-07
4.6297933e-07
4.758018e-07
4.9189975e-07
3.1934049e-06
2.3902535e-06
1.9006887e-06
1.5736985e-06
1.3326488e-06
1.1561788e-06
1.0265103e-06
9.2694532e-07
8.4621504e-07
7.7809188e-07
7.232383e-07
6.7767982e-07
6.3881658e-07
6.0833417e-07
5.7835859e-07
5.5414357e-07
5.309009e-07
5.1023902e-07
4.9273024e-07
4.8091899e-07
4.7159739e-07
4.6509751e-07
4.5577403e-07
4.5499535e-07
4.5602951e-07
4.6231025e-07
4.7070462e-07
4.7902078e-07
4.8425387e-07
4.9523186e-07
5.02111e-07
3.1964623e-06
2.4308689e-06
1.9181848e-06
1.5847419e-06
1.3393883e-06
1.1605929e-06
1.0306937e-06
9.3065306e-07
8.4984811e-07
7.8223555e-07
7.2580481e-07
6.8078005e-07
6.4139101e-07
6.1111834e-07
5.8068598e-07
5.5760489e-07
5.3267104e-07
5.1330646e-07
4.9490213e-07
4.8089656e-07
4.702443e-07
4.6492148e-07
4.5400721e-07
4.5076239e-07
4.5157518e-07
4.5831542e-07
4.6719695e-07
4.7557206e-07
4.835267e-07
4.9708067e-07
5.1589789e-07
3.2038933e-06
2.4569172e-06
1.9470791e-06
1.6058065e-06
1.3521644e-06
1.1680037e-06
1.0362772e-06
9.3479787e-07
8.5336662e-07
7.8594297e-07
7.2865098e-07
6.8330645e-07
6.4456361e-07
6.1358302e-07
5.8388306e-07
5.5979373e-07
5.3596871e-07
5.1524465e-07
4.9912228e-07
4.8290881e-07
4.7112384e-07
4.6501273e-07
4.5548748e-07
4.4801757e-07
4.4788596e-07
4.5176169e-07
4.5960736e-07
4.6498378e-07
4.7249665e-07
4.8274677e-07
5.0906755e-07
3.212965e-06
2.4790198e-06
1.9978086e-06
1.6537332e-06
1.382484e-06
1.1847485e-06
1.0473473e-06
9.4229843e-07
8.5865396e-07
7.9006328e-07
7.334946e-07
6.8605294e-07
6.4941747e-07
6.1569372e-07
5.8909558e-07
5.6259837e-07
5.4085555e-07
5.1825948e-07
5.0399507e-07
4.8651687e-07
4.7547001e-07
4.6672003e-07
4.595103e-07
4.4968417e-07
4.4907848e-07
4.5070621e-07
4.5837818e-07
4.6515998e-07
4.7054142e-07
4.7573341e-07
4.8922386e-07
3.2204137e-06
2.5025233e-06
2.0232424e-06
1.6918724e-06
1.4305822e-06
1.2213985e-06
1.0720506e-06
9.5815472e-07
8.6962782e-07
7.9769876e-07
7.4010464e-07
6.9073385e-07
6.5355469e-07
6.19218e-07
5.921362e-07
5.6642141e-07
5.4383895e-07
5.2199325e-07
5.0673175e-07
4.8931883e-07
4.7969919e-07
4.7090976e-07
4.6288426e-07
4.5361536e-07
4.511704e-07
4.5105927e-07
4.556363e-07
4.667595e-07
4.7374499e-07
4.857298e-07
4.9084842e-07
3.2212978e-06
2.501723e-06
2.0147375e-06
1.6905914e-06
1.4389071e-06
1.2438833e-06
1.1022029e-06
9.8938058e-07
8.9626561e-07
8.1740346e-07
7.5598676e-07
7.0242433e-07
6.6215223e-07
6.2667028e-07
5.9767283e-07
5.7146333e-07
5.4738558e-07
5.2608034e-07
5.0836351e-07
4.9166171e-07
4.808497e-07
4.7334885e-07
4.6338263e-07
4.5479742e-07
4.5062933e-07
4.4926024e-07
4.5022621e-07
4.5958431e-07
4.7275938e-07
4.8596902e-07
5.0256726e-07
3.2272301e-06
2.4842938e-06
1.9835205e-06
1.6606349e-06
1.4219607e-06
1.2414451e-06
1.1094288e-06
1.00565e-06
9.2097192e-07
8.4407426e-07
7.8239358e-07
7.2897532e-07
6.8393253e-07
6.4677517e-07
6.1268405e-07
5.8465515e-07
5.5710382e-07
5.3448214e-07
5.1335767e-07
4.9601512e-07
4.8309524e-07
4.7441106e-07
4.6456409e-07
4.5736605e-07
4.5152264e-07
4.4741196e-07
4.4472508e-07
4.4799027e-07
4.5836824e-07
4.6966051e-07
4.9514618e-07
3.2887226e-06
2.5025295e-06
1.9994317e-06
1.6523306e-06
1.3962453e-06
1.2224128e-06
1.0970268e-06
9.9792867e-07
9.1926371e-07
8.4828474e-07
7.8824116e-07
7.3978226e-07
6.9783949e-07
6.6348545e-07
6.329472e-07
6.0355762e-07
5.7648581e-07
5.5368178e-07
5.291504e-07
5.0963405e-07
4.9240978e-07
4.796433e-07
4.6928649e-07
4.629651e-07
4.5655503e-07
4.5041409e-07
4.4668391e-07
4.4779496e-07
4.5410332e-07
4.6097186e-07
4.7083594e-07
3.8209309e-06
3.1619817e-06
2.2669358e-06
1.7702388e-06
1.4469038e-06
1.2375089e-06
1.0977283e-06
9.9272041e-07
9.0950003e-07
8.4015666e-07
7.8132651e-07
7.3423761e-07
6.9463846e-07
6.615097e-07
6.3290107e-07
6.0506696e-07
5.7905576e-07
5.5788495e-07
5.36369e-07
5.1834752e-07
5.0382216e-07
4.9135201e-07
4.8215958e-07
4.7576798e-07
4.6897465e-07
4.6284378e-07
4.5774189e-07
4.5768026e-07
4.6131784e-07
4.6789239e-07
4.7134502e-07
4.3936781e-06
3.9198066e-06
2.9816649e-06
2.2792861e-06
1.748628e-06
1.3880463e-06
1.1809377e-06
1.0458264e-06
9.4437282e-07
8.6353206e-07
7.9715554e-07
7.449176e-07
7.02174e-07
6.6661607e-07
6.3551225e-07
6.0703938e-07
5.7997979e-07
5.5776895e-07
5.3572628e-07
5.199855e-07
5.048891e-07
4.9336739e-07
4.8697157e-07
4.8375144e-07
4.7820252e-07
4.7390715e-07
4.720732e-07
4.7353932e-07
4.7773461e-07
4.9007549e-07
4.9658368e-07
3.1956402e-06
3.0212328e-06
2.7979958e-06
2.3346294e-06
1.968027e-06
1.7144364e-06
1.5065669e-06
1.3278473e-06
1.1795319e-06
1.0552756e-06
9.5087902e-07
8.6597989e-07
7.9946678e-07
7.4408812e-07
6.9314735e-07
6.488406e-07
6.0895238e-07
5.7616516e-07
5.4706101e-07
5.2759541e-07
5.09515e-07
4.943203e-07
4.8806567e-07
4.8565455e-07
4.7973468e-07
4.7472954e-07
4.7226067e-07
4.73593e-07
4.7606058e-07
4.8361251e-07
4.9920963e-07
3.4392804e-06
2.9394081e-06
2.4254794e-06
2.0614453e-06
1.799828e-06
1.6558522e-06
1.5244137e-06
1.4052328e-06
1.2932969e-06
1.1922578e-06
1.102487e-06
1.0291365e-06
9.6089126e-07
9.0301095e-07
8.4303638e-07
7.8442444e-07
7.2982677e-07
6.7699323e-07
6.2413838e-07
5.7792098e-07
5.4172977e-07
5.1383832e-07
5.0039707e-07
4.9523661e-07
4.8627303e-07
4.7796778e-07
4.7296336e-07
4.7244113e-07
4.7196162e-07
4.7319024e-07
4.804741e-07
3.9105409e-06
3.3780412e-06
2.6196198e-06
2.1258314e-06
1.7606573e-06
1.5152994e-06
1.369439e-06
1.2596436e-06
1.1660192e-06
1.0845485e-06
1.0142237e-06
9.5720138e-07
9.0515712e-07
8.5606441e-07
8.1474854e-07
7.7345658e-07
7.3147613e-07
6.9136121e-07
6.5955149e-07
6.3639631e-07
6.1737382e-07
5.9140677e-07
5.7197003e-07
5.5879313e-07
5.3663758e-07
5.1778621e-07
5.0365002e-07
4.9628861e-07
4.9020102e-07
4.8738751e-07
4.8192391e-07
3.2736863e-06
2.8953263e-06
2.509367e-06
2.1508146e-06
1.8214102e-06
1.5721636e-06
1.3990342e-06
1.2703428e-06
1.1626894e-06
1.069312e-06
9.9069776e-07
9.2172457e-07
8.6068234e-07
8.0808629e-07
7.6286109e-07
7.1943641e-07
6.7726293e-07
6.3860933e-07
6.1836874e-07
6.1191778e-07
6.0915536e-07
6.0825853e-07
6.108511e-07
6.1913835e-07
6.3639389e-07
6.3872322e-07
6.3605483e-07
6.3257567e-07
6.2104614e-07
6.0987542e-07
5.8374973e-07
3.5392273e-06
2.9428975e-06
2.3151476e-06
1.9506039e-06
1.6689348e-06
1.5011498e-06
1.3722993e-06
1.269503e-06
1.1836951e-06
1.1031116e-06
1.0285644e-06
9.588207e-07
8.9686788e-07
8.4120176e-07
7.8781896e-07
7.3517026e-07
6.8816893e-07
6.4656564e-07
6.0722345e-07
5.7861973e-07
5.716013e-07
5.7389123e-07
5.7960594e-07
5.913246e-07
6.1960455e-07
6.4078819e-07
6.6020108e-07
6.7975612e-07
6.9739311e-07
7.196016e-07
7.2593506e-07
3.4797978e-06
3.1452279e-06
2.5069783e-06
2.0144679e-06
1.6439135e-06
1.3966227e-06
1.2412772e-06
1.1381994e-06
1.0602681e-06
9.954087e-07
9.3653874e-07
8.8115958e-07
8.3419382e-07
7.9473149e-07
7.5619445e-07
7.1637214e-07
6.7934911e-07
6.4349944e-07
6.1139223e-07
5.841333e-07
5.6735659e-07
5.5326451e-07
5.479421e-07
5.4666215e-07
5.5332825e-07
5.6652229e-07
5.8829957e-07
6.0279303e-07
6.3488028e-07
6.5628562e-07
6.9499947e-07
3.2412384e-06
2.6471532e-06
2.2748918e-06
1.9322409e-06
1.6540183e-06
1.4342754e-06
1.2701322e-06
1.1452835e-06
1.046389e-06
9.5802315e-07
8.840922e-07
8.2076518e-07
7.6923904e-07
7.2635797e-07
6.8816253e-07
6.5513928e-07
6.2583523e-07
5.990167e-07
5.78255e-07
5.6140548e-07
5.4934461e-07
5.4361848e-07
5.411396e-07
5.3841964e-07
5.4011334e-07
5.4540205e-07
5.4945503e-07
5.5163537e-07
5.5886589e-07
5.676326e-07
5.8571333e-07
3.3435672e-06
2.7878552e-06
2.2375842e-06
1.8684217e-06
1.5980252e-06
1.4069174e-06
1.2703193e-06
1.1719716e-06
1.0928283e-06
1.0129892e-06
9.458535e-07
8.8167645e-07
8.2050469e-07
7.7123544e-07
7.2783024e-07
6.8458107e-07
6.4624777e-07
6.1110698e-07
5.8353163e-07
5.5876397e-07
5.3993569e-07
5.3432553e-07
5.3356762e-07
5.3235157e-07
5.3476605e-07
5.4310426e-07
5.5234851e-07
5.574307e-07
5.6344155e-07
5.7086713e-07
5.7860862e-07
3.2879938e-06
2.7150552e-06
2.1918818e-06
1.8715676e-06
1.6048e-06
1.4195142e-06
1.2825133e-06
1.1946342e-06
1.1280464e-06
1.0682825e-06
1.0246463e-06
9.8144771e-07
9.3672872e-07
9.0222198e-07
8.6629734e-07
8.0939808e-07
7.7612707e-07
7.3825343e-07
7.2263773e-07
7.0877019e-07
6.8719317e-07
6.7461555e-07
6.5455502e-07
6.4525841e-07
6.4245424e-07
6.4682924e-07
6.5818258e-07
6.5886482e-07
6.578503e-07
6.5885456e-07
6.3929104e-07
3.4529704e-06
3.1766591e-06
2.7026608e-06
2.5366744e-06
2.3554717e-06
2.1711262e-06
2.0232551e-06
1.8969939e-06
1.8040309e-06
1.7508934e-06
1.7215129e-06
1.6894178e-06
1.6880923e-06
1.6788115e-06
1.6394389e-06
1.5941942e-06
1.6260097e-06
1.6302761e-06
1.7861379e-06
1.8733732e-06
1.8545539e-06
1.8607735e-06
1.8077115e-06
1.796292e-06
1.7746084e-06
1.7613797e-06
1.7930945e-06
1.7598807e-06
1.7115838e-06
1.6731989e-06
1.5008346e-06
4.8137685e-06
1.1676598e-05
8.4391153e-06
9.1386137e-06
8.4999935e-06
8.2165717e-06
7.8406819e-06
7.5906668e-06
7.2258385e-06
7.3381717e-06
7.3058332e-06
7.0589957e-06
7.555267e-06
7.3801948e-06
7.1583263e-06
6.9872507e-06
7.6409624e-06
7.6674193e-06
8.9017516e-06
8.9522622e-06
8.9108507e-06
8.9716872e-06
8.5047449e-06
8.9471709e-06
8.8045904e-06
8.8146226e-06
9.3004378e-06
8.913637e-06
8.9533464e-06
8.8643854e-06
8.3234918e-06
2.3734804e-05
9.5846685e-05
5.5638445e-05
4.5226773e-05
4.9987115e-05
4.208535e-05
4.3419896e-05
4.0089227e-05
4.0623743e-05
3.8640498e-05
3.9231149e-05
3.9083386e-05
3.8990238e-05
4.1450991e-05
3.9821768e-05
3.910087e-05
3.8834816e-05
3.970989e-05
3.946126e-05
4.1556876e-05
4.0652398e-05
4.1930875e-05
4.0597694e-05
3.9103075e-05
4.0628448e-05
3.8056327e-05
3.8077941e-05
3.7442386e-05
3.5336783e-05
3.6125721e-05
3.417796e-05
3.2800313e-05
1.012383e-05
1.8713237e-06
7.1265195e-07
5.9127543e-07
5.8841547e-07
6.853e-07
7.441761e-07
6.2606046e-07
5.0581121e-07
4.9171364e-07
5.0757735e-07
5.0882497e-07
4.8830499e-07
4.7747816e-07
4.9661388e-07
5.1818275e-07
5.1699307e-07
5.0850787e-07
5.1850893e-07
5.3236791e-07
5.2872139e-07
5.0949241e-07
3.461909e-05
1.0393588e-05
2.0673122e-06
7.5716047e-07
5.9829124e-07
5.8432776e-07
6.6826879e-07
7.6908818e-07
7.017859e-07
5.4240763e-07
5.0663408e-07
5.2070637e-07
5.3233095e-07
5.1562426e-07
4.9063716e-07
5.0359955e-07
5.4681019e-07
5.4362639e-07
5.2621861e-07
5.2887987e-07
5.6057427e-07
5.7397186e-07
5.6157444e-07
3.0559013e-05
1.047939e-05
2.304289e-06
8.2539859e-07
6.190057e-07
5.8896733e-07
6.4888474e-07
7.8444598e-07
7.5821439e-07
5.9969241e-07
5.2092884e-07
5.2774428e-07
5.5529456e-07
5.4841185e-07
5.1731835e-07
5.206663e-07
5.5537375e-07
5.8325009e-07
5.6850433e-07
5.5030453e-07
5.6574697e-07
6.1215162e-07
6.1395406e-07
2.6216473e-05
1.3998851e-05
3.5649153e-06
1.0922602e-06
6.7848035e-07
6.0829333e-07
6.5229739e-07
7.9194913e-07
7.8783144e-07
6.6567422e-07
5.4409591e-07
5.4229287e-07
5.7388652e-07
5.8821485e-07
5.631119e-07
5.4291259e-07
5.6430621e-07
6.1358148e-07
6.1586149e-07
5.9277017e-07
5.9557874e-07
6.4328217e-07
6.7056789e-07
3.2196807e-05
1.379348e-05
4.1551537e-06
1.3947912e-06
7.5541399e-07
6.3185003e-07
6.5586776e-07
7.9158319e-07
8.2105882e-07
7.4910092e-07
5.964935e-07
5.7435444e-07
6.0102747e-07
6.1956692e-07
6.0449852e-07
5.7261261e-07
5.8263187e-07
6.4405714e-07
6.5622236e-07
6.5057118e-07
6.3776171e-07
6.6389063e-07
7.1226585e-07
2.7833423e-05
1.8205146e-05
5.6442855e-06
1.7693825e-06
8.3416465e-07
6.4719202e-07
6.5820776e-07
7.8431804e-07
8.4592636e-07
8.0391739e-07
6.5581908e-07
6.1563786e-07
6.4273157e-07
6.7090599e-07
6.5788281e-07
6.115761e-07
6.0465576e-07
6.5613606e-07
7.1264448e-07
7.1837806e-07
6.948664e-07
6.987224e-07
7.6158393e-07
4.5350174e-05
1.5529559e-05
4.4378872e-06
1.5800274e-06
8.2200507e-07
6.4860199e-07
6.6008629e-07
7.7766173e-07
8.6246682e-07
8.4710683e-07
7.2213688e-07
6.4593156e-07
6.6131416e-07
7.0651022e-07
7.0663276e-07
6.7810175e-07
6.505239e-07
6.7792921e-07
7.5099415e-07
7.6849927e-07
7.574016e-07
7.3346111e-07
7.6615452e-07
5.576271e-05
1.8358104e-05
4.4722935e-06
1.6960621e-06
8.7928307e-07
6.7628776e-07
6.8265437e-07
7.8920537e-07
9.000304e-07
8.9726283e-07
7.9369291e-07
6.8470394e-07
6.9006971e-07
7.5382337e-07
7.585156e-07
7.4303511e-07
7.0105133e-07
7.1674083e-07
8.1055992e-07
8.3142068e-07
8.2472279e-07
8.0025659e-07
8.0249328e-07
3.8489345e-05
2.7730136e-05
1.1053619e-05
3.8972777e-06
1.4552441e-06
8.1686871e-07
7.5012398e-07
8.1786563e-07
9.6916332e-07
9.626481e-07
8.8546711e-07
7.3570342e-07
7.3394524e-07
7.9727827e-07
8.2478977e-07
8.1963016e-07
7.7926479e-07
7.6065073e-07
8.2305772e-07
8.9503204e-07
8.8397534e-07
8.6412738e-07
8.4032571e-07
4.3330779e-05
2.5831112e-05
9.5620603e-06
3.4953324e-06
1.3835512e-06
8.1651572e-07
7.6654138e-07
8.2834857e-07
9.7324331e-07
9.9287101e-07
9.6497252e-07
8.4244116e-07
7.8022835e-07
8.2713004e-07
8.6788248e-07
8.6651233e-07
8.5031279e-07
8.1012881e-07
8.3386184e-07
9.3489441e-07
9.5038831e-07
9.4609407e-07
9.2901449e-07
2.9661821e-05
1.2889327e-05
4.6460695e-06
2.0382746e-06
1.0559141e-06
7.7946744e-07
7.628649e-07
8.7895731e-07
9.9621366e-07
1.0149309e-06
9.9828531e-07
9.1303405e-07
8.492096e-07
8.8148697e-07
9.4395317e-07
9.2316435e-07
9.0224856e-07
8.6597371e-07
8.6938898e-07
9.6112391e-07
9.9192142e-07
9.8654497e-07
9.9099877e-07
5.7681416e-05
2.6189538e-05
5.7289081e-06
2.2492561e-06
1.1390736e-06
8.0623354e-07
7.7310784e-07
8.8949809e-07
1.0639668e-06
1.0551483e-06
1.0401574e-06
9.8455947e-07
9.1568125e-07
9.3633496e-07
1.0372049e-06
1.0230975e-06
9.7479397e-07
9.3528707e-07
9.3112309e-07
9.9401179e-07
1.0750392e-06
1.0572622e-06
1.0398268e-06
4.1502316e-05
2.6885752e-05
1.1553543e-05
5.1090783e-06
2.2226479e-06
1.111141e-06
8.6011757e-07
9.1241565e-07
1.08512e-06
1.155671e-06
1.1456229e-06
1.1080421e-06
1.0097686e-06
1.0148774e-06
1.1097989e-06
1.1080748e-06
1.0528041e-06
1.0246905e-06
1.0103503e-06
1.0321169e-06
1.123969e-06
1.1222621e-06
1.1021313e-06
3.330043e-05
2.3323209e-05
1.1529039e-05
5.9737576e-06
2.8396929e-06
1.4453127e-06
1.0139278e-06
9.8704127e-07
1.140923e-06
1.2459818e-06
1.2383061e-06
1.2231167e-06
1.1326897e-06
1.0839074e-06
1.1602962e-06
1.1766832e-06
1.11997e-06
1.0941463e-06
1.0968053e-06
1.1162017e-06
1.2278867e-06
1.2184411e-06
1.1523223e-06
1.7239312e-05
1.5065649e-05
9.5760748e-06
5.6765701e-06
2.8052255e-06
1.4860653e-06
1.1003837e-06
1.0982203e-06
1.2724652e-06
1.3236204e-06
1.285143e-06
1.2766546e-06
1.2254081e-06
1.1547338e-06
1.2163798e-06
1.2562312e-06
1.1992309e-06
1.1731123e-06
1.2047744e-06
1.2095465e-06
1.2996702e-06
1.3153207e-06
1.2312729e-06
1.3886406e-05
1.1587399e-05
7.1036288e-06
4.3992796e-06
2.3324472e-06
1.3951148e-06
1.1451318e-06
1.2545241e-06
1.4139436e-06
1.3824486e-06
1.2834685e-06
1.2999203e-06
1.3121276e-06
1.2746588e-06
1.3509e-06
1.361073e-06
1.2612425e-06
1.2002994e-06
1.2564158e-06
1.2854575e-06
1.3775818e-06
1.4110816e-06
1.3190895e-06
1.6399945e-05
1.1427058e-05
5.659738e-06
3.0927365e-06
1.7671176e-06
1.2530207e-06
1.17859e-06
1.4206141e-06
1.5362622e-06
1.415805e-06
1.2738074e-06
1.3085848e-06
1.402205e-06
1.39e-06
1.456891e-06
1.4539543e-06
1.3242432e-06
1.2327939e-06
1.3155831e-06
1.3991856e-06
1.5261029e-06
1.5515985e-06
1.422415e-06
2.0504343e-05
1.2762192e-05
5.4888071e-06
2.5987866e-06
1.5112725e-06
1.1992343e-06
1.2149991e-06
1.5474408e-06
1.6143979e-06
1.4129478e-06
1.2421331e-06
1.3089305e-06
1.4629513e-06
1.4836328e-06
1.552673e-06
1.5274092e-06
1.3542241e-06
1.2622294e-06
1.4023333e-06
1.514616e-06
1.6184862e-06
1.6273074e-06
1.4718916e-06
2.6657491e-05
1.458366e-05
5.9799564e-06
2.6327861e-06
1.4940917e-06
1.2019175e-06
1.2569408e-06
1.6200101e-06
1.6454112e-06
1.3836193e-06
1.2048467e-06
1.3055177e-06
1.5411098e-06
1.6208636e-06
1.7094835e-06
1.6070185e-06
1.3506795e-06
1.2635279e-06
1.4474542e-06
1.6590323e-06
1.7786525e-06
1.7278105e-06
1.4968072e-06
2.4951842e-05
1.4231761e-05
7.0766716e-06
3.0434945e-06
1.6215084e-06
1.2643302e-06
1.3381411e-06
1.669273e-06
1.6732374e-06
1.3646947e-06
1.1784967e-06
1.331888e-06
1.6541041e-06
1.7508815e-06
1.7864498e-06
1.6348493e-06
1.3465498e-06
1.2795198e-06
1.5579406e-06
1.7907158e-06
1.8676111e-06
1.7802609e-06
1.4887362e-06
1.870166e-05
1.1236556e-05
7.0204409e-06
4.0956713e-06
2.1765131e-06
1.5359537e-06
1.5495796e-06
1.7753782e-06
1.7296785e-06
1.3464201e-06
1.1650911e-06
1.3505134e-06
1.7511451e-06
1.8863743e-06
1.9211849e-06
1.6289096e-06
1.3103678e-06
1.2916438e-06
1.6789273e-06
1.9894588e-06
2.0551411e-06
1.7659138e-06
1.488351e-06
1.1612892e-05
6.9542268e-06
6.1404203e-06
4.7218275e-06
3.0028122e-06
2.2425129e-06
2.1221665e-06
2.110863e-06
1.8465597e-06
1.3247022e-06
1.1706166e-06
1.4145475e-06
1.8735341e-06
2.0102657e-06
1.9870143e-06
1.5430913e-06
1.2897232e-06
1.373237e-06
1.9306652e-06
2.1677429e-06
2.1041439e-06
1.6705847e-06
1.4900397e-06
6.7053615e-06
5.1060641e-06
5.372821e-06
4.876684e-06
3.4458621e-06
2.7282115e-06
2.5675776e-06
2.4194386e-06
1.8707983e-06
1.3039518e-06
1.1961761e-06
1.5251148e-06
2.0657361e-06
2.1782139e-06
1.9786375e-06
1.4537375e-06
1.2979634e-06
1.5314095e-06
2.1700553e-06
2.3115108e-06
2.0679325e-06
1.6230351e-06
1.5458903e-06
3.6849893e-06
4.6149199e-06
5.3180684e-06
4.9268803e-06
3.5761791e-06
2.9180638e-06
2.7446246e-06
2.5097507e-06
1.8501667e-06
1.3075567e-06
1.2476738e-06
1.7813357e-06
2.2156121e-06
2.2464079e-06
1.8687005e-06
1.4155698e-06
1.3425918e-06
1.9400749e-06
2.3322555e-06
2.3157057e-06
1.858101e-06
1.6352006e-06
1.7072542e-06
2.7313995e-06
4.5622207e-06
5.4154541e-06
4.9384746e-06
3.5571892e-06
2.9452863e-06
2.778033e-06
2.500528e-06
1.7249553e-06
1.326119e-06
1.3793554e-06
2.0368583e-06
2.3276979e-06
2.2377561e-06
1.6758121e-06
1.418782e-06
1.5135733e-06
2.2203562e-06
2.40401e-06
2.2142528e-06
1.7599545e-06
1.6767514e-06
2.132309e-06
2.7110575e-06
4.542459e-06
5.5057379e-06
4.8257728e-06
3.3663475e-06
2.8684074e-06
2.7138003e-06
2.3834069e-06
1.5914649e-06
1.3496637e-06
1.5543257e-06
2.1943715e-06
2.3338961e-06
2.1397387e-06
1.5617895e-06
1.4552452e-06
1.8820307e-06
2.3300741e-06
2.3740183e-06
1.9675079e-06
1.779679e-06
1.8599108e-06
2.4415602e-06
2.9837555e-06
4.5214592e-06
5.4300791e-06
4.213782e-06
2.8310937e-06
2.5807553e-06
2.5370789e-06
2.1369055e-06
1.487233e-06
1.3891747e-06
1.7572629e-06
2.2304432e-06
2.2919946e-06
1.8457141e-06
1.5646691e-06
1.5895116e-06
2.1392199e-06
2.3102537e-06
2.2437625e-06
1.9142472e-06
1.8577416e-06
2.3091306e-06
2.5403048e-06
3.5872824e-06
4.4653549e-06
4.8862903e-06
3.2117427e-06
2.3728855e-06
2.2985691e-06
2.2882486e-06
1.855029e-06
1.4462172e-06
1.4176963e-06
1.9287705e-06
2.2169055e-06
2.1545983e-06
1.696159e-06
1.5943926e-06
1.8575337e-06
2.2240991e-06
2.265213e-06
2.0395351e-06
1.9439954e-06
2.105234e-06
2.4939558e-06
2.5600739e-06
4.366798e-06
4.5631334e-06
4.3963818e-06
2.6004492e-06
2.0836891e-06
2.073302e-06
2.0623439e-06
1.6606772e-06
1.4547938e-06
1.5159705e-06
1.9870119e-06
2.1382779e-06
1.9253368e-06
1.7026296e-06
1.671885e-06
2.0863955e-06
2.2272367e-06
2.1693958e-06
2.0327769e-06
2.0124938e-06
2.3899259e-06
2.565653e-06
2.5824973e-06
5.1619444e-06
5.3181223e-06
4.2875999e-06
2.3652105e-06
1.9480919e-06
1.9111619e-06
1.9155022e-06
1.6188666e-06
1.5002464e-06
1.677364e-06
1.9511777e-06
1.9970348e-06
1.8420233e-06
1.754278e-06
1.866104e-06
2.162739e-06
2.2241614e-06
2.1578321e-06
2.0733993e-06
2.2058077e-06
2.5263026e-06
2.6292748e-06
2.6503403e-06
5.9691765e-06
7.3538165e-06
4.4431945e-06
2.37325e-06
1.9392548e-06
1.8854686e-06
1.8507611e-06
1.6365744e-06
1.5803659e-06
1.8101389e-06
1.9289352e-06
1.9188686e-06
1.8230344e-06
1.8010249e-06
2.0373706e-06
2.2028078e-06
2.2282089e-06
2.192212e-06
2.1650038e-06
2.3775483e-06
2.5758438e-06
2.6709567e-06
2.8009212e-06
6.7652034e-06
9.5954352e-06
5.7311419e-06
2.6348656e-06
1.9830075e-06
1.8822199e-06
1.8544972e-06
1.7405322e-06
1.8105206e-06
1.9518034e-06
1.9329632e-06
1.8932531e-06
1.8356799e-06
1.9050444e-06
2.1363773e-06
2.2118354e-06
2.2359899e-06
2.233951e-06
2.2920857e-06
2.5518474e-06
2.6293882e-06
2.8104032e-06
3.1028461e-06
7.2444165e-06
1.1096518e-05
9.8570633e-06
3.8975554e-06
2.2046075e-06
1.9090228e-06
1.8876073e-06
1.9430746e-06
2.0145641e-06
2.0325805e-06
1.9424302e-06
1.9153345e-06
1.962086e-06
2.0790831e-06
2.1394049e-06
2.1759355e-06
2.2842372e-06
2.3562494e-06
2.5113304e-06
2.6316423e-06
2.7391546e-06
3.0141281e-06
3.365656e-06
7.2622369e-06
1.1431017e-05
1.2400201e-05
6.2472868e-06
2.6353297e-06
1.9229256e-06
1.9025565e-06
2.0179709e-06
2.0722167e-06
2.0341336e-06
1.9662324e-06
1.9972501e-06
2.0777163e-06
2.1121449e-06
2.1093531e-06
2.1697029e-06
2.3249491e-06
2.4167393e-06
2.5587367e-06
2.669002e-06
2.8709773e-06
3.1973497e-06
3.7500335e-06
7.1612778e-06
1.1036749e-05
1.2636067e-05
7.2357276e-06
2.6255846e-06
1.8926682e-06
1.909192e-06
2.0305716e-06
2.0608616e-06
1.9963725e-06
1.9743266e-06
2.1112616e-06
2.1817709e-06
2.1455993e-06
2.1233719e-06
2.2614904e-06
2.4605066e-06
2.5726519e-06
2.7394637e-06
3.0511953e-06
3.7236917e-06
4.7808494e-06
6.4217292e-06
7.5030774e-06
8.5244052e-06
1.1386564e-05
7.8563438e-06
3.3994416e-06
1.9396247e-06
1.8594737e-06
1.9856226e-06
2.0346763e-06
1.9649473e-06
1.9371552e-06
2.0692103e-06
2.2102132e-06
2.1988187e-06
2.144e-06
2.2262849e-06
2.4750019e-06
2.6422473e-06
2.7391011e-06
2.9778406e-06
3.5791539e-06
4.7586416e-06
6.3108852e-06
8.9317704e-06
5.9428132e-06
7.5302292e-06
6.9433537e-06
3.5975883e-06
1.9376273e-06
1.7555001e-06
1.8480723e-06
1.9400661e-06
1.907599e-06
1.8655822e-06
1.9402283e-06
2.1560541e-06
2.2015765e-06
2.1717995e-06
2.209382e-06
2.4047109e-06
2.6588612e-06
2.7716784e-06
2.9534226e-06
3.4441724e-06
4.7547246e-06
5.8998807e-06
1.2421467e-05
4.6408364e-06
4.6704506e-06
4.48264e-06
3.1087093e-06
1.8243766e-06
1.629874e-06
1.7102557e-06
1.8261179e-06
1.8095652e-06
1.7679791e-06
1.8155348e-06
2.0251953e-06
2.1501634e-06
2.1488565e-06
2.1697144e-06
2.2846778e-06
2.596793e-06
2.8080561e-06
3.0245223e-06
3.4753145e-06
4.9887869e-06
5.85041e-06
1.5572322e-05
4.1881956e-06
3.0575207e-06
2.8756328e-06
2.2010921e-06
1.6028642e-06
1.5345009e-06
1.6069821e-06
1.7272231e-06
1.7216207e-06
1.6774502e-06
1.707637e-06
1.8326439e-06
2.0716945e-06
2.1005996e-06
2.104351e-06
2.1661786e-06
2.3657617e-06
2.7550954e-06
3.0679907e-06
3.5603693e-06
5.5033186e-06
6.3016385e-06
1.8122738e-05
3.971601e-06
2.2176922e-06
2.077171e-06
1.743253e-06
1.4812631e-06
1.4669665e-06
1.5328684e-06
1.6484161e-06
1.6445566e-06
1.5986228e-06
1.6112456e-06
1.6819883e-06
1.8946424e-06
2.0157271e-06
2.0392594e-06
2.0910844e-06
2.2212163e-06
2.5114793e-06
2.9505982e-06
3.5079565e-06
5.5362248e-06
6.9137746e-06
1.9765345e-05
3.6877665e-06
1.7801522e-06
1.6821641e-06
1.524631e-06
1.3950139e-06
1.3964733e-06
1.4775543e-06
1.6001119e-06
1.5918836e-06
1.5404467e-06
1.53645e-06
1.5779484e-06
1.738468e-06
1.9372099e-06
2.0111362e-06
2.0641981e-06
2.1651284e-06
2.3763243e-06
2.6843167e-06
3.2477106e-06
5.2230079e-06
6.9483551e-06
2.2091324e-05
3.5296492e-06
1.5360314e-06
1.4540586e-06
1.3783258e-06
1.3073098e-06
1.3162527e-06
1.4081566e-06
1.536213e-06
1.5427848e-06
1.5101382e-06
1.4998553e-06
1.5280124e-06
1.6316518e-06
1.8454181e-06
1.9697485e-06
2.0422609e-06
2.1311663e-06
2.310399e-06
2.5625759e-06
2.9328042e-06
4.0613112e-06
5.6957134e-06
2.5813888e-05
3.5073838e-06
1.3805529e-06
1.2945479e-06
1.2624254e-06
1.2170066e-06
1.2239528e-06
1.3055622e-06
1.452877e-06
1.4990382e-06
1.4883875e-06
1.4708692e-06
1.4872009e-06
1.5585453e-06
1.764985e-06
1.9188022e-06
2.0081117e-06
2.0928343e-06
2.2372797e-06
2.4967645e-06
2.822033e-06
3.402708e-06
5.0945863e-06
2.9103273e-05
3.4596159e-06
1.2415108e-06
1.1723046e-06
1.1651242e-06
1.1195671e-06
1.1144201e-06
1.1980358e-06
1.3670789e-06
1.4441876e-06
1.4374398e-06
1.4057785e-06
1.4164911e-06
1.5030231e-06
1.7419574e-06
1.8992917e-06
2.008411e-06
2.1038937e-06
2.2458374e-06
2.5185714e-06
2.868222e-06
3.3233157e-06
4.8364622e-06
3.0193369e-05
3.0152603e-06
1.1004047e-06
1.0734032e-06
1.0764944e-06
1.0239718e-06
1.0263978e-06
1.13105e-06
1.2783966e-06
1.346469e-06
1.3443005e-06
1.336426e-06
1.3735829e-06
1.5007804e-06
1.7604007e-06
1.9355979e-06
2.1002137e-06
2.2450211e-06
2.4422441e-06
2.8744967e-06
3.3732188e-06
4.4825573e-06
1.9614557e-05
2.9773623e-05
2.4414788e-06
1.0065326e-06
1.014316e-06
1.0105038e-06
9.5896105e-07
9.8922443e-07
1.1057686e-06
1.2129017e-06
1.2766954e-06
1.3115626e-06
1.3425324e-06
1.4240365e-06
1.6491706e-06
2.0473856e-06
2.5366198e-06
3.3292263e-06
4.6626888e-06
6.5688342e-06
1.0598777e-05
1.571426e-05
2.9119091e-05
8.1909305e-05
2.8210323e-05
2.0349682e-06
9.6368092e-07
9.9635677e-07
9.8341147e-07
9.4321197e-07
9.9059894e-07
1.1110152e-06
1.2149866e-06
1.3024097e-06
1.4272026e-06
1.726857e-06
2.4696602e-06
4.066457e-06
7.0589367e-06
1.2515597e-05
2.1672518e-05
3.6018579e-05
5.5517279e-05
8.5911354e-05
0.00012687301
0.00020317253
0.00034088712
2.5983454e-05
1.6273876e-06
9.5230518e-07
9.9833957e-07
9.8447588e-07
9.5467855e-07
1.0244403e-06
1.1810714e-06
1.4102239e-06
1.9705158e-06
3.4881879e-06
7.2098051e-06
1.4985927e-05
2.8968553e-05
5.1411756e-05
8.6006506e-05
0.00013649458
0.00020754976
0.00028778571
0.00037807705
0.00047468751
0.00058365486
0.00070266382
2.3308271e-05
1.4049339e-06
9.5791165e-07
1.0092435e-06
1.0013054e-06
1.0111366e-06
1.2309568e-06
1.9175041e-06
3.9638603e-06
9.5737781e-06
2.2521708e-05
4.7572431e-05
8.9286278e-05
0.00015430464
0.00023740289
0.00032620153
0.00041408185
0.00049200245
0.00056349294
0.00063118752
0.00069586513
0.0007571221
0.00082585942
2.0187748e-05
1.3139632e-06
9.7607787e-07
1.0496846e-06
1.0995609e-06
1.4285289e-06
3.0547382e-06
8.6703905e-06
2.38152e-05
5.6415168e-05
0.00011466449
0.00020599926
0.00030357673
0.00039399459
0.00047027449
0.00053687191
0.00059319528
0.00063837753
0.00067332285
0.00069929607
0.00072042531
0.00073775359
0.0007585021
1.6833706e-05
1.2848531e-06
1.0270711e-06
1.2032406e-06
1.7391891e-06
4.6264584e-06
1.6075125e-05
4.7655659e-05
0.00011083743
0.00021564824
0.00032659306
0.00041936495
0.0004962279
0.00055611714
0.00060098816
0.00063304602
0.00065317851
0.00066433437
0.00066903343
0.00066673244
0.000648657
0.00060266796
0.00053720069
1.3492881e-05
1.2888459e-06
1.1598089e-06
1.9013235e-06
5.7004591e-06
2.3179709e-05
7.470116e-05
0.00017894929
0.00030603802
0.00041331591
0.0005004526
0.00056320597
0.00060481433
0.00062885485
0.00063978308
0.00064378979
0.00064276085
0.00063044358
0.00060043752
0.00054731441
0.0004749568
0.00038724383
0.00029413468
1.023836e-05
1.3249448e-06
1.6481189e-06
5.482331e-06
2.5824403e-05
9.3380345e-05
0.00023077863
0.00036978206
0.00048093297
0.00055988641
0.00060861718
0.00063234923
0.00063925966
0.0006355395
0.00062731081
0.00060943746
0.00057528948
0.00052514632
0.00046141943
0.00038628096
0.00029877529
0.00020619002
0.00013096683
7.4143182e-06
1.4720914e-06
3.5892187e-06
2.065116e-05
9.323464e-05
0.00026015056
0.00041467784
0.00053186222
0.0006061026
0.00064232602
0.00065360956
0.00064395741
0.00062751158
0.0006010244
0.00055980377
0.00051042776
0.00045685375
0.00039795468
0.00033037069
0.00025438006
0.00017548555
0.0001062758
6.5550167e-05
5.1395223e-06
2.0465472e-06
1.0874868e-05
6.7767248e-05
0.00024046552
0.00043184982
0.00056761802
0.0006450429
0.00067511513
0.0006764303
0.0006524286
0.00061847223
0.00056923801
0.00051096416
0.00045650791
0.00040507434
0.00035346366
0.00029861642
0.00023806973
0.00017315882
0.00011059782
6.2432901e-05
4.1085304e-05
3.7815996e-06
4.2369172e-06
3.4926922e-05
0.00017624382
0.00041074728
0.00058434774
0.00067576386
0.00070774876
0.00070297021
0.00066828574
0.00061686541
0.00054461744
0.00047465688
0.00041845347
0.00037049872
0.0003266992
0.00028355869
0.00023892551
0.00019164178
0.00014369341
9.8019473e-05
5.7047193e-05
3.2124517e-05
3.7399635e-06
1.1083956e-05
9.0943861e-05
0.00033197651
0.00056568184
0.00068926251
0.00073252816
0.00073286716
0.00068977238
0.0006200226
0.00052603414
0.00044976286
0.00039479249
0.00035146476
0.0003146349
0.00028098506
0.00024804081
0.00021484291
0.00018113741
0.00014526425
0.00010941612
7.9999801e-05
5.6226954e-05
7.3034141e-06
4.3587441e-05
0.00022595101
0.00048453167
0.00067030706
0.00074781179
0.00076142006
0.00072002966
0.00063505387
0.00052347754
0.00043867845
0.00038458455
0.00034486412
0.00031260319
0.0002853831
0.00026022128
0.00023640522
0.00021316325
0.00018798384
0.0001657773
0.00014640871
0.00012658444
0.0001041071
1.1744102e-05
6.1768939e-05
0.00029101439
0.00058058608
0.0007316928
0.0007767624
0.00075954577
0.0006804135
0.00055663576
0.00045129482
0.00039042598
0.00035165205
0.00031986867
0.00029473545
0.00027292961
0.00025339669
0.0002355927
0.00021838095
0.00020414264
0.00018964397
0.00017507847
0.00015994702
0.000143112
1.7716556e-05
8.1442891e-05
0.00034672575
0.00064604617
0.00077577818
0.0008000012
0.00074764717
0.00062964889
0.00049897816
0.00041512184
0.00037205578
0.00033892504
0.0003115017
0.00028994191
0.0002704169
0.00025329079
0.00023751536
0.00022404124
0.00021233763
0.00020094677
0.00018929568
0.00017731995
0.00016465278
3.6370498e-05
0.00013076924
0.00046548648