/*--------------------------------*- C++ -*----------------------------------*\
| =========                 |                                                 |
| \\      /  F ield         | OpenFOAM: The Open Source CFD Toolbox           |
|  \\    /   O peration     | Version:  2406                                  |
|   \\  /    A nd           | Website:  www.openfoam.com                      |
|    \\/     M anipulation  |                                                 |
\*---------------------------------------------------------------------------*/
FoamFile
{
    version     2.0;
    format      ascii;
    arch        "LSB;label=32;scalar=64";
    class       surfaceScalarField;
    location    "55";
    object      phi_0;
}
// * * * * * * * * * * * * * * * * * * * * * * * * * * * * * * * * * * * * * //

dimensions      [1 0 -1 0 0 0 0];

oriented        oriented;

internalField   nonuniform List<scalar> 
40800
(
0.00073335688
0.00081653196
-0.00079807209
0.00079945105
0.00092775793
-0.00091648354
0.00085687333
0.00092349152
-0.0008807607
0.00089502605
0.00086725106
-0.0010867329
0.00095156492
0.00083278773
-0.00081137223
0.00099535145
0.00074633721
-0.00083725003
0.0010463697
0.00069747515
-0.00071358318
0.0010860946
0.00065107471
-0.00070535659
0.0011358395
0.00058180976
-0.00058340394
0.001169592
0.00059539936
-0.00069269321
0.0012106292
0.00055219362
-0.00054394948
0.0012510673
0.00052485615
-0.00054637003
0.0012826199
0.00052493847
-0.0005713832
0.001316797
0.0004902487
-0.00051416486
0.0013660187
0.00053629987
-0.00054328986
0.0013820726
0.00055272255
-0.00060597606
0.0014179812
0.00048897147
-0.00050707573
0.0014902353
0.00063479848
-0.00064621265
0.0014503602
0.00058696986
-0.00064231375
0.001524583
0.00051482994
-0.00049978315
0.0016145469
0.00076975229
-0.000757096
0.0015985879
0.00079921539
-0.00084228503
0.0016095325
0.00069168281
-0.00070946336
0.0017432258
0.0008297062
-0.00084003321
0.0018747309
0.0010571966
-0.0011331736
0.0018353635
0.0011403556
-0.0012633893
0.0018871571
0.0010529599
-0.0011796118
0.0019704256
0.00099029063
-0.0010828141
0.0019933617
0.0011155332
-0.0011680888
0.0021552019
0.0012991602
-0.0013695179
0.0014103673
0.0024744697
-0.0015392257
0.00073093637
0.00086373724
0.00080403089
0.00091376227
0.00086071146
0.00097417216
0.00089899673
0.00064722688
0.00095343551
0.00082710395
0.00099519194
0.00066003174
0.0010443752
0.00069680953
0.001082484
0.0005870734
0.00113195
0.00059694552
0.0011637111
0.00050013347
0.001205825
0.00054366837
0.0012456257
0.00051252134
0.001274732
0.00050016954
0.001312713
0.00047043694
0.001358543
0.00052701277
0.0013673983
0.00049878463
0.0014206437
0.00047997768
0.0014753197
0.0006159357
0.0014352888
0.00053435176
0.0015506896
0.000554077
0.0016130528
0.00076343849
0.0015779614
0.00074157671
0.001623331
0.0006774959
0.0017582358
0.00083094478
0.0018607824
0.00093419469
0.0017846267
0.00094715311
0.0018349214
0.00093461361
0.0019955928
0.0009278338
0.0020460273
0.0010968719
0.0021040934
0.0013021722
0.0013374218
0.0023231864
0.00072595819
0.00087739317
0.00080423744
0.00086085941
0.000858465
0.0009607342
0.00090322376
0.00050761621
0.00095553638
0.00078360365
0.00099918334
0.00061486133
0.0010433918
0.00067814606
0.0010825914
0.00054263633
0.0011272392
0.00060426628
0.001160909
0.00045365997
0.0012008736
0.00050720015
0.0012412323
0.00050065349
0.001268263
0.00047554775
0.0013099367
0.00044990654
0.0013484149
0.00050288128
0.0013552009
0.00043815154
0.0014210659
0.00046468125
0.0014557339
0.00057924657
0.001427645
0.00047764444
0.0015660608
0.00060078034
0.0015978482
0.00072819585
0.001558638
0.00063847827
0.0016394176
0.00065924153
0.0017465615
0.00083941176
0.0018257992
0.00081903867
0.0017478055
0.00075044016
0.0017892435
0.00083081941
0.0020258936
0.0009187114
0.0021354956
0.0010286058
0.0021140007
0.0012397245
0.0013306193
0.0021742498
0.00071759495
0.00081224105
0.00079812297
0.00077361034
0.0008500913
0.00086286657
0.00090421059
0.00049146362
0.00095368884
0.00070122555
0.0010014093
0.00060710998
0.0010415192
0.00062541073
0.0010849783
0.00051946438
0.001123461
0.00057261206
0.0011609264
0.00045651028
0.0011977112
0.00045641002
0.0012368298
0.00047998211
0.0012621935
0.00042875897
0.0013072826
0.00044101722
0.0013356714
0.00045648918
0.00134754
0.00038114805
0.0014206605
0.00046274947
0.0014345084
0.00052520544
0.0014309077
0.00042247589
0.0015670529
0.00061938161
0.0015685036
0.00066929358
0.0015431678
0.00053337589
0.0016549546
0.00062606191
0.0017151306
0.00082574307
0.0017748803
0.00075131532
0.001738715
0.00061353412
0.0017660203
0.00075402421
0.0020045797
0.00095210115
0.0021831555
0.00097019736
0.002158223
0.0010371905
0.0011842274
0.0021040429
0.00070759088
0.00068015259
0.00078779837
0.00064815662
0.00083862937
0.000708938
0.0009018789
0.00057878652
0.0009487681
0.00060874358
0.0010000025
0.00060591805
0.0010388506
0.00054510149
0.0010861682
0.00050869837
0.0011203497
0.00049989664
0.001160214
0.00046963495
0.0011959962
0.00041139619
0.001230597
0.00044525183
0.0012581823
0.00037584928
0.0013029396
0.00043550985
0.0013233943
0.00041202561
0.0013465004
0.00035853055
0.001417206
0.00047007543
0.0014138755
0.00046688162
0.0014402155
0.0003709649
0.001556457
0.00060994971
0.0015328083
0.00058093241
0.0015355153
0.00045259631
0.0016728098
0.00057129235
0.0016845795
0.00077929708
0.0017186096
0.00072310132
0.0017581529
0.00056416854
0.0017874214
0.00072204592
0.0019452045
0.00097170962
0.002138443
0.000961351
0.0021583912
0.00083824326
0.00091614643
0.0020897437
0.0006986354
0.0005157077
0.00077510051
0.00050258383
0.00082601504
0.00056284284
0.0008926322
0.00069393583
0.0009394063
0.00052189811
0.00099217252
0.00058022038
0.0010335585
0.00044811362
0.0010818529
0.00050752041
0.0011153987
0.0004172027
0.0011553104
0.00044717319
0.001193496
0.00038507833
0.0012229692
0.00039605038
0.0012574796
0.00033806943
0.0012978062
0.00042134048
0.0013155328
0.00037610894
0.0013505513
0.00034983253
0.0014103666
0.00046579262
0.0013949911
0.00040631353
0.0014542857
0.0003359776
0.0015381121
0.00057616973
0.0015018608
0.00049741257
0.0015309719
0.00039843604
0.0016893433
0.00053541191
0.0016640214
0.00069047967
0.0016706433
0.00068588304
0.0017867734
0.00059474329
0.0018479928
0.00070348163
0.0019024868
0.00093523786
0.0020291646
0.00095505143
0.0021098889
0.00073763481
0.00069375041
0.0021012954
0.0006942854
0.00034150592
0.00076413193
0.00038678658
0.00081432344
0.00050338741
0.00087713862
0.00075143599
0.00092584495
0.00044164318
0.00097684399
0.00051315017
0.0010241749
0.00037314014
0.00107057
0.00048693704
0.0011070053
0.00035812436
0.0011458906
0.00039102673
0.0011869687
0.00037886891
0.0012130526
0.00033945603
0.0012556804
0.00031978834
0.0012894053
0.00038763714
0.0013085004
0.00034219051
0.0013537802
0.00033895678
0.0013984303
0.00044006171
0.0013787057
0.00034872993
0.0014693901
0.00033296752
0.0015146471
0.00052006668
0.0014773294
0.00041108446
0.0015318842
0.00038312786
0.0016938869
0.00054115455
0.0016480172
0.0005823502
0.0016328954
0.0005987354
0.0018012376
0.00064030969
0.0019080252
0.00069395621
0.0018968925
0.00083532867
0.0019217913
0.0008785364
0.0020240917
0.00071973274
0.00059296633
0.0021163709
0.0006957228
0.00020779218
0.00075894466
0.00031970751
0.00080840832
0.00053663068
0.00086062093
0.00071337314
0.00091136859
0.00039053199
0.00095711385
0.0004210952
0.0010106228
0.00035265981
0.0010531898
0.00042246864
0.0010938383
0.00033369065
0.0011329332
0.00033812849
0.0011739322
0.00036961703
0.0012009302
0.00029092072
0.0012488716
0.00031809415
0.0012762091
0.00033930728
0.0012986524
0.00030767706
0.0013513042
0.00033559763
0.0013798375
0.00039450896
0.001366662
0.00030259767
0.0014775104
0.00035960593
0.0014863587
0.00046239169
0.001462945
0.00032680051
0.0015378077
0.0004097137
0.0016779746
0.00055919863
0.0016349246
0.0004800794
0.001616392
0.00049537834
0.0017802628
0.00063667637
0.0019243404
0.00067750732
0.0018947545
0.00068995954
0.0018535411
0.00072782832
0.0019483661
0.00071229823
0.00062155758
0.0021155547
0.00070442527
0.00016053108
0.00076348494
0.00028237768
0.00081179108
0.00060694718
0.00085029553
0.00058661636
0.00089983649
0.00037614132
0.00094099369
0.00033897876
0.00099482863
0.00038103966
0.0010321769
0.00034264185
0.0010756135
0.00032828652
0.00111573
0.00030734049
0.0011528679
0.0003404845
0.001185371
0.00026030404
0.0012330938
0.00032337553
0.0012568477
0.0002888581
0.0012842098
0.00027416187
0.0013392221
0.00032769356
0.0013556328
0.00032805901
0.0013578074
0.00025486565
0.0014737248
0.00038369345
0.0014534261
0.00041100077
0.0014613303
0.00026771448
0.0015436531
0.0004279137
0.0016396679
0.00058151812
0.0016193391
0.00040215039
0.0016176589
0.00040446253
0.0017454871
0.00059021964
0.0018874014
0.00063742304
0.0018703571
0.00052986937
0.0018188179
0.00055679781
0.0018849101
0.00067420432
0.00070634086
0.0020723776
0.00073314218
0.00020059759
0.00077901375
0.00027585533
0.00082148292
0.00063625907
0.00085229298
0.0004033325
0.00089939124
0.00037230931
0.00093877042
0.00029989588
0.00098558764
0.0004315186
0.0010180333
0.00027928951
0.001059565
0.00032268182
0.0010982903
0.00029572704
0.0011292686
0.0002960856
0.0011674314
0.00024485676
0.0012085927
0.0003104033
0.0012318004
0.00024430074
0.0012638724
0.00024089296
0.0013138165
0.0003080733
0.0013247285
0.0002588419
0.0013476671
0.00021532565
0.001454939
0.00040176899
0.0014148138
0.00034684764
0.0014626417
0.00023755365
0.0015510421
0.00040757177
0.0015872264
0.00057849579
0.0015984023
0.00036379943
0.0016290612
0.00032930689
0.0017123811
0.00053178849
0.0018079947
0.00059117022
0.0018356654
0.00041089181
0.0018234944
0.00039384738
0.0018605736
0.00057975195
0.00075979385
0.0020080344
0.00083751032
0.00029458402
0.00082601777
0.00033892416
0.00085066161
0.00058538168
0.00087489531
0.00024924986
0.00091316162
0.00037333632
0.00095067206
0.00031423037
0.00098676476
0.00044927228
0.0010195844
0.00024707632
0.0010579221
0.00030128976
0.0010945784
0.0002873802
0.0011207811
0.00023695669
0.0011623148
0.0002378316
0.0011941403
0.00028044173
0.0012179455
0.00022139056
0.0012523093
0.00022053583
0.0012911359
0.00028939969
0.0013000891
0.00022016025
0.0013427869
0.00019554498
0.0014256366
0.00039667908
0.001376698
0.00028393598
0.0014576305
0.00022130315
0.0015535991
0.00036671914
0.0015295693
0.00050584345
0.001566869
0.00033680348
0.001646601
0.00028634969
0.0016974731
0.0004776523
0.0017199538
0.00054146804
0.0017794455
0.00037929914
0.0018368166
0.00029651573
0.0018863197
0.00045326301
0.00070410522
0.0019578051
0.00092788916
0.00037289283
0.00090258487
0.00039296977
0.0009096943
0.00046115095
0.00092927256
0.00019156171
0.00095284392
0.00037812214
0.00098245022
0.00035452247
0.0010036948
0.00038182623
0.0010367893
0.00025248793
0.0010692259
0.00026175057
0.0011007369
0.00026058195
0.0011258221
0.00017885736
0.0011672843
0.00022696796
0.0011922015
0.00023859046
0.0012173637
0.00021036084
0.0012541779
0.0002065175
0.0012812818
0.00026466155
0.0012898772
0.00020086332
0.001349063
0.00018880047
0.0013978329
0.00034431955
0.001351531
0.00022062696
0.0014499404
0.0002295083
0.0015437234
0.00032428701
0.001470832
0.00037632797
0.0015253372
0.00030430734
0.0016579814
0.00028629446
0.0016885203
0.00041631856
0.0016550909
0.00047631062
0.0017188551
0.00040558694
0.0018407036
0.00030457496
0.0019338554
0.00036726836
0.0005378713
0.0019553042
0.00092363091
0.00036020801
0.0009368721
0.00037112343
0.00095138156
0.0003190272
0.00098522006
0.00020013646
0.0010096733
0.00034558045
0.0010368733
0.00036749114
0.0010514753
0.00024318694
0.0010833563
0.00026959575
0.0011097304
0.00022403925
0.0011341787
0.00023012791
0.0011600585
0.00016202234
0.0011958391
0.00022341428
0.0012154711
0.00020458628
0.0012386024
0.00019564044
0.0012751581
0.00020815915
0.0012897887
0.00022843414
0.0012960709
0.00017950966
0.0013634351
0.00019744738
0.0013793464
0.00027549723
0.0013479572
0.00014403716
0.0014460696
0.00026288353
0.0015300986
0.00029859692
0.0014359899
0.00023223956
0.0014902464
0.0002731147
0.0016510296
0.00032097982
0.0016724035
0.00034487952
0.0016140168
0.00037764841
0.001659566
0.00041936943
0.0018143744
0.00039843302
0.0019345857
0.00035790617
0.00038211537
0.0019486036
0.00084997105
0.00022689564
0.00091568747
0.00028330639
0.00094435776
0.00024059275
0.00099058503
0.00024336075
0.0010232161
0.00026927132
0.0010563368
0.00032239723
0.0010827255
0.00011045752
0.001120518
0.00025660779
0.0011497548
0.00019893297
0.0011738555
0.00019437505
0.0012059622
0.00016970112
0.0012374015
0.00020763627
0.0012564692
0.00017093175
0.0012797154
0.00017643949
0.001313989
0.00021572325
0.001320942
0.00018090551
0.0013287723
0.00016502114
0.001394092
0.00021949147
0.0013809863
0.00022902676
0.0013754778
9.3818116e-05
0.0014494298
0.00028644455
0.0015134234
0.00029763578
0.0014357155
0.00011378909
0.0014791041
0.00022802891
0.0016300008
0.00036720279
0.0016573071
0.00029868784
0.0016078109
0.00024607262
0.0016319936
0.00036381129
0.0017683086
0.00047420641
0.0018904038
0.00041448695
0.00030868631
0.0019185628
0.00078535511
5.2158099e-05
0.00085883211
0.00017819988
0.00090529686
0.00027434917
0.00095974698
0.0003015958
0.0010010881
0.00018576676
0.0010367595
0.0002317386
0.0010762095
6.27019e-05
0.0011143128
0.00020855948
0.0011473259
0.00018193597
0.0011728159
0.00015381992
0.0012090848
0.00017109846
0.0012376554
0.00017261799
0.0012602872
0.00012765335
0.0012883047
0.0001473132
0.0013189897
0.00019431169
0.0013307304
0.00013501834
0.001349392
0.00014697032
0.0014144622
0.00023328899
0.0013862616
0.00017635546
0.0014208355
7.0678974e-05
0.0014682547
0.00027573918
0.0015008271
0.00030882416
0.0014686227
5.9617203e-05
0.0015059562
0.00016969141
0.0016085278
0.00040295932
0.0016340046
0.00029657411
0.001624258
0.00013769289
0.0016505813
0.00024536166
0.0017324905
0.00044757093
0.0018251398
0.00045497184
0.00030065178
0.0018690279
0.00080618548
-8.5754687e-05
0.0008490462
8.8928235e-05
0.00087884953
0.00040165906
0.00092274738
0.00033353152
0.00096208262
0.00012512482
0.0009952923
0.00012507151
0.0010454069
0.00011103637
0.001081946
0.00015231175
0.001118058
0.00016223309
0.0011470868
0.0001148016
0.0011844448
0.00015984187
0.0012113383
0.00014376802
0.0012380984
9.862491e-05
0.0012700252
0.00011698044
0.0012958947
0.00016568372
0.0013148858
0.00010500672
0.0013417389
0.00011933759
0.0013977682
0.00021580194
0.0013653123
0.00011990489
0.0014421881
6.2637035e-05
0.0014804635
0.00023440954
0.0014756197
0.00028452023
0.0014982927
6.9979129e-05
0.0015687202
0.00012724063
0.0016082812
0.00037482952
0.0016083302
0.00030200184
0.0016486739
0.00010105486
0.001706784
0.00014486777
0.0017386155
0.00032900157
0.0017740571
0.00041834458
0.00029483701
0.001815012
0.00091375071
-0.00013054017
0.00088678232
9.0832283e-05
0.00090058033
0.00051126168
0.00093034993
0.00031127563
0.00095898791
9.8982058e-05
0.00098229953
5.7731189e-05
0.0010252202
0.00023487499
0.0010517428
0.00012005547
0.0010815124
0.00014017249
0.001110929
8.6258927e-05
0.0011453522
0.00013161608
0.0011702124
0.00011764072
0.0011997715
7.3625078e-05
0.0012344028
9.1130256e-05
0.0012547262
0.00013149787
0.0012806921
7.9116106e-05
0.0013167422
9.0835459e-05
0.0013613006
0.00017077504
0.0013352949
8.7044878e-05
0.0014410173
8.3349262e-05
0.001471981
0.0001833158
0.0014345853
0.00021168995
0.0014992217
0.00011065842
0.0016111277
0.00012477797
0.0016013292
0.00027517636
0.0015738942
0.00025825029
0.0016590111
0.00013072891
0.001757339
0.0001059902
0.0017741287
0.0002008935
0.0017503166
0.00029591838
0.00026128538
0.0017780703
0.00095592428
-0.00011398016
0.00094561778
0.0001255847
0.00094835631
0.00051441544
0.0009655132
0.00023672975
0.0009830778
0.0001066537
0.001003416
6.3099522e-05
0.001033446
0.00029635607
0.0010547376
0.00010862515
0.0010778952
0.00010390403
0.0011063175
8.1547164e-05
0.0011347861
9.570531e-05
0.0011553812
8.3197748e-05
0.0011838649
5.3446085e-05
0.001217745
8.1230949e-05
0.0012298726
9.0373659e-05
0.0012566317
6.7937353e-05
0.0012928659
7.4779713e-05
0.0013220478
0.00012521925
0.0013037413
5.5017842e-05
0.0014169322
0.00012895041
0.001442241
0.00012680518
0.0013929788
0.00010762025
0.0014728579
0.00013752677
0.0016062312
0.00016380327
0.0015705906
0.00015727916
0.0015258848
0.00016032427
0.0016248651
0.00016158144
0.0017538269
0.00013140221
0.0017776459
0.00012602064
0.0017246082
0.00013848846
0.00019240624
0.001736429
0.00088960937
-6.2948944e-05
0.0009488747
0.00011395734
0.00096672172
0.00037316628
0.00099451486
0.00012485605
0.0010184554
0.0001230209
0.0010440874
0.00011933316
0.0010612442
0.00022699667
0.0010806861
0.00010786515
0.0010998663
7.8346408e-05
0.0011256839
9.4894087e-05
0.0011479881
6.4343611e-05
0.0011653592
4.9902719e-05
0.0011951417
5.7242113e-05
0.0012218077
8.0822891e-05
0.0012288754
5.5466867e-05
0.0012560519
7.4040508e-05
0.0012920767
6.7309555e-05
0.0013086668
7.7387535e-05
0.0013028779
2.260516e-06
0.0013969557
0.00016474697
0.0014144264
8.5092749e-05
0.0013690546
4.3613705e-06
0.0014430163
0.00013354275
0.0015662126
0.00020365368
0.0015339732
7.1892574e-05
0.0014899896
4.1966398e-05
0.0015758604
0.00015212678
0.0017063517
0.00020556057
0.0017359941
0.00010429378
0.0016983634
3.4775862e-05
9.1828473e-05
0.001694706
0.00088486554
-6.9849044e-06
0.00094140247
8.6491751e-05
0.00095728679
0.00018218298
0.00099060372
-1.1289673e-05
0.0010228259
0.00011552864
0.0010578658
0.0001645341
0.0010757192
5.7460902e-05
0.0011038283
9.1759267e-05
0.0011276708
5.9100422e-05
0.0011533624
9.8845253e-05
0.0011756847
4.8890355e-05
0.0011926573
3.0795376e-05
0.0012207805
7.9585912e-05
0.0012457036
6.7100425e-05
0.0012522183
3.525213e-05
0.0012734796
7.9852499e-05
0.0013033432
6.8152783e-05
0.0013030739
3.7624635e-05
0.001319765
-3.820036e-05
0.0013811341
0.00017999023
0.0013939601
5.5018612e-05
0.0013787052
-7.748205e-05
0.0014336315
0.00010742492
0.0015146749
0.000218313
0.0014955436
2.6549922e-05
0.0014769085
-5.5441733e-05
0.0015488096
9.4306513e-05
0.0016344236
0.00025460853
0.0016630191
0.00013379615
0.0016641414
4.5528021e-07
8.5198296e-06
0.0016675175
0.0009857831
1.9777688e-05
0.00098398636
0.00011092707
0.00098361899
7.7024689e-05
0.0010187862
-8.4312584e-05
0.0010466949
8.6914621e-05
0.0010751003
0.00018597947
0.0010952691
-8.4265912e-05
0.001124343
5.4117141e-05
0.0011526694
4.1839474e-05
0.0011771096
9.4049574e-05
0.001199932
4.1573781e-05
0.0012230952
1.4134421e-05
0.0012541425
7.7878723e-05
0.0012646991
5.6160811e-05
0.0012807412
2.2119094e-05
0.0013018536
7.4030837e-05
0.0013285377
6.9017582e-05
0.0013215774
2.0865091e-05
0.0013713067
-5.3123469e-05
0.0013851463
0.00014502139
0.0013869282
5.8535939e-05
0.0014096442
-0.00011169458
0.0014554151
6.2998905e-05
0.0014845447
0.00018221435
0.0014729846
1.391674e-05
0.0015027268
-8.2652825e-05
0.0015733101
3.0299996e-05
0.0015960308
0.00022041399
0.0016081715
0.000161483
0.001639151
2.0899007e-06
-1.9546666e-05
0.0016841034
0.0010042481
-2.3075862e-05
0.00098042667
0.00012775722
0.00098809735
0.00012506511
0.0010323328
-8.9362882e-05
0.0010631144
4.0759368e-05
0.0010850644
0.00013697257
0.0011180819
-0.00010331528
0.0011487286
1.5369928e-05
0.0011816834
2.427974e-05
0.0012054722
6.5533358e-05
0.0012351744
1.167188e-05
0.0012615565
8.9352801e-06
0.0012868859
3.7687481e-05
0.001317748
1.2442987e-05
0.0013314749
3.3920758e-05
0.0013492029
5.5091207e-05
0.0013770602
3.9306967e-05
0.0013655984
1.5644221e-05
0.0014446696
-5.0816586e-05
0.0014375877
7.1051296e-05
0.0014246302
5.9088114e-05
0.0014961458
-9.4891231e-05
0.0015255874
5.2385529e-05
0.0015079439
9.5386403e-05
0.0015017857
1.8810307e-05
0.0015683268
-4.1745151e-05
0.0016620953
-2.8051917e-05
0.0016245503
0.00012395456
0.0016059705
0.00011644439
0.001671736
6.0843366e-06
1.3258781e-05
0.0017388425
0.00077293689
0.00085192141
0.0011329211
0.0011481465
0.0011770204
0.0012282339
0.0012722092
0.0013110413
0.0013483502
0.0013815709
0.0014000864
0.0014408045
0.0014415477
0.0014417368
0.0015140681
0.0015464493
0.0015594605
0.0015496561
0.001621583
0.0015862044
0.0015771364
0.0016369245
0.001729509
0.0016837808
0.0016584683
0.0017802351
0.0018512275
0.0018404227
0.0017917721
0.0018327294
0.0019732083
0.0001219891
0.0018883703
0.00012824789
0.0017079147
0.00010665645
0.0016626182
0.00013862218
0.0016730374
0.00025095549
0.0017285851
0.00041711244
0.0017791831
0.00058014493
0.0017903723
0.00067463418
0.0017630395
0.00067869525
0.0017282181
0.00057777296
0.0017072784
0.00042908187
0.001733231
0.00041930207
0.0018143615
0.00059474142
0.0019341022
0.00086041341
0.0020675412
0.001061896
0.002144332
0.0011157192
0.0021368172
0.0010470065
0.0020666653
0.00094076612
0.0020009001
0.00090000164
0.0019894086
0.0010879113
0.002043871
0.0013455873
0.0021398965
0.0014095437
0.0022476567
0.0023245345
0.0014401484
1.9185996e-06
0.0016809709
-2.7320041e-05
0.0015788689
-2.0756538e-06
0.001574351
0.00010096377
0.0016510516
0.00024569795
0.001745875
0.00037007655
0.0018055404
0.0004517563
0.0018086001
0.00048850976
0.0017603445
0.00050214928
0.0016987908
0.00049426038
0.0016732279
0.00053075286
0.0017029486
0.00066885832
0.0017716801
0.00084546418
0.0018604522
0.00094379382
0.0019358876
0.00090134382
0.001958905
0.00078198196
0.0019472287
0.00070722567
0.0019441143
0.00072898185
0.0019899802
0.0008996183
0.0020931685
0.0012217628
0.0021974667
0.001466134
0.0022262852
0.0014708051
0.0022094358
0.002158558
0.0013549433
2.2447511e-05
0.0017221559
0.0001681103
0.0015067199
0.00027289711
0.0014974119
0.00032060697
0.0015404731
0.00028777054
0.0016091683
0.00021145988
0.0016516364
0.00013234451
0.0016748459
0.00013678478
0.0016853359
0.0002545367
0.0017039321
0.00045113373
0.0017448909
0.00066854449
0.0017970117
0.00085052139
0.0018302617
0.00091380463
0.0018363337
0.00084316961
0.0018163361
0.00070900163
0.0017840075
0.00063102856
0.0017692543
0.00068998386
0.0018072057
0.00084403522
0.0019217949
0.0010286209
0.0020736665
0.0012030682
0.0021996855
0.0012742794
0.0022356444
0.0011801433
0.0021998253
0.0021339058
0.0010942256
0.0003686554
0.0016247207
0.00046756208
0.0015992119
0.00046761905
0.0015326421
0.0003830543
0.0014937389
0.00025264731
0.0015005166
0.00015519593
0.001519382
0.00014495363
0.001554694
0.00023217172
0.001593975
0.00039148816
0.0016500297
0.00056421314
0.0017096999
0.00066986052
0.0017586882
0.00065797988
0.0017803425
0.00055774367
0.0017815207
0.00046481429
0.0017757103
0.0004923089
0.0017860603
0.00068244093
0.0018114672
0.00095216048
0.0018445957
0.0011854856
0.0018957973
0.0012641102
0.0019611618
0.0011783111
0.0020114124
0.0010118804
0.0020197962
0.00082958256
0.0020157964
0.0020533664
0.00080941014
-7.5659052e-05
0.0017561604
-2.5257077e-05
0.0015176451
-6.4737388e-06
0.0014446036
-2.1804327e-07
0.0014536118
5.9524139e-05
0.0014943575
0.0001832135
0.0015358684
0.0003749806
0.0015698946
0.00056873317
0.0015853306
0.00069223682
0.0015932422
0.00069819147
0.0016009422
0.00058126552
0.0016059655
0.00038439818
0.0016140543
0.00022869395
0.0016404548
0.00024108061
0.0017048696
0.00042941207
0.0017976526
0.00073248221
0.0018855242
0.001033253
0.0019367095
0.0012180375
0.0019408808
0.0012050563
0.0019180658
0.0010489467
0.0018871545
0.0008716702
0.0018519738
0.00078241252
0.0018410839
0.0019005075
0.00086450971
0.00041197435
0.0011506255
0.00015858301
0.0016172019
1.7565865e-05
0.0015274679
-1.2687926e-05
0.0015374644
9.5653099e-05
0.00157163
0.00027785703
0.0016094827
0.0004572507
0.0016292809
0.00057560669
0.0016196778
0.00060477553
0.0015865502
0.00053335736
0.0015469186
0.00040156705
0.0015187323
0.00031115091
0.0015166232
0.00034310841
0.0015471506
0.00048412424
0.0016185312
0.00068209905
0.0017193169
0.00084571335
0.0018139958
0.00090625763
0.0018723967
0.00085552475
0.0018851969
0.00074469499
0.0018778429
0.00067010446
0.0018711184
0.00072606708
0.0018740753
0.00090601688
0.0018802268
0.0018990035
0.0011544805
-0.00040761555
0.0014651504
-0.00031997494
0.0014598423
-0.00018821836
0.001368662
-2.2289751e-05
0.0013973422
0.0001012767
0.0014488115
0.0001857452
0.0015061434
0.00018516057
0.00153496
0.00012526654
0.0015421173
6.999562e-05
0.0015399335
7.5213985e-05
0.0015389635
0.00018306651
0.0015443353
0.00037891508
0.0015557913
0.00061918022
0.0015688076
0.00084910213
0.0015944707
0.00099625471
0.0016362729
0.00098240717
0.0016815989
0.00080489846
0.0017077644
0.00055052581
0.0017195208
0.00036753637
0.0017481058
0.00037452738
0.0018184849
0.00058342932
0.0019062357
0.00090853605
0.0019773813
0.0020050916
0.0012490172
-0.00060307121
0.0022257107
-0.00019029268
0.0012181637
6.6602237e-05
0.0012091957
0.0002632095
0.0012225107
0.00029231417
0.0012764187
0.00019328055
0.001328456
3.3973126e-05
0.0013765446
-9.865005e-05
0.001414727
-0.00015406259
0.001452097
-8.4793158e-05
0.0014999729
0.00012364028
0.0015567496
0.00039077825
0.0015961048
0.00065820677
0.0016188935
0.00085816796
0.0016231118
0.00093856921
0.0016221022
0.00086815982
0.0016194808
0.00069033474
0.0016106272
0.00051865265
0.0016053206
0.00046429969
0.0016287142
0.00053268738
0.0017044468
0.00069941808
0.0018169239
0.00092111766
0.0019274286
0.0019932313
0.0011109156
0.0012727208
0.0012328941
0.001219103
0.0014884508
0.0010690272
0.0014572097
0.00086669157
0.0014170593
0.00064849366
0.0013898959
0.00045776781
0.0013723305
0.00031530981
0.0013739657
0.0002150848
0.0013885531
0.00020491249
0.0014178349
0.00025700312
0.0014599649
0.0003648766
0.0015132466
0.00045435142
0.0015634476
0.00049847548
0.0015996686
0.00049096182
0.0016163477
0.00043785268
0.0016213286
0.00039272649
0.0016238914
0.00042210927
0.0016218623
0.00054962188
0.0016179603
0.0007243258
0.001613972
0.00090133469
0.0016360898
0.0010469788
0.0017026723
0.0011079876
0.0017898839
0.0018558338
0.0010410114
2.8330066e-05
0.0011384099
-4.7042023e-05
0.0014479892
-0.00010587499
0.0014335204
-0.0001376431
0.0014193653
-9.1512239e-05
0.0014007173
1.0105348e-05
0.0013933186
0.0001957423
0.0013819853
0.00041060995
0.0013766339
0.00060150677
0.0013797795
0.00071970206
0.0013958801
0.00071587848
0.0014306938
0.00058025516
0.0014665209
0.00035668637
0.0014959839
0.00012132876
0.0015231934
-3.0792179e-05
0.0015588372
-2.0026298e-05
0.0015984953
0.00011592988
0.0016374534
0.00039728966
0.0016572868
0.00073231472
0.0016609244
0.0010505018
0.0016596903
0.0012474253
0.00167417
0.0012443434
0.0017056527
0.0017380828
0.001052759
-0.001021026
0.0017956659
-0.001158489
0.0013160009
-0.0011193647
0.0012555628
-0.00097502466
0.0012871201
-0.00073240986
0.001311441
-0.0004009974
0.0013511306
-2.5103038e-05
0.0013695522
0.00036785442
0.0013727061
0.00069098311
0.00137138
0.00084331421
0.00136778
0.00079717147
0.0013749486
0.00060719284
0.0013854336
0.00032276308
0.0013977669
8.8774208e-05
0.0014166106
-7.5877219e-05
0.0014513192
-9.3803938e-05
0.0015119186
3.2751231e-05
0.0015802989
0.00028266435
0.0016393628
0.00057291464
0.001669725
0.00083287897
0.0016832352
0.00099376764
0.0016904761
0.001029149
0.0017012315
0.0017115646
0.00095044639
-0.00034300058
0.001853382
-0.00048765441
0.0012731729
-0.00056582141
0.0012175234
-0.00051049333
0.0012186408
-0.00035230255
0.0012768903
-0.00012363557
0.001336051
0.00012457319
0.0013770748
0.00032802916
0.0013903348
0.00043882685
0.0013919188
0.00045688038
0.0013856786
0.00041614655
0.0013798948
0.00036149097
0.0013761721
0.00030079269
0.0013721451
0.00023283319
0.001368302
0.00020559579
0.0013825679
0.00022217639
0.001427099
0.00030281985
0.0014947452
0.00042525898
0.0015682533
0.00052870289
0.0016224378
0.00057400709
0.001651477
0.00055938425
0.0016670771
0.00053025214
0.0016836086
0.0017031624
0.00053663943
0.00064706866
0.0012331974
0.0006441427
0.0013349664
0.00060002834
0.001283318
0.00053826794
0.0012653478
0.0005001995
0.0012907749
0.00042434315
0.0013216795
0.00032404979
0.0013560443
0.00018394226
0.0013802663
3.741817e-05
0.001391174
-8.4985079e-05
0.0013909568
-0.00013080552
0.0013888374
-7.8502516e-05
0.001387098
5.6302148e-05
0.0013845329
0.00025659907
0.0013807317
0.00047789257
0.0013834822
0.00065330413
0.0014083509
0.00076017393
0.001452483
0.00074709628
0.0015078102
0.00062269626
0.0015554393
0.00041956145
0.001585994
0.00022124065
0.0016106928
9.1310685e-05
0.0016421787
0.0016725691
8.4766941e-05
0.00048830362
0.0010938376
0.00082425371
0.0012945619
0.00098651686
0.0013015138
0.0010042328
0.0012803782
0.00087483433
0.0012840854
0.00062527419
0.0012954245
0.00030864532
0.0013154703
-2.9176185e-05
0.0013442568
-0.00032552774
0.0013662086
-0.00050917426
0.0013794057
-0.00053861502
0.0013896706
-0.00042582633
0.0014004047
-0.0001789624
0.0014063607
0.00017278369
0.0014119931
0.00054308858
0.0014178842
0.000856887
0.0014344891
0.0010091228
0.0014576475
0.00094968245
0.0014880982
0.00072544973
0.0015194586
0.000411761
0.0015419159
0.00010020601
0.0015622467
-0.00011928051
0.0015954842
0.0016352391
-0.00019651867
0.00023043438
0.0012450068
0.0005729266
0.0012619982
0.00079481024
0.0012728694
0.00088605313
0.0012613253
0.00079393705
0.0012637326
0.00055040704
0.0012711467
0.00020560914
0.0012869475
-0.00015431116
0.001308192
-0.00046388968
0.0013264723
-0.00065744089
0.0013425545
-0.00069256835
0.0013604957
-0.0005505963
0.0013869217
-0.00027816747
0.0014061663
8.1505533e-05
0.0014198175
0.00044909459
0.0014273386
0.00073571217
0.0014395237
0.00088298319
0.0014543963
0.0008622673
0.0014738922
0.00067447949
0.001492848
0.00038655799
0.0015093472
7.6642087e-05
0.0015246218
-0.00017038229
0.001554296
0.0015987897
-0.00028893414
0.00018205194
0.0013174002
0.00040150439
0.001255306
0.00055391755
0.0012565057
0.00060145379
0.0012561001
0.00052926062
0.0012622074
0.00034648007
0.0012703754
9.0087134e-05
0.0012820062
-0.00017557711
0.0012962784
-0.00038594252
0.0013134145
-0.00050402267
0.0013303475
-0.00051395861
0.0013458959
-0.00041722964
0.001369928
-0.0002320422
0.0013883214
-2.3422911e-06
0.0014011916
0.00022901242
0.0014115303
0.00042583302
0.0014258775
0.00054547393
0.0014424434
0.00056193502
0.0014600437
0.00047018889
0.0014773803
0.00029315023
0.0014875322
6.3079801e-05
0.0014966163