-0.5 	1.0262309
-0.48412699 	1.0262649
-0.46825397 	1.0240812
-0.45238095 	1.0439716
-0.43650794 	1.0640291
-0.42063492 	0.99036738
-0.40476191 	1.0404562
-0.3888889 	1.0957019
-0.37301588 	0.99736625
-0.35714287 	0.96367341
-0.34126985 	1.0327751
-0.32539684 	1.0804504
-0.30952379 	0.99585095
-0.29365078 	0.95264163
-0.27777776 	1.0314812
-0.26190475 	1.0498435
-0.24603173 	0.93291242
-0.23015872 	0.92127657
-0.2142857 	1.0548078
-0.19841269 	1.0601178
-0.18253967 	0.87291248
-0.16666666 	0.78995524
-0.15079364 	0.9228594
-0.13492063 	1.263136
-0.11904758 	1.2754826
-0.10317457 	0.96171265
-0.087301552 	0.78821344
-0.071428537 	0.76620392
-0.055555522 	0.83424269
-0.039682507 	0.95883533
-0.023809493 	1.1074125
-0.0079364777 	1.2426019
0.0079365373 	1.3555323
0.023809552 	1.3536198
0.039682567 	1.1305055
0.055555582 	1.1321023
0.071428597 	1.1456895
0.087301612 	0.90268991
0.10317463 	0.72172884
0.11904764 	0.6450873
0.13492066 	0.61914716
0.15079367 	0.78618543
0.16666669 	1.2081268
0.1825397 	1.1487887
0.19841272 	0.69701357
0.21428573 	0.64904019
0.23015875 	0.84964288
0.24603176 	1.0492332
0.26190484 	0.92320647
0.27777785 	0.77203757
0.29365087 	0.79181449
0.30952388 	0.94071372
0.3253969 	0.96940591
0.34126991 	0.85659614
0.35714292 	0.86001413
0.37301594 	0.97272407
0.38888895 	1.0748603
0.40476197 	1.0045147
0.42063499 	0.97012526
0.436508 	1.0911388
0.45238101 	1.1025005
0.46825403 	0.98271874
0.48412704 	1.1329806
0.5 	0.9583884
