/*--------------------------------*- C++ -*----------------------------------*\
| =========                 |                                                 |
| \\      /  F ield         | OpenFOAM: The Open Source CFD Toolbox           |
|  \\    /   O peration     | Version:  2406                                  |
|   \\  /    A nd           | Website:  www.openfoam.com                      |
|    \\/     M anipulation  |                                                 |
\*---------------------------------------------------------------------------*/
FoamFile
{
    version     2.0;
    format      ascii;
    arch        "LSB;label=32;scalar=64";
    class       volScalarField;
    location    "1200";
    object      k;
}
// * * * * * * * * * * * * * * * * * * * * * * * * * * * * * * * * * * * * * //

dimensions      [0 2 -2 0 0 0 0];

internalField   nonuniform List<scalar> 
132739
(
3.4091985e-06
2.7338061e-06
2.2677777e-06
1.9376363e-06
1.6942275e-06
1.5079178e-06
1.3608109e-06
1.2417161e-06
1.1433318e-06
1.0606982e-06
9.9032671e-07
9.2969039e-07
8.769125e-07
8.3057004e-07
7.8956355e-07
7.5303044e-07
7.2028417e-07
6.9077181e-07
6.6404291e-07
6.3972695e-07
6.175164e-07
5.9715392e-07
5.7842262e-07
5.6113843e-07
5.4514417e-07
5.3030488e-07
5.1650397e-07
5.0364035e-07
4.9162589e-07
4.803835e-07
4.6984542e-07
4.5995195e-07
4.5065026e-07
4.4189345e-07
4.3363979e-07
4.25852e-07
4.1849672e-07
4.1154399e-07
4.0496682e-07
3.9874083e-07
3.9284394e-07
3.8725609e-07
3.8195899e-07
3.7693593e-07
3.7217157e-07
3.676518e-07
3.6336354e-07
3.5929481e-07
3.5543356e-07
3.5177223e-07
3.482939e-07
3.4497971e-07
3.4181062e-07
3.3876775e-07
3.3585417e-07
3.3287392e-07
3.3003238e-07
3.271675e-07
3.2443122e-07
3.2174321e-07
3.1919733e-07
3.1683055e-07
3.1471066e-07
3.1280242e-07
3.1120106e-07
3.0979587e-07
3.0851522e-07
3.0733768e-07
3.0625293e-07
3.0525901e-07
3.0435548e-07
3.0355312e-07
3.0288192e-07
3.0227841e-07
3.0194689e-07
3.0159434e-07
3.0171725e-07
3.0204489e-07
3.0270986e-07
3.0386565e-07
3.056576e-07
3.0825513e-07
3.1184997e-07
3.16647e-07
3.2284145e-07
3.3059454e-07
3.4001718e-07
3.5116452e-07
3.6405312e-07
3.7870276e-07
3.9519561e-07
4.1371992e-07
4.3468339e-07
4.5808032e-07
4.8372582e-07
5.1185656e-07
5.4284797e-07
5.7711061e-07
6.1507727e-07
6.5726778e-07
7.0436414e-07
7.5712501e-07
8.169876e-07
8.8321691e-07
3.4092498e-06
2.7342111e-06
2.2683475e-06
1.9382724e-06
1.6948834e-06
1.5085719e-06
1.3614532e-06
1.2423426e-06
1.1439412e-06
1.0612908e-06
9.9090379e-07
9.3025364e-07
8.7746392e-07
8.3111156e-07
7.9009718e-07
7.5355807e-07
7.2080771e-07
6.9129304e-07
6.6456352e-07
6.402485e-07
6.1804033e-07
5.9768153e-07
5.7895505e-07
5.6167665e-07
5.45689e-07
5.3085692e-07
5.1706367e-07
5.0420795e-07
4.9220144e-07
4.8096683e-07
4.704362e-07
4.6054963e-07
4.5125409e-07
4.4250253e-07
4.3425303e-07
4.2646818e-07
4.1911446e-07
4.1216182e-07
4.0558318e-07
3.993541e-07
3.9345248e-07
3.8785826e-07
3.825532e-07
3.7752064e-07
3.7274537e-07
3.6821339e-07
3.6391173e-07
3.5982866e-07
3.5595163e-07
3.5227677e-07
3.4875702e-07
3.4536607e-07
3.4209405e-07
3.3893235e-07
3.3585927e-07
3.3289836e-07
3.3010624e-07
3.274424e-07
3.2492265e-07
3.2252261e-07
3.2025881e-07
3.1812952e-07
3.1613555e-07
3.143328e-07
3.1281735e-07
3.1152151e-07
3.1031383e-07
3.0915998e-07
3.0805734e-07
3.070155e-07
3.0604903e-07
3.0517548e-07
3.0441516e-07
3.0379288e-07
3.0333541e-07
3.0307072e-07
3.0305291e-07
3.0331923e-07
3.0387481e-07
3.0472275e-07
3.0590328e-07
3.0748548e-07
3.0958315e-07
3.1236066e-07
3.1604147e-07
3.2090388e-07
3.2726441e-07
3.354481e-07
3.4575059e-07
3.5840184e-07
3.7355124e-07
3.9127147e-07
4.1163962e-07
4.347279e-07
4.5995942e-07
4.8663321e-07
5.1484213e-07
5.4497272e-07
5.7752811e-07
6.1307245e-07
6.521513e-07
6.957535e-07
7.4273453e-07
8.0456133e-07
3.4093245e-06
2.734609e-06
2.2688878e-06
1.9388647e-06
1.6954854e-06
1.5091637e-06
1.3620265e-06
1.2428936e-06
1.1444687e-06
1.0617948e-06
9.9138461e-07
9.3071167e-07
8.7789954e-07
8.3152501e-07
7.9048857e-07
7.5392738e-07
7.2115482e-07
6.9161771e-07
6.6486543e-07
6.4052725e-07
6.1829542e-07
5.9791242e-07
5.7916116e-07
5.6185737e-07
5.4584369e-07
5.3098492e-07
5.1716435e-07
5.0428066e-07
4.9224558e-07
4.8098183e-07
4.7042154e-07
4.6050485e-07
4.511788e-07
4.4239639e-07
4.3411578e-07
4.2629963e-07
4.1891452e-07
4.1193045e-07
4.0532041e-07
3.9906004e-07
3.9312728e-07
3.8750212e-07
3.8216633e-07
3.7710331e-07
3.7229781e-07
3.6773581e-07
3.6340436e-07
3.5929138e-07
3.5538577e-07
3.5167568e-07
3.4815381e-07
3.448119e-07
3.4164565e-07
3.3861888e-07
3.3570343e-07
3.3293364e-07
3.3031749e-07
3.2780429e-07
3.2541202e-07
3.2311845e-07
3.2094672e-07
3.1889087e-07
3.1697374e-07
3.1509908e-07
3.1346746e-07
3.1191867e-07
3.1042383e-07
3.089828e-07
3.0760457e-07
3.063006e-07
3.0508302e-07
3.0396507e-07
3.0296207e-07
3.0209382e-07
3.0137565e-07
3.0096366e-07
3.0070985e-07
3.0067222e-07
3.0091999e-07
3.015321e-07
3.0262409e-07
3.0428679e-07
3.0650976e-07
3.0931068e-07
3.1272798e-07
3.1683771e-07
3.2177639e-07
3.2775971e-07
3.3508738e-07
3.4412687e-07
3.5527695e-07
3.6891843e-07
3.8536858e-07
4.049038e-07
4.2759234e-07
4.5333343e-07
4.8097374e-07
5.1008862e-07
5.4066575e-07
5.7295716e-07
6.0718537e-07
6.4458522e-07
6.8253988e-07
7.352542e-07
3.4094139e-06
2.7350079e-06
2.2694169e-06
1.9394371e-06
1.6960625e-06
1.5097297e-06
1.3625747e-06
1.2434223e-06
1.1449779e-06
1.0622853e-06
9.9185776e-07
9.3116894e-07
8.7834249e-07
8.3195524e-07
7.9090769e-07
7.5433697e-07
7.2155642e-07
6.9201281e-07
6.6525547e-07
6.4091362e-07
6.1867948e-07
5.9829548e-07
5.7954449e-07
5.6224217e-07
5.4623111e-07
5.3137605e-07
5.175602e-07
5.046822e-07
4.926537e-07
4.8139737e-07
4.7084526e-07
4.6093745e-07
4.5162091e-07
4.4284856e-07
4.3457849e-07
4.2677327e-07
4.193994e-07
4.124268e-07
4.0582838e-07
3.9957967e-07
3.9365853e-07
3.8804487e-07
3.827204e-07
3.7766841e-07
3.728736e-07
3.6832191e-07
3.640003e-07
3.5989673e-07
3.5599977e-07
3.5229898e-07
3.487833e-07
3.4544284e-07
3.4226771e-07
3.3925074e-07
3.3638811e-07
3.3367186e-07
3.3108808e-07
3.2863856e-07
3.2630692e-07
3.2409594e-07
3.2199379e-07
3.199878e-07
3.1806251e-07
3.1623716e-07
3.14474e-07
3.1278466e-07
3.1117302e-07
3.0964039e-07
3.0818687e-07
3.0681471e-07
3.0552969e-07
3.0434082e-07
3.032606e-07
3.0230486e-07
3.0149566e-07
3.0085289e-07
3.004265e-07
3.0031268e-07
3.0034511e-07
3.0064241e-07
3.0132123e-07
3.024269e-07
3.040394e-07
3.0624713e-07
3.0913385e-07
3.1277205e-07
3.1722454e-07
3.2255765e-07
3.2886478e-07
3.3629569e-07
3.4508059e-07
3.5553829e-07
3.6805581e-07
3.8306878e-07
4.0097835e-07
4.2234287e-07
4.4645588e-07
4.7285711e-07
5.0127059e-07
5.3155154e-07
5.6340116e-07
5.9764756e-07
6.3137414e-07
6.7663711e-07
3.4095114e-06
2.7353967e-06
2.2699294e-06
1.9399908e-06
1.6966204e-06
1.5102754e-06
1.363102e-06
1.2439286e-06
1.1454629e-06
1.0627496e-06
9.9230209e-07
9.3159437e-07
8.7875001e-07
8.3234573e-07
7.9128191e-07
7.5469557e-07
7.2189992e-07
6.923416e-07
6.6556987e-07
6.4121384e-07
6.1896568e-07
5.9856777e-07
5.7980292e-07
5.6248677e-07
5.4646184e-07
5.3159284e-07
5.1776293e-07
5.0487075e-07
4.9282793e-07
4.8155713e-07
4.7099039e-07
4.6106778e-07
4.5173627e-07
4.4294878e-07
4.3466339e-07
4.2684268e-07
4.1945316e-07
4.1246473e-07
4.058503e-07
3.9958542e-07
3.9364796e-07
3.8801783e-07
3.8267676e-07
3.7760808e-07
3.727965e-07
3.6822799e-07
3.6388955e-07
3.5976909e-07
3.5585537e-07
3.5213744e-07
3.4860575e-07
3.4525133e-07
3.4206526e-07
3.3903799e-07
3.3615965e-07
3.3342535e-07
3.3082355e-07
3.2834628e-07
3.2598392e-07
3.2373274e-07
3.2158626e-07
3.1953696e-07
3.1757738e-07
3.1570246e-07
3.1391004e-07
3.1218839e-07
3.1053484e-07
3.0895064e-07
3.0743708e-07
3.059967e-07
3.0463442e-07
3.0335784e-07
3.0217763e-07
3.0110745e-07
3.0016756e-07
2.9937046e-07
2.98788e-07
2.983851e-07
2.9822797e-07
2.9840044e-07
2.98939e-07
2.9988788e-07
3.0129691e-07
3.0322426e-07
3.0573899e-07
3.0892089e-07
3.1285638e-07
3.1763157e-07
3.2332747e-07
3.3002292e-07
3.3780902e-07
3.4681408e-07
3.5722931e-07
3.6933268e-07
3.8346735e-07
4.0016089e-07
4.1961101e-07
4.4135137e-07
4.6537493e-07
4.9173877e-07
5.2018195e-07
5.5127331e-07
5.8220033e-07
6.2312356e-07
3.4096176e-06
2.7357817e-06
2.2704306e-06
1.9405295e-06
1.6971615e-06
1.5108041e-06
1.3636119e-06
1.244418e-06
1.1459319e-06
1.0631989e-06
9.9273311e-07
9.3200848e-07
8.7914864e-07
8.3273031e-07
7.9165381e-07
7.5505606e-07
7.2225018e-07
6.9268275e-07
6.6590291e-07
6.4153975e-07
6.1928538e-07
5.9888211e-07
5.8011271e-07
5.6279276e-07
5.4676471e-07
5.3189325e-07
5.1806147e-07
5.0516797e-07
4.9312433e-07
4.8185316e-07
4.7128646e-07
4.6136425e-07
4.5203344e-07
4.4324691e-07
4.3496271e-07
4.2714337e-07
4.1975534e-07
4.1276849e-07
4.0615572e-07
3.9989253e-07
3.9395677e-07
3.8832837e-07
3.8298903e-07
3.7792209e-07
3.7311225e-07
3.6854548e-07
3.6420874e-07
3.6008996e-07
3.5617778e-07
3.5246144e-07
3.4893093e-07
3.4557652e-07
3.4238869e-07
3.393582e-07
3.3647816e-07
3.3374064e-07
3.3113432e-07
3.2865399e-07
3.2628967e-07
3.2403709e-07
3.2188847e-07
3.1983416e-07
3.1786329e-07
3.1597469e-07
3.1415783e-07
3.1240794e-07
3.107254e-07
3.0911e-07
3.0756117e-07
3.060801e-07
3.0467068e-07
3.0333964e-07
3.0209674e-07
3.0095519e-07
2.99932e-07
2.9904833e-07
2.9832988e-07
2.9780899e-07
2.9750532e-07
2.9745503e-07
2.9770385e-07
2.9830597e-07
2.9932259e-07
3.0081998e-07
3.0286823e-07
3.0554133e-07
3.0891853e-07
3.1308441e-07
3.1812674e-07
3.2413208e-07
3.3118208e-07
3.3935443e-07
3.4873281e-07
3.5942607e-07
3.7159757e-07
3.8546206e-07
4.0150267e-07
4.1926606e-07
4.387212e-07
4.601409e-07
4.8358959e-07
5.0981291e-07
5.3645943e-07
5.7269955e-07
3.4097345e-06
2.7361617e-06
2.2709202e-06
1.9410537e-06
1.697687e-06
1.5113163e-06
1.3641054e-06
1.244891e-06
1.1463843e-06
1.0636316e-06
9.9314718e-07
9.3240509e-07
8.7952898e-07
8.3309546e-07
7.9200473e-07
7.5539362e-07
7.2257514e-07
6.9299577e-07
6.6620458e-07
6.4183059e-07
6.1956581e-07
5.9915251e-07
5.8037339e-07
5.6304399e-07
5.4700672e-07
5.321262e-07
5.1828553e-07
5.0538325e-07
4.9333093e-07
4.8205116e-07
4.7147591e-07
4.615452e-07
4.5220594e-07
4.4341099e-07
4.3511839e-07
4.2729069e-07
4.1989433e-07
4.1289921e-07
4.062782e-07
4.0000685e-07
3.9406303e-07
3.8842666e-07
3.8307948e-07
3.7800482e-07
3.7318737e-07
3.6861307e-07
3.6426887e-07
3.601426e-07
3.562229e-07
3.5249889e-07
3.4896049e-07
3.4559812e-07
3.4240252e-07
3.3936462e-07
3.3647574e-07
3.3372786e-07
3.3111093e-07
3.286177e-07
3.2623847e-07
3.2396703e-07
3.2179593e-07
3.1971691e-07
3.1772133e-07
3.1580502e-07
3.139608e-07
3.121828e-07
3.1046763e-07
3.0881345e-07
3.0721956e-07
3.0568695e-07
3.0421885e-07
3.0282101e-07
3.0150196e-07
3.0027344e-07
2.9915071e-07
2.9815292e-07
2.9730349e-07
2.9662872e-07
2.9616976e-07
2.9596633e-07
2.9605904e-07
2.9649077e-07
2.9730805e-07
2.9856216e-07
3.0031e-07
3.0261491e-07
3.0554712e-07
3.0918391e-07
3.1360969e-07
3.1891485e-07
3.2519298e-07
3.3253624e-07
3.4103131e-07
3.5075632e-07
3.6179663e-07
3.7422454e-07
3.8826169e-07
4.0384661e-07
4.2045843e-07
4.382226e-07
4.5727013e-07
4.7842701e-07
4.9997242e-07
5.2975274e-07
3.4098589e-06
2.7365379e-06
2.271399e-06
1.9415636e-06
1.6981966e-06
1.5118124e-06
1.3645828e-06
1.2453482e-06
1.1468215e-06
1.0640497e-06
9.9354733e-07
9.3278864e-07
8.7989721e-07
8.3344963e-07
7.9234601e-07
7.5572311e-07
7.2289383e-07
6.9330458e-07
6.6650435e-07
6.4212209e-07
6.1984976e-07
5.9942957e-07
5.8064418e-07
5.6330906e-07
5.4726658e-07
5.3238133e-07
5.1853637e-07
5.0563019e-07
4.9357433e-07
4.8229137e-07
4.7171323e-07
4.6177991e-07
4.5243828e-07
4.4364121e-07
4.3534671e-07
4.275173e-07
4.2011942e-07
4.1312293e-07
4.0650071e-07
4.002283e-07
3.9428354e-07
3.8864634e-07
3.8329841e-07
3.7822305e-07
3.7340491e-07
3.6882985e-07
3.6448478e-07
3.6035747e-07
3.5643647e-07
3.5271089e-07
3.4917053e-07
3.4580565e-07
3.4260678e-07
3.3956457e-07
3.3667051e-07
3.3391657e-07
3.312929e-07
3.2879193e-07
3.2640461e-07
3.2412423e-07
3.2194331e-07
3.1985334e-07
3.1784521e-07
3.1591332e-07
3.1405052e-07
3.1225058e-07
3.1051007e-07
3.0882717e-07
3.0720084e-07
3.0563145e-07
3.0412147e-07
3.0267589e-07
3.0130241e-07
3.0001187e-07
2.988185e-07
2.9774026e-07
2.9679907e-07
2.9602135e-07
2.954317e-07
2.9506275e-07
2.9495325e-07
2.9514749e-07
2.9569482e-07
2.966489e-07
2.9806656e-07
3.000077e-07
3.0253535e-07
3.0571601e-07
3.0962046e-07
3.1432491e-07
3.1991171e-07
3.2646924e-07
3.3408981e-07
3.4286474e-07
3.5288037e-07
3.6421718e-07
3.7692914e-07
3.9124731e-07
4.0644303e-07
4.2232112e-07
4.388361e-07
4.5657092e-07
4.7429078e-07
4.9784749e-07
3.4099936e-06
2.7369095e-06
2.2718673e-06
1.9420605e-06
1.6986921e-06
1.5122939e-06
1.3650456e-06
1.245791e-06
1.1472445e-06
1.0644538e-06
9.9393381e-07
9.3315874e-07
8.8025217e-07
8.3379054e-07
7.926739e-07
7.5603889e-07
7.2319833e-07
6.9359855e-07
6.6678845e-07
6.4239691e-07
6.2011582e-07
5.9968734e-07
5.8089405e-07
5.635514e-07
5.4750172e-07
5.3260957e-07
5.1875796e-07
5.0584539e-07
4.9378337e-07
4.8249444e-07
4.7191054e-07
4.6197164e-07
4.5262462e-07
4.4382232e-07
4.3552274e-07
4.276884e-07
4.2028573e-07
4.1328459e-07
4.0665785e-07
4.0038102e-07
3.9443194e-07
3.8879049e-07
3.8343835e-07
3.7835877e-07
3.7353636e-07
3.6895695e-07
3.6460736e-07
3.6047534e-07
3.5654939e-07
3.5281857e-07
3.4927262e-07
3.4590173e-07
3.4269645e-07
3.3964752e-07
3.3674623e-07
3.3398419e-07
3.3135181e-07
3.2884106e-07
3.2644297e-07
3.2415003e-07
3.2195449e-07
3.1984798e-07
3.1782178e-07
3.1586972e-07
3.1398504e-07
3.1216151e-07
3.1039486e-07
3.0868232e-07
3.0702214e-07
3.0541409e-07
3.0385999e-07
3.0236402e-07
3.0093298e-07
2.9957666e-07
2.9830804e-07
2.9714363e-07
2.9610383e-07
2.9521226e-07
2.9450045e-07
2.9400171e-07
2.9375177e-07
2.9378926e-07
2.9415629e-07
2.9489882e-07
2.9606675e-07
2.9771427e-07
2.998997e-07
3.0268508e-07
3.0613587e-07
3.1032075e-07
3.1531188e-07
3.2118563e-07
3.2802343e-07
3.35912e-07
3.4493934e-07
3.551997e-07
3.6675201e-07
3.7976267e-07
3.9399602e-07
4.0886333e-07
4.2415197e-07
4.4014606e-07
4.5589196e-07
4.7539076e-07
3.4101495e-06
2.7372894e-06
2.2723369e-06
1.9425549e-06
1.6991829e-06
1.5127695e-06
1.3655016e-06
1.2462264e-06
1.1476599e-06
1.0648503e-06
9.9431268e-07
9.335213e-07
8.8059969e-07
8.3412425e-07
7.9299494e-07
7.563483e-07
7.2349707e-07
6.9388747e-07
6.6706833e-07
6.4266843e-07
6.2037962e-07
5.99944e-07
5.811441e-07
5.6379532e-07
5.4773997e-07
5.3284257e-07
5.1898611e-07
5.0606905e-07
4.9400289e-07
4.8271013e-07
4.7212269e-07
4.6218051e-07
4.5283044e-07
4.4402531e-07
4.357231e-07
4.278863e-07
4.2048131e-07
4.1347796e-07
4.0684911e-07
4.0057023e-07
3.9461914e-07
3.8897568e-07
3.8362149e-07
3.7853978e-07
3.7371514e-07
3.6913333e-07
3.6478116e-07
3.6064633e-07
3.5671731e-07
3.5298315e-07
3.4943353e-07
3.460586e-07
3.4284885e-07
3.3979496e-07
3.3688804e-07
3.3411961e-07
3.3148031e-07
3.2896186e-07
3.2655543e-07
3.242532e-07
3.2204732e-07
3.1992942e-07
3.1789083e-07
3.1592465e-07
3.1402394e-07
3.1218223e-07
3.1039478e-07
3.0865835e-07
3.0697088e-07
3.0533172e-07
3.0374219e-07
3.0220583e-07
3.0072876e-07
2.9931993e-07
2.9799142e-07
2.967587e-07
2.9564092e-07
2.9466079e-07
2.9384293e-07
2.9321695e-07
2.9281665e-07
2.9268005e-07
2.9284912e-07
2.933693e-07
2.9428891e-07
2.9565896e-07
2.9753333e-07
2.9996849e-07
3.0302326e-07
3.0675913e-07
3.1124006e-07
3.1653265e-07
3.2270654e-07
3.2983529e-07
3.379966e-07
3.4727283e-07
3.5774911e-07
3.6949152e-07
3.8271112e-07
3.9664137e-07
4.1101957e-07
4.2597668e-07
4.4072112e-07
4.5817506e-07
3.4103273e-06
2.7376796e-06
2.2728135e-06
1.9430553e-06
1.6996787e-06
1.5132488e-06
1.3659601e-06
1.2466632e-06
1.1480754e-06
1.0652457e-06
9.9468944e-07
9.3388096e-07
8.8094371e-07
8.3445397e-07
7.9331156e-07
7.566529e-07
7.2379061e-07
6.9417079e-07
6.6734219e-07
6.4293351e-07
6.2063648e-07
6.0019315e-07
5.8138602e-07
5.6403045e-07
5.4796868e-07
5.3306523e-07
5.1920305e-07
5.0628057e-07
4.9420925e-07
4.8291158e-07
4.7231946e-07
4.623728e-07
4.5301844e-07
4.4420918e-07
4.3590298e-07
4.2806231e-07
4.2065355e-07
4.1364652e-07
4.0701405e-07
4.0073161e-07
3.9477696e-07
3.8912995e-07
3.8377218e-07
3.7868684e-07
3.7385848e-07
3.6927284e-07
3.6491672e-07
3.6077778e-07
3.5684447e-07
3.5310581e-07
3.4955146e-07
3.4617151e-07
3.4295642e-07
3.3989686e-07
3.3698388e-07
3.3420885e-07
3.3156249e-07
3.2903629e-07
3.2662142e-07
3.2430973e-07
3.2209313e-07
3.1996316e-07
3.1791122e-07
3.1593001e-07
3.1401257e-07
3.1215236e-07
3.1034426e-07
3.0858451e-07
3.0687058e-07
3.0520132e-07
3.0357747e-07
3.0200195e-07
3.0048013e-07
2.9902015e-07
2.9763318e-07
2.9633361e-07
2.9513939e-07
2.9407174e-07
2.9315682e-07
2.9242368e-07
2.9190404e-07
2.9163276e-07
2.9164794e-07
2.9199077e-07
2.9270559e-07
2.9383967e-07
2.9544309e-07
2.9756862e-07
3.0027142e-07
3.0360843e-07
3.076383e-07
3.1242124e-07
3.1801916e-07
3.2449562e-07
3.3191703e-07
3.4035077e-07
3.4987619e-07
3.6053987e-07
3.7253385e-07
3.8552265e-07
3.9900851e-07
4.1304677e-07
4.2695786e-07
4.432285e-07
3.4105054e-06
2.738063e-06
2.273279e-06
1.943543e-06
1.7001621e-06
1.5137168e-06
1.3664083e-06
1.2470905e-06
1.1484824e-06
1.0656333e-06
9.9505902e-07
9.3423385e-07
8.8128123e-07
8.347774e-07
7.9362207e-07
7.5695155e-07
7.2407836e-07
6.9444851e-07
6.6761064e-07
6.4319336e-07
6.2088837e-07
6.0043766e-07
5.8162366e-07
5.6426169e-07
5.4819397e-07
5.3328496e-07
5.1941759e-07
5.0649026e-07
4.944144e-07
4.8311247e-07
4.7251633e-07
4.6256588e-07
4.5320793e-07
4.4439526e-07
4.360858e-07
4.2824199e-07
4.2083021e-07
4.1382025e-07
4.0718491e-07
4.0089963e-07
3.9494218e-07
3.8929236e-07
3.8393176e-07
3.7884355e-07
3.7401225e-07
3.694236e-07
3.6506435e-07
3.6092215e-07
3.5698542e-07
3.5324319e-07
3.4968505e-07
3.4630108e-07
3.430817e-07
3.4001753e-07
3.3709953e-07
3.3431896e-07
3.3166661e-07
3.2913383e-07
3.2671178e-07
3.2439211e-07
3.2216659e-07
3.2002673e-07
3.1796393e-07
3.159706e-07
3.1403956e-07
3.1216412e-07
3.1033876e-07
3.0855934e-07
3.0682293e-07
3.0512802e-07
3.0347488e-07
3.0186591e-07
3.0030589e-07
2.9880227e-07
2.9736544e-07
2.9600892e-07
2.9474965e-07
2.9360786e-07
2.9260658e-07
2.9177269e-07
2.9113638e-07
2.907313e-07
2.9059445e-07
2.9076568e-07
2.9128753e-07
2.9220482e-07
2.9356437e-07
2.9541495e-07
2.9780736e-07
3.0079393e-07
3.0442824e-07
3.0876493e-07
3.1385976e-07
3.1976946e-07
3.2655227e-07
3.3426667e-07
3.4297557e-07
3.5273733e-07
3.6361887e-07
3.7573209e-07
3.8835193e-07
4.0146948e-07
4.1448694e-07
4.2967625e-07
3.4106781e-06
2.7384307e-06
2.2737257e-06
1.9440114e-06
1.7006264e-06
1.5141661e-06
1.3668388e-06
1.2475012e-06
1.1488736e-06
1.0660062e-06
9.9541474e-07
9.3457369e-07
8.8160645e-07
8.3508914e-07
7.9392138e-07
7.572394e-07
7.243556e-07
6.9471593e-07
6.6786895e-07
6.4344321e-07
6.2113033e-07
6.0067225e-07
5.8185135e-07
5.6448292e-07
5.4840913e-07
5.3349441e-07
5.1962166e-07
5.0668923e-07
4.9460854e-07
4.8330201e-07
4.7270149e-07
4.6274686e-07
4.5338491e-07
4.4456838e-07
4.362552e-07
4.284078e-07
4.2099252e-07
4.1397914e-07
4.0734046e-07
4.0105188e-07
3.9509118e-07
3.8943812e-07
3.8407429e-07
3.7898282e-07
3.7414824e-07
3.6955626e-07
3.6519361e-07
3.6104792e-07
3.5710759e-07
3.5336162e-07
3.4979959e-07
3.4641152e-07
3.4318781e-07
3.4011904e-07
3.3719613e-07
3.3441023e-07
3.3175216e-07
3.2921315e-07
3.2678431e-07
3.2445711e-07
3.2222316e-07
3.2007388e-07
3.1800065e-07
3.1599562e-07
3.1405147e-07
3.1216138e-07
3.1031959e-07
3.0852158e-07
3.0676406e-07
3.0504513e-07
3.0336462e-07
3.0172441e-07
3.0012871e-07
2.9858431e-07
2.9710086e-07
2.9569107e-07
2.9437093e-07
2.9315962e-07
2.9208007e-07
2.9115817e-07
2.9042255e-07
2.8990495e-07
2.8964001e-07
2.8966501e-07
2.9001989e-07
2.9074686e-07
2.9189016e-07
2.9349574e-07
2.9561112e-07
2.9828528e-07
3.0156795e-07
3.0550925e-07
3.1015993e-07
3.1557113e-07
3.2179472e-07
3.2888307e-07
3.3688845e-07
3.4586947e-07
3.5585064e-07
3.6702314e-07
3.788553e-07
3.9116276e-07
4.0336717e-07
4.1749264e-07
3.4108389e-06
2.7387814e-06
2.2741519e-06
1.944458e-06
1.7010691e-06
1.5145948e-06
1.3672496e-06
1.2478932e-06
1.1492472e-06
1.0663623e-06
9.9575444e-07
9.3489826e-07
8.8191703e-07
8.3538684e-07
7.9420722e-07
7.5751429e-07
7.2462038e-07
6.9497134e-07
6.6811566e-07
6.4368183e-07
6.2136143e-07
6.0089634e-07
5.8206891e-07
5.6469436e-07
5.4861485e-07
5.3369477e-07
5.1981696e-07
5.0687979e-07
4.9479461e-07
4.8348386e-07
4.7287932e-07
4.6292087e-07
4.5355528e-07
4.4473527e-07
4.3641876e-07
4.2856815e-07
4.2114976e-07
4.1413338e-07
4.0749175e-07
4.0120029e-07
3.9523675e-07
3.8958087e-07
3.8421424e-07
3.7911996e-07
3.7428254e-07
3.6968768e-07
3.6532209e-07
3.6117339e-07
3.5722994e-07
3.5348074e-07
3.4991533e-07
3.465237e-07
3.4329622e-07
3.4022345e-07
3.3729622e-07
3.3450562e-07
3.3184248e-07
3.2929792e-07
3.2686303e-07
3.2452913e-07
3.222877e-07
3.2013011e-07
3.180477e-07
3.1603246e-07
3.140769e-07
3.1217403e-07
3.1031785e-07
3.0850352e-07
3.0672743e-07
3.0498732e-07
3.0328265e-07
3.0161484e-07
2.9998759e-07
2.9840712e-07
2.9688243e-07
2.9542552e-07
2.9405153e-07
2.927788e-07
2.9162865e-07
2.9062553e-07
2.8979678e-07
2.8917297e-07
2.8878755e-07
2.8867632e-07
2.888776e-07
2.8943161e-07
2.9038018e-07
2.9176674e-07
2.9363578e-07
2.9603291e-07
2.9900425e-07
3.0259611e-07
3.0685488e-07
3.1182698e-07
3.1755918e-07
3.240982e-07
3.3149107e-07
3.3978618e-07
3.4901958e-07
3.5928696e-07
3.7042171e-07
3.8203237e-07
3.9355136e-07
4.0672365e-07
3.410996e-06
2.739118e-06
2.274561e-06
1.9448866e-06
1.7014936e-06
1.5150053e-06
1.3676426e-06
1.2482679e-06
1.149604e-06
1.0667022e-06
9.9607862e-07
9.3520786e-07
8.8221322e-07
8.3567066e-07
7.9447962e-07
7.5777614e-07
7.2487247e-07
6.9521437e-07
6.6835029e-07
6.4390865e-07
6.2158097e-07
6.0110909e-07
5.822753e-07
5.6489481e-07
5.4880971e-07
5.3388437e-07
5.2000161e-07
5.0705975e-07
4.9497013e-07
4.8365516e-07
4.7304662e-07
4.6308435e-07
4.537151e-07
4.4489159e-07
4.365717e-07
4.2871783e-07
4.2129629e-07
4.1427684e-07
4.0763222e-07
4.0133784e-07
3.9537141e-07
3.8971269e-07
3.8434321e-07
3.7924611e-07
3.7440585e-07
3.6980811e-07
3.654396e-07
3.6128792e-07
3.573414e-07
3.5358903e-07
3.5002032e-07
3.4662523e-07
3.433941e-07
3.4031745e-07
3.3738609e-07
3.3459101e-07
3.3192305e-07
3.2937325e-07
3.2693265e-07
3.2459247e-07
3.2234404e-07
3.2017867e-07
3.1808765e-07
3.1606281e-07
3.140965e-07
3.1218162e-07
3.1031195e-07
3.0848237e-07
3.0668898e-07
3.049292e-07
3.0320213e-07
3.0150879e-07
2.998524e-07
2.9823865e-07
2.9667595e-07
2.9517564e-07
2.9375212e-07
2.924229e-07
2.9120876e-07
2.9013318e-07
2.892223e-07
2.8850528e-07
2.8801403e-07
2.8778273e-07
2.8784788e-07
2.8824756e-07
2.8902169e-07
2.902116e-07
2.9185952e-07
2.9400846e-07
2.9670176e-07
2.9998248e-07
3.0389339e-07
3.0847689e-07
3.1377543e-07
3.1983071e-07
3.266858e-07
3.3437934e-07
3.4296045e-07
3.5244223e-07
3.6297066e-07
3.7395867e-07
3.8487242e-07
3.9722348e-07
3.4111484e-06
2.7394441e-06
2.2749552e-06
1.9452985e-06
1.701901e-06
1.515399e-06
1.3680192e-06
1.2486267e-06
1.1499455e-06
1.0670273e-06
9.9638842e-07
9.3550352e-07
8.8249584e-07
8.3594127e-07
7.9473918e-07
7.580255e-07
7.2511241e-07
6.9544557e-07
6.6857337e-07
6.4412418e-07
6.2178947e-07
6.0131104e-07
5.8247114e-07
5.6508492e-07
5.4899445e-07
5.3406406e-07
5.2017656e-07
5.0723022e-07
4.9513638e-07
4.8381741e-07
4.7320508e-07
4.6323919e-07
4.538665e-07
4.4503969e-07
4.3671664e-07
4.2885973e-07
4.2143525e-07
4.1441295e-07
4.0776556e-07
4.0146846e-07
3.9549936e-07
3.8983801e-07
3.8446592e-07
3.793662e-07
3.7452332e-07
3.6992293e-07
3.6555172e-07
3.6139728e-07
3.5744792e-07
3.5369261e-07
3.5012083e-07
3.4672254e-07
3.4348801e-07
3.4040776e-07
3.3747254e-07
3.3467329e-07
3.3200083e-07
3.2944613e-07
3.2700018e-07
3.246541e-07
3.2239914e-07
3.2022653e-07
3.181275e-07
3.1609377e-07
3.1411756e-07
3.1219163e-07
3.1030957e-07
3.0846601e-07
3.0665679e-07
3.0487905e-07
3.0313156e-07
3.0141497e-07
2.9973209e-07
2.9808814e-07
2.9649097e-07
2.9495134e-07
2.9348301e-07
2.9210276e-07
2.9083042e-07
2.8968839e-07
2.8870176e-07
2.878987e-07
2.8730991e-07
2.8696845e-07
2.8690942e-07
2.8716954e-07
2.8778674e-07
2.8880025e-07
2.9025018e-07
2.921771e-07
2.9462202e-07
2.9762541e-07
3.0122703e-07
3.0546581e-07
3.1038051e-07
3.1600871e-07
3.2238949e-07
3.2955611e-07
3.3755606e-07
3.4639009e-07
3.5620492e-07
3.6664861e-07
3.770635e-07
3.887316e-07
3.4112991e-06
2.7397589e-06
2.2753353e-06
1.9456954e-06
1.7022931e-06
1.5157774e-06
1.3683809e-06
1.248971e-06
1.1502727e-06
1.0673385e-06
9.966847e-07
9.3578605e-07
8.8276571e-07
8.3619949e-07
7.9498665e-07
7.5826304e-07
7.2534074e-07
6.9566539e-07
6.6878528e-07
6.4432874e-07
6.2198719e-07
6.0150237e-07
5.8265651e-07
5.6526471e-07
5.4916901e-07
5.342337e-07
5.2034155e-07
5.0739083e-07
4.9529285e-07
4.8396995e-07
4.7335388e-07
4.6338444e-07
4.5400835e-07
4.4517829e-07
4.3685211e-07
4.2899219e-07
4.2156479e-07
4.1453966e-07
4.0788951e-07
4.0158972e-07
3.9561796e-07
3.8995399e-07
3.845793e-07
3.7947697e-07
3.7463148e-07
3.7002844e-07
3.6565455e-07
3.6149736e-07
3.5754517e-07
3.5378693e-07
3.502121e-07
3.468106e-07
3.4357269e-07
3.4048886e-07
3.3754981e-07
3.3474642e-07
3.3206948e-07
3.2950993e-07
3.2705868e-07
3.2470679e-07
3.2244541e-07
3.2026569e-07
3.1815882e-07
3.1611641e-07
3.1413055e-07
3.1219386e-07
3.1029979e-07
3.0844275e-07
3.0661834e-07
3.0482346e-07
3.0305658e-07
3.0131804e-07
2.9961028e-07
2.9793809e-07
2.9630886e-07
2.9473281e-07
2.9322313e-07
2.9179596e-07
2.9047053e-07
2.892684e-07
2.882137e-07
2.8733349e-07
2.8665745e-07
2.8621742e-07
2.86047e-07
2.8618152e-07
2.8665741e-07
2.8751206e-07
2.887839e-07
2.905117e-07
2.9273411e-07
2.9548931e-07
2.9881459e-07
3.0274615e-07
3.0731959e-07
3.1256916e-07
3.1853018e-07
3.2523305e-07
3.3271728e-07
3.4099735e-07
3.501405e-07
3.6008522e-07
3.7005857e-07
3.8114159e-07
3.4114513e-06
2.7400679e-06
2.2757045e-06
1.946079e-06
1.7026711e-06
1.5161417e-06
1.3687284e-06
1.2493013e-06
1.1505864e-06
1.0676365e-06
9.9696815e-07
9.3605604e-07
8.8302329e-07
8.3644566e-07
7.9522231e-07
7.5848902e-07
7.2555776e-07
6.958741e-07
6.6898627e-07
6.4452255e-07
6.2217432e-07
6.0168327e-07
5.8283159e-07
5.6543434e-07
5.4933352e-07
5.343934e-07
5.2049673e-07
5.0754175e-07
4.9543973e-07
4.8411301e-07
4.7349331e-07
4.6352041e-07
4.5414102e-07
4.4530779e-07
4.3697857e-07
4.2911572e-07
4.2168549e-07
4.146576e-07
4.0800476e-07
4.0170233e-07
3.9572798e-07
3.9006143e-07
3.8468418e-07
3.7957929e-07
3.7473121e-07
3.7012555e-07
3.6574898e-07
3.6158904e-07
3.5763401e-07
3.5387281e-07
3.5029489e-07
3.4689013e-07
3.4364877e-07
3.4056126e-07
3.3761826e-07
3.348106e-07
3.3212905e-07
3.2956446e-07
3.2710772e-07
3.2474981e-07
3.2248178e-07
3.2029473e-07
3.181798e-07
3.161285e-07
3.1413281e-07
3.1218525e-07
3.1027909e-07
3.0840861e-07
3.0656917e-07
3.0475749e-07
3.0297179e-07
3.0121214e-07
2.9948065e-07
2.9778174e-07
2.9612241e-07
2.9451239e-07
2.9296439e-07
2.9149398e-07
2.9011972e-07
2.8886237e-07
2.8774514e-07
2.8679435e-07
2.8603863e-07
2.855087e-07
2.8523721e-07
2.8525817e-07
2.8560665e-07
2.8631866e-07
2.8743086e-07
2.8898028e-07
2.9100377e-07
2.935373e-07
2.9661587e-07
3.0027331e-07
3.045427e-07
3.0945559e-07
3.1504415e-07
3.2133638e-07
3.2836559e-07
3.3615513e-07
3.4471677e-07
3.5421575e-07
3.637739e-07
3.743296e-07
3.4116e-06
2.7403656e-06
2.2760606e-06
1.946449e-06
1.7030352e-06
1.516492e-06
1.3690622e-06
1.2496182e-06
1.1508869e-06
1.0679215e-06
9.9723889e-07
9.363136e-07
8.8326875e-07
8.3667997e-07
7.9544634e-07
7.5870354e-07
7.2576347e-07
6.9607165e-07
6.6917625e-07
6.447055e-07
6.2235072e-07
6.0185356e-07
5.8299616e-07
5.6559356e-07
5.4948773e-07
5.3454288e-07
5.2064175e-07
5.0768256e-07
4.9557655e-07
4.8424604e-07
4.7362273e-07
4.636464e-07
4.5426371e-07
4.4542733e-07
4.3709506e-07
4.2922925e-07
4.2179616e-07
4.1476548e-07
4.081099e-07
4.0180478e-07
3.9582776e-07
3.9015855e-07
3.8477863e-07
3.7967106e-07
3.7482025e-07
3.7021182e-07
3.6583239e-07
3.6166949e-07
3.5771138e-07
3.5394696e-07
3.5036565e-07
3.469573e-07
3.437121e-07
3.4062048e-07
3.3767305e-07
3.3486058e-07
3.321738e-07
3.2960351e-07
3.2714055e-07
3.2477581e-07
3.2250028e-07
3.2030498e-07
3.1818102e-07
3.1611981e-07
3.1411325e-07
3.1215376e-07
3.1023451e-07
3.0834962e-07
3.0649431e-07
3.046651e-07
3.0286006e-07
3.0107903e-07
2.9932387e-07
2.9759872e-07
2.9591023e-07
2.9426773e-07
2.926835e-07
2.9117264e-07
2.8975319e-07
2.8844522e-07
2.8727116e-07
2.862564e-07
2.8542874e-07
2.8481798e-07
2.8445563e-07
2.843745e-07
2.8460852e-07
2.8519242e-07
2.8616136e-07
2.8755089e-07
2.8939625e-07
2.9173159e-07
2.9458986e-07
2.9800276e-07
3.0200115e-07
3.0661429e-07
3.1187189e-07
3.1779943e-07
3.2442721e-07
3.3177664e-07
3.3985566e-07
3.4881404e-07
3.580088e-07
3.6812032e-07
3.4117523e-06
2.7406587e-06
2.2764065e-06
1.946806e-06
1.7033856e-06
1.5168284e-06
1.3693821e-06
1.2499213e-06
1.151174e-06
1.0681935e-06
9.9749679e-07
9.3655856e-07
8.835018e-07
8.3690208e-07
7.9565837e-07
7.5890626e-07
7.2595759e-07
6.9625778e-07
6.6935495e-07
6.4487728e-07
6.2251605e-07
6.0201288e-07
5.8314986e-07
5.6574198e-07
5.4963118e-07
5.3468166e-07
5.2077612e-07
5.0781275e-07
4.9570278e-07
4.843685e-07
4.7374159e-07
4.6376181e-07
4.5437581e-07
4.4553623e-07
4.3720087e-07
4.2933205e-07
4.2189602e-07
4.1486245e-07
4.0820402e-07
4.0189606e-07
3.9591622e-07
3.9024416e-07
3.8486137e-07
3.7975087e-07
3.7489706e-07
3.7028552e-07
3.6590286e-07
3.6173658e-07
3.5777492e-07
3.5400672e-07
3.504214e-07
3.4700875e-07
3.4375892e-07
3.406623e-07
3.3770943e-07
3.3489103e-07
3.3219778e-07
3.2962041e-07
3.2714971e-07
3.247765e-07
3.224917e-07
3.2028626e-07
3.1815125e-07
3.1607804e-07
3.1405844e-07
3.1208482e-07
3.1015028e-07
3.0824882e-07
3.063756e-07
3.0452702e-07
3.0270102e-07
3.0089731e-07
2.9911756e-07
2.9736571e-07
2.9564813e-07
2.9397383e-07
2.9235472e-07
2.9080551e-07
2.8934375e-07
2.8798881e-07
2.8676245e-07
2.8568923e-07
2.8479617e-07
2.8411231e-07
2.8366818e-07
2.834956e-07
2.8362717e-07
2.8409628e-07
2.8493722e-07
2.8618414e-07
2.8787069e-07
2.9002943e-07
2.9269157e-07
2.9588698e-07
2.9964448e-07
3.0399117e-07
3.0895463e-07
3.1455811e-07
3.2083044e-07
3.2778745e-07
3.3544966e-07
3.4389972e-07
3.5275932e-07
3.6247569e-07
3.411894e-06
2.7409363e-06
2.2767365e-06
1.9471474e-06
1.7037204e-06
1.5171495e-06
1.3696873e-06
1.2502101e-06
1.151447e-06
1.0684517e-06
9.9774129e-07
9.3679046e-07
8.8372211e-07
8.3711169e-07