/*--------------------------------*- C++ -*----------------------------------*\
| =========                 |                                                 |
| \\      /  F ield         | OpenFOAM: The Open Source CFD Toolbox           |
|  \\    /   O peration     | Version:  2406                                  |
|   \\  /    A nd           | Website:  www.openfoam.com                      |
|    \\/     M anipulation  |                                                 |
\*---------------------------------------------------------------------------*/
FoamFile
{
    version     2.0;
    format      ascii;
    arch        "LSB;label=32;scalar=64";
    class       volScalarField;
    location    "1200";
    object      kMean;
}
// * * * * * * * * * * * * * * * * * * * * * * * * * * * * * * * * * * * * * //

dimensions      [0 2 -2 0 0 0 0];

internalField   nonuniform List<scalar> 
132739
(
3.3493692e-06
2.6862504e-06
2.2287006e-06
1.9045435e-06
1.6655275e-06
1.4825661e-06
1.3380939e-06
1.2211266e-06
1.1244956e-06
1.0433309e-06
9.7420795e-07
9.1464554e-07
8.6280073e-07
8.1727585e-07
7.7699192e-07
7.4110127e-07
7.0892953e-07
6.7993379e-07
6.5367168e-07
6.2978033e-07
6.0795679e-07
5.8794863e-07
5.6954359e-07
5.5256004e-07
5.3684275e-07
5.2225633e-07
5.0868446e-07
4.9602866e-07
4.8420936e-07
4.7316724e-07
4.6284719e-07
4.5319253e-07
4.4416469e-07
4.3573117e-07
4.2785905e-07
4.2051379e-07
4.1366012e-07
4.072644e-07
4.0129309e-07
3.9571611e-07
3.9050761e-07
3.8564425e-07
3.8110523e-07
3.7687267e-07
3.7293101e-07
3.692662e-07
3.658621e-07
3.6270592e-07
3.5978429e-07
3.5708281e-07
3.5458979e-07
3.5228063e-07
3.5015198e-07
3.4817754e-07
3.4634219e-07
3.4461506e-07
3.4298564e-07
3.4145574e-07
3.4000421e-07
3.3866158e-07
3.37442e-07
3.3637667e-07
3.3545919e-07
3.3471661e-07
3.3414799e-07
3.3375617e-07
3.3360531e-07
3.3365876e-07
3.3388626e-07
3.3426723e-07
3.3478126e-07
3.3542618e-07
3.3614469e-07
3.3692553e-07
3.3782431e-07
3.3884206e-07
3.4021204e-07
3.4193747e-07
3.4411633e-07
3.4689574e-07
3.5044551e-07
3.5496394e-07
3.6063094e-07
3.6762278e-07
3.7617815e-07
3.8645974e-07
3.9822866e-07
4.1130235e-07
4.2566469e-07
4.4168062e-07
4.5994748e-07
4.8094087e-07
5.0490924e-07
5.3194894e-07
5.6212398e-07
5.9556618e-07
6.3254963e-07
6.7346316e-07
7.1890255e-07
7.6930694e-07
8.2610505e-07
8.8828127e-07
9.6241497e-07
1.0368067e-06
3.3494503e-06
2.6866722e-06
2.2292766e-06
1.9051801e-06
1.6661798e-06
1.4832138e-06
1.338729e-06
1.2217456e-06
1.1250974e-06
1.0439169e-06
9.7477951e-07
9.1520429e-07
8.6334857e-07
8.1781495e-07
7.7752435e-07
7.416291e-07
7.0945471e-07
6.8045836e-07
6.541975e-07
6.3030824e-07
6.0848821e-07
5.8848496e-07
5.7008601e-07
5.5310944e-07
5.3739946e-07
5.2282102e-07
5.092574e-07
4.9661023e-07
4.8479931e-07
4.7376372e-07
4.6344964e-07
4.5380138e-07
4.4477912e-07
4.3634958e-07
4.2847971e-07
4.2113575e-07
4.1428214e-07
4.0788495e-07
4.0191204e-07
3.9633316e-07
3.9112122e-07
3.8625394e-07
3.8171046e-07
3.7747215e-07
3.7352369e-07
3.6984857e-07
3.6643059e-07
3.6325585e-07
3.6031131e-07
3.5758347e-07
3.5505829e-07
3.5272026e-07
3.5055513e-07
3.4854289e-07
3.4665785e-07
3.4489073e-07
3.4327188e-07
3.4183964e-07
3.4059165e-07
3.3952013e-07
3.3862101e-07
3.3788609e-07
3.3729635e-07
3.3684688e-07
3.3653432e-07
3.3634503e-07
3.36262e-07
3.362788e-07
3.3639618e-07
3.3661212e-07
3.3694845e-07
3.3738077e-07
3.3787425e-07
3.3845421e-07
3.391526e-07
3.4001662e-07
3.4108049e-07
3.4238253e-07
3.4398054e-07
3.4595807e-07
3.4842813e-07
3.5156131e-07
3.5555315e-07
3.6064525e-07
3.6715776e-07
3.7542361e-07
3.8557867e-07
3.9750216e-07
4.1090269e-07
4.2575819e-07
4.423369e-07
4.6116085e-07
4.8265662e-07
5.0709291e-07
5.3462662e-07
5.6538613e-07
5.9944916e-07
6.3699426e-07
6.7821054e-07
7.233699e-07
7.729656e-07
8.2735341e-07
8.8682879e-07
9.6143476e-07
3.3495441e-06
2.6870779e-06
2.2298189e-06
1.9057716e-06
1.6667796e-06
1.4838035e-06
1.3393002e-06
1.2222946e-06
1.125623e-06
1.044418e-06
9.7525621e-07
9.1565749e-07
8.6377841e-07
8.1822132e-07
7.7790724e-07
7.4198851e-07
7.0979025e-07
6.8076977e-07
6.5448423e-07
6.3056966e-07
6.087242e-07
5.8869458e-07
5.7026822e-07
5.5326357e-07
5.3752483e-07
5.2291695e-07
5.0932355e-07
4.9664628e-07
4.8480447e-07
4.7373695e-07
4.6339013e-07
4.5370893e-07
4.4465325e-07
4.3619026e-07
4.2828666e-07
4.2090847e-07
4.1402119e-07
4.0759063e-07
4.01585e-07
3.959741e-07
3.9073162e-07
3.858347e-07
3.8126185e-07
3.7699465e-07
3.7301759e-07
3.6931596e-07
3.658764e-07
3.6268728e-07
3.5973659e-07
3.5701004e-07
3.5449832e-07
3.5218802e-07
3.5007144e-07
3.481332e-07
3.4636336e-07
3.4476479e-07
3.4333358e-07
3.4205617e-07
3.4092128e-07
3.3992427e-07
3.3906433e-07
3.3832821e-07
3.3770433e-07
3.3718735e-07
3.3677063e-07
3.3644569e-07
3.3619852e-07
3.3601806e-07
3.3590275e-07
3.3584999e-07
3.3586973e-07
3.3597052e-07
3.3615971e-07
3.3645196e-07
3.368939e-07
3.375408e-07
3.3839028e-07
3.3945149e-07
3.4078885e-07
3.4246034e-07
3.4452366e-07
3.4705348e-07
3.5015486e-07
3.5398963e-07
3.5881584e-07
3.6500698e-07
3.7299654e-07
3.8303104e-07
3.9505547e-07
4.0876046e-07
4.2408865e-07
4.4121567e-07
4.6047267e-07
4.8218341e-07
5.0652852e-07
5.3368953e-07
5.6384941e-07
5.9718074e-07
6.3386228e-07
6.7408657e-07
7.1795431e-07
7.6625044e-07
8.1606577e-07
8.8396843e-07
3.3496616e-06
2.6874988e-06
2.2303695e-06
1.9063648e-06
1.6673761e-06
1.4843872e-06
1.3398642e-06
1.2228367e-06
1.1261434e-06
1.0449187e-06
9.7573923e-07
9.1612371e-07
8.6422983e-07
8.1866036e-07
7.783356e-07
7.4240759e-07
7.1020189e-07
6.8117568e-07
6.5488603e-07
6.3096869e-07
6.0912176e-07
5.8909224e-07
5.7066718e-07
5.5366513e-07
5.3793013e-07
5.2332752e-07
5.0974023e-07
4.9707033e-07
4.8523748e-07
4.7417968e-07
4.6384297e-07
4.5417287e-07
4.4512983e-07
4.3668005e-07
4.2879039e-07
4.214266e-07
4.1455417e-07
4.0813933e-07
4.0214995e-07
3.9655645e-07
3.9133151e-07
3.8645208e-07
3.8189767e-07
3.7764887e-07
3.736896e-07
3.7000511e-07
3.6658213e-07
3.6340827e-07
3.6047163e-07
3.5776183e-07
3.5526679e-07
3.5297916e-07
3.5088792e-07
3.4898147e-07
3.4725195e-07
3.456898e-07
3.4428694e-07
3.4303379e-07
3.419215e-07
3.4094189e-07
3.4008386e-07
3.3933683e-07
3.3869135e-07
3.3813902e-07
3.3767298e-07
3.3728487e-07
3.3696815e-07
3.3671838e-07
3.3653366e-07
3.3641582e-07
3.3636437e-07
3.3639283e-07
3.3650643e-07
3.3671928e-07
3.3704533e-07
3.3751026e-07
3.381861e-07
3.3907739e-07
3.4020838e-07
3.4163807e-07
3.4342993e-07
3.4563306e-07
3.4830542e-07
3.5151079e-07
3.5536489e-07
3.6009704e-07
3.6607254e-07
3.7373069e-07
3.8338804e-07
3.9501638e-07
4.0837449e-07
4.2350686e-07
4.406104e-07
4.5995695e-07
4.8170599e-07
5.0595948e-07
5.328183e-07
5.6238737e-07
5.948245e-07
6.3033068e-07
6.6897865e-07
7.1164033e-07
7.5518226e-07
8.1352257e-07
3.3497889e-06
2.6879066e-06
2.2308974e-06
1.906934e-06
1.6679501e-06
1.4849495e-06
1.3404079e-06
1.2233592e-06
1.1266445e-06
1.0453986e-06
9.7619845e-07
9.1656334e-07
8.6465094e-07
8.1906363e-07
7.7872144e-07
7.4277657e-07
7.1055459e-07
6.8151249e-07
6.5520741e-07
6.3127473e-07
6.094126e-07
5.8936838e-07
5.7092841e-07
5.5391147e-07
5.3816154e-07
5.2354359e-07
5.0994137e-07
4.9725664e-07
4.8540892e-07
4.7433615e-07
4.6398465e-07
4.543001e-07
4.4524297e-07
4.3677898e-07
4.2887474e-07
4.2149646e-07
4.1460948e-07
4.0818057e-07
4.0217705e-07
3.9657017e-07
3.9133338e-07
3.8644069e-07
3.8187312e-07
3.7761255e-07
3.7364077e-07
3.6994363e-07
3.6650778e-07
3.6332072e-07
3.6037079e-07
3.5764674e-07
3.5513809e-07
3.5283447e-07
3.5072565e-07
3.4880236e-07
3.4705507e-07
3.4547499e-07
3.4405308e-07
3.427771e-07
3.4163704e-07
3.4062386e-07
3.3972821e-07
3.389414e-07
3.382543e-07
3.3765817e-07
3.3714621e-07
3.3671013e-07
3.3634321e-07
3.3603966e-07
3.357961e-07
3.3561145e-07
3.3548625e-07
3.3542547e-07
3.3543081e-07
3.3551537e-07
3.356999e-07
3.3602769e-07
3.365608e-07
3.3728616e-07
3.382557e-07
3.3951388e-07
3.4110763e-07
3.4308884e-07
3.4551251e-07
3.4842643e-07
3.5188449e-07
3.55988e-07
3.6096132e-07
3.6717501e-07
3.7505336e-07
3.8483423e-07
3.9641929e-07
4.0960674e-07
4.2450225e-07
4.4136277e-07
4.604206e-07
4.8182588e-07
5.0567906e-07
5.3201958e-07
5.6090072e-07
5.9243343e-07
6.2663832e-07
6.642798e-07
7.0287867e-07
7.5341956e-07
3.3499344e-06
2.6883256e-06
2.2314309e-06
1.9075032e-06
1.6685193e-06
1.4855035e-06
1.3409415e-06
1.2238713e-06
1.127135e-06
1.0458683e-06
9.7664899e-07
9.169966e-07
8.6506856e-07
8.1946708e-07
7.7911198e-07
7.4315581e-07
7.109237e-07
6.8187231e-07
6.555593e-07
6.3161987e-07
6.0975164e-07
5.8970236e-07
5.7125818e-07
5.5423729e-07
5.3848409e-07
5.2386339e-07
5.1025907e-07
4.9757357e-07
4.8572675e-07
4.746557e-07
4.6430567e-07
4.5462351e-07
4.4557028e-07
4.3711114e-07
4.2921166e-07
4.218382e-07
4.1495681e-07
4.0853355e-07
4.0253649e-07
3.9693596e-07
3.9170528e-07
3.8682134e-07
3.8226194e-07
3.7800776e-07
3.7404352e-07
3.7035441e-07
3.669255e-07
3.6374487e-07
3.6080067e-07
3.580818e-07
3.5557715e-07
3.5327704e-07
3.5117141e-07
3.4924976e-07
3.4750335e-07
3.459221e-07
3.4449635e-07
3.4321536e-07
3.420715e-07
3.4105563e-07
3.4015483e-07
3.3936052e-07
3.3866437e-07
3.380566e-07
3.3752882e-07
3.370733e-07
3.366821e-07
3.3634989e-07
3.3607246e-07
3.3584711e-07
3.3567423e-07
3.3555544e-07
3.3549656e-07
3.3551048e-07
3.3561339e-07
3.3584545e-07
3.3623665e-07
3.3681642e-07
3.3761735e-07
3.3867776e-07
3.4004168e-07
3.4175997e-07
3.4388885e-07
3.4648193e-07
3.4958708e-07
3.5325708e-07
3.5759902e-07
3.6284862e-07
3.6937993e-07
3.7756574e-07
3.8753192e-07
3.991369e-07
4.1224339e-07
4.2696873e-07
4.4355003e-07
4.6218109e-07
4.8302097e-07
5.0618261e-07
5.3171663e-07
5.5968048e-07
5.9003611e-07
6.2335116e-07
6.5763193e-07
7.0193336e-07
3.3500883e-06
2.6887329e-06
2.2319433e-06
1.9080498e-06
1.6690685e-06
1.4860408e-06
1.3414603e-06
1.2243692e-06
1.127612e-06
1.0463252e-06
9.7708666e-07
9.174166e-07
8.6547154e-07
8.1985415e-07
7.7948416e-07
7.4351375e-07
7.1126848e-07
6.8220473e-07
6.5587989e-07
6.3192887e-07
6.1004964e-07
5.8998948e-07
5.715347e-07
5.5450344e-07
5.3873992e-07
5.241093e-07
5.1049585e-07
4.9780214e-07
4.8594762e-07
4.7486879e-07
4.6451099e-07
4.5482261e-07
4.457642e-07
4.3730015e-07
4.2939545e-07
4.2201694e-07
4.1513072e-07
4.0870291e-07
4.0270158e-07
3.9709797e-07
3.918647e-07
3.8697714e-07
3.8241504e-07
3.7815889e-07
3.7419219e-07
3.705003e-07
3.6706854e-07
3.6388462e-07
3.6093703e-07
3.5821379e-07
3.5570467e-07
3.5339954e-07
3.5128757e-07
3.4935942e-07
3.4760567e-07
3.4601583e-07
3.4458069e-07
3.4329e-07
3.4213276e-07
3.411001e-07
3.4018247e-07
3.3936922e-07
3.3865086e-07
3.3801797e-07
3.3746223e-07
3.369755e-07
3.3654991e-07
3.3617922e-07
3.3585873e-07
3.3558503e-07
3.3535747e-07
3.3517597e-07
3.3504551e-07
3.3497843e-07
3.34992e-07
3.3512605e-07
3.3540799e-07
3.3586437e-07
3.3652583e-07
3.3742733e-07
3.3860833e-07
3.4011519e-07
3.4200148e-07
3.4432325e-07
3.4713292e-07
3.5048086e-07
3.5444032e-07
3.5915422e-07
3.6488171e-07
3.7196255e-07
3.8065887e-07
3.9098857e-07
4.0279735e-07
4.160137e-07
4.307488e-07
4.4715976e-07
4.6540929e-07
4.8564985e-07
5.0799329e-07
5.3253831e-07
5.5927463e-07
5.8865872e-07
6.1904116e-07
6.5793822e-07
3.3502563e-06
2.6891472e-06
2.2324588e-06
1.9085943e-06
1.6696103e-06
1.4865673e-06
1.3419667e-06
1.2248542e-06
1.128076e-06
1.0467696e-06
9.775131e-07
9.1782582e-07
8.6586512e-07
8.2023335e-07
7.798499e-07
7.438675e-07
7.1161123e-07
6.82537e-07
6.562025e-07
6.3224279e-07
6.1035584e-07
5.9028847e-07
5.718273e-07
5.5479022e-07
5.3902108e-07
5.2438549e-07
5.1076778e-07
4.9807085e-07
4.8621392e-07
4.7513343e-07
4.6477478e-07
4.5508664e-07
4.4602982e-07
4.3756771e-07
4.2966569e-07
4.2229008e-07
4.1540678e-07
4.0898243e-07
4.0298527e-07
3.9738613e-07
3.921575e-07
3.8727513e-07
3.8271828e-07
3.7846734e-07
3.7450575e-07
3.7081885e-07
3.6739161e-07
3.6421147e-07
3.612678e-07
3.5854855e-07
3.5604218e-07
3.5373911e-07
3.5162885e-07
3.4970111e-07
3.4794684e-07
3.463556e-07
3.4491775e-07
3.4362378e-07
3.4246239e-07
3.4142409e-07
3.4049946e-07
3.3967766e-07
3.389498e-07
3.383056e-07
3.3773602e-07
3.3723256e-07
3.3678772e-07
3.3639369e-07
3.3604598e-07
3.3574174e-07
3.3547706e-07
3.3525249e-07
3.3507391e-07
3.3495148e-07
3.3490074e-07
3.3495743e-07
3.3514667e-07
3.3549335e-07
3.3602591e-07
3.3677765e-07
3.3778543e-07
3.390921e-07
3.4074722e-07
3.4280484e-07
3.4531739e-07
3.483362e-07
3.5192432e-07
3.5618848e-07
3.6131275e-07
3.6755847e-07
3.7519862e-07
3.8438546e-07
3.9507569e-07
4.0714613e-07
4.2056455e-07
4.3541163e-07
4.5178018e-07
4.6977979e-07
4.8952022e-07
5.1110801e-07
5.3458011e-07
5.6033733e-07
5.8710195e-07
6.2102587e-07
3.35043e-06
2.6895497e-06
2.2329559e-06
1.909121e-06
1.670136e-06
1.4870791e-06
1.34246e-06
1.2253269e-06
1.1285283e-06
1.0472025e-06
9.7792771e-07
9.1822332e-07
8.6624671e-07
8.2059972e-07
7.8020254e-07
7.442076e-07
7.1193956e-07
6.8285458e-07
6.5650965e-07
6.3254012e-07
6.1064389e-07
5.9056772e-07
5.7209794e-07
5.5505259e-07
5.392756e-07
5.2463236e-07
5.1100711e-07
4.9830341e-07
4.8644113e-07
4.753563e-07
4.6499404e-07
4.5530382e-07
4.4624597e-07
4.3778332e-07
4.2988136e-07
4.2250627e-07
4.1562318e-07
4.0919944e-07
4.0320341e-07
3.9760539e-07
3.9237873e-07
3.87499e-07
3.8294498e-07
3.7869682e-07
3.7473791e-07
3.7105312e-07
3.6762795e-07
3.6445037e-07
3.6150874e-07
3.5878999e-07
3.5628394e-07
3.5398122e-07
3.5187039e-07
3.4994135e-07
3.4818535e-07
3.4659136e-07
3.4514985e-07
3.4385137e-07
3.4268414e-07
3.4163884e-07
3.4070629e-07
3.3987481e-07
3.3913429e-07
3.3847579e-07
3.378897e-07
3.3736775e-07
3.3690082e-07
3.3648137e-07
3.3610434e-07
3.357657e-07
3.3546391e-07
3.3519647e-07
3.3496879e-07
3.3478971e-07
3.3467605e-07
3.3466174e-07
3.3476994e-07
3.3502365e-07
3.3544925e-07
3.3607769e-07
3.369432e-07
3.3808558e-07
3.3955047e-07
3.413879e-07
3.4365015e-07
3.4638804e-07
3.4966258e-07
3.5357171e-07
3.5826956e-07
3.6395732e-07
3.70845e-07
3.7909587e-07
3.887663e-07
3.9980869e-07
4.1215412e-07
4.2581448e-07
4.4080993e-07
4.5718857e-07
4.7503396e-07
4.9440389e-07
5.1532121e-07
5.3808999e-07
5.6175118e-07
5.9118775e-07
3.350613e-06
2.6899544e-06
2.2334498e-06
1.9096388e-06
1.6706499e-06
1.4875779e-06
1.3429394e-06
1.2257862e-06
1.1289676e-06
1.0476229e-06
9.783302e-07
9.1860912e-07
8.666175e-07
8.2095659e-07
7.8054652e-07
7.4453968e-07
7.1226041e-07
6.831651e-07
6.5681049e-07
6.3283212e-07
6.1092755e-07
5.9084372e-07
5.7236708e-07
5.5531515e-07
5.3953157e-07
5.2488207e-07
5.1125148e-07
4.9854341e-07
4.866784e-07
4.7559192e-07
4.6522868e-07
4.5553947e-07
4.4648366e-07
4.3802398e-07
4.3012549e-07
4.2275389e-07
4.158749e-07
4.0945576e-07
4.0346514e-07
3.9787291e-07
3.9265228e-07
3.8777863e-07
3.8323046e-07
3.7898856e-07
3.7503604e-07
3.7135714e-07
3.6793788e-07
3.6476549e-07
3.6182783e-07
3.591136e-07
3.5661216e-07
3.5431277e-07
3.5220533e-07
3.502793e-07
3.4852526e-07
3.4693266e-07
3.4549168e-07
3.4419218e-07
3.4302335e-07
3.419761e-07
3.4103963e-07
3.402037e-07
3.3945778e-07
3.3879214e-07
3.3819777e-07
3.3766416e-07
3.371835e-07
3.3674858e-07
3.3635297e-07
3.3599152e-07
3.3566229e-07
3.3536279e-07
3.3509879e-07
3.3487695e-07
3.3471453e-07
3.3464254e-07
3.3468128e-07
3.3485363e-07
3.3518226e-07
3.3569994e-07
3.3643839e-07
3.3742973e-07
3.3871961e-07
3.4035624e-07
3.4239065e-07
3.4487213e-07
3.4785442e-07
3.514247e-07
3.5573414e-07
3.6098141e-07
3.6734492e-07
3.7493384e-07
3.8378958e-07
3.9390802e-07
4.0526508e-07
4.1786804e-07
4.3173243e-07
4.4685514e-07
4.6327026e-07
4.810051e-07
5.000657e-07
5.2063996e-07
5.4202176e-07
5.6784021e-07
3.3507981e-06
2.6903487e-06
2.2339279e-06
1.9101411e-06
1.6711503e-06
1.4880636e-06
1.3434062e-06
1.2262332e-06
1.1293948e-06
1.0480314e-06
9.7872099e-07
9.1898345e-07
8.6697652e-07
8.2130169e-07
7.8087867e-07
7.4485955e-07
7.1256909e-07
6.8346351e-07
6.5709937e-07
6.3311192e-07
6.1119913e-07
5.9110763e-07
5.7262321e-07
5.5556364e-07
5.3977275e-07
5.2511626e-07
5.1147947e-07
4.9876641e-07
4.8689774e-07
4.7580935e-07
4.6544514e-07
4.5575659e-07
4.4670268e-07
4.3824588e-07
4.3035078e-07
4.2298263e-07
4.1610789e-07
4.0969398e-07
4.0370861e-07
3.9812184e-07
3.9290728e-07
3.880401e-07
3.8349845e-07
3.7926297e-07
3.7531635e-07
3.7164345e-07
3.6823002e-07
3.6506311e-07
3.6213083e-07
3.594218e-07
3.5692555e-07
3.5463049e-07
3.5252624e-07
3.5060365e-07
3.4885225e-07
3.4726137e-07
3.4582209e-07
3.4452298e-07
3.4335472e-07
3.423078e-07
3.4136902e-07
3.4052939e-07
3.3977901e-07
3.3910716e-07
3.3850506e-07
3.3796116e-07
3.3747079e-07
3.3702344e-07
3.3661003e-07
3.3622881e-07
3.3587369e-07
3.3554379e-07
3.3524565e-07
3.3498422e-07
3.347764e-07
3.3465211e-07
3.3463114e-07
3.3473311e-07
3.3498085e-07
3.3540222e-07
3.3602904e-07
3.368965e-07
3.3804117e-07
3.3950747e-07
3.4134581e-07
3.4360729e-07
3.4634353e-07
3.496269e-07
3.5359332e-07
3.584543e-07
3.6442183e-07
3.7160109e-07
3.7997152e-07
3.8946381e-07
4.0003794e-07
4.117088e-07
4.2453646e-07
4.3853627e-07
4.5373528e-07
4.7014924e-07
4.877728e-07
5.0669822e-07
5.264308e-07
5.4965985e-07
3.3509864e-06
2.6907376e-06
2.234397e-06
1.9106318e-06
1.6716365e-06
1.4885347e-06
1.3438581e-06
1.2266653e-06
1.1298082e-06
1.0484267e-06
9.7909927e-07
9.1934595e-07
8.6732433e-07
8.2163587e-07
7.8120013e-07
7.4516967e-07
7.1286874e-07
6.8375296e-07
6.5737947e-07
6.3338353e-07
6.1146279e-07
5.913636e-07
5.7287171e-07
5.558052e-07
5.4000783e-07
5.2534528e-07
5.117032e-07
4.9898636e-07
4.8711565e-07
4.760262e-07
4.6566244e-07
4.559767e-07
4.4692688e-07
4.3847462e-07
4.3058516e-07
4.2322359e-07
4.1635621e-07
4.0995e-07
4.0397249e-07
3.9839417e-07
3.9318841e-07
3.883299e-07
3.8379674e-07
3.7956998e-07
3.7563203e-07
3.719674e-07
3.6856219e-07
3.6540317e-07
3.6247878e-07
3.59777e-07
3.5728698e-07
3.54999e-07
3.5290163e-07
3.5098469e-07
3.4923885e-07
3.4765327e-07
3.4621821e-07
3.4492344e-07
3.4375802e-07
3.4271261e-07
3.4177561e-07
3.4093772e-07
3.4018805e-07
3.395152e-07
3.3890906e-07
3.3836117e-07
3.3786332e-07
3.3740501e-07
3.3697998e-07
3.3658373e-07
3.3621211e-07
3.3586264e-07
3.3553994e-07
3.3524879e-07
3.3500646e-07
3.348394e-07
3.3476649e-07
3.3480736e-07
3.3498383e-07
3.3532075e-07
3.35848e-07
3.366003e-07
3.3761366e-07
3.3892848e-07
3.4059192e-07
3.4265584e-07
3.4517379e-07
3.4820737e-07
3.5186446e-07
3.5634316e-07
3.6189979e-07
3.6872232e-07
3.7681969e-07
3.8605258e-07
3.9626421e-07
4.0738046e-07
4.1944088e-07
4.3250065e-07
4.4661911e-07
4.6184687e-07
4.7821885e-07
4.9578382e-07
5.141759e-07
5.3545949e-07
3.3511746e-06
2.691117e-06
2.2348525e-06
1.9111072e-06
1.6721078e-06
1.4889916e-06
1.3442967e-06
1.2270849e-06
1.1302086e-06
1.048809e-06
9.7946464e-07
9.1969583e-07
8.6765987e-07
8.2195837e-07
7.8151066e-07
7.454686e-07
7.1315696e-07
6.8403142e-07
6.5764898e-07
6.3364493e-07
6.1171636e-07
5.9160952e-07
5.7311057e-07
5.5603707e-07
5.4023278e-07
5.2556398e-07
5.1191645e-07
4.9919554e-07
4.8732242e-07
4.762329e-07
4.6587091e-07
4.56188e-07
4.4714288e-07
4.3869725e-07
4.3081486e-07
4.234611e-07
4.1660209e-07
4.1020479e-07
4.0423696e-07
3.9866897e-07
3.9347332e-07
3.8862475e-07
3.8410174e-07
3.798849e-07
3.7595698e-07
3.7230234e-07
3.6890642e-07
3.6575711e-07
3.628418e-07
3.6014861e-07
3.576676e-07
3.5538767e-07
3.5329767e-07
3.5138871e-07
3.4965033e-07
3.4807153e-07
3.4664327e-07
3.4535494e-07
3.4419526e-07
3.4315443e-07
3.4222112e-07
3.4138527e-07
3.4063658e-07
3.3996368e-07
3.3935782e-07
3.3880759e-07
3.3830446e-07
3.378404e-07
3.3740855e-07
3.3700271e-07
3.3661692e-07
3.3624892e-07
3.3590566e-07
3.3559161e-07
3.3532015e-07
3.3511734e-07
3.3500165e-07
3.349905e-07
3.3510555e-07
3.3537075e-07
3.3581422e-07
3.3646774e-07
3.3736672e-07
3.3854969e-07
3.4006042e-07
3.4194945e-07
3.4427446e-07
3.4709826e-07
3.5050357e-07
3.5464221e-07
3.5976187e-07
3.6612901e-07
3.7388761e-07
3.8296498e-07
3.9314076e-07
4.041962e-07
4.1602e-07
4.2861265e-07
4.4201948e-07
4.563163e-07
4.7160396e-07
4.8795851e-07
5.0513548e-07
5.2475256e-07
3.351363e-06
2.6914876e-06
2.2352954e-06
1.9115688e-06
1.6725642e-06
1.4894341e-06
1.3447209e-06
1.22749e-06
1.1305954e-06
1.0491785e-06
9.7981784e-07
9.2003397e-07
8.6798437e-07
8.2227009e-07
7.8181051e-07
7.4575762e-07
7.1343595e-07
6.8430097e-07
6.579098e-07
6.3389746e-07
6.1196104e-07
5.9184692e-07
5.7334102e-07
5.5626087e-07
5.4045002e-07
5.2577491e-07
5.1212264e-07
4.9939874e-07
4.8752477e-07
4.7643563e-07
4.6607611e-07
4.5639858e-07
4.4736018e-07
4.3892253e-07
4.3104955e-07
4.2370619e-07
4.1685868e-07
4.1047323e-07
4.045179e-07
3.9896254e-07
3.9377922e-07
3.88943e-07
3.8443226e-07
3.8022805e-07
3.7631212e-07
3.7266882e-07
3.6928458e-07
3.6614688e-07
3.6324264e-07
3.605608e-07
3.5809116e-07
3.5582167e-07
3.5374216e-07
3.5184318e-07
3.5011482e-07
3.4854584e-07
3.4712626e-07
3.4584639e-07
3.4469452e-07
3.436615e-07
3.4273547e-07
3.419057e-07
3.4116314e-07
3.4049425e-07
3.398907e-07
3.3934287e-07
3.3883958e-07
3.3837398e-07
3.3793696e-07
3.3752324e-07
3.3712853e-07
3.3675044e-07
3.3639223e-07
3.3605725e-07
3.3576338e-07
3.3553232e-07
3.3538273e-07
3.3533058e-07
3.3539246e-07
3.3559525e-07
3.3596458e-07
3.3653143e-07
3.3732963e-07
3.3839584e-07
3.3977163e-07
3.4150458e-07
3.4365305e-07
3.4628581e-07
3.4947878e-07
3.5334076e-07
3.5805776e-07
3.6389142e-07
3.7109008e-07
3.7975364e-07
3.8977675e-07
4.0091547e-07
4.1291214e-07
4.2560739e-07
4.3891604e-07
4.5285201e-07
4.6750472e-07
4.8297534e-07
4.9911948e-07
5.1727373e-07
3.3515512e-06
2.6918508e-06
2.2357272e-06
1.9120176e-06
1.6730074e-06
1.4898625e-06
1.3451315e-06
1.2278819e-06
1.1309696e-06
1.0495356e-06
9.8015921e-07
9.203609e-07
8.6829779e-07
8.225711e-07
7.8210003e-07
7.4603626e-07
7.137045e-07
6.8456042e-07
6.5816048e-07
6.3414011e-07
6.121964e-07
5.9207537e-07
5.7356269e-07
5.5647571e-07
5.4065814e-07
5.25977e-07
5.1231982e-07
4.995929e-07
4.8771851e-07
4.7663198e-07
4.6627685e-07
4.5660544e-07
4.4757571e-07
4.391478e-07
4.3128602e-07
4.2395562e-07
4.171218e-07
4.1075128e-07
4.0481112e-07
3.9927066e-07
3.9410197e-07
3.8928052e-07
3.847843e-07
3.8059348e-07
3.7669113e-07
3.7306167e-07
3.6969123e-07
3.6656696e-07
3.6367598e-07
3.6100718e-07
3.5855013e-07
3.5629348e-07
3.5422737e-07
3.5234125e-07
3.5062484e-07
3.4906766e-07
3.4765966e-07
3.4639128e-07
3.4525e-07
3.4422659e-07
3.4331002e-07
3.4248891e-07
3.4175316e-07
3.410917e-07
3.4049419e-07
3.3995079e-07
3.3945117e-07
3.3898702e-07
3.3855069e-07
3.3813478e-07
3.3773387e-07
3.373473e-07
3.3697817e-07
3.3662873e-07
3.3631653e-07
3.3606253e-07
3.3588339e-07
3.357948e-07
3.3581494e-07
3.3596475e-07
3.362722e-07
3.3676468e-07
3.3747519e-07
3.384397e-07
3.3969761e-07
3.4129441e-07
3.4328616e-07
3.4574383e-07
3.487481e-07
3.5238902e-07
3.5679119e-07
3.6214439e-07
3.6868918e-07
3.7663478e-07
3.8605951e-07
3.9687511e-07
4.088623e-07
4.2177572e-07
4.3537861e-07
4.4951606e-07
4.6416002e-07
4.7936109e-07
4.9497638e-07
5.121591e-07
3.351742e-06
2.6922059e-06
2.2361467e-06
1.9124531e-06
1.6734372e-06
1.4902776e-06
1.3455292e-06
1.2282615e-06
1.1313317e-06
1.0498811e-06
9.8048938e-07
9.20677e-07
8.6860065e-07
8.2286167e-07
7.823793e-07
7.4630517e-07
7.1396362e-07
6.8481065e-07
6.5840257e-07
6.3437411e-07
6.1242294e-07
5.9229499e-07
5.7377535e-07
5.5668157e-07
5.4085746e-07
5.2617066e-07
5.1250943e-07
4.9978095e-07
4.8790754e-07
4.7682379e-07
4.6647471e-07
4.5681186e-07
4.4779207e-07
4.3937682e-07
4.3152946e-07
4.2421513e-07
4.1739893e-07
4.1104596e-07
4.0512343e-07
3.9960085e-07
3.9444957e-07
3.8964506e-07
3.8516574e-07
3.8099132e-07
3.7710514e-07
3.7349172e-07
3.7013674e-07
3.6702799e-07
3.6415279e-07
3.6149994e-07
3.5905864e-07
3.5681726e-07
3.5476619e-07
3.5289519e-07
3.5119329e-07
3.4965083e-07
3.4825685e-07
3.4700108e-07
3.458739e-07
3.4486382e-07
3.4395937e-07
3.4315021e-07
3.4242569e-07
3.4177491e-07
3.411869e-07
3.4065103e-07
3.4015756e-07
3.3969821e-07
3.3926479e-07
3.3884984e-07
3.3844835e-07
3.380583e-07
3.3768272e-07
3.3732392e-07
3.3699881e-07
3.3672741e-07
3.3652436e-07
3.3640544e-07
3.3638881e-07
3.3649486e-07
3.3674762e-07
3.3717774e-07
3.3781333e-07
3.3868897e-07
3.3984359e-07
3.4132099e-07
3.431741e-07
3.454713e-07
3.4829698e-07
3.5174212e-07
3.5590294e-07
3.6089833e-07
3.6689122e-07
3.7407557e-07
3.8261687e-07
3.9259142e-07
4.0395572e-07
4.1656157e-07
4.3019365e-07
4.4458538e-07
4.5953889e-07
4.7497766e-07
4.9063196e-07
5.0762657e-07
3.3519305e-06
2.6925541e-06
2.2365561e-06
1.9128762e-06
1.6738537e-06
1.4906795e-06
1.345914e-06
1.2286288e-06
1.1316817e-06
1.050215e-06
9.808084e-07
9.2098199e-07
8.6889243e-07
8.231415e-07
7.826483e-07
7.4656396e-07
7.1421304e-07
6.8505108e-07
6.5863462e-07
6.3459881e-07
6.1264053e-07
5.9250567e-07
5.7397918e-07
5.5687857e-07
5.4104826e-07
5.2635619e-07
5.1269143e-07
4.9996197e-07
4.8809053e-07
4.7701156e-07
4.6667035e-07
4.570178e-07
4.4801088e-07
4.3961104e-07
4.3178128e-07
4.2448633e-07
4.1769064e-07
4.1135905e-07
4.0545808e-07
3.9995586e-07
3.9482442e-07
3.900394e-07
3.8557889e-07
3.8142295e-07
3.7755525e-07
3.7396043e-07
3.7062374e-07
3.6753302e-07
3.646761e-07
3.6204139e-07
3.596179e-07
3.5739474e-07
3.5536166e-07
3.5350822e-07
3.5182378e-07
3.5029809e-07
3.4892193e-07
3.476833e-07
3.4657099e-07
3.455768e-07
3.4468839e-07
3.4389354e-07
3.4318285e-07
3.4254429e-07
3.4196806e-07
3.4144339e-07
3.4095993e-07
3.4050957e-07
3.4008219e-07
3.396714e-07
3.3927177e-07
3.3888168e-07
3.385031e-07
3.3813829e-07
3.3780409e-07
3.3751919e-07
3.3729807e-07
3.3715434e-07
3.37106e-07
3.3717374e-07
3.3738078e-07
3.3775408e-07
3.3832571e-07
3.3912613e-07
3.4019246e-07
3.4156733e-07
3.4330106e-07
3.4545783e-07
3.4811949e-07
3.5138017e-07
3.5533348e-07
3.6006757e-07
3.6567758e-07
3.7228168e-07
3.8001706e-07
3.8900969e-07
3.993406e-07
4.1101636e-07
4.2397544e-07
4.3802703e-07
4.5294783e-07
4.6859435e-07
4.8449061e-07
5.0186394e-07
3.3521219e-06
2.6928949e-06
2.2369539e-06
1.9132873e-06
1.6742585e-06
1.4910698e-06
1.3462868e-06
1.2289843e-06
1.1320203e-06
1.0505377e-06
9.8111617e-07
9.2127595e-07
8.6917388e-07
8.2341124e-07
7.8290702e-07
7.4681251e-07
7.1445248e-07
6.8528215e-07
6.5885778e-07
6.3481457e-07
6.1284905e-07
5.9270735e-07
5.7417433e-07
5.5706716e-07
5.4123093e-07
5.2653389e-07
5.1286648e-07
5.0013719e-07
4.8826891e-07
4.7719666e-07
4.6686491e-07
4.5722477e-07
4.4823389e-07
4.3985306e-07
4.3204503e-07
4.2477412e-07
4.1800357e-07
4.1169717e-07
4.058206e-07
4.0034219e-07
3.9523354e-07
3.9047041e-07
3.8603125e-07
3.818966e-07
3.7804997e-07
3.7447564e-07
3.7115998e-07
3.6809076e-07
3.6525478e-07
3.6264096e-07
3.6023831e-07
3.5803582e-07
3.560236e-07
3.5419031e-07
3.5252658e-07
3.5102141e-07
3.4966407e-07
3.4844561e-07
3.4735326e-07
3.4637729e-07
3.4550755e-07
3.4473055e-07
3.4403647e-07
3.4341474e-07
3.4285324e-07
3.423415e-07
3.4187013e-07
3.414303e-07
3.4101189e-07
3.4060752e-07
3.4021198e-07
3.3982408e-07
3.3944542e-07
3.3907773e-07
3.3873803e-07
3.3844384e-07
3.382088e-07
3.3804607e-07
3.3797189e-07
3.3800683e-07
3.3817384e-07
3.3849879e-07
3.3901181e-07
3.3974486e-07
3.4073328e-07
3.4201912e-07
3.4365047e-07
3.4568734e-07
3.4820547e-07
3.5129539e-07
3.550525e-07
3.5956353e-07
3.6489896e-07
3.7112226e-07
3.7830713e-07
3.8653699e-07
3.9590103e-07
4.0647697e-07
4.1832166e-07
4.3140112e-07
4.4558993e-07
4.6082392e-07
4.7655043e-07
4.9418e-07
3.3523092e-06
2.6932263e-06
2.2373401e-06
1.9136854e-06
1.6746497e-06
1.4914469e-06
1.3466474e-06
1.2293275e-06
1.1323467e-06
1.0508489e-06
9.8141304e-07
9.2155923e-07
8.6944481e-07
8.2367091e-07
7.8315623e-07
7.4705202e-07
7.1468286e-07
6.8550393e-07
6.5907167e-07
6.3502102e-07
6.1304861e-07
5.9290009e-07
5.7436043e-07
5.5724702e-07
5.4140482e-07
5.2670357e-07
5.1303429e-07
5.0030645e-07
4.8844327e-07
4.773794e-07
4.6705959e-07
4.5743526e-07
4.4846366e-07
4.4010611e-07
4.3232487e-07
4.2508277e-07
4.1834204e-07
4.1206463e-07
4.0621596e-07
4.007647e-07
3.9568205e-07
3.9094377e-07
3.8652902e-07
3.8241827e-07
3.7859539e-07
3.7504499e-07
3.7175308e-07
3.6870782e-07
3.6589581e-07
3.6330548e-07
3.6092668e-07
3.5874835e-07
3.5675967e-07
3.5495006e-07
3.5330961e-07
3.5182774e-07
3.5049388e-07
3.4929735e-07
3.4822736e-07
3.4727336e-07
3.464234e-07
3.4566696e-07
3.449931e-07
3.4438928e-07
3.4384418e-07
3.4334827e-07
3.4289101e-07
3.4246247e-07
3.4205458e-07
3.4165887e-07
3.4126999e-07
3.4088621e-07
3.4050995e-07
3.4014252e-07
3.3979981e-07
3.3949869e-07
3.3925215e-07
3.3907407e-07
3.389798e-07
3.3898831e-07
3.3912183e-07
3.3940621e-07
3.3986838e-07
3.4054319e-07
3.4146228e-07
3.4266788e-07
3.442078e-07
3.4613926e-07
3.4853275e-07
3.5147196e-07
3.5504788e-07
3.5934856e-07
3.64445e-07
3.7038761e-07
3.7721344e-07
3.8495652e-07
3.9366283e-07
4.0338739e-07
4.1420085e-07
4.261574e-07
4.3922401e-07
4.5345926e-07
4.6837505e-07
4.8552347e-07
3.3524972e-06
2.6935504e-06
2.2377154e-06
1.9140711e-06
1.6750284e-06
1.4918116e-06
1.3469955e-06
1.2296588e-06
1.132662e-06
1.0511486e-06
9.8169857e-07
9.2183217e-07
8.6970604e-07
8.2392089e-07
7.8339588e-07
7.4728208e-07
7.1490368e-07
6.8571626e-07
6.5927625e-07
6.3521845e-07
6.1323912e-07
5.9308368e-07
5.7453729e-07
5.5741742e-07
5.4156987e-07
5.268653e-07
5.1319565e-07
5.0047076e-07
4.8861425e-07
4.7756126e-07
4.672562e-07
4.5765131e-07
4.4870397e-07
4.4037529e-07
4.3262675e-07
4.2541882e-07
4.1871245e-07
4.1246886e-07
4.0665235e-07
4.0123124e-07
3.9617766e-07
3.9146699e-07
3.8707933e-07
3.8299644e-07
3.7920033e-07
3.7567696e-07
3.7241229e-07
3.6939338e-07
3.6660813e-07
3.6404528e-07
3.6169403e-07
3.5954251e-07
3.5758089e-07
3.5579811e-07
3.5418406e-07
3.527282e-07
3.5142037e-07
3.5024965e-07
3.4920385e-07
3.4827359e-07
3.4744685e-07
3.4671173e-07
3.4605785e-07
3.454738e-07
3.4494776e-07
3.4446871e-07
3.4402653e-07
3.4361129e-07
3.4321485e-07
3.4282885e-07
3.4244699e-07
3.4206913e-07
3.4169646e-07
3.4132932e-07
3.4098642e-07
3.4068249e-07
3.4042882e-07
3.4023869e-07
3.4012789e-07
3.4011473e-07
3.402206e-07
3.4047105e-07
3.4089288e-07
3.415162e-07
3.4237679e-07
3.4351266e-07
3.4497109e-07
3.4680819e-07
3.4909094e-07
3.5189607e-07
3.5530847e-07
3.5941161e-07
3.6427888e-07
3.6996562e-07
3.7650423e-07
3.839114e-07
3.9220004e-07
4.013861e-07
4.114991e-07
4.2259185e-07
4.3465077e-07
4.477814e-07
4.616068e-07
4.7761978e-07
3.3526811e-06
2.693866e-06
2.2380796e-06
1.9144443e-06
1.675394e-06
1.4921633e-06
1.3473311e-06
1.2299781e-06
1.1329657e-06
1.0514375e-06
9.8197362e-07
9.2209431e-07
8.6995639e-07
8.2416039e-07
7.8362503e-07
7.4750196e-07
7.1511489e-07