/*--------------------------------*- C++ -*----------------------------------*\
| =========                 |                                                 |
| \\      /  F ield         | OpenFOAM: The Open Source CFD Toolbox           |
|  \\    /   O peration     | Version:  2406                                  |
|   \\  /    A nd           | Website:  www.openfoam.com                      |
|    \\/     M anipulation  |                                                 |
\*---------------------------------------------------------------------------*/
FoamFile
{
    version     2.0;
    format      ascii;
    arch        "LSB;label=32;scalar=64";
    class       volScalarField;
    location    "1200";
    object      pMean;
}
// * * * * * * * * * * * * * * * * * * * * * * * * * * * * * * * * * * * * * //

dimensions      [1 -1 -2 0 0 0 0];

internalField   nonuniform List<scalar> 
132739
(
1.0031172
1.0031108
1.0031225
1.0031416
1.0031635
1.0031889
1.0032189
1.003253
1.0032911
1.003333
1.0033788
1.0034283
1.0034815
1.0035382
1.0035986
1.0036625
1.0037299
1.0038007
1.003875
1.0039526
1.0040336
1.0041179
1.0042055
1.0042964
1.0043904
1.0044877
1.004588
1.0046915
1.0047979
1.0049073
1.0050197
1.0051349
1.0052528
1.0053733
1.0054965
1.0056221
1.0057501
1.0058804
1.0060128
1.0061472
1.0062834
1.0064214
1.006561
1.0067021
1.0068443
1.0069877
1.0071321
1.0072772
1.0074229
1.007569
1.0077154
1.0078618
1.008008
1.008154
1.0082993
1.0084438
1.0085874
1.0087297
1.0088707
1.0090102
1.009148
1.0092839
1.0094177
1.0095488
1.0096775
1.0098035
1.0099266
1.0100462
1.0101624
1.0102753
1.0103843
1.0104889
1.0105891
1.0106845
1.0107746
1.0108591
1.0109374
1.0110092
1.011074
1.0111312
1.0111803
1.0112207
1.0112518
1.0112727
1.0112829
1.0112814
1.0112675
1.0112404
1.0111992
1.0111432
1.0110714
1.0109832
1.0108777
1.010754
1.0106114
1.0104493
1.010267
1.010064
1.0098399
1.009594
1.0093276
1.0090392
1.008737
1.0084146
1.003118
1.0031119
1.0031237
1.0031428
1.0031647
1.0031901
1.00322
1.0032542
1.0032922
1.0033341
1.0033798
1.0034292
1.0034823
1.003539
1.0035993
1.0036631
1.0037304
1.0038012
1.0038754
1.0039529
1.0040338
1.004118
1.0042055
1.0042962
1.0043902
1.0044873
1.0045875
1.0046908
1.0047971
1.0049064
1.0050186
1.0051336
1.0052514
1.0053718
1.0054947
1.0056202
1.005748
1.005878
1.0060102
1.0061444
1.0062804
1.0064181
1.0065574
1.0066981
1.00684
1.006983
1.0071269
1.0072715
1.0074166
1.0075621
1.0077078
1.0078534
1.0079988
1.0081437
1.008288
1.0084313
1.0085736
1.0087147
1.0088541
1.008992
1.009128
1.009262
1.0093936
1.0095227
1.0096491
1.0097729
1.0098935
1.0100106
1.0101239
1.0102336
1.010339
1.01044
1.0105361
1.0106274
1.0107133
1.0107935
1.0108676
1.0109352
1.0109958
1.0110491
1.0110946
1.0111317
1.0111598
1.0111785
1.0111871
1.011185
1.0111715
1.011146
1.0111077
1.0110559
1.0109898
1.0109087
1.010812
1.0106989
1.0105688
1.0104212
1.0102554
1.0100708
1.0098671
1.0096435
1.0094
1.0091346
1.0088464
1.0085321
1.0031186
1.0031129
1.0031249
1.0031439
1.0031658
1.0031913
1.0032213
1.0032554
1.0032935
1.0033354
1.0033811
1.0034306
1.0034838
1.0035406
1.0036009
1.0036648
1.0037322
1.0038031
1.0038773
1.003955
1.004036
1.0041203
1.0042079
1.0042988
1.0043929
1.0044901
1.0045905
1.004694
1.0048004
1.0049099
1.0050223
1.0051374
1.0052554
1.005376
1.0054991
1.0056247
1.0057527
1.0058829
1.0060153
1.0061496
1.0062858
1.0064236
1.006563
1.0067038
1.0068458
1.0069889
1.0071328
1.0072773
1.0074223
1.0075677
1.0077131
1.0078583
1.0080033
1.0081476
1.0082913
1.008434
1.0085757
1.008716
1.0088547
1.0089915
1.0091263
1.0092589
1.009389
1.0095163
1.0096408
1.0097622
1.0098802
1.0099945
1.010105
1.0102114
1.0103134
1.0104108
1.0105032
1.0105904
1.010672
1.0107476
1.0108168
1.0108793
1.0109345
1.0109822
1.0110218
1.0110529
1.0110749
1.0110873
1.0110896
1.0110811
1.0110612
1.0110294
1.010985
1.0109274
1.0108559
1.0107701
1.0106692
1.0105526
1.0104197
1.0102701
1.0101031
1.0099183
1.0097154
1.0094939
1.0092536
1.0089952
1.0087148
1.0084269
1.0031192
1.0031138
1.003126
1.0031449
1.0031669
1.0031924
1.0032223
1.0032565
1.0032945
1.0033364
1.0033822
1.0034316
1.0034848
1.0035415
1.0036019
1.0036658
1.0037331
1.0038039
1.0038782
1.0039558
1.0040368
1.0041211
1.0042087
1.0042995
1.0043935
1.0044908
1.0045911
1.0046945
1.004801
1.0049104
1.0050227
1.0051379
1.0052558
1.0053763
1.0054994
1.005625
1.0057529
1.0058831
1.0060153
1.0061496
1.0062857
1.0064234
1.0065627
1.0067033
1.0068452
1.006988
1.0071316
1.0072759
1.0074207
1.0075656
1.0077106
1.0078554
1.0079998
1.0081436
1.0082865
1.0084285
1.0085693
1.0087086
1.008846
1.0089816
1.009115
1.009246
1.0093744
1.0094999
1.0096224
1.0097416
1.0098573
1.0099691
1.0100769
1.0101803
1.0102793
1.0103734
1.0104622
1.0105457
1.0106235
1.0106952
1.0107604
1.0108187
1.0108699
1.0109134
1.0109488
1.0109758
1.0109937
1.0110021
1.0110004
1.0109882
1.0109648
1.0109296
1.0108821
1.0108217
1.0107477
1.0106596
1.0105569
1.010439
1.0103053
1.0101555
1.0099892
1.0098057
1.009605
1.0093868
1.0091504
1.0088969
1.0086232
1.0083351
1.0031196
1.0031147
1.003127
1.0031459
1.0031679
1.0031934
1.0032233
1.0032575
1.0032955
1.0033375
1.0033832
1.0034327
1.0034859
1.0035426
1.003603
1.0036669
1.0037343
1.0038051
1.0038794
1.0039571
1.0040381
1.0041224
1.0042101
1.0043009
1.004395
1.0044923
1.0045927
1.0046962
1.0048027
1.0049122
1.0050246
1.0051398
1.0052577
1.0053783
1.0055015
1.0056271
1.0057551
1.0058853
1.0060176
1.0061518
1.0062879
1.0064257
1.006565
1.0067056
1.0068473
1.0069901
1.0071337
1.0072778
1.0074223
1.0075671
1.0077118
1.0078562
1.0080003
1.0081435
1.008286
1.0084273
1.0085673
1.0087058
1.0088424
1.0089769
1.0091092
1.0092389
1.0093658
1.0094898
1.0096105
1.0097278
1.0098413
1.0099509
1.0100563
1.0101571
1.0102533
1.0103444
1.0104302
1.0105105
1.0105848
1.0106529
1.0107143
1.0107687
1.0108158
1.0108552
1.0108864
1.010909
1.0109227
1.0109269
1.0109211
1.0109049
1.0108777
1.010839
1.0107883
1.0107251
1.0106488
1.010559
1.0104552
1.0103369
1.0102036
1.0100549
1.0098904
1.0097098
1.0095128
1.0092991
1.0090683
1.0088208
1.0085551
1.0082721
1.00312
1.0031156
1.0031279
1.0031468
1.0031688
1.0031943
1.0032242
1.0032584
1.0032964
1.0033383
1.0033841
1.0034336
1.0034867
1.0035435
1.0036039
1.0036677
1.0037351
1.003806
1.0038802
1.0039579
1.0040389
1.0041232
1.0042108
1.0043017
1.0043958
1.004493
1.0045934
1.0046969
1.0048034
1.0049129
1.0050252
1.0051404
1.0052583
1.0053789
1.0055021
1.0056277
1.0057556
1.0058858
1.006018
1.0061522
1.0062883
1.0064259
1.0065651
1.0067056
1.0068473
1.0069899
1.0071332
1.0072771
1.0074214
1.0075659
1.0077103
1.0078543
1.0079979
1.0081407
1.0082826
1.0084233
1.0085625
1.0087002
1.0088358
1.0089693
1.0091004
1.0092288
1.0093543
1.0094768
1.0095958
1.0097113
1.0098229
1.0099303
1.0100334
1.0101318
1.0102254
1.0103138
1.0103967
1.0104738
1.010545
1.0106097
1.0106677
1.0107187
1.0107622
1.010798
1.0108256
1.0108447
1.0108548
1.0108555
1.0108463
1.0108268
1.0107965
1.0107549
1.0107016
1.010636
1.0105578
1.0104664
1.0103614
1.0102423
1.0101089
1.0099607
1.0097974
1.0096187
1.0094243
1.0092141
1.0089878
1.0087456
1.0084865
1.0082122
1.0031202
1.0031163
1.0031288
1.0031476
1.0031696
1.0031951
1.0032251
1.0032592
1.0032973
1.0033392
1.0033849
1.0034344
1.0034876
1.0035443
1.0036047
1.0036686
1.003736
1.0038068
1.0038811
1.0039587
1.0040397
1.0041241
1.0042117
1.0043026
1.0043967
1.004494
1.0045944
1.0046978
1.0048043
1.0049138
1.0050262
1.0051414
1.0052593
1.0053799
1.005503
1.0056286
1.0057566
1.0058867
1.006019
1.0061531
1.0062891
1.0064268
1.0065659
1.0067063
1.0068478
1.0069903
1.0071335
1.0072773
1.0074214
1.0075656
1.0077096
1.0078534
1.0079966
1.0081389
1.0082803
1.0084204
1.008559
1.0086959
1.0088307
1.0089632
1.0090933
1.0092207
1.009345
1.009466
1.0095836
1.0096974
1.0098073
1.0099128
1.0100139
1.0101102
1.0102014
1.0102874
1.0103677
1.0104422
1.0105105
1.0105723
1.0106272
1.010675
1.0107153
1.0107478
1.0107721
1.0107879
1.0107946
1.010792
1.0107797
1.0107571
1.0107239
1.0106796
1.0106238
1.0105561
1.010476
1.0103832
1.0102772
1.0101578
1.0100244
1.0098769
1.0097149
1.0095382
1.0093465
1.0091398
1.0089177
1.0086805
1.0084273
1.0081604
1.0031204
1.0031171
1.0031296
1.0031483
1.0031704
1.0031959
1.0032258
1.00326
1.003298
1.0033399
1.0033857
1.0034351
1.0034883
1.003545
1.0036054
1.0036693
1.0037367
1.0038075
1.0038817
1.0039594
1.0040404
1.0041247
1.0042123
1.0043032
1.0043973
1.0044945
1.0045949
1.0046984
1.0048049
1.0049143
1.0050267
1.0051418
1.0052597
1.0053803
1.0055034
1.005629
1.0057569
1.005887
1.0060192
1.0061533
1.0062892
1.0064268
1.0065658
1.0067061
1.0068475
1.0069898
1.0071329
1.0072764
1.0074203
1.0075642
1.007708
1.0078514
1.0079942
1.0081362
1.008277
1.0084166
1.0085545
1.0086907
1.0088247
1.0089564
1.0090855
1.0092118
1.0093349
1.0094547
1.0095709
1.0096832
1.0097914
1.0098952
1.0099944
1.0100886
1.0101778
1.0102614
1.0103394
1.0104113
1.010477
1.0105361
1.0105883
1.0106332
1.0106706
1.0107002
1.0107216
1.0107344
1.0107382
1.0107328
1.0107177
1.0106925
1.0106569
1.0106103
1.0105525
1.010483
1.0104015
1.0103076
1.010201
1.0100812
1.0099481
1.0098013
1.0096406
1.0094659
1.0092767
1.0090733
1.0088551
1.0086228
1.0083749
1.0081151
1.0031206
1.0031177
1.0031303
1.003149
1.0031711
1.0031966
1.0032265
1.0032607
1.0032987
1.0033406
1.0033863
1.0034358
1.0034889
1.0035457
1.003606
1.0036699
1.0037373
1.0038081
1.0038823
1.00396
1.004041
1.0041253
1.0042129
1.0043037
1.0043978
1.004495
1.0045954
1.0046989
1.0048053
1.0049148
1.0050271
1.0051423
1.0052602
1.0053807
1.0055038
1.0056293
1.0057572
1.0058872
1.0060194
1.0061534
1.0062893
1.0064268
1.0065657
1.0067059
1.0068472
1.0069894
1.0071323
1.0072756
1.0074193
1.007563
1.0077065
1.0078496
1.007992
1.0081336
1.008274
1.008413
1.0085504
1.0086859
1.0088192
1.0089501
1.0090784
1.0092037
1.0093257
1.0094444
1.0095593
1.0096702
1.009777
1.0098792
1.0099767
1.0100692
1.0101564
1.010238
1.0103139
1.0103836
1.010447
1.0105037
1.0105534
1.0105957
1.0106306
1.0106575
1.0106762
1.0106863
1.0106876
1.0106796
1.010662
1.0106344
1.0105965
1.0105479
1.0104883
1.0104172
1.0103344
1.0102395
1.0101322
1.0100123
1.0098794
1.0097334
1.009574
1.009401
1.0092143
1.0090139
1.0087994
1.0085716
1.0083285
1.0080751
1.0031207
1.0031184
1.003131
1.0031496
1.0031717
1.0031972
1.0032272
1.0032613
1.0032993
1.0033412
1.0033869
1.0034364
1.0034895
1.0035463
1.0036066
1.0036704
1.0037378
1.0038086
1.0038828
1.0039605
1.0040414
1.0041257
1.0042133
1.0043041
1.0043982
1.0044954
1.0045957
1.0046992
1.0048056
1.004915
1.0050273
1.0051424
1.0052603
1.0053808
1.0055038
1.0056293
1.0057571
1.0058871
1.0060192
1.0061532
1.006289
1.0064264
1.0065652
1.0067053
1.0068464
1.0069885
1.0071312
1.0072744
1.0074178
1.0075613
1.0077045
1.0078473
1.0079894
1.0081306
1.0082705
1.0084091
1.0085459
1.0086808
1.0088135
1.0089436
1.0090711
1.0091955
1.0093166
1.0094341
1.0095479
1.0096576
1.009763
1.0098638
1.0099597
1.0100505
1.010136
1.0102158
1.0102897
1.0103574
1.0104187
1.0104731
1.0105206
1.0105606
1.0105931
1.0106176
1.010634
1.0106418
1.0106408
1.0106305
1.0106108
1.0105811
1.0105413
1.010491
1.0104297
1.0103574
1.0102735
1.0101779
1.0100702
1.0099502
1.0098177
1.0096725
1.0095143
1.0093431
1.0091587
1.0089612
1.0087501
1.0085265
1.0082879
1.0080404
1.0031207
1.0031189
1.0031316
1.0031502
1.0031723
1.0031978
1.0032278
1.0032619
1.0032999
1.0033418
1.0033875
1.0034369
1.00349
1.0035468
1.0036071
1.0036709
1.0037383
1.003809
1.0038833
1.0039609
1.0040418
1.0041261
1.0042136
1.0043044
1.0043985
1.0044957
1.004596
1.0046994
1.0048058
1.0049152
1.0050274
1.0051425
1.0052603
1.0053808
1.0055038
1.0056292
1.005757
1.0058869
1.0060189
1.0061528
1.0062885
1.0064258
1.0065645
1.0067045
1.0068456
1.0069875
1.00713
1.007273
1.0074163
1.0075595
1.0077025
1.007845
1.0079868
1.0081275
1.0082671
1.0084052
1.0085415
1.0086759
1.0088079
1.0089374
1.0090641
1.0091877
1.0093079
1.0094245
1.0095372
1.0096458
1.0097499
1.0098494
1.009944
1.0100333
1.0101172
1.0101953
1.0102675
1.0103334
1.0103928
1.0104453
1.0104907
1.0105288
1.0105591
1.0105816
1.0105958
1.0106015
1.0105984
1.0105861
1.0105644
1.010533
1.0104915
1.0104395
1.010377
1.0103034
1.0102187
1.0101224
1.0100144
1.0098945
1.0097624
1.0096179
1.009461
1.0092915
1.0091092
1.0089144
1.0087065
1.0084868
1.0082524
1.0080103
1.0031208
1.0031195
1.0031322
1.0031507
1.0031728
1.0031984
1.0032283
1.0032624
1.0033004
1.0033423
1.003388
1.0034374
1.0034905
1.0035472
1.0036075
1.0036713
1.0037386
1.0038094
1.0038836
1.0039612
1.0040421
1.0041263
1.0042139
1.0043046
1.0043986
1.0044958
1.0045961
1.0046994
1.0048058
1.0049152
1.0050274
1.0051424
1.0052602
1.0053806
1.0055035
1.0056289
1.0057566
1.0058865
1.0060184
1.0061522
1.0062878
1.006425
1.0065637
1.0067035
1.0068444
1.0069862
1.0071286
1.0072714
1.0074144
1.0075574
1.0077002
1.0078424
1.0079839
1.0081243
1.0082635
1.0084012
1.008537
1.0086709
1.0088023
1.0089312
1.0090572
1.00918
1.0092994
1.0094152
1.0095269
1.0096344
1.0097375
1.0098358
1.0099291
1.010017
1.0100995
1.0101761
1.0102467
1.010311
1.0103687
1.0104194
1.010463
1.0104992
1.0105277
1.0105483
1.0105606
1.0105645
1.0105595
1.0105455
1.0105221
1.0104891
1.0104461
1.0103928
1.0103291
1.0102546
1.0101692
1.0100724
1.0099643
1.0098445
1.0097128
1.0095692
1.0094135
1.0092456
1.0090654
1.0088731
1.0086682
1.008452
1.0082217
1.0079842
1.0031207
1.00312
1.0031328
1.0031512
1.0031733
1.0031989
1.0032288
1.0032629
1.0033009
1.0033427
1.0033884
1.0034378
1.0034909
1.0035476
1.0036079
1.0036717
1.003739
1.0038097
1.0038839
1.0039614
1.0040423
1.0041265
1.004214
1.0043048
1.0043987
1.0044959
1.0045961
1.0046994
1.0048058
1.0049151
1.0050272
1.0051422
1.0052599
1.0053803
1.0055032
1.0056285
1.0057561
1.0058859
1.0060177
1.0061515
1.006287
1.0064241
1.0065626
1.0067024
1.0068432
1.0069848
1.007127
1.0072696
1.0074125
1.0075553
1.0076978
1.0078397
1.0079809
1.008121
1.0082599
1.0083972
1.0085326
1.0086659
1.0087969
1.0089251
1.0090505
1.0091727
1.0092913
1.0094062
1.0095171
1.0096237
1.0097258
1.009823
1.0099151
1.0100019
1.0100831
1.0101584
1.0102275
1.0102903
1.0103465
1.0103957
1.0104377
1.0104722
1.0104991
1.0105179
1.0105286
1.0105308
1.0105243
1.0105087
1.0104838
1.0104494
1.0104051
1.0103507
1.010286
1.0102107
1.0101246
1.0100276
1.0099193
1.0097997
1.0096686
1.0095257
1.0093712
1.0092049
1.0090267
1.0088367
1.0086347
1.0084217
1.0081951
1.007962
1.0031207
1.0031204
1.0031333
1.0031517
1.0031738
1.0031994
1.0032293
1.0032633
1.0033013
1.0033431
1.0033888
1.0034382
1.0034912
1.0035479
1.0036082
1.0036719
1.0037392
1.0038099
1.0038841
1.0039616
1.0040425
1.0041266
1.0042141
1.0043048
1.0043987
1.0044958
1.004596
1.0046993
1.0048056
1.0049148
1.005027
1.0051419
1.0052596
1.0053798
1.0055027
1.0056279
1.0057554
1.0058852
1.0060169
1.0061506
1.006286
1.006423
1.0065614
1.0067011
1.0068417
1.0069832
1.0071253
1.0072677
1.0074104
1.007553
1.0076952
1.007837
1.0079778
1.0081177
1.0082562
1.0083931
1.0085281
1.008661
1.0087915
1.0089192
1.009044
1.0091655
1.0092835
1.0093977
1.0095078
1.0096135
1.0097146
1.0098109
1.009902
1.0099877
1.0100677
1.0101418
1.0102097
1.0102712
1.0103259
1.0103737
1.0104143
1.0104474
1.0104727
1.0104901
1.0104993
1.0105001
1.0104921
1.0104751
1.010449
1.0104133
1.0103679
1.0103126
1.010247
1.0101711
1.0100846
1.0099873
1.009879
1.0097596
1.009629
1.009487
1.0093337
1.0091689
1.0089925
1.0088048
1.0086055
1.0083956
1.0081725
1.0079431
1.0031206
1.0031208
1.0031338
1.0031521
1.0031742
1.0031998
1.0032297
1.0032637
1.0033017
1.0033435
1.0033891
1.0034385
1.0034916
1.0035482
1.0036084
1.0036722
1.0037394
1.0038101
1.0038842
1.0039617
1.0040426
1.0041267
1.0042141
1.0043048
1.0043987
1.0044957
1.0045959
1.0046991
1.0048054
1.0049146
1.0050266
1.0051415
1.0052591
1.0053793
1.0055021
1.0056272
1.0057547
1.0058844
1.006016
1.0061496
1.0062849
1.0064218
1.0065601
1.0066996
1.0068401
1.0069815
1.0071234
1.0072657
1.0074082
1.0075505
1.0076926
1.0078341
1.0079747
1.0081142
1.0082524
1.008389
1.0085236
1.0086561
1.0087861
1.0089134
1.0090376
1.0091586
1.0092759
1.0093895
1.0094988
1.0096038
1.0097041
1.0097995
1.0098897
1.0099744
1.0100533
1.0101263
1.0101931
1.0102534
1.010307
1.0103535
1.0103928
1.0104246
1.0104486
1.0104647
1.0104726
1.0104721
1.0104629
1.0104447
1.0104174
1.0103807
1.0103344
1.0102782
1.010212
1.0101355
1.0100486
1.0099511
1.0098429
1.0097239
1.0095938
1.0094527
1.0093005
1.0091372
1.0089626
1.008777
1.0085801
1.0083731
1.0081533
1.0079274
1.0031204
1.0031212
1.0031342
1.0031525
1.0031746
1.0032002
1.00323
1.0032641
1.003302
1.0033438
1.0033895
1.0034388
1.0034918
1.0035485
1.0036087
1.0036724
1.0037396
1.0038103
1.0038843
1.0039618
1.0040426
1.0041267
1.0042141
1.0043047
1.0043986
1.0044956
1.0045957
1.0046989
1.0048051
1.0049142
1.0050262
1.005141
1.0052585
1.0053787
1.0055014
1.0056265
1.0057539
1.0058834
1.006015
1.0061485
1.0062837
1.0064205
1.0065587
1.0066981
1.0068384
1.0069796
1.0071214
1.0072635
1.0074058
1.007548
1.0076899
1.0078311
1.0079715
1.0081108
1.0082487
1.0083849
1.0085192
1.0086513
1.0087809
1.0089077
1.0090315
1.0091519
1.0092687
1.0093816
1.0094903
1.0095946
1.0096942
1.0097887
1.0098781
1.0099619
1.0100399
1.010112
1.0101777
1.010237
1.0102895
1.0103349
1.010373
1.0104036
1.0104265
1.0104415
1.0104482
1.0104466
1.0104363
1.0104171
1.0103888
1.0103512
1.0103041
1.0102472
1.0101804
1.0101035
1.0100164
1.0099189
1.0098108
1.009692
1.0095626
1.0094223
1.0092712
1.0091093
1.0089364
1.0087529
1.0085583
1.0083539
1.0081373
1.0079144
1.0031203
1.0031216
1.0031346
1.0031529
1.003175
1.0032005
1.0032304
1.0032644
1.0033024
1.0033441
1.0033897
1.0034391
1.003492
1.0035487
1.0036088
1.0036725
1.0037397
1.0038104
1.0038844
1.0039618
1.0040426
1.0041267
1.004214
1.0043046
1.0043984
1.0044953
1.0045954
1.0046985
1.0048047
1.0049137
1.0050257
1.0051404
1.0052579
1.005378
1.0055006
1.0056256
1.0057529
1.0058824
1.0060139
1.0061473
1.0062824
1.0064191
1.0065571
1.0066964
1.0068367
1.0069777
1.0071193
1.0072613
1.0074034
1.0075454
1.0076871
1.0078281
1.0079683
1.0081073
1.0082449
1.0083808
1.0085148
1.0086465
1.0087758
1.0089021
1.0090255
1.0091454
1.0092617
1.0093741
1.0094822
1.0095858
1.0096847
1.0097786
1.0098672
1.0099502
1.0100274
1.0100986
1.0101635
1.0102218
1.0102733
1.0103177
1.0103548
1.0103845
1.0104063
1.0104203
1.010426
1.0104234
1.0104121
1.0103921
1.0103629
1.0103246
1.0102768
1.0102194
1.0101521
1.0100749
1.0099876
1.00989
1.0097821
1.0096638
1.0095349
1.0093955
1.0092455
1.0090849
1.0089137
1.008732
1.0085397
1.0083378
1.0081241
1.0079042
1.0031201
1.003122
1.003135
1.0031532
1.0031753
1.0032009
1.0032307
1.0032647
1.0033026
1.0033444
1.00339
1.0034393
1.0034922
1.0035488
1.003609
1.0036727
1.0037398
1.0038104
1.0038844
1.0039618
1.0040425
1.0041266
1.0042139
1.0043044
1.0043982
1.0044951
1.0045951
1.0046982
1.0048042
1.0049133
1.0050251
1.0051398
1.0052572
1.0053772
1.0054997
1.0056247
1.0057519
1.0058813
1.0060127
1.006146
1.006281
1.0064176
1.0065555
1.0066947
1.0068348
1.0069757
1.0071172
1.007259
1.007401
1.0075428
1.0076842
1.0078251
1.007965
1.0081038
1.0082411
1.0083768
1.0085104
1.0086418
1.0087707
1.0088967
1.0090197
1.0091392
1.009255
1.0093668
1.0094744
1.0095775
1.0096758
1.009769
1.0098569
1.0099393
1.0100157
1.0100861
1.0101502
1.0102077
1.0102583
1.0103019
1.0103381
1.0103669
1.0103879
1.0104009
1.0104058
1.0104023
1.0103902
1.0103694
1.0103396
1.0103006
1.0102522
1.0101943
1.0101267
1.0100493
1.0099619
1.0098644
1.0097567
1.0096388
1.0095105
1.009372
1.009223
1.0090637
1.008894
1.0087142
1.008524
1.0083244
1.0081135
1.0078963
1.0031199
1.0031223
1.0031353
1.0031535
1.0031756
1.0032011
1.003231
1.003265
1.0033029
1.0033446
1.0033902
1.0034395
1.0034924
1.003549
1.0036091
1.0036727
1.0037399
1.0038104
1.0038844
1.0039618
1.0040425
1.0041264
1.0042137
1.0043042
1.0043979
1.0044948
1.0045947
1.0046977
1.0048038
1.0049127
1.0050245
1.0051391
1.0052565
1.0053764
1.0054988
1.0056237
1.0057508
1.0058801
1.0060115
1.0061447
1.0062796
1.006416
1.0065538
1.0066929
1.0068329
1.0069736
1.007115
1.0072567
1.0073984
1.0075401
1.0076813
1.007822
1.0079617
1.0081002
1.0082373
1.0083727
1.0085061
1.0086372
1.0087658
1.0088914
1.009014
1.0091331
1.0092485
1.0093599
1.009467
1.0095696
1.0096673
1.00976
1.0098473
1.009929
1.0100048
1.0100745
1.0101378
1.0101946
1.0102445
1.0102873
1.0103228
1.0103507
1.0103709
1.0103832
1.0103873
1.0103831
1.0103704
1.0103489
1.0103184
1.0102789
1.0102301
1.0101719
1.010104
1.0100264
1.009939
1.0098416
1.0097343
1.0096168
1.0094891
1.0093514
1.0092035
1.0090454
1.0088772
1.0086991
1.0085109
1.0083135
1.0081051
1.0078907
1.0031197
1.0031226
1.0031357
1.0031538
1.0031759
1.0032014
1.0032312
1.0032652
1.0033031
1.0033448
1.0033904
1.0034396
1.0034925
1.0035491
1.0036092
1.0036728
1.0037399
1.0038104
1.0038844
1.0039617
1.0040423
1.0041263
1.0042135
1.004304
1.0043976
1.0044944
1.0045943
1.0046973
1.0048032
1.0049121
1.0050239
1.0051384
1.0052557
1.0053755
1.0054979
1.0056227
1.0057497
1.0058789
1.0060101
1.0061432
1.0062781
1.0064144
1.0065521
1.006691
1.0068309
1.0069715
1.0071127
1.0072543
1.0073959
1.0075374
1.0076784
1.0078189
1.0079584
1.0080967
1.0082336
1.0083687
1.0085019
1.0086327
1.008761
1.0088863
1.0090085
1.0091273
1.0092422
1.0093532
1.0094599
1.009562
1.0096593
1.0097514
1.0098382
1.0099193
1.0099946
1.0100637
1.0101264
1.0101825
1.0102317
1.0102739
1.0103087
1.0103359
1.0103555
1.0103671
1.0103706
1.0103657
1.0103524
1.0103303
1.0102994
1.0102594
1.0102103
1.0101518
1.0100837
1.0100061
1.0099187
1.0098215
1.0097144
1.0095974
1.0094704
1.0093335
1.0091865
1.0090297
1.0088629
1.0086864
1.0085001
1.0083048
1.0080988
1.0078869
1.0031195
1.0031229
1.003136
1.003154
1.0031762
1.0032017
1.0032315
1.0032654
1.0033033
1.003345
1.0033905
1.0034398
1.0034927
1.0035492
1.0036092
1.0036728
1.0037399
1.0038104
1.0038843
1.0039616
1.0040422
1.0041261
1.0042133
1.0043037
1.0043973
1.004494
1.0045939
1.0046968
1.0048027
1.0049115
1.0050232
1.0051376
1.0052548
1.0053746
1.0054969
1.0056216
1.0057485
1.0058777
1.0060088
1.0061418
1.0062765
1.0064127
1.0065503
1.0066891
1.0068289
1.0069694
1.0071104
1.0072518
1.0073933
1.0075346
1.0076755
1.0078158
1.0079551
1.0080932
1.0082299
1.0083648
1.0084977
1.0086283
1.0087562
1.0088813
1.0090032
1.0091216
1.0092362
1.0093469
1.0094532
1.0095548
1.0096517
1.0097434
1.0098297
1.0099103
1.009985
1.0100536
1.0101157
1.0101712
1.0102199
1.0102615
1.0102957
1.0103224
1.0103413
1.0103524
1.0103553
1.0103499
1.0103361
1.0103136
1.0102823
1.010242
1.0101925
1.0101338
1.0100657
1.009988
1.0099007
1.0098037
1.009697
1.0095805
1.0094541
1.009318
1.009172
1.0090163
1.0088509
1.008676
1.0084914
1.0082981
1.0080943
1.0078848
1.0031192
1.0031231
1.0031362
1.0031542
1.0031764
1.0032019
1.0032317
1.0032656
1.0033035
1.0033452
1.0033907
1.0034399
1.0034927
1.0035492
1.0036093
1.0036728
1.0037399
1.0038103
1.0038842
1.0039614
1.004042
1.0041259
1.004213
1.0043034
1.0043969
1.0044936
1.0045934
1.0046962
1.0048021
1.0049108
1.0050224
1.0051368
1.0052539
1.0053736
1.0054959
1.0056205
1.0057473
1.0058764
1.0060074
1.0061403
1.0062749
1.006411
1.0065485
1.0066872
1.0068268
1.0069672
1.0071081
1.0072494
1.0073907
1.0075319
1.0076726
1.0078127
1.0079518
1.0080898
1.0082262
1.0083609
1.0084936
1.0086239
1.0087516
1.0088764
1.008998
1.0091161
1.0092305
1.0093407
1.0094467
1.009548
1.0096444
1.0097357
1.0098216
1.0099018
1.009976
1.0100441
1.0101058
1.0101608
1.010209
1.0102501
1.0102838
1.0103099
1.0103284
1.010339
1.0103414
1.0103356
1.0103214
1.0102985
1.0102669
1.0102263
1.0101767
1.0101178
1.0100496
1.009972
1.0098848
1.0097881
1.0096818
1.0095658
1.0094401
1.0093047
1.0091597
1.0090051
1.008841
1.0086676
1.0084847
1.0082932
1.0080915
1.0078842
1.003119
1.0031234
1.0031365
1.0031545
1.0031766
1.0032021
1.0032319
1.0032658
1.0033036
1.0033453
1.0033908
1.00344
1.0034928
1.0035493
1.0036093
1.0036728
1.0037398
1.0038103
1.0038841
1.0039613
1.0040418
1.0041256
1.0042127
1.004303
1.0043965
1.0044932
1.0045929
1.0046957
1.0048014
1.0049101
1.0050217
1.005136
1.005253
1.0053727
1.0054948
1.0056193
1.0057461
1.005875
1.006006
1.0061388
1.0062733
1.0064093
1.0065467
1.0066852
1.0068247
1.006965
1.0071058
1.0072469
1.0073881
1.0075291
1.0076697
1.0078096
1.0079486
1.0080863
1.0082226
1.0083571
1.0084895
1.0086197
1.0087471
1.0088717
1.008993
1.0091108
1.0092249
1.0093349
1.0094405
1.0095415
1.0096376
1.0097285
1.009814
1.0098938
1.0099676
1.0100353
1.0100966
1.0101512
1.0101989
1.0102395
1.0102728
1.0102986
1.0103166
1.0103267
1.0103288
1.0103227
1.0103081
1.0102849
1.010253
1.0102123
1.0101625
1.0101036
1.0100354
1.0099579
1.0098709
1.0097745
1.0096685
1.009553
1.009428
1.0092934
1.0091494
1.0089958
1.008833
1.008661
1.0084797
1.0082899
1.0080902
1.0078849
1.0031187
1.0031236
1.0031367
1.0031547
1.0031768
1.0032023
1.003232
1.003266
1.0033038
1.0033454
1.0033909
1.00344
1.0034929
1.0035493
1.0036093
1.0036728
1.0037397
1.0038101
1.0038839
1.0039611
1.0040416
1.0041254
1.0042124
1.0043027
1.0043961
1.0044927
1.0045924
1.0046951
1.0048008
1.0049094
1.0050209
1.0051352
1.0052521
1.0053717
1.0054937
1.0056181
1.0057449
1.0058737
1.0060045
1.0061372
1.0062716
1.0064076
1.0065448
1.0066833
1.0068226
1.0069628
1.0071034
1.0072444
1.0073855
1.0075263
1.0076668
1.0078065
1.0079453
1.0080829
1.008219
1.0083533
1.0084856
1.0086155
1.0087427
1.008867
1.0089882
1.0091057
1.0092195
1.0093292
1.0094346
1.0095353
1.0096311
1.0097216
1.0098068
1.0098863
1.0099598
1.0100271
1.010088
1.0101422
1.0101896
1.0102298
1.0102627
1.0102881
1.0103058
1.0103156
1.0103174
1.010311
1.0102961
1.0102727
1.0102407
1.0101998
1.0101499
1.010091
1.0100228
1.0099455
1.0098587
1.0097626
1.0096571
1.0095421
1.0094177
1.0092839
1.0091408
1.0089883
1.0088267
1.008656
1.0084762
1.0082881
1.0080902
1.0078869
1.0031185
1.0031238
1.0031369
1.0031548
1.003177
1.0032025
1.0032322
1.0032661
1.0033039
1.0033455
1.003391
1.0034401
1.0034929
1.0035493
1.0036093
1.0036727
1.0037397
1.00381
1.0038838
1.0039609
1.0040414
1.0041251
1.0042121
1.0043023
1.0043957
1.0044922
1.0045918
1.0046945
1.0048001
1.0049087
1.0050201
1.0051343
1.0052512
1.0053706
1.0054926
1.005617
1.0057436
1.0058723
1.0060031
1.0061357
1.00627
1.0064058
1.006543
1.0066813
1.0068206
1.0069606
1.0071011
1.007242
1.0073829
1.0075236
1.0076639
1.0078035
1.0079422
1.0080796
1.0082155
1.0083496
1.0084817
1.0086114
1.0087385
1.0088626
1.0089835
1.0091008
1.0092144
1.0093238
1.0094289
1.0095293
1.0096249
1.0097152
1.0098
1.0098792
1.0099524
1.0100194
1.01008
1.0101339
1.0101809
1.0102209
1.0102535
1.0102786
1.010296
1.0103055
1.010307
1.0103004
1.0102853
1.0102618
1.0102296
1.0101886
1.0101387
1.0100798
1.0100118
1.0099346
1.0098481
1.0097524
1.0096473
1.0095329
1.0094091
1.0092761
1.0091338
1.0089824
1.0088218
1.0086524
1.0084741
1.0082876
1.0080915
1.0078899
1.0031182
1.003124
1.0031371
1.003155
1.0031771
1.0032026
1.0032323
1.0032662
1.003304
1.0033456
1.003391
1.0034401
1.0034929
1.0035493
1.0036092
1.0036726
1.0037396
1.0038099
1.0038836
1.0039607
1.0040411
1.0041248
1.0042117
1.0043019
1.0043952
1.0044917
1.0045913
1.0046939
1.0047995
1.004908
1.0050193
1.0051334
1.0052502
1.0053696
1.0054915
1.0056158
1.0057423
1.005871
1.0060016
1.0061341
1.0062683
1.006404
1.0065411
1.0066793
1.0068185
1.0069584
1.0070988
1.0072395
1.0073803
1.0075209
1.007661
1.0078005
1.007939
1.0080763
1.008212
1.008346
1.0084779
1.0086074
1.0087343
1.0088582
1.0089789
1.009096
1.0092094
1.0093186
1.0094235
1.0095237
1.009619
1.009709
1.0097936
1.0098725
1.0099455
1.0100122
1.0100725
1.0101262
1.0101729
1.0102126
1.010245
1.0102698
1.010287
1.0102963
1.0102976
1.0102908
1.0102756
1.0102519
1.0102197
1.0101787
1.0101288
1.01007
1.0100021
1.0099251
1.009839
1.0097436
1.0096389
1.0095251
1.009402
1.0092697
1.0091283
1.0089778
1.0088184
1.0086502
1.0084733
1.0082882
1.0080939
1.0078939
1.0031179
1.0031242
1.0031373
1.0031552
1.0031773
1.0032027
1.0032325
1.0032663
1.0033041
1.0033457
1.0033911
1.0034402
1.0034929
1.0035493
1.0036092
1.0036726
1.0037394
1.0038097
1.0038834
1.0039605
1.0040408
1.0041245
1.0042114
1.0043015
1.0043948
1.0044912
1.0045907
1.0046933
1.0047988
1.0049072
1.0050185
1.0051325
1.0052493
1.0053686
1.0054904
1.0056146
1.005741
1.0058696
1.0060001
1.0061326
1.0062667
1.0064023
1.0065392
1.0066773
1.0068164
1.0069561
1.0070964
1.007237
1.0073777
1.0075182
1.0076582
1.0077975
1.0079359
1.008073
1.0082086
1.0083424
1.0084742
1.0086035
1.0087302
1.008854
1.0089745
1.0090914
1.0092046
1.0093136
1.0094183
1.0095183
1.0096133
1.0097032
1.0097876
1.0098663
1.009939
1.0100055
1.0100656
1.010119
1.0101655
1.010205
1.0102371
1.0102618
1.0102788
1.0102879
1.0102891
1.0102822
1.0102669
1.0102432
1.0102109
1.0101699
1.0101201
1.0100614
1.0099937
1.009917
1.0098311
1.0097361
1.0096319
1.0095186
1.0093962
1.0092646
1.009124
1.0089745
1.0088162
1.0086492
1.0084735
1.0082899
1.0080972
1.0078987
1.0031177
1.0031244
1.0031375
1.0031553
1.0031774
1.0032029
1.0032326
1.0032664
1.0033042
1.0033457
1.0033911
1.0034402
1.0034929
1.0035492
1.0036091
1.0036725
1.0037393
1.0038096
1.0038832
1.0039602
1.0040406
1.0041242
1.004211
1.0043011
1.0043943
1.0044907
1.0045901
1.0046926
1.0047981
1.0049065
1.0050177
1.0051316
1.0052483
1.0053675
1.0054892
1.0056133
1.0057397
1.0058682
1.0059987
1.006131
1.006265
1.0064005
1.0065373
1.0066753
1.0068143
1.006954
1.0070941
1.0072346
1.0073752
1.0075155
1.0076554
1.0077946
1.0079328
1.0080698
1.0082053
1.0083389
1.0084705
1.0085997
1.0087263
1.0088498
1.0089702
1.009087
1.0092
1.0093088
1.0094133
1.0095131
1.009608
1.0096976
1.0097819
1.0098603
1.0099328
1.0099992
1.0100591
1.0101123
1.0101587
1.010198
1.0102299
1.0102545
1.0102713
1.0102803
1.0102814
1.0102744
1.010259
1.0102353
1.010203
1.0101621
1.0101124
1.0100539
1.0099864
1.0099099
1.0098244
1.0097298
1.0096261
1.0095134
1.0093915
1.0092607
1.009121
1.0089724
1.0088151
1.0086492
1.0084748
1.0082925
1.0081013
1.0079043
1.0031174
1.0031245
1.0031376
1.0031554
1.0031775
1.003203
1.0032327
1.0032665
1.0033042
1.0033458
1.0033911
1.0034402
1.0034929
1.0035492
1.003609
1.0036724
1.0037392
1.0038094
1.003883
1.00396
1.0040403
1.0041238
1.0042107
1.0043007
1.0043939
1.0044902
1.0045896
1.004692
1.0047974
1.0049057