/*--------------------------------*- C++ -*----------------------------------*\
| =========                 |                                                 |
| \\      /  F ield         | OpenFOAM: The Open Source CFD Toolbox           |
|  \\    /   O peration     | Version:  2406                                  |
|   \\  /    A nd           | Website:  www.openfoam.com                      |
|    \\/     M anipulation  |                                                 |
\*---------------------------------------------------------------------------*/
FoamFile
{
    version     2.0;
    format      ascii;
    arch        "LSB;label=32;scalar=64";
    class       volScalarField;
    location    "1200";
    object      pPrime2Mean;
}
// * * * * * * * * * * * * * * * * * * * * * * * * * * * * * * * * * * * * * //

dimensions      [2 -2 -4 0 0 0 0];

internalField   nonuniform List<scalar> 
132739
(
2.0911952e-08
2.4448467e-08
2.6310065e-08
2.6069559e-08
2.6594714e-08
2.7817072e-08
2.8997735e-08
3.0228946e-08
3.1661151e-08
3.3266336e-08
3.5023766e-08
3.6948471e-08
3.9055548e-08
4.1353972e-08
4.3849839e-08
4.6553e-08
4.9480012e-08
5.265095e-08
5.6073023e-08
5.9760693e-08
6.3736561e-08
6.8016497e-08
7.2617272e-08
7.7563309e-08
8.2879018e-08
8.857733e-08
9.4688101e-08
1.0122998e-07
1.082277e-07
1.1572483e-07
1.2372157e-07
1.3226858e-07
1.4141288e-07
1.5114549e-07
1.6154845e-07
1.7261532e-07
1.8440544e-07
1.969928e-07
2.1033319e-07
2.2453299e-07
2.3964973e-07
2.5567745e-07
2.7264504e-07
2.9064271e-07
3.0973471e-07
3.2986821e-07
3.5110645e-07
3.7356314e-07
3.9721502e-07
4.2211275e-07
4.483106e-07
4.7589964e-07
5.0494225e-07
5.3528197e-07
5.674156e-07
6.011522e-07
6.3633311e-07
6.7309626e-07
7.1182554e-07
7.5230305e-07
7.9444321e-07
8.3798602e-07
8.8373917e-07
9.309491e-07
9.8022447e-07
1.0317374e-06
1.0855086e-06
1.1410677e-06
1.1989413e-06
1.260073e-06
1.3241905e-06
1.3909726e-06
1.4610589e-06
1.5345871e-06
1.6117486e-06
1.6931919e-06
1.7798202e-06
1.8722641e-06
1.9711857e-06
2.0773937e-06
2.1918552e-06
2.3156576e-06
2.4501517e-06
2.5968284e-06
2.7573133e-06
2.9335707e-06
3.1275311e-06
3.340969e-06
3.5760677e-06
3.8353077e-06
4.1215862e-06
4.4380777e-06
4.7880945e-06
5.1752738e-06
5.6030172e-06
6.0753812e-06
6.5964362e-06
7.1709673e-06
7.8032472e-06
8.4993665e-06
9.260944e-06
1.009199e-05
1.0984308e-05
1.1930576e-05
2.0917257e-08
2.4474357e-08
2.6343551e-08
2.6092354e-08
2.6617619e-08
2.7841255e-08
2.9021671e-08
3.0252723e-08
3.1684703e-08
3.3289644e-08
3.5046721e-08
3.6971049e-08
3.9077533e-08
4.1375517e-08
4.3870581e-08
4.6572683e-08
4.9498701e-08
5.2668587e-08
5.6089017e-08
5.9775186e-08
6.3750205e-08
6.8029193e-08
7.2629685e-08
7.7574221e-08
8.2889591e-08
8.858824e-08
9.4699733e-08
1.01245e-07
1.0824262e-07
1.1574319e-07
1.2374974e-07
1.3230317e-07
1.4145271e-07
1.5119676e-07
1.6161395e-07
1.7270042e-07
1.8450544e-07
1.9711219e-07
2.1049366e-07
2.2472617e-07
2.3987005e-07
2.5594813e-07
2.7296718e-07
2.9102037e-07
3.1018084e-07
3.3041125e-07
3.5179014e-07
3.7438311e-07
3.9818451e-07
4.2323539e-07
4.4960963e-07
4.7749499e-07
5.0663981e-07
5.3740842e-07
5.6957297e-07
6.0357216e-07
6.3876998e-07
6.7551961e-07
7.1393864e-07
7.5413479e-07
7.96256e-07
8.401305e-07
8.8611787e-07
9.3402759e-07
9.838731e-07
1.0362545e-06
1.0909252e-06
1.1477049e-06
1.2068111e-06
1.26881e-06
1.3336464e-06
1.4012985e-06
1.4719029e-06
1.5460989e-06
1.6240057e-06
1.7059723e-06
1.7927461e-06
1.8848549e-06
1.9829755e-06
2.0878835e-06
2.2005112e-06
2.3218522e-06
2.4530708e-06
2.5953711e-06
2.7499594e-06
2.9183852e-06
3.1024664e-06
3.3041505e-06
3.5254677e-06
3.7685052e-06
4.0356685e-06
4.329495e-06
4.6527895e-06
5.0089504e-06
5.4014223e-06
5.833793e-06
6.3097882e-06
6.8339683e-06
7.4101434e-06
8.0437382e-06
8.7396983e-06
9.5056585e-06
1.035477e-05
1.1292718e-05
2.091991e-08
2.4503929e-08
2.6381107e-08
2.6115241e-08
2.6641531e-08
2.7868758e-08
2.9050689e-08
3.0283823e-08
3.1718494e-08
3.3326193e-08
3.5086523e-08
3.7014716e-08
3.9125196e-08
4.1427571e-08
4.3927427e-08
4.6635037e-08
4.956673e-08
5.2742999e-08
5.6170172e-08
5.9864352e-08
6.3849337e-08
6.8137555e-08
7.2749571e-08
7.7707203e-08
8.3037033e-08
8.8751792e-08
9.488157e-08
1.0144967e-07
1.0846877e-07
1.1599463e-07
1.2403384e-07
1.3262334e-07
1.4181043e-07
1.515984e-07
1.6206397e-07
1.7320705e-07
1.8507336e-07
1.9774324e-07
2.1120679e-07
2.2552751e-07
2.4076532e-07
2.5695197e-07
2.7408925e-07
2.9226638e-07
3.1157784e-07
3.3199736e-07
3.5358876e-07
3.76421e-07
4.0047324e-07
4.258211e-07
4.5248367e-07
4.8061327e-07
5.1002154e-07
5.4104441e-07
5.7342884e-07
6.0748971e-07
6.4305686e-07
6.8032055e-07
7.193162e-07
7.6018349e-07
8.0292504e-07
8.4763801e-07
8.944825e-07
9.432702e-07
9.9404599e-07
1.047213e-06
1.1027479e-06
1.1605254e-06
1.2207461e-06
1.283883e-06
1.350007e-06
1.419217e-06
1.4914887e-06
1.5674271e-06
1.6473201e-06
1.7316448e-06
1.8212133e-06
1.9165695e-06
2.0182504e-06
2.1269858e-06
2.2436984e-06
2.3692913e-06
2.5048986e-06
2.6517929e-06
2.8111841e-06
2.9844344e-06
3.1731375e-06
3.3788682e-06
3.6035137e-06
3.8493581e-06
4.1187225e-06
4.4139896e-06
4.7380629e-06
5.0939767e-06
5.4849651e-06
5.914613e-06
6.3865847e-06
6.9049224e-06
7.4737901e-06
8.0970069e-06
8.7806061e-06
9.5236311e-06
1.0349404e-05
1.1199599e-05
2.0920529e-08
2.4532855e-08
2.6411265e-08
2.6133738e-08
2.6662217e-08
2.7891896e-08
2.9073578e-08
3.0307438e-08
3.1743097e-08
3.33516e-08
3.5112672e-08
3.7041635e-08
3.9153408e-08
4.1456879e-08
4.3957562e-08
4.6666642e-08
4.9599713e-08
5.2777225e-08
5.6205895e-08
5.9901702e-08
6.3889783e-08
6.8180728e-08
7.2795895e-08
7.77583e-08
8.3092851e-08
8.8813696e-08
9.4949155e-08
1.0152727e-07
1.0855687e-07
1.16094e-07
1.2414908e-07
1.3275521e-07
1.4196188e-07
1.5177172e-07
1.6226328e-07
1.7343894e-07
1.8533911e-07
1.9804492e-07
2.1155718e-07
2.2593475e-07
2.412168e-07
2.5746912e-07
2.7469974e-07
2.9294745e-07
3.123431e-07
3.3286655e-07
3.54556e-07
3.775001e-07
4.016894e-07
4.2723424e-07
4.54086e-07
4.8246138e-07
5.1210491e-07
5.4338152e-07
5.7610696e-07
6.1042187e-07
6.4639186e-07
6.839712e-07
7.2336015e-07
7.6459308e-07
8.0756112e-07
8.526722e-07
8.9991734e-07
9.4922665e-07
1.0006419e-06
1.0543997e-06
1.110617e-06
1.1691925e-06
1.2302716e-06
1.2942743e-06
1.3612655e-06
1.4313609e-06
1.5047234e-06
1.5817085e-06
1.6626223e-06
1.7479671e-06
1.8384782e-06
1.9347472e-06
2.0373684e-06
2.1470919e-06
2.2648895e-06
2.3917948e-06
2.5289142e-06
2.6774821e-06
2.8388382e-06
3.014356e-06
3.2056572e-06
3.4143602e-06
3.6422053e-06
3.8912184e-06
4.1635711e-06
4.4616815e-06
4.7879438e-06
5.1450919e-06
5.5362504e-06
5.9646046e-06
6.433796e-06
6.9475819e-06
7.5095716e-06
8.12328e-06
8.7957047e-06
9.5231779e-06
1.0329925e-05
1.1172513e-05
2.0919048e-08
2.4562025e-08
2.6441516e-08
2.6151667e-08
2.6682552e-08
2.7914305e-08
2.909609e-08
3.0331289e-08
3.1768654e-08
3.3378637e-08
3.514133e-08
3.7072561e-08
3.9186636e-08
4.149224e-08
4.3995321e-08
4.6707717e-08
4.9643589e-08
5.2824091e-08
5.6256537e-08
5.9955746e-08
6.3949261e-08
6.8245633e-08
7.286581e-08
7.7835685e-08
8.3177779e-08
8.8907082e-08
9.5053273e-08
1.0164384e-07
1.0868606e-07
1.1623751e-07
1.2431137e-07
1.3293907e-07
1.4216909e-07
1.5200419e-07
1.6252636e-07
1.7373896e-07
1.8567674e-07
1.9842286e-07
2.1198502e-07
2.2642752e-07
2.4176805e-07
2.5807415e-07
2.7539754e-07
2.9373978e-07
3.1322052e-07
3.3385136e-07
3.5566116e-07
3.7875155e-07
4.0309443e-07
4.2877695e-07
4.5580978e-07
4.8432756e-07
5.1418824e-07
5.4566765e-07
5.7864026e-07
6.1320799e-07
6.494782e-07
6.8739904e-07
7.2714606e-07
7.6875824e-07
8.1223264e-07
8.5788414e-07
9.0563563e-07
9.5546547e-07
1.0074802e-06
1.0618359e-06
1.1186839e-06
1.1779852e-06
1.2398664e-06
1.3047046e-06
1.3726023e-06
1.443698e-06
1.518213e-06
1.5963897e-06
1.6786465e-06
1.7655964e-06
1.8579075e-06
1.956144e-06
2.060838e-06
2.1727815e-06
2.2927682e-06
2.4217991e-06
2.5609738e-06
2.711429e-06
2.8745048e-06
3.0513794e-06
3.2435661e-06
3.4526741e-06
3.6803548e-06
3.9285683e-06
4.199437e-06
4.4953922e-06
4.8188506e-06
5.1722745e-06
5.5585386e-06
5.9807622e-06
6.442122e-06
6.9459954e-06
7.4963184e-06
8.0961023e-06
8.7517176e-06
9.46156e-06
1.0244042e-05
1.1074634e-05
2.0916128e-08
2.4591333e-08
2.6467083e-08
2.6167163e-08
2.6700923e-08
2.7934231e-08
2.9115752e-08
3.0351892e-08
3.1790261e-08
3.3401016e-08
3.5164637e-08
3.7097084e-08
3.9212268e-08
4.1518901e-08
4.4023245e-08
4.6737545e-08
4.9674381e-08
5.2855957e-08
5.629053e-08
5.9991284e-08
6.3987444e-08
6.8286898e-08
7.2909948e-08
7.788372e-08
8.3230701e-08
8.8965214e-08
9.5117852e-08
1.0171717e-07
1.0876842e-07
1.1633003e-07
1.2441779e-07
1.3306046e-07
1.4230737e-07
1.5216267e-07
1.6270787e-07
1.7395068e-07
1.8591773e-07
1.9869414e-07
2.1229833e-07
2.2678597e-07
2.4217577e-07
2.5854455e-07
2.7592567e-07
2.9433588e-07
3.1390939e-07
3.3462592e-07
3.5651987e-07
3.7972605e-07
4.0418627e-07
4.299926e-07
4.5719009e-07
4.8586875e-07
5.1593749e-07
5.4761059e-07
5.8083375e-07
6.1564106e-07
6.5219309e-07
6.9042836e-07
7.3050659e-07
7.7246453e-07
8.1625731e-07
8.6225338e-07
9.1040704e-07
9.6066525e-07
1.0131847e-06
1.0680876e-06
1.1254924e-06
1.1854556e-06
1.2480559e-06
1.3136212e-06
1.3823158e-06
1.4542596e-06
1.5297268e-06
1.6089034e-06
1.6921746e-06
1.780157e-06
1.8735031e-06
1.9727887e-06
2.078544e-06
2.1916229e-06
2.3128226e-06
2.443164e-06
2.5837397e-06
2.7356687e-06
2.900328e-06
3.0788871e-06
3.2727667e-06
3.4835267e-06
3.7127477e-06
3.9621668e-06
4.2337338e-06
4.5296691e-06
4.8523082e-06
5.2041102e-06
5.5876188e-06
6.0056112e-06
6.4614315e-06
6.9580754e-06
7.4992957e-06
8.087758e-06
8.7293345e-06
9.4225234e-06
1.0183722e-05
1.0987992e-05
2.0911613e-08
2.4620825e-08
2.6491666e-08
2.6181285e-08
2.6718444e-08
2.795292e-08
2.9133909e-08
3.0371099e-08
3.1810691e-08
3.3422333e-08
3.5186892e-08
3.7120743e-08
3.9237234e-08
4.1545151e-08
4.4051077e-08
4.6767313e-08
4.9705553e-08
5.2888521e-08
5.6325323e-08
6.0027911e-08
6.4026882e-08
6.8329131e-08
7.2955604e-08
7.7933245e-08
8.3284672e-08
8.9024971e-08
9.5184102e-08
1.0179109e-07
1.0884952e-07
1.1642081e-07
1.2452166e-07
1.3317923e-07
1.4244104e-07
1.5231469e-07
1.6288049e-07
1.741489e-07
1.8614364e-07
1.9894924e-07
2.1258957e-07
2.2712077e-07
2.425528e-07
2.5896615e-07
2.7641264e-07
2.9488915e-07
3.1453047e-07
3.3532412e-07
3.5730447e-07
3.8061328e-07
4.0518545e-07
4.3109695e-07
4.5844099e-07
4.87249e-07
5.1747202e-07
5.4932356e-07
5.8273914e-07
6.1774107e-07
6.545312e-07
6.9302418e-07
7.3333551e-07
7.7562293e-07
8.197967e-07
8.6611613e-07
9.1463859e-07
9.6530438e-07
1.0182783e-06
1.0736518e-06
1.1315524e-06
1.192067e-06
1.2552954e-06
1.3215011e-06
1.3908831e-06
1.4635893e-06
1.5398881e-06
1.6199638e-06
1.7042359e-06
1.7933736e-06
1.8879771e-06
1.9886004e-06
2.0958266e-06
2.2104313e-06
2.3331451e-06
2.4649984e-06
2.6070749e-06
2.7604113e-06
2.9263105e-06
3.106033e-06
3.300874e-06
3.5122752e-06
3.7418259e-06
3.991258e-06
4.2624638e-06
4.5574969e-06
4.8786085e-06
5.2281665e-06
5.6085317e-06
6.0225276e-06
6.4728493e-06
6.9622659e-06
7.4948685e-06
8.072651e-06
8.7011938e-06
9.3786843e-06
1.0122138e-05
1.0901189e-05
2.0905653e-08
2.4650246e-08
2.6512561e-08
2.6193641e-08
2.673474e-08
2.7969982e-08
2.915019e-08
3.038832e-08
3.1828856e-08
3.3441099e-08
3.5206211e-08
3.7140992e-08
3.9258598e-08
4.1567161e-08
4.4074151e-08
4.6791768e-08
4.9730459e-08
5.2913897e-08
5.6352106e-08
6.00561e-08
6.405656e-08
6.8360488e-08
7.2989734e-08
7.7969893e-08
8.3323961e-08
8.9068503e-08
9.5232142e-08
1.0184516e-07
1.0890943e-07
1.1648908e-07
1.2460051e-07
1.3326788e-07
1.4254213e-07
1.5243281e-07
1.6301667e-07
1.7430399e-07
1.8632226e-07
1.9915637e-07
2.1282636e-07
2.2739147e-07
2.4286476e-07
2.5931975e-07
2.7681708e-07
2.9534925e-07
3.1504884e-07
3.3591492e-07
3.5797098e-07
3.8136165e-07
4.0603304e-07
4.3204404e-07
4.5950628e-07
4.8843525e-07
5.1880749e-07
5.5081354e-07
5.8440919e-07
6.1960458e-07
6.5661232e-07
6.9534967e-07
7.3589598e-07
7.784627e-07
8.2293144e-07
8.6952684e-07
9.1838304e-07
9.6940426e-07
1.022765e-06
1.0785616e-06
1.1369241e-06
1.1979272e-06
1.2617464e-06
1.3285631e-06
1.3985256e-06
1.4719371e-06
1.549015e-06
1.6299012e-06
1.715032e-06
1.805072e-06
1.9005826e-06
2.00214e-06
2.1103141e-06
2.2259114e-06
2.3496201e-06
2.4824851e-06
2.6256152e-06
2.7799779e-06
2.9468474e-06
3.1275289e-06
3.3232355e-06
3.5353165e-06
3.765357e-06
4.0149999e-06
4.2859847e-06
4.5802324e-06
4.8998959e-06
5.2471704e-06
5.6243719e-06
6.0341335e-06
6.4789632e-06
6.9617404e-06
7.4857894e-06
8.0531026e-06
8.6693516e-06
9.331826e-06
1.0058986e-05
1.0814647e-05
2.0898974e-08
2.4678496e-08
2.6532102e-08
2.6204649e-08
2.6750008e-08
2.7985662e-08
2.9165045e-08
3.0404032e-08
3.1845431e-08
3.3458196e-08
3.5223745e-08
3.7159569e-08
3.9278073e-08
4.1587082e-08
4.4095298e-08
4.6814023e-08
4.9753172e-08
5.2937233e-08
5.637634e-08
6.0081585e-08
6.4083102e-08
6.8388535e-08
7.3019756e-08
7.8002095e-08
8.3358477e-08
8.9106006e-08
9.5272965e-08
1.018914e-07
1.0896139e-07
1.1654684e-07
1.2466717e-07
1.3334312e-07
1.4262767e-07
1.5253312e-07
1.6313194e-07
1.7443553e-07
1.8647277e-07
1.9933105e-07
2.1302449e-07
2.2761787e-07
2.4313036e-07
2.596199e-07
2.7715895e-07
2.9574252e-07
3.1548746e-07
3.3641242e-07
3.585399e-07
3.8200371e-07
4.0675286e-07
4.328499e-07
4.6041898e-07
4.8945124e-07
5.1994572e-07
5.5208085e-07
5.8582633e-07
6.2118157e-07
6.5836723e-07
6.9730333e-07
7.3805669e-07
7.8085938e-07
8.2558726e-07
8.7244337e-07
9.2156533e-07
9.7290984e-07
1.0266095e-06
1.0827689e-06
1.1415203e-06
1.2029408e-06
1.2672373e-06
1.3345791e-06
1.4051133e-06
1.4790892e-06
1.5567862e-06
1.6383679e-06
1.7242729e-06
1.8151589e-06
1.9115891e-06
2.0141322e-06
2.1233313e-06
2.2400031e-06
2.364772e-06
2.4987394e-06
2.6429563e-06
2.798251e-06
2.9660079e-06
3.1474444e-06
3.3437498e-06
3.5562401e-06
3.7863288e-06
4.0357319e-06
4.3061482e-06
4.5993336e-06
4.9173537e-06
5.262291e-06
5.6364123e-06
6.0421258e-06
6.4818327e-06
6.9580834e-06
7.4740294e-06
8.031708e-06
8.6366855e-06
9.2849905e-06
9.9970461e-06
1.0731823e-05
2.0893074e-08
2.4704603e-08
2.6548367e-08
2.6214122e-08
2.6764371e-08
2.8000039e-08
2.917843e-08
3.04183e-08
3.1860291e-08
3.3473402e-08
3.5239258e-08
3.7175987e-08
3.9295209e-08
4.160443e-08
4.4113324e-08
4.6832763e-08
4.9772149e-08
5.2956335e-08
5.639582e-08
6.0101777e-08
6.4103646e-08
6.8410014e-08
7.3042809e-08
7.8026464e-08
8.3383898e-08
8.9133764e-08
9.5303705e-08
1.0192564e-07
1.0900023e-07
1.1658978e-07
1.2471682e-07
1.3340057e-07
1.4269271e-07
1.526113e-07
1.6322074e-07
1.7453808e-07
1.8659547e-07
1.9947189e-07
2.1318671e-07
2.2780451e-07
2.4334924e-07
2.5986699e-07
2.7744108e-07
2.9607083e-07
3.1585661e-07
3.3683299e-07
3.5902159e-07
3.825371e-07
4.0735657e-07
4.3354791e-07
4.6119583e-07
4.9030498e-07
5.2092926e-07
5.5318106e-07
5.8704492e-07
6.2255275e-07
6.5989465e-07
6.9900108e-07
7.3995785e-07
7.8295644e-07
8.2788787e-07
8.7501114e-07
9.2436905e-07
9.7597887e-07
1.0299876e-06
1.0864437e-06
1.1455659e-06
1.2073506e-06
1.272067e-06
1.3398832e-06
1.4109076e-06
1.4854377e-06
1.5637152e-06
1.6459265e-06
1.7325218e-06
1.8241008e-06
1.9212573e-06
2.0245682e-06
2.1345164e-06
2.2520411e-06
2.3775189e-06
2.5121297e-06
2.6571937e-06
2.8132707e-06
2.9816552e-06
3.1635873e-06
3.360319e-06
3.5730357e-06
3.8031314e-06
4.0522939e-06
4.3220646e-06
4.6141726e-06
4.9305755e-06
5.2731748e-06
5.644255e-06
6.0460846e-06
6.4808144e-06
6.9509282e-06
7.4595078e-06
8.0079964e-06
8.6020553e-06
9.23724e-06
9.9350003e-06
1.0651249e-05
2.088804e-08
2.4727941e-08
2.6562738e-08
2.6222586e-08
2.6777948e-08
2.8013116e-08
2.9190493e-08
3.0431258e-08
3.1873679e-08
3.3487016e-08
3.5253146e-08
3.7190633e-08
3.931036e-08
4.1619796e-08
4.4129066e-08
4.6849025e-08
4.9788631e-08
5.29727e-08
5.6412457e-08
6.0118607e-08
6.4120692e-08
6.8427509e-08
7.3061023e-08
7.804582e-08
8.3403868e-08
8.9155118e-08
9.5327217e-08
1.0195138e-07
1.0902911e-07
1.1662266e-07
1.247548e-07
1.3344392e-07
1.4274259e-07
1.5267129e-07
1.6329005e-07
1.7461829e-07
1.8669278e-07
1.9958229e-07
2.1331345e-07
2.2795356e-07
2.4352398e-07
2.6006712e-07
2.7767148e-07
2.963375e-07
3.1615375e-07
3.3717472e-07
3.5941709e-07
3.8297878e-07
4.0785697e-07
4.3412253e-07
4.6184451e-07
4.9101738e-07
5.2173791e-07
5.5409731e-07
5.8805927e-07
6.2369297e-07
6.6117319e-07
7.0041735e-07
7.4155398e-07
7.8472059e-07
8.2981136e-07
8.7715555e-07
9.2671697e-07
9.7853973e-07
1.032824e-06
1.0895598e-06
1.1490133e-06
1.2110774e-06
1.2761301e-06
1.3443743e-06
1.4157706e-06
1.4907831e-06
1.5695587e-06
1.6522922e-06
1.7394692e-06
1.8316947e-06
1.9295307e-06
2.0335131e-06
2.1442178e-06
2.2624321e-06
2.3887285e-06
2.5241944e-06
2.6698257e-06
2.8265399e-06
2.9954688e-06
3.1777803e-06
3.3747668e-06
3.587602e-06
3.8174953e-06
4.0661026e-06
4.3350447e-06
4.6258569e-06
4.9404813e-06
5.2806541e-06
5.6485743e-06
6.046564e-06
6.4765447e-06
6.9408744e-06
7.4423666e-06
7.9822971e-06
8.5663369e-06
9.189597e-06
9.8733621e-06
1.057332e-05
2.0884356e-08
2.4748925e-08
2.6574472e-08
2.622972e-08
2.6790616e-08
2.8025105e-08
2.9201295e-08
3.044298e-08
3.188579e-08
3.3499131e-08
3.5265522e-08
3.7203585e-08
3.932359e-08
4.1633107e-08
4.4142519e-08
4.6862888e-08
4.9802461e-08
5.2985915e-08
5.642577e-08
6.0131698e-08
6.413327e-08
6.8440188e-08
7.30742e-08
7.8059647e-08
8.3417722e-08
8.9169532e-08
9.5342941e-08
1.019686e-07
1.0904849e-07
1.1664441e-07
1.2478072e-07
1.3347408e-07
1.4277727e-07
1.5271374e-07
1.6334024e-07
1.746783e-07
1.8676564e-07
1.9966643e-07
2.1341276e-07
2.2806874e-07
2.4365988e-07
2.6022705e-07
2.7785396e-07
2.9654936e-07
3.1639538e-07
3.3745131e-07
3.5973816e-07
3.8333969e-07
4.0826509e-07
4.3458938e-07
4.623736e-07
4.9161559e-07
5.2241726e-07
5.5485717e-07
5.8891196e-07
6.2465481e-07
6.6224695e-07
7.0161774e-07
7.4288074e-07
7.8620471e-07
8.3147097e-07
8.7899501e-07
9.2873357e-07
9.807359e-07
1.0352392e-06
1.0922323e-06
1.1519083e-06
1.2142691e-06
1.2796566e-06
1.3482168e-06
1.4200184e-06
1.4954322e-06
1.5746201e-06
1.6578225e-06
1.7455027e-06
1.8382752e-06
1.9366984e-06
2.0412386e-06
2.1525055e-06
2.271284e-06
2.3981942e-06
2.5341893e-06
2.6802856e-06
2.8374647e-06
3.0067761e-06
3.1893106e-06
3.3863906e-06
3.599186e-06
3.8288112e-06
4.0768392e-06
4.3448557e-06
4.634393e-06
4.9472104e-06
5.2849589e-06
5.6498083e-06
6.044052e-06
6.469421e-06
6.9281339e-06
7.4229213e-06
7.954947e-06
8.5293508e-06
9.141602e-06
9.8120592e-06
1.0498434e-05
2.0880781e-08
2.4768378e-08
2.6584106e-08
2.6235947e-08
2.6802635e-08
2.8036112e-08
2.9210961e-08
3.0453537e-08
3.1896614e-08
3.3509889e-08
3.5276476e-08
3.7215008e-08
3.9335143e-08
4.1644705e-08
4.415404e-08
4.6874365e-08
4.9813906e-08
5.2996783e-08
5.6436358e-08
6.01418e-08
6.4142576e-08
6.8449463e-08
7.3083607e-08
7.8068687e-08
8.3426273e-08
8.9178563e-08
9.5352314e-08
1.0197799e-07
1.0905954e-07
1.166578e-07
1.2479646e-07
1.3349226e-07
1.4279994e-07
1.52742e-07
1.6337274e-07
1.7471981e-07
1.8681556e-07
1.9972446e-07
2.1348645e-07
2.2815456e-07
2.4375794e-07
2.6034715e-07
2.7799469e-07
2.9671012e-07
3.1658115e-07
3.3766576e-07
3.599883e-07
3.8362522e-07
4.0858403e-07
4.3496222e-07
4.6279799e-07
4.9208524e-07
5.2295996e-07
5.5547455e-07
5.8960058e-07
6.2543287e-07
6.631245e-07
7.0260094e-07
7.4397136e-07
7.8742497e-07
8.3282279e-07
8.8047675e-07
9.3037891e-07
9.8254202e-07
1.0372481e-06
1.0944152e-06
1.1542959e-06
1.2169642e-06
1.2826009e-06
1.3514129e-06
1.4235237e-06
1.4992594e-06
1.5788451e-06
1.6624575e-06
1.7505093e-06
1.8437572e-06
1.9426938e-06
2.0477082e-06
2.1594751e-06
2.2787935e-06
2.4062265e-06
2.542688e-06
2.6892084e-06
2.8467548e-06
3.0163363e-06
3.198996e-06
3.3960483e-06
3.6086986e-06
3.83792e-06
4.085236e-06
4.3522621e-06
4.6404196e-06
4.9514687e-06
5.2865807e-06
5.6482887e-06
6.0389535e-06
6.4598004e-06
6.9130701e-06
7.401502e-06
7.9261621e-06
8.4915822e-06
9.0938126e-06
9.7513271e-06
1.0426235e-05
2.0877215e-08
2.4787457e-08
2.6591649e-08
2.6241101e-08
2.6813909e-08
2.8046198e-08
2.9219577e-08
3.0463008e-08
3.1906397e-08
3.3519436e-08
3.5286175e-08
3.7225016e-08
3.9345192e-08
4.1654614e-08
4.4163721e-08
4.6883976e-08
4.9823311e-08
5.3005289e-08
5.6444234e-08
6.0148915e-08
6.4148773e-08
6.8455253e-08
7.3088833e-08
7.8073338e-08
8.3429972e-08
8.9182027e-08
9.5356222e-08
1.0198128e-07
1.090631e-07
1.1666189e-07
1.2480254e-07
1.335007e-07
1.4280979e-07
1.5275677e-07
1.6339095e-07
1.7474386e-07
1.8684721e-07
1.9976222e-07
2.1353502e-07
2.2821069e-07
2.4382639e-07
2.6043343e-07
2.780944e-07
2.9682855e-07
3.167188e-07
3.3782441e-07
3.6017835e-07
3.8384117e-07
4.088279e-07
4.3525397e-07
4.6312748e-07
4.9245379e-07
5.2339161e-07
5.5595486e-07
5.9014969e-07
6.2605994e-07
6.638217e-07
7.0338994e-07
7.448516e-07
7.8842103e-07
8.3392975e-07
8.8169319e-07
9.317474e-07
9.8402858e-07
1.0388868e-06
1.0962367e-06
1.1562759e-06
1.219171e-06
1.2849907e-06
1.3540517e-06
1.4264872e-06
1.5025024e-06
1.5823579e-06
1.6663182e-06
1.7547825e-06
1.8483991e-06
1.9477631e-06
2.0531438e-06
2.1652829e-06
2.2850247e-06
2.4128496e-06
2.549694e-06
2.6964964e-06
2.854247e-06
3.0239787e-06
3.2066817e-06
3.4036068e-06
3.6159604e-06
3.8447298e-06
4.0913276e-06
4.3572685e-06
4.6439966e-06
4.9530899e-06
5.2860403e-06
5.6449791e-06
6.0318191e-06
6.4482846e-06
6.8963855e-06
7.3786627e-06
7.8962651e-06
8.4532065e-06
9.0461029e-06
9.6910841e-06
1.0357395e-05
2.0871903e-08
2.4807276e-08
2.6597516e-08
2.624544e-08
2.6824462e-08
2.805534e-08
2.9227273e-08
3.0471476e-08
3.1915113e-08
3.3527861e-08
3.5294683e-08
3.7233697e-08
3.9353759e-08
4.1663095e-08
4.417179e-08
4.6891699e-08
4.9830708e-08
5.3011735e-08
5.6449651e-08
6.0153614e-08
6.4152511e-08
6.8458097e-08
7.3090673e-08
7.8074194e-08
8.3429556e-08
8.9180931e-08
9.5354517e-08
1.0197841e-07
1.0906046e-07
1.166593e-07
1.2480054e-07
1.3349945e-07
1.4280956e-07
1.5275876e-07
1.6339608e-07
1.747534e-07
1.8685987e-07
1.99781e-07
2.1356219e-07
2.2824194e-07
2.4386699e-07
2.6048899e-07
2.7815663e-07
2.9690178e-07
3.1681316e-07
3.3793482e-07
3.6031068e-07
3.8399462e-07
4.0900409e-07
4.354621e-07
4.6336511e-07
4.9273216e-07
5.2371876e-07
5.5631477e-07
5.9056396e-07
6.2654238e-07
6.6436159e-07
7.040071e-07
7.4554208e-07
7.891923e-07
8.3479861e-07
8.8264647e-07
9.3281053e-07
9.852165e-07
1.0401774e-06
1.097677e-06
1.1578683e-06
1.2209332e-06
1.2869409e-06
1.356185e-06
1.4288486e-06
1.5050926e-06
1.5852083e-06
1.6694692e-06
1.7582343e-06
1.85216e-06
1.9518528e-06
2.0575856e-06
2.1700792e-06
2.2901118e-06
2.4182585e-06
2.5553783e-06
2.7024041e-06
2.8603053e-06
3.0300947e-06
3.2127775e-06
3.4094755e-06
3.621424e-06
3.8496772e-06
4.0954678e-06
4.360308e-06
4.6455906e-06
4.9528713e-06
5.2836016e-06
5.6396296e-06
6.0229846e-06
6.4352793e-06
6.8784341e-06
7.3547494e-06
7.8656654e-06
8.41452e-06
8.9990166e-06
9.6318848e-06
1.0291213e-05
2.0865689e-08
2.4827274e-08
2.6602121e-08
2.6249254e-08
2.6834519e-08
2.8063714e-08
2.9234215e-08
3.0479075e-08
3.1922859e-08
3.3535318e-08
3.5302128e-08
3.724117e-08
3.9361099e-08
4.1670241e-08
4.4178395e-08
4.6897839e-08
4.9836296e-08
5.3016353e-08
5.6453154e-08
6.0155854e-08
6.4153625e-08
6.8458199e-08
7.3089305e-08
7.8071674e-08
8.3425466e-08
8.9175531e-08
9.5348403e-08
1.0197075e-07
1.0905179e-07
1.1664977e-07
1.2479101e-07
1.3348936e-07
1.427998e-07
1.5275107e-07
1.6338851e-07
1.747495e-07
1.8685853e-07
1.9978083e-07
2.1356866e-07
2.2825216e-07
2.438828e-07
2.6051452e-07
2.7818827e-07
2.9694222e-07
3.1686768e-07
3.3799885e-07
3.6038881e-07
3.840928e-07
4.091208e-07
4.3560219e-07
4.6352824e-07
4.929235e-07
5.2394389e-07
5.5657103e-07
5.9086306e-07
6.2689782e-07
6.6475478e-07
7.0445073e-07
7.4607172e-07
7.897804e-07
8.354523e-07
8.8337809e-07
9.3363683e-07
9.8613839e-07
1.0411784e-06
1.0987917e-06
1.1591074e-06
1.2223066e-06
1.2884579e-06
1.3578677e-06
1.4307288e-06
1.5071486e-06
1.587491e-06
1.6719947e-06
1.7609995e-06
1.8551919e-06
1.955145e-06
2.0611769e-06
2.1739344e-06
2.2941857e-06
2.4225682e-06
2.5598798e-06
2.7070218e-06
2.864967e-06
3.0347313e-06
3.2172969e-06
3.4136941e-06
3.6251598e-06
3.8528148e-06
4.0977868e-06
4.3615155e-06
4.6453298e-06
4.9507895e-06
5.2793765e-06
5.6327041e-06
6.0125992e-06
6.4209188e-06
6.8594507e-06
7.3301276e-06
7.8346568e-06
8.3758575e-06
8.9525292e-06
9.573739e-06
1.0226919e-05
2.0860708e-08
2.4846431e-08
2.6604456e-08
2.6252067e-08
2.6843815e-08
2.8071221e-08
2.924032e-08
3.0485823e-08
3.1929715e-08
3.3541855e-08
3.5308597e-08
3.7247547e-08
3.9367283e-08
4.1676174e-08
4.4183694e-08
4.6902554e-08
4.9840315e-08
5.30191e-08
5.6454763e-08
6.0156265e-08
6.4152506e-08
6.8455926e-08
7.3085334e-08
7.8066086e-08
8.3418156e-08
8.9166365e-08
9.5338012e-08
1.0195829e-07
1.090379e-07
1.1663501e-07
1.2477509e-07
1.3347197e-07
1.4278225e-07
1.5273403e-07
1.6336984e-07
1.7473229e-07
1.8684286e-07
1.9976642e-07
2.135582e-07
2.2824079e-07
2.4387557e-07
2.6051391e-07
2.7819078e-07
2.9695113e-07
3.1688461e-07
3.3802405e-07
3.6042386e-07
3.8413802e-07
4.0918001e-07
4.3567745e-07
4.6361998e-07
4.9303912e-07
5.2408116e-07
5.5673266e-07
5.9105815e-07
6.2712887e-07
6.6503103e-07
7.0475774e-07
7.4642217e-07
7.9020131e-07
8.359233e-07
8.8389107e-07
9.3422726e-07
9.8679387e-07
1.0419077e-06
1.0996211e-06
1.1600303e-06
1.2233273e-06
1.289584e-06
1.359138e-06
1.4321459e-06
1.5087127e-06
1.5892306e-06
1.673923e-06
1.7631238e-06
1.85753e-06
1.9576876e-06
2.0639264e-06
2.1768979e-06
2.2973376e-06
2.4258671e-06
2.5633022e-06
2.7105284e-06
2.8684551e-06
3.0380995e-06
3.2204622e-06
3.4165009e-06
3.6274484e-06
3.8544355e-06
4.098538e-06
4.3611307e-06
4.6435084e-06
4.9471366e-06
5.2735507e-06
5.6243192e-06
6.0009837e-06
6.4054648e-06
6.8396017e-06
7.3049896e-06
7.803468e-06
8.337475e-06
8.9067769e-06
9.5171219e-06
1.0163421e-05
2.0854508e-08
2.4865643e-08
2.6606231e-08
2.6254771e-08
2.6852808e-08
2.80781e-08
2.924575e-08
3.0491853e-08
3.1935783e-08
3.3547547e-08
3.5314083e-08
3.7252968e-08
3.9372514e-08
4.1680911e-08
4.4187709e-08
4.6905953e-08
4.984291e-08
5.3020417e-08
5.6454804e-08
6.0154771e-08
6.4149369e-08
6.845155e-08
7.3079101e-08
7.8057741e-08
8.340782e-08
8.9153879e-08
9.5324011e-08
1.0194189e-07
1.0901955e-07
1.1661513e-07
1.2475268e-07
1.334481e-07
1.4275773e-07
1.5270843e-07
1.6334218e-07
1.7470462e-07
1.8681511e-07
1.9973755e-07
2.1353108e-07
2.2821313e-07
2.4384751e-07
2.6048853e-07
2.7816805e-07
2.969323e-07
3.1686784e-07
3.3801186e-07
3.6042043e-07
3.8413874e-07
4.0918663e-07
4.3569682e-07
4.6365114e-07
4.9308328e-07
5.241405e-07
5.5680864e-07
5.911618e-07
6.272548e-07
6.6517904e-07
7.0494522e-07
7.4664093e-07
7.9045473e-07
8.3622845e-07
8.8423019e-07
9.3461124e-07
9.8723745e-07
1.0423936e-06
1.1001802e-06
1.1606612e-06
1.224031e-06
1.2903838e-06
1.3600292e-06
1.4331486e-06
1.5098405e-06
1.5905005e-06
1.6753294e-06
1.7646921e-06
1.8592706e-06
1.9595735e-06
2.0659765e-06
2.1790817e-06
2.2996466e-06
2.4282664e-06
2.5657571e-06
2.712988e-06
2.8708261e-06
3.0403242e-06
3.2224289e-06
3.4180448e-06
3.6284058e-06
3.8546558e-06
4.0978256e-06
4.3592781e-06
4.6402444e-06
4.9420837e-06
5.266421e-06
5.6147088e-06
5.9881881e-06
6.3889701e-06
6.8189516e-06
7.279396e-06
7.7721456e-06
8.2993037e-06
8.8614623e-06
9.4622124e-06
1.0100353e-05
2.0849438e-08
2.4884106e-08
2.6606193e-08
2.6256638e-08
2.6861127e-08
2.8084266e-08
2.9250524e-08
3.0497161e-08
3.194112e-08
3.3552502e-08
3.5318811e-08
3.7257504e-08
3.9376765e-08
4.1684654e-08
4.4190713e-08
4.6908189e-08
4.9844139e-08
5.3020356e-08
5.6453368e-08
6.0151643e-08
6.4144651e-08
6.8445195e-08
7.3070772e-08
7.8047141e-08
8.3394727e-08
8.9138685e-08
9.5306535e-08
1.019218e-07
1.0899774e-07
1.1659041e-07
1.2472535e-07
1.334192e-07
1.4272599e-07
1.5267565e-07
1.6330657e-07
1.7466657e-07
1.8677663e-07
1.9969587e-07
2.1348956e-07
2.2817028e-07
2.4380177e-07
2.6044223e-07
2.7812344e-07
2.9688702e-07
3.1682085e-07
3.3796897e-07
3.603784e-07
3.8409741e-07
4.0915122e-07
4.356645e-07
4.6362486e-07
4.9306474e-07
5.2412895e-07
5.5681041e-07
5.9117559e-07
6.2728892e-07
6.6522992e-07
7.0500651e-07
7.4673536e-07
7.9056956e-07
8.3636801e-07
8.8441463e-07
9.3481903e-07
9.8746914e-07
1.0426635e-06
1.1005047e-06
1.161024e-06
1.2244447e-06
1.2908833e-06
1.3605898e-06
1.4337853e-06
1.5105708e-06
1.5913411e-06
1.6762655e-06
1.7657382e-06
1.8604375e-06
1.9608478e-06
2.0673848e-06
2.1805763e-06
2.3011979e-06
2.4298547e-06
2.5673463e-06
2.7145307e-06
2.872228e-06
3.0414984e-06
3.2232971e-06
3.4184583e-06
3.6282027e-06
3.853682e-06
4.0959078e-06
4.3562037e-06
4.6357189e-06
4.9357947e-06
5.2580579e-06
5.6038151e-06
5.9744255e-06
6.3719035e-06
6.7977455e-06
7.2533983e-06
7.74074e-06
8.2614758e-06
8.8168312e-06
9.409026e-06
1.0038045e-05
2.0843873e-08
2.490227e-08
2.6605404e-08
2.6258298e-08
2.6869056e-08
2.8089855e-08
2.9254705e-08
3.0501855e-08
3.1945789e-08
3.3556689e-08
3.5322825e-08
3.7261305e-08
3.9380159e-08
4.1687461e-08
4.4192723e-08
4.6909353e-08
4.9844128e-08
5.3019127e-08
5.6450665e-08
6.0147142e-08
6.4138345e-08
6.8437049e-08
7.3060522e-08
7.8034479e-08
8.3379583e-08
8.9121094e-08
9.5286323e-08
1.0189835e-07
1.0897227e-07
1.16562e-07
1.2469334e-07
1.3338523e-07
1.426888e-07
1.5263628e-07
1.6326378e-07
1.7461954e-07
1.8672819e-07
1.9964461e-07
2.134351e-07
2.2811201e-07
2.4374087e-07
2.603766e-07
2.780574e-07
2.9682197e-07
3.167477e-07
3.3789743e-07
3.6030394e-07
3.840163e-07
4.090768e-07
4.3559035e-07
4.6354838e-07
4.9298847e-07
5.2405807e-07
5.5674387e-07
5.9111083e-07
6.2723813e-07
6.6518913e-07
7.049695e-07
7.4671301e-07
7.9056074e-07
8.3637513e-07
8.8443651e-07
9.3485543e-07
9.8753343e-07
1.0427508e-06
1.1006105e-06
1.161156e-06
1.2246152e-06
1.291101e-06
1.3608529e-06
1.4340877e-06
1.5109493e-06
1.591786e-06
1.6767757e-06
1.7663526e-06
1.8611209e-06
1.96159e-06
2.0682009e-06
2.1814445e-06
2.3020803e-06
2.4307186e-06
2.568171e-06
2.715247e-06
2.8727463e-06
3.0417622e-06
3.2232017e-06
3.4178586e-06
3.6269678e-06
3.8516364e-06
4.0928782e-06
4.3520271e-06
4.6300963e-06
4.9284624e-06
5.248672e-06
5.5920203e-06
5.959877e-06
6.3540205e-06
6.7760309e-06
7.2272111e-06
7.7094197e-06
8.2241949e-06
8.7729195e-06
9.3573125e-06
9.9771255e-06
2.0838154e-08
2.4920048e-08
2.6603594e-08
2.6259556e-08
2.6876531e-08
2.8094896e-08
2.9258405e-08
3.0505995e-08
3.1949845e-08
3.3560269e-08
3.532616e-08
3.7264312e-08
3.9382792e-08
4.1689512e-08
4.4193814e-08
4.6909612e-08
4.9843156e-08