/*--------------------------------*- C++ -*----------------------------------*\
| =========                 |                                                 |
| \\      /  F ield         | OpenFOAM: The Open Source CFD Toolbox           |
|  \\    /   O peration     | Version:  2406                                  |
|   \\  /    A nd           | Website:  www.openfoam.com                      |
|    \\/     M anipulation  |                                                 |
\*---------------------------------------------------------------------------*/
FoamFile
{
    version     2.0;
    format      ascii;
    arch        "LSB;label=32;scalar=64";
    class       volScalarField;
    location    "1200";
    object      T;
}
// * * * * * * * * * * * * * * * * * * * * * * * * * * * * * * * * * * * * * //

dimensions      [0 0 0 1 0 0 0];

internalField   nonuniform List<scalar> 
132739
(
1.0008104
1.0008115
1.0008157
1.0008211
1.0008277
1.0008355
1.0008446
1.0008548
1.0008662
1.0008787
1.0008922
1.0009069
1.0009225
1.0009392
1.0009569
1.0009756
1.0009953
1.0010159
1.0010376
1.0010603
1.0010839
1.0011085
1.001134
1.0011605
1.0011878
1.0012162
1.0012454
1.0012755
1.0013065
1.0013384
1.0013712
1.0014048
1.0014393
1.0014746
1.0015107
1.0015476
1.0015852
1.0016235
1.0016626
1.0017023
1.0017426
1.0017835
1.001825
1.001867
1.0019094
1.0019522
1.0019954
1.002039
1.0020829
1.0021269
1.002171
1.0022151
1.0022594
1.0023036
1.0023479
1.0023919
1.0024362
1.0024797
1.0025236
1.0025669
1.0026102
1.0026531
1.0026956
1.0027378
1.0027791
1.00282
1.0028602
1.0028998
1.0029384
1.0029764
1.0030126
1.0030478
1.0030819
1.003115
1.0031468
1.0031771
1.0032058
1.0032329
1.0032583
1.003282
1.0033037
1.0033239
1.0033403
1.0033578
1.0033664
1.0033816
1.0033829
1.0033819
1.0033812
1.0033791
1.0033723
1.0033616
1.0033464
1.0033269
1.0033023
1.0032726
1.0032378
1.0031981
1.0031529
1.0031021
1.0030446
1.0029825
1.0029125
1.0028375
1.0008107
1.0008118
1.0008159
1.0008214
1.0008279
1.0008358
1.0008448
1.0008551
1.0008664
1.0008789
1.0008925
1.0009071
1.0009228
1.0009394
1.0009571
1.0009759
1.0009956
1.0010162
1.0010379
1.0010606
1.0010842
1.0011088
1.0011343
1.0011607
1.0011881
1.0012165
1.0012457
1.0012759
1.0013069
1.0013389
1.0013717
1.0014053
1.0014398
1.0014752
1.0015113
1.0015482
1.0015859
1.0016243
1.0016633
1.001703
1.0017434
1.0017843
1.0018257
1.0018676
1.00191
1.0019527
1.0019958
1.0020389
1.0020823
1.0021258
1.0021696
1.0022134
1.0022573
1.0023013
1.0023453
1.0023892
1.0024327
1.0024764
1.0025195
1.0025628
1.0026053
1.0026477
1.0026896
1.0027309
1.0027716
1.0028116
1.0028508
1.0028891
1.0029265
1.0029631
1.0029988
1.0030336
1.0030673
1.0030996
1.0031303
1.0031593
1.0031865
1.003212
1.0032358
1.003258
1.0032784
1.003297
1.0033134
1.0033261
1.0033391
1.0033468
1.0033414
1.0033351
1.0033358
1.0033337
1.0033259
1.003314
1.0032975
1.0032761
1.0032506
1.0032212
1.0031876
1.0031493
1.0031057
1.0030566
1.0030017
1.0029413
1.0028751
1.0027989
1.0008109
1.0008121
1.0008162
1.0008216
1.0008282
1.0008361
1.0008452
1.0008554
1.0008667
1.0008792
1.0008928
1.0009074
1.0009231
1.0009398
1.0009575
1.0009763
1.000996
1.0010167
1.0010384
1.001061
1.0010846
1.0011092
1.0011347
1.0011612
1.0011886
1.001217
1.0012463
1.0012765
1.0013076
1.0013396
1.0013724
1.0014062
1.0014407
1.0014761
1.0015123
1.0015493
1.001587
1.0016254
1.0016645
1.0017042
1.0017445
1.0017853
1.0018267
1.0018686
1.0019108
1.0019534
1.0019964
1.0020396
1.002083
1.0021266
1.0021703
1.002214
1.0022579
1.0023018
1.0023454
1.0023894
1.0024324
1.0024759
1.0025186
1.0025614
1.0026035
1.0026454
1.0026867
1.0027273
1.0027673
1.0028067
1.0028453
1.0028829
1.0029198
1.0029557
1.0029907
1.0030246
1.0030573
1.0030884
1.0031179
1.0031456
1.0031716
1.0031958
1.0032182
1.0032385
1.0032578
1.0032731
1.0032902
1.0032984
1.0033112
1.0033079
1.0033111
1.0033011
1.0033013
1.0032977
1.0032867
1.0032719
1.003253
1.0032301
1.0032033
1.0031729
1.0031387
1.0031001
1.0030567
1.0030083
1.0029554
1.0028976
1.0028369
1.0027674
1.000811
1.0008123
1.0008167
1.0008221
1.0008287
1.0008365
1.0008456
1.0008558
1.0008671
1.0008796
1.0008931
1.0009078
1.0009235
1.0009402
1.0009579
1.0009767
1.0009964
1.0010172
1.0010388
1.0010615
1.0010851
1.0011097
1.0011353
1.0011618
1.0011893
1.0012177
1.001247
1.0012772
1.0013084
1.0013404
1.0013734
1.0014071
1.0014418
1.0014772
1.0015134
1.0015504
1.0015882
1.0016266
1.0016656
1.0017053
1.0017456
1.0017864
1.0018277
1.0018695
1.0019117
1.0019542
1.0019971
1.0020402
1.0020835
1.002127
1.0021707
1.0022144
1.0022579
1.0023019
1.0023454
1.0023888
1.0024324
1.0024758
1.0025187
1.0025615
1.0026034
1.0026452
1.0026863
1.0027272
1.0027669
1.0028062
1.0028444
1.0028815
1.0029174
1.002952
1.0029851
1.0030168
1.0030473
1.0030766
1.0031046
1.0031312
1.0031562
1.0031794
1.0032009
1.0032199
1.0032376
1.0032523
1.0032652
1.0032774
1.0032831
1.00328
1.0032805
1.0032793
1.0032754
1.0032666
1.0032537
1.0032372
1.0032167
1.0031919
1.0031634
1.0031319
1.0030974
1.0030589
1.0030156
1.0029674
1.0029154
1.0028596
1.0028008
1.0027382
1.0008112
1.0008129
1.0008172
1.0008227
1.0008293
1.0008371
1.0008462
1.0008564
1.0008677
1.0008802
1.0008937
1.0009084
1.000924
1.0009408
1.0009585
1.0009773
1.000997
1.0010177
1.0010395
1.0010621
1.0010858
1.0011104
1.001136
1.0011625
1.00119
1.0012185
1.0012478
1.0012781
1.0013093
1.0013414
1.0013744
1.0014082
1.0014428
1.0014783
1.0015145
1.0015515
1.0015892
1.0016276
1.0016666
1.0017063
1.0017465
1.0017872
1.0018285
1.0018702
1.0019123
1.0019548
1.0019976
1.0020406
1.0020839
1.0021274
1.0021709
1.0022145
1.0022583
1.0023018
1.0023453
1.0023891
1.0024319
1.0024746
1.0025167
1.0025589
1.0026005
1.0026415
1.0026819
1.0027217
1.0027607
1.002799
1.0028363
1.0028727
1.002908
1.0029423
1.0029752
1.0030069
1.0030372
1.0030661
1.0030933
1.0031187
1.0031422
1.0031639
1.0031837
1.0032022
1.0032173
1.0032341
1.0032431
1.0032529
1.0032546
1.0032564
1.0032534
1.0032409
1.0032431
1.0032338
1.003221
1.0032063
1.0031867
1.0031617
1.003133
1.0031011
1.0030661
1.0030276
1.0029846
1.0029371
1.0028857
1.0028307
1.0027719
1.0027112
1.0008114
1.0008134
1.0008178
1.0008233
1.0008299
1.0008377
1.0008468
1.000857
1.0008684
1.0008808
1.0008944
1.000909
1.0009247
1.0009414
1.0009592
1.0009779
1.0009977
1.0010184
1.0010401
1.0010628
1.0010865
1.0011112
1.0011368
1.0011634
1.0011909
1.0012194
1.0012488
1.0012791
1.0013103
1.0013424
1.0013754
1.0014092
1.0014438
1.0014793
1.0015155
1.0015524
1.0015901
1.0016284
1.0016674
1.001707
1.0017472
1.0017879
1.0018291
1.0018708
1.0019129
1.0019553
1.001998
1.002041
1.0020843
1.0021276
1.0021711
1.0022148
1.0022583
1.0023018
1.002345
1.0023879
1.0024314
1.0024745
1.002517
1.0025589
1.0026003
1.0026415
1.0026819
1.0027217
1.0027605
1.0027986
1.0028356
1.0028716
1.0029063
1.0029398
1.0029718
1.0030022
1.003031
1.0030582
1.0030838
1.003108
1.0031306
1.0031515
1.0031702
1.0031878
1.0032019
1.0032155
1.0032268
1.0032351
1.0032268
1.0032316
1.0032301
1.0032273
1.0032212
1.0032119
1.0031986
1.003182
1.0031613
1.0031371
1.0031092
1.0030773
1.0030417
1.0030025
1.0029596
1.0029131
1.0028627
1.0028085
1.0027497
1.0026886
1.0008115
1.0008139
1.0008183
1.0008238
1.0008304
1.0008383
1.0008474
1.0008576
1.000869
1.0008814
1.000895
1.0009096
1.0009253
1.0009421
1.0009598
1.0009786
1.0009984
1.0010191
1.0010409
1.0010636
1.0010873
1.001112
1.0011377
1.0011643
1.0011918
1.0012203
1.0012497
1.00128
1.0013112
1.0013433
1.0013763
1.0014101
1.0014447
1.0014801
1.0015163
1.0015532
1.0015908
1.0016291
1.0016681
1.0017077
1.0017478
1.0017885
1.0018297
1.0018713
1.0019133
1.0019557
1.0019984
1.0020414
1.0020846
1.0021279
1.0021713
1.0022148
1.0022583
1.0023015
1.002345
1.0023879
1.0024304
1.002473
1.0025149
1.0025566
1.0025976
1.0026381
1.0026778
1.0027169
1.002755
1.0027922
1.0028285
1.0028637
1.0028978
1.0029307
1.0029622
1.0029924
1.0030209
1.0030479
1.0030733
1.0030972
1.0031194
1.0031396
1.0031582
1.0031735
1.0031896
1.0031981
1.0032119
1.0032123
1.0032124
1.0032124
1.0032111
1.0032055
1.003197
1.003187
1.0031745
1.0031586
1.0031389
1.0031153
1.0030874
1.0030552
1.0030187
1.0029786
1.0029357
1.00289
1.0028412
1.0027885
1.0027312
1.0026702
1.0008117
1.0008143
1.0008187
1.0008243
1.0008309
1.0008388
1.0008479
1.0008582
1.0008695
1.000882
1.0008956
1.0009103
1.000926
1.0009427
1.0009605
1.0009793
1.0009991
1.0010199
1.0010417
1.0010644
1.0010881
1.0011128
1.0011385
1.0011651
1.0011927
1.0012212
1.0012506
1.0012809
1.0013121
1.0013442
1.0013771
1.0014108
1.0014454
1.0014808
1.001517
1.0015538
1.0015915
1.0016297
1.0016687
1.0017082
1.0017484
1.001789
1.0018302
1.0018718
1.0019138
1.0019561
1.0019988
1.0020417
1.0020848
1.0021281
1.0021715
1.0022148
1.0022582
1.0023016
1.0023446
1.0023877
1.0024305
1.0024729
1.0025151
1.0025565
1.0025977
1.0026381
1.0026779
1.0027168
1.0027548
1.0027921
1.0028282
1.0028631
1.0028967
1.002929
1.0029599
1.0029892
1.0030168
1.0030425
1.0030664
1.0030884
1.0031092
1.0031277
1.0031458
1.0031593
1.0031755
1.0031838
1.0031956
1.0031947
1.0031939
1.0031938
1.003192
1.0031852
1.003175
1.0031632
1.0031501
1.0031349
1.0031166
1.0030936
1.0030656
1.0030331
1.002996
1.0029549
1.0029113
1.002866
1.0028187
1.0027684
1.0027139
1.0026549
1.0008118
1.0008146
1.0008192
1.0008247
1.0008314
1.0008393
1.0008484
1.0008587
1.0008701
1.0008826
1.0008962
1.0009109
1.0009266
1.0009434
1.0009612
1.00098
1.0009998
1.0010206
1.0010424
1.0010652
1.0010889
1.0011136
1.0011393
1.0011659
1.0011935
1.001222
1.0012514
1.0012817
1.0013129
1.0013449
1.0013778
1.0014115
1.0014461
1.0014814
1.0015176
1.0015544
1.001592
1.0016303
1.0016692
1.0017088
1.0017489
1.0017895
1.0018307
1.0018722
1.0019142
1.0019565
1.0019992
1.0020421
1.0020851
1.0021284
1.0021717
1.002215
1.0022582
1.0023013
1.0023445
1.0023872
1.0024297
1.0024719
1.0025135
1.0025548
1.0025954
1.0026353
1.0026745
1.0027128
1.0027502
1.0027867
1.0028221
1.0028564
1.0028894
1.0029212
1.0029516
1.0029806
1.0030079
1.0030335
1.0030574
1.0030793
1.0030999
1.0031181
1.0031353
1.0031494
1.0031616
1.0031738
1.0031789
1.0031808
1.0031774
1.003176
1.0031744
1.0031682
1.0031574
1.0031448
1.0031311
1.0031153
1.0030958
1.0030722
1.0030445
1.0030123
1.0029755
1.0029345
1.0028906
1.0028451
1.0027985
1.0027498
1.0026981
1.0026416
1.0008119
1.0008149
1.0008195
1.0008251
1.0008318
1.0008398
1.0008489
1.0008592
1.0008706
1.0008831
1.0008968
1.0009115
1.0009272
1.000944
1.0009618
1.0009806
1.0010004
1.0010213
1.0010431
1.0010659
1.0010896
1.0011144
1.00114
1.0011667
1.0011942
1.0012227
1.0012521
1.0012824
1.0013135
1.0013456
1.0013784
1.0014122
1.0014467
1.001482
1.0015182
1.001555
1.0015926
1.0016309
1.0016698
1.0017093
1.0017494
1.0017901
1.0018312
1.0018727
1.0019147
1.001957
1.0019996
1.0020424
1.0020855
1.0021286
1.0021719
1.0022152
1.0022584
1.0023015
1.0023443
1.0023873
1.0024298
1.0024719
1.0025138
1.0025548
1.0025954
1.0026354
1.0026745
1.0027129
1.0027503
1.0027866
1.0028219
1.002856
1.0028887
1.0029201
1.00295
1.0029783
1.0030049
1.0030297
1.0030524
1.0030732
1.0030921
1.0031095
1.003124
1.0031403
1.0031479
1.0031614
1.0031612
1.0031665
1.0031544
1.0031546
1.0031537
1.0031496
1.0031384
1.0031248
1.0031097
1.0030922
1.0030723
1.0030496
1.0030233
1.0029929
1.002958
1.002919
1.0028762
1.002831
1.0027843
1.0027359
1.0026853
1.0026304
1.0008119
1.0008149
1.0008196
1.0008252
1.000832
1.0008401
1.0008493
1.0008596
1.0008711
1.0008836
1.0008973
1.000912
1.0009278
1.0009445
1.0009624
1.0009812
1.001001
1.0010219
1.0010437
1.0010665
1.0010903
1.001115
1.0011407
1.0011673
1.0011949
1.0012233
1.0012527
1.001283
1.0013142
1.0013462
1.0013791
1.0014128
1.0014474
1.0014827
1.0015188
1.0015557
1.0015932
1.0016315
1.0016704
1.0017099
1.00175
1.0017906
1.0018317
1.0018732
1.0019151
1.0019574
1.002
1.0020428
1.0020858
1.0021289
1.0021722
1.0022154
1.0022585
1.0023017
1.0023445
1.0023869
1.0024293
1.0024712
1.0025127
1.0025535
1.0025936
1.0026332
1.0026718
1.0027097
1.0027465
1.0027824
1.002817
1.0028504
1.0028826
1.0029135
1.0029429
1.0029709
1.0029972
1.0030218
1.0030446
1.0030656
1.003084
1.003102
1.0031151
1.0031319
1.0031389
1.0031549
1.0031322
1.0031472
1.0031458
1.003141
1.0031388
1.0031344
1.0031225
1.0031069
1.0030905
1.0030731
1.0030538
1.0030316
1.0030056
1.0029761
1.0029432
1.0029063
1.0028653
1.0028209
1.0027743
1.0027256
1.0026752
1.002621
1.000812
1.000815
1.0008197
1.0008253
1.0008322
1.0008402
1.0008495
1.0008599
1.0008714
1.000884
1.0008977
1.0009124
1.0009282
1.000945
1.0009628
1.0009817
1.0010015
1.0010224
1.0010442
1.001067
1.0010908
1.0011156
1.0011413
1.0011679
1.0011955
1.001224
1.0012534
1.0012836
1.0013148
1.0013469
1.0013798
1.0014135
1.001448
1.0014834
1.0015195
1.0015563
1.0015939
1.0016321
1.001671
1.0017105
1.0017506
1.0017912
1.0018322
1.0018738
1.0019157
1.0019579
1.0020004
1.0020432
1.0020862
1.0021293
1.0021725
1.0022157
1.0022588
1.0023018
1.0023446
1.0023871
1.0024293
1.0024712
1.0025126
1.0025534
1.0025937
1.0026331
1.0026719
1.0027096
1.0027465
1.0027822
1.0028169
1.0028503
1.0028822
1.0029128
1.0029418
1.0029691
1.0029948
1.0030187
1.0030407
1.003061
1.0030787
1.0030957
1.0031081
1.0031226
1.0031315
1.0031381
1.0031378
1.0031385
1.0031379
1.0031357
1.0031298
1.0031217
1.0031092
1.0030935
1.0030769
1.0030597
1.0030404
1.0030173
1.0029903
1.0029605
1.0029284
1.0028931
1.002854
1.002811
1.0027652
1.0027166
1.0026662
1.0026125
1.000812
1.0008151
1.0008198
1.0008255
1.0008323
1.0008404
1.0008497
1.0008601
1.0008716
1.0008843
1.000898
1.0009127
1.0009285
1.0009454
1.0009632
1.0009821
1.001002
1.0010229
1.0010447
1.0010676
1.0010914
1.0011161
1.0011418
1.0011685
1.0011961
1.0012246
1.001254
1.0012843
1.0013155
1.0013475
1.0013804
1.0014142
1.0014487
1.0014841
1.0015202
1.001557
1.0015946
1.0016328
1.0016717
1.0017112
1.0017512
1.0017918
1.0018329
1.0018743
1.0019162
1.0019584
1.002001
1.0020437
1.0020867
1.0021297
1.0021729
1.002216
1.0022591
1.002302
1.0023448
1.0023872
1.0024292
1.0024707
1.002512
1.0025526
1.0025925
1.0026315
1.0026697
1.0027072
1.0027437
1.002779
1.0028131
1.002846
1.0028775
1.0029076
1.0029362
1.0029633
1.0029887
1.0030124
1.0030343
1.0030544
1.0030722
1.0030884
1.0031024
1.0031136
1.0031249
1.0031331
1.0031217
1.0031285
1.0031282
1.0031262
1.0031202
1.0031113
1.0030998
1.0030845
1.003067
1.0030481
1.0030261
1.0029994
1.0029675
1.0029336
1.0029007
1.0028689
1.0028356
1.0027979
1.002755
1.0027075
1.0026576
1.0026045
1.000812
1.0008153
1.00082
1.0008256
1.0008325
1.0008406
1.0008499
1.0008603
1.0008719
1.0008845
1.0008983
1.0009131
1.0009289
1.0009457
1.0009636
1.0009825
1.0010024
1.0010233
1.0010452
1.0010681
1.0010919
1.0011167
1.0011424
1.0011691
1.0011967
1.0012252
1.0012546
1.0012849
1.0013161
1.0013482
1.0013811
1.0014149
1.0014495
1.0014848
1.001521
1.0015578
1.0015954
1.0016336
1.0016725
1.0017119
1.001752
1.0017925
1.0018335
1.001875
1.0019169
1.0019591
1.0020015
1.0020443
1.0020872
1.0021302
1.0021733
1.0022164
1.0022595
1.0023024
1.002345
1.0023875
1.0024295
1.002471
1.002512
1.0025523
1.0025918
1.0026312
1.0026698
1.0027073
1.0027437
1.0027789
1.002813
1.0028459
1.0028773
1.0029072
1.0029354
1.002962
1.0029868
1.0030098
1.003031
1.0030504
1.0030683
1.0030828
1.0030988
1.0031065
1.0031198
1.0031277
1.0031146
1.0031176
1.0031076
1.0031126
1.0031103
1.003102
1.0030898
1.0030749
1.0030571
1.0030372
1.0030139
1.0029869
1.0029564
1.0029235
1.00289
1.0028566
1.0028225
1.0027857
1.0027445
1.0026983
1.0026495
1.0025975
1.0008121
1.0008154
1.0008201
1.0008258
1.0008327
1.0008408
1.0008501
1.0008606
1.0008722
1.0008849
1.0008986
1.0009134
1.0009293
1.0009461
1.000964
1.000983
1.0010029
1.0010238
1.0010457
1.0010686
1.0010925
1.0011173
1.001143
1.0011697
1.0011973
1.0012258
1.0012553
1.0012856
1.0013169
1.0013489
1.0013819
1.0014157
1.0014502
1.0014856
1.0015218
1.0015586
1.0015962
1.0016344
1.0016733
1.0017127
1.0017527
1.0017933
1.0018343
1.0018757
1.0019176
1.0019598
1.0020022
1.0020449
1.0020878
1.0021309
1.0021739
1.002217
1.00226
1.0023028
1.0023455
1.0023878
1.0024298
1.0024713
1.0025123
1.0025526
1.0025921
1.0026308
1.0026689
1.0027059
1.0027418
1.0027768
1.0028105
1.0028427
1.0028736
1.0029031
1.002931
1.0029574
1.0029822
1.0030051
1.0030263
1.0030453
1.0030632
1.0030771
1.0030931
1.0031004
1.0031145
1.0031147
1.0031138
1.0031141
1.0031098
1.0031027
1.0030935
1.0030841
1.0030675
1.0030509
1.0030362
1.0030208
1.003006
1.002981
1.0029526
1.0029212
1.0028875
1.0028525
1.0028161
1.0027774
1.0027356
1.0026904
1.002643
1.0025921
1.0008121
1.0008155
1.0008203
1.000826
1.0008329
1.0008411
1.0008504
1.0008609
1.0008725
1.0008852
1.000899
1.0009138
1.0009297
1.0009466
1.0009645
1.0009834
1.0010034
1.0010243
1.0010463
1.0010692
1.001093
1.0011179
1.0011436
1.0011703
1.001198
1.0012265
1.001256
1.0012864
1.0013176
1.0013497
1.0013827
1.0014165
1.0014511
1.0014865
1.0015226
1.0015595
1.0015971
1.0016353
1.0016742
1.0017136
1.0017536
1.0017941
1.0018351
1.0018766
1.0019184
1.0019606
1.002003
1.0020457
1.0020886
1.0021316
1.0021747
1.0022177
1.0022607
1.0023035
1.0023461
1.0023884
1.0024303
1.0024717
1.0025126
1.0025529
1.0025924
1.0026311
1.0026687
1.0027054
1.0027418
1.0027767
1.0028103
1.0028427
1.0028735
1.0029028
1.0029305
1.0029565
1.0029807
1.0030031
1.0030239
1.0030423
1.0030601
1.0030729
1.0030892
1.0030967
1.0031068
1.0031055
1.0031085
1.0031019
1.0031019
1.0030984
1.0030905
1.0030827
1.0030667
1.0030437
1.0030227
1.003008
1.0029933
1.0029742
1.0029497
1.0029197
1.002886
1.0028499
1.0028117
1.0027715
1.0027293
1.0026847
1.0026383
1.0025882
1.0008121
1.0008156
1.0008204
1.0008262
1.0008331
1.0008413
1.0008507
1.0008612
1.0008728
1.0008855
1.0008993
1.0009142
1.0009301
1.000947
1.000965
1.0009839
1.0010039
1.0010249
1.0010468
1.0010698
1.0010937
1.0011185
1.0011443
1.001171
1.0011987
1.0012273
1.0012568
1.0012871
1.0013184
1.0013505
1.0013835
1.0014173
1.0014519
1.0014874
1.0015235
1.0015604
1.001598
1.0016362
1.0016751
1.0017146
1.0017546
1.0017951
1.0018361
1.0018775
1.0019194
1.0019615
1.002004
1.0020467
1.0020895
1.0021325
1.0021756
1.0022186
1.0022615
1.0023043
1.0023469
1.0023891
1.002431
1.0024724
1.0025132
1.0025534
1.0025928
1.0026314
1.002669
1.0027057
1.0027411
1.0027756
1.0028089
1.0028409
1.0028712
1.0029001
1.0029274
1.0029533
1.0029775
1.0029998
1.0030205
1.0030386
1.0030563
1.003069
1.0030846
1.0030931
1.0030993
1.0031001
1.0031018
1.0030962
1.003096
1.0030942
1.0030882
1.003079
1.0030635
1.0030438
1.0030239
1.0030052
1.0029876
1.0029684
1.0029452
1.0029167
1.0028831
1.0028463
1.0028075
1.0027669
1.0027248
1.0026805
1.0026347
1.0025854
1.0008122
1.0008158
1.0008206
1.0008263
1.0008333
1.0008416
1.0008509
1.0008615
1.0008731
1.0008859
1.0008997
1.0009146
1.0009305
1.0009475
1.0009654
1.0009844
1.0010045
1.0010255
1.0010475
1.0010704
1.0010943
1.0011192
1.001145
1.0011718
1.0011995
1.0012281
1.0012576
1.001288
1.0013193
1.0013514
1.0013844
1.0014182
1.0014529
1.0014883
1.0015245
1.0015614
1.001599
1.0016372
1.0016761
1.0017156
1.0017556
1.0017962
1.0018372
1.0018786
1.0019205
1.0019626
1.0020051
1.0020478
1.0020907
1.0021336
1.0021767
1.0022197
1.0022627
1.0023054
1.002348
1.0023902
1.002432
1.0024733
1.0025141
1.0025542
1.0025935
1.002632
1.0026695
1.002706
1.0027414
1.0027756
1.0028085
1.0028403
1.0028705
1.0028994
1.0029268
1.0029525
1.0029764
1.0029984
1.0030188
1.0030365
1.0030539
1.0030663
1.0030811
1.0030904
1.0030955
1.0030964
1.0030978
1.0030922
1.0030903
1.0030832
1.0030816
1.0030721
1.0030556
1.0030366
1.0030188
1.0030016
1.0029843
1.0029638
1.0029392
1.0029102
1.0028772
1.0028412
1.002803
1.0027629
1.0027211
1.0026771
1.0026318
1.0025831
1.0008122
1.0008159
1.0008207
1.0008265
1.0008336
1.0008418
1.0008512
1.0008618
1.0008734
1.0008862
1.0009001
1.000915
1.000931
1.0009479
1.000966
1.000985
1.001005
1.0010261
1.0010481
1.0010711
1.001095
1.0011199
1.0011458
1.0011726
1.0012003
1.0012289
1.0012584
1.0012889
1.0013202
1.0013524
1.0013854
1.0014192
1.0014539
1.0014893
1.0015255
1.0015624
1.0016001
1.0016383
1.0016772
1.0017167
1.0017568
1.0017973
1.0018384
1.0018798
1.0019217
1.0019639
1.0020064
1.0020491
1.002092
1.002135
1.002178
1.0022211
1.002264
1.0023068
1.0023493
1.0023915
1.0024333
1.0024746
1.0025153
1.0025553
1.0025945
1.0026329
1.0026703
1.0027067
1.002742
1.002776
1.0028088
1.0028402
1.0028701
1.0028988
1.0029259
1.0029514
1.0029751
1.0029968
1.003017
1.0030345
1.0030514
1.0030645
1.0030764
1.0030891
1.0030927
1.0030928
1.0030928
1.0030914
1.0030887
1.0030825
1.0030754
1.0030667
1.0030553
1.0030407
1.0030236
1.0030046
1.002983
1.0029589
1.002932
1.0029025
1.0028702
1.0028352
1.002798
1.0027587
1.0027175
1.002674
1.0026292
1.0025815
1.0008122
1.000816
1.0008209
1.0008267
1.0008338
1.000842
1.0008515
1.0008621
1.0008738
1.0008866
1.0009005
1.0009154
1.0009314
1.0009485
1.0009665
1.0009856
1.0010057
1.0010267
1.0010488
1.0010718
1.0010958
1.0011207
1.0011466
1.0011734
1.0012012
1.0012298
1.0012594
1.0012898
1.0013212
1.0013534
1.0013864
1.0014203
1.001455
1.0014904
1.0015267
1.0015636
1.0016012
1.0016395
1.0016784
1.0017179
1.001758
1.0017986
1.0018397
1.0018812
1.0019231
1.0019653
1.0020079
1.0020506
1.0020936
1.0021366
1.0021797
1.0022227
1.0022657
1.0023085
1.002351
1.0023932
1.0024349
1.0024762
1.0025168
1.0025568
1.0025959
1.0026342
1.0026715
1.0027078
1.0027429
1.0027768
1.0028094
1.0028407
1.0028704
1.0028987
1.0029254
1.0029506
1.0029743
1.0029959
1.0030159
1.0030333
1.0030496
1.0030633
1.0030733
1.0030878
1.0030897
1.00309
1.0030904
1.0030892
1.0030859
1.0030792
1.0030725
1.003063
1.0030522
1.0030389
1.0030227
1.0030035
1.0029803
1.0029536
1.0029248
1.0028947
1.002863
1.002829
1.0027928
1.0027543
1.0027138
1.002671
1.002627
1.0025797
1.0008122
1.0008161
1.000821
1.0008269
1.000834
1.0008423
1.0008518
1.0008624
1.0008742
1.000887
1.0009009
1.0009159
1.000932
1.000949
1.0009671
1.0009862
1.0010063
1.0010275
1.0010495
1.0010726
1.0010966
1.0011216
1.0011475
1.0011743
1.0012021
1.0012308
1.0012604
1.0012909
1.0013223
1.0013545
1.0013876
1.0014215
1.0014562
1.0014916
1.0015279
1.0015648
1.0016025
1.0016408
1.0016797
1.0017193
1.0017594
1.0018
1.0018411
1.0018827
1.0019246
1.0019669
1.0020095
1.0020523
1.0020953
1.0021384
1.0021816
1.0022247
1.0022677
1.0023105
1.002353
1.0023952
1.0024369
1.0024781
1.0025188
1.0025587
1.0025978
1.002636
1.0026732
1.0027094
1.0027444
1.0027782
1.0028106
1.0028417
1.0028713
1.0028994
1.0029258
1.0029507
1.002974
1.0029953
1.0030152
1.0030325
1.0030487
1.0030621
1.0030728
1.0030846
1.0030881
1.0030886
1.0030912
1.0030717
1.0030757
1.0030618
1.0030674
1.0030602
1.0030483
1.0030348
1.0030189
1.003
1.0029775
1.0029518
1.0029225
1.0028909
1.0028589
1.0028248
1.0027888
1.0027507
1.0027106
1.0026683
1.0026247
1.0025785
1.0008122
1.0008162
1.0008212
1.0008271
1.0008342
1.0008426
1.0008521
1.0008628
1.0008746
1.0008874
1.0009014
1.0009164
1.0009325
1.0009496
1.0009678
1.0009869
1.0010071
1.0010282
1.0010503
1.0010734
1.0010975
1.0011225
1.0011484
1.0011753
1.0012031
1.0012319
1.0012615
1.001292
1.0013234
1.0013557
1.0013888
1.0014227
1.0014575
1.001493
1.0015292
1.0015662
1.0016039
1.0016422
1.0016812
1.0017207
1.0017609
1.0018016
1.0018427
1.0018843
1.0019263
1.0019687
1.0020114
1.0020543
1.0020973
1.0021405
1.0021837
1.0022269
1.0022699
1.0023128
1.0023553
1.0023975
1.0024393
1.0024805
1.0025211
1.0025609
1.0026
1.0026381
1.0026753
1.0027114
1.0027463
1.00278
1.0028124
1.0028434
1.0028729
1.0029009
1.0029272
1.0029519
1.0029748
1.0029956
1.0030151
1.0030322
1.0030482
1.0030613
1.0030718
1.0030836
1.0030905
1.0030899
1.0030846
1.003083
1.0030816
1.0030777
1.0030687
1.003057
1.0030438
1.0030286
1.0030121
1.0029953
1.0029753
1.0029508
1.0029235
1.0028927
1.0028584
1.0028229
1.0027861
1.0027478
1.0027078
1.0026658
1.0026226
1.0025767
1.0008123
1.0008163
1.0008213
1.0008273
1.0008345
1.0008429
1.0008524
1.0008631
1.000875
1.0008879
1.0009019
1.000917
1.0009331
1.0009503
1.0009684
1.0009876
1.0010079
1.001029
1.0010512
1.0010743
1.0010984
1.0011235
1.0011495
1.0011764
1.0012043
1.001233
1.0012627
1.0012933
1.0013247
1.001357
1.0013901
1.0014241
1.0014588
1.0014944
1.0015307
1.0015677
1.0016054
1.0016437
1.0016827
1.0017224
1.0017626
1.0018033
1.0018445
1.0018862
1.0019283
1.0019707
1.0020134
1.0020564
1.0020996
1.0021428
1.0021861
1.0022293
1.0022724
1.0023153
1.0023579
1.0024001
1.0024419
1.0024831
1.0025236
1.0025635
1.0026025
1.0026406
1.0026777
1.0027137
1.0027485
1.0027821
1.0028144
1.0028453
1.0028747
1.0029025
1.0029287
1.0029532
1.002976
1.0029969
1.0030162
1.003033
1.0030486
1.0030617
1.0030714
1.0030849
1.0030886
1.0030891
1.0030848
1.0030839
1.003081
1.0030745
1.0030672
1.0030587
1.0030489
1.0030331
1.0030149
1.002995
1.0029738
1.0029497
1.0029221
1.0028913
1.0028574
1.0028214
1.0027832
1.0027446
1.0027047
1.0026627
1.0026196
1.0025735
1.0008123
1.0008165
1.0008215
1.0008275
1.0008347
1.0008432
1.0008528
1.0008635
1.0008754
1.0008884
1.0009025
1.0009176
1.0009337
1.000951
1.0009692
1.0009884
1.0010087
1.0010299
1.0010522
1.0010753
1.0010995
1.0011246
1.0011506
1.0011776
1.0012055
1.0012343
1.001264
1.0012946
1.0013261
1.0013584
1.0013916
1.0014256
1.0014604
1.0014959
1.0015322
1.0015693
1.001607
1.0016454
1.0016845
1.0017242
1.0017644
1.0018052
1.0018465
1.0018883
1.0019305
1.001973
1.0020158
1.0020588
1.0021021
1.0021454
1.0021887
1.002232
1.0022751
1.002318
1.0023607
1.0024029
1.0024447
1.0024858
1.0025264
1.0025661
1.0026051
1.0026431
1.0026801
1.0027161
1.0027508
1.0027843
1.0028165
1.0028472
1.0028765
1.0029043
1.0029304
1.0029548
1.0029776
1.0029984
1.0030176
1.0030345
1.0030501
1.0030631
1.0030731
1.0030854
1.0030906
1.0030872
1.0030866
1.0030832
1.0030816
1.0030788
1.003072
1.0030623
1.0030492
1.003033
1.0030151
1.0029945
1.0029717
1.0029466
1.0029187
1.0028878
1.0028545
1.0028197
1.0027844
1.0027474
1.0027093
1.0026703
1.0026294
1.002583
1.0008123
1.0008166
1.0008217
1.0008277
1.000835
1.0008435
1.0008531
1.000864
1.0008759
1.0008889
1.000903
1.0009182
1.0009344
1.0009517
1.00097
1.0009893
1.0010096
1.0010309
1.0010532
1.0010764
1.0011006
1.0011257
1.0011518
1.0011789
1.0012068
1.0012356
1.0012654
1.001296
1.0013276
1.0013599
1.0013932
1.0014272
1.001462
1.0014976
1.001534
1.0015711
1.0016088
1.0016473
1.0016864
1.0017262
1.0017665
1.0018074
1.0018488
1.0018906
1.0019329
1.0019755
1.0020184
1.0020615
1.0021048
1.0021482
1.0021916
1.0022349
1.0022781
1.0023211
1.0023637
1.0024059
1.0024476
1.0024888
1.0025293
1.002569
1.0026079
1.0026458
1.0026828
1.0027186
1.0027533
1.0027867
1.0028187
1.0028494
1.0028786
1.0029063
1.0029324
1.0029569
1.0029796
1.0030005
1.0030197
1.0030367
1.003052
1.0030655
1.0030753
1.0030865
1.0030923
1.0030938
1.0030803
1.0030866
1.0030819
1.0030799
1.0030732
1.0030627
1.0030502
1.0030354
1.0030179
1.0029981
1.0029765
1.0029529
1.0029259
1.0028964
1.002864
1.0028307
1.0027957
1.0027584
1.0027191
1.0026758
1.0026305
1.0025835
1.0008123
1.0008167
1.0008218
1.0008279
1.0008353
1.0008438
1.0008536
1.0008644
1.0008764
1.0008895
1.0009037
1.0009189
1.0009352
1.0009525
1.0009709
1.0009902
1.0010106
1.001032
1.0010543
1.0010776
1.0011018
1.001127
1.0011532
1.0011802
1.0012082
1.0012371
1.0012669
1.0012976
1.0013292
1.0013616
1.0013949
1.0014289
1.0014638
1.0014995
1.0015359
1.001573
1.0016109
1.0016494
1.0016886
1.0017284
1.0017688
1.0018098
1.0018513
1.0018932
1.0019356
1.0019783
1.0020213
1.0020645
1.0021079
1.0021513
1.0021947
1.0022381
1.0022813
1.0023243
1.0023669
1.0024091
1.0024508
1.0024919
1.0025323
1.002572
1.0026108
1.0026487
1.0026855
1.0027213
1.0027559
1.0027893
1.0028213
1.002852
1.0028813
1.002909
1.0029351
1.0029596
1.0029824
1.0030033
1.0030225
1.0030394
1.0030545
1.0030684
1.0030769
1.0030901
1.0030927
1.0030938
1.0030932
1.0030917
1.0030868
1.003079
1.0030699
1.0030602
1.0030495
1.0030366
1.0030203
1.0029997
1.0029774
1.002953
1.0029265
1.0028968
1.0028658
1.0028318
1.0027959
1.0027582
1.0027186
1.0026773
1.0026373
1.0025936
1.0008123
1.0008168
1.000822
1.0008282
1.0008356
1.0008442
1.000854
1.0008649
1.000877
1.0008901
1.0009044
1.0009197
1.000936
1.0009534
1.0009718
1.0009913
1.0010117
1.0010331
1.0010555
1.0010788
1.0011032
1.0011284
1.0011546
1.0011817
1.0012098
1.0012388
1.0012686
1.0012994
1.001331
1.0013634
1.0013967
1.0014309
1.0014658
1.0015015
1.0015379
1.0015752
1.0016131
1.0016517
1.001691
1.0017309
1.0017714
1.0018125
1.0018541
1.0018961
1.0019386
1.0019814
1.0020244
1.0020677
1.0021112
1.0021547
1.0021981
1.0022415
1.0022847
1.0023277
1.0023703
1.0024124
1.0024541
1.0024951
1.0025355
1.0025751
1.0026138
1.0026517
1.0026885
1.0027243
1.0027589
1.0027923
1.0028244
1.0028551
1.0028844
1.0029121
1.0029382
1.0029626
1.0029852
1.0030059
1.0030248
1.0030415
1.0030565
1.0030701
1.0030788
1.0030913
1.0030951
1.0030949
1.0030947
1.0030924
1.0030862
1.003079
1.0030712
1.0030631
1.0030533
1.0030406
1.0030237
1.0030036
1.0029816
1.0029575
1.0029305
1.0029005
1.0028689
1.0028369
1.0028027
1.0027652
1.0027269
1.0026851
1.0026419
1.0025942
1.0008124
1.000817
1.0008222
1.0008284
1.0008359
1.0008446
1.0008545
1.0008655
1.0008776
1.0008908
1.0009051
1.0009205
1.0009369
1.0009544
1.0009729
1.0009924
1.0010129
1.0010344
1.0010568
1.0010802
1.0011046
1.0011299
1.0011562
1.0011834
1.0012115
1.0012405
1.0012704
1.0013012
1.0013329
1.0013654
1.0013988
1.001433
1.0014679
1.0015037
1.0015402
1.0015775
1.0016155
1.0016543
1.0016936
1.0017337
1.0017743
1.0018155
1.0018572
1.0018993
1.0019419
1.0019847
1.0020279
1.0020712
1.0021147
1.0021582
1.0022017
1.0022451
1.0022883
1.0023312
1.0023737
1.0024159
1.0024575
1.0024985
1.0025388
1.0025784
1.0026171
1.0026549
1.0026918
1.0027276
1.0027622
1.0027955
1.0028275
1.0028581
1.0028871
1.0029144
1.0029403
1.0029644
1.0029865
1.0030067
1.0030255
1.003042
1.003057
1.0030705
1.0030793
1.003092
1.003097
1.0030943
1.0030952
1.0030916
1.0030855
1.0030814
1.0030728
1.0030617
1.003047
1.0030254
1.0030258
1.0030076
1.0029856
1.0029611
1.0029341
1.0029043
1.0028721
1.0028377
1.002802
1.0027657
1.0027265
1.0026859
1.0026429
1.0025983
1.0008124
1.0008172
1.0008225
1.0008287
1.0008363
1.0008451
1.000855
1.0008661
1.0008782
1.0008915
1.0009059
1.0009214
1.0009379
1.0009554
1.000974
1.0009936
1.0010141
1.0010357
1.0010582
1.0010817
1.0011062
1.0011316
1.0011579
1.0011852
1.0012133
1.0012424