/*--------------------------------*- C++ -*----------------------------------*\
| =========                 |                                                 |
| \\      /  F ield         | OpenFOAM: The Open Source CFD Toolbox           |
|  \\    /   O peration     | Version:  2406                                  |
|   \\  /    A nd           | Website:  www.openfoam.com                      |
|    \\/     M anipulation  |                                                 |
\*---------------------------------------------------------------------------*/
FoamFile
{
    version     2.0;
    format      ascii;
    arch        "LSB;label=32;scalar=64";
    class       volScalarField;
    location    "95";
    object      p_0;
}
// * * * * * * * * * * * * * * * * * * * * * * * * * * * * * * * * * * * * * //

dimensions      [1 -1 -2 0 0 0 0];

internalField   nonuniform List<scalar> 
20580
(
1.0013777
1.0066247
1.001891
1.0083241
1.0033247
1.0062066
1.0063002
1.0053274
1.0051422
1.0077234
1.0074559
1.0063648
1.0073002
1.0084578
1.0082639
1.0065645
1.0087172
1.0114033
1.0036313
1.0066314
1.0134222
1.00779
1.0040915
1.0102256
1.0190673
1.0082447
0.99827489
1.0072971
1.0024097
0.99191562
1.0152696
1.0014919
1.006819
1.001887
1.0085897
1.0027937
1.0064676
1.0060771
1.0050972
1.0052989
1.0080187
1.0073375
1.0058755
1.0076134
1.0090669
1.0075946
1.0065898
1.0115217
1.0096479
1.0015528
1.0096871
1.0136096
1.004625
1.0052401
1.0136812
1.0185802
1.0016854
0.98815363
1.004766
1.0156491
1.0000104
0.99656413
1.0024609
1.0064181
1.0033027
1.0072462
1.0034689
1.0061914
1.0055538
1.005481
1.0060506
1.0075003
1.0072092
1.0059404
1.0077949
1.009283
1.0072354
1.0064003
1.0130108
1.0080458
1.0009762
1.0121347
1.0125177
1.0013156
1.0059297
1.013963
1.016786
1.0006673
0.98479438
1.002273
1.0268661
1.012795
0.98399635
1.0039725
1.0054945
1.0054519
1.0049432
1.0049937
1.0057457
1.0050852
1.006029
1.0069031
1.006667
1.0068543
1.006464
1.0079433
1.0089116
1.0072219
1.0063033
1.0127272
1.006638
1.0021945
1.0135264
1.010412
0.99934034
1.0070856
1.0116209
1.0120205
1.0043041
0.99037029
1.0011451
1.0300426
1.0279176
0.98813661
1.0055214
1.0043072
1.0071281
1.0026399
1.0065747
1.0053918
1.0051275
1.0064106
1.007162
1.0060867
1.0066074
1.0069452
1.0080601
1.0078807
1.0073799
1.006755
1.011086
1.0051832
1.0048345
1.0139543
1.0073857
0.99945303
1.0095735
1.0089247
1.0051154
1.0081828
1.0030159
1.00316
1.0216746
1.0334679
1.0058284
1.0064218
1.0034105
1.0073477
1.0015269
1.0073754
1.0049786
1.0057779
1.0067617
1.006768
1.005807
1.0064908
1.0074779
1.0080521
1.0068147
1.0074482
1.0076996
1.0086493
1.0040312
1.0083822
1.0134341
1.0041847
1.0007856
1.0134748
1.0078164
0.99793013
1.0089268
1.017113
1.0083083
1.0071967
1.0208897
1.0214156
1.0062461
1.0033467
1.0060372
1.0022599
1.0070961
1.0047826
1.0067431
1.0068805
1.0062434
1.0060318
1.0061424
1.0079279
1.00803
1.0061361
1.0076278
1.0089508
1.0063575
1.0035748
1.0115599
1.012108
1.0018876
1.0026528
1.0171677
1.0094043
0.99315823
1.0060014
1.0259874
1.015434
0.9951927
0.99660166
1.0183193
1.0050739
1.004174
1.0040048
1.0042245
1.0059673
1.0050085
1.0074166
1.0066583
1.0060154
1.0065355
1.005868
1.0080881
1.0079975
1.0059273
1.0077608
1.0100887
1.0051821
1.0040555
1.0133737
1.009977
1.0007712
1.0049649
1.0184837
1.0118732
0.99336623
1.0018622
1.0256245
1.0214952
0.99179295
0.97704509
0.99927799
1.0033485
1.0054715
1.0024369
1.0063664
1.0044667
1.0055131
1.0073211
1.0063752
1.0063011
1.006638
1.0059801
1.0080505
1.0075771
1.0061746
1.0076563
1.0104311
1.0052218
1.0054463
1.0138955
1.0075019
1.0010277
1.0075346
1.0161682
1.0123681
0.99863147
1.0000103
1.0172793
1.0223882
0.99715707
0.97497531
0.98146428
1.0017561
1.0067642
1.0023239
1.0078649
1.0033821
1.0061469
1.0064505
1.0062021
1.0066766
1.0060936
1.0064454
1.0077754
1.0069741
1.0070701
1.0075266
1.0098568
1.005913
1.0075403
1.0130835
1.0048421
1.0031708
1.0103237
1.0108096
1.0093438
1.0062773
1.0026553
1.0069213
1.0138534
1.0071257
0.98916947
0.98267571
1.0010758
1.007489
1.0037047
1.0079282
1.0032825
1.0066172
1.0053076
1.0062149
1.0065411
1.0055075
1.0070465
1.0073308
1.0064886
1.0082719
1.0076924
1.0086392
1.0066322
1.0098757
1.0112632
1.002241
1.0060093
1.0138758
1.0050634
1.0025844
1.0123418
1.0100832
1.0003124
0.99909373
1.0112504
1.012194
1.0015096
1.0017395
1.0070496
1.005589
1.0064264
1.0040154
1.0065762
1.0045984
1.0063565
1.0059105
1.0055638
1.0074191
1.0067715
1.0062791
1.009126
1.0078002
1.0069776
1.0070666
1.0116904
1.0091418
1.0006779
1.0081692
1.0174745
1.0016017
0.99498162
1.0138946
1.0191681
0.99994307
0.98776772
1.0047552
1.02703
1.0265595
1.0033965
1.0055718
1.0066615
1.0043543
1.0052297
1.0059226
1.0047134
1.0062361
1.0052337
1.0061182
1.007605
1.0063885
1.0063527
1.009372
1.0077451
1.0054514
1.0072138
1.01221
1.0072177
1.0008789
1.0096133
1.019204
1.0013746
0.99109214
1.0112115
1.0244024
1.0046965
0.98645485
0.99369861
1.0248724
1.0386878
1.0052728
1.0039714
1.0062404
1.0027626
1.0065016
1.0049592
1.0054997
1.005751
1.0049001
1.0066647
1.0075326
1.006322
1.0066452
1.0091228
1.0078555
1.0048002
1.0072
1.0114301
1.0057679
1.0024851
1.0103629
1.0180162
1.0034212
0.9929717
1.0075275
1.0220527
1.0110686
0.99279707
0.99118744
1.0098559
1.0311354
1.0064606
1.002978
1.0046933
1.0020845
1.0070276
1.0042485
1.0066352
1.0053237
1.0052366
1.0069504
1.0069597
1.0063461
1.0072789
1.0083371
1.0080139
1.0052603
1.0073958
1.0099806
1.0048275
1.0054191
1.0102636
1.0136502
1.0057627
0.99985688
1.0066083
1.0127676
1.0128035
1.0032351
0.99880778
0.99943583
1.009642
1.0064428
1.0028992
1.0031113
1.0027275
1.0066397
1.0042156
1.0074983
1.0053274
1.0061803
1.0067771
1.0062564
1.006564
1.0080792
1.0070444
1.0078001
1.0063052
1.0080374
1.0083008
1.0041701
1.0096064
1.0103466
1.0067231
1.0061857
1.0095768
1.0094096
1.002635
1.0052119
1.0132086
1.0115217
1.0010618
0.99020468
1.004878
1.0041788
1.0027055
1.004562
1.0056976
1.0049675
1.007403
1.0058722
1.0069981
1.0062885
1.0057523
1.0069432
1.0087653
1.005941
1.0073278
1.0075033
1.0089029
1.0067769
1.003773
1.0131875
1.0112458
1.0006892
1.0036051
1.0174824
1.0139873
0.99717547
0.99326485
1.014812
1.0243282
1.0098478
0.98675062
1.0027225
1.0061201
1.0037152
1.0065758
1.0043443
1.0060791
1.0063232
1.0068228
1.0071771
1.0057985
1.005495
1.0073393
1.0090883
1.0055868
1.006956
1.00858
1.0096211
1.0060517
1.0041136
1.0146143
1.0123338
0.99762467
1.0003155
1.0198118
1.0187733
0.99631342
0.98662099
1.0074707
1.0286761
1.0198325
0.99364646
1.001128
1.0074407
1.005384
1.0077085
1.0032367
1.0068443
1.0050091
1.0075306
1.0069348
1.0054251
1.0054178
1.0075677
1.0088228
1.0059969
1.0066867
1.0089588
1.0097692
1.0061243
1.0052071
1.0138307
1.0126351
0.99868357
0.99904445
1.0168334
1.0201133
0.99871679
0.98919789
0.99980328
1.0212434
1.0230645
1.0047706
1.0008917
1.0073974
1.0064313
1.0074509
1.0032542
1.006738
1.0041925
1.0073842
1.0065587
1.0054281
1.0057115
1.0072989
1.0081538
1.0067707
1.0065814
1.0083846
1.0091313
1.0065288
1.0068159
1.0112492
1.011387
1.0023911
1.0018745
1.0116638
1.0147284
1.0036039
0.99713976
1.0008638
1.0086366
1.0148659
1.0107249
1.0023269
1.0061595
1.0058656
1.0059784
1.0041575
1.0059552
1.0047175
1.0065372
1.0060601
1.0057831
1.0064026
1.0071115
1.0073042
1.0076643
1.0069661
1.0075848
1.0078884
1.006973
1.0090114
1.008185
1.007365
1.0078585
1.0071286
1.0082937
1.0052393
1.0062817
1.0078089
1.0083682
1.000797
1.0000659
1.0073
1.0046524
1.0042023
1.0041442
1.0037684
1.0056576
1.0048824
1.0063586
1.0055905
1.0054551
1.0060766
1.0071656
1.0070199
1.006235
1.0084455
1.0077937
1.007153
1.0061889
1.0069503
1.0113677
1.0057276
1.0030588
1.0113335
1.0138267
1.0073604
0.99742858
1.0031271
1.0175476
1.0178555
1.0005209
0.9879686
0.99801364
1.0065682
1.0028144
1.002662
1.0021051
1.0072152
1.0042551
1.0077356
1.0051793
1.0049222
1.0062503
1.0075124
1.0071095
1.005377
1.0087441
1.0084685
1.0071781
1.0050238
1.0061596
1.0133017
1.0050755
1.0000522
1.0108195
1.0190767
1.009331
0.99435782
0.99735232
1.0199237
1.0264439
1.0060242
0.98455355
0.98971318
1.0150802
1.0169602
1.0122122
1.0007162
0.98595886
0.97621884
0.9808209
0.99628
1.0138064
1.0238473
1.0201309
1.0055606
0.99579538
1.0017
1.0189654
1.0305827
1.023537
0.9949923
0.96658321
0.962326
0.9863138
1.0244988
1.0536413
1.0227174
1.0160692
1.0092728
1.0048451
1.0052203
1.009441
1.0124436
1.0106994
0.99951983
0.98281877
0.9707338
0.9732823
0.99286353
1.0233823
1.0451457
1.0440275
1.0200318
0.98976895
0.97357133
0.98085076
1.0043994
1.0238999
1.0254505
0.97958069
0.98254039
0.99581323
1.0169969
1.0366721
1.0466583
1.0403658
1.0204211
0.99414858
0.97513572
0.97348326
0.98664189
1.0044177
1.0153421
1.0122419
0.99527593
0.9818545
0.98698188
1.0100375
1.0378695
1.0505604
1.0350078
0.99500665
0.96743529
0.98130165
0.99859368
1.012096
1.019532
1.0158845
1.0033639
0.99442159
0.99747204
1.0134842
1.0318646
1.0434461
1.0375495
1.0080335
0.96850069
0.94186631
0.94557473
0.97477853
1.019313
1.0567301
1.0643043
1.0367931
0.99353907
1.0256023
1.0282094
1.0175121
0.99641508
0.97299105
0.95504807
0.95042852
0.96483542
0.99641944
1.0335813
1.0606603
1.0644983
1.0401111
1.0051282
0.97440884
0.96477496
0.97438977
0.99620235
1.0152343
1.0173408
0.99887516
0.97622752
0.97463658
1.0612018
1.0440366
1.0187475
0.99357346
0.97346262
0.96613173
0.97431934
0.99166138
1.0064601
1.0123576
1.0056619
0.99171489
0.97984603
0.97979919
0.99916959
1.0296489
1.0573409
1.0650633
1.0412974
0.99050886
0.93675152
0.91537779
0.93024426
0.99200703
0.9892623
0.99299146
1.0042936
1.0234169
1.0443815
1.0582831
1.0550447
1.0294837
0.99010294
0.95078645
0.92143204
0.91913221
0.94525031
0.99394055
1.0514451
1.0943311
1.0968884
1.0582891
1.0018274
0.95364373
0.93414551
0.93973187
0.93349641
0.94047817
0.96471919
1.0040271
1.0495038
1.0825085
1.0902186
1.0680737
1.0323294
0.99456364
0.96069148
0.94481825
0.94747141
0.96818172
0.99545113
1.0176105
1.0238988
1.0167659
1.0024221
0.99614347
0.99989939
1.0101884
1.025983
0.95583711
0.97794755
1.0004018
1.013805
1.0114377
1.0011191
0.99253607
0.99186664
0.99721199
1.0032791
1.0139863
1.0312905
1.0483281
1.0565953
1.037546
0.99585951
0.95067797
0.91513782
0.90858385
0.93184136
0.98370456
1.0507893
1.1154436
1.0706801
1.0610869
1.0331813
0.99648153
0.95897339
0.93031665
0.91108744
0.9079049
0.92614948
0.97094319
1.0367862
1.1025797
1.1397655
1.1276902
1.0731003
1.0051906
0.94448461
0.90104935
0.88415952
0.89671046
0.94411226
1.0140018
1.0907569
1.1325896
1.0946805
1.0428045
0.99185927
0.94939939
0.91855554
0.90387537
0.90918928
0.93095747
0.96984897
1.0177139
1.0621865
1.0942401
1.0938664
1.0718075
1.0334294
0.9880564
0.95248076
0.93732602
0.9443469
0.96686857
0.99415922
1.0138099
1.0395201
1.0325286
1.0296735
1.0185375
0.99820712
0.97746408
0.96957775
0.97981278
1.0005731
1.0136879
1.0106797
0.99196114
0.97083174
0.96707626
0.98093877
1.0060398
1.0272949
1.0385346
1.0439811
1.047073
1.0420671
1.0174
0.97974374
0.92595495
0.93912429
0.96628304
1.0043444
1.0435175
1.0764301
1.0977437
1.1010911
1.0822301
1.0434917
0.99281781
0.94076106
0.90099125
0.87775225
0.88820964
0.92659061
0.99086716
1.0702769
1.1367525
1.1658154
1.1368972
1.0640483
0.98079622
0.86863103
0.88366398
0.91729595
0.97075229
1.0461449
1.1316441
1.1971799
1.2022208
1.1435712
1.0588097
0.97775826
0.91452659
0.8733812
0.8555827
0.8574979
0.88540223
0.94604524
1.0395176
1.1451794
1.2160654
1.2005078
1.1109285
1.0042493
0.85896017
0.87683882
0.91318003
0.96783596
1.0434567
1.1284417
1.1977496
1.2104794
1.1590144
1.0729464
0.98794957
0.9238342
0.88139742
0.86266018
0.86191227
0.88437683
0.93642756
1.0147585
1.106412
1.182448
1.1975624
1.1396982
1.0416068
0.88085994
0.90072577
0.93426613
0.985967
1.0453433
1.1022872
1.1421414
1.1530013
1.1258397
1.0730369
1.0087417
0.94733761
0.90698201
0.88607941
0.88443432
0.90632355
0.949154
1.0116804
1.07411
1.1285149
1.1479529
1.124457
1.0612268
0.91020812
0.93010805
0.96339666
1.0051479
1.0439082
1.0728533
1.0905078
1.0965299
1.088792
1.0642278
1.0231974
0.97311453
0.93283921
0.90949092
0.90920638
0.93206396
0.96927424
1.0128156
1.0494868
1.0817258
1.1029394
1.0961609
1.059602
0.92470833
0.94417321
0.97634842
1.0138192
1.0433044
1.0607591
1.0682765
1.0719423
1.0715873
1.0587778
1.0258782
0.98164951
0.94374116
0.92061853
0.92129269
0.94496287
0.9797151
1.0132346
1.0396638
1.0643457
1.0819487
1.0804729
1.0563566
0.91570257
0.93585263
0.96953129
1.0098779
1.0442292
1.067026
1.0783035
1.0830456
1.0805039
1.062994
1.0242662
0.97670327
0.93715082
0.91454641
0.91645475
0.94248494
0.97944496
1.0152264
1.0448289
1.0721297
1.0887353
1.0818127
1.052329
0.8887713
0.91217463
0.94974231
0.99774095
1.0457238
1.0872964
1.1176844
1.1272694
1.1109357
1.0721546
1.0172008
0.95991318
0.91583875
0.89281782
0.8962452
0.92651207
0.97149235
1.0207495
1.0647582
1.1026944
1.1175606
1.0965817
1.0460982
0.85751091
0.8769613
0.91451814
0.97106685
1.0458302
1.1267583
1.1979942
1.2053529
1.1506103
1.067099
0.98410054
0.91862126
0.87567852
0.86007625
0.86824676
0.90239067
0.96161967
1.0426242
1.1204842
1.1716193
1.1592285
1.0972739
1.0143823
0.83656243
0.85475472
0.89397797
0.9592402
1.0566694
1.1692844
1.2588002
1.2551231
1.1554586
1.0376199
0.94278405
0.87911579
0.84427152
0.83145482
0.84345425
0.88761159
0.97872883
1.0967435
1.2043734
1.2373493
1.1670711
1.0575624
0.9547449
0.85742937
0.88030196
0.92122703
0.99190774
1.0746341
1.1612584
1.2170589
1.1974798
1.1142778
1.0155945
0.92729135
0.86627808
0.83035392
0.8235264
0.85147629
0.9244892
1.0406027
1.1697985
1.2484242
1.2191001
1.1111368
0.99138358
0.89620051
0.95913882
0.96911842
0.99394154
1.0237548
1.0485053
1.0622699
1.0662374
1.0647246
1.0450573
1.0002833
0.94281064
0.89172162
0.86793379
0.88446515
0.93887491
1.0144344
1.0909346
1.1489922
1.1646836
1.1179311
1.032809
0.94249066
0.87241746
1.1287388
1.0837191
1.0399554
0.99606947
0.95561119
0.92655585
0.91856709
0.93444942
0.96521245
0.98875614
0.99991693
1.0030768
1.0092471
1.0233885
1.0333084
1.0297261
1.0172099
1.011123
1.0121144
1.0132014
0.99289558
0.95306164
0.92155637
1.1739787
1.111953
1.0294746
0.95186053
0.89493291
0.85992048
0.84927547
0.86997302
0.92488332
1.0130684
1.1124189
1.1689216
1.1499788
1.0836143
1.004805
0.93596886
0.89214125
0.88447197
0.90940191
0.96434113
1.020259
1.0573575
1.0641982
1.0162744
1.0284734
1.0130242
0.97621432
0.93165459
0.89682913
0.8925613
0.92367216
0.98429487
1.058467
1.1299077
1.1607932
1.1179159
1.0309274
0.94120672
0.87731992
0.8491878
0.85783166
0.90826182
1.0037511
1.1106193
1.1746762
1.146371
0.90944819
0.93829048
0.9776039
1.0122712
1.0342929
1.0436625
1.0361389
1.0247438
1.0137486
1.0031204
0.9950335
1.0001812
1.0030324
0.98940153
0.95693424
0.92798019
0.92726317
0.94545892
0.99117792
1.0393076
1.0804399
1.0982698
1.0680729
0.92671754
0.93876498
0.9734821
1.0235597
1.0713139
1.1007955
1.0863553
1.0351007
0.97430213
0.92735199
0.90167572
0.90586291
0.93969685
0.99732649
1.0494026
1.0678675
1.0537805
1.0207035
0.98694592
0.96240311
0.95384657
0.95997329
0.97885977
1.0186719
1.0042581
0.99704034
0.99392073
0.9965875
1.0057987
1.0122211
1.0037799
0.97539876
0.94200081
0.92790138
0.93591533
0.97006403
1.0204025
1.0707174
1.0937977
1.0696556
1.0123747
0.94797868
0.90291832
0.89380518
0.91799779
0.96310608
1.0449828
1.0304099
1.0007202
0.97060084
0.9474585
0.93925898
0.95250834
0.9797418
1.0120472
1.0304697
1.0252329
1.0088966
0.99258071
0.98277037
0.98466901
0.99609507
1.0077261
1.0044374
0.98566617
0.96340683
0.95204758
0.95920336
0.97924317
0.98129813
0.99485748
1.0015076
0.99377048
0.97955699
0.97020196
0.96909311
0.98522816
1.0139108
1.0418689
1.050821
1.0291974
0.9863903
0.94556832
0.92687159
0.93421846
0.96578363
1.011558
1.0490633
1.059805
1.0430619
1.0065258
0.96900116
0.9629714
0.97152162
0.99174328
1.017115
1.031025
1.0244022
1.0047694
0.98593992
0.9768472
0.98180389
0.99676454
1.0080944
1.0023301
0.9813644
0.96032773
0.95524286
0.96968916
0.9958269
1.0214995
1.0346013
1.0324185
1.0197855
0.9985741
1.0035051
0.99533381
0.99285328
0.99783452
1.007095
1.0153307
1.0104632
0.99078368
0.96768433
0.95690401
0.96277825
0.98434327
1.0117022
1.0286561
1.0267349
1.0104128
0.98880021
0.96942269
0.95525621
0.9534891
0.96734429
0.99499184
1.0266331
1.0169198
1.0106467
0.99396433
0.97882965
0.97230974
0.97844184
0.99476787
1.0076782
1.0067181
0.99384951
0.98099203
0.97890156
0.98952209
1.0061003
1.0194783
1.0206113
1.0074232
0.98445055
0.95911432
0.94225413
0.94244905
0.96234013
0.98995369
0.98994262
0.99682249
0.99821431
0.99237762
0.9829892
0.97800824
0.98404525
0.99942454
1.0150776
1.0209465
1.0139412
0.99672307
0.97909764
0.96928092
0.96889721
0.9781308
0.99343793
1.0080836
1.0174371
1.0166484
1.0040361
0.98208988
0.96192251
0.97902351
0.98478799
0.99643514
1.0069245
1.0108412
1.0067657
0.99780455
0.99129823
0.9911742
0.99643327
1.002824
1.0048601
1.0002535
0.98992454
0.97885616
0.97163845
0.97101195
0.97891693
0.992802
1.0072178
1.014759
1.0099093
0.99404969
1.0005381
0.99501628
0.9954114
1.00143
1.0085321
1.0118069
1.0082232
0.99790636
0.98595496
0.97851721
0.97785057
0.98442689
0.99429172
1.0034666
1.0084375
1.0071554
1.0006
0.99034849
0.98045731
0.9753133
0.97666887
0.98330471
0.98974637
1.0118038
1.0068608
0.99749298
0.99005903
0.98729012
0.98964648
0.99410634
0.99767516
0.99829634
0.99576574
0.99259312
0.98997811
0.98987659
0.99252968
0.99719437
1.0030452
1.0068875
1.0057008
0.99790804
0.98533533
0.9748925
0.97212074
0.97791565
0.99746293
1.0001206
0.9992635
0.99532692
0.99080635
0.9878847
0.98866351
0.99290672
0.99908816
1.0053025
1.0094918
1.0101855
1.0063533
0.9982669
0.98923313
0.98259498
0.98122704
0.98550436
0.99152545
0.99520553
0.99397636
0.99115043
0.9901893
0.99039841
0.99308866
0.99798966
1.0029546
1.0062951
1.0071684
1.0055585
1.0021696
0.99856568
0.99623856
0.9958826
0.99764618
1.0000449
1.0010977
0.99833574
0.99229991
0.98623092
0.98343862
0.9862318
0.99219691
0.99729507
0.9981276
0.99514058
1.0033865
1.0006127
0.99942439
0.9999568
1.0015309
1.0034878
1.0048182
1.0045024
1.0019211
0.99725963
0.99196138
0.98787703
0.98724165
0.99045611
0.99629206
1.0019339
1.0045337
1.0036701
1.0006024
0.99753162
0.99504712
0.9918987
0.98723038
1.0056916
1.005457
1.0034129
1.000142
0.99666552
0.99385062
0.99262505
0.99377619
0.99693154
1.0008296
1.003638
1.0040056
1.0017344
0.99848117
0.99692335
0.99808842
1.0005144
1.001714
0.99956754
0.99493003
0.99013056
0.98743148
0.98649989
0.99728792
0.99874035
1.0006292
1.0026779
1.003854
1.0035929
1.0018157
0.9993281
0.99781094
0.9987312
1.0016727
1.0054083
1.0073851
1.0062139
1.0021898
0.99751649
0.9946598
0.99362384
0.99318668
0.99173972
0.98978971
0.98936307
0.99127465
1.0023065
1.0009354
0.99965184
0.99969016
1.0012827
1.0041498
1.0065343
1.0071707
1.0052941
1.0014922
0.99800724
0.99638062
0.99676903
0.99817304
0.99859629
0.99781326
0.99677864
0.99673124
0.99815487
0.99955656
0.99998878
0.99932334
0.99876794
1.0058568
1.0059778
1.0042613
1.0012719
0.99825253
0.99684344
0.99763787
1.000088
1.0024261
1.0032222
1.002383
1.0004172
0.99937992
0.99973309
1.0010268
1.0023518
1.0023836
1.0020583
1.0014775
1.0013152
1.0006836
0.99915081
0.99690497
0.99755637
0.99967497
1.0026153
1.0046805
1.0048636
1.0033636
1.0014863
1.0006052
1.0012094
1.0024984
1.0037571
1.0037753
1.0034818
1.0028777
1.0028958
1.0030602
1.0028249
1.0018561
1.0003667
0.99917515
0.99829772
0.9976682
0.9966899
1.0010193
1.0002952
1.0012424
1.0031596
1.0050867
1.0059783
1.0054433
1.0040506
1.0027092
1.0021624
1.0022642
1.0024523
1.0027523
1.0021426
1.0020591
1.001729
1.001838
1.0014603
1.0010574
1.0005042
1.0003704
1.0004938
1.0007754
1.0079396
1.0065695
1.0044834
1.0026985
1.0016305
1.0010019
1.0008983
1.0010341
1.0013056
1.0019137
1.0026374
1.0032937
1.0039677
1.0036987
1.0035315
1.0030491
1.0030573
1.0028076
1.0028727
1.0026495
1.0024064
1.0018868
1.0014397
1.0029655
1.0034235
1.0030965
1.0026075
1.002043
1.0015975
1.0019325
1.002877
1.003881
1.0047773
1.0051998
1.0050682
1.0045869
1.0038169
1.0032467
1.002608
1.0026682
1.0027239
1.0031048
1.0032156
1.0033384
1.003037
1.0024477
1.0023827
1.0025233
1.0034083
1.0044931
1.004993
1.0052178
1.0054197
1.0054941
1.0053852
1.0049617
1.0040706
1.0028811
1.0018182
1.001393
1.0018527
1.0026531
1.0038693
1.0047111
1.0048148
1.0042715
1.0036022
1.0030625
1.0028142
1.0055962
1.004969
1.0052135
1.0053193
1.0048905
1.0045592
1.0036151
1.0025931
1.0024444
1.0025759
1.0024528
1.0025763
1.0030626
1.0036065
1.0045978
1.0053925
1.0059626
1.005869
1.0050117
1.0037129
1.0025583
1.002116
1.0023565
1.004936
1.0045314
1.0044425
1.0042591
1.0043372
1.0046317
1.0041126
1.0036833
1.0041507
1.0048306
1.005317
1.0058255
1.005882
1.0056956
1.0054227
1.0050035
1.0044091
1.0037795
1.0032356
1.0027381
1.0025144
1.0027762
1.0033728
1.0063485
1.0060763
1.0052588
1.0046522
1.0053723
1.0055538
1.0049704
1.005073
1.0051308
1.0047734
1.0048982
1.0050836
1.0046125
1.0039696
1.0034165
1.003225
1.0029563
1.0029424
1.0033688
1.0037648
1.0041661
1.0043075
1.0045406
1.006263
1.0060673
1.0049928
1.0048398
1.0053793
1.0051273
1.0051619
1.0058534
1.0052946
1.0043659
1.0047644
1.0050378
1.0045383
1.004167
1.003841
1.0044014
1.0048036
1.0048118
1.0051071
1.0049658
1.0047674
1.0040144
1.0034739
1.0058041
1.0058894
1.0053864
1.0054985
1.005411
1.0050582
1.0057135
1.0064404
1.0055817
1.0046676
1.0053014
1.00563
1.0050041
1.0045747
1.004347
1.005033
1.0051641
1.0047818
1.0048295
1.0042146
1.0034793
1.0028491
1.0027513
1.0056765
1.005893
1.0059501
1.0061448
1.0056188
1.0052937
1.0061204
1.006655
1.0056854
1.0046833
1.0053364
1.0058015
1.0051718
1.0047572
1.0046238
1.0051417
1.0051458
1.0048555
1.0049571
1.0042165
1.0035168
1.0034066
1.0038618
1.005745
1.0061156
1.0068063
1.0066845
1.00579
1.0058959
1.0066532
1.0064715
1.0053006
1.0045137
1.0054592
1.0061739
1.0056264
1.0053614
1.0052415
1.0054951
1.0055961
1.0051576
1.0052599
1.0049158
1.0039789
1.0036489
1.0034345
1.0060792
1.006593
1.0072286
1.0067817
1.0059465
1.0062834
1.0070585
1.006676
1.005419
1.0047706
1.0056584
1.0063223
1.006038
1.0059414
1.0055746
1.0052479
1.0046031
1.0040712
1.0044864
1.0046941
1.0047907
1.0049161
1.0045609
1.0069245
1.0074586
1.0076099
1.0066462
1.0056489
1.0061582
1.0073811
1.0071915
1.0059002
1.0052294
1.0056009
1.0058335
1.0058421
1.0064698
1.0066303
1.0061725
1.0054148
1.0045886
1.004261
1.0043704
1.0050876
1.0055363
1.0045488
1.0075892
1.0085961
1.0081334
1.0063368
1.0052698
1.0060099
1.0076896
1.0082522
1.0072539
1.0067974
1.0068249
1.0056115
1.0051198
1.0060155
1.0062775
1.0063201
1.0056061
1.0047476
1.0047467
1.0046003
1.0052062
1.0058496
1.0055332
1.0077886
1.0090043
1.0088378
1.0070115
1.0057616
1.0063259
1.007382
1.0078978
1.007702
1.0073701
1.0071875
1.0064328
1.0059245
1.006108
1.006258
1.0068854
1.0064639
1.0055814
1.0050678
1.0040736
1.0049592
1.0053061
1.0046957
1.0066414
1.0083337
1.0093477
1.0082248
1.0072514
1.007868
1.0083478
1.0081601
1.0080463
1.0075614
1.007013
1.0067629
1.0061799
1.0058094
1.0058158
1.0062513
1.0063374
1.006062
1.0058211
1.0047479
1.0052523
1.0056906
1.004709
1.0070338
1.0083265
1.009623
1.0089324
1.0079272
1.0084467
1.0086695
1.0073684
1.0065569
1.0069267
1.0072548
1.0072988
1.0071998
1.0073157
1.0071701
1.0065485
1.0061592
1.0057487
1.0054373
1.0048068
1.0051991
1.0054129
1.0042509
1.0071715
1.0080577
1.0093194
1.0090368
1.0080067
1.0081894
1.0087126
1.0077999
1.0066906
1.0066996
1.0072686
1.0075777
1.007605
1.0076462
1.0070189
1.0063195
1.0063519
1.0054759
1.0046781
1.0047368
1.0054743
1.0057053
1.0046493
1.008048
1.0082615
1.0084231
1.0078072
1.0067865
1.0069277
1.0078396
1.00758
1.0071149
1.0075469
1.0079678
1.0077613
1.0070217
1.0067669
1.00622
1.0053677
1.0055697
1.005591
1.0057412
1.0055844
1.0052864
1.0053539
1.0041587
1.0069324
1.0069439
1.0069664
1.0066659
1.006339
1.0064121
1.0067189
1.0068244
1.0072248
1.0075743
1.0075329
1.0074023
1.0063746
1.0056058
1.0053878
1.0047352
1.0051313
1.0057295
1.005735
1.005463
1.0049931
1.0046962
1.0033852
1.0046571
1.0049385
1.0056773
1.0061291
1.0064506
1.0066254
1.0065806
1.0063007
1.006357
1.0062051
1.0053659
1.005035
1.0049729
1.004466
1.0043166
1.0047486
1.0056506
1.0056561
1.0048315
1.0041146
1.0034689
1.0029325
1.002169
1.0040795
1.0034939
1.0041688
1.0046448
1.0048079
1.0044862
1.0041136
1.0039215
1.0040277
1.0039891
1.0038265
1.0038682
1.0038394
1.0036881
1.0038409
1.0043132
1.0044565
1.0033888
1.0021714
1.0020959
1.0017902
1.0012272
1.0017804
1.0016257
1.0021005
1.0024565
1.0026672
1.0026417
1.0022685
1.0018335
1.0013917
1.0015835
1.0022168
1.002658
1.0029383
1.002744
1.0021772
1.001737
1.0012797
1.0007419
1.0004317
1.0003652
1.0008819
1.0012444
1.0010765
1.0010644
1.0001397
0.99985786
1.0007032
1.0010955
1.0010528
1.0009087
1.0007988
1.0004056
0.99996084
0.99986851
1.0001517
1.0003293
1.0000342
0.99973736
0.99966903
0.99909995
0.99844085
0.99846612
0.99924541
0.99943647
0.99907983
0.99865785
0.99795483
0.99815142
0.99751311
0.99757097
0.9979497
0.9981542
0.99812235
0.99835603
0.99855417
0.99835253
0.99792469
0.9977256
0.99763907
0.99753757
0.99737941
0.99699933
0.99658743
0.99662277
0.99646308
0.99641107
0.9962068
0.99600646
0.99560823
0.99506846
0.99697351
0.99627902
0.99564989
0.99559601
0.99571413
0.99573107
0.99595422
0.99639144
0.99646988
0.99589538
0.99523191
0.99490349
0.99498886
0.99469051
0.99380582
0.99367313
0.99452282
0.99419527
0.99306703
0.99275124
0.99320355
0.9926498
0.99206045
0.99592886
0.99579686
0.99536188
0.99505887
0.99495144
0.99481042
0.99479741
0.99485108
0.99465241
0.99403508
0.99324148
0.99268033
0.99264305
0.99235834
0.99157473
0.99154101
0.99222848
0.99164693
0.99010717
0.98983419
0.9903658
0.98973258
0.98918058
0.99524997
0.99520353
0.99528962
0.9950721
0.99482467
0.9945414
0.99423051
0.99379223
0.99326921
0.99272521
0.99212322
0.99152139
0.99113128
0.99071065
0.99016581
0.98990257
0.98979122
0.98900913
0.98786437
0.98753711
0.98757685
0.98706438
0.98669997
0.99554022
0.99540876
0.99550638
0.99537598
0.99508503
0.99470147
0.99416784
0.99346458
0.9928247
0.9923109
0.99185747
0.99127605
0.99064312
0.98994723
0.98924441
0.98858625
0.98786084
0.98704744
0.98642624
0.98599184
0.98558084
0.98502161
0.98460979
0.99761576
0.99723208
0.997197
0.9968167
0.9963452
0.99572926
0.99494683
0.99421602
0.99357237
0.9929854
0.9924173
0.9918005
0.99103023
0.99024376
0.98938891
0.98840574
0.98726457
0.98630105
0.98584198
0.98537484
0.98474045
0.98434671
0.98339151
1.0004146
1.0000236
0.99970194
0.99911323
0.99856288
0.99785628
0.99704731
0.99636799
0.99562146
0.99487342
0.99403006
0.99308554
0.99216782
0.99122387
0.99035266
0.98917477
0.98812902
0.98731905
0.98648268
0.9858214
0.98486197
0.98400466
0.98293775
1.0031462
1.0029792
1.002438
1.0019465
1.0015231
1.0008808
1.0002175
0.99943052
0.9985927
0.99786991
0.99682479
0.99561437
0.99450915
0.99333223
0.99228916
0.99130076
0.99024224
0.98922486
0.98827904
0.98717307
0.98603741
0.9849804
0.98371017
1.0049303
1.0048041
1.0039063
1.0040903
1.0042641
1.003832
1.0033709
1.0024407
1.0013084
1.0007113
1.0001602
0.99898682
0.99786724
0.99672889
0.9955321
0.99478871
0.99373498
0.99225404
0.99117401
0.98992145
0.98868924
0.98739894
0.98623832
1.0053634
1.0046256
1.0041911
1.0046947
1.0047985
1.0048436
1.0048814
1.0040112
1.0034546
1.0028543
1.0028381
1.002268
1.0009423
0.9999884
0.99886082
0.99816775
0.9973915
0.99596341
0.9947232
0.99356242
0.99254126
0.99129498
0.9903205
1.0043063
1.0034936
1.0041198
1.0046557
1.0041877
1.0046198
1.0048743
1.0040243
1.004245
1.0042872
1.0038669
1.0040283
1.0027408
1.001932
1.0015003
1.0010893
1.000107
0.99943349
0.99809755
0.99684784
0.99603321
0.9952819
0.9945132
1.002974
1.0026142
1.0036311
1.0036944
1.0025644
1.0033163
1.0036858
1.0031608
1.0038283
1.0040101
1.0031131
1.003583
1.0031242
1.0026246
1.0025493
1.0023294
1.0011893
1.0017745
1.0001042
0.99923764
0.99817568
0.99810425
0.9972809
1.0022729
1.0022372
1.002578
1.0024376
1.0018872
1.0023568
1.0024515
1.0020506
1.0029839
1.0028036
1.0019636
1.0022844
1.0018311
1.0022688
1.0022429
1.0021836
1.0007932
1.001913
1.000729
1.0002289
0.99927015
1.0000942
0.99984925
1.0019191
1.0013375
1.0009957
1.0014467
1.0015886
1.0016856
1.0019329
1.0017406
1.0017524
1.0016849
1.001403
1.0013199
1.0014299
1.0017451
1.002262
1.0013745
1.0002877
1.0005978
1.0011606
1.0009919
1.0003019
0.99987195
1.0000732
1.0008896
1.000522
1.0005384
1.0009822
1.0009821
1.0012007
1.0012842
1.000851
1.0008178
1.0008079
1.0011218
1.0010274
1.0009323
1.0011263
1.0012892
1.0011685
1.0006596
1.0004309
1.0009174
1.0010112
1.0009033
1.0002362
1.0001948
1.0000548
1.0001063
1.0001355
1.0002138
1.0001448
1.0001318
1.0003937
1.0003097
1.0002427
1.0001976
1.0000424
1.0002109
1.0004611
1.0005697
1.0003768
1.0000266
1.0000808
1.0001043
1.000303
1.0004322
1.0005246
1.0000196
0.99968352
0.99981835
0.99958026
0.99935035
0.99938501
0.9996441
0.9998689
0.99982562
0.99968533
0.99969787
0.99960253
0.99943967
0.99957876
1.0000664
1.0001526
0.99985987
0.99947934
0.99918774
0.99955634
0.99999035
1.000015
0.9997069
0.99937233
0.99932919
0.99991228
0.99907121
0.99833813
0.99840598
0.99925126
0.99997677
0.99967367
0.99897736
0.99869839
0.9987845
0.99926677
0.99985152
0.99959136
0.99886746
0.99892504
0.99930816
0.99955989
0.99934592
0.99909028
0.99923167
0.99925875
0.99939374
0.99921169
0.99906572
0.99869921
0.99833757
0.9984499
0.99892287
0.99882618
0.99832356
0.99842065
0.99946748
0.99985801
0.99844899
0.99729655
0.9982583
1.0000338
0.99997646
0.99835233
0.99766089
0.99855504
0.99929388
0.99915974
0.99894451
0.99868271
0.99839092
0.99953556
0.99821655
0.99799927
0.9984112
0.99855778
0.99874273
0.99948698
0.99921129
0.99738604
0.99714346
0.9991309
0.99986229
0.9983988
0.99771694
0.99851397
0.99878156
0.99797394
0.99813547
0.99907457
0.99853246
0.99752123
0.99837098
0.99993284
0.99949723
0.99777883
0.99809514
1.0000506
1.0003411
0.99809961
0.99692659
0.99841637
0.99949175
0.99855764
0.99828193
0.99921037
0.99852317
0.99678494
0.99751415
0.99995651
0.99977501
0.99666332
0.99582955
0.99871777
1.0002592
0.99806218
0.99563488
1.0003116
0.99846927
0.9975248
0.99912622
1.0006064
0.99919711
0.99695855
0.99762748
1.0000938
1.0001532
0.99766867
0.99675353
0.9985267
0.99942595
0.99796973
0.99712705
0.99813626