/*--------------------------------*- C++ -*----------------------------------*\
| =========                 |                                                 |
| \\      /  F ield         | OpenFOAM: The Open Source CFD Toolbox           |
|  \\    /   O peration     | Version:  2406                                  |
|   \\  /    A nd           | Website:  www.openfoam.com                      |
|    \\/     M anipulation  |                                                 |
\*---------------------------------------------------------------------------*/
FoamFile
{
    version     2.0;
    format      ascii;
    arch        "LSB;label=32;scalar=64";
    class       volScalarField;
    location    "95";
    object      rho_0;
}
// * * * * * * * * * * * * * * * * * * * * * * * * * * * * * * * * * * * * * //

dimensions      [1 -3 0 0 0 0 0];

internalField   nonuniform List<scalar> 
20580
(
1.0001565
1.0043066
1.000497
1.005259
1.0014907
1.00376
1.0038883
1.0031032
1.0029135
1.0047824
1.0045969
1.0038301
1.0045383
1.0054075
1.0051702
1.0040561
1.0056945
1.0074238
1.0018845
1.0043211
1.0090705
1.0048386
1.0023299
1.0070107
1.0131504
1.0051177
0.99818174
1.0045832
1.0012519
0.99451219
1.0129401
1.0002872
1.004468
1.0005333
1.0054402
1.0011443
1.003949
1.0037214
1.0029202
1.0030597
1.0050095
1.0045071
1.0034714
1.0047973
1.0058196
1.0047118
1.0041254
1.0076807
1.0060663
1.0005362
1.006604
1.0090644
1.0026209
1.0033156
1.0093502
1.0123904
1.0003157
0.99146591
1.0036857
1.0110237
0.99981072
0.99871215
1.0008886
1.0041745
1.001584
1.0044129
1.001708
1.0037392
1.0032866
1.0031798
1.0036314
1.0046209
1.004406
1.0035154
1.0049594
1.0059226
1.0044615
1.0040203
1.0087258
1.0049212
1.0002537
1.0084032
1.0082507
1.0003721
1.0039488
1.009639
1.0111669
0.99964491
0.98931563
1.002625
1.0197079
1.008632
0.98874346
1.0017493
1.0034716
1.0031504
1.0027034
1.0028913
1.0033906
1.0028641
1.0035768
1.0042645
1.0040204
1.0041157
1.003913
1.0050434
1.0056332
1.0044355
1.0039389
1.0084851
1.0039494
1.0012005
1.0093488
1.006742
0.99912574
1.0048965
1.007987
1.0080496
1.0025527
0.99335115
1.0019031
1.0224313
1.0195775
0.99115106
1.0027273
1.0024835
1.0043198
1.0010133
1.0040801
1.0031161
1.0028372
1.0038448
1.0044291
1.0036149
1.0039192
1.0042706
1.0050726
1.0048832
1.0045561
1.004225
1.0072364
1.0029961
1.0030931
1.009568
1.0046194
0.99931584
1.006714
1.00604
1.0034346
1.005745
1.0023575
1.0031099
1.0164904
1.0241262
1.0038468
1.003373
1.0017668
1.0044235
1.0001978
1.0046562
1.0028259
1.0033223
1.0040941
1.0040856
1.0033996
1.0038681
1.0046538
1.0050117
1.0041319
1.0046389
1.0048274
1.0054279
1.0022756
1.0055959
1.0090347
1.0023584
1.000406
1.0094766
1.0051329
0.99842111
1.0066884
1.0123438
1.0061364
1.0057104
1.0156682
1.0157093
1.00327
1.0017159
1.0034184
1.0007151
1.00436
1.0026692
1.0040598
1.0041927
1.0036477
1.0035294
1.0036724
1.0049769
1.0049421
1.003675
1.0047925
1.0056594
1.0037519
1.002037
1.0078395
1.0079313
1.0007181
1.0018442
1.0120485
1.0060815
0.99499703
1.0048513
1.0188162
1.0106838
0.99652104
0.99834684
1.0142443
1.0024538
1.0023528
1.0019238
1.0021081
1.003398
1.0027871
1.0045921
1.0040275
1.0034378
1.0038752
1.0035267
1.0050775
1.0049229
1.0035807
1.0049381
1.006495
1.0029385
1.002478
1.0090983
1.0063809
1.0000263
1.0034937
1.0130036
1.0078067
0.99511807
1.0018715
1.0187392
1.0148082
0.9938459
0.98443845
1.0013828
1.0012973
1.0033528
1.0007997
1.0036753
1.002218
1.0031093
1.0045377
1.0037707
1.0036632
1.0039546
1.0036173
1.0050401
1.0046596
1.003765
1.0048939
1.0067856
1.0030115
1.0035067
1.0094074
1.0046287
1.0003433
1.0052923
1.0113213
1.0082904
0.99877019
1.000448
1.0128625
1.0157654
0.99774062
0.98300294
0.98909426
1.0005283
1.0044579
1.000807
1.0048497
1.0014842
1.0035613
1.0038712
1.0035789
1.0039997
1.0035997
1.0039176
1.0048202
1.0042777
1.0043895
1.0047891
1.0063981
1.0035742
1.0049948
1.0087644
1.0028018
1.001964
1.0071997
1.0073754
1.0063156
1.0041963
1.0019974
1.005221
1.0101783
1.0051497
0.99301554
0.98969827
1.0003192
1.0052884
1.002026
1.0050676
1.0016125
1.0039844
1.0030205
1.0035978
1.0039685
1.0032185
1.0043161
1.0045083
1.0039791
1.0052564
1.0048473
1.0055449
1.0041585
1.0065826
1.0073796
1.001041
1.0040977
1.00956
1.003116
1.0017235
1.0086949
1.0069068
1.0000329
0.99976623
1.0085722
1.0090709
1.002016
1.0007321
1.0050404
1.0035648
1.0040937
1.0023468
1.0041123
1.0025677
1.0038381
1.0036066
1.0033268
1.0045762
1.004167
1.0038978
1.005915
1.0049006
1.0043917
1.0045286
1.0077763
1.005773
0.99998516
1.0057436
1.0119534
1.0005224
0.99647323
1.0103057
1.0132928
0.999505
0.9914985
1.0045882
1.0201722
1.019037
1.0015658
1.0038371
1.004329
1.002612
1.0033499
1.0037552
1.002751
1.0039312
1.0032149
1.0038321
1.0047613
1.0039558
1.0040441
1.0061776
1.0049114
1.003351
1.0047432
1.0081779
1.0044467
1.0002192
1.0068416
1.0132191
1.0003297
0.9939119
1.0088582
1.0175175
1.0030746
0.99059151
0.99691172
1.0196519
1.0284063
1.0027063
1.0024319
1.0038242
1.0013314
1.0041908
1.0030457
1.0033558
1.0036629
1.0029711
1.0042633
1.0048014
1.0039528
1.0042629
1.0060108
1.0050179
1.0028901
1.0047799
1.007643
1.0035253
1.0014811
1.0073584
1.0124695
1.0018621
0.99526314
1.0062055
1.0163021
1.0078543
0.99531965
0.99499199
1.0091477
1.0238896
1.0035968
1.0016129
1.0025793
1.0007273
1.0044041
1.0024506
1.0041901
1.0033049
1.0031359
1.0044092
1.0044314
1.0039558
1.0046778
1.0054447
1.0051558
1.0032085
1.0048908
1.0065795
1.002957
1.0035732
1.0071549
1.0094234
1.0037299
0.99998427
1.0051464
1.0096655
1.0093942
1.0026313
0.99996048
1.0008098
1.0085609
1.0037488
1.0016649
1.0015458
1.0012127
1.0040771
1.0024018
1.0048684
1.0032466
1.0038182
1.0042529
1.0039284
1.0041163
1.0051926
1.0044912
1.0050497
1.0039799
1.0052836
1.0053499
1.0025795
1.0065345
1.0069732
1.0043969
1.0042068
1.0066789
1.0065587
1.0017653
1.0040152
1.0095397
1.0082335
1.0007879
0.9936943
1.0026309
1.0026818
1.0013202
1.0026175
1.0034143
1.0029478
1.0048241
1.0035967
1.004472
1.0039129
1.0035775
1.004439
1.0056922
1.0036816
1.004783
1.0048821
1.0058548
1.0042635
1.0023898
1.0090884
1.0074322
1.0000276
1.002648
1.0124109
1.0095533
0.99751612
0.99560959
1.0111715
1.0173253
1.0067244
0.99047498
1.0010754
1.0041309
1.002022
1.0041237
1.0024585
1.0037487
1.0040077
1.0042507
1.0046002
1.0035596
1.0033857
1.0047484
1.0059378
1.0033965
1.0045466
1.0056904
1.0063392
1.0037505
1.002684
1.010184
1.0081112
0.99784695
1.0005662
1.0144705
1.0129916
0.99705004
0.99112661
1.0068616
1.0214029
1.0143146
0.99560765
1.0001221
1.0051636
1.003238
1.0050538
1.0018304
1.0044043
1.0030351
1.0048344
1.0044117
1.0033036
1.0033335
1.004935
1.0057541
1.0036974
1.0043588
1.0059862
1.0064737
1.0038418
1.0034705
1.0096549
1.0083478
0.99865745
0.99961606
1.0125854
1.0141778
0.99902649
0.99300826
1.0014923
1.0169937
1.0174589
1.0042356
1.0000551
1.0052696
1.0040874
1.004969
1.0019843
1.0044287
1.0024667
1.0048619
1.0041829
1.0033833
1.0035673
1.0047759
1.0053166
1.0043271
1.0042994
1.0056135
1.0060541
1.0042124
1.0045665
1.0077538
1.0076561
1.0013351
1.0014352
1.0086022
1.0105118
1.0024527
0.99847888
1.0015371
1.0074193
1.0117692
1.0085492
1.0009582
1.0043431
1.0036704
1.0038265
1.0025402
1.0038324
1.0028293
1.0042614
1.003821
1.0036649
1.0040533
1.0046162
1.0047383
1.0050424
1.0045489
1.0050282
1.0052123
1.0046333
1.0060903
1.005466
1.0049758
1.0052861
1.0049093
1.0056814
1.003591
1.0045227
1.0056073
1.006056
1.0006332
1.000532
1.0058711
1.002458
1.0028011
1.0023837
1.0021902
1.0035869
1.0030936
1.0041583
1.0036409
1.0035531
1.0040232
1.0047751
1.0046548
1.0041702
1.0058144
1.0052784
1.0048379
1.0041761
1.0048749
1.0078776
1.00379
1.002181
1.0082198
1.009775
1.0049649
0.99820417
1.0029011
1.0130395
1.0128209
1.0002625
0.99202818
0.99984472
1.0037633
1.0024589
1.0015529
1.0017348
1.0050909
1.0031319
1.0056521
1.0037246
1.003579
1.0045538
1.0054631
1.0051307
1.0040066
1.0065268
1.0061067
1.0051473
1.003793
1.0047311
1.009562
1.0036979
1.0004863
1.0084823
1.0140454
1.0068449
0.99647057
0.99941947
1.0157799
1.0197419
1.005009
0.99029534
0.99494347
1.013677
1.0135812
1.0093172
1.0014837
0.99158639
0.98499764
0.98813632
0.99877046
1.0110525
1.0183302
1.0151501
1.0041982
0.99793147
1.0041771
1.0175081
1.0247551
1.0179877
0.99709722
0.97741871
0.97473248
0.99169986
1.019121
1.0400082
1.0180922
1.0121318
1.0068459
1.0046485
1.006458
1.0101791
1.0119051
1.0094728
1.0006143
0.98914829
0.98143858
0.98309059
0.99643433
1.0189272
1.0352031
1.0336109
1.0151924
0.99376281
0.98428931
0.99095088
1.0074575
1.0192514
1.018825
0.98800674
0.98880398
0.99763636
1.013394
1.0286437
1.0365871
1.0310606
1.0156372
0.99712308
0.9856648
0.98628327
0.99514816
1.0056902
1.0123014
1.0108601
0.99928587
0.98937059
0.99285035
1.0109923
1.0332479
1.0415317
1.0275051
0.99700098
0.98180577
0.99002796
1.0005064
1.0097142
1.0159848
1.0143991
1.0047638
0.99729156
0.99964592
1.0138909
1.0301431
1.0378756
1.0302202
1.006813
0.9801212
0.96395698
0.96696682
0.98665995
1.0175208
1.0453213
1.0506709
1.0291295
0.99768648
1.0255774
1.024514
1.0141687
0.99870111
0.98414759
0.97363628
0.96989953
0.9785618
0.99970239
1.0271442
1.0497507
1.0526345
1.0321456
1.0051473
0.98568407
0.98405699
0.99303743
1.0060185
1.0156834
1.0163132
1.0050054
0.98911521
0.98694834
1.049976
1.0352116
1.0154405
0.99802367
0.98707665
0.98590754
0.99231049
1.0016652
1.0082863
1.0114573
1.0099123
1.0026088
0.99224772
0.98914933
1.0033269
1.0313983
1.0566992
1.0594696
1.0355414
0.99699728
0.96295715
0.950846
0.96012188
1.0023909
0.99684915
0.99713264
1.0060876
1.0247365
1.0459141
1.0570808
1.0495057
1.0252454
0.99557185
0.97294294
0.95768934
0.95491002
0.96967296
1.0010605
1.0443764
1.0825459
1.0840258
1.0509295
1.0069253
0.97624365
0.97040465
0.97513578
0.96443199
0.96603316
0.98052049
1.0071644
1.0425263
1.0720177
1.0801845
1.0603656
1.0294599
1.0006409
0.98217394
0.98098445
0.9853024
0.99538614
1.0064804
1.0189433
1.0299592
1.0306489
1.0174158
1.007233
1.0095283
1.0266462
1.0463074
0.9873055
0.99890194
1.0095412
1.0159632
1.0165895
1.0158676
1.0142702
1.010178
1.0075712
1.0084034
1.0217212
1.0481638
1.0693246
1.0688292
1.0418691
1.0041927
0.97742658
0.96351742
0.95876835
0.96974175
1.0009591
1.0516075
1.1121524
1.078361
1.0631296
1.0341916
1.004536
0.9821217
0.97172804
0.96513087
0.95904721
0.96437352
0.9888101
1.0362385
1.0972551
1.140381
1.1280458
1.0752026
1.015351
0.97476554
0.95778587
0.95358637
0.95832566
0.98269706
1.0263785
1.0875987
1.1240353
1.088601
1.044357
1.0068703
0.98221733
0.97202079
0.9712901
0.97369455
0.98146452
0.99804127
1.0260615
1.0663587
1.1072162
1.1105441
1.0852753
1.0448903
1.0096082
0.9990273
1.0058652
1.0104204
1.0147937
1.0193349
1.0312831
1.062862
1.0489099
1.0385427
1.0297724
1.0249582
1.0280601
1.0375872
1.044602
1.0472841
1.0376042
1.0251162
1.0193823
1.0236179
1.0318724
1.0335287
1.0348961
1.0421034
1.0628776
1.0941885
1.1073154
1.0887942
1.0465385
1.0084956
0.99233404
0.99119889
0.99833614
1.0218936
1.0611056
1.1119323
1.1541691
1.1589675
1.1227542
1.0669274
1.0173904
0.98865511
0.98238408
0.98387582
0.98476923
0.99449589
1.0234329
1.0841241
1.1615137
1.2142344
1.1811383
1.0954937
1.0158373
0.9635111
0.96383985
0.97357768
1.0048289
1.0691265
1.1606106
1.2451148
1.257495
1.1849297
1.0897154
1.0156553
0.97961548
0.97506929
0.98659021
0.98474355
0.9869938
1.0066161
1.0669739
1.1669619
1.259268
1.2483283
1.149742
1.0457888
0.97222064
0.97520925
0.98421652
1.0151826
1.0792905
1.1721179
1.2637956
1.2871066
1.2167946
1.1160652
1.0379357
1.0019944
0.99971581
1.0126684
1.0127673
1.0112977
1.0201282
1.06109
1.1440463
1.2409336
1.2657364
1.1921612
1.0894939
1.0092287
1.0117382
1.0163456
1.0430265
1.0968075
1.1726359
1.2458591
1.2695953
1.2160206
1.1363226
1.0712431
1.0370968
1.0405527
1.0546591
1.0574572
1.0530698
1.0495468
1.0741958
1.132783
1.2120363
1.2500254
1.2019599
1.1208457
1.054869
1.0535523
1.0538068
1.0733439
1.1156941
1.1775107
1.2372657
1.2557504
1.2139602
1.1515843
1.1027528
1.0782486
1.0853286
1.0987864
1.1037023
1.0969081
1.0839133
1.091609
1.1313497
1.1952075
1.2394522
1.2003075
1.1355503
1.0879864
1.0845271
1.0808909
1.0983207
1.1373663
1.1972131
1.2523771
1.2692216
1.2316937
1.1751831
1.130599
1.1105278
1.1202746
1.131581
1.1357638
1.1293842
1.1129178
1.1122958
1.1446026
1.2048204
1.2469434
1.2073708
1.1490941
1.1043532
1.0998709
1.096528
1.1161421
1.1618864
1.2322195
1.297121
1.3167538
1.2750434
1.2119118
1.1610365
1.1379843
1.142695
1.1493818
1.151563
1.1479964
1.1356526
1.1387399
1.1748502
1.2386488
1.2739319
1.2258464
1.1633006
1.1081518
1.1050777
1.1042431
1.1300332
1.1889628
1.2811628
1.3714087
1.3971843
1.3389559
1.2563722
1.1927286
1.1617593
1.1560817
1.1556971
1.1533772
1.1536259
1.1530035
1.1721881
1.2249718
1.2941818
1.3143042
1.252842
1.1779416
1.1087302
1.101558
1.0993022
1.1314134
1.2162072
1.3497915
1.4874499
1.5111222
1.4125202
1.2915806
1.2051951
1.1644885
1.1512467
1.1504676
1.1462256
1.1488952
1.1678783
1.2251849
1.3129131
1.3844861
1.3628508
1.2670225
1.1754494
1.1144367
1.1047466
1.1031301
1.1411809
1.2517722
1.4272123
1.5941658
1.6030476
1.4547924
1.3026766
1.205886
1.163968
1.1499303
1.144306
1.137691
1.1494396
1.2073152
1.3113094
1.4293178
1.4708582
1.3794534
1.2477226
1.1540214
1.1586946
1.1490659
1.1442448
1.1921003
1.3017977
1.4722126
1.6084753
1.5890098
1.4515118
1.316422
1.2251431
1.1832862
1.1611442
1.1507782
1.1528498
1.1944887
1.2902287
1.4220071
1.5125274
1.4740864
1.3380323
1.2092385
1.1375278
1.2776638
1.2492936
1.2290213
1.2517382
1.3249043
1.4301525
1.4959271
1.4831196
1.414736
1.3357472
1.2731154
1.2333839
1.2170576
1.2148368
1.2398388
1.2962505
1.3746345
1.44861
1.4667594
1.3903306
1.280396
1.1939108
1.1468409
1.4813798
1.3881123
1.3002924
1.2580958
1.2757726
1.3225333
1.3580687
1.3624306
1.3604003
1.3554195
1.3583973
1.3640261
1.3641384
1.3533533
1.3453859
1.3409386
1.3426443
1.3458662
1.332305
1.3015414
1.2639735
1.2311566
1.2120482
1.6138078
1.4699767
1.3236345
1.238573
1.231895
1.2632071
1.2900732
1.2980295
1.3301709
1.401114
1.4965368
1.5511411
1.5134124
1.4240678
1.338521
1.2760805
1.2389243
1.228213
1.2333165
1.2655465
1.310152
1.3476947
1.3493973
1.4909023
1.4307956
1.3386824
1.2806267
1.2785477
1.3078294
1.3339782
1.3511809
1.396241
1.4672334
1.5435895
1.5679658
1.4939212
1.3846045
1.2902874
1.2289719
1.2002301
1.1973196
1.2278194
1.3104575
1.4127284
1.4708162
1.4235866
1.3499731
1.3333477
1.3195694
1.3384019
1.3996319
1.4676949
1.4791996
1.4569356
1.4380524
1.4274338
1.4196489
1.4107804
1.3872965
1.3537737
1.3128324
1.2818439
1.2720006
1.2735155
1.3075556
1.3551172
1.3982852
1.4057155
1.3536701
1.3358802
1.312254
1.318082
1.376402
1.4683864
1.5401305
1.5319829
1.4688177
1.3992498
1.3471229
1.3145924
1.3044841
1.3212129
1.3642199
1.4054458
1.4140565
1.387053
1.3434235
1.3085864
1.2877441
1.2782426
1.2704575
1.2736835
1.4096512
1.3686628
1.3536968
1.3760411
1.4153787
1.4464839
1.453132
1.433807
1.3941201
1.3519714
1.3276694
1.3218691
1.3430716
1.3844041
1.4270321
1.4393199
1.4010218
1.33527
1.2709735
1.225872
1.2111149
1.2210129
1.2557096
1.4293137
1.397985
1.3722212
1.366094
1.3656213
1.3679327
1.3807237
1.4010178
1.4234043
1.4305873
1.4130307
1.3843009
1.3583688
1.3426521
1.3397777
1.3421106
1.3398752
1.3259268
1.302532
1.2743364
1.2532547
1.2499112
1.2682922
1.3594486
1.3660336
1.3813673
1.3909957
1.3911345
1.3875525
1.3846978
1.3955772
1.4172154
1.4357971
1.4319466
1.3973599
1.3452573
1.298653
1.274282
1.272949
1.2936209
1.3292093
1.3567611
1.3567464
1.3299815
1.2923748
1.264579
1.3299093
1.3388075
1.3712987
1.4128405
1.4367303
1.4326634
1.4100768
1.3858546
1.3700545
1.3672683
1.3716759
1.3703051
1.3532814
1.3240972
1.2959478
1.2824441
1.2885492
1.3076843
1.3259178
1.331495
1.3259138
1.320626
1.3153013
1.3582319
1.355675
1.3685925
1.3882901
1.4062637
1.4156907
1.4062842
1.3800152
1.3498985
1.3313014
1.3281165
1.3395308
1.3562229
1.3626536
1.3504324
1.325159
1.2978976
1.2775427
1.2643104
1.2660879
1.2892977
1.3296818
1.3721243
1.363007
1.3641263
1.3625931
1.3606194
1.3609526
1.3682557
1.3806007
1.3860759
1.3768594
1.3554577
1.3342677
1.3239779
1.3263167
1.3339517
1.3377878
1.3312485
1.315401
1.2952976
1.2764365
1.2683953
1.2775798
1.3009487
1.3227138
1.3268325
1.3421109
1.3563256
1.3621156
1.3595119
1.3564979
1.3604681
1.3711321
1.3801863
1.3777452
1.3618808
1.3366667
1.312505
1.2963178
1.2895422
1.2930926
1.3053174
1.3216358
1.3369491
1.3441168
1.336131
1.3097107
1.2732611
1.3022334
1.318802
1.3430812
1.364905
1.37612
1.3748608
1.3655096
1.3565733
1.3519627
1.3511571
1.349602
1.3430308
1.3305758
1.3138189
1.2976958
1.2870759
1.2860126
1.2972174
1.3174256
1.3381578
1.3455408
1.3291064
1.2876012
1.3049851
1.3142265
1.3293153
1.3480528
1.3638793
1.3711141
1.3676986
1.3555889
1.3406003
1.3287321
1.3222637
1.3216943
1.3239302
1.3261485
1.3255291
1.3211938
1.3152691
1.3096366
1.3071566
1.3082668
1.308034
1.3017537
1.2813836
1.2943142
1.3085375
1.3166616
1.3236141
1.3312917
1.3395033
1.3454782
1.3479433
1.3458056
1.3394896
1.3319126
1.3241164
1.3183597
1.3154037
1.3156293
1.3187825
1.322724
1.3248607
1.3232346
1.315901
1.3041252
1.2906699
1.2740957
1.2554638
1.2813884
1.3007984
1.3126564
1.3200668
1.3250306
1.3297366
1.334761
1.3397752
1.3433294
1.3438715
1.3403962
1.3321395
1.3198631
1.3075645
1.2993623
1.2986016
1.3053298
1.315744
1.3234017
1.3213859
1.3112262
1.2929263
1.2226626
1.2501217
1.2786214
1.3019316
1.3189049
1.3294699
1.3339308
1.3336357
1.3311162
1.3283526
1.3261276
1.3250817
1.323933
1.321038
1.3147157
1.3066624
1.3010314
1.3005974
1.30752
1.3179557
1.3242339
1.3216922
1.3082271
1.2113974
1.2314266
1.2559672
1.2784492
1.2967404
1.3107366
1.3201162
1.3245281
1.324311
1.3206184
1.3152122
1.3100016
1.3074231
1.3080191
1.3108545
1.3138414
1.3154116
1.3158594
1.3162787
1.3181908
1.3196143
1.3166525
1.3084285
1.1957558
1.2132875
1.2348753
1.2549653
1.2708916
1.2828885
1.2922464
1.3002881
1.307391
1.3132164
1.3167434
1.3170746
1.3142772
1.3102826
1.3076439
1.3074349
1.3089545
1.310551
1.3103905
1.3093201
1.3087836
1.3091047
1.3080843
1.1738057
1.1888095
1.209941
1.2333211
1.2540367
1.2699647
1.2808192
1.2876945
1.2926813
1.2977657
1.3032555
1.3083774
1.3109339
1.3099465
1.305981
1.3013444
1.298492
1.2977962
1.2982412
1.298655
1.2996012
1.3025451
1.3080976
1.1661216
1.1759153
1.1908084
1.2096409
1.2295139
1.2483661
1.2638843
1.2748568
1.280909
1.2831459
1.2842428
1.2859327
1.2885453
1.2912412
1.292395
1.2921462
1.2915795
1.2920284
1.2940151
1.2964018
1.2984808
1.3002724
1.3046341
1.1609698
1.1699436
1.1815234
1.1943974
1.2074764
1.2208939
1.2343434
1.246954
1.257246
1.264299
1.2685331
1.27076
1.2730829
1.275931
1.2790621
1.2817434
1.2829974
1.2837675
1.2842311
1.2850951
1.2856279
1.2856454
1.2881888
1.1478014
1.1574031
1.1709242
1.1852388
1.1979763
1.2085615
1.2175599
1.2259195
1.2340073
1.2412856
1.247418
1.251602
1.2548339
1.2572331
1.2597731
1.2619907
1.2635774
1.2641913
1.2641208
1.2640828
1.2641351
1.2644176
1.2680202
1.1451528
1.1520312
1.1626529
1.1749363
1.186737
1.1966909
1.2042373
1.2098697
1.2144613
1.2188198
1.2229642
1.2265877
1.2297983
1.2318167
1.2339394
1.2355406
1.2372636
1.238285
1.2390568
1.239388
1.2397936
1.240358
1.2456425
1.1474279
1.1531077
1.1598543
1.1671775
1.1742974
1.1806018
1.1861276
1.1908235
1.1947995
1.1984068
1.2016136
1.2044018
1.2068037
1.2081439
1.20918
1.209685
1.2102787
1.2103534
1.2103546
1.2097454
1.2086539
1.2069482
1.2117603
1.1412213
1.147399
1.1542701
1.1608568
1.166344
1.170733
1.1746665
1.1782252
1.1811484
1.1834477
1.1848852
1.1854355
1.1852171
1.1843167
1.1830486
1.1811918
1.1793677
1.1770422
1.1744269
1.1710368
1.167015
1.1616696
1.1643912
1.1369583
1.1435729
1.1504342
1.1568805
1.1616897
1.16502
1.1672415
1.1684832
1.1688501
1.1682323
1.166433
1.163582
1.1600255
1.1561982
1.1523441
1.1480911
1.1435442
1.1381938
1.1317852
1.1244315
1.1165897
1.1083169
1.1077631
1.1376821
1.1431459
1.1484572
1.1528064
1.1554635
1.1568357
1.1565494
1.1550285
1.1530721
1.1500806
1.1456086
1.1401486
1.1340642
1.1272919
1.1203963
1.1129957
1.1051171
1.0965371
1.0872299
1.0775729
1.068275
1.0599566
1.0575881
1.1368914
1.1407525
1.1446977
1.1475791
1.1492456
1.1495857
1.1475656
1.1438684
1.1390797
1.1328771
1.1253715
1.1170541
1.1078903
1.0982379
1.0884324
1.0785707
1.0687238
1.0590825
1.049787
1.0409176
1.0327655
1.025359
1.0220224
1.1362027
1.1400754
1.1425139
1.1438093
1.1445511
1.1424633
1.1373841
1.1306731
1.1221435
1.112344
1.1024622
1.0922929
1.0815245
1.0707031
1.0602253
1.0504597
1.041078
1.0323192
1.024459
1.0172296
1.0111112
1.0064857
1.0052856
1.1330681
1.1382167
1.1395482
1.1398776
1.138041
1.1324513
1.1246086
1.1155649
1.1045306
1.0929514
1.0823675
1.0716609
1.0606406
1.0501722
1.0402668
1.03162
1.0235364
1.0161328
1.0101964
1.0059006
1.0040558
1.0030657
1.0027483
1.1327535
1.1363978
1.1369542
1.1352707
1.1297117
1.1209844
1.1113415
1.1007849
1.0886579
1.0765873
1.0659171
1.0553224
1.0445717
1.0346138
1.0255596
1.0181442
1.0116101
1.006686
1.0043548
1.0032479
1.0026217
1.0021851
1.0021116
1.1323015
1.1346262
1.1337333
1.1290163
1.1200487
1.1092783
1.0984656
1.0870195
1.0744767
1.0622928
1.0518755
1.0418498
1.0317337
1.0227069
1.0150808
1.0095401
1.0057127
1.0039807
1.0036622
1.0030636
1.0025701
1.0025503
1.0028885
1.1316718
1.1325902
1.1294044
1.1213129
1.1099356
1.0982863
1.0867047
1.0743508
1.0616639
1.0499832
1.0403062
1.0311465
1.0220813
1.0146021
1.0090079
1.0058336
1.0044457
1.0038125
1.0038224
1.0035209
1.0028817
1.0027017
1.0025711
1.1301323
1.1297866
1.1233958
1.1127267
1.1001134
1.0879127
1.0759488
1.0633731
1.050911
1.0398828
1.0308731
1.0226747
1.0152486
1.0098011
1.0061995
1.004428
1.0034328
1.002974
1.0032687
1.0033683
1.0034789
1.003599
1.0033756
1.1293172
1.1260709
1.1165375
1.1039466
1.0904765
1.0780496
1.066286
1.053996
1.0419947
1.0316674
1.0232222
1.0161088
1.0107501
1.0077678
1.0059988
1.0048482
1.0039597
1.0032718
1.0030334
1.003096
1.003681
1.0040439
1.0033341
1.1279545
1.1214929
1.1095288
1.0954216
1.0814882
1.0690021
1.0576946
1.0464044
1.0352641
1.0260012
1.0185269
1.0120658
1.0082267
1.0067386
1.005642
1.0050114
1.0041258
1.0034051
1.0033517
1.0032194
1.0037642
1.0042877
1.0040684
1.12559
1.1157419
1.1028589
1.0881943
1.0738422
1.0611891
1.0497524
1.0391085
1.029401
1.0214285
1.0155925
1.0112489
1.0084719
1.0069403
1.0059348
1.0056919
1.0049141
1.0040779
1.0035716
1.0028114
1.0035236
1.0037842
1.0034227
1.121559
1.1091292
1.096531
1.0820589
1.0677034
1.0551724
1.0437383
1.0333943
1.0251207
1.0189802
1.0147558
1.0117618
1.009354
1.0076471
1.0064972
1.0059545
1.0053796
1.0047822
1.00433
1.0033828
1.0037412
1.0039962
1.0033539
1.1185583
1.1034678
1.0906561
1.0761414
1.0615475
1.0491866
1.0382674
1.0286197
1.0222059
1.0185949
1.0159428
1.0138979
1.0121945
1.0108362
1.0094107
1.0078577
1.0066044
1.0055709
1.0048111
1.0038814
1.003932
1.0039384
1.00302
1.115793
1.0984114
1.0850745
1.0703895
1.0557201
1.043792
1.0347027
1.0277101
1.0229007
1.0203937
1.0190363
1.0176992
1.0162546
1.0148368
1.0129153
1.0110392
1.0097379
1.0079146
1.0062848
1.0053817
1.0052569
1.0048497
1.0036734
1.1147083
1.0954305
1.0808123
1.065645
1.0511751
1.0402442
1.0333806
1.0285929
1.0259953
1.0251244
1.0243975
1.0230871
1.0213322
1.0198252
1.017972
1.0158955
1.0145284
1.0129817
1.0115758
1.0099774
1.0084623
1.0072532
1.0052831
1.1129495
1.0938268
1.0786811
1.0635556
1.0496394
1.0393319
1.033444
1.0309849
1.0305392
1.0305017
1.0300975
1.0293644
1.0278336
1.0263876
1.0251305
1.0233494
1.0222249
1.0211067
1.0194705
1.0174553
1.0152557
1.013119
1.0101669
1.1073209
1.0904294
1.0757206
1.0612013
1.0484661
1.0397291
1.035573
1.0345055
1.0349016
1.0351816
1.0348032
1.0346332
1.0344658
1.0338791
1.0333847
1.0330266
1.032837
1.0317897
1.029846
1.0276197
1.0252285
1.0227247
1.0196442
1.0980597
1.0817642
1.0684348
1.0558377
1.0455496
1.0388813
1.0365907
1.0366106
1.0377319
1.0386369
1.0393311
1.0401228
1.0407334
1.0411425
1.041649
1.0421967
1.0423086
1.0413209
1.0399231
1.0390212
1.0375714
1.0355248
1.0337776
1.0995825
1.0786823
1.0651612
1.0533166
1.0438764
1.0386561
1.0373139
1.0378034
1.0393373
1.041138
1.0427318
1.044162
1.0451422
1.0457358
1.0463599
1.0468823
1.0471756
1.0474564
1.0477021
1.0482077
1.0483972
1.0479988
1.0474012
1.1007259
1.0783005
1.0648988
1.0534085
1.0442469
1.03957
1.038585
1.039231
1.0404227
1.0418177
1.0433718
1.044747
1.0456639
1.0464865
1.0474566
1.0479979
1.0483916
1.0492668
1.0506607
1.0515663
1.0519625
1.0522015
1.0520006
1.0959491
1.0737683
1.0613622
1.0513987
1.0435132
1.0391798
1.0383061
1.0391295
1.0402837
1.0411391
1.0420561
1.0429679
1.0437855
1.0445655
1.0452216
1.0457827
1.0466128
1.047345
1.0482112
1.0488769
1.0494922
1.0500112
1.0503936
1.0919086
1.0703925
1.0588273
1.0495222
1.0424649
1.0384255
1.0373598
1.0378941
1.0386796
1.0390627
1.0394226
1.0400479
1.0409236
1.0414996
1.0416387
1.0422709
1.0436012
1.0440537
1.0439313
1.0443682
1.0453776
1.0457361
1.0461453
1.0913479
1.0704768
1.0590838
1.0499432
1.0429601
1.0385215
1.0366728
1.036374
1.0366435
1.0368106
1.0368802
1.0371345
1.0377396
1.0380889
1.037992
1.0383872
1.0393064
1.0391846
1.0382918
1.038365
1.0390776
1.0389865
1.0390636
1.0895752
1.0717503
1.0609796
1.0522082
1.0450438
1.0398561
1.0368091
1.0353146
1.034661
1.0345409
1.0344757
1.0344355
1.0345159
1.0344794
1.0342253
1.0340901
1.0340159
1.0333085
1.032234
1.0317964
1.0317058
1.0312111
1.030908
1.0861194
1.0743826
1.0638921
1.0553791
1.0481606
1.0423779
1.0382307
1.0355693
1.0341076
1.033289
1.0328696
1.0324599
1.0319856
1.0313901
1.0306793
1.0298988
1.0289775
1.0278725
1.0268199
1.0259153
1.0250836
1.0241356
1.0233951
1.0962829
1.0816746
1.0699866
1.0608538
1.0532281
1.0466747
1.0413241
1.0374583
1.0349933
1.0333147
1.0320813
1.0311831
1.0303283
1.0294284
1.0283714
1.0270838
1.0255607
1.0240767
1.0229215
1.0217631
1.0204915
1.0194964
1.0179492
1.1065358
1.0946262
1.0822552
1.0716414
1.0628375
1.0550641
1.0483127
1.0428972
1.0387523
1.0358429
1.0336789
1.031768
1.0301066
1.0285669
1.0271449
1.0255058
1.0239351
1.0224899
1.0209754
1.0195819
1.0179754
1.0165169
1.014976
1.1097474
1.1062228
1.0997835
1.0916709
1.0830668
1.0742497
1.0657381
1.0577717
1.0507583
1.0450959
1.0404555
1.0367579
1.0338705
1.0314244
1.0293762
1.0275458
1.0257221
1.0239408
1.0222388
1.0204126
1.0185747
1.0167611
1.0146319
1.1063502
1.1059905
1.1028963
1.1004455
1.0975945
1.0936389
1.0889001
1.08282
1.0756775
1.0685199
1.0615838
1.0547483
1.0487341
1.0435926
1.0391815
1.0357988
1.0327051
1.0296879
1.0272178
1.0247859
1.0225197
1.020268
1.0173961
1.0895913
1.0882539
1.0874422
1.0886998
1.089892
1.0906176
1.0902359
1.0885368
1.0868185
1.0844492
1.0818804
1.0783566
1.0736341
1.0686341
1.0632422
1.0581572
1.0532095
1.0481272
1.0435244
1.0394487
1.0357548
1.0323518
1.0277009
1.0659209
1.0606663
1.0584651
1.0598138
1.0621053
1.0661797
1.0702843
1.0731863
1.0761797
1.0781407
1.078898
1.0792958
1.0779425
1.0767514
1.0755817
1.0740785
1.0717442
1.0693962
1.0661658
1.0626313
1.0591376
1.0558666
1.0510756
1.0503457
1.0441197
1.043835
1.0442769
1.044551
1.0467386
1.0489335
1.0510637
1.0543241
1.0573038
1.0595719
1.0627961
1.0652344
1.0670867
1.068836
1.0699687
1.0699827
1.0708913
1.0696065
1.0688797
1.0678023
1.0673585
1.0657493
1.0421628
1.039594
1.0400249
1.0402433
1.0402716
1.0412129
1.0419231
1.0425929
1.0443817
1.0453713
1.0461544
1.0479964
1.0495735
1.0519092
1.0539387
1.0559715
1.0570792
1.0601208
1.0611935
1.0625648
1.063336
1.0650213
1.0666752
1.0385246
1.0373466
1.036987
1.0370709
1.0368911
1.0368613
1.0370783
1.037137
1.0375222
1.0379788
1.0384958
1.0394782
1.0408086
1.0425282
1.0444684
1.0455066
1.0465858
1.048947
1.0513816
1.053324
1.0549209
1.0563406
1.0598033
1.0354467
1.0349261
1.0338636
1.0328073
1.0313789
1.0302689
1.029221
1.0280756
1.027452
1.0270707
1.0272481
1.0273914
1.0280007
1.0291555
1.0306644
1.0323121
1.0340586
1.0363868
1.0393918
1.042187
1.0449505
1.0471246
1.0524848
1.0323519
1.0322579
1.0302804
1.0280602
1.0255668
1.0231712
1.0211424
1.019095
1.0173733
1.0158845
1.0145929
1.0138495
1.0135656
1.0135465
1.0136895
1.0140993
1.0152741
1.0169702
1.0192757
1.021936
1.0249777
1.027869
1.0315471
1.0291514
1.0287854
1.0261067
1.0235048
1.0209567
1.0183523
1.0156566
1.0131362
1.0110504
1.0092023
1.0075936
1.0064957
1.0058953
1.0052516
1.0046132
1.0041232
1.0039092
1.0044188
1.0052299
1.0060848
1.0069824
1.0082015
1.0100838
1.025565
1.0245418
1.0212618
1.0187314
1.0166444
1.0144433
1.0116714
1.0089901
1.0069481
1.0054488
1.0045276
1.0039339
1.0029811
1.0019607
1.0016252
1.0015617
1.0015391
1.0013286
1.0011507
1.0012081
1.001275
1.0015898
1.0019546
1.022099
1.0208074
1.017734
1.0152442
1.012962
1.0103458
1.0077413
1.0059351
1.0051471
1.0041428
1.0021877
1.0007868
1.0010486
1.0019336
1.0015683
1.0003013
0.99974325
1.000243
1.000593
1.0005088
1.000379
1.0000405
0.99969883
1.0198094
1.0178683
1.0152627
1.0126286
1.0098009
1.0074859
1.0060647
1.004231
1.0017277
1.0008029
1.0016312
1.0016707
1.0004196
0.99992827
1.0003514
1.0002459
0.99952672
0.99972326
1.0003566
0.99976762
0.99892024
0.99955839
1.0006727
1.0160073
1.0133319
1.011126
1.0095819
1.0070749
1.0035439
1.0015332
1.0016711
1.0016432
1.0005242
1.0003373
1.0009573
1.00016
0.99866831
0.99920648
1.0009724
1.0006627
0.99828876
0.99767548
0.99968297
1.0006824
0.99911234
0.99743371
1.0112548
1.0073452
1.0043595
1.0037607
1.0034931
1.0015679
0.99950085
0.99984497
1.0014811
1.001289
0.99938808
0.99874445
0.99988285
1.0002591
0.99916927
0.99871322
0.99934653
0.99917447
0.99830284
0.99880654
0.99986999
0.99876232
0.99658988
1.0058737
1.0032927
1.0010179
1.0004604
1.0012853
1.0014123
1.0000304
0.99910721
1.0000134
1.0008667
0.9997397
0.99822433
0.99889466
1.0004216
0.99966
0.99759904
0.99762483
0.99950482
1.0000373
0.9984423
0.99740383
0.99834668
0.99956885
1.001394
1.0017286
1.0016809
1.0005791
0.99985119
1.0001258
1.0001723
0.99940408
0.99910356
0.99978666
1.0000847
0.99910314
0.99816438
0.99849772
0.99907775
0.99857277
0.99808258
0.99886757
0.99941521
0.99806389
0.99707871
0.99854486
1.0006798
1.0004025
1.0008524
1.0014394
1.0007372
0.99938161
0.99909806
0.99993468
1.0002596
0.99930696
0.99843543
0.9989226
0.99956175
0.99879631
0.99769335
0.9980883
0.99929333
0.99910911
0.99772031
0.99736935