/*--------------------------------*- C++ -*----------------------------------*\
| =========                 |                                                 |
| \\      /  F ield         | OpenFOAM: The Open Source CFD Toolbox           |
|  \\    /   O peration     | Version:  2406                                  |
|   \\  /    A nd           | Website:  www.openfoam.com                      |
|    \\/     M anipulation  |                                                 |
\*---------------------------------------------------------------------------*/
FoamFile
{
    version     2.0;
    format      ascii;
    arch        "LSB;label=32;scalar=64";
    class       volScalarField;
    location    "50";
    object      nut;
}
// * * * * * * * * * * * * * * * * * * * * * * * * * * * * * * * * * * * * * //

dimensions      [0 2 -1 0 0 0 0];

internalField   nonuniform List<scalar> 
20580
(
8.8872558e-07
8.6163035e-07
8.5485449e-07
8.4972657e-07
8.3864186e-07
8.233991e-07
8.1197671e-07
8.0478525e-07
7.9953563e-07
7.9316682e-07
7.8588542e-07
7.7731674e-07
7.7122335e-07
7.6633189e-07
7.6564904e-07
7.6370944e-07
7.6279893e-07
7.6413904e-07
7.635295e-07
7.6613807e-07
7.6823232e-07
7.7049264e-07
7.7352275e-07
7.8027909e-07
7.8896164e-07
7.9507143e-07
8.075429e-07
8.1480471e-07
8.2528592e-07
8.3850433e-07
8.5828235e-07
8.9197651e-07
8.7917974e-07
8.6020361e-07
8.5054608e-07
8.3844566e-07
8.2307292e-07
8.1237894e-07
8.0534156e-07
8.0064156e-07
7.9376135e-07
7.8720197e-07
7.7788062e-07
7.7220342e-07
7.6715167e-07
7.6575756e-07
7.6395932e-07
7.6254821e-07
7.6277414e-07
7.6259186e-07
7.6356473e-07
7.6808852e-07
7.6902989e-07
7.7131189e-07
7.763243e-07
7.8568195e-07
7.9289525e-07
8.0376624e-07
8.1584652e-07
8.2919173e-07
8.3964836e-07
8.6294621e-07
8.9131539e-07
8.9101877e-07
8.7055869e-07
8.5757765e-07
8.4117642e-07
8.2431851e-07
8.1279841e-07
8.052492e-07
8.0166937e-07
7.9477757e-07
7.8786774e-07
7.7944969e-07
7.7274757e-07
7.6889423e-07
7.6644141e-07
7.6473344e-07
7.6371318e-07
7.6278302e-07
7.6339156e-07
7.6204248e-07
7.6588441e-07
7.6625732e-07
7.7011853e-07
7.7076748e-07
7.8029837e-07
7.8770469e-07
7.9873798e-07
8.1083103e-07
8.2654716e-07
8.355336e-07
8.5822819e-07
8.9222042e-07
8.9393634e-07
8.7972939e-07
8.6438799e-07
8.4553846e-07
8.2621676e-07
8.1410568e-07
8.0624888e-07
8.0216968e-07
7.9638524e-07
7.8876764e-07
7.8162618e-07
7.7353089e-07
7.7001288e-07
7.6723736e-07
7.6419369e-07
7.6522021e-07
7.6168222e-07
7.6494756e-07
7.6238202e-07
7.642145e-07
7.6451804e-07
7.6865891e-07
7.689064e-07
7.7547638e-07
7.8303432e-07
7.9249131e-07
8.0253104e-07
8.1475147e-07
8.2404333e-07
8.500412e-07
8.9334263e-07
8.963589e-07
8.9134403e-07
8.7736745e-07
8.5515257e-07
8.3224637e-07
8.185285e-07
8.1002537e-07
8.0402433e-07
7.9863829e-07
7.9008704e-07
7.8344119e-07
7.7473453e-07
7.6990633e-07
7.6893424e-07
7.6470068e-07
7.6679439e-07
7.6230446e-07
7.6622035e-07
7.6424804e-07
7.6556919e-07
7.6482004e-07
7.6910735e-07
7.6888491e-07
7.7214286e-07
7.8225816e-07
7.9007054e-07
8.0105279e-07
8.1097595e-07
8.1836308e-07
8.2991153e-07
8.9341973e-07
9.0187031e-07
8.9640378e-07
8.9114762e-07
8.7424015e-07
8.4888237e-07
8.3109175e-07
8.18073e-07
8.0919718e-07
8.0168529e-07
7.9294178e-07
7.8357741e-07
7.765805e-07
7.6862735e-07
7.6944055e-07
7.6453757e-07
7.6743573e-07
7.6367616e-07
7.6530722e-07
7.6733863e-07
7.6527046e-07
7.6906056e-07
7.692269e-07
7.7286997e-07
7.7189499e-07
7.8036216e-07
7.8869305e-07
7.9761156e-07
8.0872124e-07
8.2027464e-07
8.2824366e-07
8.9239481e-07
9.0265003e-07
8.9785986e-07
8.9323147e-07
8.8127277e-07
8.6263248e-07
8.4655392e-07
8.3559567e-07
8.2461425e-07
8.1276936e-07
8.0229787e-07
7.8838851e-07
7.815867e-07
7.7135068e-07
7.7064476e-07
7.6646133e-07
7.6731034e-07
7.6569131e-07
7.6417122e-07
7.6793445e-07
7.6546932e-07
7.6806049e-07
7.6958389e-07
7.7027209e-07
7.7227034e-07
7.7647417e-07
7.8555438e-07
7.9319863e-07
8.0498349e-07
8.1633962e-07
8.3110985e-07
8.9286551e-07
8.9994643e-07
8.9387914e-07
8.9131793e-07
8.7897685e-07
8.6294387e-07
8.5042406e-07
8.4275461e-07
8.3906079e-07
8.2948029e-07
8.2238874e-07
8.0671374e-07
7.9723085e-07
7.8478108e-07
7.7800915e-07
7.7384557e-07
7.7052678e-07
7.7032205e-07
7.6700867e-07
7.6867948e-07
7.6667816e-07
7.6762714e-07
7.7037187e-07
7.7013128e-07
7.7092484e-07
7.7513746e-07
7.7873741e-07
7.8478357e-07
7.9301778e-07
8.0304716e-07
8.2647923e-07
9.0159539e-07
9.0527109e-07
8.9938553e-07
8.9269081e-07
8.7823486e-07
8.6078429e-07
8.5190313e-07
8.4362621e-07
8.4114688e-07
8.3300428e-07
8.2558984e-07
8.1511531e-07
8.0717182e-07
8.0096432e-07
7.9407707e-07
7.9232923e-07
7.8656662e-07
7.8486996e-07
7.8082302e-07
7.7591717e-07
7.7398987e-07
7.7150482e-07
7.7307245e-07
7.7272214e-07
7.7190512e-07
7.7463105e-07
7.7732389e-07
7.8344504e-07
7.8785472e-07
7.9567541e-07
8.0798702e-07
9.4225338e-07
1.0386861e-06
9.7939474e-07
9.3407138e-07
9.022706e-07
8.7509647e-07
8.5997543e-07
8.4905478e-07
8.4387282e-07
8.3640064e-07
8.2677039e-07
8.1738546e-07
8.0782678e-07
8.0319864e-07
8.0051008e-07
8.0137573e-07
8.0204922e-07
8.0037653e-07
8.013404e-07
7.9563862e-07
7.9230665e-07
7.9191721e-07
7.8770826e-07
7.8805928e-07
7.8452371e-07
7.8416283e-07
7.8428786e-07
7.8650571e-07
7.9040919e-07
7.9801803e-07
8.0561955e-07
8.9481633e-07
1.0201524e-06
1.0305389e-06
1.0225584e-06
9.9227299e-07
9.5132817e-07
9.2088256e-07
8.9495805e-07
8.7473484e-07
8.5655529e-07
8.385512e-07
8.2363572e-07
8.1046983e-07
8.046096e-07
8.0241372e-07
8.0237013e-07
8.0348613e-07
8.0428037e-07
8.0372841e-07
8.0253043e-07
7.9807215e-07
8.0057427e-07
7.9711326e-07
7.9734785e-07
7.979899e-07
7.9716914e-07
7.9603247e-07
8.0086391e-07
8.0731313e-07
8.1560277e-07
8.1812694e-07
8.5219856e-07
9.0798903e-07
9.6760686e-07
9.9151255e-07
9.8504927e-07
9.7899462e-07
9.6869325e-07
9.5996935e-07
9.4404687e-07
9.2203092e-07
8.8934699e-07
8.5532652e-07
8.2918094e-07
8.1498411e-07
8.0923486e-07
8.0742369e-07
8.0659666e-07
8.0793579e-07
8.0647857e-07
8.0559398e-07
8.0276603e-07
8.0304824e-07
8.0113194e-07
8.0078871e-07
8.0333375e-07
8.0129723e-07
7.9960722e-07
8.0241363e-07
8.0988209e-07
8.1647995e-07
8.2512497e-07
8.7946912e-07
9.1724972e-07
9.2737417e-07
9.2984034e-07
9.3118141e-07
9.3236109e-07
9.2917026e-07
9.3177502e-07
9.274473e-07
9.1257553e-07
8.9463789e-07
8.8082437e-07
8.6806126e-07
8.5686284e-07
8.4858064e-07
8.4443298e-07
8.405432e-07
8.4007297e-07
8.357062e-07
8.3124512e-07
8.2625756e-07
8.2120222e-07
8.1686605e-07
8.1387202e-07
8.1417725e-07
8.1015637e-07
8.0493956e-07
8.0607143e-07
8.1078605e-07
8.1785824e-07
8.2228568e-07
8.8626772e-07
9.8034782e-07
9.6944711e-07
9.6167624e-07
9.427902e-07
9.2692605e-07
9.1276569e-07
8.9918296e-07
8.8618285e-07
8.7428206e-07
8.6293102e-07
8.5735371e-07
8.5715603e-07
8.6955408e-07
8.9013627e-07
9.1283131e-07
9.335223e-07
9.4962068e-07
9.570163e-07
9.5163779e-07
9.4207623e-07
9.2594054e-07
9.0757342e-07
8.9050983e-07
8.7241964e-07
8.5537793e-07
8.3832552e-07
8.2865445e-07
8.2568588e-07
8.27556e-07
8.2767487e-07
8.8734129e-07
9.3356833e-07
9.6177228e-07
9.7989157e-07
9.7843514e-07
9.6191114e-07
9.4250681e-07
9.2478956e-07
9.0329967e-07
8.8305883e-07
8.599273e-07
8.4018909e-07
8.3032128e-07
8.4391191e-07
8.6683618e-07
8.9245351e-07
9.1954303e-07
9.4793148e-07
9.6853201e-07
9.8793803e-07
1.0024042e-06
1.007831e-06
9.9490916e-07
9.8042377e-07
9.6510272e-07
9.5099622e-07
9.293611e-07
9.0966623e-07
8.9604928e-07
8.9180045e-07
8.7330673e-07
8.861952e-07
9.016601e-07
9.1123104e-07
9.334724e-07
9.3808795e-07
9.3865495e-07
9.3269788e-07
9.2304939e-07
9.0976027e-07
8.9481367e-07
8.7361283e-07
8.5308869e-07
8.3606794e-07
8.2807212e-07
8.2322864e-07
8.2868475e-07
8.4443948e-07
8.6369065e-07
8.8202313e-07
9.0450692e-07
9.22249e-07
9.3516848e-07
9.4267005e-07
9.4663673e-07
9.4622168e-07
9.3846504e-07
9.3442888e-07
9.2400378e-07
9.162866e-07
9.0822855e-07
9.1128563e-07
8.8212603e-07
9.5382318e-07
9.3107591e-07
9.2069024e-07
9.0360745e-07
8.8723628e-07
8.7608916e-07
8.7087662e-07
8.6714208e-07
8.6377717e-07
8.5639031e-07
8.4580245e-07
8.3420833e-07
8.3157619e-07
8.2989321e-07
8.2912517e-07
8.334664e-07
8.3782377e-07
8.4352732e-07
8.4907196e-07
8.529135e-07
8.5126272e-07
8.5226787e-07
8.5339006e-07
8.5826548e-07
8.605371e-07
8.6852714e-07
8.7319989e-07
8.7750851e-07
8.8206152e-07
8.910695e-07
8.7616058e-07
9.0449085e-07
9.2478581e-07
9.3103134e-07
9.2219954e-07
8.9972688e-07
8.7883473e-07
8.6652556e-07
8.5609344e-07
8.4398076e-07
8.3077482e-07
8.1808075e-07
8.141472e-07
8.1485773e-07
8.2616333e-07
8.3787359e-07
8.5493756e-07
8.695602e-07
8.8163197e-07
8.8979886e-07
8.9001402e-07
8.8023156e-07
8.7252075e-07
8.6267441e-07
8.5592439e-07
8.4595742e-07
8.378171e-07
8.3006289e-07
8.2196204e-07
8.2404449e-07
8.3222174e-07
8.776021e-07
8.8246695e-07
8.9096215e-07
9.0230757e-07
9.0474368e-07
9.0246216e-07
8.9318178e-07
8.821299e-07
8.7210889e-07
8.5828454e-07
8.4320088e-07
8.25976e-07
8.0770901e-07
8.0176959e-07
8.0830739e-07
8.2031026e-07
8.3837048e-07
8.5539556e-07
8.7164645e-07
8.8688069e-07
8.9808205e-07
8.9930286e-07
8.9425406e-07
8.8635098e-07
8.7431068e-07
8.6073624e-07
8.4880427e-07
8.3741488e-07
8.2858672e-07
8.2363436e-07
8.2443393e-07
8.8101454e-07
8.755886e-07
8.7628528e-07
8.853212e-07
8.8696184e-07
8.9325787e-07
8.908007e-07
8.9246194e-07
9.0175564e-07
8.9812185e-07
8.9030294e-07
8.8623125e-07
8.7216934e-07
8.7034045e-07
8.7728458e-07
8.87256e-07
8.8610289e-07
8.903938e-07
8.9733231e-07
9.0605492e-07
9.1046408e-07
9.1017522e-07
9.0770418e-07
9.0229845e-07
9.0150264e-07
8.9681775e-07
8.9615962e-07
8.8956008e-07
8.7983528e-07
8.7500946e-07
8.5681211e-07
8.7869502e-07
9.6371758e-07
1.0199227e-06
1.081064e-06
1.1366465e-06
1.1670303e-06
1.18475e-06
1.2162699e-06
1.2543449e-06
1.2679618e-06
1.2874977e-06
1.3297296e-06
1.3489032e-06
1.3752575e-06
1.536035e-06
1.5155145e-06
1.4895245e-06
1.4625129e-06
1.4486037e-06
1.4460517e-06
1.4284268e-06
1.4132598e-06
1.4209455e-06
1.4370771e-06
1.4545275e-06
1.473282e-06
1.5292633e-06
1.5417758e-06
1.1925617e-06
1.5223114e-06
1.4187353e-06
1.0699672e-06
1.7762416e-06
2.0183111e-06
2.2879981e-06
2.2969397e-06
2.3733426e-06
2.2773757e-06
2.4374037e-06
2.4556545e-06
2.5159243e-06
2.4332744e-06
2.6849687e-06
2.6003115e-06
2.6542576e-06
3.2783135e-06
3.2278454e-06
3.2038019e-06
3.1956659e-06
3.1737031e-06
2.9163785e-06
3.2722837e-06
3.310232e-06
3.3887327e-06
2.7710052e-06
2.8628931e-06
3.6141328e-06
3.7090488e-06
3.703892e-06
2.8122224e-06
3.6644397e-06
3.2555323e-06
9.5469555e-07
2.0405091e-06
2.3972382e-06
1.9626533e-06
1.7315337e-06
1.8637565e-06
1.6769693e-06
1.9773687e-06
1.7457251e-06
2.0945026e-06
1.9073112e-06
2.2730701e-06
1.9053348e-06
2.5759171e-06
1.9361796e-06
2.4516879e-06
2.6027894e-06
2.6200347e-06
2.4027632e-06
2.6490768e-06
2.5042467e-06
2.4711764e-06
2.3564112e-06
2.5277243e-06
2.625116e-06
2.3057887e-06
2.3289021e-06
2.3072028e-06
2.7968876e-06
2.3713582e-06
2.5719252e-06
2.0687559e-06
3.7684875e-06
1.6116763e-06
8.8716016e-07
8.3209393e-07
8.3718751e-07
8.8572971e-07
9.132549e-07
8.8148804e-07
8.3791869e-07
8.2930985e-07
8.3350398e-07
8.3195343e-07
8.2363881e-07
8.189398e-07
8.3138343e-07
8.4184482e-07
8.4408191e-07
8.4533022e-07
8.5902218e-07
8.766775e-07
8.7975813e-07
8.7419347e-07
2.8707031e-06
4.2377311e-06
2.269041e-06
1.0899442e-06
8.5195826e-07
8.4754485e-07
8.8329264e-07
9.1628874e-07
8.9785988e-07
8.5111282e-07
8.3937767e-07
8.4561046e-07
8.4684503e-07
8.3863096e-07
8.2875163e-07
8.3499334e-07
8.5948428e-07
8.6102007e-07
8.6135364e-07
8.6812328e-07
8.9303973e-07
9.1064776e-07
9.0562522e-07
1.9705865e-06
4.1841708e-06
2.5030747e-06
1.2328983e-06
8.8487012e-07
8.5575509e-07
8.863052e-07
9.2193851e-07
9.1354639e-07
8.7167174e-07
8.5247593e-07
8.5639762e-07
8.6447895e-07
8.5900174e-07
8.4326987e-07
8.4326591e-07
8.6239857e-07
8.8874577e-07
8.9071562e-07
8.8770581e-07
8.9995787e-07
9.3650061e-07
9.4096644e-07
2.5394548e-06
4.1109688e-06
2.5702526e-06
1.3042639e-06
9.1524032e-07
8.6876197e-07
8.9177473e-07
9.2792879e-07
9.2427986e-07
8.8857948e-07
8.6362372e-07
8.6534975e-07
8.7728999e-07
8.7933339e-07
8.6957444e-07
8.6178171e-07
8.7317445e-07
9.0193208e-07
9.1141222e-07
9.100375e-07
9.1444228e-07
9.4790118e-07
9.7835496e-07
1.9221649e-06
3.7909021e-06
2.6626729e-06
1.4645771e-06
9.6347624e-07
8.9943273e-07
9.0835247e-07
9.3700339e-07
9.3881258e-07
9.1237451e-07
8.7961065e-07
8.7842037e-07
8.9395099e-07
9.0110011e-07
8.9718007e-07
8.8786994e-07
8.9339885e-07
9.2495867e-07
9.4043421e-07
9.3580005e-07
9.3345874e-07
9.5200519e-07
1.0038907e-06
1.8753179e-06
3.5609843e-06
2.5757655e-06
1.4725511e-06
8.6380241e-07
9.1362406e-07
9.2094047e-07
9.4561404e-07
9.4991142e-07
9.3360685e-07
8.9804921e-07
8.9382168e-07
9.0756324e-07
9.3040077e-07
9.2958293e-07
9.1701476e-07
9.1247727e-07
9.321801e-07
9.7111818e-07
9.7576006e-07
9.7245229e-07
9.7848175e-07
1.0174801e-06
2.2688377e-06
2.8216408e-06
2.4908812e-06
1.5206097e-06
1.0339831e-06
9.3194939e-07
9.3602315e-07
9.553081e-07
9.6552557e-07
9.5476527e-07
9.1960185e-07
9.1305553e-07
9.2271481e-07
9.4482704e-07
9.4785035e-07
9.3652487e-07
9.3549472e-07
9.4478004e-07
9.8972516e-07
1.0029593e-06
1.0025978e-06
1.0054655e-06
1.0242836e-06
1.9817711e-06
3.1939567e-06
2.8656381e-06
2.0586875e-06
1.266677e-06
1.0339834e-06
9.8073038e-07
9.8530254e-07
9.9694487e-07
9.9157302e-07
9.5235236e-07
9.422005e-07
9.4819074e-07
9.7748781e-07
9.8234134e-07
9.7088383e-07
9.5614912e-07
9.6047992e-07
9.9769324e-07
1.0370788e-06
1.0412895e-06
1.0383183e-06
1.045526e-06
3.4566036e-06
3.8843744e-06
4.4042422e-06
3.799674e-06
2.5501692e-06
1.5429951e-06
1.1692635e-06
1.1106186e-06
1.1087179e-06
1.0901132e-06
1.0259919e-06
9.8700248e-07
9.8221869e-07
1.0012456e-06
1.017675e-06
1.0120069e-06
9.9092639e-07
9.8628799e-07
1.0081715e-06
1.056313e-06
1.0670839e-06
1.060932e-06
1.062072e-06
2.3953956e-06
7.0017372e-06
5.1582816e-06
4.051516e-06
2.7395353e-06
1.5359692e-06
1.2798715e-06
1.1990396e-06
1.1748877e-06
1.1302615e-06
1.0678317e-06
1.0162811e-06
1.0016351e-06
1.0135071e-06
1.0341186e-06
1.0340175e-06
1.0204943e-06
1.0160034e-06
1.0269994e-06
1.0732609e-06
1.0979782e-06
1.0919043e-06
1.0863323e-06
1.8250679e-06
6.6215437e-06
4.9542373e-06
3.6864702e-06
2.350141e-06
1.461662e-06
1.2786021e-06
1.2058115e-06
1.1732892e-06
1.1224268e-06
1.0649858e-06
1.0235617e-06
1.0161146e-06
1.0245846e-06
1.0477019e-06
1.0499612e-06
1.0423035e-06
1.04066e-06
1.0484548e-06
1.0861499e-06
1.1210215e-06
1.1249984e-06
1.1220377e-06
2.4300778e-06
6.1789719e-06
3.7807862e-06
2.5695994e-06
1.6942531e-06
1.3194894e-06
1.2435419e-06
1.2045872e-06
1.1606519e-06
1.1136516e-06
1.0630307e-06
1.0306406e-06
1.0280558e-06
1.0366415e-06
1.0595783e-06
1.0617036e-06
1.0541267e-06
1.0538239e-06
1.0625613e-06
1.0937838e-06
1.1430228e-06
1.1478956e-06
1.1432159e-06
2.5111216e-06
3.8304992e-06
3.1400863e-06
1.9580203e-06
1.3878355e-06
8.0661915e-07
9.8074457e-07
1.2051725e-06
1.1627955e-06
1.1186351e-06
1.0690424e-06
1.043391e-06
1.0442273e-06
1.0525527e-06
1.0774676e-06
1.0804861e-06
1.0717032e-06
1.0704254e-06
1.0788374e-06
1.1045645e-06
1.1620848e-06
1.1797483e-06
1.1790298e-06
2.3616256e-06
4.5655326e-06
3.8102382e-06
2.2253195e-06
1.4439571e-06
6.0236919e-07
9.4030514e-07
1.0634097e-06
1.1871096e-06
1.143194e-06
1.0945372e-06
1.0734645e-06
1.0732653e-06
1.0830855e-06
1.122018e-06
1.1266262e-06
1.118276e-06
1.1118655e-06
1.1098712e-06
1.1220515e-06
1.1764261e-06
1.2147583e-06
1.2162612e-06
2.4033979e-06
5.4475706e-06
6.1798097e-06
3.6925586e-06
2.060054e-06
1.3682622e-06
1.2307076e-06
1.2729285e-06
1.2888536e-06
1.2417507e-06
1.1921785e-06
1.1539537e-06
1.1434536e-06
1.1528481e-06
1.186376e-06
1.1867113e-06
1.1663536e-06
1.1488319e-06
1.1504775e-06
1.1720222e-06
1.2189093e-06
1.2518934e-06
1.2513331e-06
3.6506748e-06
5.5547138e-06
6.104225e-06
4.8292647e-06
2.9659354e-06
1.7428249e-06
1.2617498e-06
1.3390313e-06
1.3862979e-06
1.3424614e-06
1.2703008e-06
1.2328531e-06
1.2222605e-06
1.2265824e-06
1.2480277e-06
1.2331344e-06
1.2107384e-06
1.1913533e-06
1.200083e-06
1.2186987e-06
1.2645594e-06
1.2952756e-06
1.2829818e-06
1.801019e-06
3.5042665e-06
5.3935224e-06
4.8018939e-06
3.0707864e-06
1.7854401e-06
8.6065725e-07
1.0888707e-06
1.4251419e-06
1.3756995e-06
1.2866615e-06
1.2614584e-06
1.2706089e-06
1.2790649e-06
1.2907907e-06
1.2807856e-06
1.2417316e-06
1.2250913e-06
1.2371521e-06
1.2676349e-06
1.3157396e-06
1.3369402e-06
1.3202642e-06
8.2075901e-07
2.3447e-06
3.6268627e-06
4.0578142e-06
2.7432541e-06
1.2337756e-06
7.0664933e-07
9.7222875e-07
1.4322725e-06
1.3801673e-06
1.2879595e-06
1.2670167e-06
1.2943367e-06
1.3217349e-06
1.3349044e-06
1.2937547e-06
1.2451962e-06
1.2352066e-06
1.2596958e-06
1.3095891e-06
1.3618396e-06
1.3770776e-06
1.3342602e-06
3.9910466e-07
1.4434406e-06
2.5778692e-06
3.0092769e-06
2.0250179e-06
7.1357394e-07
5.9656363e-07
9.6994088e-07
1.4428011e-06
1.3672354e-06
1.2792119e-06
1.2710395e-06
1.3200995e-06
1.3486385e-06
1.3426738e-06
1.2942082e-06
1.2477077e-06
1.2414674e-06
1.2881964e-06
1.3567908e-06
1.3946149e-06
1.3832273e-06
1.3420911e-06
2.3500156e-07
8.8268986e-07
1.8981704e-06
2.2828034e-06
1.0283402e-06
5.0993308e-07
6.0655588e-07
1.1858251e-06
1.4483395e-06
1.3211715e-06
1.2585102e-06
1.2753456e-06
1.333586e-06
1.3524645e-06
1.3411359e-06
1.2771206e-06
1.2398037e-06
1.2485171e-06
1.3139259e-06
1.3860264e-06
1.399001e-06
1.3798153e-06
1.337634e-06
1.7180033e-07
6.0210167e-07
1.5065088e-06
1.7980497e-06
7.5223546e-07
4.6721611e-07
6.4714222e-07
1.3372822e-06
1.4254228e-06
1.2898391e-06
1.2561254e-06
1.2816374e-06
1.3443038e-06
1.353128e-06
1.3253677e-06
1.2554149e-06
1.2417228e-06
1.2609949e-06
1.3513844e-06
1.3935036e-06
1.3982822e-06
1.3622382e-06
1.3497192e-06
1.5090903e-07
4.7584892e-07
1.3171328e-06
1.5206943e-06
5.6043139e-07
4.5820106e-07
7.7520852e-07
1.4169309e-06
1.4031352e-06
1.2752436e-06
1.2607585e-06
1.3083391e-06
1.3546879e-06
1.3522201e-06
1.2904882e-06
1.2478124e-06
1.2478563e-06
1.3025923e-06
1.3785089e-06
1.3927539e-06
1.3890758e-06
1.3643004e-06
1.3628133e-06
1.5216327e-07
4.3224101e-07
1.2530174e-06
1.2000237e-06
5.3035005e-07
5.5380482e-07
1.1171158e-06
1.4423039e-06
1.3554351e-06
1.2772443e-06
1.2768198e-06
1.3418508e-06
1.362408e-06
1.3387377e-06
1.2703381e-06
1.2563478e-06
1.2712893e-06
1.3541542e-06
1.3832694e-06
1.3896489e-06
1.3772948e-06
1.3722079e-06
1.3986449e-06
1.5604651e-07
4.3006193e-07
1.004495e-06
9.7597094e-07
9.1475087e-07
1.0844241e-06
1.3513499e-06
1.449082e-06
1.3233916e-06
1.2812173e-06
1.3064521e-06
1.3683371e-06
1.3694271e-06
1.3187499e-06
1.2734664e-06
1.2679602e-06
1.3361669e-06
1.387381e-06
1.393507e-06
1.3870254e-06
1.3825409e-06
1.3988485e-06
1.4823454e-06
1.5929096e-07
4.3876727e-07
9.1130657e-07
6.8449764e-07
8.1419799e-07
1.2441544e-06
1.3775e-06
1.4423449e-06
1.3077121e-06
1.2873401e-06
1.3402225e-06
1.3785327e-06
1.3716546e-06
1.3029089e-06
1.2807561e-06
1.3045571e-06
1.3832638e-06
1.403e-06
1.4010288e-06
1.3932106e-06
1.4061362e-06
1.4780625e-06
1.5823028e-06
1.6111548e-07
4.517444e-07
1.263958e-06
6.6939612e-07
4.9966552e-07
9.8854448e-07
1.407602e-06
1.4203367e-06
1.3129333e-06
1.3041133e-06
1.3716737e-06
1.3912094e-06
1.3626795e-06
1.3123139e-06
1.3010999e-06
1.3685785e-06
1.4109947e-06
1.4168986e-06
1.412275e-06
1.4187789e-06
1.4738668e-06
1.5740058e-06
1.6272693e-06
1.6297005e-07
4.7188719e-07
1.2836443e-06
1.2654882e-06
6.7617161e-07
9.0930433e-07
1.4448746e-06
1.3843538e-06
1.3219929e-06
1.343817e-06
1.3955038e-06
1.3986119e-06
1.3498138e-06
1.3253445e-06
1.3565439e-06
1.4219981e-06
1.4362352e-06
1.4359551e-06
1.4408752e-06
1.4757145e-06
1.5669432e-06
1.6375189e-06
1.6776479e-06
1.6842628e-07
4.9244119e-07
1.2759609e-06
9.7461396e-07
1.2492349e-06
1.3571895e-06
1.4721253e-06
1.3746265e-06
1.3391355e-06
1.3659543e-06
1.4006197e-06
1.3980181e-06
1.3581878e-06
1.351171e-06
1.4178944e-06
1.4584311e-06
1.4610246e-06
1.4591132e-06
1.4896977e-06
1.5812491e-06
1.670221e-06
1.7081202e-06
1.7448073e-06
1.788662e-07
5.1865759e-07
1.2443883e-06
1.2280499e-06
1.2177814e-06
1.3785565e-06
1.4719469e-06
1.379434e-06
1.3606728e-06
1.3928714e-06
1.4012186e-06
1.3880613e-06
1.373053e-06
1.389857e-06
1.4671241e-06
1.4918457e-06
1.4940178e-06
1.4975281e-06
1.5721018e-06
1.6918608e-06
1.7362021e-06
1.757384e-06
1.8625158e-06
1.9650412e-07
5.5782664e-07
1.0943959e-06
1.22389e-06
1.2904409e-06
1.413023e-06
1.4500727e-06
1.3884611e-06
1.3954512e-06
1.4106761e-06
1.4066736e-06
1.3942239e-06
1.3907442e-06
1.4423442e-06
1.4893417e-06
1.5081932e-06
1.5277452e-06
1.5851848e-06
1.6813866e-06
1.7617393e-06
1.7903193e-06
1.888902e-06
2.1858787e-06
2.2007729e-07
6.0032308e-07
8.6317686e-07
9.0965878e-07
1.327093e-06
1.4336035e-06
1.4250158e-06
1.3907237e-06
1.4011039e-06
1.4208687e-06
1.4183696e-06
1.4099754e-06
1.4375407e-06
1.4949706e-06
1.5200121e-06
1.5382725e-06
1.5940583e-06
1.6790429e-06
1.7779802e-06
1.82497e-06
1.9522021e-06
2.2906056e-06
3.2085933e-06
2.6305602e-07
6.1654516e-07
7.7725799e-07
9.1429676e-07
1.3425032e-06
1.4434597e-06
1.4112216e-06
1.3956031e-06
1.4111951e-06
1.4210308e-06
1.421174e-06
1.4226825e-06
1.4608459e-06
1.5129541e-06
1.5318078e-06
1.5630343e-06
1.6461297e-06
1.7754532e-06
1.8531524e-06
2.0151479e-06
2.4655523e-06
3.7316405e-06
6.7635631e-06
2.9073981e-07
6.653961e-07
1.1047056e-06
9.0757435e-07
1.3440902e-06
1.4353721e-06
1.4155207e-06
1.4096877e-06
1.4171102e-06
1.4205178e-06
1.4292105e-06
1.4561565e-06
1.5124983e-06
1.5545473e-06
1.5811649e-06
1.6359596e-06
1.7386526e-06
1.8643709e-06
2.100944e-06
2.7106652e-06
4.4727451e-06
8.7926004e-06
1.6453879e-05
3.4287221e-07
6.9566145e-07
1.0977294e-06
1.2668836e-06
1.3971551e-06
1.425984e-06
1.4145989e-06
1.4182579e-06
1.4238205e-06
1.4263028e-06
1.4348753e-06
1.4804745e-06
1.5385937e-06
1.5706776e-06
1.603172e-06
1.6836723e-06
1.8060552e-06
2.0367765e-06
2.7388246e-06
4.8525571e-06
1.0123824e-05
1.9142777e-05
3.4397114e-05
3.776338e-07
7.6998957e-07
1.0252368e-06
1.3151043e-06
1.4073548e-06
1.4183502e-06
1.4212773e-06
1.4285967e-06
1.4320811e-06
1.4354143e-06
1.4691841e-06
1.5467761e-06
1.6147215e-06
1.7001736e-06
1.9462176e-06
2.5093544e-06
3.8593097e-06
7.1313143e-06
1.3880995e-05
2.4861634e-05
4.0095028e-05
6.2520961e-05
0.00010289352
3.7458948e-07
7.9043962e-07
8.2344981e-07
1.2743749e-06
1.4136224e-06
1.4150199e-06
1.42612e-06
1.4407105e-06
1.4407178e-06
1.4425959e-06
1.4820051e-06
1.5770643e-06
1.6461553e-06
1.7342449e-06
1.9394789e-06
2.4483461e-06
3.7187481e-06
6.8131734e-06
1.3138513e-05
2.3328838e-05
3.6314065e-05
5.7108971e-05
9.8416198e-05
4.5197847e-07
8.1314196e-07
1.1610927e-06
1.3333857e-06
1.4246378e-06
1.4197431e-06
1.4296743e-06
1.4502342e-06
1.4519382e-06
1.4507132e-06
1.4956331e-06
1.5938095e-06
1.6669168e-06
1.7516728e-06
1.9495942e-06
2.3901355e-06
3.3621724e-06
5.703962e-06
1.0795953e-05
1.9875036e-05
3.1764326e-05
4.7400194e-05
8.402431e-05
4.4408881e-07
8.4780869e-07
1.1712227e-06
1.3462511e-06
1.4356119e-06
1.4282059e-06
1.4449063e-06
1.4700148e-06
1.4741801e-06
1.4672177e-06
1.5225421e-06
1.6215066e-06
1.6980802e-06
1.7852847e-06
1.9802157e-06
2.3982225e-06
3.2863741e-06
5.0977657e-06
8.6875167e-06
1.5309187e-05
2.589693e-05
3.47783e-05
7.7668029e-05
3.8588741e-07
8.8872601e-07
1.1269084e-06
1.3721366e-06
1.4590479e-06
1.4478396e-06
1.4845352e-06
1.5074143e-06
1.506105e-06
1.5105366e-06
1.5595706e-06
1.6656851e-06
1.7463719e-06
1.8452973e-06
2.0492449e-06
2.4660736e-06
3.3309999e-06
5.1045174e-06
8.4605609e-06
1.3933375e-05
2.1620506e-05
3.6941228e-05
4.7111285e-05
6.5859378e-07
9.6017067e-07
1.0614508e-06
1.3968836e-06
1.4890529e-06
1.4757849e-06
1.5136502e-06
1.5441795e-06
1.5579571e-06
1.5534521e-06
1.6447007e-06
1.7385548e-06
1.8060339e-06
1.9292823e-06
2.1909641e-06
2.7126581e-06
3.7345985e-06
5.8010525e-06
9.5018854e-06
1.5963828e-05
2.5258291e-05
4.8615033e-05
4.3911664e-06
8.657056e-07
1.0309356e-06
8.2013246e-07
1.0089441e-06
1.5446217e-06
1.5342496e-06
1.5648945e-06
1.5886819e-06
1.6018908e-06
1.6690747e-06
1.7445947e-06
1.8075838e-06
1.9348473e-06
2.2147465e-06
2.8147233e-06
4.1159539e-06
7.0711224e-06
1.3332985e-05
2.4428948e-05
4.0748827e-05
6.3848255e-05
0.00011351933
0.00019828255
6.8946201e-07
9.0167619e-07
5.654888e-07
9.0736375e-07
1.6264727e-06
1.6048346e-06
1.6516743e-06
1.6644968e-06
1.7254971e-06
1.7592359e-06
1.8415125e-06
2.0436158e-06
2.5578211e-06
4.0185591e-06
7.9426813e-06
1.7054275e-05
3.3654787e-05
5.7978671e-05
9.6400577e-05
0.0001598896
0.00024688755
0.00034842553
0.0004434999
7.4677535e-07
8.3335622e-07
6.4750587e-07
1.2022445e-06
1.667836e-06
1.6592136e-06
1.7342071e-06
1.8031232e-06
1.8209226e-06
1.9225233e-06
2.2828915e-06
3.4725531e-06
7.2365506e-06
1.7293778e-05
3.7598312e-05
7.0028972e-05
0.00012445311
0.00021999856
0.00031934661
0.00041110948
0.00048199375
0.00054160084
0.00059613061
7.0763345e-07
8.7241923e-07
8.1235962e-07
1.2908454e-06
1.7353768e-06
1.7423666e-06
1.8152572e-06
1.9056656e-06
2.047407e-06
2.5986465e-06
4.8637781e-06
1.2417467e-05
3.1166572e-05
6.1766092e-05
0.00012126399
0.00023458694
0.00034550336
0.00043353982
0.00050436393
0.00055547979
0.00059083442
0.00061723852
0.00052432236
7.4079432e-07
9.1660346e-07
6.2569445e-07
1.2432554e-06
1.9162238e-06
1.9409199e-06
1.9735302e-06
2.082376e-06
2.7964098e-06
5.8664594e-06
1.6676968e-05
4.2835973e-05
8.9087718e-05
0.00019182427
0.0003175198
0.00042049725
0.00050226849
0.00055586691
0.00052969119
0.00050704999
0.00049898396
0.00051119435
0.00052661374
6.2030644e-07
5.9725525e-07
5.9115005e-07
1.3695894e-06
2.0833489e-06
2.0771266e-06
2.1430078e-06
2.6999945e-06
5.771554e-06
1.7569286e-05
4.6565928e-05
0.00010393883
0.00023411625
0.00036178744
0.00046318728
0.00045247732
0.00041226992
0.00040258582
0.00042339904
0.00045965117
0.00050227518
0.00051999952
0.00048650318
7.0394736e-07
7.7048995e-07
7.2245889e-07
1.5798523e-06
2.1635416e-06
2.2111862e-06
2.6111481e-06
4.8773009e-06
1.5460266e-05
4.5392493e-05
0.00010858796
0.00024520194
0.00032747126
0.00036464452
0.00037747947
0.00038372466
0.0004137399
0.00046892308
0.00050360537
0.00051125095
0.00047536107
0.00043672575
0.00040251164
9.7411029e-07
5.6876997e-07
8.3842139e-07
1.6419919e-06
2.2575727e-06
2.5046436e-06
3.7759335e-06
1.1032039e-05
3.1134072e-05
9.0705747e-05
0.0001941712
0.00028759759
0.00036295022
0.00042201196
0.00046229823
0.00050624809
0.00054558555
0.00053686829
0.00048397615
0.00042296121
0.0003673697
0.00031247338
0.00028687594
1.0205798e-06
1.5016921e-06
8.6977949e-07
1.96492e-06
2.3190385e-06
2.8288208e-06
6.2429692e-06
1.7797362e-05
5.8466633e-05
0.00016772193
0.00031315589
0.00043347185
0.00052445417
0.00056263247
0.00056740452
0.00054650229
0.00048187807
0.00040479278
0.00033950379
0.00029352133
0.00026902095
0.00025368521
0.00027908766
1.1612415e-06
1.026856e-06
8.0089772e-07
2.1500716e-06
2.4338885e-06
3.44914e-06
1.0424696e-05
2.8635044e-05
0.00010364084
0.00024976591
0.00038402704
0.00049008575
0.00055243542
0.0005467478
0.00049961906
0.00042215034
0.00035488449
0.00031714102
0.00030345708
0.00030149145
0.00030741227
0.00031516514
0.00031450051
1.0935033e-06
1.0086597e-06
1.0309834e-06
2.3413753e-06
2.8438001e-06
5.2043746e-06
1.5491197e-05
5.6165053e-05
0.00016785321
0.00030549896
0.00042863199
0.00051925763
0.00052242156
0.00048381502
0.00043988249
0.00039823529
0.00037863024
0.00038156099
0.00038716573
0.00037783687
0.00035649796
0.00032706005
0.00029198394
1.1599139e-06
1.325555e-06
1.1257118e-06
2.3828913e-06
3.30313e-06
8.39661e-06
2.705428e-05
9.8867272e-05
0.0002094403
0.00033902162
0.00045031111
0.00053302227
0.0005740894
0.00056992634
0.00054237601
0.00051508055
0.00049216357
0.00046465874
0.00042268125
0.00037254362
0.00032723939
0.00029568379
0.00029077702
1.3976512e-06
1.8240276e-06
1.670916e-06
2.4062763e-06
3.570591e-06
1.1767448e-05
4.4836959e-05
0.00011600465
0.00022606259
0.00034889089
0.0004599831
0.00053748914
0.00057387481
0.0005904991
0.00059284057
0.00058052288
0.00051943743
0.00044367124
0.00038125247
0.000343451
0.00033270479
0.00034750419
0.00036131052
2.2348951e-06
2.0433714e-06
1.6786817e-06
2.3952106e-06
3.5562831e-06
1.1892711e-05
4.6355774e-05
0.0001178102
0.00022876191
0.00035289748
0.00046120491
0.00053278737
0.00057115589
0.00059033745
0.00059771778
0.0005933916
0.00049143914
0.00042126518
0.00039510244
0.00040378904
0.0004349791
0.0004823797
0.00043536992
2.8086475e-06
3.1586677e-06
1.6912772e-06
2.3026619e-06
3.3845489e-06
1.1242504e-05
4.470541e-05
0.0001154411
0.00022682757
0.00034752057
0.00044731882
0.00051917026
0.00056207543
0.00058571898
0.00059895328
0.00060275514
0.00055905912
0.00049778199
0.00048862294
0.00051313485
0.00053731355
0.00053416479
0.000421022
3.1694972e-06
4.5576389e-06
1.7680724e-06
2.161145e-06
2.9298533e-06
9.1307627e-06
3.9893008e-05
0.0001084586
0.00021210134
0.00032766705
0.00042529473
0.0004975017
0.00054437434
0.00057282598
0.00059054394
0.00060194309
0.00061146788
0.00062164946
0.00059083442
0.00056428604
0.00054143123
0.00048875937
0.00040386623
3.67008e-06
5.529452e-06
1.9637851e-06
2.0472617e-06
2.5828318e-06
6.6056242e-06
3.0719483e-05
9.1743518e-05
0.00018820449
0.00029510815
0.00039353151
0.00046998536
0.00052260912
0.00055560066
0.0005768812
0.00059261501
0.00060739312
0.00062382785
0.0006371332
0.00059369792
0.00054009863
0.00048374789
0.00044412521
4.0458306e-06
7.2957207e-06
2.4106573e-06
2.0397332e-06
2.3169595e-06
4.7826919e-06
2.1393336e-05
6.9146439e-05
0.00016078416
0.00025905625
0.00035250312
0.00043243601
0.00049352618
0.00053540727
0.00056223565
0.00058103963
0.00059785308
0.00061652836
0.00063640986
0.00065093619
0.00060217088
0.0005440371
0.00052660517
4.4145778e-06
8.7797608e-06
3.1142382e-06
2.085842e-06
2.2127338e-06
3.5308534e-06
1.3571134e-05
4.7504232e-05
0.00011985096
0.00022217662
0.00030978259
0.00038578299
0.00044881239
0.00049924463
0.00053479153
0.00055807817
0.00057521518
0.00059194971
0.00061323662
0.00063836348
0.00065730539
0.00060536684
0.00058378592
4.8537965e-06
9.7085104e-06
4.2597819e-06
2.2981195e-06
2.2153818e-06
2.7465595e-06
8.0426873e-06
2.9641094e-05
7.6221074e-05
0.00017103262
0.0002664692
0.00034530472
0.00040650631
0.00045649908
0.00049609427
0.00052385552
0.00054221146
0.00055659501
0.00057090572
0.0005889416
0.00061214581
0.00062173098