/*--------------------------------*- C++ -*----------------------------------*\
| =========                 |                                                 |
| \\      /  F ield         | OpenFOAM: The Open Source CFD Toolbox           |
|  \\    /   O peration     | Version:  2406                                  |
|   \\  /    A nd           | Website:  www.openfoam.com                      |
|    \\/     M anipulation  |                                                 |
\*---------------------------------------------------------------------------*/
FoamFile
{
    version     2.0;
    format      ascii;
    arch        "LSB;label=32;scalar=64";
    class       volScalarField;
    location    "50";
    object      p;
}
// * * * * * * * * * * * * * * * * * * * * * * * * * * * * * * * * * * * * * //

dimensions      [1 -1 -2 0 0 0 0];

internalField   nonuniform List<scalar> 
20580
(
1.0060683
1.0094455
1.0070709
1.0091978
1.0082247
1.0100342
1.0117796
1.0102661
1.0112557
1.0114545
1.0111345
1.011326
1.0121149
1.0113598
1.0126952
1.0127343
1.0116643
1.0134493
1.0128993
1.0114711
1.0155416
1.0132186
1.0122387
1.0140048
1.0173158
1.0107573
1.0088406
1.0115523
1.0110649
1.0137299
1.0180381
1.0056005
1.0093921
1.0074022
1.0094625
1.0080377
1.0102281
1.0117557
1.0100592
1.0110876
1.0115779
1.0108663
1.0114975
1.0118464
1.0114016
1.0129306
1.0123014
1.0116279
1.0142502
1.0117509
1.0129342
1.0164274
1.0118869
1.0133658
1.0154667
1.0164918
1.007906
1.0060732
1.0139627
1.0150224
1.0115899
1.0152973
1.0050945
1.0087073
1.0081456
1.00942
1.0088519
1.0105025
1.0109493
1.0100601
1.0106871
1.0114818
1.0106311
1.0118463
1.01149
1.0117015
1.0128984
1.0119074
1.0117471
1.0145965
1.0107396
1.013861
1.0160318
1.0103322
1.0137257
1.0155203
1.015392
1.0075702
1.0056719
1.0149781
1.0194006
1.0107467
1.008811
1.0047175
1.007621
1.0088779
1.0091331
1.0101559
1.0107433
1.0098559
1.0103551
1.0105269
1.0111602
1.0106456
1.012082
1.011268
1.0119635
1.0125786
1.0115422
1.0120192
1.0144961
1.0100798
1.0141213
1.0149037
1.0090808
1.013957
1.0140414
1.0132991
1.0096476
1.0084875
1.0150662
1.0202556
1.0124927
1.0047089
1.0044174
1.0065584
1.0091061
1.0088346
1.0111647
1.0106775
1.0091309
1.0108214
1.0107872
1.0107611
1.0110871
1.0117892
1.0114405
1.0120804
1.0121644
1.0116695
1.012311
1.0141167
1.010082
1.0139572
1.0132564
1.0088116
1.014856
1.0124348
1.0103572
1.0120108
1.0128376
1.0160666
1.0176604
1.012853
1.0044539
1.0043474
1.0058559
1.0085458
1.0087137
1.0112203
1.0102368
1.0092259
1.0111577
1.0111745
1.010422
1.0117257
1.0112791
1.0117733
1.0120421
1.0117479
1.0118419
1.0127632
1.0131596
1.0108775
1.0140917
1.0117005
1.0092044
1.0162583
1.0118689
1.0078683
1.0134543
1.0161487
1.0153982
1.0145349
1.0120147
1.0069873
1.0046195
1.0058105
1.0075344
1.0089282
1.0103045
1.0096271
1.0100665
1.0111723
1.0111817
1.0103211
1.0120422
1.0109653
1.0118735
1.012192
1.0112862
1.0121812
1.0132148
1.0116561
1.01213
1.0143814
1.0109796
1.0103634
1.0176483
1.0121371
1.0070141
1.0144039
1.0182862
1.012512
1.009837
1.0107214
1.0120667
1.0049755
1.0066097
1.0067588
1.0093478
1.0090988
1.0091454
1.010987
1.010852
1.0106901
1.0106699
1.0117342
1.0107216
1.0115815
1.0123472
1.0108294
1.0122763
1.0133511
1.0105473
1.0133777
1.0139975
1.0108374
1.01196
1.0180377
1.0128323
1.0079543
1.0140595
1.01912
1.0115375
1.0048932
1.0075813
1.0145664
1.0052467
1.0080048
1.0067566
1.0096136
1.0083826
1.0091677
1.0114789
1.0103604
1.0101032
1.011187
1.0109951
1.0108928
1.0111997
1.0121624
1.0107983
1.0124365
1.0134784
1.0098731
1.0142331
1.0133268
1.011085
1.0137448
1.0165848
1.0130836
1.0104351
1.0134644
1.0166472
1.012762
1.0044056
1.0057977
1.0139447
1.0053596
1.0092891
1.007491
1.0094538
1.0084364
1.0097872
1.0112927
1.0099994
1.0098826
1.0114352
1.0102718
1.011261
1.011037
1.0116
1.0114227
1.0122821
1.0129837
1.0101481
1.014766
1.0120826
1.0114637
1.0155893
1.0137924
1.0118998
1.0130912
1.0143059
1.0127537
1.0121483
1.0079049
1.0080643
1.0130592
1.0054382
1.0099592
1.008485
1.009018
1.0092242
1.0105605
1.0103895
1.0099961
1.010235
1.0112456
1.0101506
1.0112981
1.0111553
1.0108755
1.0120623
1.0118609
1.0123299
1.0110602
1.0149295
1.0105199
1.0118122
1.0167867
1.0105886
1.0099837
1.0147664
1.0151546
1.0106733
1.0103898
1.0117509
1.0122554
1.0124548
1.0053092
1.0096062
1.0091817
1.0084744
1.0102702
1.0111024
1.0094033
1.0102271
1.0108811
1.0107171
1.0106268
1.0110338
1.0115385
1.0106198
1.0125875
1.0120267
1.0116045
1.0120767
1.0147207
1.0096107
1.0121727
1.0176263
1.0082797
1.0082881
1.0161242
1.014843
1.0094174
1.009514
1.0146898
1.0166952
1.0133791
1.0050246
1.0082036
1.0090048
1.0081656
1.0108545
1.0109868
1.0089607
1.0104563
1.0113025
1.0102774
1.0111267
1.0108206
1.0117377
1.0107879
1.0126579
1.0120045
1.0111239
1.0129893
1.0138777
1.0096014
1.0122193
1.0177918
1.0079415
1.0075493
1.0172594
1.0148037
1.0083603
1.0083401
1.0154642
1.0196795
1.0156339
1.0047422
1.006378
1.0080084
1.00831
1.0106275
1.0101262
1.0092631
1.0105572
1.0111288
1.0101792
1.011194
1.0108696
1.0116647
1.0111795
1.0123634
1.0119369
1.0109093
1.0134179
1.0127259
1.0106165
1.0122926
1.0165319
1.009418
1.0085811
1.0174084
1.0154181
1.0089685
1.007616
1.0138886
1.0184374
1.0160212
1.0046176
1.0052298
1.0071155
1.0088947
1.0098064
1.0092634
1.0103869
1.0104649
1.010445
1.0104618
1.0107837
1.0110676
1.0114093
1.0114982
1.0118951
1.0119362
1.0108548
1.0137904
1.0113855
1.012279
1.0128144
1.0140462
1.0113177
1.0117898
1.0158728
1.0151704
1.0112533
1.0097185
1.0126256
1.0141009
1.0136387
1.0045671
1.0051353
1.0067893
1.0095108
1.0088802
1.0088629
1.0115432
1.0103543
1.0097452
1.0108879
1.0103493
1.0112653
1.0109606
1.0116305
1.0114998
1.0118484
1.0113687
1.013862
1.0098141
1.0139874
1.0136409
1.0111272
1.0122087
1.0162973
1.0143405
1.0124481
1.0127285
1.014002
1.012835
1.0105176
1.0108931
1.0047804
1.0063955
1.0071105
1.0098024
1.0084905
1.0089572
1.0117875
1.0104093
1.009567
1.0110448
1.0104105
1.0112295
1.0105312
1.0116878
1.0110932
1.0118125
1.0119196
1.0135093
1.0088217
1.0150929
1.0145839
1.0089498
1.0118403
1.019365
1.0140235
1.0085862
1.0121354
1.0174773
1.0142413
1.0089334
1.0083371
1.0049301
1.0084264
1.0077692
1.0096101
1.0089222
1.009719
1.0109036
1.0104167
1.0101485
1.0107412
1.0108633
1.0110316
1.0104643
1.0118137
1.0107619
1.0118516
1.0122865
1.0131946
1.008682
1.0150651
1.0152558
1.0080503
1.0110169
1.0194783
1.0144829
1.00597
1.0105483
1.0183875
1.0163694
1.0092855
1.0065555
1.0049399
1.0100212
1.0083776
1.0091783
1.0098072
1.0106788
1.0091698
1.0102697
1.0109808
1.0101877
1.0111503
1.0108711
1.0107937
1.0119051
1.0105533
1.0116496
1.0127012
1.012812
1.0093329
1.0143461
1.0151601
1.0085273
1.0108055
1.0176472
1.0140576
1.005872
1.0093615
1.0167601
1.0175823
1.0112297
1.0071846
1.0050769
1.01033
1.0084357
1.0087226
1.0104188
1.0110637
1.0082166
1.0100848
1.0114503
1.0098108
1.0111533
1.0107383
1.0111352
1.0116448
1.0108219
1.0114058
1.0125952
1.0121741
1.0109582
1.0133249
1.0141715
1.0100962
1.0113926
1.0153345
1.012922
1.0080359
1.0100047
1.0138832
1.0157908
1.0131796
1.0103332
1.0051935
1.0087565
1.0079378
1.0087065
1.0102901
1.0107827
1.0086871
1.0100058
1.0111731
1.009954
1.0109805
1.0107243
1.0113114
1.011042
1.0112943
1.0115339
1.0123122
1.0113294
1.013052
1.0121698
1.0121916
1.0124836
1.0127869
1.0130345
1.0110375
1.0117507
1.0129178
1.0122276
1.0116949
1.013289
1.0135211
1.0049657
1.0065546
1.0070977
1.0088156
1.0095545
1.0096778
1.0103836
1.0102139
1.0102196
1.0106465
1.0104233
1.0109369
1.0113502
1.0105011
1.0122142
1.0113124
1.0118734
1.0101924
1.014888
1.0115295
1.0099112
1.0143486
1.0152323
1.0113528
1.0088044
1.0149475
1.0173704
1.0125239
1.0082322
1.0114059
1.0147188
1.004603
1.0045955
1.0071764
1.0090578
1.0088179
1.0085689
1.0121295
1.0105571
1.0093733
1.011388
1.0099845
1.011027
1.0113105
1.0101923
1.0121473
1.0119346
1.0118665
1.0093747
1.0160489
1.0117332
1.0082637
1.0143223
1.0176297
1.011062
1.0071916
1.0148765
1.0209768
1.0147307
1.007449
1.0089244
1.0141773
1.0163611
1.0149853
1.0125867
1.0102653
1.0099931
1.0113331
1.0117052
1.010364
1.0092512
1.008898
1.0078054
1.008877
1.0142546
1.0192237
1.0200544
1.0177785
1.0114575
1.0051808
1.0053486
1.0078394
1.0119838
1.0136138
1.0113078
1.0091521
1.0091595
1.0105725
1.0137958
1.0177388
1.0193649
1.0170324
1.0126397
1.0089407
1.0066741
1.0051945
1.006817
1.0113542
1.0131688
1.0122559
1.0106932
1.0086057
1.010307
1.0151775
1.0188174
1.0202048
1.0139454
1.003959
1.0069868
1.0086027
1.0106205
1.0124886
1.0128898
1.0119695
1.0107715
1.0104202
1.011781
1.0140401
1.0150746
1.0141618
1.0116617
1.0078723
1.0045785
1.00299
1.0043124
1.0100548
1.0161576
1.0186242
1.018017
1.0124687
1.0061839
1.0138615
1.0139174
1.0119422
1.0085682
1.0053488
1.0037428
1.0047763
1.0083798
1.013087
1.0168431
1.0179376
1.0158233
1.011827
1.0086154
1.0076879
1.0085346
1.0110571
1.0124728
1.0100312
1.0061467
1.0035731
1.0032275
1.0070187
1.017311
1.0147886
1.0110682
1.0076367
1.0063555
1.0076717
1.0099876
1.0119129
1.0125991
1.0115182
1.0088259
1.0058759
1.0046224
1.0067016
1.011713
1.0174172
1.0208291
1.0180689
1.0095652
1.0007947
0.99688515
0.99861361
1.0054848
1.0091589
1.0082451
1.0083916
1.0096968
1.0120045
1.0143038
1.0154019
1.0145244
1.0115035
1.007057
1.0030594
1.0014061
1.0025184
1.0061832
1.0114395
1.0155791
1.0162463
1.0134619
1.0090558
1.0053767
1.0053835
1.0086791
1.0119855
1.0044063
1.0056939
1.008873
1.0109045
1.0128714
1.0135324
1.0130805
1.0115536
1.009267
1.0074741
1.0072149
1.0084693
1.0104087
1.0118576
1.0112223
1.0081356
1.0041641
1.0016227
1.0022132
1.0067256
1.0138623
1.019637
1.0200583
1.009498
1.0104934
1.0104099
1.0094616
1.0079561
1.0058798
1.0041475
1.0037882
1.005438
1.0087987
1.012707
1.0157104
1.0166689
1.0149886
1.0106933
1.0049156
0.999821
0.99804058
1.000644
1.0067376
1.0134182
1.0174796
1.0171946
1.0158468
1.0139105
1.0109004
1.0073267
1.0039396
1.0013718
1.0003398
1.0013343
1.0044876
1.0087936
1.0126243
1.0144633
1.0136368
1.0107445
1.0069332
1.0038262
1.0032317
1.0052362
1.0082026
1.0100904
1.0102312
1.0086689
1.0062485
1.0118269
1.0102341
1.0080683
1.006466
1.0060523
1.0065622
1.0074861
1.0084844
1.0092046
1.0093169
1.0083524
1.0065036
1.0042057
1.0023608
1.0020633
1.0039394
1.0081219
1.012997
1.0158042
1.0146133
1.0100929
1.0041356
0.99851556
1.0013183
1.0011973
1.0034185
1.0059944
1.0097314
1.013382
1.0154279
1.0150474
1.0123969
1.0082156
1.0035922
0.99914764
0.99690833
0.99724977
1.0004352
1.0056255
1.0115746
1.0162671
1.0176192
1.0153949
1.0101838
1.0036244
0.99780606
0.9980649
0.99933614
1.0021698
1.006391
1.0108687
1.0140796
1.0153845
1.0142796
1.0108846
1.0062029
1.0012846
0.99789727
0.99717582
0.99896487
1.0028204
1.0072895
1.0110096
1.0130208
1.0128045
1.010518
1.0065352
1.0024226
0.99976041
1.0026788
1.0037873
1.0056699
1.0072324
1.0085465
1.0090207
1.0086833
1.0075478
1.0056001
1.0033901
1.0021931
1.0024899
1.0040966
1.0061067
1.0075681
1.0083489
1.0079548
1.007129
1.0051959
1.0029545
1.00099
1.0005005
1.0022736
1.0085678
1.0082864
1.0074654
1.0060407
1.0039633
1.0019672
0.99996005
0.99862639
0.99904486
1.0011518
1.0044414
1.0083476
1.0116582
1.0133056
1.0126026
1.0096942
1.0057536
1.0013231
0.99752096
0.99559016
0.99608295
0.99902175
1.0038612
1.0139557
1.0117248
1.0086437
1.0047031
1.0003979
0.99647022
0.99371168
0.99295583
0.99501963
0.99954394
1.0057313
1.0116722
1.0158645
1.0171313
1.0151838
1.0105931
1.0043621
0.99797747
0.9932259
0.99114691
0.99240124
0.99689554
1.0030515
1.0153025
1.0128507
1.0088394
1.0038572
0.99884337
0.99466754
0.99237664
0.99230837
0.99470156
0.99946058
1.0056513
1.0117074
1.0160975
1.0173548
1.0151887
1.0101439
1.0036819
0.99768935
0.99321642
0.99141972
0.9927707
0.99692888
1.0029983
1.0147477
1.0120052
1.0074327
1.002213
0.99757169
0.9945998
0.99355089
0.99441074
0.99697381
1.0006678
1.0051493
1.0090809
1.0116927
1.012183
1.0105809
1.0071986
1.0028374
0.99887117
0.99602889
0.9946825
0.99586721
0.99915186
1.004173
1.0098504
1.0080452
1.0055014
1.0023898
0.99947897
0.99780233
0.99727891
0.99821524
1.0002084
1.0026006
1.0048761
1.0064377
1.0069692
1.0063971
1.0051654
1.0034077
1.0015508
0.99982835
0.99862014
0.99842215
0.99949184
1.0019941
1.0052398
1.0035294
1.0027588
1.001947
1.0011486
1.0005919
1.000613
1.0012111
1.002445
1.0038929
1.005319
1.0060794
1.0061128
1.0054666
1.0039887
1.0023691
1.0010306
0.99995296
0.99931351
0.99964778
1.0003354
1.0012772
1.0026233
1.00439
1.0009341
1.0007543
1.0009515
1.0011847
1.0014701
1.0019751
1.0028988
1.0039348
1.0049689
1.0055191
1.0057085
1.0054956
1.0045944
1.0029717
1.0009822
0.9993167
0.99855763
0.99899645
1.0002977
1.0017138
1.0028478
1.0039482
1.0049812
1.0021841
1.002058
1.0022233
1.0021483
1.0017171
1.0013349
1.0015991
1.0024509
1.0033004
1.0037553
1.0035641
1.0029291
1.0021404
1.0010521
0.99965598
0.99838036
0.99794242
0.99871043
1.0004704
1.002602
1.0044507
1.0057976
1.0065846
1.0040354
1.0031789
1.0025566
1.0016577
1.0004628
0.99942007
0.9994164
1.0007047
1.0027178
1.0043779
1.0049302
1.0044622
1.003484
1.0021818
1.0005641
0.99882231
0.99745706
0.99727318
0.99878462
1.0015221
1.0043395
1.006107
1.0065632
1.0090572
1.0059356
1.0020951
0.99838993
0.99554765
0.99485292
0.99604952
0.99904569
1.0028086
1.0060807
1.0079998
1.0082326
1.006875
1.0044591
1.0016946
0.99900885
0.99670079
0.99562039
0.99638826
0.99855452
1.0013831
1.0042596
1.0063883
1.0158673
1.0110596
1.0038274
0.9965769
0.99165743
0.99042832
0.99228004
0.99621967
1.0005528
1.0045218
1.0077219
1.0093326
1.0088886
1.0064583
1.0028822
0.99912441
0.99604718
0.99436573
0.99444283
0.99646205
1.0004276
1.0051062
1.0084723
1.0162665
1.0125708
1.0055148
0.9975746
0.99136682
0.98877761
0.98998151
0.99350027
0.99822582
1.00309
1.0071905
1.0097476
1.0102096
1.0082881
1.0042077
0.99928512
0.99475359
0.99190774
0.99196807
0.99557142
1.0024637
1.0098265
1.0133339
1.0059833
1.0068193
1.0054163
1.0015196
0.9965465
0.99245369
0.99131769
0.99325686
0.9974403
1.0025808
1.0074737
1.0110951
1.0121057
1.0095427
1.00378
0.99725635
0.99218985
0.99019334
0.99181818
0.99724123
1.0047889
1.0114856
1.013724
0.99472813
0.99844579
1.0032486
1.0065112
1.005925
1.0017614
0.99703462
0.99489836
0.9963928
1.0008685
1.0061981
1.0097588
1.0103798
1.0077827
1.002477
0.99641898
0.99253589
0.99255003
0.99535632
0.99910991
1.0032909
1.0065966
1.006815
0.99353112
0.99556663
0.99978321
1.0054902
1.0098107
1.0105506
1.0071217
1.0016756
0.99820098
0.9974347
0.99883556
1.0004715
1.0012411
1.0012588
1.0014288
1.0018263
1.0021425
1.0023811
1.0011721
0.99781532
0.99432653
0.99471945
0.99899321
0.9987585
0.99734547
0.99714032
0.9997348
1.0056241
1.0121782
1.0153738
1.0124919
1.0035599
0.99312549
0.98642124
0.98656803
0.99240603
1.0012146
1.009653
1.0146924
1.0139674
1.0084221
1.0003123
0.99172826
0.98717665
0.99142443
1.0009651
1.001929
1.0024918
1.0022941
1.0018393
1.0017758
1.003598
1.0069361
1.0085941
1.0054649
0.99782962
0.990484
0.98851723
0.99385529
1.0034022
1.0117873
1.0145914
1.0109581
1.0030583
0.99663387
0.99377917
0.9927018
0.99421282
0.99877524
1.0109774
1.0087455
1.0059835
1.0022963
0.99734325
0.9920732
0.99108569
0.99638053
1.0058184
1.013782
1.013849
1.0059142
0.99652284
0.99242461
0.99501438
1.0005005
1.0049503
1.0065336
1.0048144
1.0009862
0.99537676
0.98959669
0.98864585
1.0117327
1.0094059
1.0031855
0.99605254
0.9911701
0.99108354
0.99491624
1.0007312
1.0071819
1.0134717
1.0158901
1.0099346
0.99694801
0.98670307
0.98743584
0.99739369
1.008984
1.0133166
1.0090322
1.0008264
0.99516977
0.99344905
0.99262196
0.99620157
1.0002049
1.0035123
1.0049176
1.0044304
1.0040025
1.0039274
1.0034526
1.0022905
1.0003645
1.0005791
1.0050443
1.0091279
1.0054241
0.9963278
0.99182926
0.99599136
1.0040507
1.0089761
1.0080935
1.0042247
1.0010262
0.99656237
0.99620395
0.99781557
1.003427
1.0100028
1.0136763
1.0118739
1.0056328
0.99929474
0.99715422
0.99876531
1.002134
1.0051126
1.0088529
1.0105194
1.0040093
0.99234284
0.98771319
0.99403538
1.0052736
1.0123396
1.0108984
1.0041696
0.99641242
1.0112508
1.0059579
1.0009573
0.99999797
1.0035466
1.0084623
1.0099805
1.0063313
1.0004158
0.9971466
0.99801234
0.99979366
1.000675
1.0046784
1.0115424
1.0112351
1.0003241
0.98966483
0.99037162
1.0009404
1.0086626
1.00688
1.0002825
1.0084617
1.0085629
1.0055081
1.0013048
0.99845292
0.99940005
1.0041946
1.0085952
1.008113
1.0028006
0.99750229
0.99715724
1.0012965
1.005671
1.008413
1.0111017
1.0113594
1.0043377
0.99204436
0.98551377
0.98980903
0.99803737
1.003395
1.00236
1.0046792
1.0074861
1.0080613
1.004966
1.0003169
0.99801666
0.99994508
1.0053009
1.0096641
1.0095437
1.0052858
1.0027237
1.0039638
1.0055166
1.004716
1.0043063
1.0061099
1.0057885
1.0018578
0.99727486
0.99572984
0.99693838
1.0040594
1.0035327
1.0037556
1.005168
1.0065287
1.0058021
1.0030394
1.001184
1.0025987
1.007029
1.0124387
1.0140113
1.0105786
1.004649
0.99988951
0.99761896
0.99592277
0.997358
1.0033365
1.0087144
1.0114796
1.0101999
1.006399
1.0033181
1.0040149
1.0039557
1.0037528
1.00491
1.0076664
1.0106236
1.0111253
1.008559
1.0053286
1.0035256
1.0040494
1.0054878
1.006413
1.0051018
1.0025422
1.0000969
0.99894829
1.0017303
1.0069638
1.011164
1.0106913
1.0061295
1.0031425
1.004722
1.0075633
1.0090448
1.0082539
1.0068728
1.0072437
1.0090229
1.0099689
1.0076687
1.0022
0.99720575
0.99571721
0.99855566
1.0046669
1.0113384
1.014724
1.0134313
1.0094832
1.0075542
1.0082169
1.0081352
1.0049169
1.0077683
1.0063691
1.0071111
1.0090557
1.0089693
1.0064097
1.0020597
0.99905902
0.99925013
1.0019823
1.0054813
1.0074496
1.0075385
1.0071388
1.0075878
1.0093942
1.0118779
1.0132208
1.0116548
1.0076559
1.0026067
1.0009976
1.0009735
1.0088699
1.0064733
1.0033469
1.0017038
1.0015029
1.002456
1.0023861
1.0019576
1.0017165
1.0040246
1.0082396
1.012484
1.014964
1.0143676
1.0113952
1.0081895
1.0062638
1.0056099
1.0043576
1.0004728
0.99714774
0.99725118
1.0027299
1.0036256
1.0034149
1.0027375
1.0017492
1.0023048
1.0045544
1.0071373
1.009961
1.0109727
1.0105965
1.0097705
1.0096443
1.0095332
1.008106
1.0057397
1.0022096
0.99971906
0.99916342
1.0016666
1.0049114
1.008047
1.0106994
1.0147766
1.0009083
1.0017257
1.0035877
1.0054789
1.0082362
1.0100097
1.0111839
1.0119894
1.0101687
1.007182
1.004017
1.0010304
1.0000274
1.0002197
1.0006712
1.0009917
1.002425
1.0053003
1.0099788
1.014423
1.0166665
1.0153201
1.0113346
1.0077088
1.006266
1.0054877
1.0047318
1.0052096
1.0050385
1.0047215
1.0046098
1.0031407
1.0015279
0.99961693
0.99851065
0.99961402
1.0030311
1.0073929
1.0111576
1.0131834
1.0131265
1.0117014
1.0101633
1.0084911
1.0055457
1.0017355
1.0064307
1.006302
1.0050409
1.0022115
0.99997482
0.99781161
0.99693451
0.9968598
0.99842879
1.0013629
1.0036374
1.0061054
1.0089585
1.0115947
1.0134542
1.0139479
1.0111344
1.0065377
1.002662
1.0004009
1.0001947
1.0010614
1.0020797
0.99605192
0.99792345
0.99951589
1.0002485
1.0016607
1.0019363
1.00271
1.0030695
1.0049693
1.0068608
1.0086657
1.0101956
1.0090388
1.0073058
1.0045184
1.0016164
0.99878998
0.99765664
0.99825767
1.0004173
1.0034966
1.007647
1.0112652
0.99593409
0.99698154
0.99889451
1.0010082
1.0041815
1.0056587
1.0072435
1.0068308
1.0065463
1.00541
1.004136
1.0023763
0.99963715
0.99774813
0.99597265
0.99617134
0.99818337
1.0020326
1.0060796
1.0089028
1.0102273
1.0097445
1.0073413
1.0027244
1.0026802
1.0023922
1.0013429
1.0010707
0.99917993
0.9982135
0.99727744
0.99575663
0.99500488
0.99514918
0.995494
0.9966524
0.99878048
1.000622
1.0032817
1.0052502
1.0067238
1.0069148
1.0059851
1.0035183
1.0007785
0.99757413
0.99564914
0.99632907
0.99659475
0.99613902
0.99589762
0.99504843
0.99488533
0.99511954
0.99540686
0.99657288
0.99783511
0.9991476
1.0011791
1.0025738
1.0031032
1.0027208
1.0006151
0.99855753
0.99696032
0.99605927
0.99581297
0.99722373
0.99861767
0.99267463
0.9943301
0.99395939
0.9945864
0.99492232
0.99591919
0.99727844
0.99820756
0.99938669
0.9999029
1.0000238
0.9991958
0.99877016
0.99732653
0.99605008
0.99422803
0.99266579
0.99249725
0.99377066
0.99609925
0.99804877
0.99913752
1.0003293
0.994958
0.9939741
0.99514695
0.99531349
0.99496789
0.99460982
0.99458456
0.99413087
0.99481585
0.99428585
0.99398323
0.99263769
0.99153141
0.99024352
0.99044629
0.99117977
0.99293175
0.99516439
0.99705141
0.99803794
0.99764339
0.99552503
0.99403585
0.9908727
0.99185772
0.99259819
0.99314742
0.99338428
0.99279396
0.9921317
0.99114477
0.99143415
0.99084493
0.99138535
0.99125696
0.99135988
0.99096966
0.99130512
0.99219553
0.99398318
0.99520956
0.99451487
0.99235689
0.98972276
0.98802516
0.98800392
0.99182768
0.99157388
0.99157121
0.99175272
0.99235937
0.99239586
0.99227179
0.99139536
0.99095536
0.99009304
0.99031894
0.99046008
0.9911045
0.99119031
0.9906042
0.98973279
0.98930674
0.98884857
0.98743434
0.98555557
0.98439095
0.98536721
0.9879046
0.99222603
0.99171634
0.9910341
0.99023697
0.98987594
0.99036663
0.99065196
0.99058745
0.98991328
0.98925324
0.98874518
0.98835839
0.98853536
0.98882451
0.98816374
0.98685655
0.98541358
0.98479789
0.98441376
0.98416726
0.98461769
0.98594279
0.98779429
0.99129326
0.99107725
0.99067995
0.9900117
0.9894434
0.98934535
0.98944977
0.98975715
0.98949109
0.98904983
0.98868623
0.98787204
0.98727917
0.98663077
0.98596599
0.98491873
0.98394519
0.98358468
0.98393824
0.98443564
0.98488907
0.98459619
0.9839674
0.99044429
0.99077802
0.99071629
0.99058817
0.99081405
0.99046064
0.98989659
0.98986415
0.98927614
0.98847755
0.98803707
0.9873746
0.98664344
0.98556221
0.98465622
0.98397918
0.98340846
0.98297486
0.98284968
0.98295737
0.98300911
0.98239327
0.98085183
0.99195252
0.99196099
0.9916545
0.99158007
0.99225377
0.99175834
0.9909008
0.99038552
0.98926086
0.98851808
0.98751997
0.98705573
0.98640592
0.98583407
0.98537637
0.98478492
0.98433154
0.98355345
0.98232758
0.98138724
0.98069727
0.98055369
0.97971537
0.99431987
0.99376479
0.99283619
0.99244366
0.99295436
0.99197673
0.99141916
0.9907384
0.98967965
0.99005498
0.98889435
0.98851388
0.98718324
0.98623846
0.98628887
0.98531646
0.98471718
0.98335785
0.98207141
0.98107085
0.97984454
0.97911121
0.97872754
0.99535102
0.99481914
0.99390343
0.99376191
0.99412669
0.99276335
0.99262587
0.99165027
0.99067778
0.99176398
0.99073044
0.99027149
0.98922461
0.98744459
0.98703418
0.98568838
0.98482015
0.98322202
0.98261928
0.98162106
0.98082608
0.97946226
0.97863182
0.99668099
0.99630487
0.9955711
0.99582048
0.99619499
0.99497347
0.99494321
0.99355556
0.99276185
0.99278564
0.99173675
0.99064229
0.99043704
0.98931215
0.98859841
0.98707216
0.98590294
0.98497194
0.98472295
0.98385987
0.98261452
0.98110698
0.98013505
0.99943744
0.9984033
0.99756755
0.99743763
0.9973253
0.99709097
0.99690248
0.99505735
0.99506989
0.99431888
0.99393219
0.99253154
0.99195629
0.9914505
0.99014493
0.98959711
0.98823945
0.98758008
0.98649364
0.98568389
0.98441271
0.98309491
0.98230466
1.0014216
0.99998309
0.9994975
0.99930955
0.99883776
0.99942541
0.99873394
0.99674601
0.99752312
0.99655316
0.99689902
0.99530904
0.99339829
0.99403504
0.99227213
0.99197364
0.99063316
0.99006159
0.98848574
0.98780302
0.98697395
0.98593831
0.98477679
1.0025143
1.0012021
1.0016633
1.0017642
1.0009314
1.0015447
1.0002703
0.99878287
0.99991794
0.99924758
0.99935261
0.99730851
0.99510807
0.99651436
0.99482442
0.99470877
0.99329185
0.99239119
0.99102113
0.99032101
0.98924463
0.98870963
0.98744742
1.0042217
1.0026617
1.0028062
1.002853
1.0032634
1.004105
1.0017901
1.0001305
1.0011762
1.0012722
1.0009771
0.99935094
0.99773433
0.99882602
0.99836932
0.99771728
0.99516633
0.99499714
0.99407523
0.99400256
0.99214668
0.99025577
0.98980276
1.0052456
1.0043865
1.0042407
1.0035004
1.0041279
1.0051004
1.0030195
1.0020676
1.0026135
1.0027112
1.0030467
1.0018557
1.0003798
1.0008049
1.0001966
1.0000837
0.99811015
0.99749299
0.99660212
0.99710889
0.99558318
0.99354553
0.99270905
1.0058923
1.0056703
1.0047427
1.0044864
1.0053132
1.005711
1.004153
1.0039027
1.0043313
1.0037879
1.0043837
1.0032331
1.0018453
1.0024938
1.0018451
1.002946
1.0012765
0.99924077
0.9994421
0.99879831
0.99887313
0.99748768
0.99529394
1.0066163
1.0065692
1.0055335
1.0053295
1.0062147
1.0064093
1.0048821
1.0047924
1.006225
1.0048022
1.0045782
1.0045314
1.003934
1.0039597
1.0032762
1.0041709
1.0033091
1.0010764
1.001417
1.0009892
1.0022207
1.0001285
0.99843434
1.006303
1.0072333
1.0066208
1.0060783
1.0062637
1.0068265
1.0062366
1.0055362
1.0068629
1.0055128
1.0054115
1.0061096
1.0042646
1.0052517
1.0053045
1.005093
1.0051781
1.0028929
1.003084
1.0038848
1.0040644
1.0018948
1.000101
1.0058804
1.0078789
1.0074332
1.0060578
1.0056225
1.0057713
1.0067433
1.0066607
1.0066267
1.0060984
1.0062255
1.007464
1.005292
1.0055998
1.0063707
1.0056955
1.0055282
1.0040965
1.0055918
1.0053865
1.0040728
1.0039221
1.0041036
1.0058873
1.0070339
1.0076256
1.0062411
1.0054613
1.006157
1.00742
1.0075616
1.0060181
1.0052211
1.0061152
1.0080215
1.0069465
1.0050194
1.0059474
1.0071221
1.0065015
1.0044805
1.0060285
1.0068685
1.0057215
1.0040069
1.0052619
1.0073397
1.0066421
1.0070103
1.0071738
1.0062762
1.0058687
1.0072191
1.008369
1.0070336
1.0049898
1.0055886
1.008089
1.0084501
1.0057481
1.005036
1.0076356
1.0087909
1.0059124
1.0042666
1.0059145
1.0075063
1.0051533
1.0044984
1.0072053
1.0070527
1.0078043
1.0079698
1.0072032
1.0059108
1.0054553
1.007516
1.0090225
1.0080301
1.006594
1.0067839
1.0081423
1.007656
1.0059515
1.0065308
1.0078796
1.0071925
1.0056265
1.0064569
1.0084323
1.0077157
1.0050924
1.0069174
1.0067976
1.0071583
1.0075362
1.0075174
1.0071228
1.0068958
1.0073603
1.008422
1.0082835
1.0072097
1.0065327
1.0069355
1.007508
1.0071552
1.0072522
1.008111
1.0081224
1.0067533
1.006221
1.0071508
1.0072191
1.0060545
1.0064618
1.0067585
1.0075504
1.0080143
1.0078104
1.0071052
1.0063508
1.0069737
1.0080542
1.008059
1.0068459
1.006552
1.0080852
1.0086248
1.0071986
1.0060191
1.0069271
1.0085902
1.0076699
1.0057889
1.0063688
1.0082759
1.0079913
1.0069021
1.0067888
1.0069983
1.0073178
1.0074205
1.007197
1.0068451
1.0068885
1.0074077
1.0077245
1.0072889
1.006514
1.0070071
1.0081726
1.0088429
1.0076813
1.0056262
1.0060557
1.0075299
1.008825
1.0075099
1.0060461
1.0058601
1.0072834
1.0070385
1.0061469
1.0054604
1.0061757
1.0073819
1.007533
1.0066694
1.0062959
1.0076423
1.0085873
1.0069805
1.0057634
1.0072426
1.0086658
1.0074714
1.0060228
1.0068807
1.0079955
1.0068086
1.0053013
1.0072455
1.0094877
1.0053097
1.0063279
1.0064338
1.0058396
1.0055589
1.0059265
1.0066902
1.0067406
1.0064688
1.0059557
1.0065653
1.0080099
1.0078368
1.0055554
1.0045257
1.0069441
1.0087314
1.0075204
1.0059582
1.0070123
1.0084268
1.0067516
1.0040906
1.0043651
1.0052575
1.0053777
1.00498
1.0053922
1.0060109
1.0055068
1.0047895
1.0054514
1.0065025
1.006008
1.0045974
1.0052367
1.0078103
1.0077742
1.0058088
1.0049751
1.0062779
1.0075669
1.0063607
1.0050925
1.005612
1.0065954
1.0042994
1.0050066
1.0049288
1.004494
1.0042353
1.0042284
1.0050058
1.0058864
1.0049881
1.003827
1.0049223
1.0064734
1.0058425
1.0047051
1.0056609
1.0063549
1.0049606
1.0038966
1.005579
1.0071034
1.0054677
1.004462
1.006206
1.0047385
1.0046299
1.0038682
1.0038758
1.004895
1.0048505
1.0043101
1.004907
1.0054125
1.0038895
1.0023588
1.0045659
1.0075494
1.0052371
1.0015691
1.0035289
1.0075991
1.0063689
1.0025204
1.0040843
1.0073182
1.0055741
1.0026655
1.0036168
1.0045579
1.0033294
1.0025115
1.0042951
1.0063043
1.004507
1.0010843
1.0017552
1.0058897
1.0069474
1.0030694
1.0007634
1.0036688
1.0066031
1.0051637
1.0025997
1.0032312
1.0050575
1.0052093
1.0042571
1.0031878
1.0028709
1.0010138
1.0034363
1.0052099
1.0034874
1.000691
1.00105
1.0039591
1.0050674
1.0029036
1.0014098
1.0031084
1.0046829
1.0034199
1.0017824
1.002799
1.004688
1.0039847
1.002231
1.0027633
1.0043984
1.0039903
1.0022076
1.0020323
1.0022564
1.0007246
1.0015719
1.0031058
1.0027763
1.0008888
1.0004391
1.0024777
1.0040327
1.0027378
1.0007994
1.0013618
1.0033192
1.0033072
1.0017541
1.0019447
1.0033639
1.002733
1.0012399
1.002318
1.004183
1.0029156
1.0006133
1.0016247
1.0013229
0.99980104
0.99969347
1.0013326
1.0024884
1.001511
1.0000493
1.00061
1.0022871
1.0025297
1.0013964
1.0009473
1.0016191
1.0019048
1.0016231
1.0018067
1.0019839
1.001605
1.0016982
1.0023717
1.0019217
1.0008539
0.99908809
1.0004397
1.0016646
1.0009225
0.99915951
0.99876078
1.000261
1.001777
1.001654
1.000531
0.9998291
1.0002288
1.0012396
1.0017541
1.0011989
1.0002118
1.0003066
1.0014604
1.0019174
1.0009858
1.0004274
1.0013843
1.0019652
1.0000155
0.99909734
0.99910211
0.99986765
1.0003085
0.99989615
0.99931329
0.99949762
1.0002408
1.0004659
0.99994743
0.99965117
1.0002206
1.0010429
1.0008641
0.99972503
0.99912506
1.000237
1.0016393
1.0012677
0.99982944
0.99962093
1.0006922
0.9988463
0.99915348
0.999309
0.99945972
0.99958598
0.99968979
0.99954839
0.99916877
0.99905022
0.9994994
1.0001025
1.0001198
0.99969653
0.99950284
0.99979552
0.99996662
0.99976451
0.99965793
1.0000956
1.0004197
1.0001219
0.9996867
0.99981398
0.99840771
0.99876629
0.99935765
0.99956626
0.99933285
0.99918342
0.99928396
0.99932559
0.99923302
0.99913311
0.99913567
0.9993711
0.99952604
0.99948067
0.99948016
0.99989865
0.99998223
0.99969745
0.99925855
0.99927663
0.99975689
1.000186
1.0002629
0.99871282
0.99863787
0.99884221
0.99929317
0.99957831
0.99940657
0.99925612
0.99909902
0.99895531
0.99884177
0.99858719
0.99897583
0.99997616
0.99999157
0.99965736
0.99901346
0.99900272
0.99941526
0.99973782
0.99981924
0.99970292
0.9995493
0.99954033
0.99788246
0.99868925
0.9993958
0.99967099
0.9997232
0.99911983
0.99839421
0.99854041
0.9989376
0.9993584
0.99976668
0.99908465
0.99862162
0.99883829
0.99976687
1.0003648
0.99969
0.99910075
0.998578
0.99938813
0.99981271
1.0001646
0.99997784
0.9986597
0.9982925
0.99876446
0.9991038
0.9991454
0.99924092
0.99953227
0.99959302
0.99888762
0.99784852
0.99801188
0.99920643
1.0001691
1.0001938
0.99942747
0.99907517
0.99881942
0.99932586
0.99949112
0.99983634
0.99991957
0.99997077
0.99951257
0.998311
0.99798345
0.99838968
0.99952972
1.0003303
0.99984526
0.99850738
0.99779282
0.99842437
0.9990856
0.99885572
0.99879278
0.99935117
0.99973634
0.99955819
0.99912392
0.99932466
0.99988732
0.99954208
0.99896529
0.9990603
1.0002771
1.0011377
0.99862884
0.99853751
0.99776663
0.99807803
0.99955802
1.0006851
0.99976871
0.99791745
0.99714611
0.99812142
0.99950609
0.99952397
0.99885812
0.99929895