/*--------------------------------*- C++ -*----------------------------------*\
| =========                 |                                                 |
| \\      /  F ield         | OpenFOAM: The Open Source CFD Toolbox           |
|  \\    /   O peration     | Version:  2406                                  |
|   \\  /    A nd           | Website:  www.openfoam.com                      |
|    \\/     M anipulation  |                                                 |
\*---------------------------------------------------------------------------*/
FoamFile
{
    version     2.0;
    format      ascii;
    arch        "LSB;label=32;scalar=64";
    class       volScalarField;
    location    "50";
    object      rho_0;
}
// * * * * * * * * * * * * * * * * * * * * * * * * * * * * * * * * * * * * * //

dimensions      [1 -3 0 0 0 0 0];

internalField   nonuniform List<scalar> 
20580
(
1.0040308
1.0067919
1.0043379
1.0052679
1.0055586
1.0062576
1.0077305
1.006665
1.0073908
1.0076637
1.0072331
1.0075152
1.0080232
1.0075486
1.0084474
1.0086092
1.0077736
1.0088031
1.0089502
1.0072609
1.0103285
1.0090698
1.0080887
1.0089385
1.0120775
1.0079905
1.0057928
1.0074981
1.00719
1.0086197
1.0128394
1.0037944
1.0068628
1.0044673
1.0055058
1.0054746
1.0063757
1.0077833
1.0065058
1.0072765
1.0077578
1.0070484
1.007594
1.0078367
1.0075067
1.0086308
1.008398
1.0076367
1.0094671
1.0081504
1.0081324
1.0112633
1.0082756
1.0086376
1.0102698
1.0119223
1.0061663
1.0034204
1.0084689
1.0104171
1.0076702
1.0102239
1.0031416
1.006157
1.0048115
1.0056696
1.0059098
1.006686
1.0073031
1.0065182
1.0070098
1.0076225
1.0069791
1.0078147
1.0076457
1.0076888
1.00861
1.0081001
1.0076502
1.0098563
1.0074268
1.0087121
1.0112864
1.0071115
1.0088489
1.0104248
1.0111853
1.0058334
1.0030059
1.0088141
1.0134755
1.0082
1.0055231
1.002275
1.0049813
1.0052496
1.0057934
1.0065748
1.0070721
1.0065552
1.0068119
1.0069606
1.0073164
1.0071195
1.0079709
1.0075237
1.0079274
1.0084056
1.0078422
1.0078372
1.0099098
1.006912
1.0089745
1.0106455
1.0061929
1.0090183
1.0095348
1.0093404
1.006822
1.0051039
1.0092704
1.0138503
1.0099743
1.0033938
1.0014936
1.0038392
1.0054934
1.0059976
1.0070871
1.0072637
1.006006
1.0072406
1.0072254
1.0070433
1.0074635
1.0078055
1.0076825
1.0080599
1.0081883
1.0078471
1.0080842
1.0097457
1.00679
1.0090833
1.0094378
1.0058437
1.0096099
1.008768
1.0068772
1.0077576
1.0081978
1.0107399
1.0123803
1.0099273
1.0036486
1.0011616
1.0031974
1.0053884
1.0061611
1.0070689
1.0070704
1.0060212
1.0075067
1.0075052
1.006904
1.0078544
1.0075542
1.0079449
1.008081
1.0079827
1.0078533
1.008503
1.0090737
1.0071402
1.0094622
1.0082938
1.005788
1.0106495
1.0086878
1.0049721
1.008269
1.0107561
1.010689
1.0104373
1.008913
1.0054892
1.001391
1.0032601
1.0050276
1.0061788
1.00646
1.0065677
1.0065928
1.0075239
1.0074647
1.0069358
1.0080166
1.0073885
1.0079746
1.0082338
1.007699
1.0080431
1.008908
1.0080358
1.0078463
1.0098551
1.0076743
1.0063981
1.011743
1.009105
1.0044013
1.0087383
1.0127141
1.0093089
1.0068759
1.0071186
1.0083047
1.0020208
1.0041099
1.0046983
1.0061552
1.0057566
1.006027
1.007244
1.0072603
1.0070753
1.0072266
1.0077849
1.0072356
1.007709
1.0083704
1.0073335
1.0081042
1.0091841
1.0072504
1.0085861
1.0098145
1.00734
1.0075001
1.0121353
1.0096559
1.0052442
1.0085659
1.0133083
1.0092995
1.0034925
1.0041519
1.0089166
1.0026611
1.0054552
1.004607
1.005999
1.0054778
1.0058348
1.0076368
1.0068683
1.006674
1.0075428
1.0072969
1.0074212
1.0074252
1.0082904
1.0072775
1.0082916
1.0093382
1.0066884
1.0092383
1.009556
1.0073075
1.008894
1.0114
1.0095073
1.0071014
1.0087079
1.0114313
1.0098702
1.0034871
1.0029758
1.0081336
1.0033292
1.0066669
1.0047164
1.0055642
1.0057101
1.0061957
1.0075776
1.006594
1.0065944
1.0076141
1.0068681
1.0076321
1.0072977
1.007884
1.0076397
1.0081662
1.0090208
1.006836
1.0097609
1.0087034
1.0073938
1.0104566
1.0097526
1.0082039
1.0087284
1.0099056
1.0089356
1.0085632
1.0056023
1.0049359
1.0079066
1.0037875
1.0073421
1.0049734
1.0052328
1.0063995
1.0068347
1.0069835
1.0066304
1.0069526
1.0074507
1.0068927
1.0075375
1.0074729
1.0073662
1.0080598
1.0080315
1.0085269
1.0074011
1.0101203
1.0076022
1.0074398
1.0116954
1.0077833
1.0064297
1.0096913
1.0106464
1.0077862
1.0068552
1.0077916
1.0081791
1.0082823
1.0035456
1.0069382
1.005234
1.0052052
1.0070782
1.007426
1.0063004
1.0068849
1.0074691
1.0071767
1.0073269
1.007337
1.0078758
1.0071439
1.0084577
1.0082834
1.0078826
1.0080585
1.0102115
1.0068696
1.0075849
1.0125346
1.0064594
1.0049287
1.0106182
1.0105822
1.0069236
1.0059433
1.0095047
1.0115916
1.0099317
1.0027018
1.0055843
1.0052286
1.0054534
1.0073018
1.0075288
1.0059727
1.0071417
1.0077075
1.007003
1.0076843
1.0072615
1.0081254
1.007231
1.0085772
1.0083561
1.0075289
1.0086213
1.0098166
1.0067102
1.0076642
1.0126607
1.0064102
1.0043223
1.011326
1.0109689
1.0062194
1.0050012
1.0097467
1.0137404
1.0120871
1.0018415
1.0038527
1.0049634
1.0057919
1.0068494
1.0069659
1.0061747
1.0072184
1.0074721
1.007027
1.0076412
1.007353
1.008122
1.007546
1.0084118
1.0084198
1.007374
1.008966
1.0091711
1.0072803
1.0079539
1.0116995
1.0072138
1.0052259
1.0113968
1.0115278
1.0068333
1.0048436
1.0086998
1.0126252
1.0120738
1.0014936
1.0028928
1.0048426
1.0063356
1.0061324
1.0062854
1.0069983
1.0071262
1.0069201
1.0072232
1.0072208
1.0075213
1.0078286
1.0078114
1.0081258
1.0083552
1.0073733
1.0093907
1.0081485
1.0082309
1.0087307
1.0098266
1.0079705
1.0078157
1.0106529
1.0109998
1.0083284
1.0068243
1.0084174
1.0097137
1.0099268
1.0014687
1.0029984
1.0050723
1.006715
1.0055404
1.0059357
1.0078805
1.0070522
1.0065049
1.007477
1.0069025
1.0076679
1.0073788
1.0079549
1.00788
1.0081472
1.0077719
1.0095597
1.0069378
1.0091816
1.0097671
1.0077531
1.0079288
1.0112187
1.0103165
1.0087198
1.0087454
1.0099142
1.009181
1.0075389
1.0076257
1.0019731
1.0041677
1.0051678
1.0065148
1.0054404
1.0058199
1.0079925
1.007038
1.0065181
1.0074866
1.0070185
1.0076637
1.0070501
1.0080288
1.0076181
1.0079649
1.0081035
1.0095092
1.0061907
1.0097639
1.0107524
1.0064607
1.0072813
1.0133508
1.0108517
1.0061279
1.0077216
1.0121177
1.0107161
1.006833
1.005621
1.0027746
1.0059942
1.0049618
1.0058913
1.0059569
1.0062752
1.007248
1.0069115
1.0069644
1.0071141
1.0072864
1.0075367
1.0069909
1.0080542
1.007408
1.0078533
1.008337
1.0094127
1.0059586
1.0097023
1.011288
1.0059854
1.0067318
1.0132697
1.0114377
1.0045091
1.0063786
1.0124231
1.0123877
1.0075024
1.0045286
1.0033838
1.0074253
1.0046314
1.0054773
1.0068735
1.0070747
1.0060497
1.0068097
1.0075378
1.00674
1.0075104
1.0074562
1.0072497
1.0080617
1.0072436
1.0077061
1.008609
1.0091032
1.0063333
1.009344
1.0111203
1.0062651
1.0067575
1.0120374
1.0109186
1.0044331
1.0056592
1.0109978
1.0128931
1.0089629
1.0053092
1.0034079
1.0076024
1.0045109
1.0053164
1.0073164
1.0074909
1.0054711
1.0067895
1.0078573
1.0066464
1.0076493
1.0074249
1.0076077
1.0078464
1.0075225
1.0076887
1.0085729
1.0085701
1.0074799
1.0089508
1.0101023
1.0072746
1.0074347
1.010626
1.0096365
1.0058037
1.0064747
1.0091157
1.011076
1.0097426
1.0075765
1.0030238
1.0061338
1.0045154
1.0055328
1.0069635
1.0072436
1.0057925
1.0068042
1.0075806
1.0068185
1.0075408
1.0074062
1.0077953
1.0075651
1.007834
1.0079534
1.0085517
1.0078829
1.0089304
1.0085925
1.0083823
1.008684
1.0087819
1.0093331
1.0076562
1.0081442
1.0088957
1.0085708
1.0080129
1.0090007
1.009487
1.0021916
1.0043589
1.0047243
1.006092
1.006267
1.0066712
1.0072691
1.0071626
1.0070034
1.0073756
1.0071924
1.0076202
1.0081905
1.0076255
1.008947
1.0081508
1.008539
1.0070385
1.0101139
1.0085383
1.0065959
1.0095069
1.0109049
1.0084882
1.0058585
1.0098866
1.0126131
1.0099202
1.0063525
1.0077442
1.0104288
1.0016702
1.0034184
1.0059651
1.0073605
1.0058666
1.0070469
1.0095938
1.0075285
1.0063093
1.0078128
1.0071785
1.0085604
1.0095984
1.0101173
1.008585
1.0085719
1.0081808
1.0057561
1.0102759
1.008734
1.0054136
1.0090712
1.0128308
1.0088466
1.0051064
1.0096082
1.0155678
1.0127535
1.0072
1.0073036
1.011095
1.0137123
1.0115024
1.0090986
1.0069537
1.0062627
1.0070627
1.0076873
1.0072024
1.0069146
1.0074276
1.0069545
1.0068626
1.0096456
1.0129796
1.0135861
1.0122524
1.008208
1.003148
1.0025207
1.004144
1.0073606
1.0101777
1.0095969
1.0089729
1.0076771
1.0078019
1.0097247
1.0124962
1.0138315
1.0121374
1.008642
1.0055965
1.0041514
1.0032258
1.0041745
1.0077275
1.0101302
1.0098718
1.0087151
1.0068935
1.0069205
1.0096362
1.0118421
1.0129827
1.0097669
1.0029681
1.0058003
1.0061939
1.0074239
1.0092848
1.0103253
1.0100155
1.0086958
1.0074268
1.0075798
1.0088579
1.0096414
1.0094758
1.008162
1.0057758
1.0036163
1.0023296
1.0027389
1.006748
1.0116813
1.0138753
1.0135498
1.0093012
1.0034402
1.0099479
1.009641
1.0084606
1.0065816
1.0046504
1.003371
1.0036239
1.0057384
1.0090408
1.0121305
1.0134741
1.0123119
1.0091586
1.0058794
1.0043155
1.0043275
1.0057908
1.0076499
1.0076303
1.0060433
1.0043658
1.0035543
1.0048449
1.0123738
1.0113499
1.0082297
1.0053716
1.0041109
1.0048759
1.0063442
1.0077427
1.0087733
1.0089698
1.0078316
1.0056266
1.0039822
1.0046661
1.0076089
1.011217
1.0138282
1.012595
1.0069666
1.000837
0.99783133
0.99860492
1.0032365
1.0080525
1.0066615
1.0061691
1.0065967
1.0079619
1.0096973
1.0107232
1.0103623
1.0083914
1.0053258
1.0024354
1.0009664
1.0014033
1.0037832
1.007826
1.0117592
1.0133066
1.0114281
1.0071702
1.0031372
1.0020167
1.0037422
1.0065318
1.0038394
1.0037688
1.0058645
1.0075104
1.0095308
1.0106335
1.0105294
1.0091163
1.0068956
1.0051626
1.0045984
1.0049913
1.0060649
1.0074432
1.0079841
1.0069286
1.0047642
1.0028182
1.0024205
1.0043523
1.0084981
1.0124773
1.013283
1.0057227
1.0066617
1.0070638
1.0069183
1.0065618
1.0055459
1.0044283
1.0038096
1.0043189
1.0060366
1.0084484
1.0105808
1.0115332
1.0107063
1.0079319
1.0039211
1.0001628
0.99840334
0.99977982
1.0040316
1.0093524
1.0132643
1.0136897
1.0108242
1.0098885
1.0081099
1.0057219
1.0033306
1.0014983
1.0006025
1.0010671
1.0030976
1.0061386
1.0092668
1.0112121
1.0109435
1.0087724
1.005608
1.0028277
1.0016291
1.0022992
1.0040871
1.0061369
1.0075964
1.00774
1.0066347
1.0097785
1.0080863
1.0065067
1.0049568
1.0041446
1.0040851
1.0045379
1.0052333
1.0060304
1.0067179
1.0070138
1.0064138
1.0047952
1.0029956
1.0019691
1.0025638
1.0049794
1.0081263
1.0101603
1.0098242
1.007354
1.0038237
1.0001684
1.0015954
1.0012262
1.0029153
1.0043266
1.006604
1.0090661
1.0104722
1.0103302
1.0086673
1.0060532
1.0034032
1.0006622
0.9989304
0.99849784
1.0000409
1.0033689
1.0078525
1.0117284
1.0130983
1.0115627
1.0077042
1.0030545
0.99876408
0.9983494
0.99949201
1.0015784
1.004692
1.0083133
1.0108559
1.0118147
1.0109067
1.0081365
1.0045775
1.0012502
0.99867108
0.99778813
0.99847793
1.0008587
1.004284
1.0080007
1.0107166
1.0111848
1.0093382
1.0058761
1.0023385
0.99981029
1.0013002
1.0016508
1.003775
1.0054949
1.0073902
1.0081987
1.0081786
1.0070987
1.005138
1.0028663
1.0014823
1.0012377
1.0019533
1.0030228
1.0040667
1.0053276
1.0061707
1.0068092
1.0060099
1.0042581
1.0020765
1.0006946
1.0011141
1.005096
1.0041888
1.0050613
1.0044333
1.0041621
1.0033184
1.0022593
1.00105
1.0006618
1.0012276
1.0028643
1.0053892
1.0076565
1.0087254
1.0082775
1.0065119
1.0044474
1.002285
1.000213
0.99857851
0.99797747
0.99907183
1.0019187
1.0094277
1.0081276
1.0064463
1.003961
1.001289
0.99881293
0.99703976
0.99624439
0.99715372
0.99978364
1.0038855
1.0081977
1.0114035
1.0123598
1.0108889
1.0076876
1.0036343
0.99961781
0.99651288
0.99468939
0.99492086
0.99751221
1.001648
1.0124404
1.0107135
1.007842
1.004035
0.99997199
0.99674352
0.99510925
0.99482863
0.99613777
0.99922273
1.0038711
1.008811
1.0125928
1.0138155
1.0121028
1.0080992
1.0031875
0.99883159
0.99570135
0.99410884
0.9947192
0.99736653
1.0016791
1.0136898
1.011252
1.0074437
1.002749
0.99866837
0.99594034
0.99524362
0.99577268
0.99733001
0.99986243
1.0035245
1.0073292
1.01047
1.0113349
1.009817
1.0065809
1.0024858
0.99912786
0.99689118
0.99566094
0.99608583
0.99826126
1.0023512
1.011047
1.0089822
1.0060061
1.0023858
0.99926003
0.99763546
0.99751452
0.99828149
0.99964682
1.0013715
1.0035832
1.0059657
1.0076989
1.0079053
1.0064866
1.004072
1.0015083
0.9995806
0.99847095
0.99803051
0.99842014
1.0002109
1.0030451
1.0068575
1.0054105
1.0033783
1.0012499
0.99977684
0.99944972
1.0000885
1.0011429
1.0023269
1.0035759
1.004809
1.00602
1.0066279
1.0060536
1.0043178
1.0021505
1.0002938
0.9992834
0.99919024
0.99935261
0.9998209
1.000997
1.003041
1.0049122
1.0039125
1.0024652
1.0010558
1.0002775
1.0004251
1.0014142
1.002478
1.0033332
1.003914
1.004556
1.0052075
1.0053454
1.0045778
1.0027652
1.0005803
0.99919392
0.99903685
0.99961497
1.0003788
1.0011947
1.0024246
1.0040615
1.0054427
1.0043885
1.0029591
1.0015179
1.0005046
1.000161
1.0005756
1.0015153
1.0023843
1.0030429
1.0035156
1.0038038
1.0036426
1.002804
1.0012987
0.99969204
0.99878072
0.99891155
0.99980049
1.000987
1.0023339
1.0038288
1.0053837
1.0069278
1.0052202
1.0029335
1.0007957
0.99937348
0.9987983
0.99916394
1.0003757
1.0020131
1.003607
1.0047233
1.0051278
1.004716
1.0035383
1.0018183
1.0000375
0.99864255
0.99800724
0.99848786
0.99997749
1.0020459
1.0040953
1.0056304
1.0102811
1.0071084
1.002556
0.9985292
0.99609563
0.99588868
0.99705878
0.99925976
1.001792
1.0043667
1.006571
1.0076192
1.0069575
1.0048802
1.0023266
1.0000198
0.99819017
0.99717639
0.99707828
0.99804023
1.000202
1.0031878
1.0058204
1.0139639
1.0100297
1.003775
0.99792974
0.99435258
0.99358544
0.99490325
0.99729542
1.0000616
1.0031157
1.0061582
1.0080937
1.0080597
1.0060106
1.0030809
1.000222
0.9978109
0.99605867
0.99545978
0.99683499
1.0003226
1.0046997
1.0077832
1.0121447
1.0098087
1.0049483
0.99964594
0.9955749
0.99351671
0.99370817
0.99538506
0.99844699
1.0023595
1.0059172
1.0081818
1.008591
1.0068904
1.0037061
1.0001283
0.9966818
0.99428434
0.99398576
0.99683969
1.0024271
1.008205
1.0107106
1.0039851
1.0047801
1.004308
1.0027415
1.0003062
0.99741589
0.99564027
0.99581762
0.99798876
1.0016835
1.0056109
1.0085492
1.0093897
1.0074352
1.0033808
0.9988271
0.99522756
0.99382402
0.99499382
0.99855603
1.0034076
1.0077706
1.0096222
0.99712678
0.99911481
1.0021891
1.0055654
1.006709
1.0045191
1.000558
0.99765893
0.99780528
1.0007408
1.0043858
1.0064064
1.0064608
1.0051018
1.0025425
0.99930772
0.99696578
0.99679233
0.99834609
1.0000507
1.0016345
1.0030216
1.00353
0.99781648
0.99816783
0.999765
1.0034433
1.0074965
1.0094286
1.0079344
1.0040273
1.0004544
0.99824017
0.99770745
0.99832706
0.99933311
1.0005481
1.0024338
1.004228
1.0048504
1.0041588
1.0020572
0.99824356
0.99457757
0.99496596
0.99946631
1.0017484
0.9998949
0.99857114
0.99989066
1.0041418
1.0091376
1.0119328
1.0103231
1.0042202
0.99628719
0.99041116
0.98966387
0.9940083
1.0014045
1.0085933
1.0126488
1.0116151
1.0068017
1.000448
0.99451675
0.99139042
0.99421324
1.0010742
1.0036252
1.0036378
1.0031343
1.0027857
1.0020552
1.0017723
1.0028983
1.0046302
1.0045924
1.0014526
0.99692198
0.99442558
0.99656036
1.0021173
1.007469
1.0095674
1.0078142
1.0034236
0.99954205
0.99786103
0.99682755
0.99631827
0.99815941
1.0100523
1.007601
1.0047987
1.0021435
0.99862356
0.99452774
0.99314451
0.99665307
1.0043782
1.011919
1.013402
1.0074336
0.99846892
0.99328608
0.99442641
0.99929518
1.0040637
1.0065997
1.0056246
1.0021249
0.99781271
0.99381605
0.9929921
1.007774
1.0065431
1.0028412
0.99891702
0.9959916
0.99544965
0.99768041
1.001565
1.0056239
1.0092257
1.0110004
1.0081278
1.0002084
0.99265402
0.99160263
0.99745525
1.005697
1.0095743
1.0073532
1.0025314
0.99914991
0.99839034
0.99782445
0.99701018
0.99984823
1.0034548
1.0061945
1.0063537
1.0050404
1.003549
1.002384
1.0015395
1.0005164
1.0004533
1.0034338
1.0075096
1.0066048
1.0000838
0.99475354
0.99600963
1.0019896
1.0076233
1.0083907
1.0056276
1.0026684
0.99934296
0.99996007
0.99992171
1.0028083
1.0073413
1.0102098
1.0093588
1.0053606
1.000865
0.99907757
0.9999137
1.0019289
1.003249
1.0052597
1.0075826
1.0054005
0.9979381
0.9929174
0.99536671
1.002507
1.0083863
1.0091009
1.0055253
1.0002411
1.0098864
1.0056652
1.0014231
1.0000936
1.0020479
1.0057191
1.0078343
1.0063295
1.0021529
0.99883632
0.99860132
0.99990496
1.0010586
1.0037999
1.0090455
1.0104268
1.0034991
0.99428078
0.9920075
0.99874429
1.0068082
1.0081261
1.0044609
1.0058763
1.0063768
1.005264
1.0029503
1.0005298
0.99984704
1.0023965
1.0058752
1.0068784
1.0041524
1.0000936
0.9988257
1.0015239
1.0050228
1.0066625
1.0077814
1.008315
1.005104
0.99720998
0.99175636
0.99358924
0.99887516
1.0027736
1.002547
1.0036235
1.0058195
1.0070355
1.0052984
1.0016745
0.99927855
0.99988269
1.0039411
1.0080548
1.0090421
1.006003
1.0031763
1.0029675
1.0038685
1.0032604
1.0026006
1.0042311
1.0054581
1.004342
1.0019325
1.0001054
0.99971622
1.0038406
1.0032002
1.0031649
1.0042414
1.0055342
1.0055758
1.0040842
1.0027181
1.0031806
1.0055498
1.008899
1.010304
1.0084246
1.0044037
1.0007389
0.9989494
0.99749436
0.99849279
1.0028437
1.0074272
1.0104762
1.0099694
1.0065993
1.0031502
1.0036561
1.0041761
1.0042291
1.0047664
1.0063753
1.008599
1.0093901
1.0077637
1.0049077
1.0023857
1.0018295
1.0028662
1.0046106
1.0050261
1.0043233
1.0029569
1.0018635
1.0030046
1.0058986
1.0089948
1.0088383
1.0056412
1.0036378
1.0042214
1.0065701
1.008114
1.0076477
1.0059
1.005179
1.0059682
1.0069227
1.0060061
1.0027455
0.99932525
0.99815671
1.000099
1.0045505
1.0094355
1.0120244
1.011461
1.0084541
1.0066697
1.0068889
1.0068223
1.0049143
1.00728
1.005687
1.0056614
1.0068162
1.0068272
1.0052093
1.0022258
0.99983283
0.9996822
1.0018336
1.0050716
1.0073841
1.008082
1.00766
1.0070972
1.0073132
1.0085889
1.009737
1.0090895
1.0063388
1.0025858
1.0014005
1.0020116
1.0071565
1.0055021
1.0032929
1.0019748
1.0016374
1.0025864
1.0031804
1.0035684
1.0037014
1.0048269
1.0070469
1.0097475
1.0114662
1.0111321
1.0090863
1.0066269
1.0047691
1.0043294
1.0037342
1.0017877
1.0005176
1.0011371
1.0054252
1.0029437
1.0029386
1.0032504
1.0031126
1.003585
1.0052051
1.0068184
1.0089004
1.0095237
1.0088292
1.0076683
1.0069508
1.0067312
1.0059501
1.0046022
1.0025478
1.0010464
1.0012036
1.0037641
1.0071161
1.0100866
1.0116785
1.0136818
1.0021475
1.0025246
1.0041032
1.0056545
1.0073383
1.0084604
1.0088953
1.0091803
1.0076632
1.0054674
1.0031939
1.001068
1.0005434
1.0014023
1.0026047
1.0036943
1.0052473
1.0074356
1.010554
1.0133404
1.014551
1.013135
1.0097435
1.0075629
1.0062857
1.0055998
1.0046679
1.0042584
1.0038517
1.0033394
1.003309
1.0024268
1.0019884
1.0012279
1.0010799
1.0025655
1.0054017
1.0088917
1.0116775
1.0127882
1.0120866
1.010497
1.0089562
1.0076865
1.0056274
1.0032291
1.004857
1.0050555
1.0049715
1.0028664
1.0012641
0.99981916
0.99907569
0.99919832
1.0003771
1.002906
1.0050999
1.0074299
1.0096688
1.0112798
1.0121957
1.0119462
1.0094924
1.0062612
1.0038094
1.0025539
1.0027339
1.0037694
1.0049209
0.99772325
0.99894982
1.0010209
1.0016569
1.0031664
1.0037152
1.0043175
1.0047583
1.005964
1.0072102
1.0085671
1.0094921
1.0084777
1.006972
1.0047961
1.0027274
1.0011231
1.0011126
1.0021292
1.0039061
1.0061966
1.0088369
1.0108907
0.9993856
0.99994525
1.0013495
1.0025107
1.0044278
1.0052394
1.0059845
1.0057192
1.0054316
1.004966
1.0043875
1.0033332
1.0019259
1.0010406
1.0001745
1.0007271
1.0024493
1.0051902
1.0077951
1.0093356
1.0097383
1.0087976
1.0062756
1.0034021
1.0032697
1.0032671
1.0022008
1.0016049
1.0001771
0.99924925
0.99887682
0.99815318
0.99849878
0.99906919
0.99985303
1.0011273
1.0028673
1.0042762
1.005806
1.0066644
1.0070331
1.0064718
1.0053136
1.0034206
1.0017461
0.99972886
0.99739874
0.99802145
0.99865953
0.99826606
0.99818174
0.99793565
0.99813524
0.99873874
0.99962268
1.0011927
1.0022176
1.0031771
1.0043906
1.0048467
1.0047077
1.0036499
1.0017328
1.0000443
0.99898254
0.99848265
0.99859766
0.99984999
1.0013001
0.99618224
0.99777181
0.99763143
0.99783338
0.99804992
0.99872049
0.99980542
1.0007712
1.0020201
1.0026915
1.0028366
1.0021347
1.0014002
0.99988784
0.99876685
0.99731007
0.99637686
0.9964951
0.99753748
0.99903938
1.000298
1.0006837
1.0014197
0.99725195
0.99653078
0.99798497
0.997891
0.99777947
0.99731605
0.99740327
0.99738056
0.99824792
0.99821434
0.99824195
0.99739182
0.99652043
0.99537604
0.99528069
0.99569997
0.99696176
0.99843262
0.99930463
0.99930951
0.99855964
0.9968964
0.99591613
0.99415127
0.99515306
0.99576268
0.99610979
0.99643184
0.99608921
0.99593425
0.99577262
0.99617709
0.99617748
0.99667887
0.99665084
0.99664665
0.996155
0.99594338
0.99598652
0.99674632
0.99711955
0.99603892
0.99412386
0.99216235
0.99132868
0.99174264
0.99518653
0.99514467
0.99512878
0.9951166
0.99538967
0.99555738
0.9958461
0.99585185
0.99582746
0.99565374
0.9956838
0.99568773
0.99588093
0.99563065
0.9947725
0.99352049
0.99260572
0.99187311
0.99062138
0.98934989
0.98870521
0.98968969
0.99165744
0.9948803
0.9949306
0.99464537
0.99395514
0.99347874
0.99384289
0.99436444
0.99497476
0.9950471
0.99501817
0.99457481
0.99417529
0.99382272
0.99354057
0.99264536
0.99126601
0.98983081
0.98904829
0.98864267
0.98852186
0.9888092
0.98965123
0.99060821
0.99381952
0.99413536
0.99426115
0.99388768
0.99343252
0.9932605
0.99351777
0.99416022
0.99451237
0.99454902
0.99431035
0.99367329
0.99283264
0.99183909
0.99085487
0.98969258
0.98868382
0.98800408
0.98803587
0.98817291
0.98835086
0.98788046
0.98708637
0.9930276
0.99383252
0.99425267
0.99419652
0.99433832
0.99418774
0.99388803
0.99419505
0.99417607
0.99381914
0.99366155
0.99304997
0.99228163
0.99109195
0.98992378
0.98901658
0.98824786
0.9874257
0.98688677
0.98652509
0.98640828
0.98573158
0.98451648
0.99406667
0.99467437
0.99491809
0.99467671
0.99500135
0.99478388
0.99419211
0.99429552
0.99397482
0.99367193
0.99339339
0.99282452
0.99221621
0.99144996
0.99056826
0.98957121
0.9886728
0.98762123
0.98623603
0.98507116
0.98431434
0.98396137
0.98322669
0.99545522
0.99569886
0.9955745
0.99510356
0.99532804
0.99476359
0.99424122
0.99427495
0.99405402
0.99455947
0.9942002
0.99386657
0.99275823
0.99184171
0.99142046
0.99004554
0.98882707
0.98734908
0.98587605
0.98477291
0.98340038
0.98257224
0.98198207
0.99597689
0.9962481
0.99616876
0.99598602
0.99630074
0.99540413
0.99513276
0.99473643
0.99432596
0.99546558
0.99496429
0.99490571
0.99409961
0.99267965
0.99209909
0.99052644
0.98939875
0.98777846
0.98676402
0.98550726
0.98415386
0.98269577
0.98159819
0.99699251
0.99733311
0.99735597
0.99749229
0.99786169
0.99682111
0.99678982
0.995971
0.99530414
0.99590933
0.99527988
0.99497679
0.99490672
0.99384376
0.99334616
0.99176301
0.99073996
0.98938819
0.98880613
0.98753367
0.98601814
0.98436142
0.98297912
0.99884952
0.99875471
0.99870295
0.99868586
0.99875291
0.99810156
0.9981416
0.99707227
0.99688666
0.99693015
0.99661518
0.99609238
0.99593884
0.99529888
0.9946577
0.9937972
0.99270354
0.99161896
0.9905559
0.98927492
0.98785242
0.98647682
0.98537908
0.99959696
0.9996668
0.99987479
1.0000055
0.9999103
0.99987931
0.99961456
0.99827256
0.99855907
0.99824244
0.9984259
0.99761999
0.99684834
0.99729622
0.99617591
0.99573661
0.99468122
0.9938508
0.99249085
0.99139782
0.9904528
0.98938257
0.98808666
1.0011149
1.0005685
1.0012843
1.0017793
1.0013213
1.0014884
1.0009193
0.99969741
1.0003784
0.99999387
0.99985598
0.9985664
0.99750979
0.99883225
0.99773535
0.99789642
0.99676995
0.99607799
0.99495256
0.99381723
0.99272515
0.99193817
0.99054507
1.0029963
1.0018493
1.0022379
1.0026861
1.0028252
1.003376
1.0020071
1.0006413
1.0015142
1.001589
1.0012044
1.0000967
0.99906373
1.0003498
0.99983171
0.99935011
0.99784992
0.99812949
0.99728361
0.99708815
0.99556143
0.99402325
0.99321292
1.0038247
1.0032958
1.0032772
1.0029316
1.0032236
1.0041599
1.0030509
1.0021045
1.002652
1.0029245
1.0029424
1.0017186
1.0007003
1.001521
1.0011325
1.0009879
0.99949035
0.99953443
0.99890051
0.99945339
0.99816069
0.99681396
0.99594149
1.0043558
1.004522
1.0039346
1.0036222
1.0039912
1.0044822
1.0037962
1.003436
1.0039069
1.0036875
1.0038461
1.0027968
1.0022923
1.0028137
1.0021303
1.0029804
1.0012658
1.0005117
1.0005693
1.0003158
1.0003453
0.99938655
0.9981777
1.0050432
1.0055845
1.0049833
1.0043492
1.0047109
1.0051674
1.0044849
1.004347
1.0053683
1.0041882
1.0040066
1.0041309
1.0037537
1.0039136
1.0032451
1.0040237
1.0031569
1.0019699
1.0017578
1.0018981
1.0026526
1.0009735
0.99988171
1.0050287
1.0060599
1.0056506
1.0048512
1.004917
1.005403
1.0054573
1.0049981
1.0055766
1.004637
1.00479
1.0056799
1.0042828
1.0047611
1.0046982
1.0047648
1.0048742
1.0033165
1.0032825
1.0039405
1.0039946
1.002586
1.0014091
1.0048427
1.0062806
1.0061934
1.0049575
1.0044749
1.0045644
1.0054751
1.0057474
1.0054452
1.0051226
1.0052206
1.0062685
1.0051436
1.0047709
1.0053365
1.0053743
1.0053132
1.0041802
1.0050955
1.0049098
1.0042777
1.0040016
1.0044208
1.0053071
1.0057855
1.0062312
1.0052134
1.0043646
1.0047988
1.0058065
1.006204
1.0051412
1.0043942
1.0049781
1.0065076
1.0063822
1.0045018
1.0048299
1.0061182
1.0060256
1.0044889
1.0049663
1.0057074
1.0057446
1.0041875
1.0047016
1.0066528
1.005755
1.0056077
1.0057845
1.0054463
1.0048749
1.0055259
1.0065108
1.0059966
1.0045313
1.0046906
1.0064434
1.0072549
1.0053606
1.0044227
1.0061222
1.0074986
1.0057735
1.003902
1.0047951
1.006618
1.0052443
1.0043037
1.0065224
1.0060519
1.0062436
1.0064103
1.0061402
1.0052699
1.0045751
1.0058568
1.0073444
1.0070565
1.0060002
1.0057122
1.0066077
1.0066733
1.0056376
1.0057382
1.0067739
1.0065304
1.0053731
1.0057458
1.0072989
1.0069894
1.0049367
1.0061302
1.0059323
1.0061376
1.0064121
1.0064256
1.0061567
1.0060025
1.0062728
1.0069848
1.0069761
1.0063581
1.0059284
1.0062819
1.0067255
1.0065707
1.006525
1.0072321
1.0073229
1.0064534
1.0056973
1.0061621
1.0066664
1.0062285
1.0062176
1.0061437
1.0065093
1.0068021
1.006823
1.0064397
1.0057628
1.0060361
1.0069383
1.0073172
1.0066
1.0060214
1.0070369
1.0079036
1.0070479
1.0058016
1.006149
1.0075944
1.007505
1.006079
1.0060232
1.0073414
1.0076912
1.0067713
1.0064048
1.0063206
1.0064403
1.006626
1.0067928
1.0067282
1.0065639
1.0067079
1.0068963
1.0069007
1.0065381
1.0067524
1.0074324
1.0078748
1.0073894
1.0061029
1.0061529
1.0070649
1.0078613
1.0072955
1.0061757
1.0059529
1.0071272
1.0067054
1.0059978
1.0054607
1.0059898
1.0068982
1.0071023
1.0065911
1.0062284
1.0070883
1.0080157
1.0071813
1.0059384
1.0067372
1.0079794
1.0073879
1.006193
1.0066827
1.0078002
1.0069979
1.0056127
1.006858
1.0088769
1.0051777
1.0060049
1.0061824
1.0057228
1.0055134
1.005884
1.0065835
1.0066988
1.0065668
1.0061065
1.0063173
1.0075985
1.0078217
1.006145
1.004955
1.0065808
1.0083688
1.0076358
1.006117
1.0065395
1.0078775
1.0067624
1.004648
1.0042213
1.0050988
1.0052917
1.0049261
1.0053765
1.0060905
1.0058139
1.0051969
1.0058346
1.0069791
1.0066394
1.0052035
1.0054549
1.0075629
1.0078593
1.0061286
1.004968
1.0059272
1.0074285
1.0064093
1.0048226
1.0053986
1.0068675
1.0043277
1.0052168
1.0054697
1.0048808
1.0046911
1.0049631
1.0058445
1.0066711
1.0060176
1.0048225
1.0052922
1.0067937
1.0066991
1.0052343
1.0050823
1.0058962
1.0057016
1.0045585
1.0047568
1.0060769
1.0057323
1.0046905
1.0050328
1.0056451
1.0053348
1.0047772
1.0047155
1.0059877
1.0065223
1.0056761
1.0052334
1.0056653
1.0054105
1.0043118
1.0048935
1.0065054
1.0053944
1.0030194
1.0037552
1.0061176
1.0056157
1.0032626
1.0039383
1.0057719
1.0046675
1.0030354
1.0046322
1.005873
1.0056241
1.0046512
1.0051445
1.0065461
1.0057667
1.0033515
1.0032226
1.0058745
1.0068493
1.0038831
1.0015532
1.0034805
1.0060324
1.0050261
1.0025219
1.0026875
1.0045423
1.0047743
1.0035443
1.0026263
1.003026
1.0036692
1.0048864
1.0063662
1.0054461
1.0031295
1.0027172
1.0046811
1.0059229
1.0043525
1.0023778
1.0028595
1.0042897
1.0039943
1.0025181
1.0024005
1.0037013
1.0037898
1.0025732
1.0024941
1.0035201
1.003511
1.0022956
1.0021289
1.0049559
1.0033117
1.0033474
1.0045543
1.00478
1.0033467
1.0021889
1.0029516
1.0042055
1.0036099
1.0018838
1.0015531
1.0028426
1.0032982
1.0022351
1.0019161
1.0028405
1.0026883
1.0016283
1.0021138
1.0034406
1.0026964
1.0011134
1.0040444
1.0040418
1.0029167
1.0022955
1.0029399
1.0037405
1.0031562
1.0017957
1.0016091
1.0024862
1.0026773
1.0018278
1.0013636
1.0018486
1.0021182
1.0017233
1.0017003
1.0020782
1.0020038
1.0016468
1.0017707
1.0018375
1.0016019
1.0027188
1.0030892
1.0037979
1.0032786
1.0018732
1.0011109
1.0017526
1.002631
1.0024085
1.0013605
1.0005919
1.0007681
1.0015703
1.0020082
1.0015512
1.0006647
1.0005805
1.0015643
1.0020956
1.0012499
1.0005111
1.0012402
1.0020107
1.0033955
1.0023413
1.0019018
1.002253
1.0025551
1.002112
1.001212
1.0007286
1.0009815
1.0012288
1.0009607
1.0005858
1.0006918
1.0011443
1.0011453
1.0005014
1.0000112
1.0006139
1.0015448
1.001343
1.0003184
1.0000738
1.0008717
1.0024572
1.0023823
1.002251
1.002088
1.0018625
1.001629
1.0012398
1.00068
1.0003407
1.0004378
1.0007845
1.0008013
1.0004564
1.0001935
1.0003415
1.0005222
1.00044
1.0002717
1.0004459
1.0006672
1.0005548
1.0002279
1.0002353
1.0021929
1.0020692
1.0022112
1.0021793
1.0017847
1.0013182
1.0009772
1.0006725
1.0004259
1.0002559
1.0001471
1.0001766
1.0002396
1.0002488
1.0002528
1.000494
1.000483
1.0002311
0.99989871
0.99989323
1.0002749
1.0005653
1.0005669
1.0025211
1.0019972
1.0017861
1.0018543
1.0019159
1.0016306
1.0011441
1.0005286
1.000069
0.99993051
0.99977626
0.99996693
1.0006896
1.0006612
1.0002877
0.99976233
0.9997119
1.000038
1.0003583
1.0003814
1.0001978
0.99995185
0.99996826
1.0017673
1.0020379
1.0023577
1.0023107
1.0020877
1.0013796
1.0004059
1.0000909
1.0002206
1.0004123
1.0006648
1.0000678
0.99959106
0.99976532
1.0003446
1.0009054
1.0002541
0.99979562
0.99938666
1.0000275
1.000367
1.0004899
1.0003013
1.0025265
1.0017721
1.0017362
1.0018325
1.0017058
1.001538
1.0014057
1.0009918
1.0002074
0.99934491
0.99927754
1.0000981
1.0008713
1.0008426
1.0001151
0.99974898
0.99962401
1.0000701
1.0002258
1.0002771
1.0002433
1.0003809
1.0001544
1.0021383
1.0016347
1.0015886
1.002125
1.0026418
1.0021607
1.0007571
0.99965666
0.99977037
1.0003232
1.0002315
0.99985869
0.9999791
1.0003267
1.0004457
1.0001384
0.99998844
1.0002022
1.0000584
0.99990791
0.99995703
1.0004459
1.0009191
1.002101
1.0021809
1.0015743
1.0013013
1.0018471
1.0024751
1.001776
1.0002476
0.99920071
0.99946924
1.0003524
1.0004861
0.99998339
1.0000586
1.0008089
1.0008839
0.99957366
0.99874913
0.99969227
1.0012258
1.0013524
0.99995014
0.99892845
1.0007246
1.0021142
1.0032495
1.0025471
1.0013302
1.0009612
1.0013361
1.0013081
1.0003178