/*--------------------------------*- C++ -*----------------------------------*\
| =========                 |                                                 |
| \\      /  F ield         | OpenFOAM: The Open Source CFD Toolbox           |
|  \\    /   O peration     | Version:  2406                                  |
|   \\  /    A nd           | Website:  www.openfoam.com                      |
|    \\/     M anipulation  |                                                 |
\*---------------------------------------------------------------------------*/
FoamFile
{
    version     2.0;
    format      ascii;
    arch        "LSB;label=32;scalar=64";
    class       volScalarField;
    location    "200";
    object      nut;
}
// * * * * * * * * * * * * * * * * * * * * * * * * * * * * * * * * * * * * * //

dimensions      [0 2 -1 0 0 0 0];

internalField   nonuniform List<scalar> 
20580
(
8.9608612e-07
9.6405166e-07
9.3948765e-07
9.1412169e-07
8.9302582e-07
8.739466e-07
8.54792e-07
8.3877472e-07
8.2144923e-07
8.0752556e-07
7.9406036e-07
7.8675376e-07
7.8058504e-07
7.7804251e-07
7.7923296e-07
7.8140621e-07
7.8699679e-07
7.9615991e-07
8.1208037e-07
8.2919316e-07
8.4228082e-07
8.5904337e-07
8.6875993e-07
9.0021674e-07
9.4751555e-07
9.7720066e-07
9.9837862e-07
1.0103472e-06
1.0326051e-06
1.0828511e-06
1.1290773e-06
8.9778445e-07
9.7845321e-07
9.5720116e-07
9.3791602e-07
9.161808e-07
8.9596225e-07
8.7008464e-07
8.4950712e-07
8.3001158e-07
8.1386795e-07
7.9928088e-07
7.9046864e-07
7.8257632e-07
7.7806838e-07
7.770108e-07
7.7652329e-07
7.8248446e-07
7.8985299e-07
8.0366397e-07
8.1833256e-07
8.3389408e-07
8.5072191e-07
8.6751926e-07
8.9526645e-07
9.4951757e-07
1.0230059e-06
1.0633466e-06
1.1140814e-06
1.1476772e-06
1.2289934e-06
1.2067994e-06
8.9773739e-07
9.8579473e-07
9.6325177e-07
9.4699466e-07
9.2824456e-07
9.1009377e-07
8.8698909e-07
8.6309941e-07
8.3999251e-07
8.2058993e-07
8.0436771e-07
7.9320705e-07
7.84492e-07
7.7783248e-07
7.7430762e-07
7.7355463e-07
7.7438883e-07
7.8325014e-07
7.9153078e-07
8.0465211e-07
8.2320664e-07
8.3706566e-07
8.570845e-07
8.7902773e-07
9.2386881e-07
1.0053559e-06
1.0549695e-06
1.0900433e-06
1.1406182e-06
1.2071108e-06
1.3247954e-06
8.9805917e-07
9.8733599e-07
9.6758488e-07
9.5304478e-07
9.3400682e-07
9.1470312e-07
8.9519976e-07
8.7438876e-07
8.5145239e-07
8.2861043e-07
8.1038005e-07
7.9618896e-07
7.8622102e-07
7.7883703e-07
7.740654e-07
7.7097141e-07
7.7173429e-07
7.753824e-07
7.8203127e-07
7.866378e-07
8.0497255e-07
8.1514765e-07
8.3361251e-07
8.5129729e-07
8.8711317e-07
9.577449e-07
1.0412092e-06
1.0910905e-06
1.119975e-06
1.1697036e-06
1.2965545e-06
8.9854036e-07
9.9003931e-07
9.6279845e-07
9.4794182e-07
9.3450527e-07
9.2047811e-07
9.0002661e-07
8.7997986e-07
8.5971088e-07
8.3874315e-07
8.2202233e-07
8.0455385e-07
7.9193058e-07
7.834925e-07
7.778721e-07
7.7240983e-07
7.7206599e-07
7.7328079e-07
7.7941829e-07
7.7978696e-07
7.9613991e-07
8.0478745e-07
8.2160142e-07
8.377342e-07
8.7298891e-07
9.1860363e-07
1.0142987e-06
1.0966608e-06
1.1421513e-06
1.2356667e-06
1.2950718e-06
8.9811735e-07
9.9608017e-07
9.6420928e-07
9.4579942e-07
9.3030155e-07
9.1734121e-07
9.0082007e-07
8.8210541e-07
8.6355312e-07
8.4435959e-07
8.3058332e-07
8.1702414e-07
8.0585229e-07
7.9674907e-07
7.8860538e-07
7.8259648e-07
7.8012501e-07
7.7875865e-07
7.8152095e-07
7.8153467e-07
7.9573231e-07
8.0194114e-07
8.1271698e-07
8.2771179e-07
8.4888997e-07
8.8735322e-07
9.6022226e-07
1.0799001e-06
1.1369856e-06
1.2672255e-06
1.3208683e-06
8.9886617e-07
9.9650476e-07
9.6579704e-07
9.4645918e-07
9.2988274e-07
9.1309237e-07
8.9651858e-07
8.7796272e-07
8.6401004e-07
8.4675571e-07
8.3370638e-07
8.2890396e-07
8.1989312e-07
8.2082281e-07
8.1400297e-07
8.1580317e-07
8.1078276e-07
8.0876075e-07
8.0348349e-07
8.0111357e-07
8.0532284e-07
8.0832128e-07
8.1005886e-07
8.2385165e-07
8.3475405e-07
8.4938708e-07
8.8413808e-07
9.8879671e-07
1.0832883e-06
1.2340723e-06
1.3291782e-06
9.0828359e-07
9.9908355e-07
9.7629564e-07
9.5496996e-07
9.3520916e-07
9.1659364e-07
8.9817903e-07
8.79204e-07
8.624738e-07
8.4859528e-07
8.3516075e-07
8.3311277e-07
8.3205459e-07
8.4082025e-07
8.4506868e-07
8.541878e-07
8.5865196e-07
8.6552763e-07
8.6269712e-07
8.6532904e-07
8.5687021e-07
8.5240465e-07
8.4124524e-07
8.3898311e-07
8.4628555e-07
8.5255264e-07
8.6853731e-07
9.1250539e-07
9.7942488e-07
1.0705873e-06
1.2688307e-06
9.6259594e-07
1.1060483e-06
1.0775207e-06
1.0285959e-06
9.8897507e-07
9.5618775e-07
9.2433474e-07
8.9469081e-07
8.6918482e-07
8.5133174e-07
8.3874329e-07
8.3506117e-07
8.3533626e-07
8.4456865e-07
8.5332155e-07
8.64255e-07
8.7420115e-07
8.8285496e-07
8.9045085e-07
8.9972468e-07
9.0348003e-07
9.0633153e-07
9.1231385e-07
9.1443444e-07
9.1030807e-07
9.0736216e-07
9.1446841e-07
9.4625722e-07
1.0094438e-06
1.0687817e-06
1.1726034e-06
1.2876428e-06
1.3628251e-06
1.3478344e-06
1.2956554e-06
1.2192445e-06
1.1376614e-06
1.0431832e-06
9.6367652e-07
9.0618863e-07
8.6902692e-07
8.4746386e-07
8.3672762e-07
8.3801608e-07
8.415702e-07
8.4740441e-07
8.5408668e-07
8.6401726e-07
8.6744875e-07
8.7873612e-07
8.9353629e-07
9.039194e-07
9.1647888e-07
9.3534109e-07
9.6028016e-07
9.7905224e-07
1.0037727e-06
1.054779e-06
1.0792643e-06
1.127951e-06
1.1985983e-06
1.2294625e-06
1.0625884e-06
1.2266714e-06
1.3252051e-06
1.3666045e-06
1.3603367e-06
1.2984551e-06
1.2196121e-06
1.1154719e-06
1.006746e-06
9.270326e-07
8.8322881e-07
8.5903967e-07
8.5351947e-07
8.5415124e-07
8.5620546e-07
8.6185701e-07
8.6338716e-07
8.6777872e-07
8.6875087e-07
8.6963387e-07
8.8478885e-07
8.9735441e-07
9.2250293e-07
9.5779186e-07
9.7802901e-07
1.0087508e-06
1.0547217e-06
1.1437536e-06
1.1951093e-06
1.3362091e-06
1.3649068e-06
8.6437925e-07
9.2055986e-07
1.0402861e-06
1.1488e-06
1.193671e-06
1.2067649e-06
1.1711444e-06
1.1172971e-06
1.0772949e-06
1.0416278e-06
1.003502e-06
9.7199249e-07
9.6107314e-07
9.6537174e-07
9.733261e-07
9.747096e-07
9.6374217e-07
9.5081151e-07
9.2992414e-07
9.1639504e-07
8.9766424e-07
9.0306917e-07
9.2054672e-07
9.3609972e-07
9.5370143e-07
9.7564206e-07
1.0136654e-06
1.0837822e-06
1.1563646e-06
1.2800427e-06
1.4455029e-06
8.6611431e-07
8.5394405e-07
8.7282051e-07
9.0147656e-07
9.2913905e-07
9.4216279e-07
9.5030038e-07
9.7739624e-07
1.0098318e-06
1.0382576e-06
1.07953e-06
1.1294526e-06
1.1757615e-06
1.2194342e-06
1.2644127e-06
1.3033338e-06
1.3150711e-06
1.2865986e-06
1.2420076e-06
1.1873793e-06
1.1009807e-06
1.021822e-06
9.8679431e-07
9.7913194e-07
9.7426506e-07
9.8394362e-07
1.0036205e-06
1.0344259e-06
1.0928106e-06
1.1519609e-06
1.2916453e-06
8.7313037e-07
8.9346817e-07
8.999845e-07
9.1552691e-07
9.3017889e-07
9.2528845e-07
9.1889635e-07
8.9091783e-07
8.9827152e-07
9.4467058e-07
9.9591063e-07
1.0647068e-06
1.1308382e-06
1.190175e-06
1.2415082e-06
1.2804381e-06
1.3111721e-06
1.3170451e-06
1.3068822e-06
1.284131e-06
1.2593558e-06
1.2343843e-06
1.2191356e-06
1.2149066e-06
1.1736692e-06
1.1257944e-06
1.1289813e-06
1.1527028e-06
1.1877797e-06
1.2511432e-06
1.3467182e-06
9.1137314e-07
1.0628415e-06
1.0777397e-06
1.0987135e-06
1.0892145e-06
1.0627433e-06
1.0167191e-06
9.5277745e-07
9.2192867e-07
9.1051481e-07
9.1224798e-07
9.2431233e-07
9.5186182e-07
9.8480558e-07
1.0153275e-06
1.0400191e-06
1.0537212e-06
1.064024e-06
1.0889464e-06
1.1052226e-06
1.1354646e-06
1.1756599e-06
1.2031753e-06
1.240166e-06
1.2839925e-06
1.3536654e-06
1.4300106e-06
1.5365524e-06
1.599315e-06
1.7250889e-06
1.697585e-06
8.884155e-07
1.0225892e-06
1.0752571e-06
1.1225598e-06
1.1268323e-06
1.107782e-06
1.0847781e-06
1.0508144e-06
1.0095044e-06
9.7183851e-07
9.5484882e-07
9.5238299e-07
9.6218159e-07
9.8157635e-07
9.9599368e-07
1.0057558e-06
9.9476954e-07
9.6171228e-07
9.3337616e-07
9.4917605e-07
9.7505601e-07
9.9871499e-07
1.039732e-06
1.1314681e-06
1.2009777e-06
1.3197336e-06
1.3922799e-06
1.5535558e-06
1.7110249e-06
1.9075846e-06
2.1870343e-06
8.7657766e-07
9.519332e-07
9.6466855e-07
9.9379739e-07
1.0081787e-06
1.01329e-06
1.0098824e-06
1.0079865e-06
9.9388439e-07
9.7401978e-07
9.6950165e-07
9.7388658e-07
9.8189735e-07
9.9609246e-07
1.007667e-06
9.9827648e-07
9.7491783e-07
9.5602866e-07
9.299029e-07
9.0308304e-07
9.0662714e-07
9.2566707e-07
9.3479258e-07
9.5941747e-07
1.0072838e-06
1.0891681e-06
1.1939097e-06
1.2826544e-06
1.5234776e-06
1.7059435e-06
2.056997e-06
8.6971436e-07
9.1109146e-07
9.0780599e-07
9.113198e-07
9.1311505e-07
9.1332936e-07
9.1418696e-07
9.1282147e-07
9.0707547e-07
9.0852726e-07
9.1442335e-07
9.1936779e-07
9.2718805e-07
9.3980144e-07
9.4998874e-07
9.4798611e-07
9.4450688e-07
9.3848727e-07
9.2641838e-07
9.1499539e-07
9.0788372e-07
9.0354983e-07
9.0837833e-07
9.1445137e-07
9.3135808e-07
9.603211e-07
1.0028398e-06
1.0359258e-06
1.1263606e-06
1.212707e-06
1.4432156e-06
8.7445842e-07
9.5857994e-07
9.3951322e-07
9.5517802e-07
9.6688111e-07
9.7809804e-07
9.9577229e-07
9.881615e-07
1.002717e-06
9.894429e-07
9.7502001e-07
9.7158031e-07
9.7328855e-07
9.774332e-07
9.7837014e-07
9.7636793e-07
9.7318524e-07
9.6333469e-07
9.5655923e-07
9.492568e-07
9.315239e-07
9.2214885e-07
9.2931017e-07
9.3709336e-07
9.5387913e-07
9.8446577e-07
1.0294572e-06
1.0722076e-06
1.120449e-06
1.2062213e-06
1.2804821e-06
8.8208771e-07
9.6932627e-07
1.050802e-06
1.1436364e-06
1.1892172e-06
1.2210976e-06
1.2197979e-06
1.1862579e-06
1.1779604e-06
1.1430467e-06
1.1036473e-06
1.0822474e-06
1.0713874e-06
1.0680938e-06
1.0679207e-06
1.06334e-06
1.0612864e-06
1.0668142e-06
1.0838042e-06
1.1023597e-06
1.1207095e-06
1.1475615e-06
1.1681965e-06
1.1891767e-06
1.1326813e-06
1.2869814e-06
9.2405328e-07
1.397274e-06
9.1007709e-07
1.5109725e-06
1.5208095e-06
8.7248049e-07
9.4391031e-07
1.0102186e-06
1.1127145e-06
1.2339582e-06
1.2817906e-06
1.465666e-06
1.4723176e-06
1.759659e-06
1.7116444e-06
1.7431659e-06
1.8076489e-06
1.8687214e-06
1.9271049e-06
1.9703497e-06
1.9987813e-06
2.018189e-06
2.0446579e-06
2.0869662e-06
2.1290359e-06
2.1899799e-06
2.2797113e-06
2.3355122e-06
2.3832063e-06
2.4426313e-06
2.5606392e-06
1.5404115e-06
2.7079706e-06
1.950002e-06
2.0492661e-06
2.7023141e-06
9.3822468e-07
1.3505813e-06
1.7521123e-06
1.9727664e-06
2.4482254e-06
2.3281315e-06
3.1583461e-06
3.1698791e-06
4.0097132e-06
3.8894623e-06
3.8497591e-06
4.0132846e-06
4.1179736e-06
4.1884793e-06
4.2433437e-06
4.2676e-06
4.2868492e-06
4.309943e-06
4.3618496e-06
4.410617e-06
4.4690377e-06
4.556758e-06
4.6284556e-06
4.6828374e-06
4.7387735e-06
4.6733674e-06
3.9283032e-06
4.2577731e-06
4.9470098e-06
4.9350833e-06
4.8742792e-06
8.1949682e-07
1.7701182e-06
1.9794781e-06
2.3205628e-06
1.9274047e-06
2.6747744e-06
1.9095099e-06
2.9831677e-06
1.986606e-06
2.9005097e-06
2.7315706e-06
2.6234608e-06
2.5765821e-06
2.551334e-06
2.4750519e-06
2.4427168e-06
2.4431676e-06
2.5302916e-06
2.5234338e-06
2.3479696e-06
2.3881712e-06
2.5940968e-06
2.6416805e-06
2.3175695e-06
2.1838284e-06
2.4240404e-06
3.0274766e-06
2.8083302e-06
2.1642215e-06
2.0046748e-06
2.3009833e-06
3.295031e-06
4.0074474e-06
2.4238257e-06
1.6193453e-06
1.4373796e-06
1.557287e-06
2.2157808e-06
2.4042012e-06
1.9106721e-06
1.4890927e-06
1.4110291e-06
1.5622152e-06
1.502134e-06
1.2963031e-06
1.239361e-06
1.3242736e-06
1.4380367e-06
1.4670391e-06
1.4373718e-06
1.3861602e-06
1.4005119e-06
1.3446741e-06
1.2177285e-06
2.4243173e-06
4.3692056e-06
3.3460991e-06
2.0347002e-06
1.6134997e-06
1.6765375e-06
2.3423765e-06
2.8857412e-06
2.6132556e-06
1.8960487e-06
1.5955783e-06
1.752082e-06
1.7413165e-06
1.6251141e-06
1.4058423e-06
1.429338e-06
1.5611382e-06
1.6183063e-06
1.6254774e-06
1.5616386e-06
1.5644831e-06
1.5531085e-06
1.431465e-06
1.5607762e-06
4.9044654e-06
2.0628925e-06
1.4478558e-06
1.8910795e-06
1.85847e-06
2.5432952e-06
3.2641269e-06
3.1772865e-06
2.460832e-06
1.8463382e-06
1.9226588e-06
1.9279443e-06
1.8753996e-06
1.6900587e-06
1.6049102e-06
1.7309451e-06
1.8337737e-06
1.8337133e-06
1.7380042e-06
1.7529779e-06
1.7798111e-06
1.7690506e-06
1.7137628e-06
3.6886656e-06
3.924375e-06
2.8887994e-06
1.7520337e-06
1.4130318e-06
2.7473377e-06
3.8059656e-06
3.7189548e-06
3.1144343e-06
2.1894906e-06
2.1425576e-06
2.1652369e-06
2.1539454e-06
1.9894532e-06
1.8227812e-06
1.8811977e-06
1.9929932e-06
2.0366157e-06
2.0212494e-06
1.9614457e-06
2.0104568e-06
2.0327915e-06
3.185631e-06
2.7750495e-06
2.1636656e-06
1.9918324e-06
2.1008099e-06
2.6287885e-06
3.370636e-06
4.7669586e-06
4.7414477e-06
4.4354969e-06
3.082155e-06
2.5286518e-06
2.5756918e-06
2.5182665e-06
2.4237523e-06
2.1225411e-06
2.0535093e-06
2.1549009e-06
2.2208736e-06
2.2583286e-06
2.224745e-06
2.2398983e-06
2.2316227e-06
2.7258983e-06
2.5443009e-06
2.2417889e-06
3.5479785e-06
2.5716174e-06
1.7867199e-06
2.2395751e-06
4.5220717e-06
5.5756517e-06
5.4196582e-06
4.4197497e-06
3.2107741e-06
3.2155086e-06
3.1575344e-06
2.9701074e-06
2.6892362e-06
2.3980021e-06
2.5106071e-06
2.6159936e-06
2.6626657e-06
2.5993259e-06
2.544503e-06
2.5418387e-06
1.1894843e-06
2.7420353e-06
4.2150977e-06
3.6721677e-06
3.3905639e-06
3.4188178e-06
3.961709e-06
6.0870649e-06
6.593849e-06
6.7320507e-06
6.1364752e-06
4.3631457e-06
3.9969823e-06
3.9032239e-06
3.5786831e-06
3.2829494e-06
2.9542288e-06
2.9871458e-06
3.1561374e-06
3.1881546e-06
3.2244721e-06
3.1201947e-06
3.1287785e-06
9.7684389e-07
3.5772317e-06
3.0399545e-06
2.8762103e-06
3.844361e-06
4.2849281e-06
4.7486289e-06
6.4624685e-06
8.135642e-06
8.5195589e-06
8.1490613e-06
6.2591433e-06
5.0699862e-06
4.9793895e-06
4.689973e-06
4.1148934e-06
3.6505027e-06
3.5640328e-06
3.8017434e-06
3.8810896e-06
3.729032e-06
3.5785754e-06
3.5863776e-06
1.9641769e-06
1.9124116e-06
4.7392371e-06
5.727928e-06
6.2940748e-06
3.8829963e-06
3.9543299e-06
7.2436484e-06
1.1722206e-05
1.1561196e-05
1.0753958e-05
8.7147984e-06
6.9447796e-06
6.7262411e-06
6.4983152e-06
5.6009948e-06
4.7902618e-06
4.3644671e-06
4.4713627e-06
4.6297314e-06
4.4505619e-06
4.170205e-06
3.9869398e-06
9.9567439e-07
2.1233606e-06
3.4873047e-06
5.2531948e-06
6.8389684e-06
7.726915e-06
8.7561291e-06
1.384623e-05
1.6794693e-05
1.453824e-05
1.448423e-05
1.3357666e-05
1.0298009e-05
9.8294775e-06
9.5859365e-06
8.4438513e-06
6.5387919e-06
5.6008556e-06
5.4922521e-06
5.8860399e-06
5.815937e-06
5.3396355e-06
4.7946176e-06
8.1303741e-07
2.6993822e-06
3.4508434e-06
5.1801755e-06
7.8094483e-06
9.4917823e-06
1.2859654e-05
2.0224483e-05
2.5378936e-05
2.5302231e-05
2.2019486e-05
2.1747054e-05
1.7109177e-05
1.6398814e-05
1.6484097e-05
1.5182604e-05
1.0547722e-05
7.6861937e-06
6.6786571e-06
7.7259488e-06
8.2340029e-06
7.7793813e-06
6.4733184e-06
1.066592e-06
2.2064312e-06
3.7696804e-06
9.2065538e-06
1.2320396e-05
1.231515e-05
1.5900481e-05
2.1914785e-05
3.3764566e-05
4.0630012e-05
3.9429438e-05
3.7523353e-05
2.5612375e-05
2.4742258e-05
3.1255975e-05
2.8897238e-05
1.8837075e-05
1.2494256e-05
9.966096e-06
1.0551295e-05
1.2448071e-05
1.2244556e-05
9.8678755e-06
1.2618743e-06
2.4486606e-06
8.4517341e-06
1.2159503e-05
1.5035054e-05
2.1763009e-05
3.2676114e-05
4.611594e-05
5.1304693e-05
5.5625778e-05
5.5125493e-05
5.4463808e-05
5.3419535e-05
5.4274843e-05
5.6522963e-05
4.8390249e-05
2.9766383e-05
1.9724437e-05
1.5881341e-05
1.5390448e-05
1.728828e-05
1.7405592e-05
1.4621381e-05
1.8347627e-06
4.5381816e-06
1.0213191e-05
1.4181932e-05
2.177471e-05
3.2195185e-05
4.8863766e-05
6.1516954e-05
6.5697385e-05
7.1441018e-05
6.741914e-05
6.9090382e-05
7.8286805e-05
9.6655281e-05
9.3345207e-05
6.9533569e-05
4.2405645e-05
3.1215645e-05
2.6307381e-05
2.4956881e-05
2.7654255e-05
2.7473617e-05
2.2556546e-05
3.4148453e-06
5.558126e-06
1.2481995e-05
1.7929098e-05
2.9017395e-05
4.4502617e-05
6.7379232e-05
7.8831431e-05
8.3947608e-05
9.1538804e-05
9.4252391e-05
0.00010206958
0.00013054726
0.00016284133
0.00016604348
0.00012800796
7.2895736e-05
5.1641816e-05
4.5777963e-05
4.4040878e-05
4.8145373e-05
4.6047515e-05
3.3960658e-05
3.7445146e-06
6.1962693e-06
1.4639684e-05
2.1608353e-05
3.5620147e-05
5.5552478e-05
8.0382734e-05
9.1506725e-05
9.6696113e-05
0.00010507363
0.00011305204
0.00012610497
0.00016689765
0.00020247672
0.00020699667
0.00016802698
9.7607661e-05
7.3016062e-05
6.4512002e-05
6.4104761e-05
6.9954087e-05
6.3484057e-05
4.348704e-05
3.1380061e-06
6.2633259e-06
1.5333309e-05
2.54165e-05
4.2299617e-05
6.5650306e-05
8.9750662e-05
0.00010041869
0.00010546396
0.00011603514
0.00012776593
0.00014496051
0.00019340952
0.0002307226
0.00023451004
0.00019474335
0.00012875211
0.00010977965
0.00011127041
0.00012804233
0.00013338184
0.00010904077
6.6075455e-05
3.5495285e-06
6.8083539e-06
1.4596854e-05
2.9621054e-05
4.8994852e-05
7.4527396e-05
9.7909873e-05
0.00010856509
0.00011517729
0.00013097572
0.00014589916
0.00016855063
0.00022233708
0.00025837246
0.00026051801
0.0002215819
0.00017166793
0.0001624633
0.00018150443
0.00019668534
0.00019344795
0.00015608284
9.4472219e-05
4.615267e-06
8.0074033e-06
1.3834721e-05
2.9450106e-05
5.5355773e-05
8.2995227e-05
0.00010653089
0.00011821108
0.00012798516
0.00014924481
0.00016747301
0.00019652166
0.00025347489
0.00028580036
0.00028257772
0.00024034982
0.00020000933
0.00019502084
0.00021947277
0.00023583233
0.00022630783
0.00017994555
0.0001176283
4.6800091e-06
8.0779812e-06
1.3370995e-05
2.823641e-05
6.1436082e-05
9.1394587e-05
0.0001164963
0.00013048629
0.000144364
0.0001721438
0.00019283157
0.00023237598
0.00028942018
0.0003171641
0.00030886598
0.00027143393
0.00025221014
0.00026218476
0.00029657216
0.00030620431
0.00027989968
0.00020947021
0.00015857226
3.641566e-06
7.6346916e-06
1.4477756e-05
2.5477019e-05
5.5406688e-05
9.993608e-05
0.00012820925
0.00014668665
0.00016781737
0.00017071362
0.00020575692
0.00027983665
0.00032900777
0.00035103899
0.0003488915
0.0003413012
0.00033904685
0.0003611158
0.00037428818
0.00037277302
0.00032235856
0.00024572428
0.00021162337
2.7788598e-06
4.5093738e-06
1.6506204e-05
3.2021334e-05
4.5650413e-05
8.6982994e-05
0.00013844629
0.00014572092
0.00012427087
0.00014991239
0.00027932782
0.00033475064
0.00021903224
0.00022790791
0.00032477631
0.00041849305
0.0004271268
0.00044241552
0.00043606015
0.00040619283
0.00034661724
0.00028594352
0.00027364278
2.1702349e-06
3.8670702e-06
1.4508406e-05
3.4156504e-05
5.8383815e-05
6.805384e-05
8.0149962e-05
8.9448401e-05
0.00012386825
0.00029244908
0.0003431812
0.0002056834
0.00018489705
0.00021345212
0.00034872696
0.00048546711
0.00049628645
0.00047039435
0.00040628126
0.00037153151
0.00036995436
0.00033585032
0.00032263854
1.5663201e-06
5.5372577e-06
1.1609554e-05
3.5521e-05
7.8920291e-05
7.3038462e-05
8.3516446e-05
0.00012461091
0.0002901887
0.00035086044
0.00024071876
0.00022561231
0.00023534587
0.00026920785
0.00042516147
0.00052741705
0.00050483718
0.0003517679
0.00034338397
0.00044037876
0.00038560745
0.00035068546
0.00032201706
1.526188e-06
9.801625e-06
1.3492026e-05
3.4395758e-05
9.2696636e-05
0.00015608122
0.00022066719
0.00029869485
0.0003040668
0.00028711332
0.00033842026
0.00045107097
0.00047863365
0.00051571745
0.00051354151
0.0004527654
0.00044152975
0.00053056658
0.0004892911
0.00043300967
0.00037579845
0.00033484827
0.00029846192
1.9503454e-06
8.7960616e-06
2.0129448e-05
5.9705454e-05
0.00012568613
0.00015251832
0.00018051364
0.00026278892
0.00038537637
0.00043781604
0.00046332409
0.00048761006
0.00051569207
0.00048867947
0.00045136668
0.00055883242
0.00055209774
0.00051235526
0.00046234285
0.00040469632
0.00035261814
0.00030775543
0.0002624124
3.4335706e-06
1.5658956e-05
4.0921564e-05
9.2115732e-05
0.00013649895
0.00014676142
0.00018013161
0.00026092818
0.00043340765
0.00047097183
0.00045238363
0.00033574252
0.000349179
0.000502644
0.00057468129
0.00055405825
0.00046580573
0.00039036651
0.00041254577
0.00036874547
0.00032023074
0.00026662208
0.00023645853
6.1943779e-06
2.4991584e-05
6.0726965e-05
0.00012789158
0.00019992288
0.00026652996
0.00033688268
0.00040457367
0.00041167309
0.0003969084
0.00046040312
0.00056254899
0.00057903679
0.00057999756
0.0005524101
0.0004871286
0.00044058618
0.00038968039
0.00035315069
0.00031703387
0.00027516654
0.0002507954
0.00023719858
4.6448337e-06
3.2375212e-05
8.2047402e-05
0.00015685038
0.00023082264
0.00030064599
0.00037037335
0.00043396794
0.00048523017
0.00052476481
0.0005501603
0.00056296039
0.00056447177
0.00054853065
0.00050608553
0.00044501579
0.00038003454
0.00033432661
0.00030357269
0.00027847686
0.0002624345
0.00025841309
0.00026350471
4.0032373e-06
3.8401591e-05
9.2494726e-05
0.00017884487
0.0002560519
0.00033110167
0.00040175649
0.00046288642
0.00050633679
0.00052792253
0.00053525263
0.00052515895
0.00050176693
0.00049636038
0.00045361867
0.00039381309
0.00033915607
0.00030889351
0.00029084157
0.00028670228
0.00028607749
0.00030089091
0.00034666272
5.7062314e-06
5.2775981e-05
0.00012197187
0.00020023287
0.00027715847
0.00035149762
0.00041867472
0.00047176885
0.0005047296
0.00051527817
0.00051144
0.00049512722
0.00047181771
0.00044108918
0.0003957944
0.00034220449
0.00031527817
0.00030063529
0.00030677708
0.00032409933
0.00035459211
0.0004039537
0.00046168174
1.1040513e-05
6.4892843e-05
0.00014161721
0.00022040883
0.00029445522
0.00036165281
0.00041975695
0.00046505565
0.00049045571
0.00049708946
0.00048913666
0.00046574635
0.00043309152
0.00039172366
0.00034284697
0.00031354895
0.00030254496
0.00031031488
0.00034635755
0.00040399989
0.0004591983
0.00044924066
0.00035788618
9.5781357e-06
7.3783914e-05
0.00015458902
0.00023496587
0.00030762929
0.0003701239
0.00041874121
0.00045255005
0.00046778817
0.00047021022
0.00045729148
0.00042927297
0.00039159138
0.00035163706
0.00032538557
0.00031468559
0.00032073296
0.00035592116
0.00043123995
0.00049664748
0.00054191033
0.00056670168
0.00036242343
8.8696063e-06
8.0921033e-05
0.00016315985
0.00024308393
0.00031464891
0.00037550772
0.00042193566
0.00044636687
0.00045130843
0.0004428453
0.00041607901
0.00037944135
0.00035081268
0.00033361966
0.00033184541
0.00034256808
0.00038211615
0.00045825167
0.0005196255
0.00055773751
0.00058148091
0.00058238369
0.0004818008
1.6677554e-05
9.629639e-05
0.00017872302
0.00025990599
0.00032863944
0.00038259126
0.00041597372
0.00042696903
0.00042306454
0.00040306927
0.00037164851
0.00034777689
0.00033485411
0.00034040625
0.00036462362
0.00041433164
0.00047791253
0.00053840279
0.00057752097
0.00057036191
0.00056893999
0.00052030993
0.00045142673
1.9689475e-05
0.00010141558
0.00018312209
0.00025941353
0.00032218047
0.00036919744
0.0003969232
0.00040693046
0.00040439993
0.00038714306
0.00036061097
0.00034222138
0.0003360944
0.0003517783
0.00039067158
0.00044746112
0.00051156634
0.00056172169
0.00058009697
0.00056429959
0.00050005876
0.0004775888
0.00045865148
1.9379372e-05
0.00010294525
0.00018204966
0.00025527584
0.0003149266
0.00035801554
0.00038177072
0.00038881068
0.00038481026
0.00036872027
0.00034738591
0.00033501039
0.00033699618
0.00036307828
0.00040962206
0.00046521373
0.00051324561
0.00054569245
0.0005560183
0.00054361165
0.0005150491
0.00042570952
0.00031255811
1.9124582e-05
0.00010442966
0.00018094258
0.00025028346
0.0003067097
0.00034736128
0.00036908989
0.00037416395
0.00036800069
0.00035131574
0.0003347161
0.00032775019
0.00034054332
0.00037991724
0.00043345501
0.00048486122
0.00052131367
0.00054219007
0.00054373842
0.00052979374
0.00051043394
0.00049583497
0.00033981594
1.9117754e-05
0.00010750626
0.00018118877
0.00024594374
0.00029758438
0.00033437281
0.00035366012
0.00035819419
0.00035192675
0.00033638235
0.00032489507
0.0003249333
0.00034971482
0.0003973021
0.00045207257
0.00049435959
0.00052531692
0.00053848496
0.0005368535
0.00052530431
0.00051031139
0.00041839882
0.00035949603
1.8946288e-05
0.00010954704
0.00018093229
0.00024161538
0.00028869022
0.00032098159
0.00033668955
0.0003399131
0.00033379568
0.00032316225
0.00031771971
0.00032870267
0.0003657408
0.00041801539
0.00046761199
0.00050471363
0.00052997166
0.00053867
0.00053467859
0.00047190121
0.00041396722
0.00038811717
0.00038750861
1.837116e-05
0.00010888877
0.00017959135
0.00023724175
0.00028078862
0.00030944099
0.00032209248
0.00032355393
0.00031710602
0.00031046313
0.00031232325
0.00033584974
0.00038238293
0.000437147
0.0004790066
0.00051211998
0.00053155635
0.00053670045
0.00048981307
0.00044034051
0.00042616138
0.00046184871
0.00041033156
1.7851333e-05
0.00010797693
0.00017713809
0.00023308131
0.00027432024
0.00029979448
0.00031020243
0.00031039677
0.00030413108
0.00030041616
0.00031005295
0.00034447582
0.00039632728
0.00044740266
0.0004851642
0.00051529974
0.00053088052
0.00053285492
0.0005061186
0.0004864016
0.00047629903
0.00045336283
0.0004104163
1.7796688e-05
0.00010717204
0.00017439957
0.00022716456
0.00026613979
0.00028949317
0.00029838393
0.00029826675
0.00029354822
0.00029339415
0.00031058331
0.00035251761
0.00040655372
0.00045280354
0.0004888885
0.00051613692
0.0005291428
0.00052830989
0.00051385818
0.00046067316
0.00042194782
0.00038939735
0.00033004878
1.7414199e-05
0.00010586318
0.00017324699
0.00022363256
0.0002583286
0.0002787953
0.00028652282
0.00028617407
0.00028315645
0.00028727961
0.0003115179
0.00035827085
0.00041276033
0.00045578797
0.00049087851
0.00051531784
0.00052572638
0.00052221508
0.00047130861
0.00040122094
0.00035654915
0.00032187573
0.0003130549
1.6288574e-05
0.00010035204
0.00016813058
0.00021982673
0.00025499929
0.00027322512
0.00027923224
0.00027779997
0.00027512283
0.00028166444
0.00031066859
0.00036048342
0.00041422884
0.00045538192
0.00048958762
0.00051177946
0.00052006162
0.00051037478
0.00044587285
0.00039242749
0.00036832245
0.00035740605
0.00036367057
1.5549948e-05
9.2436085e-05
0.00015746264
0.00020753217
0.00024487713
0.00026716907
0.00027453327
0.00027313585
0.00027054274
0.00027755188
0.00030719475
0.00035698869
0.00040968646
0.00045017008
0.00048399331
0.00050532249
0.0005128542
0.00050771296
0.00049356047
0.00044541254
0.00041693496
0.00040544289
0.000387936
1.4967199e-05
8.9047223e-05
0.0001514252
0.00019983871
0.00023228438
0.0002540182
0.00026480294
0.00026541992
0.00026330065
0.00027067654
0.00030012192
0.00034876875
0.00040076741
0.00044119576
0.00047486454
0.0004964685
0.00050455143
0.00050094876
0.00049140651
0.00046092007
0.00040574491
0.00037417104
0.00035890135
1.357118e-05
7.8428665e-05
0.00014026294
0.00019081136
0.00022746774
0.00024682492
0.0002559594
0.00025778574
0.00025567369
0.0002609528
0.00028737106
0.00033562658
0.00038874666
0.00043161258
0.00046522847
0.00048756791
0.00049675365
0.00049424491
0.00048899009
0.00045629073
0.00040496153
0.00037922511
0.00037811006
1.210702e-05
6.2391549e-05
0.00012197955
0.00016934677
0.00020998752
0.00023887079
0.00025138913
0.00025331232
0.00025173711
0.00025364844
0.00027193468
0.00031577646
0.00036818691
0.00041476821
0.00045095361
0.00047570309
0.00048640825
0.00048558044
0.00048298414
0.00049147717
0.00050282388
0.00046120379
0.00041486175
6.6472085e-06
5.3386373e-05
0.00010892257
0.00015383801
0.00018838319
0.00021773996
0.00023894675
0.00024612253
0.00024512093
0.00024419635
0.00025520674
0.0002891469
0.0003426294
0.00039062607
0.0004300701
0.00045806063
0.00047378377
0.00047735245
0.00047486864
0.00048392096
0.0004986541
0.00046591594
0.00038864661
8.0587274e-06
3.5604284e-05
8.2865287e-05
0.000134355
0.00017520964
0.00020254632
0.00022283189
0.00023602798
0.00023864996
0.00023614432
0.00023903025
0.00025793712
0.00030508066
0.00036289895
0.00040839896
0.00044109477
0.00046304206
0.00047176247
0.00047154929
0.00047278498
0.00048666159
0.00042801337
0.00039809913
5.0306628e-06
2.2222472e-05
4.6082782e-05
8.3297899e-05
0.00012965629
0.00018508448
0.00021131509
0.00022752248
0.00023480008
0.00023588749
0.00023251652
0.0002371789
0.0002599473
0.00031132068
0.00037214783
0.00041764639
0.00044683552
0.00046338
0.00046676103
0.00046671393
0.00047117927
0.00049230141
0.00050984986
3.7460689e-06
1.9727565e-05
3.2141702e-05
5.3609114e-05
8.4263075e-05
0.00013091049
0.000183007
0.00021144568
0.00022612789
0.00023193419
0.00023321823
0.00023261072
0.0002389066
0.00026249889
0.00031358434
0.000373938
0.00041743536
0.0004448641
0.0004606009
0.0004611079
0.00046444914
0.00047423382
0.00050689568
4.9885319e-06
2.3577666e-05
3.3323729e-05
4.7884576e-05
6.5121623e-05
9.2024021e-05
0.00012752049
0.0001691779
0.00019896189
0.00021644654
0.0002244796
0.00022762532
0.00023080022
0.00023903395
0.0002615928
0.00031138249
0.00037173425
0.00041227248
0.00043833381
0.00045633254
0.00045813984
0.00046496187
0.0004769699
5.8195765e-06
3.1181417e-05
4.3376367e-05
5.4176328e-05
6.4381233e-05
7.8880073e-05
0.00010169099
0.00013039294
0.00016377444
0.00018886776
0.00020514208
0.00021261972
0.00021644497
0.00022151495
0.00023187329
0.00025383275
0.00030107639
0.00036354887
0.00040200743
0.00042816198
0.00045010157
0.00045715143
0.00046174576
6.2588066e-06
3.5574094e-05
5.6243445e-05
7.7672123e-05
8.8343401e-05
8.6558209e-05
9.4340418e-05
0.00011474151
0.00013628603
0.00016161535
0.0001876641
0.00020187667
0.00020946803
0.00021238162
0.00021471863
0.00022376729
0.00024350807
0.00028618431
0.00035027782
0.00038934492
0.00041613684
0.00044204458
0.0004558757
6.4303217e-06
3.8763296e-05
6.8039157e-05
0.00010261472
0.0001220606
0.00012298611
0.00012020448
0.00012037443
0.00013322154
0.00014923367
0.00016117604
0.00018088597
0.00019841054
0.00020694216
0.00021009058
0.00021096084
0.00021764804
0.00023342298
0.00026843524
0.00033162908
0.00037464908
0.00040349819
0.00043430894
6.3943004e-06
4.3117858e-05
8.3163729e-05
0.00012116726
0.00013334587
0.00014460405
0.00015185711
0.0001541991
0.0001577323
0.00016558105
0.00018125166
0.00017289072
0.00017825147
0.00019252971
0.00020244428
0.00020669669
0.00020857324
0.00021235722
0.00022431455
0.00025351853
0.00031067323
0.00035950418
0.00040652042
6.1601427e-06
5.0578166e-05
0.00010273892
0.00012866514
0.00014345415
0.00015861558
0.00017147677
0.00018053236
0.00018858135
0.00019826278
0.00020931903
0.00023051394
0.00021233539
0.00019156494
0.00018962599
0.00019791926
0.00020294419
0.00020634095
0.00020800106
0.00021760142
0.00024101962
0.00028688545
0.00035044355
5.7997122e-06
5.5060123e-05
0.0001177434
0.00015540335
0.00017032416
0.00018249957
0.00019532266
0.00020807092
0.0002202499
0.00023200481
0.00024627564
0.00026453903
0.00028474002
0.00026442353
0.00022748644
0.0002003458
0.00019482496
0.00019982454
0.00020279453
0.00020388635
0.00021227088
0.00022941414
0.00027381979
5.3724384e-06
5.49063e-05
0.00012617742