/*--------------------------------*- C++ -*----------------------------------*\
| =========                 |                                                 |
| \\      /  F ield         | OpenFOAM: The Open Source CFD Toolbox           |
|  \\    /   O peration     | Version:  2406                                  |
|   \\  /    A nd           | Website:  www.openfoam.com                      |
|    \\/     M anipulation  |                                                 |
\*---------------------------------------------------------------------------*/
FoamFile
{
    version     2.0;
    format      ascii;
    arch        "LSB;label=32;scalar=64";
    class       volScalarField;
    location    "200";
    object      p_0;
}
// * * * * * * * * * * * * * * * * * * * * * * * * * * * * * * * * * * * * * //

dimensions      [1 -1 -2 0 0 0 0];

internalField   nonuniform List<scalar> 
20580
(
1.0016383
1.0086579
1.0049749
1.0047205
1.0031898
1.0039457
1.0034883
1.0030592
1.0041437
1.0021913
1.0040202
1.0040623
1.0041378
1.0030235
1.0039379
1.0053725
1.0019801
1.001989
1.0087466
1.0018866
0.99879401
1.0062046
1.0069562
0.99619559
0.99415648
1.0097905
1.0151669
1.0042599
1.0092193
1.0185723
0.9876033
1.0012647
1.0092871
1.005207
1.0048821
1.0031218
1.004113
1.0039248
1.0031061
1.0045487
1.0018113
1.0038315
1.0048234
1.0033177
1.0025524
1.0047108
1.0049808
0.99981929
1.0041337
1.0092414
0.99887603
1.0001815
1.0088396
1.0035708
0.99336907
0.99487008
1.0172253
1.0258739
1.0028155
0.99272761
1.012429
1.0138091
1.0020422
1.0079703
1.0048341
1.0044658
1.0032995
1.0040601
1.004159
1.0035762
1.0044166
1.0023525
1.0033421
1.0052549
1.0028235
1.0023492
1.0049258
1.0047998
0.99866693
1.0058178
1.009245
0.99676765
1.0023
1.0114252
1.0023613
0.99464629
0.99767341
1.0170308
1.0283016
1.0035442
0.98017239
0.99873168
1.0334805
1.0036454
1.0054507
1.0039458
1.0036749
1.0036344
1.0038279
1.0040685
1.0042089
1.0035026
1.0032526
1.0031986
1.0050602
1.002786
1.0026504
1.0045537
1.0046167
0.99889576
1.0070718
1.0079331
0.99625757
1.0049883
1.0120149
1.0024559
0.99945206
1.0024701
1.011826
1.0215104
1.005582
0.97669705
0.98340125
1.0286137
1.0053058
1.0028717
1.0029617
1.0030359
1.0039645
1.0034743
1.0036855
1.0046163
1.0024198
1.0037016
1.0036023
1.0041778
1.0029061
1.0032861
1.0040089
1.004063
1.0006412
1.0076817
1.0050854
0.99754978
1.0076522
1.0102124
1.000733
1.005889
1.0092991
1.0051403
1.0082332
1.006538
0.98519051
0.97764898
1.0073011
1.0063454
1.0010341
1.0023422
1.0027356
1.0043364
1.0031255
1.0033436
1.0043948
1.0021341
1.0037348
1.0041321
1.0031317
1.0031013
1.0040852
1.0034242
1.0031584
1.0031728
1.0075608
1.0020196
0.99956472
1.0097627
1.0074916
0.99664515
1.0090583
1.0169065
1.0012228
0.99293912
1.0040134
1.003941
0.98929258
0.98665973
1.0063472
1.0006815
1.0023259
1.0027595
1.0046365
1.0029639
1.0032726
1.0035285
1.002859
1.0039191
1.0043223
1.0024558
1.0033568
1.004967
1.002956
1.0022431
1.0053713
1.00696
0.99951221
1.0016334
1.0111181
1.0042272
0.99303968
1.0076344
1.0211922
1.00152
0.98280506
0.99750608
1.0219218
1.0135759
0.98868269
1.0051741
1.0023515
1.0029214
1.0032815
1.0045189
1.0030501
1.0033615
1.0025092
1.0038617
1.0042624
1.0041521
1.0022351
1.0036168
1.0054058
1.0029396
1.0015637
1.0065612
1.0060624
0.99775636
1.0038356
1.0115917
1.0014535
0.99196134
1.0044017
1.0194378
1.0045337
0.98180288
0.99111864
1.0265659
1.0369703
1.0079711
1.0033129
1.0052211
1.0039239
1.0041436
1.0039746
1.0033804
1.0035327
1.0019877
1.0043166
1.0041739
1.004009
1.0024528
1.0038028
1.0049887
1.0033733
1.001284
1.0067516
1.0047934
0.99737194
1.006089
1.0099666
1.000287
0.99472788
1.0025385
1.0123485
1.0069787
0.98945082
0.99040273
1.0158385
1.0428919
1.0271662
1.0017221
1.0079629
1.0049199
1.0047536
1.0033544
1.003898
1.0036792
1.0023882
1.003985
1.0036186
1.0039232
1.0030667
1.0040241
1.0039612
1.0038696
1.0017007
1.0062187
1.0029773
0.99875275
1.0081953
1.0065162
0.99946838
1.0016012
1.0040228
1.0032026
1.0057713
1.0020394
0.99820992
1.0021874
1.0232954
1.0297435
1.0011122
1.0091583
1.0053978
1.0048976
1.0029304
1.0042371
1.0037188
1.0035757
1.0033976
1.0032368
1.0035372
1.0037947
1.004332
1.0029708
1.0041372
1.0029007
1.0052242
1.0012159
1.0010562
1.0096373
1.0030918
0.99754766
1.0094858
1.0091851
0.99657118
0.9994904
1.0135588
1.0110316
0.99823131
0.99227416
1.0097368
1.0016716
1.0083519
1.005095
1.0047402
1.002902
1.0041602
1.0036142
1.0048395
1.0032106
1.0033605
1.0028359
1.004434
1.0045022
1.0021734
1.0041594
1.0043785
1.0041493
1.0001972
1.0033697
1.0104057
1.0003271
0.99504786
1.0141543
1.0153041
0.99468156
0.99170223
1.0168726
1.0238263
1.0037311
0.97572432
0.98163531
1.0032835
1.0059119
1.0041763
1.0041124
1.003412
1.0038253
1.0034769
1.0053946
1.0035642
1.0036652
1.0023582
1.004792
1.0044832
1.0017221
1.0039757
1.0054172
1.0034265
0.99992821
1.0053338
1.0104214
0.99862531
0.99409001
1.0140766
1.018697
0.99561355
0.98833198
1.0104851
1.029638
1.0114973
0.97892522
0.96633171
1.0052547
1.0030406
1.0030559
1.0032031
1.0042496
1.0033809
1.0036274
1.00486
1.003941
1.0035363
1.0025239
1.0047855
1.0042911
1.0020931
1.0035868
1.0057395
1.0031364
1.0004064
1.006482
1.008971
0.99821994
0.99597503
1.0105172
1.0161098
0.99823399
0.99113368
1.001997
1.0216743
1.0172912
0.99207771
0.9739114
1.0064802
1.0009525
1.002211
1.0026772
1.0049099
1.0030019
1.0037944
1.0038101
1.0040642
1.002888
1.0032087
1.0044695
1.0038822
1.0032613
1.0031774
1.005457
1.0028957
1.0017134
1.0069454
1.0056826
0.99944464
1.0001855
1.0073067
1.0070506
1.001368
0.99810596
1.000587
1.0041531
1.0122983
1.0082166
0.99534523
1.0062189
1.0010632
1.0021477
1.0027814
1.0050738
1.0029734
1.003862
1.0028887
1.0039743
1.0025699
1.0039932
1.0039002
1.0032506
1.0045324
1.0030488
1.0046388
1.002447
1.0035206
1.0069716
1.0015756
1.0008897
1.006147
1.0059604
0.99675061
1.0013469
1.0083092
1.0054969
0.99219685
0.99572104
1.0138064
1.0182139
1.0047883
1.0034016
1.0030052
1.0032498
1.0046027
1.0033434
1.0038913
1.0025856
1.0036745
1.0031535
1.0046818
1.0033385
1.0026521
1.00538
1.0033559
1.0035736
1.0020928
1.0050437
1.0067009
0.99849619
1.0008992
1.0123252
1.006539
0.99077952
0.99694428
1.0172881
1.0141563
0.9908604
0.98097953
1.0040961
1.0280057
1.002826
1.006588
1.004294
1.0041675
1.0036469
1.003838
1.0036362
1.0028044
1.0030575
1.0042191
1.0050264
1.003034
1.0023546
1.0057166
1.0037825
1.0027637
1.0019022
1.0057197
1.0063245
0.99695574
1.0004455
1.0153339
1.0091051
0.98924958
0.99328536
1.0191252
1.021936
0.99774766
0.97832562
0.99106865
1.0227118
1.0014723
1.0087287
1.0052396
1.004848
1.0028339
1.0041945
1.0034475
1.0034899
1.0023857
1.0046218
1.00483
1.0031009
1.0024793
1.0055814
1.0041529
1.0024888
1.0019523
1.0055429
1.0057321
0.99758816
1.0003159
1.014049
1.0107541
0.99236376
0.99393866
1.0141655
1.0234561
1.0041085
0.98631157
0.98864548
1.0096718
1.0011706
1.0088591
1.0054523
1.0049772
1.0026521
1.004162
1.0033927
1.0041366
1.0023818
1.0039719
1.0041649
1.0034047
1.0030245
1.0046007
1.004255
1.0027101
1.0023924
1.0048163
1.0042877
1.0001002
1.0018596
1.009614
1.0084949
0.99837253
0.99911544
1.0079755
1.0134071
1.0086277
0.99793466
0.99569555
1.0003874
1.0025697
1.006658
1.004689
1.0044511
1.0031931
1.0038207
1.0035633
1.0041899
1.0030102
1.0032699
1.0035664
1.0037176
1.0040028
1.0034874
1.0040492
1.0031236
1.0033815
1.0039242
1.002109
1.0036687
1.0047446
1.0044878
1.0025249
1.0043061
1.006691
1.005201
0.99904309
1.0033273
1.010458
1.0081371
0.99987452
1.0048462
1.0035429
1.0031596
1.0033863
1.0041794
1.0034546
1.0038536
1.0037985
1.0041926
1.0030483
1.0030159
1.0039174
1.004996
1.0026115
1.0036149
1.0035374
1.0045285
1.0033137
1.0000775
1.0062734
1.0082603
1.0010602
0.99639173
1.0058242
1.0147128
1.0060928
0.98820017
0.99194603
1.0140186
1.0211197
1.0068824
1.00634
1.0012212
1.0019782
1.0023456
1.005024
1.003156
1.003782
1.0034191
1.0050608
1.0035052
1.0026072
1.0038013
1.0057201
1.0022331
1.0031212
1.0035703
1.0053392
1.0033186
0.99857696
1.0064374
1.0115906
1.0006194
0.99229894
1.0032251
1.019543
1.0100897
0.98570413
0.98256279
1.0081247
1.0273107
1.0153342
0.98495948
0.9854185
0.99562684
1.0127894
1.0273571
1.0348443
1.0287247
1.0096089
0.99001375
0.98539364
0.99484059
1.0086178
1.0158331
1.0053146
0.98130172
0.96817093
0.98251618
1.020044
1.0506192
1.0540246
1.0210883
0.97145052
0.94959784
0.98517028
0.99402042
1.002033
1.0043979
1.000338
0.9918144
0.98554157
0.98974972
1.0086104
1.0331629
1.0483289
1.0446969
1.0163727
0.9771763
0.9542485
0.9608803
0.99070571
1.023879
1.0411196
1.0257765
0.99241983
0.97639192
0.98515648
1.0371335
1.0326805
1.0143419
0.98823385
0.96495974
0.95330829
0.96159078
0.98687837
1.0158457
1.0380718
1.0416204
1.020598
0.99737839
0.9872929
0.99672092
1.0170631
1.0311958
1.0258687
0.99259173
0.9551018
0.9450317
0.96942154
1.0152682
1.0452364
1.0283099
1.0094555
0.99340611
0.98654818
0.9948325
1.0093528
1.0187959
1.0128341
0.99122089
0.96486101
0.95117422
0.96147804
0.99888882
1.0464344
1.0792971
1.0781606
1.0338175
0.97405291
0.9379565
0.93892387
0.97046602
1.0174578
0.97218037
0.97099589
0.98340028
1.0105669
1.0448893
1.0685692
1.0758179
1.0510452
1.0093944
0.96497979
0.93558264
0.93569013
0.96036998
0.9999725
1.0384153
1.0539098
1.035123
1.0024714
0.98395897
0.98775979
1.0077262
1.0343571
1.0476257
0.93668076
0.95150725
0.98286644
1.0151751
1.0434964
1.0552952
1.0424756
1.0222526
1.0024429
0.98950363
0.99414352
1.0116382
1.0314339
1.0323666
1.0081693
0.96865924
0.93277589
0.92860423
0.95633551
1.0136248
1.0801061
1.1206902
1.1037098
1.0034389
1.0194171
1.0211469
1.0071634
0.97981018
0.95626487
0.9413215
0.94457774
0.96887637
1.0140377
1.0671118
1.1062336
1.112522
1.07069
1.0065363
0.94290336
0.90307285
0.89853743
0.93131442
0.99171142
1.0604709
1.1064277
1.091532
1.1105348
1.0799712
1.0333923
0.98789278
0.95051759
0.92474877
0.91193135
0.92224756
0.95640862
1.0043804
1.0555017
1.0872601
1.0834014
1.0563254
1.0219499
0.98726748
0.96729835
0.96650151
0.98622874
1.006852
1.0146911
0.99819092
0.97577979
1.0609395
1.0471523
1.0332578
1.0121049
0.98868466
0.97378405
0.97952845
0.99925597
1.0171622
1.0148695
0.99366446
0.96388078
0.95242144
0.95899673
0.98096051
1.0166433
1.0576675
1.0940501
1.1062406
1.0771181
1.0139057
0.94139685
0.88770135
0.94098834
0.94888162
0.97060828
1.0078838
1.0520599
1.0922109
1.1176254
1.1154884
1.0764828
1.0185637
0.95751998
0.90835085
0.87936795
0.8752413
0.90464041
0.97025491
1.0651866
1.1543407
1.1935252
1.1521191
1.0571117
0.96280948
0.89362532
0.8888131
0.89995946
0.93023994
0.98238769
1.0564179
1.1344985
1.1807451
1.1667094
1.1062949
1.0319348
0.96460911
0.91933739
0.89019679
0.88783111
0.90617445
0.95083246
1.0154109
1.0836208
1.1326643
1.1303949
1.0891018
1.0259674
0.96401633
0.9082179
0.93163677
0.96880975
1.0118167
1.0458912
1.0652244
1.0728008
1.0724187
1.0672976
1.0522958
1.0202426
0.98351021
0.95675805
0.95503453
0.97398214
0.99630385
1.0088679
1.0051118
0.99753817
1.0037233
1.019221
1.0397961
1.0401136
1.0060602
1.0230545
1.0364388
1.0324795
1.0092463
0.97486616
0.94570757
0.94233735
0.96741817
1.0077469
1.0445336
1.0637594
1.0649514
1.0645465
1.0654047
1.0537643
1.0195184
0.96699269
0.91895479
0.89657267
0.9172988
0.9701451
1.0379461
1.1369956
1.119676
1.0771689
1.0210071
0.96065259
0.91009958
0.87790204
0.86985256
0.89225792
0.94169985
1.0124482
1.0890402
1.1519193
1.1810719
1.1608669
1.0985004
1.0199822
0.94602059
0.88775953
0.8559291
0.86079665
0.90627632
0.9882924
1.2285267
1.1749672
1.089361
0.99982978
0.92864235
0.87926254
0.85449661
0.85139963
0.86685844
0.90873371
0.98089796
1.0815713
1.1845147
1.2463333
1.2210754
1.1288491
1.0225853
0.93429082
0.87715941
0.84383874
0.84179536
0.87584336
0.95176581
1.2550249
1.1867349
1.0896514
0.99524982
0.92404175
0.87754805
0.85391452
0.84897851
0.86252424
0.90052303
0.96966674
1.0747085
1.1900198
1.2644141
1.2398645
1.1387179
1.026935
0.93566114
0.87675373
0.84449601
0.83764152
0.86746005
0.93869282
1.2516895
1.1862958
1.0932783
1.0010428
0.92664185
0.88009486
0.85462598
0.84800364
0.85916305
0.8991454
0.96996062
1.0749342
1.1896174
1.2615773
1.2392366
1.1430524
1.0330331
0.94264322
0.8805498
0.84492593
0.83810602
0.86424036
0.9332409
1.2559993
1.1912782
1.0965102
1.0028965
0.92725005
0.87956682
0.852586
0.84418701
0.8557844
0.89666144
0.96981926
1.077358
1.1942599
1.2646256
1.2383002
1.1418692
1.0329394
0.94377043
0.87966987
0.84396921
0.83768282
0.86358631
0.93301002
1.2614904
1.1940981
1.095003
0.99889678
0.92366723
0.87486456
0.84923605
0.84338766
0.85821612
0.8992746
0.97460328
1.0855903
1.2018246
1.269692
1.2382471
1.1355189
1.0226629
0.93357163
0.87261925
0.8403531
0.83661261
0.86908949
0.94235948
1.2410515
1.185782
1.0967076
1.00304
0.92702574
0.87282491
0.8437161
0.84055193
0.8592341
0.90854769
0.99519994
1.1091053
1.2168594
1.2648305
1.2134945
1.1104483
1.0079536
0.92260394
0.86603347
0.83965641
0.84067449
0.87872685
0.96223319
1.1732658
1.1461449
1.0904062
1.0180886
0.9483584
0.89087528
0.8590179
0.85655384
0.88617247
0.94713017
1.0348338
1.124309
1.1931176
1.2073555
1.1572774
1.0748074
0.98945805
0.9165647
0.86759042
0.84993696
0.86660518
0.91862921
1.0113696
1.057887
1.062915
1.0570989
1.0294891
0.98439607
0.93690012
0.9082969
0.91415648
0.95403265
1.0165539
1.0726088
1.1026368
1.1071819
1.0987599
1.0733993
1.0337779
0.97979474
0.92626058
0.89288504
0.89102724
0.93436694
1.0041178
1.0715749
0.94803568
0.96917237
0.99461217
1.0179181
1.0258944
1.0184689
1.0176879
1.0329012
1.0555718
1.0632606
1.046088
1.0149009
0.9923258
0.98722675
0.99318204
0.99284196
0.98283606
0.97004231
0.97513788
1.0005902
1.0387656
1.0604361
1.0578105
0.89112907
0.91159133
0.94775516
0.99838044
1.0581497
1.1131672
1.1512804
1.1439445
1.0977732
1.0330509
0.96921117
0.92500204
0.9033148
0.90871622
0.93416505
0.9751504
1.0248207
1.0743268
1.112076
1.1160305
1.078731
1.0219878
0.96074558
0.89733357
0.91465768
0.94985201
1.0078374
1.0793856
1.149811
1.1799315
1.1437177
1.0673523
0.98642631
0.92513992
0.88573703
0.87050724
0.88060667
0.92885039
1.0111998
1.1086791
1.1777637
1.1793332
1.1133263
1.0198805
0.93902119
0.88996003
0.97490645
0.98056319
1.000849
1.0266785
1.0495724
1.0653432
1.0706372
1.0579767
1.0268598
0.98015802
0.93509183
0.9086797
0.9086815
0.94176818
0.99862591
1.0593927
1.1095549
1.1292196
1.1040437
1.0481951
0.98078916
0.92240863
0.89120109
1.0795345
1.0567403
1.0290539
1.0022102
0.97819078
0.9624023
0.9580046
0.96590605
0.98020365
0.99473661
1.0064202
1.0175654
1.0284836
1.0349225
1.034319
1.0241976
1.0077531
0.98772382
0.9755089
0.9794872
0.99284789
1.0069037
1.0213634
1.0701158
1.0563523
1.0256896
0.98976644
0.95531885
0.93132107
0.92213491
0.93578414
0.96978417
1.0202453
1.071201
1.103681
1.1039689
1.0704807
1.0151463
0.95946894
0.91955892
0.90304887
0.91066164
0.94300682
1.0024608
1.0787627
1.1427302
0.98201404
0.99487848
1.0042599
1.006176
0.99820572
0.98863246
0.98427406
0.98911075
0.99964048
1.0171071
1.034743
1.0488103
1.0498304
1.0342859
1.0069572
0.97474598
0.94736181
0.9352867
0.94521772
0.97118811
0.99973595
1.0207494
1.0300085
0.95260054
0.96392119
0.9850714
1.0135659
1.0417118
1.0589044
1.0576451
1.0408762
1.0148344
0.98867397
0.96864878
0.95838803
0.95993558
0.97446859
0.99945525
1.0275163
1.0520799
1.0631297
1.0517593
1.0165589
0.97043005
0.92731951
0.90566078
1.0041389
0.99949367
1.0006286
1.005915
1.0153242
1.0252694
1.0312346
1.0281763
1.0148924
0.99350142
0.97056882
0.95401061
0.95096947
0.96274001
0.98619216
1.0190326
1.0530465
1.074124
1.0729748
1.0487638
1.0014848
0.95185829
0.92887632
1.0396913
1.0303926
1.0128375
0.99401258
0.97816134
0.97002121
0.97103861
0.98121423
0.99774284
1.0149324
1.0280754
1.0313721
1.022253
1.0049627
0.987536
0.97352909
0.96529665
0.97153684
0.99077818
1.0202349
1.0491075
1.0512708
1.0203612
0.99796115
1.00449
1.0052755
1.0013866
0.99414598
0.98534427
0.97915655
0.9805411
0.98998597
1.0056215
1.0245004
1.0405075
1.0465954
1.0377534
1.0134218
0.98106327
0.95173004
0.93823099
0.94991229
0.98144242
1.0322026
1.0673243
1.0475545
0.9806234
0.98385971
0.99266031
1.0055446
1.0180959
1.0272692
1.0284973
1.0192634
1.0035899
0.98862084
0.97925903
0.97912978
0.99073415
1.0101285
1.0282785
1.0359297
1.02586
0.99846165
0.9762058
0.96749159
0.98191265
1.019838
1.0378209
1.0126115
1.0057585
0.99900228
0.99649325
0.99950087
1.0068222
1.0157774
1.0209462
1.0169155
1.0025358
0.98245622
0.96641601
0.96378282
0.97637331
1.0018072
1.028958
1.0459372
1.0376188
1.0028114
0.97265044
0.96010809
0.98888682
1.0260381
1.0136426
1.0145462
1.0098487
0.99986415
0.98877725
0.9818814
0.98188025
0.98943644
1.0028234
1.016284
1.0229126
1.0191904
1.0056855
0.98999027
0.98149465
0.98230633
0.99175215
1.0093633
1.0243571
1.0179673
0.99829743
0.98165984
0.98569898
0.98813262
0.99532268
1.0027943
1.0072311
1.0055103
0.9980499
0.98836913
0.98277505
0.98504253
0.99474131
1.0086453
1.0213524
1.0282765
1.02448
1.0098598
0.99325906
0.98353679
0.98379745
0.99534467
1.008329
1.0111955
1.0051811
0.99458246
0.98702057
0.98726066
0.99298956
1.0016874
1.0106924
1.0167279
1.017469
1.011672
1.0017402
0.99289191
0.98924817
0.99166418
0.99800221
1.0063867
1.01228
1.0101504
1.0009371
0.99331414
0.99303926
1.0002797
1.0092372
1.0119186
1.0064733
1.0128072
1.006581
0.99996274
0.99585467
0.99599496
1.0000028
1.0063044
1.0124534
1.0147101
1.0102746
1.0001101
0.98914232
0.9834937
0.98535564
0.99346833
1.0036889
1.0093409
1.0080583
1.0037602
1.0016029
1.0018155
1.0013383
1.0007872
1.008427
1.0099033
1.0067376
0.99932569
0.99060551
0.98425395
0.9834896
0.98833986
0.99682288
1.0052731
1.0097407
1.0080649
1.0019369
0.99663112
0.99624308
1.0005483
1.006179
1.0084705
1.0066456
1.0023452
0.99874412
0.99694144
0.99577895
0.98508693
0.99029143
0.99683076
1.0019603
1.0031703
1.0002699
0.99456811
0.99004786
0.98989696
0.99418574
1.0007863
1.0066206
1.009208
1.0080918
1.0049431
1.0023001
1.0008462
0.99983272
0.99843867
0.99701144
0.99689229
0.99837282
1.0007747
0.99177267
0.99028907
0.99271693
0.99838614
1.0056377
1.010937
1.0125225
1.0094082
1.0031255
0.99754456
0.99497495
0.99550498
0.99775017
0.99952932
1.000015
0.99882004
0.99705897
0.99577127
0.99514457
0.99599808
0.99794108
1.0013256
1.0050245
1.0110399
1.0061374
0.99989773
0.99538589
0.99384219
0.99581413
0.99905422
1.0016686
1.0019695
0.99948951
0.99604212
0.99345617
0.99296383
0.99399733
0.99567087
0.99725955
0.99832938
0.99942384
1.0007921
1.0020828
1.0030806
1.0032869
1.0025095
0.99978416
1.0014341
0.99968838
0.99510872
0.9905624
0.98736245
0.98705845
0.98916604
0.99231816
0.99508661
0.99695103
0.99814204
0.9986619
0.99935847
0.99964696
0.9996713
0.99975836
0.99997643
1.0007625
1.0016275
1.0014367
0.99978689
0.99676776
0.98615685
0.98922997
0.99321966
0.99676643
0.99884343
0.9991379
0.99871891
0.99799615
0.99775331
0.99817288
0.99860709
0.99921998
0.99970813
0.99977625
0.99914536
0.9978546
0.99607978
0.99466851
0.99402338
0.99428149
0.99495107
0.99496509
0.99455323
0.99611944
0.99525139
0.99623205
0.99815904
1.0002563
1.0014657
1.0016744
1.0009456
0.999625
0.99754755
0.99537584
0.9935459
0.99246159
0.99214733
0.99251559
0.99308259
0.99341203
0.99357556
0.9938888
0.99436208
0.9951478
0.99607956
0.99668399
1.0009927
0.99978517
0.99818012
0.99634894
0.99465753
0.99313438
0.99176794
0.99108625
0.99078592
0.99089598
0.99111173
0.99122356
0.9913782
0.99191476
0.99289278
0.99404906
0.99540348
0.99641844
0.99692785
0.99694634
0.99658172
0.99585249
0.99508546
0.99350086
0.9940466
0.9942473
0.99381887
0.99357835
0.99307893
0.9922475
0.99221554
0.99235203
0.99360455
0.99501369
0.9964716
0.99727451
0.99736706
0.99664157
0.9955252
0.99453097
0.99353998
0.99272861
0.99196892
0.99110383
0.99041678
0.98996942
0.99428697
0.99462696
0.99483019
0.99534803
0.9963415
0.99680862
0.99735974
0.99759661
0.99695086
0.99665147
0.9956298
0.99498726
0.99393155
0.99276762
0.9914668
0.99009632
0.98909289
0.98857733
0.98860663
0.98915032
0.98983897
0.99059522
0.99141046
0.99852802
0.99789761
0.99690665
0.99581177
0.9954246
0.99468339
0.9946959
0.9944621
0.99388501
0.99318213
0.99164567
0.99028492
0.98911263
0.98852259
0.98843069
0.98910004
0.98975528
0.99065315
0.99157932
0.99243251
0.99302259
0.9933094
0.99296809
0.99653525
0.99687355
0.99611074
0.99575345
0.99511313
0.9940643
0.99408008
0.9933732
0.99370071
0.99344054
0.99288203
0.99257183
0.99197352
0.9921925
0.99233676
0.99290335
0.99318381
0.99305304
0.99241126
0.99122309
0.98983747
0.98824169
0.9869101
0.99660021
0.99737226
0.9971597
0.99761406
0.99773968
0.99700474
0.99692357
0.99570482
0.99539987
0.99443468
0.99388439
0.99332487
0.99250323
0.99200705
0.99132076
0.99054384
0.9898437
0.98902998
0.9882686
0.98716587
0.98610742
0.98560486
0.98573625
0.99829949
0.99830573
0.9979212
0.99765735
0.99784717
0.99697845
0.9966088
0.99591128
0.99458295
0.99370079
0.99303636
0.99232446
0.99199567
0.99120077
0.99073668
0.98948765
0.98875596
0.98815961
0.98799671
0.98777682
0.98777175
0.98824383
0.98881436
0.99778429
0.99762795
0.99734643
0.9968784
0.99683671
0.99636761
0.99600775
0.99622637
0.99492513
0.99489162
0.99405862
0.99327024
0.9930551
0.99219877
0.99206132
0.99097178
0.9902931
0.9896079
0.98932916
0.98906262
0.98856525
0.98792642
0.98727779
0.99690638
0.99685345
0.99703854
0.99680751
0.9966033
0.9966411
0.99608539
0.99656044
0.9956229
0.99584415
0.99512092
0.99431984
0.99384145
0.99248399
0.99176689
0.99080397
0.98989399
0.98900418
0.9884951
0.98842352
0.98805146
0.98719728
0.98633698
0.99621991
0.99624844
0.99687175
0.99686695
0.99670926
0.99692407
0.99621895
0.99643426
0.99564823
0.99543733
0.99460121
0.99383051
0.99358963
0.99244493
0.99204927
0.99134494
0.99059923
0.9897866
0.98892657
0.98861461
0.98822125
0.98762792
0.98681147
0.99536199
0.9956159
0.99602192
0.99621384
0.99620459
0.99626769
0.99579744
0.99590757
0.99559141
0.99519734
0.99478103
0.9938635
0.99362317
0.99259027
0.99251048
0.99173443
0.99121136
0.99064928
0.9898407
0.98914537
0.98837987
0.98797813
0.98697525
0.99426204
0.99450601
0.99471612
0.99501283
0.9951735
0.99520196
0.99502361
0.99493725
0.9947658
0.99457317
0.99464381
0.99400839
0.99407244
0.99294255
0.99269416
0.99175105
0.991217
0.99071406
0.98996428
0.98914327
0.98827852
0.98799348
0.98734177
0.99322123
0.99325911
0.99324394
0.99328987
0.99356402
0.99372258
0.99378854
0.99382187
0.99361662
0.99353307
0.99357694
0.99324884
0.99343815
0.99247824
0.99223629
0.99143028
0.99099512
0.99083479
0.99037044
0.98970245
0.98887774
0.9883009
0.9877617
0.99201724
0.99200619
0.99200772
0.99185761
0.99184564
0.99187944
0.99198065
0.99226279
0.99212113
0.99209812
0.99193457
0.99159233
0.99180986
0.99121007
0.99115226
0.99075068
0.9906338
0.9904207
0.99010841
0.98970667
0.98935519
0.9890187
0.98858037
0.99077039
0.99083052
0.99108854
0.99107145
0.99085656
0.99078726
0.99050479
0.9904668
0.99027458
0.99012739
0.98994514
0.98961326
0.9897919
0.98950365
0.98977822
0.98972772
0.98999287
0.98991503
0.98967655
0.98925921
0.98889699
0.98875604
0.98849979
0.99076647
0.99055242
0.9905405
0.99035937
0.99015762
0.99008531
0.98955694
0.98929657
0.98903426
0.98874342
0.98855437
0.98841571
0.98851332
0.98833227
0.98853704
0.98834654
0.98856887
0.98866826
0.98873314
0.98875004
0.98866261
0.98874665
0.98848985
0.99134893
0.99085092
0.99059626
0.99038873
0.99013524
0.98997914
0.9896966
0.98925624
0.98907338
0.98857437
0.98820632
0.98795688
0.98775183
0.98755994
0.98761469
0.98740751
0.98752467
0.98768633
0.98799524
0.98838134
0.98872524
0.98903039
0.98908229
0.99203334
0.99143718
0.99129371
0.99117024
0.99091074
0.99072734
0.99050683
0.9898291
0.98968969
0.9892355
0.98872648
0.9882664
0.98786986
0.98762085
0.98749443
0.98754349
0.98740568
0.98770277
0.98786903
0.98838318
0.98865752
0.98911742
0.98950854
0.99299617
0.99245979
0.99250607
0.99215686
0.99208556
0.99201206
0.99145353
0.99111564
0.99075521
0.99041899
0.99016881
0.98955538
0.98920416
0.98873695
0.98858673
0.98855491
0.9882572
0.98834893
0.98851771
0.98891706
0.98910322
0.98946576
0.990078
0.99390416
0.99372977
0.99337735
0.99331199
0.99320122
0.99288593
0.99283662
0.99254367
0.99210298
0.99211814
0.99186836
0.99149356
0.99109333
0.99079854
0.99061459
0.99045055
0.99006357
0.98998516
0.99006463
0.99043628
0.99060126
0.99079265
0.99126513
0.99468799
0.99439262
0.99451517
0.9942843
0.9940656
0.9939826
0.99387831
0.99375457
0.9936038
0.9932984
0.99343644
0.99307518
0.99292897
0.99271766
0.99252436
0.99289881
0.99234368
0.99238041
0.9921659
0.99262225
0.99269877
0.99276436
0.99303002
0.99529695
0.9949325
0.99523185
0.99504554
0.99503944
0.99480663
0.99477425
0.99461794
0.99437028
0.99451863
0.99447935
0.99434417
0.99436119
0.99391646
0.9942179
0.99438542
0.99408975
0.99432158
0.99410761
0.9946025
0.99470325
0.99462844
0.99472904
0.99577008
0.99548272
0.99570116
0.9955207
0.99550437
0.99564913
0.99512733
0.99536793
0.99508336
0.99528571
0.99533639
0.99524106
0.99513435
0.99515936
0.99529654
0.99537239
0.99505408
0.9955487
0.99534493
0.995842
0.99587064
0.99597638
0.99587728
0.99618289
0.99615196
0.99567089
0.99590787
0.99570385
0.99600465
0.99587655
0.99567393
0.99568846
0.99586519
0.99590503
0.99586507
0.9956815
0.99573345
0.99608519
0.99619005
0.99588955
0.99626656
0.99624616
0.99667223
0.99641955
0.99671069
0.99674703
0.99634455
0.99633176
0.99599524
0.99630858
0.99608734
0.99620546
0.99614898
0.99614524
0.99616252
0.99614511
0.99619871
0.99614609
0.99615067
0.99622203
0.99658254
0.99645881
0.99672097
0.99636208
0.99677734
0.99694012
0.99703471
0.9972205
0.99714418
0.99631289
0.99651328
0.99632767
0.99642779
0.99629524
0.99631877
0.99634734
0.99648519
0.9963531
0.99641832
0.9962584
0.99663748
0.99656465
0.99680014
0.99644347
0.99669985
0.99680569
0.99700436
0.99721292
0.99725299
0.99736487
0.99739824
0.99755403
0.99619435
0.99627183
0.99661819
0.99649001
0.99614793
0.99649439
0.99655638
0.99673895
0.99645725
0.99659639
0.99675167
0.99678116
0.99682055
0.99673557
0.99691817
0.99707828
0.99711672
0.9971741
0.99725335
0.9974048
0.99752634
0.99771537
0.99779565
0.99576261
0.99623806
0.9964808
0.99650863
0.99621492
0.99607699
0.99634678
0.99666805
0.99683378
0.99653708
0.99658832
0.99680566
0.99696659
0.99694043
0.9970386
0.99713183
0.99724148
0.99731991
0.99746643
0.99744517
0.99747516
0.9978188
0.99800786
0.9961628
0.99648758
0.9966883
0.99619014
0.99580517
0.99587047
0.99643455
0.99683363
0.99663146
0.99612326
0.9962575
0.99669476
0.99690952
0.99697931
0.99689561
0.99691334
0.99716896
0.99709465
0.99738352
0.99754753
0.99759679
0.99755343
0.99747414
0.99669668
0.99620759
0.99577014
0.99589326
0.99625747
0.99649144
0.996479
0.99651424
0.99641916
0.99619129
0.99633678
0.99668509
0.9969303
0.99681006
0.99657083
0.99682781
0.99704669
0.99709114
0.99713318
0.99723742
0.99746364
0.99741118
0.99730165
0.99649741
0.99635292
0.99582396
0.99593126
0.9962734
0.9965806
0.99664917
0.99638964
0.99626908
0.99636279
0.99643477
0.99679046
0.99688642
0.99662371
0.99665757
0.99667516
0.99697487
0.99738025
0.99704402
0.99676334
0.99715358
0.99758124
0.9976087
0.99734613
0.99679467
0.99599504
0.99587903
0.99648747
0.99730302
0.99729674
0.99624804
0.99586382
0.99620485
0.99700977
0.99745314
0.99672754
0.99620957
0.9964575
0.99718031
0.99737973
0.99708617
0.9968826
0.99669095
0.99691934
0.99751294
0.99789258
0.99732472
0.99679583
0.99551521
0.99580479
0.99704837
0.99774523
0.99704813
0.99601847
0.99576822
0.99654888
0.99751034
0.99725829
0.99632297
0.99615753
0.99681694
0.99732244
0.99725943
0.99691026
0.99659069
0.99669591
0.99707885
0.99747785
0.99748493
0.99742704
0.99617265
0.99560506
0.99633806
0.99729011
0.99762571
0.99678053
0.99570061
0.99586776
0.9968538
0.99738686
0.99694496
0.99648323
0.9967221
0.99677866
0.99650511
0.99664627
0.99704938
0.99719435
0.99682504
0.99654527
0.99684968
0.99735719
0.99713198
0.99632462
0.99596818
0.99632167
0.99712723
0.99726828
0.99622346
0.9957427
0.99645097
0.99711017
0.99721157
0.99650748
0.99607484
0.99667792
0.99693859
0.99673959
0.99636243
0.99636154
0.99700324
0.99700404
0.99677185
0.99647578
0.99665493
0.99704049
0.9962064
0.99608321
0.99625972
0.99668738
0.99705624
0.99661892
0.99599481
0.99627756
0.99696877
0.99694602
0.99626152
0.99626867
0.99664203
0.99651044
0.99657023
0.99658173
0.99641685
0.9966752
0.99656876
0.99626562
0.99656171
0.99681784
0.99610194
0.99659564
0.99677187
0.99659449
0.99639899
0.99630278
0.99618807
0.99627131
0.99665017
0.99697824
0.99694906
0.99604679
0.99553793
0.99623125
0.99695013
0.99720173
0.99631087
0.99567519
0.9960134
0.99702344
0.99694808
0.99593809
0.99548415
0.99637659
0.99623033
0.99662983
0.99671001
0.99646945
0.99633741
0.99627853
0.99625381
0.99648684
0.99667455
0.9965995
0.9962177
0.99582934
0.99618226
0.99671152
0.99692882
0.99624636
0.99575998
0.99608316
0.99650982
0.9965762
0.99580328
0.99568049
0.99647504
0.99617473
0.99631514
0.99667371
0.99674913
0.99647879
0.99611604
0.99602546
0.99627109
0.99649592
0.99645926
0.99630989
0.99621727
0.99637216
0.99642664
0.99620708
0.99601451
0.99594754
0.99629416
0.99637923
0.99625194
0.99583134
0.99555692
0.99658358
0.99640262
0.99620574
0.99628772
0.99651649
0.9965353
0.99625104
0.99599014
0.99616399
0.99659893
0.99670596
0.9963054
0.99585048
0.9958919
0.99627312
0.99645032
0.99631393
0.99604961
0.99591987
0.99591854
0.99600275
0.99611151
0.99606441
0.99626108
0.99656546
0.99670748
0.99655477
0.99621269
0.99621777
0.99642725
0.99653944
0.99642553
0.99628414
0.99627294
0.99626249
0.99614447
0.99606781
0.99618824
0.99634964
0.99629234
0.99595749
0.99572745
0.99580694
0.99602786
0.99607932
0.99591748
0.99675025
0.99679505
0.99667985
0.99638629
0.99628128
0.99644892
0.99680311
0.99687027
0.99648217
0.99603968
0.99605961
0.99641959
0.99667761
0.9965052
0.99608291
0.99588249
0.99595262
0.99614184
0.99615284
0.99595469
0.9957821
0.9956391
0.99557267
0.99691452
0.99705287
0.99690333
0.99662191
0.99653253
0.99675948
0.99706306
0.99700566
0.99657938
0.99618355
0.99623091
0.99672004
0.99694113
0.9965975
0.99607212
0.99586892
0.99619424
0.99645248
0.99627802
0.99580985
0.9955926
0.99575307
0.99587533
0.99696169
0.99726102
0.99738437
0.99708395
0.99684654
0.99680564
0.99700014
0.99717441
0.99698915
0.99661486
0.99650337
0.99669838
0.99692938
0.99682214
0.99645598