/*--------------------------------*- C++ -*----------------------------------*\
| =========                 |                                                 |
| \\      /  F ield         | OpenFOAM: The Open Source CFD Toolbox           |
|  \\    /   O peration     | Version:  2406                                  |
|   \\  /    A nd           | Website:  www.openfoam.com                      |
|    \\/     M anipulation  |                                                 |
\*---------------------------------------------------------------------------*/
FoamFile
{
    version     2.0;
    format      ascii;
    arch        "LSB;label=32;scalar=64";
    class       volScalarField;
    location    "200";
    object      pMean;
}
// * * * * * * * * * * * * * * * * * * * * * * * * * * * * * * * * * * * * * //

dimensions      [1 -1 -2 0 0 0 0];

internalField   nonuniform List<scalar> 
20580
(
1.0039385
1.0050496
1.0040207
1.0041557
1.0042772
1.0043119
1.0043395
1.0043816
1.0044304
1.004483
1.0045329
1.0045787
1.0046202
1.0046589
1.0046938
1.004722
1.0047412
1.0047582
1.0047657
1.0047604
1.0047399
1.0047088
1.0046511
1.0045541
1.0044308
1.0042914
1.0041147
1.0038755
1.0035939
1.0032886
1.0029797
1.0039196
1.0050511
1.004027
1.0041564
1.0042777
1.0043119
1.0043393
1.0043807
1.0044288
1.0044798
1.0045288
1.0045733
1.0046129
1.0046485
1.0046805
1.0047078
1.0047254
1.0047383
1.0047415
1.0047304
1.0047088
1.004666
1.0046056
1.0045256
1.0044193
1.0042959
1.0041307
1.0038984
1.0036254
1.003283
1.0029184
1.0039047
1.005055
1.0040287
1.0041559
1.0042773
1.004311
1.0043381
1.0043786
1.0044263
1.0044758
1.0045238
1.0045667
1.0046033
1.0046361
1.004665
1.0046893
1.0047027
1.0047118
1.0047104
1.0046933
1.0046667
1.0046184
1.004553
1.00447
1.0043565
1.0042281
1.0040698
1.0038619
1.003623
1.0033036
1.0029483
1.0038881
1.0050569
1.0040276
1.0041547
1.0042762
1.0043099
1.0043369
1.0043765
1.0044235
1.0044719
1.004519
1.0045604
1.0045946
1.0046247
1.0046504
1.0046706
1.0046811
1.0046864
1.0046793
1.004655
1.0046251
1.0045759
1.0045033
1.0044071
1.0042817
1.0041338
1.0039747
1.0037922
1.0035838
1.0033264
1.0030055
1.0038786
1.0050622
1.0040284
1.0041568
1.0042768
1.0043096
1.0043364
1.0043751
1.0044212
1.0044683
1.0045147
1.0045545
1.0045868
1.0046149
1.0046372
1.0046528
1.0046597
1.0046619
1.0046491
1.0046194
1.0045856
1.0045341
1.0044569
1.0043617
1.0042352
1.0040719
1.0038955
1.0037056
1.003502
1.0032824
1.0030274
1.0038715
1.0050673
1.0040273
1.004158
1.0042776
1.0043088
1.0043352
1.0043733
1.0044184
1.0044649
1.0045109
1.0045492
1.0045796
1.0046057
1.0046254
1.0046374
1.0046422
1.0046397
1.0046227
1.0045895
1.0045522
1.0044951
1.0044105
1.0043191
1.0042146
1.0040675
1.0038712
1.0036449
1.0034073
1.0031551
1.0029231
1.0038638
1.0050696
1.0040225
1.0041572
1.0042774
1.0043078
1.0043337
1.0043712
1.0044153
1.0044615
1.0045073
1.0045447
1.0045732
1.0045978
1.0046147
1.0046246
1.0046289
1.0046228
1.0046024
1.0045661
1.0045242
1.004462
1.0043768
1.0042875
1.0041821
1.0040487
1.0038785
1.0036644
1.0034181
1.0031256
1.002819
1.0038522
1.0050702
1.0040155
1.0041546
1.0042768
1.0043071
1.0043324
1.0043698
1.0044126
1.0044581
1.004504
1.0045406
1.0045673
1.0045898
1.0046053
1.0046141
1.0046171
1.0046087
1.0045844
1.004546
1.0045003
1.0044363
1.0043529
1.0042593
1.004138
1.0039959
1.0038394
1.0036738
1.0034853
1.0032538
1.0029447
1.0038483
1.0050702
1.0040073
1.0041542
1.0042766
1.0043067
1.0043314
1.0043682
1.0044101
1.0044547
1.004501
1.0045369
1.0045619
1.0045824
1.0045967
1.0046036
1.0046052
1.0045951
1.0045681
1.0045283
1.004477
1.0044105
1.0043245
1.0042254
1.0041006
1.0039476
1.0037798
1.0036193
1.0034557
1.003265
1.0030456
1.0038474
1.0050733
1.0040003
1.0041547
1.0042775
1.0043055
1.00433
1.0043657
1.0044072
1.0044512
1.0044983
1.004534
1.0045573
1.0045763
1.0045892
1.0045935
1.0045931
1.0045807
1.0045532
1.0045124
1.004459
1.0043862
1.0042923
1.004184
1.0040652
1.0039266
1.0037491
1.0035494
1.0033537
1.0031406
1.0029522
1.0038437
1.0050703
1.0039965
1.0041561
1.004278
1.0043046
1.0043287
1.0043636
1.0044045
1.0044475
1.0044963
1.0045316
1.0045532
1.0045711
1.0045832
1.0045867
1.0045846
1.0045703
1.0045418
1.0045013
1.0044463
1.004375
1.0042846
1.0041714
1.0040455
1.0039132
1.0037552
1.0035532
1.0033244
1.0030697
1.0028237
1.0038335
1.0050672
1.0039953
1.0041542
1.0042766
1.0043043
1.0043287
1.0043619
1.0044011
1.0044431
1.0044944
1.0045301
1.0045495
1.0045658
1.0045773
1.0045803
1.0045777
1.0045628
1.0045338
1.0044926
1.0044365
1.0043697
1.0042908
1.0041867
1.0040518
1.0039075
1.0037677
1.0036066
1.0034088
1.0031759
1.0029236
1.0038185
1.0050641
1.0039944
1.0041546
1.0042748
1.0043033
1.0043282
1.0043609
1.0043987
1.00444
1.0044931
1.0045285
1.0045464
1.0045621
1.0045743
1.0045776
1.004572
1.0045563
1.0045288
1.0044876
1.00443
1.0043632
1.0042886
1.004193
1.0040621
1.0039066
1.0037543
1.0036063
1.0034511
1.0032576
1.0030741
1.0038183
1.0050593
1.0039913
1.0041575
1.0042736
1.0043014
1.0043258
1.0043576
1.0043941
1.0044355
1.0044922
1.0045263
1.0045424
1.0045573
1.00457
1.0045749
1.0045662
1.00455
1.004521
1.0044781
1.0044204
1.0043535
1.0042735
1.0041742
1.0040516
1.0039139
1.0037604
1.0035845
1.0034038
1.0031889
1.0030158
1.0038098
1.0050596
1.0039911
1.0041617
1.0042737
1.0043013
1.0043254
1.0043576
1.0043903
1.0044285
1.0044919
1.004525
1.0045391
1.0045541
1.0045656
1.0045701
1.0045637
1.004547
1.0045169
1.004471
1.0044086
1.0043385
1.0042556
1.0041532
1.0040312
1.0038956
1.0037461
1.0035689
1.0033721
1.0031561
1.0029456
1.0038034
1.0050611
1.0039853
1.0041604
1.0042719
1.0042999
1.0043236
1.0043534
1.0043877
1.0044228
1.0044936
1.0045232
1.0045341
1.0045496
1.0045602
1.0045623
1.0045575
1.0045425
1.0045137
1.0044681
1.0044059
1.0043366
1.0042529
1.0041513
1.0040295
1.003893
1.0037443
1.0035774
1.0033891
1.0031795
1.0029502
1.0037896
1.0050572
1.0039788
1.0041653
1.0042707
1.0042997
1.0043233
1.0043548
1.0043802
1.0044115
1.0044977
1.0045258
1.0045336
1.0045494
1.0045594
1.0045612
1.0045565
1.0045422
1.0045136
1.0044697
1.0044128
1.0043454
1.004266
1.0041741
1.0040597
1.0039178
1.0037642
1.0036183
1.0034662
1.0032987
1.003068
1.0037831
1.0050575
1.0039704
1.0041654
1.0042658
1.0042959
1.0043208
1.0043489
1.0043878
1.004403
1.0044983
1.0045206
1.0045266
1.0045445
1.0045548
1.0045565
1.0045512
1.0045376
1.0045117
1.0044705
1.0044209
1.0043619
1.0042836
1.0041887
1.0040849
1.0039671
1.003816
1.0036403
1.0034608
1.0032886
1.0031105
1.0037866
1.0050474
1.0039692
1.0041796
1.0042676
1.0042978
1.0043219
1.004352
1.0043617
1.0043914
1.0045148
1.0045271
1.0045289
1.0045438
1.0045552
1.0045608
1.0045541
1.0045395
1.004512
1.0044686
1.0044179
1.0043593
1.0042831
1.0041865
1.0040782
1.0039658
1.0038427
1.0036936
1.0035096
1.0033056
1.0031092
1.0037724
1.005062
1.0039555
1.0041769
1.0042623
1.0042944
1.004321
1.0043459
1.0043991
1.0043609
1.0045066
1.0045184
1.0045209
1.0045405
1.0045479
1.004554
1.0045479
1.0045329
1.004507
1.0044647
1.0044135
1.0043521
1.0042726
1.0041763
1.0040679
1.0039477
1.0038088
1.003652
1.0034788
1.0032965
1.0031023
1.0037615
1.0050421
1.0039555
1.0041921
1.0042624
1.0042966
1.0043209
1.0043528
1.0043327
1.0043767
1.0045415
1.0045263
1.0045251
1.0045382
1.0045512
1.0045609
1.0045546
1.00454
1.0045113
1.0044698
1.0044168
1.0043539
1.0042773
1.0041887
1.0040869
1.0039678
1.0038278
1.0036786
1.0035224
1.0033552
1.0031631
1.0037553
1.0050596
1.003921
1.0041915
1.0042519
1.0042908
1.0043176
1.0043442
1.0044309
1.0042643
1.0045413
1.0045161
1.0045183
1.0045423
1.0045379
1.0045542
1.0045474
1.0045372
1.0045144
1.0044753
1.0044246
1.0043643
1.0042869
1.0042057
1.00411
1.0039954
1.0038503
1.003698
1.0035401
1.0033925
1.0032015
1.0037366
1.0050314
1.0039409
1.0042041
1.0042389
1.0042904
1.0043017
1.0043448
1.0042802
1.004384
1.0045509
1.0045142
1.0045167
1.0045271
1.0045452
1.0045611
1.0045527
1.0045419
1.004518
1.0044851
1.0044409
1.0043881
1.0043196
1.0042428
1.0041525
1.0040505
1.0039343
1.0038099
1.0036581
1.0034896
1.0032964
1.003104
1.0030397
1.0029502
1.0029165
1.0029191
1.0028985
1.0028596
1.0027563
1.0027399
1.002775
1.002777
1.0026503
1.0025643
1.0026796
1.0026964
1.0026283
1.0025198
1.0025969
1.0026447
1.0026323
1.002514
1.002531
1.0026447
1.0028053
1.0027258
1.0026801
1.0025858
1.0026331
1.0026767
1.0026177
1.0024998
1.0023851
1.0024848
1.0025431
1.0024314
1.0022447
1.0022382
1.002355
1.0023447
1.0021895
1.0020307
1.0021588
1.0022933
1.0021495
1.0018483
1.0019013
1.0026333
1.0024349
1.0023326
1.0022317
1.0023757
1.0023849
1.0023245
1.0020914
1.0020203
1.0021497
1.0022343
1.002096
1.0018851
1.0018088
1.001935
1.0020014
1.0018349
1.0015559
1.0015879
1.001821
1.001711
1.0013377
1.0012806
1.002371
1.0020673
1.0019279
1.0018258
1.0020392
1.0021613
1.0020791
1.0017739
1.0016
1.001687
1.0019488
1.0018765
1.0016133
1.0012747
1.0014196
1.0017559
1.0016222
1.0011889
1.0009564
1.001333
1.0014605
1.0010882
1.0006746
1.0021043
1.0017754
1.0015903
1.0014564
1.0016364
1.0018653
1.0018422
1.0015053
1.0011887
1.0011997
1.0015613
1.0017009
1.0013808
1.0008334
1.0008454
1.0013732
1.0015011
1.00101
1.0003474
1.0005595
1.0011726
1.0010162
1.0002894
1.0018479
1.0014559
1.0012202
1.0010376
1.0012485
1.0016379
1.0016958
1.0012997
1.0008158
1.0006868
1.0011263
1.0015696
1.0013338
1.0005984
1.0002158
1.0006562
1.0012927
1.0010116
1.0001026
0.99972495
1.0003831
1.0009075
1.0002861
1.0016582
1.0011703
1.0008283
1.0006123
1.0008653
1.0013958
1.0015562
1.0011468
1.0004969
1.0002258
1.0006285
1.0013911
1.0013343
1.0005187
0.99973104
0.99997715
1.000969
1.0011526
1.0002172
0.99909359
0.99936044
1.000647
1.0006011
1.001699
1.001031
1.0005494
1.0002713
1.0005495
1.0012592
1.0016171
1.0011917
1.0002829
0.99983257
1.0001966
1.0012749
1.00155
1.000721
0.9994791
0.99930555
1.000274
1.0013377
1.0006931
0.99909774
0.99846476
0.99952602
1.0007633
1.0018225
1.0009442
1.0002369
0.99992383
1.0002493
1.0012503
1.0018621
1.00148
1.0002278
0.99951915
0.99975955
1.00101
1.0018255
1.0012122
0.99950056
0.99876536
0.99952881
1.0013001
1.0012888
0.99960076
0.99797445
0.99845033
1.0004265
1.0022258
1.001071
1.000089
0.99970749
1.0000516
1.0013145
1.0022253
1.0019344
1.0003755
0.99937469
0.99941545
1.0007126
1.0021793
1.001884
0.99984442
0.99854773
0.99891308
1.000844
1.0019836
1.0006434
0.99815045
0.99753091
0.99920167
1.0027723
1.0013373
1.0000339
0.99955513
0.99994261
1.0014953
1.0028384
1.0026396
1.0007711
0.99934022
0.99909447
1.0005064
1.0026478
1.0027862
1.0006885
0.99858181
0.99826081
1.000132
1.0026093
1.0020363
0.99899978
0.99705156
0.99794909
1.0037825
1.0018972
1.0001153
0.99945497
0.99991481
1.0018311
1.0037462
1.0037007
1.0015114
0.99948584
0.99887116
1.0002804
1.0030137
1.0039629
1.0019646
0.99899251
0.99786794
0.9994717
1.0026795
1.0034345
1.0005736
0.99733527
0.99683279
1.0050204
1.0026906
1.0003708
0.99950058
1.0000359
1.0022662
1.0047781
1.0048742
1.0024749
0.99979663
0.99884428
1.0001751
1.0032398
1.0051345
1.0034301
0.99976781
0.99787149
0.99891316
1.0022855
1.0046559
1.0025621
0.99829445
0.99636311
1.0063193
1.0035934
1.0008027
0.99972571
1.0002952
1.0027591
1.0057268
1.0061356
1.0035169
1.0003097
0.99901989
1.0001831
1.0034274
1.006081
1.0048247
1.0007827
0.99821556
0.99866042
1.0018165
1.0052717
1.0042599
0.99953713
0.99658211
1.0075917
1.0045854
1.0013457
1.0000538
1.0006444
1.0033402
1.0066839
1.007383
1.0045612
1.0009146
0.99929045
1.0003226
1.0037129
1.0069192
1.0060787
1.0018228
0.99867773
0.99853674
1.001544
1.0056872
1.0055868
1.0008977
0.9970553
1.0088323
1.0054541
1.0018916
1.000397
1.0009934
1.0038725
1.0075776
1.008485
1.0054465
1.0014551
0.99957432
1.0005246
1.0040804
1.0077462
1.0071881
1.0027272
0.99909567
0.99854917
1.0014637
1.0060846
1.0067845
1.0021812
0.99766891
1.0098699
1.0062562
1.0023611
1.0006968
1.0013239
1.0044153
1.0084737
1.0095302
1.0062561
1.0018989
0.99977531
1.000715
1.0044951
1.0085279
1.0081081
1.0034314
0.99940542
0.99862115
1.0015693
1.0064958
1.0077019
1.0030776
0.99813505
1.0111168
1.0069707
1.0028977
1.0009751
1.0015948
1.0048785
1.0092719
1.0104511
1.0069149
1.0022302
0.99992525
1.0009195
1.0049654
1.0092375
1.0087868
1.0038145
0.99957704
0.9987548
1.0018856
1.0070256
1.0083088
1.0034357
0.99830949
1.0119112
1.0074761
1.0032944
1.0011879
1.0018499
1.0053329
1.0099909
1.0111726
1.0072893
1.0023471
1.000001
1.0011751
1.0055605
1.0099253
1.0091329
1.0037668
0.99952884
0.99894432
1.0024702
1.0077692
1.0086191
1.0031987
0.99818425
1.0124057
1.0077574
1.0034309
1.0012991
1.0020463
1.0057245
1.0105536
1.0115401
1.0072442
1.0021479
0.99993765
1.0014817
1.006306
1.0105257
1.0089667
1.0031874
0.99920382
0.99923149
1.0034075
1.0086375
1.008371
1.0022639
0.99771843
1.0126545
1.0078972
1.0034144
1.0013593
1.0021876
1.0059774
1.0108156
1.01143
1.0067457
1.0016748
0.99978709
1.0018432
1.0070534
1.0107253
1.0080611
1.0020668
0.99870759
0.99972081
1.0046752
1.0093025
1.0072161
1.0007253
0.99706234
1.0123563
1.0077249
1.0031244
1.0012648
1.002185
1.0060646
1.0107594
1.0108249
1.0057831
1.0009571
0.99957916
1.0022512
1.0076821
1.0103524
1.0064133
1.0005897
0.99821536
1.0005165
1.0061041
1.0092639
1.0050154
0.99887957
0.99672168
1.0113908
1.0069566
1.0023935
1.0008403
1.0019071
1.0058662
1.0102344
1.0096119
1.0043359
0.99997883
0.99927675
1.0025977
1.0079737
1.0091575
1.0041472
0.99903853
0.9979805
1.0015819
1.0072067
1.0079548
1.0020222
0.9972279
0.99735597
1.0096883
1.0053304
1.0011316
1.000074
1.0014156
1.0053915
1.0090737
1.0075997
1.002314
0.99877174
0.99901165
1.0029626
1.007765
1.0069863
1.0014635
0.9976027
0.99821549
1.0029018
1.0073924
1.0050879
0.99894748
0.99629404
0.99902259
1.0070943
1.002815
0.99923984
0.99879539
1.0005617
1.0043964
1.0070973
1.0048334
0.99996872
0.99751462
0.99885489
1.0032596
1.0066914
1.0039766
0.99876264
0.99657746
0.99894213
1.0039638
1.0059656
1.0011344
0.9965835
0.99662162
1.0011834
1.0032439
0.99938215
0.99662979
0.99693813
0.99910508
1.0023939
1.0039631
1.0013136
0.99759789
0.9964912
0.99876582
1.0030004
1.0043883
1.0004595
0.99658978
0.9963134
0.99986825
1.0038693
1.0027308
0.99751495
0.99550052
0.99803561
1.0026634
1.0000577
0.99704872
0.99517118
0.99576636
0.99790415
1.0002844
1.0007133
0.99819559
0.99588414
0.99591114
0.99856658
1.0017583
1.0011262
0.99736512
0.99534934
0.99665835
1.0003819
1.0021283
0.99866834
0.9954099
0.9957273
0.99944296
1.0019877
0.9975611
0.99515907
0.99363862
0.9944842
0.99650006
0.99808544
0.99793811
0.99595207
0.99480908
0.99558556
0.99807806
0.99978203
0.9979963
0.99546178
0.99498549
0.99713263
0.99987208
0.99926326
0.99588693
0.99475143
0.99666462
0.99969995
0.99962559
0.99469768
0.99250999
0.99156574
0.99231995
0.99408087
0.99519506
0.99492463
0.9938108
0.99364451
0.99492727
0.99705207
0.99738877
0.9956213
0.99444059
0.99503593
0.99732995
0.9983441
0.99637047
0.99465574
0.99497748
0.99732656
0.99838439
0.99647714
0.99360219
0.9920302
0.99128427
0.99198976
0.99315115
0.99367435
0.99332074
0.99290111
0.99325919
0.99460114
0.99593849
0.99548978
0.99436416
0.9941835
0.9954145
0.99688996
0.99642243
0.99489236
0.99449652
0.9956405
0.99707498
0.99635352
0.99483352
0.99368818
0.99234303
0.99170761
0.9922183
0.9929797
0.99304398
0.99279956
0.99279767
0.99331961
0.99435071
0.99498247
0.99444294
0.99393698
0.99425032
0.99535473
0.99576571
0.99484519
0.9943036
0.99467399
0.99566414
0.99567484
0.99479913
0.99439908
0.99421397
0.99316228
0.99274511
0.99295528
0.99336983
0.99315539
0.99294441
0.99315254
0.99369082
0.99441451
0.99451765
0.99419052
0.99408769
0.99460694
0.99529693
0.99507394
0.99447098
0.99444059
0.99506977
0.99543639
0.99487818
0.99449291
0.99453817
0.99498468
0.9940972
0.99383475
0.99386259
0.9940351
0.99381646
0.99359424
0.99372069
0.99405731
0.99442804
0.99429229
0.99414007
0.99425312
0.9945826
0.99469086
0.99434899
0.9941819
0.99434306
0.99466191
0.99447583
0.99412848
0.99409695
0.99445054
0.99552528
0.99481472
0.9946062
0.9945929
0.99453685
0.99431058
0.99421151
0.99433553
0.99456769
0.99474482
0.99454879
0.99448194
0.99469484
0.99491316
0.9947965
0.99455548
0.99455758
0.99474535
0.99480168
0.99454701
0.99437936
0.99435503
0.99443094
0.99631625
0.99585959
0.99562969
0.9955594
0.99542141
0.99512924
0.99494637
0.99497366
0.99500844
0.99496176
0.99475561
0.99473065
0.99481104
0.99476805
0.99445729
0.99427574
0.99429698
0.99429886
0.99400249
0.9937481
0.9937379
0.99385347
0.99386099
0.99646918
0.99616968
0.99597065
0.99586853
0.99572364
0.99550809
0.995376
0.99534249
0.9953719
0.99530519
0.99521513
0.99516132
0.99515082
0.99515074
0.99511868
0.99506989
0.99502873
0.99504854
0.99503998
0.99492918
0.99479667
0.99458179
0.99434768
0.99689829
0.9966441
0.99649623
0.99640525
0.99627884
0.99607867
0.99587709
0.99576221
0.99576112
0.99568521
0.99550945
0.99534222
0.99530629
0.99524198
0.99507632
0.99484174
0.99469383
0.99463686
0.99451934
0.99430664
0.99418356
0.99411302
0.99398092
0.99708427
0.99687691
0.99674666
0.9966729
0.99657607
0.99643003
0.99627137
0.99613428
0.99608647
0.99601361
0.99587158
0.99569651
0.99560711
0.99552521
0.99540048
0.99521781
0.99506005
0.99494901
0.99482479
0.994654
0.9944815
0.9943225
0.99412092
0.99736416
0.99718332
0.99706785
0.99698864
0.99688086
0.99674043
0.99660024
0.99647019
0.99639139
0.99630817
0.99617831
0.99600862
0.99586586
0.9957598
0.99562189
0.99544202
0.99525229
0.99508849
0.99491695
0.99473159
0.99455349
0.9943597
0.99410051
0.99751547
0.99736796
0.99727407
0.99721415
0.99712383
0.99699951
0.99687764
0.99676315
0.99666787
0.99657261
0.99645146
0.9963028
0.99613458
0.99599119
0.99584826
0.99568349
0.99549023
0.99529315
0.99508356
0.99487152
0.99467252
0.99447023
0.99414319
0.99771877
0.9975917
0.99750728
0.99745312
0.99736502
0.9972526
0.9971366
0.99702887
0.99692396
0.99682131
0.99670797
0.99657275
0.9964117
0.99624092
0.9960774
0.99591473
0.9957342
0.99552041
0.99527926
0.99504438
0.994816
0.99459876
0.99426742
0.99788456
0.99777978
0.99769701
0.9976439
0.99756313
0.99746806
0.99736435
0.99726532
0.99715725
0.99705455
0.99694807
0.99682183
0.99667325
0.99649847
0.99631604
0.99613804
0.99596013
0.99575076
0.99549814
0.99524613
0.99499206
0.99474782
0.99441391
0.99805914
0.99797479
0.99789828
0.9978456
0.99776319
0.99767662
0.99757936
0.99748211
0.99737525
0.99727302
0.9971689
0.99704727
0.99690808
0.99674028
0.99655601
0.99636616
0.99617566
0.99596888
0.9957264
0.99546668
0.9951914
0.99491831
0.99457641
0.99821671
0.99813479
0.99806915
0.99802098
0.99794492
0.9978656
0.9977754
0.99768164
0.99758025
0.99747705
0.99737412
0.99725626
0.99712259
0.99696426
0.99678632
0.99659366
0.99639246
0.99618062
0.99594366
0.9956843
0.99539801
0.99510632
0.99476002
0.99836948
0.99830024
0.99824184
0.9981969
0.99812611
0.99805098
0.99796575
0.99787474
0.99777731
0.99767449
0.99756967
0.9974548
0.99732405
0.99717418
0.99700573
0.99681888
0.99661274
0.99639331
0.99615276
0.99589448
0.99560569
0.99530838
0.99495876
0.9985269
0.99845441
0.9983976
0.998352
0.99828448
0.99821469
0.99813598
0.99805094
0.99795877
0.99786283
0.99776116
0.99764642
0.99751786
0.99737441
0.99721369
0.99703232
0.99682812
0.9966065
0.99636376
0.99610549
0.99581862
0.99552275
0.99517867
0.99864912
0.99859088
0.99854323
0.99850141
0.99843844
0.99837194
0.99829659
0.9982162
0.99812906
0.99803858
0.99794239
0.99783189
0.99770795
0.99756972
0.99741329
0.99723601
0.99703801
0.99682078
0.99658016
0.99632158
0.9960374
0.9957429
0.99541266
0.99878361
0.99872289
0.99867422
0.99863531
0.99857627
0.9985146
0.9984446
0.99836972
0.99828821
0.99820129
0.99810999
0.99800716
0.99789018
0.99775766
0.99760561
0.99743428
0.99724424
0.99703461
0.99679948
0.99654326
0.99626354
0.99597094
0.99565856
0.99888498
0.99882994
0.99879433
0.99875641
0.99870459
0.99864569
0.99858057
0.9985107
0.99843398
0.9983514
0.99826486
0.99816938
0.9980601
0.99793475
0.99779065
0.99762799
0.99744647
0.99724517
0.99701885
0.99677044
0.99649847
0.99621179
0.99591659
0.99900034
0.99894432
0.9989018
0.99886698
0.99881729
0.99876274
0.99870191
0.99863612
0.99856492
0.9984882
0.99840687
0.99831824
0.99821655
0.99810007
0.99796632
0.99781438
0.9976426
0.99745131
0.99723683
0.99699999
0.99673829
0.99646113
0.99618201
0.99907952
0.99902868
0.99899803
0.99896537
0.99892121
0.99887022
0.9988128
0.99875006
0.9986829
0.99861123
0.99853494
0.99845213
0.99835809
0.99825074
0.9981271
0.9979858
0.99782531
0.99764579
0.99744516
0.99722264
0.99697468
0.99670991
0.99644656
0.99916817
0.99911843
0.99908077
0.99905255
0.99900954
0.99896393
0.9989111
0.99885271
0.99878923
0.99872195
0.99865036
0.99857288
0.9984861
0.99838738
0.99827317
0.9981416
0.99799272
0.99782582
0.99763894
0.99743142
0.99719981
0.99695162
0.99670694
0.99921201
0.9991656
0.99914175
0.99911704
0.99908163
0.99903989
0.99899228
0.99893868
0.9988799
0.99881717
0.99875011
0.99867809
0.99859869
0.99850942
0.99840617
0.99828611
0.99814919
0.9979959
0.99782222
0.99762978
0.99741465
0.99718351
0.9969579
0.99927439
0.9992297
0.99919663
0.99917356
0.99913916
0.99910144
0.99905743
0.99900822
0.99895416
0.99889629
0.99883389
0.9987671
0.99869452
0.9986143
0.99852269
0.99841602
0.99829277
0.99815295
0.99799442
0.99781691
0.9976188
0.99740422
0.99719683
0.99929675
0.99925402
0.9992345
0.99921398
0.99918513
0.99915015
0.99910984
0.99906358
0.99901292
0.99895853
0.99890066
0.99883886
0.99877277
0.9987008
0.99861978
0.9985263
0.9984175
0.99829226
0.99814889
0.99798769
0.99780707
0.9976097
0.99741918
0.99934136
0.99929729
0.99926962
0.99924857
0.99921958
0.99918741
0.99914944
0.99910671
0.99905925
0.999008
0.99895352
0.99889626
0.99883538
0.99877074
0.99869926
0.99861773
0.99852273
0.99841206
0.99828414
0.9981393
0.9979764
0.99779626
0.99762159
0.999345
0.99930617
0.99928833
0.99927016
0.99924408
0.99921399
0.99917794
0.99913766
0.99909257
0.999044
0.99899271
0.99893904
0.99888274
0.99882381
0.99876056
0.9986898
0.99860776
0.99851155
0.99839918
0.99827067
0.99812499
0.99796136
0.99780182
0.99937993
0.99933588
0.99931172
0.99929105
0.99926309
0.99923364
0.99919878
0.99915973
0.99911652
0.99907001
0.99902116
0.99897043
0.99891783
0.99886333
0.99880625
0.99874404
0.99867357
0.99859119
0.998494
0.99838128
0.99825257
0.99810472
0.99795894
0.99937482
0.99933951
0.99932162
0.99930447
0.9992792
0.99925081
0.99921706
0.99917864
0.99913593
0.99909013
0.99904216
0.99899296
0.99894296
0.99889184
0.99883922
0.99878307
0.99872127
0.99865051
0.99856749
0.99846951
0.99835731
0.99822443
0.99809113
0.99940752
0.99936581
0.99934305
0.99932291
0.99929651
0.9992681
0.99923475
0.99919724
0.99915533
0.99911019
0.99906256
0.99901362
0.99896452
0.99891505
0.9988649
0.99881252
0.9987564
0.99869378
0.99862211
0.99853662
0.99843956
0.99831974
0.99819848
0.99940851
0.99937281
0.99935604
0.99933943
0.99931619
0.99928914
0.99925703
0.99922032
0.9991792
0.99913424
0.99908665
0.99903728
0.99898802
0.99893828
0.99888849
0.99883726
0.99878401
0.99872639
0.9986629
0.99858713
0.99850193
0.99839304
0.99828313
0.9994362
0.99939855
0.99937687
0.99935851
0.9993347
0.99930913
0.99927848
0.99924364
0.99920443
0.99916114
0.9991145
0.99906573
0.99901598
0.99896543
0.99891442
0.99886247
0.99880956
0.99875358
0.99869413
0.99862384
0.9985464
0.99844787
0.99834909
0.9994444
0.999408
0.9993926
0.99937667
0.99935625
0.99933213
0.99930346
0.99927046
0.99923289
0.99919099
0.99914575
0.99909759
0.99904763
0.99899605
0.99894355
0.99888999
0.998836
0.99877898
0.99871989
0.99865084
0.99857757
0.99848669
0.99839718
0.99946472
0.99942649
0.9994078
0.99939084
0.99937027
0.9993478
0.99932125
0.99929107
0.99925643
0.99921755
0.99917496
0.99912864
0.99907944
0.99902792
0.99897447
0.99891921
0.99886323
0.99880395
0.99874236
0.99867272
0.99860079
0.99851518
0.99843116
0.99946443
0.99942935
0.99941532
0.99940093
0.99938329
0.99936218
0.99933755
0.99930916
0.99927656
0.99924019
0.99919986
0.99915521
0.9991075
0.99905638
0.9990028
0.99894637
0.99888824
0.99882572
0.99876091
0.99868966
0.99861776
0.99853503
0.99845399
0.99947208
0.99943425
0.99941825
0.99940285
0.99938518
0.99936586
0.99934296
0.99931681
0.99928698
0.99925337
0.99921547
0.99917298
0.99912695
0.99907717
0.9990241
0.99896702
0.99890656
0.99884111
0.99877366
0.99870065
0.99862754
0.99854571
0.99846539
0.9994612
0.9994272
0.9994146
0.99940128
0.99938539
0.99936694
0.99934537
0.99932046
0.99929196
0.9992597
0.99922312
0.999182
0.99913713
0.99908772
0.99903462
0.99897647
0.99891446
0.99884714
0.99877751
0.99870292
0.9986283
0.99854622
0.99846489
0.99945763
0.99942134
0.99940697
0.99939332
0.99937709
0.99936018
0.99933989
0.99931677
0.99928993
0.99925916
0.9992242
0.9991844
0.99914019
0.99909099
0.99903698
0.99897719
0.99891342
0.99884461
0.99877329
0.99869713
0.99862094
0.998538
0.99845431
0.99943832
0.99940557
0.99939352
0.99938133
0.99936669
0.99935049
0.99933136
0.99930947
0.9992837
0.99925368
0.99921951
0.99918064
0.99913689
0.99908764
0.99903256
0.99897125
0.99890593
0.99883581
0.99876289
0.99868502
0.99860702
0.99852296
0.99843608
0.99942575
0.99939267
0.99937859
0.99936642
0.99935106
0.99933624
0.99931814
0.99929769
0.99927349
0.99924496
0.99921196
0.99917386
0.9991303
0.99908061
0.99902483
0.9989626
0.99889613
0.99882453
0.99875023
0.998671
0.9985912
0.99850573
0.99841564
0.99940934
0.99937487
0.99936307
0.99935027
0.99933627
0.99932127
0.99930396
0.99928389
0.99926006
0.99923213
0.99919971
0.99916201
0.9991185
0.99906836
0.99901193
0.99894938
0.99888279
0.99881047
0.9987349
0.99865446
0.99857332
0.99848659
0.99839335
0.99939254
0.99935893
0.99934562
0.99933338
0.99931863
0.99930496
0.9992886
0.99926952
0.99924624
0.9992189
0.99918695
0.99914936
0.99910544
0.999055
0.99899881
0.9989363
0.99886921
0.99879639
0.99872012
0.9986386
0.99855594
0.9984682
0.99837259
0.99936876
0.99933553
0.99932397
0.99931217
0.99929879
0.99928544
0.99926957
0.99925071
0.99922781
0.99920075
0.99916898
0.99913149
0.99908762
0.99903719
0.99898143
0.99891969
0.99885328
0.99878046
0.99870373
0.99862181
0.99853835
0.99844931
0.99835157
0.99935271
0.99931848
0.99930556
0.99929376
0.99927985
0.99926683
0.99925114
0.99923239
0.9992095
0.99918243
0.99915064
0.99911258
0.9990684
0.99901831
0.9989631
0.998902
0.99883621
0.99876415
0.99868752
0.99860537
0.99852146
0.99843183
0.99833236
0.999323
0.99929113
0.99927924
0.99926864
0.99925577
0.99924309
0.99922749
0.99920903
0.99918664
0.99915959
0.99912766
0.99908928
0.99904485
0.99899522
0.99894085
0.9988808
0.9988158
0.99874473
0.99866929
0.99858793
0.99850392
0.99841389
0.99831386
0.99930375
0.99926724
0.99925522
0.99924381
0.99923092
0.99921774
0.99920187
0.99918332
0.99916106
0.99913384
0.99910105
0.99906228
0.99901812
0.99896861
0.99891448
0.99885537
0.9987917
0.99872185
0.99864755
0.99856748
0.99848448
0.99839478
0.99829472
0.99926308
0.99923173
0.9992209
0.99921121
0.99919983
0.99918777
0.99917235
0.99915395
0.99913154
0.99910416
0.99907094
0.99903174
0.99898754
0.99893855
0.99888491
0.99882633
0.99876345
0.99869504
0.99862223
0.99854339
0.99846146
0.99837339
0.99827437
0.99922254
0.99918755
0.99917943
0.9991691
0.99915869
0.99914699
0.99913206
0.99911377
0.99909146
0.99906388
0.99903049
0.99899163
0.99894791
0.99889961
0.99884667
0.99878882
0.99872699
0.99865997
0.99858888
0.99851193
0.99843172
0.99834561
0.99824862
0.9991729
0.99914032
0.99913182
0.99912278
0.99911287
0.99910191
0.99908707
0.99906886
0.99904591
0.99901746
0.99898352
0.9989445
0.99890084
0.99885291
0.99880049
0.9987432
0.99868193
0.99861589
0.99854585
0.99847033
0.998392
0.99830825
0.99821373
0.99910055
0.99907119
0.99906481
0.9990573
0.99904855
0.99903884
0.99902541
0.99900806
0.99898518
0.99895659
0.99892294
0.99888428
0.99884079
0.99879311
0.99874128
0.9986847
0.99862402
0.9985588
0.99849007
0.99841587
0.99833906
0.99825738
0.99816558
0.99903635
0.99900546
0.99899943
0.99899197
0.99898341
0.99897357
0.99895972
0.99894206
0.99891831
0.99888879
0.9988546
0.99881566
0.99877204
0.99872397
0.99867183
0.99861539
0.99855492
0.9984897
0.99842125
0.99834815
0.99827246
0.99819205
0.99810181
0.99894665
0.99891884
0.99891376
0.99890755
0.99889968
0.99889019
0.99887638
0.9988583
0.99883412
0.9988043
0.99876977
0.9987305
0.9986867
0.99863831
0.99858578
0.99852904
0.99846849
0.99840323
0.99833471
0.99826198
0.99818708
0.99810755
0.99801869
0.998869
0.9988391
0.99883357
0.99882633
0.99881774
0.99880737
0.99879227
0.99877286
0.99874721
0.99871631
0.99868053
0.99863983
0.99859465
0.99854498
0.99849139
0.99843326
0.99837131
0.99830495
0.99823551
0.99816192
0.99808632
0.99800644
0.99791785
0.99877992
0.99875053
0.99874588
0.9987381
0.99872902
0.99871774
0.99870114
0.9986798
0.99865236
0.9986198
0.99858244
0.99854009
0.99849318
0.99844161
0.99838625
0.9983263
0.99826246
0.99819438
0.99812315
0.99804782
0.99797047
0.99788937
0.99780009
0.99870736
0.99867475
0.99866909
0.99865893
0.99864834
0.99863503
0.99861626
0.99859268
0.99856318
0.99852843
0.99848866
0.99844375
0.99839425
0.99833975
0.99828149
0.99821853
0.99815183
0.99808087
0.99800666
0.9979285
0.99784847
0.99776495
0.99767252
0.99862686
0.99859649
0.99859063
0.99857995
0.99856814
0.99855364
0.9985328
0.99850736
0.99847588
0.99843938
0.99839756
0.99835041
0.99829853
0.99824111
0.99817989
0.99811365
0.9980435
0.99796906
0.99789113
0.99780933
0.99772564
0.99763901
0.99754307
0.99857379
0.99853836
0.99853308
0.99851914
0.99850602
0.99848875
0.9984655
0.99843756
0.99840371
0.99836482
0.99832054
0.99827083
0.99821629
0.99815592
0.99809145
0.99802184
0.99794794
0.99786988
0.99778786
0.99770202
0.99761374
0.99752304
0.99742271
0.99851666
0.99848644
0.99847891
0.99846551
0.99845098
0.99843253
0.99840749
0.99837804
0.99834248
0.99830178
0.99825543
0.99820352
0.99814658
0.99808353
0.99801609
0.99794345
0.99786628
0.99778489
0.99769919
0.99760968
0.99751717
0.99742294
0.99731916
0.99848015
0.99844809
0.99844131
0.99842681
0.99841143
0.99839187
0.99836581
0.9983355
0.99829885
0.99825698
0.99820918
0.99815566
0.99809702
0.99803197
0.99796231
0.99788719
0.9978073
0.99772298
0.99763412
0.99754126
0.99744503
0.99734746
0.99724088
0.99843292
0.99840506
0.99839698
0.99838396
0.9983682
0.99834887
0.99832278
0.99829274
0.99825613
0.99821418
0.99816618
0.9981123
0.99805303
0.99798738
0.99791673
0.99784063
0.99775951
0.99767373
0.99758332
0.99748869
0.99739046
0.99729111