/*--------------------------------*- C++ -*----------------------------------*\
| =========                 |                                                 |
| \\      /  F ield         | OpenFOAM: The Open Source CFD Toolbox           |
|  \\    /   O peration     | Version:  2406                                  |
|   \\  /    A nd           | Website:  www.openfoam.com                      |
|    \\/     M anipulation  |                                                 |
\*---------------------------------------------------------------------------*/
FoamFile
{
    version     2.0;
    format      ascii;
    arch        "LSB;label=32;scalar=64";
    class       volScalarField;
    location    "110";
    object      pMean;
}
// * * * * * * * * * * * * * * * * * * * * * * * * * * * * * * * * * * * * * //

dimensions      [1 -1 -2 0 0 0 0];

internalField   nonuniform List<scalar> 
20580
(
1.0038269
1.004915
1.0038937
1.0039993
1.0041161
1.0041238
1.004135
1.0041642
1.0041947
1.004233
1.004263
1.0042919
1.0043136
1.0043332
1.0043439
1.0043492
1.0043399
1.0043211
1.0043
1.0042517
1.0041718
1.0040912
1.003978
1.0037959
1.0035798
1.0033768
1.0031029
1.0027209
1.002311
1.0018396
1.0013028
1.0038139
1.0049104
1.0038969
1.0040001
1.0041176
1.0041241
1.0041347
1.004164
1.0041929
1.0042294
1.0042574
1.0042847
1.0043041
1.0043201
1.0043277
1.0043317
1.004319
1.0042982
1.0042773
1.004215
1.0041388
1.0040547
1.0039294
1.0037639
1.003564
1.0033797
1.0031287
1.0027483
1.0023501
1.0018921
1.0014099
1.0038065
1.0049083
1.0038957
1.0040042
1.0041156
1.0041228
1.0041344
1.0041618
1.0041915
1.004224
1.0042514
1.004276
1.0042929
1.0043043
1.0043105
1.0043111
1.0042925
1.0042706
1.0042459
1.0041731
1.0040975
1.0040125
1.0038805
1.0037168
1.003518
1.0033274
1.0030882
1.0027253
1.0023389
1.0019277
1.0015026
1.0037982
1.0049036
1.0038935
1.0040097
1.0041106
1.0041211
1.0041345
1.0041586
1.0041905
1.0042189
1.0042461
1.0042672
1.0042823
1.0042902
1.0042936
1.0042897
1.0042683
1.0042447
1.0042115
1.0041305
1.0040555
1.0039729
1.0038334
1.0036687
1.0034641
1.0032409
1.0030026
1.0026721
1.0022949
1.0019164
1.0015535
1.0037972
1.0049019
1.0038934
1.0040186
1.0041079
1.0041204
1.0041346
1.004156
1.0041888
1.0042149
1.0042412
1.0042595
1.004273
1.0042793
1.0042782
1.004269
1.0042458
1.0042203
1.0041759
1.004091
1.0040179
1.0039321
1.0037863
1.003629
1.0034324
1.0031843
1.0029301
1.0026229
1.0022634
1.0018897
1.0015839
1.0037938
1.0049047
1.0038902
1.0040251
1.0041077
1.00412
1.0041329
1.0041547
1.0041854
1.0042116
1.0042362
1.0042528
1.0042643
1.00427
1.0042647
1.0042494
1.0042265
1.004198
1.0041432
1.0040587
1.0039886
1.0038929
1.0037344
1.0035895
1.0034247
1.0031767
1.0028916
1.0025885
1.0022486
1.0018371
1.0015333
1.0037889
1.0049054
1.0038815
1.0040257
1.0041096
1.0041192
1.0041299
1.0041547
1.0041818
1.0042093
1.0042312
1.0042472
1.0042561
1.0042614
1.0042527
1.0042334
1.0042122
1.0041802
1.0041162
1.0040357
1.0039633
1.003854
1.0036904
1.0035542
1.0034032
1.0031629
1.0028813
1.0025969
1.0022937
1.0018664
1.0014387
1.0037788
1.0049045
1.0038719
1.0040227
1.0041146
1.0041193
1.0041269
1.0041552
1.0041794
1.0042073
1.0042269
1.0042417
1.0042489
1.0042519
1.0042418
1.0042202
1.0042008
1.0041668
1.0040948
1.0040168
1.0039393
1.0038225
1.0036623
1.0035263
1.0033707
1.0031297
1.0028488
1.0026062
1.0023708
1.0020259
1.0015431
1.0037765
1.0049014
1.0038592
1.0040197
1.00412
1.004119
1.004125
1.0041546
1.0041788
1.0042045
1.0042233
1.0042369
1.0042434
1.0042435
1.0042314
1.0042083
1.0041881
1.0041514
1.0040759
1.0040014
1.003916
1.0037964
1.0036427
1.0034928
1.0033305
1.0030996
1.002815
1.0025692
1.0023595
1.0020858
1.0016912
1.0037709
1.0049017
1.0038494
1.004021
1.004125
1.0041168
1.0041248
1.0041528
1.0041791
1.0042013
1.00422
1.0042331
1.004239
1.0042373
1.0042231
1.0041978
1.0041754
1.0041345
1.0040608
1.0039894
1.0038964
1.0037696
1.0036264
1.0034621
1.0032909
1.0030893
1.0028246
1.002534
1.0022701
1.0019915
1.001693
1.0037637
1.0048924
1.0038412
1.0040244
1.0041256
1.0041136
1.0041266
1.0041508
1.0041792
1.0041987
1.0042174
1.0042299
1.0042358
1.0042321
1.0042169
1.0041922
1.0041663
1.0041218
1.0040511
1.0039826
1.0038819
1.0037518
1.0036272
1.0034579
1.0032545
1.0030631
1.0028495
1.002565
1.0022458
1.0019157
1.0016022
1.0037471
1.0048898
1.0038418
1.004031
1.0041236
1.0041126
1.0041298
1.0041488
1.0041767
1.0041957
1.0042147
1.0042268
1.0042322
1.0042269
1.0042112
1.0041881
1.0041607
1.0041136
1.0040477
1.0039775
1.0038697
1.0037426
1.0036397
1.0034884
1.0032629
1.003052
1.002871
1.0026312
1.0023119
1.0019676
1.0016562
1.0037268
1.0048822
1.0038427
1.0040432
1.0041182
1.004111
1.0041313
1.0041505
1.0041754
1.0041944
1.004213
1.004225
1.0042295
1.0042226
1.0042073
1.0041862
1.0041559
1.0041064
1.0040457
1.0039732
1.003862
1.0037344
1.0036388
1.0035015
1.0032742
1.003044
1.0028629
1.0026637
1.0023834
1.0020509
1.0017664
1.003738
1.0048674
1.0038403
1.00406
1.0041144
1.0041093
1.0041272
1.0041493
1.0041715
1.0041911
1.0042101
1.0042229
1.0042267
1.0042202
1.0042043
1.0041854
1.004152
1.0041018
1.0040422
1.0039656
1.0038572
1.0037334
1.0036295
1.0034953
1.0032874
1.0030657
1.0028713
1.002659
1.0023872
1.0020457
1.0017703
1.0037314
1.0048522
1.0038399
1.0040728
1.0041142
1.0041106
1.0041241
1.0041509
1.0041721
1.004189
1.0042075
1.0042194
1.0042218
1.0042176
1.0042019
1.0041815
1.0041498
1.0041017
1.0040439
1.0039573
1.0038502
1.0037324
1.003616
1.0034727
1.0032821
1.0030702
1.0028667
1.0026403
1.0023824
1.0020662
1.0017599
1.0037251
1.0048603
1.0038313
1.004078
1.0041155
1.0041101
1.0041188
1.0041462
1.004171
1.0041863
1.0042063
1.0042172
1.0042186
1.0042149
1.0041984
1.0041738
1.0041427
1.004101
1.0040477
1.0039556
1.0038525
1.0037462
1.0036135
1.0034571
1.0032842
1.0030955
1.0028804
1.0026412
1.0023981
1.0021331
1.001824
1.003704
1.0048427
1.0038217
1.00409
1.004117
1.0041073
1.0041202
1.0041463
1.0041713
1.0041847
1.0042065
1.0042148
1.0042158
1.0042135
1.0041983
1.004171
1.0041402
1.0041021
1.0040483
1.0039541
1.0038629
1.0037724
1.0036377
1.0034722
1.0033126
1.0031383
1.0029074
1.002658
1.0024285
1.0022308
1.0019621
1.0037046
1.0048468
1.0038017
1.0040929
1.0041139
1.0040996
1.0041211
1.0041405
1.0041719
1.0041804
1.004204
1.0042112
1.0042132
1.0042107
1.0041975
1.0041709
1.0041371
1.0041021
1.0040485
1.0039539
1.0038673
1.0037908
1.0036582
1.0034825
1.003334
1.0032015
1.0029913
1.002709
1.002435
1.0022189
1.0020107
1.0037152
1.0048012
1.0037993
1.0041184
1.0041173
1.0040969
1.0041271
1.0041412
1.0041697
1.0041817
1.0042068
1.0042111
1.0042129
1.0042086
1.0041959
1.0041734
1.0041414
1.0041066
1.004052
1.0039574
1.0038709
1.0037952
1.0036745
1.0034991
1.0033414
1.0032076
1.0030346
1.0027835
1.002506
1.0022439
1.0020189
1.0036898
1.0048554
1.003762
1.0041235
1.004113
1.0040925
1.0041295
1.0041384
1.0041754
1.0041705
1.0042042
1.0042073
1.0042109
1.004208
1.0041935
1.0041702
1.0041379
1.0041017
1.0040469
1.0039624
1.003873
1.0037852
1.0036656
1.003503
1.0033473
1.0031979
1.003018
1.0027855
1.0025237
1.0022667
1.0020183
1.0036836
1.0047907
1.0037778
1.0041643
1.0041069
1.0040931
1.0041299
1.0041398
1.0041702
1.0041811
1.0042092
1.0042072
1.0042112
1.0042063
1.0041937
1.0041786
1.0041463
1.0041137
1.0040504
1.0039769
1.0038882
1.0037863
1.0036705
1.003534
1.0033837
1.0032146
1.0030124
1.0028086
1.0025928
1.0023506
1.0020775
1.0036783
1.0048548
1.003685
1.0041908
1.0040949
1.0040898
1.0041253
1.0041319
1.0041889
1.0041446
1.0042156
1.0041983
1.0042125
1.0042088
1.0041877
1.0041751
1.0041419
1.0041136
1.0040536
1.0039902
1.0039065
1.0037956
1.0036723
1.0035626
1.0034305
1.0032535
1.0030307
1.0028251
1.0026401
1.0024267
1.0021461
1.0036661
1.0047592
1.0037742
1.0042141
1.0040746
1.0040905
1.0041121
1.0041264
1.0041662
1.0041735
1.0042023
1.0041965
1.0042073
1.0041973
1.0041874
1.0041892
1.0041521
1.0041275
1.0040587
1.0040036
1.0039344
1.0038245
1.0037038
1.0036012
1.0034873
1.0033164
1.0031087
1.0029221
1.0027565
1.0025404
1.0022622
1.001915
1.0018805
1.0017909
1.0017903
1.0017825
1.0017366
1.0016679
1.0015097
1.0014791
1.0014716
1.0014433
1.0013321
1.0012335
1.0012681
1.0011833
1.0010854
1.0010158
1.0010871
1.0011019
1.0010262
1.0008342
1.0006982
1.0006994
1.0015509
1.0014969
1.0014364
1.0013452
1.001315
1.0012974
1.0011987
1.0011304
1.0010604
1.0011459
1.0011132
1.0009842
1.0007636
1.000713
1.0006862
1.0006272
1.0005331
1.0004278
1.0004412
1.0004017
1.0001901
0.99994388
0.99992343
1.0013276
1.0011557
1.0010057
1.0008771
1.0008954
1.0008513
1.0007578
1.0006411
1.0005725
1.0006454
1.0005837
1.0004194
1.0002193
1.0001927
1.0002458
1.0002118
1.0000523
0.99977233
0.99969698
0.99967383
0.99949274
0.99921858
0.99920042
1.0009539
1.0006739
1.0004869
1.0004018
1.0005069
1.0005665
1.0004364
1.0002202
0.99999555
0.99996923
1.0000472
0.99988331
0.99971384
0.99951586
0.99965163
0.9997926
0.9996046
0.99917156
0.99894542
0.99909303
0.99900549
0.99871037
0.99837715
1.0003053
1.0000834
0.99994115
0.99989811
0.999988
1.0001306
1.0000032
0.99976723
0.99941925
0.99935965
0.99948149
0.9995092
0.99929316
0.99894707
0.99886334
0.99914698
0.99900522
0.99861439
0.99816761
0.99834812
0.99861689
0.99839067
0.99776055
0.99980899
0.99960784
0.99941737
0.99930369
0.99932344
0.99952059
0.99942285
0.99920035
0.99883671
0.9987569
0.99900305
0.99928934
0.99900676
0.99852125
0.99805459
0.99819919
0.99840949
0.99810089
0.99759784
0.9973742
0.99784072
0.99791218
0.99731976
0.99953885
0.9992025
0.99886776
0.99864879
0.99865714
0.99890672
0.99885981
0.99864441
0.99824319
0.99812388
0.99839357
0.99884862
0.99862769
0.99808927
0.99738334
0.99746093
0.99797367
0.99790246
0.99730592
0.99655609
0.99664927
0.99727372
0.99693132
0.99909397
0.99867172
0.99824797
0.99802842
0.99810179
0.99852145
0.9986298
0.99838022
0.99778806
0.9974751
0.99764602
0.99823941
0.99820928
0.99767404
0.9968384
0.99676738
0.99734481
0.99787178
0.99728824
0.9962415
0.9955813
0.99607862
0.99642776
0.99862255
0.99808938
0.99759095
0.99744383
0.99766962
0.99834658
0.99865603
0.9983829
0.9974793
0.99692001
0.99690085
0.99757658
0.99783224
0.99742239
0.99637383
0.99600457
0.99653904
0.9976301
0.99735067
0.99620475
0.99488595
0.99500481
0.99602341
0.99833934
0.99768135
0.99706484
0.99691216
0.99720284
0.99806932
0.9985656
0.99832493
0.99719219
0.99646156
0.99635966
0.99708965
0.99786138
0.99754157
0.99625845
0.99545338
0.9957114
0.99692353
0.9973488
0.99634766
0.99464598
0.9941878
0.99512253
0.99845284
0.9976204
0.99675557
0.99646765
0.99669109
0.99766695
0.99840671
0.99824484
0.99695636
0.99605211
0.9958953
0.99682541
0.99815953
0.99808862
0.99664128
0.99517276
0.99482863
0.99591159
0.99729653
0.9966882
0.99474557
0.99345509
0.99411369
0.9991265
0.99790531
0.99660015
0.99605946
0.99624015
0.99742665
0.99854372
0.99845558
0.99699916
0.99576646
0.99543381
0.99652524
0.99842256
0.99885248
0.99742493
0.99523892
0.99426194
0.99513531
0.99707076
0.99722647
0.99535539
0.99323874
0.99302536
0.9998798
0.99829252
0.99656773
0.99583265
0.996048
0.99745136
0.99898721
0.99894214
0.99740928
0.99570867
0.99514459
0.99618349
0.99837395
0.99947243
0.99829783
0.99560989
0.99406724
0.99455981
0.99669126
0.99801068
0.99657648
0.99363817
0.99230093
1.0004595
0.99862546
0.99665642
0.99585565
0.99614492
0.99774176
0.99962496
0.99979578
0.99815143
0.99599764
0.99511143
0.99591332
0.99814299
0.99980873
0.99898733
0.99612576
0.9942114
0.99434402
0.99636377
0.99854856
0.99776545
0.99447665
0.99224742
1.0011173
0.99910107
0.99684499
0.99598462
0.99640713
0.9983147
1.0005541
1.0009681
0.99911896
0.99647681
0.99521524
0.99580745
0.99810365
1.0002047
0.99967718
0.99671268
0.99440758
0.99418036
0.99623228
0.99914175
0.99898039
0.99562723
0.99247733
1.0019862
0.99957916
0.99705736
0.99608523
0.99666271
0.99893035
1.0016115
1.0022262
1.0000816
0.99695887
0.99535081
0.99581744
0.99825794
1.0008415
1.0005394
0.99736742
0.99457499
0.99404809
0.99618445
0.99970086
1.0003354
0.99692443
0.99298296
1.0030595
1.0002933
0.99735341
0.99621511
0.99692792
0.99959199
1.0027894
1.0035937
1.001116
0.9974623
0.9954819
0.99590186
0.99858789
1.0016467
1.0015275
0.99807677
0.99477283
0.99400492
0.9962583
1.000249
1.0015055
0.99799904
0.99345922
1.0047345
1.0011519
0.997904
0.99648177
0.99726095
1.0002762
1.0039609
1.0049459
1.0021181
0.99797041
0.99569025
0.99610943
0.99908976
1.0025318
1.0025141
0.99867572
0.99499837
0.99413505
0.9965718
1.0009275
1.0024798
0.99868379
0.99371202
1.0060802
1.0020121
0.9985355
0.99688548
0.99775474
1.001098
1.0051873
1.0062389
1.0029345
0.9983978
0.99597663
0.99652765
0.99990166
1.0036608
1.0034462
0.99902591
0.99517158
0.9944204
0.99723008
1.0019713
1.0034332
0.99889973
0.99375951
1.0073138
1.0028032
0.99890825
0.99717948
0.99818185
1.0019398
1.0064421
1.0073714
1.0034657
0.99852823
0.99607437
0.99696595
1.0009741
1.0049057
1.0040693
0.99894532
0.99507857
0.99478992
0.99831808
1.0033635
1.004053
0.9984438
0.99347495
1.0086183
1.003701
0.99934861
0.99758218
0.99867565
1.002693
1.0074492
1.0081301
1.0036254
0.99841141
0.99607764
0.99744075
1.0020238
1.0058709
1.0040386
0.99831128
0.99476192
0.9953223
0.99974994
1.0048
1.0038947
0.99728074
0.99288422
1.009546
1.0044969
0.99970936
0.99795627
0.99909374
1.0033126
1.0081871
1.0083789
1.0032346
0.99797793
0.99599478
0.99801615
1.0031061
1.0064817
1.0032283
0.9971229
0.99432358
0.99610981
1.0015691
1.0059072
1.0025198
0.99549147
0.99213176
1.0098755
1.0049538
0.99971579
0.99798121
0.99914352
1.0034748
1.0083325
1.0078718
1.0021855
0.99705755
0.9956563
0.99843927
1.0039822
1.0062406
1.0014997
0.9956349
0.9939476
0.99711664
1.0033905
1.0057315
0.99965959
0.9935456
0.99216091
1.0093224
1.0042079
0.9990328
0.99760482
0.99878145
1.0030139
1.0074679
1.006122
1.0000997
0.99558517
0.99513639
0.99890712
1.0046446
1.0049589
0.99891357
0.99392657
0.99386866
0.99853542
1.0046362
1.0035308
0.99597102
0.99195462
0.99345822
1.0071227
1.0014593
0.99692467
0.9966699
0.998493
1.0023148
1.0055827
1.0032464
0.99740134
0.99399227
0.99497282
0.99973813
1.0046526
1.0026593
0.99583466
0.99234758
0.99419932
1.0001895
1.0041476
0.9990989
0.99261653
0.99152411
0.9960371
1.0011496
0.99560832
0.99260089
0.99422121
0.99719092
0.99986125
1.0007353
0.99800636
0.99395169
0.99280014
0.99519166
1.0002005
1.0025326
0.99828749
0.99277599
0.9915365
0.99514574
1.0009758
1.0008498
0.99397428
0.99077457
0.9932225
0.99950385
0.99640742
0.99268012
0.99083412
0.9921524
0.99559588
0.99678665
0.99596009
0.99306252
0.99106546
0.99179016
0.99514464
0.9984946
0.9976189
0.993377
0.99069585
0.99180269
0.99631125
0.99909505
0.99507788
0.99084856
0.99109504
0.99623275
1.0004405
0.9900925
0.9862834
0.98403746
0.98650457
0.99058546
0.99205338
0.99071561
0.98877042
0.98846227
0.99054165
0.99422124
0.99486443
0.99238124
0.98998017
0.99012288
0.99291349
0.99607584
0.99490595
0.99110054
0.99030256
0.99326266
0.99766509
0.99762367
0.98019101
0.97474718
0.97358169
0.9755948
0.97941988
0.98121781
0.98151771
0.98212306
0.98404931
0.98753487
0.99071262
0.99002836
0.98820659
0.98809402
0.99049966
0.99392335
0.9939164
0.99080678
0.98974475
0.99130081
0.99476866
0.99561448
0.99253621
0.98029526
0.97620593
0.97477815
0.97637913
0.97853027
0.97837479
0.97849328
0.98042945
0.98314576
0.98626255
0.98767999
0.98687347
0.98670895
0.98821197
0.99140955
0.99282848
0.99085424
0.98939195
0.99013752
0.99254507
0.99398317
0.9920794
0.99044837
0.98703592
0.9833346
0.98169426
0.98245836
0.9831852
0.98163492
0.98140516
0.98300282
0.98532646
0.98695042
0.98708737
0.9866921
0.98718743
0.9891338
0.99100349
0.99078724
0.98946372
0.98958933
0.99100308
0.99248363
0.99164429
0.990505
0.99088039
0.99055578
0.9880359
0.98721483
0.98724803
0.98722726
0.98563909
0.98523196
0.98646422
0.98788086
0.98849963
0.98776063
0.98785459
0.98874006
0.99015332
0.99060733
0.98970946
0.98969271
0.99071056
0.99234225
0.99214896
0.99079708
0.99066693
0.99147022
0.99380041
0.99211441
0.99173517
0.99170736
0.99134065
0.98998429
0.98917682
0.98939301
0.98984001
0.9899025
0.98922141
0.98949288
0.99017535
0.99043435
0.99002829
0.98981634
0.99038372
0.99123779
0.9916758
0.99107972
0.99070974
0.99094448
0.9917335
0.99514668
0.99389174
0.99370238
0.99376943
0.99330909
0.99230677
0.99168339
0.99167577
0.99173002
0.9914474
0.99078482
0.99111922
0.99186467
0.99182487
0.99097646
0.99065781
0.99116823
0.99185692
0.9917831
0.99116662
0.99092035
0.99123451
0.99147599
0.99655942
0.99594813
0.99556686
0.99549817
0.99506382
0.9942852
0.9937086
0.99350627
0.99318172
0.99264507
0.99212333
0.99237296
0.99254197
0.99204333
0.99136451
0.9913561
0.99165785
0.99149571
0.99096521
0.9909897
0.99137446
0.99183944
0.99144464
0.99668357
0.99633019
0.996056
0.99597162
0.99567371
0.99518842
0.99473279
0.99449701
0.99431809
0.99376831
0.99320671
0.99298408
0.99288042
0.99272949
0.99242819
0.99226744
0.9921283
0.99203863
0.99179514
0.99151669
0.9913029
0.99128061
0.99123046
0.99717024
0.99696613
0.99678776
0.99675907
0.9965332
0.99616877
0.99572217
0.9954303
0.9953154
0.99494077
0.99430751
0.99383781
0.99384485
0.99351595
0.99304848
0.99269863
0.99278145
0.99274225
0.99237004
0.99196328
0.99163659
0.99149417
0.99126742
0.99723573
0.99708513
0.99699772
0.99705088
0.99693508
0.99669643
0.99635198
0.99602793
0.99582506
0.99557731
0.9951702
0.99469318
0.99454194
0.99430236
0.99388446
0.99340516
0.99317877
0.99309027
0.99283017
0.99247282
0.99209001
0.99179825
0.99153368
0.99754835
0.99742549
0.99731399
0.9973555
0.99725987
0.99709892
0.99685696
0.99658426
0.99633274
0.99606444
0.99575872
0.99538515
0.99515049
0.99500496
0.99467575
0.99419318
0.99373526
0.99348228
0.99320057
0.99284744
0.99248214
0.99214101
0.99179786
0.99768738
0.99759266
0.99750777
0.99753803
0.99746801
0.99736208
0.99720153
0.99703399
0.99682342
0.99657108
0.99628355
0.9959696
0.99566022
0.99546571
0.99522689
0.99484388
0.99438655
0.99400741
0.99367096
0.99334575
0.99298634
0.99261035
0.99213709
0.99788166
0.99781163
0.99773974
0.99776593
0.99769442
0.99759953
0.99745948
0.99733963
0.9971857
0.99700249
0.99677063
0.99649724
0.99618885
0.99589784
0.99562945
0.9953221
0.99496663
0.99458005
0.99420693
0.99389794
0.99358264
0.99318953
0.99261866
0.99801084
0.99796043
0.99791331
0.9979582
0.99791556
0.99785419
0.99772862
0.99760593
0.99746683
0.99731302
0.99712749
0.99691446
0.99666656
0.99637853
0.99609007
0.99580959
0.99551783
0.99516791
0.99477101
0.99441254
0.99408836
0.99370665
0.99312488
0.99817837
0.9981195
0.99806977
0.998103
0.99807385
0.99805169
0.99797725
0.99787329
0.9977441
0.99759627
0.99742892
0.99724184
0.99703583
0.99679695
0.99654337
0.99629705
0.99604544
0.99573897
0.9953561
0.99495634
0.99457489
0.99418698
0.99364204
0.99829125
0.99824414
0.9982023
0.99822268
0.99819108
0.99818569
0.99815341
0.99808435
0.99798399
0.99786089
0.99772927
0.9975769
0.99738769
0.99716966
0.9969383
0.99670961
0.99647283
0.99620105
0.99586558
0.99549114
0.99509625
0.99470942
0.9942276
0.99834601
0.99832173
0.99830026
0.99832799
0.99830725
0.99831029
0.99829638
0.99824943
0.99816477
0.99807085
0.99797578
0.99786105
0.99770583
0.99751794
0.99731249
0.99709032
0.99684807
0.99658752
0.99629222
0.99596703
0.99560541
0.99524359
0.99483244
0.99839835
0.99838811
0.99837564
0.99840043
0.99839488
0.99840948
0.99840544
0.99837922
0.99831205
0.99823692
0.99815446
0.99805565
0.99793405
0.99778845
0.99761965
0.99741977
0.99719469
0.99695968
0.99670528
0.99642647
0.99610774
0.99577693
0.99541304
0.99841956
0.99841595
0.99840699
0.99842343
0.99841662
0.99843449
0.99843694
0.99843755
0.99841382
0.99836844
0.99830565
0.99822262
0.99812784
0.99801889
0.99788172
0.99771301
0.99752421
0.99732269
0.9971012
0.99685463
0.99657374
0.99627249
0.99593942
0.99841187
0.99840303
0.99840415
0.99842642
0.99842347
0.99843813
0.99844486
0.99845749
0.99846515
0.99845407
0.9984203
0.99836584
0.99829778
0.9982151
0.99810645
0.9979726
0.99781984
0.99764586
0.99744365
0.99721614
0.99696345
0.99669361
0.99639986
0.99841723
0.99838785
0.99838874
0.99840525
0.99841537
0.99843024
0.9984438
0.99845976
0.99847771
0.9984889
0.99848347
0.9984587
0.99841508
0.99835332
0.99827242
0.9981739
0.99805727
0.99791553
0.99774284
0.99754359
0.99732087
0.99708431
0.9968379
0.99843495
0.9983983
0.99838305
0.99838455
0.99838766
0.99840383
0.99842348
0.99844328
0.99846664
0.99848878
0.99850424
0.99850719
0.99849245
0.99845856
0.99840648
0.99833686
0.99824873
0.9981371
0.99799779
0.99783054
0.99763687
0.99742941
0.99722224
0.99844837
0.99841129
0.99839058
0.99838598
0.9983803
0.99839143
0.99840916
0.99843088
0.99845419
0.99847981
0.99850268
0.99852122
0.99853044
0.99852499
0.99850158
0.99845764
0.99839295
0.99830718
0.99819779
0.99806189
0.99789782
0.99771751
0.99754066
0.9984666
0.99843661
0.99841274
0.99840941
0.99839654
0.99839813
0.99840527
0.99842051
0.99844035
0.99846624
0.99849559
0.99852228
0.99854609
0.99856075
0.99856009
0.99853889
0.99849582
0.99843208
0.99834745
0.99824007
0.99810681
0.99795568
0.99781007
0.99848052
0.99845059
0.99842939
0.99842552
0.99841334
0.99840955
0.99841061
0.99842091
0.99843761
0.99846317
0.99849562
0.99852726
0.99855429
0.99857527
0.99858519
0.9985799
0.99855717
0.99851594
0.99845478
0.99837195
0.99826402
0.99813634
0.99801743
0.99847582
0.99844802
0.99842865
0.99842466
0.99841707
0.99841549
0.9984177
0.99842734
0.99844155
0.99846294
0.99848892
0.99851849
0.99854343
0.99856517
0.99857983
0.99858522
0.99857865
0.99855638
0.99851476
0.99845113
0.99836286
0.99825379
0.99815613
0.99845792
0.99843267
0.99841796
0.99841521
0.99841157
0.99841217
0.99841667
0.99842438
0.99843505
0.99845086
0.99847015
0.99849217
0.99851414
0.9985345
0.99855093
0.99856132
0.99856267
0.9985494
0.99851756
0.99846536
0.9983915
0.9982999
0.99822044
0.99842543
0.99840413
0.99839492
0.99839654
0.9983955
0.99839785
0.99840101
0.99840645
0.99841415
0.99842448
0.99843616
0.99845536
0.99847104
0.99848757
0.99849957
0.99850583
0.99850447
0.99849223
0.99846629
0.99842499
0.99836658
0.99829364
0.99822366
0.99839926
0.99837833
0.99837213
0.99837684
0.99837561
0.99837716
0.99837631
0.998379
0.99838254
0.99838921
0.99839611
0.99840599
0.99841662
0.99842515
0.99842944
0.99842777
0.99841995
0.9984048
0.99838079
0.99834527
0.99829541
0.9982321
0.99816073
0.99838531
0.99836428
0.99835693
0.99836263
0.99835794
0.9983578
0.99835344
0.99835197
0.99835116
0.99835227
0.99835352
0.99835416
0.99835447
0.99835281
0.99834771
0.99833844
0.99832478
0.9983044
0.99827729
0.99824018
0.99819092
0.99812951
0.99805474
0.99838743
0.99836608
0.99835453
0.99835939
0.99835175
0.99834816
0.99834009
0.99833381
0.99832706
0.99832103
0.99831412
0.99830492
0.99829427
0.99828184
0.99826748
0.998248
0.99822697
0.99819755
0.99816365
0.99811814
0.99806239
0.99799533
0.99791678
0.99841535
0.99838335
0.99837144
0.99836944
0.99835938
0.9983505
0.998339
0.99832751
0.99831484
0.99830161
0.99828572
0.99826697
0.99824756
0.9982245
0.99820004
0.99816948
0.99813677
0.99809527
0.99805082
0.99799183
0.99792991
0.99784935
0.99776969
0.99846493
0.99842655
0.99841088
0.99840324
0.99838877
0.99837533
0.9983588
0.99834113
0.99832209
0.99830028
0.99827484
0.99824757
0.99821887
0.99818509
0.99814915
0.99810675
0.99806261
0.9980098
0.9979536
0.99788071
0.99780855
0.99771198
0.9976288
0.99854031
0.99849611
0.99847528
0.99846072
0.99844152
0.99842257
0.99839989
0.99837623
0.99835069
0.99832087
0.99828792
0.99825325
0.99821535
0.99817057
0.99812342
0.99806811
0.99801178
0.99794565
0.99787652
0.99779172
0.99770693
0.99759537
0.9975031
0.99864863
0.99859948
0.99857221
0.99855045
0.99852446
0.99849805
0.99846812
0.99843887
0.9984075
0.99837007
0.99833034
0.99828756
0.9982399
0.99818536
0.99812725
0.99806086
0.99799377
0.9979148
0.99783231
0.99773361
0.99763585
0.99750955
0.99740473
0.99877805
0.99872215
0.99869206
0.99866388
0.99863334
0.99859991
0.99856448
0.99853005
0.99849216
0.99844923
0.99840371
0.99835215
0.99829601
0.99823393
0.99816521
0.99808901
0.99801134
0.99792216
0.99782958
0.99771871
0.99760697
0.99746686
0.9973461
0.9989163
0.99885763
0.99882503
0.99879536
0.99876209
0.99872534
0.99868606
0.99864627
0.99860385
0.9985585
0.99850749
0.99844725
0.99838365
0.99831449
0.99823837
0.99815461
0.99806801
0.9979702
0.9978672
0.99774547
0.99762335
0.99747388
0.99734046
0.99907944
0.99901622
0.99898046
0.9989483
0.99891295
0.99887372
0.99883109
0.9987876
0.99874328
0.99869562
0.99863905
0.99857266
0.99850235
0.9984268
0.99834564
0.99825682
0.99816264
0.99805691
0.99794607
0.99781599
0.99768489
0.99752847
0.99738521
0.99926009
0.99919469
0.99915807
0.99912305
0.99908411
0.99904287
0.99899924
0.99895482
0.99890924
0.9988581
0.99879602
0.99872578
0.99865191
0.99857121
0.99848583
0.99839071
0.99829107
0.99818067
0.99806314
0.99792861
0.99779108
0.99763015
0.99747865
0.99946192
0.99939281
0.99935418
0.99931616
0.99927567
0.99923373
0.99918913
0.99914354
0.99909584
0.99904141
0.99897666
0.99890407
0.99882612
0.99874214
0.99865279
0.99855423
0.99845043
0.99833569
0.99821575
0.99807868
0.99793745
0.99777434
0.99761663
0.99967995
0.99960609
0.99956689
0.9995271
0.99948567
0.99944236
0.99939869
0.99935363
0.999303
0.99924358
0.99917581
0.99910215
0.99902286
0.99893652
0.99884483
0.99874356
0.99863768
0.99852115
0.99839778
0.9982589
0.99811643
0.99795305
0.99779174
0.99991127
0.99983342
0.99979215
0.99974883
0.99970674
0.99966403
0.99962092
0.99957632
0.9995247
0.99946322
0.99939304
0.99931724
0.99923557
0.99914768
0.99905561
0.99895389
0.99884429
0.99872601
0.99860224
0.9984645
0.99832259
0.99816209
0.99800149
1.0001457
1.0000666
1.0000249
0.9999797
0.99993888
0.99989699
0.99985584
0.99981025
0.99975515
0.99969041
0.99961794
0.99954096
0.99945971
0.99937186
0.99927704
0.99917571
0.99906772
0.99894971
0.998822
0.99868626
0.99854559
0.99838992
0.99822755
1.0003808
1.0002988
1.000258
1.0002121
1.0001715
1.0001319
1.0000927
1.0000452
0.99998713
0.99992034
0.99984756
0.99977032
0.99968688
0.99959848
0.9995065
0.99940499
0.99929512
0.99917869
0.99905242
0.99891709
0.99877524
0.9986269
0.99846907
1.0006034
1.0005221
1.0004833
1.0004385
1.0004003
1.000362
1.0003219
1.000273
1.0002137
1.0001449
1.0000712
0.99999482
0.99991232
0.99982279
0.99972853
0.99962761
0.99951956
0.99940246
0.9992773
0.99914638
0.99900697
0.99886168
0.99870664
1.0008033
1.0007225
1.0006872
1.0006446
1.0006109
1.0005752
1.0005348
1.0004831
1.000421
1.0003526
1.0002805
1.0002035
1.0001196
1.0000314
0.99993717
0.99983561
0.99972894
0.99961317
0.99948838
0.99935917
0.99922547
0.99908688
0.99893447
1.0009617
1.0008823
1.0008522
1.0008161
1.0007877
1.0007521
1.00071
1.0006588
1.0005994
1.0005324
1.0004597
1.000382
1.0002975
1.00021
1.000119
1.0000185
0.99990939
0.99979401
0.99967358
0.99954741
0.99941345
0.99927916
0.99913565
1.0010551
1.0009803
1.0009576
1.000927
1.0009072
1.0008753
1.0008339
1.0007846
1.0007286
1.0006652
1.0005942
1.0005184
1.0004364
1.0003459
1.000251
1.0001549
1.0000513
0.99993706
0.99981542
0.99969267
0.99956528
0.99943376
0.99929288
1.0010656
1.0009963
1.0009892
1.0009649
1.0009546
1.0009284
1.000891
1.0008447
1.0007918
1.0007325
1.000664
1.0005883
1.0005076
1.0004217
1.0003295
1.0002317
1.0001285
1.0000177
0.99990204
0.99978059
0.99965248
0.99952628
0.99939401
1.0009836
1.0009151
1.0009213
1.000903
1.0009024
1.0008823
1.0008489
1.000806
1.0007574
1.0007024
1.0006382
1.000566
1.0004878
1.0004044
1.0003133
1.0002165
1.0001153
1.0000083
0.99989639
0.99977934
0.99965723
0.9995387
0.99941418
1.0007574
1.0006988
1.0007207
1.0007095
1.0007154
1.0007012
1.0006766
1.0006429
1.0006006
1.0005494
1.0004862
1.0004161
1.0003437
1.0002671
1.0001804
1.0000841
0.99998333
0.99987968
0.99977058
0.99965514
0.99953922
0.99943046
0.9993135
1.0003838
1.0003395
1.0003727
1.0003716
1.0003869
1.0003853
1.0003718
1.0003444
1.0003049
1.0002568
1.0002006
1.0001353
1.000061
0.9999815
0.9998971
0.99980637
0.99970751
0.99960319
0.99949457
0.99938083
0.99926817
0.99916699
0.99905861
0.99986153
0.999836
0.99988776
0.99989382
0.99991524
0.99991751
0.99991039
0.99989226
0.99985909
0.99981133
0.99975433
0.99968978
0.99961829
0.99953956
0.99945353
0.9993609
0.99926062
0.99915455
0.99904541
0.99893188
0.99881833
0.99871775
0.99861507
0.99922567
0.99920131
0.99926107
0.99927377
0.9993006
0.99930682
0.99930143
0.9992824
0.99924884
0.99920249
0.99914746
0.99908153
0.99900407
0.99891758
0.99882775
0.99873417
0.99862996
0.99851487
0.99839805
0.99828541
0.99817282
0.9980654
0.99795377
0.99852661
0.99851127
0.99856727
0.99857806
0.99860084
0.99860045
0.99858734
0.99856464
0.99852661
0.99847235
0.99840654
0.99833205
0.99824838
0.99815319
0.9980487
0.99793908
0.99782428
0.99770184
0.99757368
0.99744498
0.99731962
0.99720438
0.99708604
0.99780868
0.99778876
0.99784352
0.99784707
0.99786407
0.99785475
0.99782681
0.99778708
0.99773634
0.99767213
0.99759135
0.99749494
0.99738992
0.99727851
0.99715826
0.99702652
0.99688761
0.99674729
0.99660414
0.9964561
0.99630685
0.99616849
0.99602608
0.99707885
0.99706244
0.99711572
0.99711056
0.997114
0.99709464
0.99705948
0.99700621
0.99693466
0.99684673
0.99674725
0.99663297
0.99650401
0.99636215
0.99621266
0.99605563
0.99589032
0.99571879
0.99554452
0.99536872
0.99519271
0.99502399
0.99483515
0.9964187
0.996393
0.99643886
0.99642621
0.99641737
0.99638109
0.99632687
0.99625725
0.9961694
0.99606143
0.99593806
0.99580052
0.99564858
0.99547774
0.99529287
0.99509983
0.99490201
0.99469667
0.99448319
0.99426637
0.99405312
0.99385048
0.99361068
0.9958735
0.99584259
0.99587482
0.99585009
0.99583073
0.9957805
0.99570417
0.99560835
0.99549939
0.99537332
0.9952279
0.99506026
0.99487741
0.99468036
0.9944683
0.99423964
0.99399948
0.99375474
0.99350465
0.99324795
0.9929884
0.99274238
0.9924538
0.99545841
0.99542529
0.99545145
0.99541053
0.99537409
0.99531157
0.99522577
0.99511489
0.99498382
0.9948323
0.99466274
0.9944709
0.99426021
0.99403189
0.99378816
0.99352807
0.99325357
0.99297073
0.99268067
0.99238325
0.99208129
0.99179073
0.9914548
0.99515535
0.99512331
0.99514582
0.99509831
0.99505078
0.99497645
0.99488225
0.99476463
0.99462029
0.99444982
0.99426025
0.99405167
0.99382311
0.99357027
0.99329935
0.99301373
0.99271468
0.99240078
0.99207343
0.99173976
0.99140409
0.99107585
0.99069699
0.99494061
0.99490711
0.99492271
0.99487675
0.99483171
0.99475515