/*--------------------------------*- C++ -*----------------------------------*\
| =========                 |                                                 |
| \\      /  F ield         | OpenFOAM: The Open Source CFD Toolbox           |
|  \\    /   O peration     | Version:  2406                                  |
|   \\  /    A nd           | Website:  www.openfoam.com                      |
|    \\/     M anipulation  |                                                 |
\*---------------------------------------------------------------------------*/
FoamFile
{
    version     2.0;
    format      ascii;
    arch        "LSB;label=32;scalar=64";
    class       volScalarField;
    location    "110";
    object      rho;
}
// * * * * * * * * * * * * * * * * * * * * * * * * * * * * * * * * * * * * * //

dimensions      [1 -3 0 0 0 0 0];

internalField   nonuniform List<scalar> 
20580
(
1.0010189
1.0004442
1.0017967
1.0023918
1.0027467
1.0022097
1.001893
1.002354
1.0031216
1.0027395
1.0028984
1.0031904
1.0031792
1.0032563
1.0026165
1.0038149
1.0032498
1.0009386
1.0056683
1.003352
1.000046
1.0038269
1.0051974
1.0006621
0.99877381
1.007672
1.0069474
1.0021203
1.007058
1.0026038
0.98817102
1.0011099
1.0000018
1.0020299
1.0025643
1.0022898
1.002154
1.0020132
1.0028411
1.0031113
1.0030049
1.0026933
1.0033474
1.0035041
1.0026779
1.0030373
1.0042135
1.0020181
1.0020016
1.0068208
1.0013447
1.000136
1.0055769
1.0040908
0.99961047
1.0004911
1.0117733
1.0104995
0.99815197
1.0012355
1.0074608
0.99715738
1.0013479
1.0008942
1.0024764
1.0022839
1.0018626
1.002387
1.0025619
1.0032843
1.0030713
1.0033649
1.0026169
1.0031984
1.0038517
1.002214
1.0031967
1.0044777
1.0010756
1.0029105
1.0071896
1.0000877
1.0012877
1.0072033
1.0033765
0.99986801
1.0013816
1.0121443
1.0121355
0.99595235
0.99501059
1.0104661
1.0116736
1.0016168
1.0027642
1.0028169
1.0017899
1.0016185
1.0025927
1.0030541
1.0032218
1.0030461
1.0035447
1.0027486
1.0029337
1.003793
1.0021184
1.0032419
1.0043897
1.0009023
1.0038111
1.0065292
0.99973879
1.0029157
1.0080552
1.0028295
1.0016836
1.0021101
1.0086175
1.0105558
0.9967322
0.99064901
1.0075069
1.0224263
1.0018547
1.0047009
1.0026494
1.0015332
1.0017799
1.0025922
1.0031001
1.0026844
1.0030815
1.0033044
1.0028887
1.0029638
1.0030978
1.0024552
1.0033834
1.0038734
1.0014671
1.004762
1.0049702
1.0000509
1.0047179
1.0076781
1.0016286
1.0041082
1.0038392
1.0031494
1.0059329
1.0001871
0.9916458
1.0014281
1.0207043
1.0020285
1.0059006
1.001909
1.0017079
1.0022351
1.0025868
1.0028737
1.0021786
1.0031498
1.0027581
1.0029637
1.0032976
1.0024281
1.0030162
1.003474
1.0029856
1.0024119
1.0053319
1.0027534
1.0008033
1.0063984
1.0063105
0.99956935
1.0060051
1.0067985
0.9987328
1.0000812
1.0044525
0.9986753
0.99749365
1.0091136
1.0020903
1.0057192
1.0009967
1.0021791
1.0026959
1.0025887
1.0026882
1.0022845
1.0031583
1.0024517
1.0031294
1.0035968
1.0021265
1.0035954
1.0034042
1.0021662
1.0033389
1.0056164
1.0007837
1.0018294
1.0073206
1.0046138
0.99751822
1.0064585
1.0098906
0.99747723
0.99524993
1.0069382
1.0094882
0.99943396
0.99588318
1.0020029
1.0043035
1.0005027
1.0026959
1.0030481
1.0025449
1.0026832
1.0030112
1.0030829
1.0026104
1.0032955
1.0034588
1.0023887
1.0037753
1.0035801
1.0017632
1.0040269
1.0056342
0.99979605
1.0031571
1.0072236
1.0029904
0.99666752
1.0053035
1.0114509
0.99924494
0.99320213
1.0065357
1.017975
1.007159
0.99102362
1.0018272
1.0023134
1.0008669
1.0029408
1.0030237
1.0026172
1.0027351
1.0037439
1.0028723
1.0029619
1.0035
1.0029919
1.0027662
1.0037472
1.0036539
1.0018369
1.0042642
1.0049757
0.99964714
1.0044496
1.0064317
1.0020539
0.99803459
1.0037163
1.0102127
1.0023808
0.99476333
1.0039429
1.018806
1.0152292
0.9956397
1.0017088
1.0007354
1.0020172
1.0026734
1.0025489
1.0027413
1.0027819
1.0038668
1.0026373
1.0032148
1.0035903
1.0027866
1.0030952
1.003579
1.003431
1.0021631
1.0041175
1.0037455
1.0004417
1.0057662
1.0046713
1.0013346
1.0017382
1.0030615
1.0061418
1.0048352
0.99946011
1.0016509
1.0109887
1.0161391
1.0048877
1.0016463
1.0002688
1.0033182
1.002125
1.0021208
1.0027433
1.0028793
1.0033547
1.0026869
1.0032955
1.0033704
1.0028348
1.0032853
1.0033881
1.0029877
1.0028425
1.003963
1.002542
1.0018583
1.0070681
1.0026982
1.0003961
1.0063632
1.0040099
1.0007068
1.0049179
1.0060029
1.0017271
1.000358
1.0064648
1.0098751
1.0015287
1.0011217
1.0039175
1.0016081
1.0018685
1.0026677
1.003017
1.0026605
1.0031242
1.003423
1.0030256
1.0029101
1.0036239
1.00305
1.0026497
1.0037556
1.0040345
1.0014278
1.003107
1.0075718
1.0012734
0.9994699
1.0100383
1.0066186
0.99657135
1.0023217
1.0114035
1.0053977
0.99452206
0.99337219
1.0060568
1.0014438
1.002983
1.0033549
1.0013904
1.00185
1.002549
1.0031204
1.0022545
1.0035862
1.0036234
1.0028366
1.0028913
1.0042244
1.0027198
1.0024861
1.0043597
1.0040386
1.0007334
1.0041836
1.0071012
1.0005642
0.99885832
1.0111496
1.0090688
0.9953558
0.99887152
1.0127217
1.0111174
0.99550558
0.98730237
0.99767392
1.0016294
1.0049342
1.0019584
1.0015734
1.0022392
1.0024674
1.0031112
1.0023629
1.0037525
1.0037041
1.002892
1.0029297
1.0043067
1.0027561
1.0025383
1.0043837
1.0039477
1.0010509
1.0050231
1.0059762
1.0009977
0.99926752
1.0093798
1.0095048
0.99696436
0.99722111
1.0096168
1.0139072
1.0014146
0.99027207
0.9933215
1.0019317
1.0060255
1.0006957
1.0022077
1.0029017
1.002571
1.0028986
1.0028875
1.0035546
1.0035999
1.0031044
1.0033079
1.0038024
1.0030242
1.0027691
1.0040691
1.0037523
1.0020105
1.0054398
1.003952
1.0021299
1.0013237
1.0062215
1.0069254
1.0002985
0.99905024
1.0048979
1.0102293
1.0074325
0.9994383
0.99661103
1.0020603
1.005719
1.0002629
1.0029137
1.0032892
1.0028963
1.0026265
1.0034949
1.003258
1.0033731
1.0032958
1.0038396
1.0030676
1.0032298
1.003241
1.0036564
1.0032059
1.0030349
1.0057221
1.0014658
1.0031233
1.0047268
1.0034483
1.001873
1.0033488
1.0038911
1.0023674
1.0017722
1.007295
1.0092054
1.0052407
1.0018642
1.0039523
1.0008764
1.0030497
1.0031468
1.0031549
1.0025246
1.0037561
1.003076
1.003082
1.0033725
1.0041036
1.0024865
1.0034745
1.0038539
1.0031948
1.0025945
1.0039464
1.0060053
0.99967251
1.0036737
1.0082733
1.0025346
0.99700511
1.0046119
1.0100588
1.0035002
0.99532273
1.0010487
1.0130277
1.0140897
1.0016457
1.0017313
1.0020632
1.0026518
1.0026394
1.002896
1.0026063
1.0035557
1.0030526
1.0027857
1.0034717
1.0038523
1.0023669
1.0037144
1.0042761
1.0029618
1.0022272
1.0045644
1.0059474
0.99906016
1.0036347
1.0105597
1.0031043
0.9949319
1.0039522
1.0143617
1.006978
0.99429147
0.99478882
1.0098126
1.017331
1.0016007
1.0001774
1.0031595
1.0022211
1.0019753
1.0023969
1.0030635
1.0032127
1.0031866
1.0027186
1.003629
1.0034863
1.0027194
1.00359
1.0043667
1.0031373
1.0021897
1.0047619
1.0054494
0.99965037
1.0030866
1.0105482
1.0043534
0.99597262
1.00256
1.0144939
1.009551
0.99690182
0.9941675
1.0033691
1.013913
1.0015339
1.0002161
1.0034086
1.0019028
1.0016287
1.0021853
1.0035639
1.0030397
1.0034625
1.0030245
1.0037167
1.0033896
1.0033154
1.0032413
1.0042025
1.0034067
1.0025722
1.0044301
1.0044173
1.001568
1.0030772
1.0076426
1.0052387
0.9989924
1.0028839
1.00964
1.0089726
1.0010864
0.99811219
1.0005762
1.0059876
1.0015563
1.0017799
1.0027288
1.0019503
1.0018575
1.0020762
1.0034458
1.0029739
1.0034459
1.0034356
1.0034725
1.0033341
1.0036463
1.0032442
1.0036946
1.0034618
1.0032425
1.004147
1.0028036
1.0041992
1.0040927
1.0036246
1.004182
1.0034234
1.0047767
1.0042692
1.0031608
1.004794
1.0045956
1.0025173
0.99954803
1.0016922
1.004371
1.0012412
1.0022672
1.0025939
1.0026755
1.003039
1.0030203
1.0034522
1.0039045
1.0033257
1.0032697
1.0038437
1.0036359
1.0030381
1.0035746
1.0042627
1.0041799
1.0011482
1.0064763
1.0059113
1.0004353
1.0017262
1.0074132
1.0081389
1.001427
0.99662781
1.0045346
1.0119127
1.008239
0.99868284
1.002107
1.0067318
1.0012021
1.0034681
1.0038052
1.0039951
1.0026496
1.0034688
1.0037395
1.0042636
1.0036348
1.0035046
1.0044108
1.0043606
1.0026557
1.0037587
1.0054012
1.004931
1.0002916
1.0074355
1.008265
0.99947601
0.99962803
1.0084931
1.0118687
1.0021304
0.99340799
1.0009465
1.0147827
1.0141875
1.002119
0.99350293
0.99639415
1.0020895
1.0077975
1.0106346
1.0087677
1.0031423
0.99990994
1.0030217
1.0110797
1.0169986
1.0150839
1.0043373
0.98983772
0.98268664
0.98834639
1.0039991
1.018725
1.0216321
1.0109863
0.99633264
0.99130064
0.99744645
1.0102929
1.0097607
1.0057985
0.99919943
0.99111765
0.98655325
0.98864226
0.9968626
1.0094491
1.019216
1.0203601
1.0120496
1.0007656
0.99555373
0.99932742
1.0086263
1.0145584
1.0097572
0.99658429
0.98365642
0.98183232
0.99439281
1.015475
1.0210713
1.0143
1.0059297
0.99863942
0.99613699
0.99806451
1.0022578
1.0053229
1.004684
1.0000861
0.99250021
0.98848127
0.9931711
1.0071276
1.023831
1.0311492
1.0235703
1.0050746
0.98636033
0.97940597
0.98509422
1.0002818
1.0170262
0.99656321
0.99404766
0.99767454
1.0081358
1.0202912
1.0277552
1.0276469
1.0169927
1.001076
0.98571763
0.97976456
0.98353127
0.99509953
1.0079525
1.0176875
1.0165261
1.0061615
0.99659256
0.99674761
1.0069376
1.0192608
1.0240885
1.0156843
0.98086609
0.98663299
0.99736548
1.0086841
1.018148
1.0212515
1.0145432
1.0044424
0.99751904
0.99981644
1.0089311
1.0180544
1.019765
1.0128052
0.99742134
0.980911
0.97202281
0.9770866
0.99715309
1.0260691
1.0469732
1.043915
1.0203838
1.0121007
1.0134054
1.0094427
1.0012969
0.99172062
0.98272537
0.97709796
0.97927065
0.9920261
1.0132752
1.0350428
1.0461687
1.0401679
1.0196367
0.99463599
0.97769431
0.97422464
0.98239493
0.9984416
1.015243
1.0261111
1.0197764
1.0051389
1.0406724
1.0299823
1.0143123
0.99874195
0.98619366
0.97930787
0.98066339
0.98712613
0.99716158
1.0075757
1.0164594
1.0187464
1.0113506
1.0021653
0.99957645
1.0077443
1.020471
1.0283847
1.0252367
1.0112095
0.99147042
0.97368835
0.96662935
1.0083017
1.003268
1.0021801
1.0043177
1.0117949
1.0226392
1.0307072
1.0306404
1.019654
1.0011393
0.98350476
0.97098285
0.96522129
0.9703408
0.98905345
1.0191956
1.0525265
1.0687266
1.0577863
1.0254757
0.98970375
0.965333
0.95767634
0.96977149
0.9710107
0.98192728
1.0034735
1.0318051
1.0563558
1.0663018
1.0548316
1.0300205
1.0037571
0.98376598
0.97139639
0.96912083
0.97343361
0.98672053
1.0071178
1.0306543
1.0446614
1.0376292
1.0221328
1.0065507
0.99985055
1.0009589
0.9765537
0.98603355
0.99755526
1.0086161
1.0171804
1.0239185
1.0263076
1.0222416
1.0159911
1.0087241
1.0078669
1.0139875
1.0239821
1.0279521
1.0212947
1.0072941
0.9930815
0.98377411
0.97922954
0.98104378
0.99375027
1.01987
1.0525627
1.0426576
1.0371117
1.0234716
1.0055971
0.98912139
0.97849001
0.97197327
0.96856096
0.97353884
0.99002934
1.0208283
1.060174
1.0893357
1.0884757
1.0605379
1.0197955
0.98464047
0.96296117
0.95001
0.94954054
0.96586764
1.0003814
1.0515816
1.0971867
1.0724028
1.0351629
1.0005153
0.97748395
0.96553968
0.96087303
0.95930154
0.96481906
0.98179275
1.0129017
1.0549117
1.0934858
1.1004152
1.0777512
1.0377448
1.0016358
0.97871533
0.97001689
0.9691319
0.97696533
0.99256232
1.0199305
1.0698704
1.053082
1.0333134
1.0150879
1.0011824
0.99427127
0.99346843
0.99557334
1.000803
1.0060574
1.0134822
1.0257739
1.0393244
1.0472976
1.0432015
1.0336162
1.0231696
1.0195713
1.0247445
1.0280167
1.025095
1.0145716
1.0069256
1.0084809
1.0070993
1.0089554
1.0170641
1.031633
1.0501175
1.0647487
1.0679606
1.0575246
1.0355599
1.0124137
0.99818323
0.99320587
0.99231805
0.99303309
0.99834626
1.0147065
1.0449128
1.0812957
1.1036503
1.0916709
1.0537258
1.0143933
0.97243676
0.97474891
0.98306656
1.0040486
1.0420598
1.0911319
1.1317517
1.1388604
1.1070086
1.0558015
1.0094444
0.98245749
0.97275251
0.97036242
0.96833792
0.97409038
0.99351866
1.0389516
1.1033768
1.1533805
1.1486705
1.0955715
1.0320466
0.96616759
0.96862624
0.97740181
0.99978591
1.0444964
1.1045895
1.1575448
1.1711057
1.1323518
1.0695884
1.0157393
0.98550222
0.97465258
0.97370242
0.97087918
0.97198893
0.98736406
1.0279461
1.0940268
1.1560074
1.1706138
1.1241406
1.0532002
0.98075955
0.98412145
0.98957171
1.009784
1.0493832
1.1036128
1.1519429
1.1678485
1.1361134
1.078707
1.0286227
1.0004462
0.99279854
0.99129402
0.98945118
0.98912679
0.99578066
1.0248558
1.0825069
1.1403284
1.1640381
1.1305561
1.0701614
1.0055944
1.0067346
1.0087751
1.0218757
1.0537529
1.0983692
1.1399936
1.1562899
1.1308725
1.0837072
1.041856
1.0182094
1.014913
1.0162325
1.0168292
1.0140674
1.0127889
1.0302915
1.0735443
1.1235875
1.1513916
1.1268627
1.0772788
1.0291331
1.0279215
1.0272929
1.034226
1.0582956
1.096134
1.1351294
1.150535
1.1279801
1.0883495
1.0539695
1.0345663
1.0345439
1.0388014
1.040937
1.0327619
1.024683
1.0360725
1.0708052
1.1174332
1.1460454
1.1208442
1.077203
1.0413802
1.0391462
1.0363285
1.0413008
1.0647068
1.1048751
1.1474104
1.1641685
1.139071
1.0960043
1.0610495
1.0441336
1.0463758
1.052298
1.0545526
1.0460738
1.0353943
1.04667
1.0801203
1.1265263
1.1511161
1.1213273
1.0775477
1.045668
1.0419849
1.0385342
1.0468119
1.0766078
1.1258384
1.1776398
1.1944403
1.1610074
1.108119
1.0635806
1.0415018
1.0461632
1.0557991
1.0576762
1.0508171
1.0444603
1.0605663
1.1013633
1.152849
1.17073
1.1261012
1.0766238
1.0398097
1.0382721
1.0362984
1.0503457
1.0892731
1.1547261
1.2269364
1.24539
1.1948522
1.1198281
1.0603979
1.0347416
1.0383151
1.0503514
1.0520717
1.0494355
1.0501253
1.0805623
1.1409677
1.1985245
1.1919838
1.1245154
1.0667107
1.0450754
1.0410762
1.0391118
1.0553418
1.1042255
1.1901447
1.2833365
1.3057857
1.2296021
1.1271164
1.0534352
1.0226248
1.0270276
1.0419247
1.0415767
1.0434817
1.0629207
1.1202764
1.2046905
1.254971
1.2014402
1.1103555
1.0490127
1.0830278
1.0768054
1.0695691
1.0804757
1.125383
1.2094113
1.3100716
1.3348495
1.2433306
1.1285643
1.0466631
1.0145928
1.0194028
1.0348171
1.0341101
1.0454797
1.0897986
1.1820182
1.2815363
1.2894285
1.1852884
1.0838872
1.0322818
1.3029889
1.2677457
1.2107358
1.1607694
1.142314
1.1694181
1.2358764
1.2824404
1.2370933
1.1440377
1.0616268
1.0210849
1.0250226
1.0455384
1.0560144
1.080834
1.1403963
1.2397688
1.3154618
1.2683309
1.145163
1.054948
1.0227373
1.6514168
1.5590062
1.4076275
1.2361098
1.1227162
1.0689986
1.0936342
1.1548373
1.1825586
1.1618328
1.1137735
1.0835455
1.095289
1.1153758
1.1243884
1.1322526
1.1683976
1.2415364
1.2726134
1.1958671
1.099588
1.0451592
1.0338234
1.533157
1.4803742
1.4094866
1.3230633
1.2151399
1.1109325
1.0557186
1.0803683
1.1368122
1.1863649
1.2117622
1.2184598
1.2184822
1.1949023
1.152137
1.1182181
1.126621
1.1635748
1.1724521
1.1283745
1.091353
1.0861634
1.0941504
1.328502
1.3587505
1.3639358
1.3447302
1.3162223
1.2707289
1.2003951
1.1543576
1.1699752
1.2199529
1.2689044
1.2863096
1.2575324
1.1844683
1.1078929
1.063363
1.0643543
1.0913089
1.1004885
1.1124329
1.1562598
1.1978915
1.191616
1.2191239
1.2706576
1.3626228
1.4254069
1.4497198
1.4158854
1.3346447
1.2322056
1.174985
1.1735794
1.1980316
1.2229851
1.2113808
1.1534956
1.0867682
1.0553642
1.0639257
1.0839344
1.1070947
1.166859
1.2482586
1.2718876
1.2006944
1.2372151
1.2864146
1.3704867
1.4587697
1.4935301
1.4565709
1.3613287
1.2337985
1.1261202
1.0971929
1.1122629
1.1408359
1.1682951
1.1704119
1.1472597
1.1329969
1.1346154
1.1289576
1.1409949
1.184489
1.2238851
1.2025693
1.1532322
1.3181452
1.3311705
1.348341
1.3731789
1.3975817
1.3920439
1.344665
1.2445153
1.1498926
1.1052734
1.1091341
1.1308652
1.1687778
1.2092078
1.2292352
1.2151295
1.1739129
1.127544
1.1128132
1.1216324
1.1276719
1.1210971
1.1344503
1.3449737
1.3393941
1.3221199
1.3047438
1.3041913
1.3213606
1.3344892
1.2939797
1.2220308
1.1730123
1.1486733
1.141535
1.1535923
1.1828812
1.2128018
1.2081647
1.1626758
1.112652
1.084328
1.0745531
1.0800133
1.1075503
1.154567
1.2886711
1.3133857
1.3126798
1.2959865
1.2884364
1.2828009
1.2855152
1.2718799
1.2396145
1.1989003
1.1537792
1.1215862
1.1115751
1.1238495
1.152017
1.1702782
1.1646398
1.1466544
1.1268465
1.1096264
1.1033359
1.1253917
1.1458419
1.236275
1.2721073
1.3186421
1.323899
1.2916157
1.2501521
1.2173244
1.1956518
1.1888516
1.1825842
1.1641781
1.1355614
1.1150535
1.1137304
1.1272386
1.1488594
1.1736111
1.1903132
1.1843512
1.1654764
1.1465375
1.1274911
1.105462
1.2396048
1.2468402
1.2925355
1.3160314
1.2851066
1.2257958
1.1714557
1.1428717
1.142712
1.1627986
1.1864904
1.19189
1.1750955
1.1495756
1.1318735
1.130276
1.1414141
1.1589721
1.1703313
1.1693662
1.1588455
1.1423688
1.1215893
1.2707986
1.2490734
1.2547951
1.2659268
1.2571932
1.2259098
1.1842361
1.1507554
1.1369198
1.1441375
1.1713716
1.1974356
1.2073521
1.1928724
1.1600875
1.1277632
1.1102008
1.1081789
1.1160535
1.128909
1.1405008
1.1459202
1.1520945
1.2970726
1.2576246
1.2339032
1.2204864
1.2093987
1.2043901
1.1999924
1.1903745
1.1786702
1.1688884
1.1626993
1.1634491
1.1662897
1.1677065
1.1615629
1.1517357
1.1421725
1.1318975
1.1246314
1.1218643
1.1221918
1.124247
1.1261736
1.2940269
1.263862
1.2366627
1.2123575
1.1935265
1.1841043
1.1879689
1.20008
1.2070511
1.2009725
1.1829968
1.1586683
1.13915
1.1305857
1.1343804
1.1463993
1.1597847
1.1691579
1.1663483
1.1555373
1.1456892
1.1358195
1.1258421
1.284955
1.258062
1.2482461
1.2367778
1.220139
1.2014254
1.1877365
1.1836472
1.1863584
1.1895602
1.1850044
1.1723645
1.1565687
1.145813
1.1409762
1.1467753
1.1587964
1.1663682
1.1627766
1.1523684
1.143266
1.1384935
1.1345381
1.3123964
1.266206
1.2489207
1.2439472
1.2384386
1.2244278
1.2045962
1.1847494
1.1691348
1.1616572
1.1621317
1.1670478
1.1735749
1.1770792
1.1775581
1.1737804
1.1670921
1.156732
1.1429628
1.1269827
1.1166871
1.1178837
1.1244673
1.3708457
1.3059531
1.2612507
1.235407
1.2224819
1.2155248
1.2068805
1.1948138
1.1823703
1.1716747
1.1658602
1.1672895
1.1748519
1.1827576
1.1847685
1.1780336
1.1668286
1.1540111
1.1411213
1.1295588
1.1230735
1.1255666
1.1329668
1.3902022
1.3457981
1.2924821
1.2503156
1.2215367
1.2058299
1.1988369
1.1973687
1.1974659
1.1961295
1.1927122
1.1882723
1.1843756
1.1802343
1.1722869
1.1602864
1.1485019
1.1422535
1.1421329
1.1465225
1.1511389
1.1550648
1.1543776
1.3809336
1.3651879
1.3305041
1.290464
1.2568567
1.2314372
1.2136669
1.2037978
1.2004591
1.1995926
1.1973214
1.1925908
1.186953
1.1804666
1.1724302
1.1621503
1.1517635
1.147071
1.1510727
1.1597923
1.1670978
1.1660586
1.1542232
1.3919367
1.379583
1.3578583
1.3246069
1.289337
1.2595783
1.2358684
1.2183005
1.20641
1.1984139
1.1917635
1.1846368
1.1789407
1.176231
1.1765874
1.1770253
1.1753826
1.1725009
1.1704547
1.1700767
1.1671919
1.1594911
1.1411703
1.3955889
1.3886957
1.3706475
1.3422103
1.307733
1.2751609
1.2490507
1.2305528
1.2187114
1.2116031
1.2064456
1.2001863
1.1926577
1.1866744
1.1844266
1.1853351
1.1861706
1.1826102
1.1749995
1.1656632
1.1568615
1.1494478
1.1393343
1.37363
1.3794876
1.3744229
1.3626245
1.3396359
1.3100174
1.2799679
1.2540661
1.2354911
1.2249493
1.2198388
1.2163856
1.2109317
1.2027839
1.1946322
1.1888642
1.1851409
1.1805355
1.1726436
1.1627067
1.1545308
1.1517115
1.1508106
1.3442435
1.360647
1.3676397
1.3672976
1.3609442
1.3432992
1.3172075
1.2871487
1.2592563
1.2378099
1.2248106
1.2184074
1.2146378
1.2095012
1.201944
1.1943605
1.1890273
1.1861347
1.1830461
1.1784532
1.1730307
1.1701324
1.1684141
1.3018228
1.3238143
1.3467014
1.3582515
1.35773
1.3510845
1.33526
1.3127921
1.2875919
1.2642247
1.2462102
1.2350341
1.2291417
1.2251153
1.2194516
1.2113968
1.2035564
1.1979942
1.1947489
1.1915211
1.1866538
1.1809403
1.1732876
1.243508
1.2555752
1.2950339
1.3322619
1.3519037
1.3544814
1.3492306
1.335917
1.3167751
1.2958288
1.2757163
1.2591045
1.2473341
1.2395016
1.2330166
1.2255349
1.2167269
1.2084916
1.2022779
1.1976861
1.1928565
1.1871918
1.1775292
1.2109405
1.208162
1.2390726
1.2823577
1.3197838
1.3426787
1.3498636
1.3485873
1.3403194
1.3250485
1.3062458
1.2865169
1.2686477
1.2548329
1.2451005
1.2380283
1.2315886
1.2249356
1.2183449
1.2125352
1.2071903
1.202061
1.1930196
1.1953079
1.1923883
1.2115635
1.2400425
1.2743065
1.308021
1.3333541
1.3464075
1.3501873
1.3466091
1.3352329
1.3183786
1.2996018
1.2821372
1.268403
1.2585679
1.2514508
1.2448729
1.2374838
1.2292437
1.2209981
1.2138575
1.2041445
1.1776531
1.1860557
1.2048465
1.2244517
1.2478263
1.2767489
1.3075071
1.3325978
1.3471406
1.351936
1.3504761
1.3425316
1.3296754
1.3146072
1.2995964
1.2863001
1.2751235
1.2654839
1.2563706
1.2471586
1.2381644
1.2303335
1.2200934
1.1671524
1.1861977
1.2055958
1.2227356
1.2401361
1.2603892
1.2838156
1.3081011
1.3290645
1.3431364
1.3499231
1.3531251
1.3516386
1.3453548
1.3345252
1.3207311
1.3060864
1.2922318
1.2799503
1.2692387
1.2598468
1.2517644
1.240983
1.1670602
1.1859115
1.2024845
1.2173312
1.2323553
1.2484145
1.2664286
1.2865085
1.3077487
1.3276818
1.3436248
1.3538802
1.3593833
1.3610513
1.3573
1.3485275
1.3363996
1.3234181
1.3112902
1.3004488
1.290339
1.2803154
1.2661757
1.1693738
1.1812421
1.1923716
1.2042012
1.2175075
1.2323292
1.2489941
1.2674155
1.2872184
1.3074146
1.3262771
1.3417392
1.3524319
1.3583281
1.3612868
1.3618644
1.3595967
1.3541258
1.346224
1.3365032
1.3253652
1.3129329
1.295475
1.1661658
1.1718127
1.1771474
1.1844959
1.1941655
1.2062662
1.2207185
1.237382
1.255841
1.2753544
1.2948149
1.3133423
1.3297031
1.3429362
1.3527325
1.3595848
1.363831
1.3659896
1.3649503
1.3610235
1.3539007
1.3444437
1.3303206
1.1594211
1.1606263
1.1607237
1.1629072
1.16728
1.1738441
1.1826707
1.1940584
1.2081744
1.2247644
1.2433394
1.2632105
1.2837034
1.3035786
1.3214404
1.3363236
1.3479108
1.3559471
1.3604162
1.361892
1.3621883
1.361322
1.3583776
1.1525788
1.1511807
1.1471264
1.1445038
1.1432287
1.1433398
1.1451414
1.1490681
1.1555388
1.1651351
1.1780088
1.1939971
1.2127653
1.2336495
1.2553532
1.2765251
1.2961862
1.3137605
1.3288515
1.340973
1.3498115
1.3559959
1.3606543
1.1475399
1.1436647
1.1368298
1.1310473
1.1260027
1.1218689
1.1186864
1.116532
1.115676
1.1167507
1.1203887
1.1269095
1.1368833
1.1502197
1.1667618
1.1860328
1.2072318
1.2296177
1.2523944
1.2744689
1.294735
1.3130783
1.3328348
1.1440812
1.1371748
1.1278331
1.1199699
1.1131461
1.1074739
1.1023455
1.0970202
1.0920236
1.0878227
1.0846457
1.083383
1.0839971
1.0864091
1.0916465
1.1001362
1.1120033
1.1273913
1.1458093
1.1668462
1.1900085
1.215006
1.2457705
1.1406752
1.1301223
1.1186579
1.1092958
1.1017229
1.0953995
1.089106
1.0827788
1.0766779
1.070666
1.0654848
1.0611561
1.0566818
1.0528224
1.0506339
1.049909
1.0511722
1.0542839
1.0596635
1.0683977
1.0803716
1.096462
1.1227776
1.1366484
1.1239659
1.1114964
1.1004635
1.0913576
1.0837531
1.0769498
1.0706288
1.0640926
1.0574982
1.0518318
1.0463275
1.0402522
1.0348245
1.030237
1.0264238
1.0233825
1.0199707
1.0176036
1.0173517
1.0188369
1.0222162
1.0331696
1.1329394
1.1205797
1.1062081
1.0930201
1.0822334
1.0735271
1.066288
1.0596721
1.0524758
1.0452338
1.0392077
1.0333745
1.0272346
1.0214314
1.0157038
1.0112788
1.0077133
1.0041969
1.0022407
1.0011004
1.0009828
1.0009845
1.0030121
1.1274087
1.1148214
1.0987957
1.0847342
1.0731163
1.0635236
1.056158
1.049621
1.041963
1.0341744
1.0274692
1.0212027
1.015364
1.0095197
1.0040845
1.0012035
0.99993538
0.99903383
0.9988644
0.99848294
0.99867843
0.99852933
0.99849739
1.1195322
1.1037024
1.0871458
1.0741019
1.0634592
1.0540352
1.0462758
1.0396976
1.0321621
1.0239289
1.0167182
1.0104449
1.0052351
1.0013374
0.99883778
0.99836838
0.99813354
0.99838815
0.99865792
0.9982518
0.9982221
0.99807782
0.99819845
1.1102041
1.091379
1.0753561
1.0635886
1.0540157
1.0452404
1.0373217
1.0301292
1.0226256
1.0148952
1.0078082
1.0020523
0.99938224
0.9989316
0.99825366
0.99807579
0.99789885
0.99805641
0.9985308
0.99791953
0.99797589
0.99792743
0.9980241
1.1011341
1.0809721
1.0653668
1.0541779
1.0451617
1.0368239
1.0291575
1.0221113
1.0146887
1.0068551
1.000646
0.99838005
0.99849498
0.99851124
0.99788146
0.99779845
0.99786806
0.99781495
0.99810051
0.99763126
0.99758135
0.99771332
0.9980232
1.0930901
1.0718756
1.0567367
1.0462524
1.0380059
1.0301602
1.0221386
1.0146194
1.0075947
1.0013596
0.99824399
0.99751349
0.99765273
0.99794513
0.99769775
0.9977295
0.99793756
0.99770172
0.99764908
0.99722486
0.99720007
0.99724738
0.99759205
1.0852899
1.0643124
1.0502457
1.0401026
1.031705
1.0240904
1.0164894
1.008856
1.0021298
0.99845499
0.99760211
0.99725044
0.9971319
0.99752351
0.99782754
0.99779352
0.99766739
0.99731151
0.99706933
0.99679977
0.99692766
0.99705841
0.99722309
1.0789703
1.05814
1.0445598
1.0346945
1.026345
1.0187569
1.0115192
1.0045092
0.99920548
0.99737773
0.99702449
0.99704019
0.9972514
0.99753942
0.99772039
0.99752004
0.99701507
0.99666147
0.99677518
0.99693133
0.99689019
0.99688757
0.99678267
1.0732256
1.0525091
1.039584
1.0303178
1.022299
1.0148373
1.0075899
1.0011848
0.99796209
0.99698577
0.99674265
0.99706685
0.99716642
0.99726059
0.9973687
0.99706909
0.99693371
0.99665728
0.99655577
0.99678412
0.99687894
0.99675821
0.99641344
1.0675292
1.048029
1.0362224
1.0269962
1.0187713
1.0111968
1.0041094
0.99914853
0.99765921
0.99682316
0.99667613
0.99701131
0.9968845
0.99724109
0.99739035
0.99685672
0.99711297
0.99679837
0.99649514
0.9963133
0.99609441
0.99649634
0.99671913
1.0631725
1.0442166
1.0325742
1.0237292
1.0161811
1.0087058
1.0016489
0.99790962
0.99735223
0.9970568
0.99710982
0.99700365
0.99656774
0.997191
0.99731067
0.99673244
0.9969217
0.9966239
0.99672763
0.99656727
0.99605045
0.99625249
0.99648084
1.0588072
1.0405203
1.0300644
1.0219562
1.0142135
1.0062368
0.99994613
0.99751722
0.99698344
0.99690005
0.99729452
0.99724555
0.99714528
0.99746121
0.99698209
0.99685801
0.9970503
0.99656715
0.99695467
0.99689597
0.9963717
0.99595114
0.99615499
1.0552686
1.0379765
1.027814
1.0195612
1.0118071
1.0043239
0.99907413
0.9977592
0.99749188
0.99715161
0.99708099
0.99718834
0.99770317
0.99805185
0.99736971
0.99651453
0.99662307
0.99695078
0.99728115
0.99675905
0.99631266
0.99638106
0.99665907
1.0531756
1.0349496
1.0241935
1.0170434
1.0108324
1.0041178
0.99918692
0.99721281
0.99663015
0.99741987
0.99836588
0.9981866
0.99791323
0.99739693
0.99709254
0.99714039
0.99678305
0.99677671
0.99758918
0.99812088
0.99737643
0.99626465
0.99593542
1.0489494
1.0329163
1.0232468
1.0157532
1.0088288
1.0025306
0.99911091
0.99830493
0.99771068
0.99719881
0.99760059
0.99816758
0.99824221
0.99826938
0.99731794
0.99709614
0.99766528
0.9978594
0.99833368
0.99734523
0.99653548
0.99659299
0.99692902
1.0467896
1.0303422
1.0210048
1.0138024
1.0075646
1.0020393
0.99897412
0.99822074
0.99753683
0.9974828
0.99870838
0.99895783
0.99871387
0.99811004
0.99747701
0.99771733
0.99752922
0.99757177
0.99811167
0.99841764
0.99803544
0.99700966
0.99645506
1.0429868
1.0284039
1.0201877
1.0131861
1.0060193
1.0005947
0.9991408
0.99920487
0.99882774
0.99762674
0.99716482
0.99821893
0.99943398
0.99954095
0.99823804
0.99742924
0.99765871
0.99874042
0.99885534
0.99769929
0.99720055
0.99680482
0.99758938
1.0425136
1.0259035
1.0171496
1.0109602
1.0053637
1.0008685
0.99879317
0.99860053
0.99888323
0.99891182
0.99905799
0.9992377
0.99874551
0.99826649
0.99814439
0.99863383
0.99822273
0.99786457
0.99815453
0.99873991
0.9992672
0.99808246
0.99678296
1.0394847
1.0247089
1.015404
1.0090982
1.0046123
1.0012605
1.0000694
1.0000648
0.99945504
0.99848821
0.99785732
0.99818289
0.9997205
0.99981314
0.99857124
0.99780328
0.99840215
0.99953867
0.99903568
0.99762578
0.99734702
0.99850026
0.99926677
1.037266
1.0234716
1.0150583
1.008038
1.0032274
1.0010541
0.99992239
0.99915805
0.99981661
1.0007099
1.0001595
0.9984677
0.99731218
0.99851718
0.99985676
0.9997189
0.99849261
0.99809736
0.9986914
0.99862434
0.99852749
0.99879918
0.99915484
1.0343794
1.0215842
1.0143029
1.0075791
1.0024983
1.0009247
1.0017526
1.0017534
0.99977441
0.99827234
0.99900941
0.99992942
0.99919745
0.99775027
0.99833942
1.000612
1.0011832
0.99882172
0.99662934
0.99746747
0.99965336
0.99950971
0.99848281
1.0335503
1.0191218
1.0119438
1.0079074
1.004547
1.0013147
0.99972481
1.0004317
1.0016086
1.0009995
0.99907724
0.99826647
0.99903597
0.999843
0.99959497
0.9991742
0.99952036
0.99970495
0.99832728
0.99699959
0.99761231
0.99994276
1.0009502
1.0303703
1.0191496
1.0119243
1.0064035
1.0037249
1.0028614
1.0016286
1.0001606
1.0001698
1.001528
1.001768
0.99954575
0.9975669
0.99867732
1.0008762
1.0007012
0.99871007
0.99813288
0.99917624
0.99909282
0.99803502
0.99835608
1.0002493
1.0275349
1.0176601
1.0131312
1.0076645
1.0027673
1.0012068
1.0025677
1.0035186
1.0019235
0.99979101
0.99974418
1.0011613
1.0011889
0.99956608
0.99878823
0.99996346
1.0009501
1.0000646
0.9985153
0.99864463
0.99913901
0.99849451
0.9980339
1.0276358
1.0150071
1.0102604
1.0082362
1.0061944
1.0035423
1.0017643
1.0020055
1.0027215
1.0022025
1.0010553
1.0012826
1.0025904
1.0022195
1.0002348
0.99960686
1.0011539
1.0019943
1.0007735
0.99956835
1.0003851
1.0008211
0.99974957
1.026399
1.0154881
1.0094539
1.0068614
1.0070294
1.0067386
1.0041442
1.0015936
1.002027
1.0041927
1.0048282
1.003629
1.002989
1.0043122
1.0054396
1.0045198
1.0027704
1.0033219
1.0055293
1.0064227
1.0054811
1.0055212
1.0064224
1.0250773
1.0171537
1.0122297
1.007086
1.0044384
1.0052569
1.006963
1.0067343
1.0052736
1.0051604
1.0069024
1.0086402
1.0087444
1.008948
1.010124
1.0112491
1.0115874
1.0127904
1.0152321
1.0165736
1.0162562
1.0169651
1.0181472
1.0241522
1.0151653
1.0118884
1.0092014
1.0066522
1.005541
1.0071778
1.0098859
1.0109931
1.0102953
1.0107591
1.0138225
1.0170977
1.0182543
1.0186309
1.0210847
1.0249174
1.0267461
1.0269361
1.0286281
1.0312571
1.031754
1.0306311
1.0218335
1.0142682
1.0097504
1.0086392
1.0095714
1.0102142
1.0102242
1.0112491
1.0143559
1.0178682
1.0199629
1.0212908
1.023892
1.0281302
1.0314963
1.0327795
1.0339275
1.0361418
1.0379941
1.038797
1.0394984
1.0405065
1.0412946
1.0223303
1.01428
1.0117671
1.0102288
1.0099135
1.0112384
1.0138789
1.0171568
1.0205731
1.0238407
1.026995
1.0299628
1.0328438
1.0357648
1.0382427
1.0396767
1.0403255
1.0412898
1.0422481
1.042653
1.0427955
1.0431146
1.0433217
1.0225509
1.0134
1.0108018
1.0107609
1.0118783
1.0141425
1.0176697
1.0221136
1.0263963
1.0298785
1.0330376
1.0362347
1.0386065
1.0399706
1.0410644
1.0423626
1.043107
1.0429149
1.0423632
1.0423446
1.0425863
1.0417263
1.040524
1.0177191
1.0123433
1.0101894
1.0105198
1.0136247
1.0179332
1.0223519
1.026433
1.0304231
1.0342394
1.037502
1.0397193
1.0408372
1.0413631
1.0418259
1.0423646
1.0427153
1.0423143
1.0411762
1.039989
1.0393548
1.0386982
1.0378263
1.0161389
1.0125976
1.0116287
1.0125583
1.0158163
1.020665
1.0257207
1.0299869
1.0334521
1.0364793
1.0392059
1.0412607
1.0422069