/*--------------------------------*- C++ -*----------------------------------*\
| =========                 |                                                 |
| \\      /  F ield         | OpenFOAM: The Open Source CFD Toolbox           |
|  \\    /   O peration     | Version:  2406                                  |
|   \\  /    A nd           | Website:  www.openfoam.com                      |
|    \\/     M anipulation  |                                                 |
\*---------------------------------------------------------------------------*/
FoamFile
{
    version     2.0;
    format      ascii;
    arch        "LSB;label=32;scalar=64";
    class       volScalarField;
    location    "40";
    object      k;
}
// * * * * * * * * * * * * * * * * * * * * * * * * * * * * * * * * * * * * * //

dimensions      [0 2 -2 0 0 0 0];

internalField   nonuniform List<scalar> 
158064
(
3.9302967e-06
2.9944875e-06
2.404702e-06
2.0065312e-06
1.7217416e-06
1.5093872e-06
1.3459123e-06
1.2163675e-06
1.1116138e-06
1.0247169e-06
9.5190007e-07
8.8959933e-07
8.3621987e-07
7.8992515e-07
7.4938306e-07
7.1380096e-07
6.8244182e-07
6.5393256e-07
6.2917976e-07
6.0545828e-07
5.8570732e-07
5.6583937e-07
5.4934821e-07
5.3304997e-07
5.1918707e-07
5.0489868e-07
4.9280994e-07
4.8027868e-07
4.7034527e-07
4.5886352e-07
4.5060145e-07
4.406163e-07
4.337723e-07
4.2512829e-07
4.193221e-07
4.1201099e-07
4.0781123e-07
4.0034407e-07
3.9625634e-07
3.9097689e-07
3.875698e-07
3.8192604e-07
3.7817102e-07
3.7418447e-07
3.7172709e-07
3.6657612e-07
3.6392589e-07
3.596407e-07
3.5835161e-07
3.5572072e-07
3.5417193e-07
3.5093488e-07
3.4860287e-07
3.4568589e-07
3.4303462e-07
3.4210809e-07
3.4123834e-07
3.3989089e-07
3.3694671e-07
3.3555284e-07
3.3367471e-07
3.3235249e-07
3.2975643e-07
3.2915499e-07
3.2946428e-07
3.3010363e-07
3.3123256e-07
3.3270368e-07
3.3449901e-07
3.3781981e-07
3.4625409e-07
3.5589404e-07
3.7656755e-07
3.9303081e-07
4.2466896e-07
4.502212e-07
4.9139608e-07
5.5217857e-07
5.8455655e-07
6.4226373e-07
6.8920192e-07
7.6148095e-07
7.9382358e-07
8.5451645e-07
9.1040339e-07
9.5747612e-07
1.0177731e-06
1.0755407e-06
1.2060768e-06
3.9316694e-06
2.9966022e-06
2.4069414e-06
2.0087605e-06
1.7238305e-06
1.511441e-06
1.3477741e-06
1.2182528e-06
1.1133188e-06
1.0265096e-06
9.5352542e-07
8.9134332e-07
8.3778308e-07
7.9158611e-07
7.5092272e-07
7.1540505e-07
6.8394216e-07
6.5548937e-07
6.3069431e-07
6.0696614e-07
5.8724378e-07
5.6736032e-07
5.5089776e-07
5.3459826e-07
5.2076605e-07
5.0632982e-07
4.9446921e-07
4.8180538e-07
4.7180516e-07
4.6037412e-07
4.519778e-07
4.4204277e-07
4.351059e-07
4.2651464e-07
4.2025598e-07
4.130537e-07
4.0866618e-07
4.0116613e-07
3.9724088e-07
3.9194854e-07
3.8825096e-07
3.8230352e-07
3.7864633e-07
3.7456077e-07
3.7164272e-07
3.6653604e-07
3.6362695e-07
3.5997985e-07
3.5833912e-07
3.550115e-07
3.5294001e-07
3.5010162e-07
3.4740219e-07
3.445927e-07
3.420706e-07
3.4051097e-07
3.3863695e-07
3.3747681e-07
3.3526896e-07
3.3403008e-07
3.3125321e-07
3.3035948e-07
3.2805974e-07
3.2785849e-07
3.2711038e-07
3.2774164e-07
3.2807912e-07
3.300952e-07
3.3162259e-07
3.3561583e-07
3.3777373e-07
3.4340796e-07
3.4731029e-07
3.5697932e-07
3.6348949e-07
3.7789861e-07
3.8969498e-07
4.2036357e-07
4.3878508e-07
4.780222e-07
5.0374248e-07
5.6016341e-07
6.0641422e-07
6.499805e-07
7.4164909e-07
7.9796375e-07
8.8172116e-07
9.2897815e-07
1.0484353e-06
3.9329558e-06
2.9986533e-06
2.4091223e-06
2.0109249e-06
1.7258786e-06
1.5134045e-06
1.3495569e-06
1.2199767e-06
1.1148684e-06
1.0280234e-06
9.5487232e-07
8.9267206e-07
8.3894052e-07
7.9272621e-07
7.5196233e-07
7.1638532e-07
6.8482812e-07
6.563787e-07
6.3143365e-07
6.077055e-07
5.8790478e-07
5.6798502e-07
5.5140142e-07
5.3509292e-07
5.2111703e-07
5.0660932e-07
4.9470658e-07
4.8209054e-07
4.7192127e-07
4.6070338e-07
4.5203666e-07
4.4219292e-07
4.3513551e-07
4.2658421e-07
4.2025006e-07
4.1333366e-07
4.0864465e-07
4.0117191e-07
3.974031e-07
3.9206733e-07
3.8822645e-07
3.8214988e-07
3.7890548e-07
3.7468062e-07
3.7148887e-07
3.6636646e-07
3.636684e-07
3.6002701e-07
3.5837201e-07
3.5466803e-07
3.5271693e-07
3.4944282e-07
3.4769865e-07
3.4420478e-07
3.4226578e-07
3.3944985e-07
3.3825327e-07
3.3586021e-07
3.3453369e-07
3.3260168e-07
3.3039193e-07
3.2841752e-07
3.2621193e-07
3.2552722e-07
3.2406823e-07
3.2395313e-07
3.2321473e-07
3.2378734e-07
3.241013e-07
3.2626426e-07
3.277319e-07
3.3273774e-07
3.3553033e-07
3.4370708e-07
3.4823015e-07
3.6018558e-07
3.6730318e-07
3.8280133e-07
3.9587752e-07
4.1554968e-07
4.3680204e-07
4.586926e-07
4.9479285e-07
5.1613045e-07
5.6764621e-07
6.0558295e-07
6.8524322e-07
7.2936061e-07
8.4176788e-07
3.9342719e-06
3.0006796e-06
2.4112771e-06
2.0130402e-06
1.7278633e-06
1.5153109e-06
1.3512883e-06
1.2216855e-06
1.1164189e-06
1.0295934e-06
9.5628098e-07
8.9414601e-07
8.4024952e-07
7.940733e-07
7.5324482e-07
7.1766169e-07
6.8599956e-07
6.5767248e-07
6.3255369e-07
6.0895237e-07
5.8905931e-07
5.6918017e-07
5.525042e-07
5.3644043e-07
5.2225524e-07
5.0783256e-07
4.9608918e-07
4.83616e-07
4.7296771e-07
4.6217502e-07
4.5338882e-07
4.435688e-07
4.3635855e-07
4.2784263e-07
4.214051e-07
4.146003e-07
4.0953351e-07
4.0242911e-07
3.985877e-07
3.9305531e-07
3.8908526e-07
3.8326657e-07
3.8001224e-07
3.7566988e-07
3.7192535e-07
3.6708003e-07
3.6486605e-07
3.6156288e-07
3.5930986e-07
3.5503493e-07
3.5320677e-07
3.4981797e-07
3.4820204e-07
3.4504846e-07
3.4327566e-07
3.3983109e-07
3.37992e-07
3.3539635e-07
3.3421356e-07
3.3162782e-07
3.3031109e-07
3.2752049e-07
3.2603768e-07
3.2433005e-07
3.231521e-07
3.2186172e-07
3.2105403e-07
3.212042e-07
3.2161829e-07
3.2245945e-07
3.2396742e-07
3.262149e-07
3.2876053e-07
3.3362556e-07
3.3681711e-07
3.4086023e-07
3.5085649e-07
3.5879848e-07
3.7362554e-07
3.819027e-07
3.9808434e-07
4.1065365e-07
4.3954599e-07
4.5636612e-07
4.9050883e-07
5.1218105e-07
5.6019085e-07
5.9332067e-07
6.8791302e-07
3.9354745e-06
3.0025855e-06
2.413312e-06
2.0150605e-06
1.7297761e-06
1.517156e-06
1.3529707e-06
1.2233333e-06
1.1179016e-06
1.0310724e-06
9.5757955e-07
8.9548467e-07
8.413977e-07
7.9522086e-07
7.5429592e-07
7.1866746e-07
6.8689122e-07
6.5861786e-07
6.333282e-07
6.0979904e-07
5.8978895e-07
5.6994399e-07
5.5313899e-07
5.3713451e-07
5.2275862e-07
5.0830368e-07
4.9659919e-07
4.8414142e-07
4.7319181e-07
4.6264744e-07
4.5371519e-07
4.4387313e-07
4.3647466e-07
4.2804411e-07
4.2150833e-07
4.14857e-07
4.0954533e-07
4.0274292e-07
3.9879183e-07
3.9309858e-07
3.8905077e-07
3.8345875e-07
3.8016514e-07
3.7565193e-07
3.7162053e-07
3.6723661e-07
3.6523736e-07
3.6203327e-07
3.5913515e-07
3.5469462e-07
3.5282049e-07
3.4989287e-07
3.4832408e-07
3.4520653e-07
3.4343403e-07
3.4015082e-07
3.3826911e-07
3.3562196e-07
3.3411117e-07
3.3154589e-07
3.298305e-07
3.2748781e-07
3.255875e-07
3.2348657e-07
3.2243616e-07
3.2087962e-07
3.2035728e-07
3.194455e-07
3.1943944e-07
3.1960733e-07
3.2022328e-07
3.2124682e-07
3.2326134e-07
3.2552668e-07
3.3029624e-07
3.3331916e-07
3.3946765e-07
3.4449612e-07
3.5591102e-07
3.6493093e-07
3.7931795e-07
3.8691121e-07
4.0325127e-07
4.1547328e-07
4.4365419e-07
4.6085938e-07
4.9563019e-07
5.1553834e-07
5.7107393e-07
3.936687e-06
3.0044655e-06
2.4153162e-06
2.0170374e-06
1.7316242e-06
1.5189357e-06
1.3545885e-06
1.2249198e-06
1.1193357e-06
1.0325158e-06
9.5885088e-07
8.9682549e-07
8.4254999e-07
7.96425e-07
7.5540403e-07
7.1979568e-07
6.8791307e-07
6.5975082e-07
6.3424992e-07
6.1089323e-07
5.9072899e-07
5.7090837e-07
5.5401337e-07
5.3822458e-07
5.2359543e-07
5.0924425e-07
4.9765786e-07
4.8516982e-07
4.7404741e-07
4.6390049e-07
4.5475656e-07
4.4482341e-07
4.3734102e-07
4.2922112e-07
4.225784e-07
4.1596905e-07
4.1042299e-07
4.0399448e-07
3.9981439e-07
3.9398325e-07
3.8992133e-07
3.8457608e-07
3.8114578e-07
3.7622387e-07
3.7214562e-07
3.6858729e-07
3.6658645e-07
3.6310139e-07
3.5959358e-07
3.554797e-07
3.5375608e-07
3.5074746e-07
3.4912416e-07
3.4591466e-07
3.4380196e-07
3.4060863e-07
3.3896727e-07
3.3613282e-07
3.3458955e-07
3.31492e-07
3.2989776e-07
3.2689427e-07
3.2561372e-07
3.229491e-07
3.2149993e-07
3.2006791e-07
3.1920337e-07
3.1804615e-07
3.1772873e-07
3.1773314e-07
3.1819729e-07
3.1892143e-07
3.2012311e-07
3.2139863e-07
3.2407508e-07
3.2672953e-07
3.3177105e-07
3.3518453e-07
3.4302927e-07
3.492553e-07
3.6331004e-07
3.7220166e-07
3.8591129e-07
3.9266338e-07
4.0903379e-07
4.227309e-07
4.5445705e-07
4.7235798e-07
5.1152171e-07
3.9378099e-06
3.0062411e-06
2.4172184e-06
2.0189271e-06
1.7334083e-06
1.5206514e-06
1.3561599e-06
1.2264533e-06
1.1207273e-06
1.0339062e-06
9.6007807e-07
8.9810896e-07
8.4365959e-07
7.9756408e-07
7.5642087e-07
7.208216e-07
6.8880877e-07
6.6071089e-07
6.3506297e-07
6.1183073e-07
5.9147672e-07
5.7171495e-07
5.5476912e-07
5.3898113e-07
5.2416497e-07
5.0996998e-07
4.9836627e-07
4.8574214e-07
4.7452517e-07
4.6460728e-07
4.5521562e-07
4.4526516e-07
4.3771171e-07
4.2966293e-07
4.2283948e-07
4.1624659e-07
4.1052599e-07
4.0436699e-07
3.9999874e-07
3.9422019e-07
3.8998954e-07
3.8487066e-07
3.8127197e-07
3.7629281e-07
3.7219798e-07
3.6905451e-07
3.6676433e-07
3.6328321e-07
3.5939655e-07
3.5553086e-07
3.5399695e-07
3.5102181e-07
3.4913531e-07
3.4592191e-07
3.4366467e-07
3.4068334e-07
3.3918614e-07
3.3632652e-07
3.3466464e-07
3.3146035e-07
3.2981734e-07
3.266851e-07
3.2495614e-07
3.223837e-07
3.2107499e-07
3.1928163e-07
3.1832453e-07
3.1704167e-07
3.1648147e-07
3.1555538e-07
3.1573132e-07
3.1585111e-07
3.1682053e-07
3.1750496e-07
3.2024809e-07
3.2229076e-07
3.2665768e-07
3.2912918e-07
3.3476049e-07
3.3865971e-07
3.4853008e-07
3.5840871e-07
3.731247e-07
3.7968885e-07
3.9207861e-07
4.002185e-07
4.2054167e-07
4.3622295e-07
4.6994141e-07
3.938928e-06
3.007987e-06
2.4190808e-06
2.020764e-06
1.735141e-06
1.5223072e-06
1.3576819e-06
1.2279272e-06
1.1220723e-06
1.0352458e-06
9.6126903e-07
8.9934242e-07
8.447357e-07
7.9866267e-07
7.5740722e-07
7.2186076e-07
6.8970904e-07
6.6173482e-07
6.3588598e-07
6.1282561e-07
5.9225966e-07
5.7257518e-07
5.5559605e-07
5.3983962e-07
5.2484892e-07
5.1094048e-07
4.9919961e-07
4.8648598e-07
4.7534233e-07
4.6562419e-07
4.5581588e-07
4.4603971e-07
4.3861488e-07
4.3066424e-07
4.2362673e-07
4.1712734e-07
4.1136092e-07
4.0549572e-07
4.0076582e-07
3.9502735e-07
3.9066254e-07
3.8567989e-07
3.8202794e-07
3.7712604e-07
3.7311228e-07
3.7035182e-07
3.6750029e-07
3.6373004e-07
3.5969839e-07
3.5658757e-07
3.549953e-07
3.5183794e-07
3.4972906e-07
3.4626097e-07
3.4406415e-07
3.4137667e-07
3.399649e-07
3.3710072e-07
3.3500942e-07
3.3200237e-07
3.2995277e-07
3.2724094e-07
3.2513073e-07
3.2230522e-07
3.2102316e-07
3.1890514e-07
3.1792172e-07
3.1620717e-07
3.1559662e-07
3.1452593e-07
3.1444797e-07
3.1414783e-07
3.1450432e-07
3.1482982e-07
3.167611e-07
3.1814622e-07
3.2189455e-07
3.2401165e-07
3.2816242e-07
3.3129221e-07
3.3883053e-07
3.44926e-07
3.5997743e-07
3.6947826e-07
3.8232027e-07
3.8808342e-07
3.9979449e-07
4.0874219e-07
4.3314351e-07
3.9399768e-06
3.0096437e-06
2.4208593e-06
2.0225241e-06
1.7368086e-06
1.5238982e-06
1.3591601e-06
1.2293435e-06
1.1233779e-06
1.0365376e-06
9.6242584e-07
9.0052847e-07
8.458031e-07
7.9972432e-07
7.5836638e-07
7.228694e-07
6.905578e-07
6.6267683e-07
6.3665056e-07
6.1375728e-07
5.9292254e-07
5.7336507e-07
5.5629722e-07
5.4053302e-07
5.2549588e-07
5.1176505e-07
4.9970158e-07
4.8711854e-07
4.7597953e-07
4.6628489e-07
4.5623477e-07
4.4666139e-07
4.3911108e-07
4.311451e-07
4.239266e-07
4.1752704e-07
4.1167898e-07
4.0593132e-07
4.0090346e-07
3.9521542e-07
3.9075861e-07
3.8597241e-07
3.8224291e-07
3.7735103e-07
3.733283e-07
3.7078366e-07
3.6758605e-07
3.6370253e-07
3.5961122e-07
3.5704762e-07
3.5542115e-07
3.5209764e-07
3.4965182e-07
3.4624003e-07
3.44098e-07
3.4166626e-07
3.4012322e-07
3.373355e-07
3.3489674e-07
3.3203942e-07
3.297227e-07
3.270076e-07
3.2507704e-07
3.2212847e-07
3.20767e-07
3.186352e-07
3.1731032e-07
3.1534131e-07
3.1461226e-07
3.1317031e-07
3.1226665e-07
3.1199329e-07
3.1216447e-07
3.1258894e-07
3.136517e-07
3.1463515e-07
3.1729381e-07
3.1918642e-07
3.2308654e-07
3.2659818e-07
3.3194516e-07
3.3675165e-07
3.4867892e-07
3.5802279e-07
3.7109277e-07
3.7677442e-07
3.8223321e-07
3.8743813e-07
4.023897e-07
3.941011e-06
3.0112629e-06
2.4225925e-06
2.0242323e-06
1.7384323e-06
1.5254329e-06
1.3605925e-06
1.230705e-06
1.1246413e-06
1.0377779e-06
9.6354622e-07
9.0165697e-07
8.4683731e-07
8.0074374e-07
7.5925656e-07
7.2384267e-07
6.9137515e-07
6.6357666e-07
6.3744399e-07
6.1468438e-07
5.9359671e-07
5.7422027e-07
5.5705059e-07
5.4131429e-07
5.2622607e-07
5.1260232e-07
5.0037737e-07
4.8790663e-07
4.7672266e-07
4.6700189e-07
4.5689567e-07
4.4753223e-07
4.398088e-07
4.3181383e-07
4.2455588e-07
4.1833964e-07
4.1227815e-07
4.0669175e-07
4.0146973e-07
3.9604489e-07
3.9141877e-07
3.8682902e-07
3.829215e-07
3.7818657e-07
3.741869e-07
3.7174506e-07
3.6801081e-07
3.6416223e-07
3.6005895e-07
3.579354e-07
3.5629912e-07
3.5287641e-07
3.5003697e-07
3.4660908e-07
3.4458121e-07
3.426253e-07
3.4088982e-07
3.3804565e-07
3.3537028e-07
3.3227533e-07
3.3037992e-07
3.2733056e-07
3.2552824e-07
3.2250372e-07
3.2090765e-07
3.1866848e-07
3.1743851e-07
3.1516547e-07
3.1410925e-07
3.1217225e-07
3.1165679e-07
3.1076723e-07
3.1074207e-07
3.108201e-07
3.1105522e-07
3.1176645e-07
3.139831e-07
3.154099e-07
3.1911695e-07
3.2190415e-07
3.2772191e-07
3.3217627e-07
3.3734988e-07
3.4245239e-07
3.5605719e-07
3.642611e-07
3.7436924e-07
3.7906047e-07
3.8702626e-07
3.941991e-06
3.0128086e-06
2.4242545e-06
2.025869e-06
1.7399943e-06
1.5269082e-06
1.3619839e-06
1.2320176e-06
1.1258728e-06
1.0389748e-06
9.6464567e-07
9.0273439e-07
8.4785514e-07
8.0174524e-07
7.6010999e-07
7.2483707e-07
6.9218886e-07
6.6444972e-07
6.3820926e-07
6.155203e-07
5.9420524e-07
5.7501833e-07
5.5767319e-07
5.4201848e-07
5.2682261e-07
5.1333253e-07
5.0087681e-07
4.8858679e-07
4.773135e-07
4.6761396e-07
4.5747848e-07
4.4818595e-07
4.4015657e-07
4.3230053e-07
4.2506887e-07
4.1883971e-07
4.125055e-07
4.0704907e-07
4.0171228e-07
3.9641645e-07
3.9166745e-07
3.8712467e-07
3.8301444e-07
3.7839594e-07
3.7442731e-07
3.7207092e-07
3.6806617e-07
3.6429294e-07
3.6014862e-07
3.5832332e-07
3.5650476e-07
3.5320887e-07
3.5008816e-07
3.4656835e-07
3.4465793e-07
3.428301e-07
3.4095722e-07
3.3817254e-07
3.3547831e-07
3.3238214e-07
3.3054158e-07
3.2738083e-07
3.2539135e-07
3.2232257e-07
3.2085316e-07
3.1842756e-07
3.1717787e-07
3.146973e-07
3.1347812e-07
3.1128942e-07
3.1060433e-07
3.0950047e-07
3.0920386e-07
3.0901252e-07
3.0925281e-07
3.0958048e-07
3.1063136e-07
3.1199549e-07
3.157986e-07
3.1815522e-07
3.236973e-07
3.2657078e-07
3.3123556e-07
3.343369e-07
3.4241476e-07
3.4893165e-07
3.634899e-07
3.7200993e-07
3.8303732e-07
3.9429483e-06
3.0143115e-06
2.4258664e-06
2.0274592e-06
1.7415037e-06
1.5283295e-06
1.3633258e-06
1.2332754e-06
1.1270677e-06
1.0401161e-06
9.6572132e-07
9.0375232e-07
8.4885216e-07
8.0269991e-07
7.6091061e-07
7.258193e-07
6.9295602e-07
6.6523918e-07
6.3895728e-07
6.1633918e-07
5.9488144e-07
5.7584053e-07
5.5832877e-07
5.4275565e-07
5.2749059e-07
5.1409583e-07
5.0146741e-07
4.8934483e-07
4.7800305e-07
4.6828352e-07
4.5807422e-07
4.4895855e-07
4.4062728e-07
4.3294296e-07
4.2574814e-07
4.1947106e-07
4.1291892e-07
4.0776923e-07
4.0229815e-07
3.9714876e-07
3.9227747e-07
3.8790494e-07
3.8355793e-07
3.7909382e-07
3.7505802e-07
3.7274443e-07
3.6856043e-07
3.6479549e-07
3.6077277e-07
3.5907015e-07
3.5681833e-07
3.5374478e-07
3.5083209e-07
3.4726161e-07
3.4545722e-07
3.4330999e-07
3.4114731e-07
3.3849407e-07
3.3622893e-07
3.3311296e-07
3.3121248e-07
3.2806281e-07
3.2586395e-07
3.22601e-07
3.2105809e-07
3.1860529e-07
3.1738303e-07
3.1457775e-07
3.1331121e-07
3.1108569e-07
3.1013639e-07
3.089249e-07
3.0845369e-07
3.0768325e-07
3.0765749e-07
3.0792488e-07
3.0829368e-07
3.0948194e-07
3.1307122e-07
3.1551931e-07
3.1994117e-07
3.2178066e-07
3.2552521e-07
3.2922271e-07
3.371537e-07
3.4167686e-07
3.5083383e-07
3.6068262e-07
3.7235005e-07
3.9438637e-06
3.0157537e-06
2.4274167e-06
2.0289895e-06
1.7429692e-06
1.5297063e-06
1.3646272e-06
1.2344831e-06
1.1282308e-06
1.0412012e-06
9.6678054e-07
9.0471012e-07
8.4983391e-07
8.0360807e-07
7.6169938e-07
7.2675113e-07
6.9369106e-07
6.6600636e-07
6.3968085e-07
6.1711644e-07
5.9552667e-07
5.7659476e-07
5.5893911e-07
5.4343375e-07
5.2804625e-07
5.1476046e-07
5.0196436e-07
4.8999535e-07
4.7857193e-07
4.6894844e-07
4.5851742e-07
4.4954419e-07
4.4097875e-07
4.3348846e-07
4.2622505e-07
4.1988372e-07
4.1321509e-07
4.0821422e-07
4.0257193e-07
3.9745744e-07
3.9248157e-07
3.883379e-07
3.8376359e-07
3.793593e-07
3.7520929e-07
3.7294515e-07
3.6871143e-07
3.6496488e-07
3.6096227e-07
3.5932384e-07
3.5687069e-07
3.5385177e-07
3.5107961e-07
3.4753809e-07
3.456723e-07
3.4339855e-07
3.4109665e-07
3.3839963e-07
3.3642805e-07
3.3330021e-07
3.3137138e-07
3.2820233e-07
3.2595631e-07
3.2254936e-07
3.2103454e-07
3.1846213e-07
3.1716943e-07
3.1447047e-07
3.1290987e-07
3.1055136e-07
3.0955862e-07
3.0818777e-07
3.0728199e-07
3.063231e-07
3.0626146e-07
3.0640017e-07
3.0666874e-07
3.0781451e-07
3.1044702e-07
3.1263808e-07
3.1597725e-07
3.1785297e-07
3.220789e-07
3.2500212e-07
3.3135514e-07
3.3547125e-07
3.4389982e-07
3.5144575e-07
3.6072523e-07
3.9447508e-06
3.0171482e-06
2.4289183e-06
2.0304661e-06
1.7443786e-06
1.531031e-06
1.3658874e-06
1.2356489e-06
1.1293657e-06
1.0422378e-06
9.6782705e-07
9.0561957e-07
8.5080734e-07
8.0445633e-07
7.6251829e-07
7.276516e-07
6.9441734e-07
6.667994e-07
6.4039049e-07
6.1787527e-07
5.9619595e-07
5.7731047e-07
5.5956524e-07
5.4409031e-07
5.2857984e-07
5.1542293e-07
5.0252325e-07
4.905944e-07
4.791637e-07
4.6967518e-07
4.5908589e-07
4.5021233e-07
4.4156848e-07
4.341701e-07
4.2675672e-07
4.204181e-07
4.1369653e-07
4.0884745e-07
4.0300004e-07
3.9800078e-07
3.9288114e-07
3.8899207e-07
3.8431184e-07
3.8009168e-07
3.7576666e-07
3.7333986e-07
3.6908841e-07
3.655973e-07
3.615961e-07
3.5994481e-07
3.5717421e-07
3.5422638e-07
3.5136719e-07
3.4843849e-07
3.4649941e-07
3.4383782e-07
3.4136765e-07
3.3853597e-07
3.3670948e-07
3.338982e-07
3.3187973e-07
3.2870039e-07
3.262306e-07
3.2275723e-07
3.2120643e-07
3.1868548e-07
3.1725621e-07
3.1457064e-07
3.1279123e-07
3.1064731e-07
3.092706e-07
3.0731432e-07
3.0653911e-07
3.0556976e-07
3.0541491e-07
3.052987e-07
3.0557281e-07
3.0624688e-07
3.0835384e-07
3.1022432e-07
3.1354856e-07
3.1533298e-07
3.1960771e-07
3.2212656e-07
3.2705676e-07
3.3041031e-07
3.375417e-07
3.4407137e-07
3.5439952e-07
3.945607e-06
3.0184929e-06
2.430367e-06
2.0318835e-06
1.7457411e-06
1.5323027e-06
1.3671004e-06
1.2367719e-06
1.1304597e-06
1.0432336e-06
9.6884605e-07
9.064811e-07
8.5174583e-07
8.0525143e-07
7.6334577e-07
7.2841934e-07
6.9515919e-07
6.6754935e-07
6.4100911e-07
6.1860405e-07
5.9685144e-07
5.7795621e-07
5.6014918e-07
5.4471841e-07
5.2908218e-07
5.1605878e-07
5.0307726e-07
4.9111672e-07
4.7966664e-07
4.7026339e-07
4.5954293e-07
4.5064192e-07
4.4198431e-07
4.3464475e-07
4.270612e-07
4.2068005e-07
4.139888e-07
4.0917552e-07
4.0331073e-07
3.9832849e-07
3.9309166e-07
3.8931892e-07
3.8462266e-07
3.8051106e-07
3.7606423e-07
3.7348999e-07
3.6921121e-07
3.6580933e-07
3.618786e-07
3.6016183e-07
3.5723511e-07
3.5438485e-07
3.5128006e-07
3.4869759e-07
3.4674494e-07
3.4391608e-07
3.4139108e-07
3.3846434e-07
3.3678912e-07
3.3401287e-07
3.3201218e-07
3.2870153e-07
3.2619508e-07
3.2271646e-07
3.2112838e-07
3.1861597e-07
3.1700563e-07
3.1425644e-07
3.1265891e-07
3.1021051e-07
3.0845023e-07
3.0670212e-07
3.057695e-07
3.0467702e-07
3.0420561e-07
3.0405747e-07
3.0446175e-07
3.0500178e-07
3.0665883e-07
3.0837842e-07
3.1079195e-07
3.1273305e-07
3.170992e-07
3.1902754e-07
3.2335145e-07
3.2603324e-07
3.3164589e-07
3.3612907e-07
3.4731059e-07
3.9464307e-06
3.0197855e-06
2.4317671e-06
2.0332542e-06
1.7470696e-06
1.5335337e-06
1.3682748e-06
1.2378535e-06
1.1315146e-06
1.0441938e-06
9.6983006e-07
9.073163e-07
8.5265366e-07
8.0601578e-07
7.6417857e-07
7.2909789e-07
6.9592024e-07
6.682364e-07
6.4162312e-07
6.1927384e-07
5.9748876e-07
5.7854389e-07
5.607338e-07
5.4528297e-07
5.2960539e-07
5.1669145e-07
5.0370144e-07
4.9163231e-07
4.802487e-07
4.7081291e-07
4.6009741e-07
4.5112993e-07
4.4250729e-07
4.3520256e-07
4.2751138e-07
4.2108584e-07
4.144342e-07
4.0958241e-07
4.0367937e-07
3.9874269e-07
3.9341917e-07
3.8957674e-07
3.849616e-07
3.8103587e-07
3.7659246e-07
3.7359025e-07
3.693912e-07
3.6596455e-07
3.6218184e-07
3.6042003e-07
3.5740773e-07
3.5445592e-07
3.5128555e-07
3.4880885e-07
3.4681097e-07
3.4395729e-07
3.4136624e-07
3.3841847e-07
3.3687737e-07
3.3405815e-07
3.3200641e-07
3.2891608e-07
3.2611253e-07
3.2281146e-07
3.2092154e-07
3.1870808e-07
3.1667853e-07
3.1410283e-07
3.1235992e-07
3.0977822e-07
3.0789603e-07
3.0647258e-07
3.0512303e-07
3.0396699e-07
3.0315284e-07
3.0308815e-07
3.033876e-07
3.0394308e-07
3.0511882e-07
3.0626018e-07
3.0826831e-07
3.1062193e-07
3.1396114e-07
3.1572676e-07
3.2003983e-07
3.2297373e-07
3.3032545e-07
3.3531123e-07
3.4398411e-07
3.9472335e-06
3.0210344e-06
2.4331261e-06
2.0345662e-06
1.7483527e-06
1.534712e-06
1.3694141e-06
1.2388957e-06
1.1325347e-06
1.0451185e-06
9.7077365e-07
9.0812906e-07
8.5352245e-07
8.0675426e-07
7.6498846e-07
7.2971395e-07
6.9667292e-07
6.6887261e-07
6.422615e-07
6.1989325e-07
5.9809428e-07
5.7909471e-07
5.6127267e-07
5.4575859e-07
5.3009759e-07
5.1717181e-07
5.0420454e-07
4.9202517e-07
4.8079658e-07
4.7123146e-07
4.605747e-07
4.515765e-07
4.429823e-07
4.3559465e-07
4.2790066e-07
4.2143468e-07
4.1485184e-07
4.0982726e-07
4.0391855e-07
3.9900276e-07
3.9366458e-07
3.8968874e-07
3.8508618e-07
3.8121979e-07
3.7686076e-07
3.7353721e-07
3.6939121e-07
3.6584612e-07
3.6225192e-07
3.6023134e-07
3.5726298e-07
3.5421661e-07
3.5114992e-07
3.4861887e-07
3.4660899e-07
3.4355859e-07
3.4108451e-07
3.3803676e-07
3.3636293e-07
3.3380415e-07
3.314494e-07
3.2871252e-07
3.2534294e-07
3.2257031e-07
3.2029416e-07
3.1805999e-07
3.1592778e-07
3.1360537e-07
3.1138467e-07
3.0895958e-07
3.070605e-07
3.056678e-07
3.0408554e-07
3.0293907e-07
3.0184574e-07
3.0171856e-07
3.0186207e-07
3.0237114e-07
3.0344342e-07
3.0414148e-07
3.0650937e-07
3.0822662e-07
3.1096105e-07
3.126352e-07
3.1685212e-07
3.2091279e-07
3.2812648e-07
3.3276856e-07
3.3937622e-07
3.9479996e-06
3.0222267e-06
2.4344376e-06
2.0358202e-06
1.7496014e-06
1.535838e-06
1.3705166e-06
1.2398969e-06
1.1335255e-06
1.0460029e-06
9.7168059e-07
9.0891719e-07
8.5434845e-07
8.0746384e-07
7.6577071e-07
7.3028915e-07
6.9742458e-07
6.6944709e-07
6.4291332e-07
6.2043243e-07
5.986938e-07
5.7963857e-07
5.6184862e-07
5.4620564e-07
5.3064465e-07
5.1761004e-07
5.0469259e-07
4.9239127e-07
4.8135648e-07
4.7156337e-07
4.6102481e-07
4.5196686e-07
4.4344422e-07
4.3583397e-07
4.281711e-07
4.2159339e-07
4.1505135e-07
4.0987047e-07
4.0398409e-07
3.9905773e-07
3.9376355e-07
3.8963068e-07
3.8509213e-07
3.8124683e-07
3.7704094e-07
3.7339484e-07
3.6915792e-07
3.6551062e-07
3.6210116e-07
3.5988465e-07
3.5684772e-07
3.5380309e-07
3.5073742e-07
3.4805072e-07
3.4612627e-07
3.4275458e-07
3.4042094e-07
3.3755e-07
3.3542659e-07
3.3310725e-07
3.3073801e-07
3.2794857e-07
3.2461519e-07
3.2174348e-07
3.1948919e-07
3.1704055e-07
3.1480709e-07
3.1246469e-07
3.102308e-07
3.0789229e-07
3.0601104e-07
3.0424029e-07
3.0272881e-07
3.0134241e-07
3.0042509e-07
3.00261e-07
3.0031608e-07
3.0076405e-07
3.0155066e-07
3.0235866e-07
3.0406666e-07
3.0570104e-07
3.0837185e-07
3.1069902e-07
3.1536362e-07
3.1806244e-07
3.2275246e-07
3.277622e-07
3.3410963e-07
3.9487539e-06
3.0233809e-06
2.435717e-06
2.0370213e-06
1.7508184e-06
1.5369092e-06
1.3715941e-06
1.2408469e-06
1.1344886e-06
1.04684e-06
9.7254493e-07
9.0967227e-07
8.5512412e-07
8.0812715e-07
7.6651311e-07
7.3081573e-07
6.9813857e-07
6.6994195e-07
6.4356892e-07
6.2087652e-07
5.99244e-07
5.8010255e-07
5.6238164e-07
5.4654114e-07
5.3119646e-07
5.1792865e-07
5.0512751e-07
4.92673e-07
4.8180257e-07
4.7172073e-07
4.6130366e-07
4.5215357e-07
4.4367106e-07
4.3583201e-07
4.282182e-07
4.2150308e-07
4.1510034e-07
4.0959776e-07
4.0383856e-07
3.9884578e-07
3.9361567e-07
3.8917786e-07
3.8462283e-07
3.8084683e-07
3.7673758e-07
3.7276103e-07
3.685359e-07
3.6474242e-07
3.6145312e-07
3.5907154e-07
3.5587995e-07
3.5262895e-07
3.4969958e-07
3.4684541e-07
3.4467968e-07
3.4150341e-07
3.3871137e-07
3.3622562e-07
3.3383635e-07
3.3133662e-07
3.2902777e-07
3.2614291e-07
3.2298081e-07
3.2000486e-07
3.1755247e-07
3.1513376e-07
3.1294248e-07
3.1043014e-07
3.081131e-07
3.0590016e-07
3.0396048e-07
3.0206229e-07
3.0051323e-07
2.9896532e-07
2.9823856e-07
2.9798637e-07
2.979446e-07
2.9827344e-07
2.9869854e-07
2.9967033e-07
3.011136e-07
3.0216174e-07
3.0479587e-07
3.0770642e-07
3.1199357e-07
3.1412673e-07
3.1891618e-07
3.2170298e-07
3.2786319e-07
3.9494752e-06
3.0244759e-06
2.4369585e-06
2.0381648e-06
1.7520101e-06
1.5379227e-06
1.3726422e-06
1.2417381e-06
1.1354227e-06
1.047622e-06
9.7337231e-07
9.1039254e-07
8.5585225e-07
8.0874217e-07
7.6721013e-07
7.3128348e-07
6.9879861e-07
6.7033401e-07
6.4418787e-07
6.2118783e-07
5.9970022e-07
5.8039443e-07
5.6272555e-07
5.4666871e-07
5.3152412e-07
5.1804088e-07
5.0532302e-07
4.9268806e-07
4.82001e-07
4.7155922e-07
4.6134716e-07
4.5201742e-07
4.4364164e-07
4.3543352e-07
4.2796953e-07
4.2109015e-07
4.1474456e-07
4.0890401e-07
4.0321419e-07
3.9811453e-07
3.9292905e-07
3.8814523e-07
3.8357735e-07
3.7964766e-07
3.7561094e-07
3.7135484e-07
3.6713538e-07
3.630402e-07
3.5970146e-07
3.5712708e-07
3.5392421e-07
3.5045606e-07
3.4767792e-07
3.4472162e-07
3.4221869e-07
3.3903424e-07
3.3606449e-07
3.3370296e-07
3.3138252e-07
3.285765e-07
3.2613024e-07
3.2331083e-07
3.2029692e-07
3.1722357e-07
3.1455447e-07
3.120348e-07
3.0999026e-07
3.0745099e-07
3.0512936e-07
3.0283545e-07
3.0073466e-07
2.9898795e-07
2.9748121e-07
2.9593837e-07
2.9497716e-07
2.946539e-07
2.9460261e-07
2.9490659e-07
2.9533053e-07
2.96351e-07
2.9742102e-07
2.9801945e-07
3.0023777e-07
3.0221215e-07
3.0570049e-07
3.0803388e-07
3.1266404e-07
3.1501695e-07
3.1983923e-07
3.9501936e-06
3.0255329e-06
2.4381797e-06
2.0392424e-06
1.7531778e-06
1.5388699e-06
1.3736674e-06
1.2425599e-06
1.1363248e-06
1.0483289e-06
9.7413753e-07
9.1104427e-07
8.5650141e-07
8.09258e-07
7.678148e-07
7.3162464e-07
6.9932174e-07
6.7056193e-07
6.446232e-07
6.2129298e-07
5.9992679e-07
5.804175e-07
5.6283785e-07
5.4647763e-07
5.315808e-07
5.1771858e-07
5.0516426e-07
4.9228257e-07
4.8180935e-07
4.7089772e-07
4.6087985e-07
4.5126471e-07
4.4298547e-07
4.3440635e-07
4.2703267e-07
4.1992482e-07
4.1358696e-07
4.0739096e-07
4.0174909e-07
3.9646208e-07
3.9134279e-07
3.8622356e-07
3.816752e-07
3.7755756e-07
3.7356626e-07
3.6906724e-07
3.6466948e-07
3.6040441e-07
3.569156e-07
3.5406577e-07
3.5083062e-07
3.4723962e-07
3.4427926e-07
3.414203e-07
3.3856708e-07
3.3519733e-07
3.3223609e-07
3.2973924e-07
3.2736529e-07
3.2463898e-07
3.2205391e-07
3.1925228e-07
3.1618331e-07
3.1326687e-07
3.1042897e-07
3.0771809e-07
3.0567051e-07
3.0318959e-07
3.0089109e-07
2.9864251e-07
2.9631787e-07
2.9458643e-07
2.9306795e-07
2.9153039e-07
2.9048966e-07
2.9000009e-07
2.8987249e-07
2.8998823e-07
2.9045265e-07
2.9121959e-07
2.92076e-07
2.928136e-07
2.9486796e-07
2.9642684e-07
2.9884925e-07
3.0052009e-07
3.045227e-07
3.0662864e-07
3.1102512e-07
3.9508801e-06
3.0265245e-06
2.4393659e-06
2.040248e-06
1.7543211e-06
1.5397385e-06
1.374659e-06
1.2432872e-06
1.1371754e-06
1.0489166e-06
9.7480574e-07
9.1156624e-07
8.5699438e-07
8.0956739e-07
7.681791e-07
7.3168498e-07
6.9955051e-07
6.703949e-07
6.4471314e-07
6.2093738e-07
5.9974672e-07
5.7989456e-07
5.6239891e-07
5.4567371e-07
5.3099283e-07
5.1665616e-07
5.0423822e-07
4.9100031e-07
4.8063374e-07
4.6927967e-07
4.5940749e-07
4.4940197e-07
4.4116218e-07
4.3217727e-07
4.2480565e-07
4.1740408e-07
4.1112914e-07
4.0447604e-07
3.9885561e-07
3.9322253e-07
3.881448e-07
3.8275e-07
3.7799867e-07
3.7365199e-07
3.6954369e-07
3.6495787e-07
3.6035463e-07
3.5605649e-07
3.5242751e-07
3.4914616e-07
3.458821e-07
3.4223385e-07
3.390587e-07
3.362873e-07
3.3319371e-07
3.2979414e-07
3.2678707e-07
3.2406305e-07
3.2147834e-07
3.1886753e-07
3.1624464e-07
3.1346891e-07
3.1032208e-07
3.0753968e-07
3.046342e-07
3.0195464e-07
2.9978763e-07
2.9714865e-07
2.9488007e-07
2.92902e-07
2.9070383e-07
2.8879513e-07
2.8720757e-07
2.8572998e-07
2.8469807e-07
2.8410249e-07
2.8384222e-07
2.8383959e-07
2.8428687e-07
2.8484601e-07
2.8554138e-07
2.8644595e-07
2.8841173e-07
2.896578e-07
2.9179111e-07
2.9332879e-07
2.964199e-07
2.9824097e-07
3.0268138e-07
3.9515722e-06
3.0274724e-06
2.4405368e-06
2.0411714e-06
1.7554248e-06
1.5404968e-06
1.3755703e-06
1.2438573e-06
1.1378921e-06
1.0492734e-06
9.7521169e-07
9.1174331e-07
8.5710817e-07
8.0941481e-07
7.6804904e-07
7.3113891e-07
6.9913276e-07
6.6948212e-07
6.4399049e-07
6.1967409e-07
5.98601e-07
5.7827907e-07
5.6084632e-07
5.4370175e-07
5.2914456e-07
5.1429585e-07
5.0196139e-07
4.8834054e-07
4.7795701e-07
4.6625458e-07
4.5640505e-07
4.4592201e-07
4.3767547e-07
4.2832479e-07
4.2086317e-07
4.1311027e-07
4.0680313e-07
3.9982113e-07
3.9416386e-07
3.8826314e-07
3.8320946e-07
3.7762249e-07
3.7268628e-07
3.681593e-07
3.6396052e-07
3.5924192e-07
3.5455253e-07
3.501172e-07
3.4614373e-07
3.4261235e-07
3.3922653e-07
3.3559935e-07
3.3231177e-07
3.2943202e-07
3.2628775e-07
3.229226e-07
3.1977546e-07
3.1709555e-07
3.1436314e-07
3.1176412e-07
3.0921608e-07
3.0662234e-07
3.0373534e-07
3.0066904e-07
2.9778229e-07
2.9530048e-07
2.9293108e-07
2.9034449e-07
2.8797357e-07
2.8595486e-07
2.8394776e-07
2.8185429e-07
2.8023933e-07
2.7872298e-07
2.7755225e-07
2.768521e-07
2.7640884e-07
2.7637585e-07
2.7671323e-07
2.7694796e-07
2.7733815e-07
2.7823434e-07
2.7962641e-07
2.8045771e-07
2.8235198e-07
2.8405476e-07
2.8662165e-07
2.8796524e-07
2.9157679e-07
3.9522174e-06
3.0283371e-06
2.441656e-06
2.0419727e-06
1.7564345e-06
1.5410682e-06
1.3762775e-06
1.2440844e-06
1.1382345e-06
1.0490735e-06
9.7500506e-07
9.1114532e-07
8.5633982e-07
8.082042e-07
7.6672349e-07
7.2927123e-07
6.9726949e-07
6.6701368e-07
6.4157671e-07
6.1666358e-07
5.955816e-07
5.7466422e-07
5.5720731e-07
5.3964872e-07
5.2510618e-07
5.0980638e-07
4.9744981e-07
4.8345054e-07
4.7287063e-07
4.6100095e-07
4.5104853e-07
4.4008322e-07
4.3172064e-07
4.2211757e-07
4.1440845e-07
4.0633927e-07
3.9988034e-07
3.9265163e-07
3.8680979e-07
3.8063678e-07
3.7557627e-07
3.6981808e-07
3.6471018e-07
3.5995106e-07
3.5563884e-07
3.5083386e-07
3.4625232e-07
3.4147358e-07