/*--------------------------------*- C++ -*----------------------------------*\
| =========                 |                                                 |
| \\      /  F ield         | OpenFOAM: The Open Source CFD Toolbox           |
|  \\    /   O peration     | Version:  2406                                  |
|   \\  /    A nd           | Website:  www.openfoam.com                      |
|    \\/     M anipulation  |                                                 |
\*---------------------------------------------------------------------------*/
FoamFile
{
    version     2.0;
    format      ascii;
    arch        "LSB;label=32;scalar=64";
    class       volScalarField;
    location    "40";
    object      k_0;
}
// * * * * * * * * * * * * * * * * * * * * * * * * * * * * * * * * * * * * * //

dimensions      [0 2 -2 0 0 0 0];

internalField   nonuniform List<scalar> 
158064
(
3.9302815e-06
2.9944419e-06
2.4046542e-06
2.0064887e-06
1.7217065e-06
1.5093602e-06
1.3458928e-06
1.2163551e-06
1.1116063e-06
1.0247111e-06
9.5189745e-07
8.8959688e-07
8.3622095e-07
7.8992679e-07
7.4938267e-07
7.1380475e-07
6.8244547e-07
6.5393418e-07
6.2917796e-07
6.0545672e-07
5.8570634e-07
5.6584276e-07
5.4934916e-07
5.3305269e-07
5.1918953e-07
5.0490043e-07
4.9280294e-07
4.8027845e-07
4.7033995e-07
4.5886621e-07
4.5062071e-07
4.405986e-07
4.3378764e-07
4.2513147e-07
4.1929473e-07
4.120239e-07
4.0784797e-07
4.0034865e-07
3.9624099e-07
3.9100255e-07
3.8757901e-07
3.8191513e-07
3.7813626e-07
3.741381e-07
3.7170607e-07
3.6655379e-07
3.6395505e-07
3.5970231e-07
3.5833862e-07
3.5565103e-07
3.5414901e-07
3.509581e-07
3.4864812e-07
3.4576151e-07
3.4303411e-07
3.4203615e-07
3.4117363e-07
3.3985098e-07
3.3687663e-07
3.3553111e-07
3.3370882e-07
3.3238022e-07
3.2981471e-07
3.2919891e-07
3.2941265e-07
3.3010607e-07
3.3121793e-07
3.3269149e-07
3.3449772e-07
3.3782966e-07
3.4622941e-07
3.5588944e-07
3.766192e-07
3.9306222e-07
4.2471297e-07
4.5016282e-07
4.9115761e-07
5.5215412e-07
5.8462497e-07
6.4221313e-07
6.8924387e-07
7.6122592e-07
7.9377423e-07
8.544388e-07
9.0999431e-07
9.5723901e-07
1.0176764e-06
1.0751211e-06
1.2059639e-06
3.9316546e-06
2.9965566e-06
2.4068929e-06
2.0087171e-06
1.7237948e-06
1.511414e-06
1.3477546e-06
1.2182396e-06
1.1133102e-06
1.0265043e-06
9.5352198e-07
8.9134185e-07
8.3778305e-07
7.9158686e-07
7.5092448e-07
7.1540705e-07
6.8394367e-07
6.5549121e-07
6.3069572e-07
6.0696764e-07
5.872447e-07
5.6736055e-07
5.5089893e-07
5.3459908e-07
5.207673e-07
5.0632835e-07
4.9447042e-07
4.818102e-07
4.7180897e-07
4.6036999e-07
4.51972e-07
4.4205524e-07
4.3510226e-07
4.2652031e-07
4.2026777e-07
4.1305912e-07
4.0865989e-07
4.0116562e-07
3.9725129e-07
3.9194794e-07
3.8825225e-07
3.8231054e-07
3.786577e-07
3.7456867e-07
3.7164156e-07
3.6654124e-07
3.6360932e-07
3.5996699e-07
3.583561e-07
3.550351e-07
3.5293373e-07
3.5009501e-07
3.4737173e-07
3.4456119e-07
3.4209864e-07
3.4055521e-07
3.3867199e-07
3.3750075e-07
3.352773e-07
3.3402307e-07
3.3122207e-07
3.3036082e-07
3.2803173e-07
3.278528e-07
3.2714017e-07
3.27747e-07
3.2808802e-07
3.3009571e-07
3.3162556e-07
3.3562574e-07
3.3779275e-07
3.4342125e-07
3.473153e-07
3.5699213e-07
3.6346878e-07
3.7794459e-07
3.8971808e-07
4.2040228e-07
4.3871137e-07
4.7807991e-07
5.0373405e-07
5.6020635e-07
6.0636812e-07
6.499142e-07
7.418489e-07
7.9798644e-07
8.8152728e-07
9.2892424e-07
1.0482193e-06
3.9329409e-06
2.9986076e-06
2.4090736e-06
2.0108814e-06
1.7258428e-06
1.5133772e-06
1.3495375e-06
1.2199636e-06
1.1148596e-06
1.0280178e-06
9.5486914e-07
8.9267024e-07
8.3894033e-07
7.9272698e-07
7.5196341e-07
7.1638688e-07
6.8482934e-07
6.5638016e-07
6.3143381e-07
6.0770639e-07
5.8790631e-07
5.6798611e-07
5.5140293e-07
5.3509491e-07
5.2111863e-07
5.0661263e-07
4.9471146e-07
4.8208641e-07
4.719167e-07
4.6070919e-07
4.5203766e-07
4.4219171e-07
4.3514215e-07
4.2658097e-07
4.2024377e-07
4.1333639e-07
4.0864349e-07
4.0117461e-07
3.9740566e-07
3.9207689e-07
3.882299e-07
3.821509e-07
3.7890619e-07
3.7468659e-07
3.7149192e-07
3.6636161e-07
3.6368284e-07
3.6003485e-07
3.5835739e-07
3.5467742e-07
3.5272834e-07
3.494473e-07
3.4771419e-07
3.4420485e-07
3.4225186e-07
3.3942931e-07
3.3823667e-07
3.358558e-07
3.3453646e-07
3.3260757e-07
3.3038368e-07
3.2841476e-07
3.2620946e-07
3.2551818e-07
3.2405999e-07
3.2394301e-07
3.2321894e-07
3.2379204e-07
3.2410354e-07
3.2625994e-07
3.2774715e-07
3.3271937e-07
3.3556816e-07
3.4368316e-07
3.4829546e-07
3.6014589e-07
3.6734312e-07
3.8280441e-07
3.9588691e-07
4.1557393e-07
4.3678676e-07
4.587194e-07
4.9470319e-07
5.1608186e-07
5.6764429e-07
6.0560941e-07
6.8525564e-07
7.2944013e-07
8.416828e-07
3.9342571e-06
3.0006337e-06
2.4112283e-06
2.0129966e-06
1.727827e-06
1.5152833e-06
1.3512683e-06
1.2216721e-06
1.1164102e-06
1.0295878e-06
9.56278e-07
8.9414446e-07
8.4024918e-07
7.9407369e-07
7.5324577e-07
7.1766343e-07
6.8600171e-07
6.5767439e-07
6.3255494e-07
6.0895398e-07
5.8905996e-07
5.6918009e-07
5.52505e-07
5.3644101e-07
5.2225405e-07
5.0783224e-07
4.9608736e-07
4.8361604e-07
4.7296874e-07
4.6217685e-07
4.5339139e-07
4.4357067e-07
4.3635646e-07
4.2784476e-07
4.2141185e-07
4.1460357e-07
4.0953725e-07
4.0243383e-07
3.9858764e-07
3.9304878e-07
3.8907913e-07
3.8326131e-07
3.8001754e-07
3.7566555e-07
3.7192275e-07
3.6708687e-07
3.6485742e-07
3.6156397e-07
3.5932377e-07
3.5502274e-07
3.5321445e-07
3.4981816e-07
3.4818894e-07
3.4505584e-07
3.432792e-07
3.3983629e-07
3.3799727e-07
3.3539475e-07
3.3420617e-07
3.3164313e-07
3.3031159e-07
3.2752554e-07
3.2602861e-07
3.2434006e-07
3.2315131e-07
3.2185153e-07
3.2105183e-07
3.2120036e-07
3.2162458e-07
3.2245744e-07
3.2397787e-07
3.262178e-07
3.2874932e-07
3.3363402e-07
3.3679476e-07
3.4087843e-07
3.508907e-07
3.5882341e-07
3.7363461e-07
3.8192705e-07
3.9806271e-07
4.1070436e-07
4.3955731e-07
4.5640422e-07
4.9050443e-07
5.1213895e-07
5.602679e-07
5.9338637e-07
6.8806683e-07
3.9354596e-06
3.0025394e-06
2.4132629e-06
2.015017e-06
1.7297399e-06
1.5171281e-06
1.3529503e-06
1.2233196e-06
1.1178927e-06
1.0310666e-06
9.5757628e-07
8.9548331e-07
8.4139738e-07
7.9522184e-07
7.5429735e-07
7.1866914e-07
6.8689165e-07
6.586183e-07
6.3332704e-07
6.0979899e-07
5.8978927e-07
5.6994493e-07
5.5314091e-07
5.3713725e-07
5.2276115e-07
5.0830665e-07
4.9660213e-07
4.8414457e-07
4.7319559e-07
4.6264618e-07
4.5371721e-07
4.4387239e-07
4.3647714e-07
4.2804695e-07
4.2151229e-07
4.1486362e-07
4.0955176e-07
4.0274619e-07
3.9880226e-07
3.9310829e-07
3.8905939e-07
3.8346535e-07
3.80171e-07
3.7565822e-07
3.7162308e-07
3.6724258e-07
3.6525254e-07
3.620429e-07
3.5913771e-07
3.5470792e-07
3.5280847e-07
3.4989298e-07
3.4833041e-07
3.4519639e-07
3.4343183e-07
3.4014504e-07
3.3826575e-07
3.3562166e-07
3.3410584e-07
3.3153614e-07
3.2983451e-07
3.2748651e-07
3.2557645e-07
3.2347636e-07
3.2244059e-07
3.2087757e-07
3.2036238e-07
3.1944155e-07
3.1943653e-07
3.1960543e-07
3.2022256e-07
3.2126514e-07
3.2324873e-07
3.2555913e-07
3.302512e-07
3.333547e-07
3.3943233e-07
3.445381e-07
3.5593576e-07
3.6496017e-07
3.7933869e-07
3.8691327e-07
4.033039e-07
4.1549024e-07
4.4375828e-07
4.6091822e-07
4.9569974e-07
5.1551815e-07
5.7113555e-07
3.9366721e-06
3.0044193e-06
2.415267e-06
2.0169932e-06
1.7315878e-06
1.5189076e-06
1.3545679e-06
1.224906e-06
1.1193266e-06
1.0325098e-06
9.5884718e-07
8.968234e-07
8.4254964e-07
7.9642578e-07
7.5540478e-07
7.1979685e-07
6.8791578e-07
6.5975423e-07
6.3425337e-07
6.1089687e-07
5.9073118e-07
5.7090848e-07
5.5401501e-07
5.3822374e-07
5.2359559e-07
5.0924458e-07
4.97659e-07
4.8516518e-07
4.7404449e-07
4.6390219e-07
4.5475903e-07
4.44829e-07
4.3734213e-07
4.2921798e-07
4.2257627e-07
4.1596839e-07
4.1041598e-07
4.0399265e-07
3.9980926e-07
3.9397848e-07
3.8991369e-07
3.8457002e-07
3.8114281e-07
3.7622102e-07
3.7214063e-07
3.6857481e-07
3.6658039e-07
3.6309738e-07
3.59581e-07
3.5547748e-07
3.5375902e-07
3.5074771e-07
3.4912369e-07
3.4590854e-07
3.438092e-07
3.406029e-07
3.3897094e-07
3.3612602e-07
3.3459036e-07
3.3148235e-07
3.2988996e-07
3.2689619e-07
3.2561807e-07
3.2294292e-07
3.2149766e-07
3.2005609e-07
3.1920318e-07
3.180505e-07
3.1773091e-07
3.1772641e-07
3.1821298e-07
3.1890525e-07
3.201471e-07
3.2137614e-07
3.2410586e-07
3.2671356e-07
3.3178981e-07
3.3516223e-07
3.4304942e-07
3.4924546e-07
3.6331748e-07
3.7222329e-07
3.8583422e-07
3.9264669e-07
4.0905713e-07
4.227991e-07
4.5454824e-07
4.723996e-07
5.1150468e-07
3.937795e-06
3.0061949e-06
2.417169e-06
2.018883e-06
1.7333716e-06
1.5206232e-06
1.3561395e-06
1.2264392e-06
1.120718e-06
1.0339005e-06
9.600747e-07
8.9810717e-07
8.4365796e-07
7.9756362e-07
7.5642114e-07
7.2082346e-07
6.8880954e-07
6.6070979e-07
6.3505942e-07
6.1182825e-07
5.9147405e-07
5.7171381e-07
5.547697e-07
5.389802e-07
5.2416349e-07
5.099704e-07
4.9836722e-07
4.8574337e-07
4.7452815e-07
4.6461207e-07
4.5521321e-07
4.4526463e-07
4.3771472e-07
4.296681e-07
4.2284671e-07
4.1625272e-07
4.1053308e-07
4.0438289e-07
4.0000983e-07
3.9422718e-07
3.8999975e-07
3.8488278e-07
3.8127892e-07
3.7629613e-07
3.7221141e-07
3.6906424e-07
3.66778e-07
3.6328172e-07
3.593991e-07
3.555314e-07
3.5401172e-07
3.5102807e-07
3.4913452e-07
3.4593194e-07
3.436579e-07
3.4068267e-07
3.3918785e-07
3.3633145e-07
3.3466497e-07
3.3146311e-07
3.2981783e-07
3.2667059e-07
3.2495139e-07
3.2239692e-07
3.2107845e-07
3.1927367e-07
3.1832944e-07
3.1703024e-07
3.1648264e-07
3.1555418e-07
3.1573225e-07
3.1583951e-07
3.1683622e-07
3.1748239e-07
3.2028048e-07
3.2226865e-07
3.2667505e-07
3.2914118e-07
3.3475898e-07
3.3867144e-07
3.4858801e-07
3.5845232e-07
3.7310826e-07
3.7970135e-07
3.920474e-07
4.0019346e-07
4.206208e-07
4.3637647e-07
4.6999359e-07
3.938913e-06
3.0079406e-06
2.4190313e-06
2.0207196e-06
1.7351041e-06
1.5222787e-06
1.3576612e-06
1.2279128e-06
1.1220627e-06
1.0352391e-06
9.6126486e-07
8.9934021e-07
8.4473599e-07
7.9866479e-07
7.574093e-07
7.218619e-07
6.8971138e-07
6.6173857e-07
6.3589012e-07
6.1282969e-07
5.9226461e-07
5.7257915e-07
5.5560095e-07
5.3984479e-07
5.248536e-07
5.1094739e-07
4.9920263e-07
4.8648504e-07
4.7534245e-07
4.6562239e-07
4.5581271e-07
4.4603797e-07
4.3861553e-07
4.306638e-07
4.2362396e-07
4.1712144e-07
4.1135695e-07
4.0548741e-07
4.007583e-07
3.9502326e-07
3.9065907e-07
3.8567859e-07
3.8202183e-07
3.7711711e-07
3.7310694e-07
3.7035944e-07
3.6749676e-07
3.6372185e-07
3.5969088e-07
3.5659215e-07
3.5500205e-07
3.5184493e-07
3.4973361e-07
3.4626353e-07
3.4406735e-07
3.4138358e-07
3.3996493e-07
3.3709604e-07
3.350074e-07
3.3200245e-07
3.2996393e-07
3.2724215e-07
3.2511358e-07
3.2230098e-07
3.2102819e-07
3.1890204e-07
3.1793488e-07
3.1621257e-07
3.1559459e-07
3.1453487e-07
3.1443466e-07
3.1416144e-07
3.1448296e-07
3.1485665e-07
3.1673759e-07
3.1816127e-07
3.2188703e-07
3.2403781e-07
3.2815641e-07
3.3133126e-07
3.3883887e-07
3.4492856e-07
3.6006671e-07
3.695218e-07
3.8229769e-07
3.8805531e-07
3.9973307e-07
4.0874282e-07
4.3316167e-07
3.9399619e-06
3.0095973e-06
2.4208096e-06
2.0224796e-06
1.736772e-06
1.5238696e-06
1.3591395e-06
1.2293295e-06
1.1233685e-06
1.0365318e-06
9.624226e-07
9.0052623e-07
8.4580062e-07
7.9972241e-07
7.583648e-07
7.2286989e-07
6.9055794e-07
6.6267682e-07
6.3664967e-07
6.137582e-07
5.9291912e-07
5.7336048e-07
5.5629368e-07
5.4052848e-07
5.2549026e-07
5.1176162e-07
4.9970167e-07
4.8711533e-07
4.7598293e-07
4.6629033e-07
4.5623681e-07
4.4666755e-07
4.3911448e-07
4.3114402e-07
4.2393027e-07
4.1754003e-07
4.1169065e-07
4.0593738e-07
4.0091198e-07
3.9522652e-07
3.9076795e-07
3.8597101e-07
3.8224923e-07
3.773578e-07
3.7333742e-07
3.7078778e-07
3.6758436e-07
3.6370867e-07
3.5961746e-07
3.5705979e-07
3.5541396e-07
3.5208726e-07
3.4964614e-07
3.4622785e-07
3.4409169e-07
3.4166412e-07
3.4011632e-07
3.3732438e-07
3.3488654e-07
3.3203042e-07
3.2971966e-07
3.2701032e-07
3.2507318e-07
3.2212796e-07
3.2075657e-07
3.1863235e-07
3.1730603e-07
3.1534877e-07
3.1461432e-07
3.1317247e-07
3.1226602e-07
3.1199746e-07
3.1216137e-07
3.1261276e-07
3.1363399e-07
3.1464273e-07
3.1731366e-07
3.1916426e-07
3.2309609e-07
3.2664003e-07
3.319239e-07
3.3680076e-07
3.487628e-07
3.5803663e-07
3.7111107e-07
3.7677285e-07
3.8222276e-07
3.8734695e-07
4.0231617e-07
3.940996e-06
3.0112164e-06
2.4225427e-06
2.024187e-06
1.7383943e-06
1.525404e-06
1.3605709e-06
1.2306903e-06
1.1246315e-06
1.0377716e-06
9.6354259e-07
9.0165518e-07
8.4683699e-07
8.0074501e-07
7.5925939e-07
7.238447e-07
6.9137838e-07
6.6357787e-07
6.3744197e-07
6.1468167e-07
5.9359753e-07
5.742239e-07
5.5705486e-07
5.4131716e-07
5.2622696e-07
5.1260497e-07
5.0037823e-07
4.879019e-07
4.7671725e-07
4.6699934e-07
4.5689769e-07
4.4753071e-07
4.3981032e-07
4.3181494e-07
4.2455504e-07
4.1834208e-07
4.1227623e-07
4.0669569e-07
4.0146732e-07
3.9603925e-07
3.9141705e-07
3.8682386e-07
3.8292682e-07
3.7818893e-07
3.7419347e-07
3.7174008e-07
3.6800683e-07
3.641606e-07
3.6006342e-07
3.5794471e-07
3.5630259e-07
3.5287537e-07
3.5003881e-07
3.4660979e-07
3.4458241e-07
3.4262842e-07
3.4089939e-07
3.3804596e-07
3.3536745e-07
3.322674e-07
3.3039153e-07
3.2732832e-07
3.2553044e-07
3.2252038e-07
3.2089424e-07
3.186711e-07
3.1742976e-07
3.1516444e-07
3.1410564e-07
3.1217212e-07
3.1166776e-07
3.1075582e-07
3.1075841e-07
3.1080951e-07
3.1107487e-07
3.1177701e-07
3.1399255e-07
3.1539399e-07
3.1915342e-07
3.218908e-07
3.2773723e-07
3.3220772e-07
3.3733793e-07
3.4245091e-07
3.5612089e-07
3.6426274e-07
3.7437289e-07
3.7898963e-07
3.8700931e-07
3.9419761e-06
3.012762e-06
2.4242044e-06
2.0258252e-06
1.7399582e-06
1.5268797e-06
1.3619629e-06
1.2320027e-06
1.1258628e-06
1.0389677e-06
9.6464099e-07
9.0273231e-07
8.478547e-07
8.0174651e-07
7.6011123e-07
7.2483901e-07
6.9218886e-07
6.6445125e-07
6.382132e-07
6.1552621e-07
5.9420706e-07
5.750192e-07
5.5767555e-07
5.4202122e-07
5.2682867e-07
5.1333999e-07
5.0088298e-07
4.8859563e-07
4.7732334e-07
4.6761763e-07
4.5747686e-07
4.4818285e-07
4.401555e-07
4.3230335e-07
4.2507438e-07
4.1883942e-07
4.1250795e-07
4.0705834e-07
4.0171588e-07
3.9642185e-07
3.9167546e-07
3.8712937e-07
3.830115e-07
3.7839381e-07
3.7442653e-07
3.7206857e-07
3.6807184e-07
3.6429051e-07
3.6015398e-07
3.5832601e-07
3.5650622e-07
3.5320073e-07
3.5006902e-07
3.4656805e-07
3.4466587e-07
3.4282497e-07
3.4095553e-07
3.3816284e-07
3.3548066e-07
3.323715e-07
3.3053536e-07
3.2737178e-07
3.2537353e-07
3.2232487e-07
3.2086087e-07
3.1843382e-07
3.1717246e-07
3.1469402e-07
3.1346839e-07
3.1129137e-07
3.1060902e-07
3.0949902e-07
3.0921265e-07
3.09012e-07
3.0925031e-07
3.0960404e-07
3.1061014e-07
3.1202436e-07
3.1583665e-07
3.1812582e-07
3.2373452e-07
3.2657942e-07
3.3119133e-07
3.3436569e-07
3.4246788e-07
3.489626e-07
3.6351238e-07
3.7202466e-07
3.8306532e-07
3.9429334e-06
3.0142648e-06
2.4258165e-06
2.027413e-06
1.7414656e-06
1.5283006e-06
1.3633049e-06
1.2332611e-06
1.1270583e-06
1.04011e-06
9.6571798e-07
9.0374984e-07
8.4884984e-07
8.026986e-07
7.6090983e-07
7.2581855e-07
6.9295715e-07
6.6524143e-07
6.3895628e-07
6.1633633e-07
5.9488008e-07
5.7584016e-07
5.5832729e-07
5.4275116e-07
5.2748525e-07
5.1409096e-07
5.0145961e-07
4.8933935e-07
4.7800021e-07
4.6828382e-07
4.5807949e-07
4.4896943e-07
4.4063722e-07
4.3295143e-07
4.2575811e-07
4.1947181e-07
4.1292034e-07
4.0776752e-07
4.0229708e-07
3.9714851e-07
3.9227593e-07
3.8791294e-07
3.8355607e-07
3.7908886e-07
3.7506041e-07
3.7275374e-07
3.6856077e-07
3.6479334e-07
3.607732e-07
3.5907728e-07
3.5683069e-07
3.5376218e-07
3.5084305e-07
3.4728136e-07
3.454649e-07
3.433204e-07
3.4115251e-07
3.3849921e-07
3.3622702e-07
3.3311674e-07
3.3119626e-07
3.2806002e-07
3.2585562e-07
3.2258583e-07
3.2105356e-07
3.1861182e-07
3.1738469e-07
3.1457923e-07
3.1330664e-07
3.1108576e-07
3.1013892e-07
3.089261e-07
3.0845738e-07
3.0768104e-07
3.0766408e-07
3.0793279e-07
3.0826934e-07
3.0951329e-07
3.1306964e-07
3.1555469e-07
3.1995566e-07
3.2176452e-07
3.2552315e-07
3.2926037e-07
3.3718306e-07
3.4166591e-07
3.5086619e-07
3.6071291e-07
3.7230513e-07
3.9438488e-06
3.015707e-06
2.4273666e-06
2.028945e-06
1.742931e-06
1.5296764e-06
1.3646055e-06
1.2344683e-06
1.1282211e-06
1.0411949e-06
9.6677669e-07
9.0470836e-07
8.498332e-07
8.0360804e-07
7.6170151e-07
7.2675446e-07
6.9369425e-07
6.6600723e-07
6.3968134e-07
6.1711877e-07
5.9552493e-07
5.7659376e-07
5.5893985e-07
5.4343599e-07
5.2804836e-07
5.1476232e-07
5.019652e-07
4.8999292e-07
4.7856933e-07
4.6894931e-07
4.5851105e-07
4.4953918e-07
4.4097425e-07
4.3348035e-07
4.2621782e-07
4.1988114e-07
4.1321632e-07
4.082135e-07
4.0257499e-07
3.9745796e-07
3.9248295e-07
3.8833739e-07
3.8376455e-07
3.793525e-07
3.7521217e-07
3.7294604e-07
3.6870481e-07
3.6496112e-07
3.6096372e-07
3.5932856e-07
3.5686308e-07
3.5384791e-07
3.510748e-07
3.4753512e-07
3.4566411e-07
3.4339497e-07
3.4109142e-07
3.3839543e-07
3.3640586e-07
3.3330473e-07
3.3136841e-07
3.2818859e-07
3.2595248e-07
3.2253783e-07
3.2102207e-07
3.1845861e-07
3.1716676e-07
3.144683e-07
3.1291208e-07
3.1055173e-07
3.0956903e-07
3.0817549e-07
3.0729042e-07
3.0631232e-07
3.0628793e-07
3.0637875e-07
3.0668288e-07
3.0782137e-07
3.1045147e-07
3.1269761e-07
3.159721e-07
3.1784115e-07
3.2212204e-07
3.2503096e-07
3.3133236e-07
3.3547599e-07
3.4399255e-07
3.5153866e-07
3.6072458e-07
3.9447359e-06
3.0171013e-06
2.4288681e-06
2.0304213e-06
1.744342e-06
1.5310026e-06
1.365866e-06
1.2356336e-06
1.1293555e-06
1.0422307e-06
9.6782222e-07
9.0561742e-07
8.5080721e-07
8.0445738e-07
7.6251993e-07
7.2765243e-07
6.9441594e-07
6.6679941e-07
6.4039004e-07
6.1787395e-07
5.9619782e-07
5.7731404e-07
5.5956935e-07
5.4409359e-07
5.285853e-07
5.1543013e-07
5.0252961e-07
4.9059559e-07
4.7916568e-07
4.6967577e-07
4.5908458e-07
4.502104e-07
4.4156688e-07
4.341721e-07
4.2675438e-07
4.2042469e-07
4.1370141e-07
4.0884976e-07
4.030024e-07
3.9800555e-07
3.928888e-07
3.8899522e-07
3.8432196e-07
3.8009958e-07
3.7577966e-07
3.7335028e-07
3.6909336e-07
3.6560136e-07
3.6160395e-07
3.599557e-07
3.5718212e-07
3.5421728e-07
3.5136568e-07
3.4843055e-07
3.4650129e-07
3.4383906e-07
3.4136605e-07
3.3853445e-07
3.3670839e-07
3.3390602e-07
3.3189673e-07
3.2870019e-07
3.2622392e-07
3.2275393e-07
3.2120787e-07
3.1867708e-07
3.1725274e-07
3.145629e-07
3.1279128e-07
3.1064506e-07
3.0928166e-07
3.0730358e-07
3.0653786e-07
3.0557719e-07
3.0542339e-07
3.0528156e-07
3.0561478e-07
3.0623107e-07
3.0837224e-07
3.1024695e-07
3.135406e-07
3.1533768e-07
3.196532e-07
3.2211464e-07
3.2702429e-07
3.3042933e-07
3.375716e-07
3.4416368e-07
3.5447945e-07
3.9455921e-06
3.0184459e-06
2.4303172e-06
2.031838e-06
1.7457032e-06
1.5322736e-06
1.3670788e-06
1.236757e-06
1.1304498e-06
1.0432267e-06
9.6884177e-07
9.0647797e-07
8.5174419e-07
8.0525058e-07
7.6334642e-07
7.2841957e-07
6.9516073e-07
6.675532e-07
6.4101233e-07
6.186065e-07
5.9685123e-07
5.7795541e-07
5.6014674e-07
5.4471224e-07
5.2907803e-07
5.1605596e-07
5.0307926e-07
4.9111865e-07
4.7967306e-07
4.7026742e-07
4.5954925e-07
4.5064794e-07
4.4198996e-07
4.3465409e-07
4.270688e-07
4.2068879e-07
4.1399685e-07
4.0918687e-07
4.0331455e-07
3.983308e-07
3.9309893e-07
3.893198e-07
3.8462024e-07
3.805076e-07
3.7605664e-07
3.7347344e-07
3.6920226e-07
3.6580067e-07
3.6187557e-07
3.601628e-07
3.5724131e-07
3.5438417e-07
3.512825e-07
3.4869704e-07
3.4674916e-07
3.4391302e-07
3.413924e-07
3.384699e-07
3.3678999e-07
3.3400015e-07
3.3200016e-07
3.2870185e-07
3.2620107e-07
3.2271234e-07
3.2113768e-07
3.1861075e-07
3.170072e-07
3.1425181e-07
3.1265407e-07
3.1020149e-07
3.0845386e-07
3.0670433e-07
3.0575223e-07
3.0470008e-07
3.0418372e-07
3.0405856e-07
3.0449776e-07
3.0501597e-07
3.0668376e-07
3.083439e-07
3.107936e-07
3.1278252e-07
3.1710743e-07
3.1896381e-07
3.2338999e-07
3.2609131e-07
3.3163978e-07
3.3611486e-07
3.4739862e-07
3.9464158e-06
3.0197387e-06
2.4317168e-06
2.0332086e-06
1.7470312e-06
1.5335034e-06
1.3682536e-06
1.2378386e-06
1.1315047e-06
1.0441874e-06
9.698263e-07
9.0731425e-07
8.5265192e-07
8.0601451e-07
7.6417885e-07
7.2909832e-07
6.959213e-07
6.6823547e-07
6.4162324e-07
6.1927701e-07
5.9749063e-07
5.7854603e-07
5.6073587e-07
5.4528609e-07
5.2960575e-07
5.1669117e-07
5.0369639e-07
4.9162541e-07
4.8024772e-07
4.7081085e-07
4.6009698e-07
4.5113107e-07
4.4250903e-07
4.3520734e-07
4.2751434e-07
4.2108276e-07
4.1443051e-07
4.0958069e-07
4.0367764e-07
3.9873956e-07
3.9342006e-07
3.8957895e-07
3.8496599e-07
3.8104675e-07
3.7660189e-07
3.7359248e-07
3.6940156e-07
3.6597826e-07
3.6219564e-07
3.6042519e-07
3.5740256e-07
3.5445455e-07
3.5128559e-07
3.4880876e-07
3.4680988e-07
3.4396173e-07
3.4136729e-07
3.3842435e-07
3.3688371e-07
3.3406005e-07
3.319961e-07
3.2890953e-07
3.2611802e-07
3.2280772e-07
3.2093216e-07
3.1870956e-07
3.166781e-07
3.1409528e-07
3.1235867e-07
3.0977447e-07
3.0788836e-07
3.0647489e-07
3.0511717e-07
3.0397926e-07
3.0312862e-07
3.0309912e-07
3.0339364e-07
3.0398263e-07
3.0513042e-07
3.0623128e-07
3.0827967e-07
3.1068303e-07
3.1390424e-07
3.1569786e-07
3.2008683e-07
3.2304781e-07
3.3037638e-07
3.3532349e-07
3.439888e-07
3.9472186e-06
3.0209877e-06
2.4330756e-06
2.0345202e-06
1.7483151e-06
1.5346825e-06
1.3693915e-06
1.2388802e-06
1.1325246e-06
1.0451118e-06
9.7076923e-07
9.0812757e-07
8.5352156e-07
8.0675407e-07
7.6498981e-07
7.2971585e-07
6.9667406e-07
6.688736e-07
6.4225937e-07
6.1988791e-07
5.9808995e-07
5.7909109e-07
5.6127404e-07
5.4576049e-07
5.3010124e-07
5.1717545e-07
5.0420365e-07
4.9202398e-07
4.807957e-07
4.7123029e-07
4.6056876e-07
4.5157385e-07
4.4298332e-07
4.355962e-07
4.2790592e-07
4.2143682e-07
4.1485562e-07
4.0983303e-07
4.0392422e-07
3.9900623e-07
3.9366802e-07
3.8968919e-07
3.8508282e-07
3.812155e-07
3.7686109e-07
3.7354309e-07
3.6938863e-07
3.6584927e-07
3.6226205e-07
3.6024078e-07
3.5726975e-07
3.5422173e-07
3.5115918e-07
3.4863654e-07
3.4660657e-07
3.4356516e-07
3.4108459e-07
3.3802658e-07
3.3636129e-07
3.3381627e-07
3.3144707e-07
3.2869612e-07
3.2534726e-07
3.225658e-07
3.2029212e-07
3.180602e-07
3.1593466e-07
3.1359505e-07
3.1138274e-07
3.0896619e-07
3.0704653e-07
3.0565778e-07
3.0410343e-07
3.0292403e-07
3.0184326e-07
3.0173029e-07
3.0185844e-07
3.02403e-07
3.0342663e-07
3.0415853e-07
3.0654043e-07
3.0822815e-07
3.1089262e-07
3.1268296e-07
3.1689265e-07
3.2091579e-07
3.2813662e-07
3.328154e-07
3.3933957e-07
3.9479848e-06
3.02218e-06
2.4343873e-06
2.0357749e-06
1.7495631e-06
1.5358084e-06
1.3704952e-06
1.2398815e-06
1.1335151e-06
1.0459959e-06
9.7167585e-07
9.0891454e-07
8.543477e-07
8.0746452e-07
7.6577306e-07
7.3029187e-07
6.9742668e-07
6.6944896e-07
6.4291549e-07
6.2043347e-07
5.9869292e-07
5.796392e-07
5.6184929e-07
5.4620352e-07
5.306444e-07
5.1761343e-07
5.0469785e-07
4.923971e-07
4.8136074e-07
4.7156974e-07
4.6102592e-07
4.519709e-07
4.4344729e-07
4.3583011e-07
4.2816726e-07
4.2158548e-07
4.1505119e-07
4.098695e-07
4.0398375e-07
3.9906122e-07
3.9376683e-07
3.8963949e-07
3.8509913e-07
3.812431e-07
3.7703813e-07
3.7339666e-07
3.6914903e-07
3.6550401e-07
3.6209919e-07
3.5988508e-07
3.568451e-07
3.5379685e-07
3.5074176e-07
3.480648e-07
3.4611636e-07
3.4274587e-07
3.404181e-07
3.3754868e-07
3.3542789e-07
3.3311711e-07
3.3074371e-07
3.2793515e-07
3.2461117e-07
3.2174871e-07
3.1947781e-07
3.1703415e-07
3.148129e-07
3.1246178e-07
3.1022964e-07
3.0790287e-07
3.0599921e-07
3.0422198e-07
3.0275898e-07
3.0131635e-07
3.0043512e-07
3.0027874e-07
3.0031539e-07
3.0077299e-07
3.0152686e-07
3.0240543e-07
3.0410341e-07
3.0562133e-07
3.0836738e-07
3.1077027e-07
3.1540156e-07
3.1798253e-07
3.2273747e-07
3.2783834e-07
3.3413617e-07
3.9487391e-06
3.023334e-06
2.4356662e-06
2.0369754e-06
1.7507806e-06
1.5368796e-06
1.3715722e-06
1.2408317e-06
1.1344781e-06
1.046833e-06
9.7254057e-07
9.0966906e-07
8.5512311e-07
8.0812698e-07
7.6651422e-07
7.308155e-07
6.9813856e-07
6.6994278e-07
6.435704e-07
6.208823e-07
5.9924811e-07
5.8010746e-07
5.6238317e-07
5.465395e-07
5.3119441e-07
5.1793152e-07
5.0513021e-07
4.9267519e-07
4.818036e-07
4.7172165e-07
4.613066e-07
4.5215461e-07
4.4367287e-07
4.3583095e-07
4.2821611e-07
4.2150103e-07
4.1510532e-07
4.0960016e-07
4.0384059e-07
3.9884824e-07
3.9361628e-07
3.8918322e-07
3.8462641e-07
3.8085067e-07
3.7673531e-07
3.7276915e-07
3.685423e-07
3.6473942e-07
3.6145324e-07
3.5906921e-07
3.5587989e-07
3.5262529e-07
3.4969288e-07
3.4684938e-07
3.446811e-07
3.4149058e-07
3.3870703e-07
3.3622521e-07
3.3382731e-07
3.3133283e-07
3.2903526e-07
3.2614108e-07
3.229713e-07
3.2000388e-07
3.1754741e-07
3.1513368e-07
3.129385e-07
3.1043112e-07
3.0811286e-07
3.0590866e-07
3.0395727e-07
3.0205118e-07
3.0052756e-07
2.9895595e-07
2.9824441e-07
2.9800475e-07
2.9794896e-07
2.9825897e-07
2.9870173e-07
2.9972346e-07
3.011131e-07
3.0208407e-07
3.0484801e-07
3.0775917e-07
3.1195625e-07
3.1408486e-07
3.1893539e-07
3.2172809e-07
3.279536e-07
3.9494604e-06
3.0244289e-06
2.4369077e-06
2.0381183e-06
1.7519715e-06
1.5378928e-06
1.3726197e-06
1.2417231e-06
1.1354127e-06
1.0476154e-06
9.7336812e-07
9.1039043e-07
8.5585097e-07
8.0874114e-07
7.6720996e-07
7.3128303e-07
6.9879829e-07
6.7033477e-07
6.4418795e-07
6.2118873e-07
5.9970079e-07
5.8039455e-07
5.6272574e-07
5.4667053e-07
5.3152505e-07
5.1804117e-07
5.0532061e-07
4.9268395e-07
4.8199499e-07
4.7155554e-07
4.6134697e-07
4.5202009e-07
4.4364699e-07
4.3544158e-07
4.2797772e-07
4.2109991e-07
4.1475522e-07
4.0891376e-07
4.0321981e-07
3.981205e-07
3.9293112e-07
3.8814874e-07
3.8358088e-07
3.7965507e-07
3.756114e-07
3.713488e-07
3.6714038e-07
3.6304664e-07
3.5970311e-07
3.5713282e-07
3.5393073e-07
3.5046376e-07
3.4768459e-07
3.4471889e-07
3.4223229e-07
3.3903614e-07
3.360679e-07
3.3370058e-07
3.3137095e-07
3.2856483e-07
3.2612761e-07
3.233119e-07
3.202927e-07
3.1721823e-07
3.1455431e-07
3.1204459e-07
3.0998167e-07
3.0745084e-07
3.0512925e-07
3.0283245e-07
3.0073578e-07
2.9899619e-07
2.9747184e-07
2.9594681e-07
2.9498238e-07
2.9465593e-07
2.9461717e-07
2.948893e-07
2.9535892e-07
2.9639569e-07
2.9736576e-07
2.9801853e-07
3.0030879e-07
3.0222735e-07
3.0560277e-07
3.0805048e-07
3.1274219e-07
3.1502642e-07
3.1983521e-07
3.9501788e-06
3.025486e-06
2.4381287e-06
2.0391964e-06
1.7531393e-06
1.5388397e-06
1.3736458e-06
1.2425446e-06
1.1363146e-06
1.048322e-06
9.741332e-07
9.1104275e-07
8.5650005e-07
8.0925728e-07
7.6781491e-07
7.3162689e-07
6.9932362e-07
6.7056265e-07
6.4462357e-07
6.2129068e-07
5.9992346e-07
5.8041321e-07
5.628362e-07
5.4647878e-07
5.3158295e-07
5.1771851e-07
5.0516386e-07
4.9228235e-07
4.8181173e-07
4.7089711e-07
4.6088126e-07
4.5126651e-07
4.4298747e-07
4.3441243e-07
4.2703874e-07
4.1993429e-07
4.1359008e-07
4.0739376e-07
4.0175449e-07
3.9646557e-07
3.9134827e-07
3.8622588e-07
3.8167567e-07
3.775672e-07
3.7356757e-07
3.6905709e-07
3.6467169e-07
3.604143e-07
3.5692856e-07
3.5407341e-07
3.5084052e-07
3.4724892e-07
3.4428936e-07
3.4142382e-07
3.3857013e-07
3.3520281e-07
3.3224342e-07
3.2974738e-07
3.2737334e-07
3.2464135e-07
3.2204424e-07
3.1924904e-07
3.1618042e-07
3.1326873e-07
3.1042436e-07
3.0773193e-07
3.056642e-07
3.0318732e-07
3.0089026e-07
2.9863219e-07
2.9631911e-07
2.9460506e-07
2.9305068e-07
2.9154166e-07
2.9050452e-07
2.8998544e-07
2.8988002e-07
2.8999014e-07
2.904875e-07
2.9121778e-07
2.9201844e-07
2.9286953e-07
2.9492627e-07
2.9638907e-07
2.9875735e-07
3.0054581e-07
3.0461187e-07
3.0666944e-07
3.1097039e-07
3.9508653e-06
3.0264777e-06
2.4393158e-06
2.0402036e-06
1.7542828e-06
1.5397084e-06
1.3746362e-06
1.2432713e-06
1.1371648e-06
1.0489094e-06
9.7480149e-07
9.1156394e-07
8.569931e-07
8.0956786e-07
7.6818031e-07
7.3168815e-07
6.9955279e-07
6.7039658e-07
6.4471324e-07
6.2093573e-07
5.9974515e-07
5.7989441e-07
5.6240007e-07
5.4567424e-07
5.30994e-07
5.166579e-07
5.042384e-07
4.9100251e-07
4.8064012e-07
4.6928021e-07
4.5940597e-07
4.4939986e-07
4.4116006e-07
4.3217447e-07
4.2480429e-07
4.1740341e-07
4.1112302e-07
4.044688e-07
3.9885393e-07
3.9322241e-07
3.8814807e-07
3.827482e-07
3.7800129e-07
3.7365838e-07
3.695541e-07
3.6495431e-07
3.6035329e-07
3.5606565e-07
3.5244397e-07
3.4915569e-07
3.458933e-07
3.4224208e-07
3.3906562e-07
3.3629551e-07
3.3319114e-07
3.298008e-07
3.2679477e-07
3.2407097e-07
3.2149615e-07
3.1887808e-07
3.1624829e-07
3.1346716e-07
3.1031757e-07
3.0754574e-07
3.0463122e-07
3.0196152e-07
2.9978319e-07
2.9714677e-07
2.9487478e-07
2.9289049e-07
2.9070692e-07
2.8880812e-07
2.8720038e-07
2.8573181e-07
2.8471882e-07
2.8409043e-07
2.8383131e-07
2.8386676e-07
2.8432175e-07
2.8479007e-07
2.8551896e-07
2.8651496e-07
2.8844603e-07
2.8958317e-07
2.9177362e-07
2.9337999e-07
2.9645596e-07
2.9827836e-07
3.0266117e-07
3.9515574e-06
3.0274257e-06
2.4404849e-06
2.0411241e-06
1.7553862e-06
1.5404667e-06
1.375548e-06
1.2438416e-06
1.1378815e-06
1.0492662e-06
9.752073e-07
9.1174003e-07
8.5710677e-07
8.0941532e-07
7.6805049e-07
7.3114018e-07
6.9913447e-07
6.6948372e-07
6.4399113e-07
6.1967532e-07
5.9860184e-07
5.7828276e-07
5.6084797e-07
5.4370214e-07
5.2914513e-07
5.1429908e-07
5.0196044e-07
4.8833743e-07
4.7795676e-07
4.662527e-07
4.5639866e-07
4.459188e-07
4.3767351e-07
4.2832188e-07
4.2086311e-07
4.1311149e-07
4.0680527e-07
3.9982286e-07
3.9416732e-07
3.8826374e-07
3.8321093e-07
3.7761672e-07
3.7268746e-07
3.6816114e-07
3.6396631e-07
3.5924543e-07
3.5454794e-07
3.5011061e-07
3.4614451e-07
3.42612e-07
3.3921922e-07
3.3559486e-07
3.3230907e-07
3.294421e-07
3.2628018e-07
3.2291885e-07
3.1977507e-07
3.1709564e-07
3.1437193e-07
3.1177295e-07
3.0922454e-07
3.0662992e-07
3.0372494e-07
3.0067562e-07
2.9778833e-07
2.9529917e-07
2.9293132e-07
2.903485e-07
2.879699e-07
2.8594527e-07
2.8395049e-07
2.8185403e-07
2.8024648e-07
2.787168e-07
2.775624e-07
2.7685661e-07
2.7639461e-07
2.7640755e-07
2.7673733e-07
2.768745e-07
2.7735442e-07
2.7828559e-07
2.7961326e-07
2.8037691e-07
2.8241544e-07
2.8413812e-07
2.8662118e-07
2.8794004e-07
2.9158267e-07
3.9522027e-06
3.0282903e-06
2.4416062e-06
2.0419284e-06
1.7563958e-06
1.541038e-06
1.3762562e-06
1.2440688e-06
1.1382239e-06
1.0490661e-06
9.7500093e-07
9.1114213e-07
8.5633847e-07
8.0820432e-07
7.667241e-07
7.2927094e-07
6.9726996e-07
6.670144e-07
6.4157835e-07
6.1666585e-07
5.9558359e-07
5.7466584e-07
5.5720678e-07
5.3964833e-07
5.2510749e-07
5.098099e-07
4.9745126e-07
4.8344947e-07
4.7286987e-07
4.6100165e-07
4.5104837e-07
4.400841e-07
4.3172551e-07
4.2212241e-07
4.1441533e-07
4.0634499e-07
3.9988656e-07
3.9265983e-07
3.8681959e-07
3.8064578e-07
3.7557776e-07
3.6982128e-07
3.6471611e-07
3.5995089e-07
3.5563971e-07
3.5084136e-07
3.4624507e-07
3.4146739e-07